/*--------------------------------*- C++ -*----------------------------------*\
  =========                 |
  \\      /  F ield         | OpenFOAM: The Open Source CFD Toolbox
   \\    /   O peration     | Website:  https://openfoam.org
    \\  /    A nd           | Version:  6
     \\/     M anipulation  |
\*---------------------------------------------------------------------------*/
FoamFile
{
    version     2.0;
    format      ascii;
    class       pointVectorField;
    location    "1.07";
    object      u;
}
// * * * * * * * * * * * * * * * * * * * * * * * * * * * * * * * * * * * * * //

dimensions      [0 1 0 0 0 0 0];

internalField   nonuniform List<vector> 
28033
(
(0 0 0)
(0 0 0)
(2.4609576 -0.29275243 0.010436278)
(2.2980423 -0.83905335 0.0095926423)
(0 0 0)
(0 0 0)
(2.2976951 -0.84082293 0.0092851487)
(2.4606104 -0.29458187 0.009862503)
(0 0 0)
(0 0 0)
(0 0 0)
(0 0 0)
(0 0 0)
(0 0 0)
(0 0 0)
(0 0 0)
(0 0 0)
(0 0 0)
(0 0 0)
(0 0 0)
(0 0 0)
(0 0 0)
(0 0 0)
(2.450435 -0.32732052 0.010141324)
(2.440008 -0.36152261 0.010061792)
(2.4296493 -0.39561612 0.0099596861)
(2.4193842 -0.4296615 0.0099314835)
(2.4091773 -0.46364061 0.0099172911)
(2.3990203 -0.4975871 0.0099292753)
(2.3889189 -0.53151532 0.0099590144)
(2.3788532 -0.56544939 0.0099985692)
(2.3688185 -0.59939773 0.010033707)
(2.3587907 -0.63339047 0.010069544)
(2.3487776 -0.66742599 0.010078858)
(2.3387354 -0.70153672 0.010058075)
(2.3286976 -0.73572228 0.010021172)
(2.3185705 -0.77000455 0.0099526615)
(2.3084349 -0.80442274 0.0098076915)
(0.0063011235 0.0094812367 0.010486722)
(0.0077580868 0.014984108 0.014264567)
(0.0099771329 0.02072269 0.017223989)
(0.013235242 0.026631104 0.019021993)
(0.01706993 0.032685233 0.020198589)
(0.022053233 0.038793457 0.020986745)
(0.027877553 0.04499099 0.021462197)
(0.034700863 0.05098574 0.02169903)
(0.042398597 0.057084531 0.021816493)
(0.051065383 0.062898443 0.02182605)
(0.060534583 0.068683759 0.021758869)
(0.070910306 0.074213357 0.021611705)
(0.0820881 0.079621945 0.021511856)
(0.094167426 0.084776079 0.021288649)
(0.10694186 0.089726512 0.021147541)
(0.1205703 0.094427478 0.020902577)
(0.1349369 0.098907545 0.02074329)
(0.15008235 0.10309086 0.020510755)
(0.16591775 0.10704541 0.020321383)
(0.18250103 0.11070697 0.020087255)
(0.19974721 0.11409812 0.019906449)
(0.21770219 0.11720251 0.019662031)
(0.2362944 0.12001083 0.019479929)
(0.25555658 0.12254528 0.019253808)
(0.27540917 0.12475776 0.019049941)
(0.295894 0.12669932 0.018836773)
(0.31694859 0.12831161 0.018639569)
(0.33859695 0.12965901 0.018425905)
(0.36078001 0.13066617 0.018219722)
(0.3835093 0.1313965 0.018021589)
(0.40676798 0.13182284 0.017812832)
(0.43050919 0.13194381 0.017607724)
(0.45475086 0.13177312 0.017412499)
(0.47946762 0.131285 0.017209145)
(0.50463817 0.1305263 0.017003098)
(0.5302553 0.12945582 0.016801766)
(0.55628409 0.12810185 0.016608031)
(0.58274659 0.12645948 0.016409604)
(0.6095777 0.12452744 0.016200911)
(0.63680922 0.12232317 0.016008203)
(0.66439234 0.11982931 0.015807051)
(0.69233336 0.11707986 0.015616201)
(0.72061147 0.11404719 0.015416139)
(0.74921809 0.11076085 0.01522878)
(0.77812536 0.10720731 0.01503782)
(0.80733912 0.10340776 0.014853168)
(0.83682687 0.099357037 0.014672201)
(0.86659535 0.095065229 0.014494278)
(0.89661383 0.090537977 0.014322143)
(0.92688848 0.085779231 0.014154289)
(0.95739224 0.08079803 0.013991413)
(0.98812719 0.07559627 0.013834036)
(1.0190739 0.07018545 0.013681773)
(1.0502278 0.064565202 0.013535097)
(1.0815773 0.05874843 0.013393407)
(1.113113 0.052735075 0.013258032)
(1.1448274 0.046536076 0.013127289)
(1.1767109 0.040154336 0.013002882)
(1.208756 0.033598159 0.012883843)
(1.2409546 0.026871335 0.012771065)
(1.2732999 0.019982939 0.012663818)
(1.305785 0.01293513 0.012563168)
(1.3384011 0.0057391527 0.012469407)
(1.3711479 -0.0016095479 0.012379651)
(1.4040109 -0.0090868408 0.012302027)
(1.436994 -0.016709732 0.012223932)
(1.4700817 -0.024460111 0.012159702)
(1.5032806 -0.032333609 0.012098828)
(1.5365782 -0.040330184 0.01203862)
(1.5699795 -0.048440766 0.011989771)
(1.6034734 -0.056667349 0.011944247)
(1.6370581 -0.065005844 0.011904516)
(1.6707393 -0.073443425 0.011862695)
(1.7044979 -0.082002631 0.011830022)
(1.7383556 -0.090640909 0.011787211)
(1.7722781 -0.099415983 0.011757381)
(1.8062984 -0.10824759 0.011709334)
(1.8403759 -0.11723193 0.011676304)
(1.8745428 -0.12625463 0.01161967)
(1.9087616 -0.13543677 0.011579865)
(1.943059 -0.14465683 0.011509999)
(1.9773976 -0.15401876 0.011462115)
(2.0118053 -0.16343666 0.011381335)
(2.0462377 -0.17296962 0.011321728)
(2.0807292 -0.18256982 0.011236545)
(2.1152375 -0.19226144 0.011162279)
(2.1497766 -0.2020433 0.011077244)
(2.184325 -0.21187736 0.011001356)
(2.2188864 -0.2218046 0.010913297)
(2.2534432 -0.23176233 0.010843111)
(2.2879862 -0.24182953 0.010782916)
(2.3225487 -0.25184412 0.010696899)
(2.3570506 -0.26201775 0.010695295)
(2.3916162 -0.27212852 0.010627203)
(2.4261349 -0.28226841 0.010643273)
(0.0023262883 -0.01079741 -0.012301721)
(0.0041762797 -0.014542187 -0.014752128)
(0.0053591107 -0.020060794 -0.019051273)
(0.0067939153 -0.02465648 -0.020630474)
(0.010030895 -0.030340869 -0.022148682)
(0.013719265 -0.036301167 -0.022918242)
(0.018423127 -0.041816817 -0.023399257)
(0.023988619 -0.048041248 -0.023501344)
(0.030517097 -0.054090204 -0.023496055)
(0.037675865 -0.060256128 -0.023313861)
(0.045773331 -0.066570154 -0.023041681)
(0.054480047 -0.072862136 -0.02271568)
(0.064035539 -0.079310311 -0.022303939)
(0.074208401 -0.085782883 -0.021936024)
(0.085136682 -0.09229438 -0.021460725)
(0.096705287 -0.098949912 -0.021058936)
(0.10895401 -0.10553681 -0.020570962)
(0.12186698 -0.11234152 -0.02011728)
(0.13540909 -0.11910044 -0.019645462)
(0.14962302 -0.12600896 -0.019173955)
(0.16441804 -0.13292043 -0.018670149)
(0.17987233 -0.14000172 -0.018210506)
(0.195862 -0.14701713 -0.017703493)
(0.21252059 -0.15428063 -0.017208677)
(0.22967099 -0.16147002 -0.016723928)
(0.24749109 -0.16886948 -0.016189261)
(0.26576676 -0.17626319 -0.015728714)
(0.28468567 -0.18380324 -0.015179889)
(0.30404975 -0.19139174 -0.014717348)
(0.32401196 -0.1990825 -0.014170464)
(0.34441976 -0.20687211 -0.013692042)
(0.36538049 -0.21473391 -0.013167338)
(0.38678642 -0.22269789 -0.012675923)
(0.40870614 -0.23074483 -0.012160017)
(0.43106455 -0.23888891 -0.011663083)
(0.45389514 -0.24710406 -0.011167299)
(0.47715832 -0.25540979 -0.010653863)
(0.50085898 -0.26382082 -0.010162852)
(0.52497575 -0.27229271 -0.0096645944)
(0.54951011 -0.28086447 -0.0091716218)
(0.57443698 -0.28951118 -0.0086811672)
(0.59975501 -0.29823848 -0.0081950259)
(0.6254468 -0.30704515 -0.0077110599)
(0.65150556 -0.31592697 -0.0072332249)
(0.67791496 -0.3248827 -0.0067592915)
(0.70467081 -0.33391138 -0.0062902325)
(0.73175381 -0.34300835 -0.005828134)
(0.75916168 -0.35217434 -0.0053704038)
(0.78687636 -0.36140544 -0.0049205014)
(0.81489302 -0.37069966 -0.0044762765)
(0.84319763 -0.38005637 -0.0040394504)
(0.87178273 -0.38947201 -0.0036096511)
(0.90063658 -0.39894515 -0.0031871608)
(0.92975157 -0.40847476 -0.0027721444)
(0.95911623 -0.41805744 -0.0023648663)
(0.98872335 -0.42769202 -0.0019654412)
(1.0185625 -0.4373776 -0.0015738353)
(1.0486259 -0.44711025 -0.0011906856)
(1.0789039 -0.4568901 -0.00081598586)
(1.1093895 -0.46671494 -0.00044969166)
(1.1400727 -0.47658237 -9.2782436e-05)
(1.1709472 -0.48649186 0.00025516228)
(1.2020042 -0.49644172 0.00059353145)
(1.2332372 -0.50643053 0.00092248514)
(1.2646381 -0.51645681 0.0012411101)
(1.2962017 -0.52652159 0.0015510835)
(1.3279205 -0.536621 0.001849799)
(1.3597901 -0.54675858 0.00214117)
(1.3918046 -0.55692766 0.0024200229)
(1.4239592 -0.56712908 0.0026982535)
(1.4562494 -0.57737468 0.0029628654)
(1.4886729 -0.58764234 0.0032238775)
(1.5212264 -0.59795513 0.0034799361)
(1.5539052 -0.60829003 0.003730617)
(1.5867102 -0.61866688 0.0039826645)
(1.6196345 -0.62906613 0.0042282713)
(1.6526803 -0.63950215 0.0044807301)
(1.6858427 -0.64995962 0.0047285884)
(1.7191193 -0.66044851 0.0049848892)
(1.7525089 -0.6709535 0.0052395794)
(1.7860063 -0.68148464 0.0055033161)
(1.8196102 -0.69202425 0.0057670727)
(1.8533136 -0.70258147 0.0060396712)
(1.8871153 -0.71313981 0.0063125727)
(1.9210052 -0.72370329 0.006591804)
(1.9549819 -0.73426096 0.0068714792)
(1.9890346 -0.7448103 0.0071539617)
(2.0231585 -0.75534346 0.0074328029)
(2.0573427 -0.76586111 0.0077142902)
(2.0915839 -0.77635042 0.0079860874)
(2.1258653 -0.7868141 0.0082550929)
(2.1601901 -0.79725624 0.0085145234)
(2.1945367 -0.80767161 0.0087747166)
(2.2289409 -0.81806962 0.0090070798)
(2.2633599 -0.82852074 0.0092787907)
(0 0 0)
(0 0 0)
(0 0 0)
(0 0 0)
(0 0 0)
(0 0 0)
(0 0 0)
(0 0 0)
(0 0 0)
(0 0 0)
(0 0 0)
(0 0 0)
(0 0 0)
(0 0 0)
(0 0 0)
(0.005773167 -0.0045032001 0.0090042099)
(0.0057864106 -0.017162599 0.014521511)
(0.0053532279 -0.017884775 0.017620525)
(0.0077266725 -0.026325484 0.02059667)
(0.010109233 -0.030372135 0.021956142)
(0.014248926 -0.036849514 0.022663938)
(0.01872843 -0.04230634 0.023175046)
(0.024602733 -0.048888063 0.023374728)
(0.030937736 -0.054627726 0.023389243)
(0.038216651 -0.061236709 0.023223025)
(0.046383234 -0.067494864 0.023156417)
(0.054951516 -0.073763116 0.022789643)
(0.064662613 -0.080577671 0.022645115)
(0.074632301 -0.086703591 0.022216152)
(0.085762542 -0.093884892 0.022038029)
(0.097136062 -0.10001194 0.021654772)
(0.10948038 -0.10718968 0.021428323)
(0.12229026 -0.11357915 0.020993345)
(0.13586175 -0.12080522 0.020778393)
(0.15003934 -0.12749164 0.020377093)
(0.16477977 -0.13463628 0.020149948)
(0.18024577 -0.14165893 0.019778642)
(0.19619244 -0.14885631 0.01953383)
(0.21283006 -0.15609007 0.019212112)
(0.22996499 -0.16334595 0.018927764)
(0.24773896 -0.17081923 0.018646284)
(0.26601393 -0.17817037 0.018349911)
(0.28486693 -0.18585018 0.01808246)
(0.30424219 -0.19336571 0.017795936)
(0.32412746 -0.20118004 0.017533541)
(0.34454734 -0.20893737 0.017263545)
(0.36544948 -0.21684773 0.017002215)
(0.38685173 -0.22481434 0.01673962)
(0.40872809 -0.23288236 0.016477528)
(0.43107542 -0.24104701 0.016229028)
(0.45388055 -0.24923024 0.015963114)
(0.47711243 -0.2576072 0.015717268)
(0.50080219 -0.26599184 0.015467164)
(0.52489695 -0.27448536 0.015223848)
(0.54941357 -0.28305405 0.01497628)
(0.57432478 -0.29170929 0.014737918)
(0.59962539 -0.30043803 0.01450026)
(0.6253031 -0.30924855 0.014267661)
(0.65134605 -0.31813078 0.014040156)
(0.67774246 -0.32708801 0.013817646)
(0.70448262 -0.33611589 0.013601491)
(0.73155391 -0.34521208 0.01339099)
(0.75894688 -0.35437598 0.01318754)
(0.78664955 -0.36360367 0.012991093)
(0.81465257 -0.37289446 0.01280179)
(0.84294439 -0.38224532 0.012620773)
(0.87151692 -0.39165487 0.012445777)
(0.90035864 -0.40112129 0.012280208)
(0.92946161 -0.41064119 0.012120032)
(0.95881505 -0.42021597 0.011969312)
(0.98841168 -0.42983923 0.011823831)
(1.0182402 -0.43951398 0.011687839)
(1.0482943 -0.44923471 0.011557372)
(1.0785632 -0.45900187 0.011435699)
(1.1090402 -0.46881325 0.011320956)
(1.1397157 -0.47866708 0.0112142)
(1.1705828 -0.48856224 0.011115228)
(1.2016328 -0.49849776 0.011024557)
(1.2328593 -0.50847136 0.010941765)
(1.2642543 -0.51848332 0.010867185)
(1.2958118 -0.52853288 0.01080092)
(1.3275265 -0.53861663 0.010741274)
(1.3593906 -0.54874502 0.010692103)
(1.3914024 -0.55888616 0.010646244)
(1.423548 -0.56909127 0.010607753)
(1.4558403 -0.579314 0.010575414)
(1.4882591 -0.58957461 0.010547437)
(1.5208118 -0.59986983 0.010519616)
(1.5534902 -0.61019904 0.010495939)
(1.586294 -0.62056041 0.010470318)
(1.6192206 -0.63095398 0.010444594)
(1.6522674 -0.64137776 0.010414942)
(1.6854328 -0.65182993 0.010382799)
(1.7187129 -0.66230836 0.010344626)
(1.7521067 -0.67280927 0.010302256)
(1.7856086 -0.68333056 0.010252342)
(1.8192178 -0.69386774 0.010198121)
(1.8529267 -0.70441587 0.010136108)
(1.8867337 -0.71497225 0.010070527)
(1.9206299 -0.72552874 0.0099988762)
(1.9546119 -0.73608413 0.0099261189)
(1.9886702 -0.74662741 0.0098493028)
(2.0227991 -0.75716133 0.0097761412)
(2.0569885 -0.76767009 0.0097017997)
(2.0912323 -0.7781633 0.0096364682)
(2.125518 -0.78862025 0.0095726353)
(2.159844 -0.79906491 0.0095246132)
(2.1941922 -0.80946915 0.0094754625)
(2.2285976 -0.81988511 0.0094450774)
(2.2629792 -0.83031771 0.0093936473)
(2.3081255 -0.80620999 0.0091704521)
(2.3182435 -0.77182716 0.0091113786)
(2.3283614 -0.73750665 0.0091257231)
(2.338405 -0.70333723 0.009151476)
(2.3484493 -0.66922512 0.0092393701)
(2.3584528 -0.63518348 0.0093217865)
(2.3684833 -0.6012034 0.009449117)
(2.3785135 -0.56723641 0.0095669584)
(2.3885881 -0.53332612 0.0096870738)
(2.3986739 -0.49937702 0.0098096447)
(2.4088377 -0.46545016 0.0099022183)
(2.4190321 -0.43146055 0.0099808944)
(2.4293098 -0.39744609 0.010032304)
(2.4396136 -0.36330026 0.010040777)
(2.450085 -0.32917365 0.01001077)
(2.4258381 -0.28411613 0.0094642479)
(2.3912303 -0.27398426 0.0092356112)
(2.3567215 -0.26382643 0.0089761456)
(2.3221874 -0.25371114 0.0087312828)
(2.287649 -0.2436359 0.0084567285)
(2.2530975 -0.23360777 0.0081822778)
(2.21854 -0.22363699 0.0079003818)
(2.1839808 -0.21372472 0.0076108022)
(2.1494283 -0.20388692 0.0073237632)
(2.1148921 -0.19411792 0.0070307492)
(2.0803767 -0.18443299 0.0067435657)
(2.0458936 -0.17482845 0.0064559239)
(2.0114466 -0.16531254 0.0061728754)
(1.9770432 -0.15588265 0.0058891829)
(1.9426932 -0.14654964 0.0056131629)
(1.9084022 -0.13730883 0.0053407269)
(1.874175 -0.12816593 0.0050749713)
(1.840015 -0.11912089 0.0048118279)
(1.8059286 -0.11017355 0.0045521642)
(1.7719175 -0.10132854 0.0042949864)
(1.7379867 -0.092582573 0.004038733)
(1.7041379 -0.083941522 0.0037822989)
(1.670375 -0.075401937 0.0035243509)
(1.6366987 -0.066970642 0.0032632877)
(1.6031144 -0.058645174 0.0029995103)
(1.5696225 -0.050427342 0.0027287703)
(1.5362179 -0.042327056 0.0024512439)
(1.5029406 -0.034362914 0.0021785666)
(1.4697362 -0.026487578 0.0018855419)
(1.436651 -0.018753521 0.0015879173)
(1.4036742 -0.011146011 0.0012814798)
(1.3708151 -0.0036730907 0.00096751702)
(1.3380753 0.0036598076 0.00064520372)
(1.3054627 0.010847795 0.00031349484)
(1.2729824 0.017884474 -2.6132949e-05)
(1.2406416 0.024765379 -0.00037443841)
(1.2084467 0.031483098 -0.00073104553)
(1.1764056 0.038033197 -0.0010954773)
(1.1445259 0.04440814 -0.0014676975)
(1.1128157 0.050603416 -0.0018475137)
(1.0812835 0.05661133 -0.0022345015)
(1.0499385 0.062427298 -0.0026283337)
(1.0187894 0.068043835 -0.0030292227)
(0.9878463 0.073455908 -0.0034361248)
(0.95711887 0.078656539 -0.0038494888)
(0.9266177 0.083640211 -0.0042684814)
(0.89635343 0.088400471 -0.0046929907)
(0.86633732 0.092931497 -0.0051225138)
(0.83658097 0.097227186 -0.005556986)
(0.80709647 0.10128225 -0.0059952406)
(0.77789615 0.10508935 -0.0064376969)
(0.74899233 0.10864706 -0.0068837854)
(0.72039964 0.11194226 -0.0073313893)
(0.69212976 0.11498089 -0.007785086)
(0.66419855 0.11774593 -0.0082354776)
(0.63662071 0.12024398 -0.0086922598)
(0.60939971 0.12247465 -0.0091502699)
(0.58255665 0.12441528 -0.0096108349)
(0.55615185 0.12603729 -0.010048702)
(0.53009647 0.12745166 -0.010530399)
(0.5044827 0.12853093 -0.010989759)
(0.47936526 0.12928028 -0.011429287)
(0.4546299 0.12981035 -0.011896823)
(0.4304011 0.13001623 -0.012363598)
(0.40663326 0.12992684 -0.012823709)
(0.38343106 0.12950239 -0.013279245)
(0.36066666 0.12885076 -0.013728054)
(0.33853359 0.1278125 -0.014176084)
(0.31687089 0.12655209 -0.01463929)
(0.29582454 0.12497554 -0.015092354)
(0.27534787 0.12308141 -0.015532035)
(0.25546802 0.12093585 -0.015987816)
(0.23627906 0.1183823 -0.016385945)
(0.2176336 0.11569621 -0.016853241)
(0.19970969 0.11263627 -0.01726866)
(0.18245941 0.10926074 -0.017661968)
(0.16587556 0.10571906 -0.018110793)
(0.15004213 0.10175844 -0.018456491)
(0.13489861 0.09771132 -0.018897726)
(0.12054809 0.093221415 -0.019224086)
(0.10697757 0.088600495 -0.019600324)
(0.094099403 0.08370114 -0.019911766)
(0.082083664 0.078695729 -0.020287316)
(0.070920637 0.073214326 -0.020487124)
(0.060531132 0.067894109 -0.020810258)
(0.051030501 0.062122855 -0.020939401)
(0.042438637 0.056322028 -0.021041454)
(0.034725506 0.050368836 -0.021004629)
(0.02789292 0.04439909 -0.020843747)
(0.0220539 0.038326868 -0.020437413)
(0.01715814 0.032188531 -0.019636224)
(0.013308519 0.026009034 -0.018426458)
(0.010424514 0.020486103 -0.016677393)
(0.0079026023 0.014344428 -0.013421178)
(0.0088675972 0.0088074147 -0.0079722875)
(0 0 0)
(0 0 0)
(0 0 0)
(0 0 0)
(0 0 0)
(0 0 0)
(0 0 0)
(0 0 0)
(0 0 0)
(0 0 0)
(0 0 0)
(0 0 0)
(0 0 0)
(0 0 0)
(0 0 0)
(0 0 0)
(0 0 0)
(0 0 0)
(0 0 0)
(0 0 0)
(0 0 0)
(0 0 0)
(0 0 0)
(0 0 0)
(0 0 0)
(0 0 0)
(0 0 0)
(0 0 0)
(0 0 0)
(0 0 0)
(2.2980214 -0.83934809 0.0095585675)
(2.2979891 -0.83957101 0.009521613)
(2.297962 -0.83975441 0.009485211)
(2.2979433 -0.83993186 0.0094611133)
(2.2979278 -0.84009445 0.0094429771)
(2.2979142 -0.84024293 0.0094384352)
(2.2978973 -0.84037645 0.0094352897)
(2.2978786 -0.8404969 0.0094399773)
(2.2978564 -0.84060483 0.00944072)
(2.2978289 -0.84069716 0.0094395304)
(2.2978053 -0.84078649 0.0094345206)
(2.2977759 -0.84084139 0.0094163568)
(2.297753 -0.84089888 0.009393013)
(2.2977343 -0.84092665 0.0093594766)
(2.2977245 -0.84095591 0.0093170533)
(2.4611642 -0.29276046 0.010404739)
(2.4612184 -0.29283441 0.010404291)
(2.4612649 -0.29290565 0.010371409)
(2.4613099 -0.29299304 0.010339889)
(2.4613263 -0.29309155 0.010303491)
(2.4613386 -0.29319754 0.010250639)
(2.4613374 -0.29330402 0.010199775)
(2.4613211 -0.29341766 0.010140668)
(2.4612926 -0.29353176 0.010083965)
(2.4612492 -0.29364908 0.010031115)
(2.4611936 -0.29377389 0.009981864)
(2.4611235 -0.2939023 0.0099412799)
(2.4610505 -0.2940369 0.0099221396)
(2.460946 -0.29420758 0.0098782461)
(2.4608779 -0.29434035 0.0098771814)
(0.0031646866 0.0072403836 0.010605673)
(0.0044910458 0.012462959 0.012343397)
(0.0060729439 0.017847731 0.015300723)
(0.008863441 0.023103091 0.016484293)
(0.012011907 0.028335815 0.017799988)
(0.016534336 0.033648142 0.018424502)
(0.021716754 0.038870988 0.018902728)
(0.028130699 0.044217131 0.0191406)
(0.035215345 0.04934362 0.019288603)
(0.043405813 0.054529234 0.019342339)
(0.052386812 0.05943784 0.019251225)
(0.062327064 0.064377125 0.019256559)
(0.073062722 0.068952758 0.019075012)
(0.084677759 0.073540891 0.019000766)
(0.097071042 0.077735652 0.018810317)
(0.11034273 0.081893117 0.018706889)
(0.12436738 0.085659228 0.018490214)
(0.13913244 0.089326221 0.018379201)
(0.15471111 0.092634037 0.018170697)
(0.17101144 0.095766866 0.018024049)
(0.1880261 0.098578499 0.01784134)
(0.2057659 0.10114038 0.017683543)
(0.22419172 0.10343582 0.017491579)
(0.2432623 0.10542988 0.017335466)
(0.26302716 0.10715419 0.017145132)
(0.28340611 0.10857777 0.016986014)
(0.30441505 0.10972764 0.016799308)
(0.32601303 0.11056318 0.016634548)
(0.34821589 0.11111276 0.016455749)
(0.37097504 0.1113794 0.016284929)
(0.39428175 0.11132275 0.01610612)
(0.41813508 0.11098991 0.015934654)
(0.44250051 0.11035075 0.015764851)
(0.46735747 0.10942568 0.015589029)
(0.49270565 0.10820499 0.01541658)
(0.51851691 0.1066794 0.015242867)
(0.54477879 0.10488948 0.015071117)
(0.57146454 0.10279302 0.014894741)
(0.59858303 0.10042722 0.014721442)
(0.62609012 0.097776603 0.014553949)
(0.6539885 0.094853094 0.01438537)
(0.68224321 0.091650104 0.014213371)
(0.71086096 0.088198014 0.014051334)
(0.73981078 0.084465555 0.013884965)
(0.76907687 0.080493873 0.013724419)
(0.79865228 0.076266338 0.013568162)
(0.82851421 0.071796136 0.013412517)
(0.85865405 0.067089589 0.013264957)
(0.88905332 0.062151746 0.013119226)
(0.91970232 0.056988652 0.012979739)
(0.95058426 0.051609169 0.012844178)
(0.98168884 0.046016461 0.01271534)
(1.0130025 0.040221167 0.012589779)
(1.0445137 0.03422592 0.012471397)
(1.0762111 0.028041714 0.01235702)
(1.1080831 0.021670913 0.012249083)
(1.1401203 0.015124828 0.012145646)
(1.1723109 0.0084060274 0.012048583)
(1.2046465 0.0015244663 0.011956522)
(1.2371171 -0.005515194 0.01187038)
(1.2697143 -0.012705162 0.011789685)
(1.3024289 -0.020039635 0.011715263)
(1.3352533 -0.027511993 0.011646489)
(1.3681814 -0.035118279 0.011584396)
(1.4012017 -0.04284306 0.011526256)
(1.4343169 -0.050703271 0.011477509)
(1.4675221 -0.058665339 0.01143187)
(1.5007882 -0.066745091 0.011395392)
(1.5341387 -0.074926984 0.011363415)
(1.5675493 -0.083216822 0.011336693)
(1.6010336 -0.091601998 0.011310972)
(1.6345754 -0.10008517 0.011290831)
(1.6681836 -0.1086602 0.011269929)
(1.7018425 -0.11733004 0.011253774)
(1.7355644 -0.12608298 0.011234827)
(1.7693308 -0.13493656 0.011220057)
(1.8031571 -0.14385777 0.011197106)
(1.8370215 -0.15289051 0.011180856)
(1.8709419 -0.16197481 0.011149834)
(1.9048953 -0.17117808 0.011128338)
(1.9388935 -0.18042832 0.01108918)
(1.9729259 -0.1897832 0.011056948)
(2.0069874 -0.19920112 0.011010071)
(2.0410722 -0.20869839 0.010968168)
(2.0751812 -0.21826059 0.010910757)
(2.1093038 -0.22790211 0.010864142)
(2.1434408 -0.23760242 0.010807443)
(2.1775737 -0.24735729 0.010750454)
(2.2117117 -0.25716865 0.01069634)
(2.2458212 -0.26704108 0.010653437)
(2.2799434 -0.27692279 0.01058423)
(2.3140166 -0.28687424 0.010558097)
(2.3480755 -0.29688621 0.010503566)
(2.3821507 -0.30685772 0.010435991)
(2.416169 -0.31705016 0.010358744)
(0.0001328142 0.0063363948 0.0095880917)
(0.00086765844 0.0094203105 0.011189165)
(0.0027653022 0.014860011 0.013241352)
(0.0046056252 0.018907276 0.014598764)
(0.0076259828 0.023774567 0.015482058)
(0.011475499 0.028168561 0.016024439)
(0.016411384 0.032925908 0.016419505)
(0.022132988 0.037353247 0.016654397)
(0.028943522 0.041921507 0.016835402)
(0.036657506 0.046230258 0.016791804)
(0.045240409 0.050570463 0.016903042)
(0.054759116 0.054654291 0.016745157)
(0.065110445 0.058692504 0.016767827)
(0.076367244 0.062467388 0.016600412)
(0.088414454 0.066120271 0.016583107)
(0.10137349 0.069533603 0.016360904)
(0.11499726 0.072767843 0.016343174)
(0.12958006 0.075746894 0.016151446)
(0.14482143 0.078512857 0.016060777)
(0.16089757 0.081021623 0.015905806)
(0.17766482 0.083288885 0.015796228)
(0.19522075 0.085300518 0.015628567)
(0.21343146 0.087044359 0.015518929)
(0.23240092 0.088518485 0.015368833)
(0.25201184 0.089706946 0.015238904)
(0.27230958 0.09064127 0.015087463)
(0.29323319 0.091268526 0.014956348)
(0.31480661 0.091621371 0.01481811)
(0.33697995 0.091687237 0.014670413)
(0.35974902 0.091461017 0.014530439)
(0.38309596 0.090943236 0.014393502)
(0.40700575 0.090138877 0.014248602)
(0.43144029 0.089046787 0.014104878)
(0.45641058 0.087658045 0.013964621)
(0.48188484 0.085980539 0.013818803)
(0.50784761 0.084022724 0.013678443)
(0.53428563 0.081770603 0.013531479)
(0.56117372 0.079239683 0.013394047)
(0.58848365 0.076427925 0.013252309)
(0.61622127 0.073350295 0.013112781)
(0.6443459 0.069986847 0.012968367)
(0.67286102 0.06637499 0.012837478)
(0.70174046 0.062478705 0.012689635)
(0.73095718 0.058343848 0.012565055)
(0.76051163 0.053953942 0.012428435)
(0.7903763 0.04931661 0.012303008)
(0.82053458 0.044443314 0.012178205)
(0.85097456 0.039337646 0.012060616)
(0.88167681 0.034006003 0.011943067)
(0.91262764 0.028456849 0.011834948)
(0.94381101 0.022696817 0.011728051)
(0.97521359 0.016730971 0.011628575)
(1.0068204 0.010570756 0.011532273)
(1.0386181 0.0042179763 0.011443046)
(1.0705939 -0.0023146433 0.011357114)
(1.1027348 -0.0090246655 0.011277961)
(1.135029 -0.015900363 0.011202603)
(1.167464 -0.022939117 0.01113396)
(1.20003 -0.030128561 0.011069056)
(1.2327153 -0.037466747 0.011010574)
(1.2655094 -0.044942239 0.010957039)
(1.298404 -0.052551207 0.010908764)
(1.3313886 -0.060286608 0.010866985)
(1.3644553 -0.068139239 0.010828148)
(1.3975975 -0.07610462 0.010797519)
(1.4308118 -0.08418246 0.010772079)
(1.4640642 -0.092346596 0.010752663)
(1.4973858 -0.10062724 0.010740638)
(1.5307597 -0.10899787 0.01072122)
(1.5641781 -0.11746202 0.010715244)
(1.5976427 -0.12600317 0.010705892)
(1.6311375 -0.13463614 0.01070818)
(1.6646749 -0.14333903 0.010704048)
(1.6982357 -0.15213429 0.010712258)
(1.7318405 -0.16098862 0.010707101)
(1.7654576 -0.16994155 0.010719014)
(1.7991215 -0.17893776 0.010707723)
(1.8327889 -0.18804363 0.010720756)
(1.8665044 -0.19717552 0.010699984)
(1.900214 -0.20642786 0.010712156)
(1.9339719 -0.21569374 0.010680524)
(1.9677195 -0.2250728 0.010683495)
(2.0015002 -0.23448406 0.010654839)
(2.0352738 -0.24398022 0.010631413)
(2.0690814 -0.25351005 0.010597004)
(2.102859 -0.2631167 0.010578416)
(2.1366531 -0.27275926 0.010539652)
(2.1704193 -0.28245233 0.010513796)
(2.2041862 -0.29221271 0.01048376)
(2.2379241 -0.30196661 0.010437096)
(2.2716493 -0.31180875 0.01041337)
(2.3053217 -0.32166274 0.010371527)
(2.3390069 -0.33155212 0.010319932)
(2.3726364 -0.34149808 0.010263492)
(2.4063001 -0.35151896 0.010187339)
(-0.0018014645 0.0049080579 0.0083051869)
(-0.001404625 0.0076759371 0.0095259313)
(-0.00082097293 0.011664978 0.011690737)
(0.0010968027 0.015445856 0.012542081)
(0.0037164955 0.01932446 0.013191169)
(0.0075014692 0.02332435 0.013625816)
(0.011889261 0.027103987 0.013965141)
(0.017579877 0.031013199 0.01418945)
(0.023980033 0.034642284 0.014191094)
(0.031398579 0.038446194 0.014383098)
(0.039680238 0.041862088 0.014261363)
(0.048935908 0.045428145 0.014354677)
(0.058987443 0.048586016 0.014212881)
(0.069953601 0.051829657 0.014259253)
(0.08177626 0.054698686 0.014067738)
(0.09437514 0.057537827 0.014118255)
(0.10788231 0.060051369 0.013941685)
(0.12213075 0.062457547 0.013908602)
(0.13719589 0.064569754 0.01378607)
(0.15303821 0.066498108 0.013725853)
(0.16965481 0.068171608 0.013595068)
(0.18699706 0.069589062 0.013534551)
(0.20509643 0.070776954 0.01341298)
(0.2238824 0.07167637 0.013328557)
(0.24338493 0.072351253 0.013210077)
(0.26355512 0.072720575 0.013123564)
(0.28440214 0.072840629 0.013013884)
(0.30588185 0.072678004 0.012907306)
(0.32800018 0.072238996 0.012802528)
(0.35072422 0.071515044 0.012702888)
(0.37404676 0.070513636 0.012588805)
(0.3979349 0.069230429 0.012483012)
(0.42239144 0.06765835 0.012377097)
(0.44738108 0.06580675 0.012266758)
(0.47289093 0.06367491 0.012159495)
(0.49890338 0.061262316 0.012048768)
(0.52538686 0.058574263 0.011946842)
(0.55232846 0.055612351 0.011841257)
(0.5797498 0.052371086 0.011731408)
(0.607581 0.048852582 0.011616919)
(0.63582906 0.045086318 0.011518532)
(0.66446743 0.041047083 0.011399428)
(0.69347314 0.036757975 0.011310193)
(0.7228395 0.032218908 0.011204972)
(0.75253991 0.027431177 0.011105618)
(0.78255482 0.022409553 0.011013628)
(0.81287169 0.017155933 0.010920759)
(0.84347131 0.011677318 0.010833254)
(0.8743358 0.0059811015 0.010749968)
(0.90544924 7.4538615e-05 0.010672087)
(0.93679676 -0.0060359391 0.010595998)
(0.96836013 -0.012342434 0.010528132)
(1.0001269 -0.018836912 0.010461717)
(1.0320798 -0.025514043 0.010402776)
(1.0642074 -0.032362766 0.010346424)
(1.096493 -0.039379635 0.010296649)
(1.128926 -0.046553265 0.0102503)
(1.1614919 -0.05387938 0.010209917)
(1.1941801 -0.061347568 0.010172846)
(1.226977 -0.068953719 0.0101424)
(1.2598737 -0.076687411 0.010114843)
(1.2928584 -0.084544664 0.010093272)
(1.3259212 -0.092516488 0.010076065)
(1.3590543 -0.10059635 0.010061876)
(1.3922496 -0.10878203 0.010056272)
(1.425488 -0.11706334 0.010049261)
(1.4588015 -0.12542093 0.010056774)
(1.4921266 -0.13389069 0.010051026)
(1.5254926 -0.14244738 0.010071236)
(1.5588864 -0.15106363 0.010084309)
(1.5923061 -0.15976557 0.010100861)
(1.6257464 -0.16853266 0.010121893)
(1.6592128 -0.17737364 0.010139638)
(1.6926917 -0.18627786 0.010162308)
(1.7261903 -0.19525225 0.010181701)
(1.7596979 -0.2042883 0.010205662)
(1.7932254 -0.21338723 0.0102221)
(1.8267546 -0.22255086 0.01024551)
(1.8603041 -0.23176837 0.010256963)
(1.8938511 -0.24105275 0.010276769)
(1.927417 -0.25037964 0.010279549)
(1.9609733 -0.25978734 0.010300585)
(1.9945439 -0.26921163 0.010290225)
(2.0281093 -0.27872798 0.010303829)
(2.0616705 -0.28825815 0.010297494)
(2.0952216 -0.29785561 0.010302272)
(2.1287674 -0.30747162 0.010284133)
(2.1622911 -0.31716558 0.01029071)
(2.1958093 -0.32684865 0.010260096)
(2.2292824 -0.3366066 0.010264742)
(2.2627466 -0.34638396 0.010239075)
(2.2961697 -0.35617358 0.010217283)
(2.3295741 -0.36604049 0.010184557)
(2.3629504 -0.37588496 0.010136208)
(2.3963224 -0.38580507 0.010071845)
(-0.0028963457 0.0043177335 0.0069419294)
(-0.0034080291 0.0058506923 0.0081867087)
(-0.0028476444 0.0091869018 0.009515117)
(-0.0012348071 0.012003821 0.010139283)
(0.0013368335 0.015332698 0.010715319)
(0.0046510045 0.018386167 0.011092581)
(0.0092227594 0.02167351 0.011362776)
(0.014554278 0.024665638 0.011402648)
(0.020843342 0.027820206 0.011680619)
(0.028121509 0.030683767 0.011574881)
(0.036283545 0.033580669 0.011738151)
(0.045317231 0.036268567 0.011619974)
(0.055223447 0.0388663 0.011735693)
(0.066081744 0.041315583 0.011564982)
(0.07763582 0.04354912 0.01168284)
(0.090204209 0.045679023 0.011523725)
(0.10344552 0.047557356 0.011548903)
(0.11760071 0.049285056 0.011468136)
(0.13247247 0.050760614 0.011446107)
(0.14820185 0.052057928 0.011361016)
(0.16460978 0.053092973 0.011336355)
(0.18184858 0.053926564 0.011259883)
(0.19975464 0.054497956 0.011209639)
(0.21843267 0.054840327 0.011145219)
(0.23777658 0.054914667 0.011090315)
(0.25783462 0.054738574 0.011028333)
(0.27853763 0.05431039 0.010957997)
(0.299911 0.05360176 0.010903536)
(0.32190489 0.052636662 0.01083547)
(0.34452602 0.051399485 0.010767311)
(0.36773201 0.049893762 0.010702417)
(0.39153463 0.048111156 0.010637841)
(0.41588735 0.046060154 0.010565704)
(0.4407888 0.0437407 0.010500387)
(0.46621925 0.041136335 0.010428462)
(0.49215072 0.03828165 0.010358931)
(0.51858789 0.035130131 0.01028677)
(0.54552205 0.031735741 0.010205317)
(0.57285515 0.028061781 0.010137997)
(0.6006379 0.024155378 0.010079764)
(0.62882837 0.01997576 0.01000371)
(0.65741854 0.0155457 0.0099474385)
(0.68638354 0.010876837 0.0098764541)
(0.71570521 0.0059632037 0.0098118178)
(0.74536653 0.00081970585 0.0097548567)
(0.77534887 -0.0045544231 0.0096987266)
(0.8056361 -0.010150224 0.0096433106)
(0.83620748 -0.015960943 0.0095959298)
(0.86704691 -0.02198064 0.0095493481)
(0.89813821 -0.028201164 0.0095070938)
(0.92946364 -0.034615867 0.0094691025)