/*--------------------------------*- C++ -*----------------------------------*\
  =========                 |
  \\      /  F ield         | OpenFOAM: The Open Source CFD Toolbox
   \\    /   O peration     | Website:  https://openfoam.org
    \\  /    A nd           | Version:  6
     \\/     M anipulation  |
\*---------------------------------------------------------------------------*/
FoamFile
{
    version     2.0;
    format      ascii;
    class       pointScalarField;
    location    "1.85";
    object      p;
}
// * * * * * * * * * * * * * * * * * * * * * * * * * * * * * * * * * * * * * //

dimensions      [1 -1 -2 0 0 0 0];

internalField   nonuniform List<scalar> 
28033
(
-298843.59
430648.19
5685.0721
1258.0308
-514583.66
620288.5
2054.6891
-577.59837
-212518.25
-179770.24
-143443.06
-113651.55
-79509.543
-51566.102
-24721.794
4034.3902
34536.809
58737.152
92010.573
111803.98
144712.76
194049.89
177222.81
-15506.178
-9420.0875
-10001.243
-6604.3429
-5887.6754
-3769.3614
-1721.3854
490.81736
2429.9447
4711.3783
7013.8309
8287.5939
9993.6328
11224.284
9993.4166
-64066.12
-67647.397
-54641.311
-55682.418
-50168.358
-47563.124
-43610.881
-39412.625
-34735.93
-30185.052
-25496.332
-19855.181
-14886.251
-9357.0026
-4233.3762
1620.5681
6882.0342
12581.204
17562.002
23273.26
27980.709
33116.21
37945.733
42492.778
46576.686
50791.61
54696.47
57995.4
61369.668
64317.918
67017.267
69477.4
71905.107
73920.897
75773.954
77172.29
78763.888
80105.47
80749.393
81912.194
82421.527
82764.195
83181.921
83506.01
83554.979
83683.201
83597.554
83504.416
83284.019
83066.14
82709.952
82374.072
81940.979
81482.852
80981.215
80414.61
79840.136
79186.693
78490.376
77766.1
76976.423
76115.418
75192.21
74324.144
73286.796
72300.303
71439.69
70075.42
68474.895
67209.005
65630.336
64223.823
62395.654
60847.818
58695.031
57142.88
54640.298
53033.898
50270.863
48527.195
45689.59
43716.464
40795.613
38295.626
35447.366
32698.317
30071.644
27466.986
23772.611
21580.043
19229.925
14437.8
15289.299
13405.618
10896.277
80881.445
57901.076
59595.999
46873.903
49347.513
43919.362
40955.021
35746.151
32437.481
27107.379
22768.639
17670.569
12534.132
7612.9194
2288.2363
-2589.6897
-7755.5602
-12852.18
-17608.608
-22470.151
-27212.87
-31640.222
-35950.574
-40303.99
-44038.658
-47710.535
-51303.834
-54229.782
-57462.14
-59884.828
-62594.428
-64707.352
-66713.007
-68572.333
-70272.803
-71782.259
-72733.53
-74098.722
-74814.361
-75688.816
-76360.719
-76840.207
-77342.8
-77605.422
-77914.951
-78025.377
-78172.148
-78143.253
-78152.511
-78016.247
-77893.123
-77653.796
-77415.609
-77082.323
-76727.664
-76295.173
-75836.102
-75294.27
-74726.987
-74073.281
-73389.716
-72614.725
-71820.433
-70892.896
-69968.962
-68878.243
-67870.131
-66666.327
-65657.021
-63977.095
-62804.251
-61175.622
-59731.745
-58011.797
-56345.174
-54532.181
-52607.141
-50678.482
-48586.878
-46439.327
-44220.465
-41889.544
-39410.955
-36996.299
-34320.122
-31658.883
-28919.54
-26191.702
-23127.062
-20535.11
-17768.531
-14690.972
-12422.64
-11055.773
-8150.9266
-379429.96
-343645.51
-220119.3
-221822.61
-139328.2
-76944.469
-39363.05
19493.418
65847.388
123680.52
166682.55
225048.8
288112.3
348815.88
379728.64
127378.86
88858.634
38217.388
68465.607
53699.52
51036.894
46114.104
44112.519
37510.376
34955.446
29102.913
25032.509
18468.075
14289.352
7051.5769
2032.5039
-2595.0041
-10266.521
-13951.743
-21207.156
-26022.465
-29239.724
-36039.482
-40823.313
-44656.188
-50033.833
-51411.4
-58124.483
-58822.661
-64535.374
-66350.786
-69643.407
-71579.358
-74392.34
-76440.29
-76023.352
-79216.762
-80566.147
-81339.865
-82522.948
-83071.619
-83815.987
-84138.554
-84571.642
-84652.618
-84873.962
-84730.219
-84732.45
-84466.912
-84272.4
-83899.084
-83581.564
-83095.197
-82663.774
-82107.832
-81539.468
-80921.031
-80252.269
-79521.83
-78762.526
-77927.27
-77047.098
-76092.901
-75084.877
-73986.148
-72839.991
-71716.631
-70688.077
-67739.819
-67495.876
-65913.813
-64236.398
-62509.794
-60730.837
-58814.477
-56872.701
-54799.735
-52726.038
-50505.394
-48225.054
-45811.592
-43390.006
-40751.582
-38177.112
-35394.197
-32643.374
-29677.156
-26883.261
-23815.052
-20961.5
-18092.157
-15283.115
-13473.424
-11243.572
-10229.81
12873.709
13086.457
9707.21
10360.487
6011.252
6206.1156
2044.6699
547.82516
-2213.9775
-4841.2153
-4677.1574
-8734.4168
-8123.873
-13641.306
-11256.375
20176.631
15331.699
15288.925
17832.375
19730.927
22700.32
25426.233
28376.063
31107.981
34058.507
36762.553
39282.29
42020.524
44538.005
47059.802
49332.626
51670.044
53754.604
55851.871
57817.037
59668.112
61487.876
63163.603
64736.007
66187.309
67541.333
67967.686
71323.103
71277.048
72716.92
73724.868
74775.46
75660.321
76546.983
77336.09
78061.987
78755.585
79343.828
79937.984
80414.586
80901.468
81270.929
81672.296
81922.075
82238.101
82370.425
82590.295
82612.338
82696.838
82595.139
82561.562
82253.673
82043.559
81661.531
81158.606
80493.468
79651.227
77918.814
78757.407
76263.226
74278.313
74921.776
71625.278
69918.958
66901.572
66177.882
61241.816
60375.048
56099.864
53095.652
49256.934
45000.439
41672.008
36491.797
32370.052
27649.508
22699.635
17635.448
12599.505
7179.6603
1511.5864
-3643.3877
-8144.6855
-14693.319
-19437.922
-23170.205
-29953.43
-34378.427
-38358.736
-40391.802
-45399.661
-53917.946
-55636.849
-54748.361
-83187.341
-228694.54
-253943.5
-268249.09
-280730.95
-283237.02
-291680.3
-288892.41
-293210.01
-287985.79
-280685.45
-285467.88
-266698.82
-259143.39
-260066.99
-210518.84
383641.55
491167.16
481815.74
516215.23
499696.5
476484.05
545026.27
580690.29
549787.01
554324.6
540773.48
529343.72
505133.4
501302.99
449077.51
1049.8874
1183.3052
1896.1679
2355.294
3341.9782
3956.6637
4095.529
4168.4163
4129.7175
3809.9487
3406.4956
2576.2948
2056.6914
1577.9466
1597.2361
-1780.2263
1107.1554
445.15701
-203.44064
-1048.98
-1131.4858
-1673.7679
-1583.6237
-1422.5519
-1238.1093
-344.20408
266.93208
492.19942
4046.3148
-1289.226
-58253.651
-57678.293
-48000.452
-46166.944
-43473.007
-40461.378
-37681.925
-34072.415
-30713.324
-26600.253
-21990.854
-17870.696
-13055.075
-8279.1263
-3146.7766
1495.1822
6465.2991
11223.803
16372.103
20705.653
25418.433
29912.618
34085.762
38062.785
42010.924
45728.398
49085.296
52322.014
55361.892
58137.824
60610.115
62848.393
65047.262
66727.871
68377.876
69895.842
71106.994
71970.936
73072.85
73840.949
74604.742
75031.813
75398.014
75604.246
75684.877
75803.518
75668.547
75613.312
75383.759
75151.894
74826.718
74490.058
74071.077
73635.611
73142.512
72623.966
72061.036
71444.589
70808.196
70121.948
69377.309
68560.705
67755.152
66882.879
65765.04
64779.821
63356.794
62190.666
61072.477
59711.268
58349.6
56907.643
55313.7
53870.502
52077.303
50484.544
48535.766
46868.047
44661.149
42962.16
40694.582
38610.983
36520.585
34420.269
31994.801
29603.044
27242.251
24444.751
22122.888
20103.94
16590.015
14738.138
12828.424
6844.8546
1853.3131
-51967.163
-46132.255
-38978.866
-38886.262
-36600.894
-34343.908
-31852.372
-29331.028
-26237.974
-22803.531
-19498.989
-15798.069
-11822.574
-7819.4946
-3824.425
336.74426
4391.9982
8659.0142
12523.347
16578.842
20537.617
24180.399
27781.39
31315.868
34702.522
37661.17
40702.34
43524.902
46015.36
48411.566
50583.176
52574.423
54336.127
55942.601
57545.636
58675.325
59789.754
60766.091
61593.273
62250.067
62780.9
63344.497
63427.444
63730.466
63817.189
63921.157
63837.972
63809.809
63611.468
63442.276
63167.466
62897.067
62540.013
62182.249
61774.442
61334.802
60856.466
60354.285
59809.291
59232.426
58603.41
57942.297
57298.733
56546.231
55755.848
55496.488
54968.765
54262.096
53538.708
52473.14
51356.3
50351.132
48842.728
47763.269
45835.414
44889.849
42642.439
41687.599
39238.498
38225.395
35761.565
34168.201
32193.91
29518.338
27269.104
25133.556
22548.204
20709.176
18410.538
15747.643
13395.747
11247.872
7401.4346
3550.5783
-3052.075
-38693.375
-38198.216
-30359.161
-31721.902
-28950.619
-27535.123
-26219.034
-24043.082
-21289.966
-18990.933
-16036.361
-12938.127
-9706.5806
-6545.7782
-3029.4832
280.23819
3843.2229
7155.0775
10655.195
14005.456
17272.191
20386.296
23563.061
26473.876
29214.051
31883.936
34424.697
36637.044
38871.092
40805.108
42689.293
44293.149
45879.862
47229.722
48476.538
49512.193
50627.083
51435.785
52185.933
52679.501
53120.234
53384.772
53842.459
53961.011
54128.989
54117.847
54093.111
53978.224
53835.122
53628.244
53390.948
53119.118
52797.213
52474.136
52102.613
51705.302
51291.632
50850.043
50365.565
49868.416
49325.71
48746.533
48162.3
47398.976
46832.075
46284.465
45874.689
44895.854
44387.778
43676.351
42801.944
41708.755
40531.781
39366.607
38234.171
36877.932
35692.859
34166.449
32941.984
31303.093
29826.178
28405.202
26404.049
24934.485
23223.762
21350.647
19192.444
17683.272
15474.327
13580.955
11689.321
8447.9561
6360.2445
942.25359
-1586.1852
-29805.092
-29933.006
-23380.372
-25627.079
-22376.972
-22464.318
-20981.75
-19175.463
-17455.514
-15682.315
-13282.078
-10996.386
-8536.1223
-5944.671
-3221.2213
-491.54253
2228.6293
5008.7098
7717.2138
10386.432
12927.487
15513.01
17962.967
20225.243
22541.942
24651.668
26626.724
28584.097
30331.37
31933.114
33501.094
34802.582
36116.218
37137.929
38290.597
38995.488
39854.329
40235.429
40746.11
41167.06
41698.763
42019.956
42145.616
42227.741
42309.013
42325.373
42273.55
42202.485
42077.316
41921.447
41715.026
41510.834
41242.971
40995.023
40678.952
40384.234
40041.237
39698.089
39311.897
38928.906
38511.177
38064.049
37597.92
37118.569
36639.276
36049.417
35703.236
34854.851
34077.283
33473.777
32822.829
31959.297
31381.235
30513.492
29520.495
28531.56
27482.075
26478.632
25295.138
24205.668
23010.272
21861.876
20451.383
19094.313
17659.47
16750.007
15180.469
13702.343
12095.285
10589.415
8354.0968
6554.6053
3780.5479
659.0101
-3278.1894
-24051.957
-21614.507
-16936.774
-18167.974
-16972.507
-16459.659
-15579.161
-14596.177
-13127.9
-11811.154
-10081.574
-8351.442
-6487.6026
-4579.5385
-2427.2843
-510.63506
1614.4863
3685.0261
5799.9887
7757.7735
9886.91
11808.667
13687.71
15508.785
17279.208
18838.462
20473.7
21822.037
23214.95
24412.091
25620.907
26580.101
27586.948
28428.285
29220.469
29872.656
30930.605
31797.536
32310.498
33338.42
33467.927
33701.857
34024.959
34155.986
34296.576
34295.043
34264.468
34186.971
34095.823
33923.716
33762.374
33571.713
33343.868
33114.93
32858.311
32593.438
32311.883
32013.232
31700.983
31368.034
31041.166
30610.707
30302.439
29830.733
29327.597
28994.473
28421.392
27877.215
27254.898
26633.661
26011.539
25072.545
23940.507
23136.061
22107.567
21339.624
20607.136
19758.495
18969.623
18194.139
17170.795
16506.524
15329.393
14709.997
13458.461
12871.223
11332.56
10527.186
9048.5772
7679.9911
6276.3086
4701.6866
3032.323
50.304973
-2486.8122
-14394.012
-14862.987
-10911.409
-13000.665
-11614.919
-11023.182
-11227.455
-10307.838
-9319.9954
-8806.9141
-7504.959
-6491.8138
-5284.9632
-3966.869
-2601.5045
-1318.4217
182.98752
1637.7631
2926.4056
4413.4938
5747.6741
7028.065
8327.6777
9594.2108
10735.723
11923.241
12957.527
13972.102
14952.853
15772.867
16621.972
17297.757
18067.479
18571.834
19179.772
19638.771
20356.714
20674.05
21997.338
22394.58
23073.938
23146.45
23283.099
23349.013
23397.531
23359.695
23329.386
23235.941
23145.89
23004.062
22874.841
22706.68
22538.016
22348.395
22170.373
21954.552
21759.379
21539.215
21319.336
21081.25
20838.554
20597.081
20313.532
20015.096
19802.342
19366.093
19163.456
18776.602
18404.158
18003.971
17546.692
16886.477
16447.77
15469.105
14568.89
14105.394
13561.232
13028.907
12466.56
12068.82
11173.295
11071.706
9888.3861
9846.9277
8582.4019
8539.7544
7196.9421
7147.5911
5875.9775
5646.1369
4617.998
3504.51
2220.6957
47.724164
-1047.0999
-7860.7708
-6455.3914
-5476.5823
-6996.1281
-5644.7039
-6146.0177
-6247.9695
-5656.2983
-5437.5038
-5092.8591
-4556.0487
-3953.7677
-3373.1526
-2694.2741
-1968.4365
-1254.5335
-408.62379
234.99673
1125.4284
1884.4238
2662.603
3401.9873
4205.788
4863.1036
5604.9409
6199.4255
6837.1977
7397.6702
7967.2829
8390.3666
8943.247
9298.9628
9707.493
9983.7137
10371.351
10550.181
10849.508
11097.548
11087.068
11067.651
11239.622
11279.923
11297.337
11310.077
11313.67
11264.517
11200.325
11114.196
11022.4
10906.03
10802.012
10673.934
10548.556
10437.688
10305.821
10187.281
10065.502
9957.4362
9822.2011
9717.4981
9593.9204
9457.1468
9341.9063
9214.5058
9030.3579
8926.0289
8732.1696
8536.1304
8378.1936
8180.0179
7965.5599
7728.1797
7328.3629
7391.6158
7226.7612
7044.159
6729.5505
6465.7395
6253.5906
5921.2611
5675.6491
5491.5547
4959.5854
5086.9938
4310.6569
4588.2499
3767.9986
4006.7785
3189.9767
3042.2348
2123.6729
1555.8262
1289.1103
386.38637
25.636202
1393.4235
263.91164
181.58473
-517.67534
-984.36824
-1091.2781
-1530.9805
-1753.6313
-1611.4845
-2141.0604
-1955.1467
-2046.8336
-2166.0579
-2148.6555
-2035.2637
-2023.5402
-1978.6215
-1779.9703
-1714.7424
-1596.6334
-1429.4986
-1220.9084
-1156.7101
-938.98022
-846.66127
-679.08626
-526.6986
-388.39385
-287.5838
-174.07865
-15.309146
-11.443785
162.45903
206.38752
333.67902
282.24067
513.12739
395.42701
543.98349
412.22928
526.45684
501.33968
458.87817
377.40495
350.47863
256.98023
188.28934
112.71871
47.650153
-41.80898
-111.5437
-180.93228
-249.73586
-309.15623
-359.61066
-407.52262
-441.84122
-461.41765
-496.38259
-487.92196
-513.34195
-496.55681
-492.90874
-493.25466
-445.51007
-455.86369
-411.33246
-388.4753
-367.80535
-349.11624
-384.07224
-395.12395
-466.53363
-356.75061
-328.86351
-281.72955
-337.78686
-247.07086
-289.24709
-210.30869
-139.95489
-231.78628
10.453171
-106.16695
-18.719961
181.97201
-136.9581
505.66815
-125.73179
765.60072
599.80651
1338.0676
1475.1297
928.80363
1591.9102
7596.6196
7862.905
5769.225
4724.7721
4127.7187
4060.3178
2772.1505
2900.5677
1893.1571
1488.1724
839.59051
349.64908
-445.05577
-821.22693
-1426.3511
-2079.8279
-2488.5068
-3047.4663
-3569.9006
-4009.5213
-4369.3807
-4929.8197
-5285.0713
-5690.991
-6089.0558
-6405.9666
-6743.4098
-7083.1197
-7320.622
-7593.7043
-7826.9619
-8076.6619
-8212.1313
-8480.2154
-8606.8349
-8791.2784
-8915.7542
-9091.0375
-9165.2921
-9290.7928
-9357.2104
-9507.2894
-9586.8902
-9688.1512
-9745.7294
-9860.3205
-9935.4866
-10017.128
-10078.612
-10168.774
-10204.327
-10248.24
-10286.878
-10296.889
-10293.177
-10284.732
-10249.943
-10193.652
-10146.056
-10053.627
-9963.785
-9861.351
-9751.2128
-9602.2397
-9504.9604
-9337.5182
-9186.5356
-9031.4115
-8841.5478
-8656.9227
-8447.1381
-8196.2488
-8007.8963
-7785.2033
-7677.7258
-7556.9847
-7174.816
-6957.5032
-6599.1119
-6338.976
-5934.544
-5699.5272
-5184.1104
-4905.379
-4498.3707
-3792.5571
-3770.9869
-2458.669
-2749.4046
-1287.9707
-1479.1032
-783.30957
-507.05851
814.18929
2657.4844
15708.604
16121.763
11275.247
11195.289
10138.007
9287.338
8242.026
7064.6805
6177.6845
4909.8614
3695.5105
2456.1147
1158.9118
-87.66099
-1453.1417
-2677.5802
-3930.3792
-5184.6349
-6366.6247
-7480.658
-8569.0571
-9375.5774
-10471.417
-11491.708
-12398.087
-13209.561
-14051.715
-14733.148
-15406.563
-16082.319
-16628.714
-17170.406
-17640.858
-18121.374
-18407.504
-18873.165
-19065.533
-19455.743
-19596.892
-19904.17
-20056.98
-20280.929
-20378.032
-20568.347
-20656.737
-20780.211
-20850.23
-20916.575
-20961.892
-21004.59
-20998.159
-21000.14
-20977.159
-20925.363
-20853.364
-20774.409
-20654.596
-20518.326
-20376.847
-20173.78
-19989.621
-19764.125
-19508.287
-19252.575
-18972.308
-18651.775
-18332.501
-18000.552
-17631.059
-17271.804
-16871.634
-16459.649
-16049.822
-15283.39
-14180.597
-13549.929
-13008.72
-12566.622
-11835.77
-11617.681
-10505.375
-10552.13
-9205.9523
-9177.6696
-8023.0694
-7420.8109
-6840.216
-5311.6978
-5379.2221
-3214.4024
-3088.5653
-1740.5164
-255.20309
1482.783
3513.1083
26306.898
19927.112
16124.727
15128.323
14569.816
13019.487
11915.453
10419.02
9370.7781
7415.9783
5844.2946
4206.0182
2355.9727
478.67701
-1195.1245
-3099.3475
-4826.5615
-6615.9785
-8255.8695
-10047.236
-11859.793
-13027.012
-14604.546
-16295.501
-17748.749
-19117.995
-20391.697
-21546.743
-22688.879
-23680.495
-24600.886
-25486.259
-26264.291
-26983.482
-27596.168
-28226.778
-28692.46
-29193.613
-29553.77
-29956.922
-30232.619
-30524.675
-30723.054
-30954.848
-31083.237
-31229.751
-31322.72
-31409.122
-31443.48
-31473.218
-31454.837
-31422.427
-31356.93
-31259.686
-31130.427
-30984.826
-30793.568
-30578.581
-30335.814
-30055.746
-29755.128
-29406.776
-29054.843
-28647.936
-28265.789
-27801.907
-27350.745
-26832.007
-26312.687
-25740.669
-25130.044
-24580.151
-23820.679
-23063.558
-22210.093
-21410.464
-20153.843
-19330.049
-18429.204
-17550.332
-16757.822
-15694.217
-14866.07
-13791.638
-12712.575
-11790.757
-10378.986
-9503.254
-7934.3655
-6583.7504
-5257.5147
-3094.6999
-1282.4008
1136.152
5535.1002
30866.26
29477.049
24717.393
22405.236
21314.329
18967.412
17845.071
15833.616
13549.861
11734.266
9242.4034
6962.5148
4440.5639
2066.5251
-556.5665
-2941.8248
-5556.3711
-7821.9037
-10422.119
-12596.025
-15082.769
-17458.257
-20015.759
-22186.219
-24190.384
-26033.376
-27806.502
-29438.044
-30925.413
-32272.975
-33587.57
-34691.284
-35770.546
-36740.111
-37529.104
-38365.618
-38930.879
-39588.108
-40021.365
-40523.405
-40815.344
-41191.509
-41401.309
-41654.352
-41791.631
-41927.621
-42014.842
-42065.735
-42064.348
-42061.551
-41995.873
-41910.458
-41790.827
-41637.132
-41440.867
-41232.047
-40965.063
-40669.434
-40353.09
-39981.256
-39573.17
-39143.428
-38654.961
-38133.768
-37597.693
-36994.494
-36373.454
-35726.635
-35033.306
-34256.714
-33551.991
-32659.904
-31822.691
-30952.473
-29960.114
-29360.621
-28263.759
-27108.485
-25953.359
-24805.381
-23489.491
-22260.498
-20844.083
-19504.096
-17916.271
-16663.742
-14668.889
-13560.811
-11478.809
-9753.6431
-8244.6878
-5012.4759
-2550.4552
2191.3098
7116.7695
46091.8
40886.751
31705.717
31574.682
27787.428
26810.335
23668.111
21564.472
18511.82
16036.29
12679.617
9707.9817
6352.8823
3183.7805
-141.29674
-3456.7643
-6720.2722
-9915.464
-13085.876
-16138.343
-19182.516
-22237.657
-24812.47
-27497.854
-29815.346
-32184.115
-34435.069
-36441.769
-38375.431
-40144.958
-41771.438
-43174.734
-44596.08
-45798.02
-46872.386
-47915.519
-48684.916
-49496.458
-50117.982
-50692.179
-51155.623
-51588.791
-51881.124
-52174.239
-52354.708
-52517.188
-52613.756
-52658.206
-52659.746
-52628.595
-52535.759
-52409.374
-52246.863
-52033.366
-51780.467
-51495.008
-51149.719
-50777.212
-50362.697
-49885.059
-49388.992
-48827.57
-48231.357
-47568.97
-46892.831
-46149.764
-45389.83
-44560.83
-43692.883
-42752.558
-41759.498
-40739.413
-39655.812
-38502.095
-37250.021
-36109.032
-34775.583
-33468.353
-31991.892
-30521.868
-28992.859
-27384.311
-25732.623
-24004.096
-22284.676
-20385.488
-18520.769
-16714.769
-14260.211
-12731.858
-9700.5465
-7338.148
-4332.7168
-87.424418
5278.018
55295.976
49759.533
38650.37
37610.421
35324.881
32502.547
29268.708
26693.589
23214.22
19698.524
15966.084
12179.981
8170.3896
4181.6454
71.132231
-3896.7672
-8059.6725
-11762.231
-15817.783
-19488.454
-23094.392
-26623.003
-29945.338
-33322.336
-36280.774
-39290.122
-41932.822
-44368.85
-46823.442
-48873.329
-50886.542
-52559.482
-54178.111
-55597.879
-56921.544
-58158.351
-59039.227
-60035.171
-60657.164
-61389.68
-61878.746
-62359.181
-62695.462
-63002.715
-63205.658
-63365.461
-63440.217
-63483.501
-63451.11
-63389.512
-63257.623
-63097.281
-62879.055
-62624.942
-62311.408
-61967.284
-61565.379
-61121.801
-60625.722
-60084.468
-59490.901
-58845.364
-58150.203
-57377.396
-56549.568
-55646.202
-54664.256
-53735.647
-52764.725
-51575.58
-50512.347
-49244.05
-47927.99
-46618.733
-45139.049
-43644.523
-42065.775
-40426.718
-38706.745
-36977.913
-35112.188
-33224.166
-31215.493
-29227.144
-26996.232
-24922.525
-22584.607
-20290.456
-17790.019
-15753.629
-12217.195
-10677.19
-6566.148
-2197.6498
4808.1549
79667.181
50919.662
49248.229
44294.145
43087.145
37346.879
35111.153
31535.711
27099.934
23141.779
18593.189
14372.925
9477.1654
5034.8471
84.181638
-4686.0873
-9189.7454
-13745.958
-18475.455
-22475.116
-26764.015
-30767.736
-34584.909
-38447.416
-42114.826
-45398.524
-48541.143
-51338.651
-54175.961
-56581.167
-58835.782
-60856.811
-62663.699
-64240.288
-65687.053
-67271.254
-68279.255
-69306.659
-70095.281
-70902.581
-71440.104
-71973.433
-72344.528
-72657.108
-72882.715
-73016.251
-73107.289
-73118.655
-73076.684
-72974.121
-72824.701
-72615.293
-72363.471
-72051.723
-71694.827
-71289.311
-70824.741
-70310.154
-69745.437
-69117.085
-68437.354
-67704.74
-66901.589
-66043.738
-65117.029
-64058.513
-62891.181
-61747.654
-60698.541
-59441.386
-58171.145
-56640.213
-55228.719
-53639.995
-51981.026
-50266.624
-48542.123
-46621.625
-44721.376
-42665.196
-40551.511
-38327.442
-36101.219
-33643.969
-31257.431
-28773.472
-26074.911
-23590.392
-20916.864
-18336.154
-15447.043
-13930.923
-10097.768
-7013.5248
-34.088586
-140143.53
-145080.77
-144922.12
-149341.25
-150687.27
-151506.39
-156961.05
-151921.65
-150419.08
-149672.82
-147225.09
-140326.98
-138545.53
-138983.02
-116278.14
-122896.22
-136209.44
-127444.38
-137824.53
-136612.76
-140635.71
-135396.47
-140453.08
-138322.64
-137978.11
-133491.11
-131409.17
-128865.27
-126988.41
-107003.15
-83601.047
-97613.815
-87252.589
-91143.045
-93128.247
-91061.934
-92750.269
-91073.277
-91212.391
-88897.967
-87736.854
-86617.662
-79908.37
-85835.564
-76217.001
-71727.784
-76086.725
-76219.495
-76330.351
-79167.439
-78170.965
-79626.596
-78395.844
-76909.318
-76214.134
-75314.718
-70246.071
-70150.093
-71438.305
-50043.169
-47677.396
-55448.96
-48323.404
-53078.627
-51418.798
-53139.116
-51867.287
-51751.277
-50843.813
-49900.021
-48427.932
-46920.115
-45645.282
-45964.339
-41338.489
-35121.801
-36679.163
-34704.748
-35988.438
-36311.527
-36043.309
-35872.079
-35029.09
-35058.6
-33625.762
-32126.067
-32589.298
-29042.624
-31347.552
-29132.754
-17926.32
-17512.818
-18243.821
-17213.28
-17441.573
-17164.03
-16364.724
-16116.332
-14467.437
-14622.776
-13128.593
-11669.742
-12651.881
-9833.5302
-12888.251
-1512.7425
-656.01813
-88.538832
-280.27941
523.2547
1178.2148
1722.2537
2365.7653
3751.6722
2410.8763
6287.0737
3624.8843
3625.1196
7473.2869
-2852.5413
13510.541
17237.202
15341.126
17609.133
17904.456
18855.95
19627.972
19932.914
21171.242
19862.275
22426.592
20195.159
20003.811
24206.427
7033.9953
27025.12
35406.367
31262.907
34279.328
34734.484
36747.937
37333.542
38025.557
40091.909
37829.224
43221.995
37151.197
38061.995
42527.669
23065.033
44922.456
57488.758
49575.208
55796.769
55170.733
57191.719
57553.406
58520.243
59335.611
57659.182
58943.854
57457.631
53551.309
59322.586
35019.871
69161.773
69440.638
71286.52
72449.744
75920.713
77090.567
78646.931
80174.452
81318.953
79918.818
84375.761
74015.273
78804.521
81156.874
54213.241
79621.529
90325.506
82201.623
87371.279
85079.354
89194.537
89653.757
89824.325
89464.514
89689.753
89497.721
90520.156
82319.779
93867.154
50116.457
111198.38
136583.56
125719.23
135788.05
141377.53
140387.7
142244.16
149166.64
147646.61
150214.43
144370.16
141493.6
143929.91
135688.98
121721.73
121818.61
104692.36
95738.449
100030.25
106034.45
112262.15
111696.13
108225
101143.04
102797.44
104362.97
104284.75
104044.14
110196.71
94211.513
137449.93
126878.75
156028.48
160728.8
165647.3
181133.03
171311.88
159207.31
183481.93
180868.46
176187.28
170673.95
164970.89
156535.59
132460.04
86034.315
88703.744
101407.13
104239
108407.47
112450.18
115193.05
119710.89
123332.75
117851.5
116132.17
109411.01
110224.7
106624.83
102891.15
60584.243
71898.515
72224.568
79353.987
85341.101
83155.46
87924.246
86502.639
84521.654
88314.385
84646.281
86231.696
81075.698
72941.159
73014.623
54993.44
64284.589
66981.453
68978.087
71641.943
74123.331
74861.183
75846.093
75665.333
73980.222
73776.776
71400.591
68379.979
66332.885
61341.635
54151.906
61351.225
60503.13
67195.684
68058.543
70216.413
72460.025
72455.118
73112.882
73067.398
70622.78
69312.372
65408.644
62672.3
60723.969
47844.576
50979.068
53338.603
56364.033
57908.089
60396.892
60447.948
61099.147
61153.342
60078.296
59797.45
58086.713
55994.862
54454.639
50832.332
42896.136
47672.693
48761.433
51885.668
52210.265
54196.913
54912.784
55477.697
55342.056
54975.714
53590.446
52801.046
51322.213
48771.892
49091.793
39014.762
41139.376
42996.616
44781.353
46910.454
47880.481
48637.749
49397.41
48973.545
49165.555
48290.715
47539.634
45785.973
44878.566
43292.438
33772.08
36220.877
37195.293
39137.417
39426.745
41185.385
40930.837
41712.268
41223.797
41297.321
40722.656
39914.801
39294.5
38802.513
37874.464
29001.163
30493.091
31585.22
32663.186
33825.12
34587.437
35188.452
35539.607
35404.012
35716.417
34890.798
35088.38
34155.327
33935.879
33265.488
23531.209
25113.08
25953.968
27276.98
27944.324
29052.898
29108.966
29817.109
30004.227
29798.312
30020.023
29669.94
29443.061
28855.642
29189.189
18758.689
19680.682
20213.044
21029.702
21602.979
22220.61
22765.695
23056.233
23183.071
23532.062
23387.9
23406.238
23190.168
23620.449
23143.055
13285.099
14184.466
14614.901
15121.88
15856.816
16547.175
16856.333
17248.533
17513.652
17678.204
17708.852
17835.473
18007.006
17873.687
18235.312
8042.2683
8523.5284
9075.5691
9619.0795
10120.117
10604.433
10861.667
11163.283
11515.306
11789.188
11948.824
12339.527
12325.336
12812.146
12769.336
2709.1829
3170.6899
3238.0245
3674.8346
3969.4186
4543.4186
5160.0375
5075.9475
5243.9818
5594.1721
5944.7543
6130.4584
6181.4039
6906.603
7084.3475
-2695.155
-2422.8816
-2079.8404
-2043.2476
-1491.5961
-1076.3427
-909.8045
-630.91801
-465.47439
-187.45928
-76.607736
459.77741
692.57671
987.07235
1414.2356
-7981.1309
-7576.6198
-7711.7755
-7653.7032
-7295.8213
-7007.4154
-6845.2961
-6506.2824
-6175.5858
-5929.2696
-5610.7308
-5221.4045
-4914.7808
-3901.2314
-4206.5112
-13203.749
-13101.977
-13032.211
-12986.837
-12728.685
-12651.922
-12532.896
-12104.249
-12115.025
-11716.023
-11535.407
-11102.038
-10807.324
-10317.99
-9859.8955
-18290.989
-18259.217
-18389.211
-18452.998
-18300.73
-17951.584
-18015.441
-17798.064
-17611.519
-17314.458
-17174.651
-16400.816
-16026.888
-15111.349
-15116.052
-23222.367
-23279.276
-23382.183
-23609.501
-23461.017
-23433.741
-23263.444
-22892.402
-22997.071
-22527.046
-22299.422
-21873.781
-21804.722
-20801.492
-20649.629
-28214.126
-28266.259
-28607.535
-28546.145
-28761.878
-28585.783
-28668.244
-28388.777
-28395.599
-27837.532
-27588.525
-27090.116
-26595.56
-26314.151
-25705.016
-32467.753
-33046.073
-33025.797
-33548.386
-33395.408
-33433.196
-33481.608
-33335.578
-33298.902
-32858.479
-32732.132
-32327.237
-31981.989
-30770.964
-31221.351
-37343.521
-37342.56
-38009.454
-38097.568
-38331.626
-38031.65
-38323.5
-38093.879
-38124.861
-37737.731
-37620.458
-37015.05
-37030.511
-35866.002
-35696.573
-41280.557
-41868.963
-42032.827
-42680.012
-42554.679
-42819.337
-42740.982
-42643.146
-42742.939
-42216.019
-42010.576
-41693.991
-41475.201
-40457.004
-40472.191
-45314.04
-45972.751
-46240.548
-46780.576
-46897.542
-46838.181
-47251.296
-46935.876
-47104.079
-46660.381
-46441.894
-46034.256
-46148.726
-44768.392
-44930.248
-49354.332
-49695.731
-50327.131
-50491.743
-50812.793
-51000.831
-51062.897
-50952.077
-51014.257
-50743.594
-50613.37
-50284.126
-49529.16
-49452.373
-48710.174
-52578.914
-53312.271
-53573.867
-54393.352
-54256.314
-54705.978
-54812.397
-54864.519
-54867.408
-54667.364
-54470.657
-54157.465
-53834.151
-52790.722
-53096.327
-56266.345
-56453.756
-56933.798
-57594.058
-57912.743
-58050.148
-58254.916
-58299.149
-58428.811
-58128.852
-58073.864
-57509.366
-57294.708
-56918.733
-56272.376
-58875.31
-59790.544
-60152.157
-60679.581
-60836.246
-61297.592
-61485.197
-61545.434
-61640.322
-61423.794
-61210.673
-61066.655
-60689.624
-59891.254
-59915.208
-62188.394
-62224.455
-62988.454
-63596.497
-64029.013
-63963.506
-64462.802
-64445.297
-64722.552
-64389.134
-64155.848
-64008.29
-63651.635
-63023.338
-63025.1
-64519.646
-64978.991
-65522.176
-66151.157
-66450.344
-66852.887
-67011.631
-67127.849
-67259.923
-67151.509
-67043.71
-66715.397
-66425.32
-65752.998
-65810.06
-66961.578
-67112.527
-67885.147
-68454.01
-68838.703
-69204.799
-69482.965
-69541.925
-69658.926
-69602.663
-69388.848
-69323.191
-68904.484
-68501.825
-68425.822
-68952.442
-69238.764
-69920.968
-70499.643
-70963.525
-71334.006
-71571.792
-71707.802
-71886.569
-71775.852
-71693.987
-71454.901
-71219.27
-70645.328
-70688.628
-70831.854
-71045.606
-71749.48
-72354.175
-72824.121
-73196.193
-73481.873
-73629.458
-73749.158
-73762.458
-73575.26
-73548.268
-73200.463
-72774.306
-72832.991
-72279.06
-72696.463
-73437.709
-73884.142
-74345.496
-74912.85
-75046.946
-75352.92
-75420.043
-75497.23
-75335.048
-75313.022
-74837.898
-74799.771
-74391.934
-73485.869
-74247.544
-74607.402
-75680.37
-75758.672
-76290.702
-76597.654
-76736.911
-76959.552
-77066.382
-76844.842
-76861.939
-76608.913
-76238.731
-76544.75
-75286.562
-75195.736
-76139.72
-76531.558
-77326.723
-77442.361
-77927.708
-77997.597
-78235.158
-78178.107
-78141.918
-78197.077
-77860.643
-77627.277
-77674.83
-76133.537
-76448.385
-77083.747
-77854.769
-78060.407
-78701.131
-78832.417
-79176.951
-79267.794
-79389.746
-79244.101
-79362.138
-79050.877
-78864.696
-78901.564
-77210.027
-77178.722
-78044.263
-78576.047
-79084.085
-79457.304
-79805.919
-80010.596
-80181.93
-80295.204
-80195.477
-80339.161
-79991.274
-79918.137
-79957.885
-77917.731
-78022.608
-78778.28
-79404.577
-79764.578
-80294.053
-80537.827
-80797.363
-80959.709
-81084.911
-80973.826
-81118.634
-80851.974
-80805.036
-80830.782
-78580.728
-78578.914
-79404.44
-79916.243
-80394.712
-80802.643
-81106.16
-81351.332
-81525.896
-81682.474
-81570.844
-81796.92
-81483.453
-81483.567
-81521.989
-79127.845
-79109.681
-79897.952
-80449.128
-80872.618
-81311.657
-81618.959
-81856.448
-82051.084
-82193.799
-82123.514
-82329.439
-82041.678
-82088.189
-82134.346
-79515.979
-79469.334
-80287.392
-80763.74
-81194.571
-81631.042
-81927.212
-82177.211
-82355.067
-82540.42
-82439.037
-82698.471
-82413.583
-82497.976
-82557.403
-79871.872
-79784.024
-80584.486
-81013.525
-81475.177
-81907.406