/*--------------------------------*- C++ -*----------------------------------*\
  =========                 |
  \\      /  F ield         | OpenFOAM: The Open Source CFD Toolbox
   \\    /   O peration     | Website:  https://openfoam.org
    \\  /    A nd           | Version:  6
     \\/     M anipulation  |
\*---------------------------------------------------------------------------*/
FoamFile
{
    version     2.0;
    format      ascii;
    class       pointScalarField;
    location    "0.71";
    object      p;
}
// * * * * * * * * * * * * * * * * * * * * * * * * * * * * * * * * * * * * * //

dimensions      [1 -1 -2 0 0 0 0];

internalField   nonuniform List<scalar> 
3969
(
916176.59
-1356169.1
-320.09483
161.72963
1723669.1
-2789719.7
798.60112
-306.64587
722505.36
501769.63
252041.33
7721.3667
-182953.29
-474185.2
-516703.63
-780.26274
-814.03877
-761.13907
228.94183
785.65927
723.94444
687.28828
294342.92
324596.61
307513.49
317014.36
302758.99
296809.67
281000.83
267967.13
252545.65
234898.92
221196.05
205875.05
190212.18
177223.94
162963.85
148602.71
137508.21
124459.07
114565.36
103467.02
94928.01
86355.632
79237.262
72927.291
67174.324
62506.74
58046.021
54561.381
52008.739
48746.251
46471.815
44086.071
41613.685
39140.476
36904.819
34063.018
31224.281
28521.165
24968.07
21680.824
18158.211
14651.14
11033.197
7689.3531
4849.2434
2534.2687
424.34739
-306617.29
-248477.25
-297435.1
-253588.2
-280501.84
-249246.34
-251128.83
-228818.13
-220716.13
-203864.88
-190992.14
-179116.15
-162373.37
-153032.63
-139289.48
-127958.82
-117291.67
-105644.93
-96989.962
-87702.183
-78918.981
-72827.377
-65199.479
-60093.197
-54281.463
-49877.491
-44654.498
-41032.063
-37709.675
-34381.287
-32377.479
-29293.297
-27376.317
-24827.5
-22938.299
-20538.144
-18479.66
-16128.022
-13790.098
-11220.169
-8546.217
-6408.5259
-4236.5509
-2677.8098
-1079.796
-54.267934
449.83348
1260093.9
949616.63
419740.1
-42086.08
-424548.76
-931370.15
-762340.71
-364658.69
-405828.62
-244141.07
-340288.79
-291574.25
-287923.34
-275751.52
-257688.99
-245523.87
-215214.29
-223937.65
-195492.93
-190173.72
-174219.68
-159517.12
-149574.76
-133151.13
-123212.7
-110313.75
-99255.989
-90355.208
-81995.223
-74324.117
-68271.761
-62930.713
-59363.17
-55315.839
-50468.99
-47426.298
-44355.959
-40933.074
-38401.077
-35765.979
-32633.042
-30178.149
-27837.865
-23989.852
-21113.082
-18632.473
-15570.837
-12453.048
-9662.5536
-6707.2968
-4297.9879
-2070.9674
-366.35882
1045.5343
1229.7037
1380.3294
1593.5033
11.320978
430.5286
-852.01098
-1293.416
1157.7947
2305.7087
3944.5907
6680.8708
9654.2113
12888.784
16381.343
19327.671
22974.775
25646.465
27720.868
32767.572
34512.903
36963.672
40010.538
42507.512
45350.258
48362.617
51541.722
55133.165
59567.676
63806.35
69064.588
74740.913
81830.359
89256.412
97836.804
106195.07
117327.13
127394.19
140272.46
151497.47
163022.01
178253.86
197686
205724.07
225447.17
234397.56
251637.89
272547.96
293581.2
291516.21
317049.56
311599.41
309234.66
333310.55
341555.73
815841.5
875801.08
914907.16
900371.55
891032.96
893318.7
722012.39
-1089159.1
-1383690
-1585274.7
-1691572.3
-1612672.3
-1598582.6
-1235882.7
-349.07461
-539.95139
-30.74652
-0.54554069
227.04274
145.0633
78.661656
-737.63956
-817.03767
-864.66593
-947.7456
-619.92798
-143.31611
-552.70062
244671.96
248259.39
245342.54
244072.91
240176.67
234610.63
224096.33
217085.08
202252.33
195190.42
182050.4
167922.96
159737.2
146557.92
136181.86
125680.87
115903.85
105747.16
96504.25
87919.26
80417.563
72948.497
66891.458
61419.279
57096.579
52473.911
48996.532
46355.593
43314.298
40912.046
38724.677
36223.23
34042.09
31765.229
29401.52
26890.326
24359.317
21818.593
19146.511
16756.808
14004.851
11680.113
9037.5744
7067.7408
4714.482
2724.8945
426.45314
156348.24
159152.87
153719.74
160502.94
158989.24
160935.15
152369.7
147804.53
140055.01
135193.28
125559.42
119356.97
110431.64
101883.69
95554.964
87187.234
80748.175
73083.069
67083.965
60886.955
55074.962
49872.136
45209.956
41361.731
37726.069
35153.972
32970.379
30692.289
29428.084
27907.444
26639.076
25241.79
24072.85
22599.839
21132.254
19595.918
17975.582
16571.489
14825.584
13251.78
11447.194
9798.234
7861.2566
6126.8432
4123.7921
2333.8529
697.80245
71844.897
81922.04
73193.992
79088.523
77370.72
78981.482
75576.273
75306.82
71324.863
68259.105
65525.351
61406.601
57826.191
53038.547
49368.485
45646.478
42630.693
38876.627
36360.253
32901.254
30644.055
27895.347
25828.723
23535.649
21937.795
20388.312
19315.653
18615.009
17957.197
17213.836
16623.278
15766.681
15061.703
13923.258
13187.537
12098.115
11059.138
10098.328
8889.158
7995.3777
6831.3649
5862.6835
4560.0541
3707.013
2448.5748
1610.8535
724.2729
-2666.6512
1204.9627
-5489.7687
2817.8658
-2850.6536
1220.0153
-2980.7685
127.95388
-1470.4481
3774.4746
749.00616
3877.9565
3149.9146
4182.7819
5063.4348
5183.738
5477.9689
5642.108
5644.5249
5105.8666
5133.8826
4830.5233
3745.6424
3373.5742
3780.7088
3717.0408
3956.0813
4188.9515
4390.1976
4565.8977
4847.7511
4733.8147
4763.0295
4581.5877
4507.8269
4259.9483
3977.4659
3732.1776
3795.9092
3950.7749
3675.2734
3403.0021
2914.6812
2575.621
1634.3486
1287.9582
717.7211
-88147.599
-75247.328
-79253.962
-79542.088
-82681.394
-78251.679
-77268.936
-70760.278
-68520.848
-59732.47
-58777.492
-49416.029
-48615.938
-41029.982
-38762.986
-33663.106
-30591.194
-27292.004
-24194.787
-22211.109
-18376.976
-15125.595
-13159.66
-10235.398
-9664.6731
-9354.4243
-7515.0634
-6404.4191
-5496.9628
-4623.0448
-3718.4969
-3425.7158
-2620.0522
-2429.1608
-1960.196
-1578.1048
-1504.3611
-933.93158
-1670.6791
-1166.1934
-1113.7732
-656.53051
-514.53328
-268.15222
-207.05531
115.012
698.59326
-169809.91
-153263.18
-156352.67
-161005.32
-159428.29
-152634.62
-147407.46
-136570.24
-131817.39
-119038.26
-114535.61
-103205.36
-96968.977
-89462.845
-82051.976
-74081.373
-67782.655
-61081.368
-55276.25
-50331.643
-44744.339
-40922.749
-34721.295
-30737.55
-27153.149
-24511.982
-21997.082
-19883.24
-17879.491
-15997.137
-14773.662
-13164.486
-11971.875
-10927.726
-9733.4135
-8830.703
-7648.0436
-6809.5244
-5936.5877
-5515.0311
-4094.5393
-2989.0492
-1972.8088
-798.55963
-243.21346
405.95059
652.07651
-284375.17
-197893.68
-234529.55
-225233.09
-230209.87
-215627.3
-211235.89
-196377.16
-191050.99
-172220.95
-166648.84
-152383.56
-141210.91
-128652.11
-117612.12
-107013.24
-96602.553
-87920.399
-79792.955
-72041.811
-66089.163
-59564.945
-53963.256
-49044.808
-44839.227
-41337.642
-38233.419
-34793.195
-31738.348
-29020.343
-26688.028
-24277.745
-22157.228
-20186.784
-18174.374
-16410.227
-14465.923
-12466.897
-10818.393
-8536.6573
-6554.8205
-4602.2688
-3050.8018
-1501.1443
-748.83639
87.063458
189.5512
564142.74
536434.64
564161.87
562945.69
566478.62
549958.27
509170.68
371856.44
420008.54
395540.7
407020.1
404368.87
392879.5
377067.38
188615.14
222024.34
188780.66
204529.45
191381.63
190518.71
202136.5
40545.433
19977.036
6094.2051
25473.165
9272.3087
-13492.892
57561.948
-96189.078
-103237.25
-114350.22
-101520.07
-109957.71
-107084.42
-60706.452
-359629.89
-381497.34
-381894.63
-393775.32
-404747.01
-390821.74
-372337.01
-437422.23
-395956.2
-343948.6
-352509.26
-330830.64
-306700.5
-346282.38
-502002.61
-521360.69
-587975.06
-610036.7
-622517.31
-608546.91
-474691.42
-368956.09
-428973.62
-430414.95
-440220.75
-460338.3
-438092.65
-399326.78
-301623.9
-346483.91
-364431.87
-367608.49
-365508.9
-341060.25
-358118.65
-294520.44
-322650.59
-314926.61
-335719.87
-323273.54
-320860.66
-301006.05
-289802.46
-309222.43
-320946.61
-321635.66
-320809.51
-307730.47
-309591.95
-274783.36
-269550.35
-275084
-282320.49
-282131.83
-275424.13
-272998.3
-255313.91
-264037.46
-268790.34
-273509.59
-271217.18
-273503.85
-271922.12
-245498.02
-242737.9
-243663.45
-247495.66
-245713.2
-247203.53
-245685.37
-227895.85
-229729.67
-231098.97
-234820.58
-236165.53
-239649.24
-239625.98
-216181.24
-213533.54
-213163.29
-215522.38
-215764.85
-213602.19
-215927.98
-199997.06
-200540.84
-199111.05
-201898.45
-201854.24
-203913.82
-206696.97
-184591.01
-184352.03
-183959.06
-187686.91
-186797.31
-184937.96
-190848.08
-174544
-167959.94
-172088.57
-170874.48
-173427.79
-173392.56
-179804.63
-156426.99
-155390.79
-158838.84
-158554.66
-161040.47
-158946.46
-164011.33
-145916.52
-142458.26
-145813.75
-143972.83
-146200.89
-145819.59
-151157.08
-132012.61
-129171.73
-132940.39
-131929.2
-135575.25
-135017.54
-139722.45
-119613.26
-118252.35
-120744.29
-120152.67
-122906.36
-122383.21
-125814.06
-108655.27
-107133.72
-109993.02
-108776.49
-112553.46
-111576.28
-115536.4
-97967.461
-97156.045
-99571.687
-98387.783
-101695.86
-100904.8
-104552.91
-88457.064
-87893.261
-90306.208
-89024.468
-92634.398
-91894.426
-95324.877
-80403.766
-79241.274
-81660.254
-80072.533
-83541.687
-82793.498
-85986.344
-72657.72
-71888.868
-73794.878
-72828.996
-75965.53
-75341.281
-78685.9
-66232.101
-64648.74
-67358.855
-65956.253
-68665.484
-68422.315
-71241.554
-59712.414
-59484.943
-61225.753
-59694.183
-62698.055
-62473.558
-65227.639
-54545.371
-54397.936
-55388.447
-54804.903
-57370.567
-57124.534
-59886.277
-49306.169
-50221.248
-50173.827
-50188.685
-52397.254
-53247.354
-55533.233
-46646.34
-45842.395
-46698.712
-46685.082
-47718.761
-49040.93
-50333.824
-43065.723
-42248.966
-42955.579
-43354.833
-44423.37
-45562.304
-46084.491
-39792.38
-39178.268
-39963.434
-39805.563
-40650.802
-42142.285
-42552.859
-37040.525
-36343.314
-37105.842
-37028.583
-38233.294
-39510.706
-39803.078
-33881.439
-34046.036
-34281.38
-34435.949
-35250.079
-36503.785
-36744.536
-31733.705
-31550.093
-31893.412
-31977.226
-32759.047
-34047.969
-34298.03
-28956.404
-29387.783
-29386.2
-29657.093
-30283.01
-31696.021
-31962.36
-26892.898
-27258.447
-27210.635
-27472.577
-28061.76
-29372.894
-29402.315
-24528.901
-25164.651
-24773.94
-25191.583
-25536.685
-27089.32
-26965.428
-22369.273
-22850.333
-22445.864
-23003.982
-23161.812
-23780.82
-24715.921
-20034.236
-20334.502
-20299.335
-20042.625
-20972.791
-22474.275
-22214.979
-17937.106
-18703.371
-17814.164
-18574.834
-18265.179
-19194.785
-19698.556
-15282.186
-15734.331
-14944.074
-15554.693
-15435.775
-16376.023
-16584.349
-12662.274
-12848.931
-12497.855
-12687.258
-12530.182
-13628.098
-13763.484
-9835.3001
-10147.722
-9618.9886
-9715.9688
-9744.8522
-10678.771
-10726.76
-7450.735
-7627.2564
-7133.506
-7366.154
-7133.6863
-8093.6835
-8084.3838
-4887.1942
-4895.8346
-4495.6304
-4585.2445
-4337.8598
-5448.9415
-5301.2661
-3078.4507
-3003.6736
-2687.4149
-2719.3752
-2494.2264
-3478.141
-3147.2299
-1199.3271
-995.96638
-761.68802
-723.06329
-482.14354
-1408.2331
-1087.3982
-230.25764
-52.510305
55.578203
166.1323
260.55323
-413.52852
-182.74162
432.24071
758.05382
578.85932
811.22195
738.65038
502.3593
681.78811
-1220.6914
-1554.1226
-1554.9906
-1429.3511
-1055.083
-918.5754
-807.96402
-2149.5663
-2110.9239
-1725.6239
-1803.3978
-1406.7939
-1049.6476
-1271.5329
-845.50772
-1195.1895
-807.2118
-685.7338
-418.37985
-338.87407
-381.44403
-7.4153042
-72.434621
2.7503157
115.6374
448.56702
417.24263
618.77849
1016.4372
680.43289
1242.7714
1212.6438
1551.7547
1538.9411
1562.6872
1227.0756
1143.2931
1117.1524
1339.5654
1662.8136
1596.7043
1627.1065
547.44487
804.07744
604.23217
912.74216
984.46298
875.32989
1427.5873
355680.09
358577.94
401254.9
393205.89
402241.99
379619.53
368444.48
367778.7
382338.3
396182.01
395206.97
397418.37
372229.75
363330.71
346087.25
352314.77
362276.25
362516.78
361968.86
343243.44
338453.85
322339.33
336491
342618.89
346984.56
343606.92
332079.34
329851.87
316571.88
319667.15
322826.13
325143.33
323545.32
317625.42
309570.89
295327.49
299229.46
303896.65
300430.8
302079.32
292072.23
291596.75
286275.02
286439.84
287978.09
286770.67
291888.59
283445.24
287797.07
264933.65
263748.08
268501.28
259399.17
265625.46
260302.17
260397.33
253183.27
255658.12
255656.99
251832.72
257201.96
250486.27
254977.25
237564.25
234076.75
233676.04
229946.82
235111.09
228503.49
233053.87
222347.63
220016.07
224550.54
218388.35
223716.29
217017.94
221241.1
205260.32
206002.08
204827.76
199869.74
204581.97
199520.38
204076.74
193968.2
189706.33
190775.49
186878.94
190136.09
185480.75
184791
177913.99
176172.24
174771.56
173520.49
175152.76
172507.75
176124.36
164393.48
162736.4
160282.98
159646.89
160126.56
158158.35
160412.75
152922.2
148451.38
147775.09
146102.6
147746.28
145410.32
145853.87
139040.81
136301.61
134998.02
134376.08
134352.72
132870.89
133617.17
127219.72
123983.43
123303.33
122033.22
122105.4
121416.71
121274.71
115798.74
113515.21
112481.68
111099.66
111514.89
110951.08
111195.65
105753.19
102868.46
102046.05
101009.15
101166.28
100874.42
100693.77
96748.302
93703.426
93337.447
92052.35
92332.566
92292.511
92161.316
88185.95
85339.376
85136.817
83984.849
83989.409
83991.81
83982.74
81120.132
78297.47
78431.788
76904.741
77015.397
77207.529
77435.299
74617.192
71971.54
71874.533
70519.1
70504.527
70656.72
71126.243
69159.174
66056.077
66588.106
64810.326
64984.612
65297.143
65936.154
64265.409
61211.018
61767.563
59971.219
60141.506
60483.563
61005.246
59688.248
57348.748
57529.793
55972.661
55894.447
56124.883
56913.919
56464.558
53728.47
53495.269
52189.48
52064.438
52310.446
53185.191
52486.254
50098.984
50526.925
48948.743
48593.335
48848.357
49602.133
49464.729
47842.03
47218.299
45992.819
45541.293
45874.779
46454.519
46762.907
44984.934
44548.83
43493.032
42791.027
42982.351
43543.818
43749.737
42624.598
41812.621
40904.449
39994.806
40223.942
40835.221
41150.332
40382.359
39456.746
38704.509
37542.259
37961.883
38408.662
38564.673
38022.343
36987.282
36389.434
35316.981
35625.137
35927.189
35822.897
35705.06
34588.326
34170.697
32681.278
33141.657
33148.133
33007.892
33095.456
32096.181
31620.482
30556.044
31277.443
31323.762
30655.149
30876.765
29489.241
29426.723
28242.836
27404.867
28522.453
26825.138
27591.911
26667.116
26096.976
25465.773
25057.623
25936.469
23651.465
24385.066
23006.572
23354.941
22168.234
22039.045
22883.14
20451.496
21224.434
20113.199
20375.958
19050.958
19136.711
19515.33
16742.096
17374.454
16428.958
16656.768
15586.852
15923.838
16099.056
13355.095
14011.069
13056.238
13387.07
12432.096
12694.149
12815.582
9883.1503
10178.198
9500.532
9817.2586
9001.1693
9429.31
9479.3929
6743.8928
6922.9332
6441.1877
6714.2098
6141.0563
6609.2756
6533.6565
3973.4645
4066.8697
3801.3532
3939.0979
3514.9063
3878.129
3829.0788
2021.9636
2156.4781
1890.0569
1987.3343
1839.5169
2237.5977
2271.0793
635.96279
848.65025
760.01788
857.49286
623.32187
856.2304
688.16435
352015.66
265863.31
260044.93
250685.99
254577.16
252803.25
234560.55
230492.23
217098.01
207706.41
193169.69
181032.45
167848.45
154392.99
142490.67
131791.23
120176.72
110335.13
100502.39
91817.693
83797.334
76289.165
69848.652
64173.009
58964.985
54264.927
49838.517
46204.046
42839.991
39757.234
36851.829
34227.724
31621.514
29155.496
27219.52
24143.563
21762.326
19523.002
16558.425
14371.215
11951.636
9611.7044
7419.7747
5509.9037
3678.8221
2146.301
34.902999
216118.87
207105.28
152631.15
172281.84
191170.17
173109.79
179075.39
162460.82
161718.08
147819.56
140957.9
131874.94
119977.1
113687.94
105298.79
96969.238
89126.23
80289.556
74440.483
67026.486
61132.767
55478.213
50584.045
45746.681
41510.83
37361.684
34760.593
31512.183
29056.44
26807.101
24786.604
23064.188
21382.388
20241.894
18352.207
17373.258
15822.497
14270.522
12464.017
11209.465
9210.7413
7656.4889
5990.5604
4437.9742
3011.5772
1527.74
161.12489
101160
115671.63
65267.942
100349.96
85496.816
78188.392
80587.563
74492.139
72708.521
65636.354
68313.026
61715.999
62914.693
58172.569
55291.584
52779.541
48206.893
44980.195
41961.818
37666.738
34928.676
32013.397
29325.937
26874.557
24894.879
22780.432
20732.097
18482.933
16871.738
15223.396
13805.427
12596.863
11559.198
10431.859
9438.346
8631.6656
7603.2923
6790.8828
5606.4699
5073.1214
3992.9046
3394.5203
2758.3381
2341.0431
1818.256
1605.7594
103.91527
-6953.7591
25110.104
-3201.1152
15206.768
376.1541
9587.5569
7608.0186
-765.8535
4902.1204
5442.7876
3994.8559
6588.8504
6347.6919
9035.4608
9577.2734
9141.9345
9239.9628
9286.446
9043.4247
8453.4489
8742.4179
8343.2567
7994.4084
7756.1005
6990.7874
6162.4357
5534.7563
5149.5344
4464.5329
3903.771
3531.9309
3674.4702
3346.5133
3526.5286
3566.5239
3670.3097
3636.1544
3701.8768
3428.8871
3493.4485
3179.6923
2840.3847
2691.3995
2211.6238
2142.7372
1436.089
894.4167
-143670.54
-66735.316
-81323.536
-56689.595
-73143.412
-56862.274
-66933.176
-60639.415
-52278.668
-55608.696
-44839.801
-47249.394
-39460.479
-39472.575
-34186.861
-31464.935
-28155.067
-25359.17
-22557.602
-20070.193
-17396.823
-15596.557
-13558.746
-12080.677
-10589.486
-9439.218
-8606.5281
-7923.2501
-7835.9118
-7517.8115
-7136.7551
-6785.443
-6348.6886
-5643.0274
-5193.6434
-4577.7887
-3941.933
-3312.122
-2909.0396
-2052.9758
-1596.4666
-965.71056
-450.57727
150.53318
498.73548
1030.6599
583.68162
-222690.69
-163440.48
-140951.73
-141386.33
-147387.12
-139645.45
-142844.69
-123607.77
-131770.1
-119769.25
-116011.13
-107966.3
-97398.457
-93020.706
-83326.37
-77152.689
-68635.92
-61574.15
-54807.024
-49045.449
-44194.237
-39628.726
-35697.076
-31627.539
-28565.731
-25820.743
-24019.944
-22274.401
-20667.374
-19142.783
-18087.52
-16597.45
-15291.318
-13892.995
-12500.96
-11060.438
-9610.1515
-8204.5904
-6790.9759
-5526.6763
-4214.6056
-3197.9022
-1877.8297
-1136.7023
-24.728237
534.08076
1068.8362
-284608.96
-220508.13
-229841.55
-221045.62
-236398.33
-224882.13
-217568.78
-207487.85
-198617.85
-183287.01
-171989.25
-160980.61
-147224.06
-136025.77
-124138.32
-114036.98
-105029.69
-95113.507
-87916.66
-79372.878
-72361.704
-65428.352
-60094.872
-54362.247
-50278.222
-43660.257
-41825.92
-39171.33
-37048.104
-35094.13
-33315.762
-31146.353
-29390.698
-27534.127
-25063.901
-23207.56
-20895.645
-18483.38
-16473.996
-14087.566
-11924.228
-9445.4982
-7471.9701
-5186.614
-3338.6208
-1421.8518
-431.57042
437086.07
476703.95
468553.89
486346.05
478882.12
452819.42
419497.54
304693.7
345269.43
344740.15
351548.13
342627.24
329404.85
299807.19
280534.49
306991.25
319590.03
323339.81
316365.64
312848.86
293981.68
267626.13
273673.84
279156.33
286203.09
274256.29
275323.68
252871.91
254359.04
260172.23
269598.25
265025.67
261645.55
258805.01
240514.71
244393.2
253207.22
245543.62
254656.65
247090.86
244317.34
244499.18
235377.18
233025.41
233038.92
235693.92
224752.56
231983.99
226313.6
221112.42
231894.09
223719.6
227781.49
224795.83
221548.37
218994.24
215247.53
212319.97
201353.1
212487.12
202454.14
205736.88
203925.84
200354.94
199742.46
200363.87
203845.23
194998.62
198616.55
196563.53
187048.76
191166.29
182035.1
186054.08
179791.9
183935.04
181820.12
179739.52
175959.1
172017.56
175542.03
171774.64
171264.86
170649.58
165451.92
164760.03
160251.54
165195.9
158028.84
160972.66
161678.89
153351.24
150971.06
150329.65
150649.37
145609.38
148081.72
147204.11
143079.02
140924.48
138148.92
138895.36
136052.44
137547.08
136491.35
130784.9
128268.29
128288.94
127800.84
124815.26
124082.47
125729.2
119077.73
118316.13
116319.73
117098.3
113531.5
114688
114930.5
109755.46
107855.72
107483.53
106253.51
104342.51
104409.86
105334.02
99203.879
98929.464
96558.342
97213.635
94696.143
94880.644
94949.164
91317.936
89782.549
88774.509
88525.498
86580.06
86359.457
87189.421
81658.428
82353.282
80272.836
80553.33
78497.103
78578.211
78736.181
75176.028
75643.609
73460.654
73444.043
72017.908
71628.991
72365.161
68184.275
69260.742
66480.724
67103.592
65495.502
65896.925
65410.858
62651.416
63770.481
61189.178
61678.924
60694.671
60325.674
59908.268
57120.525
59336.212
56377.042
57294.51
55788.371
56074.965
54973.664
53829.165
55287.031
52839.3
52785.982
52659.035
51631.717
50842.342
50618.459
51245.222
48793.999
49337.648
48809.605
47970.414
46908.253
47115.705
47339.971
47000.604
46147.058
45721.644
45125.487
43413.661
44391.875
45870.817
43143.601
43299.247
43144.778
42325.558
40321.115
42651.823
41975.824
41301.156
40982.985
40622.056
39620.416
37607.303
39861.446
39740.673
38765.274
38289.829
37998.258
37288.349
34968.788
37890.979
37126.953
36759.749
36073.78
35958.769
35151.49
32710.882
35642.998
34610.606
34317.717
33630.358
33609.007
32952.623
30347.457
33313.147
31983.434
32117.619
31267.473
31275.583
30567.755
27955.908
30785.23
29348.59
29660.436
28688.769
29036.428
28433.85
25992.784
28307.564
26724.81
27103.804
26259.625
26533.974
26198.062
23712.102
25766.486
23908.153
24703.004
23383.677
23983.337
23174.223
21284.454
22783.114
20866.768
21151.442
20894.066
20587.765
21049.453
19620.159
20250.554
18015.574
19264.929
17849.956
18695.788
18353.757
16738.772
17253.499
15438.042
16216.949
15091.528
15644.708
15418.296
14361.059
14515.117
12411.288
13299.914
11957.943
12874.932
12623.273
11848.457
11681.581
10090.683
10695.258
9719.7772
10405.901
10062.027
9460.6192
9015.4
7280.2895
7937.675
6816.8847
7450.2277
7277.4083
7119.3885
6488.3195
5446.6588
5789.9494
4879.721
5467.9716
5327.7474
5008.3672
4071.9204
3245.4315
3361.675
2654.4546
3151.6023
2806.0115
2979.5372
2060.4487
1628.8019
1631.7483
1266.9423
1504.8504
1548.2644
1363.299
278.58862
-136.05172
-158.88614
-408.98364
-51.505074
-363.30757
183.76171
289069.57
302084.52
327531.91
322048.27
328149.02
300478.5
294188.18
218532.03
264276.97
273433.1
279461.93
277221.87
256540.02
239763.76
210552.36
198258.69
221491.17
213605.66
221326.63
198511.09
197551.11
178262.24
187811.03
197061.99
193680.08
195305.81
187614.25
169242.14
181749.81
182075.78
189580.74
183511.48
191722.97
179631.45
178341.16
167868.5
167828.45
170056.78
167219.07
165085.24
168832.36
163680.44
163616.4
165723.15
173479.57
164289.39
170709.47
168657.57
162662.85
156607.29
153506.65
152999.07
149335.45
154304.19
149530.46
152722.13
149871.07
145075.28
153524.1
147772.65
147506.68
148516.39
148411.72
138219.11
139408.72
142079.3
132625.06
138090.1
137116.46
138883.96
133384.13
131934.26
131501.89
127448.42
130685.26
129689.21
129194.99
125388.78
120392.22
125916.47
119350.37
123523.86
120028.95
124075.6
115403.86
113984.51
117983.48
109458.66
113052.25
111099.97
112190.88
108938.27
106587.6
107900.58
101776.68
105671.94
104669.09
101625.99
100468.74
99335.948
99161.769
94745.382
97345.616
95329.823
93844.641
92727.25
90880.924
90416.645
87745.045
87539.697
88510.602
85185.058
85373.396
84343.554
84059.094
80135.293
81023.21
81902.301
79821.289
77583.279
76901.852
75268.523
73484.542
73334.354
74272.581
71058.989
71747.871
69996.428
69412.42
67245.976
66969.157
67854.53
65620.158
64361.494
63422.125
62679.147
61033.575
60345.254
61439.267
59276.214
59334.947
57997.459
57167.076
55600.686
54879.03
56049.002
54324.627
54143.116
52391.42
51434.237
50564.058
49577.92
50924.164
48936.019
49848.613
47504.633
47071.61
46298.831
45382.444
46091.264
44928.882
45825.706
43380.752
43109.173
42475.337
41243.01
41882.272
41273.427
42477.653
39827.29
39673.648
38948.564
37920.119
38206.882
38161.973
39449.142
36959.043
36052.114
36195.546
34288.833
34808.244
35014.421
36633.508
33776.39
33731.188
33573.049
31916.917
31847.55
32308.332
34601.523
32407.487
31241.131
30770.137
29848.537
29306.419
29945.458
32665.681
29652.138
29676.138
28851.068
27984.065
26830.729
27585.753
30618.415
28149.251
27717.656
27047.24
25647.085
25008.179
25408.371
28938.806
26782.023
26315.405
25296.533
24243.458
23434.724
23491.791
27316.234
25382.958
24471.883
23889.596
22629.381
21768.555
21591.651
25660.573
23948.039
23086.447
22368.336
21108.762
20232.869
19776.353
23878.651
22675.221
21516.361
21041.427
19714.463
18881.062
18280.651
22250.846
21347.716
20066.288
19640.697
18444.134
17553.705
17054.651
20499.932
19910.601
18417.846
18350.011
16797.661
16225.209
14953.525
18805.661
18365.482
16981.445
16712.501
15663.721
14673.405
13787.197
16794.009
16834.128
15185.075
15327.364
13978.917
13460.689
12525.588
14924.183
15243.994
13770.829
13769.871
12580.391
12237.109
10699.927
12961.237
13569.317
11528.276
11932.523
10757.489
10249.93
9114.3585
11115.681
11453.951
9845.8382
10319.25
9161.1665
8871.3622
7803.5708
9006.9453
9648.394
7960.9162
8493.3876
7362.5124
7208.0654
6109.9273
7082.338
7451.1388
5939.0367
6411.969
5466.4328
5471.0787
4697.0228
5130.8149
5546.7578
4176.1939
4693.1251
3949.4894
4058.0879
3310.5366
3285.8214
3521.0848
2335.2432
2814.2668
2239.4009
2382.73
2075.9614
1680.6012
1768.3218
848.00674
1243.0313
924.29047
1113.6214
1068.786
329.25742
242.2937
-334.91455
-104.26376
-4.9187152
-267.67557
83.242327
165551.04
169318.44
160001.21
176816.14
164084.29
154442.2
146705.86
117115.91
161996.63
154279.01
165130.96
144428.24
150427.13
123696.53
110690.58
102760.8
109956.61
109778.68
104995.24
96538.533
92753.547
88993.21
103709.99
107564.06
113880.63
100772.13
107088.52
88676.555
97436.887
88904.761
94081.302
86966.567
86847.577
82118.676
80458.274
84414.314
92781.44
85406.366
86892.343
86481.068
82665.292
80591.61
88528.261
87830.69
76499.183
81424.195
79849.634
76043.412
77041.067
81904.539
86318.952
74865.821
79719.63
74859.305
72048.234
74643.746
80948.053
84794.995
71533.282
75196.467
72207.215
72346.021
71508.13
78773.779
79532.943
66384.003
69393.831
69742.437
66119.587
67789.657
74424.086
76421.821
62986.965
69604.676
65850.428
65392.286
63717.223
68428.71
70800.039
59562.722
63073.338
61832.945
58561.206
61377.719
64192.324
69826.03
55148.696
61025.273
57479.174
57561.803
56738.757
60384.237
61738.103
54043.044
56420.1
56498.149
51018.926
55923.119
55837.187
57410.46
48882.717
53557.945
51056.235
48035.668
51002.554
52124.261
51833.108
47916.988
47973.322
48223.42
44818.804
48184.505
46530.145
49041.204
42971.017
45168.16
44200.857
41894.72
42874.709
44515.404
43896.749
40464.706
41446.37
40979.069
38332.831
39387.259
39314.537
40952.712
36972.529
38499.72
37031.192
35557.74
35698.95
36949.044
37536.676
34318.103
34985.07
34228.516
32793.845
33058.243
33166.9
34468.718
31044.568
32284.455
30993.75
30500.439
29329.705
30628.209
31332.204
28925.178
29563.205
28813.14
27784.775
27099.549
27832.08
28957.465
26416.951
27507.043
25719.034
25909.312
24518.189
25824.988
26437.434
24641.139
25112.572
23540.668
24301.878
22226.363
23953.653
24330.541
22732.231
23056.086
21520.118
22614.729
19769.593
22701.748
21970.562
21570.756
21409.998
19983.582
20993.274
18186.513
21250.716
20984.204
20172.727
20219.407
17995.783
19972.483
16134.88
20410.321
19889.995
18958.968
18503.098
17177.318
18121.351
15052.621
19198.909
18298.972
17466.654
17327.516
15763.365
16678.52
13702.053
18562.028
17200.191
17048.237
15978.023
14816.193
15436.468
12613.575
17616.956
16210.567
15528.917
14800.605
13588.268
14243.727
11425.43
16880.404
14942.433
14629.394
13710.267
12639.726
12973.106
10326.781
15905.434
13934.314
13513.647
12595.282
11493.717
11776.512
9768.4861
14994.373
12824.449
12437.502
11574.471
10584.61
10983.239
8994.2893
14027.612
11723.381
11302.308
10400.303
9519.2262
9585.0602
8202.1251
12862.217
10571.617
10065.381
9421.8365
8537.1971
8892.5598
7792.1686
11834.296
9379.3322
9067.6825
8273.7234
7639.1931
7539.8138
7083.2934
10552.77
8285.1728
7692.8925
7247.3654
6452.3967
6639.0863
6625.3234
9524.7733
7020.569
6696.8647
6092.0445
5543.642
5766.9684
5679.0493
8357.3204
5994.1935
5607.1785
5173.7585
4647.6432
4658.1387
4990.5516
7070.0294
4583.4263
4680.3208
3974.2675
3689.965
3775.7205
4474.7402
5785.8758
4009.6157
3837.3734
3200.2073
3035.8872
3024.9045
3560.3754
4594.0843
2745.1086
2725.6197
2140.6273
2058.3086
2026.7909
2920.6378
3416.0323
2384.536
2357.7616
1952.2582
1821.0195
2061.1395
2338.0153
2226.6131
1470.755
1347.857
891.34658
973.38425
906.29005
1210.3959
1487.1663
1424.9591
1042.7228
1229.9743
1070.3656
1229.1163
1269.829
319.05374
-222.88254
-18.022659
23.47145
-49.678267
125.0025
423.59544
13350.612
972.25829
6861.3067
8843.8919
3085.4142
2882.4491
10505.605
2855.8758
7195.6373
7917.745
10576.764
3517.2189
7289.4105
-573.82413
18428.461
-6637.525
-1495.3821
-10240.698
-3311.6293
-10734.838
2007.0641
3923.5596
-2040.8378
7575.3519
2852.0356
585.65598
7892.3046
-5316.7531
8732.4949
5166.3074
6772.4743
-8586.1554
6570.4183
-13236.943
5281.0435
7060.3858
280.90544
-1706.8927
1300.9974
-989.82699
2943.5006
1114.0667
8215.3748
4130.5436
11211.961
-1445.8802
5574.084
-86.656124
2863.273
9551.9332
6086.3945
2033.5781
3695.3036
2511.3574
4118.7857
3088.4129
10665.029
2404.3337
7260.5318
1920.9456
4874.9176
3229.7595
781.2101
7086.0666
6296.9564
6360.8762
2413.3569
3652.4075
2739.1018
3315.5807
8733.009
5999.8303
5872.022
2394.7893
3806.5452
3477.4097
2863.9986
8828.2903
6270.9892
5301.3327
3963.9393
3579.2108
4729.8827
3119.7838
9762.1285
5846.4336
6590.0152
3552.4704
4908.1924
4616.962
2145.5729
9349.0663
5091.9227
9446.3421
4625.7428
3485.1259
4449.7232
693.48021
10386.879
8604.0723
6134.4954
5885.552
3374.9244
4670.7645
3669.175
8875.8652
7820.4923
5605.8539
6294.1796
2857.6937
5286.6134
3326.286
10083.47
7686.5912
6544.5267
7450.5789
3681.4269
5205.8247
4341.8351
8858.3854
7316.3449
6639.843
7305.4966
3282.3429
5137.0754
4148.9031
9090.0431
8239.3598
7115.4403
7370.34
3919.468
5483.4811
4903.2592
8967.4152
7589.2199
6422.5681
6881.1841
3736.2468
5523.6891
4013.2817
8640.4094
7727.1575
6557.1961
7038.0063
4390.2028
5150.9691
4219.8015
8841.3246
7689.0607
6099.0342
6814.1409
3752.5842
5053.0287
4140.9768
8610.7071
7431.2606
6059.8106
6264.8265
3927.2127
5045.5394
3875.269
8677.2425
6815.4315
5882.3964
5716.3541
4134.5574
4615.2426
3569.0977
8430.7566
6544.9056
5871.8681
5392.3911
4298.319
4022.3812
3429.7118
8075.8214
6826.0244
5663.6916
4898.2174
4177.2091
3444.9823
3464.42
8492.4643
6131.1657
5430.8763
4520.65
3830.0965
3112.0709
2531.3055
7936.3578
5819.9064
5252.8265
3945.3835
3578.672
2670.4929
2059.0897
8013.3835
5678.1079
5190.1948
3825.0062
3556.8125
2313.1441
1860.6178
7551.7353
5597.2718
4978.6977
3550.0665
3010.7553
1968.3923
1535.1826
7285.9147
5388.2592
4687.141
3112.4796
2917.1289
1915.5051
978.17604
6918.1637
5284.0048
4526.1896
3273.6885
2651.6383
1779.5894
600.43336
6583.9884
5147.4348
4383.11
3037.031
2358.1571
1975.2935
429.41651