/*--------------------------------*- C++ -*----------------------------------*\
  =========                 |
  \\      /  F ield         | OpenFOAM: The Open Source CFD Toolbox
   \\    /   O peration     | Website:  https://openfoam.org
    \\  /    A nd           | Version:  6
     \\/     M anipulation  |
\*---------------------------------------------------------------------------*/
FoamFile
{
    version     2.0;
    format      ascii;
    class       pointVectorField;
    location    "0.71";
    object      u;
}
// * * * * * * * * * * * * * * * * * * * * * * * * * * * * * * * * * * * * * //

dimensions      [0 1 0 0 0 0 0];

internalField   nonuniform List<vector> 
3969
(
(0 -3.1446082e-20 0)
(0 -1.6837799e-19 0)
(1.2254763 0.0018618508 0.022267704)
(1.1914449 -0.25672791 0.021710004)
(0 1.7224364e-18 0)
(0 1.3870902e-18 0)
(1.190547 -0.26262286 0.021639985)
(1.2245272 -0.0040061416 0.022300949)
(0 7.40522e-20 0)
(0 4.4705721e-19 0)
(0 1.9397627e-19 0)
(-1.1086849e-18 -9.9828703e-20 0)
(0 5.2902415e-19 0)
(0 -3.0410385e-19 0)
(0 -2.9746883e-19 0)
(1.221207 -0.030499494 0.022168725)
(1.216903 -0.062789481 0.022091346)
(1.2126473 -0.0950761 0.022046462)
(1.2084048 -0.12735234 0.022007127)
(1.204178 -0.15964278 0.021966973)
(1.1999676 -0.19197691 0.021903386)
(1.1957253 -0.22436126 0.021812791)
(0.0047634066 0.0096023349 0.010167295)
(0.0078816772 0.016616218 0.012213763)
(0.01367464 0.024216701 0.013344072)
(0.021936728 0.031415353 0.013439146)
(0.031942132 0.038630149 0.013334652)
(0.0442621 0.045225461 0.012844554)
(0.058043814 0.051533663 0.012554996)
(0.073869986 0.057174872 0.011969684)
(0.090998118 0.062356906 0.011662092)
(0.1097337 0.066847816 0.011122745)
(0.12976099 0.070936473 0.010809824)
(0.1509821 0.074286417 0.010427851)
(0.17335641 0.077209259 0.010095909)
(0.19671232 0.07955061 0.0098377968)
(0.221028 0.081366261 0.0095789012)
(0.24607857 0.082708682 0.0093894789)
(0.27193961 0.083607891 0.0092539295)
(0.29839575 0.084051612 0.0091584765)
(0.32547891 0.08410804 0.0091325831)
(0.3530387 0.083784666 0.0091445226)
(0.38108347 0.083118521 0.0092276287)
(0.40951206 0.082152111 0.0093505766)
(0.43832442 0.080898701 0.0095293317)
(0.46745964 0.079413999 0.0097518125)
(0.49690403 0.077667576 0.010015117)
(0.52663197 0.075786879 0.010321744)
(0.55662726 0.073689056 0.010662008)
(0.58688151 0.071440918 0.011030279)
(0.61738831 0.069060718 0.011433314)
(0.64811132 0.066522979 0.011863161)
(0.67906905 0.063877242 0.01232073)
(0.7102309 0.061099213 0.012807223)
(0.74159463 0.058200766 0.013317496)
(0.77314239 0.055195615 0.01384655)
(0.80487136 0.052055082 0.014407062)
(0.83676046 0.048814214 0.014961278)
(0.86879857 0.04545042 0.015548479)
(0.90097347 0.041961203 0.016124215)
(0.93328185 0.038365636 0.016695182)
(0.9656542 0.03465443 0.017293053)
(0.99814246 0.030829209 0.017861969)
(1.0306402 0.026916573 0.018462238)
(1.0632008 0.022883039 0.019046886)
(1.0957211 0.018807187 0.01966184)
(1.1282513 0.01461119 0.0202865)
(1.1606961 0.010417849 0.020939153)
(1.1931113 0.0061296414 0.021608172)
(0.00071055327 -0.0092558013 -0.012230618)
(0.0053997934 -0.015298759 -0.012005927)
(0.010041128 -0.022265923 -0.014479729)
(0.017336201 -0.029143995 -0.013454387)
(0.026932975 -0.036344001 -0.013407664)
(0.037952297 -0.043460114 -0.01238284)
(0.050973489 -0.050315074 -0.011694116)
(0.065345627 -0.057212149 -0.010719313)
(0.081311906 -0.063752805 -0.0098510745)
(0.098701812 -0.070379471 -0.0088939576)
(0.11726371 -0.07658518 -0.0080028412)
(0.13717378 -0.082883187 -0.0070606304)
(0.1580738 -0.088856114 -0.006168235)
(0.18011936 -0.094765769 -0.0052312378)
(0.20305433 -0.10052588 -0.0043326584)
(0.22691424 -0.10611646 -0.0034179333)
(0.25157608 -0.1116193 -0.0025152267)
(0.27693892 -0.11694956 -0.0016260779)
(0.30298051 -0.1221983 -0.00074198501)
(0.32960358 -0.12732525 0.00011354885)
(0.35672233 -0.13236377 0.0009578417)
(0.3843586 -0.13731547 0.0017637543)
(0.41236665 -0.14219923 0.0025585621)
(0.44080479 -0.14704868 0.0033135235)
(0.46954225 -0.15180495 0.0040371969)
(0.49865346 -0.15656591 0.0047590211)
(0.52799929 -0.16124626 0.0054496086)
(0.5576976 -0.1659686 0.0061443735)
(0.58765215 -0.17063842 0.0068134155)
(0.6178594 -0.17530131 0.0075076044)
(0.64833284 -0.17997095 0.008195805)
(0.67903608 -0.18463049 0.008910469)
(0.70997959 -0.18929566 0.009634762)
(0.74113635 -0.19395485 0.010384005)
(0.77250346 -0.19861227 0.011144916)
(0.80406749 -0.2032721 0.011929964)
(0.83581714 -0.20791399 0.01273351)
(0.86771897 -0.21253508 0.013532348)
(0.89978745 -0.21714744 0.014366053)
(0.9319809 -0.22171004 0.015188382)
(0.96428986 -0.22625767 0.01603645)
(0.99668042 -0.23074651 0.016868122)
(1.0291429 -0.2351977 0.01771905)
(1.0616295 -0.23958859 0.018543641)
(1.0941353 -0.24394153 0.019368549)
(1.1266173 -0.2482472 0.020172262)
(1.159073 -0.25250415 0.020948691)
(0 -1.9301935e-20 0)
(0 2.2821492e-19 0)
(0 -2.6933106e-19 0)
(5.4631515e-19 -5.5609688e-20 0)
(0 -4.5745868e-19 0)
(0 -2.1160864e-19 0)
(0 -1.7863201e-19 0)
(0.0039438764 -0.0061537934 0.0094824777)
(0.0063607732 -0.018827039 0.012838934)
(0.010444054 -0.020715817 0.013058807)
(0.018199644 -0.031044137 0.013393321)
(0.027564812 -0.037100374 0.013212931)
(0.038610372 -0.04456114 0.012328474)
(0.05173403 -0.051952973 0.012076983)
(0.06596536 -0.058464388 0.011190647)
(0.082066396 -0.065842276 0.010908399)
(0.099200068 -0.071990645 0.01013205)
(0.11778901 -0.07904168 0.010063849)
(0.13763498 -0.084938529 0.009391519)
(0.15857197 -0.091334279 0.0091107459)
(0.18058944 -0.097412534 0.0087749463)
(0.20350082 -0.10317231 0.0084806751)
(0.22730259 -0.10913325 0.0083197388)
(0.2519201 -0.1145955 0.0081208873)
(0.27721255 -0.12022238 0.008063358)
(0.3031934 -0.12552637 0.0080125019)
(0.32972528 -0.13083489 0.0080537265)
(0.35679564 -0.13596664 0.0081441968)
(0.38432339 -0.14105075 0.0083035214)
(0.41228672 -0.14602368 0.0085061723)
(0.4406217 -0.15093227 0.0087628064)
(0.46933465 -0.15582739 0.0090519484)
(0.49840478 -0.16063741 0.0093453978)
(0.52770117 -0.16550795 0.0097618392)
(0.55734714 -0.17026159 0.010116556)
(0.58725277 -0.17507317 0.010545595)
(0.61743891 -0.17985542 0.010976526)
(0.64786568 -0.18463612 0.011428223)
(0.67853642 -0.18942764 0.01191307)
(0.70943388 -0.19421648 0.01241684)
(0.74054715 -0.19899134 0.012943191)
(0.7718698 -0.20376622 0.013479851)
(0.80339011 -0.20852352 0.014055206)
(0.83509608 -0.21325912 0.014599208)
(0.86696466 -0.21798974 0.015200957)
(0.89899704 -0.22265398 0.015772408)
(0.93117401 -0.22731169 0.016368179)
(0.96346043 -0.23190721 0.016958482)
(0.99584693 -0.2364617 0.017566537)
(1.0282875 -0.24095909 0.01818988)
(1.0607709 -0.24539357 0.018830695)
(1.0932573 -0.24978064 0.019503733)
(1.1257241 -0.25409137 0.020196548)
(1.1581649 -0.258382 0.020916745)
(1.1948127 -0.23025086 0.02171023)
(1.1990285 -0.19786665 0.021776777)
(1.2032577 -0.16556061 0.021873615)
(1.2074518 -0.13323025 0.021978037)
(1.2117133 -0.1009941 0.022082771)
(1.2159541 -0.068660083 0.022176704)
(1.2202624 -0.036373827 0.022250937)
(1.1921759 0.00026056301 0.021481865)
(1.1597461 0.004542504 0.020663512)
(1.1272887 0.0087654459 0.019824457)
(1.0947685 0.012969487 0.018960962)
(1.0622304 0.017097334 0.018089846)
(1.0296863 0.021163864 0.017207226)
(0.99716786 0.025141144 0.016328506)
(0.96469773 0.029027779 0.015454748)
(0.93230365 0.032815704 0.01459238)
(0.90000696 0.036508287 0.01373478)
(0.86781707 0.040096046 0.012905247)
(0.8358265 0.043526007 0.012115196)
(0.8039038 0.046932632 0.011293075)
(0.77220444 0.050179014 0.010529658)
(0.74067493 0.05332648 0.0097709443)
(0.70934507 0.056352088 0.0090444516)
(0.67822069 0.059258223 0.0083336606)
(0.64731346 0.062031152 0.0076382027)
(0.61663179 0.064675154 0.0069544013)
(0.58618675 0.06716328 0.0062790926)
(0.55598305 0.069515537 0.0055911665)
(0.52603415 0.071684916 0.004906131)
(0.49634915 0.073694857 0.0041924414)
(0.46694123 0.075492357 0.0034673374)
(0.43784551 0.07708893 0.0027068759)
(0.40906831 0.078433526 0.0019307847)
(0.38066075 0.079528665 0.0011115898)
(0.35264978 0.080306175 0.00028784588)
(0.32510987 0.080777925 -0.00057692014)
(0.29806145 0.080864834 -0.0014393444)
(0.2716167 0.080578278 -0.0023348767)
(0.2457965 0.079867673 -0.0032259764)
(0.22074843 0.07867852 -0.0041124705)
(0.19652203 0.076957978 -0.0049772113)
(0.17324058 0.074793331 -0.0059092581)
(0.15086064 0.072079068 -0.0067095624)
(0.12972706 0.068846172 -0.0076394657)
(0.10968427 0.064951288 -0.0084009127)
(0.09102176 0.0606478 -0.0093779522)
(0.073877516 0.055491639 -0.010053388)
(0.058267568 0.050221478 -0.010921746)
(0.044140543 0.043879805 -0.011566095)
(0.032169159 0.037584379 -0.012283075)
(0.021814718 0.030415878 -0.012551009)
(0.014021562 0.023588281 -0.012453903)
(0.0079023341 0.015442675 -0.011530995)
(0.0077100387 0.0093292179 -0.00756749)
(0 2.3300735e-19 0)
(0 1.8207219e-19 0)
(0 -9.4349552e-20 0)
(0 -6.1995659e-19 3.1025602e-19)
(0 -5.4432734e-19 0)
(0 -1.1967852e-19 0)
(0 5.7231031e-19 0)
(0 7.9176325e-19 0)
(0 7.5475061e-19 0)
(0 7.1714172e-19 0)
(0 6.1936523e-19 -7.6086416e-20)
(0 1.6731706e-18 0)
(0 7.3349485e-19 0)
(0 -1.3514799e-19 0)
(1.191345 -0.25749542 0.02170038)
(1.1912443 -0.25825192 0.021693903)
(1.1911332 -0.2590025 0.021679863)
(1.1910259 -0.25973505 0.021678231)
(1.1909058 -0.2604694 0.021670541)
(1.1907865 -0.26118064 0.021668843)
(1.1906595 -0.26190348 0.021648362)
(1.2253878 0.0011872257 0.022278515)
(1.2252929 0.00048484093 0.022279107)
(1.2251916 -0.00022142569 0.022279525)
(1.2250859 -0.00094155484 0.022274655)
(1.2249654 -0.0016769051 0.022275413)
(1.2248346 -0.002429644 0.022278582)
(1.2246882 -0.0032010239 0.022298224)
(5.5006748e-05 0.00089440669 0.0090056743)
(0.0018445026 0.00020449143 0.0086944709)
(0.0053924125 0.00045370526 0.010131623)
(0.011510948 0.00065656863 0.010261025)
(0.019391553 0.00098716383 0.010234852)
(0.02977543 0.0018076685 0.010145294)
(0.041636773 0.0025478077 0.0098206857)
(0.055725581 0.0038348445 0.0096645556)
(0.071390567 0.0050944188 0.0092655224)
(0.08888641 0.0067653502 0.0090958814)
(0.10793506 0.0086305447 0.0088129003)
(0.12857312 0.010756972 0.0085484965)
(0.15067271 0.013242648 0.0083795072)
(0.17415364 0.015891801 0.0081749401)
(0.1989139 0.018852709 0.0080608791)
(0.22486345 0.022011273 0.0079715222)
(0.25194288 0.025386265 0.0079224787)
(0.2799541 0.028896974 0.0079367945)
(0.30890408 0.032562868 0.0079829176)
(0.33860836 0.036284151 0.0080868377)
(0.36901549 0.040043016 0.0082436198)
(0.39999141 0.043770005 0.0084423051)
(0.43148582 0.047410907 0.0086934448)
(0.46335586 0.05089224 0.0089854205)
(0.49559593 0.054166119 0.0093238541)
(0.52808068 0.057137462 0.0096703921)
(0.56075427 0.059754099 0.010069989)
(0.59356929 0.061956242 0.01049377)
(0.62645735 0.063643203 0.01093775)
(0.65935801 0.064789596 0.01141243)
(0.69223583 0.065321057 0.011911067)
(0.72503143 0.065176007 0.012432103)
(0.75770733 0.064333124 0.012975206)
(0.79022831 0.062733247 0.013541889)
(0.82256341 0.06036699 0.014118258)
(0.85468166 0.057226395 0.01470972)
(0.88656956 0.053275836 0.015313447)
(0.91821307 0.048568024 0.015905694)
(0.94960232 0.043111992 0.016516767)
(0.98071432 0.0369318 0.017127981)
(1.011586 0.030096218 0.017731225)
(1.0421725 0.022642874 0.018352144)
(1.0725351 0.014658577 0.018965052)
(1.1026286 0.0062098869 0.019603219)
(1.1325371 -0.0026310748 0.02023485)
(1.1622194 -0.011736462 0.020885918)
(1.1917845 -0.021082999 0.021530062)
(-0.0032247395 -0.0036704896 0.0061074532)
(-0.0022967185 -0.0091253067 0.0060022328)
(0.00083800159 -0.012089999 0.0070842021)
(0.0059099719 -0.016120041 0.0070076381)
(0.013321034 -0.019009013 0.0072002893)
(0.022435674 -0.021717295 0.0069518245)
(0.033691859 -0.023818756 0.0070416572)
(0.046926249 -0.025397554 0.0066821814)
(0.061910822 -0.026482048 0.0067829439)
(0.078780219 -0.02684576 0.0065775518)
(0.097428619 -0.02666234 0.0064838693)
(0.11770692 -0.025776391 0.006434988)
(0.13964914 -0.024265124 0.0063849068)
(0.16311736 -0.022161533 0.0063640484)
(0.18805044 -0.019409794 0.0063974097)
(0.21432369 -0.016112338 0.0064042978)
(0.24181079 -0.012273667 0.0064942269)
(0.27044452 -0.0079964249 0.0066094324)
(0.30010626 -0.0033280808 0.0067614789)
(0.33066587 0.0016301892 0.0069729784)
(0.3620093 0.0068016949 0.0072155834)
(0.39402643 0.012101685 0.0074961886)
(0.42656022 0.017406975 0.0078263797)
(0.45957589 0.022657425 0.0081841146)
(0.49291678 0.027681769 0.0085632057)
(0.52649369 0.032440378 0.0090033634)
(0.56024881 0.036767792 0.0094552141)
(0.59408632 0.04057782 0.0099192534)
(0.62791224 0.043792229 0.010428815)
(0.6616884 0.046279328 0.010949007)
(0.69532644 0.047971883 0.011491904)
(0.72876668 0.048791708 0.012061063)
(0.76196369 0.048664955 0.012647941)
(0.79486249 0.047552906 0.013249196)
(0.8274291 0.045412608 0.013865212)
(0.85962256 0.042215273 0.014494799)
(0.89144308 0.03797984 0.015117694)
(0.92284317 0.03270067 0.01575423)
(0.95386084 0.026426541 0.016382703)
(0.98443623 0.01918649 0.017014383)
(1.0146507 0.011067416 0.017638088)
(1.0444347 0.0021253875 0.018275307)
(1.0738997 -0.0075307218 0.018901262)
(1.1029851 -0.017813061 0.019539479)
(1.131823 -0.028604013 0.020176641)
(1.1603589 -0.039769261 0.020817743)
(1.1887412 -0.051232358 0.021468017)
(-0.0044309731 -0.003330454 0.0037601833)
(-0.0026175386 -0.0072106401 0.0034583934)
(0.00065273607 -0.010312137 0.0038547429)
(0.0069202247 -0.013277432 0.0038669681)
(0.01469228 -0.016158791 0.0038617128)
(0.025011436 -0.018472344 0.0039143847)
(0.036933818 -0.020921112 0.0037068575)
(0.050808263 -0.02269429 0.0038886807)
(0.066352543 -0.024372072 0.0038749119)
(0.083761252 -0.025506219 0.0038511598)
(0.10255925 -0.026259981 0.004007842)
(0.1230474 -0.026645546 0.0040729312)
(0.14492684 -0.026519344 0.0041733409)
(0.16820722 -0.026045437 0.0043438276)
(0.19278805 -0.025097097 0.0045301613)
(0.21855511 -0.023810907 0.0047064614)
(0.24545066 -0.022161057 0.0049614316)
(0.27333591 -0.02021973 0.0051848028)
(0.30213767 -0.018024159 0.0055009066)
(0.33169685 -0.015625012 0.0058146716)
(0.36196506 -0.013076484 0.0061775355)
(0.39279004 -0.010465856 0.0065658175)
(0.42417301 -0.0078175206 0.0069786509)
(0.45593319 -0.0052793563 0.007400816)
(0.48803666 -0.002851689 0.0078768325)
(0.52040879 -0.00066106949 0.0083338292)
(0.55300329 0.001232394 0.0088040342)
(0.58570384 0.0027596866 0.0093151179)
(0.61850903 0.0038445549 0.0098231725)
(0.65132794 0.0044073343 0.010353441)
(0.68411924 0.0044127917 0.010911335)
(0.71684423 0.0037810846 0.011483422)
(0.74945464 0.0024783526 0.012078412)
(0.78191692 0.00047621514 0.01268859)
(0.81419607 -0.0022814484 0.013324919)
(0.84627545 -0.0057617934 0.013960141)
(0.8781229 -0.010015232 0.01461711)
(0.9097417 -0.014989533 0.015273654)
(0.94110217 -0.020684159 0.01593573)
(0.97220008 -0.027061453 0.016612206)
(1.0030519 -0.034060242 0.017277183)
(1.0336296 -0.041650519 0.017966)
(1.0639888 -0.049734029 0.018629611)
(1.0940829 -0.058269861 0.019332926)
(1.123999 -0.067150545 0.020001722)
(1.1536866 -0.076307502 0.02070534)
(1.183271 -0.085665878 0.021375914)
(-0.0035349986 0.00051878009 0.00066244821)
(-7.4292703e-05 0.00067772113 -0.00013585929)
(0.0051419465 0.0015562166 0.00012821366)
(0.012931187 0.0018084955 0.00013639985)
(0.023104967 0.0019410534 0.00034072872)
(0.034917655 0.0020897365 0.00031314356)
(0.048666469 0.0015771231 0.00074010542)
(0.063931928 0.00127286 0.00080340586)
(0.080901784 0.00037480239 0.0010651297)
(0.099133361 -0.00048771409 0.0013913573)
(0.11878956 -0.0017880246 0.0016288661)
(0.13968689 -0.0031760156 0.0018585941)
(0.16161982 -0.0047716491 0.0021495096)
(0.18465866 -0.0066815024 0.0024799624)
(0.20854485 -0.008615201 0.0027582035)
(0.23336357 -0.010864735 0.0031273447)
(0.25884347 -0.01317413 0.0034638907)
(0.28505558 -0.015717627 0.0038715341)
(0.31181069 -0.018375438 0.0042863956)
(0.33913335 -0.021170058 0.004707635)
(0.36691586 -0.024106261 0.0051576106)
(0.3951654 -0.027111893 0.0055988328)
(0.42372955 -0.030252641 0.0060639659)
(0.45264535 -0.033467679 0.0065632527)
(0.48187559 -0.036760656 0.0070369265)
(0.51140823 -0.040129956 0.0075300998)
(0.54119421 -0.043559085 0.0080606573)
(0.57124594 -0.047063499 0.0085897233)
(0.60155398 -0.050617925 0.0091246409)
(0.63209136 -0.054240397 0.0096990407)
(0.66287035 -0.057912153 0.010270324)
(0.69386665 -0.061644641 0.010872002)
(0.7250764 -0.065435151 0.01148895)
(0.75648639 -0.069275411 0.012128529)
(0.78809185 -0.073180726 0.012782843)
(0.81986812 -0.077132645 0.013452504)
(0.85182429 -0.081144629 0.014137917)
(0.88391217 -0.085200628 0.014828914)
(0.91614004 -0.089313281 0.015534521)
(0.94847531 -0.093451295 0.016235177)
(0.98093236 -0.097632005 0.01694873)
(1.0134247 -0.10183831 0.017663277)
(1.0459936 -0.10606717 0.018386536)
(1.0785322 -0.11031305 0.019111873)
(1.11111 -0.11457364 0.019833804)
(1.143607 -0.1188323 0.020561475)
(1.1760975 -0.1231049 0.021286265)
(-0.0025173649 0.004155315 -0.002349959)
(0.0032051235 0.0089688338 -0.0031225637)
(0.0097677999 0.012983154 -0.0031347431)
(0.020045872 0.016541364 -0.0031792282)
(0.031749473 0.019378011 -0.0030528267)
(0.045696879 0.021784077 -0.0027027765)
(0.061033646 0.023167259 -0.0024202426)
(0.078086032 0.024195026 -0.0021799778)
(0.096187316 0.024035015 -0.0016643122)
(0.11563111 0.023375645 -0.0013517802)
(0.13598032 0.021670963 -0.00097173269)
(0.15721346 0.019368581 -0.00049739467)
(0.17917816 0.016002104 -7.3237741e-06)
(0.2018148 0.012021702 0.00045657871)
(0.224996 0.0071654704 0.00097235182)
(0.24865631 0.001596978 0.0014932914)
(0.27272525 -0.004629777 0.0020086813)
(0.29713665 -0.011510876 0.0025401481)
(0.32186322 -0.018893857 0.0030678217)
(0.34685941 -0.026793326 0.0036024655)
(0.37212603 -0.035037273 0.0041482723)
(0.39760951 -0.043627955 0.004695389)
(0.4233703 -0.052408233 0.0052570744)
(0.44938326 -0.061338562 0.0057931769)
(0.47572785 -0.070288311 0.0063284602)
(0.50236026 -0.079172916 0.0068826786)
(0.52936836 -0.087928127 0.00742907)
(0.55676408 -0.096444293 0.0079642451)
(0.58458492 -0.10464562 0.0085231837)
(0.61285728 -0.11246323 0.0090828684)
(0.64162516 -0.11982419 0.0096592773)
(0.67090526 -0.1266827 0.010256425)
(0.70072193 -0.13298786 0.010875402)
(0.7310944 -0.13868669 0.011506195)
(0.76202307 -0.14378802 0.012171751)
(0.79352029 -0.14822949 0.01284662)
(0.82556975 -0.1520449 0.013546949)
(0.85816184 -0.1552207 0.014265733)
(0.89127732 -0.15777019 0.014983329)
(0.92490785 -0.1597121 0.015728577)
(0.95893401 -0.16109747 0.01647956)
(0.99335038 -0.16196116 0.017258592)
(1.0280945 -0.1623512 0.018023664)
(1.0630832 -0.16234438 0.018819027)
(1.0982829 -0.16198783 0.019592041)
(1.1335526 -0.16136442 0.020396508)
(1.168921 -0.16056144 0.021177259)
(-0.0012131107 0.0043736085 -0.0058634681)
(0.005725527 0.0093655512 -0.0063996252)
(0.013158745 0.013706829 -0.0070663506)
(0.023993575 0.017251 -0.0069143119)
(0.036548302 0.020224711 -0.0065693236)
(0.050969644 0.022407429 -0.0060958264)
(0.067031887 0.023655432 -0.0056348454)
(0.084403055 0.02419466 -0.0050006624)
(0.10299722 0.023559843 -0.0044368868)
(0.12260896 0.022204492 -0.0038422184)
(0.1430954 0.019618919 -0.0032066486)
(0.16428252 0.016155783 -0.0025682231)
(0.18610446 0.01159331 -0.001981516)
(0.2084225 0.0060894445 -0.0013251335)
(0.23112994 -0.0003898258 -0.0007016485)
(0.25420815 -0.0077782064 -4.3931644e-05)
(0.27752165 -0.016012242 0.00057059227)
(0.30109797 -0.025002063 0.001225344)
(0.32484302 -0.034702667 0.0018533435)
(0.34878281 -0.044965719 0.0024877052)
(0.37288027 -0.055741082 0.0031132504)
(0.39721916 -0.06682593 0.0037269815)
(0.42168968 -0.07819559 0.004331039)
(0.446474 -0.08974642 0.0049231157)
(0.47152313 -0.10121482 0.0055155343)
(0.49690579 -0.1126115 0.0060878071)
(0.52270898 -0.12371591 0.0066555448)
(0.54894011 -0.1344677 0.0072408389)
(0.57567108 -0.14472216 0.0078167136)
(0.60296151 -0.15441865 0.008413564)
(0.63084316 -0.16343478 0.0090159591)
(0.65936446 -0.17170469 0.0096466276)
(0.68856227 -0.17915579 0.010286654)
(0.71845443 -0.18574404 0.010956336)
(0.74906676 -0.19142384 0.011648801)
(0.7803935 -0.19616496 0.012355844)
(0.81245266 -0.19998565 0.013095452)
(0.84519743 -0.20285428 0.013842801)
(0.87864279 -0.20484165 0.014620546)
(0.91270481 -0.20594057 0.015405412)
(0.94736375 -0.20620748 0.016211872)
(0.98254207 -0.20571568 0.01701506)
(1.0181784 -0.20455842 0.01783595)
(1.0541675 -0.20279864 0.018654072)
(1.0904412 -0.20055352 0.019475583)
(1.1268806 -0.19792059 0.020289911)
(1.1634532 -0.19503184 0.021090327)
(-0.00031315954 -0.00097697039 -0.0084063284)
(0.005862697 0.00083346878 -0.0093174419)
(0.012298359 0.00073741619 -0.010396342)
(0.022385944 0.00064347722 -0.010135234)
(0.033640573 -0.0001254863 -0.0097692273)
(0.047312286 -0.0014426989 -0.0091476349)
(0.062196782 -0.0033069449 -0.0084975286)
(0.078727488 -0.0055936566 -0.00775172)
(0.096416782 -0.0086569792 -0.0070474683)
(0.11526977 -0.012019609 -0.0062633658)
(0.13517141 -0.016381379 -0.0054789487)
(0.15581445 -0.020964958 -0.0047905225)
(0.1773566 -0.026508314 -0.0039363778)
(0.19944697 -0.032469271 -0.0031925339)
(0.22220692 -0.039124891 -0.00240137)
(0.24540015 -0.046299737 -0.0016399976)
(0.26907215 -0.054022103 -0.00086666287)
(0.29309962 -0.062226595 -0.0001080825)
(0.3174581 -0.070856635 0.00063793995)
(0.34212788 -0.079849159 0.0013733348)
(0.36707603 -0.089128685 0.0020878899)
(0.39227871 -0.098641838 0.0027968115)
(0.4177937 -0.1082718 0.003477553)
(0.44357963 -0.1179974 0.0041533434)
(0.46966393 -0.12765003 0.0047865359)
(0.49609886 -0.13721897 0.0054246642)
(0.52290164 -0.14657427 0.0060631654)
(0.55010393 -0.15566714 0.0066866811)
(0.57774698 -0.1644018 0.007307707)
(0.60585849 -0.17273947 0.0079466886)
(0.63445965 -0.18057487 0.0085831297)
(0.66359729 -0.18789284 0.0092469696)
(0.69327147 -0.19462069 0.0099204506)
(0.72351383 -0.20073828 0.01062227)
(0.75431974 -0.20620889 0.011339912)
(0.78570152 -0.21100895 0.012075655)
(0.81764613 -0.2151588 0.012843191)
(0.85013904 -0.21862223 0.013617895)
(0.883161 -0.22144523 0.014409971)
(0.91666576 -0.22362403 0.01521905)
(0.95062597 -0.22520537 0.016038575)
(0.98498664 -0.22624232 0.016872387)
(1.0196815 -0.22677233 0.017704123)
(1.0546407 -0.22686766 0.01854727)
(1.0898025 -0.22659062 0.01936985)
(1.1250836 -0.22603068 0.020197555)
(1.1604225 -0.22526476 0.021001087)
(0 -7.0720511e-20 0)
(0 3.954509e-19 0)
(0 3.4202582e-19 0)
(0 3.0183179e-19 -1.0346403e-19)
(0 1.1923952e-19 0)
(0 -4.1878618e-21 0)
(0 5.7963294e-20 0)
(0 2.1758289e-20 0)
(0 -1.4137772e-19 0)
(0 -3.4853853e-19 0)
(0 -4.3299088e-19 -7.1896365e-20)
(0 -7.0984934e-20 0)
(0 8.7440566e-20 0)
(0 1.6889906e-19 0)
(0 1.3562176e-19 0)
(0 2.1362304e-19 0)
(0 3.9015478e-19 0)
(0 3.913846e-19 1.9714126e-19)
(0 3.3710566e-19 0)
(0 3.925229e-19 0)
(0 1.3292092e-19 0)
(-2.2657782e-18 1.0673996e-19 0)
(9.6421745e-19 -2.4146027e-19 0)
(-5.6102218e-20 -9.7069457e-20 0)
(1.7416336e-19 -1.7100027e-19 -1.2976632e-19)
(-3.252962e-19 -2.3872107e-19 0)
(-8.3260298e-19 -3.4124164e-19 0)
(1.272453e-19 -2.817647e-19 0)
(0 2.0868027e-19 0)
(0 7.4616903e-20 0)
(0 -1.4478539e-19 0)
(0 1.4114718e-20 3.6937609e-19)
(0 1.5920708e-19 0)
(0 2.3187765e-19 0)
(0 -6.4423181e-20 0)
(0 -1.678657e-19 0)
(0 -1.3723784e-19 0)
(0 3.2280794e-20 0)
(0 1.6106346e-19 -3.6701001e-20)
(0 1.1916861e-19 0)
(0 -4.3191245e-20 0)
(0 1.115152e-19 0)
(0 2.0680468e-20 0)
(0 -1.2194271e-19 0)
(0 1.7852894e-19 0)
(0 1.1368806e-20 1.3068112e-19)
(0 1.7687377e-19 0)
(0 2.7971548e-19 0)
(0 2.5332761e-19 0)
(0.0043858583 -0.0028998724 -0.0063350712)
(0.0053576067 -0.003771258 -0.0043643207)
(0.0064255935 -0.0039584412 -0.0022753635)
(0.0068532509 -0.0041705476 -0.00058483195)
(0.0066497921 -0.0038715343 0.0011419865)
(0.0063209057 -0.0040728493 0.0029625146)
(0.0052175153 -0.0027152819 0.0050267237)
(0.0088554098 -0.015173318 -0.0099105052)
(0.010864248 -0.016812156 -0.0055831302)
(0.011723646 -0.015748477 -0.0026205592)
(0.011925089 -0.015290857 -0.00014992881)
(0.012037983 -0.016158763 0.0022444346)
(0.010909357 -0.01597413 0.0051711702)
(0.009723039 -0.015908275 0.0089481931)
(0.01301673 -0.020774134 -0.010484824)
(0.015594526 -0.019865778 -0.0074781629)
(0.017190683 -0.020805588 -0.0034194632)
(0.017413396 -0.02078511 -0.00047141008)
(0.017267608 -0.020332446 0.0031046293)
(0.016007752 -0.020491315 0.0057462424)
(0.01426484 -0.02151357 0.010397165)
(0.020948098 -0.0299168 -0.010140003)
(0.022936676 -0.030504264 -0.0071026134)
(0.024231859 -0.030251453 -0.0032766834)
(0.024710096 -0.030216405 -0.00037602925)
(0.024460736 -0.030291128 0.0030300974)
(0.023261349 -0.030892805 0.0066668327)
(0.021126224 -0.030314609 0.0098894928)
(0.029837478 -0.036994545 -0.010166536)
(0.032153621 -0.036953931 -0.0071158707)
(0.033809737 -0.03730298 -0.0035428285)
(0.034152871 -0.037254948 -0.00015191795)
(0.033957689 -0.037504469 0.0032100075)
(0.032763492 -0.037440146 0.0063635779)
(0.030867153 -0.037807922 0.010191361)
(0.040986903 -0.044472889 -0.0092933033)
(0.042892537 -0.044679151 -0.006505109)
(0.044233464 -0.044674129 -0.0030341168)
(0.044662976 -0.04499649 -0.00023624948)
(0.044391959 -0.04487168 0.0032290923)
(0.043235193 -0.045077935 0.0064185653)
(0.041270814 -0.044929821 0.0094647925)
(0.053666948 -0.051295088 -0.0088407639)
(0.055589792 -0.051579634 -0.0059103812)
(0.056945478 -0.052127316 -0.0029003846)
(0.057370487 -0.052202107 -1.2767158e-06)
(0.057175709 -0.052506215 0.0032153663)
(0.056100673 -0.052761552 0.0060048268)
(0.05439813 -0.05270162 0.0092804597)
(0.067886864 -0.058255275 -0.007965494)
(0.069708933 -0.058814508 -0.0055403725)
(0.070931598 -0.058967204 -0.0024508094)
(0.071315851 -0.059212292 0.00020494351)
(0.07102125 -0.059205828 0.0030224901)
(0.070089184 -0.059187147 0.0059609182)
(0.068304992 -0.058991511 0.0086501315)
(0.083775372 -0.064968809 -0.007366512)
(0.085409492 -0.065301411 -0.0047271626)
(0.086541658 -0.065775956 -0.0021177841)
(0.08688183 -0.066067052 0.00035555136)
(0.086721402 -0.066451871 0.0030938493)
(0.085803194 -0.06646135 0.0056501863)
(0.084259727 -0.066583253 0.0084341726)
(0.10082514 -0.071343674 -0.0065194885)
(0.10241179 -0.072013293 -0.0043141126)
(0.10346004 -0.07233232 -0.0018402016)
(0.10390866 -0.072778141 0.00072031368)
(0.10359829 -0.072734827 0.0031206529)
(0.10277676 -0.072765847 0.0055756101)
(0.10129155 -0.072599489 0.0079896393)
(0.11940068 -0.077826349 -0.0057713837)
(0.12078551 -0.078311606 -0.0036485375)
(0.12182421 -0.078792047 -0.0011764632)
(0.12206123 -0.078924806 0.00083372651)
(0.12191848 -0.079303423 0.0032264779)
(0.12111255 -0.079377241 0.0053740353)
(0.11970374 -0.079482641 0.0078567397)
(0.13901458 -0.083856788 -0.0050812948)
(0.14042167 -0.084493634 -0.0029606892)
(0.14124063 -0.084956 -0.0010212042)
(0.14161446 -0.085469647 0.0011361868)
(0.14141165 -0.085640383 0.0032894516)
(0.14059411 -0.085601577 0.0052845406)
(0.13947249 -0.0856959 0.0075093449)
(0.15992026 -0.090057756 -0.00425887)
(0.1610512 -0.090548545 -0.0023844331)
(0.16190911 -0.091096776 -0.00045485335)
(0.16220762 -0.091274642 0.0014556126)
(0.16202388 -0.091538832 0.0034125754)
(0.16128997 -0.091760381 0.0052647159)
(0.16018441 -0.091713842 0.0072529341)
(0.18173131 -0.095808965 -0.0035414503)
(0.18281513 -0.096410434 -0.0017634037)
(0.18367716 -0.096951455 -7.5921559e-05)
(0.18385759 -0.097340786 0.0017008376)
(0.18374175 -0.097747606 0.0035419079)
(0.1830559 -0.097795423 0.0051697546)
(0.18210731 -0.097890378 0.0071078673)
(0.20454322 -0.10164401 -0.002772837)
(0.20559092 -0.10220189 -0.0011083511)
(0.20627865 -0.10269652 0.00039308616)
(0.20650591 -0.10304785 0.0021203773)
(0.20640181 -0.10330122 0.0036635002)
(0.20577449 -0.10345156 0.0052795056)
(0.20487798 -0.10354499 0.0069551091)
(0.22829376 -0.10719214 -0.0019946956)
(0.22919817 -0.1077445 -0.00050247735)
(0.22986335 -0.10831292 0.00089490733)
(0.23008284 -0.10871199 0.0023756463)
(0.22994869 -0.1090919 0.003898713)
(0.22938605 -0.10929694 0.0052905332)
(0.22857435 -0.10940434 0.0068869866)
(0.25277425 -0.11265802 -0.0012400166)
(0.25363972 -0.11323509 0.00016856486)
(0.25423665 -0.11378884 0.0013674593)
(0.2544078 -0.11413482 0.0028194801)
(0.25432374 -0.11451844 0.0041233334)
(0.25380401 -0.1146699 0.0054291711)
(0.25305849 -0.11486555 0.0068612797)
(0.27805557 -0.11798597 -0.00044175185)
(0.27882935 -0.11857464 0.00077045674)
(0.27935937 -0.11911545 0.0019281858)
(0.27953606 -0.11955052 0.0031848912)
(0.27942786 -0.11993297 0.0043834059)
(0.27895089 -0.12019069 0.0055837835)
(0.27826723 -0.12036012 0.0068823862)
(0.30396679 -0.12320956 0.00030038616)
(0.30465026 -0.12375619 0.0014411273)
(0.30516215 -0.12434334 0.0024633452)
(0.30527351 -0.12472365 0.0036144342)
(0.3052059 -0.12515102 0.0047116807)
(0.30476103 -0.12537242 0.0057925712)
(0.30413901 -0.12564647 0.0069554224)
(0.3304734 -0.1282992 0.0010808386)
(0.33111657 -0.12888584 0.0020907513)
(0.33154288 -0.12944448 0.0030098704)
(0.33166264 -0.12990341 0.0040681977)
(0.3315868 -0.13030475 0.0050388902)
(0.33116608 -0.13062575 0.0060341936)
(0.33060316 -0.13085679 0.0070865478)
(0.3575331 -0.13332178 0.0018198407)
(0.35807904 -0.13387015 0.0027306371)
(0.35848535 -0.13447152 0.0035836694)
(0.35857388 -0.13488232 0.0045279086)
(0.35850157 -0.13533902 0.0054193256)
(0.35811886 -0.13562824 0.0063215623)
(0.35759531 -0.13593612 0.0072679668)
(0.38505363 -0.13823541 0.0025547101)
(0.38555875 -0.13881489 0.0033893595)
(0.38591198 -0.13938508 0.0041481723)
(0.38598272 -0.13986132 0.0050110783)
(0.38591532 -0.14028972 0.0058208937)
(0.38554284 -0.14065208 0.0066405296)
(0.38506799 -0.14095129 0.0075045606)
(0.41301583 -0.14310441 0.0032748266)
(0.4134575 -0.14365086 0.004025883)
(0.41377539 -0.14425823 0.0047166804)
(0.41383749 -0.14470577 0.0055045387)
(0.41376063 -0.14518946 0.0062448891)
(0.41342264 -0.14554935 0.0069882626)
(0.41298042 -0.14588035 0.0077798556)
(0.44137034 -0.1478834 0.0039821133)
(0.44176805 -0.14847459 0.0046585203)
(0.44205073 -0.14904791 0.0052812258)
(0.44209111 -0.14955499 0.0060109299)
(0.44202073 -0.15000828 0.0066800482)
(0.44169594 -0.15039114 0.007368142)
(0.44127333 -0.15073748 0.0080987165)