/*--------------------------------*- C++ -*----------------------------------*\
  =========                 |
  \\      /  F ield         | OpenFOAM: The Open Source CFD Toolbox
   \\    /   O peration     | Website:  https://openfoam.org
    \\  /    A nd           | Version:  6
     \\/     M anipulation  |
\*---------------------------------------------------------------------------*/
FoamFile
{
    version     2.0;
    format      ascii;
    class       pointVectorField;
    location    "1.2";
    object      u;
}
// * * * * * * * * * * * * * * * * * * * * * * * * * * * * * * * * * * * * * //

dimensions      [0 1 0 0 0 0 0];

internalField   nonuniform List<vector> 
28033
(
(0 5.3075517e-19 0)
(0 3.6344529e-18 0)
(-1.5651336 -0.40157048 0.0014380274)
(-1.6229609 -0.066316591 0.0019125074)
(0 3.2823508e-18 0)
(0 5.3459814e-18 0)
(-1.6237388 -0.066049852 0.002056696)
(-1.5658454 -0.40124965 0.0012845438)
(0 1.1492401e-18 0)
(0 3.3186511e-19 0)
(0 2.6509965e-18 0)
(0 -1.2585741e-18 0)
(0 1.6953817e-18 0)
(0 -1.0047318e-18 0)
(0 -2.4277972e-20 0)
(-8.0982186e-19 -2.6417761e-19 0)
(0 4.9686912e-19 0)
(0 2.4726469e-19 0)
(0 -9.5159312e-19 0)
(0 9.2133546e-19 0)
(0 1.1017565e-18 0)
(0 -8.8367459e-19 0)
(0 1.1234958e-18 0)
(-1.5687522 -0.38061189 0.0014627937)
(-1.5723675 -0.35965222 0.0014885427)
(-1.5759825 -0.33869021 0.0015184756)
(-1.5795938 -0.31772882 0.0015501688)
(-1.5832062 -0.29676901 0.0015828241)
(-1.5868168 -0.27581031 0.0016185722)
(-1.5904287 -0.25485553 0.0016512062)
(-1.5940411 -0.23390145 0.0016868893)
(-1.5976544 -0.2129497 0.0017199335)
(-1.6012693 -0.19200031 0.0017537605)
(-1.6048841 -0.17105071 0.001785079)
(-1.6085007 -0.15010274 0.0018146121)
(-1.6121167 -0.12915421 0.0018433478)
(-1.6157326 -0.10820722 0.0018695689)
(-1.6193474 -0.087260915 0.0018923437)
(-0.0039651078 -0.0080483272 -0.0081979476)
(-0.0041991913 -0.011791531 -0.011864079)
(-0.005348283 -0.015698507 -0.014120949)
(-0.0073301761 -0.019995042 -0.015672712)
(-0.0098572769 -0.024112991 -0.016527727)
(-0.013173159 -0.028597066 -0.017065041)
(-0.017164467 -0.03302798 -0.017287242)
(-0.021803964 -0.037551637 -0.017325133)
(-0.027066393 -0.042122969 -0.017240547)
(-0.032937173 -0.046719293 -0.017069441)
(-0.039368867 -0.05130871 -0.016811019)
(-0.046345108 -0.05595371 -0.016520123)
(-0.053858489 -0.060568378 -0.016234098)
(-0.061904923 -0.065230009 -0.015890553)
(-0.070445991 -0.069857916 -0.015562098)
(-0.079490764 -0.074516131 -0.01520059)
(-0.089025732 -0.079175441 -0.014870407)
(-0.099059722 -0.083827244 -0.014515061)
(-0.10956681 -0.088499826 -0.014140504)
(-0.12054275 -0.093159442 -0.013772346)
(-0.13198704 -0.097840275 -0.013406615)
(-0.14388858 -0.10249837 -0.012999795)
(-0.15623764 -0.10717149 -0.012622594)
(-0.16902765 -0.11184841 -0.012205138)
(-0.1822436 -0.1164971 -0.011783191)
(-0.19586937 -0.12116881 -0.01135505)
(-0.20990223 -0.12579868 -0.01092711)
(-0.22431886 -0.13045817 -0.010470217)
(-0.23911615 -0.13506186 -0.010017359)
(-0.25426457 -0.13968093 -0.0095629372)
(-0.2697569 -0.14427609 -0.0090976676)
(-0.28557137 -0.14884099 -0.0086322677)
(-0.3016932 -0.15340695 -0.0081777084)
(-0.31812813 -0.15792988 -0.0077204889)
(-0.33483068 -0.16246012 -0.0072579896)
(-0.35181138 -0.16694828 -0.0068171806)
(-0.36903237 -0.17142594 -0.0063874501)
(-0.38650936 -0.1758823 -0.0059643975)
(-0.4042059 -0.18031059 -0.0055460758)
(-0.4221216 -0.1847299 -0.0051534062)
(-0.44024796 -0.18911406 -0.004766767)
(-0.45856692 -0.19349127 -0.0044003541)
(-0.47708123 -0.19783797 -0.0040428148)
(-0.49577479 -0.20216829 -0.0037046301)
(-0.51464098 -0.20646981 -0.0033776478)
(-0.53367224 -0.21075254 -0.0030655964)
(-0.55285825 -0.21500485 -0.0027663893)
(-0.5721955 -0.21923546 -0.0024791722)
(-0.59167024 -0.22343369 -0.0022040347)
(-0.61128005 -0.22760669 -0.0019397322)
(-0.63101084 -0.23174638 -0.0016862721)
(-0.65085851 -0.23585747 -0.0014430573)
(-0.6708104 -0.23993514 -0.0012102171)
(-0.69085994 -0.24398242 -0.00098775167)
(-0.71099654 -0.2479972 -0.00077581019)
(-0.731212 -0.25198192 -0.00057510976)
(-0.7514974 -0.25593632 -0.00038595019)
(-0.77184452 -0.25986349 -0.00020899032)
(-0.79224594 -0.26376386 -4.5051512e-05)
(-0.81269484 -0.2676416 0.0001055472)
(-0.83318526 -0.27149736 0.00024199486)
(-0.85371257 -0.27533686 0.00036484948)
(-0.87427189 -0.27915941 0.00047221498)
(-0.89486429 -0.28297144 0.00056817253)
(-0.91548031 -0.28677379 0.00064680385)
(-0.93612877 -0.29056986 0.00071832859)
(-0.95680405 -0.29435881 0.00077410795)
(-0.97750668 -0.29814856 0.00082291055)
(-0.99824132 -0.30193233 0.00086528712)
(-1.0190064 -0.30572122 0.0009003418)
(-1.0398063 -0.30950441 0.00093253021)
(-1.0606402 -0.31328914 0.00096337017)
(-1.0815094 -0.31707225 0.00099461898)
(-1.1024158 -0.32085087 0.0010276279)
(-1.1233563 -0.32462811 0.0010652315)
(-1.1443327 -0.3283952 0.0011055362)
(-1.1653385 -0.33215885 0.0011519839)
(-1.1863758 -0.33590796 0.0012014105)
(-1.2074336 -0.33965088 0.001256601)
(-1.2285154 -0.34337487 0.0013116183)
(-1.2496086 -0.34709102 0.0013723301)
(-1.2707112 -0.35078758 0.0014276961)
(-1.2918196 -0.3544724 0.0014853731)
(-1.3129217 -0.35814026 0.0015345866)
(-1.3340225 -0.36179558 0.0015808276)
(-1.3551064 -0.36543955 0.0016167062)
(-1.3761836 -0.36906733 0.0016438373)
(-1.3972343 -0.37269332 0.0016599188)
(-1.4182774 -0.3763022 0.0016640212)
(-1.4392904 -0.3799167 0.0016569473)
(-1.4602977 -0.38351722 0.0016380251)
(-1.4812774 -0.38712684 0.0016095998)
(-1.502255 -0.39072992 0.0015723034)
(-1.5232164 -0.39434005 0.0015306618)
(-1.5441751 -0.39795244 0.0014820322)
(-0.0030652406 0.0075521145 0.010124322)
(-0.0062953625 0.011478868 0.010550829)
(-0.0082216919 0.016236582 0.01371228)
(-0.01055297 0.020284184 0.014575371)
(-0.014086671 0.02496097 0.015519086)
(-0.017957967 0.029626607 0.015978807)
(-0.02262356 0.034082907 0.016226635)
(-0.027918217 0.038690653 0.016295806)
(-0.033961839 0.043151196 0.016247115)
(-0.040528617 0.047507754 0.016140822)
(-0.047823461 0.051804995 0.015958936)
(-0.0556343 0.055923459 0.015773286)
(-0.064106688 0.059955868 0.01552801)
(-0.073109428 0.063821534 0.015319313)
(-0.082697583 0.067535878 0.015054238)
(-0.09283138 0.071104829 0.014824569)
(-0.10349547 0.07448492 0.014559129)
(-0.11470583 0.077711794 0.01429687)
(-0.1264253 0.080762735 0.014036048)
(-0.13863652 0.083606195 0.01376332)
(-0.15136257 0.086290906 0.013469616)
(-0.16455455 0.088772115 0.013196057)
(-0.17819937 0.091048606 0.012887518)
(-0.19232006 0.093148752 0.012582864)
(-0.20684296 0.095032602 0.012279706)
(-0.22179591 0.096712752 0.011949953)
(-0.23714062 0.098204647 0.011649263)
(-0.25285828 0.099471203 0.01131336)
(-0.26894123 0.10055906 0.011010662)
(-0.28535238 0.10142214 0.010682317)
(-0.30209714 0.1021135 0.010380722)
(-0.31913327 0.1025908 0.010077271)
(-0.33645919 0.10288641 0.0097885566)
(-0.35405374 0.10299218 0.0095072341)
(-0.37189637 0.10291697 0.0092385577)
(-0.38997746 0.10266093 0.0089870126)
(-0.40827095 0.10223034 0.0087334061)
(-0.42678902 0.101646 0.0085014656)
(-0.44548888 0.10088767 0.0082741975)
(-0.46438957 0.099981524 0.0080555927)
(-0.48345621 0.098921523 0.0078429374)
(-0.50269778 0.09771749 0.0076338081)
(-0.52209162 0.096373227 0.0074269555)
(-0.54164048 0.094894149 0.0072201906)
(-0.56132588 0.093285123 0.0070129613)
(-0.58114822 0.091550613 0.0068028451)
(-0.60109138 0.089696556 0.0065911721)
(-0.62115267 0.0877263 0.0063759305)
(-0.64131833 0.085646535 0.0061594573)
(-0.66158263 0.083460902 0.005941314)
(-0.68193352 0.081175751 0.0057240651)
(-0.70236341 0.078795725 0.0055088888)
(-0.7228613 0.076326913 0.0052984158)
(-0.74341914 0.073774587 0.0050946916)
(-0.76402701 0.071144827 0.0049001841)
(-0.78467751 0.068443121 0.0047170992)
(-0.80536233 0.065675558 0.0045472864)
(-0.82607552 0.062847343 0.0043923389)
(-0.8468111 0.059964416 0.0042532771)
(-0.86756514 0.057031296 0.0041304302)
(-0.88833424 0.054053366 0.0040236333)
(-0.90911687 0.051034273 0.0039321126)
(-0.92991216 0.047978435 0.0038541864)
(-0.95072064 0.044888305 0.0037880665)
(-0.97154353 0.041767403 0.003731282)
(-0.99238299 0.038616615 0.0036809134)
(-1.0132409 0.035438648 0.0036347946)
(-1.0341212 0.032233338 0.0035887596)
(-1.0550247 0.029001262 0.003541856)
(-1.0759534 0.025742164 0.0034897821)
(-1.0969111 0.022457839 0.0034325464)
(-1.1178964 0.019144218 0.0033671902)
(-1.1389113 0.015804738 0.0032941739)
(-1.1599517 0.012435106 0.0032130293)
(-1.1810191 0.0090381375 0.0031234354)
(-1.2021078 0.0056118586 0.0030280973)
(-1.2232154 0.0021572916 0.0029267969)
(-1.244337 -0.0013252466 0.0028228902)
(-1.2654675 -0.0048341397 0.0027175323)
(-1.2866013 -0.0083688973 0.0026143597)
(-1.3077345 -0.011925861 0.0025137439)
(-1.3288592 -0.015504952 0.0024206326)
(-1.3499748 -0.019100907 0.002333245)
(-1.371073 -0.022713611 0.0022571727)
(-1.3921552 -0.026337217 0.0021889061)
(-1.4132152 -0.029971651 0.0021332129)
(-1.4342563 -0.03361085 0.0020856546)
(-1.4552746 -0.037255263 0.0020493965)
(-1.4762749 -0.040899218 0.0020198585)
(-1.4972565 -0.044543515 0.0019983057)
(-1.5182244 -0.04818362 0.0019806387)
(-1.5391804 -0.051820714 0.0019669426)
(-1.5601291 -0.055452043 0.0019541514)
(-1.5810741 -0.05907741 0.0019411569)
(-1.6020183 -0.062699764 0.0019279776)
(0 -1.4441511e-18 0)
(0 -1.0545159e-18 0)
(0 9.8774587e-19 0)
(0 -6.2414926e-19 0)
(0 -5.3745224e-19 0)
(0 3.0034292e-18 0)
(0 -8.9167505e-19 0)
(-2.0760996e-18 5.803224e-19 0)
(0 -5.3039301e-19 0)
(0 1.2921467e-18 0)
(0 1.5443121e-18 0)
(0 5.4015606e-19 0)
(0 2.8591102e-19 0)
(0 -5.8234636e-19 0)
(0 3.9584793e-19 0)
(-0.005252412 0.0034290271 -0.0074522713)
(-0.0069358544 0.013247537 -0.011138217)
(-0.0079060255 0.014584153 -0.012649258)
(-0.011207099 0.02124578 -0.01474994)
(-0.013912964 0.024668333 -0.015404027)
(-0.018203773 0.029811891 -0.015916621)
(-0.022590468 0.034029512 -0.016129206)
(-0.028137137 0.038841628 -0.016262103)
(-0.03396026 0.043057888 -0.016148474)
(-0.040716758 0.047632205 -0.016062161)
(-0.047938575 0.051780565 -0.015873298)
(-0.055741251 0.055905554 -0.015655062)
(-0.064273312 0.059979795 -0.015396588)
(-0.07320206 0.063741736 -0.015134358)
(-0.082898503 0.067564593 -0.014835394)
(-0.0929619 0.071005573 -0.014544965)
(-0.10366619 0.074450305 -0.014256992)
(-0.11487922 0.077628223 -0.013910593)
(-0.12658846 0.080660316 -0.013606919)
(-0.13885649 0.083525115 -0.013253533)
(-0.15153979 0.08616229 -0.012932041)
(-0.16474095 0.088625232 -0.012575246)
(-0.17840192 0.090911544 -0.012211529)
(-0.19251304 0.092971566 -0.011838727)
(-0.20704372 0.094833549 -0.011454321)
(-0.22199918 0.09650401 -0.011065128)
(-0.23732258 0.097927752 -0.010659327)
(-0.25306264 0.099219441 -0.010251142)
(-0.26912454 0.10022613 -0.0098301702)
(-0.28555014 0.10110319 -0.0094043698)
(-0.30230776 0.10174455 -0.0089746235)
(-0.31934463 0.10219211 -0.0085426548)
(-0.33669304 0.10246465 -0.0081076241)
(-0.35429567 0.10253392 -0.007672645)
(-0.37217661 0.10245821 -0.0072446378)
(-0.39026242 0.10215095 -0.0068184094)
(-0.4086056 0.10174741 -0.0063976956)
(-0.42715029 0.10113458 -0.0059845677)
(-0.44589485 0.10038922 -0.0055860182)
(-0.46482718 0.099482568 -0.0051908152)
(-0.48394018 0.09844086 -0.0048127677)
(-0.50321577 0.097253686 -0.0044431055)
(-0.52265162 0.095937077 -0.0040888972)
(-0.5422317 0.094485915 -0.0037445172)
(-0.5619518 0.092912709 -0.0034162003)
(-0.58179824 0.0912136 -0.0030974431)
(-0.60176583 0.089399091 -0.0027937096)
(-0.62184237 0.08746734 -0.002499818)
(-0.6420207 0.085426866 -0.0022198377)
(-0.66229067 0.083278168 -0.0019495571)
(-0.68264384 0.081028501 -0.0016923661)
(-0.7030709 0.078680246 -0.0014448907)
(-0.72356365 0.07624029 -0.0012096974)
(-0.74411344 0.0737127 -0.00098494793)
(-0.76471245 0.071104134 -0.00077220136)
(-0.78535365 0.068419995 -0.0005707626)
(-0.80602999 0.065666665 -0.00038163468)
(-0.82673631 0.062850386 -0.00020483927)
(-0.84746715 0.059976817 -4.0515749e-05)
(-0.86821942 0.057052476 0.00011064832)
(-0.88898944 0.054082034 0.000249367)
(-0.90977634 0.051071125 0.0003752569)
(-0.93057856 0.048023752 0.00048910158)
(-0.95139642 0.044943465 0.00059158603)
(-0.97223073 0.041833539 0.00068360514)
(-0.99308273 0.038695869 0.00076648211)
(-1.0139541 0.035531077 0.00084176455)
(-1.034846 0.032342812 0.00090987574)
(-1.0557627 0.029123267 0.00097587421)
(-1.0767017 0.025884617 0.0010374793)
(-1.0976682 0.022614375 0.0010985396)
(-1.1186592 0.019317105 0.0011596328)
(-1.1396774 0.015990236 0.0012233767)
(-1.1607199 0.012632875 0.0012896002)
(-1.1817861 0.009244727 0.0013595506)
(-1.2028727 0.0058246731 0.0014333565)
(-1.2239768 0.0023737438 0.0015109681)
(-1.2450943 -0.0011080591 0.0015915041)
(-1.2662205 -0.0046186168 0.0016741056)
(-1.2873512 -0.0081567564 0.0017573249)
(-1.3084808 -0.011718849 0.0018394292)
(-1.3296055 -0.015303048 0.0019184702)
(-1.35072 -0.018904715 0.0019926626)
(-1.3718217 -0.022521491 0.0020595778)
(-1.392906 -0.026148295 0.0021179142)
(-1.4139721 -0.029783123 0.0021655777)
(-1.4350174 -0.033420749 0.0022017491)
(-1.4560428 -0.037060433 0.0022253687)
(-1.4770477 -0.04069715 0.0022363989)
(-1.4980347 -0.044332027 0.0022350713)
(-1.5190057 -0.047960618 0.0022222428)
(-1.5399637 -0.05158611 0.0021996352)
(-1.5609132 -0.055204647 0.0021688291)
(-1.5818564 -0.058822221 0.0021329311)
(-1.6027989 -0.062436241 0.0020958167)
(-1.6201285 -0.086991104 0.0019991601)
(-1.6165086 -0.1079393 0.0019432953)
(-1.6128926 -0.12888465 0.0018903094)
(-1.6092674 -0.14983593 0.0018397047)
(-1.6056502 -0.17078103 0.0017911355)
(-1.6020226 -0.19173303 0.0017438678)
(-1.5984069 -0.21267773 0.0016986013)
(-1.5947825 -0.23362909 0.0016535874)
(-1.5911695 -0.25457621 0.0016082082)
(-1.5875449 -0.27552989 0.001565168)
(-1.5839317 -0.2964782 0.0015204914)
(-1.5803143 -0.31743494 0.0014782491)
(-1.5766968 -0.33838654 0.0014309574)
(-1.57308 -0.35934311 0.0013863615)
(-1.569463 -0.38029543 0.0013359472)
(-1.5448903 -0.39763249 0.0012904928)
(-1.5239281 -0.3940289 0.0012947019)
(-1.5029664 -0.39043165 0.0012965769)
(-1.4819927 -0.38684044 0.0012976077)
(-1.4610144 -0.38325207 0.0012968608)
(-1.4400203 -0.37966451 0.0012975007)
(-1.4190145 -0.37607252 0.0013012521)
(-1.3979914 -0.372475 0.001310296)
(-1.3769525 -0.36886695 0.0013261065)
(-1.3558975 -0.36524749 0.0013508663)
(-1.3348269 -0.36161313 0.0013849563)
(-1.313744 -0.35796288 0.00142929)
(-1.2926508 -0.35429578 0.001483877)
(-1.2715504 -0.35061104 0.0015489161)
(-1.2504498 -0.34690902 0.0016217008)
(-1.2293522 -0.34319122 0.0017018718)
(-1.208264 -0.33945875 0.0017862864)
(-1.1871902 -0.33571344 0.0018732845)
(-1.1661363 -0.33195824 0.001960305)
(-1.1451074 -0.32819455 0.0020446115)
(-1.1241076 -0.32442573 0.0021242097)
(-1.1031408 -0.3206534 0.0021974075)
(-1.0822097 -0.31687982 0.0022623937)
(-1.0613153 -0.31310643 0.0023199463)
(-1.0404609 -0.30933434 0.0023669015)
(-1.0196422 -0.30556434 0.0024083337)
(-0.99886307 -0.30179329 0.0024417504)
(-0.97812681 -0.29802407 0.0024694766)
(-0.95741658 -0.29425526 0.002496475)
(-0.93674234 -0.29048268 0.0025257002)
(-0.91610169 -0.28670365 0.0025570356)
(-0.89549094 -0.28291789 0.0025960285)
(-0.87491059 -0.27912014 0.0026445715)
(-0.85436068 -0.27530861 0.0027063893)
(-0.83384283 -0.27147971 0.0027830847)
(-0.8133588 -0.26763143 0.0028768769)
(-0.79291298 -0.26376027 0.0029888247)
(-0.77250923 -0.25986536 0.0031196213)
(-0.75215463 -0.25594369 0.0032687306)
(-0.73185504 -0.25199549 0.0034359853)
(-0.71161985 -0.24801839 0.0036192206)
(-0.69145665 -0.24401387 0.0038173426)
(-0.67137637 -0.23998005 0.0040272561)
(-0.65138773 -0.23591933 0.0042473491)
(-0.63150246 -0.23183019 0.0044739731)
(-0.6117296 -0.22771561 0.0047059124)
(-0.59208106 -0.22357391 0.0049393601)
(-0.57256534 -0.21940847 0.0051741176)
(-0.55319424 -0.21521704 0.0054070737)
(-0.53397509 -0.21100301 0.0056388678)
(-0.51491954 -0.20676348 0.0058681753)
(-0.49603317 -0.20250168 0.0060960269)
(-0.47732906 -0.19821305 0.0063227574)
(-0.45880979 -0.19390347 0.0065520001)
(-0.44049103 -0.18956388 0.006778903)
(-0.42237168 -0.18520289 0.0070186672)
(-0.40446148 -0.18081774 0.0072597846)
(-0.38677665 -0.17638848 0.0075123691)
(-0.36935936 -0.17194727 0.0077678969)
(-0.35211566 -0.1674832 0.0080554587)
(-0.33516106 -0.16296747 0.0083469835)
(-0.31851154 -0.15844502 0.0086446548)
(-0.30207102 -0.15389345 0.0089708172)
(-0.28595174 -0.14931757 0.0093074171)
(-0.27012781 -0.14470018 0.0096615871)
(-0.25467481 -0.14008428 0.010028123)
(-0.23947204 -0.13543696 0.010391433)
(-0.22473438 -0.13077029 0.010767285)
(-0.21025413 -0.12611334 0.011166692)
(-0.19621677 -0.1214306 0.011544552)
(-0.18255864 -0.1167518 0.01193117)
(-0.16929867 -0.11204791 0.012311658)
(-0.15655761 -0.10733587 0.012672407)
(-0.14411782 -0.10267764 0.013055506)
(-0.13219228 -0.097971684 0.013403256)
(-0.12078197 -0.093263292 0.013741569)
(-0.10971028 -0.088610429 0.014099635)
(-0.099272698 -0.083893487 0.014400027)
(-0.089155804 -0.079265382 0.014743886)
(-0.079671261 -0.074546074 0.015045543)
(-0.070638495 -0.06988513 0.015355998)
(-0.062043811 -0.065250565 0.015657847)
(-0.0539854 -0.060599018 0.01596841)
(-0.046550016 -0.055883426 0.016223554)
(-0.039504456 -0.051325632 0.016514151)
(-0.033059462 -0.046669262 0.016732428)
(-0.027249638 -0.04200437 0.016906511)
(-0.021954076 -0.037502596 0.016992531)
(-0.017276887 -0.032928651 0.016955469)
(-0.013264815 -0.028492797 0.01675352)
(-0.010001704 -0.023906438 0.016162708)
(-0.0076329103 -0.019573749 0.015219581)
(-0.005693622 -0.015775027 0.013932638)
(-0.0049260195 -0.011230444 0.010640751)
(-0.006412702 -0.0077071732 0.0059019718)
(0 1.6453444e-18 0)
(0 6.2586365e-19 0)
(0 1.6244379e-18 0)
(0 1.6352628e-18 0)
(0 1.7043397e-18 0)
(0 1.0249614e-18 0)
(0 4.0859386e-20 0)
(0 -9.287408e-19 -1.0190376e-18)
(0 1.0997517e-19 0)
(0 9.8871443e-19 0)
(0 2.3841091e-18 0)
(0 2.0889769e-18 0)
(0 1.4953235e-18 0)
(0 1.4451138e-18 0)
(0 1.6502009e-18 0)
(0 6.8637928e-18 0)
(0 2.9225117e-18 0)
(0 1.0724787e-18 0)
(0 1.9357696e-18 0)
(0 -1.68534e-19 0)
(0 4.5120014e-19 0)
(0 5.141401e-18 0)
(0 -2.0922306e-18 -9.0725636e-19)
(0 3.0581569e-18 0)
(0 3.8230181e-18 0)
(0 1.2633786e-18 0)
(0 5.1712674e-19 0)
(0 1.2002959e-18 0)
(0 2.1640526e-18 0)
(0 2.7835487e-19 0)
(-1.622986 -0.066307308 0.0019130913)
(-1.6230109 -0.066297265 0.0019139328)
(-1.6230371 -0.066284599 0.0019173418)
(-1.6230671 -0.066269596 0.0019215757)
(-1.6231008 -0.066251524 0.0019302479)
(-1.6231397 -0.06623259 0.0019403754)
(-1.6231841 -0.066211272 0.0019538357)
(-1.6232339 -0.066190145 0.0019686491)
(-1.6232888 -0.066168608 0.0019853303)
(-1.6233477 -0.066148168 0.0020017701)
(-1.6234093 -0.06612908 0.0020179953)
(-1.6234737 -0.066111945 0.0020325367)
(-1.6235382 -0.066096286 0.0020441557)
(-1.6236035 -0.066082622 0.0020517489)
(-1.6236705 -0.066066803 0.0020569281)
(-1.565172 -0.40153784 0.0014367918)
(-1.5652097 -0.40150831 0.0014321585)
(-1.5652465 -0.40148011 0.0014231629)
(-1.5652832 -0.40145014 0.0014097944)
(-1.5653202 -0.40141885 0.0013933764)
(-1.5653585 -0.40138593 0.0013757371)
(-1.5653984 -0.40135335 0.0013570771)
(-1.5654408 -0.40132167 0.0013395676)
(-1.5654858 -0.40129328 0.0013231841)
(-1.5655334 -0.40126884 0.0013094136)
(-1.5655838 -0.40125006 0.0012984151)
(-1.5656356 -0.40123749 0.0012907223)
(-1.5656891 -0.40123105 0.0012859408)
(-1.5657424 -0.40123276 0.0012848168)
(-1.5657953 -0.4012385 0.0012846317)
(-0.0018085175 -0.0069301889 -0.0083063146)
(-0.0026071531 -0.0098492484 -0.010052415)
(-0.0036149176 -0.013800408 -0.012354278)
(-0.0057100314 -0.017323475 -0.013348568)
(-0.0080677508 -0.02088745 -0.014326853)
(-0.011500139 -0.024597921 -0.014707201)
(-0.015434785 -0.028309645 -0.014980931)
(-0.020204278 -0.032203088 -0.0150119)
(-0.025474543 -0.036069993 -0.014975049)
(-0.031423036 -0.040052036 -0.014830716)
(-0.037940285 -0.044025926 -0.014612262)
(-0.045011476 -0.048098724 -0.014396567)
(-0.052624605 -0.052122559 -0.014114287)
(-0.060749967 -0.056240106 -0.013841457)
(-0.069415749 -0.060307013 -0.013538301)
(-0.078576203 -0.064465644 -0.013243916)
(-0.088244707 -0.068572905 -0.012928512)
(-0.098367546 -0.072745669 -0.012620836)
(-0.10902554 -0.076886389 -0.012295729)
(-0.12012677 -0.081096788 -0.01196876)
(-0.13170399 -0.085270218 -0.011636985)
(-0.14375157 -0.089481334 -0.011294727)
(-0.15623276 -0.093715588 -0.010938173)
(-0.16915421 -0.097932909 -0.010585002)
(-0.18252052 -0.10218452 -0.010206936)
(-0.1962854 -0.10643777 -0.0098358802)
(-0.21045162 -0.11070393 -0.0094413646)
(-0.22500443 -0.11496445 -0.0090533802)
(-0.23994131 -0.11923671 -0.0086503146)
(-0.2552111 -0.12352465 -0.0082441744)
(-0.27083701 -0.12778458 -0.0078342631)
(-0.28678356 -0.13207205 -0.0074256143)
(-0.30303684 -0.13634179 -0.0070205859)
(-0.3195796 -0.14061051 -0.006611868)
(-0.33640161 -0.14487649 -0.0062093448)
(-0.35349125 -0.14912902 -0.0058142509)
(-0.37081965 -0.15338692 -0.0054270979)
(-0.38839375 -0.15761879 -0.0050479623)
(-0.40619373 -0.16186283 -0.0046769192)
(-0.4242039 -0.1660829 -0.0043246667)
(-0.4424245 -0.17029831 -0.0039821962)
(-0.46083658 -0.17449304 -0.0036480633)
(-0.47943503 -0.17868745 -0.0033321819)
(-0.49821675 -0.18285857 -0.0030268534)
(-0.51716159 -0.18702058 -0.0027344748)
(-0.53627138 -0.19116448 -0.0024556879)
(-0.5555333 -0.19529165 -0.0021875502)
(-0.57494181 -0.1994015 -0.0019320909)
(-0.59448649 -0.20349069 -0.0016869674)
(-0.61416117 -0.20756061 -0.0014525652)
(-0.63395462 -0.21160816 -0.0012280145)
(-0.65386004 -0.21563368 -0.0010133506)
(-0.67386642 -0.21963598 -0.0008080261)
(-0.693966 -0.22361489 -0.00061226087)
(-0.71414852 -0.22757002 -0.00042610191)
(-0.73440576 -0.23150189 -0.00024978993)
(-0.75472866 -0.23541083 -8.3657348e-05)
(-0.77510956 -0.23929786 7.1847421e-05)
(-0.79554085 -0.24316406 0.00021610348)
(-0.81601634 -0.24701119 0.00034893917)
(-0.83653022 -0.25084039 0.00046987505)
(-0.85707836 -0.25465518 0.00057872768)
(-0.87765717 -0.25845455 0.00067512614)
(-0.89826557 -0.26224442 0.00075987097)
(-0.91889783 -0.26602427 0.00083352108)
(-0.93956343 -0.269795 0.00089497353)
(-0.96025369 -0.27356609 0.00094878495)
(-0.98097114 -0.27732541 0.00099263387)
(-1.0017217 -0.28108689 0.0010299689)
(-1.0225022 -0.28484316 0.0010618803)
(-1.0433179 -0.28859929 0.0010907407)
(-1.0641682 -0.29235445 0.0011175541)
(-1.0850555 -0.29610858 0.001145186)
(-1.1059782 -0.29986071 0.0011733756)
(-1.1269362 -0.30361089 0.0012043107)
(-1.1479281 -0.30735648 0.0012375461)
(-1.1689497 -0.31109892 0.0012752088)
(-1.1899995 -0.31483294 0.0013150122)
(-1.2110708 -0.31856322 0.0013592293)
(-1.2321614 -0.32228052 0.0014036698)
(-1.2532628 -0.32599335 0.0014515521)
(-1.2743712 -0.3296921 0.0014964303)
(-1.2954822 -0.33338168 0.0015412133)
(-1.316586 -0.33705919 0.00158085)
(-1.3376845 -0.34072738 0.001617456)
(-1.3587679 -0.34438333 0.0016448474)
(-1.3798387 -0.34803153 0.0016661337)
(-1.4008872 -0.35166757 0.0016771529)
(-1.4219221 -0.35529967 0.0016792482)
(-1.4429318 -0.3589212 0.0016705113)
(-1.4639319 -0.3625411 0.0016532511)
(-1.4849078 -0.36615492 0.0016258676)
(-1.505881 -0.36976829 0.0015921257)
(-1.5268383 -0.3733809 0.0015519822)
(-1.5477944 -0.37699438 0.0015067649)
(0.00020366207 -0.006039599 -0.0070112537)
(-0.00050321535 -0.0072447873 -0.0091341285)
(-0.0022509823 -0.011483278 -0.010445415)
(-0.0039839496 -0.014040776 -0.011701768)
(-0.0067146822 -0.017372168 -0.012250018)
(-0.010009676 -0.02041834 -0.012629876)
(-0.014134954 -0.023737573 -0.012791594)
(-0.018804057 -0.026981565 -0.01285279)
(-0.024212938 -0.030326719 -0.012817356)
(-0.030207364 -0.033715469 -0.01266398)
(-0.036798265 -0.037138904 -0.012534197)
(-0.043943706 -0.040612146 -0.012292177)
(-0.051642352 -0.04411648 -0.012095939)
(-0.059885629 -0.047649236 -0.011828256)
(-0.068635184 -0.051216387 -0.011602033)
(-0.077916037 -0.054810407 -0.011306702)
(-0.087657616 -0.058435101 -0.011068027)
(-0.097945847 -0.062076347 -0.010777071)
(-0.10868184 -0.065756319 -0.010510232)
(-0.11991945 -0.069455147 -0.010213535)
(-0.1316141 -0.073177679 -0.0099339932)
(-0.14377675 -0.076943274 -0.0096182879)
(-0.15638286 -0.080715038 -0.0093268782)
(-0.16944055 -0.084529434 -0.009003902)
(-0.18292221 -0.088349569 -0.0086891831)
(-0.1968104 -0.092223694 -0.0083476573)
(-0.21110739 -0.096087283 -0.0080202155)
(-0.22578837 -0.099994781 -0.0076740156)
(-0.2408353 -0.10391344 -0.0073221897)
(-0.25623896 -0.10785355 -0.0069656788)
(-0.27197962 -0.11180374 -0.0066157978)
(-0.28804097 -0.11577581 -0.0062522849)
(-0.30439944 -0.11975476 -0.0058929812)
(-0.3210559 -0.12374319 -0.005536281)
(-0.33798601 -0.12774551 -0.0051801266)
(-0.35517402 -0.1317557 -0.0048322111)
(-0.37261416 -0.13576735 -0.0044910838)
(-0.39028903 -0.13978612 -0.0041578193)
(-0.40818013 -0.14380298 -0.0038319698)
(-0.4262833 -0.14782626 -0.0035196237)
(-0.44459138 -0.15184256 -0.0032109773)
(-0.46308667 -0.15586581 -0.0029211352)
(-0.48177412 -0.15988015 -0.0026351801)
(-0.50062887 -0.16389268 -0.0023702278)
(-0.51965368 -0.16790123 -0.0021090229)
(-0.53883765 -0.17190243 -0.0018642928)
(-0.55817184 -0.17589478 -0.0016273723)
(-0.57764839 -0.17987849 -0.0014040416)
(-0.59725984 -0.1838499 -0.0011878654)
(-0.61699614 -0.18781033 -0.00098400672)
(-0.63684947 -0.19175557 -0.00078713945)
(-0.65681022 -0.1956874 -0.00060068471)
(-0.67686935 -0.19960254 -0.00042156902)
(-0.69701744 -0.20350179 -0.0002518259)
(-0.71724559 -0.2073837 -8.9753631e-05)
(-0.73754447 -0.21124897 6.3234061e-05)
(-0.75790609 -0.21509663 0.000207877)
(-0.77832212 -0.21892828 0.00034301881)
(-0.79878579 -0.22274345 0.00046902882)
(-0.81929053 -0.22654407 0.00058504893)
(-0.83983148 -0.23033058 0.00069094621)
(-0.86040404 -0.23410549 0.00078669126)
(-0.8810062 -0.23786749 0.00087105142)
(-0.90163393 -0.2416236 0.00094720814)
(-0.92228888 -0.24536901 0.0010108073)
(-0.94297217 -0.24911205 0.0010667837)
(-0.96367473 -0.2528452 0.0011136658)
(-0.98441366 -0.25657641 0.001151173)
(-1.00518 -0.26030776 0.0011867311)
(-1.0259801 -0.26403557 0.0012137631)
(-1.0468127 -0.26776689 0.0012403358)
(-1.0676808 -0.27149477 0.0012620581)
(-1.0885832 -0.2752243 0.0012847583)
(-1.1095216 -0.2789516 0.0013059376)
(-1.1304946 -0.28267992 0.0013304445)
(-1.1515001 -0.28640406 0.0013553694)
(-1.172535 -0.29012877 0.0013850905)
(-1.1935962 -0.29384666 0.0014152579)
(-1.214678 -0.29756433 0.001450593)
(-1.2357767 -0.30127077 0.0014843995)
(-1.2568858 -0.30497797 0.0015235702)
(-1.2779994 -0.30867039 0.001558183)
(-1.2991151 -0.31235995 0.0015938717)
(-1.3202207 -0.31603803 0.001628409)
(-1.3413214 -0.31971302 0.0016550227)
(-1.3624046 -0.32337314 0.0016772946)
(-1.3834745 -0.32702557 0.0016920951)
(-1.4045199 -0.33067206 0.0017000405)
(-1.4255536 -0.33430721 0.0016982234)
(-1.4465593 -0.33793963 0.0016895777)
(-1.4675577 -0.34156296 0.0016705172)
(-1.4885306 -0.34518468 0.0016457309)
(-1.5095011 -0.3488014 0.0016122805)
(-1.530457 -0.35241709 0.0015744973)
(-1.5514108 -0.35603296 0.0015326636)
(0.0012510732 -0.0045417557 -0.0062171874)
(0.00050756262 -0.0058557086 -0.0075984077)
(-0.00049469233 -0.0089290355 -0.0089567397)
(-0.0026520494 -0.01132896 -0.0098023401)
(-0.005315498 -0.013910703 -0.010213189)
(-0.0088591902 -0.016638678 -0.010461727)
(-0.012914216 -0.019266957 -0.010633947)
(-0.017784718 -0.022015545 -0.010671118)
(-0.023224023 -0.024737115 -0.01058628)
(-0.029291572 -0.027605023 -0.010526997)
(-0.035950843 -0.030408323 -0.010352775)
(-0.043183122 -0.03336659 -0.01021094)
(-0.050974736 -0.036267262 -0.0099958154)
(-0.059281981 -0.039295829 -0.0098212002)
(-0.068145667 -0.042296912 -0.009574019)
(-0.077489034 -0.045389344 -0.0093864805)
(-0.087382667 -0.048478609 -0.0091355292)
(-0.097729742 -0.051639414 -0.0089190614)
(-0.10859989 -0.054815279 -0.0086695941)
(-0.11993185 -0.058046257 -0.0084370984)
(-0.13174639 -0.061311235 -0.008181002)
(-0.14402095 -0.064611952 -0.007935585)
(-0.15675017 -0.067959282 -0.0076695298)
(-0.16991346 -0.071335711 -0.0074067837)
(-0.18350982 -0.074765118 -0.0071261821)
(-0.19751726 -0.078221154 -0.0068501727)
(-0.21193008 -0.08171582 -0.0065639227)
(-0.22671471 -0.085254428 -0.0062656017)
(-0.24188256 -0.088816333 -0.0059690786)
(-0.25739076 -0.092418528 -0.0056692515)
(-0.27324155 -0.096044386 -0.0053602354)
(-0.28940503 -0.099707733 -0.0050490395)
(-0.30587796 -0.10338698 -0.0047447649)
(-0.32263659 -0.1070988 -0.0044344002)
(-0.33966483 -0.11082961 -0.0041290998)
(-0.35695219 -0.1145777 -0.0038281751)
(-0.37447497 -0.11834524 -0.0035324734)
(-0.39222946 -0.12212358 -0.0032429746)
(-0.4102164 -0.12592806 -0.0029602159)
(-0.42841184 -0.12973366 -0.0026818565)
(-0.44680184 -0.13356135 -0.0024198407)
(-0.46538595 -0.13739131 -0.0021586706)
(-0.48414702 -0.14123114 -0.0019193895)
(-0.50308312 -0.14507595 -0.001683683)
(-0.52218416 -0.14892533 -0.0014595022)
(-0.54143951 -0.15277674 -0.0012468516)
(-0.56084311 -0.15662848 -0.0010436737)
(-0.58038638 -0.16048037 -0.00085003695)
(-0.60006084 -0.16432851 -0.0006663992)
(-0.61985734 -0.16817327 -0.00049132368)
(-0.63976786 -0.1720116 -0.00032444161)
(-0.65978225 -0.17584363 -0.00016586996)
(-0.67989199 -0.17966633 -1.464049e-05)
(-0.70008737 -0.18348045 0.00012921116)
(-0.72035948 -0.18728369 0.00026579525)
(-0.74069931 -0.1910764 0.00039537969)
(-0.76109869 -0.19485756 0.000517438)
(-0.78154967 -0.19862779 0.00063234679)
(-0.80204538 -0.20238641 0.00073936741)
(-0.82257995 -0.20613505 0.00083847581)
(-0.84314821 -0.20987314 0.00092943399)
(-0.8637465 -0.21360253 0.0010116166)
(-0.88437183 -0.21732354 0.001085442)
(-0.90502232 -0.22103927 0.0011513649)
(-0.92569963 -0.22474755 0.0012067163)
(-0.94639798 -0.22845128 0.0012567486)
(-0.96712554 -0.23216012 0.0012950029)
(-0.98787942 -0.23585433 0.0013307429)
(-1.0086687 -0.23955121 0.001357178)
(-1.0294801 -0.24325288 0.0013809756)
(-1.050331 -0.24695073 0.0014002067)
(-1.0712105 -0.25065105 0.0014163508)
(-1.0921283 -0.25435437 0.0014324906)
(-1.11308 -0.25805863 0.0014480333)
(-1.1340661 -0.26176417 0.0014652077)
(-1.1550827 -0.26547086 0.0014824707)
(-1.1761281 -0.26917781 0.0015029392)
(-1.1971983 -0.2728826 0.0015241254)
(-1.2182877 -0.27658725 0.0015482895)
(-1.2393923 -0.28028712 0.0015732016)
(-1.2605064 -0.28398548 0.0016002287)