/*--------------------------------*- C++ -*----------------------------------*\
  =========                 |
  \\      /  F ield         | OpenFOAM: The Open Source CFD Toolbox
   \\    /   O peration     | Website:  https://openfoam.org
    \\  /    A nd           | Version:  6
     \\/     M anipulation  |
\*---------------------------------------------------------------------------*/
FoamFile
{
    version     2.0;
    format      ascii;
    class       pointScalarField;
    location    "0.87";
    object      p;
}
// * * * * * * * * * * * * * * * * * * * * * * * * * * * * * * * * * * * * * //

dimensions      [1 -1 -2 0 0 0 0];

internalField   nonuniform List<scalar> 
3969
(
1564100.3
-2352548.8
10582.253
8205.9982
2878557.8
-4956071.7
8963.9959
5528.2981
1179484.9
826988.73
413559.88
-59971.241
-411327.69
-931577.06
-1045097.9
-7978.3404
-1732.3923
-956.98426
4935.9256
10548.589
14858.475
14677.488
506461.76
580882.91
569524.98
590834.82
581822.37
580108.27
567298.2
552142.29
539885.22
518934.36
506012.76
489645.52
472419.9
457806.53
442892.34
426371.13
413328.94
397610.2
384149.98
368499.6
354856.67
339935.51
325928.11
312292.31
296850.29
282440.74
267240.64
253200.21
239756.21
224793.21
210813.72
196880.04
182408.84
168304.79
154546.14
140903.8
126038.93
113332.73
98449.284
86426.645
72280.927
60327.101
49067.855
36448.922
29301.302
20573.575
14163.08
-516248.29
-438952.86
-548360.54
-486729.74
-548013.67
-505457.61
-520447.2
-490809.68
-490266.47
-470481.15
-459172.87
-449931.61
-428785.78
-423541.11
-406627.83
-394820.38
-382438.42
-366473.62
-356189.51
-341346.28
-327108.79
-316285.57
-299806.84
-288229.34
-273010.82
-259038.27
-243592.1
-228531.16
-214897.01
-200192.34
-188379.67
-173634.37
-161134.61
-147031.63
-134312.01
-120824.82
-108401.95
-94574.253
-82814.214
-69404.329
-57226.215
-46214.49
-35477.441
-25338.339
-15701.818
-8329.8121
-998.98474
2175069.2
1606924.2
711458
-144089.5
-811100.71
-1761300.4
-1429026.4
-644421.5
-715455.98
-456156.95
-661718.39
-567212.47
-588604.67
-566607.8
-558111.33
-535909.32
-501997.55
-534249.84
-490658.75
-495850.61
-475525.1
-460971.35
-448889.99
-428760.78
-415339.34
-397467.34
-379530.62
-365487.8
-349410.2
-334466.85
-318968.41
-305971.33
-293836.22
-279199.89
-260982.77
-247469.17
-232064.9
-215865.52
-200689.77
-185151.78
-169338.68
-154476.59
-140085.03
-120677.84
-108323.23
-94364.919
-79988.302
-65734.546
-53193.703
-39946.118
-28236.998
-17817.004
-8388.4158
-236.9118
19872.205
13456.224
11684.967
6358.9499
-1190.5512
-1973.3998
-9523.6431
24838.985
23166.282
28068.559
38206.84
48643.18
59842.52
72241.945
84340.962
98056.141
110499.41
120794.15
143799.83
153710.58
168333.39
183456.4
198574
213043.62
228639.27
243091.6
258498.27
274402.87
288747.66
304418.88
320111.03
335743.67
351629.73
367138.12
381338.7
397746.08
411560.72
427668.41
439970.54
448068.97
472495.27
496779.05
493849.79
521537.59
523016.21
544081.61
568791.55
592938.78
578250.9
615038.34
584425.35
587342.73
609882.49
592973.99
1312440.3
1426010.4
1504257.2
1480593.2
1479550.4
1484924.7
1230217.8
-1812705.6
-2334855.3
-2704133.8
-2885279.4
-2758172.1
-2729807.4
-2026265
8784.8661
9656.8652
10546.8
11898.806
11476.808
9863.1715
9832.4908
2838.7271
4001.9865
3309.2152
2475.7976
3818.8536
8171.3575
4044.1598
438689.17
450197.45
453577.55
459432.35
458063.49
456002.33
444273
441828.09
422980.21
420992.92
405300.82
390654.93
384277.86
371024.67
359239.15
347804.06
336093.17
323237.1
310400.4
297932.06
285735.5
272342.41
260090.07
247543.03
236298
222887.09
210682.9
199167.68
186772.5
174761.49
163287.82
151421.53
140015.38
128776.17
117820.67
106527.6
95456.224
85138.152
74784.368
65654.388
55315.383
47596.88
37794.563
30859.055
24466.056
15432.691
8742.9729
276439.78
273251.05
279545.22
292677.83
296441.29
305140.37
296564.6
293796.47
286983.26
283409.17
273254.97
267882.06
257276.27
247723.89
241243.84
231025.44
223239.6
213074.99
204622.91
195053.44
185027.11
175180.57
165707.37
157027.27
147615.39
140147.73
132682.69
123408.23
116965.45
109246.9
102284.82
95413.907
88605.132
82123.108
75643.214
69319.557
63161.628
57644.735
50899.121
45748.606
39080.345
34271.137
27819.432
23824.68
18415.158
12086.445
6087.8897
117153.22
135463.39
130439.08
138700.66
138602.41
143568.38
140057.92
143110.95
137487.75
136200
133718.86
130330.85
125909.35
120224.91
114754.04
111231.82
107607.55
103057.3
99658.138
95062.853
92124.147
88400.161
84394.825
79974.783
76641.304
72031.415
67864.35
64913.83
61237.68
57462.93
53910.975
50251.862
46642.398
43042.023
39888.095
36177.387
33004.409
29463.612
25998.661
23606.682
20060.523
18695.645
14788.56
13822.125
10980.537
7531.4109
6429.8508
-19046.581
-22243.65
-26045.234
-16794.941
-26580.392
-20755.011
-27563.133
-23867.33
-25490.865
-15872.414
-21356.813
-15874.76
-17688.451
-14332.618
-13175.908
-11258.815
-11019.909
-9736.0565
-9292.4459
-9285.9975
-8967.5911
-10281.601
-12684.408
-11616.732
-10421.008
-9745.4603
-8194.0829
-7043.2609
-5979.4473
-4712.1084
-3460.7708
-2246.4486
-1317.2607
-130.10405
841.88422
2077.9266
2366.9504
3382.4652
4473.2756
5364.8465
6007.4867
6467.8282
5752.6914
7454.6231
6487.4541
7396.054
8337.0318
-174809.64
-155978.86
-158810.6
-168818.33
-178762.28
-176275.6
-179532.59
-173724.3
-173499.47
-161394.25
-163136.91
-149362.61
-150518.68
-138369.62
-136631.77
-127522.9
-123884.53
-117045.2
-111993.4
-106771.7
-98257.173
-88301.199
-82750.403
-73179.115
-69934.433
-67248.833
-60846.644
-55467.618
-50997.782
-46412.618
-41873.95
-38179.801
-33970.287
-30585.609
-26618.453
-23514.76
-20765.575
-16812.315
-17557.071
-14640.252
-12614.373
-9814.0569
-6920.1186
-3737.1989
-1418.6817
2420.0606
6844.3038
-317993.41
-297992.42
-301921.42
-325779.97
-330525.62
-329030.19
-327420.84
-316976.06
-315712.99
-299968.32
-298256.42
-284184.9
-278722.2
-270257.54
-261238.89
-250054.95
-241476.81
-230747.06
-221506.03
-211884.5
-199644.87
-190621.31
-173837.55
-161631.17
-150420.72
-140855.02
-132570.2
-123251.51
-114518.64
-105947.66
-98429.667
-90106.462
-82561.178
-74963.104
-67774.982
-60529.627
-53541.893
-47236.337
-40665.174
-35075.123
-29244.557
-23434.047
-17177.068
-11523.012
-5827.6834
332.03794
8245.0673
-524223.77
-363940.08
-438926.02
-437111.59
-461092
-447611.52
-452440.98
-437284.97
-438866.08
-414209.3
-416288.55
-398413.14
-387552.61
-373775.77
-359750.39
-346743.57
-331720.13
-320508.7
-306442.23
-294086.63
-281718.19
-268394.54
-255822.18
-243640.22
-230623.78
-218856.81
-208999.63
-194771.96
-182193.79
-169854.36
-158049.1
-145944.31
-134000.42
-122563.23
-110778.49
-99491.373
-88701.891
-77815.011
-68256.148
-56430.665
-46528.481
-36853.097
-28086.144
-20138.195
-12536.471
-5096.7361
3700.4045
1030974.4
934556.29
977529.69
980391.09
984250.68
958380.7
904544.58
636032.58
690315.21
662664.73
675745.46
680478.05
666539.33
661561.59
314336.75
375837.34
325435.92
351121.15
336685.31
333187.04
357793.3
35808.683
-9183.0289
-29041.342
6582.1088
-16609.754
-59681.442
87062.646
-211751.59
-223588.95
-232605.27
-203508.1
-220741.22
-211719.01
-113062.64
-669784.43
-718527.69
-707249.14
-729981.44
-745012.6
-730183.38
-677936.66
-770981.85
-728747.58
-612309.38
-631357.73
-588205.8
-546399.61
-617575.27
-880251.58
-922003.85
-1046373.9
-1083986.3
-1110680.3
-1086282.7
-829888.32
-663394.88
-770152.74
-780939.51
-800938.98
-837197.37
-796970.59
-726679.13
-568091.33
-650710.62
-684433.78
-691918.98
-692668.59
-641038.06
-678403.95
-561476.42
-625055.91
-609719.08
-654950.39
-629244.68
-623514.77
-586252.11
-570130.66
-607018.59
-626657.33
-632850.99
-632890.9
-602754.49
-612414.06
-553453.89
-547798.19
-559982.28
-575700.15
-575231.52
-561698.57
-554726.77
-530641.37
-551097.92
-558576.94
-571181.53
-564288.14
-566723.41
-562906.09
-526981.14
-522686.07
-523374.68
-533367.37
-530662.94
-532046.79
-527535.09
-506672.62
-514079.25
-516546.12
-525001.87
-526933.64
-530508.88
-529777.55
-499685.9
-495905.09
-493773.39
-500376.5
-499642.88
-493353.2
-497440.9
-482270.39
-487036.11
-481614.7
-489493.49
-487760.23
-487869.62
-496309
-465497.73
-467519.21
-465633.82
-474387.99
-472916.68
-465800.61
-479859.1
-459017.25
-448049.86
-457950.36
-455371.84
-460620.66
-457184.19
-470745.26
-437001.56
-436358.46
-444498.74
-441905.4
-449193.95
-439408.14
-451913.23
-429033.88
-422117.03
-432007.48
-426518.69
-433362.81
-426681.64
-440164.28
-411510.1
-405902.5
-417519.03
-411741.64
-422528.03
-414181.64
-426655.97
-396929.35
-394798.62
-403943.52
-398835.06
-408732.47
-399270.17
-409583.45
-383090.44
-380436.52
-391242.18
-384357.01
-395929.38
-384802.01
-396927.04
-368384.61
-367641.09
-377564.41
-370010.76
-381425.75
-370596.53
-382381.46
-353940.65
-353629.55
-363536.59
-356015.75
-368188.28
-356987.52
-368645.85
-341038.31
-339415.85
-349561.21
-341509.26
-353321.81
-342438.4
-353660.59
-326268.36
-325707.82
-334950
-327775.45
-339238.98
-328320.55
-340022.94
-313179.7
-311084.09
-321240.88
-313530.72
-323442.49
-314289.21
-324862.32
-298072.01
-298567.24
-305865.51
-298163.47
-309701.12
-300625.72
-311672.24
-283756.25
-285636.4
-288067.94
-286254.81
-293406.18
-286913.48
-296339.65
-267554.13
-271855.75
-270133.04
-274336.61
-278541.08
-276453.86
-283518.25
-257291.88
-256708.26
-257726.33
-259137.31
-261783.31
-260324.11
-267559.01
-243307.21
-241776.04
-243275.67
-244950.04
-246710.88
-246838.62
-250346.81
-228128.27
-226745.27
-228669.62
-229007.13
-230070.96
-232375.8
-233990.7
-214187.42
-212103.48
-214705.68
-214183.16
-216486.19
-217826.69
-218946.52
-198906.47
-198426.49
-199367.89
-199459.95
-200714.22
-202214.97
-203301.8
-185200.18
-183522.25
-184944
-184614.36
-185948.11
-187430.36
-188623.25
-170147.57
-169485.68
-170126.12
-169985.03
-171045.51
-172688.19
-173829.89
-156147.23
-155102.3
-155725.86
-155493.32
-156365.55
-157920.96
-158637.43
-141582.48
-140917.94
-141076.35
-140759.33
-141371.52
-143430.34
-144143.12
-127444.31
-127020.58
-126793.57
-126998.66
-127333.62
-128038.53
-129430.3
-113838.72
-112350.36
-113079.45
-111349.19
-113172.79
-115195.78
-115210.81
-100362.47
-100032.63
-98559.045
-99227.669
-98470.03
-100038.72
-100917.24
-86382.257
-85519.639
-84783.443
-84701.142
-84737.289
-86342.692
-86669.186
-73821.36
-72344.68
-72442.788
-71470.325
-71490.191
-73152.946
-73749.352
-60267.08
-59832.715
-58977.157
-58157.705
-58409.843
-59907.812
-60021.329
-48546.104
-47989.181
-46813.653
-46660.41
-46283.557
-47700.533
-47938.575
-36390.777
-36064.211
-34827.604
-34780.373
-33928.32
-35731.776
-35723.088
-26126.528
-25307.086
-24515.642
-24056.484
-23466.131
-25094.795
-24668.632
-16641.025
-16407.475
-15379.053
-15090.375
-14492.652
-15393.372
-14752.155
-9810.4468
-9016.4181
-8682.2481
-8168.5437
-7589.6438
-8708.3335
-8213.2855
-4234.3639
-3914.279
-3498.0849
-2460.9104
-3393.056
-3360.5609
-2096.7715
-15231.949
-17651.062
-19995.263
-20077.241
-18516.867
-17395.22
-15207.83
-9020.3148
-9765.2278
-10040.006
-10803.234
-9758.2822
-7777.5495
-6793.2064
-4413.564
-5940.202
-6360.5625
-6088.5184
-5537.9284
-3836.6521
-3040.7881
5655.425
5968.5438
5820.8293
5818.3957
6946.5202
6249.2816
7738.101
13357.207
13354.854
13872.476
14901.08
14522.817
14308.854
13830.24
18492.888
20937.522
21428.644
21790.632
23068.032
20369.156
19868.887
21311.045
21927.313
23602.787
23793.342
23259.133
22113.49
21023.417
626431.57
623194.13
694161.47
680251.78
698199.55
664010.15
647410.29
654304.21
669003.72
698335.87
692139.2
702730.41
663650.34
649402.4
633234.93
638118.16
658263.48
659271.84
659327.62
632179.47
623071.27
602916.26
619445.41
632834.78
636869.8
635008.67
617788.45
620071.66
603240.78
606736.87
612391.01
616431.78
614391.65
608093.33
597400.97
579314.03
580778.79
590269.65
583940.39
589107.09
572497.43
576286.42
573090.95
573019.13
574691.75
573575.21
583356.13
570144.48
580533.67
549380.89
543691.17
554072.39
536634.27
549077.18
541412.86
545492.28
538203.39
542090.09
540986.71
536067.73
544802.24
535162.49
545720.16
524369.29
515371.61
517432.06
509097.69
520176.88
508823.27
521581.54
508700.16
501680.22
511362.22
498976.78
510201.17
500338.46
509335.13
489243.89
489123.83
489539.72
479844.9
489851.25
480641.34
492705.43
479891.97
470521.76
474070.2
466545.53
474651.32
465836.02
465984.75
462665.53
457088.43
458100.06
452817.84
458740.26
453970.7
462358.72
447144.79
443480.36
440311.81
439708.14
441923.28
437438.16
444401.74
436611.54
426780.63
427445.65
423465.44
429725.92
423268.54
427673.99
419659.6
413070.69
412358.68
410451.64
412642.16
407630.65
413123.12
405128.59
397543.5
399013.68
394978.77
398197.58
394187.58
397695.17
389813.38
383816.17
384349.71
380249.93
383877.41
379624.52
383860
375723.44
368356.38
369720.77
365909.9
369147.74
364886.3
368678.82
361537.65
353405.7
355976.29
351386.64
354899.42
350706.84
354468.88
346675.92
338888.96
341870.88
337156.8
340239.57
335481.1
339690.05
332634.83
324594.65
328329.28
322955.66
325930.12
321433.93
325730.67
317662.5
310551.04
313772.82
308370.79
310889.17
306090.81
310674.91
303769.78
294883.26
299641.96
293300.71
296141.7
291409.92
296454.87
289144.69
280182.54
285445.74
278643.29
281434.73
276793.62
281173.96
274019.22
266175.27
270350.06
264299.23
266260.15
261844.43
266765.31
260158.82
252005.63
255510.4
250013.2
251892.6
247631.68
252236.79
244366.64
236663.95
241336.45
235194.88
236573.59
232348.71
236962.55
229597.03
223517.37
226211.38
220971.43
221996.28
218405.45
222408.45
215130.88
208834.13
211701.18
206688.9
207351.47
203530.41
207554.18
199871.36
194781.93
196685.65
192255.75
192259.38
189041.74
192765.66
185195.7
180630.3
182315.39
178097.05
177771.04
175030.23
178695.56
170508.61
166696.11
167624
163954.89
163374.8
161021.89
163631.02
155939.22
152531.92
153164.73
149999.74
148617.35
147251.34
149038.56
140700.19
138529.97
138792.23
135512.23
134907.43
133245.84
134928.53
126736.44
125388.7
123617.22
122540.4
120476.47
119238.17
121889.88
112728.99
111922.01
110208.28
108645.3
107550.69
104633.74
108594.81
98150.167
97623.654
95591.848
94952.981
93467.316
92039.504
94808.893
85367.774
85219.23
83312.878
82728.328
80708.145
79420.815
81988.666
71353.904
71058.417
69159.568
68808.103
67084.645
67321.784
68915.5
59453.298
59398.1
57630.149
57449.829
56093.479
55745.085
57213.242
47786.051
47695.959
45877.312
46191.869
44318.539
44676.235
45375.324
35883.599
35473.539
34359.634
34523.389
33608.57
34047.387
35359.754
28650.309
29820.347
29224.446
29586.742
28281.956
28031.795
27444.894
21658.823
21784.598
20886.838
20865.205
20994.268
21902.822
20950.895
23243.511
25717.439
26135.283
26934.934
26692.927
27142.495
25503.04
594647.15
494108.31
475557.04
476508
485299.86
490758.3
464991.89
468179.43
452711.74
446806.72
428934.51
418070.36
404463.58
385931.91
377103.66
363587.87
348803.14
336548.69
323109.45
310443.18
297391.97
284033.07
271262.12
258646.39
245732.3
233292.35
219347.95
207011.21
194478.09
181850.49
169473.88
157348.95
145153.18
133275.9
122855.01
109311.07
98767.238
89727.897
78194.033
68501.509
59235.126
49910.769
41643.756
33266.07
25775.671
18035.855
7451.3015
351375.08
369550.03
276415.62
323505.23
355723.31
334936.05
348298.92
327831.49
331448.48
316559.26
309140.04
302001.97
284025.16
280583.28
270965.83
262551.75
252367.8
241458.37
232943.16
222074.26
212121.77
202153.81
192140.93
181487.74
171286.65
159528.82
153098.97
142262.91
133542.42
124859.86
116250.91
108144.37
99889.699
92854.711
83998.081
77739.401
70527.652
63172.638
56625.484
49904.509
43631.559
36995.894
31145.58
24995.531
19667.54
13107.291
6790.1227
163096.71
210664.17
115403.72
189137.13
154426.54
146819.09
147709.93
143271.12
141713.74
133120.96
140262.55
132858.05
140500.67
134770.21
133807.49
131960.54
126066.85
122060.09
117691.5
110894.57
106063.08
100568.92
94997.884
89801.808
84803.792
79860.156
75554.151
69167.114
64992.931
59997.969
55554.348
51360.351
47489.261
43412.781
39576.502
36591.315
33022.28
30026.985
26818.982
24694.612
22048.603
19311.562
17111.276
14762.601
12310.461
10477.108
3377.6414
-30448.383
38436.036
-18457.19
22458.977
-13414.739
6856.8986
-3165.6948
-15884.612
-9874.6615
-4515.5509
-10630.367
-182.32297
-4678.7026
6260.6173
7750.3904
9532.7913
9579.2825
10575.848
10705.256
10263.64
11153.975
11046.008
11146.887
11256.94
10338.221
9719.024
8713.6426
8922.2939
8207.0653
8044.4189
7642.8182
8164.1447
7664.8216
7896.8596
7806.8996
8034.8051
7615.0137
7794.5614
7565.0944
7917.3304
7548.2001
7367.4186
7492.2949
6774.2382
7678.9232
5940.3351
4797.8709
-281328.91
-129168.87
-162711.4
-113669.41
-159958.37
-129408.53
-155656.11
-146271.38
-137112.89
-141990.92
-127028.25
-133959.76
-121399.36
-124641.82
-118451.41
-113980.15
-109864.28
-104689.45
-100017.82
-95274.192
-90321.613
-85752.221
-81029.139
-76841.718
-72143.802
-69276.025
-63785.534
-59503.647
-55819.798
-52070.611
-48306.219
-44576.833
-40867.364
-36827.085
-33426.879
-29774.471
-26192.903
-22378.073
-19280.952
-15463.65
-12357.854
-8754.973
-6068.0375
-2540.0364
25.591765
3617.3321
4885.9433
-434233.9
-311523.44
-272320.15
-280015.47
-303285.1
-293456.15
-313260.39
-283703.16
-312697.59
-296437.15
-301957.86
-288327.8
-280244.71
-274673.92
-261906.95
-253105.04
-240653.44
-228839.96
-217736.4
-207483.7
-197685.04
-187126.19
-177156.05
-163656.06
-151390.99
-139312.64
-131543.67
-122380.24
-114269.91
-105750.85
-98480.587
-90396.012
-82835.039
-75322.209
-68100.554
-60986.941
-53711.265
-47076.15
-40594.816
-33785.782
-27803.883
-21789.978
-15824.286
-10583.411
-4897.0055
808.30366
6461.8639
-533702.73
-395045.41
-415612.87
-410825.7
-458705.49
-452496.71
-456101.08
-448422.74
-448253.22
-432107.51
-417419.53
-412447.1
-395943.51
-383999.19
-371009.35
-359143.63
-348613
-335213.97
-325333.85
-311764.76
-299284.59
-285873.33
-273021.07
-258733.17
-246812.55
-226007.08
-214808.91
-202683.66
-191076.57
-179817.4
-168430.75
-156280.54
-145114.86
-133257.81
-121492.62
-110259.72
-99238.176
-87763.164
-76527.072
-65543.802
-55450.548
-44385.198
-35491.443
-25608.724
-16473.372
-7572.8377
163.43441
723479.57
800562.67
775963.15
810845.97
797336.78
757825.74
706984.7
529302.6
605238.24
598296.26
614693.06
599072.42
579073.01
530369.7
497237.95
542093.13
553145.44
564376.85
550831.53
545318.31
523747.42
486745.12
500702.87
505077.27
519620.76
496263.33
506850.36
464239.76
473035.97
483357.6
493144.54
487671.95
484615.89
479480.81
452318.22
465233.34
482228.24
464349.61
483773.44
466722.37
468314.64
467897.86
458109.21
453093.97
451854.6
456275.62
438511.95
452212.74
444876.56
442694.58
463575.39
443704.7
454935.81
447450.86
446786.03
442292.8
443210.93
436077.31
417080.32
436419.99
418934.66
427401.5
424272.89
424551.87
426595.36
422436.98
431723.39
414203.24
425067.22
418714.28
412511.92
419784.2
401974.35
410852.7
399339.46
407541.27
404691.1
409457.05
402567.06
393501.34
400425.73
393048.45
394460.75
390978.34
392915.1
391720.32
382397.48
392100.91
378404.21
385327.14
388069.49
381040.44
377585.27
372622.81
377042.36
365035.83
371742.81
370647.42
371842.48
365920.77
362569.25
362018.45
356934.25
360939.61
357596.33
355723.23
352775.24
350676.09
351426.21
343348.68
344244.54
347218.56
342702.36
340999.12
337546.89
339334.12
330971.92
335381.56
334339.61
330658.76
328672.36
326291.26
325038.41
319777.62
321451.49
322064.86
316662.65
317069.04
311833.12
313807.21
307168.84
308780.16
308213.12
304594.03
303728.1
300456.86
300808.85
295135.4
296424.4
296585.9
288714.35
292593.96
287045.37
288344.08
282384.05
283745.8
282972.78
276488.22
280330.4
274272.09
275110.96
270099.55
271119.72
271149.23
262281.4
267903.88
260332.75
262251.26
257068.64
259233.21
257404.87
249104.24
254782.55
247338.69
248938.69
245166.23
246126.75
244635.29
234350.65
243679.97
234124.23
237489.45
232386.87
235038.59
232300.02
223403.83
230625
222697.51
223448.89
221552.06
221546.36
219986.84
211822.01
217579.47
210045.41
211698.82
209562.36
209776.79
207831.89
198731.54
203581.82
199557.41
198817.25
196801.22
197488.07
194800.64
186436.3
193988.81
185784.67
186838.55
185549.38
186023.12
183410.26
175843.07
179817.29
174948.59
175128.19
173848.37
173956.35
171327.43
163562.74
168033.95
162788.41
162868.1
161778.61
162178.93
159624.37
152384.41
155781.83
151816.1
151442.01
150739.22
151100.9
148413.87
141127.88
143939.38
140199.32
139600.2
139369.96
139683.81
136897.83
130089.54
132000.27
129028.74
128256.35
128280.2
128269.15
125492.23
118896.87
120071.62
117896.71
116772.86
117287.91
117282.08
115096.45
108118.29
108954.49
107265
105979.93
106692.52
106940.67
104513.25
98321.552
97729.755
96542.227
94444.927
96535.87
94822.509
94898.49
87741.832
85850.693
86185.62
84624.727
84170.649
86455.795
83687.096
77633.676
74948.301
75796.87
74146.415
75351.472
75838.63
74548.881
67225.055
65872.724
65998.139
64610.251
64777.526
65964.506
64499.44
58062.9
55187.042
56226.882
53906.116
55616.871
56047.145
55399.48
48798.169
47372.186
47937.317
46452.12
47604.098
47295.327
46875.395
39502.497
36857.344
37774.612
35857.241
37006.334
37506.438
38233.43
32602.491
31199.351
32415.915
30449.24
32066.103
31785.162
31267.784
23470.403
22421.251
22279.844
21219.928
22188.723
22057.204
22759.754
16258.317
14952.197
16032.597
14550.885
15644.801
15772.948
14865.359
7913.7958
5274.1933
5036.0362
4783.4841
5642.5753
4719.7992
7709.6551
466985.85
496497.78
540493.84
533258.58
547018.72
502311.21
500982.81
374826.17
438679.33
454352.89
464760.25
462192.3
433575.77
412760.93
360569.67
332736.15
372574.99
358709.95
373952.73
339395.93
348438.5
317168.54
325789.59
340519.32
333446.48
339358.44
330168.73
304018.93
329653.07
324753.33
334937.69
324312.11
340514.18
320004.41
328684.82
312112.68
305547.02
308352.26
303080.38
298714.89
311279.99
305984.46
311891.57
311151.16
322910.62
304519.24
318819.1
317614.92
310262.42
305402.87
296223.13
294121.27
287809.32
296601.12
291573.31
298409.39
300814.4
287736.23
302194.94
289978.31
290801.85
295552.98
296599.57
286301.54
285388.09
289943.64
271917.75
282951.6
283191.07
288035.49
285345.08
278455.89
277432.14
268500.84
275160.75
275926.56
276089.35
276800.65
264640.21
275618.21
261092.3
271323.91
266271.88
276660.69
265978.84
259675.02
268361.87
249265.25
260007.05
255308.49
261018.47
259100.05
253010.52
257716.72
242594.47
252548.29
251090.24
247770.5
249054.44
246641.69
245823.34
234330.01
243518.67
239305.94
239135.12
241009.66
237576.08
236382.13
229294.74
232293.98
233103.31
229611.97
232213.48
229828.92
228805.52
219306.74
224109.48
225656.88
223612.07
222563.83
221202.67
217899.53
212077.05
214971.41
216003.99
212141.58
215039.28
211498.56
210223.48
203851.44
206549.7
207449.74
205313.95
204597.02
202508.26
201056.82
195331.17
197316.2
198075.92
196112.96
197308.33
193676.42
192337.53
186646.02
188723.47
189430.21
188191.4
189130.06
184422.38
182930.67
178322.25
180097.49
180665.97
178906.35
181370.67
174691.85
174542.94
170176.86
172234.61
171122.08
170889.46
172960.46
166200.91
166724.77
162761.33
163752.48
162505.26
162987.47
164797.26
157807.46
158374.96
154089.12
155817.16
153368.23
154598.58
156365.22
149942.23
147785.93
148843.53
145581.42
144938.46
147034.59
146228.44
141755.77
141060.54
137514.76
139252.92
135057.9
137778
139803.96
133125.06
133154.56
130502.74
131104.34
127651.1
130008.31
130887.05
125097.3
125911.11
122212.6
123903.45
118856.25
121733.67
122716.33
117836.32
117238.28
114964.26
115094.51
111282.53
113502.34
114630.13
110489.66
110361.9
107645.61
108121.47
103995.7
105883.97
106618.32
103581.96
102384.96
100535.94
100383.33
96697.002
97931.921
99042.836
96450.656
95226.029
93476.571
93362.091
89363.331
90219.287
91200.849
89510.481
87788.621
86760.983
85948.45
82339.125
83225.816
83659.309
82943.733
81066.007
80010.247
79393.676
76061.582
76978.364
76287.329
76328.826
73648.739
73529.495
72213.864
69069.457
68642.548
68843.981
69493.105
66917.157
66701.155
65492.234
62530.045
62508.881
61346.257
63519.389
59982.938
60498.947
58959.49
56576.314
56372.764
54443.778
56259.158
53847.547
53630.629
52673.943
51025.704
49560.303
47717.205
50669.799
47090.235
47405.852
46217.931
44306.152
43226.523
41659.993
43447.92
40538.492
41301.277
40125.83
38763.732
37681.734
34874.73
37593.975
34261.097
35379.644
33711.006
32769.036
32298.016
29584.28
31115.865
28334.106
29308.534
27746.965
27591.657
26822.393
23777.974
25321.174
22643.149
23661.424
22645.346
22299.746
21995.602
17581.505
19172.664
16681.734
17857.675
16544.997
16527.487
16432.599
11679.52
11847.928
9697.2353
10529.099
10074.635
10463.558
10725.209
6222.4062
4346.0298
2425.6411
3057.1988
3305.5388
3231.6143
4936.9182
261281.26
282023.04
263280.96
295631.31
272712.09
258650.73
241617.03
191831.45
274141.74
261116.79
279704.7
245639.64
261364.62
209839.53
176061.28
166758.16
170618.84
174455.32
167657.86
155283.45
151983.43
147934.31
178499.29
177105
192350.72
166720.59
185155.67
150437.51
164468.71
150180.5
153072.95
141603.98
141677.65
137335.43
138912.51
146155.4
164469.38
143365.88
150625.05
146975.4
146748.38
145528.18
156322.4
155446.71
129965.16
140365.93
138327.78
132284.61
139922.31
148372.8
158210.65
130328.43
142120.6
132916.08
130056.33
140411.25
150795.61
157759.6
128107.71
135262.29
131793.4
132211.54
137295.22
150775.01
153319.67
122873.83
130316.56
131344.59
126053.89
134175
146739.24
150372.18
120123.55
132775.64
127718.13
127548.92
130652.15
139419.47
145011.45
116920.22
126734.35
124009.55
120671.86
128445.71
134222.07
147008.51
113053.06
125427.24
120143.02
119896.19
122535.69
130886.29
136834.03
113510.28
121256.57
122037.97
109950.42
126253.7
127534.37
131514.81
108931.92
119023.09
115926.66
108920.47
120542.34
122305.84
124104.77
109916.8
112208.63
113281.23
105033.88
118367.16
114907.5
121288
104414.91
109729.52
108539.3
102379.18
111860.71
112365.97
114862.48
101425.63
105630.18
104870.75
98689.76
107193.25
105248.3
111207.48
97327.805
102094.55
99916.12
94830.18
102351.16
101596.4
106465.82
93326.64
97297.742
95349.534
91124.43
98397.988
95713.08
101764.48
88819.861
93201.435
90796.391
87816.451
92482.467
90777.486
96210.186
84819.537
88780.337
86861.4
82802.133
88346.021
85760.925
91373.609
80755.196
85369.292
80826.011
79422.63
83284.775
80867.338
85828.859
77062.107
79295.891
75896.456
75204.497
77940.469
76445.992
80958.349
72444.937
74945.372
71038.856
71656.092
72887.114
72363.242
74504.669
69532.163
69241.267
66729.052
67032.405
67905.383
68478.936
71476.537
64676.133
67065.955
61121.439
64471.984
62569.573
64279.685
68396.963
60520.986
62286.98
58151.371
59535.737
59596.331
60269.067
63219.342
56358.456
58103.445
53783.223
55417.311
55543.475
56963.273
59188.208
53308.03
54494.132
50552.017
51870.411
51993.589
53502.704
55262.109
49281.808
50815.717
46464.767
48239.65
48278.691
50252.836
51245.987
45926.759
47195.193
43229.951
44729.449
44498.329
47019.806
47311.011
42452.746
43670.08
39748.476
41049.713
41713.484
43916.395
43680.91
39369.681
40441.817
36678.716
38429.49
38675.021
40917.2
39904.17
36143.003
36785.482
33600.852
34623.128
35311.291
37635.843
36382.157
32872.003
33760.55
30556.248
32033.806
32841.485
35164.191
32840.262
30291.527
30411.981
28274.567
28440.393
30585.943
31598.398
29827.136
26877.656
27945.73
24937.142
26348.11
27900.236
29445.39
26404.518
24295.992
24493.217
22755.095
23573.794
25126.047
26443.539
24150.837
21613.375
22854.857
20415.078
21113.343
22383.634
23497.86
19418.868
18909.37
18603.386
17528.857
18318.755
20548.643
20769.497
19044.074
17880.154
18058.177
16757.667
17102.53
18061.724
17917.991
13992.539
13846.594
13301.561
12873.214
13441.757
15666.103
15443.989
13805.986
14058.035
13921.349
13287.504
13886.437
14141.337
11587.641
9075.7972
9202.7194
8123.4882
8283.2478
8673.0043
9523.1822
9570.9602
8697.6278
8067.1248
8284.3462
8446.076
8770.1493
9453.4707
5545.525
1601.7269
1966.8094
1656.6867
1333.2246
1878.122
3118.0555
-11360.38
-24514.142
-18379.422
-11027.682
-18709.141
-21164.931
4584.6918
-12339.324
-16100.773
-17819.511
-13370.441
-20738.653
-14253.53
-17404.425
9795.845
-40154.819
-36312.245
-49694.434
-34544.471
-49827.721
-12019.723
-14403.146
-29792.124
-15001.538
-24600.556
-27028.65
-10993.554
-27928.321
-4924.62
-15747.806
-17610.04
-45319.532
-13540.836
-51535.993
-5588.3152
-6358.6383
-25694.499
-33758.706
-26428.746
-29351.634
-22516.766
-17329.791
-6097.6603
-20087.255
-6805.9224
-32158.749
-15863.563
-26688.056
-12107.196
-3026.7956
-16102.678
-22737.689
-23929.728
-21101.6
-19586.701
-14384.37
-279.19716
-22128.898
-12444
-26870.624
-16574.734
-20685.628
-18280.666
-6936.0763
-15113.267
-14446.114
-25280.745
-18943.23
-19349.845
-14666.61
-3989.368
-15157.185
-15286.458
-25296.91
-18856.637
-20711.288
-14913.828
-4262.1492
-13302.8
-17006.543
-20123.754
-19740.309
-14206.09
-13864.277
-1846.1843
-15525.723
-15562.767
-22146.765
-16772.111
-17517.382
-14531.834
-3632.8809
-13862.784
-6518.652
-15896.602
-20846.689
-13443.25
-18424.63
-86.552541
-6890.6265
-18254.022
-14892.865
-21135.404
-13978.287
-14075.284
-4076.2312
-7772.1432
-17316.824
-11545.549
-22025.007
-11741.952
-13943.149
-1257.3148
-7928.1117
-14457.947
-9427.1221
-20200.434
-10992.744
-11227.131
-3010.8771
-7018.4708
-13126.936
-8249.3387
-19541.914
-10002.738
-11588.269
-1406.3242
-5106.5101
-11421.423
-7542.4914
-17842.624
-9176.8823
-9509.7335
-1113.0326
-4592.4843
-11181.09
-6804.0073
-16888.445
-7563.7641
-10170.774
-74.707901
-3510.2174
-9749.8687
-5739.5191
-14302.541
-7349.8444
-9049.9851
1087.9908
-1736.8403
-8872.65
-4202.0623
-14118.276
-6275.09
-8338.1711
1625.009
-896.04231
-6829.4287
-5020.6872
-12319.161
-5340.4937
-7558.1962
3468.1193
-112.83911
-5421.44
-4270.8889
-9540.8225
-4104.3236
-6663.3448
3749.1474
693.7897
-3568.7066
-3857.6077
-6589.5326
-4278.1854
-5700.6641
4253.6866
3642.4346
-2578.4336
-2066.6126
-4536.8452
-3819.2136
-4257.1281
6453.2086
3454.223
-1064.6575
-1976.5467
-3371.111
-3237.9971
-4274.683
6599.0879
3563.2018
47.136823
-1438.9531
-2661.7747
-2360.0741
-4123.2759
7451.3764
4365.9619
1485.5744
27.361644
-707.00242
-1352.0131
-3057.5703
7547.1259
5310.946
2342.9652
630.99274
-416.80026
-706.80376
-2706.4395
7959.1856
5789.9115
3184.3916
1595.1566