/*--------------------------------*- C++ -*----------------------------------*\
  =========                 |
  \\      /  F ield         | OpenFOAM: The Open Source CFD Toolbox
   \\    /   O peration     | Website:  https://openfoam.org
    \\  /    A nd           | Version:  6
     \\/     M anipulation  |
\*---------------------------------------------------------------------------*/
FoamFile
{
    version     2.0;
    format      ascii;
    class       pointVectorField;
    location    "1.51";
    object      lm;
}
// * * * * * * * * * * * * * * * * * * * * * * * * * * * * * * * * * * * * * //

dimensions      [1 -2 -1 0 0 0 0];

internalField   nonuniform List<vector> 
625
(
(0 0 0)
(0 0 0)
(-4051.7837 273.01686 -119.93943)
(-4122.1813 981.59377 -220.59653)
(0 0 0)
(0 0 0)
(-4029.1644 889.91606 -220.96098)
(-3963.5915 186.00328 -118.34659)
(0 0 0)
(0 0 0)
(0 0 0)
(-3717.2429 404.04317 -132.34231)
(-3859.5315 582.24373 -160.19397)
(-4213.6178 818.73089 -200.00806)
(-32.441792 -77.365019 -65.169228)
(-86.809192 -143.83801 -68.36276)
(-175.11906 -205.84065 -82.841627)
(-296.20368 -260.11203 -94.831498)
(-437.7032 -299.66725 -113.18955)
(-609.01199 -332.05887 -131.69432)
(-798.38447 -351.09157 -152.05079)
(-1007.1431 -358.71176 -171.44698)
(-1231.6172 -355.89691 -190.16874)
(-1466.2701 -340.54075 -205.509)
(-1707.0763 -315.18813 -217.98617)
(-1948.6377 -280.00523 -226.12933)
(-2184.9789 -236.86028 -230.33664)
(-2411.1969 -187.89177 -230.24793)
(-2622.8472 -135.4967 -226.43788)
(-2817.0048 -81.607735 -219.30864)
(-2992.4761 -28.444504 -209.48131)
(-3149.5183 22.46428 -197.2611)
(-3289.6961 70.527906 -183.83354)
(-3417.2446 114.97497 -169.88777)
(-3534.9929 155.20415 -155.03763)
(-3648.3639 193.54415 -141.35329)
(-3758.3134 227.59705 -127.08031)
(7.4368241 42.741411 69.042186)
(-61.900216 96.846656 31.166682)
(-156.50425 152.86833 16.824781)
(-271.65008 199.93084 -18.730468)
(-404.55395 238.37909 -48.234248)
(-560.30273 285.82026 -82.527795)
(-722.96858 320.76289 -113.16485)
(-900.40429 360.34485 -145.33613)
(-1085.4777 397.85166 -173.65775)
(-1280.3643 434.84666 -200.9738)
(-1482.3949 473.32624 -224.88881)
(-1691.493 511.22849 -246.04098)
(-1906.7228 550.72662 -263.55615)
(-2126.1332 590.30687 -277.08439)
(-2348.4924 630.64742 -286.68553)
(-2571.2472 671.19482 -291.9964)
(-2791.7981 711.87053 -293.13863)
(-3007.2786 751.87638 -290.32488)
(-3214.6913 791.39416 -283.84466)
(-3411.1556 829.46897 -274.03575)
(-3595.2399 866.48061 -262.08057)
(-3764.7011 901.28989 -247.7005)
(-3940.8098 940.30293 -234.539)
(0 0 0)
(0 0 0)
(0 0 0)
(-23.867321 44.284086 -60.162897)
(-76.346451 174.94204 -81.719143)
(-166.29515 204.06034 -84.792293)
(-264.40579 270.8811 -101.81271)
(-398.27055 328.67429 -124.54685)
(-541.11951 359.97149 -137.15822)
(-695.86331 402.21501 -162.2812)
(-869.07329 433.09627 -179.29387)
(-1049.9986 462.26374 -198.40388)
(-1240.2565 488.19391 -215.87741)
(-1438.8734 511.93322 -231.13762)
(-1644.6005 535.87396 -245.04367)
(-1856.115 558.26271 -256.22447)
(-2071.4132 581.53297 -265.02392)
(-2288.4633 605.2722 -271.16357)
(-2504.5858 629.73001 -274.3253)
(-2717.1383 655.88162 -274.83637)
(-2923.4937 682.93678 -272.43187)
(-3120.9389 711.59062 -267.5388)
(-3307.6068 741.40427 -260.31199)
(-3482.0021 772.11605 -251.00069)
(-3643.5849 803.86557 -240.17304)
(-3771.7795 831.4518 -226.43675)
(-4141.169 730.60527 -199.8312)
(-3721.4755 489.9043 -155.81126)
(-3732.4813 331.04417 -133.31343)
(-3710.3214 145.40305 -128.08022)
(-3613.0349 110.87651 -144.46257)
(-3493.2104 74.731395 -161.52725)
(-3367.0672 36.520342 -179.11126)
(-3231.1286 -2.8805032 -196.33718)
(-3081.7951 -43.491009 -212.02852)
(-2917.4134 -84.411444 -225.22579)
(-2736.7594 -124.64121 -235.00915)
(-2540.3986 -163.05029 -240.25296)
(-2329.7492 -198.37274 -240.51815)
(-2107.7893 -229.08952 -235.20026)
(-1878.2673 -254.40189 -224.43659)
(-1645.3835 -272.54168 -208.58559)
(-1414.138 -283.99829 -187.9219)
(-1197.6827 -289.46975 -164.7053)
(-971.17359 -282.05569 -136.32761)
(-771.52119 -270.8193 -106.60973)
(-587.24869 -250.39501 -77.60615)
(-421.00661 -224.87535 -44.620632)
(-274.85889 -186.24266 -17.752446)
(-157.83957 -154.59253 15.404025)
(-62.801766 -96.435609 30.455577)
(-23.695879 -51.627551 43.106048)
(0 0 0)
(0 0 0)
(0 0 0)
(0 0 0)
(0 0 0)
(0 0 0)
(-4098.9312 956.96908 -221.3742)
(-4075.5729 934.60428 -220.89207)
(-4052.7304 911.55858 -220.946)
(-4029.9325 251.79813 -119.59632)
(-4007.276 230.31102 -119.69258)
(-3985.2775 208.8351 -118.78134)
(-0.57017188 -37.220769 -43.110375)
(-49.191879 -75.566822 -39.759925)
(-124.8445 -112.37311 -59.352813)
(-233.09804 -142.45039 -74.604767)
(-370.25452 -169.22444 -97.437996)
(-541.97833 -186.06068 -120.16331)
(-738.38243 -193.7917 -145.14901)
(-962.36225 -190.39554 -169.84138)
(-1204.1924 -175.86501 -192.69806)
(-1457.0917 -149.15002 -212.6788)
(-1713.5512 -113.28383 -228.39908)
(-1962.8617 -68.864771 -239.39101)
(-2198.2198 -19.486896 -244.5637)
(-2412.8352 32.157469 -244.56508)
(-2603.5499 83.369133 -239.77695)
(-2769.8357 132.2137 -231.11333)
(-2913.4986 177.23093 -219.64694)
(-3039.2734 218.04967 -206.44483)
(-3152.1397 254.87386 -192.80709)
(-3259.1437 288.21811 -178.84991)
(-3366.8727 318.76824 -165.81559)
(-3481.1798 348.5868 -153.79921)
(-3626.7369 379.19641 -143.6417)
(19.6901 -20.693199 -17.242315)
(-49.034963 -34.87292 -23.663024)
(-144.46502 -47.134812 -44.624633)
(-274.59017 -52.506694 -66.109719)
(-431.33749 -47.256379 -90.749337)
(-605.3324 -37.66105 -115.9044)
(-794.11488 -21.572149 -141.20778)
(-991.18828 1.2123295 -165.00713)
(-1190.9206 27.481658 -185.96567)
(-1391.7292 58.252468 -204.23198)
(-1589.0861 91.660197 -218.79301)
(-1782.6971 127.31408 -229.41317)
(-1971.5568 164.62689 -236.281)
(-2156.3198 202.64261 -239.68444)
(-2338.0896 241.64488 -239.80534)
(-2518.4063 280.94579 -237.21595)
(-2699.0725 320.74044 -232.37315)
(-2881.9143 360.90008 -225.71066)
(-3067.5684 401.61277 -217.67298)
(-3257.9364 442.57206 -208.7305)
(-3452.0635 484.26775 -199.01338)
(-3649.8728 526.17876 -189.06249)
(-3828.1302 565.30821 -177.7403)
(25.790821 11.356604 20.705602)
(-67.752546 28.125962 4.0331886)
(-175.21324 48.758323 -21.285101)
(-322.52276 78.078937 -50.677863)
(-479.25672 107.1782 -80.775831)
(-646.83267 131.66011 -110.00113)
(-817.27651 162.14531 -137.19453)
(-985.79543 187.9822 -160.50816)
(-1153.5934 215.43197 -181.27585)
(-1320.0132 243.09341 -198.89388)
(-1488.0959 270.908 -213.8141)
(-1660.3414 300.86135 -226.66778)
(-1839.6459 332.19699 -237.54703)
(-2028.4271 366.31927 -246.54769)
(-2228.0808 403.24339 -253.60629)
(-2439.1061 443.04568 -258.43247)
(-2660.5362 485.95311 -260.78467)
(-2890.0845 531.35551 -260.16159)
(-3124.8966 579.15574 -256.74601)
(-3360.4969 627.92665 -249.85803)
(-3592.8073 677.92118 -240.66366)
(-3817.7299 726.93028 -228.83574)
(-3997.785 769.08926 -213.58415)
(0 0 0)
(0 0 0)
(0 0 0)
(0 0 0)
(0 0 0)
(0 0 0)
(0 0 0)
(0 0 0)
(0 0 0)
(-23.163675 21.444339 31.336676)
(-35.723614 32.023525 5.5318696)
(-36.064629 23.662432 -19.188325)
(-94.493888 133.56444 9.4463917)
(-97.563695 144.15631 -16.945266)
(-96.910337 147.0893 -48.610718)
(-178.23745 169.99545 -7.5641863)
(-186.44469 176.23025 -31.224297)
(-186.68841 201.19722 -62.827907)
(-285.17402 222.39999 -38.982783)
(-290.61776 243.41397 -59.31403)
(-284.16468 251.03248 -82.201532)
(-420.90218 271.28716 -66.058873)
(-421.38556 287.2173 -82.309846)
(-417.37513 309.13216 -104.70949)
(-565.54695 310.19744 -96.246014)
(-565.14046 329.20333 -111.60309)
(-557.58048 343.70649 -126.37226)
(-726.89613 349.18113 -126.24145)
(-723.63679 368.23327 -136.12209)
(-715.64476 384.53474 -150.88082)
(-900.87117 385.77983 -155.17396)
(-891.98965 400.20652 -162.77333)
(-883.75546 415.52228 -172.85054)
(-1082.458 420.41707 -181.95499)
(-1072.8024 434.98263 -187.59098)
(-1061.7218 446.16972 -193.87653)
(-1274.083 454.92795 -206.83937)
(-1262.0296 465.00146 -210.09084)
(-1249.999 474.72076 -213.87078)
(-1473.4074 488.31899 -228.99389)
(-1459.7536 495.91127 -230.67623)
(-1445.6272 501.47664 -231.38446)
(-1680.5464 522.71022 -248.50529)
(-1664.5797 525.78959 -248.13848)
(-1649.2917 528.45208 -246.9182)
(-1893.4242 556.49446 -264.23679)
(-1876.0724 556.09128 -262.68842)
(-1859.3433 555.22465 -259.73242)
(-2111.0396 591.23219 -276.49403)
(-2092.1584 586.89761 -273.99009)
(-2074.3884 582.35313 -269.55407)
(-2331.3576 626.22158 -284.86785)
(-2311.3174 618.42063 -281.43939)
(-2292.553 610.52234 -276.3997)
(-2551.8804 661.82153 -289.17491)
(-2530.8435 650.64722 -285.4413)
(-2511.3716 639.22923 -280.02299)
(-2770.0242 697.76415 -289.71791)
(-2748.3189 683.61774 -285.73794)
(-2728.0018 669.29243 -280.5049)
(-2982.9336 733.76154 -286.51242)
(-2960.4803 717.22954 -282.64229)
(-2939.6683 700.20972 -277.89527)
(-3187.5145 769.92856 -279.99673)
(-3164.9141 751.24678 -276.41161)
(-3143.4317 731.97779 -272.48585)
(-3381.8402 805.51662 -270.4408)
(-3358.785 785.37868 -267.65107)
(-3336.6534 764.56725 -264.60811)
(-3563.2113 840.71291 -258.92202)
(-3539.9274 819.35515 -256.74512)
(-3517.5377 797.42224 -254.46865)
(-3730.9839 874.83608 -245.63181)
(-3707.8794 853.15221 -244.1792)
(-3685.0371 830.46447 -242.76488)
(-3884.5677 908.43074 -231.58842)
(-3861.6985 886.21399 -230.55917)
(-3838.6086 863.70691 -229.97916)
(-3729.7188 387.57515 -132.86283)
(-3708.8927 367.16344 -132.5689)
(-3688.4397 346.78176 -131.69473)
(-3792.1504 554.00674 -157.62234)
(-3784.3565 535.35127 -158.09517)
(-3763.5577 514.34822 -157.36411)
(-4154.8806 788.66026 -198.35357)
(-4150.7688 769.34652 -198.77196)
(-4127.9422 746.47249 -198.43643)
(-57.452949 -59.963036 -28.226056)
(-52.64669 -60.979641 -7.7708739)
(-50.198839 -54.57396 16.337799)
(-100.30777 -127.81283 -37.279736)
(-101.24571 -118.16311 -11.909375)
(-90.733588 -109.23122 13.910948)
(-193.69295 -193.49284 -55.421072)
(-189.07008 -177.44594 -34.975056)
(-181.82717 -168.39686 -6.5880375)
(-303.01182 -238.91518 -72.885149)
(-303.81034 -221.76816 -53.268591)
(-294.68793 -210.34583 -32.120894)
(-447.58133 -280.5955 -96.807103)
(-447.39038 -263.20006 -79.233614)
(-437.6538 -246.19047 -60.633488)
(-612.40275 -310.39706 -118.36364)
(-609.38172 -289.24591 -105.39663)
(-602.86514 -273.87797 -89.933373)
(-798.97347 -328.81041 -142.53401)
(-796.98012 -310.89455 -130.52692)
(-788.28348 -292.44192 -118.18065)
(-1004.6109 -338.87921 -164.73222)
(-999.97057 -319.93701 -155.59572)
(-992.99641 -304.22328 -146.42556)
(-1226.6438 -337.6344 -185.67577)
(-1215.5664 -320.70509 -178.65281)
(-1205.9223 -305.15028 -172.10128)
(-1449.8693 -324.84245 -203.21207)
(-1451.3979 -312.94322 -200.07117)
(-1436.8186 -298.57381 -195.07153)
(-1690.728 -303.70861 -217.612)
(-1681.3434 -293.83426 -215.86486)
(-1670.1539 -283.35817 -214.34415)
(-1927.7986 -273.36117 -228.21013)
(-1916.7447 -267.00646 -228.62167)
(-1904.8313 -259.81414 -228.82432)
(-2161.0999 -235.14939 -234.10802)
(-2148.342 -232.84585 -236.12605)
(-2135.0007 -229.36105 -238.0466)
(-2385.2754 -191.18623 -235.50695)
(-2370.718 -193.03614 -238.95109)
(-2356.3154 -193.24072 -241.93231)
(-2596.43 -143.20828 -232.67349)
(-2580.4018 -148.98858 -236.78299)
(-2564.8305 -152.93078 -240.39788)
(-2791.6322 -93.278677 -225.94047)
(-2774.1528 -102.80668 -230.2564)
(-2757.6614 -110.27896 -234.13502)
(-2969.4875 -43.22772 -215.83807)
(-2950.8965 -56.011808 -219.95962)
(-2933.4688 -66.496917 -223.60306)
(-3129.8215 5.4287804 -203.18297)
(-3110.2278 -9.8744564 -206.76728)
(-3092.1344 -23.220346 -209.98933)
(-3274.4186 52.253807 -188.81858)
(-3254.2478 34.467088 -191.60158)
(-3235.2362 19.095747 -194.1663)
(-3405.6015 95.222067 -173.27426)
(-3384.4431 76.379321 -175.46591)
(-3365.1526 59.122975 -177.06444)
(-3527.2663 135.81966 -157.51604)
(-3505.5292 115.81643 -158.84367)
(-3485.8041 97.241309 -159.84373)
(-3643.4587 173.56633 -142.70047)
(-3621.9935 152.96882 -143.15879)
(-3601.5189 133.02598 -143.25121)
(-3758.6891 208.37285 -127.80063)
(-3737.1797 187.48282 -127.76191)
(-3715.9672 167.11317 -127.82269)
(9.44363 -10.852292 16.991766)
(-36.85529 -42.102624 10.781875)
(-104.77902 -47.283246 -8.357172)
(-213.5566 -67.598817 -25.56768)
(-344.6102 -82.04362 -51.112022)
(-506.84667 -93.801006 -78.61608)
(-697.8955 -102.75381 -109.66878)
(-911.76605 -104.96879 -140.66584)
(-1148.4718 -101.71954 -170.58119)
(-1399.3288 -89.920413 -198.63864)
(-1656.9067 -72.395154 -221.26536)
(-1912.5073 -47.636006 -238.41804)
(-2157.8878 -17.896628 -248.94593)
(-2385.4634 15.535537 -252.4397)
(-2590.5729 50.995174 -249.80737)
(-2770.3461 86.813409 -241.94047)
(-2924.9497 121.88235 -230.20446)
(-3056.5815 155.23403 -216.02122)
(-3169.6246 186.52791 -200.56439)
(-3269.2194 215.81541 -184.87759)
(-3362.3103 243.73461 -169.80698)
(-3455.3763 270.48599 -155.89266)
(-3537.977 296.19251 -142.16434)
(17.27285 -5.0345159 -7.4448402)
(-41.71913 8.9979498 -21.954762)
(-136.03383 20.345382 -45.032611)
(-259.09286 24.69183 -65.300219)
(-409.37742 36.126814 -92.523026)
(-583.98347 46.742345 -119.94422)
(-773.4122 60.571611 -145.8693)
(-975.04899 74.532618 -170.68442)
(-1183.4038 92.397882 -192.77297)
(-1391.9985 110.35991 -211.20784)
(-1597.4633 130.19236 -225.50605)
(-1796.1517 151.22593 -236.15022)
(-1985.0502 173.04624 -242.372)
(-2164.4605 195.71979 -244.80909)
(-2333.9907 219.33136 -243.82647)
(-2495.5397 243.96952 -239.8395)
(-2651.4977 269.82829 -233.30805)
(-2804.6041 297.00445 -225.01046)
(-2957.995 326.02769 -215.08237)
(-3114.387 356.75645 -204.54429)
(-3276.774 389.89841 -193.22443)
(-3446.8202 424.91682 -182.00579)
(-3669.9112 468.6299 -172.50722)
(21.529311 37.512625 -43.675794)
(-78.491572 68.711496 -56.232867)
(-181.24269 139.32061 -80.876525)
(-315.13784 155.01184 -91.455674)
(-470.43387 199.57638 -117.28103)
(-631.76439 225.33341 -135.83047)
(-796.41368 245.63517 -155.22195)
(-963.06501 267.26822 -174.01241)
(-1127.6197 281.39889 -189.17171)
(-1291.7246 297.57032 -203.24191)
(-1456.6523 311.33302 -215.23229)
(-1624.6055 326.73695 -225.43386)
(-1798.1781 343.05756 -234.02188)
(-1979.5741 361.67636 -240.79382)
(-2169.824 383.20233 -245.97553)
(-2369.8409 407.80363 -249.01493)
(-2578.717 435.88723 -250.10014)
(-2795.1814 467.78571 -248.72427)
(-3016.5344 503.15802 -245.04938)
(-3239.9798 542.04467 -238.9705)
(-3462.0216 584.03438 -230.70871)
(-3679.4434 628.16779 -220.74796)
(-3904.9143 677.16161 -209.9724)
(-11.883945 -13.0445 -17.638904)
(-10.850201 -14.973221 -8.8395175)
(-13.240878 -9.5254592 8.2144109)
(-65.609652 -65.036444 -23.801731)
(-70.535914 -57.764313 -10.346467)
(-57.71825 -53.957781 3.4497271)
(-139.747 -90.721964 -41.554811)
(-137.0027 -78.397538 -29.727095)
(-131.01142 -67.162486 -16.404359)
(-242.48764 -121.06649 -60.281183)
(-245.19972 -107.08337 -47.159251)
(-236.46036 -92.628255 -34.396595)
(-377.0609 -143.49601 -81.890064)
(-378.0033 -125.12869 -71.268292)
(-369.97898 -107.81466 -60.789804)
(-541.57543 -158.9848 -108.00442)
(-540.79859 -140.55584 -98.476821)
(-531.26676 -121.81379 -87.969263)
(-733.12805 -166.9159 -134.65179)
(-731.37983 -148.41818 -126.25788)
(-723.69752 -128.86282 -119.0814)
(-951.72671 -166.09529 -161.39248)
(-948.15615 -147.45797 -155.45572)
(-938.08249 -128.38065 -149.34775)
(-1189.7911 -153.84493 -187.33874)
(-1183.1723 -138.16265 -183.39903)
(-1173.4904 -121.81736 -178.92247)
(-1440.8297 -132.68416 -209.84313)
(-1432.8698 -119.92981 -207.63998)
(-1421.7509 -105.16422 -204.57932)
(-1697.706 -101.34542 -228.45946)
(-1686.8366 -92.229419 -228.06238)
(-1674.6903 -82.294399 -226.68991)
(-1949.7373 -62.570646 -241.95787)
(-1937.1435 -58.104058 -242.4348)
(-1923.9603 -51.87154 -241.61162)
(-2190.4418 -18.385889 -249.25453)
(-2175.8327 -18.30995 -250.44105)
(-2161.3425 -16.869015 -250.6221)
(-2412.0069 28.841954 -250.78758)
(-2395.771 24.394184 -252.30529)
(-2380.2594 21.573814 -252.67214)
(-2610.6953 76.39772 -246.80879)
(-2593.2346 68.028412 -248.27987)
(-2576.6982 60.986906 -248.82235)
(-2784.6633 122.47425 -238.38613)
(-2766.1959 110.56005 -239.65539)
(-2748.867 99.985806 -240.15768)
(-2934.8523 165.41585 -226.47826)
(-2915.7985 150.78086 -227.53951)
(-2897.7653 137.3238 -227.87858)
(-3064.6875 204.8567 -212.60986)
(-3044.9683 188.14125 -213.32138)
(-3026.4989 172.30841 -213.59281)
(-3178.3377 240.56529 -197.69522)
(-3159.0773 222.17142 -198.24606)
(-3139.6895 204.67661 -198.17485)
(-3291.8379 273.3555 -183.27882)
(-3255.0511 252.76879 -182.54477)
(-3243.4642 234.77539 -182.9049)
(-3388.3357 302.84507 -168.69861)
(-3359.9567 282.65646 -168.29327)
(-3343.9251 263.14056 -168.33652)
(-3488.6235 330.62837 -155.32613)
(-3467.7828 310.7397 -155.33132)
(-3447.6856 290.52938 -154.96111)
(-3601.4711 358.37795 -143.19855)
(-3580.8104 338.16769 -143.15024)
(-3560.4176 317.74673 -142.46114)
(-0.093962898 -8.8621697 -6.6780609)
(-2.5883489 -9.7541858 -0.05560099)
(-5.6144395 -6.8086206 -0.61500721)
(-66.328018 -21.53528 -14.250156)
(-68.602915 -16.012887 -12.688227)
(-58.925864 -4.5847666 -15.508039)
(-163.88809 -27.797936 -38.393124)
(-161.40611 -15.873553 -40.678048)
(-160.29861 1.1980072 -40.140457)
(-285.46526 -28.10563 -59.241085)
(-289.62785 -11.338082 -59.388441)
(-280.92156 11.285291 -62.151025)
(-442.1944 -23.177797 -86.805621)
(-439.19049 -4.9742427 -90.283836)
(-431.3724 15.915179 -89.691827)
(-611.96644 -12.889244 -114.48571)
(-609.52569 5.8160982 -115.49046)
(-602.152 30.166609 -117.83031)
(-801.41281 1.9154974 -140.56753)
(-797.00554 21.40721 -143.39755)
(-787.27258 44.289122 -143.60681)
(-999.65734 23.312488 -167.39147)
(-992.73124 40.267924 -169.27121)
(-982.31284 60.384323 -169.67994)
(-1202.157 46.653472 -189.49758)
(-1193.6316 61.634796 -191.0625)
(-1182.7078 80.004959 -190.8475)
(-1406.5451 74.658432 -209.47505)
(-1396.1656 86.50199 -210.94622)
(-1384.1789 101.06811 -210.27493)
(-1607.1053 104.63325 -225.00054)
(-1594.9567 113.28899 -225.51823)
(-1581.9951 123.64901 -224.18622)
(-1802.9949 136.64904 -236.04978)
(-1789.0977 140.97489 -236.26196)
(-1775.7416 147.46797 -234.85341)
(-1992.0283 169.81867 -242.90454)
(-1976.5308 170.62562 -242.6304)
(-1962.2764 172.84676 -241.22218)
(-2174.1965 203.80473 -245.68775)
(-2157.2198 200.66888 -245.00139)
(-2142.6303 198.84606 -243.81242)
(-2350.3951 238.39616 -244.85598)
(-2332.2048 231.5871 -244.01395)
(-2316.9768 226.1503 -243.13327)
(-2521.9118 273.32181 -241.03384)
(-2502.6653 263.18143 -240.07575)
(-2486.9296 254.47449 -239.63285)
(-2690.9746 308.66636 -234.75542)
(-2671.0706 295.61948 -233.88204)
(-2654.5588 284.11099 -233.72638)
(-2859.7074 344.62596 -226.71845)
(-2839.1924 329.00417 -225.99802)
(-2821.8062 314.99767 -226.13886)
(-3030.0098 381.11151 -217.36151)
(-3009.2211 363.50828 -216.82192)
(-2991.0761 347.32758 -216.93649)
(-3204.7076 418.60119 -207.30255)
(-3182.9369 398.70533 -206.68569)
(-3164.0283 381.45831 -207.12095)
(-3364.2266 454.02391 -195.15265)
(-3393.51 440.78569 -198.5094)
(-3341.5766 417.13893 -196.26942)
(-3568.1105 496.01092 -186.14154)
(-3546.274 474.96618 -185.75534)
(-3525.1926 454.46011 -185.35718)
(-3758.1564 536.35346 -175.12226)
(-3736.2148 514.91704 -174.60486)
(-3715.02 493.72191 -174.33149)
(0.30800591 17.994227 10.822159)
(1.2675945 17.523841 -4.7816939)
(0.61697303 20.287562 -18.831091)
(-98.351251 43.004703 -5.1024833)
(-103.26168 40.260835 -23.34646)
(-96.496372 58.088884 -38.351674)
(-199.71099 76.46058 -31.32054)
(-203.37298 102.50591 -47.876008)
(-202.01851 116.90621 -62.705219)
(-342.4938 111.0328 -58.735952)
(-342.37612 122.81808 -71.896706)
(-335.56811 142.22374 -82.427211)
(-493.48065 136.64474 -90.343989)
(-492.82535 160.73939 -101.16605)
(-486.37921 177.37331 -108.82426)
(-657.38206 165.38184 -116.931)
(-654.62606 186.03228 -124.7199)
(-645.42222 204.79635 -130.5469)
(-824.73009 192.24286 -144.38857)
(-819.54465 212.32356 -150.58947)
(-809.5447 227.19495 -154.13289)
(-991.13713 215.95043 -166.97164)
(-983.61525 234.38758 -170.07221)
(-973.01576 248.69327 -172.84514)
(-1157.4339 240.42573 -186.98755)
(-1148.4052 255.45572 -189.3642)
(-1136.8483 267.34874 -190.6474)
(-1322.5858 263.96358 -204.20678)
(-1311.7377 276.71156 -204.98662)
(-1299.2993 285.28935 -204.66093)
(-1489.203 287.94301 -218.41958)
(-1476.9528 296.67526 -218.13288)
(-1463.5653 302.93713 -217.34195)
(-1659.3946 313.15548 -230.63478)
(-1645.6166 318.63209 -229.72873)
(-1631.3405 321.69263 -228.1369)
(-1835.5994 339.7291 -240.80612)
(-1820.721 341.79056 -239.18466)
(-1805.3034 341.9312 -237.12334)
(-2020.3409 368.92694 -249.003)
(-2004.2616 367.36188 -247.0728)
(-1987.8403 364.16348 -244.68523)
(-2214.7465 400.58812 -255.20608)
(-2197.7254 395.68773 -253.06958)
(-2180.2241 389.46211 -250.42502)
(-2419.5532 435.25718 -259.17749)
(-2401.5773 427.20839 -256.92797)
(-2382.9867 417.69616 -254.14981)
(-2633.9888 473.07299 -260.56823)
(-2615.0648 461.91958 -258.40789)
(-2595.5821 449.35196 -255.60579)
(-2856.328 513.80145 -259.24192)
(-2836.513 499.91976 -257.18896)
(-2816.0211 484.34571 -254.46718)
(-3083.9523 557.10941 -255.0186)
(-3063.0527 540.56269 -253.12342)
(-3042.0729 522.73651 -250.6097)
(-3313.2119 602.57158 -247.83347)
(-3291.8915 584.40991 -246.35148)
(-3269.8043 564.08634 -244.00759)
(-3540.8026 649.7705 -238.25494)
(-3518.167 629.43915 -236.70639)
(-3495.5876 607.76091 -235.13888)
(-3762.3038 697.51971 -226.47618)
(-3739.2099 675.94683 -225.44938)
(-3716.2841 653.06738 -223.97027)
(-3974.0249 744.91497 -213.04881)
(-3950.9694 722.79601 -212.32408)
(-3927.5271 699.3688 -211.29763)
)
;

boundaryField
{
    free
    {
        type            zeroGradient;
    }
    fixed
    {
        type            fixedValue;
        value           uniform (0 0 0);
    }
    traction
    {
        type            zeroGradient;
    }
}


// ************************************************************************* //
