/*--------------------------------*- C++ -*----------------------------------*\
  =========                 |
  \\      /  F ield         | OpenFOAM: The Open Source CFD Toolbox
   \\    /   O peration     | Website:  https://openfoam.org
    \\  /    A nd           | Version:  6
     \\/     M anipulation  |
\*---------------------------------------------------------------------------*/
FoamFile
{
    version     2.0;
    format      ascii;
    class       pointScalarField;
    location    "1.81";
    object      p;
}
// * * * * * * * * * * * * * * * * * * * * * * * * * * * * * * * * * * * * * //

dimensions      [1 -1 -2 0 0 0 0];

internalField   nonuniform List<scalar> 
3969
(
-170402.87
261048.14
5983.6215
1973.6028
-281640.03
512456.15
2842.0333
405.37627
-111368.51
-78060.93
-35718.822
2136.5911
29821.423
77534.932
79641.271
-16104.31
-7484.8096
-6586.0428
-873.63269
4531.6715
9305.6983
9412.2044
-43766.68
-45477.59
-39110.111
-36044.211
-30257.323
-24670.217
-18728.716
-12031.025
-6342.9888
296.74394
6150.7223
12336.415
17489.998
23481.219
28913.158
34200.786
39854.878
44767.259
49833.486
54387.578
58987.512
63047.018
66967.629
70728.709
73755.212
76479.006
78512.131
80254.871
82015.986
82355.169
82672.95
82152.937
81017.624
79113.26
76758.725
74084.767
69802.562
66010.213
59923.268
55844.506
48338.401
42657.775
36742.515
28080.277
24365.331
17251.271
11582.304
52164.174
40218.116
40473.092
31484.178
30091.661
23070.896
17949.342
11687.134
5826.3295
-119.70287
-6566.5955
-12141.859
-18023.875
-23662.281
-29189.822
-34318.012
-39491.936
-44386.865
-48931.725
-53659.546
-57291.714
-61853.802
-64521.997
-68447.871
-70781.034
-73253.659
-74663.738
-76011.447
-76953.997
-77507.262
-77919.56
-77350.492
-76579.56
-74901.252
-72907.701
-70114.91
-67071.868
-62299.293
-58750.833
-52701.982
-47360.184
-41376.25
-35411.601
-28189.41
-21589.236
-15934.256
-8891.5337
-175852.07
-127947.98
-37997.821
19706.307
77434.625
149353.25
114589.66
66796.632
68691.076
32591.164
45265.653
33106.576
28200.607
22412.55
14903.429
8616.3182
1742.6904
-4384.8607
-10019.672
-16154.547
-22890.506
-27552.256
-34567.951
-39027.508
-45512.185
-49749.033
-55468.993
-59714.646
-64504.944
-68414.311
-72247.46
-75866.805
-79077.975
-81694.287
-83681.481
-85528.986
-86351.211
-86364.891
-85884.548
-84637.411
-82571.441
-80294.436
-77513.645
-69817.281
-68400.166
-62831.557
-56992.683
-50468.955
-44294.705
-36638.797
-29409.108
-22602.007
-15527.887
-9378.4993
14413.426
7698.2176
4476.0829
2629.277
-8104.9303
-7504.3964
-16648.578
23858.42
20343.986
23690.629
31215.582
38318.76
44983.49
52054.298
58087.955
64172.73
68659.371
71244.12
80842.542
80691.78
83979.208
85980.461
87572.221
87789.144
88033.18
87457.854
86000.213
84606.999
82235.304
79653.186
76429.922
73149.915
69088.867
65193.108
60255.423
55958.458
50443.413
45515.897
39806.636
33635.118
28910.074
22469.049
15886.221
10169.158
4086.3997
-2247.4602
-8878.0811
-16466.275
-20391.793
-28191.458
-33996.828
-33714.071
-46597.347
-50875.265
-146569.12
-163002.67
-170666.95
-168743.11
-167563.56
-162147.4
-140746.88
221096.2
276763.94
312174.29
336477.14
322500.22
322454.51
279318.65
3968.1116
4998.2703
5706.8328
7053.7343
6358.0663
4819.0141
4633.234
-3043.6576
-1190.2118
-2193.8233
-3062.4075
-2304.4881
2409.2521
-1897.9229
-36663.637
-33498.035
-30183.235
-27318.811
-23729.485
-19529.537
-14838.275
-10582.837
-5413.5377
-1057.8771
3994.8888
8269.473
13700.171
18250.56
22916.592
27428.525
31915.477
35913.191
40178.834
43986.674
47886.723
51197.541
54683.302
57725.028
60589.521
62568.874
64458.503
65984.198
66673.728
67048.988
66930.119
66224.878
65003.171
63225.578
61126.349
58052.005
54332.732
51261.454
46856.889
43002.434
37588.887
33781.307
27176.687
22568.238
18311.305
9908.8064
4107.2515
-24226.166
-20199.688
-18763.864
-18273.569
-15215.127
-13533.569
-10269.515
-7269.8354
-4144.2881
-863.32922
2112.105
5481.4496
8127.6493
11035.354
13891.944
16657.205
19438.665
22012.763
24681.891
26986.368
29136.738
31170.405
33111.914
34822.909
36123.95
37691.691
39059.516
39273.94
40245.407
40255.454
40369.652
40019.171
39278.472
38450.249
37230.988
35635.991
34202.948
32359.238
29366.423
27570.202
23880.762
21650.759
17389.947
15671.1
11549.418
6074.8175
145.48585
-10389.444
-9979.8485
-9203.9115
-8794.7689
-7137.7534
-6444.5186
-4896.8305
-3531.6512
-1983.4954
-447.08279
1178.8423
2571.7874
3971.5215
5204.3221
6587.4268
7911.3522
9496.3013
10679.022
12267.465
13334.718
15055.803
16226.009
17586.426
18552.841
20006.297
20634.574
21174.593
22039.59
22323.22
22442.724
22485.04
22140.762
21707.215
21036.472
20312.456
19063.781
18134.384
16362.76
15226.755
13945.165
11809.132
11431.512
8400.0265
7990.3476
5196.5285
1783.9408
599.86289
-1319.7321
-186.15104
353.72283
-417.27094
526.70918
-274.04326
-204.07118
-215.41396
-663.97592
-353.85328
-899.34019
-995.76667
-1242.7847
-1296.9533
-1435.7619
-1739.7393
-1703.3418
-2051.0316
-2026.219
-2396.0429
-2591.9334
-3456.2085
-3848.37
-3705.4369
-3806.0099
-4182.173
-3983.0284
-4140.168
-4144.5585
-4048.0649
-3991.4078
-3798.0681
-3735.0112
-3485.7593
-3355.7593
-2795.5937
-2892.9142
-2321.3458
-1615.973
-1410.0883
-683.68389
-218.35919
-836.31512
1087.4005
551.43559
1721.6569
2713.4873
11632.542
10847.37
9329.602
8701.8007
7718.7792
6065.0478
4432.0477
2790.6177
945.8909
-822.12564
-2857.6922
-4608.9415
-6212.764
-8057.6152
-9525.658
-11180.656
-12462.68
-14073.311
-15116.299
-16664.309
-16999.539
-17860.618
-18394.454
-18404.501
-19373.212
-20567.138
-20572.004
-20815.996
-20783.707
-20954.406
-20598.56
-20593.345
-19931.035
-19742.781
-18647.083
-18200.086
-17363.776
-15914.174
-16016.668
-14478.432
-13317.613
-12042.957
-9851.4499
-7603.6586
-5980.674
-2719.2821
796.13214
25558.668
21823.79
19458.346
17827.296
15633.794
12225.117
8903.9667
5453.8304
1846.3374
-1979.9155
-5209.2613
-8738.3742
-12196.075
-15635.588
-18611.671
-21907.045
-24726.137
-27801.807
-30255.939
-33174.562
-34550.531
-36962.375
-37576.888
-38889.512
-39632.76
-40796.091
-41627.717
-42366.764
-42790.564
-42962.518
-43087.414
-42677.536
-42168.589
-41114.847
-40177.59
-38396.469
-36596.291
-34691.722
-32201.483
-30082.219
-27335.561
-23978.182
-19663.064
-16083.44
-11196.776
-5719.3621
2514.7318
44268.72
27550.076
29418.303
25670.357
22333.207
17761.922
12724.769
8217.6591
2752.4882
-1861.7975
-6692.8878
-12070.873
-16871.796
-21498.065
-26383.849
-30560.7
-35086.082
-38730.455
-43050.09
-46179.953
-50003.148
-52649.182
-56094.812
-58547.773
-60937.188
-62780.143
-65131.727
-66123.254
-66814.005
-67155.301
-67213.06
-66723.94
-65612.688
-64235.531
-62098.139
-59544.041
-56826.209
-53216.428
-49628.708
-44429.607
-39490.402
-34134.865
-28582.238
-23687.664
-17545.157
-11441.426
-2478.509
-93179.414
-86128.806
-90309.624
-89606.766
-88921.398
-82452.743
-77481.745
-58452.577
-67833.144
-62064.838
-64159.422
-62222.65
-58155.068
-54944.097
-26486.942
-29435.964
-24212.737
-26458.813
-23109.683
-20764.045
-22919.282
-4149.9398
709.4457
2614.7921
919.57759
3763.924
7001.5472
-490.486
16596.161
20045.669
21816.756
21218.604
22545.73
22032.063
15416.427
57808.299
66516.693
66736.128
70670.018
72893.094
71529.581
70811.227
73375.73
65277.725
61827.959
65219.46
60863.71
57633.41
61431.108
89693.764
91669.72
102024.8
106392.07
110225.48
108376.04
88410.999
60829.356
72648.114
73276.346
74162.538
79747.817
74625.286
69085.733
39422.441
45614.774
49292.675
50459.31
49260.074
46102.581
50038.446
36636.804
41938.81
41349.092
44377.521
43140.62
43344.359
39320.882
31444.316
34209.781
35610.595
35817.827
35929.513
34671.94
35445.585
25350.35
25150.431
26099.533
27267.28
26566.216
26449.653
26142.405
18615.262
19579.533
20572.947
20834.94
20801.339
21998.221
21758.217
12836.965
12884.908
13134.999
13469.568
13012.22
13760.597
14141.515
6303.347
6315.3929
6685.9779
7052.7482
7092.7707
7742.8624
7679.3478
17.629918
32.526938
141.5493
207.30247
609.87813
1060.2672
887.51643
-6090.1107
-6123.1698
-5833.1727
-5839.4474
-5634.5553
-5037.6857
-5541.0394
-11797.259
-12539.589
-12040.993
-12220.361
-11906.37
-11199.316
-10994.476
-18004.635
-18633.903
-18147.857
-18053.598
-17932.15
-16354.393
-16668.505
-23880.026
-24272.178
-23998.917
-23902.126
-23402.643
-22491.122
-22675.432
-29538.144
-29896.014
-29728.881
-29168.976
-29228.896
-27712.473
-28238.131
-35227.362
-35417.37
-35217.408
-34825.576
-34770.757
-33307.103
-33608.25
-40363.196
-40502.418
-40555.818
-39870.888
-39970.304
-38161.209
-38849.998
-45531.945
-45693.855
-45915.114
-45251.483
-45397.949
-43707.59
-44355.183
-50299.711
-50432.07
-50824.74
-50021.201
-50299.803
-48359.732
-49180.444
-55002.807
-55258.005
-55709.155
-54855.913
-55235.423
-53293.246
-54176.658
-59360.535
-59369.181
-60098.309
-59155.949
-59733.958
-57585.824
-58604.732
-63454.197
-63699.255
-64501.607
-63574.403
-64193.753
-61900.057
-63049.591
-67373.705
-67362.854
-68503.665
-67238.827
-67806.468
-65548.805
-66762.476
-70785.922
-71231.503
-71892.793
-70742.996
-71961.059
-69437.598
-70990.557
-73892.3
-74528.457
-74472.485
-74396.152
-74426.682
-72482.668
-73673.862
-76085.931
-77284.619
-76385.858
-77980.01
-78141.561
-76342.953
-77032.282
-79124.422
-79297.641
-79399.651
-79525.645
-80010.272
-78687.543
-79831.131
-81030.609
-80924.193
-81101.165
-81592.417
-81668.899
-80772.143
-81545.9
-82282.219
-82067.14
-82557.962
-82567.926
-82697.816
-82136.081
-82697.09
-82862.294
-82763.265
-83315.674
-83258.212
-83748.532
-82938.131
-83322.773
-83036.209
-83124.999
-83326.144
-83388.776
-83650.32
-82751.401
-83257.52
-82586.651
-82503.329
-82839.519
-82849.142
-83069.957
-82250.281
-82705.614
-81517.274
-81602.886
-81747.436
-81668.38
-81895.753
-81003.564
-81486.984
-79791.55
-79773.233
-79919.831
-79877.027
-79872.858
-79088.73
-79426.771
-77300.913
-77348.21
-77462.339
-77202.001
-77277.849
-76505.091
-76888.892
-74248.739
-74597.984
-74401.913
-74497.573
-74107.193
-73519.1
-73446.249
-70720.43
-70228.509
-70707.399
-69734.26
-70202.566
-69927.735
-69621.012
-66778.191
-66821.248
-66143.405
-66382.222
-65611.79
-64816.244
-65153.495
-61460.056
-61343.043
-61038.313
-60839.891
-60410.595
-60050.785
-59961.474
-56311.776
-55758.626
-56051.88
-55264.852
-54977.424
-54627.232
-54627.642
-49892.926
-49974.59
-49629.902
-49097.1
-48872.699
-48481.368
-48218.176
-43775.048
-43513.691
-43079.202
-42976.162
-42300.72
-42083.978
-41858.239
-36584.476
-36961.692
-36444.249
-36537.015
-35432.467
-35516.71
-35072.617
-29708.043
-29397.518
-29152.517
-28818.833
-27971.717
-28268.763
-27496.744
-23565.009
-24300.668
-23758.45
-23787.359
-22977.156
-22530.503
-21539.137
-18242.438
-17888.504
-17882.322
-17603.524
-16664.19
-17052.314
-15949.655
-13436.249
-13900.12
-13724.346
-12655.39
-13668.293
-12963.367
-11600.432
-24267.1
-27181.011
-30449.468
-30610.81
-29393.947
-27880.492
-25157.595
-14382.91
-15637.61
-16474.205
-17183.944
-16620.983
-14502.552
-12679.494
-10392.404
-12177.327
-13188.126
-13020.172
-12739.63
-10512.392
-9557.48
304.77861
674.81507
459.79016
398.5243
1132.1291
600.06385
1665.4151
7460.5453
7650.0928
7496.0805
8790.7147
7580.026
7352.6675
6675.9982
13232.451
16487.261
17285.964
17391.762
18597.724
15348.082
14372.15
17324.563
17854.797
19867.651
19801.11
19099.413
17641.142
15366.357
-58065.675
-61056.562
-66354.705
-65832.753
-65880.969
-60270.834
-55748.263
-54507.838
-57315.937
-59694.095
-58835.425
-59495.042
-53751.037
-52885.251
-45388.261
-46848.899
-47976.52
-47929.912
-46795.686
-41904.695
-41887.56
-38231.63
-39706.246
-40770.697
-41120.852
-39600.422
-37508.934
-35913.345
-31899.971
-32458.308
-32734.772
-32482.407
-32009.661
-29139.006
-28909.945
-25232.801
-25423.672
-25485.436
-24547.461
-24598.178
-22825.094
-22350.112
-18833.524
-18727.636
-18799.825
-18427.184
-18021.806
-17029.67
-16145.43
-12373.545
-11927.218
-11537.993
-10936.264
-10688.885
-9228.5248
-9254.6634
-5948.0119
-5644.9223
-5254.9928
-4927.7091
-4679.5226
-3634.6891
-3506.6883
563.30932
918.17238
1342.9684
1801.3572
2191.531
2891.6021
3051.6869
6759.0932
6752.6517
7595.8247
7931.9448
8410.926
8917.6137
9628.6774
12228.178
13042.974
13960.492
14348.896
14617.459
15475.898
15732.039
18993.368
19041.27
19884.973
20214.451
21003.811
21293.125
21626.242
24703.292
24760.945
26114.53
25975.135
26563.022
26874.965
27268.293
30205.131
30609.557
31117.681
31909.5
32302.778
32845.51
33153.645
36326.441
35860.208
36976.286
36959.686
38207.149
38163.034
38870.147
41863.699
41242.538
42453.422
42437.993
43573.608
43381.343
44250.389
47077.304
46181.065
47716.858
47430.675
48673.921
48382.182
49328.326
52180.859
51256.018
52860.74
52417.628
53854.516
53430.409
54417.67
57225.824
55867.479
57680.268
57082.751
58556.365
57880.525
58953.59
61936.416
60222.768
62336.737
61555.105
63247.89
62454.209
63490.885
66242.675
64267.829
66605.429
65712.01
67505.354
66376.646
67496.712
70380.429
68108.98
70634.354
69604.128
71525.105
70388.409
71445.92
74117.203
71627.14
74340.407
72981.451
74952.64
73538.642
74627.492
77635.702
74552.479
77767.006
75936.444
78267.773
76600.74
77859.61
80592.913
77041.238
80638.014
78453.367
80814.18
79196.167
80234.387
82949.24
79509.549
82841.098
81004.852
82944.444
81360.532
82656.764
85115.615
81375.794
84517.503
82739.832
84475.169
82915.695
83980.171
86098.832
82359.332
86136.302
83787.255
85702.271
83941.305
85228.292
86846.592
83385.411
86647.629
84468.417
86251.413
84548.115
85775.657
86988.729
83378.263
86824.225
84504.404
86263.063
84350.3
85794.888
86270.122
82960.554
86144.124
83976.684
85464.264
83707.386
84956.489
85076.259
81840
84991.327
82685.113
84069.949
82317.723
84012.312
83052.687
80135.028
82997.665
80995.649
82188.1
80765.496
81842.02
80489.558
77662.083
80432.774
78499.903
79223.99
77986.87
78892.935
76749.933
74752.415
77012.457
75093.511
75906.484
74885.791
75467.615
72463.546
71279.206
72329.456
72058.331
71688.128
71108.697
72026.561
68372.763
67762.18
67802.117
67564.742
67447.559
65854.407
67673.177
62713.828
61454.107
62623.631
61749.746
62225.41
60765.654
62440.313
57587.911
57009.154
57646.102
56891.697
56848.938
55162.706
56920.176
50395.956
49589.336
50202.121
49640.064
49720.165
49175.636
50431.804
44562.414
44019.455
44565.457
43981.684
44165.263
42797.977
43980.204
37572.955
37544.785
37573.75
37561.092
36824.674
35990.837
36534.519
29264.454
29047.006
29383.714
29167.995
29018.231
28211.345
29759.238
25176.762
27058.146
27455.925
27772.117
26905.92
25565.324
24578.428
19512.807
19818.277
19553.548
19267.35
19568.168
19792.702
18283.702
23087.848
26063.773
27067.399
27777.873
27792.397
27721.369
25761.975
-47487.112
-29355.525
-28531.48
-24845.144
-21432.024
-18109.122
-12897.432
-8440.0371
-3546.3138
1672.815
6512.9878
11826.218
17015.033
21425.722
26596.954
31149.48
35282.322
39752.001
43710.69
47652.362
51305.819
54626.214
57778.718
60589.848
63090.749
65059.242
66608.136
68133.807
68858.942
69207.218
69029.217
68423.459
67090.374
65326.822
63960.732
59731.946
57568.028
54671.84
49936.891
45527.5
41004.938
35754.792
30925.441
24998.665
19469.742
12553.77
2958.0015
-26691.415
-25609.738
-15979.831
-17508.645
-17335.401
-12068.44
-10364.929
-5893.2043
-2516.7994
1192.8304
5099.6351
8685.1035
12201.419
15436.396
18881.567
22029.695
25564.062
28305.268
31479.208
34031.615
36808.824
39002.612
41425.763
43033.514
45136.627
45941.418
48118.075
48599.184
49203.368
49646.534
49641.525
49467.665
48676.729
48103.81
46183.26
44717.57
42502.831
40317.069
37606.577
34497.878
31164.033
27156.758
23360.758
18643.518
14510.019
8783.372
2074.2074
-8704.9891
-8954.75
-2184.7963
-7511.0742
-4305.3215
-3070.041
-1628.8915
-396.59601
1541.17
2996.5826
4599.6497
6202.6683
8194.9262
9211.2035
11099.821
12570.276
14132.367
15509.851
16887.65
18174.859
19316.477
20443.575
21348.485
22248.439
22872.837
23618.403
24155.788
24388.047
24682.297
24645.16
24501.885
24229.305
23800.079
23138.821
22194.752
21518.33
20118.921
19091.057
17503.217
16373.986
14735.731
12874.756
11020.707
8922.1467
6823.3325
4675.7211
-1892.7992
5036.8657
1290.097
3160.9247
961.64262
3419.2178
1742.8254
2060.5369
3132.6454
2269.5269
2568.4372
2947.0367
2277.7512
2456.2771
2644.5542
3605.7834
3427.3081
3940.4088
3772.4013
4184.8866
4066.4552
4365.3473
4328.2282
4591.8107
4511.696
4700.4852
4495.3724
4425.4092
4463.7669
4415.7236
4554.2289
4535.4471
4740.6298
4667.2552
4816.0001
4744.3787
4969.6268
4633.6632
4684.7767
4485.3514
4379.2178
4032.7529
3788.2575
3457.1184
2712.0094
2983.2056
1191.5026
-863.59634
24818.079
14131.1
14170.546
9487.6997
11812.991
7208.6852
8260.1539
5914.3833
4335.7306
3658.218
2252.6129
459.07017
-616.30274
-2452.7337
-3948.008
-5369.7243
-6678.5248
-7955.2188
-9147.4193
-10392.133
-11510.686
-12635.861
-13690.907
-14960.641
-16377.83
-17836.55
-17959.41
-18583.946
-18878.06
-19248.819
-19296.625
-19270.95
-19033.779
-18575.746
-18048.818
-17250.243
-16553.311
-15114.134
-14340.373
-12709.973
-11470.957
-9639.4933
-8352.4762
-6325.6109
-4518.8389
-2180.724
-129.16101
36431.517
27721.303
19878.346
19593.366
17117.546
14072.055
11889.611
7201.881
5812.3433
1818.3428
-1776.5616
-5519.5573
-8948.7329
-12177.067
-14558.127
-18186
-20730.899
-23898.777
-26331.777
-29232.061
-31417.625
-33843.605
-35639.912
-37092.724
-37464.526
-37448.741
-38301.648
-38997.04
-39593.983
-39881.951
-39931.68
-39564.737
-39011.033
-38035.591
-36737.157
-35213.252
-33110.48
-31333.736
-28694.336
-25905.878
-23319.957
-19849.368
-16738.365
-13014.237
-9317.1801
-4075.255
365.68014
44387.97
34377.32
34658.401
28204.648
28367.536
22706.438
18209.321
14106.725
8594.2909
3056.4742
-2181.9057
-7403.5132
-12198.767
-17156.322
-22098.014
-26608.563
-31216.974
-35424.525
-39780.127
-43531.5
-47369.5
-50827.836
-53900.704
-56604.849
-59130.215
-60635.505
-61848.482
-62870.526
-63932.177
-64716.356
-65027.73
-64728.715
-64193.403
-62914.879
-61055.288
-59028.643
-57073.144
-52973.248
-49575.017
-45468.395
-41082.032
-35761.397
-31141.031
-25382.3
-18813.104
-13038.823
-5110.1029
-70907.79
-75223.144
-75865.914
-77755.639
-76338.411
-71039.833
-63744.066
-41973.847
-49437.941
-49821
-50185.923
-48585.985
-43923.786
-40917.44
-37194.887
-40759.581
-44049.158
-43936.703
-41861.271
-41800.627
-36007.095
-30638.162
-31025.014
-32434.37
-32102.84
-31213.089
-30043.608
-26619.926
-25332.718
-26181.643
-27253.832
-26096.419
-25500.308
-24338.579
-21838.988
-20624.163
-20743.924
-20609.162
-20743.574
-19403.531
-18908.732
-18365.295
-15691.5
-15152.181
-14841.522
-14048.634
-13222.522
-12742.217
-12241.721
-10621.992
-10587.263
-9807.5704
-9830.2877
-9221.8574
-8117.9166
-8015.4448
-5788.7271
-4802.3795
-4284.2842
-3808.8587
-2829.9489
-2923.8173
-2648.5683
-629.83218
-383.40378
410.20899
854.8067
1460.8252
1778.8335
2344.9883
4063.8986
5260.3581
5727.1469
6318.4162
6506.6134
7311.4201
6996.2187
9485.7757
10096.475
10405.604
10711.931
11605.559
11537.703
11655.799
14170.144
14875.417
15327.718
16069.775
15990.443
16476.267
16536.57
18893.414
19344.568
20202.14
20383.167
21000.938
21124.812
21345.162
23841.116
24496.715
25183.556
25337.992
25556.34
25849.24
25875.666
28191.807
28789.942
29613.992
30141.97
29918.245
30458.856
30169.774
32420.13
33909.57
33886.528
34762.408
34187.572
34712.049
34484.979
36884.442
38169.744
38293.534
39040.052
38495.477
39156.667
38758.612
40925.679
42660.45
42264.413
43214.449
42501.918
43005.525
42506.952
44861.402
46617.265
46222.233
47191.734
46329.874
46920.186
46388.551
48252.16
50676.279
49846.234
50845.851
49839.304
50349.016
49744.621
51702.039
54503.274
53380.768
54402.241
53203.097
53673.658
53153.947
54782.668
58032.518
56427.327
57476.221
56056.77
56498.891
55905.694
57331.816
61021.363
59275.801
60527.065
59082.122
59334.769
58722.727
59285.703
64192.044
61432.669
63051.451
61257.069
61733.42
61041.747
61658.709
66389.995
63792.695
65138.452
63915.282
63457.573
63268.075
63574.458
68120.487
65587.766
66770.954
65476.624
65304.085
64485.117
64613.92
68938.169
67550.184
67721.324
66952.741
66599.444
65979.65
65278.639
70735.792
67477.261
68823.534
67736.573
67489.113
66708.053
65863.973
70546.234
68186.135
69213.334
68108.054
67837.608
66964.216
65510.72
70541.549
67828.816
68932.637
67960.557
67682.115
66906.099
64924.285
69687.978
67264.578
68286.274
67332.583
67160.124
66265.391
63711.963
68360.62
66065.778
66929.239
66360.514
66050.789
65347.365
62108.821
66494.197
64348.483
65182.721
64656.133
64392.083
63228.846
59987.874
63869.133
62174.666
62636.947
62666.786
61717.443
61530.224
57240.312
60920.146
59569.944
60001.671
60051.69
60178.242
59134.712
55296.836
57642.448
56729.449
56265.262
57564.879
55668.969
56358.583
51176.705
52714.541
53413.926
52729.82
52517.594
53409.546
51944.045
47542.522
49090.58
48504.557
49226.442
48932.648
49460.593
48360.088
42857.598
44793.788
44308.06
44832.656
44141.369
44978.461
43946.15
38848.931
39499.325
39618.674
39483.038
39615.543
40074.31
39223.515
33820.09
35234.33
35351.998
35408.466
35515.155
35276.224
34526.599
28376.908
28437.174
28783.585
28535.794
28602.22
29095.92
29014.954
24414.263
24780.395
25971.354
25214.666
26076.699
25901.028
24747.981
17719.757
18136.226
18139.016
17937.438
18259.407
18430.209
17917.4
11380.699
10942.637
12461.841
11127.6
12184.724
12033.502
10873.686
3214.654
891.15433
793.93546
799.59092
1260.3022
536.46275
3228.1367
-42000.251
-44281.07
-48115.626
-46678.485
-46613.532
-41717.192
-38198.251
-29714.551
-40934.025
-41077.654
-41953.743
-40899.846
-36432.584
-31570.176
-28217.954
-26539.757
-29312.591
-27986.351
-28320.389
-24392.361
-22772.299
-20208.969
-22446.67
-23726.612
-22606.856
-22708.224
-20443.675
-16235.309
-18353.556
-19378.477
-20163.92
-19143
-19727.487
-16836.26
-15749
-14262.685
-14883.054
-14600.749
-13863.564
-13669.709
-13001.947
-11777.979
-11147.573
-12044.608
-12291.213
-11466.62
-11686.175
-10566.341
-8822.3808
-7712.7828
-7803.7471
-7456.768
-6813.847
-6793.3349
-5730.7818
-5733.9592
-4345.0833
-4806.5798
-4606.7118
-3857.4858
-3597.8556
-3146.0942
-2389.4471
-1217.9137
-1113.5889
-475.83693
107.69112
-40.35274
1068.564
1128.2573
2360.8965
2220.7665
2792.5627
2922.8699
3700.0864
3991.9918
4417.3473
5739.507
5348.688
6298.2841
6585.2415
7011.3069
7219.5609
7997.2761
8722.5097
8574.3135
9675.5434
9601.8833
10624.164
10584.15
11891.41
11798.798
12204.178
12983.274
12996.191
13797.633
13846.17
14841.12
14895.676
15225.257
16121.314
15983.548
17100.728
17137.641
17983.581
17993.787
18102.872
19208.463
18692.621
20072.746
19778.876
20855.536
21086.682
21224.926
22341.494
21667.86
23152.418
22961.786
23812.563
24065.797
23795.648
25032.219
24273.838
25847.889
25427.897
26422.674
26917.176
26657.306
27965.414
27141.268
28658.425
28347.677
29221.522
29657.175
29007.466
30501.227
29458.011
31147.398
30591.667
31547.498
32457.223
31593.211
33162.893
32103.647
33716.279
33227.567
34112.472
35206.184
33697.952
35439.289
34134.71
35907.737
35252.746
36126.27
37504.078
35739.763
37596.853
36373.893
38193.136
37504.033
38386.622
39742.066
37554.77
39566.378
38229.835
39936.224
39271.091
40246.99
41708.826
39561.077
41473.565
40051.913
41662.615
41038.921
41680.287
43564.21
41139.054
42069.359
42352.192
42742.053
42423.079
43455.021
44086.525
42352.197
44339.168
42485.743
44409.101
42947.326
44363.786
46037.819
43527.686
44589.135
44221.51
45052.637
44388.36
45147.056
46479.89
44058.304
46045.879
44588.685
46113.484
44625.231
45837.395
47007.378
44569.626
46151.116
45121.782
46209.47
45071.814
45968.91
46976.441
44730.91
46406.429
45265.842
46405.527
45058.011
45971.897
46564.741
44659.875
46072.252
45150.458
46046.893
44908.519
45500.195
45884.361
44209.003
45444.697
44614.393
45534.278
44198.683
44596.173
44794.63
43386.311
44436.08
43872.439
44402.746
43077.413
43620.552
43079.376
42361.879
43150.942
42736.664
43270.718
42216.17
42644.535
41459.504
40971.899
41397.954
41238.217
41539.864
40136.4
40253.667
38798.174
39163.338
39268.11
39292.871
39411.376
38280.374
38553.418
36303.05
37272.654
37004.385
37233.497
37203.967
36205.507
36139.209
33578.87
34153.588
34656.039
34099.95
34738.237
33830.229
33220.141
30591.835
32067.501
31756.163
31611.852
31656.098
30768.401
29962.648
27660.954
28273.287
28477.892
28142.522
28641.892
27725.564
26984.066
23733.113
25457.545
24815.107
24972.49
24914.328
24048.985
23742.16
20783.015
21412.679
21196.692
21186.899
21099.187
20660.237
20109.414
16910.495
18090.064
17524.15
17530.762
17660.854
16955.352
16575.906
11634.04
13253.802
12313.209
12662.59
12407.223
11818.946
11198.723
6749.9472
7121.647
5867.4067
6227.9796
6303.7682
6231.9895
5974.4666
1115.2959
-928.35943
-2457.9278
-2235.9109
-1880.5912
-1690.5061
-310.20437
-23647.678
-22919.979
-21280.378
-22612.324
-20518.568
-17945.696
-16424.736
-15503.948
-21878.59
-19836.482
-20794.632
-17728.686
-15763.763
-14170.99
-15319.312
-12121.603
-12424.291
-12428.716
-10581.917
-9095.3823
-8757.5345
-9255.0592
-10784.048
-11889.778
-11787.229
-10465.858
-9791.0263
-7301.7279
-9537.5062
-8567.4868
-8350.1279
-7124.7322
-6815.373
-4971.6556
-5807.5394
-7218.7427
-6983.5525
-6240.1862
-5764.1549
-5405.076
-4385.2747
-4263.8223
-5540.0199
-5274.8007
-3516.4786
-3944.6173
-2981.736
-1627.4899
-1794.2728
-4143.4828
-3790.3382
-2417.8941
-2274.0679
-1340.6725
-505.63477
-690.75231
-2515.9445
-2040.0772
-367.73093
-353.1897
428.26383
1093.8139
1435.6402
-948.31268
-24.422251
984.20489
1212.2968
2030.6339
2530.869
2928.3866
792.29689
1809.9095
2502.4011
3060.2108
3636.6344
4274.814
4634.3476
1939.6407
3499.6747
3922.1738
4648.6837
5312.5456
5803.4973
6331.8804
3832.4754
5498.6579
5493.5485
6282.5616
6638.5446
7304.8564
7659.2026
5726.6169
6910.6047
7344.9606
7594.1762
8521.0705
8512.6667
9132.3961
7486.283
8684.9514
8614.6089
9441.5109
9773.2884
9859.0004
10539.109
9132.8181
10272.071
10292.03
10809.413
11438.234
11355.36
12149.419
10339.81
12118.383
11409.875
12559.975
12729.575
12639.42
13379.852
11931.004
13379.647
12960.784
13885.244
14206.176
13942.761
14963.5
12960.792
15174.398
14156.08
15399.65
15378.368
15237.444
16032.196
14445.962
16457.945
15517.146
16602.716
16721.283
16364.877
17366.809
15416.487
17955.611
16627.789
17901.32
17697.354
17454.716
18307.292
16445.189
18965.916
17873.572
18894.358
18878.682
18375.188
19340.887
17331.054
20197.651
18898.164
20036.301
19611.628
19192.347
20093.812
18229.08
21196.159
20209.122
20812.111
20677.138
19976.499
20595.076
18993.589
22116.276
20741.824
21502.23
21305.025
20425.702
21203.982
19624.659
22468.528
21996.292
21846.181
22047.341
21176.483
21744.427
20562.967
23297.676
22048.58
22842.262
22164.744
22005.84
21978.828
20621.836
24075.293
22429.662
23163.253
22623.211
22050.358
22385.646
20846.007
24240.219
22620.782
23320.631
22614.716
22217.642
22541.504
21171.409
24268.008
22644.022
23408.804
22693.057
22296.969
22668.07
21115.13
24128.447
22554.585
23264
22464.031
22191.817
22616.004
20949.53
23806.372
22137.712
22876.42
22163.569
21867.879
22240.327
20783.424
23256.224
21675.252
22437.079
21624.945
21222.144
22094.703
20230.819
22471.509
21024.674
21755.227
20958.192
20968.318
21588
19770.014
21632.569
20232.716
20826.307
20181.75
19782.772
20769.977
18886.79
20367.564
19130.197
19858.701
19023.412
19258.104
19947.187
18353.996
19378.925
18285.062
18667.751
18329.253
17764.506
19415.292
16954.422
17820.421
16628.122
17553.345
16632.4
16949.839
18056.125
16161.359
16648.663
15506.443
15848.947
15639.328
15322.377
16737.859
14701.844
15618.271
13633.087
15234.909
14072.358
14194.428
15172.59
13366.474
12663.202
12021.799
12423.342
12076.342
12255.639
13752.466
11888.5
12756.414
11365.179
12387.325
11625.707
11493.594
12042.484
10443.206
8812.3363
8438.3209
8626.9379
8414.4624
8516.9058
10214.719
8575.5994
8543.5429
8455.5889
8797.3475
8514.5135
8635.3564
8694.4119
5677.2317
4256.4444
4152.2031
3555.7834
3940.3878
3790.0967
4639.1073
3919.8932
3170.9377
2503.1993
2602.8103
3032.9386
2865.3639
4325.8583
397.11863
-3309.1822
-3089.3503
-3541.826
-3769.7904
-3650.3581
-2276.5769
-932.18432
946.17242
883.99634
1541.2798
3872.5485
3599.8457
3434.955
662.21999
-455.56109
397.02832
-56.366212
2155.1973
1546.8836
4058.4453
-2159.6946
1567.035
1189.978
2346.5324
3111.5141
2642.0227
3422.2272
471.65444
815.14659
-896.81216
219.48462
849.77539
265.91868
3829.4061
-1194.8846
-1278.5653
-650.83437
1140.7449
618.66005
2962.8491
1683.8037
-717.90549
670.79022
1001.8552
630.47776
1228.2427
1126.7445
2512.2065
-290.90543
-1186.2134
-1064.7984
104.15765
-50.004853
1233.8701
1930.2316
-807.99614
-58.820251
405.29295
250.28577
1039.9971
912.60436
2160.7933
-229.15115
-346.51382
-619.50378
266.62503
267.75028
989.60861
2543.8782
-554.24472
-591.43456
195.84669
344.81929
1004.9805
1452.5684
1901.6559
-825.94972
-226.66142
-191.66585
415.14982
759.12868
1249.5238
2071.9924
-389.15022
-432.92183
-34.237637
397.216
925.34892
1264.7635
2508.1668
-485.22157
-508.53888
-68.456191
579.96324
811.22715
1505.2376
2053.0994
-530.85073
-956.87097
605.33306
207.97133
1185.3628
1093.9471
2727.5121
-696.05635
-177.06213
-594.97044
337.258
719.46864
1424.9883
1962.6801
-559.96013
-815.17541
-129.84245
-13.220168
723.86522
856.00428
1931.8861
-797.71636
-609.61159
-321.36219
278.50171
398.25854
1067.1768
1814.503
-639.12525
-972.88408
-198.30974
-98.218358
235.01116
742.03892
1613.5723
-688.36994
-637.9256
-321.26676
108.85285
109.50192
932.132
1504.1036
-396.476
-976.94289
-389.09498
-254.74763
-61.488543
577.9625
1220.9544
-469.7049
-698.62225
-452.60937
7.6914337
-101.59363
731.12362
1204.3515
-38.410982
-732.58485
-412.78906
-322.07506
-293.89033
523.62343
910.25821
-269.75152
-221.74584
-304.23975
-282.75034
-45.482293
609.71367
938.77234
315.09481
-312.99521
-428.74971
-642.45233
-147.32553
241.77507
982.72539
-8.697427
148.98825
-399.29734
-533.75099
29.39503
162.28544
1080.9478
410.52825
766.85002
-612.83658
-225.16572
126.24894
-116.28033
1080.3911
749.94538
714.37965
-252.58736
-357.42596
203.00599
-259.94174
963.25188
879.23613
797.98919
-212.63143
-457.50621
193.40003
-284.25918
980.3508
1095.3437
1004.2535
-133.1201
-64.991427
388.21542
-112.34755
1013.9284
1153.45
1156.2595