/*--------------------------------*- C++ -*----------------------------------*\
  =========                 |
  \\      /  F ield         | OpenFOAM: The Open Source CFD Toolbox
   \\    /   O peration     | Website:  https://openfoam.org
    \\  /    A nd           | Version:  6
     \\/     M anipulation  |
\*---------------------------------------------------------------------------*/
FoamFile
{
    version     2.0;
    format      ascii;
    class       pointVectorField;
    location    "0.16";
    object      lm;
}
// * * * * * * * * * * * * * * * * * * * * * * * * * * * * * * * * * * * * * //

dimensions      [1 -2 -1 0 0 0 0];

internalField   nonuniform List<vector> 
28033
(
(-1.780536e-14 4.8656612e-16 1.3104288e-15)
(-5.4375576e-15 3.3318594e-15 9.9433006e-16)
(7563.9479 -668.18395 -37.529881)
(7052.0165 -2766.4898 44.627175)
(-1.338461e-14 3.0090723e-15 -2.870051e-16)
(-1.2587315e-14 4.9008913e-15 -4.4266115e-15)
(7068.5179 -2808.2488 -30.690891)
(7581.8765 -675.2679 46.042602)
(-5.6329745e-15 1.0535579e-15 6.7193838e-16)
(-2.4534443e-15 3.0423504e-16 5.8836893e-16)
(-5.4923298e-15 2.4302826e-15 8.9528572e-16)
(-2.6209443e-15 -1.1537891e-15 -6.7979696e-16)
(-7.2548563e-15 1.5542294e-15 1.0013199e-15)
(-4.7613589e-15 -9.2108094e-16 -7.3952737e-16)
(-1.132389e-15 -2.2256662e-17 -6.4484848e-16)
(-7.4239857e-16 -2.4218299e-16 -3.6669977e-16)
(-1.1196198e-15 4.5550132e-16 8.383863e-16)
(-2.3465882e-16 2.2667819e-16 1.4996246e-15)
(-4.0583243e-15 -8.7236639e-16 -1.3429605e-15)
(-5.8237189e-15 8.4462789e-16 7.5519031e-16)
(-5.1611762e-15 1.0100276e-15 9.7613867e-16)
(-1.7679952e-15 -8.1010255e-16 4.5192313e-16)
(-4.4158752e-15 1.0299569e-15 -9.452958e-16)
(7527.6186 -818.50489 -42.873064)
(7486.4621 -963.62005 -47.595961)
(7446.2804 -1102.543 -46.673716)
(7406.4286 -1235.0361 -42.402067)
(7368.8467 -1360.926 -34.53019)
(7333.8372 -1482.1382 -22.603619)
(7301.2576 -1598.976 -9.1812739)
(7271.7582 -1714.9944 5.4547214)
(7244.6618 -1830.8191 20.243147)
(7218.586 -1949.586 33.668638)
(7194.5177 -2072.6537 43.677703)
(7169.7164 -2201.6664 50.599869)
(7144.5124 -2336.3081 54.186698)
(7117.2412 -2477.3825 53.507887)
(7086.6656 -2622.4117 49.599696)
(-18.220005 -7.0621561 4.6707557)
(-46.993138 -5.3395895 19.733473)
(-73.045949 4.4738632 34.927859)
(-92.779918 18.046697 45.745223)
(-103.04461 35.721906 51.726942)
(-102.11577 54.749159 52.557145)
(-89.486949 74.166716 47.654133)
(-64.87451 91.65417 37.1981)
(-28.727853 106.9845 21.800932)
(17.515354 117.75034 1.9335599)
(71.696593 123.10896 -21.491487)
(131.95959 122.67516 -47.105828)
(195.46653 115.57198 -73.837813)
(259.8698 101.61922 -100.75342)
(321.25499 80.719092 -125.87916)
(377.37995 54.051889 -148.38463)
(426.00063 22.709376 -167.33342)
(464.41034 -12.831899 -181.99666)
(490.86732 -50.656745 -190.19298)
(504.31263 -88.902914 -193.03183)
(503.55239 -126.14109 -188.89105)
(489.46354 -159.94607 -177.82907)
(461.50843 -189.34255 -160.47646)
(421.91339 -212.08439 -136.24288)
(372.92811 -226.81555 -106.02365)
(316.77236 -233.3445 -71.682615)
(257.07628 -230.18364 -33.611203)
(197.55433 -217.50764 6.3506588)
(142.98217 -195.61118 46.181129)
(96.743966 -166.11702 83.951625)
(63.667368 -129.07205 117.33874)
(47.007635 -87.378611 145.07665)
(49.138932 -43.242755 165.55638)
(72.399593 1.4300535 178.16964)
(117.70539 44.550529 181.39383)
(183.05178 82.862551 174.98043)
(269.48602 116.06467 161.46605)
(372.11417 141.09558 140.43857)
(488.1074 156.77084 113.56391)
(613.94512 164.18507 83.85742)
(743.78136 162.10595 52.7073)
(873.93045 151.81949 22.882831)
(999.72155 134.37391 -3.7291152)
(1117.4766 111.63951 -25.240933)
(1224.1373 85.625409 -40.101401)
(1317.8033 58.622547 -47.335071)
(1397.6064 32.858934 -46.491308)
(1463.8496 10.517675 -37.602678)
(1517.8413 -6.5261319 -21.226754)
(1561.9251 -16.731739 1.6846007)
(1599.1667 -19.074102 29.797855)
(1633.2903 -13.048096 61.513476)
(1668.3397 1.2465434 95.021985)
(1708.5319 23.136303 128.40142)
(1757.9547 51.382583 159.69575)
(1820.3712 84.266001 187.01139)
(1898.9825 119.66633 208.62441)
(1996.2217 155.20848 223.07339)
(2113.5992 188.40339 229.27972)
(2251.5689 216.78218 226.63451)
(2409.433 238.14143 215.0708)
(2585.4099 250.55248 195.06061)
(2776.5965 252.75085 167.80775)
(2979.1504 243.86857 134.73388)
(3188.7345 223.82891 97.901898)
(3400.0232 193.29779 60.344563)
(3608.2204 153.41351 23.805043)
(3808.7111 106.02724 -9.5576124)
(3996.6234 53.343719 -36.901343)
(4169.6866 -2.1702037 -56.060667)
(4324.9306 -57.887207 -66.691697)
(4461.9565 -111.50345 -67.996184)
(4581.4343 -160.75813 -60.012213)
(4685.1151 -204.27055 -43.791734)
(4776.0713 -240.76529 -20.890701)
(4858.1144 -269.8395 6.6237098)
(4935.4313 -291.49538 36.487756)
(5012.3857 -306.40692 66.31452)
(5092.9306 -315.55633 94.049604)
(5180.4529 -320.39825 117.79573)
(5277.7114 -322.51248 136.21675)
(5386.3443 -323.64911 148.56842)
(5507.0869 -325.18743 154.35772)
(5640.1858 -328.75677 153.67047)
(5784.6661 -335.42351 147.01573)
(5939.1431 -346.5559 135.25525)
(6101.6284 -362.52746 119.12788)
(6269.4697 -383.73395 100.3617)
(6440.6572 -410.06278 79.567882)
(6611.9824 -441.09621 58.588038)
(6781.7482 -475.78726 38.195704)
(6947.5116 -514.11156 19.09429)
(7108.8003 -553.37652 2.7218059)
(7263.3021 -592.07215 -12.153268)
(7414.1155 -631.55118 -23.358502)
(-11.476314 9.0758468 6.7666562)
(-46.084274 6.8660362 -13.081289)
(-82.225586 0.28934266 -32.190263)
(-107.16715 -11.382315 -47.381038)
(-122.73871 -28.926675 -57.675338)
(-125.35721 -47.99953 -61.027497)
(-115.17886 -67.966923 -60.05514)
(-91.707896 -88.511955 -51.158922)
(-54.758691 -108.15688 -37.94257)
(-6.9680232 -124.89002 -18.09927)
(51.60599 -139.33427 5.326214)
(116.78013 -148.48226 32.669754)
(187.05097 -153.92211 61.805889)
(258.82986 -153.29553 91.412259)
(329.4063 -147.41465 120.44673)
(395.27585 -135.86256 147.0263)
(454.32346 -118.58868 169.65052)
(502.3274 -97.246341 187.11059)
(538.72109 -71.193528 198.82524)
(561.79187 -42.718453 202.8883)
(568.38165 -12.565553 199.44831)
(560.3953 18.228355 188.22046)
(537.15942 46.773709 168.16621)
(498.73822 73.433582 141.29693)
(448.63418 94.51698 107.26654)
(389.24818 109.4405 67.609672)
(323.13515 117.07221 24.602014)
(255.96334 115.67972 -20.556757)
(190.4949 104.86326 -65.319128)
(132.58573 84.509777 -107.25438)
(86.257507 54.400077 -144.65537)
(54.450848 15.415213 -175.61955)
(41.329099 -31.550252 -198.54655)
(49.06327 -85.172345 -212.14335)
(78.973708 -143.43559 -215.99178)
(130.77516 -204.6927 -210.53651)
(204.34292 -265.94736 -194.50931)
(297.09519 -327.31672 -171.60809)
(404.7761 -384.11812 -142.00898)
(524.82797 -436.58874 -108.15822)
(651.81957 -482.72737 -72.313352)
(780.87925 -521.70037 -37.238305)
(907.20974 -553.11908 -5.3766658)
(1026.3594 -577.111 20.962131)
(1134.6276 -594.33884 39.902446)
(1229.3242 -605.97344 50.118901)
(1308.8577 -613.61263 50.892412)
(1372.8698 -619.17535 42.173829)
(1422.1738 -624.78916 24.522248)
(1458.6941 -632.6249 -0.92960016)
(1485.3132 -644.78335 -32.582424)
(1505.6907 -663.13919 -68.469264)
(1524.0488 -689.24548 -106.36883)
(1544.9315 -724.23277 -143.92913)
(1572.9452 -768.75041 -178.7899)
(1612.4866 -822.92407 -208.72089)
(1667.471 -886.34865 -231.75149)
(1741.0734 -958.09223 -246.31269)
(1835.5065 -1036.7491 -251.34162)
(1951.8528 -1120.487 -246.38286)
(2089.9687 -1207.1585 -231.62917)
(2248.4633 -1294.4003 -207.92465)
(2424.7723 -1379.7833 -176.72807)
(2615.2985 -1460.9459 -140.02236)
(2815.6244 -1535.7926 -100.14595)
(3020.7785 -1602.5775 -59.736797)
(3225.8186 -1660.0881 -21.410192)
(3425.156 -1707.9312 12.398237)
(3615.2189 -1745.3093 39.38671)
(3791.2674 -1774.3773 57.67677)
(3950.6869 -1795.0629 66.840249)
(4093.1943 -1810.2818 66.055951)
(4217.7431 -1821.5742 55.893249)
(4325.9547 -1831.3425 37.418432)
(4420.3381 -1842.0008 12.439801)
(4504.0942 -1855.6119 -16.920184)
(4581.1303 -1873.9173 -48.336813)
(4655.4567 -1898.2415 -79.418681)
(4730.9192 -1929.325 -108.08302)
(4811.0321 -1967.4528 -132.53612)
(4898.5787 -2012.3087 -151.45226)
(4995.6924 -2063.2323 -163.97642)
(5103.6778 -2119.1619 -169.71803)
(5223.0836 -2178.8198 -168.7371)
(5353.6971 -2240.7575 -161.45546)
(5494.6484 -2303.4923 -148.6452)
(5644.4523 -2365.5531 -131.33229)
(5801.1746 -2425.6014 -110.7264)
(5962.5256 -2482.4838 -88.168743)
(6126.1272 -2535.2939 -64.952873)
(6289.5566 -2583.5453 -42.256802)
(6450.7831 -2626.9952 -21.050226)
(6608.1609 -2665.9452 -1.9201412)
(6760.5468 -2701.6097 15.103254)
(6908.6818 -2734.4179 30.056722)
(3.2927448e-15 -1.3239155e-15 2.3845803e-16)
(2.4470133e-15 -9.6672015e-16 3.215493e-17)
(-9.0574249e-15 9.0550918e-16 6.4029168e-16)
(-1.2642219e-16 -5.721845e-16 4.4370095e-16)
(-7.6811722e-15 -4.9270561e-16 4.1193361e-16)
(-7.3893964e-15 2.7533729e-15 -1.0951501e-15)
(-3.2915852e-15 -8.1743692e-16 3.8364228e-16)
(-1.9032499e-15 5.3200654e-16 -8.2319016e-17)
(-4.7409759e-15 -4.8623412e-16 4.3918642e-16)
(-1.2869644e-14 1.1845665e-15 6.4228907e-16)
(-9.6157521e-15 1.4157374e-15 5.9836601e-16)
(-9.4077204e-15 4.9518432e-16 1.1192419e-15)
(-5.982767e-15 2.6210694e-16 3.0473736e-16)
(-1.1478475e-14 -5.3386198e-16 1.6580808e-15)
(-5.257323e-15 3.6289085e-16 2.8600704e-16)
(-12.452691 7.3648729 -8.7933284)
(-50.184957 9.5324131 15.745617)
(-90.583246 3.6872343 40.757892)
(-118.18517 -12.470144 56.228494)
(-136.49347 -27.066863 66.780115)
(-137.15668 -47.984258 71.164463)
(-128.77703 -65.858343 66.870381)
(-100.83303 -90.172529 59.015472)
(-63.355439 -104.78345 39.871398)
(-11.146692 -126.5929 18.250359)
(50.940922 -139.83832 -8.4831055)
(119.75208 -146.87284 -38.927251)
(192.6776 -156.17667 -70.81516)
(268.5419 -151.74093 -102.16943)
(339.00565 -148.90067 -132.16254)
(407.28117 -135.90517 -157.9232)
(466.56054 -119.57254 -178.83092)
(512.22681 -95.704996 -195.33062)
(549.5212 -71.493758 -202.28822)
(566.65086 -38.858905 -202.94859)
(572.70811 -10.847678 -196.25709)
(561.56166 20.063854 -179.45498)
(534.88423 53.364706 -156.13945)
(493.62605 78.5793 -124.87803)
(441.37742 100.17243 -87.661548)
(379.31724 116.95312 -46.174149)
(311.48461 121.15735 -1.9601033)
(245.20873 123.79015 44.289684)
(177.44761 110.18102 87.259744)
(123.71577 90.084862 128.6673)
(76.563208 58.672783 163.54376)
(48.292987 18.841548 190.66601)
(37.946665 -29.504877 209.42803)
(49.023045 -84.377197 218.2085)
(83.802327 -144.40195 217.52437)
(138.08966 -201.79664 205.75238)
(216.56275 -270.01168 185.93937)
(311.85982 -329.11884 158.86258)
(422.65877 -386.7893 125.61806)
(544.41922 -439.08439 89.699496)
(671.74085 -484.64388 53.225163)
(799.95097 -522.90328 19.009646)
(924.139 -553.43327 -10.448732)
(1039.9646 -576.50604 -33.054881)
(1144.0897 -592.89831 -47.26438)
(1234.1517 -603.90861 -52.194638)
(1309.0267 -611.22512 -47.670208)
(1368.7865 -616.87603 -34.154368)
(1414.6416 -623.03219 -12.687804)
(1448.8231 -631.91411 15.239948)
(1474.3971 -645.60938 47.821225)
(1495.0843 -665.96453 83.036073)
(1515.0371 -694.4555 118.77574)
(1538.6269 -732.10614 152.91895)
(1570.201 -779.42913 183.44176)
(1613.8466 -836.39235 208.49602)
(1673.1389 -902.42733 226.52314)
(1750.9186 -976.4469 236.3407)
(1849.0829 -1056.9119 237.24464)
(1968.4475 -1141.8958 229.06714)
(2108.6552 -1229.1983 212.21284)
(2268.1818 -1316.4521 187.65544)
(2444.398 -1401.2684 156.86631)
(2633.7208 -1481.3759 121.78333)
(2831.8809 -1554.7839 84.540649)
(3033.91 -1619.9423 47.584218)
(3235.3733 -1675.019 13.337483)
(3429.8102 -1722.9303 -16.288368)
(3617.4375 -1759.3718 -37.873881)
(3786.9284 -1784.949 -52.995124)
(3943.9102 -1806.0227 -58.490114)
(4082.3127 -1820.7859 -54.450777)
(4204.1431 -1832.0669 -42.238902)
(4310.4464 -1842.6448 -22.491563)
(4403.6969 -1854.3428 2.7978534)
(4487.2399 -1869.3842 31.612142)
(4564.9016 -1889.3656 61.695034)
(4640.5753 -1915.5007 90.868589)
(4718.0327 -1948.4625 117.18523)
(4800.5649 -1988.4365 139.06462)
(4890.8677 -2035.1004 155.34135)
(4990.9108 -2087.7503 165.3122)
(5101.9069 -2145.3294 168.70802)
(5224.3031 -2206.5542 165.67195)
(5357.8242 -2269.9867 156.71181)
(5501.5116 -2334.1282 142.66886)
(5653.817 -2397.5212 124.63997)
(5812.7211 -2458.8086 103.92723)
(5975.8843 -2516.8609 81.908275)
(6140.848 -2570.7868 59.945824)
(6305.2364 -2620.0899 39.239223)
(6466.9918 -2664.5802 20.696649)
(6624.4387 -2704.6576 4.8730264)
(6777.1341 -2740.7989 -8.3735569)
(6924.1734 -2774.3833 -19.508273)
(7103.2344 -2663.7909 -33.089032)
(7133.3439 -2518.917 -34.868861)
(7160.8881 -2375.8435 -34.015435)
(7184.5796 -2240.5103 -30.198343)
(7209.6397 -2108.7512 -22.766802)
(7231.5421 -1983.9303 -13.645808)
(7258.309 -1861.6234 -1.5859567)
(7284.4154 -1741.813 10.263515)
(7313.3802 -1622.1831 22.505641)
(7346.888 -1502.1583 33.572324)
(7383.1278 -1378.5759 42.980274)
(7420.3182 -1248.2789 49.986965)
(7462.6008 -1115.1766 52.019999)
(7502.0232 -971.3195 53.809531)
(7545.3586 -826.21872 49.284338)
(7431.4025 -638.79552 32.27862)
(7279.2485 -599.29816 20.406186)
(7122.2943 -559.02796 5.4759771)
(6959.3884 -518.99287 -11.925364)
(6791.4038 -480.40508 -31.388666)
(6619.4716 -444.50582 -52.899194)
(6445.9754 -412.39701 -74.767657)
(6273.0998 -384.81183 -96.215873)
(6103.4291 -362.26222 -115.78794)
(5939.6176 -344.94159 -132.23172)
(5783.7938 -332.51858 -144.37637)
(5638.1587 -324.57171 -151.20549)
(5503.9556 -320.17527 -151.97746)
(5381.989 -318.02168 -146.49585)
(5272.3842 -316.76861 -134.36758)
(5174.2875 -314.86951 -116.02652)
(5086.0586 -310.76292 -92.337261)
(5005.1166 -302.85986 -64.579284)
(4928.0896 -289.68962 -34.59447)
(4851.064 -270.2502 -4.3535332)
(4769.8604 -243.75274 23.85723)
(4680.2712 -210.1276 47.919072)
(4578.6025 -169.68858 65.819766)
(4461.6907 -123.45429 76.12209)
(4327.881 -73.080571 77.529095)
(4175.6819 -19.787359 70.466811)
(4007.222 31.838705 53.303716)
(3821.3849 86.006756 29.235549)
(3623.805 128.9877 -1.3315804)
(3417.8334 169.76515 -35.963172)
(3207.4061 201.08632 -73.465228)
(2997.7525 222.87605 -110.71903)
(2793.6861 234.47815 -145.62841)
(2599.8259 235.67405 -175.98525)
(2420.2421 227.00087 -199.92356)
(2258.15 209.53018 -215.99439)
(2115.792 184.8311 -223.26261)
(1994.2733 154.87756 -221.37055)
(1893.5322 121.90798 -210.55126)
(1812.3555 88.285869 -191.60675)
(1748.4764 56.337091 -165.84411)
(1698.7354 28.201207 -134.97682)
(1659.2928 5.6904098 -101.00708)
(1625.8826 -9.822726 -66.092039)
(1594.0768 -17.488732 -32.412939)
(1559.5738 -17.021412 -2.046212)
(1518.4412 -8.7244488 23.152546)
(1467.3813 6.5786071 41.659173)
(1403.9442 27.497999 52.363288)
(1326.5631 52.350966 54.655862)
(1235.0403 79.074804 48.388636)
(1129.8705 105.28805 34.260132)
(1013.177 129.11092 12.935525)
(887.92931 147.93313 -13.619872)
(757.14061 160.38248 -43.922572)
(626.50084 164.61519 -75.41813)
(499.47118 160.70811 -105.89686)
(380.32976 145.08758 -132.87438)
(276.78548 122.17762 -155.54095)
(186.92754 92.675115 -170.9688)
(116.36161 55.182168 -177.12057)
(71.076186 10.825751 -175.66507)
(43.854837 -30.58922 -164.07636)
(40.068255 -76.868441 -145.23196)
(53.734701 -118.30304 -117.39383)
(86.991182 -158.31422 -84.191286)
(132.33237 -186.42844 -46.017363)
(186.88726 -212.43031 -5.7624206)
(248.28246 -226.30723 35.162972)
(309.10519 -232.71293 74.339748)
(367.3342 -229.23199 110.57873)
(419.13926 -215.14261 141.16407)
(459.14127 -194.01895 166.91578)
(489.88692 -168.0128 185.62836)
(506.37093 -134.51401 195.75618)
(506.37819 -97.046554 200.2794)
(495.49158 -60.881154 196.55272)
(467.53161 -21.091955 186.76985)
(429.86946 13.170993 171.12626)
(381.01578 46.545756 150.44622)
(323.43383 73.9314 126.03965)
(260.87303 95.888402 99.730476)
(196.32469 110.88996 71.831945)
(132.5053 119.49443 43.412753)
(70.305275 122.35709 16.667276)
(15.347127 117.09131 -6.542117)
(-30.493579 107.10882 -27.795744)
(-68.164773 93.786533 -43.222151)
(-92.789206 76.690845 -53.669563)
(-106.0884 57.245366 -57.713674)
(-106.16399 37.568651 -56.798197)
(-95.695555 20.431728 -49.729755)
(-75.188219 5.8188597 -38.255896)
(-45.43984 -2.6190226 -21.568309)
(-17.269382 -8.915159 -1.7445926)
(-6.8708141e-15 1.5083581e-15 1.9262289e-16)
(-1.2504183e-14 5.7375616e-16 8.4327435e-16)
(-8.3449101e-15 1.4891922e-15 5.3018253e-16)
(-4.9731758e-15 1.4991158e-15 6.2376313e-16)
(-3.4146159e-15 1.5624416e-15 3.1576894e-17)
(2.0582335e-15 9.3962624e-16 -5.746342e-16)
(2.2101935e-15 3.7457559e-17 -1.1841335e-16)
(2.4553765e-15 -8.5141669e-16 -9.3419562e-16)
(1.2987427e-15 1.0081898e-16 1.7950851e-15)
(-4.5074861e-15 9.063971e-16 1.0710522e-15)
(-5.2682467e-15 2.1856155e-15 1.0652666e-15)
(-7.4917339e-15 1.915055e-15 2.2418828e-16)
(-9.400838e-15 1.3708275e-15 6.2833768e-16)
(-6.2048683e-15 1.3247981e-15 5.4317906e-16)
(-6.971104e-15 1.5128103e-15 7.5678131e-16)
(-1.2693866e-14 6.2923345e-15 -2.1364834e-15)
(-5.2452578e-15 2.6791924e-15 -5.3037742e-16)
(-1.0752404e-15 9.8318743e-16 -1.0111087e-16)
(-2.7353382e-15 1.7746034e-15 7.3085398e-17)
(1.0178949e-15 -1.5450237e-16 -4.119182e-16)
(-1.4303492e-15 4.136346e-16 -3.3264033e-16)
(-1.0059749e-14 4.7133437e-15 -1.6449855e-15)
(2.9801421e-15 -1.9180379e-15 -8.3172098e-16)
(-4.79756e-15 2.8035442e-15 1.1420498e-15)
(-5.4778068e-15 3.5047253e-15 -3.934403e-16)
(-1.8117877e-15 1.1581936e-15 -9.1309836e-16)
(-3.9812639e-16 4.7407236e-16 -2.2932148e-16)
(-1.5272242e-15 1.100363e-15 -2.2557932e-16)
(-4.1024849e-15 1.9838802e-15 2.8069696e-17)
(-5.3424143e-16 2.551799e-16 -1.9455919e-16)
(7052.6832 -2782.6177 43.532631)
(7053.193 -2798.5774 40.2641)
(7053.6856 -2812.8071 35.49834)
(7055.0047 -2825.8633 30.082506)
(7056.8127 -2837.1767 24.227363)
(7058.5487 -2846.2873 18.300821)
(7060.3113 -2853.0959 12.254884)
(7061.7714 -2857.4093 6.2224338)
(7062.9336 -2859.0658 0.22665171)
(7063.7118 -2857.9914 -5.7244165)
(7064.4063 -2854.438 -11.57583)
(7064.808 -2848.4939 -17.188841)
(7065.3813 -2840.5205 -22.493884)
(7066.4077 -2830.3255 -26.57169)
(7067.3998 -2819.7401 -30.506579)
(7571.7857 -656.57063 -36.689828)
(7577.5498 -645.58245 -33.330437)
(7583.8747 -635.13597 -28.103224)
(7589.8839 -625.95588 -21.807619)
(7596.0505 -618.61838 -14.945417)
(7601.0501 -613.32614 -7.8946999)
(7604.9925 -610.27974 -0.79106093)
(7607.5893 -609.50384 6.1983082)
(7608.7175 -611.06669 13.016477)
(7608.3366 -614.88558 19.616161)
(7606.5161 -620.89109 25.952595)
(7603.3003 -629.01818 31.92582)
(7599.0405 -638.76947 37.576874)
(7594.0601 -650.4748 41.728533)
(7588.2406 -662.56027 45.656648)
(-17.358432 8.4344574 7.2817474)
(-48.45688 15.313402 20.572456)
(-76.317843 22.753582 30.832852)
(-97.337763 30.839921 38.528889)
(-108.90284 40.237308 43.112571)
(-108.68269 49.971745 43.105626)
(-96.732535 59.035368 38.401575)
(-71.842226 67.217985 29.130492)
(-35.872676 72.722642 15.634702)
(10.832719 75.479643 -1.4633011)
(66.237325 74.162192 -21.671652)
(127.98192 69.178052 -43.368645)
(193.21321 59.014395 -66.266014)
(259.24855 44.979542 -88.757338)
(322.88054 26.483463 -110.21456)
(381.56504 4.7203444 -128.97753)
(432.40178 -20.525087 -144.81849)
(473.20585 -47.231331 -156.36904)
(501.61805 -74.602486 -163.46123)
(516.52518 -101.67547 -164.86424)
(517.35438 -126.63259 -160.792)
(503.37694 -148.69223 -150.92264)
(475.84072 -166.48949 -135.1768)
(435.84707 -178.89499 -114.19592)
(385.01052 -185.52304 -88.300823)
(326.74281 -185.80563 -58.656328)
(264.4534 -179.52329 -26.170252)
(201.94553 -167.29317 7.5785443)
(143.32678 -149.52339 41.115154)
(93.092975 -127.14678 72.535838)
(55.810539 -101.59373 100.91673)
(34.504847 -74.219489 123.78797)
(32.36063 -46.264219 140.59002)
(51.290467 -19.15964 150.48068)
(92.475284 4.9044885 152.61607)
(156.29985 25.425811 147.50415)
(240.14017 41.26477 135.5551)
(341.6691 51.309153 117.7483)
(458.06382 55.511323 95.491607)
(584.41254 54.586365 70.493967)
(716.0014 47.960787 44.83892)
(848.23111 36.832115 20.027356)
(976.88606 22.698023 -1.9557176)
(1097.5724 6.3811762 -19.531317)
(1207.1517 -10.51786 -31.506733)
(1303.4761 -26.60136 -37.092199)
(1385.4234 -40.556043 -35.932552)
(1453.0978 -51.134779 -28.080475)
(1507.6606 -57.405049 -14.03023)
(1551.35 -58.687935 5.3964855)
(1587.216 -54.701004 29.05919)
(1619.0028 -45.529985 55.596136)
(1650.8596 -31.67543 83.473111)
(1687.1348 -14.009079 111.07426)
(1732.1029 6.2542689 136.76123)
(1789.7346 27.64103 158.97553)
(1863.4546 48.503662 176.30876)
(1955.9346 67.143722 187.59772)
(2068.9229 81.915379 192.01908)
(2203.0815 91.350767 189.13396)
(2357.9512 94.291102 178.96881)
(2531.8653 89.893675 161.997)
(2722.1095 77.886832 139.22938)
(2924.8572 58.247598 111.85247)
(3135.7039 31.51661 81.978311)
(3349.626 -0.89936236 51.056048)
(3561.3573 -38.228662 20.753195)
(3765.7167 -79.196487 -5.4804108)
(3958.6062 -121.73049 -28.000866)
(4135.6597 -164.37158 -42.883515)
(4295.444 -205.54368 -51.368546)
(4436.5566 -243.78093 -52.094783)
(4559.2607 -278.2583 -45.478429)
(4665.278 -308.45907 -32.198604)
(4757.5013 -334.13655 -13.568911)
(4839.7213 -355.45676 8.7796532)
(4916.1604 -372.84095 33.014831)
(4991.2719 -387.01363 57.263285)
(5069.2138 -398.78444 79.800303)
(5153.6937 -409.13651 99.114805)
(5247.5395 -419.05375 114.15661)
(5352.8593 -429.46966 124.10293)
(5470.4575 -441.16074 128.68466)
(5600.6718 -455.04033 127.96533)
(5742.8744 -471.96313 122.43102)
(5895.7824 -491.98551 112.6506)
(6057.4549 -515.42203 99.389119)
(6225.1585 -542.14544 83.651846)
(6396.9003 -571.85012 66.335503)
(6569.3573 -604.18848 48.484641)
(6740.5128 -638.42536 31.03981)
(6908.3821 -674.03315 14.295919)
(7070.5344 -710.33741 -0.85514341)
(7227.1428 -745.8132 -15.435682)
(7378.5831 -783.21997 -28.274927)
(-22.87225 9.0242704 10.849626)
(-52.13472 16.94476 19.279992)
(-79.246613 24.580091 26.474663)
(-100.05255 30.002747 32.640082)
(-111.28794 36.518 35.653657)
(-111.34035 41.406828 35.005559)
(-98.955041 46.141097 30.645009)
(-74.488115 48.994876 22.498446)
(-37.927062 50.233998 11.004549)
(9.2604651 48.830597 -3.7692406)
(65.165183 44.816085 -20.430296)
(127.52727 37.604677 -39.074676)
(193.59997 27.394223 -57.956647)
(260.64188 13.948246 -76.928771)
(325.44526 -2.2599665 -94.364981)
(385.22712 -20.879052 -110.23132)
(436.93234 -41.100855 -122.95722)
(478.59136 -62.313072 -132.60073)
(507.80087 -83.445452 -137.85467)
(523.42416 -103.6454 -138.88658)
(524.18632 -121.91278 -135.05762)
(510.41857 -137.29019 -126.40064)
(482.30783 -149.01212 -112.95762)
(441.42262 -156.49319 -95.078837)
(389.80331 -159.28378 -73.186643)
(330.3728 -157.43952 -48.129673)
(266.52762 -151.00673 -20.930265)
(202.17589 -140.40289 7.1917372)
(141.75238 -126.30739 35.060504)
(89.768575 -109.76167 61.384756)
(49.972333 -91.588241 84.435906)
(26.654974 -72.977017 103.42026)
(22.687582 -55.094051 117.30248)
(39.953183 -39.045547 125.35683)
(79.835199 -25.900068 127.23825)
(141.62519 -16.038869 122.77605)
(224.13722 -10.157512 112.6722)
(324.8989 -8.4594063 97.989234)
(440.33139 -10.852608 79.487482)
(566.1376 -16.889292 58.800105)
(697.73006 -26.242293 37.543808)
(830.2592 -37.96413 16.90845)
(959.12243 -51.147009 -0.9655087)
(1080.338 -64.823695 -15.336371)
(1190.5332 -77.879943 -25.105698)
(1287.4091 -89.438659 -29.623955)
(1369.7869 -98.579671 -28.550826)
(1437.6262 -104.61411 -21.969971)
(1492.0552 -107.04474 -10.290506)
(1535.2293 -105.62488 5.8184414)
(1570.2009 -100.41365 25.397888)
(1600.7179 -91.746231 47.332964)
(1630.9772 -80.272093 70.348551)
(1665.3927 -66.8925 93.106614)
(1708.3224 -52.74239 114.25202)
(1763.8226 -39.097451 132.492)
(1835.4042 -27.305961 146.66176)
(1925.8214 -18.685915 155.81178)
(2036.8755 -14.426289 159.26439)
(2169.3023 -15.50113 156.68071)
(2322.6641 -22.578422 148.10257)
(2495.3582 -35.98876 133.94619)
(2684.6505 -55.656271 115.06495)
(2886.8485 -81.142449 92.442941)
(3097.3659 -111.75859 67.97183)
(3311.6135 -145.61579 41.934813)
(3523.0716 -183.41963 18.885415)
(3728.657 -222.64917 -3.4453114)
(3923.0376 -260.76296 -21.328514)
(4102.1228 -297.34751 -34.120745)
(4263.7423 -331.74784 -41.064526)
(4406.822 -362.78924 -41.905375)
(4531.3185 -390.27649 -36.695331)
(4638.9963 -414.26447 -26.028872)
(4732.5256 -434.93189 -10.970985)
(4815.5534 -452.79976 7.2248931)
(4892.3005 -468.4999 27.020126)
(4967.1653 -482.79018 46.951629)
(5044.3469 -496.37159 65.558575)
(5127.5698 -510.07098 81.656203)
(5219.8471 -524.44114 94.266083)
(5323.3111 -540.29905 102.85851)
(5439.2586 -557.91351 106.87023)
(5567.6723 -578.38114 106.49794)
(5708.4911 -600.31769 101.9068)
(5859.9137 -625.3857 93.852531)
(6020.5293 -653.04964 82.859038)
(6187.6075 -683.12204 69.773532)
(6358.8062 -715.41741 55.086014)
(6531.4648 -749.35073 40.010383)
(6702.6046 -784.38444 24.676422)
(6870.9377 -820.66728 9.7880081)
(7033.7064 -857.03626 -4.1823709)
(7190.2924 -892.62212 -18.695269)
(7342.2949 -930.38561 -30.942766)
(-27.237018 8.4800123 11.437495)
(-56.043296 15.617296 17.573166)
(-82.885248 21.962883 23.246603)
(-102.31589 26.7036 27.462495)
(-112.90535 30.843694 28.790486)
(-112.09655 33.642603 27.714202)
(-99.917737 35.109582 23.607872)
(-74.66789 35.41865 16.583335)
(-38.078464 33.611148 6.508798)
(9.3222815 30.395021 -5.4337255)
(65.443545 24.406643 -19.649477)
(128.23573 16.73796 -34.550002)
(194.71963 6.1675932 -50.213895)
(262.18148 -6.0673009 -65.200624)
(327.53776 -20.597662 -79.583786)
(387.68547 -36.306746 -91.818874)
(440.13773 -53.242049 -102.1066)
(482.15083 -70.18972 -109.24048)
(511.79063 -86.847546 -113.25615)
(527.51689 -102.19922 -113.5099)
(528.53851 -115.58577 -109.94193)
(514.6142 -126.41041 -102.37798)
(486.35168 -134.05616 -91.005647)
(445.08826 -138.20685 -76.038257)
(392.92558 -138.67951 -57.959957)
(332.77712 -135.57929 -37.417499)
(268.11729 -129.18561 -15.270104)
(203.04905 -119.99826 7.6159626)
(141.79534 -108.73407 30.149962)
(88.677561 -96.233237 51.141105)
(48.153002 -83.388005 69.723837)
(23.782604 -71.138193 84.835665)
(18.499699 -60.408535 95.705099)
(34.551849 -51.827829 101.79445)
(72.829543 -46.120118 102.77208)
(133.3895 -43.631521 98.9224)
(214.66664 -44.56655 90.718735)
(313.97644 -48.933949 78.60661)
(428.26009 -56.437438 63.527405)
(553.07884 -66.4536 46.880546)
(683.81987 -78.405133 29.676032)
(815.71799 -91.550561 13.32308)
(944.15778 -104.95299 -1.0283244)
(1065.1045 -117.91917 -12.289603)
(1175.1799 -129.65633 -19.944799)
(1272.0394 -139.31958 -23.307424)
(1354.4249 -146.45962 -22.225143)
(1422.2422 -150.63776 -16.757308)
(1476.5454 -151.68576 -7.2482447)
(1519.444 -149.62483 5.7394609)
(1553.9532 -144.74842 21.436699)
(1583.7993 -137.56104 38.946428)
(1613.1856 -128.81499 57.245291)
(1646.5422 -119.43258 75.273974)
(1688.2603 -110.49032 91.955113)
(1742.4348 -103.12024 106.2687)
(1812.6208 -98.459556 117.30487)
(1901.6033 -97.54701 124.32268)
(2011.2291 -101.24739 126.80652)
(2142.2513 -110.19443 124.51272)
(2294.2641 -124.70332 117.49784)
(2465.6913 -144.79694 106.12525)
(2653.7966 -170.0886 91.042541)
(2855.0212 -199.99703 73.213269)
(3064.5127 -233.47444 53.570254)
(3278.4124 -269.44576 33.761252)
(3489.6115 -306.82321 14.539283)
(3694.4699 -343.587 -3.3609159)
(3889.4282 -379.6776 -16.346276)
(4068.8489 -413.64353 -26.165967)
(4231.1979 -444.67655 -31.252391)
(4375.161 -472.60796 -31.514192)
(4500.834 -497.12681 -27.150573)
(4609.7597 -518.57191 -18.584255)
(4704.5715 -537.2817 -6.5617931)
(4788.8034 -554.01483 7.7658457)
(4866.5121 -569.39353 23.360517)
(4942.0056 -584.27439 38.985648)
(5019.4137 -599.31023 53.557418)
(5102.471 -615.22366 66.092689)
(5194.1617 -632.51882 75.905487)
(5296.7677 -651.70887 82.421084)
(5411.3534 -673.01772 85.596387)
(5538.8057 -697.01928 85.322077)
(5678.4316 -723.50793 81.54734)
(5828.567 -751.98049 75.103592)
(5988.0333 -783.00582 66.403867)
(6154.0114 -816.11104 55.822813)
(6324.6588 -850.72567 44.085567)
(6496.5552 -886.62515 31.599019)
(6667.6471 -923.1788 19.000695)
(6835.9543 -960.45872 6.2534827)
(6998.6834 -997.6172 -5.9983958)
(7155.3847 -1033.7012 -19.089788)
(7307.0474 -1071.383 -31.036518)
(-30.906965 7.7663077 10.993299)
(-59.980531 12.835058 15.525243)
(-85.303635 18.147599 19.155093)
(-103.64282 21.427028 21.50677)
(-113.02215 24.667013 22.012568)
(-112.15182 25.661555 20.700866)
(-98.742363 26.141547 16.873337)
(-73.548538 24.66176 10.61867)
(-36.655175 22.102029 2.8040455)
(10.91114 17.512119 -7.3412353)
(67.22235 11.428501 -18.208407)
(129.98791 3.3688536 -30.310294)
(196.55646 -6.3331838 -42.130199)
(264.19522 -17.67725 -54.102149)
(329.46616 -30.418093 -64.623488)
(389.96452 -44.030518 -74.195627)
(442.31257 -58.167445 -81.540435)
(484.48809 -72.196226 -86.823235)
(514.09772 -85.557141 -89.352028)
(529.91731 -97.572404 -89.121236)
(530.76904 -107.776 -85.791073)
(516.75416 -115.5438 -79.506683)
(488.21954 -120.62461 -70.220722)
(446.76218 -122.70869 -58.250479)
(394.37384 -121.87509 -43.907263)
(334.0225 -118.24195 -27.768557)
(269.21402 -112.19344 -10.422452)
(203.94908 -104.26813 7.3080883)
(142.48454 -95.170522 24.664244)
(89.314836 -85.641337 40.799193)
(48.420586 -76.534623 54.887453)
(23.652929 -68.633467 66.239021)
(17.950803 -62.606966 74.224358)
(33.405206 -59.120422 78.576734)
(71.043877 -58.601123 79.042208)
(130.63129 -61.177687 75.81542)
(210.93787 -66.905339 69.009045)
(309.41311 -75.434898 59.209382)
(422.52432 -86.440914 47.548353)
(545.9983 -99.54225 34.445278)
(675.3867 -113.87406 21.299255)
(805.98288 -128.80249 8.8099836)
(933.20634 -143.45589 -1.9641625)
(1052.9751 -157.19941 -10.428455)
(1162.0928 -169.29379 -15.944099)
(1258.1802 -179.17848 -18.164172)
(1339.9609 -186.49581 -16.970973)
(1407.315 -190.99407 -12.443196)
(1461.2777 -192.64528 -4.8851528)
(1503.9171 -191.62176 5.2587245)
(1538.2208 -188.32898 17.384732)
(1567.8843 -183.35777 30.798641)
(1597.0864 -177.50439 44.722603)
(1630.2339 -171.69246 58.35253)
(1671.6979 -166.9534 70.874041)
(1725.5521 -164.33086 81.524438)
(1795.3246 -164.83426 89.623394)
(1883.7782 -169.33989 94.625395)
(1992.7319 -178.53436 96.158757)
(2122.912 -192.86294 94.066569)
(2273.9074 -212.46135 88.419313)
(2444.1289 -237.1643 79.504654)
(2630.8806 -266.49975 67.89192)
(2830.5581 -299.72148 54.18449)
(3038.7154 -335.80809 39.452424)
(3250.439 -373.72755 24.293986)
(3460.8196 -412.09513 9.9001576)
(3664.7978 -449.7393 -2.4560069)
(3858.132 -485.93099 -12.779314)
(4036.8469 -519.44523 -20.119577)
(4199.0646 -549.85978 -23.808065)