/*--------------------------------*- C++ -*----------------------------------*\
  =========                 |
  \\      /  F ield         | OpenFOAM: The Open Source CFD Toolbox
   \\    /   O peration     | Website:  https://openfoam.org
    \\  /    A nd           | Version:  6
     \\/     M anipulation  |
\*---------------------------------------------------------------------------*/
FoamFile
{
    version     2.0;
    format      ascii;
    class       pointVectorField;
    location    "1.87";
    object      lm;
}
// * * * * * * * * * * * * * * * * * * * * * * * * * * * * * * * * * * * * * //

dimensions      [1 -2 -1 0 0 0 0];

internalField   nonuniform List<vector> 
625
(
(-3.6361799e-15 2.112754e-16 -3.2990721e-16)
(2.8178306e-17 1.9013092e-16 6.1994168e-17)
(7514.8268 1130.3993 3.5607469)
(7631.1617 -753.74295 294.28703)
(6.5239771e-16 2.739523e-16 -5.5565719e-16)
(-3.7042918e-15 1.4868296e-15 -1.3023874e-15)
(7433.1831 -817.81679 296.05348)
(7319.2377 1065.2842 7.1103427)
(-1.9658614e-16 -3.2115893e-17 -1.1045223e-16)
(1.4766345e-16 -3.4299605e-16 -2.8648028e-16)
(-1.0135278e-15 7.0169807e-16 1.7538027e-16)
(7437.2087 652.09043 74.314811)
(7505.1297 191.72428 147.04483)
(7638.6412 -279.09069 222.41279)
(7.4465847 49.210455 45.202451)
(46.404486 101.77108 36.795617)
(115.76146 164.14858 31.999051)
(221.45169 226.51688 21.748841)
(352.53055 287.27704 12.083013)
(522.07719 354.68263 0.60519024)
(718.11962 418.53905 -8.3100152)
(949.21838 484.36438 -18.659328)
(1211.8287 550.53383 -27.13452)
(1503.1372 613.51264 -36.264157)
(1824.4862 677.07391 -43.127667)
(2172.6214 737.03947 -49.069347)
(2546.0225 794.08253 -53.747521)
(2941.1051 847.26583 -56.743294)
(3355.5321 895.80992 -58.247261)
(3785.7112 939.67948 -58.033337)
(4228.6775 977.83479 -56.153352)
(4681.1813 1011.4824 -52.587532)
(5140.5352 1039.32 -47.468253)
(5603.731 1062.5375 -40.502953)
(6069.8331 1081.9753 -31.963675)
(6535.7115 1097.9408 -21.734093)
(7000.3069 1110.0456 -9.8163988)
(-4.1274376 -44.201178 -62.359633)
(47.577843 -102.58771 -41.366535)
(118.73761 -165.23033 -49.262071)
(221.44316 -228.5704 -39.059664)
(353.4776 -285.60595 -36.430517)
(522.86409 -350.92751 -28.439959)
(716.48598 -405.96621 -22.937637)
(946.03403 -463.79074 -12.028526)
(1205.779 -517.94724 -2.7035222)
(1494.6293 -567.53543 10.79838)
(1814.8709 -614.62037 25.472437)
(2162.423 -656.85249 42.398827)
(2537.0922 -693.82394 61.142438)
(2936.4513 -725.79947 81.583136)
(3358.2018 -751.80861 103.49246)
(3799.2721 -772.09356 126.30584)
(4256.7581 -786.38885 149.88208)
(4726.7983 -794.8467 173.39755)
(5205.9341 -797.80206 196.83949)
(5690.0643 -795.67341 219.19524)
(6176.3071 -789.24569 240.62996)
(6660.3828 -779.17934 260.08274)
(7147.1107 -766.7392 278.57545)
(-4.8813632e-16 1.9183015e-16 -1.0607077e-16)
(-2.6214496e-15 -5.6404768e-16 7.244144e-16)
(-2.4010456e-15 1.4295629e-15 -1.6975308e-16)
(0.33620138 -25.18888 45.260766)
(26.499052 -119.39472 66.342462)
(87.815546 -151.40399 64.791645)
(173.68943 -221.14787 70.23164)
(302.2983 -285.32751 79.315823)
(454.95585 -343.47474 79.348517)
(639.73961 -403.35757 88.849495)
(861.94625 -466.80162 94.119217)
(1110.7783 -522.37199 101.55168)
(1392.6869 -579.35782 110.14075)
(1702.5948 -630.47162 119.06296)
(2042.2943 -679.14602 129.78514)
(2407.5016 -722.21465 140.77142)
(2798.1798 -759.96027 152.95918)
(3210.7758 -792.2923 165.83846)
(3642.7064 -817.57166 179.33597)
(4090.985 -836.92593 193.28083)
(4551.9931 -849.29472 207.65798)
(5022.4217 -855.62987 222.14553)
(5498.6417 -855.68325 236.72263)
(5977.4663 -850.9341 251.5007)
(6455.9205 -841.34231 265.99148)
(6926.0568 -828.18165 280.40165)
(7445.9449 -344.76444 223.93955)
(7293.5887 126.72837 149.72007)
(7273.5476 590.58979 78.646472)
(6818.0034 1047.3808 -8.8396979)
(6356.4375 1034.6806 -24.957375)
(5890.1102 1018.379 -41.145754)
(5424.6189 998.9554 -57.212359)
(4961.9642 975.7614 -72.762949)
(4504.487 948.68333 -87.149403)
(4054.8046 917.18134 -100.19094)
(3615.9733 881.54395 -111.61494)
(3191.0176 841.57784 -120.94506)
(2783.279 797.76055 -128.14599)
(2395.7412 750.03613 -133.04849)
(2031.2315 699.35957 -135.68277)
(1692.7625 645.87118 -136.09724)
(1382.4386 590.77389 -134.00597)
(1101.6736 529.61864 -129.22569)
(850.22989 471.88986 -124.14141)
(632.70055 412.52155 -117.45332)
(446.1913 350.10434 -107.65281)
(293.52465 289.20027 -99.828982)
(172.96485 225.02413 -86.493927)
(80.975145 170.67337 -80.212829)
(24.559437 99.48575 -66.862739)
(17.001704 50.200011 -41.173147)
(-1.3028228e-15 -3.4252847e-16 3.3068324e-16)
(-2.0449562e-15 -3.5718549e-16 -7.3673077e-16)
(-1.4121951e-15 -1.0527101e-15 6.223458e-16)
(-1.2019486e-15 6.189313e-16 -3.4292956e-16)
(-1.2511779e-16 -6.848356e-17 2.1836215e-16)
(-3.8898857e-17 4.7141393e-16 -3.1043199e-16)
(7581.6942 -770.33691 294.60543)
(7532.6128 -786.74192 294.78551)
(7482.6603 -802.20149 295.60116)
(7466.2587 1115.1233 4.9815157)
(7417.5513 1098.6225 5.3709337)
(7368.2315 1082.3748 6.1913459)
(-13.846781 24.827706 27.201614)
(25.181631 50.374756 15.157097)
(89.879651 80.176389 14.924871)
(192.63226 108.76539 6.1834818)
(320.41228 141.20222 2.0975072)
(489.10671 175.53683 -4.1630943)
(684.63618 207.66933 -8.6616592)
(918.43579 243.90979 -14.02661)
(1182.288 278.33058 -17.424314)
(1481.3769 313.32081 -20.819361)
(1809.7494 348.43157 -22.364736)
(2166.3544 381.73382 -23.21059)
(2547.6658 414.37756 -22.408229)
(2950.2477 445.50149 -20.481751)
(3370.2207 474.68156 -16.752928)
(3803.6988 501.95563 -11.711771)
(4247.2179 527.08161 -5.0757)
(4697.3196 550.23562 2.8385651)
(5152.1536 571.05361 12.384163)
(5608.9171 590.29053 22.643198)
(6067.6768 607.64494 34.299723)
(6526.6344 623.82497 47.089142)
(6992.9649 639.38672 60.64079)
(-23.22024 4.2041912 -3.3494274)
(24.404421 0.72081301 -5.9094966)
(90.196658 3.9911452 -9.3918613)
(193.37707 4.0159982 -9.1507024)
(328.70877 4.8600423 -12.039298)
(494.70153 5.6557762 -13.264888)
(692.26382 8.7567471 -15.047735)
(923.32536 11.203097 -14.464675)
(1183.5407 15.338597 -13.782503)
(1474.969 20.131068 -11.419727)
(1793.8929 26.689551 -8.0591231)
(2140.6082 34.296849 -2.7342474)
(2512.6431 43.493358 3.8980469)
(2907.9017 53.97131 12.175067)
(3324.2705 65.60629 22.015014)
(3758.9024 78.488167 32.999674)
(4209.4364 92.102778 45.333278)
(4672.6851 106.5445 58.579913)
(5145.9983 121.05122 72.772121)
(5625.9923 136.29498 87.078822)
(6110.425 150.78606 102.92721)
(6595.6244 165.45257 117.61532)
(7075.2025 179.67202 133.21121)
(-24.2865 -22.360937 -24.82941)
(30.263239 -50.726647 -23.511959)
(94.258581 -78.306215 -24.509906)
(206.05699 -109.8942 -21.904361)
(339.96803 -142.3989 -21.091874)
(508.18615 -167.99584 -19.045549)
(706.99514 -197.44951 -15.003015)
(934.34994 -221.6689 -10.61449)
(1190.1634 -245.11739 -4.8258307)
(1475.324 -265.70844 2.4956259)
(1787.2324 -283.78366 11.50775)
(2127.0486 -299.28511 22.056866)
(2492.5137 -312.1885 34.042099)
(2883.7023 -321.94729 47.582914)
(3298.7848 -329.09026 62.479355)
(3736.254 -333.043 78.58294)
(4193.7082 -334.31804 95.85018)
(4667.9564 -332.6498 113.85131)
(5155.618 -328.40485 132.37617)
(5652.4638 -321.95446 151.34975)
(6153.7015 -313.35966 169.75531)
(6655.6554 -303.29247 188.16847)
(7143.5483 -291.81849 205.37261)
(-2.5953868e-15 -2.1703571e-16 4.2716933e-18)
(-3.8783653e-15 3.5858996e-16 7.5215743e-16)
(-9.8459492e-16 7.8127033e-16 2.7525688e-16)
(-3.9146975e-16 7.8165185e-18 1.2560621e-16)
(1.6350797e-16 -2.4226884e-16 -1.2066667e-17)
(-1.0304172e-15 -9.2669207e-16 -7.5672327e-16)
(-6.4481012e-16 3.525084e-16 2.7116342e-16)
(-3.5205005e-15 9.4737515e-16 -2.5196009e-17)
(-3.8147498e-15 1.043275e-15 1.2924308e-16)
(17.320906 -19.971436 -24.960241)
(21.304756 -24.37939 0.1518396)
(15.018834 -13.691121 17.898866)
(72.255317 -118.29869 -13.438061)
(63.36476 -115.17931 10.394889)
(54.632498 -102.20854 39.209469)
(130.68069 -160.06774 -18.238633)
(129.15713 -150.7093 7.5586295)
(119.40968 -155.97294 41.431397)
(233.87066 -228.92484 -8.0559258)
(227.38605 -229.98775 18.211773)
(208.80381 -215.86455 46.165935)
(366.07551 -290.06304 -5.7486697)
(355.62003 -281.91884 19.048611)
(338.74458 -280.7883 52.024953)
(527.21424 -349.99321 0.15752194)
(516.4231 -346.96312 29.145662)
(493.66499 -341.11303 55.654122)
(721.16953 -408.93744 7.9686241)
(708.11044 -407.5191 31.712095)
(683.65432 -400.6634 64.382333)
(949.12379 -468.60526 15.914132)
(929.24222 -462.78721 40.968705)
(904.69877 -460.65018 69.099196)
(1203.4697 -521.07439 25.746097)
(1184.5301 -520.98556 49.459815)
(1155.5168 -517.62528 77.846584)
(1491.4945 -574.64902 36.975358)
(1468.6115 -573.78407 60.082489)
(1438.0327 -571.90711 86.63815)
(1806.7926 -622.39287 50.437257)
(1781.7727 -622.72154 72.144974)
(1748.4693 -622.58379 97.203839)
(2151.4236 -666.23098 65.797596)
(2123.4928 -668.27125 85.43187)
(2088.3996 -669.41412 108.92824)
(2521.6998 -705.1847 82.368617)
(2491.4535 -708.58936 100.3002)
(2454.1892 -711.52862 121.95483)
(2917.2568 -738.78848 100.76094)
(2884.2176 -743.51553 116.6809)
(2844.7018 -748.03814 136.0126)
(3334.3076 -766.4387 120.20385)
(3298.8041 -772.8039 133.78866)
(3257.8374 -779.3032 150.91686)
(3771.0695 -788.08203 140.49049)
(3733.3405 -795.92538 152.03077)
(3690.2544 -803.94451 166.76451)
(4223.9509 -803.5426 161.47694)
(4183.7137 -812.80476 170.72561)
(4139.2782 -822.47865 182.90674)
(4689.4559 -812.65753 182.4661)
(4647.3181 -823.3268 189.64153)
(4601.4071 -834.53533 199.53166)
(5164.3053 -816.1274 203.40903)
(5120.1419 -828.11892 208.6697)
(5073.1861 -840.52248 216.13897)
(5644.5685 -813.90855 223.69302)
(5599.0293 -826.96806 227.16924)
(5551.0029 -840.55862 232.62167)
(6127.2972 -807.26481 243.10661)
(6080.0603 -821.32798 245.31019)
(6031.452 -835.68374 249.05919)
(6608.8591 -796.47125 261.32899)
(6560.8071 -811.28814 262.66921)
(6511.7447 -826.39008 264.78662)
(7087.2757 -783.07211 278.39503)
(7038.6638 -798.75025 279.05323)
(6989.1292 -814.09087 280.2851)
(7399.382 637.72342 75.724696)
(7351.3396 621.81151 76.467323)
(7302.5252 605.84539 77.465085)
(7442.7598 175.53574 147.70164)
(7398.4541 159.36236 148.15766)
(7349.6615 143.47271 149.31285)
(7578.2484 -296.31241 222.51274)
(7535.1487 -312.67892 222.2173)
(7485.1803 -328.66993 223.36337)
(32.628539 42.48343 19.664203)
(30.335744 46.112405 1.0418177)
(35.771952 38.457958 -18.315267)
(64.535099 100.46556 9.369017)
(63.789784 99.561168 -17.497271)
(52.46449 93.700544 -43.558875)
(134.7815 171.36332 2.8314883)
(125.8209 166.63026 -20.046328)
(117.63651 165.40321 -54.940795)
(231.43038 223.65756 -7.8687297)
(225.18002 223.44503 -32.361072)
(209.86141 219.22431 -63.690949)
(362.04273 295.07864 -15.973665)
(351.84383 290.79351 -44.675915)
(331.79805 287.39099 -74.25648)
(525.962 355.09336 -28.154091)
(510.4554 349.71452 -51.011794)
(490.09507 346.51163 -84.143862)
(719.32272 419.97132 -36.382836)
(703.04068 417.43109 -62.150457)
(678.78737 411.15022 -93.465556)
(947.68773 485.43783 -45.797663)
(926.86804 479.15693 -70.760097)
(899.7638 472.32689 -101.93999)
(1203.1248 550.59109 -52.796196)
(1182.5548 541.88155 -80.292442)
(1150.929 535.07819 -106.38738)
(1493.1498 612.52688 -61.675385)
(1467.1404 604.01282 -82.441216)
(1435.796 593.76452 -113.64396)
(1811.1678 673.61871 -66.75777)
(1782.8695 663.88156 -89.965876)
(1747.8698 652.92104 -116.33374)
(2156.2612 732.80403 -71.621133)
(2124.6236 721.16394 -92.289919)
(2088.4402 708.76488 -117.53866)
(2525.9063 788.15153 -74.361098)
(2492.0861 775.51331 -94.062104)
(2453.4461 761.64072 -116.53492)
(2917.9499 840.09487 -75.802993)
(2881.5083 826.01331 -93.095433)
(2841.3704 810.80496 -113.40171)
(3329.1388 887.35961 -75.163084)
(3290.5626 872.21236 -90.560867)
(3248.4851 856.18203 -108.16197)
(3756.3744 929.97432 -72.863395)
(3715.7129 913.9926 -85.876132)
(3672.2638 897.10595 -100.84666)
(4196.5803 967.52835 -68.646045)
(4154.1061 950.78138 -79.436677)
(4109.1625 933.48128 -91.466045)
(4646.4312 1000.0277 -62.776722)
(4602.4623 982.78962 -70.967585)
(4556.4066 965.15648 -80.475121)
(5103.5221 1027.3369 -54.965706)
(5058.2711 1009.9317 -61.170067)
(5010.9841 992.41087 -68.017813)
(5564.96 1049.9986 -45.528112)
(5518.4811 1032.7315 -49.823386)
(5470.6661 1015.208 -54.193713)
(6028.8746 1068.8544 -35.136716)
(5981.9117 1051.5328 -37.309749)
(5933.2856 1034.286 -39.646496)
(6494.0323 1083.9281 -22.986154)
(6445.9701 1066.9007 -23.711705)
(6397.0919 1050.0938 -24.620958)
(6959.2238 1096.4028 -9.7065192)
(6910.8956 1079.8089 -9.4238289)
(6862.0188 1063.45 -9.1801637)
(-13.088437 19.660886 -26.996791)
(5.4402341 76.818554 -39.846454)
(54.446839 88.156518 -39.496416)
(147.19722 124.4391 -48.584929)
(261.43652 155.09241 -56.548116)
(416.59223 182.45745 -60.276426)
(601.58777 214.45056 -66.335569)
(822.27432 242.83883 -69.520439)
(1077.3366 273.36555 -72.503001)
(1365.1155 301.36438 -72.048298)
(1683.956 330.2483 -72.109821)
(2032.6744 357.11203 -67.776175)
(2406.6453 383.45343 -62.839908)
(2803.2488 408.5251 -55.244228)
(3217.942 432.36599 -46.311683)
(3646.9015 454.64096 -35.462394)
(4086.3315 475.61088 -23.356783)
(4532.7915 495.1692 -10.2097)
(4983.3958 513.2555 3.7997245)
(5436.4129 530.28285 18.415844)
(5890.1693 546.14133 33.160828)
(6344.2607 560.8434 48.120532)
(6795.2919 575.25148 63.320936)
(-31.687845 10.190927 -0.69839334)
(-4.8365011 11.897005 -5.6743539)
(58.385343 6.2837537 -3.9799871)
(148.75515 10.429047 -10.724381)
(268.24421 12.177184 -13.753538)
(427.39753 5.2217365 -11.916304)
(612.22587 10.476677 -15.386559)
(835.24115 6.1419802 -14.319547)
(1086.9817 7.2308387 -12.99896)
(1370.3207 6.0917872 -10.252443)
(1682.488 7.6778307 -6.2279475)
(2022.8493 9.0079482 -0.66569407)
(2387.4026 11.777853 6.2787624)
(2775.2292 16.51026 14.936117)
(3182.3399 22.346511 24.741393)
(3607.0886 29.985674 36.12698)
(4046.1194 39.1441 48.413692)
(4497.0188 49.581577 61.664484)
(4957.1683 61.307333 75.830406)
(5424.212 73.829282 90.262642)
(5896.1298 87.019722 105.12216)
(6370.53 100.62512 120.2435)
(6859.7075 114.50399 135.28042)
(-34.959473 -25.72175 23.031971)
(10.106436 -43.589705 25.309315)
(67.633159 -91.128853 35.531619)
(159.06047 -103.33368 29.087657)
(284.32752 -145.24914 37.088896)
(445.79258 -172.2045 36.398017)
(629.14947 -202.51737 38.488061)
(850.66919 -231.82419 42.649497)
(1095.6841 -259.03024 46.091903)
(1373.1402 -284.63324 51.526028)
(1675.6967 -308.1684 57.709314)
(2006.3007 -329.02438 65.308409)
(2362.8273 -347.63031 74.375326)
(2744.1558 -362.51987 84.312469)
(3149.8092 -374.87407 95.512228)
(3577.2818 -383.68403 107.68525)
(4024.9252 -389.03393 120.64055)
(4489.4825 -391.15684 134.37198)
(4968.1505 -389.70432 148.7254)
(5456.6151 -385.40714 163.23214)
(5951.2685 -378.07098 178.51514)
(6447.5522 -368.48823 193.33093)
(6946.942 -357.40038 209.12749)
(2.3620305 12.983908 10.697366)
(0.17942778 14.838253 -0.3081516)
(5.4355611 13.599369 -12.623153)
(41.271911 58.218628 1.1243448)
(44.102727 56.832572 -11.499)
(30.961524 59.946174 -27.766255)
(106.7669 80.745152 -0.77036955)
(94.9862 80.637881 -14.676085)
(88.489032 85.663328 -28.615163)
(201.70389 115.93131 -8.7214298)
(198.29177 116.2328 -24.515717)
(182.5409 116.14726 -36.918222)
(331.03343 146.42453 -15.559194)
(319.29145 144.52158 -28.049011)
(302.04519 147.32155 -44.415402)
(493.01598 178.87889 -20.239052)
(480.57355 178.39365 -35.552383)
(458.91792 180.06138 -49.576285)
(686.51139 211.66776 -25.758402)
(670.62602 210.829 -41.340727)
(647.32164 209.43774 -55.269854)
(915.90908 247.26006 -31.340119)
(898.24416 242.33253 -45.667084)
(870.8028 242.01755 -58.916025)
(1178.2862 278.56118 -34.33265)
(1156.3413 275.74688 -48.446473)
(1127.0218 272.81906 -62.787562)
(1473.2808 313.77111 -37.194653)
(1448.5598 308.79516 -51.405103)
(1417.4178 303.16694 -63.409646)
(1798.4026 346.81292 -38.269367)
(1771.0998 339.36485 -51.787412)
(1736.8821 333.62251 -62.944349)
(2151.9925 379.09526 -38.32257)
(2121.8434 370.9222 -50.226909)
(2085.8939 363.24995 -60.853021)
(2530.6821 410.58806 -36.396876)
(2497.8496 400.42718 -47.358265)
(2459.6521 391.24568 -56.251356)
(2930.7142 440.28249 -33.15761)
(2895.2663 428.82118 -42.137477)
(2855.3102 418.05597 -50.00378)
(3348.2351 468.24628 -27.860793)
(3310.4796 455.32331 -35.391905)
(3268.703 443.57941 -41.91767)
(3779.3462 494.28175 -21.185099)
(3739.362 480.37288 -26.958858)
(3696.0458 467.32854 -32.233701)
(4220.3098 518.34564 -12.795371)
(4178.4837 503.1992 -17.000413)
(4133.7215 489.53666 -20.931903)
(4667.9587 540.11798 -3.1709378)
(4624.5475 524.51204 -5.7668667)
(4578.5678 510.00396 -8.7179082)
(5119.9051 560.17066 8.0303403)
(5075.0028 543.63667 6.4077568)
(5027.989 529.00872 4.6827606)
(5574.7467 578.11524 19.880421)
(5527.0773 561.71436 19.708708)
(5480.097 546.29093 18.612786)
(6028.6162 594.29377 32.817432)
(5982.6573 578.29864 33.611229)
(5933.9209 562.64342 32.879458)
(6485.045 609.52799 46.52817)
(6437.5482 593.10333 47.458528)
(6388.6368 577.5 47.554128)
(6941.9991 624.20702 61.006887)
(6894.0413 607.85818 61.957351)
(6845.2684 592.30522 62.476687)
(-10.63076 3.5959066 -3.8367065)
(-8.901286 6.4241117 -3.7643421)
(-7.1439202 8.2608312 -3.7412071)
(35.635566 4.0984122 -9.6502274)
(34.233516 7.8171484 -9.3694325)
(20.126172 10.915083 -8.0488472)
(104.13576 6.8678006 -11.206693)
(98.290112 9.1277743 -5.7702104)
(88.670553 11.359568 -7.9317054)
(201.43516 4.3869388 -14.119368)
(200.30834 5.1536188 -11.244577)
(182.03098 5.3040168 -12.331477)
(336.13292 7.7712446 -15.187531)
(327.01014 9.2506375 -10.439395)
(305.73555 13.569044 -15.509319)
(497.82766 7.0995103 -17.008703)
(488.38901 7.0419853 -15.413608)
(464.70041 8.1070732 -15.884744)
(694.76295 10.196132 -19.50408)
(681.06036 9.6297152 -14.667698)
(655.33614 9.23143 -16.810606)
(922.6729 11.098782 -18.022042)
(906.88277 9.3343133 -14.837895)
(876.6913 9.7190585 -17.721533)
(1180.8209 14.77567 -17.671967)
(1161.825 12.229453 -15.006859)
(1130.9572 9.6400727 -15.488734)
(1469.8894 19.008817 -15.093496)
(1448.5977 13.828371 -11.625262)
(1414.0837 11.340054 -12.645742)
(1787.3788 23.648968 -11.381595)
(1762.8481 17.517121 -7.6986083)
(1726.8935 12.652897 -8.865964)
(2131.5905 29.858659 -5.8171899)
(2104.6446 22.317672 -2.0702191)
(2066.3026 16.506875 -3.205664)
(2500.9736 37.633944 1.2599044)
(2471.1897 28.255407 4.919074)
(2431.1116 20.509012 4.0568095)
(2892.6399 46.312503 9.8892253)
(2860.4094 35.384987 13.702436)
(2818.5141 26.668507 12.813561)
(3304.8763 56.484923 20.118541)
(3269.8925 44.2515 23.706756)
(3226.6093 34.141306 22.822234)
(3734.4278 67.827614 31.512446)
(3697.0656 54.349965 35.023194)
(3652.3642 42.984957 34.347533)
(4179.1301 80.107087 44.221253)
(4139.2404 65.504688 47.451061)
(4093.6213 53.210289 46.889038)
(4635.8153 93.201328 57.789617)
(4593.8969 77.93468 60.768293)
(4547.2259 64.645832 60.294146)
(5102.2635 106.95164 72.295886)
(5058.2587 90.906415 74.745972)
(5010.9157 76.863793 74.734078)
(5575.4732 121.15039 86.728169)
(5529.328 104.40162 89.445954)
(5481.6849 90.033399 89.244009)
(6047.7967 134.92305 102.95997)
(6014.2428 118.65533 103.54615)
(5957.6427 103.29188 104.48277)
(6532.4814 149.16974 117.69536)
(6484.2371 133.04645 119.39649)
(6435.6627 116.89965 119.46705)
(7012.8482 163.19049 133.22617)
(6964.3002 146.79227 134.28301)
(6915.3087 131.28652 134.70738)
(-8.3373129 -18.507159 -10.447234)
(-12.246468 -13.980895 -0.16868294)
(-14.959276 -14.701378 10.749314)
(49.503822 -47.148358 -10.152944)
(48.461145 -35.944297 3.61219)
(34.476207 -41.779721 16.107273)
(111.55013 -79.69356 -9.4129204)
(106.29037 -85.230869 6.1639756)
(97.885061 -85.075319 21.047392)
(220.94905 -113.12844 -7.7551465)
(212.06436 -103.76591 5.8667458)
(197.10286 -106.82217 18.113831)
(351.49441 -140.87599 -5.7426429)
(340.56428 -142.49321 7.8663887)
(322.8455 -141.46069 21.377338)
(518.18928 -171.62076 -5.3725268)
(505.25474 -168.91044 8.5448219)
(484.15046 -171.25206 21.849729)
(713.30331 -200.14798 -1.1850859)
(696.32408 -199.18795 13.620312)
(673.64882 -199.817 24.837498)
(937.83089 -225.27807 2.702031)
(919.68731 -226.17727 14.301639)
(893.39815 -228.86735 27.87748)
(1191.6222 -250.37504 7.4753045)
(1169.4382 -252.07347 20.860065)
(1141.7152 -254.25177 33.0321)
(1473.259 -272.41428 14.493834)
(1449.3493 -274.84774 26.487187)
(1418.8265 -279.53444 37.75114)
(1781.9523 -291.96728 22.425267)
(1755.2699 -296.72106 33.660764)
(1723.2125 -301.47505 44.959113)
(2118.0606 -309.11963 31.988897)
(2088.5673 -314.69382 42.677189)
(2054.2685 -320.9952 52.922661)
(2479.4532 -323.32168 43.02866)
(2447.4817 -330.85877 52.838731)
(2411.8401 -338.32746 62.317207)
(2866.2438 -334.82288 55.485708)
(2831.582 -343.4435 64.506285)
(2793.9372 -352.23099 73.164849)
(3276.4947 -343.1958 69.379502)
(3239.4686 -353.3102 77.529877)
(3200.264 -363.23574 85.089847)
(3708.773 -348.50973 84.462004)
(3669.3158 -359.78299 91.65244)
(3628.4036 -371.12381 98.277711)
(4160.7255 -350.76233 100.70742)
(4119.1798 -363.35788 106.94691)
(4076.7348 -375.57759 112.4501)
(4629.4439 -349.96108 117.74697)
(4586.048 -363.48395 122.96468)
(4541.9315 -376.71683 127.38167)
(5111.7917 -346.29217 135.41761)
(5066.509 -360.78478 139.6436)
(5021.0087 -374.8327 143.17739)
(5603.2633 -339.96037 153.53238)
(5556.9868 -355.12723 156.70163)
(5510.1995 -369.65215 158.9956)
(6100.7979 -331.37287 171.3513)
(6052.8887 -347.12128 173.83323)
(6004.9877 -362.18266 175.57641)
(6599.1654 -321.04073 189.11471)
(6550.8126 -336.8175 190.61505)
(6501.7259 -352.32555 191.78452)
(7094.8097 -309.19481 206.16256)
(7045.5878 -325.67867 207.24964)
(6996.2949 -340.99151 207.93688)
)
;

boundaryField
{
    free
    {
        type            zeroGradient;
    }
    fixed
    {
        type            fixedValue;
        value           nonuniform List<vector> 
25
(
(-2.5953868e-15 -2.1703571e-16 4.2716933e-18)
(-1.3028228e-15 -3.4252847e-16 3.3068324e-16)
(-1.9658614e-16 -3.2115893e-17 -1.1045223e-16)
(-3.6361799e-15 2.112754e-16 -3.2990721e-16)
(-3.8783653e-15 3.5858996e-16 7.5215743e-16)
(-2.0449562e-15 -3.5718549e-16 -7.3673077e-16)
(-9.8459492e-16 7.8127033e-16 2.7525688e-16)
(-1.4121951e-15 -1.0527101e-15 6.223458e-16)
(-4.8813632e-16 1.9183015e-16 -1.0607077e-16)
(6.5239771e-16 2.739523e-16 -5.5565719e-16)
(-3.9146975e-16 7.8165185e-18 1.2560621e-16)
(1.4766345e-16 -3.4299605e-16 -2.8648028e-16)
(1.6350797e-16 -2.4226884e-16 -1.2066667e-17)
(-1.0304172e-15 -9.2669207e-16 -7.5672327e-16)
(-2.6214496e-15 -5.6404768e-16 7.244144e-16)
(-6.4481012e-16 3.525084e-16 2.7116342e-16)
(-1.0135278e-15 7.0169807e-16 1.7538027e-16)
(-3.5205005e-15 9.4737515e-16 -2.5196009e-17)
(-3.8147498e-15 1.043275e-15 1.2924308e-16)
(-2.4010456e-15 1.4295629e-15 -1.6975308e-16)
(-1.2019486e-15 6.189313e-16 -3.4292956e-16)
(2.8178306e-17 1.9013092e-16 6.1994168e-17)
(-1.2511779e-16 -6.848356e-17 2.1836215e-16)
(-3.8898857e-17 4.7141393e-16 -3.1043199e-16)
(-3.7042918e-15 1.4868296e-15 -1.3023874e-15)
)
;
    }
    freeTop
    {
        type            zeroGradient;
    }
}


// ************************************************************************* //
