/*--------------------------------*- C++ -*----------------------------------*\
  =========                 |
  \\      /  F ield         | OpenFOAM: The Open Source CFD Toolbox
   \\    /   O peration     | Website:  https://openfoam.org
    \\  /    A nd           | Version:  6
     \\/     M anipulation  |
\*---------------------------------------------------------------------------*/
FoamFile
{
    version     2.0;
    format      ascii;
    class       pointVectorField;
    location    "1.47";
    object      lm;
}
// * * * * * * * * * * * * * * * * * * * * * * * * * * * * * * * * * * * * * //

dimensions      [1 -2 -1 0 0 0 0];

internalField   nonuniform List<vector> 
28033
(
(-1.780536e-14 4.8656612e-16 1.3104288e-15)
(-5.4375576e-15 3.3318594e-15 9.9433006e-16)
(3482.9414 2500.1871 -82.011571)
(4179.1079 919.55888 -55.022943)
(-1.338461e-14 3.0090723e-15 -2.870051e-16)
(-1.2587315e-14 4.9008913e-15 -4.4266115e-15)
(4139.9879 937.75144 -58.861662)
(3460.4176 2508.1276 -76.454127)
(-5.6329745e-15 1.0535579e-15 6.7193838e-16)
(-2.4534443e-15 3.0423504e-16 5.8836893e-16)
(-5.4923298e-15 2.4302826e-15 8.9528572e-16)
(-2.6209443e-15 -1.1537891e-15 -6.7979696e-16)
(-7.2548563e-15 1.5542294e-15 1.0013199e-15)
(-4.7613589e-15 -9.2108094e-16 -7.3952737e-16)
(-1.132389e-15 -2.2256662e-17 -6.4484848e-16)
(-7.4239857e-16 -2.4218299e-16 -3.6669977e-16)
(-1.1196198e-15 4.5550132e-16 8.383863e-16)
(-2.3465882e-16 2.2667819e-16 1.4996246e-15)
(-4.0583243e-15 -8.7236639e-16 -1.3429605e-15)
(-5.8237189e-15 8.4462789e-16 7.5519031e-16)
(-5.1611762e-15 1.0100276e-15 9.7613867e-16)
(-1.7679952e-15 -8.1010255e-16 4.5192313e-16)
(-4.4158752e-15 1.0299569e-15 -9.452958e-16)
(3525.3041 2403.0582 -78.256767)
(3568.7774 2305.668 -74.842594)
(3612.8086 2207.2365 -73.128622)
(3657.5304 2108.1109 -71.847305)
(3702.7733 2008.1663 -71.469017)
(3748.012 1907.6593 -71.783912)
(3793.7563 1806.6743 -71.89313)
(3838.7785 1705.5998 -72.422348)
(3883.6506 1604.465 -72.434919)
(3927.904 1504.1092 -72.164107)
(3971.1145 1404.0983 -71.201426)
(4013.9896 1305.1562 -68.983054)
(4055.6053 1206.9919 -66.957057)
(4096.6678 1110.3323 -63.548568)
(4137.531 1014.8252 -59.454571)
(7.3882313 5.5720147 0.74020422)
(21.424808 4.0915453 -6.0816526)
(35.118803 -0.90560475 -12.891116)
(45.515248 -7.3247248 -17.828794)
(51.968123 -16.312711 -21.337188)
(53.329682 -25.539795 -23.352405)
(49.824292 -35.734375 -23.286494)
(40.56577 -45.091346 -21.722722)
(26.190204 -54.19121 -18.308213)
(6.3207191 -61.388946 -13.130875)
(-17.845933 -66.634255 -6.0468972)
(-46.017562 -69.308992 2.051499)
(-76.975673 -68.996138 11.659192)
(-110.33872 -65.13189 22.247364)
(-143.9483 -57.39905 33.507944)
(-176.7849 -45.889504 44.441178)
(-208.08243 -31.042709 55.588524)
(-236.56848 -12.380088 66.494491)
(-260.42237 9.5816006 75.782199)
(-279.61238 34.249947 84.178991)
(-292.91116 61.207639 91.058325)
(-300.08293 89.536218 95.846317)
(-300.7488 119.14088 99.259597)
(-295.00328 148.85323 100.28382)
(-283.11552 178.07486 99.262714)
(-265.79312 206.67357 96.724334)
(-243.55684 233.4899 92.420705)
(-217.31243 258.52566 86.48887)
(-188.32299 281.15068 79.628469)
(-157.47596 301.62523 71.949752)
(-126.30229 319.1391 63.998828)
(-95.385348 334.39943 56.085373)
(-65.860842 347.44053 48.494418)
(-38.278852 358.65346 41.194277)
(-13.613207 368.12755 34.934119)
(8.3743949 376.64762 29.801489)
(27.159778 384.22642 25.522737)
(42.979195 391.97822 22.455468)
(56.329343 399.98825 20.311039)
(67.607708 408.7011 18.960123)
(77.474721 418.58527 18.297208)
(86.682469 429.79491 18.129048)
(95.889507 442.59185 18.196708)
(105.91408 456.97717 18.344416)
(117.35006 472.87508 18.372434)
(130.76937 490.15728 18.105048)
(146.53425 508.57439 17.465408)
(164.88073 527.85927 16.401851)
(185.86536 547.68053 14.911093)
(209.35644 567.74268 13.057632)
(235.09545 587.75301 10.944509)
(262.66114 607.50919 8.7220205)
(291.57911 626.86077 6.5593375)
(321.29504 645.79904 4.6465041)
(351.29007 664.39024 3.1631027)
(381.06927 682.86268 2.2707457)
(410.26249 701.5248 2.0994863)
(438.61935 720.81805 2.732115)
(466.06562 741.25481 4.1862089)
(492.721 763.40832 6.4543696)
(518.89488 787.87865 9.4088147)
(545.07 815.27086 12.9697)
(571.89735 846.10437 16.891288)
(600.30191 880.88284 20.928702)
(630.87761 919.87295 25.16495)
(664.91807 963.46079 28.663114)
(703.32646 1011.4878 31.925598)
(746.84988 1063.8121 34.330306)
(796.31892 1120.4009 35.97974)
(852.44211 1180.5644 36.336461)
(915.65452 1243.8904 35.840401)
(986.38969 1309.4376 34.163703)
(1064.5587 1376.5428 31.297439)
(1150.0814 1444.4412 27.343448)
(1242.5199 1512.2083 22.43236)
(1341.2943 1579.089 16.657237)
(1445.6245 1644.2795 10.252225)
(1554.616 1707.2938 3.312255)
(1667.1338 1767.4727 -3.9045514)
(1782.3973 1824.5745 -11.263164)
(1899.0284 1878.4987 -18.596438)
(2016.1881 1929.0308 -25.735275)
(2133.0717 1976.4415 -32.635637)
(2248.6344 2020.9581 -39.198614)
(2362.4998 2063.1238 -45.20281)
(2474.1585 2103.239 -50.916153)
(2583.2638 2141.9504 -55.997251)
(2689.8155 2179.8576 -60.763735)
(2793.9537 2217.4125 -64.954618)
(2895.5324 2255.3186 -68.720601)
(2995.8458 2293.6002 -72.103806)
(3093.9339 2333.2646 -74.894975)
(3191.5944 2373.6927 -77.38284)
(3289.1577 2415.1188 -79.472029)
(3386.1066 2457.5682 -81.037654)
(-0.82919854 7.3617159 15.126313)
(8.8658703 14.538997 24.746203)
(18.840698 24.013423 40.159393)
(25.932677 32.871044 50.028587)
(27.832668 45.30944 57.725671)
(24.641218 56.80249 61.864037)
(16.290488 68.584019 63.082935)
(1.7637283 79.28645 60.319292)
(-18.203599 88.881347 54.524258)
(-43.328272 96.347668 45.132042)
(-72.928106 101.71157 33.190118)
(-105.65795 104.12895 18.824301)
(-140.5925 103.97556 2.8628103)
(-176.20809 100.71101 -13.789708)
(-211.12842 94.699378 -30.679919)
(-243.71922 85.996563 -46.556138)
(-272.82947 74.850248 -60.855319)
(-296.70715 62.171406 -72.852377)
(-314.78353 47.940318 -81.831344)
(-326.21411 33.097115 -87.467898)
(-329.94035 18.424729 -89.451358)
(-326.40687 3.9797785 -87.819738)
(-315.59495 -8.8722205 -82.491917)
(-297.37225 -20.381976 -74.04366)
(-273.29973 -29.602919 -62.972223)
(-243.8659 -36.406337 -49.575363)
(-210.12688 -40.698718 -35.226722)
(-173.62399 -42.377349 -19.964393)
(-135.33129 -41.512271 -5.3689716)
(-96.643047 -38.474201 8.4333557)
(-58.768968 -33.49554 20.206766)
(-22.445633 -27.051132 29.647463)
(11.285582 -19.497264 36.184113)
(42.070512 -11.410646 39.550292)
(69.41934 -3.2444038 39.610394)
(93.710601 4.6590454 36.523346)
(114.84817 11.712975 30.509602)
(133.37529 17.976786 21.987169)
(150.0864 23.003484 11.44564)
(165.66597 26.921983 -0.42296797)
(180.98967 29.700252 -12.961991)
(197.0515 31.504115 -25.420159)
(214.56483 32.53469 -37.191015)
(234.35899 33.060043 -47.658457)
(256.9247 33.357054 -56.400087)
(282.70883 33.703048 -63.078515)
(311.83045 34.329437 -67.57138)
(344.2889 35.421247 -69.887868)
(379.80379 37.072045 -70.237025)
(417.98679 39.299085 -68.950271)
(458.25499 42.018444 -66.506787)
(499.99491 45.064167 -63.454316)
(542.51688 48.1884 -60.40837)
(585.19871 51.093423 -57.974446)
(627.47318 53.439616 -56.73514)
(668.93321 54.889999 -57.184142)
(709.32515 55.127659 -59.711363)
(748.62713 53.892204 -64.556665)
(787.01648 51.006062 -71.805043)
(824.91696 46.396214 -81.36312)
(862.95073 40.114769 -92.969223)
(901.93733 32.345001 -106.19721)
(942.82785 23.40971 -120.48755)
(986.69352 13.748757 -135.14961)
(1034.6069 3.9296896 -149.46524)
(1087.6695 -5.388558 -162.62243)
(1146.7677 -13.585738 -173.90422)
(1212.8607 -19.721104 -182.62048)
(1286.4848 -23.50033 -188.16716)
(1367.8619 -23.646506 -190.06295)
(1457.6515 -20.212445 -188.16018)
(1554.8431 -12.232714 -182.34979)
(1659.6437 0.24379155 -172.74457)
(1771.0057 17.630931 -159.69232)
(1888.0628 39.788884 -143.71297)
(2009.6674 66.676172 -125.44061)
(2134.5698 97.95563 -105.63854)
(2261.4751 133.23534 -85.137551)
(2389.0318 171.9995 -64.812108)
(2516.0635 213.65859 -45.455002)
(2641.4044 257.60846 -27.849961)
(2764.1626 303.18917 -12.609127)
(2883.5825 349.81522 -0.27815241)
(2999.1886 396.90303 8.8296716)
(3110.7093 443.99475 14.512269)
(3218.1623 490.66869 16.810174)
(3321.7348 536.6711 15.878855)
(3421.8776 581.79625 12.091031)
(3519.1559 626.00658 5.9110887)
(3614.2922 669.30762 -2.0715262)
(3708.0594 711.8452 -11.190236)
(3801.2512 753.76566 -20.809808)
(3894.5719 795.33487 -30.312543)
(3988.5804 836.70105 -39.210436)
(4083.5428 878.05276 -47.355041)
(3.2927448e-15 -1.3239155e-15 2.3845803e-16)
(2.4470133e-15 -9.6672015e-16 3.215493e-17)
(-9.0574249e-15 9.0550918e-16 6.4029168e-16)
(-1.2642219e-16 -5.721845e-16 4.4370095e-16)
(-7.6811722e-15 -4.9270561e-16 4.1193361e-16)
(-7.3893964e-15 2.7533729e-15 -1.0951501e-15)
(-3.2915852e-15 -8.1743692e-16 3.8364228e-16)
(-1.9032499e-15 5.3200654e-16 -8.2319016e-17)
(-4.7409759e-15 -4.8623412e-16 4.3918642e-16)
(-1.2869644e-14 1.1845665e-15 6.4228907e-16)
(-9.6157521e-15 1.4157374e-15 5.9836601e-16)
(-9.4077204e-15 4.9518432e-16 1.1192419e-15)
(-5.982767e-15 2.6210694e-16 3.0473736e-16)
(-1.1478475e-14 -5.3386198e-16 1.6580808e-15)
(-5.257323e-15 3.6289085e-16 2.8600704e-16)
(1.4685031 -0.18420671 -1.0066208)
(12.209781 6.2698792 -7.8777563)
(20.699781 10.147116 -12.032132)
(24.662099 23.515078 -14.325448)
(25.062861 33.627559 -15.377765)
(20.029606 47.11834 -14.565694)
(11.363998 59.609448 -14.172191)
(-2.7864815 72.007459 -12.374399)
(-20.727645 81.969595 -9.9069256)
(-42.833959 90.514122 -6.9268566)
(-68.175013 94.994232 -3.3477882)
(-95.677641 96.60268 0.63218294)
(-124.39249 94.258505 5.1045227)
(-153.84403 87.751165 9.9619328)
(-181.22329 77.207734 14.703095)
(-207.91876 63.458678 19.757933)
(-230.47148 46.25383 24.537276)
(-248.44853 25.894181 28.814697)
(-262.4037 4.4084931 33.092694)
(-269.32039 -18.896716 35.997782)
(-271.77868 -41.378533 39.364844)
(-267.39566 -63.750938 41.006139)
(-256.38948 -85.101993 42.101265)
(-240.40316 -102.7803 42.161782)
(-219.2508 -118.36772 41.566118)
(-193.74783 -130.06545 40.097619)
(-165.13015 -138.39581 38.157856)
(-133.59504 -143.08194 35.279456)
(-100.75488 -143.72355 32.264209)
(-67.705475 -141.13942 28.774646)
(-34.370945 -135.56464 25.244182)
(-2.6155759 -127.68657 21.995455)
(27.780113 -118.14449 18.811553)
(56.126698 -107.54706 16.182749)
(82.520724 -97.270117 14.030205)
(106.48896 -86.137956 12.448761)
(128.76304 -76.561308 11.476745)
(149.46138 -68.608652 11.113833)
(169.22177 -62.0902 11.519205)
(188.45173 -57.407436 12.325962)
(207.97304 -54.606174 13.60458)
(228.25848 -53.466413 15.161905)
(249.92513 -53.811801 16.914796)
(273.38392 -55.21946 18.695865)
(298.99442 -57.345099 20.440706)
(326.88813 -59.706132 22.029221)
(357.11643 -61.93131 23.438851)
(389.51389 -63.623212 24.629728)
(423.83079 -64.523569 25.637249)
(459.67768 -64.43161 26.496005)
(496.6228 -63.296028 27.294492)
(534.18896 -61.16228 28.119653)
(571.93638 -58.208301 29.079091)
(609.48013 -54.704383 30.277051)
(646.54558 -51.001374 31.80365)
(682.99992 -47.505544 33.735203)
(718.87107 -44.628322 36.108737)
(754.37243 -42.773143 38.937552)
(789.89278 -42.27531 42.180382)
(825.99826 -43.388257 45.765113)
(863.40136 -46.241924 49.567193)
(902.93358 -50.828162 53.431099)
(945.49864 -56.987715 57.166034)
(992.04537 -64.40654 60.552695)
(1043.4405 -72.618821 63.393329)
(1100.5852 -81.040321 65.43362)
(1164.1941 -89.130627 66.591529)
(1234.7135 -95.627794 66.385226)
(1311.2314 -99.618912 65.262509)
(1397.6028 -102.43911 62.413321)
(1489.3387 -100.25506 58.66026)
(1588.2174 -94.361273 53.319987)
(1693.282 -83.653348 47.0767)
(1803.4423 -67.778587 39.808424)
(1917.9236 -46.542482 31.804914)
(2035.5691 -19.864602 23.305672)
(2155.2269 12.13021 14.555221)
(2275.7812 49.178913 5.7938795)
(2396.1593 90.850613 -2.747939)
(2515.3971 136.59652 -10.880562)
(2632.7037 185.76633 -18.440362)
(2747.4382 237.64452 -25.31984)
(2859.2023 291.47489 -31.440954)
(2967.7557 346.51152 -36.784072)
(3073.1156 402.02609 -41.348461)
(3175.4323 457.36825 -45.185195)
(3275.0734 511.96548 -48.348978)
(3372.4916 565.35789 -50.926225)
(3468.277 617.21997 -52.9982)
(3563.0408 667.33949 -54.651465)
(3657.4407 715.68185 -55.967813)
(3752.0546 762.29548 -57.011591)
(3847.4843 807.44095 -57.838063)
(3943.9221 851.35501 -58.437391)
(4041.8827 894.81442 -58.964829)
(4097.0024 1035.8236 -60.636377)
(4054.6821 1134.3093 -62.641207)
(4012.8134 1233.2275 -65.125276)
(3970.8998 1333.505 -68.332724)
(3928.715 1434.0882 -71.653119)
(3886.4158 1535.4669 -75.165046)
(3843.9706 1636.8374 -78.518769)
(3801.0202 1737.7279 -81.507649)
(3758.0807 1838.4596 -83.844027)
(3714.7985 1938.2858 -85.438376)
(3671.5081 2036.6482 -85.896657)
(3628.759 2133.8832 -86.23957)
(3584.9251 2229.4084 -84.285673)
(3543.4583 2323.3355 -82.925768)
(3500.8414 2415.9992 -79.508536)
(3368.066 2467.7973 -70.050699)
(3275.7906 2427.6647 -63.624118)
(3184.3746 2388.1785 -55.671573)
(3093.199 2348.9102 -47.153092)
(3002.431 2309.8938 -37.76807)
(2910.9163 2270.6674 -28.395115)
(2817.8898 2230.6959 -19.901045)
(2722.8275 2189.602 -12.771174)
(2624.9522 2146.8319 -7.7732149)
(2523.8573 2102.0333 -5.4926634)
(2419.2922 2054.6673 -6.2575374)
(2311.1442 2004.594 -10.444495)
(2199.5929 1951.4508 -18.093826)
(2085.1605 1895.1634 -29.083252)
(1968.5211 1835.7648 -43.183178)
(1850.6061 1773.4539 -59.928257)
(1732.4707 1708.5363 -78.643059)
(1615.3346 1641.4338 -98.63664)
(1500.5576 1572.6887 -118.99277)
(1389.4356 1502.9664 -138.874)
(1283.2576 1432.9491 -157.37027)
(1183.1866 1363.4026 -173.67849)
(1090.2115 1295.069 -187.04226)
(1005.1106 1228.6276 -196.96428)
(928.24946 1164.8674 -202.85478)
(860.33126 1104.251 -204.74422)
(799.91994 1047.0289 -201.92977)
(750.53548 993.2109 -195.58826)
(705.27968 945.40435 -185.3474)
(668.55185 900.09004 -172.33741)
(637.16131 859.3132 -156.58407)
(610.33708 822.28332 -139.2477)
(586.78926 788.64201 -121.16705)
(565.31902 757.9996 -103.17496)
(544.73453 729.83864 -86.131167)
(524.00483 703.65401 -70.777249)
(502.27063 678.93734 -57.736275)
(478.8939 655.23371 -47.464826)
(453.48568 632.15336 -40.228652)
(425.91866 609.40114 -36.092886)
(396.3151 586.78294 -34.916385)
(365.03253 564.21685 -36.374395)
(332.61921 541.72081 -39.96882)
(299.7682 519.41527 -45.08755)
(267.25785 497.4819 -51.019543)
(235.88625 476.17515 -57.039488)
(206.4096 455.74829 -62.421729)
(179.481 436.48284 -66.528252)
(155.59261 418.59379 -68.818931)
(135.04457 402.29537 -68.928673)
(117.9241 387.61386 -66.610016)
(104.00959 374.71396 -61.971415)
(93.033062 363.29225 -54.992944)
(84.167787 353.37745 -46.303421)
(76.909112 344.5199 -36.254951)
(70.072012 336.40865 -25.606409)
(63.067626 328.41015 -15.123882)
(54.301357 320.86709 -5.8230169)
(43.219793 312.4095 2.4839992)
(29.928239 302.6348 7.8489512)
(12.822935 291.54737 10.147846)
(-8.9574465 279.6922 10.107128)
(-33.31102 263.73356 5.1152536)
(-62.205854 247.23064 -2.2566727)
(-93.300317 228.20263 -13.664618)
(-127.26253 208.17836 -27.007979)
(-161.67868 184.07323 -43.251104)
(-195.88148 161.15779 -60.266203)
(-229.16032 135.39554 -77.827189)
(-259.10037 110.42938 -94.757345)
(-284.84546 85.321819 -110.19883)
(-305.34795 60.025622 -122.57824)
(-318.02263 35.781461 -132.6573)
(-325.74551 14.848526 -138.45294)
(-325.10779 -5.7450845 -138.80907)
(-315.21664 -24.693658 -136.43744)
(-300.96525 -38.485831 -127.94579)
(-276.56415 -52.859758 -116.27766)
(-248.9882 -60.895653 -100.24826)
(-215.51506 -69.234722 -81.309085)
(-178.52407 -73.236814 -60.487595)
(-140.09427 -74.868779 -38.561329)
(-101.96274 -74.135832 -16.625461)
(-65.396827 -72.328023 5.1767554)
(-30.626306 -68.550041 24.051637)
(-1.3596002 -62.87464 39.539757)
(22.122565 -56.158501 53.122967)
(40.994587 -50.126025 61.083726)
(51.555894 -42.869724 65.026065)
(56.274722 -34.980229 63.462256)
(53.530839 -26.607218 58.972293)
(45.922969 -20.18989 49.506451)
(32.342164 -13.157099 36.820316)
(15.581384 -8.3656822 21.578891)
(-0.43462195 -0.10735564 4.9765849)
(-6.8708141e-15 1.5083581e-15 1.9262289e-16)
(-1.2504183e-14 5.7375616e-16 8.4327435e-16)
(-8.3449101e-15 1.4891922e-15 5.3018253e-16)
(-4.9731758e-15 1.4991158e-15 6.2376313e-16)
(-3.4146159e-15 1.5624416e-15 3.1576894e-17)
(2.0582335e-15 9.3962624e-16 -5.746342e-16)
(2.2101935e-15 3.7457559e-17 -1.1841335e-16)
(2.4553765e-15 -8.5141669e-16 -9.3419562e-16)
(1.2987427e-15 1.0081898e-16 1.7950851e-15)
(-4.5074861e-15 9.063971e-16 1.0710522e-15)
(-5.2682467e-15 2.1856155e-15 1.0652666e-15)
(-7.4917339e-15 1.915055e-15 2.2418828e-16)
(-9.400838e-15 1.3708275e-15 6.2833768e-16)
(-6.2048683e-15 1.3247981e-15 5.4317906e-16)
(-6.971104e-15 1.5128103e-15 7.5678131e-16)
(-1.2693866e-14 6.2923345e-15 -2.1364834e-15)
(-5.2452578e-15 2.6791924e-15 -5.3037742e-16)
(-1.0752404e-15 9.8318743e-16 -1.0111087e-16)
(-2.7353382e-15 1.7746034e-15 7.3085398e-17)
(1.0178949e-15 -1.5450237e-16 -4.119182e-16)
(-1.4303492e-15 4.136346e-16 -3.3264033e-16)
(-1.0059749e-14 4.7133437e-15 -1.6449855e-15)
(2.9801421e-15 -1.9180379e-15 -8.3172098e-16)
(-4.79756e-15 2.8035442e-15 1.1420498e-15)
(-5.4778068e-15 3.5047253e-15 -3.934403e-16)
(-1.8117877e-15 1.1581936e-15 -9.1309836e-16)
(-3.9812639e-16 4.7407236e-16 -2.2932148e-16)
(-1.5272242e-15 1.100363e-15 -2.2557932e-16)
(-4.1024849e-15 1.9838802e-15 2.8069696e-17)
(-5.3424143e-16 2.551799e-16 -1.9455919e-16)
(4172.7126 925.10227 -54.850758)
(4167.0588 930.05853 -53.866411)
(4162.1154 934.08665 -52.859681)
(4158.2821 937.06251 -52.01444)
(4154.997 939.10959 -51.507629)
(4152.5543 940.4413 -51.517108)
(4150.7648 941.08295 -51.887389)
(4149.4503 941.30247 -52.644543)
(4148.5202 941.14791 -53.656319)
(4147.7255 940.8303 -54.854599)
(4146.8714 940.38211 -56.055515)
(4145.985 939.97 -57.142686)
(4144.7233 939.46839 -57.990338)
(4143.0794 939.16004 -58.536579)
(4141.3228 938.48881 -58.796828)
(3479.8614 2500.1519 -81.656782)
(3477.1393 2500.4389 -81.052265)
(3474.2361 2499.9638 -80.195209)
(3471.3976 2498.7284 -78.938972)
(3468.464 2496.6681 -77.499208)
(3465.7984 2494.1518 -76.038691)
(3463.4121 2491.4591 -74.69291)
(3461.4594 2488.9046 -73.584973)
(3459.9555 2486.8665 -72.817594)
(3458.9538 2485.6699 -72.470411)
(3458.4202 2485.5579 -72.5978)
(3458.2712 2487.0115 -73.131533)
(3458.577 2489.8287 -74.120302)
(3458.897 2494.65 -75.145983)
(3459.702 2500.8373 -76.316504)
(7.2940941 -3.5979515 0.0059535064)
(23.167882 -8.1840368 -6.5270089)
(37.112234 -11.217643 -9.1982533)
(48.53585 -14.847535 -12.59445)
(54.980553 -19.011138 -14.4665)
(56.44565 -23.21643 -15.49146)
(52.164431 -27.616335 -15.02766)
(41.952312 -31.630534 -13.413685)
(26.194053 -35.260694 -10.228089)
(4.8623524 -37.536599 -5.9089076)
(-21.382038 -38.945318 -0.13703852)
(-51.614338 -38.653274 6.6188785)
(-84.716338 -36.352176 14.340602)
(-119.78437 -31.868301 22.798418)
(-155.11537 -25.424415 31.779126)
(-189.60239 -16.469752 40.818562)
(-221.82126 -4.7927259 49.865169)
(-250.9245 9.1507623 58.426227)
(-274.89547 25.046002 66.43817)
(-293.5676 43.59311 73.321368)
(-306.09671 63.372745 79.16735)
(-311.71029 85.060573 83.659833)
(-310.7961 107.783 86.595414)
(-303.13949 131.00217 88.140951)
(-288.91268 154.8547 87.964376)
(-269.29941 178.61165 86.443143)
(-244.88987 201.72229 83.45236)
(-216.72944 224.23915 79.369754)
(-185.95629 245.65125 74.15982)
(-153.81106 265.77496 68.416898)
(-121.5178 284.45771 62.035026)
(-90.030788 301.61317 55.691089)
(-60.300458 317.17878 49.292654)
(-32.855853 331.14338 43.212771)
(-8.530382 344.00787 37.620314)
(12.587555 355.38354 32.713912)
(30.51188 366.00335 28.420247)
(45.497436 376.13512 24.862293)
(57.904801 385.81817 22.045634)
(68.519583 395.55808 19.776185)
(77.860622 405.76299 18.023293)
(86.909799 416.54186 16.686981)
(96.116337 428.11416 15.636882)
(106.57339 440.78061 14.646026)
(118.7239 454.44509 13.68696)
(133.09482 469.21345 12.596877)
(150.01691 485.00671 11.345184)
(169.64158 501.71349 9.8731773)
(191.93741 519.16759 8.1963344)
(216.69957 537.20038 6.3444171)
(243.57221 555.61538 4.3973715)
(272.08055 574.25614 2.4431891)
(301.68215 592.98321 0.60941784)
(331.80337 611.73287 -0.9895861)
(361.90675 630.49405 -2.2248324)
(391.52331 649.3555 -2.9959362)
(420.31802 668.47573 -3.2134855)
(448.10391 688.11607 -2.8367119)
(474.89741 708.60682 -1.8464353)
(500.89438 730.34238 -0.27658184)
(526.52073 753.77261 1.8036077)
(552.34369 779.36413 4.2869444)
(579.14237 807.57412 7.0259105)
(607.84704 838.76903 9.9261734)
(639.18422 873.43695 12.693341)
(674.56607 911.75163 15.226874)
(714.80053 953.79761 17.623988)
(760.45621 999.93423 19.072766)
(812.44374 1049.4287 20.324821)
(871.74288 1102.7024 20.3192)
(938.25209 1159.0222 19.885236)
(1012.5271 1217.8317 18.464904)
(1094.3112 1278.7393 16.239034)
(1183.4434 1341.0594 13.25472)
(1279.3743 1404.0227 9.5596274)
(1381.4226 1467.0391 5.2829948)
(1488.6996 1529.3919 0.50406026)
(1600.2051 1590.5189 -4.6585543)
(1714.9008 1649.9091 -10.058795)
(1831.6768 1707.1167 -15.619269)
(1949.4238 1761.9771 -21.24172)
(2067.1944 1814.1835 -26.796265)
(2184.2048 1863.7525 -32.205285)
(2299.4471 1910.8521 -37.450915)
(2412.6512 1955.6503 -42.599648)
(2523.472 1998.6092 -47.528915)
(2631.4443 2039.848 -52.201949)
(2736.9179 2080.0305 -56.667247)
(2839.8431 2119.4284 -60.857834)
(2940.4949 2158.4804 -64.64618)
(3039.8049 2197.8506 -68.276064)
(3137.269 2237.2762 -71.223943)
(3234.5974 2277.7743 -73.989206)
(3331.7449 2318.6837 -75.887131)
(3428.23 2360.657 -77.384201)
(10.975475 -2.8534669 -1.6012229)
(25.763505 -8.2331384 -4.0717258)
(39.563187 -9.9339758 -5.8609012)
(49.672525 -13.083345 -7.6478861)
(55.696553 -15.534149 -8.6931802)
(56.292132 -17.768513 -9.197481)
(51.447333 -19.958831 -8.5090731)
(40.339118 -21.625565 -7.0862857)
(23.584185 -23.050533 -4.3901876)
(1.1581161 -23.522725 -1.0537905)
(-26.131491 -23.375696 3.6595547)
(-57.401951 -21.984984 8.8854991)
(-91.559021 -19.390613 15.127064)
(-127.4175 -15.334075 21.812446)
(-163.62881 -9.685511 29.069473)
(-198.63988 -2.1532287 36.383033)
(-231.33722 7.060409 43.806369)
(-260.1648 18.168606 51.006695)
(-284.17619 31.098836 57.675997)
(-302.45664 45.785419 63.734751)
(-314.15631 62.031487 68.997531)
(-319.09739 79.796109 73.112742)
(-316.99764 98.562378 76.28526)
(-308.06211 118.40124 78.094287)
(-292.7848 138.69783 78.697434)
(-271.91463 159.5149 78.019587)
(-246.31955 180.22522 76.255809)
(-217.04447 200.75212 73.363163)
(-185.29634 220.68625 69.639649)
(-152.39222 239.93188 65.059957)
(-119.34126 258.09131 60.128536)
(-87.356222 275.21064 54.761115)
(-57.265527 290.98657 49.291568)
(-29.736747 305.61495 43.88928)
(-5.3772287 319.03028 38.689838)
(15.760184 331.33495 33.844386)
(33.685705 342.71033 29.511308)
(48.637198 353.37618 25.633631)
(61.072 363.50459 22.226264)
(71.765557 373.49779 19.335039)
(81.287485 383.59594 16.750624)
(90.502316 393.90226 14.713736)
(100.26427 404.93519 12.62601)
(111.17732 416.67712 10.937988)
(123.97302 429.23607 9.2823852)
(139.03915 442.76922 7.6456953)
(156.73621 457.22593 5.958524)
(177.1532 472.56604 4.2133793)
(200.24264 488.67096 2.3878791)
(225.75602 505.41657 0.51339572)
(253.3143 522.63132 -1.3773265)
(282.41342 540.17747 -3.2170077)
(312.50359 557.90418 -4.9338726)
(342.9981 575.73256 -6.4468881)
(373.37244 593.60636 -7.6742513)
(403.16734 611.56553 -8.5462568)
(432.07658 629.70421 -9.0079998)
(459.94741 648.21463 -9.0252381)
(486.83113 667.35383 -8.5942194)
(512.97301 687.45412 -7.7293948)
(538.84037 708.91021 -6.4884078)
(565.03613 732.13492 -4.9493207)
(592.42183 757.56439 -3.1667181)
(621.83142 785.57206 -1.3165043)
(654.26375 816.74037 0.50037051)
(690.93791 850.95701 2.299881)
(732.31584 888.59392 3.6558919)
(779.57659 929.86823 4.9959608)
(833.70869 974.91221 5.6237262)
(895.03689 1023.4723 5.8335185)
(963.88162 1075.3256 5.5358524)
(1040.4756 1129.7522 4.709593)
(1124.7377 1186.6201 3.3122878)
(1216.3123 1245.2062 1.3490185)
(1314.6597 1304.946 -1.0963752)
(1418.9664 1365.2443 -4.0155263)
(1528.3374 1425.3979 -7.3056359)
(1641.7358 1484.9286 -10.940336)
(1758.0314 1543.2333 -14.831809)
(1876.1341 1599.9058 -18.917809)
(1994.972 1654.6672 -23.147226)
(2113.5075 1707.1672 -27.498759)
(2230.983 1757.3908 -31.767692)
(2346.4585 1805.5453 -36.388201)
(2459.8142 1851.6665 -40.514341)
(2570.377 1895.5589 -44.863897)
(2678.098 1937.9367 -49.088121)
(2783.0087 1979.03 -53.321177)
(2885.5429 2019.3646 -57.265448)
(2985.4747 2059.1609 -61.178667)
(3084.3824 2098.9683 -64.64806)
(3181.2527 2139.0295 -67.821922)
(3277.9316 2179.7121 -70.609009)
(3374.9314 2220.8203 -72.45849)
(3470.6346 2262.8628 -74.358551)
(13.298829 -2.7714617 -1.0022901)
(28.091885 -5.8435726 -2.3018973)
(40.496394 -7.4704985 -2.7761641)
(49.918007 -9.6207004 -2.958607)
(54.891014 -11.025188 -3.0157386)
(55.018607 -11.799747 -2.6935357)
(49.210971 -12.583098 -1.7514142)
(37.495427 -12.802981 -0.30419957)
(20.061027 -12.747597 1.6692134)
(-3.0933466 -12.084827 4.4329649)
(-30.936669 -10.979409 7.717409)
(-62.85882 -9.0708497 11.666337)
(-97.476291 -6.3790698 16.091163)
(-133.87444 -2.6743338 21.075239)
(-170.24974 2.1332103 26.311588)
(-205.57127 8.1966271 31.874628)
(-238.12116 15.633302 37.522326)
(-266.98252 24.488842 43.113675)
(-290.64096 34.777402 48.519649)
(-308.49522 46.628569 53.579085)
(-319.67488 59.787015 58.113453)
(-323.94532 74.372291 62.038609)
(-321.10413 90.096664 65.152676)
(-311.46945 106.898 67.445302)
(-295.37487 124.50048 68.799391)
(-273.72534 142.7815 69.207555)
(-247.34666 161.32016 68.673941)
(-217.44222 180.05101 67.234562)
(-185.15499 198.55653 64.899056)
(-151.69135 216.72279 61.908046)
(-118.27781 234.24103 58.234936)
(-85.966373 250.95326 54.073765)
(-55.569444 266.7065 49.636796)
(-27.834778 281.46128 44.931147)
(-3.2334841 295.11276 40.231675)
(18.156258 307.69226 35.577893)
(36.195405 319.38825 31.041987)
(51.37147 330.26226 26.708472)
(64.135672 340.5736 22.74032)
(75.117475 350.45312 18.997743)
(85.04457 360.27346 15.653406)
(94.766786 370.21771 12.499703)
(105.078 380.50488 9.6728904)
(116.62194 391.41424 7.085979)
(130.05715 402.9722 4.7407315)
(145.85876 415.36174 2.498284)
(164.28461 428.60638 0.40798278)
(185.44733 442.67947 -1.593708)
(209.2568 457.51618 -3.5064732)
(235.45573 473.01157 -5.3416788)
(263.64046 489.02111 -7.0862048)
(293.31019 505.41134 -8.7306713)
(323.89677 522.03137 -10.237574)
(354.82962 538.78213 -11.588435)
(385.58415 555.58097 -12.737025)
(415.72322 572.42969 -13.667047)
(444.9595 589.37478 -14.342724)
(473.16446 606.55853 -14.762317)
(500.4203 624.18474 -14.914476)
(527.00074 642.54638 -14.820912)
(553.39198 661.97421 -14.503702)
(580.24586 682.87531 -14.004951)
(608.43743 705.63882 -13.335572)
(638.73286 730.71826 -12.703677)
(672.48791 758.49802 -11.807579)
(710.09885 789.07986 -11.379239)
(753.15306 823.39678 -10.211629)
(802.30649 861.64375 -10.359001)
(858.07891 901.90127 -9.9651317)
(921.37109 946.33258 -10.001684)
(992.26434 993.69755 -10.120829)
(1071.0815 1044.1084 -10.554911)
(1157.5129 1097.1535 -11.305776)
(1251.1677 1152.2831 -12.235905)
(1351.4574 1208.8997 -13.405542)
(1457.6292 1266.5222 -14.785457)
(1568.6443 1324.5231 -16.422946)
(1683.5027 1382.3688 -18.285864)
(1801.0526 1439.5027 -20.367135)
(1920.1642 1495.5028 -22.70074)
(2039.7867 1549.9497 -25.272942)
(2158.8859 1602.5944 -28.050367)
(2276.6944 1653.2069 -31.14896)
(2392.4148 1702.0751 -34.484045)
(2505.5181 1748.3891 -37.979599)
(2616.0706 1793.0765 -41.736054)
(2723.5006 1836.1828 -45.67667)
(2828.2711 1878.1957 -49.656775)
(2930.3696 1919.182 -53.757274)
(3030.1042 1959.5689 -57.604729)
(3128.5973 2000.0057 -61.484785)
(3225.0749 2040.2231 -64.778154)
(3321.5526 2081.2226 -67.877695)
(3418.2601 2122.392 -70.109585)
(3513.6413 2164.3247 -72.07796)
(15.527518 -1.1806954 -0.47234165)
(29.562867 -3.659828 0.0556332)
(41.407664 -4.3232002 0.69746318)
(49.620866 -5.6995748 1.659739)
(53.85271 -6.2607934 2.261602)
(52.747508 -6.3230566 3.0660942)
(46.263142 -6.3487452 4.283843)
(33.842423 -5.649046 5.2502459)
(15.702058 -4.9561081 7.0859846)
(-7.8933618 -3.6868415 8.7228812)
(-36.172821 -2.1896463 11.126794)
(-68.335458 -0.13675697 13.556462)
(-103.27361 2.3960755 16.67641)
(-139.59599 5.6564275 19.857111)
(-176.07411 9.6829679 23.610531)
(-211.15746 14.673355 27.454907)
(-243.6453 20.620296 31.637341)
(-272.05504 27.835725 35.829672)
(-295.43846 36.147206 40.138565)
(-312.79064 45.869029 44.290681)
(-323.50545 56.728952 48.298581)
(-327.20982 69.010486 51.912297)
(-323.82483 82.304501 55.162621)
(-313.57834 96.840275 57.811904)
(-296.99061 112.1428 59.831911)
(-274.80445 128.3528 61.122063)
(-248.00489 144.96035 61.663445)
(-217.66765 162.0078 61.374246)
(-184.99552 179.01502 60.352911)
(-151.22226 195.96221 58.537535)
(-117.4917 212.4193 56.022563)
(-84.837756 228.3483 52.939301)
(-54.174981 243.45639 49.269837)
(-26.140553 257.72027 45.231997)
(-1.2098231 271.00373 40.841319)
(20.525705 283.33282 36.311346)
(38.937736 294.81502 31.631928)
(54.632009 305.45383 27.114069)
(67.920986 315.49168 22.587825)
(79.495875 325.12072 18.214392)
(90.067353 334.58313 14.035512)
(100.4752 344.07533 10.150226)
(111.44082 353.87318 6.5158484)
(123.70794 364.12302 3.2157423)
(137.85285 374.97341 0.19225929)
(154.35352 386.53164 -2.5496371)
(173.45738 398.86829 -5.0281472)
(195.26872 411.94963 -7.2617497)
(219.68665 425.73274 -9.2820805)
(246.44999 440.11092 -11.097198)
(275.16166 454.95646 -12.749635)
(305.316 470.13069 -14.239593)
(336.36195 485.48645 -15.594897)
(367.73484 500.91429 -16.820894)
(398.92877 516.32568 -17.927446)
(429.52133 531.70334 -18.921343)
(459.24459 547.07829 -19.805368)
(487.98747 562.57256 -20.585567)
(515.84997 578.37282 -21.265736)
(543.11691 594.74427 -21.853404)
(570.29198 612.01204 -22.355238)
(598.05736 630.5675 -22.763375)
(627.17953 650.80681 -23.152123)
(658.72873 673.15337 -23.380258)
(693.46974 697.97602 -23.687575)
(732.72925 725.83284 -23.781881)
(776.88003 756.58983 -23.985717)
(827.60841 790.83037 -24.058642)
(885.10472 828.4253 -23.987921)
(949.97733 869.57816 -23.987518)
(1022.6281 914.0319 -24.005233)
(1102.8901 961.44104 -23.99964)
(1190.6503 1011.4089 -23.896664)
(1285.8214 1063.6496 -23.757063)
(1387.6275 1117.7974 -23.697727)
(1495.1927 1173.1354 -23.755635)
(1607.5153 1229.1484 -23.935787)
(1723.5441 1285.2955 -24.303171)