/*--------------------------------*- C++ -*----------------------------------*\
  =========                 |
  \\      /  F ield         | OpenFOAM: The Open Source CFD Toolbox
   \\    /   O peration     | Website:  https://openfoam.org
    \\  /    A nd           | Version:  6
     \\/     M anipulation  |
\*---------------------------------------------------------------------------*/
FoamFile
{
    version     2.0;
    format      ascii;
    class       pointVectorField;
    location    "0.36";
    object      u;
}
// * * * * * * * * * * * * * * * * * * * * * * * * * * * * * * * * * * * * * //

dimensions      [0 1 0 0 0 0 0];

internalField   nonuniform List<vector> 
625
(
(0 6.9125469e-20 0)
(0 6.2207379e-20 0)
(1.8560913 -0.11776346 0.027453759)
(1.7735604 -0.51515376 0.014600868)
(0 8.9632211e-20 0)
(0 4.864636e-19 0)
(1.7824506 -0.52727258 0.014347269)
(1.8649446 -0.12993262 0.027459665)
(0 -1.0507736e-20 0)
(4.8312796e-20 -1.1222207e-19 0)
(0 2.2958285e-19 0)
(1.8354594 -0.2171622 0.024213028)
(1.8147442 -0.3163737 0.021043296)
(1.7941872 -0.41577459 0.017810606)
(0.0055319083 0.01988746 0.01806461)
(0.021045153 0.040216301 0.018782076)
(0.048653981 0.059672347 0.019497953)
(0.088374127 0.076713276 0.018398611)
(0.13576822 0.090304116 0.018096106)
(0.19378299 0.10122389 0.017082567)
(0.25825038 0.10849056 0.016673961)
(0.33013937 0.11246161 0.015895352)
(0.40808503 0.11334884 0.015640767)
(0.49093102 0.11070526 0.014899749)
(0.5784408 0.105435 0.014653363)
(0.66953295 0.097178335 0.014409284)
(0.76365708 0.086400713 0.01433099)
(0.8599779 0.073360808 0.014460609)
(0.95806056 0.058344116 0.01479326)
(1.0572083 0.041677988 0.015392288)
(1.1570802 0.023730819 0.016187849)
(1.2572354 0.0046680628 0.017329961)
(1.357518 -0.014996417 0.018552815)
(1.4575523 -0.035190335 0.020152937)
(1.5575571 -0.055785353 0.021814449)
(1.6571765 -0.076301914 0.023616937)
(1.7566657 -0.097093959 0.025583106)
(-0.0029487936 -0.017174096 -0.024871935)
(0.013966202 -0.035611772 -0.020113179)
(0.039510413 -0.058102299 -0.022434232)
(0.073218968 -0.078401283 -0.02037272)
(0.11530344 -0.098278065 -0.019572868)
(0.16739946 -0.12095045 -0.01808762)
(0.22444941 -0.14134997 -0.017408571)
(0.28982723 -0.16340065 -0.015742771)
(0.36077481 -0.18597355 -0.014759594)
(0.43739209 -0.20813558 -0.013174345)
(0.51887028 -0.23128718 -0.011701322)
(0.60470716 -0.25431765 -0.0099625572)
(0.69415591 -0.27744284 -0.0082029237)
(0.78665652 -0.30048955 -0.0062376357)
(0.8816206 -0.32335036 -0.0041948883)
(0.97842825 -0.3459058 -0.0020644424)
(1.0766004 -0.36812033 0.00013767952)
(1.1756628 -0.38992531 0.0023094645)
(1.2752346 -0.41142435 0.0045561113)
(1.3750389 -0.43248479 0.00663792)
(1.4748959 -0.45343398 0.0088037758)
(1.5745618 -0.47406948 0.010770213)
(1.6742166 -0.49467295 0.012735266)
(0 6.2763336e-20 0)
(-8.5769065e-19 -1.8454615e-19 0)
(0 4.6772698e-19 0)
(0.0036418989 -0.010932576 0.016592255)
(0.017734073 -0.044591697 0.019892612)
(0.044387932 -0.056543934 0.015404113)
(0.078217349 -0.079295067 0.012902109)
(0.12310007 -0.10348237 0.012681563)
(0.17413672 -0.12223696 0.0092545256)
(0.23266018 -0.14520102 0.008635561)
(0.29830702 -0.16798593 0.0067034336)
(0.36973527 -0.19077161 0.0056119857)
(0.44672573 -0.21436426 0.0044842126)
(0.52845827 -0.23777799 0.0034772995)
(0.61444905 -0.26182596 0.002793444)
(0.70396201 -0.28563098 0.0022913789)
(0.7964901 -0.30940738 0.0020536079)
(0.89137 -0.33298138 0.0021480243)
(0.98806686 -0.35609651 0.0025340592)
(1.0860884 -0.3788513 0.0032359765)
(1.1849866 -0.40109073 0.0042542399)
(1.2843953 -0.42288884 0.0055286965)
(1.3840728 -0.44425167 0.0070505154)
(1.4837708 -0.46530195 0.0087460602)
(1.5834544 -0.48609233 0.010588385)
(1.6830191 -0.5066836 0.012471359)
(1.8030694 -0.42789043 0.017614674)
(1.8235816 -0.32845674 0.020887961)
(1.8442895 -0.22935023 0.024187734)
(1.7655258 -0.10930339 0.025510351)
(1.66593 -0.088438989 0.023509419)
(1.5662206 -0.067748851 0.021478372)
(1.466291 -0.046986187 0.019330508)
(1.3661551 -0.026464991 0.017129503)
(1.265936 -0.0063345661 0.014858866)
(1.1657617 0.013174558 0.012544785)
(1.0659167 0.031733661 0.010210943)
(0.9667335 0.049057796 0.0078849358)
(0.86866469 0.064788203 0.005590865)
(0.772199 0.078549778 0.0033755347)
(0.67805246 0.090130871 0.0011946239)
(0.58666893 0.099145487 -0.00086769252)
(0.49882751 0.10538254 -0.0028726006)
(0.41595585 0.10798693 -0.0045399602)
(0.3373008 0.10838232 -0.0066188703)
(0.26519323 0.10513908 -0.0083974918)
(0.19930857 0.098278883 -0.010067861)
(0.1422438 0.087985562 -0.011884973)
(0.092257827 0.074446148 -0.013169342)
(0.052358723 0.059382497 -0.015473794)
(0.023599091 0.038102066 -0.016227398)
(0.011117128 0.01946619 -0.012580927)
(0 -1.1206909e-19 0)
(0 -1.168646e-19 -2.4104491e-19)
(0 -3.4442761e-19 0)
(0 2.0250307e-19 0)
(0 -2.2406576e-20 7.1444124e-20)
(0 1.5423807e-19 0)
(1.7757769 -0.51818575 0.014526368)
(1.7779952 -0.52120837 0.014502659)
(1.7801761 -0.52421431 0.014408144)
(1.8582758 -0.12077687 0.027452248)
(1.8605214 -0.12380845 0.027399821)
(1.8627206 -0.12683859 0.027475759)
(-0.0031464914 0.010977393 0.012329023)
(0.012662237 0.021827834 0.0095358991)
(0.039771847 0.031238022 0.010065273)
(0.078043869 0.038554591 0.0092074267)
(0.12482704 0.043989212 0.0090189787)
(0.18163681 0.046739869 0.0087257653)
(0.24484225 0.046632135 0.0083260612)
(0.31560434 0.044322505 0.0082576496)
(0.39198103 0.039162789 0.008015658)
(0.47396389 0.031500994 0.0080132001)
(0.5604367 0.021681007 0.008108954)
(0.65063424 0.0094974143 0.0083161315)
(0.74397633 -0.0044668754 0.0086902162)
(0.83978358 -0.020137116 0.009229426)
(0.93743737 -0.037212713 0.0099823732)
(1.0363502 -0.055392719 0.010917616)
(1.1361213 -0.074494165 0.012082719)
(1.2362466 -0.094187653 0.013443814)
(1.3365737 -0.1143114 0.014948222)
(1.4367047 -0.13475759 0.016719728)
(1.5367932 -0.15532282 0.018425097)
(1.6364479 -0.17589746 0.020404255)
(1.7360694 -0.19659565 0.022312616)
(-0.0073366622 0.0017964859 -0.00038264586)
(0.010036885 0.0017166518 -0.0016308356)
(0.035698044 0.0020818632 -0.0013474822)
(0.0726629 0.00082677093 -0.00076045788)
(0.11896616 -0.0029772755 -0.00074191058)
(0.17347349 -0.0079463846 -0.00051066999)
(0.23546125 -0.014876199 -0.00027082065)
(0.30464741 -0.023907972 0.00011557057)
(0.37952366 -0.034748673 0.00048418807)
(0.46006505 -0.047358367 0.00098153791)
(0.54500878 -0.061637241 0.0015426907)
(0.634037 -0.077432539 0.0022883228)
(0.7263222 -0.094533086 0.0031561617)
(0.82125328 -0.11274725 0.0041998645)
(0.91817169 -0.13185206 0.0053985313)
(1.0165675 -0.15160302 0.0067541276)
(1.1159135 -0.17184329 0.0082727552)
(1.2157892 -0.19233893 0.0099014117)
(1.3159607 -0.2130388 0.011665404)
(1.4159979 -0.23375042 0.0134751)
(1.5160657 -0.25450627 0.015358276)
(1.6157753 -0.27512168 0.017269982)
(1.715471 -0.29583918 0.019136506)
(-0.0089214839 -0.0080471194 -0.0089233419)
(0.0090791219 -0.015582275 -0.0098556842)
(0.033176665 -0.024337797 -0.010068279)
(0.070208387 -0.035579582 -0.0096838949)
(0.11457294 -0.048137486 -0.0095024151)
(0.16771397 -0.060384914 -0.0088931992)
(0.22842106 -0.075401103 -0.0082414495)
(0.29555172 -0.090659919 -0.0075575198)
(0.36891079 -0.10725301 -0.0068612522)
(0.44773715 -0.12510826 -0.0058902991)
(0.53128265 -0.14377604 -0.0049159814)
(0.61897359 -0.16344292 -0.0037097844)
(0.7100435 -0.18375585 -0.0024277398)
(0.80393588 -0.20460761 -0.00097708892)
(0.89999046 -0.225826 0.00060482391)
(0.99770089 -0.24722042 0.0023086134)
(1.0964748 -0.26870336 0.0041285112)
(1.1959985 -0.29012145 0.00602507)
(1.2957978 -0.31140373 0.0079571678)
(1.3957507 -0.33260555 0.0099950427)
(1.4956089 -0.35355043 0.011902154)
(1.5952963 -0.37441749 0.013942826)
(1.6948391 -0.39521032 0.01585375)
(0 -7.1010137e-20 0)
(0 1.1732412e-19 2.4609224e-19)
(0 2.5561745e-19 0)
(-1.2808178e-19 2.5574227e-21 0)
(5.3496835e-20 -7.9265958e-20 -3.9479941e-21)
(-3.3713378e-19 -3.031968e-19 0)
(0 1.1533434e-19 0)
(0 3.0996392e-19 -8.243676e-21)
(0 3.4134061e-19 0)
(0.0069673512 -0.0072914841 -0.010932736)
(0.0097340538 -0.0097172336 -0.0023686043)
(0.0087754632 -0.0069470842 0.0053608807)
(0.026116212 -0.041393727 -0.010938637)
(0.026268974 -0.041954492 -0.0017426117)
(0.025496298 -0.040278582 0.0098646897)
(0.047667119 -0.057840294 -0.012455046)
(0.050677116 -0.056874796 -0.0034602646)
(0.051296688 -0.060649759 0.0075889128)
(0.081183708 -0.079968522 -0.011137515)
(0.084848106 -0.081895588 -0.0030861085)
(0.083540762 -0.080286522 0.0057056317)
(0.12438467 -0.10202701 -0.011364808)
(0.12690049 -0.10220229 -0.0043928098)
(0.12746838 -0.1040278 0.0049541033)
(0.173854 -0.1228305 -0.011033524)
(0.17745395 -0.12375576 -0.0036485851)
(0.17770955 -0.12410219 0.0034229936)
(0.2317588 -0.14434986 -0.010315639)
(0.235079 -0.14616714 -0.0049994624)
(0.23585225 -0.14696297 0.00294821)
(0.29638603 -0.16688783 -0.010006723)
(0.2995586 -0.16720842 -0.0045488876)
(0.30057066 -0.16875854 0.0016353757)
(0.36686058 -0.18861722 -0.0092838924)
(0.3700599 -0.19054713 -0.0047250624)
(0.37120135 -0.1915933 0.0011121164)
(0.44305022 -0.21172448 -0.0086414344)
(0.44620585 -0.21319007 -0.0045168638)
(0.44773865 -0.21474755 0.00047332762)
(0.52407482 -0.23450828 -0.0077030573)
(0.52724324 -0.23634414 -0.0042220969)
(0.52877868 -0.23796222 8.8318715e-05)
(0.60948103 -0.25771611 -0.0066275619)
(0.61246235 -0.25963875 -0.0037663868)
(0.61429931 -0.26150105 -0.0001061946)
(0.69845781 -0.28078882 -0.0054634626)
(0.70145353 -0.28292496 -0.0031140185)
(0.7033547 -0.28503001 -6.4239928e-05)
(0.79057866 -0.30389661 -0.0040579015)
(0.7934198 -0.30613491 -0.002214598)
(0.79544185 -0.30838714 0.00018716709)
(0.88511568 -0.32669941 -0.0025298225)
(0.88787415 -0.32909213 -0.0011774949)
(0.88999463 -0.33157199 0.00070740435)
(0.98157878 -0.34924572 -0.00086340962)
(0.98424659 -0.35176329 0.00010967884)
(0.98640852 -0.35436807 0.0015101054)
(1.0794465 -0.37140491 0.00094127677)
(1.0819935 -0.37402433 0.0015715829)
(1.0842083 -0.37676451 0.0025366658)
(1.1782488 -0.39316763 0.002828245)
(1.1807288 -0.39589314 0.0031768614)
(1.1829537 -0.39874369 0.0038288048)
(1.2776343 -0.41458514 0.0047783903)
(1.2800108 -0.4173964 0.0049432541)
(1.2822557 -0.42029864 0.0053145318)
(1.377316 -0.43563576 0.0067549582)
(1.3796469 -0.43851228 0.0067991907)
(1.3818718 -0.44148173 0.006974355)
(1.4770397 -0.45646859 0.0087686026)
(1.4792949 -0.45940547 0.0087019897)
(1.48154 -0.46238695 0.0087596013)
(1.5767329 -0.47710108 0.010704905)
(1.5789923 -0.48011673 0.010634019)
(1.5812218 -0.48313551 0.010634864)
(1.6763703 -0.49766729 0.012650855)
(1.678561 -0.50069274 0.012558191)
(1.6808029 -0.50367445 0.012546331)
(1.8376501 -0.22017802 0.024210364)
(1.8398664 -0.22322144 0.02418252)
(1.8420632 -0.22625724 0.02421395)
(1.8169151 -0.31937969 0.021013643)
(1.8191576 -0.32240957 0.020938047)
(1.8213057 -0.32538261 0.020922791)
(1.7964407 -0.41889021 0.017748111)
(1.7986404 -0.42188478 0.017694231)
(1.800836 -0.42491505 0.017647919)
(0.014495846 0.016548254 0.0092014518)
(0.014776855 0.018078807 0.0030830619)
(0.016765152 0.017620423 -0.0040701728)
(0.028934044 0.037779895 0.0097329358)
(0.031076999 0.038788965 0.00052987416)
(0.0302666 0.038144747 -0.0080705275)
(0.05791273 0.059585672 0.010505413)
(0.059303101 0.058432646 0.0027545616)
(0.060102714 0.059190846 -0.007569669)
(0.095652938 0.07418159 0.0097916068)
(0.098117567 0.074592296 0.0026286023)
(0.098081296 0.074318377 -0.0063047295)
(0.14379672 0.08938989 0.010509193)
(0.14662261 0.088699413 0.0026109546)
(0.14679029 0.088618749 -0.0048567877)
(0.20106482 0.099227137 0.0097380653)
(0.20300724 0.098254555 0.0039633689)
(0.20411096 0.098283967 -0.0041012831)
(0.26515053 0.10641079 0.0099572241)
(0.26792108 0.105793 0.0039542598)
(0.26885542 0.10529273 -0.002786894)
(0.33687012 0.11039714 0.0098593877)
(0.33935054 0.10931205 0.0046366284)
(0.34045546 0.10874334 -0.001737331)
(0.41387819 0.11131617 0.010202768)
(0.41690594 0.10970367 0.0048664497)
(0.41790425 0.10909705 -1.5122294e-05)
(0.4969013 0.1085693 0.010019495)
(0.49929664 0.10700621 0.0063872185)
(0.50099824 0.10600557 0.00090356883)
(0.58380749 0.10305585 0.010389847)
(0.58642676 0.10139062 0.0065632354)
(0.58786126 0.10022865 0.0024023768)
(0.67460779 0.094837341 0.010660828)
(0.67697985 0.092912983 0.0076651389)
(0.6787959 0.0915373 0.0039759319)
(0.76818033 0.08397743 0.011231538)
(0.77066916 0.081926029 0.0086150419)
(0.77245705 0.080290941 0.0056072818)
(0.86419218 0.070908991 0.011860131)
(0.86654782 0.068660834 0.0098215788)
(0.86842882 0.066794223 0.0073670644)
(0.96181179 0.055827288 0.01275096)
(0.96413228 0.053404711 0.011117884)
(0.96608945 0.051358903 0.0092286228)
(1.0606072 0.039104867 0.013769347)
(1.0628965 0.03654145 0.012589079)
(1.0648856 0.034295774 0.011169698)
(1.1601445 0.021056331 0.015046458)
(1.1623732 0.018346085 0.01417156)
(1.1644117 0.015937176 0.013195664)
(1.2600173 0.0019624283 0.016446836)
(1.2622353 -0.00083289318 0.015887824)
(1.2642987 -0.0033856114 0.015255038)
(1.3600197 -0.017801007 0.018055712)
(1.3622227 -0.020734902 0.017721618)
(1.3643186 -0.023418121 0.017345643)
(1.4599352 -0.03812753 0.019857824)
(1.4621761 -0.041061962 0.019571824)
(1.4642741 -0.043845949 0.019432404)
(1.5597771 -0.058734508 0.021627676)
(1.5619892 -0.061771794 0.021541117)
(1.5641023 -0.0645972 0.021506546)
(1.6593713 -0.079361147 0.023521798)
(1.6615592 -0.082315274 0.023524303)
(1.6637403 -0.085258374 0.023533499)
(1.7588951 -0.10015875 0.02554779)
(1.7610858 -0.10317532 0.025543618)
(1.7633177 -0.10617666 0.025522754)
(-0.00033647409 0.0060800959 -0.0083282123)
(0.01663221 0.02426199 -0.008861492)
(0.042824505 0.028518076 -0.0065813594)
(0.082954118 0.037039607 -0.0068446887)
(0.13078832 0.041613137 -0.0058228534)
(0.18750693 0.04333227 -0.0048455434)
(0.25191454 0.04311809 -0.0039198683)
(0.32278278 0.039618106 -0.002912165)
(0.39994423 0.034069938 -0.0018532816)
(0.48201235 0.025541221 -0.00060402919)
(0.56864259 0.015042207 0.00049620761)
(0.65908409 0.0020102504 0.0019687493)
(0.75251203 -0.01270235 0.0034227954)
(0.84836993 -0.029126078 0.005009977)
(0.94603543 -0.046924479 0.0067286165)
(1.0449572 -0.065768826 0.0085178316)
(1.1446772 -0.085407314 0.010409115)
(1.2448336 -0.10558387 0.012341634)
(1.3451032 -0.12608293 0.01432818)
(1.4453261 -0.14674879 0.016315612)
(1.5454055 -0.16745563 0.018333967)
(1.6451402 -0.18811704 0.020286958)
(1.7449129 -0.20881478 0.022283105)
(-0.0058679537 0.0029761513 0.0012325172)
(0.011827869 0.0041888878 -0.00010502887)
(0.039905433 0.00059997978 0.00080246579)
(0.078641885 3.8400549e-05 -0.00022796331)
(0.12478663 -0.004403789 -0.00035920244)
(0.18071357 -0.010723864 7.1394168e-05)
(0.24313224 -0.017912889 -0.00015937598)
(0.31284537 -0.027803251 0.00011208125)
(0.38830078 -0.039437269 0.00050841828)
(0.4689758 -0.052732769 0.00079957458)
(0.55430807 -0.067790182 0.001381522)
(0.64351464 -0.084517509 0.002074777)
(0.73583748 -0.1023663 0.0028640053)
(0.83081368 -0.1214101 0.0039060134)
(0.92768294 -0.14121748 0.0050681714)
(1.0259751 -0.16165991 0.0064269226)
(1.1252189 -0.18244603 0.0079433336)
(1.2249875 -0.20344974 0.0095762925)
(1.3250017 -0.22448876 0.011361821)
(1.4250251 -0.24547061 0.013198021)
(1.5249593 -0.26640513 0.015108043)
(1.6246163 -0.28710702 0.017031615)
(1.7244214 -0.3079089 0.018963773)
(-0.008162682 -0.0071404261 0.0075820619)
(0.013359869 -0.011802167 0.0072354177)
(0.039534974 -0.02789968 0.0097714997)
(0.075712192 -0.033974465 0.0061779974)
(0.12176403 -0.049253984 0.0069459747)
(0.17573333 -0.062651592 0.0056824974)
(0.23640332 -0.077234641 0.0047163936)
(0.30459493 -0.094301078 0.0044132038)
(0.37801363 -0.11119602 0.0036847677)
(0.45737261 -0.13014491 0.0033780558)
(0.54097701 -0.14967043 0.0031574017)
(0.62879123 -0.17016612 0.0030358027)
(0.71989053 -0.19138887 0.003231256)
(0.81374518 -0.2130405 0.0035430286)
(0.90970726 -0.23505662 0.0041317742)
(1.007254 -0.25717006 0.0049370043)
(1.1058998 -0.2792556 0.0059751496)
(1.2052112 -0.30119719 0.0072224274)
(1.3048987 -0.32291466 0.008692629)
(1.4046935 -0.34437669 0.01026951)
(1.5044614 -0.36555734 0.012068223)
(1.6041262 -0.38653816 0.013824109)
(1.7036557 -0.40731821 0.015810713)
(0.0029108014 0.0054180382 0.0057209869)
(0.0032361565 0.0060505004 0.0017154174)
(0.0051973095 0.0055683095 -0.0030534872)
(0.020903688 0.021601912 0.0043351228)
(0.023755622 0.021616154 -2.832693e-05)
(0.022400294 0.021362038 -0.0055540006)
(0.048362763 0.029257716 0.004741689)
(0.049288529 0.029098535 0.00050272528)
(0.049873582 0.029229423 -0.0032844178)
(0.085655502 0.037562753 0.0045308166)
(0.08872523 0.037489457 0.00042749639)
(0.088464201 0.036353425 -0.0033697041)
(0.13312345 0.042514512 0.0041648378)
(0.1354744 0.041668653 0.0010772379)
(0.13596731 0.041270726 -0.0029118246)
(0.18876905 0.044728605 0.0045485723)
(0.19154033 0.044378859 0.001265753)
(0.19180225 0.04345321 -0.0020604816)
(0.2519201 0.044868747 0.0045027809)
(0.25468499 0.044114126 0.001547441)
(0.25552443 0.043036969 -0.001409039)
(0.32209983 0.042407821 0.0046400191)
(0.32502191 0.040982936 0.0020879755)
(0.32579586 0.03999249 -0.00063352382)
(0.39831014 0.036735302 0.0048782685)
(0.40102833 0.035706729 0.0026980462)
(0.40218173 0.034525664 9.271483e-05)
(0.47975259 0.029241944 0.0052267014)
(0.48257033 0.027964704 0.0031395841)
(0.48382553 0.026208904 0.0010618846)
(0.56575759 0.019264437 0.0056489674)
(0.56844266 0.017538552 0.0038590715)
(0.5698277 0.016046018 0.0020720878)
(0.65548245 0.0070261969 0.006207888)
(0.65818864 0.005301457 0.0047479672)
(0.65979292 0.0034506026 0.0031471802)
(0.74844447 -0.0069604894 0.0069188193)
(0.75105936 -0.0089829458 0.0056478447)
(0.75274483 -0.010985813 0.0044402476)
(0.8438226 -0.022726366 0.0077614937)
(0.84636944 -0.024883198 0.0068208582)
(0.84815332 -0.027098487 0.0058081149)
(0.9410744 -0.039850236 0.0088171862)
(0.94353811 -0.042207953 0.0080760072)
(0.94542023 -0.044560129 0.0073345346)
(1.0396424 -0.058128275 0.010021046)
(1.0420458 -0.06060471 0.0095184855)
(1.0439837 -0.063146152 0.0089690877)
(1.1390629 -0.077264533 0.011421818)
(1.141398 -0.07990108 0.01108634)
(1.1433985 -0.082563331 0.01073519)
(1.2389471 -0.09705024 0.012963708)
(1.2412408 -0.099793548 0.012795591)
(1.2432637 -0.10256505 0.012562248)
(1.3390273 -0.11722057 0.01466356)
(1.3412577 -0.12009304 0.014591829)
(1.3433599 -0.12296295 0.014482809)
(1.438994 -0.13776092 0.016485397)
(1.4412979 -0.14067686 0.016485607)
(1.4433483 -0.14356531 0.016408074)
(1.5389486 -0.15833717 0.018331126)
(1.5412985 -0.16125859 0.018405368)
(1.5433283 -0.1642491 0.018396014)
(1.6386295 -0.17899489 0.02035619)
(1.6408118 -0.181938 0.02037747)
(1.6429365 -0.1849912 0.02032445)
(1.7382545 -0.19962656 0.022299031)
(1.7404648 -0.20264349 0.022282412)
(1.742674 -0.20569189 0.022273778)
(-0.0022963255 0.0013419682 -0.00091207983)
(-0.00030037241 0.0021222971 -0.00073038629)
(0.0011627059 0.0020782885 7.0753729e-05)
(0.016940543 0.0018637473 -0.0027527867)
(0.019158251 0.0027380755 -0.0020245087)
(0.017212336 0.0022608618 -0.0012025282)
(0.043719468 0.0015304677 -0.0019028148)
(0.045830387 0.00087823282 -5.8003025e-05)
(0.045801509 0.00088325612 -0.000300285)
(0.079960819 -0.00090871376 -0.0021467326)
(0.084024362 -0.0015179209 -0.00093442721)
(0.082972975 -0.0024713859 -0.00082413816)
(0.12637763 -0.0041531043 -0.0015456341)
(0.12953607 -0.005293456 0.00012408728)
(0.12887602 -0.0051408678 -0.0010570311)
(0.180463 -0.0097588316 -0.00136037)
(0.18383514 -0.011013396 -0.00052296567)
(0.18379418 -0.011499385 -0.00062169296)
(0.24219179 -0.016639976 -0.0012828823)
(0.24558782 -0.018319542 9.784393e-05)
(0.2456254 -0.019014791 -0.00070677903)
(0.31098507 -0.026184785 -0.00063663985)
(0.3142182 -0.027741516 0.00030899175)
(0.31459467 -0.028129751 -0.00040699934)
(0.38542425 -0.036823807 -0.00030947297)
(0.3887351 -0.038646656 0.00037344021)
(0.38942234 -0.039749467 -7.920966e-05)
(0.465631 -0.049577919 0.00022575638)
(0.46874043 -0.051752516 0.001006238)
(0.4696574 -0.052608552 0.00050945948)
(0.55020294 -0.064084231 0.00086750773)
(0.55326015 -0.066177053 0.0015692426)
(0.55437638 -0.06755106 0.00090675134)
(0.63884799 -0.079919534 0.0016616099)
(0.64178937 -0.082237182 0.0022123292)
(0.64315862 -0.083713375 0.0017320249)
(0.73074142 -0.097119479 0.0025884514)
(0.73361021 -0.099549069 0.0030978837)
(0.73505779 -0.10136233 0.002559238)
(0.82525758 -0.11541777 0.0036932429)
(0.82798725 -0.11801312 0.0041045289)
(0.82962146 -0.11994956 0.0036302056)
(0.92182461 -0.13457808 0.0049620942)
(0.92446025 -0.13724854 0.0052906868)
(0.92620495 -0.13946079 0.0048484366)
(1.0198599 -0.15439373 0.0063717163)
(1.0223866 -0.15718718 0.0066542116)
(1.0242312 -0.15956368 0.0062452463)
(1.1189062 -0.17467495 0.0079644748)
(1.1213375 -0.1775391 0.0081603933)
(1.1232589 -0.1801113 0.0078007645)
(1.2185339 -0.19522895 0.0096477826)
(1.2208753 -0.19818557 0.0098029136)
(1.2228892 -0.20085567 0.0094782003)
(1.3184613 -0.21596139 0.011473446)
(1.3207638 -0.21892377 0.011558878)
(1.3228055 -0.22175641 0.011301699)
(1.4184313 -0.23668787 0.013336825)
(1.420635 -0.23976654 0.013388413)
(1.42276 -0.24259063 0.013157534)
(1.5184135 -0.25746373 0.01528643)
(1.5204318 -0.26052586 0.015190879)
(1.5227277 -0.26344055 0.015136899)
(1.6179735 -0.27815039 0.017183722)
(1.6201983 -0.28110344 0.017179712)
(1.6223455 -0.28415388 0.017031017)
(1.7176926 -0.29883773 0.019100852)
(1.7199042 -0.3018619 0.01906593)
(1.722143 -0.30485233 0.019030699)
(-0.0019488664 -0.0053145086 -0.0039103457)
(-0.0021495648 -0.004871153 -0.00043300543)
(-0.002158325 -0.0043041046 0.0035134921)
(0.018721692 -0.014784428 -0.005692103)
(0.020926962 -0.012090966 -0.00041389332)
(0.019318659 -0.01332945 0.0037461672)
(0.042326666 -0.025516203 -0.0057354961)
(0.044871764 -0.028303574 -0.00067788676)
(0.045304014 -0.027878513 0.0044532182)
(0.079288168 -0.03805685 -0.0058423515)
(0.081287962 -0.036650028 -0.0012176481)
(0.081634317 -0.037231817 0.0027356651)
(0.12294162 -0.049387271 -0.0055160535)
(0.12569476 -0.050947427 -0.0013616315)
(0.12638254 -0.05085165 0.0023921562)
(0.17583231 -0.063233209 -0.005729347)
(0.17848538 -0.064047649 -0.0018285113)
(0.17930623 -0.064465455 0.0015373538)
(0.23588384 -0.078022609 -0.0051832338)
(0.23841795 -0.078815519 -0.001455027)
(0.23980795 -0.079057296 0.001262895)
(0.30260305 -0.093256559 -0.0048454524)
(0.30531209 -0.09464616 -0.0020680664)
(0.30681557 -0.095536623 0.00080302803)
(0.37553897 -0.11026612 -0.0045679601)
(0.37816022 -0.11165425 -0.0015890524)
(0.37994496 -0.11236456 0.00082318193)
(0.45384299 -0.12820358 -0.0038190712)
(0.45653112 -0.12965244 -0.0014232374)
(0.45841216 -0.13083216 0.00057347361)
(0.53685771 -0.14691101 -0.0031776704)
(0.53949635 -0.14872998 -0.0011226189)
(0.54164458 -0.15005483 0.00073854974)
(0.624075 -0.16667776 -0.0022874874)
(0.62667937 -0.1685866 -0.00052883755)
(0.62888034 -0.17012229 0.00096697148)
(0.71465278 -0.18700514 -0.0012760545)
(0.71717345 -0.18914274 0.00016057232)
(0.71954456 -0.19093818 0.0013847684)
(0.80808565 -0.20790856 -8.7798951e-05)
(0.81057 -0.21017717 0.0010457341)
(0.81298243 -0.21217037 0.0020518004)
(0.90372442 -0.22911976 0.0012574617)
(0.90612757 -0.23154183 0.0021517867)
(0.90861022 -0.2337668 0.0028959867)
(1.0010262 -0.25052624 0.0027642503)
(1.0033797 -0.25308416 0.0034218706)
(1.0058628 -0.25549793 0.0039609233)
(1.0994908 -0.27198818 0.004420498)
(1.101772 -0.27465193 0.0048650832)
(1.1042699 -0.27723076 0.0052444618)
(1.1987052 -0.29336843 0.0061698257)
(1.2009609 -0.29615161 0.0064835318)
(1.2034255 -0.29885574 0.0066966648)
(1.2983206 -0.31466286 0.0080383109)
(1.3005216 -0.31748607 0.0082052032)
(1.3029465 -0.3203093 0.0083248496)
(1.3980866 -0.335776 0.0099771696)
(1.4003048 -0.33870088 0.010037963)
(1.4026698 -0.34157483 0.010072534)
(1.4978344 -0.35670896 0.011867202)
(1.5000182 -0.35963065 0.011928763)
(1.5023518 -0.36255631 0.011935834)
(1.5974907 -0.37754067 0.013892666)
(1.5997172 -0.38054075 0.013890123)
(1.6020171 -0.38350292 0.013857748)
(1.697021 -0.3982572 0.015808534)
(1.6992038 -0.40126067 0.015793038)
(1.7014355 -0.40429016 0.015741536)
)
;

boundaryField
{
    free
    {
        type            calculated;
    }
    fixed
    {
        type            calculated;
    }
    freeTop
    {
        type            calculated;
    }
}


// ************************************************************************* //
