/*--------------------------------*- C++ -*----------------------------------*\
  =========                 |
  \\      /  F ield         | OpenFOAM: The Open Source CFD Toolbox
   \\    /   O peration     | Website:  https://openfoam.org
    \\  /    A nd           | Version:  6
     \\/     M anipulation  |
\*---------------------------------------------------------------------------*/
FoamFile
{
    version     2.0;
    format      ascii;
    class       pointVectorField;
    location    "0.65";
    object      lm;
}
// * * * * * * * * * * * * * * * * * * * * * * * * * * * * * * * * * * * * * //

dimensions      [1 -2 -1 0 0 0 0];

internalField   nonuniform List<vector> 
28033
(
(-1.780536e-14 4.8656612e-16 1.3104288e-15)
(-5.4375576e-15 3.3318594e-15 9.9433006e-16)
(-5480.0903 1200.5842 27.590641)
(-5170.6763 2379.3522 -52.444575)
(-1.338461e-14 3.0090723e-15 -2.870051e-16)
(-1.2587315e-14 4.9008913e-15 -4.4266115e-15)
(-5143.9043 2392.1869 6.9283407)
(-5446.1888 1215.5602 -27.817708)
(-5.6329745e-15 1.0535579e-15 6.7193838e-16)
(-2.4534443e-15 3.0423504e-16 5.8836893e-16)
(-5.4923298e-15 2.4302826e-15 8.9528572e-16)
(-2.6209443e-15 -1.1537891e-15 -6.7979696e-16)
(-7.2548563e-15 1.5542294e-15 1.0013199e-15)
(-4.7613589e-15 -9.2108094e-16 -7.3952737e-16)
(-1.132389e-15 -2.2256662e-17 -6.4484848e-16)
(-7.4239857e-16 -2.4218299e-16 -3.6669977e-16)
(-1.1196198e-15 4.5550132e-16 8.383863e-16)
(-2.3465882e-16 2.2667819e-16 1.4996246e-15)
(-4.0583243e-15 -8.7236639e-16 -1.3429605e-15)
(-5.8237189e-15 8.4462789e-16 7.5519031e-16)
(-5.1611762e-15 1.0100276e-15 9.7613867e-16)
(-1.7679952e-15 -8.1010255e-16 4.5192313e-16)
(-4.4158752e-15 1.0299569e-15 -9.452958e-16)
(-5336.9925 1245.4862 21.346404)
(-5155.8 1276.7068 16.213209)
(-5017.3405 1313.8815 10.344131)
(-4937.2073 1363.3141 5.4419052)
(-4924.3609 1428.6742 -0.071768828)
(-4975.9615 1513.204 -5.9304308)
(-5079.6207 1615.0699 -12.248456)
(-5215.8957 1731.3362 -19.456944)
(-5359.3841 1854.9014 -26.358085)
(-5484.7007 1978.4431 -33.517368)
(-5569.3591 2093.3161 -39.550914)
(-5596.4222 2191.5765 -43.853507)
(-5559.3762 2268.423 -48.035453)
(-5459.5982 2320.7042 -50.009233)
(-5314.9747 2352.3108 -51.21823)
(19.835455 30.143743 32.701383)
(23.825446 46.555718 46.212461)
(29.750496 62.697192 55.576786)
(38.749836 79.386537 62.500733)
(50.580277 95.185676 65.426931)
(65.909045 110.38658 67.153372)
(84.582723 123.95207 65.970779)
(106.48845 135.86747 63.49599)
(131.4086 145.52064 58.969294)
(158.99616 152.74473 52.990232)
(188.5888 157.05238 45.327884)
(219.57196 158.57944 36.718951)
(251.58782 156.88882 26.677651)
(283.57047 152.08949 16.028708)
(314.90994 144.04023 4.4915236)
(344.37366 133.0856 -7.023125)
(371.83921 119.34692 -18.817436)
(396.09753 102.93803 -30.256336)
(416.50307 84.253274 -41.226339)
(432.14286 63.762905 -51.235809)
(442.9067 41.698098 -60.370699)
(447.837 18.763319 -68.01476)
(446.85798 -4.8722601 -74.295619)
(439.54491 -28.646637 -79.011292)
(425.75092 -51.899013 -81.882219)
(405.30147 -74.630866 -83.102593)
(378.63766 -95.95424 -82.592715)
(345.45345 -115.93107 -80.502524)
(306.28742 -133.79665 -76.650279)
(261.41803 -149.83037 -71.722474)
(211.50861 -163.05558 -65.482244)
(156.66998 -173.89744 -58.417847)
(97.677405 -182.43013 -50.741074)
(35.394756 -187.75454 -42.873235)
(-30.109266 -190.71611 -34.935787)
(-97.759431 -190.61866 -27.463589)
(-167.24923 -188.44294 -20.687074)
(-237.58726 -183.48205 -14.801605)
(-308.79174 -176.56229 -10.092364)
(-380.25632 -167.75787 -6.8136323)
(-451.54339 -157.18826 -4.9169733)
(-522.77637 -145.40981 -4.587824)
(-593.69617 -132.43657 -5.6392112)
(-664.54099 -118.75127 -8.075056)
(-735.4656 -104.5058 -11.577459)
(-806.90908 -89.953065 -15.964538)
(-879.25072 -75.244908 -20.911604)
(-953.05509 -60.475858 -26.0761)
(-1028.8448 -45.700939 -31.145847)
(-1107.1761 -30.882901 -35.791962)
(-1188.5467 -15.940945 -39.743413)
(-1273.3791 -0.73698081 -42.773772)
(-1361.9883 14.913812 -44.731801)
(-1454.5432 31.204292 -45.546252)
(-1551.067 48.356482 -45.23051)
(-1651.4121 66.550035 -43.879624)
(-1755.2775 85.96741 -41.677922)
(-1862.2118 106.70882 -38.856226)
(-1971.6534 128.83202 -35.706823)
(-2082.9458 152.3355 -32.544213)
(-2195.3926 177.10705 -29.690149)
(-2308.3177 203.01966 -27.400594)
(-2421.044 229.80012 -25.988707)
(-2533.0539 257.26676 -25.574636)
(-2643.8784 285.02495 -26.23158)
(-2753.2354 312.83766 -28.19005)
(-2860.999 340.36541 -31.037875)
(-2967.3314 367.49075 -34.846487)
(-3072.1322 393.833 -39.138265)
(-3175.9967 419.50389 -43.805213)
(-3279.3538 444.35851 -48.364232)
(-3382.3954 468.58627 -52.457998)
(-3485.8185 492.25433 -55.706501)
(-3589.9243 515.73177 -57.737552)
(-3695.0558 539.28578 -58.248974)
(-3801.4058 563.33075 -56.99894)
(-3908.9608 588.17675 -53.844746)
(-4017.5248 614.24423 -48.760403)
(-4126.7534 641.80987 -41.872149)
(-4235.9612 671.03689 -33.302215)
(-4344.4523 702.18477 -23.440645)
(-4451.3367 735.20047 -12.615476)
(-4555.4787 769.96979 -1.411275)
(-4655.8369 806.05692 9.8205345)
(-4751.7126 843.22467 20.375044)
(-4841.7893 881.33274 29.974759)
(-4925.7324 919.44616 37.882436)
(-5002.2978 957.09207 44.000051)
(-5072.1163 993.83673 47.803604)
(-5134.1673 1028.5963 49.814505)
(-5190.0897 1061.9287 48.740084)
(-5238.9002 1091.4416 47.119263)
(-5283.6763 1120.1251 41.989471)
(-5323.9308 1143.5404 38.147703)
(-5363.9476 1165.2301 31.646503)
(1.7565376 -32.283671 -38.383442)
(3.5713026 -39.837011 -46.41729)
(3.3849094 -57.269177 -64.661988)
(4.7537843 -64.939576 -69.954833)
(13.621348 -80.806884 -75.291298)
(26.986585 -93.89713 -75.419206)
(43.914063 -106.82633 -73.51182)
(66.079059 -119.19722 -68.676478)
(91.855845 -130.85372 -61.701074)
(120.97332 -140.98532 -52.834318)
(153.05606 -149.8981 -42.353574)
(187.05202 -156.92125 -30.535592)
(222.37944 -162.20627 -17.964301)
(258.35675 -165.32263 -4.774933)
(293.84124 -166.29222 8.5689955)
(328.4232 -164.75392 21.674975)
(360.78233 -160.79757 34.259006)
(390.22266 -154.3129 45.792864)
(416.33577 -145.25117 56.291388)
(437.98786 -133.70188 65.263082)
(454.68742 -119.62717 72.54899)
(466.18795 -103.14985 78.219013)
(471.74899 -84.530892 81.902857)
(471.28269 -63.661555 83.848727)
(464.65942 -40.951945 84.069054)
(451.67607 -16.682036 82.408013)
(432.42835 9.3296984 79.419386)
(407.08879 36.171688 74.826971)
(375.8185 64.365934 69.307035)
(338.96833 92.816023 62.615076)
(296.87941 122.13323 55.3742)
(250.04932 151.35477 47.617454)
(198.8492 180.73076 39.630955)
(143.82216 209.89915 31.671338)
(85.597962 238.77145 23.939191)
(24.713436 267.09604 16.850728)
(-38.254695 294.84175 10.423692)
(-102.69895 322.34087 5.0655867)
(-168.12485 349.13211 0.84971017)
(-234.13915 375.73322 -1.9921584)
(-300.16465 402.0236 -3.2710665)
(-365.98809 428.2921 -2.8896389)
(-431.35351 454.73504 -0.80621426)
(-496.21991 481.63066 2.9700869)
(-560.62273 509.25118 8.3496627)
(-624.77714 537.89749 15.164576)
(-689.00097 567.86172 23.177594)
(-753.73657 599.41693 32.077787)
(-819.50789 632.81245 41.503636)
(-886.89239 668.24404 51.053927)
(-956.48086 705.85485 60.314152)
(-1028.8391 745.71631 68.877736)
(-1104.4642 787.82631 76.374624)
(-1183.7473 832.1022 82.491786)
(-1266.9459 878.38612 86.998527)
(-1354.1532 926.44882 89.76132)
(-1445.291 976.00038 90.754736)
(-1540.1074 1026.7055 90.068944)
(-1638.1806 1078.2016 87.901243)
(-1738.9523 1130.1148 84.549835)
(-1841.7494 1182.0848 80.392552)
(-1945.8364 1233.7827 75.857259)
(-2050.4535 1284.921 71.402053)
(-2154.8853 1335.2848 67.467367)
(-2258.477 1384.7256 64.440607)
(-2360.7396 1433.1628 62.641882)
(-2461.3702 1480.5904 62.302582)
(-2560.0355 1527.152 63.395669)
(-2657.0795 1572.8251 66.027919)
(-2752.6771 1617.9395 69.820498)
(-2847.2031 1662.6253 74.346319)
(-2941.3945 1707.0119 79.326213)
(-3035.7512 1751.3355 84.153476)
(-3131.1255 1795.5517 88.231665)
(-3228.1789 1839.7619 90.981094)
(-3327.4748 1883.8684 91.871211)
(-3429.4423 1927.6799 90.505184)
(-3534.3141 1970.95 86.561748)
(-3641.9855 2013.2542 79.932457)
(-3752.1908 2054.2263 70.676249)
(-3864.2967 2093.3415 59.03373)
(-3977.5008 2130.1482 45.406374)
(-4090.7516 2164.1856 30.34355)
(-4202.8829 2195.0822 14.49102)
(-4312.6202 2222.5532 -1.4379847)
(-4418.7309 2246.4648 -16.724937)
(-4520.009 2266.8113 -30.675739)
(-4615.4559 2283.7726 -42.703958)
(-4704.2545 2297.6541 -52.307318)
(-4785.8758 2308.9605 -59.192478)
(-4860.152 2318.3027 -63.229901)
(-4927.2585 2326.4145 -64.468593)
(-4987.7275 2334.2441 -63.352118)
(-5042.6682 2342.6099 -60.312697)
(-5103.3688 2357.4786 -56.16855)
(3.2927448e-15 -1.3239155e-15 2.3845803e-16)
(2.4470133e-15 -9.6672015e-16 3.215493e-17)
(-9.0574249e-15 9.0550918e-16 6.4029168e-16)
(-1.2642219e-16 -5.721845e-16 4.4370095e-16)
(-7.6811722e-15 -4.9270561e-16 4.1193361e-16)
(-7.3893964e-15 2.7533729e-15 -1.0951501e-15)
(-3.2915852e-15 -8.1743692e-16 3.8364228e-16)
(-1.9032499e-15 5.3200654e-16 -8.2319016e-17)
(-4.7409759e-15 -4.8623412e-16 4.3918642e-16)
(-1.2869644e-14 1.1845665e-15 6.4228907e-16)
(-9.6157521e-15 1.4157374e-15 5.9836601e-16)
(-9.4077204e-15 4.9518432e-16 1.1192419e-15)
(-5.982767e-15 2.6210694e-16 3.0473736e-16)
(-1.1478475e-14 -5.3386198e-16 1.6580808e-15)
(-5.257323e-15 3.6289085e-16 2.8600704e-16)
(18.215697 -14.47726 28.854958)
(19.996719 -56.453815 44.494922)
(21.447464 -56.0989 50.983505)
(30.636123 -80.046304 58.620586)
(41.297658 -94.209703 59.803144)
(57.622778 -108.437 58.190129)
(75.747096 -125.15326 56.058344)
(97.923924 -138.4505 52.32934)
(122.34427 -151.87242 46.914975)
(148.81884 -163.09004 41.318266)
(176.68767 -172.9184 34.739472)
(206.8608 -180.4959 27.640438)
(236.14504 -186.33192 20.116078)
(267.29924 -189.29639 12.282364)
(295.92882 -190.24084 4.4235621)
(324.79179 -188.71029 -3.5021774)
(352.30584 -183.76249 -11.005445)
(375.54133 -177.61245 -18.677632)
(398.41536 -167.35388 -25.628262)
(415.17229 -156.02097 -32.252705)
(429.82071 -141.54147 -38.062497)
(439.89588 -124.9489 -43.063616)
(444.4318 -106.28628 -47.74282)
(444.3622 -85.982418 -51.096058)
(438.79101 -63.541283 -53.602062)
(427.60343 -40.083535 -55.08324)
(410.79075 -15.322406 -55.147947)
(388.3002 11.237801 -54.719792)
(359.72697 37.421697 -52.59797)
(326.14895 65.845083 -50.03352)
(287.00627 93.68473 -46.399775)
(242.77574 122.04437 -41.873035)
(193.84085 150.67172 -36.866536)
(140.7223 178.97636 -31.433126)
(83.839267 207.74997 -25.875377)
(23.586088 234.9717 -20.469444)
(-38.54291 263.35414 -15.359464)
(-103.48795 290.42977 -11.131593)
(-169.37215 317.34123 -7.6577668)
(-236.35859 343.89149 -5.349743)
(-303.69145 370.19345 -4.3500844)
(-371.10756 396.3686 -4.7226014)
(-438.34165 422.63573 -6.5142883)
(-505.26549 449.22544 -9.6618312)
(-571.89838 476.41687 -14.033337)
(-638.38793 504.51639 -19.418548)
(-705.00353 533.84409 -25.55906)
(-772.11702 564.70646 -32.141657)
(-840.17513 597.39226 -38.843296)
(-909.66785 632.14114 -45.330021)
(-981.09046 669.12978 -51.299035)
(-1054.9095 708.45997 -56.485202)
(-1131.5264 750.14204 -60.682536)
(-1211.2521 794.09655 -63.758455)
(-1294.2755 840.15015 -65.653561)
(-1380.6618 888.05101 -66.388739)
(-1470.3299 937.47344 -66.053729)
(-1563.0726 988.04855 -64.802972)
(-1658.5538 1039.3775 -62.83559)
(-1756.3422 1091.062 -60.381523)
(-1855.9273 1142.7312 -57.683)
(-1956.768 1194.056 -54.969203)
(-2058.3089 1244.7848 -52.445614)
(-2160.0407 1294.7352 -50.274774)
(-2261.5327 1343.8343 -48.537962)
(-2362.4066 1392.0917 -47.277783)
(-2462.5682 1439.4966 -46.427873)
(-2563.0674 1487.4249 -46.03859)
(-2659.5712 1532.9829 -45.430878)
(-2758.0875 1579.3126 -45.285318)
(-2855.7354 1626.0281 -44.279067)
(-2953.6542 1672.7777 -42.893011)
(-3052.0925 1720.0259 -40.491432)
(-3151.7584 1767.769 -36.974782)
(-3252.9137 1815.9138 -32.167868)
(-3355.8947 1864.2893 -25.982392)
(-3460.8759 1912.5769 -18.451906)
(-3567.8061 1960.3586 -9.7041027)
(-3676.47 2007.1023 0.030108046)
(-3786.4242 2052.2461 10.416535)
(-3897.03 2095.1714 21.046611)
(-4007.4733 2135.2984 31.465707)
(-4116.8055 2172.0954 41.180989)
(-4223.9871 2205.1414 49.718223)
(-4327.9598 2234.1381 56.639039)
(-4427.7002 2258.9692 61.569972)
(-4522.2799 2279.6745 64.241551)
(-4610.9508 2296.5069 64.497369)
(-4693.1537 2309.8746 62.317974)
(-4768.6212 2320.392 57.833043)
(-4837.3545 2328.7837 51.310995)
(-4899.677 2335.9725 43.189182)
(-4956.3038 2342.9157 34.024244)
(-5008.134 2350.9 24.366699)
(-5046.2674 2355.6574 15.306077)
(-5296.3333 2372.5787 5.2724525)
(-5452.2802 2347.8506 4.5312371)
(-5532.7164 2288.8702 3.4548577)
(-5564.8833 2211.7994 1.8620332)
(-5533.2558 2111.5916 -0.40651882)
(-5440.4299 1993.9475 -3.0330438)
(-5317.9484 1870.6461 -6.1082569)
(-5191.3115 1751.3073 -9.1944495)
(-5034.709 1627.4154 -11.983714)
(-4925.8819 1522.2965 -14.421802)
(-4893.1753 1443.1366 -16.271595)
(-4912.2868 1378.1231 -18.652791)
(-4994.6765 1329.9919 -19.600688)
(-5141.9534 1293.4749 -22.173881)
(-5343.0388 1268.0058 -24.471526)
(-5343.7736 1183.4688 -28.13051)
(-5316.7917 1164.4052 -30.596272)
(-5276.7837 1141.0491 -31.7379)
(-5233.0471 1114.0758 -32.593869)
(-5184.4227 1083.7051 -30.816149)
(-5129.9462 1050.3272 -27.359925)
(-5068.804 1014.0508 -21.42797)
(-5000.6562 975.49461 -13.319576)
(-4925.4096 935.20594 -3.3012345)
(-4843.4329 893.78156 8.4098869)
(-4755.0804 852.07193 21.035492)
(-4661.3395 810.5187 34.249381)
(-4562.7735 769.92657 47.318978)
(-4460.573 730.65682 59.844335)
(-4355.3562 693.07449 71.210837)
(-4248.5268 657.65289 80.951672)
(-4140.7909 624.39367 88.616693)
(-4032.8348 593.23195 94.163713)
(-3925.2468 564.08364 97.435076)
(-3818.33 536.61263 98.599731)
(-3712.2215 510.4588 97.844272)
(-3606.8982 485.21529 95.508565)
(-3502.1368 460.39169 92.001779)
(-3397.7068 435.65825 87.675311)
(-3293.1036 410.5874 83.075902)
(-3188.194 384.81681 78.539436)
(-3083.5878 358.54904 74.428152)
(-2974.6633 330.49002 70.614953)
(-2867.2416 302.90601 67.875034)
(-2757.6675 274.10193 65.719551)
(-2647.004 244.87019 64.403041)
(-2535.4497 215.69095 63.575505)
(-2423.386 186.75924 63.048562)
(-2311.3097 158.52478 62.552391)
(-2199.8029 131.33372 61.783763)
(-2089.4741 105.50505 60.470764)
(-1980.9313 81.286797 58.372703)
(-1874.7296 58.836566 55.318905)
(-1771.3374 38.220193 51.223862)
(-1671.113 19.401382 46.093631)
(-1574.2726 2.2518986 40.030284)
(-1480.8919 -13.435315 33.22757)
(-1390.9008 -27.926577 25.949734)
(-1304.0993 -41.52516 18.519636)
(-1220.178 -54.539148 11.28678)
(-1138.7441 -67.265192 4.606658)
(-1059.3614 -79.947141 -1.1888028)
(-981.56882 -92.779865 -5.8109759)
(-904.94463 -105.86423 -9.0339614)
(-829.08416 -119.21487 -10.719974)
(-753.69979 -132.78845 -10.773687)
(-678.5705 -146.38001 -9.267889)
(-603.54243 -159.78892 -6.2193668)
(-528.76731 -172.72451 -1.8820246)
(-454.10116 -184.81641 3.5959016)
(-380.03698 -195.63872 9.9899981)
(-306.76848 -205.25572 16.876442)
(-235.34371 -212.85736 24.053786)
(-164.0964 -217.33593 31.268353)
(-95.571653 -220.31168 38.41014)
(-29.864286 -220.32286 45.077105)
(33.156835 -216.90317 51.122415)
(92.409335 -211.18391 56.387413)
(147.83639 -202.54289 60.979146)
(199.45398 -190.63389 64.632163)
(245.01666 -176.43333 67.478472)
(287.05039 -159.57761 69.17141)
(322.37654 -140.79123 70.264677)
(353.07487 -120.11434 70.230685)
(377.93603 -97.873235 69.375681)
(397.05018 -74.74155 67.69528)
(410.72821 -50.725158 65.092588)
(418.32231 -26.928744 61.905195)
(420.49526 -3.3233511 57.695909)
(417.46607 19.699305 52.84375)
(409.56755 41.520507 47.38854)
(396.52301 61.511977 41.07022)
(380.18685 80.143806 34.490953)
(359.04231 95.767904 27.147276)
(335.97665 109.62982 19.688771)
(310.38202 120.60534 12.025076)
(282.40377 128.49961 4.0182689)
(253.12133 133.20683 -3.6708339)
(224.83228 136.01593 -11.440987)
(195.3638 134.98143 -18.663867)
(166.94159 131.64062 -25.557372)
(140.81635 125.68676 -31.654967)
(115.77134 117.99214 -37.315604)
(93.125323 107.65195 -41.456222)
(73.042721 95.925962 -44.718451)
(56.310609 82.342046 -46.076054)
(42.869891 68.232971 -45.866504)
(31.911794 54.737689 -43.566775)
(24.055831 38.094114 -35.993471)
(25.017769 25.446187 -21.72448)
(-6.8708141e-15 1.5083581e-15 1.9262289e-16)
(-1.2504183e-14 5.7375616e-16 8.4327435e-16)
(-8.3449101e-15 1.4891922e-15 5.3018253e-16)
(-4.9731758e-15 1.4991158e-15 6.2376313e-16)
(-3.4146159e-15 1.5624416e-15 3.1576894e-17)
(2.0582335e-15 9.3962624e-16 -5.746342e-16)
(2.2101935e-15 3.7457559e-17 -1.1841335e-16)
(2.4553765e-15 -8.5141669e-16 -9.3419562e-16)
(1.2987427e-15 1.0081898e-16 1.7950851e-15)
(-4.5074861e-15 9.063971e-16 1.0710522e-15)
(-5.2682467e-15 2.1856155e-15 1.0652666e-15)
(-7.4917339e-15 1.915055e-15 2.2418828e-16)
(-9.400838e-15 1.3708275e-15 6.2833768e-16)
(-6.2048683e-15 1.3247981e-15 5.4317906e-16)
(-6.971104e-15 1.5128103e-15 7.5678131e-16)
(-1.2693866e-14 6.2923345e-15 -2.1364834e-15)
(-5.2452578e-15 2.6791924e-15 -5.3037742e-16)
(-1.0752404e-15 9.8318743e-16 -1.0111087e-16)
(-2.7353382e-15 1.7746034e-15 7.3085398e-17)
(1.0178949e-15 -1.5450237e-16 -4.119182e-16)
(-1.4303492e-15 4.136346e-16 -3.3264033e-16)
(-1.0059749e-14 4.7133437e-15 -1.6449855e-15)
(2.9801421e-15 -1.9180379e-15 -8.3172098e-16)
(-4.79756e-15 2.8035442e-15 1.1420498e-15)
(-5.4778068e-15 3.5047253e-15 -3.934403e-16)
(-1.8117877e-15 1.1581936e-15 -9.1309836e-16)
(-3.9812639e-16 4.7407236e-16 -2.2932148e-16)
(-1.5272242e-15 1.100363e-15 -2.2557932e-16)
(-4.1024849e-15 1.9838802e-15 2.8069696e-17)
(-5.3424143e-16 2.551799e-16 -1.9455919e-16)
(-5169.2432 2376.1431 -54.013765)
(-5164.9809 2374.4103 -52.907307)
(-5161.0206 2373.1316 -49.388916)
(-5156.7803 2371.7982 -44.696857)
(-5152.9562 2370.6415 -38.910525)
(-5149.5703 2369.42 -32.535457)
(-5146.8263 2368.1882 -25.776911)
(-5144.7548 2367.3031 -19.088292)
(-5143.4153 2366.7892 -12.642738)
(-5142.7254 2366.8725 -6.6555715)
(-5142.7624 2367.8761 -1.5854371)
(-5143.0798 2369.6892 2.6894054)
(-5143.9462 2372.7419 5.6534493)
(-5144.3236 2377.4906 7.4552636)
(-5145.3244 2383.424 7.2597232)
(-5472.7965 1203.0201 28.249096)
(-5465.0599 1203.385 27.667907)
(-5458.0395 1203.1306 25.289204)
(-5451.6614 1202.5616 21.867458)
(-5446.2933 1202.0029 17.486657)
(-5441.8259 1201.6281 12.434064)
(-5438.4933 1201.5634 6.8093941)
(-5436.2844 1201.885 0.93821978)
(-5435.1934 1202.6721 -5.0156829)
(-5435.0794 1203.9535 -10.813891)
(-5435.814 1205.79 -16.169941)
(-5437.1935 1208.0037 -20.877418)
(-5438.9923 1210.6699 -24.635087)
(-5440.989 1213.2397 -27.109806)
(-5443.5634 1215.2217 -27.820147)
(10.606287 22.114714 33.429219)
(16.727732 37.511056 38.193417)
(21.74841 52.554298 48.23956)
(30.133138 66.407062 52.606968)
(40.720094 79.477382 56.273234)
(54.895007 91.471012 57.541215)
(72.3407 102.49156 57.406676)
(92.787263 111.81687 55.712834)
(116.62787 119.79008 52.549957)
(142.79087 125.45422 47.998494)
(171.56823 129.38655 42.270868)
(202.04113 130.72808 35.221163)
(233.86123 129.88336 27.394125)
(266.11959 126.39439 18.445458)
(298.40487 120.64596 9.0145281)
(329.73935 112.39625 -0.98411912)
(359.42404 101.83617 -11.064974)
(386.59608 89.185658 -21.296409)
(410.49438 74.70232 -31.186672)
(430.45194 58.577138 -40.466403)
(445.73353 41.097715 -49.110031)
(455.69688 22.77454 -56.702648)
(459.7867 3.7747696 -63.120282)
(457.69887 -15.350501 -68.297301)
(449.01951 -34.211611 -71.910884)
(433.53101 -52.588074 -74.013922)
(411.2113 -69.903909 -74.557611)
(382.10613 -85.994359 -73.605379)
(346.32504 -100.34714 -71.082188)
(304.09598 -112.9907 -67.275828)
(255.89337 -123.38891 -62.289214)
(202.10029 -131.63697 -56.290775)
(143.32791 -137.46234 -49.696979)
(80.221812 -140.67581 -42.656461)
(13.26953 -141.69339 -35.424201)
(-56.486496 -140.08499 -28.511935)
(-128.7081 -136.33881 -22.099069)
(-202.46911 -130.35363 -16.357895)
(-277.34398 -122.44173 -11.73638)
(-352.60474 -112.75468 -8.2941101)
(-427.98113 -101.45636 -6.1802539)
(-503.04889 -88.872654 -5.4633523)
(-577.8588 -75.126134 -6.0238066)
(-652.21517 -60.485361 -7.8012646)
(-726.39956 -45.147626 -10.613859)
(-800.7507 -29.212295 -14.218688)
(-875.67333 -12.772748 -18.298145)
(-951.73415 4.1136794 -22.556858)
(-1029.5031 21.452804 -26.672237)
(-1109.5869 39.291393 -30.349896)
(-1192.5383 57.714214 -33.3414)
(-1278.8361 76.825175 -35.451245)
(-1368.8309 96.752723 -36.567539)
(-1462.718 117.60423 -36.650668)
(-1560.5189 139.48472 -35.751239)
(-1662.0637 162.44936 -33.999053)
(-1767.0034 186.52704 -31.591755)
(-1874.8275 211.66807 -28.771235)
(-1984.8919 237.79836 -25.834101)
(-2096.4617 264.76928 -23.061525)
(-2208.7686 292.38257 -20.731009)
(-2321.0497 320.42987 -19.080516)
(-2432.607 348.64794 -18.328965)
(-2542.8514 376.81604 -18.512695)
(-2651.3224 404.692 -19.782596)
(-2757.8788 432.07436 -21.967179)
(-2862.0077 458.87584 -24.949254)
(-2964.2308 485.14718 -28.724926)
(-3064.8893 510.46016 -32.783337)
(-3164.033 535.34231 -36.943751)
(-3262.2674 559.62461 -40.698804)
(-3360.064 583.58346 -43.926196)
(-3457.9318 607.49112 -46.230657)
(-3556.2606 631.628 -47.375752)
(-3655.4241 656.25553 -47.122567)
(-3755.5696 681.62163 -45.330986)
(-3856.704 707.93456 -41.975078)
(-3958.6518 735.39179 -37.094452)
(-4060.994 764.00449 -30.804015)
(-4163.2107 793.83422 -23.320594)
(-4264.5279 824.77055 -15.000986)
(-4364.1989 856.61087 -6.1011888)
(-4460.9865 889.0493 2.9166116)
(-4553.9026 921.62268 11.49013)
(-4643.3054 954.58676 19.525533)
(-4727.0559 986.7068 26.338508)
(-4804.7789 1018.1439 32.011033)
(-4876.0946 1048.2372 36.0541)
(-4940.8602 1076.8064 38.54426)
(-4999.1968 1103.6195 39.223628)
(-5051.2442 1128.5177 38.467534)
(-5097.9778 1151.1731 36.371854)
(-5140.2461 1172.6682 32.97429)
(-5178.9056 1191.2433 29.730581)
(-5228.2804 1212.0291 25.455221)
(2.6658476 19.435565 28.513297)
(7.8284816 28.892746 34.083236)
(14.277336 43.068246 41.231225)
(21.834956 54.755288 45.650871)
(32.515494 65.960954 48.174537)
(45.912256 76.47938 49.742449)
(62.338585 85.694383 49.779783)
(82.263077 93.901408 48.757086)
(104.92266 100.55737 46.324234)
(130.52072 105.7099 43.183249)
(158.77086 109.01416 38.495951)
(188.97081 110.53239 33.221276)
(220.87991 110.01669 26.669203)
(253.75478 107.51131 19.614199)
(287.18873 102.94646 11.629331)
(320.03568 96.334669 3.3200912)
(351.9384 87.894545 -5.5093801)
(381.79089 77.583425 -14.325182)
(409.11424 65.680114 -23.151727)
(432.67339 52.365656 -31.663034)
(452.05012 37.926089 -39.708473)
(466.33473 22.654632 -46.996547)
(474.97783 6.8738112 -53.406682)
(477.37193 -9.130022 -58.69868)
(473.09823 -24.91216 -62.781135)
(461.70972 -40.197189 -65.529045)
(443.12857 -54.594159 -66.851454)
(417.20378 -67.868758 -66.765262)
(383.98164 -79.585855 -65.299703)
(343.63516 -89.606098 -62.512564)
(296.55089 -97.646487 -58.536095)
(243.07843 -103.55494 -53.584075)
(183.82457 -107.21619 -47.879561)
(119.44397 -108.57698 -41.589663)
(50.678674 -107.5821 -35.152821)
(-21.828135 -104.30217 -28.714941)
(-97.120048 -98.782913 -22.700813)
(-174.4574 -91.131261 -17.253718)
(-253.04834 -81.614067 -12.711922)
(-332.21533 -70.314138 -9.1887139)
(-411.46475 -57.420784 -6.8797696)
(-490.38189 -43.210875 -5.6916519)
(-568.63919 -27.762645 -5.8835743)
(-646.26682 -11.368694 -7.0432994)
(-723.33301 5.8864857 -9.1148442)
(-800.17404 23.885755 -11.887859)
(-877.20014 42.583191 -15.059654)
(-954.99972 61.915779 -18.346948)
(-1034.1828 81.918664 -21.454397)
(-1115.4027 102.61922 -24.124468)
(-1199.2558 124.09346 -26.13957)
(-1286.2541 146.40554 -27.350075)
(-1376.7643 169.64062 -27.679479)
(-1470.9769 193.8331 -27.126177)
(-1568.8843 219.02233 -25.776635)
(-1670.262 245.17263 -23.775826)
(-1774.6992 272.22647 -21.327935)
(-1881.6004 300.06031 -18.679057)
(-1990.2406 328.52292 -16.089285)
(-2099.8196 357.40598 -13.800287)
(-2209.4989 386.49212 -12.048782)
(-2318.4957 415.55782 -11.012045)
(-2426.0836 444.37662 -10.812909)
(-2531.7241 472.72325 -11.467198)
(-2634.9846 500.4993 -13.046772)
(-2735.6419 527.42677 -15.258825)
(-2833.8429 553.61471 -18.324968)
(-2937.0386 580.46507 -21.658624)
(-3033.2557 605.99298 -25.124548)
(-3126.6939 630.63616 -28.466523)
(-3219.0616 654.95402 -31.451239)
(-3310.9431 679.09876 -33.860124)
(-3402.8493 703.40698 -35.440315)
(-3495.2681 728.04298 -36.00397)
(-3588.4722 753.18257 -35.394802)
(-3682.6277 778.98243 -33.602916)
(-3777.7487 805.546 -30.597733)
(-3873.5851 832.8748 -26.459552)
(-3969.7883 860.92871 -21.338919)
(-4065.8069 889.61538 -15.431853)
(-4160.8786 918.69423 -8.9746429)
(-4254.3404 947.96027 -2.233474)
(-4345.5951 977.39097 4.379557)
(-4418.1292 1003.0238 11.193161)
(-4490.2027 1028.2629 16.974326)
(-4567.6612 1055.4768 21.914102)
(-4640.9952 1081.7539 25.743951)
(-4708.7511 1106.7221 28.496024)
(-4771.1148 1130.487 29.82855)
(-4827.9115 1152.721 30.32795)
(-4879.8065 1173.695 29.14967)
(-4927.0095 1193.0195 27.865686)
(-4971.1981 1212.026 24.745916)
(-5012.0137 1228.5394 22.772168)
(-5062.6204 1248.0645 18.808899)
(-1.3906489 15.241566 24.737104)
(2.5768678 23.04412 28.711096)
(7.3102998 34.139023 35.75016)
(15.146385 44.305431 38.650679)
(25.38287 53.805946 41.208922)
(38.394136 62.92433 42.44769)
(55.028311 71.145978 42.712229)
(74.346911 78.079884 41.966134)
(97.038425 84.095812 40.598288)
(122.69132 88.395382 37.83853)
(150.95971 91.558259 34.631038)
(181.61379 92.788399 30.165231)
(214.2148 92.58129 25.24304)
(248.16886 90.445912 19.236801)
(282.82237 86.647847 12.84429)
(317.5391 81.097763 5.7372903)
(351.50845 73.851743 -1.6470048)
(383.91741 65.078216 -9.3249938)
(413.8765 54.886233 -17.070068)
(440.57649 43.532977 -24.627244)
(463.19567 31.175591 -31.915972)
(480.84638 18.140954 -38.618342)
(492.86535 4.702172 -44.663368)
(498.53519 -8.8262181 -49.796624)
(497.32897 -22.069088 -53.937383)
(488.79534 -34.769209 -56.87536)
(472.63179 -46.556725 -58.611612)
(448.67022 -57.149903 -59.078483)
(416.90984 -66.243037 -58.266932)
(377.48893 -73.624212 -56.241019)
(330.66521 -79.071812 -53.114394)
(276.91177 -82.424207 -49.031542)
(216.80642 -83.61137 -44.168786)
(151.00449 -82.496811 -38.787534)
(80.252067 -79.171715 -33.12251)
(5.5341578 -73.61251 -27.430841)
(-72.279312 -65.979972 -22.06048)
(-152.29301 -56.305915 -17.16344)
(-233.81615 -44.828836 -12.944295)
(-315.93439 -31.688837 -9.6038466)
(-397.9739 -17.095312 -7.2901152)
(-479.45178 -1.1659114 -6.0068691)
(-560.036 15.785971 -5.7932875)
(-639.54626 33.824881 -6.4559868)
(-718.1594 52.650375 -7.8377248)
(-796.09493 72.259615 -9.7873411)
(-873.80606 92.618913 -12.018027)
(-951.87654 113.69507 -14.278504)
(-1030.9511 135.53257 -16.321605)
(-1111.7074 158.164 -17.929231)
(-1194.7665 181.65697 -18.938468)
(-1280.6636 206.0552 -19.242001)
(-1369.766 231.40688 -18.810167)
(-1462.264 257.70687 -17.677439)
(-1558.1203 284.94079 -15.955699)
(-1657.0898 313.01202 -13.794035)
(-1758.7165 341.8158 -11.404935)
(-1862.3679 371.17483 -9.0030312)
(-1967.2966 400.88884 -6.8106227)
(-2072.671 430.73717 -5.032811)
(-2177.663 460.48238 -3.84287)
(-2281.4995 489.92031 -3.3557388)
(-2383.4979 518.79829 -3.6176665)
(-2483.1962 547.04719 -4.670539)
(-2580.1657 574.44363 -6.366038)
(-2675.2793 601.20199 -8.7083494)
(-2760.1733 625.26166 -11.440926)
(-2867.522 654.62098 -14.369614)
(-2957.3194 679.40591 -17.627513)
(-3044.3277 703.5949 -20.434307)
(-3130.3701 727.47828 -22.798703)
(-3216.0643 751.2619 -24.571912)
(-3302.0002 775.23664 -25.55314)
(-3388.5489 799.53838 -25.654442)
(-3476.0203 824.27977 -24.861791)
(-3564.6245 849.60945 -23.076123)
(-3654.3064 875.50997 -20.424927)
(-3744.8884 901.98774 -16.958661)
(-3836.0236 928.93962 -12.853316)
(-3927.1643 956.21628 -8.2368874)
(-4017.7827 983.643 -3.3824535)
(-4107.0415 1010.9827 1.5993918)
(-4194.5078 1038.0969 6.3280679)
(-4279.6126 1064.8315 10.820508)
(-4338.1302 1084.6845 14.329553)
(-4412.0264 1108.7348 17.50169)
(-4485.4945 1132.5579 19.785793)
(-4554.5109 1155.39 21.210525)
(-4619.1815 1177.0921 21.826101)
(-4679.4734 1197.7391 21.579455)
(-4735.7544 1217.4229 20.499137)
(-4788.6425 1236.0484 19.144032)
(-4839.2182 1254.6804 16.873439)
(-4887.2513 1271.3785 15.17356)
(-4942.5674 1290.5911 12.598089)
(-4.4389947 13.577301 21.006036)
(-2.4855452 19.164495 25.091641)
(2.005888 28.150514 30.194558)
(9.2633742 36.331339 32.851006)
(19.503169 44.369599 34.929151)
(33.229629 52.56936 35.89687)
(49.774797 59.305334 36.14091)
(69.767614 65.563708 35.980009)
(93.145624 70.463451 34.509317)
(119.44934 74.302568 32.871951)
(148.73375 76.656267 30.044337)
(180.57551 77.622942 26.824871)
(214.51444 77.096608 22.626182)
(249.95919 74.900159 17.970066)
(286.42306 71.293139 12.630233)
(323.00841 65.981073 6.8154061)
(359.0565 59.370683 0.60456231)
(393.58153 51.291056 -5.8619469)
(425.81608 42.126291 -12.422212)
(454.73628 31.896362 -18.947363)
(479.50841 20.963837 -25.256281)
(499.22017 9.5159836 -31.164463)
(513.12239 -2.1060031 -36.546582)
(520.43636 -13.641498 -41.187532)
(520.61667 -24.735483 -44.990609)
(513.12397 -35.122078 -47.822479)
(497.66214 -44.446843 -49.630688)
(474.01736 -52.489981 -50.307694)
(442.22746 -58.944423 -49.922811)
(402.35551 -63.638299 -48.455862)
(354.79203 -66.362992 -46.018891)
(299.9662 -67.024893 -42.717821)
(238.49623 -65.514648 -38.74655)
(171.12581 -61.833286 -34.242385)
(98.730307 -55.9948 -29.507992)
(22.234692 -48.063199 -24.663391)
(-57.611203 -38.097787 -20.006785)
(-139.56907 -26.324014 -15.717661)
(-222.5383 -12.874497 -12.054626)
(-306.03838 2.0754662 -9.1306626)
(-389.18174 18.397134 -6.9765079)
(-471.46341 35.846342 -5.6697841)
(-552.46483 54.307101 -5.1625371)
(-632.08172 73.642651 -5.3397919)
(-710.41297 93.738717 -6.0685818)
(-787.69006 114.55431 -7.1621097)
(-864.36737 136.06033 -8.407948)
(-941.02878 158.25723 -9.6022363)
(-1018.33 181.1821 -10.548817)
(-1096.9492 204.88192 -11.096522)
(-1177.5154 229.41279 -11.130333)
(-1260.5579 254.8099 -10.601384)
(-1346.4428 281.10744 -9.5181279)
(-1435.3495 308.28044 -7.945755)
(-1527.238 336.29125 -6.0031726)
(-1621.8564 365.02732 -3.8430115)
(-1718.7489 394.36929 -1.6526234)
(-1817.301 424.1176 0.39422877)
(-1916.7809 454.08126 2.1136539)
(-2016.3949 484.03635 3.3590983)
(-2115.3678 513.76076 4.016857)
(-2212.9785 543.03761 4.0419126)
(-2308.6256 571.71463 3.3808213)
(-2401.9081 599.66059 2.132263)
(-2492.5261 626.7206 0.31547306)
(-2580.4686 653.03801 -1.8891199)
(-2666.3177 678.55051 -4.3253773)