/*--------------------------------*- C++ -*----------------------------------*\
  =========                 |
  \\      /  F ield         | OpenFOAM: The Open Source CFD Toolbox
   \\    /   O peration     | Website:  https://openfoam.org
    \\  /    A nd           | Version:  6
     \\/     M anipulation  |
\*---------------------------------------------------------------------------*/
FoamFile
{
    version     2.0;
    format      ascii;
    class       pointVectorField;
    location    "0.700074";
    object      u;
}
// * * * * * * * * * * * * * * * * * * * * * * * * * * * * * * * * * * * * * //

dimensions      [0 1 0 0 0 0 0];

internalField   nonuniform List<vector> 
625
(
(0 0 0)
(0 0 0)
(2.6422309 -0.36093082 0.027542549)
(2.4585594 -0.9373371 0.002195071)
(0 0 0)
(0 0 0)
(2.479131 -0.95249149 0.00087517479)
(2.6625359 -0.3763938 0.026795473)
(0 0 0)
(0 0 0)
(0 0 0)
(2.5956703 -0.50556642 0.020381233)
(2.5497977 -0.64855476 0.014813474)
(2.5045784 -0.79212939 0.0083228529)
(0.0088422643 0.028624371 0.026256)
(0.031158205 0.058907555 0.028160149)
(0.071806768 0.086227331 0.030273205)
(0.12775287 0.10932459 0.030628817)
(0.19631543 0.12659881 0.031002932)
(0.27861459 0.13916254 0.031436172)
(0.36996775 0.14495368 0.031598811)
(0.47123695 0.14574821 0.031950576)
(0.58054738 0.1404851 0.032309732)
(0.69650728 0.12994432 0.032243275)
(0.8185108 0.11471307 0.03243367)
(0.94541386 0.09442038 0.032069787)
(1.0765161 0.070337979 0.032010314)
(1.2110142 0.042261677 0.031682488)
(1.348315 0.011019997 0.031365452)
(1.4879721 -0.023312149 0.030901197)
(1.6292821 -0.059859238 0.030517633)
(1.772123 -0.098726502 0.030088225)
(1.9160855 -0.13958345 0.029526278)
(2.0606016 -0.18163359 0.029152415)
(2.2058366 -0.22512994 0.028711364)
(2.3512672 -0.26922716 0.028327762)
(2.4964182 -0.31458271 0.028286605)
(-0.0056675094 -0.024059562 -0.033847837)
(0.018130874 -0.047310237 -0.027950636)
(0.049790532 -0.078253555 -0.032002693)
(0.098149672 -0.10698806 -0.027328591)
(0.15468939 -0.13554962 -0.02625672)
(0.22581699 -0.16893059 -0.02346894)
(0.30303099 -0.20004138 -0.021723235)
(0.39226906 -0.23527548 -0.018753675)
(0.48786936 -0.27166806 -0.017158108)
(0.59165314 -0.30889182 -0.014644925)
(0.70179608 -0.34882076 -0.012771152)
(0.81786825 -0.38948266 -0.010603714)
(0.93901527 -0.43183845 -0.0088897329)
(1.0646133 -0.47515916 -0.0071852815)
(1.1941609 -0.51956222 -0.0057113116)
(1.3269131 -0.56466279 -0.0044037657)
(1.4626791 -0.61055088 -0.0031694811)
(1.6004106 -0.65680587 -0.0023709136)
(1.7405939 -0.70348535 -0.0013053114)
(1.881915 -0.75020797 -0.00063799153)
(2.024809 -0.79725466 0.00016258447)
(2.1685925 -0.84401888 0.00071235426)
(2.3131656 -0.89068036 0.0012447695)
(0 0 0)
(0 0 0)
(0 0 0)
(0.0055974204 -0.015655405 0.023237735)
(0.025172804 -0.062837348 0.02671287)
(0.061557363 -0.079208774 0.021298802)
(0.10868146 -0.11222819 0.01753758)
(0.17021212 -0.1484832 0.01799631)
(0.23977704 -0.17527553 0.01325405)
(0.31954084 -0.21340134 0.013906747)
(0.40841352 -0.24711684 0.011728128)
(0.50515712 -0.284282 0.010587164)
(0.60936985 -0.32291578 0.009607095)
(0.71997855 -0.36284112 0.0084910816)
(0.83636743 -0.40400713 0.0078890657)
(0.95782421 -0.4466252 0.0069459294)
(1.0838132 -0.49012171 0.0061990544)
(1.2135264 -0.53449897 0.0055125996)
(1.3465437 -0.57982807 0.0048949876)
(1.4823812 -0.62553995 0.0042520758)
(1.6205131 -0.67188054 0.0036901937)
(1.760561 -0.71852224 0.0031948219)
(1.9022543 -0.76534446 0.0026517823)
(2.0450754 -0.81236586 0.0022252698)
(2.1891237 -0.85915812 0.0018046703)
(2.3334829 -0.90602868 0.0014926331)
(2.5252671 -0.80750645 0.0073185014)
(2.5700684 -0.6638899 0.014097235)
(2.6158269 -0.52129528 0.020997758)
(2.5169616 -0.32998463 0.025694176)
(2.3713071 -0.28466323 0.025120407)
(2.2259924 -0.24055471 0.024507409)
(2.080661 -0.19683776 0.023595143)
(1.9359064 -0.1547106 0.022749304)
(1.7918739 -0.11401524 0.021660485)
(1.6488756 -0.075135994 0.020543544)
(1.5072193 -0.038333526 0.019105591)
(1.3672953 -0.0040781531 0.017578175)
(1.2296428 0.027466527 0.015753444)
(1.0946653 0.055597549 0.013688372)
(0.96297001 0.080380655 0.011094701)
(0.83561482 0.10070894 0.0090011336)
(0.71289039 0.11673252 0.0060203269)
(0.59600051 0.12797203 0.0029845088)
(0.48587432 0.13394559 -0.00025857906)
(0.38368301 0.13497631 -0.003982177)
(0.29009917 0.12960337 -0.006906377)
(0.20855805 0.11914402 -0.011319069)
(0.13631369 0.10195262 -0.013648095)
(0.079431257 0.082416942 -0.019098206)
(0.035432298 0.05490076 -0.020671109)
(0.017979787 0.027423925 -0.017097356)
(0 0 0)
(0 0 0)
(0 0 0)
(0 0 0)
(0 0 0)
(0 0 0)
(2.4635302 -0.94135022 0.0015337918)
(2.4687841 -0.9453472 0.001665591)
(2.4737021 -0.94913678 0.0012221777)
(2.6478997 -0.364522 0.027363531)
(2.6528563 -0.36849722 0.027107791)
(2.6580859 -0.37218446 0.026863005)
(-0.0040781534 0.016625736 0.018882243)
(0.01958412 0.033114315 0.014912989)
(0.057698775 0.047032289 0.016744998)
(0.11178438 0.057035474 0.01684766)
(0.17848534 0.06309313 0.01757588)
(0.25788813 0.064455819 0.018137917)
(0.34685572 0.06056592 0.018924247)
(0.44562325 0.052409016 0.019623369)
(0.55204731 0.039197192 0.020107909)
(0.66539459 0.02188769 0.020735793)
(0.78493468 0.00035316292 0.021139705)
(0.90973845 -0.025318974 0.021524181)
(1.0387762 -0.054101284 0.021777583)
(1.171483 -0.086224127 0.021910327)
(1.3072265 -0.12092206 0.022047681)
(1.4455157 -0.15807213 0.021981468)
(1.5857264 -0.19718118 0.022030502)
(1.7276784 -0.23796174 0.021823458)
(1.8709638 -0.28040956 0.021675845)
(2.0149005 -0.32377102 0.021628436)
(2.1598237 -0.36820385 0.021338947)
(2.3049027 -0.41318711 0.021202843)
(2.4501873 -0.45943015 0.021129106)
(-0.010882188 0.0040869939 -2.8557243e-05)
(0.013614564 0.0046754419 -0.0015281336)
(0.049952296 0.0065173934 0.00065728364)
(0.10137131 0.0045007844 0.0014678906)
(0.16654618 -0.0022460687 0.0027637485)
(0.24268864 -0.011269941 0.0041781668)
(0.32877352 -0.024624947 0.0053654481)
(0.42448617 -0.041727357 0.0065576972)
(0.52767205 -0.062285114 0.0077282015)
(0.63858714 -0.086815728 0.0090775719)
(0.7551058 -0.11417812 0.0096699995)
(0.87735142 -0.14512162 0.010892154)
(1.003948 -0.17853715 0.01155573)
(1.1346352 -0.21444709 0.012268377)
(1.2684727 -0.25257168 0.012855674)
(1.4051633 -0.29243039 0.013200582)
(1.5440418 -0.33403452 0.013743493)
(1.6848223 -0.37664212 0.013768036)
(1.8269288 -0.42053935 0.014199609)
(1.9701753 -0.46516476 0.014340857)
(2.1145426 -0.51056823 0.014347126)
(2.2593198 -0.55644377 0.01461617)
(2.4049134 -0.60264339 0.014595691)
(-0.01359939 -0.010246512 -0.012978234)
(0.011233231 -0.019315416 -0.012135178)
(0.04452992 -0.030865223 -0.013280774)
(0.096065095 -0.046147223 -0.011584001)
(0.1576197 -0.065093431 -0.010540688)
(0.23072727 -0.084076577 -0.0089291624)
(0.31425788 -0.10846852 -0.0073814445)
(0.40613806 -0.13375733 -0.0056954455)
(0.5066753 -0.16269066 -0.0040332035)
(0.6138398 -0.19419885 -0.0025458897)
(0.72779053 -0.22773095 -0.001136294)
(0.84716863 -0.26417069 0.00035041391)
(0.97122557 -0.30213508 0.0014612951)
(1.0995864 -0.34219125 0.0026625907)
(1.2313183 -0.38366621 0.0036023473)
(1.3662272 -0.42656452 0.0044772523)
(1.503416 -0.47041468 0.005204469)
(1.6429202 -0.51513884 0.0058015795)
(1.7840099 -0.56065279 0.0063664427)
(1.9266231 -0.60655839 0.0066885472)
(2.0701943 -0.65301035 0.0071291028)
(2.2145426 -0.6993379 0.0074776405)
(2.3594897 -0.74587939 0.0078494209)
(0 0 0)
(0 0 0)
(0 0 0)
(0 0 0)
(0 0 0)
(0 0 0)
(0 0 0)
(0 0 0)
(0 0 0)
(0.0087518832 -0.009108158 -0.014422217)
(0.01241576 -0.01301714 -0.0051392367)
(0.01241053 -0.010787758 0.0072398015)
(0.032965226 -0.056172002 -0.016443429)
(0.035219351 -0.05856807 -0.0044012112)
(0.036809947 -0.058400308 0.012326932)
(0.063879071 -0.080259324 -0.018018289)
(0.069662065 -0.079525403 -0.0053172263)
(0.071003832 -0.084047864 0.010262235)
(0.10978368 -0.11103126 -0.015099062)
(0.11542021 -0.11442283 -0.0045436936)
(0.11450195 -0.11319319 0.0076142006)
(0.16836234 -0.14301833 -0.015175031)
(0.17275607 -0.14455492 -0.0060672267)
(0.17538163 -0.1494285 0.0073222477)
(0.23552002 -0.17343045 -0.014008668)
(0.24210483 -0.1767167 -0.0038100389)
(0.24352635 -0.17778492 0.0052822627)
(0.31466497 -0.20720711 -0.012023994)
(0.32002492 -0.21138886 -0.0049908871)
(0.32181476 -0.21200138 0.005910516)
(0.40182435 -0.24202514 -0.011253998)
(0.40741932 -0.24399773 -0.0037823022)
(0.41016517 -0.24857438 0.0049113306)
(0.49733712 -0.27758689 -0.009613514)
(0.503139 -0.28224884 -0.0033258428)
(0.50586952 -0.28441132 0.0044615142)
(0.60058296 -0.31585627 -0.0083043171)
(0.60608288 -0.31927161 -0.0027555126)
(0.60928932 -0.32252327 0.0042578923)
(0.70998065 -0.354867 -0.0072015556)
(0.71578883 -0.3591343 -0.0020106616)
(0.71920256 -0.36231491 0.0037703324)
(0.82573633 -0.39616564 -0.0057170523)
(0.83126509 -0.39959427 -0.0018430782)
(0.83505492 -0.40287336 0.00386448)
(0.94647377 -0.43764421 -0.0047098882)
(0.95199164 -0.44171487 -0.00084908114)
(0.95575556 -0.4453771 0.0034762592)
(1.0717385 -0.4811384 -0.0035138329)
(1.077138 -0.48504651 -0.00052295412)
(1.0813245 -0.48853321 0.003262667)
(1.2008858 -0.52508911 -0.0026988618)
(1.206347 -0.52903303 -0.00010331)
(1.2105857 -0.53256102 0.0030987039)
(1.3334537 -0.5700959 -0.001843955)
(1.3387797 -0.57397106 0.00026959163)
(1.3432378 -0.57760963 0.0028860555)
(1.468755 -0.61559774 -0.0011689234)
(1.4741533 -0.61950371 0.00050439241)
(1.4786882 -0.6231589 0.0026661839)
(1.6065805 -0.66150142 -0.00066288768)
(1.6118556 -0.6655989 0.00070279809)
(1.6165413 -0.66920624 0.0024359218)
(1.7462453 -0.70816051 -4.6471385e-05)
(1.7515933 -0.71197693 0.00093502302)
(1.7563214 -0.71565766 0.0022468575)
(1.8876763 -0.75459885 0.00025597917)
(1.8929094 -0.75861539 0.0010154616)
(1.8977346 -0.76231839 0.001977243)
(2.0302921 -0.80152682 0.00067516991)
(2.035504 -0.80538418 0.0012388633)
(2.0404384 -0.80904009 0.0017968498)
(2.1739861 -0.84812965 0.0009791977)
(2.1792061 -0.85206852 0.0012569617)
(2.1841476 -0.85592124 0.0015268286)
(2.318318 -0.89487997 0.0013013639)
(2.3234447 -0.89868371 0.0013260641)
(2.3285872 -0.90245735 0.0014414152)
(2.60136 -0.50932599 0.020853179)
(2.6063967 -0.51311256 0.020769844)
(2.6114703 -0.51701315 0.020764192)
(2.5547911 -0.65241282 0.014692728)
(2.5602129 -0.65634654 0.014369228)
(2.5649622 -0.6601373 0.014165918)
(2.5097426 -0.79631255 0.0080379922)
(2.5150668 -0.80026195 0.0078493521)
(2.519987 -0.80386637 0.0077162689)
(0.020863893 0.024292686 0.013974341)
(0.022333708 0.02498594 0.0040187418)
(0.024431997 0.025873037 -0.0047803602)
(0.043696012 0.05434537 0.014502012)
(0.044777806 0.055235162 0.0041060202)
(0.045569386 0.0542068 -0.010396919)
(0.084378045 0.082877945 0.017998202)
(0.08667908 0.082839829 0.0054973197)
(0.088643623 0.082942858 -0.0068224641)
(0.13843693 0.10494959 0.018361059)
(0.14306981 0.10346093 0.007414451)
(0.14364677 0.10261112 -0.0045983968)
(0.20854496 0.12269528 0.019715278)
(0.21225139 0.12126367 0.0096896145)
(0.21367946 0.12112031 -0.0012292401)
(0.28861551 0.13477125 0.021026995)
(0.29330354 0.13148215 0.011849587)
(0.29570568 0.1301847 0.0014991601)
(0.38065324 0.14001048 0.022083218)
(0.38526476 0.13762942 0.013926171)
(0.38745785 0.1357372 0.0039497683)
(0.48133498 0.1402526 0.023182061)
(0.48575424 0.13745369 0.015605813)
(0.48881822 0.13554589 0.0068146964)
(0.58995317 0.13506461 0.024296916)
(0.59490135 0.13200896 0.01727487)
(0.59802645 0.12959391 0.0094452326)
(0.70561149 0.12459883 0.025196835)
(0.71060922 0.1212268 0.018886311)
(0.71395102 0.11866073 0.011799734)
(0.8270176 0.10949158 0.026228856)
(0.83235274 0.10561866 0.020071229)
(0.83592826 0.10261275 0.014252181)
(0.95386342 0.089202409 0.026463925)
(0.95877447 0.085315467 0.022096723)
(0.96254715 0.082534837 0.015569715)
(1.0844107 0.065056099 0.027061088)
(1.0895061 0.061212421 0.02248557)
(1.0936077 0.058445794 0.017686603)
(1.2186627 0.037269262 0.027308158)
(1.2237375 0.0333859 0.023643238)
(1.228027 0.030084012 0.019263499)
(1.3556217 0.0061258161 0.027662439)
(1.3607826 0.0021373138 0.024332851)
(1.3651051 -0.0011661397 0.020578034)
(1.4949841 -0.027941452 0.02766437)
(1.5000345 -0.031941124 0.024922011)
(1.5045695 -0.035322015 0.021702483)
(1.6360314 -0.064531023 0.02787154)
(1.6411753 -0.068389694 0.025476742)
(1.6458141 -0.071964994 0.022741462)
(1.7785065 -0.10316772 0.027774744)
(1.7837812 -0.10720579 0.025765278)
(1.7884228 -0.11073856 0.023470691)
(1.9222976 -0.14369524 0.027684466)
(1.9273699 -0.14767562 0.026099937)
(1.9321423 -0.1512475 0.024245519)
(2.0665933 -0.18574055 0.027628176)
(2.071816 -0.18955518 0.02630496)
(2.0766135 -0.19331574 0.024775383)
(2.2117337 -0.22892207 0.02748459)
(2.2167964 -0.2330727 0.026420432)
(2.2216241 -0.23665912 0.025433385)
(2.3567389 -0.27341562 0.027391039)
(2.361947 -0.27721996 0.026715858)
(2.3668911 -0.28091854 0.02589579)
(2.5024386 -0.31825325 0.027606128)
(2.507334 -0.32225702 0.026929046)
(2.512484 -0.32610208 0.026498415)
(0.0015645986 0.0083049709 -0.011105714)
(0.025886163 0.034613526 -0.01173397)
(0.064641989 0.039472572 -0.0068374827)
(0.12157162 0.050693627 -0.0066342936)
(0.18996701 0.054473679 -0.0040739046)
(0.27026034 0.054056231 -0.0010896175)
(0.3606845 0.049791935 0.00065155776)
(0.46002275 0.040068549 0.0030874595)
(0.56756087 0.026287827 0.005161461)
(0.68166044 0.0081136859 0.0072512305)
(0.80210719 -0.013917862 0.008906425)
(0.92718818 -0.03963226 0.01082873)
(1.0566457 -0.069015897 0.012073828)
(1.189862 -0.10134543 0.013673657)
(1.3260194 -0.13606883 0.014670847)
(1.4645569 -0.1732821 0.015738117)
(1.6051076 -0.21248558 0.016613844)
(1.7472304 -0.25331834 0.017306858)
(1.8905321 -0.29559599 0.017968883)
(2.034764 -0.33915977 0.018469767)
(2.1796758 -0.38361914 0.018980215)
(2.3248353 -0.42879855 0.019478352)
(2.4704062 -0.474943 0.020058131)
(-0.0080665595 0.0051410342 0.0010852599)
(0.019095208 0.0068264891 0.001052992)
(0.057789553 0.00098202246 0.0018475361)
(0.11386631 -0.0013379189 0.0021095518)
(0.17834058 -0.0090879038 0.002527198)
(0.25702785 -0.020576544 0.003817499)
(0.34365083 -0.034821432 0.0047668983)
(0.44043757 -0.052969202 0.0057895145)
(0.54458996 -0.074713083 0.0067719032)
(0.65599643 -0.099598537 0.0077890159)
(0.77320962 -0.12804579 0.0086879151)
(0.89588573 -0.15894989 0.0094664471)
(1.0228512 -0.1930154 0.010344561)
(1.1539462 -0.22906082 0.010965746)
(1.2880909 -0.2672577 0.011441455)
(1.4249662 -0.30741453 0.0119995)
(1.5640491 -0.34887406 0.012362833)
(1.7049648 -0.39171168 0.012644044)
(1.8472654 -0.43562031 0.012964193)
(1.9906994 -0.48037064 0.013087846)
(2.135158 -0.52568749 0.013421618)
(2.2797834 -0.57160275 0.013480438)
(2.425686 -0.61819961 0.013675394)
(-0.011171491 -0.0093615673 0.011132577)
(0.02049174 -0.014389032 0.008635926)
(0.056616469 -0.040093913 0.014507972)
(0.10755869 -0.04700578 0.009395062)
(0.17190904 -0.071583248 0.011136888)
(0.24643306 -0.093530323 0.01017068)
(0.32996976 -0.11670377 0.0099284486)
(0.42354248 -0.14480556 0.0097322184)
(0.52426938 -0.17443568 0.0096783093)
(0.63222467 -0.20659846 0.0096071968)
(0.74654592 -0.24113327 0.0093973836)
(0.86601994 -0.27795004 0.0095026856)
(0.99060312 -0.31624888 0.0092673174)
(1.1191497 -0.35676149 0.0091799139)
(1.2510746 -0.39832673 0.0090510208)
(1.3861137 -0.44133589 0.0088999842)
(1.5235826 -0.48532863 0.008722388)
(1.6631018 -0.53012973 0.0085114108)
(1.8043007 -0.57567814 0.0083327573)
(1.9469056 -0.62164738 0.008160514)
(2.0904734 -0.66794562 0.0080018684)
(2.2349748 -0.71458284 0.0077020302)
(2.3799109 -0.76096968 0.0077877131)
(0.0049216774 0.0079653587 0.0086629989)
(0.0049293505 0.0090385227 0.0033677442)
(0.0074862019 0.0086105004 -0.0025848986)
(0.030987896 0.031809052 0.0074008316)
(0.034728872 0.031450166 0.00083358903)
(0.034065391 0.030458932 -0.0071330804)
(0.069726107 0.043478359 0.0089509717)
(0.072119796 0.040922492 0.0030657467)
(0.073699023 0.041244469 -0.0026649016)
(0.12300578 0.053321456 0.0095538104)
(0.12852891 0.052958857 0.0040736354)
(0.12813085 0.050502582 -0.001575001)
(0.19039345 0.059230865 0.010638746)
(0.19437054 0.05647189 0.0056653457)
(0.1961217 0.054662961 0.0011954125)
(0.26854387 0.059256725 0.011803007)
(0.2733949 0.057307769 0.0076465685)
(0.27521872 0.055087589 0.0020647185)
(0.3573623 0.05552882 0.01338716)
(0.36275286 0.052959856 0.008563467)
(0.36443053 0.050356651 0.0047727063)
(0.4554874 0.047207916 0.014185326)
(0.4604249 0.04414499 0.010559063)
(0.46283459 0.04141608 0.0063483394)
(0.56148412 0.033751351 0.015544986)
(0.56671854 0.030767987 0.011980681)
(0.56951118 0.02768971 0.0083532482)
(0.67450916 0.016693475 0.016391212)
(0.67977231 0.012989627 0.013238253)
(0.68268395 0.0096948766 0.010049699)
(0.79371251 -0.0052127071 0.017243239)
(0.79889638 -0.0090071746 0.01469405)
(0.8022898 -0.011939152 0.011767496)
(0.91786474 -0.030593177 0.018178568)
(0.92331303 -0.034334645 0.015542564)
(0.92674326 -0.037751602 0.012935978)
(1.0466277 -0.059365291 0.018780206)
(1.0518277 -0.063132707 0.016508961)
(1.0556906 -0.066479217 0.014275737)
(1.1789271 -0.091267605 0.019361938)
(1.1842747 -0.095020608 0.017465738)
(1.1882331 -0.098752864 0.015356289)
(1.3144021 -0.12578843 0.019756233)
(1.3196322 -0.12980958 0.018058428)
(1.3238157 -0.13329308 0.016327)
(1.4523317 -0.16282265 0.020144918)
(1.4576332 -0.16662173 0.018648359)
(1.4619631 -0.17030928 0.01711694)
(1.5924148 -0.20169138 0.020245777)
(1.5975678 -0.20566219 0.019106924)
(1.6020622 -0.20934884 0.017779608)
(1.7339162 -0.24238945 0.020547883)
(1.7392481 -0.24642977 0.019407558)
(1.7438051 -0.25005744 0.018335122)
(1.8769542 -0.28460129 0.020610579)
(1.8821722 -0.28842346 0.019713926)
(1.8868231 -0.29215652 0.018798179)
(2.0207557 -0.32779327 0.02063089)
(2.0259481 -0.33180512 0.019959567)
(2.0307173 -0.33556867 0.019147619)
(2.1654505 -0.37213416 0.020606306)
(2.1706338 -0.37617378 0.020124714)
(2.1754797 -0.37989885 0.019537624)
(2.3103956 -0.41726194 0.02064406)
(2.3155433 -0.42109575 0.020497712)
(2.3204136 -0.42484424 0.019849771)
(2.4556531 -0.46310749 0.020825491)
(2.4607375 -0.46699382 0.020591048)
(2.4658025 -0.47090982 0.020412282)
(-0.002625039 0.0015851212 -0.0011707377)
(-0.0011406054 0.0038464335 -0.0013831465)
(0.00084111268 0.0027823536 0.0010322515)
(0.023652644 0.0049147726 -0.0031798473)
(0.02736626 0.0046648179 -0.0019705966)
(0.026949054 0.0032593375 -0.001089639)
(0.061611918 0.0032097679 -0.0012026052)
(0.065774707 0.0018929165 0.0017179672)
(0.06598194 0.0020009308 0.0009300852)
(0.11293465 0.00034320022 -0.00028837765)
(0.11886436 -0.0014113006 0.00087148205)
(0.11818318 -0.003961722 0.00074632247)
(0.17790346 -0.0059666583 0.0011219786)
(0.1828016 -0.0089939105 0.0032442529)
(0.18321704 -0.0094028761 0.0015226712)
(0.252869 -0.015967732 0.0026518992)
(0.25909582 -0.019059171 0.0037296404)
(0.25968634 -0.0210027 0.0030609506)
(0.33918489 -0.029292701 0.0036177921)
(0.34464403 -0.033310558 0.0049650848)
(0.34597548 -0.035025711 0.0041138103)
(0.43411085 -0.04691609 0.0052159313)
(0.43985796 -0.05060911 0.0065435798)
(0.44138339 -0.052658235 0.0052906453)
(0.53699136 -0.067537293 0.006446617)
(0.54256717 -0.071773723 0.0071813323)
(0.54500759 -0.074351631 0.0063338218)
(0.64721773 -0.091969581 0.0076220884)
(0.65311159 -0.09640519 0.0086846253)
(0.65539274 -0.098627216 0.0074747576)
(0.76368546 -0.11982227 0.0088624316)
(0.76898198 -0.12383287 0.0093642229)
(0.77214463 -0.1268403 0.0083655549)
(0.88531059 -0.15033733 0.0098560849)
(0.89098323 -0.15477609 0.010260715)
(0.89415473 -0.15746303 0.0094281751)
(1.0117422 -0.18372867 0.010643859)
(1.0172021 -0.18792165 0.011161146)
(1.0206048 -0.19107602 0.010213527)
(1.1419503 -0.21949069 0.011425962)
(1.1473833 -0.22393092 0.011729353)
(1.1511429 -0.22707355 0.01099795)
(1.275584 -0.25744478 0.012083159)
(1.2809375 -0.26169748 0.012410643)
(1.2849555 -0.26497541 0.011500611)
(1.4119079 -0.29722346 0.012580711)
(1.4172955 -0.30148974 0.012707164)
(1.4214162 -0.30479686 0.012055673)
(1.5505407 -0.33852467 0.013043186)
(1.5558211 -0.34273604 0.013223896)
(1.5601865 -0.3462018 0.012506654)
(1.6909972 -0.38122107 0.013388764)
(1.6963428 -0.3853236 0.01339527)
(1.7008407 -0.38878932 0.01277403)
(1.8330135 -0.42501471 0.013742214)
(1.8383362 -0.42898142 0.013610719)
(1.8428807 -0.43250437 0.013135745)
(1.9761839 -0.46953621 0.014009303)
(1.9813727 -0.47339676 0.013738909)
(1.9862105 -0.47716217 0.013302082)
(2.1202682 -0.51479038 0.014064105)
(2.1256931 -0.5187007 0.01390187)
(2.1303477 -0.52235913 0.013604548)
(2.2648482 -0.56049363 0.01430717)
(2.2700033 -0.56424792 0.014079084)
(2.2748299 -0.56812124 0.013631213)
(2.4102505 -0.60659385 0.01433564)
(2.4155734 -0.61049778 0.01418308)
(2.4205429 -0.61421436 0.013885971)
(-0.0042464795 -0.0058620757 -0.0069562673)
(-0.0043890247 -0.006439628 0.0016781995)
(-0.0019266165 -0.0064381951 0.0056555447)
(0.025016558 -0.019860937 -0.0069257966)
(0.029432664 -0.015750584 -0.0004373148)
(0.028348266 -0.01786956 0.0052830651)
(0.058149423 -0.033382009 -0.0074932655)
(0.062321027 -0.038280739 -0.00035335416)
(0.063410867 -0.038849411 0.0061604994)
(0.10933785 -0.051638838 -0.0070417762)
(0.11305486 -0.050469435 -0.00092071476)
(0.11481447 -0.052519759 0.0050701804)
(0.17008032 -0.068807109 -0.0055028038)
(0.17496857 -0.072436105 0.00033914235)
(0.1769952 -0.073141762 0.0050858383)
(0.24291582 -0.090437558 -0.0050125761)
(0.24726034 -0.092661417 -0.00025348666)
(0.25027283 -0.09474749 0.0047548664)
(0.32547087 -0.11433884 -0.0035212001)
(0.33047465 -0.11695395 0.0016294441)
(0.33315378 -0.11897489 0.0052319683)
(0.41684145 -0.13994635 -0.002240735)
(0.4215694 -0.14342297 0.0015621171)
(0.42510779 -0.14564724 0.0052556524)
(0.51668806 -0.16930547 -0.0010927241)
(0.52174843 -0.1724664 0.0026240745)
(0.52532332 -0.17490255 0.0057466862)
(0.62345288 -0.20050333 0.00016830103)
(0.628394 -0.20394388 0.0032717413)
(0.63226109 -0.20690561 0.0061288765)
(0.7366573 -0.23410795 0.0011842577)
(0.74177211 -0.23810195 0.0040259746)
(0.74595494 -0.24078008 0.0063585913)
(0.85557078 -0.2703739 0.0023957743)
(0.8606631 -0.27399702 0.0047175998)
(0.86482016 -0.27722848 0.0067507211)
(0.97916777 -0.30815489 0.0031872676)
(0.98418453 -0.31212992 0.005171221)
(0.98867338 -0.31532398 0.0070458062)
(1.1070685 -0.34805958 0.0041124372)
(1.1121654 -0.35185623 0.0058706457)
(1.1167389 -0.35523223 0.0072326784)
(1.2384987 -0.38930693 0.0048239341)
(1.243545 -0.3931824 0.0061939129)
(1.2483086 -0.39667746 0.0073976686)
(1.3729875 -0.43189027 0.0054652308)
(1.3780914 -0.43582526 0.0066009145)
(1.3828662 -0.43924853 0.007555239)
(1.5100013 -0.47562064 0.0059594982)
(1.5150632 -0.4793778 0.0069101234)
(1.5200263 -0.48303607 0.0076217714)
(1.6491206 -0.52002544 0.0063477583)
(1.6542952 -0.52409765 0.0070852793)
(1.6592427 -0.52758641 0.0076335747)
(1.7900449 -0.56544149 0.0067614033)
(1.7951227 -0.56918455 0.0072786064)
(1.8001327 -0.57282444 0.0076685165)
(1.932164 -0.61105085 0.0070172187)
(1.9375072 -0.6150122 0.0073380065)
(1.9424802 -0.61870151 0.0076685188)
(2.0755708 -0.65710849 0.0072305702)
(2.0808091 -0.66111548 0.0074978917)
(2.0857248 -0.66475591 0.0076702949)
(2.2198254 -0.70356844 0.0075808693)
(2.22502 -0.70752117 0.0076042949)
(2.2301456 -0.71113439 0.0076752373)
(2.364588 -0.7499368 0.0077823414)
(2.3698086 -0.75368802 0.0077452237)
(2.3748253 -0.75760594 0.0075469072)
)
;

boundaryField
{
    free
    {
        type            calculated;
    }
    bottom
    {
        type            calculated;
    }
    traction
    {
        type            calculated;
    }
}


// ************************************************************************* //
