/*--------------------------------*- C++ -*----------------------------------*\
  =========                 |
  \\      /  F ield         | OpenFOAM: The Open Source CFD Toolbox
   \\    /   O peration     | Website:  https://openfoam.org
    \\  /    A nd           | Version:  6
     \\/     M anipulation  |
\*---------------------------------------------------------------------------*/
FoamFile
{
    version     2.0;
    format      ascii;
    class       pointVectorField;
    location    "0.46";
    object      u;
}
// * * * * * * * * * * * * * * * * * * * * * * * * * * * * * * * * * * * * * //

dimensions      [0 1 0 0 0 0 0];

internalField   nonuniform List<vector> 
28033
(
(0 2.0342887e-19 0)
(0 1.3930201e-18 0)
(1.9138126 -0.12973795 0.0030283681)
(1.8274274 -0.53624924 0.0025498894)
(0 1.2580658e-18 0)
(0 2.0490181e-18 0)
(1.8276009 -0.53715424 0.0025601817)
(1.9139743 -0.13058674 0.0030259481)
(0 4.4048299e-19 0)
(0 1.271979e-19 0)
(0 1.0160791e-18 0)
(0 -4.8238872e-19 0)
(0 6.498092e-19 0)
(0 -3.8509557e-19 0)
(0 -9.3053082e-21 0)
(-3.1039009e-19 -1.0125451e-19 0)
(0 1.9044096e-19 0)
(0 9.4772089e-20 0)
(0 -3.6472846e-19 0)
(0 3.5313124e-19 0)
(0 4.2228335e-19 0)
(0 -3.3869651e-19 0)
(0 4.3061564e-19 0)
(1.9083916 -0.1551989 0.0029618336)
(1.9029528 -0.18063716 0.0028973013)
(1.897522 -0.20605819 0.0028592364)
(1.8920936 -0.23145124 0.0028259052)
(1.8866782 -0.25682464 0.0028131386)
(1.8812739 -0.28218883 0.0028076614)
(1.8758789 -0.30753524 0.0028088454)
(1.8705004 -0.33288937 0.0028148603)
(1.865127 -0.35824421 0.0028176148)
(1.859758 -0.38361511 0.0028175984)
(1.8543944 -0.40900569 0.0028060817)
(1.8490213 -0.43441561 0.0027766986)
(1.8436492 -0.45985086 0.0027468413)
(1.8382609 -0.48531173 0.0026922689)
(1.832853 -0.51078709 0.0026262733)
(0.0055239232 0.0081822557 0.009134314)
(0.0067524778 0.01308922 0.012468181)
(0.0087865508 0.018034049 0.014960959)
(0.011680808 0.023172358 0.016517571)
(0.015135154 0.028367762 0.017445724)
(0.019573709 0.033654045 0.018074671)
(0.024762493 0.038956709 0.018393958)
(0.030809562 0.044114096 0.018520983)
(0.037629173 0.049308684 0.018523324)
(0.045266005 0.054275295 0.018438827)
(0.053604683 0.05917178 0.018272544)
(0.062708254 0.063850938 0.018042174)
(0.072488276 0.068395967 0.017840304)
(0.083013319 0.07270777 0.017539371)
(0.094127734 0.076831889 0.017285512)
(0.10593046 0.08071661 0.016958693)
(0.11833042 0.084412778 0.016688416)
(0.13136204 0.087833588 0.016359822)
(0.1449353 0.091062895 0.016051513)
(0.15909334 0.094025459 0.015717973)
(0.17377339 0.096778036 0.015413859)
(0.1889883 0.099271237 0.015063142)
(0.20469468 0.10154295 0.014758811)
(0.22090402 0.10358321 0.014416885)
(0.23755699 0.10537769 0.014091949)
(0.25467928 0.1069596 0.013761854)
(0.27222304 0.10829256 0.013446613)
(0.29020436 0.10943007 0.013113782)
(0.30857604 0.1103084 0.012792433)
(0.32734709 0.1109878 0.012477851)
(0.34650109 0.1114443 0.012155554)
(0.36600011 0.11167283 0.011836412)
(0.38585936 0.11169561 0.011528245)
(0.40605407 0.11147991 0.011215121)
(0.42657034 0.11107584 0.010896161)
(0.44739127 0.11043587 0.010588108)
(0.46849294 0.10959843 0.010285525)
(0.48988172 0.10854935 0.0099799418)
(0.51151004 0.10729424 0.0096710127)
(0.53338927 0.1058494 0.0093778484)
(0.55548523 0.10420178 0.0090817753)
(0.57779282 0.10238284 0.0087980969)
(0.60029369 0.10037505 0.0085154767)
(0.62297629 0.09820441 0.0082464256)
(0.6458213 0.095867563 0.0079834859)
(0.6688256 0.093383238 0.0077320533)
(0.69196956 0.090753045 0.0074912394)
(0.7152549 0.087989664 0.0072605583)
(0.73866309 0.085099307 0.0070416304)
(0.7621987 0.082090203 0.0068329867)
(0.78584696 0.078969358 0.0066349635)
(0.80961146 0.075741727 0.0064468005)
(0.83348276 0.07241414 0.0062680313)
(0.85746138 0.068988595 0.0060979233)
(0.88154215 0.065470916 0.0059357781)
(0.90572272 0.061861666 0.0057813744)
(0.9299995 0.058164902 0.0056336474)
(0.95436872 0.054381151 0.0054927498)
(0.97882603 0.050513091 0.0053580301)
(1.003367 0.046561466 0.0052294963)
(1.0279864 0.042529113 0.0051069063)
(1.0526793 0.038416913 0.0049901033)
(1.0774388 0.034228952 0.0048797993)
(1.1022628 0.0299647 0.0047739508)
(1.1271407 0.0256341 0.0046760839)
(1.1520738 0.021231842 0.0045814794)
(1.1770496 0.016767615 0.0044961806)
(1.202072 0.012245731 0.0044146458)
(1.2271327 0.0076677167 0.0043338022)
(1.2522341 0.0030408627 0.0042620065)
(1.277369 -0.0016349898 0.0041931067)
(1.3025404 -0.0063518646 0.0041269589)
(1.3277466 -0.011108505 0.0040635627)
(1.352987 -0.015903817 0.0040025486)
(1.3782639 -0.020732174 0.0039418039)
(1.4035742 -0.025597714 0.0038832893)
(1.4289219 -0.030492785 0.0038235187)
(1.4543036 -0.035424611 0.0037649786)
(1.4797214 -0.040385675 0.0037049901)
(1.5051718 -0.045384417 0.0036464456)
(1.5306558 -0.050414381 0.0035844688)
(1.5561668 -0.055482692 0.0035265992)
(1.5817061 -0.060586399 0.0034663966)
(1.6072635 -0.065724987 0.003409446)
(1.6328435 -0.070900953 0.0033525211)
(1.6584322 -0.076114696 0.003298113)
(1.6840298 -0.081367202 0.0032475368)
(1.7096253 -0.086648486 0.0031996084)
(1.7352162 -0.09196981 0.0031593303)
(1.7607934 -0.09730989 0.0031198499)
(1.7863551 -0.10268804 0.0030949199)
(1.8118901 -0.10806969 0.0030666585)
(1.8374057 -0.11348899 0.0030570812)
(1.8628868 -0.11889181 0.0030448401)
(1.8883516 -0.12431294 0.0030437645)
(0.0022526536 -0.0095796267 -0.011011466)
(0.0041323443 -0.012943817 -0.013028856)
(0.0053614207 -0.017935514 -0.016822347)
(0.0068506795 -0.021950648 -0.018150367)
(0.0099033888 -0.027045412 -0.019460488)
(0.013384786 -0.032242255 -0.020069403)
(0.017739094 -0.037122481 -0.020445918)
(0.02287837 -0.042529868 -0.020463032)
(0.028873422 -0.04781624 -0.020375829)
(0.035432071 -0.053137646 -0.020122353)
(0.042821542 -0.05858712 -0.019782497)
(0.050759155 -0.063966723 -0.019376929)
(0.059431183 -0.069459419 -0.018904564)
(0.068650855 -0.074922696 -0.018450037)
(0.078511916 -0.080398062 -0.017918647)
(0.088927771 -0.085928624 -0.017434773)
(0.099904784 -0.091388818 -0.016901581)
(0.11144101 -0.09694553 -0.01639034)
(0.12349017 -0.10245633 -0.015892363)
(0.13606938 -0.107987 -0.015395588)
(0.14913211 -0.11352714 -0.014898995)
(0.16269965 -0.1190939 -0.014450942)
(0.17670273 -0.12461265 -0.013982424)
(0.19121493 -0.13022082 -0.013544965)
(0.20612321 -0.13576623 -0.013128669)
(0.22152363 -0.14137382 -0.012693972)
(0.23730314 -0.14696962 -0.012319891)
(0.2535483 -0.15258467 -0.011898084)
(0.27016521 -0.15822079 -0.011535637)
(0.28721652 -0.16385527 -0.011122902)
(0.30463663 -0.16953552 -0.010751447)
(0.32246134 -0.17520447 -0.01035037)
(0.34064656 -0.18090758 -0.0099604506)
(0.35921222 -0.18661727 -0.009550205)
(0.37812284 -0.19234743 -0.0091407849)
(0.39738041 -0.19807703 -0.0087239685)
(0.41696191 -0.20381513 -0.0082883882)
(0.4368611 -0.20957537 -0.0078629427)
(0.4570549 -0.21531836 -0.0074278261)
(0.47753824 -0.22107462 -0.0069975773)
(0.49828364 -0.22682104 -0.0065723503)
(0.51928134 -0.23256161 -0.0061587999)
(0.5405122 -0.23829402 -0.005758173)
(0.56196282 -0.24401465 -0.0053770159)
(0.58361664 -0.24972389 -0.0050162636)
(0.60546373 -0.25542036 -0.004678782)
(0.62748894 -0.26110491 -0.0043665232)
(0.64968582 -0.26677765 -0.0040783955)
(0.67204326 -0.27244122 -0.0038150662)
(0.69455615 -0.27809572 -0.0035738744)
(0.71721828 -0.28374535 -0.003352852)
(0.74002554 -0.28939058 -0.0031488458)
(0.7629745 -0.29503482 -0.0029582036)
(0.78606248 -0.30067978 -0.0027775036)
(0.80928659 -0.30632722 -0.0026029413)
(0.83264453 -0.31197832 -0.0024315323)
(0.85613328 -0.3176347 -0.0022601326)
(0.87974934 -0.3232955 -0.0020871578)
(0.90348865 -0.32896178 -0.0019108747)
(0.92734646 -0.33463193 -0.0017312111)
(0.95131695 -0.34030553 -0.001548197)
(0.97539393 -0.34598044 -0.0013635316)
(0.99957053 -0.3516562 -0.0011782371)
(1.0238395 -0.35732962 -0.00099548892)
(1.0481932 -0.3630008 -0.00081701232)
(1.0726248 -0.36866687 -0.00064596535)
(1.0971272 -0.37432811 -0.00048465431)
(1.1216938 -0.3799833 -0.00033449515)
(1.1463193 -0.38563019 -0.00019936894)
(1.1709985 -0.39126995 -7.5638098e-05)
(1.1957282 -0.39690743 3.2033373e-05)
(1.2205064 -0.40253571 0.00012660212)
(1.2453312 -0.40816424 0.00020895768)
(1.2702015 -0.41378593 0.00028025013)
(1.295119 -0.41940943 0.00034495506)
(1.3200827 -0.42503071 0.00040362668)
(1.3450953 -0.43065402 0.00046174022)
(1.3701574 -0.43627825 0.00052051661)
(1.3952697 -0.44190486 0.00058473072)
(1.4204335 -0.44753236 0.00065486071)
(1.4456483 -0.45316211 0.00073535767)
(1.4709131 -0.45878931 0.00082475299)
(1.496227 -0.46441693 0.00092717815)
(1.5215857 -0.47003725 0.0010386227)
(1.5469872 -0.47565317 0.0011624538)
(1.572425 -0.48125641 0.0012930179)
(1.5978951 -0.48684914 0.0014322558)
(1.6233896 -0.49242325 0.0015737633)
(1.6489028 -0.49798076 0.0017181596)
(1.6744264 -0.50351463 0.001859188)
(1.6999534 -0.50902686 0.0019966664)
(1.7254765 -0.51451297 0.002125112)
(1.7509888 -0.51997545 0.0022452579)
(1.7764847 -0.52541624 0.0023541643)
(1.801967 -0.53083718 0.0024540906)
(0 -5.5351703e-19 0)
(0 -4.0417691e-19 0)
(0 3.7858515e-19 0)
(0 -2.3922514e-19 0)
(0 -2.0599574e-19 0)
(0 1.1511602e-18 0)
(0 -3.4176294e-19 0)
(-7.9573149e-19 2.224271e-19 0)
(0 -2.0329006e-19 0)
(0 4.9525648e-19 0)
(0 5.9190693e-19 0)
(0 2.0703206e-19 0)
(0 1.0958453e-19 0)
(0 -2.2320284e-19 0)
(0 1.5172136e-19 0)
(0.0051976364 -0.0039900156 0.0080245797)
(0.0054373239 -0.015139098 0.012776028)
(0.0052883397 -0.015837727 0.015361085)
(0.0076205337 -0.023286429 0.017916531)
(0.0099612922 -0.026849783 0.018970095)
(0.013815359 -0.032503674 0.019524108)
(0.018012513 -0.037319372 0.019829416)
(0.023421798 -0.043019614 0.019946406)
(0.029247013 -0.048011748 0.019796405)
(0.035925649 -0.053707797 0.019575101)
(0.04335122 -0.059071833 0.01937742)
(0.051182226 -0.064415033 0.018953709)
(0.059949271 -0.070141734 0.018676953)
(0.069014207 -0.075349429 0.01820816)
(0.0789964 -0.081215101 0.01788357)
(0.089270038 -0.08638005 0.017441821)
(0.10027577 -0.092156195 0.017090392)
(0.11175062 -0.097441761 0.016609896)
(0.12378937 -0.10313514 0.016263229)
(0.13636456 -0.1085576 0.015815342)
(0.14938123 -0.1141264 0.015469409)
(0.16295664 -0.11964357 0.015043707)
(0.17695093 -0.12520634 0.014686042)
(0.19146089 -0.13076874 0.014299966)
(0.20638098 -0.13630538 0.013928803)
(0.22178175 -0.14194163 0.013572531)
(0.23758176 -0.14745988 0.013193652)
(0.253827 -0.15316822 0.01285094)
(0.2704719 -0.15871826 0.012481074)
(0.28751913 -0.16444441 0.012135391)
(0.30497068 -0.17008994 0.011781196)
(0.32279562 -0.17579272 0.011432043)
(0.34100019 -0.18149723 0.011077652)
(0.35956644 -0.18722173 0.010723807)
(0.37848407 -0.19296717 0.010378811)
(0.39773923 -0.19867633 0.010022862)
(0.4173045 -0.20446234 0.0096768319)
(0.43720444 -0.21019784 0.0093363391)
(0.45737999 -0.21594342 0.0090021355)
(0.47784704 -0.22168413 0.0086718122)
(0.49857268 -0.22741467 0.0083555738)
(0.51954922 -0.23313517 0.0080491064)
(0.54075973 -0.23884156 0.0077561746)
(0.56219053 -0.24453571 0.0074773589)
(0.58382765 -0.25021528 0.0072134005)
(0.60566031 -0.25588361 0.0069642019)
(0.62767642 -0.26153977 0.0067295092)
(0.64986761 -0.26718853 0.0065087328)
(0.67222446 -0.27282997 0.0063012023)
(0.69474094 -0.27846897 0.0061052976)
(0.7174101 -0.28410663 0.0059205463)
(0.74022791 -0.28974657 0.0057442859)
(0.76318923 -0.29539054 0.0055768693)
(0.78629075 -0.30103987 0.0054153308)
(0.80952832 -0.30669666 0.0052605061)
(0.83289891 -0.3123597 0.0051098595)
(0.85639789 -0.31803037 0.0049647545)
(0.88002195 -0.32370637 0.0048233681)
(0.9037657 -0.32938705 0.0046870366)
(0.92762472 -0.33507037 0.0045553007)
(0.95159279 -0.34075406 0.0044289743)
(0.97566458 -0.34643623 0.0043083873)
(0.9998331 -0.35211489 0.0041943825)
(1.0240924 -0.35778769 0.0040872229)
(1.0484355 -0.36345421 0.0039873627)
(1.0728563 -0.36911285 0.0038953564)
(1.097349 -0.37476171 0.0038102369)
(1.1219072 -0.3804102 0.0037346048)
(1.1465264 -0.38604342 0.0036649981)
(1.1712008 -0.39167312 0.0036022548)
(1.195932 -0.39730124 0.0035449626)
(1.2207111 -0.40292564 0.0034948649)
(1.2455408 -0.40855069 0.0034462067)
(1.2704182 -0.41417868 0.0034021243)
(1.2953433 -0.41981039 0.0033590664)
(1.3203164 -0.42544774 0.0033170354)
(1.3453377 -0.43109164 0.0032743893)
(1.3704082 -0.43674248 0.0032308802)
(1.3955275 -0.44239956 0.0031852575)
(1.4206966 -0.44806231 0.0031375876)
(1.4459141 -0.45372841 0.0030871626)
(1.4711802 -0.4593963 0.0030346886)
(1.4964917 -0.46506189 0.0029798116)
(1.5218475 -0.47072324 0.0029239521)
(1.5472426 -0.47637514 0.0028672927)
(1.5726741 -0.48201519 0.002811624)
(1.5981354 -0.48763832 0.002757625)
(1.6236219 -0.49324186 0.0027073785)
(1.6491257 -0.49882198 0.0026618826)
(1.6746412 -0.504376 0.0026229625)
(1.7001595 -0.50990253 0.0025921045)
(1.7256751 -0.51539954 0.0025701232)
(1.7511795 -0.5208694 0.0025582785)
(1.77667 -0.52631242 0.0025552267)
(1.8021399 -0.53173694 0.0025591065)
(1.8330229 -0.51169473 0.0025588986)
(1.8384284 -0.4862239 0.0025574364)
(1.8438154 -0.46076433 0.0025705284)
(1.8491849 -0.43533289 0.0025983201)
(1.8545521 -0.4099235 0.0026388443)
(1.8599087 -0.3845336 0.002687338)
(1.8652708 -0.35916617 0.0027468858)
(1.8706392 -0.33379946 0.0028088985)
(1.8760196 -0.30845177 0.0028654381)
(1.8814033 -0.28309032 0.002925485)
(1.8868118 -0.25772923 0.0029705222)
(1.8922224 -0.23233698 0.0030130624)
(1.8976664 -0.20695027 0.0030282669)
(1.9030949 -0.18149939 0.003043062)
(1.9085469 -0.15605942 0.0030335428)
(1.8885049 -0.12516054 0.0029031599)
(1.8630223 -0.11973401 0.0027934155)
(1.8375226 -0.11431085 0.0026674642)
(1.811988 -0.10888785 0.0025333578)
(1.7864264 -0.10347443 0.00238096)
(1.7608424 -0.09807476 0.0022224407)
(1.7352423 -0.092695295 0.0020566926)
(1.7096331 -0.087338992 0.0018884229)
(1.6840217 -0.082013045 0.0017231402)
(1.6584169 -0.076718489 0.0015616571)
(1.632823 -0.071460688 0.001409961)
(1.6072494 -0.066241422 0.0012692151)
(1.5816984 -0.061062271 0.0011412553)
(1.5561749 -0.055924289 0.0010248749)
(1.530684 -0.05082864 0.00092331621)
(1.5052277 -0.045775529 0.00083530662)
(1.4798075 -0.040764961 0.0007595468)
(1.4544231 -0.035795867 0.00069291413)
(1.4290749 -0.030867053 0.00063260813)
(1.4037611 -0.025978239 0.00057520271)
(1.3784806 -0.021127846 0.00051707882)
(1.3532315 -0.016315601 0.00045417892)
(1.3280125 -0.011541053 0.00038328604)
(1.3028215 -0.0068040058 0.00030086565)
(1.2776603 -0.0021071975 0.00020563876)
(1.2525253 0.0025533088 9.4674958e-05)
(1.2274195 0.0071662346 -3.5682734e-05)
(1.2023556 0.011733675 -0.00017461185)
(1.1773136 0.016251665 -0.00033366805)
(1.1523198 0.020719811 -0.00050439917)
(1.127369 0.0251291 -0.00068731445)
(1.1024712 0.029476663 -0.00087723576)
(1.0776311 0.033757328 -0.0010719922)
(1.0528559 0.03796694 -0.0012687305)
(1.0281527 0.042100376 -0.0014643525)
(1.0035275 0.046154387 -0.001656692)
(0.97898649 0.050124237 -0.0018443118)
(0.95453482 0.0540075 -0.0020262052)
(0.93017712 0.057800167 -0.002202776)
(0.90591674 0.061500502 -0.0023749848)
(0.88175686 0.065105016 -0.0025449732)
(0.85769947 0.068612131 -0.0027152161)
(0.83374656 0.072018632 -0.0028895205)
(0.80989963 0.07532228 -0.003071007)
(0.78616067 0.078519614 -0.0032640846)
(0.76253182 0.081607183 -0.0034719444)
(0.73901636 0.084580598 -0.003698219)
(0.71561831 0.087434885 -0.0039451425)
(0.69234375 0.09016429 -0.0042151526)
(0.66919919 0.092762518 -0.0045079716)
(0.64619464 0.095221669 -0.004824878)
(0.62333912 0.097536153 -0.0051632555)
(0.60064702 0.099693119 -0.0055215763)
(0.57813068 0.10169195 -0.0058985035)
(0.5558067 0.10351377 -0.0062846761)
(0.53369013 0.10516342 -0.0066869398)
(0.51179281 0.10663264 -0.0070914041)
(0.49013349 0.10789555 -0.0074986699)
(0.46877187 0.10892951 -0.0078903459)
(0.44762782 0.1098308 -0.008309501)
(0.42679552 0.11047187 -0.008702612)
(0.40631883 0.11087305 -0.0090778498)
(0.38610342 0.1111213 -0.009461656)
(0.36625122 0.11112087 -0.0098403031)
(0.34673236 0.11089406 -0.010207037)
(0.32763438 0.11042082 -0.010570492)
(0.30883863 0.10977707 -0.01091926)
(0.29052442 0.10883161 -0.011272433)
(0.27253668 0.10773349 -0.011645901)
(0.25501081 0.10636959 -0.012003895)
(0.23790061 0.10478344 -0.012375526)
(0.22122798 0.10297522 -0.012757166)
(0.20508817 0.10087113 -0.013118315)
(0.18932953 0.098638953 -0.013536023)
(0.17412233 0.096118535 -0.013936472)
(0.15944995 0.093327792 -0.014324129)
(0.14525052 0.090408645 -0.014778649)
(0.13168633 0.087126079 -0.015150819)
(0.11861028 0.083776368 -0.015619834)
(0.1062199 0.080036442 -0.015997108)
(0.094426806 0.076177089 -0.016425153)
(0.083205942 0.07209171 -0.01680382)
(0.072692763 0.067864806 -0.017221777)
(0.062919724 0.063249411 -0.017504142)
(0.053765071 0.058740014 -0.01787622)
(0.045384935 0.053844287 -0.018081065)
(0.037797453 0.048873579 -0.018243446)
(0.03094883 0.043810399 -0.018294252)
(0.024881278 0.038665647 -0.018198895)
(0.019674556 0.033443069 -0.017898684)
(0.015305818 0.028130149 -0.017225251)
(0.011862492 0.022787638 -0.016199556)
(0.0092535246 0.018019756 -0.0146843)
(0.0070053753 0.012622328 -0.011802552)
(0.0078474199 0.0078375444 -0.0069818755)
(0 6.3063081e-19 0)
(0 2.3988223e-19 0)
(0 6.2261773e-19 0)
(0 6.2676668e-19 0)
(0 6.5324263e-19 0)
(0 3.9284919e-19 0)
(0 1.5660665e-20 0)
(0 -3.5596958e-19 -3.9057869e-19)
(0 4.2151498e-20 0)
(0 3.7895639e-19 0)
(0 9.1378596e-19 0)
(0 8.0066711e-19 0)
(0 5.7313049e-19 0)
(0 5.5388603e-19 0)
(0 6.3249221e-19 0)
(0 2.6307678e-18 0)
(0 1.120146e-18 0)
(0 4.1106173e-19 0)
(0 7.4194554e-19 0)
(0 -6.4596038e-20 0)
(0 1.7293687e-19 0)
(0 1.9706062e-18 0)
(0 -8.0191422e-19 -3.4773498e-19)
(0 1.1721363e-18 0)
(0 1.4652938e-18 0)
(0 4.8423022e-19 0)
(0 1.9820534e-19 0)
(0 4.6005175e-19 0)
(0 8.2944227e-19 0)
(0 1.0668839e-19 0)
(1.8274504 -0.53636862 0.0025535135)
(1.8274649 -0.53648447 0.0025466035)
(1.8274834 -0.53659218 0.00253659)
(1.8275034 -0.53669042 0.0025302223)
(1.8275247 -0.53678108 0.0025276186)
(1.8275446 -0.5368603 0.0025300153)
(1.8275612 -0.53692879 0.0025358919)
(1.8275745 -0.53698678 0.0025436796)
(1.8275836 -0.53703391 0.0025528268)
(1.827589 -0.53707155 0.0025606575)
(1.827592 -0.53710035 0.0025675166)
(1.8275918 -0.53712116 0.0025690741)
(1.8275933 -0.53713521 0.0025691921)
(1.8275942 -0.53714513 0.0025650937)
(1.8275999 -0.53715235 0.0025602081)
(1.913871 -0.12975293 0.0030272247)
(1.9139172 -0.12977334 0.0030283239)
(1.9139672 -0.12979521 0.0030302787)
(1.9140153 -0.12982137 0.0030278954)
(1.9140641 -0.12985132 0.003024082)
(1.9141063 -0.12988548 0.0030163113)
(1.9141412 -0.12992394 0.0030086925)
(1.9141657 -0.1299675 0.0030002484)
(1.9141793 -0.13001662 0.0029936747)
(1.9141804 -0.13007214 0.0029901074)
(1.9141702 -0.13013545 0.0029895923)
(1.9141472 -0.13020725 0.0029946162)
(1.9141161 -0.13028776 0.0030033263)
(1.9140754 -0.13038083 0.0030122129)
(1.914029 -0.13047861 0.0030244713)
(0.0031902724 0.0064944731 0.0092347736)
(0.0047505256 0.011022509 0.010712344)
(0.0066241071 0.015782535 0.013249909)
(0.0095546887 0.020340417 0.014204892)
(0.012815879 0.024904307 0.01525599)
(0.017264031 0.029497334 0.015714591)
(0.022295476 0.033994008 0.016037459)
(0.028376735 0.038565801 0.016141945)
(0.035052253 0.042944287 0.01617164)
(0.042642599 0.047319067 0.016111674)
(0.050919399 0.05146391 0.01593595)
(0.059978998 0.055578152 0.015817576)
(0.069699255 0.059394145 0.015568754)
(0.080131754 0.063158151 0.015378052)
(0.091200638 0.066605469 0.015111717)
(0.10295524 0.069969509 0.01489092)
(0.11529941 0.073017261 0.014603119)
(0.12822588 0.075944096 0.014368418)
(0.1417621 0.078575746 0.014078968)
(0.15585045 0.081052854 0.013817273)
(0.17046183 0.08326152 0.013538462)
(0.18561251 0.085267323 0.013267044)
(0.20125406 0.087065028 0.012976383)
(0.21736728 0.08861977 0.012707637)
(0.23397014 0.0899721 0.012415197)
(0.25100994 0.091098878 0.012144021)
(0.26848673 0.092023798 0.011854408)
(0.28637872 0.092716003 0.011581581)
(0.30468964 0.093202665 0.011300397)
(0.32338223 0.093492334 0.011022707)
(0.34245224 0.093544872 0.010744068)
(0.36189685 0.09340831 0.010471499)
(0.38168823 0.093055723 0.010200881)
(0.40180961 0.092503708 0.0099281684)
(0.42225894 0.091744923 0.0096581548)
(0.44301412 0.090778044 0.0093907927)
(0.46405907 0.089631772 0.0091262229)
(0.48537603 0.088274452 0.0088626545)
(0.50696428 0.086742782 0.0086003267)
(0.52878561 0.085022228 0.0083504465)
(0.55084162 0.08312593 0.0081011391)
(0.57309985 0.081055104 0.0078552449)
(0.59556329 0.078830282 0.0076197871)
(0.61820642 0.076440069 0.0073890208)
(0.64101592 0.073910894 0.0071666143)
(0.66398458 0.071239215 0.0069535521)
(0.68709785 0.068435743 0.0067471888)
(0.71034956 0.065508538 0.0065516481)
(0.73372907 0.062462947 0.0063633996)
(0.75723287 0.059306033 0.0061845434)
(0.78085273 0.056043519 0.0060133423)
(0.80458639 0.052679406 0.0058509221)
(0.82842885 0.049219344 0.0056950847)
(0.85237765 0.04566534 0.00554732)
(0.87642941 0.04202211 0.0054057041)
(0.90058129 0.038290723 0.005271077)
(0.9248303 0.034475021 0.0051422665)
(0.94917257 0.03057575 0.0050199041)
(0.97360449 0.02659614 0.0049031854)
(0.99812154 0.022537556 0.0047925188)
(1.0227188 0.018402774 0.0046874275)
(1.0473914 0.014194295 0.0045883288)
(1.0721329 0.0099145236 0.0044948348)
(1.0969401 0.0055669851 0.0044069563)
(1.1218028 0.0011565088 0.0043242144)
(1.146724 -0.0033193719 0.0042478312)
(1.1716954 -0.0078456482 0.0041741614)
(1.1967024 -0.012431232 0.0041085358)
(1.221757 -0.01706361 0.0040446795)
(1.2468447 -0.021745344 0.0039866832)
(1.2719716 -0.026468744 0.0039292668)
(1.2971331 -0.031232733 0.0038750802)
(1.32233 -0.036034847 0.0038215891)
(1.3475603 -0.040872956 0.0037702252)
(1.372826 -0.045745717 0.0037190251)
(1.3981258 -0.050653535 0.0036688357)
(1.4234619 -0.055592523 0.0036174569)
(1.4488322 -0.060567503 0.0035674352)
(1.4742392 -0.065572523 0.0035154697)
(1.4996787 -0.070614834 0.0034652494)
(1.5251531 -0.075687451 0.0034129631)
(1.5506567 -0.080797263 0.003364202)
(1.5761886 -0.085940233 0.0033126453)
(1.6017425 -0.091114236 0.0032652991)
(1.6273173 -0.096325738 0.003218559)
(1.6529084 -0.10156873 0.0031768586)
(1.6785089 -0.10684302 0.0031371514)
(1.7041104 -0.1121458 0.0031020591)
(1.7297104 -0.11747343 0.003070977)
(1.7552991 -0.12282363 0.0030453959)
(1.7808735 -0.12819381 0.0030249086)
(1.8064245 -0.13357348 0.0030082516)
(1.8319556 -0.13897523 0.0029986337)
(1.8574496 -0.14436539 0.0029866496)
(1.8829293 -0.14978347 0.0029787907)
(0.00083949607 0.0057895727 0.0082130783)
(0.0023100662 0.0084705843 0.0097623949)
(0.0048082712 0.013326904 0.011366108)
(0.0072921019 0.016888358 0.012507203)
(0.01079019 0.021175941 0.013154393)
(0.015013239 0.02500535 0.013549569)
(0.020173039 0.029115591 0.013766144)
(0.026014401 0.032935148 0.013879797)
(0.032761862 0.036805821 0.013917153)
(0.040271335 0.040463776 0.013791636)
(0.048506625 0.044079505 0.01375974)
(0.057499368 0.0474783 0.013542953)
(0.067169803 0.050780879 0.013434905)
(0.07755901 0.053856297 0.013202402)
(0.088571826 0.056789731 0.013060037)
(0.10027706 0.059505201 0.012787599)
(0.11250939 0.06205345 0.012636972)
(0.12543972 0.064369084 0.012379134)
(0.13886999 0.066506313 0.012180831)
(0.1529018 0.068417302 0.01193818)
(0.1674339 0.070133373 0.011724812)
(0.18251786 0.071642405 0.01147076)
(0.19806657 0.072940541 0.011256636)
(0.2141328 0.07403218 0.011011317)
(0.23064199 0.074913173 0.010782505)
(0.24761345 0.075607472 0.010535691)
(0.2650092 0.076078551 0.010307218)
(0.28283711 0.0763581 0.010071345)
(0.30106341 0.076439594 0.0098318061)
(0.31968611 0.076316039 0.0095969467)
(0.33868803 0.075996932 0.0093701146)
(0.35805742 0.075482744 0.0091343012)
(0.37777027 0.074776914 0.0089033944)
(0.39782696 0.073871174 0.0086760766)
(0.41821142 0.072778996 0.0084464244)
(0.43890116 0.071501307 0.0082249899)
(0.45989105 0.070033441 0.0080011095)
(0.48115638 0.068387982 0.0077835397)
(0.50267625 0.066565022 0.0075690197)
(0.52444631 0.064578893 0.0073579093)
(0.54644181 0.062417741 0.0071469085)
(0.56865379 0.060112387 0.0069473099)
(0.59106596 0.057641132 0.0067456217)
(0.61365651 0.055037236 0.0065587623)
(0.63642249 0.052294722 0.0063703302)
(0.65934625 0.049422156 0.0061930941)
(0.68241661 0.04642803 0.0060205892)
(0.70562647 0.043318952 0.0058569824)
(0.72896643 0.040099773 0.005697783)
(0.75243059 0.036777989 0.0055479414)
(0.77601289 0.033357247 0.0054027846)
(0.79970991 0.029842319 0.0052653662)
(0.823517 0.026237671 0.0051332254)
(0.84743159 0.022545116 0.0050079986)
(0.87145056 0.018769137 0.0048877946)
(0.89557105 0.014910525 0.0047739995)
(0.9197899 0.010972866 0.0046652213)
(0.94410373 0.0069568107 0.0045625312)
(0.96850857 0.0028658877 0.004464819)
(0.99300016 -0.0012994094 0.004372914)
(1.0175734 -0.0055352896 0.0042862662)
(1.0422233 -0.0098403199 0.0042049068)
(1.0669439 -0.014211911 0.0041291105)
(1.0917306 -0.018644917 0.0040573048)
(1.1165753 -0.023139189 0.0039918355)
(1.1414812 -0.027687649 0.0039293294)
(1.1664204 -0.032287492 0.0038742061)
(1.1914155 -0.036944112 0.0038216218)
(1.2164534 -0.041644913 0.0037665313)
(1.2415286 -0.046390443 0.0037190484)
(1.2666421 -0.051173471 0.0036704323)
(1.2917888 -0.055996075 0.003626502)
(1.316971 -0.060852646 0.0035822589)
(1.3421869 -0.065744814 0.0035405139)
(1.3674393 -0.070668975 0.0034977709)
(1.3927252 -0.075626189 0.0034566269)
(1.4180492 -0.0806133 0.0034138224)
(1.4434071 -0.08563393 0.0033730608)
(1.4688038 -0.090683076 0.0033300229)
(1.4942331 -0.095767093 0.0032900355)
(1.5197006 -0.10087857 0.003247137)
(1.5451958 -0.10602509 0.003209237)
(1.5707253 -0.11120275 0.0031694168)
(1.5962747 -0.11641323 0.0031291209)
(1.6218552 -0.12164806 0.0030921369)
(1.6474436 -0.1269164 0.0030616609)
(1.6730458 -0.13221261 0.0030332423)
(1.6986506 -0.13753083 0.0030081897)
(1.7242553 -0.14287532 0.0029882623)
(1.7498489 -0.14823514 0.0029693803)
(1.7754314 -0.15361612 0.0029587193)
(1.8009865 -0.15900194 0.0029442016)
(1.8265274 -0.16441225 0.0029419361)
(1.8520216 -0.1698055 0.0029266645)
(1.8775111 -0.17523188 0.0029241208)
(-0.00051788433 0.0045259904 0.007192654)
(0.00087266784 0.0069890621 0.0082118727)
(0.0024638356 0.010701336 0.0099223575)
(0.0052447541 0.014007893 0.010658381)
(0.0086263607 0.017476244 0.011085742)
(0.013040059 0.020958848 0.011365751)
(0.017982298 0.024267441 0.011550823)
(0.02399748 0.027601181 0.011637417)
(0.030641138 0.030712674 0.011546088)
(0.038117712 0.033884656 0.01158595)
(0.046306533 0.036742409 0.011406809)
(0.055272377 0.039644841 0.011360904)
(0.064887068 0.042220046 0.011164433)
(0.075211206 0.044792921 0.011081978)
(0.086192619 0.047059462 0.010851305)
(0.097780766 0.049257322 0.010764896)
(0.11002901 0.051178499 0.010540689)
(0.1228336 0.052988411 0.010401744)
(0.13622479 0.054549632 0.010204254)
(0.15017158 0.055956396 0.010044324)
(0.16465349 0.057151981 0.0098416909)
(0.17964732 0.058150663 0.0096780172)
(0.19514624 0.058966666 0.0094761235)
(0.21111573 0.059573913 0.0092966451)
(0.22755765 0.060011122 0.009093964)
(0.24444443 0.060234812 0.0089121848)
(0.26177055 0.060281526 0.0087161827)
(0.27951021 0.060138877 0.0085211068)
(0.29766386 0.059804212 0.008328749)
(0.31620599 0.059284511 0.0081423599)
(0.33513166 0.058580409 0.0079455771)
(0.35442001 0.057693818 0.0077567569)
(0.37406757 0.056620859 0.0075711499)
(0.39405328 0.05536963 0.0073845177)
(0.41436352 0.053941082 0.007201858)
(0.43498391 0.052336655 0.0070205671)
(0.45589202 0.050563071 0.0068451369)
(0.477075 0.04862048 0.0066739198)
(0.49854358 0.046514765 0.0065004276)
(0.52024975 0.04424508 0.0063281768)
(0.5421908 0.041834084 0.0061685678)
(0.56434783 0.039270431 0.0060009397)
(0.58670162 0.03657045 0.0058525117)
(0.60924513 0.033738922 0.0056987264)
(0.63196095 0.030779026 0.0055512483)
(0.65483492 0.027703286 0.0054107115)
(0.67785908 0.024514114 0.0052728384)
(0.70102363 0.021219733 0.0051404534)
(0.72431958 0.017823944 0.0050129629)
(0.74774092 0.014333515 0.0048907011)
(0.77128264 0.010751248 0.0047719293)
(0.7949392 0.0070823932 0.0046595344)
(0.81870798 0.0033294164 0.0045504271)
(0.84258497 -0.00050458621 0.0044472555)
(0.86656803 -0.0044167648 0.0043480881)
(0.89065344 -0.0084057597 0.0042545712)
(0.91483905 -0.012468666 0.004165548)
(0.93912063 -0.016604374 0.0040821876)
(0.96349492 -0.020810323 0.0040034773)
(0.98795727 -0.025084999 0.0039305957)
(1.0125029 -0.029425709 0.0038623055)
(1.0371267 -0.033830542 0.0037994999)
(1.0618227 -0.038296303 0.0037412794)
(1.0865859 -0.042819806 0.0036873685)
(1.1114101 -0.047399846 0.0036382781)
(1.1362884 -0.052030826 0.0035922307)
(1.1612246 -0.056703596 0.0035522536)
(1.1861969 -0.061436023 0.0035073245)
(1.2112182 -0.066210532 0.0034767661)
(1.236275 -0.071014918 0.0034415175)
(1.2613704 -0.075861886 0.0034078519)
(1.2864999 -0.080740594 0.003375508)
(1.3116675 -0.085653243 0.003341164)
(1.3368686 -0.090597613 0.003307931)
(1.3621058 -0.095572862 0.0032735756)
(1.3873782 -0.10057826 0.0032396425)
(1.4126877 -0.10561305 0.0032046485)
(1.4380329 -0.11067868 0.0031706592)
(1.4634162 -0.1157721 0.0031356978)
(1.4888343 -0.12089704 0.003102683)
(1.5142898 -0.12604959 0.0030693076)
(1.5397764 -0.13123462 0.0030398907)
(1.5652953 -0.13644452 0.0030093567)
(1.5908423 -0.14168989 0.0029840719)
(1.6164142 -0.14695548 0.0029622205)
(1.6419976 -0.15224765 0.0029432685)
(1.6675986 -0.15756274 0.0029256502)
(1.6932028 -0.16290356 0.002913571)
(1.7188084 -0.168261 0.0029031534)
(1.7444052 -0.17363653 0.0028969998)
(1.7699903 -0.17902572 0.0028932765)
(1.7955511 -0.18442174 0.0028902568)
(1.8210968 -0.18983742 0.0028903062)
(1.8465961 -0.19523495 0.0028827237)
(1.8720934 -0.20066395 0.0028774533)
(-0.0014072853 0.0040289053 0.0059169944)
(-0.00067952858 0.0054721652 0.0069866857)
(0.0010047536 0.0085723386 0.0080116466)
(0.0035985176 0.011043705 0.0085511737)
(0.0070530637 0.014046361 0.0088668571)
(0.011175614 0.016730544 0.0091456918)
(0.016325696 0.019578796 0.0092508136)
(0.022167117 0.022161498 0.0092138407)
(0.028798116 0.024821981 0.0093199498)
(0.036242064 0.027222372 0.009175564)
(0.044410699 0.029597896 0.0091903579)
(0.053290945 0.031778164 0.0090309976)
(0.062859525 0.033846196 0.0090132074)
(0.073159966 0.035753366 0.0088186105)