/*--------------------------------*- C++ -*----------------------------------*\
  =========                 |
  \\      /  F ield         | OpenFOAM: The Open Source CFD Toolbox
   \\    /   O peration     | Website:  https://openfoam.org
    \\  /    A nd           | Version:  6
     \\/     M anipulation  |
\*---------------------------------------------------------------------------*/
FoamFile
{
    version     2.0;
    format      ascii;
    class       pointScalarField;
    location    "1.18";
    object      E;
}
// * * * * * * * * * * * * * * * * * * * * * * * * * * * * * * * * * * * * * //

dimensions      [1 -1 -2 0 0 0 0];

internalField   nonuniform List<scalar> 
3969
(
37518.693
38821.011
-1318477.5
-684385.87
42455.203
43550.84
-1015101.4
-2008821.1
19862.626
8884.1419
4244.1148
3146.7093
7701.3531
19589.548
37306.316
-702114.38
-684717.56
-703980.95
-730766.89
-753664.39
-766169.64
-575063.32
42011.675
35309.185
36277.567
37828.315
37816.025
38966.751
38306.207
38936.588
38168.725
38335.328
38371.236
38322.827
38283.558
37940.873
37638.553
37251.064
36591.451
35558.399
34348.675
32566.495
30424.78
27839.039
24695.305
21135.474
17347.132
12964.989
8076.4497
3181.4501
-2123.5474
-7460.6922
-12700.198
-17752.325
-22466.619
-26716.374
-29743.59
-33055.675
-34062.848
-35904.137
-34861.1
-34836.238
-32138.687
-29488.487
-26533.65
-20902.337
-17424.334
-12141.993
9569.7892
40686.074
28529.372
36986.486
33348.805
34591.359
32407.043
31323.259
29021.363
26907.091
25104.058
22297.704
20758.927
18174.792
16480.215
14731.034
13347.84
12422.698
11142.234
10970.951
10411.034
10455.453
11233.251
11319.545
12769.037
14146.275
16314.017
17750.758
19729.845
22340.817
25582.174
29013.013
32314.766
35576.592
38657.794
41280.527
43823.865
44753.556
45725.281
45647.272
44447.181
42465.106
39808.632
35552.513
31141.454
25952.493
20251.717
9058.3959
21784.68
9614.5205
4044.7747
4983.3231
6615.7208
16739.737
31445.826
62580.524
43299.458
32402.149
43492.571
38141.42
37853.898
37077.669
32496.97
33783.342
25787.348
28606.405
24746.616
23624.524
21968.859
20276.081
20095.913
18613.769
18698.392
18153.225
18027.951
18221.021
18572.238
19314.175
20209.526
21282.355
22390.039
24295.807
25615.621
27379.516
28617.323
29808.847
30981.515
31768.219
32564.509
32773.069
32142.268
36670.63
30914.813
30363.707
28517.008
26023.601
23476.992
19766.599
16004.314
11508.51
7246.3937
5434.1086
-1642333.6
-1376695.3
-1603047.5
-1432271
-1380578.4
-1222513.7
-1543148.2
9630.2567
-1391.9209
-1995.189
-5172.8303
-8679.8966
-11928.336
-14581.123
-17095.045
-18942.734
-19005.051
-18454.899
-23305.938
-20679.463
-19317.719
-17549.444
-14765.118
-11960.378
-8297.4137
-4517.8056
-529.18288
3502.9111
7650.2611
11708.253
15314.68
18775.575
21785.723
24642.275
26975.126
29225.231
30776.673
32546.518
32884.876
34509.468
36768.313
36602.903
36647.109
37460.631
37624.14
37917.677
38161.642
39943.468
38014.292
39845.141
37017.902
36537.902
35750.213
47811.649
29263.491
27992.94
27430.917
27313.789
27260.789
27036.533
29063.455
23648.41
24932.103
26805.041
27903.366
28147.049
30701.151
25481.212
-768571.73
-767962.04
-767968.25
-767977.55
-767913.96
-767988.73
-768263.87
-1490631.4
-1487808.3
-1487923.2
-1487881.9
-1488080.7
-1488771.9
-1491960.2
26222.308
21967.824
23868.171
24538.851
25456.476
26399.058
26662.998
27336.676
27469.368
27834.169
27787.097
27594.286
27363.607
26856.022
26020.647
25111.389
23943.686
22399.715
20755.952
18911.991
16881.474
14713.915
12589.023
10254.048
8118.8282
5940.822
3974.7086
2180.8398
587.26877
-714.05768
-1701.8625
-2525.4275
-3094.8151
-3421.0408
-3396.6268
-3378.4247
-2863.7192
-2352.871
-1644.3281
-307.0323
1007.4163
2296.8351
4759.4541
5714.9479
8609.1635
13123.532
18246.808
12270.514
10455.888
12140.187
12341.881
13262.963
13973.575
14150.989
14862.904
14953.622
15146.153
15071.225
15031.315
14909.485
14645.833
14345.759
13657.148
12844.003
11879.88
10876.413
9852.5651
8815.5947
7820.1114
6785.7237
5974.3306
5144.314
4417.4746
3881.401
3424.9052
2978
2996.1614
3158.9412
3454.44
4000.2947
4767.0694
5739.9624
6554.7132
8322.7308
8599.8797
10979.458
11183.423
13414.889
14105.509
15992.325
16599.765
18907.51
17474.011
10273.585
5255.9692
2778.3051
4243.2342
3732.0347
4029.891
4213.7054
4093.8095
4300.7809
3935.5407
4457.0678
4169.078
4164.0413
3855.6161
3254.597
3442.321
3113.528
2953.2475
2629.2274
2528.6914
2268.8118
2112.4863
2122.7525
2526.9407
2910.7441
3578.2547
4145.0156
5203.7891
6321.4788
7588.3539
8912.7835
10268.102
11701.788
13191.285
14611.921
16048.421
17622.672
18681.161
20586.66
21667.004
22591.535
24149.649
23736.213
25279.715
24664.03
26192.519
23063.752
6663.7896
3148.7669
222.86567
719.91378
92.76061
-145.73376
-124.79632
-746.30208
-374.89548
-1086.3227
-1059.386
-1366.0658
-1083.5831
-1422.8036
-1313.5868
-1547.1137
-949.05835
-867.92157
-176.4775
111.38493
717.48323
1273.0735
2318.9291
3440.4492
4235.3516
4892.9281
5936.3138
6658.2895
7627.139
8758.1404
10028.114
11402.97
13045.005
14430.716
16161.168
17768.263
18873.436
20661.458
21504.113
22925.563
23988.513
24142.755
23902.337
24176.009
22510.21
23031.925
18717.001
7260.4817
7475.2244
3846.5231
4465.3649
3165.0006
3317.2734
3268.6472
2446.3942
2838.7771
1893.7365
2165.0029
2151.9993
1957.2772
2036.6831
1804.3618
2228.2107
2202.6434
2507.8079
2717.3162
2983.2707
3258.5587
3997.7928
4526.8252
5262.6358
4904.0459
4832.7363
4550.5128
4220.8035
3845.3735
3371.1383
2843.7972
2320.182
1746.6801
1196.5941
773.59503
173.30466
142.45787
-431.15569
401.50798
8165.7738
15046.836
14100.098
14187.847
13249.217
12507.021
11291.711
11124.412
12731.2
17011.279
13808.667
14200.936
13760.13
14243.748
13800.436
13334.629
12889.738
11915.937
11513.305
11033.823
10661.04
9868.9971
9534.351
9137.7593
8997.7305
8703.6999
8614.5371
8465.7284
8298.0788
8000.3179
8087.6502
6610.0725
5730.7469
4967.5548
4145.6236
3053.8543
2294.2068
1332.1594
437.02664
-567.61659
-1447.6352
-2363.3342
-3079.5576
-3895.268
-4228.8155
-4622.2186
-5014.6815
-4361.5032
-1832.2006
-2954.0534
-2232.3587
-2228.394
-920.09908
-115.75489
27.770666
10392.019
25905.786
22144.486
23307.29
22941.085
24017.056
22851.092
22631.26
20732.762
20874.959
18474.671
19103.75
16980.868
16717.746
15678.838
15183.834
14548.367
13978.035
13466.106
12866.059
12185.667
11868.761
10686.945
10040.786
8738.7741
8541.6007
7970.818
6832.462
6141.5392
5201.0298
4212.1863
3011.2943
2422.1493
1487.4669
1190.3778
575.21156
1029.0664
848.70397
1996.2303
2047.1208
-2372.9369
-2414.6763
-325.76046
1904.3958
5070.1967
7018.8708
12095.132
16410.875
11650.82
11613.718
9362.0091
9153.8441
9394.8559
9700.6037
13002.732
5082.6358
3890.0347
3197.694
2982.2591
3188.4126
3707.5998
5490.7668
2279.4117
1259.9572
569.01562
655.11166
566.43169
963.35156
1887.74
1557.4157
558.23687
332.33185
252.99313
526.76586
1352.3685
2667.446
2776.2171
1640.2516
1093.1794
1004.3
1283.8266
2138.0233
3546.1671
10413.486
7518.8597
6693.6769
6273.7316
6706.0195
7931.954
11102.845
17063.319
17784.181
14147.611
14578.991
14499.32
15741.295
21146.157
46843.273
42158.309
44767.719
48227.834
48509.951
51735.072
51004.843
40370.555
40385.22
38080.683
37578.178
41418.471
42265.337
44780.495
39484.684
41354.877
42974.159
41976.97
42212.16
42335.723
43808.233
39280.479
42180.366
40976.194
42746.947
42725.958
43300.094
40038.848
37903.458
39696.089
42367.021
41732.5
41752.834
41142.108
41095.379
36962.853
37175.109
37226.514
38561.25
37886.194
37396.602
36792.813
33833.4
34843.336
37050.247
36893.076
37716.995
37185.577
37241.123
32152.378
32652.288
32448.595
32997.118
32280.125
31963.333
31895.35
29567.986
29737.81
31188.435
31549.935
32269.267
32610.654
33390.658
26928.251
27614.518
27585.581
28979.147
27374.132
27134.219
27333.392
25435.387
25383.617
26152.593
25601.049
26842.727
27201.896
26519.553
22404.163
23141.418
23088.526
24376.861
23998.166
22322.072
24308.541
21066.5
20743.122
21944.313
21326.494
21667.589
22373.419
22246.745
18390.062
19058.218
19982.58
19453.951
20880.315
19167.388
20676.047
17404.723
17888.84
18307.713
18239.661
18292.749
18010.179
18882.217
15906.786
15949.872
17380.343
16448.574
17662.372
16834.469
18149.565
14717.897
15490.574
16017.049
15656.256
16390.233
15542.742
16804.589
14261.192
14257.213
15484.513
14853.237
15779.106
14978.804
16285.576
13631.585
13943.038
15158.955
14247.941
15370.477
14337.193
15858.086
13605.581
13693.959
15059.407
14169.896
15381.001
14262.942
15769.403
13919.156
13800.054
15398.728
14318.485
15552.583
14336.183
15925.014
14490.207
14254.091
16022.027
14791.295
16096.557
14809.998
16479.891
15308.078
15081.494
16755.33
15693.46
16891.699
15851.786
17376.686
16570.213
16308.414
17994.284
16764.217
17961.28
16911.871
18310.805
18099.101
17943.311
18983.055
18730.27
19360.281
18531.723
19582.425
19931.889
19838.604
20445.792
20349.753
20996.461
20391.388
21395.216
22852.189
22170.724
22588.415
21666.795
22961.052
22330.089
23639.06
25354.814
24302.895
25129.353
23867.307
25060.916
23923.071
25460.323
27585.585
27154.178
27210.919
26432.937
27318.977
26797.829
27597.239
30872.439
29387.162
30477.469
28432.168
29977.512
28651.01
29787.899
33291.989
32502.113
32843.78
30963.1
32167.029
30874.76
32075.439
36339.196
34935.184
35543.051
33179.647
34597.223
33011.001
34361.52
38683.458
37532.831
37986.225
35509.499
36697.384
34994.303
36323.253
40882.773
39579.627
40111.184
37270.564
38575.48
36642.364
38171.218
42517.882
41517.917
41814.652
39063.484
40058.464
38277.321
39629.329
44147.749
42608.557
43300.765
40057.949
41507.83
40321.437
40510.606
44286.49
43412.193
43711.814
41247.341
41973.381
35765.445
37768.8
39933.463
40040.04
39580.562
37926.982
37904.501
41671.28
40797.246
43272.83
42218.072
42789.185
40135.383
41073.749
39077.974
40046.722
41845.777
40667.187
41211.203
38940.663
39601.927
37857.46
38527.964
38907.499
37918.822
38692.992
36464.736
37352.23
35741.28
36204.05
35597.458
34911.827
35466.777
33894.489
34385.68
32990.6
33011.035
31177.932
30408.71
31210.127
29768.695
30358.964
29262.032
29208.704
26409.843
26073.385
26595.711
25722.733
26013.39
25155.313
24507.548
20961.916
20589.132
21052.704
20410.558
20768.365
20169.83
19476.442
15495.57
15394.391
15986.843
15641.809
15907.288
15375.454
14373.141
6992.5259
7323.3982
7099.4563
7378.7254
7034.2903
6767.2051
6875.2926
-870682.11
-954974.85
-955040.61
-955217.06
-955038.5
-954323.11
-954036.6
-917110.71
-915324.87
-915173.66
-915364.66
-915190.53
-986019.29
-914999.77
-999340.47
-929033.47
-929025.65
-929051.42
-928726.56
-846548.05
-927941.41
-967015
-967261.21
-968203.86
-967465.24
-968497.75
-966818.4
-967280.06
-1000188.8
-900894.24
-997109.9
-997657.06
-995986.49
-996837.03
-997007.61
-927891.29
-1102930.3
-1025569.4
-1025229.3
-1108874.7
-1025262.5
-1026122
-1102856.9
-1021601.2
-1021925.8
-1022056.3
-924917.75
-1021792.4
-1020770.2
40683.1
36348.921
34339.505
33282.062
33691.659
34904.873
34932.275
38433.763
35498.755
35091.894
34695.664
34733.723
35203.446
36587.594
39263.076
39611.379
38761.533
38078.716
38903.286
38326.922
38406.12
39397.839
39586.512
39137.255
39428.728
38764.496
37731.415
38254.554
40158.501
39683.812
40334.622
39675.819
39650.843
38665.999
38348.897
39254.289
39138.346
38854.218
38276.269
38526.069
37660.08
38109.728
39995.252
39075.831
39229.059
38132.378
38890.184
38263.677
38511.983
38838.439
38081.031
38232.606
37523.327
37426.57
37057.839
37677.481
39345.535
38459.601
38506.056
37335.985
38268.334
37260.304
38430.524
39008.128
37748.8
37761.878
36776.858
37430.757
36713.379
37706.864
38778.761
37689.628
38229.185
36817.988
37835.899
36712.35
37687.121
38263.67
37657.551
37379.375
36802.762
37031.485
36700.07
37523.235
38305.515
37154.288
36991.797
36229.244
36598.431
36042.433
36227.372
37930.05
37077.657
37108.897
36020.467
36507.83
35891.677
36254.675
36955.69
36475.278
36327.676
35877.856
36068.898
35343.557
35846.237
36964.072
35695.593
35400.61
34827.398
35179.611
35114.688
35058.745
36547.602
35285.751
34919.091
34390
34450.975
33590.721
33907.47
35295.119
33972.394
34015.912
33104.361
33134.041
32570.843
32472.611
33772.838
32725.465
32525.081
31749.296
31725.347
31124.766
31025.878
32006.672
31005.688
30726.296
30067.876
29729.732
29230.685
29006.072
29742.81
28962.468
28554.212
27841.384
27429.194
27002.267
26712.722
27117.251
26516.969
25822.861
25293.221
24747.818
24337.07
23956.354
23819.803
23453.737
22629.346
22275.219
21554.582
21227.844
20812.948
20246.517
20325.928
19203.115
18983.175
18293.048
17853.87
17334.17
16208.268
16695.457
15173.166
15370.552
14417.31
14039.463
13464.114
11996.488
12723.093
11099.607
11251.825
10443.891
9857.0046
9368.1252
7160.5992
8300.5722
6635.8899
6846.5899
6126.2662
5473.3872
4953.6941
2476.1173
3513.8664
2101.7061
2314.9289
1590.2428
962.71723
445.05054
-2381.5372
-994.15996
-2810.7743
-2227.2657
-3052.1656
-3588.0459
-4011.7734
-7307.3639
-5732.4834
-7456.3172
-6888.046
-7504.2549
-8082.3482
-8363.6967
-11775.64
-10520.178
-12032.248
-11242.857
-11956.029
-12563.447
-12478.045
-16214.344
-14835.401
-16093.427
-15578.737
-16141.953
-16503.794
-16257.692
-20001.96
-18824.106
-20032.314
-19339.347
-19754.772
-20270.734
-19417.762
-23246.675
-22387.225
-23165.792
-22546.955
-22949.637
-23245.886
-22374.306
-25786.576
-25105.489
-25734.322
-25333.262
-25787.318
-26270.977
-24334.989
-27883.636
-27295.741
-27556.239
-27335.106
-27395.808
-30524.203
-28655.726
-31705.775
-32299.654
-32262.273
-32566.321
-32235.839
-29967.155
-24771.033
-28554.747
-28479.931
-28524.138
-28517.949
-28753.634
-29690.084
-26610.145
-28524.174
-28173.848
-28317.567
-28208.269
-28741.893
-28792.238
-25852.81
-26994.147
-27413.662
-27300.383
-27256.091
-27665.459
-27852.792
-24607.528
-24991.202
-25055.855
-25027.132
-25105.188
-25559.909
-25951.49
-22500.139
-21866.247
-22099.997
-22217.1
-22015.965
-22677.513
-23043.929
-19856.278
-19123.688
-19718.476
-19447.881
-19602.167
-20064.489
-20179.019
-16732.128
-14559.175
-14333.16
-14643.043
-14469.249
-15171.86
-15398.188
-13013.587
-10238.157
-11086.338
-10820.656
-10944.338
-11375.746
-11678.587
-9321.2172
-7508.5282
-6750.228
-7336.1468
-6849.9462
-7221.6723
-7253.1426
-6425.2023
13518.185
11920.958
12407.379
12162.811
11916.642
12507.807
12160.276
38056.718
29312.753
27440.465
28036.146
28782.385
28314.433
29080.537
27869.776
27808.603
27477.821
26801.16
25643.864
25154.308
23727.86
22921.51
21781.663
20423.072
19526.4
18378.189
17583.326
16678.426
16179.217
15790.066
15561.939
15743.516
15638.705
16943.612
17328.075
18191.266
19115.292
19986.602
20906.33
21500.833
22121.067
21983.15
22467.293
24658.882
22919.38
21519.253
20672.533
19903.831
18772.848
17650.19
16313.395
15269.577
13919.899
24056.302
15612.531
17406.828
13937.103
15148.419
16738.212
16436.936
17832.72
18288.03
19125.375
19472.987
19741.248
19943.469
19633.709
19276.882
18666.734
18603.681
18102.823
17240.738
16846.858
15840.508
15016.577
14117.584
13002.923
12056.952
11108.924
9118.8285
7929.4966
8443.6059
7481.9444
6828.6824
6327.9374
6054.9251
5744.0321
5716.3371
5651.7841
6006.2764
5546.5912
5552.6917
5859.8237
5781.1593
6004.7465
5783.3766
5844.2024
5515.7836
5720.45
4122.4079
9549.1646
6053.688
6335.7192
4694.8819
6634.5232
5414.1666
5252.9134
6650.061
5385.3213
6784.0013
6051.9635
6509.2452
6724.7029
8267.531
10107.322
9879.5988
10240.908
10196.899
9989.3463
10044.407
9397.6149
9000.1261
8224.0327
7338.7859
6191.1387
5137.1329
3652.7744
2406.7419
513.46933
-970.21289
-2755.892
-4232.9559
-5876.6844
-6983.9509
-8072.8745
-8790.1643
-9203.5397
-9036.2367
-8663.3983
-8091.4245
-6829.1877
-5470.5152
-3797.8341
-1952.9966
635.98537
2418.5325
6010.3427
1448.6398
2825.0778
2548.5283
-440.35287
3904.3313
-363.33204
2760.2095
-892.03419
902.25509
1242.4968
475.81543
2710.6322
1392.728
3913.1932
6212.3586
6609.5491
7464.2265
7548.8898
7717.0385
7728.6318
7400.1358
6849.5985
6195.8271
5008.7201
4135.3207
2623.9183
1611.3885
-373.6125
-1718.7933
-3406.8508
-4830.5146
-6284.5392
-7519.7419
-8532.9957
-9676.8955
-10145.784
-10640.05
-10686.167
-10577.485
-9658.6309
-8791.0802
-6982.5442
-5363.7298
-2268.5392
109.59421
4185.4628
8458.7508
2887.4174
7141.0181
1947.9054
2940.179
2660.1161
2000.5594
2852.1544
2919.0038
3667.7819
2144.926
4390.0831
2182.2921
4438.0122
3642.3759
3973.1481
4476.0796
4427.4233
4845.7881
4825.7244
4935.4919
4650.0434
4371.4361
3770.2931
3242.8842
2153.7902
966.53364
-308.51761
-1531.5433
-2753.0393
-4064.9096
-5330.2658
-6415.8202
-7303.5035
-8071.4197
-8493.9637
-8500.3849
-8498.8743
-7722.3134
-7009.2453
-5775.6868
-3998.8323
-2257.0286
234.53356
2680.1386
5517.4746
8513.9749
13220.751
12038.255
16387.717
13206.272
8791.9752
13199.655
9283.8555
12310.673
11600.838
9349.19
12038.683
9661.6759
11469.87
10335.928
9780.2421
9975.8785
9013.7105
8983.6466
8462.1105
8240.0423
7881.3501
7638.7114
7309.5474
7065.8595
6786.4945
6238.5554
4703.607
4568.5497
4339.8613
4061.0575
3770.5803
3487.2586
3340.5434
3129.6933
3053.271
3192.5062
3385.5999
3439.1242
4199.4661
4733.2101
6235.2348
6904.2925
8409.1392
9686.7128
11166.655
12617.438
14140.037
15623.939
14241.159
40408.577
23399.615
27957.068
24471.975
27652.214
25849.259
25450.481
24477.419
23522.82
21729.246
21861.7
23335.481
20855.534
20281.986
18880.83
17894.313
16798.837
15658.919
14751.054
13536.547
12379.288
10931.221
9490.9595
7362.801
6135.8498
4142.3742
3543.587
2601.7255
1615.8924
1082.2758
543.47105
187.9426
138.55501
321.74201
711.21207
2725.9982
2309.3038
3427.1458
4429.4819
6027.5051
7760.0971
9626.3857
11584.656
13984.063
15766.131
18759.129
18096.038
31060.44
26006.923
24847.702
24298.167
24375.336
24276.483
24889.76
28649.394
29007.056
26612.71
26166.483
25611.503
26242.025
26946.647
27632.718
28797.854
28736.327
28100.739
27866.633
27804.751
27377.506
28199.181
28581.963
28561.965
28521.371
27978.14
27689.343
26483.56
28355.194
29082.151
29156.423
28824.439
28676.621
28070.442
27179.503
28210.826
28310.502
27949.312
28462.26
27568.369
27563.571
27136.188
28774.156
28682.048
28698.091
28064.857
27744.915
27767.727
27293.747
28261.669
28205.152
27508.168
28155.014
27504.743
27236.798
26809.859
28604.726
28438.284
27641.309
28066.086
27253.934
27539.999
27142.29
27966.743
27618.856
27045.774
27255.533
26515.155
26864.641
26202.817
27791.408
27452.315
26833.749
27080.259
26573.673
26667.026
26406.707
27362.713
26624.066
26086.54
26288.87
25474.623
25977.75
25234.463
26764.037
26101.838
25516.727
25769.88
25261.528
25479.958
24987.386
25900.57
25041.081
24762.306
24603.557
24316.731
24280.098
24115.56
24767.74
24252.113
23642.656
23777.179
23110.777
23662.03
22912.184
23579.291
22932.003
22564.871
22536.974
22315.119
22492.087
21961.282
22301.103
21600.134
21160.513
21129.196
20866.536
21086.515
20654.631
20777.46
20189.218
19789.693
19718.424
19610.133
19958.099
19381.737
19321.938
18643.986
18305.055
18286.851
18267.18
18478.842
18042.636
17809.383
17167.224
16906.11
16866.558
16814.478
17192.34
16832.974
16429.496
15636.454
15535.08
15390.55
15526.008
15877.731
15535.32
15113.419
14185.395
14228.256
14117.985
14316.591
14643.606
14403.189
14009.191
12862.685
13245.957
12978.37
13176.073
13415.141
13423.825
13009.89
11732.212
12414.76
11902.653
12202.524
12490.724
12647.336
12334.192
10669.612
11399.661
11099.59
11209.467
11405.409
11978.492
11336.569
9978.0553
11170.154
10288.234
10407.163
10737.491
11118.469
11212.261
9321.5846
10295.283
9988.5158
9944.9301
10329.28
11369.272
10943.251
9352.2218
10156.186
9812.3873
9697.2832
9907.7625
11215.739
10697.492
9004.7924
10528.447
9613.1093
9611.9585
9785.2779
11333.698
10778.781
9392.6011
10553.87
9743.8322
9774.839
9840.5733
11604.619
11057.681
9650.9856
10823.632
10211.846
9998.801
10045.865
11964.981
11251.286
10154.734
11318.157
10532.988
10287.695
10365.593
12398.048
11630.926
10847.333
11640.673
11141.654
10854.632
10855.945
13075.296
12075.935
11351.186
12228.551
11736.257
11382.509
11466.695
13451.286
12447.765
12185.232
12668.158
12339.362
11958.652
11829.37
14181.626
13088.162
12572.328
13162.794
12878.5
12405.112
12270.267
13083.931
12593.211
12928.011
12968.774
12954.128
12757.99
12634.442
18188.888
13749.507
15482.682
16135.671
16090.494
15284.812
15805.104
15416.486
13549.381
14110.636
14240.493
14383.981
14333.627
14314.111
16207.607
14849.123
14570.014
14778.908
14944.497
14527.705
14667.561
15993.845
14470.327
14472.406
14712.62
14921.258
14843.206
14939.159
16313.982
15130.866
14876.493
15113.668
15317.893
15009.778
15270.211
16259.474
15649.545
15323.719
15717.529
15785.605
15849.897
15781.789
16294.639
14959.999
14800.699
15003.044
15404.989
15139.166
15199.429
15755.854
16197.758
15509.356
16497.7
16245.921
16410.93
16373.473
16255.764
17334.501
18115.221
17874.224
17949.79
17959.418
17910.088
17241.273
24146.062
23966.88
24499.16
23995.921
24291.581
24113.621
24146.405
13856.184
11125.878
9826.7028
9463.2963
9058.206
9375.5831
9757.1698
14356.432
15069.035
13900.969
13931.707
13830.173
14125.408
14579.876
14485.58
14455.661
14433.185
13942.098
13991.498
13299.119
13474.944
15098.497
15741.525
15861.539
15943.094
15300.936
15153.748
13986.967
15713.052
15452.107
15977.766
15184.029
15539.399
14614.381
14784.199
16112.212
16280.516
15630.205
15782.038
15225.082
15143.864
14818.75
16437.098
16317.744
16529.989
15944.667
16053.032
15670.524
15396.608
16895.725
17033.642
16332.067
16336.864
16068.528
15820.117
15884.709
17185.615
17140.24
16926.389
16502.94
16166.216
16268.508
16136.406
17378.957
17460.972
16934.19
16637.513
16737.615
16401.577
16510.684
17381.249
17595.089
17036.496
16907.557
16505.538
16589.133
16417.692
17147.43
17485.679
16973.719
16594.011
16548.794
16387.227
16354.013
16940.567
17322.443
16997.413
16758.981
16358.033
16526.399
15988.784
16819.622
16726.546
16666.162
16048.241
15954.319
15875.858
15565.076
16553.372
16351.634
16125.932
15794.048
15733.66
15417.887
15136.625
15975.51
15511.761
15522.621
15231.779
14968.655
14813.319
14426.452
15127.634
15183.003
14883.532
14503.235
14327.982
14136.909
14009.365
14425.067
14366.357
14118.971
13942.439
13615.222
13406.676
12949.44
13595.456
13607.777
13435.988
13105.494
12827.698
12529.652
12369.435
12724.553
12830.884
12593.868
12391.328
11964.091
11717.488
11517.285
11859.877
11969.571
11805.993
11495.097
11098.169
10879.833
10647.721
11026.008
11275.547
11019.109
10758.613
10372.549
9956.2942
9917.3979
10317.485
10403.8
10165.07
9928.0961
9342.4863
9171.4095
9168.4954
9729.8089
9716.9215
9523.576
9098.7112
8792.293
8658.2048
8645.6585
9155.7215
9091.9267
8637.9483
8483.3755
8206.1805
7886.0415
7968.7188
8801.878
8771.8746
8927.6972
8212.4362
7634.441
7576.5873
7816.7989
8892.4575
8536.1709
8015.1748
7836.037
7818.7063
7517.8451
7810.4122
9083.4649
8137.4049
7354.8667
7492.1563
7393.3618
7445.049
7550.7941
8756.6968
8031.6595
8246.4092
7555.8009
7493.1983
7606.2154
7527.998
9348.0158
8287.1154
7993.3401
7789.8205
7737.1441
7816.4754
7853.045
9796.4368
8385.0667
8410.9736
8183.1248
8007.6026
8178.4737
8205.4838
10363.308
8955.7003
8894.7778
8659.5207
8502.3501
8812.8302
8885.3945
11139.484
9483.8492
9413.923
9242.2596
9165.6637
9478.1571
9349.8467
11886.243
10112.525
10133.301
10024.92
9856.8307
9936.3596
10126.027
12727.157
10860.673
10822.448
10753.794
10375.652
10879.883
10841.714
13351.055
11383.604
11641.085
11390.154
11434.73
11558.702
11871.321
14469.724
12632.68
12405.987
12439.372
11874.668
12230.48
11905.729
14774.377
12274.816
12871.722
12554.601
12551.543
12775.274
12912.968
15644.46
13855.341
13965.563
13598.651
13379.976
13537.457
13310.773
15847.26
13277.445
14064.962
13585.181
13695.468
13738.299
13669.729
16178.437
14476.255
14615.755
14351.477
14127.792
14155.42
14060.029
16505.778
14054.078
14658.373
14130.041
14212.14
14266.407
14160.147
16228.971
14586.196
14789.735
14601.424
14649.003
14557.183
14202.714
15832.803
13961.252
14309.984
13977.776
13790.712
13732.039
13570.411
16219.314
14780.048
14816.587
14498.011
14631.8
14816.436
14357.439
13513.207
11970.08
11992.61
11820.403
11715.605
11663.73
11421.142
11904.85
10436.925
10446.234
10021.275
10088.501
9770.6602
10380.814
5948.8519
4675.4587
3843.5079
3588.8113
3278.8075
3538.5667
3519.6733
4799.2301
5050.5926
4588.3771
4474.5151
4564.7517
4281.4515
4736.1249
5724.2285
5136.7523
4986.5284
4861.9308
4635.5546
4462.0868
4708.9987
5192.0209
5710.1361
6392.4002
6490.9321
6258.3911
6417.9558
5334.3811
6124.9101
5966.9646
5770.084
4996.6318
5160.0794
4137.2398
5131.407
5811.7507
4650.6277
4709.6038
5308.6306
4879.7951
5017.9216
4822.6687
6794.1362
5734.4593
6512.9958
6019.7233
5906.7759
5891.7099
5735.6114
6842.3323
5289.3282
4967.7804
4415.7314
4431.8762
4420.4311
4450.0765
6787.9435
5373.0493
5945.4413
5803.6727
5916.7736
5954.7114
5870.667
7304.7296
5265.4207
5419.1179
4751.7271
4711.867
4881.9314
4963.8228
7236.8879
5231.2593
5709.3078
5209.1127
5320.0526
5310.9179
5432.9423
7817.7761
5059.7998
5707.2363
4979.6321
5392.4662
5207.2135
5772.8986
7676.3192
5158.533
5205.1908
5593.2047
5428.7673
5377.0167
5913.2704
6678.3047
5732.0363
5839.0231
5180.8978
5544.8364
5554.0828
5743.0611
6322.3816
5890.9977
5981.9415
5502.0861
5226.961
5529.2894
5729.1285
6292.5474
5908.3378
5930.34
5356.2565
5423.9583
5492.6559
5724.4538
6355.6687
5872.3933
5958.4943
5464.4043
5315.925
5531.8502
5828.4835
6210.9441
5751.8914
5856.2741
5361.7439
5371.4873
5482.3365
5685.8669
6153.3847
5761.6101
5841.9138
5378.0899
5365.0611
5351.8236
5817.6253
5987.9426
5601.2937
5708.5641
5301.3338
5320.3284
5352.1945
5718.1653
5920.4708
5660.8571
5765.654
5360.7947
5446.5773
5285.4496
5657.0615
5797.5777
5496.3284
5621.3443
5382.1022
5353.755
5224.3389
5616.4474
5767.7628
5488.179
5785.0576
5393.2421
5440.0621
5283.2662
5622.2095
5714.1739
5479.0269
5697.036
5418.5739
5542.4841
5144.14
5239.5191
5854.8534
5341.6699
5742.9099
5577.8469
5492.2909
5062.9793
5506.935
5813.1936
5154.717
5883.1713
5296.9519
5444.5442
5212.4222
5029.8242
6130.6132
5392.6449
5945.6493
5619.6089
5764.9104
5058.1765
5366.0692
6279.5738
5340.1384
5838.7293
5518.3733
5656.1302
4916.7719
5274.5487
6660.6047
5466.7908
6163.8124
5434.1961
5815.3692
4949.4616
5386.1791
7121.9814
5582.6207
5956.7804
5611.4907
5945.4801
4838.9022
5552.1335
7580.1618
5655.676
6277.7132
5784.5924
6055.1194
5099.518
5852.7637
8216.363
5979.22
6482.1133
5797.7388
6371.7393
5208.0614
6069.5282
8853.8182
6261.809
6662.0493
6188.5038
6622.9622
5412.0267
6452.3243
9466.0044
6594.1866
7126.1703
6509.4531
7052.7695
6035.2969
7042.2268
10205.219
7160.9837
7594.3562
7019.1892
7620.0512
6534.9891
7333.8373
10992.629
7831.2131
8259.0756
7620.7699
8266.9095
7196.7294
7926.2913
11473.886
8365.72
8721.3983
8368.0126
9000.8174
8017.5599
8634.0079
12499.597
9329.4345
9967.4499
9239.2374
10068.425
8897.9642
9161.1874
12629.631
10336.688
10241.465
10227.567
10638.63
9854.2669
9800.4305
13707.681
10788.048
11399.273
11040.704
11754.599
10845.784
10449.737
14045.436
12419.807
12293.89
12415.18
12569.506
11806.314
11010.271
14432.802
12063.177
12568.704
12481.571
12873.783
12601.12
11718.583
14943.662
13757.926
13818.964
13906.391
14025.5
13604.46
11938.736
15257.102
13734.957
13755.05
13833.812
13837.615
13616.477
12732.239
15803.114
14467.408
14385.089
14587.225
14409.597
14758.124
13011.881
14559.716
13539.011
13515.407
13825.565
13696.319
13764.008
13153.697
3507.2427
2016.8923
1939.6228
1780.5834
1988.6436
1901.8705
2125.8602
2585.0513
2034.1365
1483.736
1447.7597
1252.7065
1311.1148
907.41761
1162.74
2151.5088
2135.5337
2470.0155
2335.808
2298.9451
2283.6129
896.497
404.43492
-161.03161
-92.536012
-178.31279
-130.54257
-296.13477
955.08415
2859.3041
3835.682
4532.5208
4283.8684
4076.7334
2960.482
591.65453
428.61346
-697.9336
-1160.4755
-1420.6684
-1560.4494
-600.23834
591.24712
1726.5183
1791.0991
2772.0701
2865.4251
3179.517
2061.5785
717.92576
380.73262
20.903368
98.104047
-110.46912
-882.54187
356.51604
1553.8761
1199.3214
663.33482
1315.1307
675.28128
1431.0583
961.83331
1657.3636
1192.5577
1427.8857
849.36679
1799.603
903.68951
1690.4456
2122.6721
1945.5182
571.80651
1209.3414
631.14047
733.63717
818.40136
2662.9019
1748.6071
2421.8543
1914.9106
2731.2305
2219.2501
2513.7923
2857.9998
2944.545
1988.9321
1567.8034
2136.9031
1548.5902
2012.0001
3492.1739
2729.2542
2185.2838
2976.8235
3477.474
2676.9522
3341.6384
3485.3264
3964.5254
1708.9738
2725.4226
3149.1458
2907.4302
3208.1238
2702.9155
3621.1543
3788.2775
3234.3644
3914.2071
3145.1505
3689.895
3137.2353
3974.9302
4081.8147
3767.0187
4104.753
3844.6343
4109.4366
3558.4389
4220.2891
4674.3635
4211.8923
4727.0566
4167.8675
4532.704
4067.1893
4680.95
5059.9156
4649.9318
4982.1084
4676.362
4813.7751
4431.7945
4785.0217
5449.7129
4935.4843
5369.3969
4957.4126
5083.3068
4919.0347
5059.2093
5645.8447
5238.6641
5569.102
5200.5503
5307.7311
5293.4636
4970.1163
5867.4396
5399.7726
5589.1565
5311.1771
5255.2165
5517.5714
5056.0058
5943.3268
5297.2535
5628.2066
5357.7007
5306.1593
5666.5262
4934.4552
5808.6636
5294.6718
5505.0694
5222.6785
4805.7439
5929.9894
4755.1279
5690.3188
5090.431
5345.1003
5103.1297
4870.2488
5867.69
4613.721
5506.7505
4833.1661
4945.6462
4983.0177
4375.0539
5725.359
4586.777
5258.616
4671.3744
4943.6326
4791.1028
4264.0208
5430.775
4256.6833
4920.2968
4333.9953
4640.8132
4504.809
3849.1817
5522.3095
3671.8122
4793.4997
4098.5158
4310.1012
4487.5696
3542.2197
5459.0313
3577.6324
4444.8596
4082.4045
3949.869
4395.7357
3075.2263
5343.7153
3404.032
4172.0779
3890.6337
3835.525
4369.24
2728.7417
5432.127
3347.0734
4092.3177
3941.4889
3651.1671
4341.2888
2430.6936
5592.8209
3377.5775
3984.4887
3881.5701
3428.7696
4329.2793
2135.0598
5762.0972
3342.7549
3933.0499
3919.2098
3500.6032
4573.3044
2144.9754
6162.4982
3557.075
4055.2406
4031.2477
3560.1851
4469.7152
1989.6507
6556.3824
3830.3154
4106.2144
4167.571
3548.4196
4662.9103
2042.2308
6937.6447
3916.2052
4143.8336
4174.9519
3797.2227
4576.3878
2354.0688
7767.4031
4550.4107
4510.3365
4679.6118
3787.3094
5001.085
2458.9955
7618.3716
4646.5136
4643.2596
4430.0159
4165.2772
4795.5629
3016.4495
7981.5209
5442.9406
5040.0187
5103.3021
4426.3726
5360.1955
3497.1777
8052.4523
5723.773
5633.2451