/*--------------------------------*- C++ -*----------------------------------*\
  =========                 |
  \\      /  F ield         | OpenFOAM: The Open Source CFD Toolbox
   \\    /   O peration     | Website:  https://openfoam.org
    \\  /    A nd           | Version:  6
     \\/     M anipulation  |
\*---------------------------------------------------------------------------*/
FoamFile
{
    version     2.0;
    format      ascii;
    class       pointScalarField;
    location    "0.28";
    object      E;
}
// * * * * * * * * * * * * * * * * * * * * * * * * * * * * * * * * * * * * * //

dimensions      [1 -1 -2 0 0 0 0];

internalField   nonuniform List<scalar> 
3969
(
3954.8824
3227.4265
-425097.35
-208066.12
4952.6174
3414.218
-315335.83
-642164.99
2240.3109
1173.5588
643.79728
585.39969
942.50415
1843.0767
3216.2713
-230406.02
-227989.86
-229563.58
-232017.49
-234364.65
-236183.02
-177309.15
4375.0091
3803.4232
4202.7639
4469.9158
4717.8274
4898.0563
4955.0841
5068.1229
5011.4932
5061.2804
5010.6244
5042.8779
4973.7483
4978.1001
4919.6804
4888.2185
4853.8347
4770.5328
4688.6805
4559.4495
4404.1798
4223.5686
4012.5207
3767.5202
3579.0311
3352.2544
3125.3556
2970.1806
2805.7248
2686.5986
2614.9288
2591.1113
2601.8219
2628.2296
2831.8466
2826.5216
3123.4581
3194.1516
3574.2941
3620.2319
4111.5283
4221.2025
4574.4448
5033.001
5173.0312
5454.3415
6508.7424
4132.2262
3089.0903
4143.5047
3937.553
4306.5545
4144.1905
4153.3529
3933.7071
3757.0253
3492.6021
3206.4712
2906.539
2638.4769
2392.588
2206.7804
2065.8833
2014.4808
1962.079
2049.8501
2087.243
2258.3127
2444.3191
2566.4128
2833.9145
3055.2331
3379.4938
3514.3026
3737.778
3947.1934
4206.7711
4471.1099
4703.7487
4910.6801
5141.1781
5358.5674
5528.306
5773.2717
5863.6343
6163.0924
6231.7433
6488.9778
6707.9769
6661.0211
7009.979
7005.9942
7104.1579
7130.6325
2542.3105
1393.405
725.85506
749.85286
861.34015
1625.3045
2526.9177
4867.1485
4417.6866
3047.083
5138.5618
4385.9017
4785.4393
4618.4822
4456.2202
4281.7565
3911.7572
3736.2146
3647.4733
3345.9416
3093.9561
3015.888
2875.5816
2832.7199
2813.7521
2848.7338
2905.8426
3024.6631
3153.8124
3328.5493
3497.2219
3678.9523
3860.6589
3910.1277
4084.8221
4311.4542
4474.0771
4615.0203
4798.1142
4944.772
5093.8137
5251.2038
5335.1827
5937.2138
5517.7123
5735.0122
5828.7323
5870.7582
5992.3335
5928.202
6023.6229
5942.4459
6170.8359
5303.7766
-511536.39
-425645.57
-507090.35
-468045.52
-464166.74
-412214.85
-505060.98
5111.0105
5151.364
5625.561
5298.4781
5034.8805
4648.6398
4417.9095
4093.8752
3868.4411
3771.438
3681.7998
2633.6268
3123.0815
2866.8046
2760.6586
2717.7074
2640.5007
2655.0105
2672.8133
2732.9051
2792.7333
2918.0369
3059.2469
3205.1061
3355.4686
3499.5127
3655.2244
3806.0618
3948.4016
4084.0104
4230.2765
4334.4201
4482.3865
4669.969
4867.3083
4907.8446
5024.9272
5186.71
5075.9464
5233.3781
5450.4687
5088.1714
5265.9707
4847.6756
4437.5658
4031.7905
5595.6645
2954.3063
2877.8002
2814.9321
2853.6999
2874.8813
2924.0707
3194.5777
1921.6601
1971.499
2093.9693
2203.095
2134.7248
2332.7174
1906.2605
-235039.45
-235065.97
-235133.68
-235118.25
-235139.74
-235197.15
-235126.33
-479385.52
-479218.41
-479365.2
-479433.92
-479510.58
-479845.87
-480224.97
2870.989
2378.1095
2592.0773
2699.3666
2820.0871
2962.8434
2991.3012
3059.152
3043.2363
3064.2002
3031.9922
2988.2653
2948.317
2931.6973
2873.916
2851.9944
2846.488
2815.043
2817.3089
2823.2007
2837.4198
2854.4591
2889.8298
2925.4685
2983.3867
3062.531
3110.6458
3238.7309
3345.27
3488.8347
3640.602
3803.2576
3947.5228
4119.5549
4287.9101
4373.1673
4664.0648
4676.0741
4933.5713
5084.9777
5237.9444
5450.1746
5740.8879
5809.0226
6436.8937
6739.8374
7619.8105
1358.617
1101.4219
1261.8745
1211.251
1291.2931
1346.1347
1367.9673
1427.4107
1421.9762
1458.0527
1436.0027
1455.9754
1489.9146
1531.5907
1574.5589
1623.5055
1678.3275
1751.4569
1851.6098
1981.1573
2127.8982
2279.1985
2453.2709
2645.1491
2824.8911
3010.3114
3158.6982
3405.3155
3527.1599
3733.6385
3913.2993
4076.323
4253.9175
4435.115
4568.5023
4761.7331
4939.0476
4967.6709
5397.6437
5277.0923
5824.6547
5816.3774
6283.496
6385.906
6806.6823
6778.1072
7137.1108
639.47844
323.05027
444.0582
370.88735
404.57563
423.18779
468.78966
484.39597
530.41859
570.09565
609.7132
636.0369
661.46349
690.55345
755.2157
852.62428
959.34176
1099.334
1273.3638
1458.2567
1651.0196
1900.0579
2160.9627
2416.5596
2705.6905
2937.4653
3239.3729
3447.6265
3676.1923
3903.9125
4074.5835
4266.0666
4435.6397
4575.8985
4755.4292
4911.5163
5066.0183
5327.659
5531.0644
5711.285
6098.3895
6191.7655
6694.6369
6875.0048
7782.2369
7741.0639
7085.683
426.5866
102.87035
111.7571
61.660287
59.363269
73.552084
68.24593
89.868357
97.790378
122.73437
152.61131
205.70066
269.54947
315.82324
389.40883
517.28033
653.57046
846.01795
1038.6422
1262.7277
1486.8876
1765.7762
2060.7466
2333.7297
2504.2123
2760.7069
2950.2188
3181.9809
3409.8819
3644.7863
3865.6537
4133.23
4340.741
4619.2188
4853.5575
5093.2035
5375.9638
5633.209
5995.1467
6254.5584
6643.7554
6845.2194
7282.3302
7556.0822
7910.368
7631.1006
7616.4412
861.12827
513.11823
544.59279
457.45282
476.37267
476.82191
493.52247
516.85776
543.42
584.47143
653.49417
704.83998
782.05708
884.56006
1014.3384
1134.6017
1275.4054
1411.9801
1571.4217
1708.1003
1935.0378
2118.4292
2366.5909
2442.9884
2584.6263
2673.7302
2777.9445
2886.7695
2986.6365
3098.5644
3226.8512
3368.4048
3542.4482
3697.6856
3911.6901
4159.8636
4289.0118
4749.3386
5156.3392
5666.062
5864.4624
6232.5575
6502.5201
6882.8278
7066.7054
7876.9318
8769.8577
1805.7434
1467.6593
1543.5752
1533.9815
1602.1907
1595.7394
1631.7192
1617.2731
1623.9252
1631.0901
1665.2736
1688.0002
1728.2484
1753.2731
1805.2706
1847.0753
1902.8495
1966.7186
2037.4657
2093.3799
2132.7798
2279.3507
2200.689
2175.17
2208.8002
2240.1769
2248.5084
2358.0133
2449.8399
2598.5077
2740.2909
2948.7187
3139.2374
3410.9997
3672.5093
3933.8735
4349.6926
4513.4837
4954.8308
5652.5711
5936.0031
6366.0967
6629.3718
7042.8438
7256.8973
7537.9159
8353.3426
2654.3652
2440.8649
2623.4884
2723.9203
2821.0649
2854.8642
2826.8764
2778.3724
2729.2848
2635.86
2616.1322
2520.4978
2507.4759
2470.8142
2475.5138
2470.0823
2494.467
2512.6042
2538.5292
2570.8948
2659.8759
2665.7968
2755.4835
2752.9801
2976.874
3102.6243
3256.6306
3400.9852
3574.4936
3730.0291
3873.4656
4068.5999
4254.7425
4436.4406
4630.339
4867.721
4996.1995
5337.1797
5444.9264
5503.5666
5579.8286
5880.5687
6209.2597
6558.0036
6855.2078
7600.1219
7557.6577
1139.175
1139.0926
875.8988
886.39617
925.90986
1034.2487
1439.6608
653.18282
563.6435
460.7743
472.49354
496.24333
584.89851
822.56904
357.82224
235.21833
145.1553
153.99746
154.07429
215.7175
406.72549
344.75193
221.1677
170.95569
158.59384
191.354
271.32523
465.49104
430.96399
275.36773
206.95521
182.16924
210.87273
290.56101
478.12904
968.06494
661.13778
555.55944
504.5054
540.93222
666.56352
1005.8373
1490.3702
1378.6393
1136.0494
1106.1779
1106.773
1203.9799
1676.2713
4231.8472
3664.6084
3876.46
4142.2405
4046.4827
4397.114
4226.8678
4249.0551
4366.4798
3882.76
3748.3253
4205.7047
4200.4857
4461.5995
3926.4335
3936.8243
4176.2436
4090.8918
3967.8661
3985.8272
4371.618
4563.4088
4880.9347
4641.3752
4728.3693
4735.236
4884.3422
4408.2175
4505.3703
4535.3061
4744.3858
4688.758
4667.7769
4614.8801
4734.1275
4687.0471
4599.9013
4540.2875
4672.5035
4553.7824
4477.5157
4440.5306
4434.3273
4470.5435
4605.1074
4581.2746
4650.4291
4645.1877
4702.2869
4400.7478
4293.6892
4217.1655
4281.446
4180.0649
4180.8245
4218.1554
4085.3342
4067.4124
4187.1456
4091.8022
4161.0155
4131.9258
4331.0861
3919.6613
3764.8998
3696.4912
3845.2324
3670.7785
3690.8677
3817.3321
3618.1428
3527.8413
3560.3381
3448.7716
3539.9154
3525.9598
3549.5917
3348.8038
3238.8391
3146.5433
3237.8363
3166.5603
2986.6404
3383.4741
3074.159
2890.4103
2970.7372
2861.2447
2921.2176
2945.4562
3080.0534
2805.3411
2680.5857
2715.1084
2596.5828
2720.1195
2546.0547
2812.4585
2631.592
2481.83
2501.5215
2463.6883
2466.2889
2444.8571
2657.0377
2495.327
2306.4209
2423.1291
2260.4854
2376.7899
2295.6681
2519.2561
2392.4665
2277.3378
2312.2061
2216.7191
2288.684
2239.159
2422.8812
2396.3741
2204.4728
2339.0781
2173.672
2285.4754
2213.8849
2402.1927
2405.3828
2284.5033
2366.0944
2217.189
2301.9344
2260.05
2429.0783
2521.5714
2328.3261
2471.9048
2277.4099
2397.6947
2341.809
2504.1209
2633.7279
2485.7207
2582.8543
2414.5784
2518.2898
2475.9774
2607.3178
2823.7481
2623.0905
2767.1907
2561.7597
2661.1283
2608.9303
2747.2551
2987.8846
2833.2493
2932.202
2761.4844
2843.6949
2847.9381
2938.3779
3218.4882
3041.7694
3148.6414
2942.3921
3028.9104
3025.8517
3079.8621
3455.6734
3259.2871
3350.0989
3222.6854
3268.1291
3230.5142
3288.855
3672.6237
3504.8927
3563.6552
3435.7075
3531.3317
3423.0359
3591.5552
3991.507
3766.1801
3845.5175
3554.0003
3863.1581
3637.9569
3802.2864
4203.366
4002.9194
4005.9054
3871.6104
3947.3987
3805.6808
3955.1375
4377.9506
4224.2313
4287.3759
4063.5511
4192.694
4149.4149
4159.7527
4659.4957
4449.464
4552.255
4267.6449
4485.7635
4297.7358
4362.4259
4852.9301
4707.5835
4780.8476
4503.7029
4686.9985
4504.4141
4568.323
5089.7282
4926.1135
4992.8125
4701.9745
4928.5756
4722.5804
4790.3487
5283.1157
5130.4193
5224.1889
4945.234
5150.4984
4918.2227
4988.748
5470.9814
5349.0495
5431.1131
5129.3912
5347.8999
5123.2503
5177.9508
5662.1221
5559.6943
5619.365
5357.2369
5543.1014
5306.4922
5389.1555
5843.4525
5708.1766
5831.9826
5523.1048
5779.9957
5513.5736
5525.2489
5947.5016
5962.0482
5942.2304
5791.9672
5879.8411
5537.1737
5719.045
6041.0645
6061.3825
6116.709
5897.1511
6047.2435
5989.6711
5954.0769
6341.3749
6253.352
6354.3534
6123.9056
6305.2506
6052.8637
6095.0514
6550.3127
6382.9786
6544.1057
6280.5668
6456.7693
6187.1774
6281.8249
6646.8248
6494.0374
6699.1332
6405.4306
6631.4668
6343.5533
6448.6462
6816.2187
6716.4275
6815.0786
6644.5515
6758.4989
6516.1091
6581.2436
6859.367
6587.5209
6848.8113
6589.107
6799.74
6525.4788
6667.9075
6963.4674
6866.8928
6976.6636
6844.7466
6925.5219
6704.9439
6762.655
7069.5092
6850.9242
7032.0372
6830.7648
6996.7659
6766.9402
6861.0608
7162.4617
6968.2027
7146.2498
7047.0625
7122.2832
6977.7465
7019.8841
6622.1399
6529.1372
6588.3125
6489.8985
6512.7185
6414.807
6453.0022
-283252.89
-312051.29
-312161.42
-312207.84
-312231.97
-312240.58
-312010.13
-307408.02
-307108.92
-307184.74
-307258.81
-307242.46
-331439.46
-307371.73
-332159.46
-307966.33
-308020.92
-308043.21
-308072.73
-279293.13
-307882.99
-311133.94
-310894.23
-311170.7
-311155.47
-311214.24
-311045.26
-311213.98
-314558.62
-284701.46
-314419.81
-314428.07
-314282.16
-314379.29
-314298.87
-287416.07
-341716.28
-317187.07
-317122.91
-342540.39
-317100.17
-317148.6
-341521.03
-316638.65
-316703.44
-316798.29
-287054.92
-316809.55
-316728.6
4324.0435
3809.9897
3689.0383
3602.6097
3728.8615
3923.7359
3905.3415
4208.9268
3880.9105
3944.6
3963.8239
4003.0554
4053.2463
4268.3916
4701.7267
4797.6338
4726.3628
4680.6891
4868.0913
4740.9339
4810.9208
4785.6981
4864.7894
4919.0422
4987.2626
4937.1894
4892.9246
4949.9577
5126.2602
5155.7214
5217.144
5204.812
5257.5173
5060.6326
5090.6724
5052.4312
5151.4674
5192.5501
5209.5712
5208.3073
5153.1237
5146.2178
5291.8537
5224.8952
5275.9644
5139.7002
5279.3502
5255.7166
5234.9741
5155.629
5219.5883
5212.2603
5288.865
5182.2125
5156.6209
5197.5853
5305.7324
5173.5706
5202.0594
5142.0147
5227.3242
5091.2147
5206.2033
5221.5618
5154.6931
5173.8051
5128.3659
5121.9559
5093.9632
5101.6443
5186.4066
5091.9688
5137.7102
5023.107
5113.082
4989.2994
5050.8739
5088.5
5055.9644
4992.7389
5036.2913
4977.8687
5011.8496
5003.6389
5085.9871
4937.9373
4945.5349
4873.6717
4905.0903
4823.8239
4732.3516
4925.3554
4922.1706
4934.7201
4867.547
4858.5808
4781.4057
4856.5732
4877.9068
4776.979
4763.4241
4777.4603
4797.15
4755.9894
4583.6209
4877.6733
4777.0753
4739.831
4676.9853
4651.9827
4644.7631
4511.9514
4805.6617
4716.9036
4653.5128
4665.5851
4589.7589
4579.7324
4406.9329
4727.6868
4615.7172
4596.9022
4545.3656
4478.1671
4491.4229
4278.7794
4592.0717
4535.047
4459.2227
4447.6315
4360.1035
4378.1193
4132.6951
4464.0578
4407.7558
4318.3304
4334.6693
4203.8511
4255.1075
3994.0167
4290.9197
4269.4273
4163.7324
4176.9659
4022.3087
4104.8155
3816.3839
4109.3801
4102.3946
3968.1419
4006.3107
3836.5656
3941.9421
3633.5691
3881.8843
3900.8304
3761.7577
3828.1595
3627.115
3746.9278
3426.8229
3660.9879
3714.5318
3561.403
3634.4749
3440.4207
3565.6945
3244.8675
3446.5375
3520.7325
3330.6469
3465.3357
3217.4743
3376.3658
3020.8285
3233.1361
3330.0415
3144.3385
3272.7136
3025.6576
3183.3192
2867.2908
2989.6171
3177.1993
2975.215
3084.5025
2861.7841
3015.6234
2663.7834
2881.2309
2983.0963
2801.4027
2954.1537
2704.0675
2867.459
2544.6034
2711.379
2830.6065
2715.9894
2831.7905
2564.3317
2765.0061
2435.9878
2606.3598
2812.3935
2597.4285
2726.3311
2512.461
2687.0726
2370.9083
2589.0877
2683.6308
2555.5293
2709.522
2468.4232
2617.5759
2359.8545
2541.6588
2695.6763
2579.4257
2682.2706
2447.8747
2636.1738
2368.8857
2595.1703
2721.9277
2601.7407
2691.272
2512.0934
2642.4159
2466.7844
2678.3069
2761.5214
2681.2687
2795.185
2616.6212
2769.3174
2507.9234
2819.2211
2881.4763
2839.3918
2852.1814
2727.9186
2686.6628
2745.1793
2894.176
2972.8681
2936.8783
3034.719
2877.876
3116.2478
2861.3453
3233.82
3039.9064
3166.9438
2942.3237
3051.372
2909.1797
3131.7376
3404.5338
3437.1733
3358.7209
3484.9741
3195.6051
3369.3097
3362.6849
3612.9444
3687.9885
3735.1272
3649.263
3600.5323
3619.2981
3626.8549
3960.9426
3909.4218
3825.7182
3918.7658
3775.1417
3816.8986
3918.813
4229.6501
4165.7349
4307.39
4251.0875
4184.4511
4142.0742
4253.145
4550.3358
4619.4572
4525.4874
4532.6327
4422.3051
4394.0357
4577.3367
4970.4457
4746.7188
4829.7702
4853.6022
4861.7155
4840.6973
4973.6793
5215.4417
5263.316
5247.9963
5306.4459
5164.9699
5073.1237
5243.0838
5782.8974
5520.7036
5671.3521
5583.1912
5542.4189
5579.1382
5632.2547
5289.7731
5428.0923
5361.007
5380.7981
5389.7822
5251.1151
5373.7582
6569.0466
6095.639
6195.2632
6166.642
6064.76
6214.237
6113.4183
4664.8123
3467.6321
3335.4461
3509.0231
3701.0473
3793.9259
3812.119
3838.7147
3696.2165
3667.0531
3518.4322
3353.9908
3235.3481
3111.8148
2959.1512
3000.432
2946.146
2939.4563
3022.371
3101.2614
3232.0529
3397.509
3586.6893
3779.5582
4008.277
4221.9323
4524.6162
4692.2714
4919.4377
5130.5716
5314.8623
5484.7256
5609.9674
5739.1243
5785.0498
5955.0509
5981.042
6037.9074
5912.2711
5951.2586
5975.7708
5978.3401
6051.0744
6083.942
6387.342
6706.0346
8207.5173
2119.223
2205.6249
1725.7836
1832.9363
2007.53
1839.9197
2016.8879
2005.0718
1993.6501
2051.6232
1985.9057
1992.7443
1969.5024
1931.547
1934.1918
1988.4213
2016.3436
2072.4414
2200.8887
2299.0426
2438.4445
2591.3415
2719.2223
2874.3223
2992.393
3116.001
3128.7464
3333.8469
3435.475
3535.0539
3644.5444
3769.5649
3882.0447
4033.6142
4159.5816
4379.1687
4511.4381
4659.5216
4860.0718
5086.6545
5370.1882
5530.5031
5927.0802
5987.3171
6578.1043
6124.4473
7896.1728
915.46426
845.80576
586.49791
795.74651
651.53051
669.1922
744.32422
733.52102
819.48206
862.71977
912.50391
1047.1853
1159.7067
1493.5622
1671.8973
1835.0626
2017.0979
2191.6519
2373.5493
2537.7561
2699.1193
2840.095
2958.1029
3049.6789
3127.9999
3179.3118
3288.9248
3272.4321
3360.2689
3399.6089
3481.5574
3526.7751
3626.4886
3690.3271
3797.1243
3873.0895
3981.8869
4161.3688
4261.2277
4560.5291
4663.3855
5067.3295
5229.1613
5702.031
5968.7946
6471.1223
6644.3296
441.49168
333.61509
84.817812
338.28595
81.815677
251.1407
-30.200468
211.21232
175.2219
265.87145
433.00682
447.57267
683.71405
1135.0215
1294.3151
1455.5934
1588.6341
1722.0173
1844.6372
1954.6348
2034.8641
2112.0989
2144.6203
2232.9906
2255.2981
2351.8774
2330.6713
2386.8002
2429.0518
2518.2481
2599.7671
2726.6356
2890.7226
3014.0006
3246.9787
3436.3583
3713.5701
3958.3532
4344.6169
4555.6598
5130.9381
5340.4591
5970.7885
6280.205
7035.182
7241.4163
7359.9097
699.07592
248.35362
276.46555
246.48956
264.55276
311.68069
390.55076
572.29341
538.05955
806.67521
802.79822
1033.7926
1137.5731
1312.7175
1496.4712
1602.6727
1727.3331
1840.6592
1942.0402
2030.6245
2115.4117
2157.0945
2252.5862
2233.5443
2189.5712
2191.6958
2211.4198
2283.056
2370.6588
2458.9195
2582.4878
2749.3829
2906.4955
3107.872
3381.4678
3576.1483
3884.0707
4211.1996
4411.6771
4939.5768
5166.9325
5646.3357
6073.4068
6550.0687
6897.2803
7612.9519
8405.2419
1408.9141
1147.2442
809.87001
1231.14
893.89406
1191.8151
1161.221
1138.2228
1350.7455
1369.0559
1482.3879
1518.6782
1544.8603
1564.3201
1611.2464
1622.7815
1678.4497
1725.7963
1779.0643
1846.6674
1899.7202
1957.1138
2033.8587
2067.929
2031.0567
2306.1314
2368.1894
2516.6708
2669.0206
2839.7359
3062.0341
3263.3748
3523.0865
3776.6166
4091.7484
4315.2674
4724.9509
4922.9956
5450.7324
5674.8151
6109.9344
6505.9655
6915.3904
7298.9246
7687.1059
8484.5819
8205.4446
3582.9083
2195.1924
2806.3763
2301.8888
2841.1837
2653.2312
2719.9785
2727.192
2645.2449
2665.0082
2632.8871
2918.4611
2703.2492
2726.4546
2612.4366
2612.4957
2561.2368
2549.9982
2536.7912
2532.5536
2526.7887
2531.3723
2563.1997
2503.3655
2785.9732
2548.3674
2676.5789
2852.6446
2963.8762
3165.6286
3338.5392
3531.1211
3757.5399
3945.9196
4207.4982
4319.5425
4703.0129
4869.2482
5082.342
5299.9535
5602.5032
5874.9224
6199.6284
6594.0736
6971.7355
7621.9908
6893.2884
3190.8979
2643.9602
2537.9131
2500.3552
2548.6319
2601.1209
2812.6753
3092.998
3155.814
2934.985
2930.7861
2928.0891
3010.2028
3157.996
3070.2942
3288.1461
3279.9222
3252.7946
3260.7261
3295.9968
3338.1393
3244.1021
3367.1176
3412.5658
3455.7964
3424.0157
3413.5331
3343.8904
3287.2761
3432.2611
3528.2401
3513.943
3541.1811
3509.1069
3425.2979
3384.6377
3497.688
3540.1633
3637.7535
3582.8418
3586.2979
3564.7178
3405.6377
3480.3272
3556.512
3504.044
3537.5031
3528.8254
3483.9878
3400.4123
3487.6116
3503.5834
3585.5343
3573.7233
3534.0225
3548.1983
3382.7539
3433.8841
3438.3666
3458.1348
3417.1425
3472.2347
3455.5509
3301.1688
3343.965
3354.1564
3372.9512
3378.7735
3391.9171
3383.045
3228.5613
3246.0976
3250.6687
3259.476
3283.5566
3280.007
3307.6428
3140.1016
3114.7399
3144.5658
3137.0724
3139.7336
3144.3508
3184.7876
3064.6367
3042.8854
3023.9946
3034.6775
3050.4582
3062.6431
3046.463
2956.0539
2915.5368
2945.6425
2909.5908
2952.0081
2913.0372
2956.2202
2862.6653
2867.0001
2810.1108
2841.2631
2803.9055
2904.77
2840.5271
2797.3082
2791.0323
2756.9229
2784.621
2776.2296
2791.484
2759.1303
2744.038
2712.1578
2700.5584
2687.5449
2717.7789
2757.2508
2749.7503
2696.9725
2684.3672
2675.771
2670.7728
2694.2352
2763.5065
2696.8787
2715.2567
2678.3275
2684.1932
2667.4496
2720.8138
2769.4036
2720.3071
2745.4133
2708.7081
2721.7722
2718.7968
2749.5954
2818.3599
2774.7758
2822.4653
2747.6959
2804.2458
2767.947
2826.3235
2903.5307
2844.8235
2921.7906
2834.4146
2902.9472
2862.0403
2935.7462
2998.5974
2947.9085
3055.7804
2929.2515
3041.4927
2987.5267
3046.9843
3117.5848
3087.4955
3212.1713
3058.4018
3231.3986
3104.0224
3195.1126
3267.5479
3235.6285
3380.6267
3209.1468
3346.1216
3275.4346
3335.756
3399.4584
3399.4852
3494.4993
3356.686
3598.72
3422.1242
3510.7297
3602.1068
3559.1192
3734.1586
3560.8566
3721.7842
3642.6937
3678.0717
3818.0417
3780.2836
3908.6484
3782.2803
3906.7409
3856.2877
3892.0585
3973.6276
3994.9179
4078.6602
3904.98
4224.5003
3999.4529
4088.7128
4192.3868
4187.038
4265.9096
4203.6586
4360.5423
4191.4769
4333.0059
4380.3526
4396.756
4471.0046
4334.4087
4566.3433
4433.2299
4513.3223
4563.5638
4587.4759
4617.8964
4567.8099
4777.4143
4589.7456
4681.7472
4755.1709
4772.719
4795.6871
4755.3557
4910.7554
4783.5442
4896.034
4935.8
4956.7236
4949.247
4900.9627
5086.1638
4965.3863
5029.1344
5084.394
5076.6236
5060.3651
5089.0934
5223.3642
5095.6473
5198.1998
5177.566
5269.8452
5190.9264
5210.9718
5303.9689
5275.8404
5264.157
5388.2769
5260.5165
5278.3383
5339.3245
5487.3235
5335.8839
5482.5165
5415.7866
5602.2947
5427.9299
5449.713
5598.411
5623.2662
5550.1555
5682.3657
5577.8202
5478.9507
5573.0455
5670.4664
5553.5959
5712.8222
5636.6024
5711.6686
5690.3875
5695.7902
5735.3144
5779.0952
5733.5553
5800.3374
5757.1334
5677.7403
5733.5549
5872.0529
5794.6728
5882.1342
5860.9195
5893.6044
5962.1123
6006.3665
5994.0905
6019.8572
5985.7664
6026.9119
5981.4636
6118.4608
6029.4523
6121.5944
6144.0209
6179.6577
6152.8683
6086.5701
6085.4943
6141.5312
6229.8345
6291.4566
6148.3041
6128.3589
6179.9092
6660.4203
6560.3783
6691.5198
6628.943
6597.9057
6744.4461
6525.8618
6851.2754
7142.5616
7017.5555
7112.9706
7135.9493
7052.1464
7062.0537
8168.8513
7798.1806
8123.1028
8010.4363
8012.0623
8036.6606
8115.2452
1487.6529
1102.1219
973.10349
934.13978
945.18799
1010.0471
1192.7958
1596.8844
1674.0415
1550.7949
1579.3375
1602.1162
1664.0067
1773.1597
1604.7205
1645.7264
1676.0983
1634.8897
1685.7887
1622.29
1723.2745
1582.3557
1674.6134
1730.3538
1748.9147
1733.4047
1754.1081
1629.1785
1652.5723
1722.1692
1820.5597
1798.1837
1848.691
1757.594
1778.835
1664.6757
1720.1448
1728.4181
1742.5546
1719.337
1720.057
1676.8905
1694.2271
1755.3577
1795.7353
1802.0081
1812.6535
1779.7854
1728.8944
1734.5156
1790.3523
1757.8018
1797.8268
1773.0628
1758.5068
1744.2587
1745.1589
1761.7864
1762.499
1762.5821
1753.8737
1740.8455
1720.5949
1762.8118
1789.1823
1757.1314
1793.9985
1790.0842
1777.2653
1735.9278
1738.8885
1762.3539
1735.8248
1747.8712
1713.1977
1688.1279
1685.1673
1746.0521
1786.9833
1716.8305
1749.8627
1719.606
1722.9674
1663.2143
1729.3098
1726.4192
1737.2987
1741.2884
1709.558
1686.495
1623.1227
1738.6653
1710.968
1720.1987
1727.0044
1696.5667
1666.2883
1650.8965
1779.2444
1715.0685
1739.2661
1711.728
1723.5753
1652.2774
1605.7347
1810.3441
1719.0487
1753.4853
1750.4071
1738.7821
1673.4349
1622.2883
1844.9136
1791.4404
1794.3875
1815.5853
1759.3295
1731.317
1687.9046
1919.6355
1866.8525
1858.9586
1888.5366
1836.2906
1798.9178
1729.6118
2021.5563
1986.4053
1960.9963
1996.8887
1928.9147
1896.8117
1830.5254
2137.7362
2103.7721
2073.138
2120.0638
2035.9236
2018.9177
1953.8004
2268.2954
2254.3171
2218.4516
2261.8558
2159.6725
2176.4639
2080.674
2424.5837
2425.2641
2373.9031
2414.5899
2325.7044
2327.8599
2245.5153
2606.2562
2578.9815
2525.1039
2584.8658
2454.8168
2507.9451
2416.9575
2778.1683
2747.1641
2708.625
2721.7859
2642.055
2726.584
2604.1181
2955.0642
2931.7126
2846.8661
2892.1999
2825.8851
2866.6095
2766.0666
3156.0266
3082.4546
3100.4803
3097.2781
2992.3462
3092.4667
3017.3353
3305.0668
3349.7971
3172.7214
3246.4832
3225.6669
3233.9818
3160.6097
3524.6419
3440.3062
3371.3563
3403.6794
3346.8636
3427.8558
3329.9418
3657.4609
3608.7007
3621.7051
3559.2373
3548.9822
3619.9129
3492.1895
3869.9078
3811.0028
3709.9303
3733.0129
3724.1768
3761.2477
3658.1267
4031.784
3919.4216
3901.2062
3912.8216
3877.3406
3922.9524
3822.0422
4177.5752
4127.8159
4077.1843
4061.3811
4047.0449
4106.5175
3995.2014
4359.9835
4272.6917
4214.9829
4224.7744
4223.0468
4260.1269
4117.8746
4502.274
4424.8176
4404.1949
4387.3219
4375.1021
4385.3022
4292.7032
4649.765
4608.7288
4540.5729
4546.3683
4522.7832
4581.7076
4444.6951
4830.3555
4704.6644
4745.0253
4692.2082
4711.2732
4732.0548
4604.9019
4936.4019
4994.8343
4888.1438
4888.2912
4885.3956
4864.6346
4734.4834
5129.2816
5006.9577
5041.8114
5065.2239
5006.0097
5127.3929
4960.005
5346.244
5340.8205
5351.5504
5290.8352
5260.1646
5287.1483
5115.1766
5466.6003
5383.4513
5393.7324
5383.0505
5359.9329
5475.9806
5296.1743
5807.01
5784.4839
5809.5848
5792.3834
5773.4366
5755.597
5580.6891
5902.7076
5810.6067
5837.0852
5765.8614
5722.3391
5821.5317
5696.108
6211.1522
6242.9255
6257.8734
6289.6968
6318.6026
6336.3094
6117.707
6326.3491
6190.8634
6285.9473
6203.8045
6098.7455
6173.5962
6079.0697
6785.897
6839.6883
6828.3103
6757.1716
6813.5365
7074.0872
6871.6497
6652.2926
6175.694
6454.3149
6282.1542
6301.2273
6353.0387
6081.6247
7543.1804
7659.3432
7561.8957
7494.4475
7492.4131
7522.1311
7530.9322
649.00792
461.67923
373.59383
352.13765
345.12822
388.02224
481.24929
510.29868
521.79229
458.57045
469.85543
473.16377
497.12998
603.75811
600.30031
554.65482
517.50939
516.02165
518.70799
505.41755
582.50614
554.42474
596.75802
682.65951
719.83552
706.05753
724.75538
673.33919
622.04202
635.60897
635.99564
602.85636
619.70623
560.88439
640.82168
621.25461
566.80707
624.18414
686.80025
661.71424
661.27605
635.25031
681.84462
625.61303
708.72178
702.44993
706.0148
682.09256
674.56501
705.78899
631.55892
671.33878
643.563
652.52064
657.96693
638.54559
726.94972
659.52928
717.82825
722.56811
720.18075
729.0036
686.8293
781.91747
687.10239
742.5184
713.17102
687.39677
708.27307
697.47445
834.52123
722.56
770.83811
733.71611
734.28177
750.62151
725.99259
915.25543
744.95926
822.16791
789.47912
806.55249
802.82038
816.16537
975.00203
777.82987
867.28782
854.14243
844.68822
866.4785
879.08494
978.5475
958.22265
988.10464
921.13573
941.91274
999.25775
945.30671
1012.6475
1046.616
1068.3923
1042.2909
1012.2596
1093.5329
1069.3175
1101.3657
1179.124
1192.1913
1171.4467
1136.1885
1215.5849
1196.4267
1249.9636
1293.3504
1353.6206
1308.3684
1269.3909
1370.938
1328.2885
1396.0543
1456.7903
1516.5736
1454.0708
1428.2136
1546.4579
1476.7963
1585.3599
1635.9569
1704.9125
1642.6892
1627.2702
1727.9151
1666.3593
1769.805
1819.3544
1889.4698
1827.814
1810.7949
1925.6193
1851.8137
1972.6659
2037.3109
2114.7155
2041.3094
2047.1127
2141.3889
2061.6749
2183.761
2249.5186
2314.5632
2250.0415
2250.165
2350.1163
2258.6598
2380.891
2461.6992
2538.1248
2460.3058
2479.6267
2560.6022
2471.4523
2578.7678
2674.1465
2749.7713
2677.3548
2701.2181
2754.3747
2606.5236
2782.1054
2851.1061
2945.3923
2892.358
2910.7147
2924.3834
2834.2971
2924.2139
3021.5938
3156.4572
3049.042
3075.1974
3141.1326
2948.8056
3158.9022
3218.8989
3297.2388
3206.9803
3291.0947
3267.1615
3143.5234
3245.1594
3335.5288
3472.0974
3422.2817
3426.2382
3449.4805
3275.8269
3440.6869
3518.4345
3679.2763
3500.3008
3627.3525
3582.6221
3439.4862
3597.7394
3679.1607
3743.8405
3673.1439
3769.763
3701.4675
3586.7166
3736.4279
3785.2616
3926.5888
3830.7897
3917.335
3866.9276
3752.4741
3896.6565
3951.3258
4069.6993
3938.8689
4065.7503
3974.205
3869.1652
4052.2357
4070.3219
4175.4892
4084.5183
4198.8347
4079.6989
4035.0601
4183.5531
4198.5624
4325.3154
4212.5827
4335.6409
4240.4077
4191.4091
4372.4987
4335.831
4456.7226
4339.275
4493.0893
4343.5974
4313.2013
4494.3944
4493.6283
4602.3864
4480.7354
4646.2799
4463.3758
4509.2129
4704.9874
4628.4376
4730.4594
4644.1447
4782.8638
4610.7853
4659.8007
4920.2332
4768.4332
4980.3456
4788.1502
5016.2224
4773.0932
4852.5157
5031.6688
5044.8063
5080.3654
4971.7442
5137.6583
4930.9274
5034.8663
5416.7794
5155.7878
5379.5129
5209.646
5446.5211
5213.4423
5294.2673
5487.0683
5470.4426
5532.7096
5416.0044
5555.0205
5286.8095
5453.1324
5869.5035
5671.3529
5831.8995
5688.5043
5865.9223
5736.1613
5867.8608
6109.0169
6013.3744
6016.7878
5957.1918
6096.8424
5894.053
5974.7268
6455.3349
6317.0512
6425.7951
6337.9966
6391.029
6234.4442
6456.4964
6937.7451
6777.3025
6740.0461
6676.1307
6740.7636
6739.4967
6642.4788
7045.4861
7102.2917
7106.8673
7061.2387
7276.2627
7009.777
7073.7973
6722.5724
6502.3154
6460.0915
6351.1184
6528.6062
6265.2465
6500.7085
321.48826
222.38215
153.72985
144.24034
134.68541
161.91508
174.0893
126.87266
164.96536
162.76403
184.58538
171.40467
198.93529
231.4216
125.79569
85.759089
63.071515
72.980467
73.348736
72.922916
57.380145
125.8878
196.8172
268.7002
294.09319
284.2105
290.42544
245.63067
103.22868
105.05255
78.986123
68.359577
37.153181
58.638222
60.088367
152.36496
155.67512
180.50872
245.94786
261.54685
250.57062
229.95157
165.0719
146.60615
108.86956
134.17838
104.65571
100.28376
126.84998
261.67443
211.93635
200.42647
229.90029
233.85098
244.51746
226.08444
322.52041
256.99211
240.74175
224.34805
274.65199
238.4463
305.66802
414.94585
335.51873
291.46277
311.14463
349.02344
346.19066
331.65946
505.12991
398.48704
431.42126
396.30426
490.44152
447.99707
484.82043
632.13096
533.72748
516.26874
460.00217
560.05878
526.58288
562.71025
759.09228
619.92166
571.94598
610.37806
705.72196
625.30445
673.42417
888.78777
795.45845
587.65407
676.63463
759.25647
732.99052
710.37176
892.28193
896.96173
918.05368
815.53369
913.63345
843.9835
866.66183
1038.6306
1013.1143
1048.3576
972.61516
1036.6714
1009.4228
1012.2407
1198.4872
1188.1025
1198.3185
1128.9176
1196.2128
1157.6276
1167.7182
1373.3356
1348.7342
1353.4656
1289.4719
1346.0748
1316.1129
1327.8852
1542.6954
1511.1536
1521.4242
1454.549
1521.0279
1486.3633
1490.2091
1725.9065
1680.4314
1676.767
1616.0519
1672.6716
1633.3438
1646.5054
1918.7402
1826.9115
1846.8386
1790.5527
1828.8766
1808.1128
1805.8065
2095.1459
1989.9271
2005.15
1920.3237
1979.9764
1947.0417
1950.0972
2261.4318
2129.2734
2131.3627
2078.3557
2120.4004
2091.9862
2065.4249
2450.657
2257.3925
2275.7535
2202.7302
2244.3968
2231.1356
2258.7612
2576.7168
2399.9268
2418.1976
2310.3321
2337.2683
2376.2277
2348.9389
2727.6255
2544.3441
2545.4433
2438.0294
2500.6431
2484.7085
2486.5896
2815.7578
2672.509
2678.4716
2565.0214
2642.368
2616.1883
2608.2892
2998.8761
2761.4754
2839.2356
2695.3452
2781.0642
2750.2702
2736.7865
3142.4996
2945.9566
2968.5558
2849.9586
2895.9597
2877.7761
2859.8126
3279.4594
3085.2197
3094.2259
2997.3301
3068.3648
3056.8671
3002.4254
3437.696
3249.7274
3266.6828
3182.7654
3228.817
3198.3484
3143.6165
3621.9232
3444.1403
3435.3881
3356.6353
3359.6595
3361.3544
3293.6527
3775.9237
3599.6992
3595.6956
3524.5051
3557.0615
3595.9735
3495.5252
3999.3919
3819.0118
3805.3345
3749.9504
3753.0999
3751.1649
3648.0351
4175.1693
4017.5679
3993.7374
3948.8928
3928.7599
3978.7003
3864.4332
4405.7515
4239.1416
4193.8317
4170.5139
4161.9851
4173.9687
4089.5698
4662.1768
4496.7366
4439.6448
4472.6717
4347.0426
4486.4775
4308.8468
4815.5625
4709.5164
4673.4228
4614.4402
4610.8272
4665.0946
4575.4515
5151.9963
5108.7399
4947.0356
5069.2824
4917.7388
5059.7042
4907.189
5287.4862
5239.4869
5203.0346
5168.9649
5116.3394
5205.5842
5094.6267
5702.9639
5791.7499
5591.317
5711.0019
5556.8694
5737.7042
5601.3106
6068.1527
5924.7743
5882.1876
5831.2495
5794.0808
5924.5437
5794.7693
6396.7479
6463.378
6306.6634
6411.4634
6330.1346
6464.5135
6321.4083
6878.8653