/*--------------------------------*- C++ -*----------------------------------*\
  =========                 |
  \\      /  F ield         | OpenFOAM: The Open Source CFD Toolbox
   \\    /   O peration     | Website:  https://openfoam.org
    \\  /    A nd           | Version:  6
     \\/     M anipulation  |
\*---------------------------------------------------------------------------*/
FoamFile
{
    version     2.0;
    format      ascii;
    class       pointVectorField;
    location    "1.83";
    object      lm;
}
// * * * * * * * * * * * * * * * * * * * * * * * * * * * * * * * * * * * * * //

dimensions      [1 -2 -1 0 0 0 0];

internalField   nonuniform List<vector> 
28033
(
(0 0 0)
(0 0 0)
(1636.8117 62.315939 -27.296551)
(1610.4262 -250.10901 -35.381654)
(0 0 0)
(0 0 0)
(1622.4166 -240.61415 -38.34137)
(1649.1377 72.030044 -25.199719)
(0 0 0)
(0 0 0)
(0 0 0)
(0 0 0)
(0 0 0)
(0 0 0)
(0 0 0)
(0 0 0)
(0 0 0)
(0 0 0)
(0 0 0)
(0 0 0)
(0 0 0)
(0 0 0)
(0 0 0)
(1634.8816 41.949368 -28.038862)
(1632.8237 21.734679 -28.890808)
(1630.7735 1.8404945 -29.559316)
(1628.744 -17.879338 -30.132512)
(1626.7351 -37.242024 -30.637281)
(1624.8998 -56.339229 -30.915929)
(1623.158 -75.274218 -31.206808)
(1621.5699 -94.119531 -31.395699)
(1620.1469 -112.91853 -31.584111)
(1618.7725 -131.87833 -31.80765)
(1617.5611 -150.99473 -32.13762)
(1616.3263 -170.38681 -32.597786)
(1615.0947 -190.0205 -33.136012)
(1613.7572 -209.95445 -33.829571)
(1612.2284 -230.05885 -34.629232)
(2.9169757 2.6895829 2.9821599)
(4.2636928 5.2424742 3.2037521)
(6.5098707 6.9786832 2.6417977)
(9.1701859 9.3497898 1.5483739)
(12.138034 11.488656 0.37071405)
(15.28583 13.754789 -0.82623351)
(18.616642 15.92368 -1.8959769)
(21.939299 18.140943 -2.7288018)
(25.313017 20.081539 -3.2479711)
(28.480534 22.048953 -3.4459073)
(31.532723 23.703467 -3.2359328)
(34.224304 25.358015 -2.5600641)
(36.629429 26.747672 -1.5401421)
(38.557709 28.15561 -0.02634585)
(40.175889 29.481465 1.8076737)
(41.32058 30.93951 4.0550038)
(42.195874 32.524523 6.4621566)
(42.745747 34.408077 9.1633412)
(43.268383 36.738149 11.874799)
(43.855309 39.586959 14.624353)
(44.709871 43.05261 17.21149)
(46.181725 47.346834 19.558881)
(48.38997 52.365981 21.537938)
(51.726143 58.414445 23.095365)
(56.476119 65.340118 24.006091)
(62.921977 73.218763 24.283462)
(71.283221 81.994742 23.881253)
(81.820592 91.716389 22.699295)
(94.815233 102.12503 20.666396)
(110.31407 113.19828 17.989103)
(128.50226 124.8547 14.416766)
(149.37384 136.72132 10.218396)
(172.94875 148.88946 5.4288067)
(199.18571 160.79378 0.17933331)
(227.97941 172.61688 -5.6309065)
(259.09581 183.86583 -11.7094)
(292.35737 194.58334 -17.841106)
(327.57569 204.39201 -24.113698)
(364.3242 213.17766 -30.379601)
(402.44803 220.92225 -36.345543)
(441.53182 227.34561 -42.108777)
(481.28347 232.49916 -47.446401)
(521.41066 236.19717 -52.364224)
(561.56404 238.48448 -56.738387)
(601.41503 239.31868 -60.556767)
(640.70295 238.75265 -63.768379)
(679.1356 236.81269 -66.345276)
(716.49638 233.57873 -68.295029)
(752.546 229.13592 -69.604)
(787.11996 223.59858 -70.292726)
(820.04697 217.08549 -70.374001)
(851.21824 209.73601 -69.87812)
(880.53565 201.68887 -68.831848)
(907.94702 193.09644 -67.273421)
(933.42553 184.10576 -65.241976)
(956.97951 174.86836 -62.779212)
(978.64541 165.52746 -59.931877)
(998.49146 156.22868 -56.750763)
(1016.6096 147.09381 -53.283152)
(1033.1262 138.25556 -49.586262)
(1048.1713 129.81123 -45.715909)
(1061.9264 121.87391 -41.728622)
(1074.548 114.49285 -37.676443)
(1086.2529 107.77465 -33.635706)
(1097.219 101.73727 -29.635382)
(1107.6629 96.416851 -25.76914)
(1117.8068 91.835793 -22.047829)
(1127.8175 88.03891 -18.547581)
(1137.9599 84.88198 -15.282052)
(1148.3297 82.480069 -12.375384)
(1159.2062 80.684387 -9.8076887)
(1170.6403 79.484766 -7.5679846)
(1182.811 78.789208 -5.7210003)
(1195.8184 78.524142 -4.2744652)
(1209.7446 78.634471 -3.2437704)
(1224.6382 78.9818 -2.6008421)
(1240.5474 79.561256 -2.3749199)
(1257.4408 80.15981 -2.5076786)
(1275.345 80.848022 -3.0247626)
(1294.1526 81.402609 -3.854477)
(1313.8276 81.855288 -4.9749575)
(1334.2707 82.083242 -6.3676797)
(1355.3769 82.098924 -7.9752647)
(1377.006 81.852383 -9.7425945)
(1399.1009 81.254833 -11.651145)
(1421.3942 80.447736 -13.578624)
(1443.8717 79.251101 -15.538986)
(1466.3491 77.856201 -17.441605)
(1488.6553 76.242319 -19.253057)
(1510.8876 74.291105 -20.931685)
(1532.5984 72.496437 -22.437833)
(1554.1994 70.228847 -23.746329)
(1575.2228 68.267967 -24.854499)
(1595.9585 66.23546 -25.78103)
(1616.4504 64.253513 -26.499978)
(2.8481715 -4.1148105 -4.9862396)
(3.5148853 -6.6349483 -7.9154876)
(5.7984084 -8.5580103 -8.7677542)
(7.2505442 -10.531496 -10.766664)
(9.8297089 -12.289464 -11.172044)
(12.414182 -13.507775 -11.861019)
(15.592231 -15.164136 -11.704436)
(19.141572 -16.21273 -11.512335)
(22.864261 -17.463522 -10.841198)
(26.891805 -18.547546 -9.9981312)
(30.93335 -19.787786 -9.0047017)
(35.011454 -21.044554 -7.9624504)
(38.856728 -22.599573 -7.0541777)
(42.539927 -24.396228 -6.3088974)
(45.826588 -26.645745 -5.9648755)
(48.761327 -29.348132 -6.0392686)
(51.289082 -32.70273 -6.7408999)
(53.444106 -36.688004 -8.079408)
(55.27131 -41.479426 -10.181286)
(56.926214 -47.033477 -13.033218)
(58.599984 -53.509148 -16.638207)
(60.394184 -60.774517 -21.006919)
(62.735376 -68.99107 -25.997543)
(65.696078 -77.895412 -31.590518)
(69.690222 -87.712051 -37.654579)
(74.946172 -98.042092 -43.937645)
(81.877549 -109.06881 -50.469663)
(90.596955 -120.37183 -56.85108)
(101.54127 -132.08905 -63.191318)
(114.7335 -143.76182 -69.009725)
(130.59901 -155.51883 -74.396169)
(148.90609 -166.94709 -79.14387)
(170.01538 -178.02886 -83.104151)
(193.77773 -188.55002 -86.205157)
(220.18193 -198.36547 -88.360557)
(249.09293 -207.35101 -89.632663)
(280.3523 -215.32312 -89.752399)
(313.79796 -222.44373 -89.029901)
(349.02397 -228.28768 -87.365533)
(385.9217 -233.07989 -84.834401)
(424.07559 -236.67532 -81.512678)
(463.19445 -239.10526 -77.514914)
(502.92388 -240.38532 -72.936171)
(542.94821 -240.55196 -67.899248)
(582.92326 -239.66359 -62.523378)
(622.5479 -237.78416 -56.92869)
(661.52137 -235.00365 -51.236118)
(699.57537 -231.40537 -45.558825)
(736.46899 -227.09991 -40.004616)
(771.98619 -222.18591 -34.671994)
(805.95177 -216.78192 -29.648042)
(838.21422 -210.99722 -25.010362)
(868.66784 -204.95223 -20.82167)
(897.22785 -198.75776 -17.135376)
(923.85836 -192.53213 -13.987994)
(948.54237 -186.3819 -11.408454)
(971.30543 -180.41665 -9.4086495)
(992.19648 -174.73449 -7.9921073)
(1011.2966 -169.43125 -7.1503577)
(1028.7093 -164.58998 -6.8639431)
(1044.564 -160.28999 -7.1046627)
(1059.0095 -156.59424 -7.8366677)
(1072.2106 -153.55849 -9.014511)
(1084.347 -151.22638 -10.588203)
(1095.6141 -149.62972 -12.498279)
(1106.2025 -148.77094 -14.688016)
(1116.3066 -148.67956 -17.092756)
(1126.1593 -149.31017 -19.637903)
(1135.8741 -150.7185 -22.275349)
(1145.7734 -152.78545 -24.917295)
(1155.966 -155.46339 -27.495793)
(1166.5839 -158.80374 -29.965201)
(1177.7907 -162.60392 -32.281723)
(1189.7446 -166.90487 -34.362179)
(1202.5089 -171.56975 -36.184097)
(1216.1928 -176.54902 -37.71115)
(1230.8207 -181.74169 -38.922044)
(1246.4269 -187.07779 -39.812052)
(1263.0163 -192.47363 -40.373685)
(1280.5401 -197.84049 -40.628428)
(1298.9546 -203.12706 -40.594915)
(1318.1748 -208.24274 -40.319483)
(1338.1073 -213.14973 -39.830527)
(1358.6336 -217.78016 -39.193515)
(1379.6368 -222.11481 -38.447797)
(1400.9765 -226.10355 -37.665399)
(1422.5332 -229.75424 -36.88418)
(1444.1697 -233.03782 -36.172204)
(1465.7715 -235.98537 -35.557812)
(1487.2397 -238.59207 -35.090225)
(1508.4792 -240.91453 -34.781856)
(1529.4374 -242.97297 -34.646372)
(1550.0737 -244.83737 -34.682747)
(1570.4078 -246.59253 -34.85247)
(1590.4796 -248.29082 -35.12219)
(0 0 0)
(0 0 0)
(0 0 0)
(0 0 0)
(0 0 0)
(0 0 0)
(0 0 0)
(0 0 0)
(0 0 0)
(0 0 0)
(0 0 0)
(0 0 0)
(0 0 0)
(0 0 0)
(0 0 0)
(2.1138452 -1.0584097 2.0205518)
(2.2149313 -3.3603699 3.0460968)
(4.8236114 -5.8303082 1.3574246)
(7.3137924 -7.2658366 1.0704452)
(10.122874 -9.2571736 -0.54639893)
(13.239599 -11.069733 -1.4173773)
(16.793721 -13.014135 -2.3236502)
(20.043353 -14.416578 -3.1110866)
(23.764196 -16.26406 -3.4480001)
(27.026394 -17.401469 -3.5033428)
(30.348822 -18.921113 -3.2435529)
(33.280695 -19.958976 -2.3087014)
(35.84417 -21.034737 -1.2316597)
(38.080806 -22.156165 0.51900167)
(39.745388 -23.010108 2.4962561)
(41.132347 -24.453453 4.8957902)
(42.077946 -25.822266 7.5046501)
(42.843824 -27.528727 10.522587)
(43.328841 -29.872239 13.377766)
(44.149222 -32.586224 16.472819)
(45.048501 -36.073001 19.156743)
(46.486082 -40.27087 21.745065)
(49.102047 -45.423681 24.026852)
(52.453925 -51.323967 25.668358)
(57.551046 -58.397794 26.75399)
(64.236697 -66.043603 27.124373)
(72.630971 -74.605824 26.685723)
(83.942378 -84.382057 25.490031)
(96.838217 -94.190614 23.432109)
(113.13253 -105.50254 20.468039)
(131.60404 -116.77514 16.822811)
(152.89485 -128.47053 12.286107)
(176.90895 -140.42771 7.1569915)
(203.47314 -152.3331 1.4322142)
(232.6178 -164.23502 -4.7136233)
(263.81448 -175.16903 -11.151066)
(297.27216 -186.66534 -17.999274)
(332.5383 -196.76554 -24.653169)
(369.19186 -206.31639 -31.363926)
(407.14491 -214.91016 -37.829248)
(445.93572 -222.49715 -43.97685)
(485.29313 -228.98 -49.715103)
(524.90187 -234.30727 -54.944485)
(564.44088 -238.44434 -59.600241)
(603.63117 -241.36981 -63.628593)
(642.19747 -243.10299 -66.99789)
(679.89855 -243.66796 -69.681873)
(716.51015 -243.12077 -71.678955)
(751.84279 -241.52581 -72.990797)
(785.73179 -238.97399 -73.636389)
(818.04322 -235.55697 -73.638331)
(848.67161 -231.39143 -73.029865)
(877.54231 -226.58931 -71.849688)
(904.60903 -221.28164 -70.139076)
(929.85285 -215.58958 -67.947812)
(953.28613 -209.65131 -65.323879)
(974.9443 -203.58664 -62.324811)
(994.8919 -197.53027 -59.003696)
(1013.2163 -191.59561 -55.424345)
(1030.0282 -185.9031 -51.644566)
(1045.4578 -180.55355 -47.730099)
(1059.6547 -175.64592 -43.745283)
(1072.7817 -171.26445 -39.750308)
(1085.0141 -167.47793 -35.816214)
(1096.5349 -164.3502 -31.99515)
(1107.5336 -161.9217 -28.344491)
(1118.1927 -160.2576 -24.935408)
(1128.7359 -159.21383 -21.781981)
(1139.1345 -159.09601 -18.996768)
(1150.0662 -159.55842 -16.493733)
(1161.068 -160.81788 -14.394135)
(1172.6932 -162.67599 -12.723411)
(1184.8904 -165.19002 -11.421285)
(1197.8099 -168.20784 -10.557407)
(1211.522 -171.71891 -10.086866)
(1226.082 -175.6099 -10.010234)
(1241.518 -179.80934 -10.31152)
(1257.8417 -184.22811 -10.956524)
(1275.0318 -188.78301 -11.918039)
(1293.054 -193.38306 -13.159337)
(1311.8444 -197.95998 -14.638338)
(1331.3332 -202.43153 -16.311811)
(1351.4203 -206.74455 -18.134781)
(1372.013 -210.838 -20.056903)
(1392.9872 -214.6794 -22.035853)
(1414.2435 -218.23139 -24.021611)
(1435.651 -221.48989 -25.973597)
(1457.1162 -224.4361 -27.853359)
(1478.5236 -227.09928 -29.625957)
(1499.7985 -229.4768 -31.267056)
(1520.858 -231.62572 -32.76042)
(1541.6694 -233.56144 -34.096662)
(1562.1751 -235.36265 -35.283174)
(1582.4634 -237.08412 -36.350596)
(1602.4276 -238.74572 -37.335129)
(1624.3125 -220.60127 -37.816754)
(1625.8273 -200.42708 -37.283399)
(1627.3096 -180.42546 -36.722613)
(1628.5262 -160.67019 -36.030315)
(1629.8797 -141.13553 -35.220856)
(1631.0956 -121.86457 -34.361498)
(1632.5432 -102.74601 -33.348836)
(1634.0049 -83.730492 -32.36458)
(1635.5574 -64.781847 -31.264732)
(1637.4048 -45.800861 -30.252048)
(1639.2371 -26.618191 -29.255442)
(1641.195 -7.3103046 -28.279457)
(1643.2274 12.253524 -27.48871)
(1645.211 32.122439 -26.641984)
(1647.2305 52.0073 -26.001313)
(1629.0898 73.91079 -24.441684)
(1608.8811 75.949294 -23.595157)
(1588.4306 77.904152 -22.9094)
(1567.8011 79.898038 -22.217932)
(1546.7418 81.801557 -21.68017)
(1525.3758 83.596724 -21.33198)
(1503.7729 85.181435 -21.049797)
(1481.9076 86.555864 -20.956102)
(1459.9445 87.647816 -20.946635)
(1437.9471 88.438749 -21.02917)
(1416.0485 88.891907 -21.144354)
(1394.3665 89.027123 -21.287617)
(1373.032 88.796204 -21.373245)
(1352.1826 88.26852 -21.404985)
(1331.892 87.439296 -21.309778)
(1312.3201 86.34547 -21.079931)
(1293.5501 85.039175 -20.642072)
(1275.6565 83.582721 -20.00734)
(1258.6794 82.039476 -19.151462)
(1242.6563 80.494974 -18.077819)
(1227.5767 79.014488 -16.784903)
(1213.4161 77.712611 -15.300564)
(1200.1229 76.632923 -13.63286)
(1187.582 75.945125 -11.871139)
(1175.7671 75.601407 -9.9217712)
(1164.4287 75.815516 -8.0270457)
(1153.4833 76.691647 -6.0813656)
(1142.7145 78.126219 -4.1943106)
(1132.1016 80.216514 -2.4020375)
(1121.2206 83.132098 -0.82090247)
(1110.0098 86.7527 0.60457193)
(1098.2144 91.199651 1.7145059)
(1085.6575 96.411831 2.533078)
(1072.127 102.39091 2.9812512)
(1057.443 109.09911 3.0361995)
(1041.4259 116.48415 2.6625638)
(1023.9184 124.4787 1.8308167)
(1004.7779 133.00487 0.52485503)
(983.88998 141.96426 -1.2695267)
(961.158 151.25374 -3.5566765)
(936.52154 160.75185 -6.3323667)
(909.94109 170.33591 -9.5839763)
(881.41837 179.86745 -13.289219)
(850.97879 189.21156 -17.416055)
(818.69228 198.22126 -21.922516)
(784.6529 206.75731 -26.755562)
(749.00408 214.67175 -31.853054)
(711.90358 221.83571 -37.144254)
(673.57598 228.10361 -42.543288)
(634.22604 233.35945 -47.957417)
(594.16095 237.52323 -53.330224)
(553.62765 240.38735 -58.439969)
(512.97427 242.07796 -63.400707)
(472.53919 242.2847 -67.828733)
(432.59264 241.19061 -71.844223)
(393.58109 238.60743 -75.266408)
(355.73246 234.8633 -78.031025)
(319.43014 229.21029 -79.83381)
(285.18857 222.78112 -81.169941)
(252.66912 215.19564 -81.500311)
(222.56681 206.21147 -80.749946)
(195.50337 196.30506 -79.340789)
(170.44583 186.04885 -77.005305)
(148.60591 174.74027 -73.837547)
(129.13853 163.06618 -69.833034)
(112.94394 151.16004 -65.383219)
(98.734258 139.46696 -60.148774)
(87.61179 127.46329 -54.724672)
(78.368398 116.14301 -48.975527)
(71.281334 104.96297 -43.117574)
(65.876994 94.424282 -37.345905)
(61.773399 84.778019 -31.895579)
(58.951343 75.634055 -26.597891)
(56.92293 67.323293 -21.926818)
(55.28573 60.129465 -18.031935)
(53.902786 53.491895 -14.435971)
(52.711327 47.901308 -11.914433)
(51.043009 42.950445 -9.8855102)
(49.386878 38.780919 -8.7397488)
(47.036252 35.364218 -8.2088193)
(44.458097 32.23945 -8.1455903)
(41.384487 29.879999 -8.7597747)
(38.031293 27.707186 -9.5671307)
(34.265549 26.016606 -10.7118)
(30.416528 24.318653 -11.811787)
(26.503483 22.886471 -12.917825)
(22.723098 21.345455 -13.885035)
(18.948091 20.06818 -14.57136)
(15.733657 18.473917 -14.808334)
(12.625542 16.800214 -14.627817)
(10.312004 14.847382 -14.005715)
(7.9206955 13.209523 -12.8297)
(6.7803655 10.782787 -11.005312)
(5.1661449 8.5699896 -8.3481323)
(5.7501344 5.4338447 -4.4944086)
(0 0 0)
(0 0 0)
(0 0 0)
(0 0 0)
(0 0 0)
(0 0 0)
(0 0 0)
(0 0 0)
(0 0 0)
(0 0 0)
(0 0 0)
(0 0 0)
(0 0 0)
(0 0 0)
(0 0 0)
(0 0 0)
(0 0 0)
(0 0 0)
(0 0 0)
(0 0 0)
(0 0 0)
(0 0 0)
(0 0 0)
(0 0 0)
(0 0 0)
(0 0 0)
(0 0 0)
(0 0 0)
(0 0 0)
(0 0 0)
(1611.106 -249.96411 -35.443312)
(1611.8042 -249.76827 -35.602199)
(1612.5123 -249.52117 -35.778775)
(1613.2394 -249.23587 -36.018735)
(1614.0217 -248.88478 -36.272216)
(1614.7934 -248.467 -36.511415)
(1615.5899 -247.99198 -36.761089)
(1616.3891 -247.44659 -36.99798)
(1617.1821 -246.83235 -37.243317)
(1617.9704 -246.14817 -37.459783)
(1618.7443 -245.38329 -37.696728)
(1619.512 -244.55075 -37.900415)
(1620.2516 -243.6226 -38.089223)
(1620.9926 -242.66328 -38.226147)
(1621.7048 -241.62988 -38.333744)
(1637.6719 62.98448 -27.30962)
(1638.4073 63.7574 -27.216854)
(1639.139 64.481382 -27.029181)
(1639.8422 65.169827 -26.80043)
(1640.5678 65.798412 -26.574699)
(1641.2753 66.390227 -26.347872)
(1641.9936 66.939633 -26.145337)
(1642.7197 67.476392 -25.954108)
(1643.4625 67.995886 -25.788819)
(1644.2199 68.515254 -25.640388)
(1645.0007 69.044744 -25.5013)
(1645.803 69.571755 -25.395786)
(1646.6227 70.124357 -25.279)
(1647.4616 70.691156 -25.222746)
(1648.3433 71.302035 -25.194356)
(1.7565416 2.008434 2.6715223)
(3.2851523 3.9022225 2.4596407)
(5.779 5.2485679 1.7754238)
(8.1124092 7.1400987 0.93866313)
(11.25502 9.0181258 -0.29067099)
(14.2527 10.967067 -1.3111655)
(17.703745 13.076109 -2.3141063)
(20.968115 14.999871 -2.9818048)
(24.496773 17.096868 -3.4866903)
(27.672428 18.926974 -3.5920597)
(30.819001 20.888213 -3.3273378)
(33.552504 22.557203 -2.7357417)
(35.994296 24.359331 -1.711367)
(37.972851 25.930761 -0.36736505)
(39.552509 27.678259 1.3337187)
(40.647118 29.313975 3.278462)
(41.395504 31.179717 5.4686871)
(41.892318 33.18037 7.744353)
(42.210487 35.48999 10.112221)
(42.563428 38.110801 12.3734)
(43.185137 41.240795 14.501684)
(44.325338 44.825594 16.360974)
(46.235094 49.065494 17.850235)
(49.256169 53.900721 18.896242)
(53.660164 59.422812 19.382388)
(59.765829 65.617265 19.269738)
(67.803451 72.602889 18.476787)
(78.065334 80.112684 17.04262)
(90.809556 88.276544 14.869715)
(106.07505 97.046575 12.007808)
(124.10102 106.1022 8.5255296)
(144.91547 115.55648 4.4298695)
(168.45048 125.13647 -0.15182203)
(194.67607 134.77051 -5.1859769)
(223.50833 144.22517 -10.603241)
(254.80951 153.42102 -16.183822)
(288.26984 162.22391 -21.869285)
(323.66232 170.3079 -27.589904)
(360.80946 177.76684 -33.20805)
(399.24346 184.36626 -38.585479)
(438.74428 189.96412 -43.673908)
(478.88322 194.48178 -48.420422)
(519.4904 197.981 -52.705193)
(560.08532 200.25734 -56.490628)
(600.39253 201.40872 -59.759896)
(640.12502 201.39006 -62.440071)
(679.00191 200.23273 -64.558571)
(716.78189 197.99551 -66.083451)
(753.23292 194.73486 -67.033658)
(788.17375 190.54086 -67.418387)
(821.43728 185.50505 -67.260316)
(852.90416 179.73791 -66.585331)
(882.4761 173.3509 -65.423796)
(910.0974 166.46811 -63.813575)
(935.73981 159.20718 -61.789925)
(959.40991 151.69461 -59.395703)
(981.14428 144.04659 -56.674732)
(1001.0116 136.37952 -53.671698)
(1019.1054 128.79908 -50.433255)
(1035.551 121.40773 -47.011215)
(1050.4854 114.28879 -43.454954)
(1064.0882 107.52888 -39.810891)
(1076.5248 101.17649 -36.140761)
(1088.0081 95.31001 -32.48395)
(1098.7345 89.957285 -28.910693)
(1108.8939 85.090444 -25.424699)
(1118.7218 80.840394 -22.130897)
(1128.4586 77.110143 -19.071749)
(1138.2832 73.952565 -16.186475)
(1148.3806 71.331677 -13.663153)
(1158.9182 69.176063 -11.39511)
(1170.0398 67.473678 -9.4549682)
(1181.9303 66.153897 -7.8635354)
(1194.6683 65.174012 -6.6428906)
(1208.3501 64.489682 -5.7660363)
(1223.0287 64.004044 -5.2558843)
(1238.7431 63.673698 -5.0911665)
(1255.4947 63.426409 -5.2591012)
(1273.2586 63.214101 -5.7451242)
(1291.9857 62.959562 -6.513695)
(1311.6076 62.631457 -7.5384024)
(1332.0253 62.18335 -8.8108865)
(1353.1354 61.611654 -10.243681)
(1374.7685 60.82605 -11.811432)
(1396.9122 59.886913 -13.483561)
(1419.2148 58.756661 -15.186398)
(1441.7918 57.486786 -16.928111)
(1464.2944 56.056181 -18.623344)
(1486.7017 54.484136 -20.225471)
(1508.9633 52.833491 -21.772148)
(1530.7466 51.089599 -23.110432)
(1552.4012 49.281411 -24.373073)
(1573.3791 47.515259 -25.418117)
(1594.1811 45.671837 -26.396995)
(1614.5426 43.818833 -27.232632)
(1.3688795 0.99975288 1.8914074)
(2.7630312 2.3939532 1.5082408)
(4.8314247 2.9337358 1.1598972)
(7.5463981 5.1951334 0.0021047997)
(10.337726 6.4098114 -0.92731155)
(13.559751 8.4980227 -1.9401488)
(16.767652 10.192333 -2.7361261)
(20.307387 12.238011 -3.4294822)
(23.630208 14.067714 -3.8267317)
(26.947214 16.061507 -3.8418426)
(30.048976 17.837504 -3.6734644)
(32.823714 19.692842 -3.0010641)
(35.256819 21.381251 -2.1570637)
(37.250097 23.090679 -0.86182155)
(38.796384 24.710436 0.56137819)
(39.847557 26.358741 2.3678118)
(40.607797 28.054174 4.14804)
(40.952514 29.833635 6.1736839)
(41.185262 31.778835 8.0657095)
(41.426685 33.976642 9.955694)
(41.917402 36.427333 11.598075)
(42.866275 39.294471 13.018798)
(44.635277 42.529864 14.021142)
(47.433958 46.303732 14.6329)
(51.652927 50.522629 14.709385)
(57.537002 55.379142 14.217408)
(65.390386 60.701336 13.14301)
(75.464913 66.610125 11.461149)
(87.98079 73.038432 9.1094946)
(103.11992 79.902274 6.2220612)
(120.9872 87.175963 2.7370212)
(141.66077 94.763051 -1.2393189)
(165.10916 102.57407 -5.6447458)
(191.31825 110.42 -10.40827)
(220.18697 118.25096 -15.38846)
(251.50398 125.95827 -20.580045)
(285.05926 133.31234 -25.763499)
(320.65129 140.25941 -30.93679)
(357.91544 146.67538 -35.967419)
(396.55413 152.43585 -40.766259)
(436.28808 157.4116 -45.255725)
(476.75041 161.59177 -49.417901)
(517.58887 164.83275 -53.073321)
(558.4905 167.13633 -56.282263)
(599.11628 168.49696 -58.993085)
(639.18287 168.86998 -61.172958)
(678.39009 168.28103 -62.819365)
(716.48914 166.76764 -63.923677)
(753.25268 164.37015 -64.510689)
(788.48347 161.16192 -64.584856)
(822.01853 157.21049 -64.179009)
(853.72773 152.60952 -63.314938)
(883.51494 147.44637 -62.028894)
(911.31805 141.82431 -60.354348)
(937.10963 135.84015 -58.328492)
(960.89262 129.5996 -55.99285)
(982.70615 123.19587 -53.386595)
(1002.6157 116.73125 -50.552867)
(1020.7188 110.28772 -47.536042)
(1037.136 103.95481 -44.378966)
(1052.016 97.800597 -41.12898)
(1065.5284 91.899691 -37.827252)
(1077.8506 86.287662 -34.523178)
(1089.1873 81.050393 -31.262956)
(1099.7652 76.158291 -28.080379)
(1109.7365 71.661749 -25.011869)
(1119.502 67.674808 -22.217682)
(1128.9767 64.115831 -19.484025)
(1138.5363 60.92155 -16.991866)
(1148.3828 58.087402 -14.763971)
(1158.6904 55.690116 -12.830231)
(1169.6228 53.610327 -11.17691)
(1181.2935 51.860398 -9.8527616)
(1193.8174 50.372251 -8.8128721)
(1207.3011 49.126262 -8.107936)
(1221.802 48.025696 -7.6999766)
(1237.3596 47.10616 -7.6070557)
(1253.9675 46.226892 -7.789636)
(1271.6163 45.425032 -8.2513668)
(1290.2512 44.599598 -8.9555121)
(1309.7858 43.754842 -9.880332)
(1330.1603 42.856621 -11.007199)
(1351.2171 41.840443 -12.262816)
(1372.856 40.780981 -13.719855)
(1394.9451 39.569378 -15.188149)
(1417.2928 38.304643 -16.744357)
(1439.812 36.876622 -18.287617)
(1462.3855 35.394426 -19.786094)
(1484.7425 33.82772 -21.279872)
(1507.0681 32.139997 -22.612243)
(1528.8267 30.537157 -23.926508)
(1550.4891 28.72719 -25.052328)
(1571.5067 27.023402 -26.122603)
(1592.2854 25.273475 -27.112176)
(1612.6674 23.444375 -27.956125)
(0.82100233 0.95171283 1.4584848)
(1.6878692 1.3883489 1.2674677)
(4.4245558 2.3225007 0.43176982)
(6.6834668 3.6389194 -0.56484457)
(9.6665589 4.9748079 -1.5319604)
(12.594609 6.5514893 -2.4101919)
(16.088255 8.3026611 -3.2854369)
(19.299109 9.9383484 -3.8373658)
(22.778942 11.880584 -4.10875)
(26.036872 13.470694 -4.1977753)
(29.156912 15.364597 -3.8619447)
(31.913515 16.894579 -3.329481)
(34.391277 18.637746 -2.4209373)
(36.354243 20.054537 -1.332917)
(37.886783 21.629304 0.074878673)
(39.000393 23.002838 1.5224733)
(39.655288 24.473597 3.1870283)
(40.006488 25.891077 4.8057663)
(40.212821 27.457327 6.4084552)
(40.385041 29.095228 7.8549088)
(40.771286 30.955676 9.1252278)
(41.673347 33.044269 10.046824)
(43.298118 35.44073 10.653714)
(46.006133 38.178672 10.797255)
(50.068803 41.323481 10.460635)
(55.818146 44.887408 9.5929595)
(63.520349 48.894823 8.1941194)
(73.438639 53.380151 6.2034998)
(85.821477 58.262809 3.7037337)
(100.80802 63.602347 0.66566701)
(118.5612 69.260841 -2.8389799)
(139.1256 75.268866 -6.7631537)
(162.49795 81.438669 -11.023177)
(188.67609 87.791548 -15.537038)
(217.47305 94.172929 -20.260583)
(248.79634 100.45408 -25.038325)
(282.36012 106.59411 -29.798185)
(317.94367 112.38086 -34.465874)
(355.33441 117.82314 -38.9767)
(394.14907 122.72598 -43.224297)
(434.05301 127.08793 -47.148645)
(474.71946 130.74795 -50.703012)
(515.79366 133.7397 -53.801409)
(556.94645 135.90961 -56.437455)
(597.85094 137.30781 -58.622112)
(638.18413 137.89511 -60.292608)
(677.66749 137.67208 -61.470839)
(716.03774 136.67135 -62.160234)
(753.06584 134.91706 -62.374486)
(788.54658 132.4657 -62.134068)
(822.31661 129.37051 -61.467621)
(854.23963 125.70726 -60.402578)
(884.21775 121.54313 -58.9739)
(912.18691 116.96689 -57.216207)
(938.11622 112.05384 -55.166685)
(962.01077 106.89259 -52.863969)
(983.90577 101.5605 -50.345898)
(1003.8702 96.140019 -47.653821)
(1021.9975 90.699662 -44.826209)
(1038.4158 85.315238 -41.903269)
(1053.2704 80.04028 -38.928714)
(1066.7302 74.933442 -35.93055)
(1078.9781 70.039638 -32.970818)
(1090.2312 65.402986 -30.054591)
(1100.6805 61.030235 -27.243591)
(1110.5318 56.989206 -24.565034)
(1120.0626 53.204763 -22.052968)
(1129.4459 49.738441 -19.601766)
(1138.8568 46.668646 -17.606646)
(1148.5452 43.892789 -15.738261)
(1158.733 41.374876 -14.143128)
(1169.4395 39.139588 -12.802638)
(1180.9323 37.128766 -11.707997)
(1193.2985 35.319291 -10.921044)
(1206.6461 33.700135 -10.397252)
(1220.9937 32.231718 -10.135365)
(1236.4222 30.852055 -10.135409)
(1252.9059 29.551348 -10.368429)
(1270.4351 28.29196 -10.834376)
(1288.9613 27.041956 -11.501629)
(1308.409 25.778736 -12.340312)
(1328.6775 24.485571 -13.35964)
(1349.6774 23.15203 -14.460038)
(1371.2158 21.738995 -15.730046)
(1393.288 20.282796 -16.953095)
(1415.5719 18.729039 -18.331245)
(1438.1194 17.185131 -19.653468)
(1460.5976 15.557057 -21.033231)
(1483.0005 13.894026 -22.281663)
(1505.2775 12.2238 -23.568406)
(1527.0399 10.513655 -24.687133)
(1548.7443 8.7553259 -25.800989)
(1569.711 7.0286495 -26.778938)
(1590.5009 5.2925641 -27.74756)
(1610.8297 3.4525345 -28.599536)
(0.612831 0.24354782 0.94002039)
(1.7957802 0.83864024 0.14042466)
(3.9140355 1.2214288 -0.43263514)
(6.198939 2.4573159 -1.35333)
(8.9214056 3.4312413 -2.2159938)
(12.193867 4.9750052 -3.1756758)
(15.275117 6.2700389 -3.8695394)
(18.743559 7.9857097 -4.309867)
(22.131012 9.4292708 -4.6862398)
(25.407136 11.091914 -4.5537105)
(28.48123 12.578409 -4.3758667)
(31.326598 14.096899 -3.7186789)
(33.746683 15.468273 -3.0108967)
(35.72681 16.76553 -1.8684012)
(37.336913 18.006949 -0.8041217)
(38.376909 19.097717 0.61285028)
(39.084081 20.183358 1.9006572)
(39.449778 21.199456 3.2827918)
(39.636897 22.236841 4.4783201)
(39.774556 23.309411 5.6050265)
(40.189199 24.488005 6.3787608)
(40.999412 25.826059 6.9393102)
(42.599727 27.34368 7.0617055)
(45.21729 29.163116 6.796323)
(49.219301 31.237363 6.0417275)
(54.858583 33.698187 4.8297783)
(62.456467 36.499089 3.0827774)
(72.266401 39.705419 0.87599236)
(84.514301 43.280473 -1.8316583)
(99.383093 47.24649 -4.9624203)
(117.0001 51.554702 -8.4982628)
(137.43073 56.154753 -12.34468)
(160.71438 61.014645 -16.458825)
(186.75746 66.058427 -20.763204)
(215.50718 71.149505 -25.14553)
(246.76533 76.300786 -29.550513)
(280.3821 81.34276 -33.896231)
(316.11265 86.238114 -38.121981)
(353.49786 90.816219 -42.082386)
(392.35374 95.057093 -45.751347)
(432.34005 98.825853 -49.092448)
(473.11761 102.07962 -52.028858)
(514.30698 104.75799 -54.549401)
(555.58722 106.8067 -56.630982)
(596.63351 108.21476 -58.243983)
(637.12763 108.94767 -59.390197)
(676.78009 109.00466 -60.08083)
(715.32196 108.40244 -60.326008)
(752.52011 107.1592 -60.145032)
(788.1662 105.31579 -59.565702)
(822.09446 102.91553 -58.616553)
(854.16264 100.01467 -57.329415)
(884.27486 96.670863 -55.739754)
(912.36011 92.953211 -53.883536)
(938.39173 88.923426 -51.796602)
(962.36859 84.655128 -49.516989)
(984.33035 80.209457 -47.080626)
(1004.3406 75.655837 -44.525686)
(1022.4997 71.050315 -41.88593)
(1038.9294 66.455561 -39.201719)
(1053.7802 61.909756 -36.499694)
(1067.2146 57.477445 -33.825332)
(1079.4382 53.171386 -31.199562)
(1090.6278 49.054609 -28.660111)
(1101.0161 45.107362 -26.235355)
(1110.8032 41.413126 -23.95588)
(1120.2637 37.896792 -21.814774)
(1129.5152 34.630179 -19.941857)
(1138.8695 31.632917 -18.228887)
(1148.47 28.856614 -16.675617)
(1158.508 26.220907 -15.388145)
(1169.1527 23.878823 -14.321751)
(1180.6307 21.660763 -13.529508)
(1192.9073 19.63013 -12.941708)
(1206.1081 17.729319 -12.580129)
(1220.354 15.920462 -12.438144)
(1235.6612 14.221278 -12.506204)
(1252.0293 12.555894 -12.768863)
(1269.4611 10.955192 -13.223165)
(1287.8739 9.3495211 -13.825829)
(1307.2306 7.7627964 -14.595665)
(1327.4073 6.1647508 -15.477046)
(1348.2998 4.5335383 -16.467508)
(1369.8012 2.8876333 -17.541705)
(1391.734 1.2175947 -18.694731)
(1413.9799 -0.4364925 -19.857549)
(1436.3924 -2.1818398 -21.033975)
(1458.8891 -3.8882343 -22.189239)
(1481.2136 -5.6473417 -23.342084)
(1503.4911 -7.413317 -24.426391)
(1525.2371 -9.1572822 -25.479394)
(1546.9394 -10.971057 -26.46801)
(1567.9024 -12.726682 -27.400322)
(1588.6998 -14.50096 -28.341576)
(1608.9939 -16.320126 -29.194907)
(0.51795492 0.17612705 0.26482174)
(1.3817276 0.11959661 -0.17180332)
(3.5891484 0.61754774 -1.0552617)
(5.5536687 1.2959066 -1.8729402)
(8.6602837 2.3255582 -2.9835979)
(11.374167 3.3217267 -3.6770447)
(14.73878 4.7389411 -4.327278)
(18.057825 5.8978722 -4.8713131)
(21.417142 7.4347127 -4.9599497)
(24.642972 8.6155647 -4.9811377)
(27.815407 10.086857 -4.6309166)
(30.579104 11.159926 -4.1330108)
(33.024717 12.39495 -3.2989532)
(35.096359 13.299093 -2.4593958)
(36.643081 14.252065 -1.3341583)
(37.767778 14.901929 -0.2413568)
(38.510285 15.60972 0.88377878)
(38.884803 16.081676 1.9298662)
(39.080059 16.595286 2.879146)
(39.273625 17.033899 3.5596492)
(39.644527 17.527842 4.037897)
(40.471789 18.086951 4.1398793)
(42.037526 18.786065 3.8925486)
(44.624815 19.676841 3.2016578)
(48.551819 20.781184 2.1023957)
(54.112848 22.20192 0.50479644)
(61.622159 23.892459 -1.5143078)
(71.311458 25.970686 -4.0018394)
(83.443534 28.352149 -6.8784739)
(98.180474 31.143095 -10.145989)
(115.66411 34.201521 -13.702611)
(135.98631 37.628618 -17.529016)
(159.12075 41.282401 -21.53805)
(185.08222 45.147863 -25.62619)
(213.71769 49.169542 -29.769355)
(244.89902 53.264044 -33.830725)
(278.43729 57.393838 -37.795931)
(313.89313 61.3074 -41.420924)
(351.35516 65.116012 -44.936783)
(390.25926 68.651404 -48.127426)
(430.32742 71.86967 -50.926321)
(471.17718 74.700435 -53.341631)
(512.49255 77.090407 -55.325767)
(553.93014 78.973739 -56.866197)
(595.14504 80.336354 -57.972126)
(635.81854 81.147546 -58.64434)
(675.65903 81.402861 -58.891195)
(714.39469 81.106551 -58.735227)
(751.7865 80.271573 -58.19807)
(787.62552 78.926912 -57.3141)
(821.73858 77.103578 -56.110648)
(853.98383 74.847392 -54.626773)
(884.25945 72.202179 -52.895546)