/*--------------------------------*- C++ -*----------------------------------*\
  =========                 |
  \\      /  F ield         | OpenFOAM: The Open Source CFD Toolbox
   \\    /   O peration     | Website:  https://openfoam.org
    \\  /    A nd           | Version:  6
     \\/     M anipulation  |
\*---------------------------------------------------------------------------*/
FoamFile
{
    version     2.0;
    format      ascii;
    class       pointScalarField;
    location    "1.5";
    object      p;
}
// * * * * * * * * * * * * * * * * * * * * * * * * * * * * * * * * * * * * * //

dimensions      [1 -1 -2 0 0 0 0];

internalField   nonuniform List<scalar> 
3969
(
-1019280.5
1572687.1
-97.401826
-127.64969
-2091207.9
2960258.4
-116.73464
56.778248
-853496.62
-575995.29
-275953.96
16534.228
255547.72
575140.24
618074.43
383.98749
224.9031
372.91816
123.37801
-226.54311
-285.03551
-230.79577
-294423.93
-352026.33
-339825.63
-365432.88
-352938.21
-360694.53
-346177.25
-343078.85
-330109.21
-318901.56
-309268.4
-298627.7
-287429.82
-276901.51
-266341.94
-253338.5
-243258.11
-230554.2
-219550.87
-206210.1
-194571.81
-181735.27
-169387
-157175.5
-144133.6
-131651.56
-119315.02
-107589.28
-96643.162
-85258.361
-74982.513
-65310.043
-55801.438
-47369.513
-39679.214
-32485.41
-25729.866
-20833.767
-15445.927
-11548.1
-7984.9905
-5109.6271
-2813.5997
-1110.6
80.576743
296.10654
798.97563
378043.96
334591.6
375280.49
343582.06
374914.64
345299.54
353920.78
333929.6
332241.88
315708.07
308524.19
298157.66
285990.02
276005.9
263437.34
251211.63
239857.37
226431.99
214392.53
202151.89
187318.84
176913.94
161629.43
150354.32
136308.12
123805.58
110045.8
98222.741
86535.009
74926.28
65480.901
55031.901
46580.201
38040.514
31009.077
24357.34
19025.683
14166.052
10037.635
6736.8643
3930.9246
2272.3671
892.3235
314.20334
-385.46003
-303.72562
-200.43219
-1526131.1
-1131838.4
-478745.65
52143.495
507638.53
1030605.9
874136.57
406858.37
484134.08
315339.73
432096.95
382677.95
396529.87
378911.75
375500.81
360599.16
343688.02
347551.96
326956.76
325116.05
312759.65
297194.88
290142.23
271037.26
261170.67
244242.08
230740.41
216236.24
202782.43
188373.21
174871.72
161347.49
149585.75
135699.47
120665.78
109363.11
97386.829
85560.974
75044.377
64998.886
55517.073
46867.195
38934.932
32922.43
25378.679
20549.263
15820.768
11626.082
8421.6297
5533.4695
3411.9267
1766.1257
575.5228
-397.3434
-818.28819
-342.6938
-568.18911
701.68769
-103.58098
336.87744
742.54675
256.33818
779.43135
1396.5591
1341.1606
1056.1637
233.71262
-1165.4481
-3092.1116
-6268.0795
-9535.0647
-14034.587
-20406.201
-26796.569
-33461.107
-42265.098
-51356.567
-61491.427
-72639.606
-83519.967
-96358.068
-109183.81
-121805.47
-135860.53
-149518.19
-164033.87
-178266.73
-192504.62
-205320.87
-219954.74
-231938.7
-246026.19
-254187.63
-261948.91
-282275.41
-304949.45
-296558.95
-319500.03
-320187.55
-327809.82
-355915.99
-367566.8
-356056.91
-382699.99
-366122.37
-349734.76
-380490.01
-384866.99
-845952.12
-949069.3
-1002464.3
-999327.08
-971118.98
-966335.66
-717188.26
1272855.8
1552090.4
1765983.8
1870083.8
1765482
1775297.6
1420753.2
773.74064
919.03983
897.16799
687.58222
407.23367
390.84889
430.78026
303.32398
105.11756
-54.524836
-221.5016
-644.74881
-639.11484
-37.459632
-257165.02
-271960.33
-276546.42
-278822.63
-281071.58
-276722.54
-271921.29
-268407.37
-257621.31
-255214.61
-245745.8
-235063.78
-231026.12
-220514.64
-212196.65
-202843.97
-194822.6
-184527.42
-174931.02
-164828
-155327.11
-144585.4
-134753.71
-124594.06
-115468.79
-105019.26
-95440.843
-86456.49
-77321.923
-68582.413
-60528.452
-52473.786
-45186.477
-38401.142
-32025.986
-26241.761
-21034.898
-16316.43
-12112.699
-8992.601
-5760.3063
-3703.8499
-1722.4823
-744.71999
220.32459
429.87239
884.14346
-158658.51
-164954.66
-163261.96
-177335.51
-179875
-187033.02
-180997.57
-178884.11
-173833.94
-169934.66
-163521.87
-159102.21
-152129.53
-145814.61
-141449.27
-134719.16
-129302.86
-122117.37
-116356.72
-109495.81
-102599.63
-95582.333
-88715.327
-82431.226
-75732
-69838.062
-64216.592
-57546.05
-52537.808
-46862.664
-41713.244
-36749.047
-32090.136
-27635.586
-23485.82
-19722.865
-16049.092
-13111.342
-10102.568
-7836.6887
-5515.7642
-3841.8946
-2239.4696
-1124.6136
-66.973592
179.48402
759.89902
-68363.284
-85233.759
-74041.332
-86297.498
-84194.972
-90409.571
-87420.432
-90231.687
-86624.444
-83811.676
-83554.924
-78842.219
-77143.51
-72051.497
-68483.752
-65381.613
-62860.963
-59439.986
-57261.26
-53459.565
-51507.898
-48248.338
-45310.75
-41684.311
-38673.187
-35271.225
-32384.596
-29831.502
-27225.089
-24465.41
-21981.487
-19416.4
-17012.27
-14611.914
-12537.511
-10419.298
-8428.2864
-6853.6318
-5004.462
-3790.614
-2393.4149
-1519.5045
-531.23901
-29.505119
384.00906
530.44135
627.22204
14480.409
9341.2955
18968.53
7591.499
13540.487
8051.2413
14232.612
9449.5347
11246.715
4549.6992
9253.4904
4528.319
7066.6694
4105.8828
3446.7056
2462.9085
2161.0389
1826.2693
1326.1502
1796.974
914.32332
1767.6721
2812.4707
2495.9985
1406.569
960.33938
51.298019
-680.91806
-1277.0838
-1861.3727
-2495.7545
-2780.4007
-3080.5069
-3217.8489
-3318.2641
-3243.4909
-2916.5031
-2613.921
-2118.4915
-1855.9534
-1444.5246
-964.03728
-482.68324
-237.36708
354.56089
210.84104
394.81374
117247.17
100572.82
108517.6
105670.89
110747.35
106682.74
105817.74
102281.95
99880.58
93687.64
92544.485
85490.38
85020.559
78138.703
76442.16
71630.854
68287.45
64796.289
60632.952
57741.306
51775.387
45525.406
40689.623
34668.436
32037.013
29645.968
25249.691
21680.512
18541.286
15545.387
12602.662
10399.024
8008.3679
6239.3064
4523.1382
3161.7381
2341.7576
1165.3354
2076.5793
1718.7
1313.5126
994.73574
789.83904
690.92727
564.38217
461.50249
122.50178
217764.71
199656.69
203361.19
208777.74
209702.41
204288.7
202955.61
194904.42
192943.95
182050.3
180764.44
172378.62
167520.21
161232.92
154588.24
146955.55
139843.59
132714.6
124794.22
118028.71
108554.48
102046.25
89262.933
80632.235
72049.579
65281.83
58594.041
51524.785
45090.629
38834.12
33429.185
27953.936
23169.213
18871.277
14921.139
11702.752
8815.3367
6518.6743
4535.2834
3427.4014
2166.1338
1493.4508
936.49657
453.1106
462.84109
169.19117
-2.2381511
344536.28
264577.53
302980.47
297057.97
305037.15
295477.01
295039.02
284123.33
281712.93
268680.33
265461.23
254303.25
246213.92
234669.37
224905.81
213126.72
202471.61
191444.06
180941.76
169049.11
159247.43
146540.2
135635.21
124760.82
113669.62
103784.55
94044.591
82883.544
73004.642
63610.722
54804.476
46557.147
38877.362
32147.426
25868.595
20447.212
15869.127
11793.647
9000.4162
5875.8509
3868.8617
2394.9459
1347.7255
655.9879
376.8135
143.35952
21.836857
-591469.98
-584030.08
-612352.14
-605444.94
-611361.9
-596703.9
-551780.34
-403094.63
-468027.06
-432530.29
-451569.16
-450547.57
-440260.31
-429032.28
-196159.7
-233727.29
-190613.47
-212997.01
-193815.65
-197569.85
-214222.63
-20653.17
2772.7608
11503.723
-7098.7125
-1353.0535
30847.524
-50565.852
166597.98
164000.48
182022.02
166927.95
170626.3
171090.03
109707.93
436231.93
459604.55
453924.29
462107.06
473666.62
466569.78
427909.6
583011.08
508334.33
456931.46
468504.3
448074.32
409780.78
457515.77
542583.93
548328.57
614336.97
630391.73
642090.28
637399.21
509975.37
449785.37
500799.79
496748.32
501909.44
523533.96
506758.33
469305.76
370915.05
408737.65
430975.35
430844.77
429153.79
408384.78
421474.98
386378.34
411197.02
405525.41
423798.2
411229.85
410891.36
389987.93
378147.75
395423.95
408672.65
410024.84
411235.43
398789.66
399377.11
377084.69
369379.77
377193.05
381994.35
383236.4
376093.18
376673.41
358693.03
366518.04
371032.71
374413.39
374199.73
374848.53
374285.78
357248.25
350616.64
355033.6
355748.7
350606.33
356090.78
356417.65
340564.65
342906.58
342988.36
345400.05
348363.15
350198.11
352919.9
336844.52
330222.32
328401.58
331241.68
331648.3
332326.44
333028.61
323211.66
321311.26
318593.66
321117.88
322362.3
321919.99
330871.65
311050.08
308012.46
306852.6
311904.28
310366.59
308543.03
315485.68
302106.06
293188.41
296501.07
295979.63
299483.73
298648.5
309434.66
287352.15
281527.45
287709.78
287534.77
290224.8
288938
295423.44
277116.44
269456.4
275692.99
272630.8
276114.75
275008.98
282971.14
264263.58
256718.86
264689.13
262291.73
267042.83
266304.1
273258.69
250825.68
245889.78
252510.92
249303.52
254106.02
252125.82
257638.3
238284.23
233885.28
240317.55
236966.86
243083.43
240501.58
247286.36
224859.71
221131.06
227393.27
223435.17
229683.87
226740.33
233572.24
211008.9
208692.96
214384.53
210996.31
217834.05
214910.59
221902.71
198266.27
194827.76
200884.28
197061.1
203899.57
200875.81
207680.9
184099.84
181900.68
187226.35
184357.43
191022.84
188229.07
195390.36
170817.88
167790.21
173906.11
170765.97
176872.17
174825.56
181497.31
156478.2
155472.39
160183.77
157301.82
163683.47
162135.87
168650.37
142697.37
142586.39
144900.18
144528.09
149856.54
149261.5
155626.38
128174.08
130125.54
130180.79
133466.46
135884.53
138017.33
142854.58
117350.56
117000.72
118263.7
120933.95
122809.83
124222.19
128917.52
104869.85
104331.13
106299.87
107844.78
109703.99
112242.51
114635.72
92255.905
92016.053
94055.121
94990.607
96530.601
100291.05
101777.46
81021.583
80290.632
82803.114
83434.28
85507.151
89018.244
90295.088
69462.095
69668.447
71526.957
72379.996
74108.705
77766.09
78893.163
59585.584
59286.491
61301.741
62090.58
63919.294
67499.752
68703.502
49688.176
49904.673
51586.555
52573.385
54243.684
57893.737
59073.286
41172.651
41324.605
42929.349
43910.004
45616.606
49120.667
50097.957
33239.915
33627.832
34867.874
35948.325
37466.623
41083.497
42041.503
26381.95
26724.401
27891.707
29047.74
30754.316
33182.743
34770.068
20334.723
20719.85
21615.858
22619.563
24143.128
27230.353
28262.941
15108.841
15876.831
16484.426
17650.716
18843.478
21650.546
22388.381
10792.785
11236.318
11763.341
12899.865
14032.39
16517.639
17149.613
7533.8259
7818.8569
8476.2469
9265.7809
10330.001
12467.545
13150.7
4542.8867
5044.7688
5294.2334
6064.1322
7023.9446
8872.3747
9431.6579
2599.4527
3183.9636
3297.6531
4019.1739
4818.6103
6258.0287
6778.7034
1123.9033
1376.9599
1389.6503
1980.9515
2630.7683
3800.7636
4308.0778
341.28645
588.35611
769.50893
1198.4044
1750.5396
2526.9481
2895.9089
-373.91022
-299.98754
-230.48992
-11.551659
366.99896
919.24702
1234.6538
-103.11174
16.056353
205.59091
286.51654
623.24628
830.62385
1182.5379
-332.87115
-519.38145
-371.4325
-353.315
-261.86124
-110.44018
-372.66418
647.53342
687.34707
297.43401
136.41152
-251.3234
-139.60028
-246.33157
617.26272
290.04931
-55.920172
-92.306794
-603.9247
-479.60513
-193.59972
899.92802
781.50329
523.66062
313.80654
-61.266279
-6.8670536
129.03789
438.84531
261.30918
135.38627
-15.073934
-459.82629
-269.9684
-415.76403
43.249453
29.520498
-196.49145
-281.06959
-824.85335
-827.22848
-754.53537
-22.65396
159.58421
277.36851
-105.28486
-338.94591
-431.42374
-303.47949
-192.02659
-306.24687
-286.62892
-532.76319
-694.21163
-830.49371
-1121.3903
-385793.26
-384884.22
-449862.32
-431730.99
-450769.51
-423737.18
-411692.74
-418391.66
-428670.16
-456187.34
-455180.13
-460209.4
-426311.76
-418855.8
-403889.33
-408199.75
-421232.09
-423949.14
-421785.78
-394613.62
-397552.34
-379930.68
-397376.84
-407388.53
-414499.31
-408533.05
-392794.95
-395080.15
-378860.93
-381732.73
-385698.96
-389148.21
-387218.36
-373619.46
-368055.94
-361057.11
-367900.73
-373790.11
-370736.65
-370549.14
-356040.65
-358933.17
-356817.94
-356097.97
-357718.52
-356043.33
-360375.23
-349738.87
-356520.49
-340489.37
-342571.06
-346397.25
-335436.97
-342932.82
-333078.07
-335639.01
-334746.64
-335198.94
-334800.13
-329956.98
-335513.73
-323725.1
-334566.31
-324965.19
-320339.93
-321136.79
-315522.51
-320020.97
-310603.25
-319384.63
-314371.82
-309921.53
-315039.75
-306648.58
-312464.8
-303132.01
-309585.45
-301193.41
-301766.53
-299330.57
-294047.51
-296828.3
-289241.73
-297142.53
-293461.27
-287957.34
-289505.23
-283965.45
-287942.55
-278639.08
-279004.67
-281184.6
-279061.94
-276675.05
-273069.02
-273739.86
-268792.12
-271571.18
-269133.41
-267674.35
-263971.51
-263781.44
-262508.76
-257826.94
-263186.67
-260411.97
-254464.63
-252998.25
-249640.01
-251318.24
-245360.59
-247986.07
-247177.79
-244019.61
-240898.56
-240140.86
-238406.97
-233403.33
-235573.86
-235259.31
-231031.69
-229372.23
-226931.64
-225168.56
-221368.89
-222442.16
-221774.38
-219298.51
-216883.85
-214544.13
-212997.71
-209460.83
-210437.77
-209828.87
-206145.68
-203992.7
-201798.09
-199894.39
-196479.31
-197043.51
-197026.06
-193150.04
-191650.05
-188983.27
-187087.48
-183917.14
-184381
-184094.67
-180357.92
-178819.18
-175873.37
-173632.19
-170325.66
-171031.12
-171274.28
-167426.36
-166260.64
-162804.52
-160587.1
-157556.92
-158417.79
-158228.15
-154797.47
-153119.57
-149665.9
-147247.43
-144087.68
-145064.13
-145609.57
-141194.65
-140399.4
-136427.26
-134222.49
-131185.12
-132146.54
-133049.9
-128337.61
-127680.08
-123470.86
-121238.9
-118298.41
-118953.43
-120033.11
-116180.94
-114856.36
-110700.34
-108515.33
-105463.39
-106464.21
-108362.57
-103866.82
-102454.91
-98592.46
-96697.009
-93873.107
-94687.073
-95930.861
-91773.018
-90765.664
-86747.488
-84425.284
-81794.029
-82327.429
-84589.152
-81106.71
-79028.599
-75559.631
-73235.514
-71109.535
-71184.293
-73929.1
-70262.607
-68356.744
-65121.4
-62689.559
-60582.321
-60532.415
-63464.954
-60381.74
-57984.025
-55055.511
-52401.149
-50766.268
-50581.289
-53918.869
-51098.779
-48702.481
-45989.003
-43444.742
-42118.57
-41652.707
-45186.691
-42691.872
-39900.488
-37590.014
-35032.984
-33952.599
-33157.557
-37182.657
-34883.588
-32267.267
-30133.142
-27594.93
-26759.16
-25608.168
-29511.554
-27856.196
-25085.292
-23210.445
-21043.362
-20355.378
-19865.316
-23820.264
-21955.395
-19056.23
-17475.134
-15458.959
-14629.719
-14331.337
-17849.217
-16627.654
-14264.67
-12623.455
-10836.626
-9974.4705
-9697.63
-12761.862
-12121.803
-9108.6219
-8536.9808
-6516.4081
-6373.1751
-5683.5411
-8948.6344
-8537.4839
-6019.9777
-5546.365
-3479.6078
-3476.6423
-2859.8147
-5558.3188
-5338.3113
-2994.6982
-2724.7917
-909.24122
-1338.8582
-480.46507
-3066.1557
-3186.0529
-1087.5756
-1019.2955
539.49077
215.88552
924.89174
-1329.7913
-1254.5497
416.28859
322.14559
1674.2925
1145.6622
1820.0149
-179.702
-282.42646
930.18019
775.90589
1716.1327
1232.1657
2026.7387
489.6759
509.34299
1212.1155
1214.5135
1864.4362
1639.5763
2021.7242
475.35807
291.32196
753.62696
547.29844
833.07331
595.04558
831.08083
525.3932
370.47532
390.03085
263.39149
493.58025
280.99643
561.50695
-425616.2
-288480.91
-286711.7
-281386.31
-291856.82
-295908.85
-281717.59
-277536.24
-271807.22
-264858.37
-252333.04
-245958.85
-233940.69
-223877.95
-215394.15
-205281.11
-193738.16
-183867.75
-173727.26
-163194.22
-152707.62
-141730.01
-131119.81
-120727.92
-110148.13
-99924.369
-89223.342
-79011.628
-69665.974
-60339.866
-51593.081
-43546.346
-35987.488
-29297.645
-23312.988
-17776.195
-12295.322
-9122.8708
-5888.7808
-3532.8179
-1724.4166
-340.40094
545.12474
954.89211
1102.2982
901.44372
1227.9462
-243095.08
-227766.26
-169958.24
-198521.2
-230136.91
-206674.71
-218426.36
-201980.9
-204570.18
-189511.31
-190134.39
-177228.32
-170451.93
-162509.29
-156089.82
-150276.21
-142420.29
-133514.28
-127264.13
-118304.07
-110578.87
-102195.25
-94144.05
-85515.66
-77035.909
-67971.924
-61403.045
-53394.076
-46463.436
-39639.471
-33306.805
-27386.734
-22005.977
-17376.281
-12669.719
-9620.5269
-6545.7822
-3646.3105
-1591.1771
-212.91179
864.05806
1498.4664
1771.4231
1622.5723
1421.9583
1009.8925
772.70397
-120951.29
-129873
-68082.495
-107437.43
-95588.653
-84709.583
-92385.32
-83082.642
-83429.479
-76330.632
-79221.521
-73634.396
-75130.488
-70646.075
-70680.54
-68158.339
-64124.778
-60558.518
-57894.864
-52666.645
-49218.726
-45163.746
-41181.583
-37207.167
-33713.32
-29813.425
-26491.705
-22135.068
-18583.134
-15471.422
-12289.007
-9559.3926
-7130.3207
-4817.5416
-2851.224
-1485.3606
-175.35496
846.54356
1620.3254
1815.61
2048.5376
2093.784
1799.0558
1481.376
1210.2917
668.2578
828.44558
11432.989
-21237.562
11666.7
-13157.756
1215.2028
-4992.6903
-3443.9756
8784.9151
475.58606
4562.4652
3131.2865
3973.1942
-50.212509
-2430.9996
-5471.3004
-3362.1806
-4465.5728
-3309.9116
-3362.5943
-1656.8712
-1895.0687
-817.78887
-155.35064
673.05635
1856.0375
2989.7484
3943.9772
4629.6119
5648.1624
6195.4238
6956.3966
6949.9785
7377.1187
7407.7113
7364.2781
7154.514
6981.0961
6514.7911
6083.0253
5247.4708
4703.2926
4019.3909
3107.8757
2471.4063
1498.9147
940.55952
181.75336
164337.72
89455.206
98500.895
74165.939
92904.275
78073.975
91636.601
85452.682
79859.502
84039.572
74853.973
80699.345
72772.789
76936.831
71943.631
71451.125
67489.726
65832.927
62592.884
60039.906
56854.04
54234.944
51097.437
48360.908
44318.654
41737.963
38461.905
35505.221
33068.512
30411.601
27992.127
25344.332
22978.541
20371.755
18218.633
15945.585
13793.04
11791.532
9939.4036
8114.818
6610.9128
5000.8115
3796.3111
2452.6256
1519.8176
471.01184
329.43598
259123.23
206410.08
176483.09
181709.02
189660.77
186066.6
189297.08
175374.99
183263.07
179440.86
177534.26
176028.03
165175.02
165019.15
154253.4
150028
140098.38
134223.22
125643.05
119383.97
112267.84
105157.01
97948.199
89759.301
81667.704
74376.838
68783.044
62781.278
57165.081
51528.181
46603.809
41434.978
36617.851
32072.061
27844.131
23977.369
20183.33
16721.902
13909.156
11056.637
8542.6409
6590.0289
4545.3876
3217.1866
1667.8949
985.93358
-101.09867
339760.44
290857.73
289094.41
283571.48
304600.43
294182.97
301386.36
289212.18
292798
279232.28
275789.49
264369.65
256283.27
247110.46
237536.12
228724.99
220217.68
209187.21
200358.05
188977.84
178512.92
167111.25
156508.72
144823.53
135037.51
119535.3
110680.61
101250.87
91694.199
82775.377
74051.145
65345.71
57547.715
49831.965
43038.079
36387.258
29863.102
25242.709
20208.69
15680.665
12268.123
8706.8072
6298.2042
3794.405
2230.7693
489.74712
539.6016
-490980.95
-535039.04
-525122.26
-547588.08
-542993.76
-510862.28
-474699.89
-331615.77
-394544.2
-389184.84
-398891.38
-388861.06
-366632.7
-331099.11
-320903.47
-357674.7
-378886.46
-382537.84
-373905.56
-369765.44
-349080.85
-308510.8
-318625.33
-328534.41
-336357.18
-321453.92
-324193.99
-289060.42
-300206.46
-313998.35
-329970.9
-325178.2
-320319.47
-314690.72
-287851.7
-293787.73
-304556.25
-300324.55
-308979.44
-299937.27
-297353.69
-295525.76
-287861.36
-292739.82
-296937.23
-298020.44
-286711.73
-292660.45
-279557.37
-278201.33
-290142.49
-282164.87
-288756.68
-283868.28
-276669.66
-272307.29
-275145.9
-277243.19
-269020.1
-282052.19
-267041.6
-273288.65
-265442.87
-263014.52
-265923.74
-267325.39
-270048.95
-260897.61
-263191.91
-256046.34
-254141.33
-262881.3
-253885.14
-258763.46
-249968.31
-251987.04
-246005.47
-251224.3
-247956.34
-247800.95
-248974.77
-244599.86
-242352.67
-237082.74
-238607.57
-241764.88
-237904.81
-242552.05
-232298.14
-234417.65
-230414.47
-231081.17
-229098.46
-229840.24
-230834.9
-224115.4
-224302.2
-221253.66
-222324.41
-221103.33
-220952.36
-218802.06
-214554.03
-214712.65
-209670.07
-211677.54
-210465.92
-212088.31
-210358.53
-205709.5
-203481.87
-200743.79
-201417.05
-200327.78
-200786.05
-199507.51
-194845.05
-193804.99
-191048.81
-191391.07
-190169.47
-191414.92
-188271.53
-184758.96
-183482.55
-180939.87
-180980.99
-180607.9
-179635.51
-178087.1
-174445.78
-172811.36
-169379.73
-170992.34
-169441.62
-169505.03
-167295.13
-163976.05
-162158.18
-159624.1
-159002.94
-159698.15
-158262.76
-156373.38
-152848.32
-151524.49
-148199.38
-148744.36
-149191.29
-147144.69
-145149.53
-142494.1
-140825.06
-138223.3
-137597.94
-138544.53
-135264.58
-134271.5
-131194.59
-130683.11
-126590.91
-126878.09
-127733.2
-124322.3
-123053.35
-120937.51
-119600.49
-115773.18
-115559.66
-117785.84
-112964.48
-112975.02
-109672.19
-109580.78
-105205.42
-106339.65
-107154.74
-103453.54
-101322.24
-100173.04
-98517.484
-95007.977
-97014.409
-96704.536
-92468.249
-91764.776
-89976.485
-88698.29
-85213.938
-86885.656
-86203.869
-83576.78
-81695.296
-79377.461
-78485.796
-74498.67
-77565.423
-78100.694
-73161.363
-71887.852
-70309.94
-69125.941
-65524.828
-69445.858
-67780.575
-64778.863
-63014.331
-61422.26
-59911.165
-56623.893
-60748.648
-59386.16
-55955.022
-54131.171
-52436.899
-51192.363
-47934.407
-53022.313
-51020.864
-48311.579
-46161.895
-44839.153
-43434.435
-40419.731
-45713.532
-43461.394
-40634.161
-38612.432
-37282.874
-36063.745
-32815.138
-38977.897
-36276.189
-34003.988
-31832.927
-30678.477
-29022.727
-26447.576
-32417.422
-29627.931
-27615.466
-25648.999
-24275.609
-23699.095
-20808.567
-27047.115
-24202.548
-22407.227
-20117.55
-19276.439
-17641.553
-15342.253
-21710.359
-18535.28
-17039.499
-15304.778
-14228.463
-13432.28
-11285.464
-17386.359
-14426.97
-12761.129
-11279.067
-10230.613
-9389.3172
-7885.2678
-13289.445
-9625.0897
-9550.6929
-7310.7177
-7218.8382
-6117.8744
-4806.6487
-9896.3909
-7029.1496
-6620.1699
-4737.5073
-4383.589
-3531.0684
-2414.2698
-6892.3211
-3841.343
-3882.6764
-1788.6584
-2124.0132
-1327.0074
-586.68888
-4639.3547
-2323.5332
-2212.6432
-823.88089
-922.07994
-93.584579
418.52518
-2586.754
-179.92468
-492.46608
1035.3306
778.99631
1206.1206
1232.6849
-1248.7564
164.24185
115.04222
1207.5596
955.82942
1403.5519
1600.6774
30.16192
1299.9002
1251.2499
1977.2139
1742.3004
2088.3625
1650.5072
565.01025
1199.985
1203.3108
1507.4154
1526.1087
1489.6739
1646.2561
596.3359
1169.0251
1130.2562
1307.9769
1020.2166
1254.9761
991.85569
-308932.9
-314777.21
-348102.28
-339147.57
-351868.26
-319735.41
-321545.94
-229705.74
-287389.4
-300897.01
-311649.19
-311432.02
-286021.61
-269259.91
-237763.33
-221308.76
-251577.07
-240067.43
-250661.72
-224820.27
-225406.07
-202373.77
-218085.02
-233835.52
-229458.06
-234827.39
-222009.04
-197615.18
-211851.16
-216054.76
-228965.95
-219093.16
-229214.85
-213874.63
-205211.42
-200461.43
-204610.25
-212612.26
-206309.6
-207156.61
-207381.19
-196386.23
-198226.14
-205497.42
-215500.69
-205690.87
-211926.28
-206644.66
-193196.88
-194131.58
-194059.59
-198686.45
-192207.5
-197489.91
-189767.67
-187522.91
-188337.56
-188904.45
-200961.02
-192165.67
-192522.63
-190941.21
-182610.51
-180028.74
-184812.93
-189610.97
-176898.45
-183699
-178051.49
-175981.91
-176940.45
-179464.86
-181369.06
-175983.72
-179325.08
-175720.58
-167598.57
-170341.37
-169466.63
-177429.15
-166747.95
-172743.07
-163770.35
-166467.75
-162423.16
-165987.55
-171295.48
-160097.87
-165544.5
-159553.74
-155269.56
-156393.37
-159297.04
-162573.96
-152583.14
-157413.48
-151709.44
-145829.88
-149045.54
-155297.76
-154071.19
-148066.78
-150910.94
-146299.03
-139213.97
-143429.69
-147045.47
-145799.91
-141683.75
-141368.92
-138651.65
-130375.02
-136265.51
-141508
-139502.45
-134985.24
-134643.88
-133556.45
-126456.28
-129776.58
-134435.39
-131258.47
-128158.68
-126977.36
-125567.95
-116974.12
-123652.7
-127163.07
-124351.7
-121578.52
-120089.94
-118700.57
-111195.65
-116174.48
-119534.76
-116804.02
-114210.88
-112031.09
-110607.13
-103683.43
-110039.13
-112571.43
-109492.62
-107069.5
-104836.07
-103789.72
-97225.82
-103700.92
-104777.74
-101560.8
-99552.719
-97210.896
-95889.99
-89403.914
-97461.745
-97094.695
-94504.515
-92725.497
-90303.652
-88012.182
-82763.589
-90856.668
-89661.753
-87582.024
-85574.046
-82634.448
-80104.292
-75871.813
-84037.896
-82571.228
-80196.464
-78193.71
-75688.892
-72509.661
-69386.175
-77215.518
-75566.768
-72354.592
-72158.471
-67388.31
-65050.849
-62653.787
-69777.38
-68738.276
-65448.743
-63667.877
-61138.463
-57502.856
-55089.161
-64044.553
-61035.116
-59119.355
-56612.798
-54420.334
-50490.844
-49039.832
-57121.626
-54566.545
-52644.684
-49997.628
-47876.56
-43870.263
-42398.401
-50829.928
-48479.993
-45564.691
-43683.376
-40860.338
-37611.327
-36056.772
-44852.37
-42502.904
-39931.441
-37728.808
-35170.364
-31948.172
-30526.274
-38993.224
-36963.141
-33781.866
-32092.723
-29318.551
-26506.581
-25010.27
-33797.966
-31668.969
-28692.755
-26893.93
-24298.603
-21351.706
-20023.3
-28478.416
-26660.596
-23470.748
-22131.335
-19326.723
-16946.806
-15813.406
-24041.686
-22308.352
-19394.337
-17704.578
-15341.167
-12988.818
-12113.611
-19562.533
-18235.66
-14959.113
-14029.619
-11382.622
-9690.4526
-8014.3989
-15821.55
-14318.763
-11667.031
-10329.633
-8319.3914
-6328.4253
-5520.4434
-12229.315
-11534.126
-8397.7142
-7754.9614
-5381.3208
-4208.4568
-3283.162
-9376.462
-8473.7698
-6003.4834
-5403.2122
-3319.0001
-2395.9991
-1370.8786
-6647.1098
-6283.0614
-3552.9412
-3134.6256
-1366.0025
-521.04736
109.51269
-4701.644
-4149.0612
-1911.7525
-1938.8974
-235.03274
316.05104
925.68597
-2749.7162
-2591.8956
-508.28113
-723.58443
971.65158
1130.4296
1550.2836
-1613.3953
-1292.0273
287.03817
144.56506
1457.9211
1406.5032
1841.4711
-506.2506
-420.70075
1016.8778
507.68931
1613.4668
1452.086
1821.3662
66.044178
438.39131
1102.3417
840.0895
1726.3331
1413.2752
1402.0341
482.30114
470.64499
1024.594
722.6229
1163.0047
826.34179
1053.6891
725.71654
1224.4924
1263.3727
1016.0707
1054.5697
1168.7585
928.00033
-176409.11
-175889.17
-168908.61
-184049.08
-175251.57
-165476.81
-160376.93
-120285.26
-181359.99
-167131.85
-182126.21
-159010.15
-163290.27
-135728.95
-126505.23
-117649.84
-131582.05
-130750.32
-125460.63
-113398.78
-109960.54
-98334.241
-120152.73
-126187.05
-134481.95
-120097.44
-124745.89
-101251.71
-113203.56
-108332.4
-118599
-111392.56
-110605.28
-101499.67
-95948.001
-97630.948
-112345.5
-106094.1
-107800.08
-109579.15
-98720.394
-97855.543
-102451.41
-108611.37
-98235.125
-105990.64
-103495.98
-96377.398
-94243.612
-97501.977
-107420.31
-96772.307
-101467.42
-98322.157
-88705.712
-91662.157
-96894.849
-108390.18
-90648.518
-99023.327
-94099.632
-90596.119
-89150.655
-97978.351
-100747.74
-87266.364
-92043.161
-92666.302
-84015.846
-85083.911
-93036.444
-99966.523
-83391.626
-93235.497
-88140.967
-83292.464
-81892.69
-89239.899
-93728.521
-80198.322
-86154.109
-83884.551
-76966.418
-78362.01
-84407.469
-94972.682
-76531.914
-84043.278
-80593.667
-74358.074
-74378.735
-82638.766
-87266.314
-74888.709
-80734.627
-79700.165
-67705.775
-74090.202
-79781.154
-82608.409
-70588.051
-76850.66
-73744.363
-65217.101
-69630.32
-75308.506
-76874.029
-70134.811
-70936.98
-71132.898
-61717.878
-67364.5
-70314.476
-74387.068
-65433.584
-68502.57
-66406.985
-59109.035
-61878.806
-67998.026
-68731.951
-62561.34
-64005.847
-62922.148
-55347.29
-58136.392
-62841.591
-65746.262
-58410.995
-60607.231
-58082.502
-51783.682
-53654.246
-60107.355
-61353.681
-55159.519
-56328.608
-54208.713
-48369.089
-50627.439
-55757.796
-57665.808
-51040.515
-52419.947
-49660.367
-45321.278
-45471.068
-52257.529
-53136.06
-47613.741
-48433.921
-46240.929
-41112.445
-42016.906
-48467.354
-49283.542
-43714.903
-45154
-40964.302
-38105.593
-37869.769
-44914.114
-44727.111
-40325.425
-40224.835
-36619.11
-34813.137
-33752.413
-41500.324
-40942.505
-36508.819
-36424.418
-32589.593
-31914.258
-29629.007
-38508.457
-36007.126
-33315.965
-32107.097
-28595.944
-27971.184
-25402.872
-35038.78
-33597.669
-29762.036
-29725.821
-24333.296
-25399.679
-21337.223
-32119.805
-30801.109
-26339.83
-25639.323
-21770.59
-21617.98
-18794.97
-28901.857
-26905.963
-23002.017
-22319.342
-18266.337
-18145.949
-15364.889
-26227.43
-23845.689
-20474.835
-19243.061
-15586.525
-15423.717
-12354.911
-23449.843
-20973.719
-17377.494
-16556.524
-12541.099
-12687.316
-9498.8607
-20972.96
-18166.746
-15022.748
-13895.912
-10128.189
-10216.58
-6719.4224
-18387.817
-15470.061
-12455.521
-11417.597
-7720.0875
-7870.9716
-4632.949
-16177.128
-13160.44
-10465.32
-9306.9155
-5784.2749
-6038.9885
-2757.1928
-13918.184
-10800.933
-8371.7027
-7193.9799
-3983.7221
-4194.1939
-892.33697
-11801.875
-8834.842
-6569.8271
-5459.8659
-2581.7923
-2539.2614
227.71341
-10010.665
-6799.3578
-5084.2554
-3906.94
-1350.5535
-1200.4204
1168.5619
-8096.6698
-5464.0618
-3703.2566
-2809.5246
-278.44285
-478.90098
1897.2619
-6538.0625
-3640.4967
-2480.2372
-1368.8097
468.47963
371.49053
2513.9632
-5198.652
-2669.7342
-1767.9351
-899.82075
875.61198
878.42751
2759.0988
-3697.6171
-1080.4432
-904.28994
306.49662
1370.5522
1404.7568
2595.9447
-2643.0052
-861.35407
-585.3269
362.84778
1347.5304
1316.2114
2479.7036
-1576.4321
323.44252
225.68445
1153.2747
1605.4327
1618.1608
2164.0599
-760.51395
367.04181
195.25473
756.52029
1335.2746
1169.6163
1677.5464
-85.29717
896.03817
585.80487
1288.3067
1447.4794
1244.9886
1373.9948
354.31911
773.33817
723.75875
844.43643
961.88485
718.44756
1055.2976
688.80793
1261.4784
987.64237
1079.4291
917.15783
910.31323
554.88212
2574.1358
20645.506
13716.973
16026.259
14339.076
17926.792
-4583.1816
6918.5001
694.30533
-372.16861
-8716.4571
-2561.0629
-5072.0196
-1339.6067
-15557.388
15659.841
5654.054
17009.536
9223.2691
15414.571
1085.9657
268.40374
2002.3513
-14270.462
-7648.9586
-9066.682
-13951.521
6762.1337
-8171.8756
-8076.9698
-13820.844
2673.9582
-12767.112
12555.821
-4030.0226
-7501.5764
-1270.9816
-5893.7097
-9738.0839
-6869.9615
-8141.7138
1036.6294
-10875.928
-11726.617
-20941.953
-7668.787
-14164.696
-2672.9154
-4052.9462
-12378.252
-9722.991
-7339.9219
-10227.387
-6892.8155
-7499.8137
-187.87982
-11389.079
-7348.3709
-17488.724
-8574.3856
-13246.115
-5832.2851
1658.9064
-7575.0254
-10967.701
-10411.713
-5814.7231
-6771.7453
-2041.7571
304.16478
-9248.5991
-8811.1846
-11903.02
-7028.6629
-8218.1015
-4161.7924
1093.5679
-6267.7088
-9299.4621
-7614.4532
-5454.2384
-4422.4108
-2602.2553
2366.4943
-8731.0319
-7860.087
-8227.8752
-6589.4284
-6681.901
-3953.1119
3942.8474
-5554.5702
-6267.3194
-9568.5489
-6883.458
-211.38238
-2340.5127
7736.0195
-6478.2635
-9411.4356
-3096.5433
-7914.3632
613.08908
-3778.7682
5060.0366
-3740.6717
-7111.1015
-2760.452
-7271.2865
2161.7731
-2303.4657
6575.9116
-4620.6645
-6770.2502
-2942.9269
-8301.4597
2317.1015
-2615.0197
5548.9388
-3585.0954
-5690.6879
-3166.6096
-6612.9597
3184.9451
-1224.2087
6945.0985
-3464.3882
-6948.6863
-2889.1523
-6711.2756
2943.8458
-1471.7214
6154.713
-3966.4316
-5744.2322
-2321.3673
-5379.996