/*--------------------------------*- C++ -*----------------------------------*\
  =========                 |
  \\      /  F ield         | OpenFOAM: The Open Source CFD Toolbox
   \\    /   O peration     | Website:  https://openfoam.org
    \\  /    A nd           | Version:  6
     \\/     M anipulation  |
\*---------------------------------------------------------------------------*/
FoamFile
{
    version     2.0;
    format      ascii;
    class       pointVectorField;
    location    "1.57";
    object      u;
}
// * * * * * * * * * * * * * * * * * * * * * * * * * * * * * * * * * * * * * //

dimensions      [0 1 0 0 0 0 0];

internalField   nonuniform List<vector> 
28033
(
(0 7.0230472e-19 0)
(0 4.7551692e-18 0)
(-1.3412987 -0.30569016 -0.012891553)
(-1.38116 -0.025958405 -0.012783919)
(0 4.3505711e-18 0)
(0 6.994463e-18 0)
(-1.3820726 -0.023237258 -0.012805888)
(-1.3421344 -0.30292485 -0.012875871)
(0 1.5477865e-18 0)
(0 4.5466291e-19 0)
(0 3.6653028e-18 0)
(0 -1.7407419e-18 0)
(0 2.3250128e-18 0)
(0 -1.3564178e-18 0)
(0 -3.2127061e-20 0)
(-1.0494533e-18 -3.4234944e-19 0)
(0 6.3196214e-19 0)
(0 3.1012265e-19 0)
(0 -1.1844864e-18 0)
(0 1.1464799e-18 0)
(0 1.3806351e-18 0)
(0 -1.1224475e-18 0)
(0 1.4513522e-18 0)
(-1.3437966 -0.2881938 -0.012882494)
(-1.3462912 -0.27069901 -0.012875232)
(-1.3487876 -0.25320445 -0.012866299)
(-1.3512809 -0.2357126 -0.012859116)
(-1.3537756 -0.21822201 -0.012850864)
(-1.3562687 -0.20073234 -0.012842432)
(-1.3587623 -0.18324599 -0.012836177)
(-1.3612544 -0.16575951 -0.012827052)
(-1.3637467 -0.14827647 -0.01282147)
(-1.3662371 -0.13079538 -0.012813928)
(-1.368726 -0.11331691 -0.012808636)
(-1.3712146 -0.095840461 -0.012804166)
(-1.3737005 -0.078366116 -0.012798071)
(-1.3761877 -0.060894329 -0.012792919)
(-1.3786729 -0.043423839 -0.01278851)
(-0.0040257005 -0.008187788 -0.0081100155)
(-0.004740959 -0.011747364 -0.011583769)
(-0.0061534642 -0.015729929 -0.013589314)
(-0.0085677105 -0.019690104 -0.015004059)
(-0.011293722 -0.023815767 -0.01566238)
(-0.014950529 -0.027948098 -0.016077539)
(-0.019123426 -0.032254532 -0.016147307)
(-0.023979408 -0.036382364 -0.016087896)
(-0.029378693 -0.040738749 -0.015868521)
(-0.035377555 -0.044869565 -0.015605707)
(-0.041835428 -0.049124136 -0.015254383)
(-0.04883391 -0.053231382 -0.014873)
(-0.056253443 -0.0574055 -0.014519105)
(-0.064194789 -0.061429844 -0.014099979)
(-0.072480034 -0.065492396 -0.013749653)
(-0.081245438 -0.069415421 -0.013332022)
(-0.090360425 -0.073407384 -0.013016444)
(-0.09988399 -0.077203413 -0.012649093)
(-0.10976073 -0.08108386 -0.012333044)
(-0.11998719 -0.084805969 -0.012015437)
(-0.13056524 -0.088573526 -0.011743111)
(-0.14144407 -0.092192585 -0.011459161)
(-0.15266225 -0.095865758 -0.011219454)
(-0.16414797 -0.099405822 -0.010985922)
(-0.17596282 -0.10297289 -0.010762876)
(-0.1880209 -0.10645727 -0.010567501)
(-0.20037183 -0.1099262 -0.010379879)
(-0.21295388 -0.11334617 -0.01021033)
(-0.22581835 -0.11675275 -0.010039006)
(-0.23889123 -0.12011456 -0.0098933822)
(-0.2522233 -0.12346517 -0.0097448991)
(-0.26574988 -0.12677784 -0.0096099479)
(-0.27951867 -0.13009382 -0.009479167)
(-0.2934788 -0.1333676 -0.0093565317)
(-0.30765289 -0.13665378 -0.0092328004)
(-0.32202035 -0.13990876 -0.0091200979)
(-0.33657592 -0.14316573 -0.0090138089)
(-0.35132006 -0.14640631 -0.0089142926)
(-0.36623714 -0.14963689 -0.0088108195)
(-0.38132925 -0.15286912 -0.0087236759)
(-0.39658651 -0.15607731 -0.0086393032)
(-0.41200021 -0.15929404 -0.0085658411)
(-0.42757706 -0.16248817 -0.0084948914)
(-0.44329814 -0.16568022 -0.0084386541)
(-0.45916438 -0.16885169 -0.0083874044)
(-0.47516851 -0.17201645 -0.0083466238)
(-0.49130262 -0.17515924 -0.0083146014)
(-0.50756705 -0.17829045 -0.0082899797)
(-0.52394766 -0.18139787 -0.0082738697)
(-0.54044846 -0.18448915 -0.0082640699)
(-0.55705455 -0.18755605 -0.0082600881)
(-0.5737685 -0.19060192 -0.0082612083)
(-0.59057773 -0.19362377 -0.0082658464)
(-0.6074821 -0.19662097 -0.0082736025)
(-0.62447143 -0.19959422 -0.0082830812)
(-0.64154305 -0.20254098 -0.0082946371)
(-0.65868858 -0.20546322 -0.0083067492)
(-0.6759036 -0.20835914 -0.0083203974)
(-0.6931808 -0.21122928 -0.0083353418)
(-0.71051493 -0.21407328 -0.0083524192)
(-0.72789856 -0.21689191 -0.0083718231)
(-0.74532753 -0.21968392 -0.0083954712)
(-0.76279239 -0.22245023 -0.008424469)
(-0.78029364 -0.22519038 -0.008457813)
(-0.79781545 -0.22790614 -0.0085017457)
(-0.81536228 -0.23059394 -0.0085521493)
(-0.83292672 -0.23325752 -0.008613313)
(-0.85049995 -0.23589638 -0.0086835829)
(-0.86808262 -0.23850919 -0.0087654323)
(-0.88566578 -0.241101 -0.0088583252)
(-0.90325333 -0.24366845 -0.0089631167)
(-0.92083524 -0.24621509 -0.0090786562)
(-0.93841518 -0.24874366 -0.0092036848)
(-0.95598719 -0.25125154 -0.009339274)
(-0.97355315 -0.25374774 -0.0094807764)
(-0.99111095 -0.25622503 -0.0096312835)
(-1.0086598 -0.25869717 -0.0097842197)
(-1.0262019 -0.26115412 -0.0099438435)
(-1.0437345 -0.26361149 -0.010102104)
(-1.0612612 -0.26605779 -0.010266077)
(-1.078782 -0.26850898 -0.010424562)
(-1.0962944 -0.27095616 -0.010587745)
(-1.1138074 -0.2734076 -0.010745775)
(-1.13131 -0.27586238 -0.010905393)
(-1.1488177 -0.27832098 -0.01106184)
(-1.166315 -0.28078847 -0.011218784)
(-1.1838208 -0.2832566 -0.011374541)
(-1.2013146 -0.28573771 -0.01153201)
(-1.2188195 -0.28821669 -0.01168991)
(-1.2363125 -0.29070888 -0.01185234)
(-1.2538149 -0.29319778 -0.012015433)
(-1.271309 -0.29569638 -0.012185991)
(-1.2888082 -0.29819325 -0.012356874)
(-1.3063025 -0.30069319 -0.012535333)
(-1.3238027 -0.30319097 -0.012713067)
(-0.0030978281 0.0074410646 0.0099075423)
(-0.0064823265 0.011236847 0.010159963)
(-0.0086137806 0.015679941 0.013166848)
(-0.011183126 0.0195922 0.01378816)
(-0.014867513 0.023868246 0.01461367)
(-0.018908673 0.028255074 0.014826159)
(-0.023671731 0.032250888 0.014945023)
(-0.029036248 0.036475506 0.014763494)
(-0.035078148 0.040411033 0.014546406)
(-0.041594351 0.044291445 0.014194211)
(-0.048773739 0.048010509 0.013801772)
(-0.056386503 0.051568486 0.013360042)
(-0.064575643 0.054975783 0.012883984)
(-0.073198679 0.058208269 0.01240767)
(-0.08232205 0.061264885 0.011892578)
(-0.091851887 0.064154097 0.011396594)
(-0.10183681 0.066854562 0.010867929)
(-0.11218744 0.069383596 0.010356622)
(-0.12295315 0.07174794 0.009836846)
(-0.13405578 0.073914214 0.0093219509)
(-0.14552207 0.075935094 0.0088005708)
(-0.15731356 0.077780043 0.0083015828)
(-0.16941434 0.079456904 0.0077909157)
(-0.18181922 0.080988008 0.0073032029)
(-0.19450726 0.082354106 0.0068182628)
(-0.20746267 0.083576434 0.0063454835)
(-0.22067762 0.084656578 0.005895727)
(-0.23412783 0.085589333 0.005450514)
(-0.24782497 0.086398001 0.0050286286)
(-0.26172396 0.087058631 0.0046176906)
(-0.27585383 0.087613149 0.0042250202)
(-0.29017151 0.088025942 0.0038522712)
(-0.30470202 0.088334514 0.0034903122)
(-0.31940324 0.088511811 0.0031482458)
(-0.33430537 0.088589512 0.0028128665)
(-0.3493641 0.088541495 0.0024981638)
(-0.36460874 0.088393572 0.0021750786)
(-0.38000708 0.088137675 0.0018755871)
(-0.39557262 0.087776902 0.00156832)
(-0.41128815 0.087314094 0.0012701047)
(-0.42715909 0.08675169 0.00096596551)
(-0.44316858 0.086090707 0.00066399544)
(-0.45932406 0.085334546 0.00035393712)
(-0.47560825 0.08448471 4.2654164e-05)
(-0.49202496 0.083543646 -0.000277407)
(-0.50856148 0.082513902 -0.0006014383)
(-0.52521592 0.081397705 -0.0009326175)
(-0.54197901 0.080197694 -0.0012684331)
(-0.55884656 0.0789165 -0.0016093731)
(-0.57580901 0.077556462 -0.0019531422)
(-0.59286279 0.076120532 -0.0022996653)
(-0.60999779 0.074611178 -0.0026461689)
(-0.62720969 0.073030675 -0.0029925591)
(-0.64449039 0.071382271 -0.0033362437)
(-0.66183383 0.069667761 -0.0036769374)
(-0.6792332 0.067889998 -0.0040127413)
(-0.69668338 0.066051604 -0.0043436623)
(-0.71417686 0.064154655 -0.0046681678)
(-0.73170968 0.062202061 -0.0049868718)
(-0.74927543 0.060196142 -0.0052988039)
(-0.76686962 0.058139743 -0.0056049274)
(-0.78448682 0.05603522 -0.0059044369)
(-0.80212375 0.053886203 -0.0061989823)
(-0.81977429 0.05169444 -0.0064874774)
(-0.8374362 0.049464596 -0.0067715598)
(-0.85510437 0.047198461 -0.0070506895)
(-0.87277563 0.04490008 -0.0073245284)
(-0.89044671 0.042573429 -0.0075949189)
(-0.90811413 0.040219293 -0.0078593628)
(-0.92577274 0.037844635 -0.0081166948)
(-0.94342271 0.035452208 -0.0083699197)
(-0.96106224 0.033041691 -0.0086155697)
(-0.97868899 0.030621968 -0.0088534772)
(-0.99629717 0.028189831 -0.0090818107)
(-1.0138928 0.025752527 -0.0093019147)
(-1.0314689 0.023309212 -0.0095104781)
(-1.0490293 0.020863486 -0.0097096678)
(-1.0665726 0.01841519 -0.0098975618)
(-1.0841009 0.015966982 -0.010076275)
(-1.1016132 0.013517675 -0.010243872)
(-1.1191148 0.011069524 -0.010404596)
(-1.1366027 0.008620049 -0.010555711)
(-1.1540842 0.0061714223 -0.010703452)
(-1.1715556 0.0037204543 -0.01084434)
(-1.1890251 0.0012692176 -0.01098581)
(-1.2064879 -0.0011860593 -0.01112416)
(-1.2239524 -0.0036430024 -0.011266755)
(-1.241414 -0.0061053112 -0.011410337)
(-1.2588787 -0.0085707506 -0.011560645)
(-1.2763436 -0.01104213 -0.011715623)
(-1.293812 -0.013517261 -0.011878487)
(-1.3112819 -0.015998084 -0.012048015)
(-1.328754 -0.018483005 -0.012224452)
(-1.3462276 -0.0209708 -0.012408247)
(-1.3636976 -0.023464474 -0.012594237)
(0 -1.9412771e-18 0)
(0 -1.4445046e-18 0)
(0 1.3653616e-18 0)
(0 -8.6389766e-19 0)
(0 -7.3717636e-19 0)
(0 4.058659e-18 0)
(0 -1.180336e-18 0)
(-2.6932764e-18 7.5283893e-19 0)
(0 -6.7481366e-19 0)
(0 1.6215257e-18 0)
(0 1.9234672e-18 0)
(0 6.717824e-19 0)
(0 3.5821459e-19 0)
(0 -7.3910358e-19 0)
(0 5.1199456e-19 0)
(-0.0053672853 0.0034593179 -0.0073720032)
(-0.0074347925 0.013224409 -0.010786132)
(-0.0086529278 0.014368225 -0.012204855)
(-0.012157061 0.020999176 -0.014108414)
(-0.015159872 0.024056142 -0.014662529)
(-0.01955551 0.029104044 -0.015043109)
(-0.024145879 0.032903293 -0.015203844)
(-0.029678695 0.037476673 -0.01520988)
(-0.035624656 0.041269953 -0.015068641)
(-0.042232387 0.045488518 -0.014903414)
(-0.049394732 0.049113848 -0.014676556)
(-0.057014748 0.052876866 -0.014399062)
(-0.065226041 0.056336907 -0.014141689)
(-0.073836126 0.059675095 -0.013831513)
(-0.082978123 0.062829379 -0.013570653)
(-0.092507606 0.065794094 -0.013257126)
(-0.10247008 0.06859267 -0.013025571)
(-0.11283113 0.071208017 -0.012722763)
(-0.12356989 0.073605559 -0.012493647)
(-0.13468456 0.07591218 -0.012238851)
(-0.14611244 0.077909152 -0.012024496)
(-0.1579092 0.079892764 -0.011804064)
(-0.16997112 0.08155184 -0.011590097)
(-0.18237822 0.083200081 -0.011425991)
(-0.19502001 0.084512117 -0.011217538)
(-0.20798758 0.085849947 -0.011068963)
(-0.22116241 0.08687257 -0.010891926)
(-0.23461947 0.08789437 -0.010752135)
(-0.24829352 0.088651231 -0.010591412)
(-0.2621962 0.089376791 -0.0104656)
(-0.27632185 0.089885898 -0.010316556)
(-0.29065738 0.090335928 -0.010196066)
(-0.3051895 0.090613983 -0.010059365)
(-0.31992243 0.090816786 -0.0099407441)
(-0.33484048 0.090879384 -0.0098168087)
(-0.34993879 0.090841423 -0.0096980308)
(-0.36520736 0.09070778 -0.0095829098)
(-0.38065522 0.090466676 -0.0094749993)
(-0.39625214 0.090120252 -0.0093691976)
(-0.41201407 0.089686079 -0.0092703034)
(-0.42792018 0.089149166 -0.0091754966)
(-0.44397212 0.08852589 -0.0090906146)
(-0.4601588 0.087806007 -0.0090101396)
(-0.47647772 0.086999717 -0.008940082)
(-0.49291866 0.086102148 -0.0088765198)
(-0.50947887 0.085119131 -0.0088224742)
(-0.52614902 0.084048558 -0.0087757117)
(-0.54292502 0.082894125 -0.0087371346)
(-0.55979885 0.081656152 -0.0087061564)
(-0.5767653 0.080336453 -0.0086814605)
(-0.59381763 0.078937612 -0.0086640461)
(-0.61094996 0.077460029 -0.0086502419)
(-0.6281568 0.07590823 -0.0086430986)
(-0.64543093 0.074281669 -0.0086377529)
(-0.66276854 0.072586787 -0.0086378407)
(-0.68016171 0.070821963 -0.0086387988)
(-0.69760659 0.068994882 -0.0086445436)
(-0.71509657 0.067104591 -0.0086513883)
(-0.73262634 0.065157364 -0.008662421)
(-0.75019103 0.063154705 -0.0086763213)
(-0.76778442 0.06110106 -0.0086947208)
(-0.7854022 0.058998968 -0.0087177292)
(-0.80303889 0.056852776 -0.0087470273)
(-0.82068934 0.054664666 -0.0087828176)
(-0.83834955 0.052438622 -0.0088264848)
(-0.85601438 0.050178267 -0.008879389)
(-0.87367992 0.047882929 -0.0089399271)
(-0.89133989 0.045565973 -0.009015449)
(-0.90900611 0.043213778 -0.0090946686)
(-0.92664169 0.040845429 -0.0091904864)
(-0.9442799 0.03845249 -0.0092927083)
(-0.96189987 0.036043596 -0.009408388)
(-0.97950448 0.033617976 -0.0095313551)
(-0.99709391 0.031179323 -0.0096635331)
(-1.0146667 0.028729932 -0.0098023041)
(-1.0322241 0.026271256 -0.0099469532)
(-1.0497662 0.023805835 -0.010095309)
(-1.0672955 0.021334933 -0.010246434)
(-1.0848123 0.01886082 -0.010398235)
(-1.1023196 0.016383829 -0.010549681)
(-1.1198184 0.013906513 -0.010699172)
(-1.1373122 0.011428492 -0.010846468)
(-1.1548005 0.0089515865 -0.010990121)
(-1.1722879 0.0064753245 -0.011130859)
(-1.1897725 0.0040011128 -0.011268173)
(-1.2072581 0.0015275027 -0.011403022)
(-1.2247429 -0.00094386528 -0.011535892)
(-1.242229 -0.003415355 -0.011668144)
(-1.2597146 -0.0058850889 -0.011800834)
(-1.2772004 -0.0083567363 -0.011934782)
(-1.2946856 -0.010827267 -0.012072061)
(-1.3121685 -0.013302148 -0.012212048)
(-1.3296507 -0.015777276 -0.012356745)
(-1.3471276 -0.018259967 -0.012504379)
(-1.3646045 -0.020744762 -0.012654254)
(-1.3795836 -0.040709039 -0.012810298)
(-1.3770857 -0.058184696 -0.012814266)
(-1.3745973 -0.075657979 -0.012819798)
(-1.3720957 -0.093137773 -0.012823816)
(-1.3696085 -0.1106119 -0.012830059)
(-1.3671035 -0.1280941 -0.012833605)
(-1.3646146 -0.14557031 -0.012839515)
(-1.3621108 -0.16305234 -0.01284404)
(-1.3596193 -0.18053051 -0.012850499)
(-1.3571156 -0.19801376 -0.012854912)
(-1.3546225 -0.21549238 -0.012861355)
(-1.3521221 -0.23297755 -0.012863682)
(-1.3496258 -0.250459 -0.012870091)
(-1.347128 -0.26794539 -0.012871683)
(-1.3446321 -0.28543286 -0.012874174)
(-1.3246425 -0.30042763 -0.012714422)
(-1.3071426 -0.29793831 -0.012553964)
(-1.2896459 -0.29545047 -0.01239625)
(-1.2721476 -0.29296681 -0.012241953)
(-1.2546548 -0.29048619 -0.01209533)
(-1.2371623 -0.28800769 -0.011953236)
(-1.2196752 -0.28553118 -0.011816808)
(-1.2021894 -0.28305634 -0.011684833)
(-1.184707 -0.2805825 -0.011555658)
(-1.1672249 -0.27810952 -0.011428053)
(-1.1497423 -0.27563732 -0.01129974)
(-1.1322578 -0.27316465 -0.011169429)
(-1.1147691 -0.27069247 -0.011034808)
(-1.0972736 -0.2682188 -0.01089431)
(-1.0797723 -0.265744 -0.010747033)
(-1.0622605 -0.26326683 -0.010590965)
(-1.0447385 -0.26078639 -0.01042494)
(-1.0272053 -0.2583014 -0.010248868)
(-1.00966 -0.25581145 -0.010061972)
(-0.99210332 -0.25331389 -0.0098648415)
(-0.97453519 -0.25080848 -0.0096575616)
(-0.95695771 -0.24829239 -0.0094407893)
(-0.9393712 -0.24576509 -0.0092152938)
(-0.92177981 -0.24322329 -0.0089821688)
(-0.9041834 -0.24066729 -0.0087418196)
(-0.88658829 -0.23809324 -0.0084966671)
(-0.86899593 -0.23549911 -0.0082445271)
(-0.85141531 -0.23288498 -0.007991052)
(-0.83383466 -0.23024887 -0.007727528)
(-0.81627546 -0.22758964 -0.0074642183)
(-0.79873389 -0.2249053 -0.0071943579)
(-0.78121485 -0.22219567 -0.0069200205)
(-0.76372369 -0.21945913 -0.0066410596)
(-0.74626398 -0.21669623 -0.0063557064)
(-0.72884144 -0.21390588 -0.0060643331)
(-0.7114595 -0.21108909 -0.0057661285)
(-0.69412458 -0.20824514 -0.0054604648)
(-0.67684051 -0.2053757 -0.0051475776)
(-0.6596142 -0.2024804 -0.0048272696)
(-0.64244982 -0.19956117 -0.0044998974)
(-0.62535498 -0.19661815 -0.0041660591)
(-0.60833447 -0.19365335 -0.0038269763)
(-0.5913962 -0.19066723 -0.0034832433)
(-0.57454566 -0.18766165 -0.0031369726)
(-0.55779106 -0.18463741 -0.0027891257)
(-0.5411383 -0.18159597 -0.0024417602)
(-0.52459565 -0.17853828 -0.0020961927)
(-0.50816913 -0.17546534 -0.0017543438)
(-0.49186705 -0.17237805 -0.0014168291)
(-0.47569463 -0.16927729 -0.0010856428)
(-0.45966129 -0.16616288 -0.00076068976)
(-0.44376859 -0.16303682 -0.00044219244)
(-0.42803072 -0.15989605 -0.00013133029)
(-0.4124416 -0.15674673 0.00017647603)
(-0.39702214 -0.15357861 0.00047473911)
(-0.38176138 -0.15040554 0.00077500959)
(-0.36667167 -0.14721593 0.0010713831)
(-0.35175846 -0.14400211 0.0013715518)
(-0.33704079 -0.14078885 0.0016689081)
(-0.32247592 -0.1375609 0.0019819831)
(-0.30812432 -0.13429469 0.0023000516)
(-0.29396524 -0.1310395 0.0026266181)
(-0.27999933 -0.12775115 0.0029684158)
(-0.26622916 -0.12444566 0.0033248863)
(-0.25268252 -0.12110706 0.0037081734)
(-0.23935667 -0.11777305 0.0040964068)
(-0.22624395 -0.11438655 0.0045132712)
(-0.21338367 -0.11099577 0.0049364506)
(-0.20074539 -0.10757015 0.0053974288)
(-0.18837395 -0.10411296 0.0058596192)
(-0.17625855 -0.1006397 0.0063500069)
(-0.16442179 -0.09710119 0.006853147)
(-0.15289304 -0.093567556 0.007367126)
(-0.14162188 -0.089979351 0.0078925398)
(-0.13069476 -0.086338558 0.0084453282)
(-0.12009803 -0.082686855 0.0089764935)
(-0.10980609 -0.078974426 0.0095664931)
(-0.099923079 -0.07521368 0.010092574)
(-0.090340571 -0.071449744 0.010704883)
(-0.081219648 -0.067552136 0.011250387)
(-0.0724434 -0.063755587 0.011847182)
(-0.064088344 -0.059720645 0.012363736)
(-0.056139715 -0.055832515 0.012994652)
(-0.048732473 -0.051677248 0.013483567)
(-0.041672527 -0.047808521 0.014070532)
(-0.035196994 -0.043559826 0.014504234)
(-0.029193027 -0.039553496 0.014957163)
(-0.023804357 -0.035322144 0.015231762)
(-0.018865829 -0.031294757 0.015472824)
(-0.014685433 -0.027126306 0.015457679)
(-0.011081821 -0.022979125 0.01510456)
(-0.0084491392 -0.01880039 0.014428262)
(-0.0061893777 -0.015420183 0.013308387)
(-0.0050460193 -0.010917628 0.010336283)
(-0.0063167424 -0.0076523756 0.0058415836)
(0 2.182848e-18 0)
(0 8.2954495e-19 0)
(0 2.1530963e-18 0)
(0 2.167444e-18 0)
(0 2.2590014e-18 0)
(0 1.3585256e-18 0)
(0 5.4156698e-20 0)
(0 -1.230991e-18 -1.350674e-18)
(0 1.4576558e-19 0)
(0 1.3104825e-18 0)
(0 3.1599955e-18 0)
(0 2.7688152e-18 0)
(0 1.9819628e-18 0)
(0 1.9154129e-18 0)
(0 2.187246e-18 0)
(0 8.9803053e-18 0)
(0 3.8236946e-18 0)
(0 1.4031872e-18 0)
(0 2.5326817e-18 0)
(0 -2.2050298e-19 0)
(0 5.9033178e-19 0)
(0 6.7267985e-18 0)
(0 -2.7373889e-18 -1.1870171e-18)
(0 4.0011673e-18 0)
(0 5.0018802e-18 0)
(0 1.6529529e-18 0)
(0 6.7658745e-19 0)
(0 1.570418e-18 0)
(0 2.8313577e-18 0)
(0 3.6418811e-19 0)
(-1.3812178 -0.025777963 -0.012782109)
(-1.3812752 -0.025602753 -0.012785224)
(-1.3813339 -0.025425525 -0.012790331)
(-1.3813945 -0.025248257 -0.01279871)
(-1.3814571 -0.025068212 -0.012805628)
(-1.3815212 -0.024888573 -0.01281392)
(-1.3815854 -0.024706967 -0.01281978)
(-1.3816494 -0.024527798 -0.012824619)
(-1.3817121 -0.024349807 -0.012825979)
(-1.3817721 -0.024175798 -0.012827148)
(-1.3818287 -0.024005993 -0.012823973)
(-1.3818826 -0.023842195 -0.012820704)
(-1.3819321 -0.023683019 -0.012815719)
(-1.3819797 -0.023531545 -0.012811684)
(-1.3820248 -0.023381082 -0.012805899)
(-1.3413577 -0.30552145 -0.01289397)
(-1.3414183 -0.30535161 -0.012897526)
(-1.3414778 -0.30517987 -0.012900762)
(-1.3415362 -0.30500442 -0.012904577)
(-1.3415926 -0.30482521 -0.012907945)
(-1.3416474 -0.30464268 -0.012909626)
(-1.3417001 -0.30445841 -0.012910289)
(-1.3417513 -0.30427295 -0.012908443)
(-1.3418009 -0.30408901 -0.012905342)
(-1.3418494 -0.30390752 -0.012900308)
(-1.3418973 -0.30373058 -0.012894465)
(-1.3419447 -0.30355891 -0.012887872)
(-1.341992 -0.30339367 -0.012882057)
(-1.3420399 -0.30323505 -0.012877075)
(-1.3420876 -0.30307942 -0.012875224)
(-0.0020354803 -0.0089643964 -0.0080568933)
(-0.0034918145 -0.014055148 -0.009529512)
(-0.0048553247 -0.020178672 -0.011739585)
(-0.0074646766 -0.025775709 -0.012617007)
(-0.0099893907 -0.031383014 -0.013520059)
(-0.013733677 -0.037002535 -0.013844545)
(-0.017705075 -0.042579379 -0.014059279)
(-0.022621955 -0.04824643 -0.014034634)
(-0.027780008 -0.053729199 -0.013963415)
(-0.033725226 -0.05930589 -0.013758793)
(-0.040000679 -0.064644574 -0.013510517)
(-0.046905144 -0.070059799 -0.013241794)
(-0.054141561 -0.075177055 -0.012932553)
(-0.061921616 -0.080334302 -0.0126273)
(-0.070032844 -0.085205733 -0.012309999)
(-0.078655039 -0.090053537 -0.012011757)
(-0.087599565 -0.094651529 -0.011697741)
(-0.096943968 -0.099126428 -0.01142809)
(-0.10667929 -0.10342985 -0.011142486)
(-0.11676454 -0.10754745 -0.010886684)
(-0.12719359 -0.11149964 -0.010644034)
(-0.13796519 -0.11524578 -0.010419638)
(-0.14907857 -0.11885839 -0.010197684)
(-0.16048352 -0.12223398 -0.010011186)
(-0.17222971 -0.1254719 -0.0098207416)
(-0.18424796 -0.1285012 -0.0096524848)
(-0.19657543 -0.13137596 -0.0094952631)
(-0.20917096 -0.13405785 -0.0093500745)
(-0.22205707 -0.13658152 -0.0092148621)
(-0.23519574 -0.13893499 -0.0090848998)
(-0.24859974 -0.14113302 -0.0089658872)
(-0.262255 -0.14317797 -0.0088515956)
(-0.27615778 -0.14507934 -0.0087471434)
(-0.29029217 -0.14683493 -0.0086450479)
(-0.30466571 -0.14847476 -0.0085449927)
(-0.31925634 -0.14997487 -0.0084559767)
(-0.33407083 -0.15137742 -0.0083667481)
(-0.34908953 -0.15266525 -0.0082826885)
(-0.36432203 -0.1538656 -0.0082058766)
(-0.37974546 -0.1549721 -0.0081359479)
(-0.3953654 -0.15600384 -0.0080741175)
(-0.41116438 -0.15695275 -0.0080141896)
(-0.42714069 -0.15785528 -0.0079692965)
(-0.44329165 -0.15868902 -0.0079284587)
(-0.45959607 -0.15948386 -0.0078976002)
(-0.47605813 -0.16023725 -0.0078770307)
(-0.49266436 -0.16095958 -0.0078629005)
(-0.50940802 -0.16166083 -0.0078598152)
(-0.52628054 -0.16234619 -0.0078625268)
(-0.54327495 -0.16302688 -0.0078735343)
(-0.56038047 -0.16370968 -0.0078892787)
(-0.5775913 -0.16440344 -0.0079114774)
(-0.59489634 -0.16511785 -0.0079358826)
(-0.61228931 -0.16586022 -0.0079647528)
(-0.62975921 -0.16664077 -0.0079947991)
(-0.64729941 -0.16746664 -0.0080272647)
(-0.66489922 -0.16834833 -0.0080602752)
(-0.6825516 -0.16929201 -0.0080954319)
(-0.70024636 -0.17030728 -0.0081317006)
(-0.71797597 -0.17140137 -0.0081702361)
(-0.73573148 -0.17258132 -0.0082114685)
(-0.75350489 -0.17385412 -0.008257174)
(-0.77128836 -0.17522599 -0.0083069606)
(-0.78907513 -0.17670297 -0.0083634878)
(-0.80685411 -0.17829081 -0.0084262144)
(-0.82462912 -0.17999142 -0.0084983327)
(-0.84238326 -0.18181721 -0.0085754784)
(-0.86011458 -0.18376128 -0.0086664179)
(-0.87781977 -0.18583232 -0.0087643835)
(-0.89549257 -0.18803243 -0.0088740711)
(-0.913133 -0.19036558 -0.0089924321)
(-0.93073633 -0.1928327 -0.0091197589)
(-0.94830202 -0.19543638 -0.0092543324)
(-0.96582702 -0.19817628 -0.0093966399)
(-0.98331251 -0.20105611 -0.0095439754)
(-1.0007576 -0.20407122 -0.0096974432)
(-1.0181623 -0.20722828 -0.0098524055)
(-1.0355298 -0.21051818 -0.010011556)
(-1.0528581 -0.21394906 -0.010169632)
(-1.0701533 -0.21750796 -0.010330418)
(-1.0874128 -0.22120407 -0.010487221)
(-1.1046416 -0.22502288 -0.010646604)
(-1.1218421 -0.22896747 -0.010801627)
(-1.1390142 -0.23302875 -0.010956852)
(-1.156165 -0.23720415 -0.011109023)
(-1.1732914 -0.24148335 -0.011261435)
(-1.1904005 -0.24586304 -0.011413402)
(-1.2074884 -0.25033044 -0.011566018)
(-1.2245651 -0.25488252 -0.011720317)
(-1.241622 -0.25950413 -0.011876919)
(-1.2586731 -0.26419069 -0.012036515)
(-1.275708 -0.26892792 -0.012200056)
(-1.2927392 -0.27370869 -0.012366283)
(-1.3097609 -0.27851924 -0.012537447)
(-1.3267817 -0.28335093 -0.012710256)
(-0.00033998115 -0.010147627 -0.006616395)
(-0.0015864625 -0.01528007 -0.0086160808)
(-0.003984442 -0.023769689 -0.0098205537)
(-0.0060618204 -0.030103103 -0.011091109)
(-0.0091021625 -0.037506123 -0.011539734)
(-0.012534843 -0.044242514 -0.011954653)
(-0.016719833 -0.051329851 -0.012052236)
(-0.021278412 -0.058032114 -0.012149832)
(-0.026561479 -0.064823062 -0.012077494)
(-0.032265565 -0.071336085 -0.011933604)
(-0.038511309 -0.077820538 -0.011795043)
(-0.045207952 -0.084034533 -0.011533142)
(-0.052375263 -0.090163147 -0.011351074)
(-0.059963383 -0.095971165 -0.011062137)
(-0.067991931 -0.10167072 -0.010866079)
(-0.076441288 -0.10703345 -0.010550649)
(-0.085236895 -0.11223127 -0.010373998)
(-0.094488111 -0.11708929 -0.010092236)
(-0.10407226 -0.12175614 -0.0098974408)
(-0.11404013 -0.12605359 -0.0096650146)
(-0.12436741 -0.13015458 -0.0094832767)
(-0.13504884 -0.13389004 -0.0092745905)
(-0.14606701 -0.13738952 -0.0091200829)
(-0.1574207 -0.14053754 -0.0089502005)
(-0.16910908 -0.14343442 -0.0088079364)
(-0.18110824 -0.14600073 -0.0086661454)
(-0.19342827 -0.14829682 -0.008548189)
(-0.20603984 -0.15027763 -0.0084297529)
(-0.21896144 -0.15199814 -0.0083246985)
(-0.23216089 -0.15342051 -0.008225232)
(-0.24565572 -0.15458552 -0.0081386801)
(-0.25941366 -0.15547828 -0.0080494267)
(-0.27344755 -0.15612949 -0.0079712731)
(-0.28773791 -0.15653703 -0.0078924153)
(-0.30228921 -0.15672168 -0.0078223939)
(-0.31708403 -0.15669199 -0.0077528817)
(-0.33212988 -0.15646826 -0.0076895724)
(-0.34740329 -0.15605505 -0.0076321076)
(-0.36290226 -0.15547187 -0.0075784254)
(-0.37862112 -0.15474301 -0.0075304366)
(-0.3945524 -0.15386554 -0.0074867949)
(-0.41068263 -0.15287778 -0.0074568239)
(-0.4270206 -0.15177569 -0.0074225099)
(-0.4435284 -0.15058642 -0.0074118114)
(-0.46022193 -0.14932535 -0.0073991171)
(-0.47708024 -0.14800446 -0.0074015772)
(-0.4940943 -0.14664228 -0.0074102219)
(-0.51125555 -0.14525587 -0.0074296011)
(-0.52855291 -0.14385974 -0.0074544265)
(-0.54597536 -0.1424725 -0.0074888282)
(-0.56351173 -0.14110958 -0.0075272501)
(-0.58115274 -0.1397881 -0.0075720821)
(-0.59888453 -0.13852592 -0.0076194294)
(-0.61669891 -0.13733758 -0.0076711197)
(-0.63458181 -0.13624233 -0.0077235548)
(-0.6525246 -0.13525428 -0.0077784991)
(-0.67051381 -0.13439115 -0.0078338808)
(-0.68854055 -0.13366653 -0.0078913772)
(-0.70659181 -0.13309764 -0.0079493005)
(-0.7246594 -0.13269637 -0.0080099409)
(-0.74273055 -0.13247752 -0.0080732088)
(-0.76079792 -0.13245319 -0.0081399437)
(-0.77885055 -0.13263433 -0.0082115335)
(-0.79687931 -0.13303345 -0.0082879183)
(-0.81487927 -0.13365773 -0.0083721318)
(-0.83284054 -0.13451816 -0.0084622305)
(-0.85075338 -0.13562074 -0.0085618124)
(-0.8686214 -0.13696932 -0.0086694959)
(-0.88643139 -0.13857663 -0.0087830047)
(-0.90418178 -0.14044248 -0.0089054531)
(-0.92186939 -0.14257386 -0.0090339551)
(-0.93949066 -0.1449685 -0.00917118)
(-0.95704445 -0.14763334 -0.0093132081)
(-0.97452985 -0.15056399 -0.0094618484)
(-0.99194761 -0.1537657 -0.0096131584)
(-1.0092982 -0.15723036 -0.0097688237)
(-1.0265822 -0.16096473 -0.0099235462)
(-1.0438028 -0.16495431 -0.01008235)
(-1.0609605 -0.16920674 -0.01023721)
(-1.0780598 -0.17370299 -0.01039504)
(-1.0951021 -0.17845064 -0.01054715)
(-1.1120912 -0.18342644 -0.010701846)
(-1.1290322 -0.18863413 -0.010851548)
(-1.1459242 -0.19405521 -0.011000799)
(-1.162776 -0.19968276 -0.011149843)
(-1.1795853 -0.20550016 -0.011297854)
(-1.1963634 -0.21149348 -0.011446278)
(-1.2131024 -0.21765204 -0.011595041)
(-1.22982 -0.22395396 -0.011745968)
(-1.2465035 -0.23038844 -0.011898957)
(-1.2631732 -0.23693279 -0.012054555)
(-1.2798173 -0.24357338 -0.012213732)
(-1.2964509 -0.25028863 -0.012375297)
(-1.3130712 -0.25706018 -0.012541485)
(-1.3296853 -0.26387008 -0.012707124)
(0.00046458525 -0.0098832634 -0.005809558)
(-0.00099566544 -0.01672763 -0.006983848)
(-0.0024243813 -0.025101361 -0.0084310109)
(-0.0050527024 -0.032781383 -0.0092282427)
(-0.0079119946 -0.04062198 -0.0096475615)
(-0.011649611 -0.048400285 -0.0099148726)
(-0.015570911 -0.055965758 -0.01011552)
(-0.020401497 -0.063519796 -0.01015501)
(-0.025475167 -0.070727099 -0.01011397)
(-0.031220588 -0.078012143 -0.010060068)
(-0.037338328 -0.084843203 -0.0099131145)
(-0.044033154 -0.091701993 -0.0097884166)
(-0.051065342 -0.098091755 -0.0095956315)
(-0.058629681 -0.10443119 -0.0094441051)
(-0.066557366 -0.1103448 -0.0092111601)
(-0.07491116 -0.11604352 -0.0090818859)
(-0.083678802 -0.12140405 -0.0088535362)
(-0.092830039 -0.12644168 -0.0086981235)
(-0.1023513 -0.1311598 -0.0085148192)
(-0.11226855 -0.13549949 -0.0083688088)
(-0.12254599 -0.13953299 -0.008201006)
(-0.13318008 -0.14314065 -0.0080795188)
(-0.14417493 -0.14644518 -0.0079406907)
(-0.15550964 -0.14932085 -0.0078286833)
(-0.16719035 -0.15187719 -0.0077175425)
(-0.17919477 -0.15401406 -0.0076255586)
(-0.19153226 -0.15581952 -0.0075382498)
(-0.20418155 -0.15723313 -0.0074568035)
(-0.21714765 -0.15830719 -0.0073905537)
(-0.23041433 -0.15901046 -0.0073243937)
(-0.24398058 -0.15938975 -0.0072657873)
(-0.25783447 -0.15942568 -0.0072106383)
(-0.2719801 -0.15915472 -0.0071624935)
(-0.28639564 -0.15857073 -0.0071147037)
(-0.30108965 -0.15770613 -0.0070724757)
(-0.31603961 -0.1565699 -0.0070310295)
(-0.33124685 -0.15517573 -0.0069982305)
(-0.34669394 -0.15354972 -0.0069649785)
(-0.36240484 -0.15171625 -0.0069379963)
(-0.3783407 -0.14967674 -0.0069093218)
(-0.3945006 -0.1474769 -0.0068976201)
(-0.41087991 -0.14511568 -0.0068777584)
(-0.42746134 -0.14262355 -0.0068852061)
(-0.44424182 -0.14002373 -0.0068874265)
(-0.46121212 -0.13733187 -0.0069020823)
(-0.47835163 -0.13457321 -0.0069275294)
(-0.4956587 -0.13176886 -0.0069593836)
(-0.51311633 -0.12894102 -0.0070009275)
(-0.53071483 -0.12611067 -0.0070500134)
(-0.54843983 -0.12330088 -0.0071070002)
(-0.56628142 -0.1205338 -0.0071679329)
(-0.58422408 -0.11783099 -0.0072360517)
(-0.60225687 -0.11521576 -0.0073055285)
(-0.62036599 -0.11270852 -0.0073796407)
(-0.6385385 -0.11033326 -0.007453731)
(-0.65676198 -0.10810871 -0.0075305203)
(-0.67502309 -0.10605788 -0.0076071011)
(-0.69330983 -0.10419949 -0.0076852265)
(-0.71160963 -0.10255371 -0.0077635146)
(-0.72991088 -0.10113784 -0.0078446211)
(-0.74820204 -0.099970517 -0.0079265658)
(-0.76647264 -0.099066602 -0.008012685)
(-0.7847114 -0.098441709 -0.0081019152)
(-0.80291047 -0.098110575 -0.0081963925)
(-0.82106088 -0.098081886 -0.0082968517)
(-0.8391502 -0.098371959 -0.0084032341)
(-0.85718023 -0.098989537 -0.0085170953)
(-0.87513425 -0.099932584 -0.0086368842)
(-0.89301919 -0.10122249 -0.0087656572)
(-0.91081977 -0.1028606 -0.0088994211)
(-0.92853919 -0.10484755 -0.0090406084)
(-0.94616998 -0.10718995 -0.009188147)
(-0.9637172 -0.10988997 -0.0093380655)
(-0.98117646 -0.11294583 -0.0094926862)
(-0.99855125 -0.11635909 -0.0096475734)
(-1.0158387 -0.12012479 -0.0098055657)
(-1.0330432 -0.12424183 -0.009962292)