/*--------------------------------*- C++ -*----------------------------------*\
  =========                 |
  \\      /  F ield         | OpenFOAM: The Open Source CFD Toolbox
   \\    /   O peration     | Website:  https://openfoam.org
    \\  /    A nd           | Version:  6
     \\/     M anipulation  |
\*---------------------------------------------------------------------------*/
FoamFile
{
    version     2.0;
    format      ascii;
    class       pointVectorField;
    location    "1.09";
    object      lm;
}
// * * * * * * * * * * * * * * * * * * * * * * * * * * * * * * * * * * * * * //

dimensions      [1 -2 -1 0 0 0 0];

internalField   nonuniform List<vector> 
3969
(
(-4.0340813e-15 -4.7705825e-17 1.3312818e-16)
(9.2297575e-16 -2.6090405e-16 -6.0252577e-16)
(-5307.3492 -1749.5327 -146.24265)
(-5558.6177 -891.54241 -102.84475)
(-7.1783695e-15 2.6020842e-15 -1.0366567e-15)
(-4.622429e-15 2.1493156e-15 -1.5432914e-15)
(-5613.5754 -868.41251 -101.693)
(-5358.7822 -1727.4761 -147.6785)
(-6.09887e-15 1.0869625e-16 -2.0095736e-16)
(-3.193382e-15 6.5333688e-16 6.3735029e-17)
(-2.9260211e-15 2.9260844e-16 -4.8432863e-17)
(-1.7497804e-15 -1.5755452e-16 -2.074758e-16)
(-4.3254872e-15 8.6218995e-16 7.3228779e-16)
(-2.4697388e-15 -4.9707839e-16 4.8086129e-16)
(5.2680668e-16 -4.7467027e-16 -5.3018058e-16)
(-5338.4286 -1644.8895 -142.0148)
(-5371.1632 -1538.5978 -137.22608)
(-5403.7152 -1430.7392 -131.0544)
(-5435.7854 -1322.1104 -124.82159)
(-5467.4317 -1212.9429 -118.33664)
(-5497.9352 -1104.5069 -112.3648)
(-5527.7422 -997.33207 -107.20827)
(-21.252765 -44.737973 -46.945367)
(-39.556892 -73.263505 -53.902302)
(-71.411739 -103.48984 -51.63675)
(-113.91263 -131.96653 -44.930423)
(-162.37047 -160.16927 -35.46725)
(-217.39132 -188.00357 -25.790717)
(-275.42206 -215.37407 -16.875593)
(-337.65107 -243.32233 -8.9909366)
(-401.69643 -271.64209 -3.1965211)
(-468.74683 -300.91601 1.2208675)
(-537.9462 -332.15154 3.2286743)
(-610.54852 -365.06418 4.1343172)
(-687.2824 -400.65207 4.1536559)
(-768.72581 -439.18771 3.5831911)
(-856.98858 -480.80515 3.454048)
(-951.71883 -525.47253 3.9848824)
(-1054.4347 -573.7251 5.1768655)
(-1165.091 -624.94611 7.2581725)
(-1283.9799 -679.15052 9.7712277)
(-1410.5884 -735.59896 12.387463)
(-1544.658 -793.78646 14.420907)
(-1685.3532 -852.96223 15.528844)
(-1832.213 -912.2896 15.325385)
(-1984.4481 -971.14309 13.676722)
(-2141.5555 -1028.4944 10.737359)
(-2302.6056 -1084.3401 6.654095)
(-2467.0811 -1137.6026 1.7574386)
(-2634.2245 -1188.0852 -3.4916813)
(-2802.9662 -1235.484 -8.9615096)
(-2972.0165 -1279.3642 -14.548568)
(-3140.2518 -1319.7505 -20.262438)
(-3306.2602 -1356.3894 -26.34484)
(-3468.6677 -1389.423 -32.850481)
(-3626.4593 -1418.8877 -40.165146)
(-3778.6597 -1445.161 -48.167257)
(-3924.5792 -1468.609 -56.879672)
(-4064.1906 -1490.0364 -66.018324)
(-4197.4299 -1509.6195 -75.660524)
(-4324.792 -1528.6929 -84.679244)
(-4446.3643 -1547.4108 -93.628858)
(-4563.409 -1566.8617 -101.66087)
(-4675.5677 -1587.5652 -109.34788)
(-4785.0366 -1609.4442 -116.10507)
(-4891.0772 -1633.8775 -122.75263)
(-4995.0946 -1660.0491 -129.0331)
(-5099.4724 -1687.9634 -134.96825)
(-5202.7014 -1718.3964 -140.49652)
(-19.722574 48.887542 60.787398)
(-55.201476 83.342064 60.992555)
(-91.685399 117.41301 66.147167)
(-135.56598 148.47401 66.637633)
(-188.39686 176.13372 67.852269)
(-244.84179 200.79996 68.874408)
(-307.70112 221.77346 71.123184)
(-374.02807 239.8124 73.753853)
(-444.62783 255.27669 77.361204)
(-519.29465 269.01735 81.191193)
(-597.97636 281.33733 85.413177)
(-681.69397 293.07147 90.206929)
(-770.67506 303.78272 94.747386)
(-865.83052 313.97424 99.493077)
(-968.11617 323.21999 104.01839)
(-1077.844 330.73848 108.13252)
(-1195.8988 336.00665 111.39837)
(-1322.0948 338.17932 113.52671)
(-1456.9826 336.59075 113.89506)
(-1599.9717 330.55517 112.26409)
(-1750.8189 319.83628 108.14164)
(-1908.7236 303.76946 101.57247)
(-2072.9915 282.68891 92.264786)
(-2242.5297 256.36283 80.631589)
(-2415.9525 224.88603 67.014534)
(-2592.3712 188.65119 51.640819)
(-2770.1599 147.63496 35.291381)
(-2948.669 102.29022 18.380305)
(-3125.7599 52.596175 1.2874452)
(-3300.2862 -0.70375084 -15.567549)
(-3471.2427 -57.161887 -31.74329)
(-3637.2009 -116.19158 -47.015621)
(-3797.3882 -176.94629 -61.092208)
(-3951.0078 -238.5442 -73.742707)
(-4097.632 -300.19639 -84.791437)
(-4236.9672 -360.76478 -93.916941)
(-4369.3102 -419.88246 -101.26283)
(-4494.7599 -476.37809 -106.27396)
(-4613.7988 -530.4645 -109.47043)
(-4727.4552 -581.38582 -110.67959)
(-4836.5273 -629.26781 -110.48034)
(-4941.7652 -674.23989 -108.82901)
(-5044.6517 -716.2463 -106.66519)
(-5145.9472 -755.68935 -104.23132)
(-5246.9812 -792.54107 -102.32912)
(-5348.7832 -827.44887 -101.18469)
(-5452.4645 -860.14061 -101.41421)
(-3.9179893e-16 -2.8384427e-17 -1.6191597e-16)
(6.8869455e-16 3.3255846e-16 -2.9305012e-16)
(-3.0379221e-16 -4.0639439e-16 3.7376104e-16)
(8.6048107e-16 -8.7588792e-17 1.0515471e-16)
(5.0258192e-16 -7.4376592e-16 6.4035694e-16)
(-2.9679417e-15 -3.4669267e-16 7.3060073e-16)
(8.9003905e-16 -2.834795e-16 1.0120244e-16)
(-25.504398 27.472876 -44.719102)
(-49.528495 82.189749 -51.125294)
(-81.726908 96.398016 -43.545897)
(-131.67639 132.77622 -38.456776)
(-182.7482 153.28798 -28.537649)
(-243.3033 178.39042 -18.02992)
(-307.29814 197.39058 -9.738529)
(-375.81863 216.03795 -0.12346888)
(-448.08735 232.95476 5.0320896)
(-523.33981 247.4696 11.293009)
(-603.39232 263.48813 13.190657)
(-686.64759 275.86383 15.915703)
(-776.02936 289.94507 16.377252)
(-871.95595 302.63429 17.307403)
(-974.74598 313.86563 18.412532)
(-1086.7761 325.26368 19.876685)
(-1206.9092 333.53217 22.287869)
(-1336.6285 340.73276 25.082381)
(-1474.8409 344.3775 28.11095)
(-1621.431 345.06495 30.903669)
(-1775.448 341.48772 32.899994)
(-1935.9292 333.5184 33.837345)
(-2102.012 320.3784 33.514139)
(-2272.4101 301.75916 31.965348)
(-2446.8994 277.4815 29.586032)
(-2623.5414 246.87782 26.543806)
(-2801.4121 211.50609 22.371586)
(-2979.8063 168.99941 19.059866)
(-3157.556 121.36914 15.499064)
(-3333.0526 68.613779 12.184192)
(-3505.076 11.587315 8.8330797)
(-3672.3159 -48.806564 5.1334138)
(-3833.682 -111.64554 0.91601209)
(-3988.2411 -176.02693 -4.1200475)
(-4135.4753 -240.96967 -9.8597893)
(-4275.1667 -305.25113 -16.776254)
(-4408.6902 -368.29308 -23.577944)
(-4533.7391 -430.27797 -31.335918)
(-4653.9892 -488.80982 -38.611735)
(-4768.8899 -544.76444 -46.038807)
(-4879.5504 -597.12261 -53.034318)
(-4987.0916 -646.0536 -59.71312)
(-5092.212 -690.97738 -66.41071)
(-5195.8433 -732.36338 -73.093075)
(-5298.9269 -770.11365 -80.062411)
(-5402.3327 -804.9213 -87.177556)
(-5507.1032 -837.3139 -94.320857)
(-5582.8046 -975.16024 -108.09535)
(-5551.4937 -1083.1217 -114.22308)
(-5520.7402 -1191.8594 -119.65536)
(-5488.3255 -1301.2526 -124.26031)
(-5455.4102 -1410.0197 -129.31006)
(-5423.0427 -1517.1476 -134.46903)
(-5389.6952 -1623.1025 -140.75704)
(-5253.9083 -1696.437 -145.26599)
(-5150.6057 -1667.0028 -143.24609)
(-5047.7731 -1639.1461 -142.65004)
(-4944.2632 -1612.881 -142.78105)
(-4839.5899 -1587.6745 -143.46221)
(-4731.9729 -1563.4507 -143.83444)
(-4620.6243 -1539.6179 -143.4395)
(-4504.4934 -1516.0071 -141.82095)
(-4382.8279 -1492.0659 -138.53027)
(-4254.6586 -1467.5418 -133.30539)
(-4120.8099 -1442.2751 -126.12067)
(-3977.7399 -1416.1501 -116.75413)
(-3830.4844 -1386.7513 -105.74096)
(-3675.388 -1356.2935 -92.759384)
(-3514.8822 -1322.8981 -78.22847)
(-3349.2949 -1286.7349 -62.157734)
(-3179.7654 -1247.6264 -44.919175)
(-3007.4514 -1205.8044 -26.613454)
(-2833.6492 -1161.1947 -7.8398976)
(-2659.5939 -1114.6698 11.428186)
(-2486.6892 -1066.197 30.284317)
(-2316.1188 -1016.6642 48.450108)
(-2149.0435 -966.34027 65.374696)
(-1986.6461 -915.61473 80.499304)
(-1830.0715 -864.98342 93.324846)
(-1679.9985 -814.5473 103.60208)
(-1537.3458 -764.65155 111.21101)
(-1402.579 -715.38132 116.0242)
(-1276.1496 -667.18539 118.40657)
(-1158.064 -620.14638 118.48604)
(-1048.167 -574.87154 116.90053)
(-946.34303 -531.59568 113.81374)
(-851.42165 -490.86497 109.64552)
(-764.09816 -451.92668 104.89951)
(-682.29365 -417.08925 100.19116)
(-605.04608 -384.23464 94.441142)
(-532.32438 -353.91206 89.877566)
(-463.07673 -325.17445 84.96621)
(-396.89611 -297.89564 80.923899)
(-334.46989 -270.16766 77.06486)
(-274.3642 -244.14696 74.399965)
(-217.61608 -214.36068 72.592999)
(-166.03644 -185.41673 71.533559)
(-118.84819 -153.83235 70.619147)
(-80.157366 -120.60615 67.480727)
(-49.277341 -84.409927 61.073976)
(-45.240133 -54.112091 40.189034)
(-6.7652979e-16 3.5118239e-16 1.2802193e-16)
(-2.3129286e-15 2.7505878e-16 1.3239036e-16)
(-3.6393531e-15 -1.4253491e-16 -1.5464221e-16)
(-4.9195801e-15 -9.3657526e-16 4.6870719e-16)
(-4.0844143e-15 -8.2232132e-16 1.723462e-16)
(-2.0271537e-15 -1.8079967e-16 2.6438577e-16)
(-2.0670014e-15 8.6459225e-16 1.4474963e-15)
(-4.5036838e-15 1.2268482e-15 -2.065022e-16)
(-1.9919023e-15 1.1694967e-15 -1.6367101e-16)
(-2.9438013e-15 1.1112212e-15 -1.969436e-16)
(-2.4504202e-15 9.597151e-16 -1.1789697e-16)
(-5.2893259e-15 2.5926013e-15 -8.0820905e-16)
(-1.8775489e-15 1.1365606e-15 -5.8525306e-16)
(-7.4714327e-17 -2.094137e-16 9.7564992e-17)
(-5563.65 -891.26923 -103.42674)
(-5568.8553 -890.07134 -103.8513)
(-5575.0368 -887.7659 -103.57778)
(-5582.0763 -884.75939 -103.13599)
(-5589.483 -881.28699 -102.30654)
(-5597.5699 -877.44838 -101.30082)
(-5605.5638 -873.54345 -101.40165)
(-5313.2531 -1745.6345 -146.11071)
(-5319.2016 -1742.4875 -146.44865)
(-5325.1471 -1738.8782 -147.23505)
(-5331.2872 -1735.2273 -147.89575)
(-5337.7611 -1731.9101 -148.38448)
(-5344.4652 -1729.287 -148.40547)
(-5351.6293 -1727.815 -147.79329)
(-7.5689277 -29.878592 -39.300375)
(-28.11362 -46.373899 -36.292517)
(-60.485364 -67.738316 -35.612202)
(-103.15844 -87.613003 -29.759348)
(-153.06791 -108.81272 -21.948213)
(-208.96971 -131.17281 -14.277796)
(-268.43468 -153.47489 -6.3943007)
(-331.55941 -177.70011 0.14992733)
(-397.00783 -201.78125 5.768358)
(-465.06551 -227.70206 9.5796194)
(-535.3529 -254.63441 12.279225)
(-609.14214 -282.67065 14.004595)
(-687.0023 -313.14504 14.806225)
(-770.06076 -344.88319 15.429512)
(-859.74277 -379.0989 16.091484)
(-956.52195 -416.0086 17.220904)
(-1061.3445 -455.84935 18.749567)
(-1174.5121 -498.50012 20.645532)
(-1296.0816 -544.32389 22.711296)
(-1425.7886 -592.87553 24.491895)
(-1563.0596 -643.84584 25.524298)
(-1707.2751 -696.55381 25.546153)
(-1857.7382 -750.487 24.161464)
(-2013.5965 -804.72543 21.432175)
(-2174.331 -858.89543 17.291988)
(-2339.1169 -912.13004 12.208592)
(-2506.9194 -963.90862 6.2076632)
(-2677.0939 -1014.249 -0.26229923)
(-2848.3698 -1062.3938 -7.0722976)
(-3019.4108 -1108.4591 -13.983824)
(-3189.0586 -1152.1196 -21.132068)
(-3355.8151 -1193.2231 -28.412333)
(-3518.4059 -1231.6912 -36.082773)
(-3675.8382 -1267.3246 -44.186836)
(-3827.106 -1300.3878 -52.54624)
(-3971.8977 -1330.5738 -61.463004)
(-4110.0745 -1358.7261 -70.252295)
(-4241.4223 -1384.571 -79.170955)
(-4366.8561 -1409.1811 -87.463557)
(-4486.5709 -1432.7608 -95.357863)
(-4601.5982 -1456.369 -102.41169)
(-4712.1654 -1479.8252 -108.92443)
(-4819.8251 -1504.4742 -114.75286)
(-4924.4327 -1529.9248 -120.23666)
(-5027.6172 -1556.6884 -125.54093)
(-5130.981 -1584.6644 -130.79701)
(-5233.3723 -1614.34 -136.08632)
(1.3472832 -16.469028 -23.750051)
(-20.659285 -23.184807 -21.151412)
(-55.012828 -38.140874 -19.807111)
(-98.561259 -50.394749 -14.292843)
(-149.00428 -64.782264 -8.3389506)
(-204.88517 -80.0385 -1.2659385)
(-265.17388 -96.51345 4.9722796)
(-328.91267 -114.32933 11.370588)
(-395.08456 -132.98105 15.744292)
(-463.75942 -153.35456 20.040753)
(-535.6602 -174.32539 22.755555)
(-610.68557 -197.14676 24.868007)
(-690.2807 -221.18413 26.181934)
(-775.40364 -246.8488 27.232012)
(-867.03366 -274.71179 28.259006)
(-965.75507 -305.08983 29.697685)
(-1072.6396 -338.22713 31.1981)
(-1187.8014 -374.38226 32.82145)
(-1311.5899 -413.7932 34.328223)
(-1443.5534 -456.28551 35.226255)
(-1583.3143 -501.52382 35.312689)
(-1730.1943 -549.2379 34.196033)
(-1883.2327 -598.60334 31.722221)
(-2042.0393 -649.36963 27.763126)
(-2205.5303 -700.43306 22.559781)
(-2372.8394 -751.64578 16.039182)
(-2543.3045 -802.37637 8.8517206)
(-2715.6758 -852.22353 1.0970673)
(-2888.6738 -901.08072 -6.9731118)
(-3061.2425 -948.55051 -15.089853)
(-3231.9037 -994.49353 -23.268996)
(-3399.2161 -1038.5648 -31.537956)
(-3562.1489 -1080.5563 -39.939183)
(-3719.3715 -1120.353 -48.351462)
(-3870.3949 -1157.6952 -57.002233)
(-4014.5525 -1192.5688 -65.585478)
(-4151.8928 -1225.2878 -73.995039)
(-4282.43 -1255.6439 -82.146484)
(-4406.916 -1284.6967 -89.573733)
(-4525.4066 -1312.1545 -96.482952)
(-4639.2896 -1339.2375 -102.58523)
(-4748.5316 -1365.8308 -108.02011)
(-4854.9276 -1392.7695 -112.96765)
(-4958.5663 -1420.2494 -117.55264)
(-5060.6583 -1448.3626 -122.08104)
(-5163.4052 -1477.2438 -126.84232)
(-5264.8305 -1507.3459 -131.40474)
(6.3148044 -5.8296743 -11.612613)
(-16.182914 -7.4188817 -8.294597)
(-50.367111 -13.199456 -5.4503444)
(-94.218117 -18.710366 -1.2624361)
(-145.12726 -25.404117 4.5377481)
(-202.70099 -34.488108 10.25999)
(-263.9693 -43.758379 16.530883)
(-328.90506 -55.566529 21.43427)
(-396.39434 -67.865932 26.311063)
(-467.25202 -82.016436 30.351736)
(-539.94757 -97.463487 33.269818)
(-616.77226 -113.85399 35.795681)
(-697.86535 -132.13521 37.802367)
(-784.46663 -151.53915 39.491346)
(-877.48097 -173.42024 41.103585)
(-978.13143 -197.51038 42.990531)
(-1086.8219 -224.44429 44.593752)
(-1204.0573 -254.49788 46.300291)
(-1329.8675 -287.84734 47.359835)
(-1463.8147 -324.48222 47.783051)
(-1605.5869 -364.25203 46.987232)
(-1754.4213 -406.75538 44.893274)
(-1909.9784 -451.89014 41.236507)
(-2071.1034 -498.53374 36.14919)
(-2236.9836 -546.73014 29.50975)
(-2406.7216 -595.71476 21.941935)
(-2579.3769 -645.19309 13.508018)
(-2753.4976 -694.68472 4.3495703)
(-2928.2151 -743.91936 -4.9479601)
(-3101.9991 -792.59887 -14.332176)
(-3273.381 -840.44555 -23.791654)
(-3441.2372 -887.05643 -33.15691)
(-3604.2158 -932.20053 -42.391406)
(-3761.3657 -975.52742 -51.566658)
(-3912.0237 -1016.7123 -60.536588)
(-4055.6505 -1055.7342 -69.216642)
(-4192.2731 -1092.4402 -77.433764)
(-4321.9745 -1127.0383 -85.128553)
(-4445.3296 -1159.7322 -91.976144)
(-4562.9518 -1190.7894 -98.154935)
(-4675.5973 -1221.1141 -103.22623)
(-4784.0223 -1250.3599 -107.83248)
(-4889.3336 -1279.8048 -111.69452)
(-4992.1905 -1309.0309 -115.27987)
(-5093.6267 -1338.5588 -118.92829)
(-5195.5482 -1368.6502 -122.5682)
(-5296.7 -1399.1694 -126.49067)
(5.8321965 2.6054089 2.8105989)
(-18.511092 6.7198209 8.2623049)
(-52.268834 8.4077732 10.825656)
(-96.85557 10.823467 14.636505)
(-149.00061 11.489693 18.849048)
(-206.12356 10.277513 23.736692)
(-267.84036 8.1753931 27.80139)
(-332.65349 3.1928228 32.57794)
(-400.96873 -2.3822509 36.328995)
(-471.39683 -10.457217 39.721745)
(-545.55324 -19.046449 42.85333)
(-623.92675 -29.839243 45.80036)
(-706.60934 -41.710133 48.335202)
(-795.31614 -55.101271 50.477607)
(-890.43453 -70.984196 52.943954)
(-993.16711 -88.970055 54.898626)
(-1103.7079 -110.04984 56.95904)
(-1222.8641 -134.15205 58.356771)
(-1350.3561 -161.72423 59.213815)
(-1486.2762 -192.90283 58.978619)
(-1630.084 -227.62168 57.530131)
(-1781.5331 -265.91471 54.606077)
(-1938.9539 -306.6441 50.03632)
(-2102.073 -350.0332 43.617852)
(-2269.7925 -395.36005 35.962583)
(-2441.291 -442.27432 26.933177)
(-2615.2587 -490.33458 16.89983)
(-2790.7251 -539.17719 6.3669933)
(-2966.312 -588.53204 -4.3724836)
(-3140.6537 -638.07159 -15.252879)
(-3312.4761 -687.34837 -25.945163)
(-3480.4116 -736.11856 -36.350718)
(-3643.3775 -783.7973 -46.514293)
(-3800.2822 -830.16974 -56.213936)
(-3950.6064 -874.75366 -65.487483)
(-4093.8177 -917.3353 -74.123707)
(-4229.9659 -957.85988 -82.041265)
(-4359.1689 -996.24321 -89.053217)
(-4482.1793 -1032.724 -95.162998)
(-4598.9366 -1067.514 -100.0733)
(-4710.9751 -1101.0348 -104.28916)
(-4818.5241 -1133.4192 -107.48843)
(-4923.1146 -1165.2985 -110.37144)
(-5025.2453 -1196.7145 -112.74571)
(-5126.0726 -1227.8834 -115.48994)
(-5227.5045 -1259.1995 -118.16599)
(-5328.4848 -1290.1422 -121.31737)
(4.0804104 12.141483 16.206479)
(-21.33779 21.364545 20.984563)
(-55.482118 31.390249 24.295788)
(-101.06918 41.179135 27.175255)
(-152.50115 49.341303 30.981002)
(-210.71828 55.18151 34.323504)
(-272.43717 59.635875 38.635649)
(-338.68 60.999153 42.842927)
(-407.05082 61.70015 46.616631)
(-479.55392 59.832921 50.725512)
(-555.05553 56.832096 54.63348)
(-634.37853 51.774549 57.815249)
(-718.72574 46.22115 60.575855)
(-808.7547 38.107352 63.560769)
(-905.41343 28.602649 65.971092)
(-1009.5377 16.487072 68.32306)
(-1121.9018 1.4578184 70.377889)
(-1242.5934 -16.781272 71.789245)
(-1371.9413 -38.798005 72.383857)
(-1509.4997 -64.504875 71.618557)
(-1655.1341 -94.332942 69.556905)
(-1807.7783 -127.09062 65.286753)
(-1967.0705 -163.76922 59.512742)
(-2131.9635 -203.28034 52.049158)
(-2301.7012 -245.69655 42.981087)
(-2474.7817 -290.35706 32.544332)
(-2650.4821 -336.97757 21.270329)
(-2827.3924 -385.18325 9.4406487)
(-3004.1022 -434.65536 -2.6654606)
(-3179.3414 -484.99807 -14.715619)
(-3351.6636 -535.7801 -26.536609)
(-3519.9357 -586.63961 -37.970459)
(-3682.8747 -636.87409 -48.953703)
(-3839.6241 -686.34384 -59.212255)
(-3989.597 -734.1564 -68.870911)
(-4132.3356 -780.37186 -77.573765)
(-4267.7889 -824.39285 -85.297267)
(-4396.4114 -866.60601 -91.971979)
(-4518.2019 -906.27217 -97.394164)
(-4634.0751 -944.36038 -101.80441)
(-4745.1499 -980.85218 -104.92341)
(-4851.9896 -1016.0445 -107.43813)
(-4955.6798 -1050.3514 -109.18142)
(-5057.2768 -1083.7962 -110.75748)
(-5157.8258 -1116.6674 -112.39333)
(-5258.9189 -1149.0941 -114.11837)
(-5360.3341 -1180.5946 -116.22022)
(0.1722453 20.141305 30.188395)
(-28.908804 36.134263 34.764683)
(-64.584876 54.016564 39.293502)
(-110.47565 71.928554 41.608177)
(-162.68433 86.615308 44.315623)
(-220.42666 100.08867 46.941549)
(-282.91656 110.70695 50.299167)
(-348.84963 118.77352 53.764861)
(-418.48134 125.32428 57.346271)
(-491.42916 129.21633 61.155514)
(-567.98561 132.16172 64.697011)
(-648.82675 133.39174 68.165019)
(-734.72302 133.42282 71.808278)
(-826.45953 131.82124 75.041766)
(-924.81966 128.32273 78.296447)
(-1030.819 122.42315 81.144089)
(-1144.8493 113.68997 83.641246)
(-1267.3346 101.55959 85.142184)
(-1398.3953 85.784301 85.632109)
(-1537.632 65.878574 84.540994)
(-1685.0384 42.139439 81.739858)
(-1839.34 13.584596 76.74171)
(-2000.1482 -18.271539 70.324332)
(-2167.0965 -53.810595 61.167111)
(-2338.0224 -93.017039 50.651129)
(-2512.2824 -134.8901 38.809813)
(-2688.806 -179.94218 25.944432)
(-2866.1632 -227.36649 12.309157)
(-3043.0807 -276.89866 -1.4261212)
(-3218.2896 -328.07656 -15.11105)
(-3390.3516 -380.4801 -28.40623)
(-3558.1135 -433.61552 -41.153381)
(-3720.4343 -486.80592 -53.147574)
(-3876.51 -539.60949 -64.217793)
(-4025.7054 -591.25984 -74.337983)
(-4167.6079 -641.48115 -83.155611)
(-4302.3938 -689.7796 -90.745103)
(-4430.0291 -736.02242 -96.715417)
(-4551.2731 -780.13244 -101.68083)
(-4666.8266 -822.2197 -104.46956)
(-4777.401 -861.81449 -106.79505)
(-4883.6819 -900.00478 -107.70467)
(-4987.1298 -936.56721 -108.29345)
(-5088.4747 -972.10307 -108.39505)
(-5189.0882 -1006.3516 -108.89097)
(-5290.0185 -1039.93 -109.68698)
(-5391.7972 -1072.1676 -111.05653)
(-7.3337682 31.750028 41.24175)
(-38.806275 53.10478 47.897096)
(-75.575822 81.221204 52.441443)
(-121.85625 105.32614 53.868886)
(-173.12009 127.54635 55.979222)
(-231.67295 147.2757 57.547312)
(-293.41806 163.71556 60.787628)
(-360.18054 177.75548 63.507586)
(-430.05042 189.56633 67.421182)
(-503.63527 198.96891 71.085492)
(-581.47678 207.59322 75.002684)
(-663.18911 214.10682 79.365216)
(-750.8277 220.14392 83.113847)
(-843.85177 224.23002 87.229788)
(-944.11222 226.87874 90.929563)
(-1051.7019 227.21623 94.369801)
(-1167.5571 224.83942 97.034099)
(-1291.7605 219.1238 98.748517)
(-1424.4721 209.52823 99.083095)
(-1565.5101 195.69442 97.625508)
(-1714.4018 177.22962 94.185343)
(-1870.4271 154.43258 88.409906)
(-2033.0261 126.8033 80.433867)
(-2201.1118 95.248427 70.20409)
(-2373.2834 59.318283 58.472674)
(-2548.7881 19.6192 44.953634)
(-2726.4352 -23.714384 30.492835)
(-2904.5648 -70.285927 15.443643)
(-3082.1346 -119.65977 0.2446732)
(-3257.5696 -171.52718 -14.855835)
(-3429.6109 -225.3905 -29.424589)
(-3597.14 -280.64002 -43.306448)
(-3758.9695 -336.61945 -56.232752)
(-3914.4411 -392.69483 -68.047147)
(-4062.8341 -447.9951 -78.567053)
(-4203.9625 -502.23572 -87.565248)
(-4337.8528 -554.52 -94.948063)
(-4464.6775 -604.83749 -100.66314)
(-4584.9437 -652.76334 -104.64668)
(-4699.6549 -698.40622 -107.10355)
(-4809.203 -741.8225 -108.09106)
(-4914.9334 -783.05636 -108.05162)
(-5017.6427 -822.51036 -107.3351)
(-5118.6298 -860.22923 -106.45691)
(-5218.9781 -896.413 -105.89832)
(-5319.6818 -931.39302 -105.86223)
(-5422.4486 -965.0408 -106.49942)
(-1.8726199e-15 -1.0357256e-16 4.2324109e-16)
(-4.3693994e-15 5.8098526e-16 1.0825799e-16)
(-1.86708e-15 5.0203615e-16 5.7484399e-16)
(-1.1298519e-15 4.4303811e-16 -1.5186772e-16)
(-1.5283164e-15 1.7502349e-16 4.7144117e-17)
(-3.9278597e-15 -6.147074e-18 -1.0233878e-17)
(-3.270765e-15 8.5080195e-17 2.8271762e-17)
(-1.444637e-15 3.1767481e-17 -1.0328492e-16)
(-1.9600489e-15 -2.0641393e-16 2.5996682e-17)
(-1.0758982e-15 -5.0887233e-16 -1.6282415e-16)
(-1.1902312e-15 -6.3217422e-16 -1.0496995e-16)
(-2.2455722e-15 -1.0363924e-16 3.7607835e-16)
(-1.7254929e-15 1.2766475e-16 7.9907906e-17)
(-6.542485e-16 2.4659353e-16 4.7610311e-16)
(-1.0183069e-15 2.0413811e-16 3.0876606e-16)
(-1.2825224e-16 3.2154578e-16 2.6910031e-16)
(-2.4669526e-15 5.8726168e-16 -3.2350189e-17)
(-1.9694108e-15 5.8752001e-16 2.9593509e-16)
(-1.9972486e-15 5.0741204e-16 1.6376266e-16)
(-5.0142844e-16 5.9082617e-16 -1.5096731e-17)
(2.8672985e-17 2.0007103e-16 -2.079567e-16)
(-3.5598279e-15 1.6770216e-16 6.1584209e-17)
(1.5219227e-15 -3.8112137e-16 -3.4960392e-16)
(-8.8364966e-17 -1.5289127e-16 1.7491834e-16)
(2.7397895e-16 -2.6900304e-16 -2.0413732e-16)
(-5.1236454e-16 -3.7600259e-16 -4.411389e-17)
(-1.3114086e-15 -5.3747975e-16 1.2489795e-16)
(2.0041989e-16 -4.4379834e-16 -1.4360784e-16)
(-1.3448657e-15 3.3966264e-16 -2.7012678e-16)
(-2.2010094e-15 1.2158219e-16 1.1470551e-16)
(-1.2722141e-15 -2.3577892e-16 -7.7366055e-17)
(-2.6936153e-15 2.298542e-17 6.0151854e-16)
(-1.8084585e-15 2.5926424e-16 8.2177642e-17)
(-1.0121806e-15 3.7760621e-16 1.5728837e-17)
(-3.5076342e-15 -1.049112e-16 -1.8966684e-16)
(-1.2388067e-16 -2.746004e-16 -1.3203227e-16)
(-1.1077126e-15 -2.2449831e-16 5.9960705e-17)
(-7.9462407e-16 5.2806017e-17 1.8160622e-16)
(-1.481116e-15 2.6347307e-16 -6.003674e-17)
(5.3541372e-16 1.9494005e-16 5.7756958e-17)
(-2.5861876e-15 -7.0653702e-17 -1.8824779e-16)
(-1.6152529e-15 1.8241927e-16 3.8488004e-16)
(-1.0389662e-15 3.299921e-17 2.9700946e-16)
(-3.8817577e-15 -1.9427146e-16 -1.2145786e-15)
(-1.6161979e-15 2.8442108e-16 -1.856842e-16)
(8.1577518e-16 1.8112067e-17 2.0819295e-16)
(-2.485062e-15 2.8178417e-16 -5.4749215e-16)
(-1.8307085e-15 4.4562511e-16 -1.4619564e-16)
(-1.4586292e-15 4.0358521e-16 -4.0281137e-16)
(-35.571869 18.712481 29.929716)
(-39.552282 21.668201 19.339459)
(-43.098948 22.080001 9.9156892)
(-44.081517 22.971285 2.4043393)
(-42.469953 20.822665 -5.6396064)
(-39.908342 20.778255 -13.538033)
(-32.904144 16.45514 -23.902709)
(-69.325188 79.596727 48.607382)
(-77.173713 81.9775 28.30456)
(-79.303384 76.572624 14.505679)
(-78.36807 73.486818 4.2163524)
(-77.906144 75.331642 -5.8373131)
(-71.514946 74.022942 -18.279909)
(-65.233834 74.065472 -34.327987)
(-100.29019 110.71356 48.764776)
(-107.51066 105.07205 35.894366)
(-112.5787 103.96263 20.971135)
(-112.61979 102.39593 8.4306531)
(-110.56917 100.64334 -5.5510808)
(-104.5467 100.44224 -16.555283)
(-97.355719 102.04438 -32.477443)
(-148.06439 145.9838 53.003463)
(-155.51271 143.95493 39.912516)
(-158.94036 140.7402 25.665326)
(-159.77857 138.50479 13.1782)
(-157.29703 137.32251 0.72730587)
(-152.74463 136.58942 -12.217994)
(-143.2904 134.86092 -25.325795)
(-197.11939 172.65269 54.705719)
(-203.45814 168.41271 43.095288)
(-207.78522 165.46642 30.645026)
(-208.46468 163.12153 18.841803)
(-207.07611 162.10676 6.2035316)
(-201.962 160.80355 -4.7481848)
(-194.89845 159.75193 -17.489845)
(-254.99362 198.19021 57.262526)
(-260.81716 194.36429 47.134002)
(-264.88669 191.19874 34.960777)
(-265.64777 188.83441 25.192067)
(-264.13127 186.79859 13.289205)
(-259.85246 184.03727 2.5917676)
(-252.7259 183.06485 -7.9649095)
(-316.14253 217.01335 60.691803)
(-322.05143 213.45699 50.490934)
(-325.8336 210.67463 40.566217)
(-327.07765 208.02342 30.468718)
(-325.85982 206.6059 20.186719)
(-322.49616 205.29902 10.849297)
(-316.24113 203.07077 0.060923052)
(-382.60995 235.83006 63.93714)
(-388.25827 232.12785 55.680874)
(-392.62176 228.70159 45.215181)
(-393.51727 226.48619 36.335988)
(-392.55868 223.84194 27.004132)
(-389.31291 221.95857 17.303769)
(-383.32 219.78039 8.5589232)
(-452.99406 250.28252 68.335048)
(-458.8774 246.24831 59.078102)
(-462.61759 243.75586 50.262283)
(-464.19068 241.16783 41.754266)
(-463.41362 239.82296 32.459692)
(-460.87485 237.7347 23.792602)
(-455.47433 236.57125 14.217319)
(-527.5359 264.04635 72.046912)
(-533.28406 260.47637 64.22897)
(-537.64274 256.79903 54.978917)
(-539.42084 255.38859 45.963879)
(-538.58451 252.87603 37.458478)
(-535.79355 251.17584 28.382504)
(-530.47541 249.23293 19.782069)
(-606.67865 276.13558 76.361804)
(-612.80076 272.1736 68.095929)
(-617.0391 269.68936 58.395506)
(-618.42472 266.95971 50.473802)
(-618.04298 265.63709 40.949696)
(-615.27332 264.17383 32.55798)
(-610.49237 263.77441 22.700614)
(-690.66958 287.15705 81.02844)
(-696.94147 283.84354 71.823968)
(-701.21737 280.98201 63.126288)
(-703.55375 279.65897 53.783835)
(-703.02534 277.96789 44.209524)
(-699.74496 276.88186 35.561214)
(-694.98816 275.73521 25.094404)
(-780.57761 298.28967 84.924524)
(-786.51117 294.38325 75.539789)
(-791.57291 292.31988 66.400819)
(-793.14814 289.9807 56.851311)
(-792.79758 288.91109 47.013818)
(-789.5222 288.58016 37.793821)
(-784.47072 288.00559 26.627713)
(-876.20372 307.96096 89.481815)
(-882.6668 304.75212 79.623897)
(-888.23173 302.54315 70.217412)
(-890.03008 301.43921 60.113836)
(-890.15042 300.98397 49.625322)
(-886.63084 300.93928 40.083713)
(-881.47652 300.78595 27.768514)
(-979.20406 317.41161 93.587673)
(-986.10665 314.14889 83.136555)
(-991.62172 312.15245 73.549945)
(-993.63603 311.21597 62.786262)
(-993.63789 310.80364 52.361881)
(-990.03075 311.30218 41.941393)
(-984.67771 311.84223 29.389705)
(-1089.6501 324.82368 97.435808)
(-1096.8112 322.02629 86.925235)
(-1102.9468 320.4666 76.930906)
(-1105.2941 320.38457 66.327865)
(-1105.6133 320.73021 55.016707)
(-1102.2725 322.2028 44.687278)
(-1096.9112 323.1319 31.310667)
(-1208.1045 330.59252 100.78345)
(-1215.8022 328.20469 89.935972)
(-1222.2403 327.03896 80.044383)
(-1224.6486 327.28494 68.893938)
(-1225.4571 328.32595 57.866183)
(-1222.2015 329.98352 47.168369)
(-1217.1742 331.97533 33.779783)
(-1334.9594 333.47508 102.99015)
(-1342.9914 331.69593 92.503483)
(-1349.7134 330.99686 82.41086)
(-1352.6958 332.28788 71.674571)
(-1353.7749 333.79272 60.650953)
(-1351.0902 336.55985 49.96358)
(-1346.3759 339.00878 36.714253)
(-1470.0918 333.06318 103.944)
(-1478.2775 331.85407 93.568626)
(-1485.3803 331.96821 83.836873)
(-1488.4929 333.60068 73.355872)
(-1490.1754 336.03217 62.615572)
(-1487.9056 339.11832 52.219238)
(-1483.9972 342.71905 39.530571)
(-1613.1842 328.57728 102.83933)
(-1621.6037 328.29511 93.107219)
(-1628.7427 329.01911 83.922835)
(-1632.4049 331.68441 73.935779)
(-1634.3917 334.63562 63.851333)
(-1632.9157 338.70327 53.886381)
(-1629.5987 342.88178 41.926646)
(-1763.9665 319.6039 99.636028)
(-1772.2292 320.17929 90.696585)
(-1779.5175 321.94487 82.084469)
(-1783.3018 324.99674 72.927697)
(-1785.8296 328.93669 63.533631)
(-1784.8967 333.36136 54.25204)
(-1782.4747 338.62195 43.269044)
(-1921.4843 305.64723 94.003154)
(-1929.6271 307.44984 85.957851)
(-1936.7278 309.88701 78.303235)
(-1940.8045 313.95004 70.072517)
(-1943.5782 318.42279 61.604409)
(-1943.3339 323.74017 53.195296)
(-1941.766 329.72318 43.324835)
(-2085.1055 286.71678 85.813363)
(-2092.8203 289.42835 78.978919)
(-2099.6789 293.00685 72.418359)
(-2103.823 297.57317 65.278904)
(-2106.9625 303.02774 57.923964)
(-2107.3903 308.83921 50.554712)
(-2106.6435 315.6363 41.889472)
(-2253.6198 262.23925 75.328135)
(-2260.9392 266.31008 69.89208)
(-2267.3158 270.59872 64.590509)
(-2271.6057 276.2065 58.565198)
(-2274.8498 282.15907 52.548694)
(-2275.767 288.62195 46.240292)
(-2275.8096 296.20154 39.002832)
(-2426.0089 232.78094 63.144591)
(-2432.8149 237.60312 58.869614)
(-2438.4493 243.1374 55.066689)
(-2442.8805 249.31973 50.198923)
(-2446.1178 255.93325 45.85482)
(-2447.8828 263.20685 40.6527)
(-2448.9613 271.34205 35.226476)
(-2601.0549 197.97197 49.219408)
(-2607.1231 203.74352 46.62417)
(-2612.3269 210.42646 44.163665)
(-2616.8446 216.95613 40.770769)
(-2619.9517 224.44838 37.876426)
(-2622.4153 231.89111 34.250511)
(-2624.1645 240.6042 30.572312)
(-2777.6382 158.1087 34.333688)
(-2782.8752 164.7802 33.519501)
(-2787.7892 172.22903 31.989318)
(-2791.8489 179.3953 31.02498)
(-2795.8372 187.14233 28.879477)
(-2798.5607 195.56799 26.982835)
(-2801.0721 204.60035 24.510621)
(-2954.5973 113.28921 18.916149)
(-2958.7275 120.99246 19.551741)
(-2963.2935 129.04282 19.764802)
(-2967.0221 136.75263 20.295113)
(-2971.1405 145.35996 19.828232)
(-2974.3675 153.36786 19.819448)
(-2978.2417 163.02299 19.169141)
(-3129.9826 64.157889 3.4014951)
(-3133.5603 72.453065 5.4419785)
(-3137.3602 81.100006 7.5654469)
(-3141.2292 89.259457 9.4147981)
(-3145.561 98.098409 10.974237)
(-3149.7364 106.42883 12.522665)
(-3154.449 115.92854 13.801026)
(-3303.2241 11.045137 -12.024436)
(-3305.7709 19.830625 -8.14204)
(-3309.337 28.792744 -4.7944963)
(-3313.0627 37.307889 -1.0283687)
(-3317.7904 46.373243 2.0375442)
(-3322.5885 54.542129 5.4509423)
(-3328.4262 63.917471 8.6439691)
(-3472.5766 -45.445743 -26.630123)
(-3474.5721 -36.396025 -21.480794)
(-3477.6386 -27.224626 -16.475619)