/*--------------------------------*- C++ -*----------------------------------*\
  =========                 |
  \\      /  F ield         | OpenFOAM: The Open Source CFD Toolbox
   \\    /   O peration     | Website:  https://openfoam.org
    \\  /    A nd           | Version:  6
     \\/     M anipulation  |
\*---------------------------------------------------------------------------*/
FoamFile
{
    version     2.0;
    format      ascii;
    class       pointScalarField;
    location    "1.29";
    object      p;
}
// * * * * * * * * * * * * * * * * * * * * * * * * * * * * * * * * * * * * * //

dimensions      [1 -1 -2 0 0 0 0];

internalField   nonuniform List<scalar> 
28033
(
1233458.3
-1657872.4
8106.7198
3638.8892
2234612.3
-2411033.6
4361.0495
2039.4259
1013004
905664.85
782223.23
639566.05
485948.31
342974.86
194247.36
31918.836
-130420.5
-279131.68
-455683.53
-554636.3
-760144.51
-926114.38
-910520.12
-12075.044
-6037.794
-6635.3191
-3397.4565
-2764.6566
-792.55219
1085.9929
3114.2557
4853.8936
6908.545
9090.2398
10157.922
11823.578
12969.518
11809.428
317450.75
342534.58
311190.24
332437.92
321736.45
330944.69
330373.14
330493.43
328685.32
329151.13
324287.01
320621.32
318279.32
314357.7
309238.33
303628.78
301056.04
295222.12
290636.46
285430.55
281320.11
275568.84
272360.74
267001.32
262199.82
258078.96
253649.6
248867.27
244601.7
240089.11
235783.92
230811.64
226795
222407.42
217223.06
212733.08
208178.33
204462.66
198333.97
194394.59
188691.23
183599.36
178270.04
173408.17
167814
162895.77
157376.4
152406.5
146959.87
142110.01
136823.5
132087.03
127158.72
122565.91
118032.28
113719.09
109572.57
105622.03
101839.98
98311.24
94924.97
91730.396
88696.72
86009.505
83244.029
80810.543
78933.522
76383.247
73703.247
71714.614
69374.054
67362.741
65052.56
63137.203
60622.479
58834.379
56112.458
54343.101
51457.461
49593.161
46682.885
44657.907
41738.687
39241.062
36534.114
33853.532
31337.783
28912.537
25327.454
23328.792
21122.948
16554.472
17282.472
15531.547
12736.503
-294579.81
-245123.62
-289925.05
-258676.44
-294574.91
-286229.37
-295820.18
-287872.62
-295456.11
-286679.11
-290250.54
-282903.94
-281990.07
-278134.33
-274645.45
-270316.37
-266668.52
-261411.04
-258535.94
-253628.39
-249092.27
-246289.37
-240237.51
-238215.06
-232429.08
-229048.99
-224664.04
-220179.96
-216469.83
-211387.14
-206981.17
-202840.1
-197635.69
-193869.15
-188935.27
-185140.47
-179127.96
-175233.93
-169529.47
-165221.76
-159923.38
-155086.85
-149883.56
-144978.5
-139736.06
-134833.14
-129685.36
-124766.55
-119808.66
-115001.35
-110237.78
-105652.8
-101149.79
-96885.087
-92699.243
-88789.772
-85015.568
-81481.565
-78125.341
-75012.026
-72051.414
-69333.299
-66765.484
-64356.003
-62097.79
-59951.294
-57977.654
-56079.296
-54440.42
-52317.387
-50697.709
-48837.308
-47191.863
-45337.019
-43594.99
-41777.868
-39861.18
-38070.796
-36073.154
-34176.597
-32141.108
-30171.375
-28019.023
-26080.614
-23850.679
-21806.74
-19638.334
-17609.299
-15265.278
-13416.675
-11400.669
-9170.4095
-7595.1661
-6934.8963
-4744.2784
1829626.7
1723604.5
1247796.4
1263980.2
879078.24
532896.87
345660.84
-3763.9153
-260818.11
-600363.83
-831946.22
-1151861.6
-1462766.5
-1716437.2
-1828491.7
-495532.06
-372684.7
-172639.35
-356277.1
-293014.05
-312624.93
-302072.4
-317310.74
-301683.35
-311402.53
-312195.77
-294900.83
-305747.57
-286360.15
-299018.6
-287114.21
-284542.73
-272513.52
-271861.71
-263997.33
-258804.52
-251861.84
-253304.15
-247205.74
-242093.23
-240014.7
-229849.95
-231893.4
-220715.22
-221638.89
-215992.87
-212621.61
-207295.94
-203937.28
-199721.14
-190860.64
-189527.46
-184959.42
-179986.6
-175148.38
-170133.42
-165133.5
-160060.07
-154868.06
-149685.91
-144568.56
-139243.93
-134088.48
-128836.76
-123771.28
-118708.42
-113818.49
-109019.05
-104419.09
-99954.02
-95637.544
-91607.191
-87665.135
-83990.917
-80514.422
-77204.873
-74129.171
-71210.964
-68468.018
-65893.573
-63432.881
-61211.144
-59233.449
-56103.559
-54768.918
-52951.562
-51004.535
-49096.6
-47273.197
-45391.222
-43587.242
-41698.389
-39950.571
-38036.21
-36166.363
-34148.423
-32234.252
-30031.305
-28072.954
-25804.435
-23712.078
-21332.506
-19237.617
-16796.411
-14646.727
-12434.628
-10270.764
-9082.8911
-7422.208
-6798.2654
14748.021
14596.028
11482.417
12126.563
8150.4065
8445.4294
4862.0972
3402.8549
793.28023
-1597.0491
-1455.2544
-5165.5382
-4639.7771
-9888.1504
-7962.7803
21537.687
17232.169
17208.898
19513.628
21229.622
23928.479
26387.944
29116.512
31605.292
34440.712
36996.02
39438.679
42164.411
44775.044
47356.039
49823.84
52367.05
54715.043
57111.447
59449.769
61681.731
63964.199
66176.134
68303.29
70402.059
72500.786
73787.999
77574.844
78998.379
81529.771
83908.461
86525.653
89156.237
92039.337
95040.872
98243.129
101685.91
105260.88
109122.89
113151.15
117401.05
121827.25
126490.08
131249.9
136227.08
141298.14
146496.31
151791.16
157130.46
162529.18
167994.07
173292.34
178800.94
184419.61
189288.08
194963.26
199551.84
202470.1
212369.69
214848.05
218008.85
228539.45
228986.65
235590.59
236246.38
247499.83
244240.61
256563.98
257080.82
264069.14
267080.01
268957.47
279582.2
280499.06
283230.85
291862.01
292349.87
300236.28
301501.2
310129.49
317601
312603.69
318425.76
325480.95
330331.22
327367.92
335325.84
331899.88
331274.01
325699.27
324137.63
335814.65
328881.68
302149.72
384162.09
884497.92
957870.62
1010750.2
1048842.8
1068537.7
1097968.2
1096561.7
1110339.6
1095861.7
1071578.6
1088268.1
1018000.2
984994.44
1027775.7
821379.87
-1341249.7
-1706011.7
-1699039.8
-1835942.5
-1800052.3
-1717671.8
-1976719.8
-2115506.9
-1983633.6
-1994072.2
-1917671.1
-1852318.1
-1741304.3
-1725020.4
-1617986.1
3213.0336
3287.2822
3900.0651
4182.0177
5155.4871
5579.135
5756.0336
5827.4296
5805.2446
5570.836
5373.5771
4511.2907
4140.3392
3733.9899
3757.9073
1021.2452
3811.7986
3197.6595
2672.8658
1947.7518
1915.0808
1462.4194
1559.6959
1748.2385
1889.3192
2719.5619
3231.7281
3389.0065
6665.3491
1501.7355
310495.32
317497.5
283161.32
285051.09
290343.9
293461.85
294360.54
296132.13
295861.61
294006.84
291119.42
291349.61
286019.21
282937.87
277818.45
276832.35
270207.38
267214.24
261687.37
258679.13
253865.67
250828.53
245604.89
241537.89
237213.1
234066.1
229168.13
225395.98
221347.26
217533.61
212795.34
209154.56
205722.41
201235.76
197172.99
192922.67
188886.87
183765.44
179837.25
175821.71
171473.55
166863.44
162423.68
157629.67
152949.76
148405.91
143527.39
139083.27
134290.19
129844.27
125246.92
120924.4
116548.3
112407.51
108333.14
104437.09
100678.71
97071.828
93649.654
90373.179
87241.138
84246.939
81474.355
78814.235
76021.352
73787.987
70957.083
68819.896
66673.418
64751.439
62606.693
60744.078
58602.001
56788.531
54631.622
52851.811
50639.493
48885.808
46517.001
44826.929
42442.046
40381.126
38227.28
36125.339
33736.152
31396.824
29135.27
26345.274
24131.052
22145.68
18713.456
16874.393
15003.298
9306.4038
4498.684
290121.05
264551.24
234250.38
243359.05
243154.66
245249.93
246331.7
248492.7
248024.58
248817.95
246487.96
245484.79
242263.56
240976.58
237045.27
233979.55
230077.06
227706.66
223377.84
220203.03
216459.24
212093.61
209016.7
205591.11
202377.43
198231.03
195410.75
191968.71
188517.07
185072.66
182045.07
178633.59
175041.67
171600.17
168273.72
164767.22
161199.09
157766.1
154186.26
150475.01
146561.71
143226.4
138793.32
135083.34
131078.18
127298.11
123270.59
119564.74
115539.78
111889.78
108013.68
104437.63
100754.38
97311.261
93881.988
90610.889
87428.724
84409.63
81472.669
78703.506
76019.382
73504.924
71143.815
68834.623
66667.816
65253.63
63495.899
61660.698
60402.165
58310.365
56501.862
54939.701
52825.732
51353.866
49127.535
47938.156
45417.994
44381.675
41780.526
40693.818
38186.458
36519.582
34628.697
31942.337
29651.539
27589.502
24935.024
23138.54
20813.157
18203.854
15803.408
13733.466
9897.1172
6279.6935
-185.70531
224953.13
226671.51
194622.55
204987.76
200615.49
204964.41
206705.77
208990.55
208109.78
208352.46
206690.12
206410.45
203571.36
201651.65
198513.87
196930.57
193079.69
190826.39
187047.87
184911.13
181317.99
179027.66
175990.42
173259.25
169733.57
167519.25
164437.95
161428.28
158765.37
155993.21
153066.76
150226.57
147543.75
144780.34
141953.14
139043.1
136406.68
133555.1
130681.57
127643.93
124262.55
121153.16
118189.68
115105.94
111942.65
108707.1
105411.34
102208.64
98929.214
95771.124
92555.814
89508.332
86395.217
83487.027
80560.506
77777.381
75074.024
72484.89
69960.075
67584.648
65274.277
63075.759
60987.181
58860.869
57122.657
55504.246
54152.591
52747.832
51270.444
50102.029
48597.3
47066.434
45490.893
43986.211
42503.85
40965.737
39546.231
37881.712
36506.352
34809.597
33188.117
31769.281
29671.905
28076.961
26244.098
24316.333
22127.901
20536.807
18288.978
16328.936
14365.136
11157.304
8976.2466
3849.1097
1190.1061
184926.4
183729.63
152066.88
163650.91
156615.89
162403.8
162582.08
164548.7
163694.03
165631.21
163966.54
164267.3
161257.13
161557.63
158227.6
157404.3
153895.03
153241.11
149716.94
148249.76
145077.01
143215.96
140476.56
138104.02
136120.42
133736.22
131526.88
129535.41
127350.97
125044.01
123145.51
120812.83
118785.78
116395.12
114656.59
111826.94
110022.19
106800.85
104501.85
101943.78
100111.5
97634.674
95101.876
92454.7
89966.614
87473.061
84925.656
82498.702
79970.551
77551.767
75074.855
72738.615
70326.915
68095.381
65797.48
63670.204
61527.386
59519.019
57515.69
55661.443
53823.1
52074.295
50394.424
48835.884
47300.271
45789.621
44695.785
43161.419
41609.261
40544.771
39301.991
37844.285
36719.732
35434.736
34242.375
33036.35
31826.233
30709.136
29399.614
28250.372
26958.102
25759.049
24243.943
22891.618
21316.4
20371.379
18645.801
17104.596
15347.903
13761.073
11364.804
9554.3938
6637.3697
3693.2973
-342.45974
150216.24
137775.46
114350.4
123943.93
120827.55
123693.46
124862.47
125976.4
125351.93
126128.38
125142.23
124354.6
123384.82
122368.84
120194.58
119537.8
116625.86
116116.41
113047.91
112421.53
109896.07
109030.94
106421.31
105738.11
103383.06
102077.78
100272.63
98677.449
96929.068
95581.612
93861.082
92331.892
90755.598
89377.762
87661.738
86107.297
85741.397
85338.898
83735.27
84287.968
81620.709
79990.009
78361.179
76557.532
74739.571
72823.253
70813.873
68872.078
66895.932
64913.418
62955.092
61060.959
59116.512
57287.577
55435.879
53674.205
51925.669
50249.778
48610.294
47036.031
45514.976
43974.44
42660.28
41226.72
39749.546
38818.339
37270.172
36330.735
35006.49
33903.878
32867.759
31498.042
29754.227
28578.631
27359.582
26403.878
25534.623
24584.211
23665.62
22852.739
21691.999
20989.181
19704.637
19018.021
17609.56
16917.017
15229.199
14294.098
12613.552
11148.767
9527.3318
7892.2532
6003.8458
3135.6805
432.50094
96526.341
97919.662
75879.818
86683.571
80633.618
83013.936
83750.879
85170.336
83570.547
85929.424
83611.437
84941.973
82510.253
83278.526
80805.134
81164.48
78732.812
79345.87
76267.997
76781.914
74158.537
73800.416
72036.586
71486.1
69785.511
69268.053
67948.855
67159.576
66210.252
65130.471
64260.15
63188.198
62470.608
61238.269
60428.603
59619.763
59296.361
59037.012
59154.322
58539.518
58574.858
57279.541
56000.645
54869.066
53617.923
52340.698
51013.081
49760.678
48417.634
47136.341
45825.968
44566.003
43253.403
42032.129
40783.551
39567.336
38385.138
37231.886
36081.755
34985.18
33896.205
32876.463
31820.041
30822.104
29966.362
28879.537
28137.298
27276.925
26426.725
25656.761
24801.785
23777.689
22896.631
21845.649
20705.484
20150.167
19410.222
18812.288
18075.481
17621.218
16573.309
16383.642
15050.498
14870.7
13493.104
13234.285
11747.884
11399.063
9969.5885
9441.8662
8178.8207
6882.8518
5313.6677
3202.1908
1790.8224
57089.903
51127.04
42534.3
48612.156
43704.061
45143.939
46337.146
46020.943
45477.228
45413.907
45554.116
44375.228
44429.427
44139.486
42756.625
43218.619
41436.857
41783.564
39978.505
41026.034
38820.742
39978.292
38147.33
38742.604
37393.151
37730.08
36559.578
36744.634
35804.281
35811.008
35244.331
35103.89
34558.328
34351.369
34027.254
33662.739
33273.744
33326.642
32598.827
31519.734
31350.949
30974.004
30327.759
30057.368
29538.83
29102.873
28461.434
28020.452
27356.243
26838.182
26207.043
25649.316
25001.943
24465.71
23819.542
23254.002
22648.434
22088.141
21464.204
20929.205
20342.453
19761.376
19224.645
18709.76
18085.2
17663.236
17105.337
16574.126
16118.595
15665.507
15203.145
14792.564
14339.252
14228.861
13893.769
13624.275
13174.265
12831.241
12469.946
12096.721
11660.08
11413.545
10676.56
10691.468
9672.9829
9774.1157
8677.7603
8687.9339
7601.0596
7141.3
5982.3012
5154.8411
4582.1872
3523.92
2821.2722
4975.865
9941.5328
2387.0499
8515.3943
5592.8967
7307.6283
6435.0976
7418.6191
4600.3782
7192.947
4743.3743
5908.4063
4730.6166
5333.4165
4171.8486
5433.5219
3651.7854
5529.4273
3745.7752
5139.4475
3821.101
5201.6048
3693.804
5053.4336
4145.0566
5059.561
4748.0774
5319.3526
5277.5558
5663.8041
5852.1687
5958.3559
6390.1963
6582.5956
6952.9612
7023.6285
7790.7876
7691.9406
8366.2792
8244.0959
8675.9673
9015.3406
9063.6163
9209.6257
9440.183
9492.776
9602.381
9759.8115
9806.1207
9883.0941
9918.9485
9964.553
9943.5105
9955.9978
9904.6965
9861.3034
9786.1604
9709.9902
9573.1704
9495.0724
9300.246
9189.6659
9016.2654
8822.3577
8691.4892
8488.7167
8317.6199
8182.9157
8006.7505
7870.2797
7649.6251
7494.7185
7203.0678
7144.6242
7039.9442
7008.4666
6796.0761
6794.4122
6632.0907
6598.3813
6498.9572
6294.7791
6310.989
6036.153
5860.7204
5831.7159
5238.0975
5585.5227
4650.4614
5209.4839
4695.4513
5116.3284
4784.771
4104.2854
4241.8997
-33866.949
-34436.569
-29967.997
-27429.39
-28567.501
-30369.346
-29848.584
-31773.949
-31701.824
-33081.487
-32373.753
-33468.745
-33063.853
-32758.531
-32840.105
-32305.029
-32530.278
-31028.756
-32467.138
-29878.604
-31161.249
-29204.606
-29938.759
-27763.695
-28538.439
-26389.22
-26953.052
-25103.67
-25163.186
-23657.254
-23417.086
-22116.825
-21495.749
-20487.185
-19742.655
-18613.2
-17996.942
-16902.599
-16028.202
-15077.158
-14287.859
-13305.987
-12619.364
-11607.61
-10832.298
-10014.561
-9311.793
-8476.8131
-7850.6443
-7141.4414
-6508.5683
-5859.5221
-5332.3802
-4737.8118
-4253.9349
-3773.084
-3346.1021
-2927.0451
-2598.7145
-2252.165
-1971.2813
-1720.5594
-1513.0795
-1286.8033
-1176.7294
-993.33842
-847.34
-731.42988
-581.34406
-441.91306
-295.91315
-90.366207
41.987725
244.58693
290.87255
373.73126
673.35575
837.8621
1052.0625
1237.6449
1435.4047
1591.5877
1791.6971
1972.2546
1980.9542
2513.7416
2119.8897
3106.9802
2417.6618
3461.8977
2857.8059
3149.4462
3020.2021
3946.7056
5278.0899
-82687.178
-80015.597
-67224.167
-66830.925
-69476.375
-69698.452
-71617.028
-71179.543
-74515.56
-73133.44
-74220.983
-74228.755
-73844.787
-72883.051
-73325.95
-71224.429
-71317.27
-69484.943
-69212.637
-66921.499
-67259.296
-63513.155
-63270.086
-60773.49
-60568.136
-58427.235
-57815.627
-55789.799
-54822.757
-53201.929
-51963.362
-50390.172
-49100.288
-47597.014
-45920.514
-44717.876
-42863.354
-41599.101
-39848.474
-38503.97
-36914.603
-35438.529
-33857.967
-32477.207
-30942.128
-29526.008
-28096.21
-26651.418
-25331.25
-23988.182
-22689.166
-21461.203
-20298.54
-19137.784
-18085.421
-17081.671
-16123.364
-15230.637
-14444.05
-13622.737
-12958.571
-12297.713
-11679.775
-11146.855
-10644.692
-10129.065
-9687.8615
-9270.3453
-8839.045
-8440.2447
-8053.8468
-7634.4474
-7278.1567
-6552.8013
-5545.2461
-5117.2688
-4618.4957
-4321.1592
-3637.0571
-3612.1479
-2591.1383
-2869.7714
-1723.71
-1936.7592
-1099.4894
-778.52685
-583.61121
555.61011
98.329561
1807.3991
1439.995
2421.7351
3331.2618
4648.7242
6132.1979
-132109.15
-104907.15
-93990.255
-95274.442
-98602.24
-99093.493
-101554.77
-103076.25
-104911.16
-105143.12
-105427.11
-105732.53
-104715.69
-104077.13
-103461.52
-101037.35
-101565.47
-98207.876
-98506.943
-96104.3
-96429.917
-95991.357
-95861.386
-93701.054
-93786.935
-90286.637
-90028.319
-86545.383
-85832.933
-82829.744
-81541.243
-79049.093
-77455.013
-74984.023
-73194.445
-70824.73
-68896.832
-66630.708
-64558.697
-62334.806
-60266.072
-57957.531
-55917.989
-53707.987
-51604.408
-49454.028
-47458.548
-45356.912
-43426.312
-41440.413
-39577.168
-37727.11
-35988.172
-34258.055
-32659.681
-31106.813
-29638.017
-28256.357
-26955.344
-25716.321
-24585.857
-23483.373
-22499.412
-21544.164
-20713.588
-19861.348
-19092.439
-18320.462
-17574.533
-16838.645
-16105.39
-15459.556
-14613.509
-13871.399
-13061.044
-11990.1
-10862.283
-10128.06
-9366.9181
-8583.4454
-8008.6328
-7121.609
-6551.2692
-5758.2222
-5009.7138
-4431.7475
-3457.8576
-2971.8286
-1920.8114
-1051.0519
-254.21173
1326.8242
2533.0446
4395.7683
8006.9884
-161669.98
-152697.62
-137453.84
-133887.82
-137041.77
-137172.12
-141616.82
-142315.45
-144019.46
-144624.44
-145419.05
-143858.57
-144332.83
-141827.85
-141212.76
-139052.85
-137486.81
-134801.45
-134064.91
-130348.94
-130275.69
-126585.98
-128060.15
-126076.71
-124710.87
-121923.51
-120147.11
-117111.69
-115004.02
-111941.24
-109882.56
-106839.86
-104505.17
-101806.88
-99014.62
-96510.443
-93572.15
-90923.318
-88005.875
-85311.742
-82341.31
-79640.876
-76753.565
-73987.917
-71157.753
-68371.136
-65660.235
-62898.605
-60245.976
-57648.516
-55100.019
-52633.539
-50272.039
-47973.587
-45796.138
-43722.179
-41748.191
-39875.705
-38148.343
-36485.405
-34941.45
-33510.453
-32140.135
-30868.956
-29711.325
-28568.252
-27505.533
-26518.072
-25520.329
-24532.332
-23672.323
-22656.601
-21760.755
-20848.957
-19909.631
-19369.534
-18254.038
-17193.225
-16157.424
-15183.653
-14071.059
-13075.719
-11957.492
-10934.968
-9743.0863
-8859.0565
-7387.1899
-6679.4336
-5227.0353
-3931.299
-3119.9045
-358.36373
1336.3348
5465.1321
9499.7213
-228723.03
-205478.3
-173057.27
-182759.58
-180313.99
-187091.19
-187557.44
-190895.52
-191189.5
-192569.84
-191341.69
-191811.76
-189180.31
-188365.46
-185445.75
-183196.82
-180712.41
-177325.93
-175454.84
-171637.43
-170004.39
-166065.06
-163920.1
-159108.95
-157614.67
-153115.51
-151998.6
-147230.65
-145472.31
-141305.06
-138967.16
-134950.73
-132534.37
-128820.32
-125906.68
-122423.92
-119124.56
-115709.04
-112421.34
-108884.81
-105572.73
-102060.23
-98622.143
-95135.708
-91718.709
-88262.512
-84941.855
-81528.18
-78302.42
-75069.011
-71931.684
-68871.131
-65941.581
-63072.007
-60352.381
-57743.978
-55247.543
-52896.772
-50679.256
-48555.128
-46601.557
-44725.984
-42977.078
-41302.085
-39772.993
-38284.309
-36905.344
-35563.19
-34256.811
-32967.148
-31703.787
-30472.536
-29209.729
-27983.367
-26672.214
-25451.938
-24147.54
-22911.974
-21568.456
-20254.02
-18939.989
-17584.366
-16228.375
-14871.069
-13518.428
-12089.007
-10692.583
-9414.1994
-7534.9531
-6553.7096
-4227.5039
-2408.2185
-235.8132
3361.1593
7838.4661
-253834.56
-241217.32
-201733.83
-218306.77
-219742.37
-225621.77
-226650.02
-230755.29
-231293.32
-230830.32
-231874.06
-229096.53
-228173.09
-225512.78
-222286.36
-219469.22
-216350.93
-211928.1
-209900.2
-205172.43
-202243.33
-198470.2
-195612.14
-192407.42
-189123.87
-185329.48
-181980
-177957.44
-175094.7
-170795.34
-167515.32
-163472.61
-159651.97
-155777.9
-151925.1
-148271.55
-144171.11
-140418.14
-136177.09
-132245.62
-128079.94
-123968.89
-119842.4
-115697.73
-111583.4
-107450.07
-103363.1
-99311.419
-95331.679
-91419.159
-87591.242
-83883.638
-80295.235
-76829.437
-73514.531
-70354.407
-67348.107
-64505.461
-61824.329
-59312.327
-56944.231
-54743.861
-52662.952
-50694.872
-48839.049
-47039.827
-45302.37
-43824.795
-42358.692
-40808.759
-39434.299
-37971.755
-36471.563
-35107.264
-33542.328
-32081.456
-30544.455
-29024.167
-27417.803
-25906.059
-24255.047
-22673.63
-20998.264
-19406.583
-17624.996
-16050.379
-14260.181
-12566.667
-10688.094
-9297.8531
-6506.5264
-5567.4849
-2320.215
1376.6462
7396.7382
-356588.95
-236103.48
-253217.13
-252757.3
-264264.49
-259779.8
-267575.41
-268543.56
-268223.96
-268576.99
-267025.43
-266468.67
-262688.78
-259751.79
-256215.99
-252508.59
-250123.8
-244126.29
-242442.96
-235720.47
-233184.87
-227713.61
-226024.44
-220477.38
-219227.64
-212410.63
-210534.64
-204290.96
-202612.19
-196791.38
-193818.6
-188765.05
-184738.89
-179895.93
-175188.88
-171512.43
-167071.51
-162563.62
-157905.57
-153347.41
-148588.2
-143909.79
-139150.69
-134356.26
-129644.09
-124842.88
-120191.08
-115523.58
-110947.73
-106459.3
-102071.24
-97807.425
-93687.947
-89697.291
-85898.079
-82261.921
-78798.803
-75529.833
-72456.649
-69540.795
-66833.556
-64291.97
-61901.449
-59664.35
-57565.75
-55454.36
-53437.532
-51586.163
-50017.045
-48248.162
-46683.258
-44854.167
-43230.972
-41529.387
-39799.684
-38069.618
-36416.002
-34568.493
-32822.537
-30947.544
-29093.614
-27168.616
-25299.686
-23267.894
-21359.984
-19397.078
-17302.732
-15436.74
-13415.796
-11563.806
-9366.4339
-8535.5201
-5497.5474
-3150.6567
2848.1611
685164.23
671270.27
654066.99
671830
673941.04
678803.41
700674.35
686293.16
679188.3
678192.84
672796.61
649164.16
643931.75
674609.67
574229.43
620286.14
636846.43
604640.36
622253.12
625759.9
637114.67
619478.13
641475.19
634219.66
638411.67
624582.13
620527.13
619212.19
624232.09
536430.3
471864.93
530709.06
472270.48
492353.5
491976.4
486684.58
491993.53
487151.1
491096.54
482830.07
481529.14
483385.89
452063.08
495761.95
457335.05
412953.6
414786.96
413032.22
407203.73
418576.21
414527.84
420471.8
419431.3
415139.7
416312.9
415319.59
400273.07
401913.31
427342.9
308035.67
299395.03
333592.08
293944.46
315238.25
304805.94
315172.48
310644.22
309791.47
310424.98
309584.11
303993.43
303631.24
299654.21
306969.27
274992.13
226267.01
234840.81
218756.05
224749.4
224622.49
224497.43
222315.56
222142.63
223035.39
220698.03
214180.39
222003.81
207351.54
220137.33
208263.3
129513.49
129095.27
130019.08
122918.02
128486.83
128349.42
125619.82
125260.35
122911.21
123324.01
120248.89
113878.73
121356.95
113287.48
112995.84
33254.545
33901.562
23615.724
30831.976
25078.988
26677.836
23842.084
24251.758
20761.237
26306.376
11559.884
23891.183
29398.073
4258.5588
55335.673
-51610.752
-63364.854
-52654.558
-62718.519
-59878.803
-62151.043
-63739.653
-63974.059
-67249.322
-62427.111
-74518.544
-62668.178
-64479.549
-87866.519
-5145.751
-135164.95
-166928.98
-151448.98
-157205.88
-159639.84
-161990.32
-166123.84
-165579.73
-172439.86
-162155.86
-186360.15
-160602.19
-160636.11
-198856.46
-95839.647
-229623.65
-286498.85
-239137.56
-270426.16
-256729.92
-267166.84
-264459.21
-266400.43
-268897.56
-258489.32
-267552.32
-261888.46
-247619.7
-281945.39
-163427.52
-347408.76
-332381.46
-340035.89
-329916.89
-348178.81
-348114.9
-353546.58
-357190.05
-360061.13
-355869.78
-375851.48
-331529.58
-349691.54
-390139.74
-255151.02
-401387.63
-456223.85
-398953.84
-424189.52
-404749.46
-421765.37
-417329.63
-418007.95
-415974.93
-412979.21
-419240.73
-421315.79
-386569.72
-466382.62
-231797.59
-501828.19
-603512.6
-531474.4
-573917.22
-593402.58
-588555.54
-594095.27
-624228.1
-610689.78
-626565.69
-590736.29
-579013.24
-591246.3
-579827.64
-517548.29
-546938.18
-482912.69
-435160.75
-440175.02
-459950.38
-495942.17
-475069.35
-458851.52
-438505.01
-436812.68
-446449.07
-449923.73
-451591.2
-503731.33
-450448.84
-506949.96
-478620.89
-569493.24
-602662.51
-625332.32
-683628.4
-657379.15
-614984.51
-700763.67
-687106.68
-665213.71
-632029.4
-606508.17
-575892.9
-485724.75
-354936.19
-360540.6
-405727.06
-417559.06
-435828.23
-450697.24
-463829.11
-479274.37
-494661.75
-470730.93
-461090.09
-433039.1
-436080.54
-430178.15
-434363.69
-297346.99
-343591.22
-337624.49
-369679.49
-394117.78
-382458.01
-402555.91
-399240.55
-387329
-404439.45
-388607.15
-393938.34
-380094.07
-337664.36
-350410.63
-296980.9
-337759.5
-343635.23
-352289.78
-363477.56
-371170.42
-374903.27
-378312.68
-377803.48
-369436.8
-369740.29
-360654.65
-345585.25
-339788.85
-319668.69
-317393.01
-350250.42
-343036.7
-368640.34
-373588.83
-381628.99
-389894.4
-388967.43
-391981.84
-391144.99
-380818.36
-373266.74
-356788.99
-342117.37
-337180.85
-308008.51
-321739.97
-329885.51
-343497.59
-349769.24
-359616.86
-359474.84
-361799.22
-362434.48
-356589.75
-354450.19
-347338.91
-336203.42
-328216.14
-310967.86
-305187.86
-329013.91
-330280.76
-344315.81
-347053.35
-355248.61
-358238.91
-359590.65
-359919.75
-356287.77
-349484.36
-345187.7
-335826.93
-322518.67
-324527.82
-308329.24
-314182.54
-324151.04
-327928.13
-339080.06
-340373.27
-344733.17
-346225.57
-345362.98
-343064.17
-339292.22
-333172.18
-326952.57
-317074.04
-309636.71
-300819.94
-315681.53
-317833.81
-327883.63
-328357.21
-337067.83
-335146.48
-338431.02
-337808.78
-333724.6
-331185.85
-326218.68
-321039.92
-314864.04
-309437.82
-302167.22
-304756.79
-311149.24
-312717.57
-318778.5
-319840.23
-323499.67
-323479.83
-322421.22
-323403.54
-319242.88
-317393.49
-312943.79
-307694.92
-305177.87
-294713.44
-303559.8
-305096.62
-312091.6
-313617.35
-318796.68
-318108.82
-321308.07
-320941.58
-318868.95
-318430.75
-316004.34
-311520.45
-308959.31
-306172.69
-295256.04
-295166.92
-299857.82
-301184.13
-304299.85
-304580.64
-307827.04
-308372.58
-309267.4
-308812.37
-307810.85
-305717.23
-304325.99
-300971.3
-299956.69
-290645.44
-292414.29
-293309.33
-297160.04
-298182.1
-302097.15
-301953.88
-304060.83
-303991.81
-303943.9
-301959.26
-302489.08
-298386.95
-298432.29
-296357.71
-285914.76
-285782.34
-289815.19
-289629.39
-292269.52
-292383.1
-293705.95
-294818.03
-295523.73
-294687.04
-295002.92
-294211.95
-293096.52
-292036.71
-292000.46
-281935.86
-281955.01
-283981.52
-285191.91
-287286.42
-287481.61
-289380.21
-289650.21
-290811.85
-291384.17
-290365.67
-290869.54
-287179.06
-289398.41
-288086.55
-276762.12
-276734.87
-279937.69
-278773.85
-280700.15
-280295.44
-283872.18
-281463.14
-281924.05
-281706.5
-281446.52
-281727.99
-278618.5
-279536.05
-278124.83
-273801.76
-272173.96
-274677.62
-273218.41
-276297.97
-276577.68
-277059.26
-278279.18
-278411.8
-279419.85
-278475.44
-279711.04
-278731.32
-277969.19
-279978.59
-268981.39
-268257.7
-269638.07
-269032.05
-270429.71
-270472.5
-271971.35
-270998.72
-271673.5
-271322.91
-271039.3
-270882.2
-271827.23
-269157.59
-270206.26
-264013.8
-263480.59
-265327.96
-265359.85
-266323.43
-265720.16
-265792.03
-267349.59
-266908.35
-268156.11
-265954.61
-269001.4
-266768.36
-270261.04
-268439.06
-259840.09
-259245.8
-260109.87
-259590.98
-260948.75
-260711.9
-262655.91
-261196.77
-262520.63
-261400.64
-261468.35
-262091.65
-260841.21
-261794.17
-260820.14
-256389.63
-254868.21
-256678.21
-255177.4
-256388.98
-255560.62
-256930.2
-257800.42
-256787.93
-257974.83
-257686.03
-259194.87
-258118.57
-259599.68
-258878
-249322.69
-250980.11
-250727.91
-251137.86
-251843.05
-251479.17
-252592.38
-251825.7
-252965.8
-252629.59
-252607.61
-253315.08
-251721.23
-251558.17
-253127.07
-248094.7
-245814.71
-247219.54
-246775.34
-247427.71
-247443.93
-248255.52
-247887.67
-247659.89
-248856.87
-247850.81
-248897.49
-247045.31
-249874.63
-248481.05
-241395.49
-241764.95
-242040.63
-242650.31
-242751.26
-242617.41
-243757.24
-242891.41
-244002.5
-243588.21
-242956.63
-244788.69
-243607.52
-243951.8
-243874.78
-238676.9
-237838.98
-238497.72
-237720.02
-238609.7
-238069.41
-239337.56
-239039.62
-239104.19
-239847.4
-238192.4
-240005.46
-238702.81
-239618.02
-239621.53
-234018.59
-232232.46
-234027.06
-232886.62
-234027.87
-233855.04
-234713.94
-234111.87
-234887.87
-234928.87
-235545.66
-235695.73
-233967.22
-236047.27
-234635.41
-229704.14
-227894.51
-229379.48
-228998.82
-229876.78
-230112.81
-230503.24
-230549.7
-230516.78
-230824.78
-230041.03
-231739.13
-229430.35
-230568.74
-231377.64
-225530.12
-223495.94
-224557.7
-224596.32
-225700.44
-225335.82
-225896.46
-225681.46
-226526.11
-226194.79
-226375.81
-226498.01
-225574.75
-227563.82
-225778.85
-220448.46
-219664.19
-221348.16
-220226.93
-221263.19
-221150.1
-221741.96
-221755.81
-221868.33
-222256.06
-221472.05
-222679.84
-221218.66
-221803.48
-222658.65
-217109.91
-214439.58
-216253.35
-215814.32
-217098.49
-216360.72
-217226.27
-217173.54
-217641.45
-217485.8
-217093.65
-218238.08
-216681.14
-218242.69
-217889.97
-212073.32
-210692.71
-211962.25
-211753.2
-212403.28
-213043.16
-213088.51
-212922.59
-212748.58
-213591.74
-212983.21
-214039.73
-212583.03
-213286.05
-213475.65
-207917.01
-205701.22
-207628.58
-206959.25
-207960.18
-208151.36
-208323.19
-208367.61
-208462.1
-208834.93
-208318.19
-209487.3
-208101.67
-209351
-209099.04
-203330.5
-201487.97
-202969.77
-202662.54
-203729.4
-203644.27
-204103.59
-204010.68
-204362.27
-204595.58
-204181.9
-205070.59
-203890.35
-204726.98
-204423.91
-198471.5
-196736.13
-198374.04
-197999.25
-198882.42
-198950.68
-199437.81
-199432.86
-199637.48
-199918.9
-199383.93
-200564.6
-199340.97
-200411.99
-200260.99
-193399.02
-192362.49
-193775.1
-193305.63
-194359.06
-194536.82
-194849.24
-195067.15
-195117.95
-195564.67
-195056.18
-196045.02
-194819.7
-195833.07
-195252.68
-188082.38
-187995.18
-188595.15
-189501.23
-189263.56
-189807.26
-190040.7
-190094.49
-190410.51
-190669.55
-190354.14
-191276.85
-190528.22
-191017.75
-191892.97
-184558.15
-182597.72
-184038.39
-183830.96
-185099.62
-184753.59
-185651.6
-185361.36
-185908.54
-185737.4
-185571.38
-186826.72
-185523.41
-186762.25
-186388.8
-178933.73
-178123.13
-179178.38
-179444.37
-179730.23
-180295.85
-180341.5
-180767.17
-180831.23
-181081.07
-180830.07
-181776.13
-180960.52
-181670.21
-181778.83
-174672.85
-172756.7
-174435.93
-174083.37
-175108.21
-175024.49
-175684.06
-175654.14
-175868.95
-176279.63
-175925.33
-177127.43
-175974.05
-177055.42
-176919.67
-169206.7
-167997.21
-169347.8
-169274.23
-169983.09
-170243.77
-170670
-170650.47
-171083.69
-171271.66
-171072.03
-171972.73
-171177.98
-172113.87
-172147.81
-164342.4
-162756.08
-164305.04
-163967.78
-164930.58
-164926.58
-165440.46
-165541.44
-165846.08
-166203.96
-165909.43
-167008.55
-166123.48
-167174.2
-167116.25
-159044.67
-157774.25
-159103.36
-158963.2
-159790.91
-159851.32
-160456.5
-160381.89
-160843.82
-161030.01
-160929.07
-161898.47
-161147.7
-162117.29
-162174.21
-154009.27
-152488.16
-153928.32
-153619.96
-154472.08
-154601.04
-155069.5
-155132.62
-155507.52
-155836.25
-155691.86
-156743.61
-155954.69
-157054.34
-157103.94