/*--------------------------------*- C++ -*----------------------------------*\
  =========                 |
  \\      /  F ield         | OpenFOAM: The Open Source CFD Toolbox
   \\    /   O peration     | Website:  https://openfoam.org
    \\  /    A nd           | Version:  6
     \\/     M anipulation  |
\*---------------------------------------------------------------------------*/
FoamFile
{
    version     2.0;
    format      ascii;
    class       pointVectorField;
    location    "0.43";
    object      lm;
}
// * * * * * * * * * * * * * * * * * * * * * * * * * * * * * * * * * * * * * //

dimensions      [1 -2 -1 0 0 0 0];

internalField   nonuniform List<vector> 
28033
(
(-1.780536e-14 4.8656612e-16 1.3104288e-15)
(-5.4375576e-15 3.3318594e-15 9.9433006e-16)
(1050.351 -255.60354 -19.766952)
(896.27947 -676.97839 64.121152)
(-1.338461e-14 3.0090723e-15 -2.870051e-16)
(-1.2587315e-14 4.9008913e-15 -4.4266115e-15)
(888.2053 -641.33888 -9.2983859)
(1046.0039 -236.49444 58.702432)
(-5.6329745e-15 1.0535579e-15 6.7193838e-16)
(-2.4534443e-15 3.0423504e-16 5.8836893e-16)
(-5.4923298e-15 2.4302826e-15 8.9528572e-16)
(-2.6209443e-15 -1.1537891e-15 -6.7979696e-16)
(-7.2548563e-15 1.5542294e-15 1.0013199e-15)
(-4.7613589e-15 -9.2108094e-16 -7.3952737e-16)
(-1.132389e-15 -2.2256662e-17 -6.4484848e-16)
(-7.4239857e-16 -2.4218299e-16 -3.6669977e-16)
(-1.1196198e-15 4.5550132e-16 8.383863e-16)
(-2.3465882e-16 2.2667819e-16 1.4996246e-15)
(-4.0583243e-15 -8.7236639e-16 -1.3429605e-15)
(-5.8237189e-15 8.4462789e-16 7.5519031e-16)
(-5.1611762e-15 1.0100276e-15 9.7613867e-16)
(-1.7679952e-15 -8.1010255e-16 4.5192313e-16)
(-4.4158752e-15 1.0299569e-15 -9.452958e-16)
(1014.8877 -265.30327 -6.3391985)
(971.65241 -272.61828 4.7147654)
(938.40806 -284.13708 13.916397)
(917.05449 -301.99275 19.03691)
(910.11835 -325.83077 23.080799)
(916.93374 -357.59603 24.840936)
(933.84825 -396.39166 26.399268)
(956.97613 -441.1237 27.252487)
(980.26319 -489.36794 27.279169)
(999.52687 -537.92775 27.885093)
(1009.1198 -583.25465 29.350584)
(1007.339 -621.09353 32.16517)
(993.01899 -649.83283 37.895613)
(966.31755 -667.0522 44.729062)
(930.89941 -674.15003 53.89624)
(7.0887204 -12.823666 -26.841219)
(31.148129 -24.793545 -52.104673)
(52.891225 -42.968263 -72.136694)
(67.744694 -65.123756 -88.444407)
(72.500101 -89.271062 -96.738627)
(66.433204 -113.96559 -99.23475)
(48.654152 -136.63458 -94.508004)
(19.759771 -156.49217 -83.449144)
(-19.311776 -171.48785 -66.617557)
(-66.63603 -181.00214 -44.851532)
(-119.94379 -183.56134 -18.758937)
(-176.4729 -180.0304 9.1930007)
(-233.71649 -169.46982 38.774433)
(-288.30571 -152.93076 67.361871)
(-337.98403 -131.02227 94.51954)
(-379.58028 -105.55701 117.77328)
(-411.98656 -77.404576 136.98035)
(-433.42962 -47.939653 150.55297)
(-443.6955 -19.072285 158.53154)
(-441.71639 8.0505216 159.92193)
(-428.92583 32.454658 155.85915)
(-406.09439 52.829644 145.69573)
(-374.50717 68.995037 131.11035)
(-336.39207 80.140878 112.59857)
(-293.70071 86.407931 90.910537)
(-248.3414 88.414845 68.132362)
(-203.03108 86.044952 44.893742)
(-159.0934 80.152419 22.647377)
(-118.8603 71.78669 2.1446941)
(-83.545284 61.783304 -14.93306)
(-54.225414 50.763168 -28.471832)
(-31.713636 40.202005 -37.561128)
(-16.152386 30.5944 -42.072442)
(-7.470822 22.538098 -42.078486)
(-5.1234452 16.689366 -37.452715)
(-8.2807124 13.362153 -28.718563)
(-15.784246 12.740447 -16.971622)
(-26.667889 14.412533 -2.8100535)
(-38.887642 18.764925 13.304923)
(-51.630632 24.74903 29.517962)
(-62.90477 32.01612 45.284687)
(-71.735041 40.17244 59.516913)
(-76.893437 48.184917 71.31367)
(-77.426571 55.564897 79.883472)
(-72.755057 61.5689 84.779993)
(-62.58923 65.662262 85.627422)
(-46.973268 67.387444 82.395555)
(-26.303037 66.423618 75.236261)
(-1.2402494 62.622985 64.572121)
(27.278081 55.971966 50.987923)
(58.131296 46.629215 35.242256)
(90.055984 34.89081 18.206643)
(121.73388 21.199528 0.80893919)
(151.85181 6.099085 -15.996469)
(179.1756 -9.7639092 -31.294398)
(202.61481 -25.69278 -44.246159)
(221.27794 -40.955638 -54.130676)
(234.51761 -54.841652 -60.380955)
(241.97398 -66.665877 -62.61393)
(243.57991 -75.851308 -60.653369)
(239.59894 -81.900637 -54.515103)
(230.58684 -84.52096 -44.467124)
(217.36567 -83.444309 -30.949153)
(201.16424 -78.797335 -14.544649)
(183.02976 -70.519621 3.8849489)
(164.83133 -59.213136 23.348928)
(147.70815 -45.197948 43.275677)
(133.48111 -28.899886 62.39306)
(123.82451 -11.487502 79.397152)
(119.77257 6.6910174 93.990682)
(122.70623 24.466699 104.989)
(133.64445 41.176027 111.92446)
(153.03621 55.867046 114.37117)
(181.18336 67.798375 112.09509)
(217.90898 76.245785 105.13297)
(262.67063 80.729547 93.745765)
(314.5329 80.773627 78.474251)
(372.1688 76.246718 60.025196)
(434.13168 67.001392 39.331665)
(498.61202 53.447042 17.321233)
(563.66248 35.681311 -4.8419853)
(627.81371 14.371668 -26.319244)
(689.00098 -9.7556775 -45.869269)
(745.85658 -35.664577 -62.951251)
(797.46424 -62.714642 -76.611649)
(842.49889 -90.186708 -86.629882)
(881.13995 -116.83858 -92.469051)
(912.71672 -142.09705 -94.622675)
(938.23304 -165.14671 -92.51658)
(958.13305 -185.47953 -88.114425)
(974.02301 -203.3757 -79.341691)
(986.23471 -216.90307 -70.702698)
(997.89074 -230.15365 -58.021749)
(1008.4898 -238.1498 -47.133163)
(1019.9494 -245.34748 -33.078452)
(21.845095 -2.6276963 5.5426215)
(62.364975 -3.0038914 26.441988)
(105.54979 11.502674 57.383425)
(141.98607 19.395703 77.429807)
(161.65863 39.952579 93.1096)
(164.2218 59.406485 97.444457)
(151.0205 82.18478 94.402586)
(120.74558 103.74553 82.134228)
(76.773405 125.37071 63.780539)
(20.8438 144.0132 38.776439)
(-43.276392 159.8279 11.064247)
(-112.26749 170.5374 -18.793587)
(-181.87206 176.48679 -48.27563)
(-249.51053 176.42843 -75.321285)
(-311.12336 170.3523 -99.083626)
(-364.47025 158.18508 -117.61227)
(-407.96392 140.53794 -130.45213)
(-438.94481 117.80793 -137.25467)
(-457.82552 91.054119 -137.95024)
(-464.69055 61.420884 -132.93606)
(-459.19051 30.200095 -122.90239)
(-443.42374 -1.7817237 -108.94215)
(-418.4707 -32.636497 -91.519632)
(-386.02556 -62.015654 -72.340205)
(-348.45935 -88.316687 -52.402046)
(-307.7636 -110.75201 -32.252386)
(-265.87365 -129.15143 -13.548583)
(-225.07644 -142.72536 3.5197122)
(-186.69762 -151.89066 17.990574)
(-152.3667 -156.42291 29.664546)
(-123.24234 -157.10328 38.30836)
(-99.690593 -154.10332 43.826529)
(-82.282946 -148.55072 46.529286)
(-70.970425 -141.11113 46.515557)
(-65.394875 -132.79806 44.152094)
(-64.854396 -124.56741 40.324004)
(-68.838753 -117.25254 34.393632)
(-76.137562 -111.59571 27.855639)
(-85.547728 -108.33756 20.68417)
(-96.122827 -108.06996 13.309374)
(-106.68585 -110.94026 5.9977089)
(-116.12847 -117.16681 -0.94662222)
(-123.44405 -126.65835 -7.2618871)
(-127.78504 -139.17769 -12.779515)
(-128.46083 -154.30755 -17.332848)
(-124.99045 -171.50427 -20.811963)
(-117.11225 -190.12094 -23.143882)
(-104.79878 -209.44298 -24.29352)
(-88.261562 -228.72909 -24.273253)
(-67.932635 -247.25197 -23.134098)
(-44.456663 -264.33195 -20.974173)
(-18.64726 -279.37429 -17.927832)
(8.5402183 -291.89391 -14.169068)
(36.066162 -301.54189 -9.8978384)
(62.842657 -308.11136 -5.3420237)
(87.797993 -311.55256 -0.74072322)
(109.91466 -311.96518 3.6544486)
(128.2814 -309.5917 7.5916568)
(142.13585 -304.80795 10.827873)
(150.90141 -298.10496 13.133957)
(154.21906 -290.06634 14.311758)
(151.97404 -281.35226 14.196126)
(144.31561 -272.67695 12.689877)
(131.66638 -264.77186 9.7396407)
(114.71135 -258.38938 5.401643)
(94.399898 -254.19521 -0.20169033)
(71.957492 -252.89675 -6.8700666)
(48.736059 -255.05341 -14.217441)
(25.96605 -261.18444 -21.911424)
(5.6645665 -271.22996 -29.468252)
(-10.297762 -285.60217 -36.290082)
(-21.132049 -304.4802 -41.756552)
(-25.126405 -327.13974 -45.51038)
(-21.141059 -353.33021 -47.027932)
(-8.3074227 -382.47294 -45.746253)
(13.800955 -413.77925 -41.497736)
(45.264461 -446.39245 -34.091185)
(85.727555 -479.35745 -23.568298)
(134.39202 -511.71469 -10.166111)
(190.06217 -542.51525 5.692639)
(251.19618 -570.87189 23.368245)
(316.03779 -596.05763 42.12437)
(382.63214 -617.47391 61.058271)
(449.02939 -634.75518 79.270217)
(513.35558 -647.7653 95.833542)
(573.96025 -656.62697 109.93848)
(629.49735 -661.7175 120.88322)
(679.03732 -663.66423 128.19196)
(722.09398 -663.27814 131.55757)
(758.64945 -661.53909 130.96122)
(789.15876 -659.47468 126.55148)
(814.51882 -658.07471 118.6159)
(835.84212 -658.3133 107.85273)
(854.695 -660.56608 94.573221)
(874.67315 -667.17103 79.58617)
(3.2927448e-15 -1.3239155e-15 2.3845803e-16)
(2.4470133e-15 -9.6672015e-16 3.215493e-17)
(-9.0574249e-15 9.0550918e-16 6.4029168e-16)
(-1.2642219e-16 -5.721845e-16 4.4370095e-16)
(-7.6811722e-15 -4.9270561e-16 4.1193361e-16)
(-7.3893964e-15 2.7533729e-15 -1.0951501e-15)
(-3.2915852e-15 -8.1743692e-16 3.8364228e-16)
(-1.9032499e-15 5.3200654e-16 -8.2319016e-17)
(-4.7409759e-15 -4.8623412e-16 4.3918642e-16)
(-1.2869644e-14 1.1845665e-15 6.4228907e-16)
(-9.6157521e-15 1.4157374e-15 5.9836601e-16)
(-9.4077204e-15 4.9518432e-16 1.1192419e-15)
(-5.982767e-15 2.6210694e-16 3.0473736e-16)
(-1.1478475e-14 -5.3386198e-16 1.6580808e-15)
(-5.257323e-15 3.6289085e-16 2.8600704e-16)
(12.934575 -5.0218166 -0.49866231)
(51.893466 8.7045665 -33.342781)
(96.118394 8.6232933 -59.837995)
(124.33933 25.510534 -83.631351)
(146.12103 45.638685 -94.8627)
(140.62513 62.930763 -98.733577)
(128.66416 84.18359 -91.265216)
(93.599454 106.31066 -78.909998)
(50.016598 123.23744 -53.637692)
(-7.4223414 143.67594 -26.762736)
(-70.832742 160.19284 5.4564133)
(-140.9429 167.44789 39.792013)
(-207.28042 178.86677 73.921597)
(-276.35431 176.91979 105.31226)
(-332.76467 176.53511 133.16543)
(-384.39058 167.73631 154.59047)
(-426.43484 152.92948 169.47687)
(-450.76978 136.27097 178.64135)
(-468.91449 114.44936 178.08518)
(-468.10551 89.346063 172.23707)
(-458.59916 63.543536 159.21769)
(-438.09003 37.475827 139.95696)
(-408.31493 9.0646191 117.5887)
(-371.21416 -16.316942 91.939519)
(-329.53579 -39.758493 65.070797)
(-285.85138 -62.5103 38.524116)
(-239.89992 -77.182843 13.181349)
(-199.33298 -93.94192 -9.9026107)
(-158.86645 -101.81252 -27.885901)
(-126.85194 -108.74671 -42.611345)
(-99.285646 -111.1548 -51.336487)
(-79.110865 -110.20294 -55.187671)
(-65.825021 -106.60507 -53.687231)
(-59.152596 -100.76859 -47.407002)
(-58.866478 -92.161762 -37.75628)
(-64.016236 -86.587515 -23.110305)
(-73.009692 -77.011999 -7.0196297)
(-84.427637 -70.123867 10.481026)
(-97.330219 -64.590223 28.279592)
(-110.06869 -61.139614 45.42021)
(-121.30463 -60.291812 60.931404)
(-129.83266 -62.265011 74.006109)
(-134.62919 -67.230685 84.007833)
(-134.92417 -75.118152 90.500339)
(-130.21805 -85.734202 93.242188)
(-120.3002 -98.714365 92.214176)
(-105.25976 -113.59139 87.600655)
(-85.463131 -129.78551 79.767419)
(-61.531342 -146.67432 69.243892)
(-34.302664 -163.59455 56.673466)
(-4.7833565 -179.91291 42.791642)
(25.909135 -195.02376 28.360754)
(56.595245 -208.41278 14.159312)
(86.099277 -219.64495 0.90873646)
(113.2908 -228.42142 -10.715697)
(137.14309 -234.54376 -20.153771)
(156.75887 -237.96945 -26.934617)
(171.42477 -238.76511 -30.732454)
(180.61322 -237.13923 -31.33492)
(184.03468 -233.41343 -28.684018)
(181.62516 -228.02273 -22.850149)
(173.58508 -221.50135 -14.051328)
(160.3625 -214.46909 -2.6455898)
(142.65592 -207.60113 10.899942)
(121.42766 -201.64294 25.951546)
(97.867335 -197.31376 41.852499)
(73.082711 -195.42794 57.606356)
(50.132427 -195.96598 73.008336)
(25.711919 -202.2039 85.380263)
(9.3068678 -209.53235 97.517946)
(-4.4869713 -223.1806 104.75821)
(-10.820171 -240.58842 109.02026)
(-9.7620685 -262.56374 108.6636)
(0.16348788 -288.70843 103.78056)
(19.234635 -318.44145 94.451875)
(47.624693 -351.06444 80.730403)
(85.132238 -385.74439 63.15547)
(130.9784 -421.46519 42.422162)
(184.08091 -457.14699 19.415475)
(242.97619 -491.69893 -4.7894976)
(305.92839 -524.05196 -29.031879)
(371.02411 -553.24794 -52.123564)
(436.30507 -578.49311 -72.918673)
(499.85534 -599.21426 -90.409215)
(559.96816 -615.11032 -103.77868)
(615.20699 -626.17598 -112.47975)
(664.54461 -632.71516 -116.26158)
(707.37685 -635.33572 -115.19154)
(743.59565 -634.88685 -109.64033)
(773.5387 -632.4469 -100.25396)
(797.98302 -629.16504 -87.842788)
(818.02661 -626.27992 -73.373603)
(834.98426 -624.82111 -57.765933)
(850.35158 -625.75649 -41.625606)
(863.08359 -628.10329 -25.905612)
(923.19649 -643.99394 3.5035092)
(960.66895 -641.27327 15.122755)
(982.19092 -624.99205 23.224613)
(997.75987 -599.65499 29.610977)
(996.78104 -563.96677 31.834461)
(987.44882 -521.01491 33.010538)
(967.52786 -475.05413 30.854236)
(948.82747 -430.13079 29.272288)
(922.19154 -385.37677 27.068795)
(904.0866 -345.55106 25.370185)
(901.72582 -315.20239 24.684779)
(911.71319 -291.0405 26.454096)
(933.82926 -272.08275 29.57394)
(970.90886 -258.10061 36.37118)
(1019.2683 -249.92219 46.819964)
(1017.9396 -226.5682 69.737972)
(1006.0924 -220.09516 80.817831)
(993.69913 -211.48324 90.676171)
(980.75781 -199.63948 99.219644)
(966.05776 -183.96676 104.26862)
(948.85862 -164.45704 107.20867)
(927.46041 -140.89758 106.76737)
(901.0609 -113.74798 103.13133)
(868.95469 -83.702673 96.475509)
(830.90902 -51.584838 86.803852)
(786.85438 -18.700029 74.809854)
(737.45495 14.009361 60.770639)
(683.25501 45.001469 45.436152)
(625.45569 73.337923 29.119167)
(565.11099 97.97353 12.785423)
(504.0359 117.7407 -3.0782871)
(443.7662 132.16686 -17.580364)
(385.86519 140.81151 -30.358335)
(331.82152 143.61123 -40.997833)
(282.93901 140.77874 -49.208649)
(240.25629 132.81038 -54.88438)
(204.5303 120.45647 -58.075329)
(176.19472 104.63513 -58.924329)
(155.40454 86.398907 -57.57568)
(141.97436 66.764685 -54.530547)
(135.1204 47.233687 -49.991173)
(135.12412 29.755995 -44.620172)
(139.62075 10.8223 -37.10281)
(149.35813 -3.1677662 -29.985723)
(161.01739 -13.835185 -23.423049)
(174.87306 -20.941743 -16.453793)
(189.26577 -23.975756 -9.9920157)
(203.06783 -22.841647 -3.9835128)
(215.1984 -17.783844 1.3218804)
(224.69733 -9.1169377 5.8508569)
(230.76626 2.663515 9.4978682)
(232.80427 16.924688 12.221372)
(230.42251 32.931243 13.990938)
(223.45626 49.897388 14.81358)
(211.97284 67.005842 14.728185)
(196.25854 83.46291 13.798581)
(176.80925 98.523941 12.121816)
(154.29715 111.54084 9.8183645)
(129.54268 121.98071 7.0325621)
(103.46788 129.45941 3.9245746)
(77.05208 133.75362 0.66996466)
(51.283927 134.8127 -2.5573587)
(27.09885 132.7511 -5.5694497)
(5.3555761 127.87515 -8.2200282)
(-13.249864 120.57226 -10.318088)
(-28.205136 111.47448 -11.791777)
(-39.122199 101.17569 -12.508706)
(-46.124765 90.420418 -12.42774)
(-49.074927 79.963277 -11.594082)
(-48.587927 70.454018 -9.9094761)
(-45.381854 62.79563 -7.7185872)
(-40.303611 57.2752 -5.0539934)
(-33.399284 55.34883 -1.7036919)
(-27.924426 53.457428 1.5843868)
(-22.737481 57.535079 4.272187)
(-19.745327 63.656381 6.7516757)
(-21.419549 71.038079 8.4496057)
(-26.099582 81.874069 9.1103697)
(-36.706114 93.673166 8.2272663)
(-52.23546 105.19057 5.8085541)
(-73.715309 117.07595 2.0972966)
(-100.23885 126.00041 -3.8128432)
(-131.6297 134.29647 -10.964113)
(-167.04238 137.55953 -19.734521)
(-204.7319 137.21376 -29.711102)
(-243.4832 132.081 -40.274618)
(-281.66274 120.70757 -51.536696)
(-316.29161 106.35307 -62.138972)
(-347.28092 84.794116 -71.542666)
(-371.28603 58.902111 -79.378084)
(-386.71286 30.446164 -85.051325)
(-393.44919 -1.8165878 -87.259784)
(-389.43204 -35.272488 -86.767822)
(-374.64409 -67.798924 -81.792548)
(-350.40339 -99.883797 -74.074067)
(-316.94202 -128.75636 -63.075349)
(-274.89648 -152.16792 -48.835334)
(-227.20794 -168.44953 -32.670986)
(-177.8166 -182.35945 -14.972697)
(-125.84208 -184.98556 2.3841793)
(-76.698233 -181.05076 19.472475)
(-33.102492 -172.39273 35.112731)
(4.9313335 -155.95625 47.569636)
(33.195475 -134.80536 56.578201)
(51.840783 -110.77965 61.410692)
(59.575344 -84.56787 62.154195)
(57.150942 -59.729513 58.093225)
(45.602354 -35.897603 48.654353)
(24.286465 -19.309044 34.534471)
(3.8081064 -6.8014485 14.89278)
(-6.8708141e-15 1.5083581e-15 1.9262289e-16)
(-1.2504183e-14 5.7375616e-16 8.4327435e-16)
(-8.3449101e-15 1.4891922e-15 5.3018253e-16)
(-4.9731758e-15 1.4991158e-15 6.2376313e-16)
(-3.4146159e-15 1.5624416e-15 3.1576894e-17)
(2.0582335e-15 9.3962624e-16 -5.746342e-16)
(2.2101935e-15 3.7457559e-17 -1.1841335e-16)
(2.4553765e-15 -8.5141669e-16 -9.3419562e-16)
(1.2987427e-15 1.0081898e-16 1.7950851e-15)
(-4.5074861e-15 9.063971e-16 1.0710522e-15)
(-5.2682467e-15 2.1856155e-15 1.0652666e-15)
(-7.4917339e-15 1.915055e-15 2.2418828e-16)
(-9.400838e-15 1.3708275e-15 6.2833768e-16)
(-6.2048683e-15 1.3247981e-15 5.4317906e-16)
(-6.971104e-15 1.5128103e-15 7.5678131e-16)
(-1.2693866e-14 6.2923345e-15 -2.1364834e-15)
(-5.2452578e-15 2.6791924e-15 -5.3037742e-16)
(-1.0752404e-15 9.8318743e-16 -1.0111087e-16)
(-2.7353382e-15 1.7746034e-15 7.3085398e-17)
(1.0178949e-15 -1.5450237e-16 -4.119182e-16)
(-1.4303492e-15 4.136346e-16 -3.3264033e-16)
(-1.0059749e-14 4.7133437e-15 -1.6449855e-15)
(2.9801421e-15 -1.9180379e-15 -8.3172098e-16)
(-4.79756e-15 2.8035442e-15 1.1420498e-15)
(-5.4778068e-15 3.5047253e-15 -3.934403e-16)
(-1.8117877e-15 1.1581936e-15 -9.1309836e-16)
(-3.9812639e-16 4.7407236e-16 -2.2932148e-16)
(-1.5272242e-15 1.100363e-15 -2.2557932e-16)
(-4.1024849e-15 1.9838802e-15 2.8069696e-17)
(-5.3424143e-16 2.551799e-16 -1.9455919e-16)
(892.13603 -658.8 66.372651)
(884.49563 -641.3933 65.95207)
(876.38685 -623.41783 62.786311)
(867.34898 -605.15346 57.636653)
(858.93882 -588.29145 50.450805)
(851.85918 -573.30133 41.804847)
(846.95068 -561.4957 32.241439)
(844.64551 -553.97282 22.463848)
(845.20032 -551.03433 13.086453)
(848.33899 -552.99853 4.626037)
(853.90799 -559.92007 -2.1002247)
(860.92183 -570.7577 -7.2897234)
(868.99753 -584.90183 -10.076486)
(876.096 -602.07617 -11.349054)
(883.7781 -620.58022 -9.8951783)
(1032.7906 -263.34692 -20.953329)
(1014.6711 -268.55459 -21.22175)
(996.91432 -272.36592 -19.549403)
(980.59224 -274.84104 -15.938225)
(966.40617 -276.05515 -10.409252)
(955.72421 -276.04826 -3.1167774)
(949.48609 -274.94291 5.5617221)
(948.2066 -272.77346 15.075765)
(951.92652 -269.76786 24.857229)
(960.18124 -266.07252 34.330449)
(972.11229 -262.01552 42.804282)
(986.49702 -257.58318 49.864118)
(1001.9288 -253.26764 55.029038)
(1017.0321 -248.56961 58.082644)
(1031.706 -243.41855 58.850642)
(10.308162 -20.19611 -30.174979)
(32.638507 -36.076009 -45.613891)
(54.982868 -51.796943 -61.832348)
(71.358553 -67.402432 -74.220469)
(78.568874 -83.675388 -81.637742)
(76.235117 -99.145721 -84.579113)
(62.48263 -113.70544 -81.979273)
(38.829119 -125.54949 -74.578207)
(4.3069978 -134.70153 -62.178238)
(-38.010954 -139.64823 -45.479851)
(-87.903899 -140.6427 -25.495174)
(-142.09282 -136.85059 -2.6608654)
(-198.72857 -128.97772 21.340182)
(-254.56427 -116.72402 46.012746)
(-307.54026 -101.3391 69.541574)
(-354.76784 -82.986183 91.068627)
(-394.40772 -62.986383 109.33108)
(-424.454 -42.083714 124.00533)
(-443.63046 -21.416172 133.76235)
(-451.48892 -2.0101303 138.55537)
(-447.76116 15.635212 138.13646)
(-433.13644 30.40702 132.76547)
(-408.37383 42.135137 122.73965)
(-375.36884 50.501866 108.73777)
(-335.67386 55.234301 91.660313)
(-291.39227 56.826941 72.42986)
(-244.93622 55.350189 52.127881)
(-198.42376 51.546226 31.866045)
(-153.87331 45.843182 12.838674)
(-113.08319 39.171606 -4.0379259)
(-77.835109 31.977671 -17.97641)
(-49.005282 25.342213 -28.185937)
(-27.396384 19.532906 -34.184187)
(-13.264643 15.123801 -36.028405)
(-6.2924971 12.768717 -33.440097)
(-6.161221 12.428033 -26.943074)
(-11.632354 14.052983 -17.142763)
(-21.387388 17.575601 -4.5959488)
(-34.030413 22.822865 9.6959644)
(-48.023277 28.958751 24.72865)
(-61.295302 35.621932 39.513232)
(-72.579326 42.282145 53.051701)
(-80.284798 47.968564 64.243565)
(-83.3598 52.404516 72.607327)
(-80.745704 54.923099 77.390351)
(-72.074425 55.177624 78.369021)
(-57.23458 52.891165 75.420522)
(-36.57402 48.002521 68.772767)
(-10.787179 40.557103 58.816067)
(19.094403 30.7774 46.180213)
(51.792921 19.008966 31.627409)
(85.859977 5.7215439 16.032511)
(119.771 -8.5222887 0.30824289)
(152.01075 -23.100558 -14.624992)
(181.16612 -37.347861 -27.918125)
(206.00435 -50.607691 -38.812696)
(225.53521 -62.250112 -46.693573)
(239.06945 -71.714625 -51.11552)
(246.2509 -78.534345 -51.819876)
(247.07943 -82.369155 -48.74863)
(241.90288 -83.018307 -42.030527)
(231.41768 -80.4339 -32.014979)
(216.61094 -74.726507 -19.176939)
(198.77872 -66.149479 -4.1570852)
(179.24053 -55.163036 12.186918)
(159.89513 -42.329128 29.20752)
(142.12404 -28.076775 45.990737)
(127.3666 -13.587939 61.452508)
(117.74849 0.95777824 75.319484)
(114.14622 14.50007 86.231743)
(117.86344 26.381508 93.894807)
(129.66932 35.942079 97.969039)
(150.01832 42.579746 98.117485)
(179.01158 45.805253 94.299271)
(216.33717 45.366277 86.66104)
(261.28224 41.110127 75.553421)
(312.78805 33.020162 61.5444)
(369.55314 21.316817 45.289618)
(429.93171 6.2511609 27.59663)
(492.31762 -11.631308 9.2552157)
(554.88608 -31.909535 -8.7694897)
(616.10135 -53.867437 -25.806986)
(674.25837 -76.673467 -41.04428)
(727.97077 -99.721632 -53.628575)
(776.40193 -122.66609 -63.5232)
(818.90084 -144.3019 -70.171362)
(854.99473 -164.62522 -73.820146)
(884.85207 -182.9433 -74.23313)
(908.50208 -199.0871 -71.880701)
(927.66721 -213.0615 -66.900699)
(941.91937 -224.8349 -59.852707)
(953.90509 -234.27232 -51.330032)
(964.38946 -242.88452 -41.13001)
(973.97604 -248.89163 -30.998567)
(987.10372 -255.36549 -19.183589)
(17.006497 -18.657945 -29.047166)
(37.550093 -33.425484 -41.04584)
(58.250946 -47.891651 -53.292337)
(73.458064 -62.175122 -62.965335)
(81.952319 -74.191882 -68.925306)
(81.115061 -86.254903 -71.792726)
(71.120315 -95.948034 -70.498236)
(50.389711 -104.28342 -65.282284)
(20.680839 -109.74872 -56.067197)
(-18.05728 -112.65229 -43.792446)
(-64.162031 -112.10176 -27.873178)
(-115.65977 -108.56628 -10.122151)
(-170.67091 -101.59252 9.7937895)
(-226.59459 -91.847639 29.899554)
(-281.29751 -79.488271 50.328635)
(-331.7142 -65.247078 69.122385)
(-376.32722 -49.73841 86.468472)
(-412.41175 -33.687085 100.43351)
(-439.11432 -17.985235 111.23401)
(-454.64319 -3.2051574 117.77433)
(-458.93084 9.9025474 120.17217)
(-451.67136 20.852836 118.05387)
(-433.75829 29.288378 111.79218)
(-406.02498 34.993391 101.69922)
(-370.23612 37.991908 88.388367)
(-328.23522 38.342544 72.639235)
(-282.20481 36.498632 55.313523)
(-234.40717 32.881879 37.541885)
(-187.18654 28.017279 20.153167)
(-142.6703 22.562281 4.2460892)
(-102.6609 17.191961 -9.411705)
(-68.712901 12.4655 -19.915595)
(-41.999235 8.8938963 -26.875084)
(-22.95864 6.9978616 -29.946276)
(-11.889705 6.9003512 -28.98187)
(-8.2774048 8.6952696 -24.146017)
(-11.234237 12.32447 -16.017142)
(-19.603848 17.436942 -5.1791069)
(-31.768623 23.628431 7.6083367)
(-46.09541 30.245188 21.303325)
(-60.563206 36.701532 35.022907)
(-73.243162 42.401444 47.585339)
(-82.754978 46.519213 58.215862)
(-87.370275 48.774488 66.041995)
(-86.20266 48.576777 70.592421)
(-78.487683 45.721908 71.498069)
(-64.138307 40.152466 68.719171)
(-43.400503 31.95973 62.414039)
(-17.037231 21.420963 53.031638)
(13.841396 8.9377516 41.184605)
(47.820481 -4.9513747 27.647824)
(83.291679 -19.637793 13.28409)
(118.55827 -34.447373 -1.007108)
(151.94872 -48.703889 -14.345269)
(181.91806 -61.735374 -25.932241)
(207.13891 -72.941363 -35.075249)
(226.57498 -81.788168 -41.249494)
(239.53984 -87.874512 -44.099609)
(245.72803 -90.915252 -43.470856)
(245.22463 -90.799584 -39.398788)
(238.50107 -87.550471 -32.114654)
(226.39905 -81.3717 -22.023446)
(210.01963 -72.607562 -9.6738208)
(190.8407 -61.720638 4.3066647)
(170.29296 -49.368256 19.039717)
(150.23278 -36.031407 34.078058)
(132.61914 -22.523753 47.959676)
(118.67821 -9.3960371 60.934748)
(109.46613 1.8542863 71.428302)
(106.82457 11.086814 79.489511)
(111.80084 17.702389 84.407317)
(124.90893 21.400314 86.13831)
(146.5681 21.623466 84.512054)
(176.68211 18.379011 79.629905)
(214.74419 11.646764 71.736774)
(259.94481 1.5925813 61.24799)
(311.13235 -11.512155 48.712576)
(366.90427 -27.206252 34.704263)
(425.67728 -45.066673 19.971289)
(485.90287 -64.419052 5.1002725)
(545.72907 -84.806813 -9.1189728)
(603.88977 -105.42435 -22.298025)
(658.72315 -126.02328 -33.523903)
(706.83546 -145.3169 -43.277889)
(750.548 -163.38985 -50.272335)
(789.69298 -180.57122 -54.66974)
(823.08323 -196.08523 -56.545578)
(850.64188 -209.77987 -56.139182)
(872.79158 -221.54531 -53.334059)
(890.46052 -231.75722 -49.061446)
(904.34669 -240.25517 -42.477161)
(915.41768 -246.98755 -35.645952)
(925.93198 -253.8879 -26.351566)
(934.93717 -258.15218 -17.930886)
(947.81373 -263.71643 -6.7511259)
(21.904487 -16.955912 -27.782124)
(43.759144 -28.799003 -37.357783)
(62.609997 -42.079805 -47.099352)
(77.830945 -53.890417 -54.746337)
(86.025161 -64.571329 -59.517118)
(86.69648 -74.093249 -62.016194)
(77.442606 -82.205562 -61.023348)
(59.549747 -88.112704 -57.188544)
(31.677608 -92.364834 -50.4929)
(-4.6140822 -93.581442 -40.358626)
(-48.657971 -92.823386 -28.253146)
(-98.54852 -88.80031 -13.480209)
(-152.84845 -82.773027 2.3539252)
(-208.89505 -73.96301 19.567599)
(-264.5581 -63.486583 36.454032)
(-317.53522 -51.376131 53.217002)
(-365.21976 -38.430657 68.150953)
(-405.77547 -25.227954 81.288192)
(-437.22005 -12.377109 91.586547)
(-458.24771 -0.64195107 98.71931)
(-467.94091 9.6330988 102.20242)
(-466.11447 17.820329 102.02492)
(-452.87842 23.77866 98.114621)
(-429.21095 27.254932 90.753488)
(-396.41173 28.326608 80.385854)
(-356.27553 27.182103 67.569987)
(-310.904 24.196439 53.088285)
(-262.65935 19.779627 37.760266)
(-213.91411 14.552973 22.508312)
(-166.97227 9.1058525 8.1956062)
(-123.93732 4.0262839 -4.2747396)
(-86.619626 -0.11648643 -14.244788)
(-56.345578 -2.7573022 -21.116701)
(-34.02112 -3.759111 -24.510707)
(-19.804992 -2.7979496 -24.23723)
(-13.741413 0.16219778 -20.549773)
(-14.894787 4.6862085 -13.616657)
(-22.073808 10.516815 -4.0548996)
(-33.740089 17.177883 7.3427671)
(-47.939727 24.039685 19.744943)
(-62.782408 30.292588 32.142425)
(-76.262089 35.32797 43.709285)
(-86.482476 38.555609 53.443721)
(-91.969207 39.376581 60.620471)
(-91.428565 37.589098 64.76369)
(-84.197173 32.929375 65.609157)
(-70.014878 25.472763 63.009999)
(-49.178623 15.44038 57.195319)
(-22.454836 3.217681 48.559198)
(8.9760326 -10.672408 37.7016)
(43.614656 -25.598123 25.350474)
(79.749235 -40.874289 12.325662)
(115.58432 -55.781481 -0.53680358)
(149.3557 -69.626419 -12.423076)
(179.44695 -81.760577 -22.604255)
(204.48417 -91.629422 -30.467151)
(223.42077 -98.7874 -35.559224)
(235.58521 -102.93577 -37.594541)
(240.72176 -103.92288 -36.477234)
(238.98569 -101.77266 -32.293018)
(230.9468 -96.653095 -25.300238)
(217.5256 -88.91849 -15.916902)
(199.97071 -79.035412 -4.6621491)
(179.78218 -67.595338 7.8221927)
(158.55988 -55.293517 20.7905)
(138.02621 -42.869444 33.770718)
(120.47619 -30.875871 45.630967)
(106.51973 -21.297196 56.628461)
(98.138953 -12.715511 65.316614)
(96.605283 -6.526239 71.377036)
(102.86287 -3.2874275 74.690684)
(117.27248 -3.217739 75.175265)
(140.08873 -6.550515 72.804761)
(170.99338 -13.225674 67.721285)
(209.42562 -23.066665 60.227264)
(254.44108 -35.761802 50.728814)
(304.8351 -50.895037 39.781083)
(359.21273 -67.962856 27.880345)
(416.02178 -86.437789 15.659373)
(473.73845 -105.72479 3.6097263)
(530.82274 -125.30291 -7.6291603)
(585.85248 -144.57695 -17.797602)
(637.63995 -163.2715 -26.230707)
(685.41712 -180.84943 -33.230386)
(724.96422 -195.70955 -36.953803)
(761.65499 -210.18558 -39.792432)
(793.32378 -222.88589 -40.45057)
(819.57807 -233.82222 -39.410043)
(840.79161 -243.09931 -36.698674)
(858.2763 -250.93879 -32.6072)
(871.82456 -257.43363 -27.131048)
(883.41899 -262.61856 -20.953232)
(894.40174 -268.04565 -13.536454)
(904.01024 -271.4332 -5.7696383)
(917.74228 -276.20636 3.2213183)
(26.515094 -15.034855 -25.523154)
(49.611552 -25.205492 -33.478323)
(69.006402 -36.125727 -41.598075)
(83.983956 -46.343243 -47.863695)
(92.343542 -55.535238 -51.429824)
(92.092738 -64.189065 -53.082921)
(83.838509 -70.538007 -52.184793)
(65.652076 -75.760606 -49.331545)
(38.267621 -78.423077 -43.249469)
(2.1633861 -79.251087 -35.65537)
(-41.72966 -77.482848 -25.290633)
(-92.030679 -73.528081 -13.692774)
(-146.75657 -67.341076 -0.24870809)
(-203.66381 -59.036852 13.448919)
(-260.87218 -49.386502 27.935696)
(-315.29553 -38.31009 41.536328)
(-365.18919 -26.926538 54.459537)
(-407.91396 -15.349079 65.601008)
(-441.86197 -4.5818279 74.673304)
(-465.3211 5.121027 81.054218)
(-477.53374 13.058059 84.624975)
(-477.84116 18.982278 85.031808)
(-466.61107 22.614182 82.365917)
(-444.46197 23.873087 76.763692)
(-412.76148 22.91775 68.530338)
(-373.20708 19.920517 58.170732)
(-327.95436 15.343087 46.279757)
(-279.33319 9.6706535 33.588171)
(-229.81071 3.5116314 20.823283)
(-181.75213 -2.5380353 8.8030166)
(-137.39292 -7.878933 -1.7644113)
(-98.584412 -11.921485 -10.249846)
(-66.802938 -14.356216 -16.060575)
(-42.944824 -14.809769 -18.944884)
(-27.458814 -13.24979 -18.677318)
(-20.231615 -9.7285506 -15.430214)
(-20.240082 -4.7546567 -9.3421447)
(-26.61086 1.4609743 -1.0719275)
(-37.86287 8.2368253 8.743005)
(-51.734245 14.92456 19.508597)
(-66.427352 20.734581 30.242733)
(-79.849429 25.091414 40.146148)
(-90.207408 27.272851 48.460126)
(-95.826377 26.961029 54.524881)
(-95.512274 23.850188 57.906239)
(-88.538933 17.850831 58.352544)
(-74.652888 9.0764231 55.799452)
(-54.119223 -2.1535977 50.449033)
(-27.709895 -15.389162 42.66981)
(3.4022616 -30.044737 33.004977)
(37.707928 -45.445261 22.11459)
(73.497243 -60.878489 10.724095)
(108.96231 -75.622016 -0.42376085)
(142.33847 -88.999326 -10.617221)
(172.0005 -100.39963 -19.224834)
(196.58056 -109.32486 -25.727665)
(215.0311 -115.40313 -29.748743)
(226.69226 -118.41791 -31.068524)
(231.31692 -118.30935 -29.636133)
(229.08187 -115.18566 -25.562507)
(220.56264 -109.3115 -19.107275)
(206.71433 -101.1109 -10.663087)
(188.7944 -91.099395 -0.71353489)
(168.25759 -79.945814 10.124349)
(146.91442 -68.342424 21.360454)
(126.21534 -56.953749 32.208114)