/*--------------------------------*- C++ -*----------------------------------*\
  =========                 |
  \\      /  F ield         | OpenFOAM: The Open Source CFD Toolbox
   \\    /   O peration     | Website:  https://openfoam.org
    \\  /    A nd           | Version:  6
     \\/     M anipulation  |
\*---------------------------------------------------------------------------*/
FoamFile
{
    version     2.0;
    format      ascii;
    class       pointScalarField;
    location    "0.13";
    object      E;
}
// * * * * * * * * * * * * * * * * * * * * * * * * * * * * * * * * * * * * * //

dimensions      [1 -1 -2 0 0 0 0];

internalField   nonuniform List<scalar> 
28033
(
1883.9987
2405.4962
-294316.73
-140822.15
2193.4956
2811.8548
-212910.86
-441236.76
994.06978
584.64885
349.4158
212.98399
124.91304
75.820823
55.386352
61.762728
81.218382
141.11912
219.69713
369.36686
582.64587
911.91076
1589.465
-161987.9
-161258.28
-160839.71
-160541.59
-160267.14
-159973.51
-159820.61
-159630.69
-159435.06
-159273.97
-159211.32
-159074.64
-158920.43
-159095.58
-119964.96
1484.0833
650.55283
516.26929
418.30591
332.72
262.04916
192.8096
125.08252
75.26787
37.356425
4.0639003
-9.9080912
-17.153728
-2.6493106
22.325525
57.231032
109.12864
182.19098
264.8087
350.48416
452.6084
548.99619
649.34611
751.90837
849.14644
952.47335
1035.6927
1136.2975
1219.6563
1301.1876
1384.8309
1463.1749
1544.878
1599.1201
1674.1492
1732.5131
1783.9185
1825.6828
1851.8919
1871.7882
1869.7398
1864.2171
1842.6777
1815.6285
1783.8294
1754.1786
1727.1662
1708.6983
1699.5091
1702.4414
1716.1786
1741.399
1775.3502
1816.8324
1863.135
1912.42
1962.4487
2011.2517
2057.9683
2101.336
2139.0447
2173.9711
2201.669
2231.8253
2244.4262
2266.4694
2288.2255
2288.6115
2306.2178
2321.526
2332.3025
2338.4061
2360.1472
2363.7604
2396.3041
2402.7605
2438.1539
2463.9374
2488.15
2530.7438
2566.4001
2585.2319
2653.2009
2643.8985
2731.4849
2735.9996
2871.3647
2842.2552
3041.4658
3069.5355
3161.8803
3365.8752
3233.0673
3259.2742
3175.7369
1680.2079
668.7557
799.16397
492.47075
462.66866
381.70112
274.6188
233.04176
169.75435
121.07128
84.145794
57.862322
33.210903
28.100176
44.171446
60.452301
109.55644
146.69044
207.38449
290.54405
356.23745
442.9917
545.54804
620.24563
724.25441
822.42419
900.23903
999.77978
1069.4732
1162.2919
1225.5975
1309.4154
1380.297
1452.0346
1518.4135
1581.9768
1636.8877
1679.2775
1714.5503
1736.3931
1743.2966
1739.6819
1724.487
1701.4654
1672.9286
1643.1204
1615.0414
1592.3594
1577.5855
1572.4547
1578.0432
1594.1015
1620.002
1654.2092
1695.0991
1740.518
1788.6391
1837.6972
1885.5211
1931.9701
1973.9452
2013.7045
2046.7123
2078.0151
2101.6403
2126.6849
2145.4923
2166.3299
2185.4989
2180.3586
2199.6215
2196.6113
2229.3456
2232.8734
2261.9505
2273.9214
2305.2675
2328.9376
2357.8249
2390.8596
2426.8937
2463.4696
2504.1777
2558.5152
2585.4335
2671.6338
2704.3182
2782.8901
2854.0031
2968.0719
2968.9801
3152.2946
3256.2828
3253.6774
3466.7021
1150.9635
714.40231
392.8552
288.64689
137.70839
80.534644
49.76229
53.014066
88.327657
161.37714
246.17073
404.14062
640.52185
1016.9102
1572.9943
3401.7685
1359.5103
286.49121
727.91928
412.36137
325.46969
286.22458
160.74148
158.28497
24.432447
-15.607594
11.165266
-83.379051
-6.934622
-89.337845
28.516682
63.707
43.522608
195.99065
175.41636
378.467
436.29032
448.80335
574.00661
676.31492
832.03354
939.22363
1020.2861
1133.0089
1163.6281
1288.2952
1369.4578
1459.3496
1546.4104
1666.3613
1687.4088
1748.0147
1816.5166
1852.9065
1881.8214
1895.1337
1894.359
1880.485
1857.8114
1828.2411
1796.5659
1767.1096
1743.2813
1728.781
1725.4224
1734.3655
1755.4116
1787.4851
1828.6721
1876.5996
1928.8214
1982.6683
2035.9573
2086.7325
2133.2495
2174.7585
2209.895
2239.3934
2261.6236
2278.817
2291.8869
2298.8251
2296.2964
2327.5062
2283.3123
2302.8464
2287.2014
2288.0241
2285.3361
2283.9445
2283.9725
2286.9376
2292.0121
2299.236
2309.2343
2322.4503
2338.4585
2356.7741
2380.5138
2403.8856
2438.5575
2469.0258
2524.6278
2565.9907
2661.3262
2710.2408
2891.2148
2972.8937
3302.9006
2758.4845
-342944.93
-320953.54
-285289.26
-343071.21
-285692.16
-343692.12
-286253.85
-322882.92
-344855.23
-323952.08
-287975.25
-346884.35
-289158.04
-349352.06
-329209.91
2174.0608
2991.7289
3373.8139
3217.3991
3135.8193
3003.3763
2916.4117
2831.1668
2755.8851
2697.4672
2649.4459
2600.7311
2565.5397
2516.0726
2484.5435
2448.8641
2425.9554
2401.3891
2382.7035
2365.204
2350.1004
2336.1965
2327.5006
2313.2966
2308.5457
2319.9508
2297.8406
2240.4423
2278.9335
2252.7623
2242.8081
2222.2692
2197.3816
2168.3564
2134.461
2096.1073
2054.0167
2009.272
1962.9959
1916.9357
1872.9467
1832.988
1799.2578
1773.588
1757.7272
1752.5786
1758.5976
1774.9116
1799.7633
1830.8083
1863.9143
1895.5289
1924.083
1939.9782
1947.1113
1942.4269
1929.3493
1856.7625
1843.886
1807.5266
1712.8721
1641.5838
1606.7278
1507.9275
1422.7748
1343.7874
1268.605
1152.755
1075.3275
955.60591
861.6363
760.88993
630.37339
551.32007
455.93465
320.58609
285.66492
140.21357
145.17908
18.442904
-17.807956
-3.9412254
-11.674404
-39.185746
6.7214977
42.48084
54.313558
128.46222
197.24062
261.00157
311.80348
403.73942
585.25928
570.39376
1675.5282
1551.157
1562.5533
1540.5933
1573.4362
1620.0642
1652.7664
1652.5692
1665.2286
1671.3685
1664.1653
1595.4528
1551.4551
1530.275
1502.2784
1533.2419
1935.4876
2102.6015
2083.1815
2208.5851
2194.2384
2171.108
2284.9842
2418.856
2362.7821
2351.1775
2258.8131
2193.1383
2119.4343
2036.3297
2111.9638
-158837.52
-158951
-158955.05
-158944.92
-158966.38
-158947.63
-158967.54
-158961.94
-158953.31
-158980.65
-158938.81
-158999.23
-158932.77
-158981.19
-158776.96
-331319.65
-331440.92
-331542.8
-331554.48
-331509.79
-331533.74
-331553.54
-331553.08
-331555.27
-331538.86
-331531.52
-331539.66
-331507.38
-331671.49
-331333.51
969.11234
498.1183
424.35325
344.9176
278.35738
235.2868
184.28267
145.10917
111.05244
83.217402
63.636636
59.05061
62.564251
78.813134
98.55333
132.11758
177.13337
231.76518
285.63536
353.43391
425.39896
490.43643
569.92901
643.41602
717.11321
789.07716
866.89199
944.19792
1009.6145
1088.0162
1150.6065
1210.5869
1262.4183
1318.7491
1368.2586
1396.9393
1435.6285
1455.7597
1471.4326
1482.2901
1484.1893
1473.7167
1470.3013
1451.9791
1439.3779
1424.0722
1413.7599
1409.1666
1412.3419
1424.029
1444.5434
1472.8884
1507.9611
1548.011
1591.5189
1636.7832
1682.5147
1727.4575
1771.0558
1812.4715
1850.0893
1886.4177
1918.226
1949.282
1964.119
2003.4733
2028.0536
2057.9933
2085.8949
2089.6853
2132.1773
2148.0681
2196.7796
2213.206
2262.804
2287.5533
2338.1907
2373.5756
2415.0679
2479.8296
2500.4147
2590.4905
2649.1065
2685.3425
2748.8244
2806.8613
2903.4322
2944.7227
3099.4044
3056.4331
3300.183
3274.912
3455.128
3794.247
3891.3025
542.23167
344.40781
360.28516
290.08742
273.66904
240.20921
215.31938
189.94312
165.49488
147.8022
136.94614
132.02394
133.96514
143.25487
162.23211
186.55284
216.56327
250.06686
291.12729
332.81845
372.27408
417.87876
458.8183
500.29764
543.1133
591.4438
637.72071
683.97157
737.82571
786.22789
833.38714
879.72101
924.37046
956.98396
982.15482
1008.4641
1023.5632
1033.3962
1048.0818
1054.8811
1058.8125
1063.3897
1061.3924
1061.6582
1059.3576
1058.4961
1058.7422
1063.764
1073.0027
1089.2045
1111.523
1140.4389
1174.6657
1213.2985
1254.9338
1298.338
1342.5372
1386.6018
1429.8766
1472.0447
1512.1285
1552.74
1589.3343
1626.3073
1657.2459
1720.4784
1733.9918
1814.1353
1840.2857
1882.8499
1918.8092
1944.5731
1987.7818
2023.9708
2077.3932
2118.4457
2172.6592
2230.5127
2281.2534
2351.1663
2408.9344
2475.3779
2559.0941
2624.8798
2760.0543
2792.3357
2958.7697
2937.6367
3160.5691
3143.6166
3409.1767
3337.3836
3683.1697
3624.2208
3927.647
352.88911
251.83077
294.64038
275.47171
274.94357
263.19227
255.19218
244.41284
235.81241
230.14802
226.08612
226.63613
232.23802
242.31557
255.29174
271.87186
291.87612
314.38738
335.90936
357.01225
380.23881
397.87074
417.33273
435.06316
455.89712
476.10357
499.31132
528.93492
556.14366
587.39464
615.84722
645.30473
667.03172
685.91697
705.65881
716.15326
730.05612
740.01778
742.2635
741.93114
747.00477
748.01645
751.12261
752.08523
754.85228
757.97866
762.86526
771.43784
784.20551
802.61806
826.6148
856.11759
890.3238
928.16953
968.57734
1010.4122
1053.0104
1095.3792
1137.4092
1178.8663
1219.548
1259.7182
1299.1427
1337.3008
1382.7706
1415.4628
1488.6155
1555.4962
1603.5138
1637.9533
1689.2559
1737.0846
1806.0866
1846.7995
1919.5767
1958.1302
2044.4294
2085.6989
2174.0809
2229.8507
2303.2517
2400.0788
2425.293
2552.426
2599.6838
2753.2303
2786.003
2933.4123
3034.6228
3068.5253
3271.6332
3296.6794
3556.0733
3625.0154
3851.2729
233.98357
197.91381
254.63856
278.08528
292.47989
300.97224
306.18345
306.19799
306.44614
306.4638
306.49777
309.9123
313.9965
320.38937
327.78459
336.82802
345.80927
354.31769
361.33134
367.26851
368.75952
368.98484
366.90623
364.66179
362.8082
363.02964
368.86572
374.79704
386.50235
398.74843
413.68876
426.00299
437.29154
448.53984
452.56088
456.68721
453.5308
442.01489
446.12785
451.30181
454.94304
459.39348
467.04797
474.1133
482.8744
491.75446
502.744
516.80626
534.71716
557.90831
586.32762
620.11644
658.48705
700.51769
745.18042
791.48933
838.47898
885.76728
932.77722
979.89419
1025.7105
1073.2886
1117.5004
1168.0565
1210.8579
1264.9349
1310.474
1358.2724
1403.7225
1455.078
1524.4774
1584.5219
1623.7644
1678.7995
1757.5919
1819.2578
1920.9874
1966.4554
2091.3128
2131.7801
2270.0076
2307.2941
2465.2793
2492.9249
2645.4427
2654.0461
2896.689
2854.1705
3108.469
3068.7661
3424.0081
3319.6457
3741.913
3584.1914
3982.7567
176.74296
168.88574
245.45308
273.51688
311.22277
331.1659
349.02987
359.40952
369.4562
376.1642
383.76885
390.25751
397.44113
403.51544
410.12669
414.79704
418.56348
419.30941
417.57402
411.43441
401.99394
388.67204
373.26859
356.37293
339.99873
326.88912
315.09391
309.23956
304.64364
305.0379
304.65831
305.75912
307.62162
304.89487
304.14986
300.4797
298.21697
312.9809
330.53654
329.93681
328.97823
330.93279
333.22532
335.55239
340.12688
345.21939
353.10215
363.9149
379.19608
399.64819
425.53968
456.74793
492.55298
531.87435
573.84224
617.03207
661.14919
705.18412
749.08295
792.55984
837.24354
878.56678
925.30333
970.15372
1013.5624
1064.1403
1123.9006
1160.7774
1232.0646
1281.6274
1353.2924
1412.4731
1497.2038
1586.6669
1668.8547
1749.11
1839.7125
1918.1694
2022.8516
2103.3761
2200.4679
2316.0269
2364.7918
2543.5162
2529.9524
2777.8368
2750.1556
2957.0662
3074.663
3208.4468
3400.5009
3375.5734
3686.4327
3617.9349
3969.8072
140.60144
159.79396
235.89624
283.83419
331.61564
362.23723
387.27589
405.1791
418.45309
429.56578
437.44265
444.89342
449.72951
454.27178
455.73725
455.63603
451.9191
444.87995
433.18036
417.02515
396.51263
372.0471
344.62146
315.63562
288.23964
261.41722
239.66254
219.66819
205.79192
193.25831
184.26126
177.42664
169.209
163.1083
155.55094
147.40107
141.56949
141.68193
145.37727
137.98225
140.98393
142.09757
146.8482
152.76399
159.90792
168.6743
180.00882
194.78147
213.98715
238.46838
268.44979
303.74983
343.71957
387.34537
433.51238
481.37376
529.90043
578.68717
627.64833
676.60266
724.26545
776.04731
823.66407
874.68594
930.04809
982.88638
1038.4959
1100.1509
1163.0227
1226.7417
1288.5839
1360.8222
1419.7368
1491.1136
1577.9969
1657.6645
1754.5596
1824.9734
1950.6732
1996.4959
2159.0045
2180.7475
2381.1814
2383.0872
2618.1398
2636.1331
2841.2575
2920.0434
3084.002
3088.5763
3310.7742
3340.8617
3737.2679
3563.6783
3998.7612
120.49416
151.66489
234.7272
286.34557
339.14934
376.11178
407.16296
428.6511
447.16303
460.43355
472.73995
481.45069
489.36504
493.20236
495.60035
493.87208
489.10889
479.58388
465.9421
446.65314
421.66979
392.34812
360.3908
327.39702
293.52496
263.04533
233.70933
210.68169
188.94016
172.08583
157.58206
144.06157
132.22325
121.01759
108.48761
99.049354
86.798062
81.560094
73.491974
68.420425
67.836595
68.075861
68.710159
71.071366
74.211702
79.356937
87.135738
98.557554
115.0065
137.06047
165.18592
198.9984
237.78858
280.35738
325.74109
372.60476
420.18407
468.24519
516.06271
563.36398
612.64461
659.84605
709.63272
761.91074
813.23575
868.87214
927.60667
987.51886
1055.058
1117.1306
1204.564
1261.2109
1358.2367
1433.9697
1532.0066
1625.1723
1712.2652
1819.6587
1913.7507
2018.7196
2127.051
2244.5947
2318.7517
2499.8676
2511.7438
2714.6383
2744.2118
2911.1504
3022.9852
3170.1006
3517.8578
3487.8064
3770.7247
3597.3314
4064.3341
124.40652
160.60326
240.70871
294.8206
349.32705
387.9894
418.02472
440.3314
457.38829
470.09897
479.56926
486.81752
490.57292
492.87289
491.56725
487.18103
478.4712
465.66305
447.16724
423.55958
397.61033
367.51923
332.58888
294.95177
260.09486
224.30374
194.8483
166.08379
143.111
123.13451
105.74246
90.674306
77.427326
64.152515
53.059093
40.829175
30.938831
23.797182
14.423485
10.935649
9.0844173
9.7604242
12.894237
17.774367
24.069377
32.325898
43.099723
57.831698
77.435021
102.89935
134.38296
171.74105
214.02024
260.32725
309.30814
359.8271
411.25952
462.94406
513.84412
566.3365
616.92759
669.35767
722.78819
776.37982
832.41747
890.86062
951.6316
1016.6193
1079.7656
1156.6453
1216.9481
1306.5825
1375.207
1457.5325
1535.4417
1626.1274
1715.75
1810.1273
1908.6733
1991.6757
2139.7846
2147.0427
2395.0319
2347.2297
2593.0994
2663.5243
2786.7345
3003.5181
3049.2965
3269.6038
3264.143
3257.8434
3632.2749
3576.2965
4049.1097
127.26314
162.95149
234.76963
287.54973
335.94043
371.40698
398.69005
419.5423
435.46035
447.88184
459.40241
467.92097
476.14362
480.92301
483.74141
482.98249
479.38775
471.14594
458.20604
441.28732
414.95844
381.77965
349.10342
319.31621
284.42323
256.3646
227.23948
204.33916
184.01412
166.83343
151.96931
139.28904
126.53934
115.63922
102.84913
92.864834
82.339092
74.313547
67.069428
63.265908
60.371467
61.265318
62.550681
65.063033
68.374612
73.013281
80.15683
90.770784
106.28036
127.3736
154.55491
187.46248
225.42625
267.36984
311.96587
358.35156
405.51451
452.56113
500.28742
547.13705
594.57864
642.6278
691.20225
741.45937
793.40684
848.4237
905.18375
962.45712
1030.4359
1090.3525
1169.3238
1238.1277
1310.5056
1400.7807
1503.6717
1602.7909
1684.2804
1793.4439
1868.3834
2010.2898
2055.1469
2228.4861
2290.1789
2404.9719
2559.0133
2609.4439
2744.4265
2880.1258
2918.0585
3134.2025
3270.4623
3506.5234
3766.9192
3596.0316
4011.8034
179.12047
197.2766
264.37083
308.32688
345.82746
372.2782
391.03728
401.71772
410.90848
415.7256
419.50578
422.06047
423.33139
423.41672
422.58427
419.41224
413.1729
403.65943
390.64767
372.0336
352.92656
335.96205
316.39634
283.22616
260.86555
233.991
214.33186
196.60449
182.33655
171.00945
162.12829
153.83879
146.68924
138.35631
131.61499
124.14693
117.28349
112.16856
109.06027
108.90207
111.21268
115.3511
120.6356
127.3561
134.68884
143.64921
154.61874
169.17014
188.24793
212.91074
243.40342
279.59922
320.71135
365.71941
413.42076
462.88383
512.74584
563.43854
613.2584
663.55562
713.67021
764.23097
815.41122
867.82972
921.35857
976.91806
1033.9658
1098.5231
1158.9229
1229.263
1296.335
1371.4042
1439.554
1536.0033
1569.9024
1644.9058
1748.1264
1822.134
1948.6122
1995.2034
2160.3341
2190.6428
2359.0548
2409.0602
2571.1052
2637.0401
2773.6897
2970.2718
2928.2899
3313.8602
3227.4021
3412.3572
3470.8926
3520.5934
4033.5191
172.59957
203.02478
250.02952
291.63998
320.99812
340.98365
352.3473
362.23715
367.83609
372.90309
377.64784
383.73193
389.06039
396.08394
401.80046
405.92607
409.36043
410.44964
407.91452
403.27547
396.17689
361.01747
339.54256
333.04322
317.30197
308.0434
300.8198
295.67748
294.24524
294.16455
295.31575
296.26454
295.39746
295.35098
292.36485
289.17122
285.23195
283.25401
281.31326
281.84316
283.58427
286.62291
290.64546
294.43455
298.46691
302.84035
308.8169
317.54686
330.53018
348.6251
372.44475
401.78786
436.03355
474.19898
515.14121
557.65546
601.23558
644.69457
688.23108
731.49731
774.63116
817.75749
861.57974
906.57856
952.68952
1000.6354
1052.5863
1101.2486
1158.1424
1214.4079
1279.3217
1340.5008
1414.312
1487.2923
1582.0664
1652.4552
1729.8908
1821.3529
1898.4774
2016.1435
2078.9519
2218.3598
2281.3077
2418.8897
2512.2733
2608.8098
2779.299
2802.0444
2987.9914
3110.9741
3080.4579
3427.0404
3572.2694
3776.2674
3986.0346
302.22642
240.90611
288.60274
305.43276
315.14524
313.60411
315.17943
305.97014
300.70072
294.94201
290.19634
288.44674
288.48891
289.04091
292.78477
296.31346
301.75598
305.14546
309.07908
309.71365
309.7475
309.09287
302.32764
305.87696
308.94267
313.48908
321.06828
331.07349
343.94281
358.14677
372.69752
385.54583
397.94541
406.94088
413.19091
418.14467
422.75377
426.21412
430.64481
436.68665
443.17032
451.27091
458.90648
466.84518
474.25697
482.29881
491.66067
504.05849
520.69973
542.72772
570.59793
604.18083
642.82938
685.51982
730.96883
778.35963
826.23642
874.50942
922.2151
969.67414
1016.2879
1063.0087
1109.3444
1156.1497
1202.8343
1250.5824
1299.6157
1352.9112
1406.462
1465.2543
1519.773
1584.46
1649.9428
1712.9608
1784.0575
1855.0166
1927.2486
2005.3503
2093.5701
2165.42
2261.4369
2343.6294
2423.2416
2536.0032
2589.0397
2728.3102
2772.5697
2916.02
3005.097
3150.8801
3243.4309
3520.5782
3455.6656
3513.4146
3921.1326
446.78627
367.10618
343.83818
331.79734
293.7496
283.59185
252.70606
232.7225
214.09271
196.48995
185.54825
181.77658
179.63887
189.23082
198.843
214.45944
234.8557
253.97691
279.86593
306.37754
328.90623
357.36532
375.84624
400.28346
426.99896
452.71605
485.17901
514.73723
550.40867
582.09998
613.02149
641.36486
664.5733
684.56337
699.96089
713.82347
722.80785
731.44814
738.71987
744.94111
751.33397
756.06623
759.69014
761.44122
761.85903
761.72196
762.50241
765.78282
773.24091
785.96097
804.59445
829.00612
858.59812
892.22123
928.9029
967.14411
1006.2669
1045.3253
1083.7262
1121.5247
1157.9998
1194.1949
1229.0812
1263.9189
1300.5341
1335.2486
1375.3709
1409.4249
1450.1622
1489.7178
1534.6495
1588.1514
1628.139
1692.3115
1748.4225
1803.6494
1867.6881
1936.0437
1997.7349
2078.4533
2148.3291
2229.228
2310.4785
2401.0949
2478.504
2591.9365
2666.2234
2797.3302
2871.986
3005.628
3061.7807
3268.5642
3159.1331
3697.6889
3980.0955
718.54307
495.32158
430.41985
360.2354
332.13227
280.16772
240.61599
207.2212
171.19874
140.59891
122.47065
102.83454
99.767086
102.0815
109.06719
130.03933
150.9929
179.11364
219.59997
253.49704
297.59509
342.50946
383.57488
434.66083
483.0777
532.90025
587.51778
638.69486
695.46775
746.01386
797.62443
844.76179
887.07772
926.53122
959.44576
990.05384
1013.668
1035.23
1050.6853
1064.6702
1073.6286
1079.1674
1080.7304
1078.9201
1074.7621
1070.0155
1066.6726
1067.1076
1073.2126
1086.4304
1107.3975
1135.9488
1171.2487
1212.0958
1256.8637
1304.1781
1352.5811
1400.9975
1448.3478
1494.54
1538.2056
1580.8513
1619.4379
1658.467
1692.3211
1726.7329
1764.1536
1798.8322
1831.266
1868.7173
1910.7606
1940.4835
1993.2071
2030.6774
2085.0932
2129.8098
2192.6137
2242.0264
2309.8082
2370.9733
2436.0625
2509.0101
2573.1738
2652.5122
2717.2691
2808.3911
2861.4467
2979.2335
3015.4437
3155.227
3216.3605
3365.5663
3403.1923
3706.0696
3834.6357
839.65184
650.07458
500.08872
417.74114
350.15735
273.25757
220.44535
167.80953
120.02122
87.722091
60.687673
48.217675
44.946639
49.102555
59.818831
88.179899
120.69596
167.06493
223.10739
281.91201
352.15011
423.85353
496.33819
577.60663
649.80986
726.72479
805.35086
876.69932
952.48333
1016.9217
1084.6171
1141.1606
1197.1246
1246.7714
1292.5143
1329.4528
1363.5781
1388.5643
1407.3205
1418.069
1421.5128
1417.9879
1408.5652
1395.271
1380.2624
1366.0698
1355.3083
1350.1571
1352.2211
1362.3404
1380.4756
1405.9388
1437.606
1473.8837
1513.3524
1554.5401
1596.1568
1637.1052
1676.7534
1714.2541
1749.7649
1782.1449
1813.103
1841.0522
1865.8776
1888.4811
1908.6529
1931.4439
1953.197
1998.6864
2002.8431
2049.4948
2065.1152
2102.9799
2132.3256
2171.797
2204.8482
2250.1343
2293.8508
2338.0402
2390.7107
2447.2879
2499.6572
2568.5071
2640.2189
2695.5776
2794.8296
2877.1802
2950.5122
3086.5585
3214.695
3328.9864
3429.8776
3686.9587
3391.2761
612.99284
671.50881
589.69156
591.86768
593.50108
605.50888
600.95372
605.87933
610.05041
612.83644
591.12873
581.26177
596.36956
594.47459
678.10441
443.23637
421.90839
390.42564
416.89942
394.9856
402.49994
389.35388
400.98442
406.02994
400.38323
395.40919
398.65585
393.48953
421.51301
435.19349
243.34253
235.46599
210.26971
211.57527
208.54247
207.44333
209.94766
207.30754
208.64885
208.62705
208.73799
206.60438
216.23958
223.48241
239.53119
174.34733
178.16563
168.73994
168.56869
169.15182
167.40772
167.9305
166.34763
167.9566
165.84999
166.56457
163.25844
166.6169
169.18831
159.43576
111.14674
122.42772
118.37737
122.15218
120.73484
121.47535
121.54767
120.89894
121.19246
121.61147
121.36185
121.16218
119.73846
116.5584
109.58508
85.280163
100.38756
106.40695
110.76296
110.94798
111.50156
110.83722
110.26795
110.81096
109.42332
109.48487
106.25975
104.73623
91.749672
80.432543
72.599617
87.854109
94.733464
96.534422
99.967694
99.44079
100.26331
99.515237
99.765436
100.024
99.027981
98.322437
95.13702
81.377063
70.836153
73.132592
90.445707
99.789986
103.50909
104.98662
105.69429
105.21509
105.30169
104.93904
105.11372
103.24944
100.94517
95.64984
81.365319
68.132766
82.717812
97.190163
101.6757
104.48504
105.10213
104.41367
104.50197
104.01293
104.5467
100.53693
105.10421
103.15932
104.05232
95.300618
84.41032
114.87943
125.91076
126.08358
126.84151
126.14456
126.35957
124.75681
125.85149
125.86198
125.36145
128.69323
124.03219
126.57815
120.11292
107.52814
148.9099
160.35983
149.15439
152.6791
147.99977
145.40088
145.42471
146.18577
146.13986
143.38548
146.16051
147.2221
150.63921
156.98095
155.41066
236.12561
213.71168
202.17547
195.04356
188.84987
188.54091
187.32727
188.46603
189.59029
189.6557
198.01716
187.58308
212.97475
219.46607
228.53787
337.34243
313.76596
290.95599
269.80676
262.242
258.48405
254.99492
264.50911
263.17029
255.08832
263.8027
263.33531
277.83959
315.30058
333.45306
604.36122
540.73554
503.6078
490.36142
482.16988
468.8758
490.648
505.98356
499.66861
488.24366
492.39072
494.58213
515.68512
540.24335
623.70312
806.0295
909.74319
730.99648
736.74391
712.38905
658.66284
740.53685
778.11828
708.22771
753.57135
718.40803
726.16683
752.80265
823.77023
945.99699
2420.2464
2272.2752
2374.1642
2449.6971
2510.3362
2474.6179
2575.6566
2717.4557
2758.162
2740.9773
2651.4751
2531.4186
2503.041
2464.5845
2329.5341
1519.5107
1247.8808
1357.5291
1382.9796
1276.1595
1452.5823
1397.2097
1398.7888
1532.2248
1378.7729
1414.612
1311.9006
1421.2982
1453.6952
1549.3988
639.21595
766.74663
677.83535
645.09068
781.8968
585.0912
591.38744
599.81528
498.58775
670.49605
623.76274
807.42652
692.84266
680.9684
719.45288
602.92662
738.20678
750.15859
672.92359
659.54971
711.08669
676.61395
718.69796
718.33865
661.58584
714.17396
679.50189
761.0728
745.63791
654.58542
544.18797
540.96307
509.42573
600.01426
554.55608
540.15639
568.77275
543.19756
568.13959
627.57982
569.39697
609.0334
561.94078
537.08029
535.05301
361.14803
425.04555
466.20681
435.4763
443.72345
454.57426
437.84317
438.49478
439.55901
410.74631
442.06056
439.29283
426.54686
441.5936
373.99457
325.90646
346.21314
354.47575
360.60745
357.16583
358.06817
370.7177
366.46194
377.1549
380.89059
368.98084
367.69526
359.58285
323.70805
353.75829
240.56053
233.32073
249.84177
256.18314
273.19552
267.46911
265.13624
267.28684
258.50856
265.97221
267.22252
261.83824
250.99421
223.08949
272.61153
176.53768
170.91031
185.56043
188.6443
176.0806
179.2967
176.86457
178.93545
172.19764
174.28671
168.68754
161.86659
155.55749
152.37371
151.49424
109.87997
98.833835
106.71335
109.25261
114.49155
112.1471
112.97845
108.74059
129.49253
110.26579
104.31062
110.79431
99.156681
84.643558
111.06346
71.159244
51.568812
56.470559
57.823978
52.207553
52.63725
47.008481
50.553845
46.103814
42.185376
52.214463
41.90989
46.710449
43.516278
58.269056
1.4199321
-0.40888838
16.65914
13.593583
12.087535
7.7766355
7.2457048
3.5988024
4.4001939
3.5579394
2.3738301
4.7633075
0.96052094
-3.8971526
20.250504
-1.6611396
-3.1295385
8.5935493
-14.533858
-13.503714
-18.547506
-16.671552
-23.821056
-20.154166
-22.654669
-17.95791
-21.573114
-15.843249
-26.799243
-3.5275589
-9.736921
-14.507186
-27.385849
-14.953004
-24.929017
-27.341507
-28.873689
-38.73593
-32.099669
-35.450796
-32.408343
-31.545273
-30.615948
-33.538746
-10.402246
-8.8354648
-9.3315676
17.482124
-10.188524
-14.041717
-11.287525
-45.880387
-2.8154964
-29.380349
-27.686702
-24.157823
-23.346873
-18.596056
-23.778142
-3.5081138
25.113057
13.2238
10.042021
8.4923962
4.7488497
1.5839449
-23.922813
-7.3938009
-4.7961512
-7.0451116
-5.4117481
-4.9447903
4.8857287
-3.5152471
34.689149
23.896913
43.293162
32.981943
67.890896
33.450035
27.924744
26.477635
26.372461
25.289835
28.074929
28.998304
44.310794
8.9811409
46.42637
49.725558
97.269575
108.26145
103.64696
77.080078
82.921835
79.535498
86.825971
82.540962
80.450968
82.561202
77.946448
84.874741
115.68871
65.598264
101.73901
160.65519
154.35395
157.27325
148.99375
162.42088
147.84518
166.62502
133.78628
140.20087
140.63671
151.4365
147.73226
142.3929
122.45658
184.69967
196.06196
228.30661
223.28153
251.79773
215.82666
236.12972
196.9588
229.07915
219.29794
218.62196
246.01202
216.42143
224.421
222.04334
241.78108
307.68007
330.97863
320.18059
318.45164
312.59755
328.22186
308.11571
304.84405
294.04016
317.8262
281.0796
318.8809
309.76844
304.94421
345.29228
393.25144
401.59467
402.77168
407.65911
399.48735
398.84859
391.16634
393.63587
405.86598
382.6508
398.85899
407.02416
381.48169
407.13801
410.21237
484.01348
521.92949
509.87117
513.53052
507.41645
489.88864
498.95992
497.38743
527.37998
481.00436
516.01206
513.00708
539.35701
489.11943
510.86442
612.91914
590.381
602.87992
605.16694
608.32765
603.15186
617.6751
604.90665
604.86593
614.60194
627.38542
607.19087
587.36542
598.6537
599.90866
682.77004
687.38386
709.04635
732.70592
717.0566
740.3179
707.68777
708.15839
709.60848
705.78354
684.59454
710.23735
724.15177
705.36428
702.11444
789.32803
832.32528
822.32583
834.57447
821.3702
809.00361
808.98788
813.02272
810.42476
817.25695
802.85496
805.32809
833.84618
795.7405
802.68871
872.29037
895.54483
903.93614
929.83658
889.17689
907.04491
910.09283
909.34563
913.54546
907.30408
923.68673
912.7011
916.82123
912.61102
906.06685
974.4737
1016.1648
980.17216
1021.2358
996.68575
1016.3356
1012.6902
1015.3352
1016.1972
1017.6805
1015.5571
1029.3708
1008.7995
978.2618
995.85533
1046.6144
1083.2282
1081.3134
1104.5873
1104.757
1107.7158
1106.5696
1111.4421
1108.6549
1109.2404
1106.3528
1099.282
1117.4178
1098.2821
1089.2084
1148.4814
1186.4147
1187.4044
1198.9565
1195.6455
1181.6477
1193.9928
1199.4566
1213.9037
1202.8402
1200.1882
1195.5809
1192.8199
1162.4782
1174.9602
1239.225
1258.0858
1258.3947
1274.5474
1277.7526
1281.8286
1290.9569
1289.5279
1291.8938
1280.0919
1276.3682
1276.9452
1258.1722
1264.6356
1248.3227
1318.8136
1338.1094
1337.5767
1358.7828
1353.0883
1366.079
1362.8091
1368.1027
1362.9351
1363.4413
1363.3296
1356.5157
1352.7818
1339.553
1340.5432
1399.4827
1419.8713
1421.1312
1439.9109
1438.897
1448.1027
1446.362
1448.6647
1447.1728
1448.4376
1442.7419
1441.0876
1428.7496
1422.3369
1422.3816
1481.4575
1502.2898
1502.0976
1522.3317
1519.6689
1528.5154
1526.2801
1529.8296
1527.7506
1528.6217
1524.068
1520.6752
1513.35
1504.7367
1503.7561
1560.6005
1579.0268
1580.0635
1575.9492
1589.5408
1601.6173
1600.5121
1603.0822
1603.7433
1603.3053
1600.7145
1593.68
1594
1572.9659
1577.4486
1608.8839
1641.2513
1651.4751
1676.4812
1675.0006
1680.1798
1679.0897
1680.7379
1679.5951
1694.904
1679.5278
1674.4036
1665.4694
1653.815
1664.7827
1709.1729
1725.8009
1731.4386
1746.4769
1745.354
1748.6351
1746.2167
1747.1433
1745.1312
1735.6758
1734.227
1733.4213
1724.5627
1707.9876
1721.4252
1758.0537
1773.3074
1781.8136
1796.4289
1790.6289
1795.4563
1792.4843
1793.1414
1791.364
1791.0968
1788.6809
1786.5997
1779.8601
1765.5219
1770.4885
1804.4533
1813.1283
1817.9389
1832.3691
1827.6878
1831.9683
1828.3007
1829.4392
1827.8245
1827.4116
1824.5123
1825.9203
1818.0984
1800.5921
1815.4898
1829.263
1836.0109
1842.7586
1855.2956
1848.9268
1852.4115
1849.058
1849.6378
1847.8236
1847.9016
1846.5821
1845.6179
1839.5594
1824.9152
1842.4247
1842.9484
1843.1152
1848.9947
1858.3621
1853.8293
1855.221
1852.8643
1852.1413
1850.923
1852.4018
1849.2751
1851.3557
1845.5588
1831.3192
1855.2708
1839.1369
1833.1241
1837.8711
1845.9748
1841.0071
1841.8682
1840.0412
1838.5684
1838.9703
1838.2148
1837.0886
1838.92
1833.8268
1822.3385
1854.5712
1822.7361
1808.6432
1812.7337
1818.0345
1814.1037
1814.0028
1812.8823
1811.8383
1811.043
1812.2039
1809.9531
1812.7704
1808.5921
1800.2722
1839.7418
1794.8986
1773.7464
1776.1917
1779.5978
1776.5536
1775.8711
1776.6087
1773.7904
1775.2054
1774.8648
1772.9303
1776.8076
1773.1825
1768.0343
1814.9421
1760.3279
1731.889
1733.6253
1735.2015
1733.0963
1732.5632
1733.5265
1731.5906
1732.3575
1732.3249
1730.5043
1734.5048
1731.5881
1729.806
1783.152
1722.7086
1688.7
1689.893
1689.5732
1689.1429
1687.6649
1690.9029
1687.5371
1689.3993
1689.3172
1686.8283
1691.5823
1689.2425
1690.5239
1748.4452
1686.9797
1648.8212
1649.6634
1648.2751
1648.927
1647.8479
1651.5028
1648.0731
1650.5382
1649.8291
1647.4462
1652.6285
1650.7911
1654.6421
1715.4192
1657.1756
1616.1765
1617.5609
1614.663
1617.1746
1614.9878
1620.2669
1616.2774
1619.1282
1618.5434
1616.0728
1621.6024
1620.322
1626.1111
1687.9613
1636.6338
1594.5572
1596.5501
1592.7299
1596.1909
1593.9347
1600.224
1595.357
1599.0735
1598.2155
1595.7298
1601.6839
1601.1022
1608.1072
1669.667
1628.1343
1585.6632
1589.0545
1583.727
1588.7474
1585.4706
1592.4232
1587.0751
1591.4955
1590.517
1588.4686
1594.9134
1595.0837
1602.6307
1663.0493
1632.7156
1590.732
1595.5793
1589.1408
1594.9664
1590.6791
1598.7441
1592.6699
1597.7282
1596.7381
1595.1564
1601.8535
1603.0356
1610.4613
1669.3227
1650.7677
1609.1964
1616.1528
1608.0622
1614.8042
1609.5886
1618.1957
1611.1192
1616.989
1616.0356
1614.9942
1622.2505
1624.551
1631.1652
1688.6592
1681.2019
1640.1183
1649.2284
1639.5715
1647.147
1640.5334
1649.6677
1641.8969
1648.5965
1647.4942
1647.2552
1654.8314
1658.1347