/*--------------------------------*- C++ -*----------------------------------*\
  =========                 |
  \\      /  F ield         | OpenFOAM: The Open Source CFD Toolbox
   \\    /   O peration     | Website:  https://openfoam.org
    \\  /    A nd           | Version:  6
     \\/     M anipulation  |
\*---------------------------------------------------------------------------*/
FoamFile
{
    version     2.0;
    format      ascii;
    class       pointVectorField;
    location    "1.06";
    object      u;
}
// * * * * * * * * * * * * * * * * * * * * * * * * * * * * * * * * * * * * * //

dimensions      [0 1 0 0 0 0 0];

internalField   nonuniform List<vector> 
28033
(
(0 0 0)
(0 0 0)
(2.4830436 -0.30111666 0.010139551)
(2.3212353 -0.84573634 0.0093378063)
(0 0 0)
(0 0 0)
(2.3210437 -0.84722263 0.009019844)
(2.4828765 -0.30265868 0.0096003428)
(0 0 0)
(0 0 0)
(0 0 0)
(0 0 0)
(0 0 0)
(0 0 0)
(0 0 0)
(0 0 0)
(0 0 0)
(0 0 0)
(0 0 0)
(0 0 0)
(0 0 0)
(0 0 0)
(0 0 0)
(2.4726128 -0.33554884 0.0098664375)
(2.4622847 -0.36962864 0.0098094193)
(2.4520191 -0.40361026 0.0097165382)
(2.4418413 -0.43755879 0.0096931009)
(2.4317125 -0.47145057 0.0096749312)
(2.4216249 -0.50531508 0.0096768266)
(2.4115859 -0.53916885 0.009694612)
(2.4015734 -0.57302496 0.0097185047)
(2.391588 -0.60689403 0.0097393465)
(2.3816078 -0.64079969 0.0097618869)
(2.3716403 -0.6747378 0.0097638408)
(2.3616493 -0.70874117 0.0097431718)
(2.3516648 -0.74280675 0.0097082563)
(2.3416017 -0.77695676 0.0096533548)
(2.3315418 -0.81123595 0.0095283042)
(0.0065382497 0.0097599122 0.010796779)
(0.0080788154 0.015436315 0.014673851)
(0.010384021 0.021342634 0.017717293)
(0.013748465 0.027420585 0.019572391)
(0.017700257 0.03364502 0.020784633)
(0.022825725 0.039924056 0.021602677)
(0.028813109 0.046287658 0.02209416)
(0.035822053 0.052443441 0.022344023)
(0.043728238 0.058695388 0.022467045)
(0.052624333 0.064653759 0.022480199)
(0.062342855 0.070572853 0.022412572)
(0.072985445 0.076225015 0.022263869)
(0.084447692 0.081743918 0.022160941)
(0.096825462 0.086995725 0.021933891)
(0.10991278 0.092032138 0.021788175)
(0.1238642 0.096805815 0.021539161)
(0.13856623 0.10134731 0.021375174)
(0.15405564 0.10557965 0.021138155)
(0.17024557 0.10957306 0.02094351)
(0.1871908 0.11326204 0.020704194)
(0.20480897 0.11667084 0.020516802)
(0.22314377 0.11978238 0.020264657)
(0.24212572 0.12258826 0.020073343)
(0.26178618 0.12511004 0.019835645)
(0.2820469 0.12730035 0.019617882)
(0.30294859 0.12920896 0.019388348)
(0.32442987 0.13077815 0.019172202)
(0.34651327 0.13207161 0.018936519)
(0.36913943 0.13301359 0.018706046)
(0.39231947 0.13366775 0.018481507)
(0.4160347 0.13400625 0.018244095)
(0.4402369 0.13402827 0.018009161)
(0.46494332 0.13374753 0.017783351)
(0.49012712 0.13313795 0.017548891)
(0.51576531 0.13224753 0.01731163)
(0.54184881 0.13103479 0.017079797)
(0.56834236 0.12952975 0.016856629)
(0.59526664 0.12772698 0.016629447)
(0.62255521 0.12562668 0.016393263)
(0.65024001 0.12324649 0.016174225)
(0.67827126 0.12057002 0.015947606)
(0.70665515 0.11763151 0.015732115)
(0.73537072 0.11440401 0.015507729)
(0.76440939 0.11091744 0.015296104)
(0.79374318 0.10715874 0.015080596)
(0.82337801 0.10314945 0.014870797)
(0.85328132 0.098884741 0.01466389)
(0.88345974 0.094375015 0.014459059)
(0.91388226 0.08962635 0.014259079)
(0.94455483 0.084643017 0.014062539)
(0.97544988 0.079434595 0.013870374)
(1.0065691 0.074003403 0.013683446)
(1.0378924 0.068361548 0.013501796)
(1.0694148 0.062509181 0.013326367)
(1.1011241 0.056459778 0.013157027)
(1.1330106 0.050213805 0.012995578)
(1.1650664 0.043782612 0.0128407)
(1.1972817 0.03716947 0.012694381)
(1.229649 0.030382804 0.012555819)
(1.2621602 0.023426484 0.012425881)
(1.2948087 0.016309309 0.012303718)
(1.3275876 0.0090332188 0.012190062)
(1.3604885 0.0016087604 0.012084871)
(1.3935111 -0.0059691759 0.011984581)
(1.4266409 -0.013676929 0.011896924)
(1.4598814 -0.021533138 0.011808616)
(1.4932166 -0.029519072 0.011733746)
(1.5266522 -0.037631809 0.011660782)
(1.5601744 -0.045871582 0.011587129)
(1.5937869 -0.054228996 0.011523024)
(1.6274762 -0.062705495 0.011461072)
(1.6612391 -0.07129675 0.011403144)
(1.6950786 -0.079987997 0.011342605)
(1.7289729 -0.088800902 0.011290907)
(1.7629419 -0.097690022 0.011229506)
(1.7969485 -0.10671135 0.011182541)
(1.8310245 -0.11578109 0.011119528)
(1.8651273 -0.1249934 0.01107481)
(1.8992889 -0.13422966 0.011010134)
(1.9334705 -0.14360962 0.010967397)
(1.9677008 -0.15300719 0.01089935)
(2.0019425 -0.16252454 0.010858891)
(2.0362263 -0.1720743 0.010790723)
(2.07051 -0.18171352 0.010749529)
(2.104831 -0.1913944 0.01068689)
(2.1391523 -0.20113794 0.010639684)
(2.1734915 -0.21094703 0.010584156)
(2.2078324 -0.2207815 0.010540036)
(2.2421836 -0.2306883 0.010483259)
(2.2765327 -0.24060293 0.010444518)
(2.3108744 -0.25061179 0.010411306)
(2.3452484 -0.26055484 0.010350134)
(2.3795741 -0.27064458 0.010366456)
(2.4139825 -0.28067346 0.010310999)
(2.4483572 -0.2907244 0.010334397)
(0.002312071 -0.010956753 -0.012476477)
(0.0041484222 -0.014746586 -0.015000559)
(0.0053165666 -0.020349808 -0.019371852)
(0.0067660516 -0.025010837 -0.020984429)
(0.010065948 -0.030792881 -0.022517944)
(0.01383624 -0.036851502 -0.023293656)
(0.018654726 -0.042457016 -0.023765211)
(0.024358435 -0.048787359 -0.023850962)
(0.031054818 -0.054940987 -0.023821092)
(0.038397198 -0.061211801 -0.023611249)
(0.046700584 -0.06763625 -0.023306705)
(0.055627727 -0.074037753 -0.022947596)
(0.065417845 -0.080599478 -0.022502613)
(0.075836092 -0.087185493 -0.022103196)
(0.087019607 -0.093813474 -0.02159826)
(0.098850492 -0.10058614 -0.021171096)
(0.1113678 -0.10729273 -0.020661106)
(0.12455473 -0.11421918 -0.020190558)
(0.138376 -0.12110301 -0.019706081)
(0.15287311 -0.12813812 -0.019226667)
(0.16795762 -0.13518113 -0.018718499)
(0.18370639 -0.14239638 -0.018258394)
(0.19999773 -0.14955064 -0.017753034)
(0.21696573 -0.15695706 -0.017261784)
(0.23443346 -0.16429412 -0.016781793)
(0.25258004 -0.17184482 -0.016251287)
(0.27119236 -0.17939557 -0.015794906)
(0.29045743 -0.18709522 -0.015248284)
(0.31017836 -0.19484869 -0.01478705)
(0.33050664 -0.20270627 -0.014238859)
(0.35129035 -0.21066703 -0.01375773)
(0.37263465 -0.21870097 -0.013228463)
(0.39443205 -0.22683936 -0.012730941)
(0.41674896 -0.23506152 -0.012207848)
(0.4395097 -0.24338132 -0.011702899)
(0.46274596 -0.25177184 -0.01119914)
(0.48641727 -0.2602526 -0.010677521)
(0.51052683 -0.2688381 -0.010179298)
(0.53505314 -0.27748307 -0.0096744535)
(0.55999637 -0.28622705 -0.0091760263)
(0.58533123 -0.29504468 -0.0086811263)
(0.61105579 -0.30394164 -0.0081917046)
(0.63715265 -0.3129168 -0.0077053332)
(0.66361485 -0.32196582 -0.0072258966)
(0.69042619 -0.33108753 -0.0067508636)
(0.71758245 -0.34028078 -0.0062810089)
(0.74506444 -0.34954082 -0.0058181642)
(0.77286979 -0.35886806 -0.0053595787)
(0.80098041 -0.36825834 -0.0049085589)
(0.82939118 -0.37770923 -0.0044629126)
(0.85808777 -0.38721971 -0.0040243316)
(0.88706226 -0.39678573 -0.0035925127)
(0.91630245 -0.40640547 -0.0031677802)
(0.94580016 -0.41607748 -0.0027503954)
(0.97554347 -0.42579805 -0.0023406327)
(1.0055247 -0.4355658 -0.0019385988)
(1.0357331 -0.4453797 -0.0015441229)
(1.0661607 -0.45523582 -0.0011576089)
(1.096798 -0.46513441 -0.00077868356)
(1.1276381 -0.47507342 -0.0004068026)
(1.1586715 -0.48505066 -4.2342488e-05)
(1.1898924 -0.49506586 0.00031581804)
(1.2212926 -0.50511744 0.00066779253)
(1.2528662 -0.5152041 0.0010144909)
(1.2846058 -0.52532414 0.0013556212)
(1.3165067 -0.53547833 0.0016933492)
(1.3485614 -0.54566226 0.0020254509)
(1.3807657 -0.55587891 0.0023560199)
(1.413113 -0.56611953 0.0026796423)
(1.445597 -0.57638451 0.003006833)
(1.4782118 -0.5866831 0.0033244942)
(1.5109537 -0.59699307 0.0036415294)
(1.5438163 -0.60733401 0.003954448)
(1.5767922 -0.61768197 0.0042612481)
(1.609879 -0.6280547 0.0045666589)
(1.6430666 -0.63843133 0.0048607293)
(1.6763535 -0.64882508 0.0051547316)
(1.7097317 -0.65921978 0.0054352782)
(1.7431958 -0.66962541 0.0057135587)
(1.7767419 -0.68002674 0.0059782563)
(1.8103629 -0.69043507 0.0062389631)
(1.8440562 -0.70083409 0.0064859945)
(1.8778141 -0.71123522 0.0067283027)
(1.911636 -0.72162463 0.0069575886)
(1.9455129 -0.73200959 0.0071811047)
(1.9794454 -0.74238251 0.0073941471)
(2.0134258 -0.7527449 0.007601202)
(2.0474528 -0.76309257 0.0077978647)
(2.0815197 -0.77343014 0.007992941)
(2.1156282 -0.78374847 0.0081767898)
(2.1497665 -0.79405341 0.0083587096)
(2.183943 -0.8043518 0.0085346901)
(2.2181411 -0.81464033 0.0087167432)
(2.2524015 -0.82492764 0.0088777036)
(2.2866816 -0.83528506 0.0090845815)
(0 0 0)
(0 0 0)
(0 0 0)
(0 0 0)
(0 0 0)
(0 0 0)
(0 0 0)
(0 0 0)
(0 0 0)
(0 0 0)
(0 0 0)
(0 0 0)
(0 0 0)
(0 0 0)
(0 0 0)
(0.0058421658 -0.0045744302 0.0091480202)
(0.0058276305 -0.017462636 0.014772206)
(0.0053576482 -0.018184301 0.017953523)
(0.0077619248 -0.026779389 0.020980148)
(0.010201204 -0.030902857 0.02237119)
(0.014432841 -0.037484995 0.023087874)
(0.019026387 -0.043047836 0.023600776)
(0.025049922 -0.049745959 0.023801604)
(0.031548688 -0.055586474 0.023803695)
(0.039012542 -0.062309448 0.023625597)
(0.047388285 -0.068682079 0.023548245)
(0.056171917 -0.075050747 0.023163679)
(0.066118245 -0.081984769 0.023007005)
(0.076329162 -0.088210921 0.022563853)
(0.087712905 -0.095508253 0.022375075)
(0.099345457 -0.10173865 0.021982876)
(0.11195506 -0.10902788 0.021750715)
(0.1250376 -0.11552425 0.021310716)
(0.13888536 -0.12286267 0.021093388)
(0.15334801 -0.12966318 0.020690353)
(0.16837698 -0.13692291 0.020462188)
(0.18414028 -0.14406666 0.020088368)
(0.20039214 -0.15138931 0.01984021)
(0.21734375 -0.15875364 0.019512138)
(0.23480244 -0.16614512 0.019218547)
(0.25291059 -0.17376073 0.018924484)
(0.2715297 -0.18125681 0.018610732)
(0.29073806 -0.18909365 0.018323176)
(0.31047865 -0.19676423 0.018012138)
(0.33073848 -0.20474524 0.017722163)
(0.35154212 -0.21266963 0.017422724)
(0.37283505 -0.22075084 0.017129797)
(0.39463461 -0.22889123 0.016834904)
(0.41691305 -0.23713388 0.016540447)
(0.43966523 -0.24547572 0.016260642)
(0.46287935 -0.25383329 0.015964761)
(0.48651829 -0.26238616 0.015690016)
(0.51061762 -0.2709451 0.015413685)
(0.53512012 -0.27961148 0.015146172)
(0.56004398 -0.28835158 0.014876197)
(0.58536088 -0.29717676 0.014617113)
(0.61106587 -0.30607397 0.014359845)
(0.63714659 -0.31505169 0.014108277)
(0.66359136 -0.32410002 0.013861881)
(0.6903885 -0.33322238 0.013620101)
(0.71752844 -0.34241459 0.013383826)
(0.74499858 -0.35167431 0.013152145)
(0.77278934 -0.3610009 0.012926266)
(0.80088849 -0.37039027 0.012706261)
(0.82928626 -0.37984148 0.01249242)
(0.85797055 -0.38935116 0.012286323)
(0.8869326 -0.39891753 0.012086126)
(0.91616017 -0.40853832 0.011895844)
(0.94564459 -0.41820973 0.011711989)
(0.97537438 -0.42793272 0.011539201)
(1.0053417 -0.43770057 0.011373718)
(1.0355349 -0.44751598 0.011220148)
(1.0659474 -0.45737325 0.011074708)
(1.0965686 -0.46727265 0.010940667)
(1.1273918 -0.47721189 0.010815989)
(1.1584081 -0.48718906 0.010701354)
(1.1896113 -0.49720296 0.010596055)
(1.2209933 -0.50725237 0.010499958)
(1.2525488 -0.51733465 0.010411981)
(1.2842704 -0.52744963 0.010331696)
(1.3161528 -0.53759596 0.010258634)
(1.3481913 -0.5477682 0.01019021)
(1.3803775 -0.55797703 0.010130854)
(1.4127112 -0.56819146 0.010071454)
(1.4451732 -0.57845366 0.010018306)
(1.477781 -0.58872276 0.0099683751)
(1.5105083 -0.59901408 0.0099222486)
(1.5433623 -0.60932294 0.0098749442)
(1.5763311 -0.61964744 0.0098321811)
(1.6094119 -0.62998404 0.0097886877)
(1.6425987 -0.64033165 0.0097473288)
(1.6758855 -0.6506877 0.0097054245)
(1.7092679 -0.66105011 0.0096654131)
(1.7427387 -0.67141716 0.009624582)
(1.7762945 -0.68178605 0.0095854483)
(1.8099276 -0.69215628 0.0095450423)
(1.8436358 -0.70252553 0.0095067534)
(1.8774108 -0.71289164 0.0094668739)
(1.9112512 -0.72325511 0.009429213)
(1.9451489 -0.73361146 0.0093904197)
(1.9791023 -0.74396329 0.0093545083)
(2.0131044 -0.75430373 0.0093172273)
(2.0471528 -0.76463941 0.0092849301)
(2.0812411 -0.77495861 0.0092512616)
(2.1153677 -0.78527424 0.0092249108)
(2.1495246 -0.79556903 0.009196897)
(2.1837156 -0.8058688 0.0091802752)
(2.2179272 -0.81614741 0.009157101)
(2.252198 -0.82645619 0.0091473629)
(2.2864522 -0.8367994 0.0091114775)
(2.3313916 -0.8127365 0.0089206106)
(2.3414376 -0.77848378 0.0088767288)
(2.3514929 -0.74429327 0.0088986155)
(2.3614862 -0.71023776 0.0089240265)
(2.3714819 -0.67623311 0.0090052797)
(2.3814447 -0.64228542 0.0090767891)
(2.3914304 -0.60839255 0.00918821)
(2.4014141 -0.5745075 0.0092892548)
(2.4114377 -0.54067571 0.0093955984)
(2.4214647 -0.50680309 0.0095030835)
(2.4315592 -0.47295872 0.0095876284)
(2.4416792 -0.43906222 0.0096606812)
(2.4518649 -0.40514091 0.0097196272)
(2.4620771 -0.37111785 0.0097368514)
(2.4724448 -0.337111 0.0097288481)
(2.4482416 -0.29228514 0.009259808)
(2.4137829 -0.28224636 0.0090862059)
(2.3794354 -0.2721816 0.0088906577)
(2.3450801 -0.26215816 0.008715473)
(2.3107353 -0.25216952 0.0085187771)
(2.2763869 -0.24221733 0.0083251863)
(2.2420386 -0.23230878 0.0081256977)
(2.2076889 -0.22244101 0.0079177466)
(2.1733415 -0.21262667 0.0077079755)
(2.1390001 -0.20285812 0.0074867344)
(2.1046653 -0.19314818 0.0072625858)
(2.0703428 -0.18349245 0.0070281646)
(2.0360341 -0.17389883 0.0067871132)
(2.0017422 -0.16436457 0.0065338149)
(1.9674746 -0.15490227 0.0062753494)
(1.933235 -0.14550779 0.0060075826)
(1.8990273 -0.13618916 0.0057341477)
(1.864855 -0.12694891 0.0054522081)
(1.830725 -0.11778936 0.0051636431)
(1.7966402 -0.10871817 0.004869266)
(1.7626076 -0.099734802 0.0045690123)
(1.7286308 -0.090847995 0.004263867)
(1.6947168 -0.082056997 0.0039543012)
(1.6608683 -0.073370597 0.0036404327)
(1.6270945 -0.064788612 0.0033241795)
(1.5933968 -0.056314183 0.003003792)
(1.5597743 -0.047959937 0.0026790277)
(1.5262661 -0.039742111 0.0023614094)
(1.492823 -0.031616378 0.0020320483)
(1.45949 -0.023633219 0.0016998774)
(1.4262579 -0.015779921 0.0013648924)
(1.3931368 -0.0080631236 0.0010271309)
(1.3601279 -0.00048785005 0.00068552288)
(1.327239 0.0069412585 0.0003385147)
(1.294475 0.014218272 -1.2932709e-05)
(1.2618426 0.021339075 -0.00037014452)
(1.2293477 0.0282964 -0.00073330932)
(1.1969978 0.03508591 -0.0011024288)
(1.1648001 0.041699923 -0.0014778911)
(1.1327624 0.04813376 -0.001859852)
(1.1008933 0.054379332 -0.0022481368)
(1.0692017 0.060431708 -0.0026426159)
(1.0376968 0.066282895 -0.0030436369)
(1.0063888 0.071927462 -0.0034502563)
(0.97528775 0.077357951 -0.0038630215)
(0.94440471 0.08256851 -0.0042811856)
(0.91375069 0.087552319 -0.0047047721)
(0.8833373 0.092303344 -0.0051334032)
(0.8531765 0.096815219 -0.0055672196)
(0.8232806 0.10108252 -0.0060052117)
(0.79366221 0.10509774 -0.0064481041)
(0.7643337 0.10885916 -0.0068953534)
(0.73530998 0.1123536 -0.0073452893)
(0.7066029 0.11558632 -0.007802286)
(0.67822835 0.11854033 -0.0082573596)
(0.6502016 0.12122124 -0.0087200372)
(0.62252655 0.12362856 -0.0091849353)
(0.59522444 0.12573793 -0.0096533798)
(0.56835795 0.12752014 -0.01009951)
(0.54183667 0.12908689 -0.010590289)
(0.51575566 0.13030799 -0.011058419)
(0.4901721 0.13118659 -0.011505589)
(0.46496946 0.13183749 -0.011981179)
(0.44027717 0.13215033 -0.012454036)
(0.41604825 0.13215624 -0.012919288)
(0.39239241 0.13181218 -0.013378094)
(0.3691773 0.13123184 -0.013829239)
(0.3466044 0.1302476 -0.014277381)
(0.32450672 0.12903345 -0.014741678)
(0.30303515 0.12748854 -0.015193668)
(0.28214145 0.12561577 -0.015633398)
(0.26185244 0.12348135 -0.016090028)
(0.24226525 0.12092573 -0.016488848)
(0.22322665 0.11823057 -0.016961113)
(0.20491956 0.11515234 -0.017383984)
(0.18729352 0.1117456 -0.017785925)
(0.17034093 0.10816819 -0.01825047)
(0.15414768 0.10415729 -0.018611926)
(0.13865091 0.10005515 -0.01907644)
(0.12395802 0.095496334 -0.019426963)
(0.11005426 0.090796318 -0.01983135)
(0.096852126 0.085810597 -0.020174748)
(0.084526879 0.08070657 -0.020583141)
(0.073069827 0.075113676 -0.020816056)
(0.062399678 0.069674464 -0.021172785)
(0.052638927 0.063774661 -0.021334306)
(0.043806947 0.057830954 -0.021463625)
(0.035874719 0.051734581 -0.021452903)
(0.028844472 0.045609967 -0.0213082)
(0.022833589 0.039381251 -0.020913419)
(0.017787612 0.033079043 -0.020108702)
(0.013814238 0.026733745 -0.018883301)
(0.010826303 0.021057809 -0.017100278)
(0.0082028741 0.014747427 -0.013777142)
(0.0091530201 0.0090491534 -0.0081964669)
(0 0 0)
(0 0 0)
(0 0 0)
(0 0 0)
(0 0 0)
(0 0 0)
(0 0 0)
(0 0 0)
(0 0 0)
(0 0 0)
(0 0 0)
(0 0 0)
(0 0 0)
(0 0 0)
(0 0 0)
(0 0 0)
(0 0 0)
(0 0 0)
(0 0 0)
(0 0 0)
(0 0 0)
(0 0 0)
(0 0 0)
(0 0 0)
(0 0 0)
(0 0 0)
(0 0 0)
(0 0 0)
(0 0 0)
(0 0 0)
(2.321232 -0.84596879 0.0093059735)
(2.3212168 -0.84613473 0.0092746886)
(2.3212038 -0.84626832 0.0092436404)
(2.3211969 -0.84640274 0.0092230586)
(2.3211908 -0.84652843 0.0092050857)
(2.3211863 -0.84664677 0.0091980442)
(2.321178 -0.84675647 0.0091900057)
(2.3211684 -0.84685891 0.009188725)
(2.3211558 -0.84695463 0.0091826517)
(2.3211381 -0.84703996 0.0091755613)
(2.3211239 -0.84712715 0.0091652433)
(2.3211047 -0.84718502 0.0091447382)
(2.3210895 -0.8472499 0.0091207585)
(2.3210771 -0.84728944 0.0090889799)
(2.3210712 -0.84733385 0.0090508243)
(2.4832297 -0.30112144 0.010106989)
(2.4832715 -0.30118848 0.010105264)
(2.4833071 -0.30125046 0.010071815)
(2.4833444 -0.30132612 0.01004269)
(2.4833547 -0.30141075 0.010010578)
(2.4833648 -0.30150191 0.0099645704)
(2.4833653 -0.30159279 0.009921447)
(2.4833551 -0.3016904 0.0098706535)
(2.4833373 -0.30178791 0.0098217659)
(2.4833097 -0.30188788 0.0097751008)
(2.483275 -0.30199385 0.0097301932)
(2.4832314 -0.30210114 0.0096906973)
(2.4831897 -0.30221186 0.0096697172)
(2.4831222 -0.30235324 0.0096229305)
(2.483096 -0.30245408 0.0096156375)
(0.0033225198 0.0074726697 0.01092833)
(0.0047444933 0.012907708 0.012712933)
(0.0064083319 0.018491872 0.015761754)
(0.0093078608 0.023941834 0.016983576)
(0.012570361 0.029367351 0.018340556)
(0.017238194 0.03486716 0.018987226)
(0.022582951 0.040272537 0.01948428)
(0.029186618 0.045794813 0.019732711)
(0.036481776 0.051089794 0.019888255)
(0.044904877 0.05643288 0.019946156)
(0.054139235 0.061489088 0.019855764)
(0.064351526 0.066563056 0.019861473)
(0.075375969 0.071261262 0.019678203)
(0.087294658 0.075958235 0.019602)
(0.10000555 0.080248591 0.019408428)
(0.11360627 0.084487893 0.01930237)
(0.12797089 0.088322463 0.019082082)
(0.14308487 0.092045053 0.018967876)
(0.15902182 0.095394726 0.018754869)
(0.17568837 0.098557294 0.018603686)
(0.19307766 0.10138551 0.018414936)
(0.2112001 0.10395179 0.018250055)
(0.23001669 0.10623936 0.018049038)
(0.24948633 0.10821287 0.017882101)
(0.26965891 0.10990422 0.017678355)
(0.29045393 0.11128218 0.017503679)
(0.31188714 0.11237394 0.0172987)
(0.3339173 0.11313815 0.01711333)
(0.35655995 0.11360359 0.016911624)
(0.37976507 0.11377325 0.016715648)
(0.40352321 0.11360664 0.016510148)
(0.42783257 0.1131513 0.016310867)
(0.45265667 0.11237714 0.016112456)
(0.47797386 0.11130532 0.015907613)
(0.50378207 0.10992648 0.015705943)
(0.53005214 0.10823203 0.015503949)
(0.55677048 0.10626324 0.015304499)
(0.5839088 0.10397848 0.01510126)
(0.61147557 0.10141563 0.014902186)
(0.63942578 0.098560106 0.014709921)
(0.66776159 0.095424213 0.01451733)
(0.69644771 0.092002072 0.014321931)
(0.72549108 0.088324702 0.0141368)
(0.75486033 0.084361201 0.013947438)
(0.78453998 0.080153488 0.013763578)
(0.81452305 0.075685208 0.013583583)
(0.8447868 0.070970173 0.013403463)
(0.87532266 0.066015198 0.013230704)
(0.90611201 0.060825945 0.013059015)
(0.937145 0.055409053 0.012892942)
(0.96840454 0.049774071 0.01273039)
(0.99987994 0.043924841 0.012574474)
(1.0315572 0.037872716 0.012422113)
(1.0634245 0.031621002 0.012277627)
(1.0954699 0.025181335 0.01213826)
(1.1276813 0.018556622 0.01200683)
(1.1600495 0.011758595 0.011881715)
(1.192562 0.0047901124 0.011765035)
(1.2252106 -0.0023387795 0.011655535)
(1.2579855 -0.0096234767 0.01155413)
(1.2908781 -0.01705644 0.011460209)
(1.3238799 -0.024632246 0.011374419)
(1.3569832 -0.032344812 0.011295675)
(1.3901824 -0.040190721 0.011224713)
(1.4234656 -0.048155014 0.011158334)
(1.4568361 -0.056255598 0.01110159)
(1.4902878 -0.064458487 0.011047101)
(1.5237916 -0.072780394 0.011001575)
(1.5573701 -0.081205528 0.010958889)
(1.5909966 -0.089738947 0.010921293)
(1.6246845 -0.09836738 0.010883176)
(1.6584144 -0.10709234 0.010850041)
(1.6921936 -0.11590596 0.010815382)
(1.7260037 -0.12480939 0.010785428)
(1.7598548 -0.1337886 0.010753019)
(1.7937257 -0.14285875 0.010726037)
(1.8276302 -0.15198405 0.010692444)
(1.8615442 -0.161206 0.010668033)
(1.895485 -0.17046176 0.010631756)
(1.9294282 -0.17981682 0.010608638)
(1.9633864 -0.1891964 0.010571433)
(1.9973488 -0.19865687 0.010545187)
(2.0313132 -0.20815579 0.010508905)
(2.0652748 -0.21770938 0.010480842)
(2.0992391 -0.22730111 0.010440495)
(2.1331962 -0.23694715 0.010413674)
(2.1671536 -0.24662861 0.010378611)
(2.2010958 -0.25634259 0.010344651)
(2.2350392 -0.26609452 0.010313386)
(2.2689521 -0.2758907 0.01029274)
(2.3028841 -0.28568383 0.010243259)
(2.3367755 -0.29553768 0.010234981)
(2.3706654 -0.30544372 0.010194159)
(2.4045894 -0.31531196 0.010138513)
(2.438471 -0.32539038 0.010071203)
(0.00021845934 0.0065861117 0.0098957819)
(0.0010374788 0.0098541122 0.011545481)
(0.0030338791 0.015523608 0.013664157)
(0.0049734853 0.019771108 0.015065337)
(0.0081154084 0.024850816 0.015977082)
(0.012106705 0.029443622 0.016542805)
(0.017209793 0.034399235 0.016952184)
(0.023121299 0.039014202 0.017198692)
(0.030145562 0.043762019 0.017386858)
(0.038095224 0.048238858 0.01734758)
(0.046935337 0.052736001 0.017461457)
(0.056729028 0.056963334 0.017304601)
(0.067373085 0.061131979 0.017327208)
(0.078937714 0.065022483 0.017158831)
(0.091306366 0.068777188 0.017140449)
(0.10459817 0.072276826 0.016916158)
(0.11856522 0.075583928 0.016896542)
(0.13350058 0.078619768 0.016701877)
(0.14910305 0.081429005 0.016608077)
(0.16554805 0.083966057 0.016448685)
(0.18269178 0.086247518 0.016333872)
(0.20063157 0.08825908 0.016159244)
(0.21923388 0.089988608 0.016041242)
(0.23860249 0.091433928 0.015880525)
(0.25862045 0.092579494 0.015738003)
(0.27933282 0.093456543 0.01557146)
(0.30067873 0.094012047 0.015423117)
(0.32268175 0.094278675 0.015265342)
(0.3452913 0.094244043 0.015095836)
(0.36850252 0.093903095 0.01493243)
(0.3922966 0.093256393 0.014770583)
(0.41665695 0.092309631 0.014599496)
(0.44154442 0.091061914 0.014428995)
(0.46696858 0.089504884 0.014261506)
(0.4928965 0.087646878 0.014088874)
(0.51931109 0.085497239 0.013921927)
(0.54619769 0.083042627 0.013749134)
(0.57353044 0.080299221 0.013586631)
(0.60128007 0.077266095 0.013420799)
(0.6294517 0.073958575 0.013257901)
(0.65800426 0.070357545 0.013091003)
(0.68694104 0.066501135 0.012938057)
(0.71623562 0.062353772 0.012768535)
(0.74586113 0.05796229 0.012622286)
(0.77581812 0.053310628 0.012463824)
(0.80607919 0.048407021 0.012316158)
(0.83662785 0.043263674 0.012168554)
(0.86745227 0.037884822 0.012027614)
(0.89853303 0.032277588 0.011886062)
(0.92985632 0.02645123 0.011753534)
(0.9614059 0.020413138 0.01162193)
(0.99316816 0.014169223 0.011497786)
(1.0251278 0.0077316936 0.011377148)
(1.0572711 0.0011031406 0.011264315)
(1.089585 -0.0057030541 0.011155839)
(1.122056 -0.012683842 0.011055563)
(1.1546724 -0.019827093 0.010960781)
(1.1874214 -0.027129854 0.010874628)
(1.2202933 -0.034579708 0.010794247)
(1.2532764 -0.042174687 0.010722311)
(1.2863608 -0.049903661 0.010657327)
(1.3195381 -0.057763056 0.010599326)
(1.3527984 -0.065746346 0.01054932)
(1.3861342 -0.073844791 0.010503538)
(1.4195386 -0.082054196 0.010466486)
(1.4530088 -0.090375075 0.010435364)
(1.4865096 -0.098781297 0.01041021)
(1.5200734 -0.10730275 0.01039205)
(1.5536803 -0.11591235 0.010366377)
(1.587322 -0.12461298 0.010353145)
(1.6209983 -0.13338791 0.010335813)
(1.6546914 -0.14224989 0.010329487)
(1.6884116 -0.15117551 0.010316095)
(1.7221368 -0.16018526 0.010315096)
(1.7558856 -0.16924347 0.0103008)
(1.7896232 -0.17838753 0.010304345)
(1.8233828 -0.18755931 0.010285532)
(1.8571181 -0.19682327 0.010292917)
(1.8908732 -0.20609302 0.01026812)
(1.9245921 -0.21546155 0.010278982)
(1.9583302 -0.2248198 0.010248215)
(1.9920279 -0.23426688 0.010255034)
(2.025731 -0.24371992 0.010232977)
(2.0594014 -0.2532315 0.010220161)
(2.0930798 -0.26275364 0.010198942)
(2.1267105 -0.27232788 0.010193408)
(2.1603419 -0.28191558 0.010169681)
(2.1939337 -0.29153276 0.010159201)
(2.2275201 -0.30120127 0.010144962)
(2.2610758 -0.31084693 0.01011332)
(2.2946223 -0.32057103 0.010103198)
(2.3281259 -0.33029908 0.010074363)
(2.3616519 -0.34005421 0.010031934)
(2.3951432 -0.34987197 0.0099869741)
(2.4286796 -0.35975191 0.009917454)
(-0.001765593 0.0051456828 0.0085855358)
(-0.001289515 0.0081027301 0.0098483968)
(-0.00062827706 0.012311799 0.012083377)
(0.001393833 0.016301988 0.012966749)
(0.0041315839 0.020392961 0.013641305)
(0.0080629012 0.02459958 0.014094318)
(0.012616772 0.028578925 0.014447485)
(0.01849963 0.03267912 0.014682389)
(0.025114137 0.036489863 0.014690183)
(0.032770485 0.040464301 0.014888279)
(0.041309628 0.044038339 0.014769315)
(0.050842481 0.047749243 0.014865571)
(0.061188241 0.051038135 0.014724512)
(0.072463611 0.054397923 0.014772482)
(0.084608937 0.05736819 0.014580281)
(0.097542034 0.060293564 0.014631178)
(0.11139391 0.062877677 0.014453003)
(0.12599554 0.065339123 0.014418955)
(0.14142257 0.067491453 0.014293483)
(0.15763387 0.069444288 0.014230139)
(0.17462697 0.071127225 0.014094485)
(0.19235275 0.072538642 0.0140278)
(0.21084269 0.073705286 0.013898214)
(0.23002641 0.074568176 0.013803911)
(0.24993407 0.075191165 0.013673354)
(0.27051662 0.075493334 0.013572635)
(0.29178311 0.075530706 0.013446752)
(0.31368914 0.075270302 0.01332161)
(0.33624007 0.074718186 0.013196656)
(0.35940222 0.073866275 0.013075084)
(0.38316723 0.07272221 0.012937733)
(0.40750142 0.071282317 0.012807736)
(0.43240586 0.069539627 0.012677068)
(0.45784437 0.067504435 0.012541807)
(0.48380214 0.065176568 0.012409655)
(0.51026055 0.062556442 0.012274416)
(0.53718671 0.059649913 0.012148749)
(0.56456673 0.056459544 0.012020105)
(0.59242129 0.052980318 0.011887848)
(0.62067992 0.049215453 0.011751795)
(0.64934915 0.045195013 0.011632418)
(0.67840219 0.040894596 0.011492681)
(0.70781589 0.036338068 0.011383235)
(0.73758382 0.031525836 0.011257757)
(0.76767933 0.026460042 0.01113797)
(0.79808313 0.021156175 0.011025214)
(0.82878281 0.015616819 0.010911152)
(0.85975931 0.0098497848 0.010801922)
(0.89099475 0.0038632446 0.010696488)
(0.92247319 -0.00233467 0.010596117)
(0.95417961 -0.0087367051 0.01049738)
(0.98609557 -0.015334041 0.010406977)
(1.0182084 -0.022117852 0.010318425)
(1.0505004 -0.029081958 0.010238068)
(1.0829599 -0.036214631 0.010161346)
(1.1155701 -0.043511782 0.010092549)
(1.1483201 -0.050961609 0.01002879)
(1.1811955 -0.058559494 0.0099727948)
(1.2141856 -0.066294916 0.0099220265)
(1.2472773 -0.074163778 0.0098798694)
(1.2804619 -0.082155849 0.0098424858)
(1.3137279 -0.090267389 0.0098128566)
(1.3470658 -0.098489876 0.0097892444)
(1.3804684 -0.10681692 0.009769848)
(1.4139273 -0.11524697 0.0097600629)
(1.4474244 -0.12376973 0.0097500091)
(1.4809896 -0.13236626 0.0097537421)
(1.514559 -0.14107214 0.0097456655)
(1.5481642 -0.14986135 0.0097625052)
(1.5817878 -0.15870542 0.0097720817)
(1.6154274 -0.16763003 0.0097850844)
(1.6490752 -0.17661264 0.0098020516)
(1.6827346 -0.18566056 0.0098156211)
(1.7163897 -0.19476125 0.0098341163)
(1.7500449 -0.20391944 0.0098488783)
(1.7836868 -0.21312391 0.0098690013)
(1.8173243 -0.22237409 0.0098817446)
(1.8509369 -0.23166942 0.0099025737)
(1.8845416 -0.24099707 0.009912277)
(1.9181146 -0.25036847 0.0099317973)
(1.9516771 -0.25975786 0.0099354702)
(1.9852003 -0.26920285 0.0099592675)
(2.0187104 -0.27863869 0.0099522895)
(2.0521875 -0.28813973 0.0099722626)
(2.0856372 -0.29763143 0.0099703009)
(2.119056 -0.30716853 0.009983515)
(2.1524533 -0.31670141 0.0099726677)
(2.1858154 -0.32629343 0.0099879745)
(2.2191661 -0.33585828 0.0099650347)
(2.2524675 -0.34548472 0.0099777207)
(2.2857641 -0.35512082 0.0099583888)
(2.3190268 -0.36476299 0.0099431538)
(2.3522812 -0.37447538 0.0099152284)
(2.3855275 -0.3841727 0.0098736972)
(2.418779 -0.39393408 0.0098156719)
(-0.0028921655 0.0045560016 0.0071953292)
(-0.003350241 0.0062523947 0.0084877954)
(-0.0027173593 0.0097964122 0.009867618)
(-0.0010067681 0.012806545 0.010520503)
(0.0016835211 0.016341595 0.011116404)
(0.0051401127 0.019590719 0.011511647)
(0.0098781266 0.023069928 0.011793712)
(0.015400274 0.026243938 0.011842393)
(0.021903861 0.029572681 0.012128301)
(0.02941807 0.032597208 0.012028108)
(0.037837337 0.035644091 0.012196041)
(0.047147228 0.038468115 0.012081226)
(0.057346159 0.041188576 0.012200289)
(0.068512711 0.043745182 0.012031302)
(0.080387752 0.046072517 0.012151186)
(0.093289219 0.048279585 0.011992725)
(0.10687266 0.050221077 0.012018501)
(0.12137989 0.051995764 0.011936945)
(0.13661072 0.053503517 0.011913432)
(0.15270711 0.054817218 0.011825661)
(0.16948871 0.055853821 0.011796724)
(0.18710822 0.056673205 0.011714588)
(0.20540169 0.057215434 0.01165684)
(0.22447438 0.057512955 0.011582957)
(0.24421985 0.057527231 0.011516624)
(0.26468659 0.057275582 0.011441248)
(0.2858053 0.056756492 0.011355406)
(0.30760104 0.055941762 0.01128369)
(0.33002344 0.054855282 0.011196687)
(0.35307851 0.053482079 0.011108109)
(0.376723 0.051825679 0.011021766)
(0.40096734 0.049878427 0.0109349)
(0.42576398 0.047649182 0.010840072)
(0.45111003 0.045138802 0.010751803)
(0.47698437 0.042331175 0.010657148)
(0.50335801 0.03926197 0.010565252)
(0.53023401 0.035885102 0.010471321)
(0.55760303 0.032255633 0.010368418)
(0.58536566 0.028337795 0.010280742)
(0.61357241 0.024179111 0.010202577)
(0.64218066 0.019739857 0.010107195)
(0.67118218 0.015043313 0.01003203)
(0.70055211 0.010102031 0.0099422765)
(0.7302722 0.004910699 0.0098588884)
(0.7603257 -0.00051501845 0.0097830543)
(0.79069408 -0.0061751914 0.0097078061)
(0.82136141 -0.012060142 0.0096328761)
(0.85230706 -0.018162232 0.0095656278)
(0.88351498 -0.024474793 0.0094988458)