/*--------------------------------*- C++ -*----------------------------------*\
  =========                 |
  \\      /  F ield         | OpenFOAM: The Open Source CFD Toolbox
   \\    /   O peration     | Website:  https://openfoam.org
    \\  /    A nd           | Version:  6
     \\/     M anipulation  |
\*---------------------------------------------------------------------------*/
FoamFile
{
    version     2.0;
    format      ascii;
    class       pointVectorField;
    location    "1.87";
    object      u;
}
// * * * * * * * * * * * * * * * * * * * * * * * * * * * * * * * * * * * * * //

dimensions      [0 1 0 0 0 0 0];

internalField   nonuniform List<vector> 
3969
(
(0 0 0)
(0 0 0)
(0.20930273 0.038852813 -0.011164642)
(0.20475787 -0.055831988 -0.0099431991)
(0 0 0)
(0 0 0)
(0.20339448 -0.055625422 -0.0099760891)
(0.20797603 0.038876832 -0.01133441)
(0 0 0)
(0 0 0)
(0 0 0)
(0 0 0)
(0 0 0)
(0 0 0)
(0 0 0)
(0.20853074 0.026169965 -0.011463098)
(0.20761463 0.014430078 -0.01117359)
(0.20683099 0.0029423529 -0.010981074)
(0.20622721 -0.0084021937 -0.010586466)
(0.20576236 -0.019782138 -0.010302015)
(0.20535736 -0.031311954 -0.0099694406)
(0.20517267 -0.043155015 -0.009870121)
(-0.0013819254 -0.002223325 -0.0019077349)
(-0.0025392108 -0.0033891236 -0.0021150575)
(-0.0041708593 -0.004490404 -0.0021391367)
(-0.0059994251 -0.0055146861 -0.0020605787)
(-0.0080661637 -0.0062371377 -0.001996429)
(-0.010240586 -0.0069004226 -0.0019003292)
(-0.012515412 -0.0072031637 -0.001896258)
(-0.014783894 -0.0074338524 -0.0018745092)
(-0.017030103 -0.0072845597 -0.0019672733)
(-0.019147884 -0.0070710669 -0.0020357948)
(-0.021144737 -0.0065066275 -0.0022018706)
(-0.02288712 -0.005845938 -0.0023671684)
(-0.024407156 -0.0048987625 -0.0026177718)
(-0.025587091 -0.0038274263 -0.0028628584)
(-0.026423202 -0.0025216754 -0.0031710552)
(-0.026861126 -0.0011197707 -0.0034906405)
(-0.02688186 0.00048309805 -0.0038298759)
(-0.026433146 0.0021696807 -0.0041868403)
(-0.025502655 0.0040025271 -0.0045549692)
(-0.024062743 0.0059013032 -0.0049262363)
(-0.022092129 0.0078920883 -0.0052977036)
(-0.019584126 0.0099258991 -0.0056643864)
(-0.016520653 0.012006398 -0.0060203131)
(-0.012905115 0.014086305 -0.0063594495)
(-0.0087325678 0.016169633 -0.0066854568)
(-0.0040113302 0.018240164 -0.0069846402)
(0.0012540653 0.020276286 -0.0072592901)
(0.0070666974 0.02225036 -0.007517938)
(0.013405449 0.02417377 -0.0077456449)
(0.020251508 0.026006006 -0.0079520747)
(0.027598423 0.027762736 -0.0081377346)
(0.035429656 0.029415113 -0.008303397)
(0.043720923 0.030966293 -0.0084546763)
(0.052458701 0.032402819 -0.0085952133)
(0.061627986 0.033734328 -0.0087284342)
(0.071197136 0.034907752 -0.0088512635)
(0.08115132 0.036038306 -0.008995003)
(0.091473105 0.036895671 -0.0091083989)
(0.10211621 0.037825829 -0.0092900882)
(0.11310424 0.038373491 -0.0093920645)
(0.12434646 0.03905035 -0.0096175883)
(0.13586757 0.039381799 -0.0097454215)
(0.14763322 0.039624812 -0.0099459762)
(0.15954213 0.039890811 -0.010181732)
(0.17169201 0.039667243 -0.010301592)
(0.18390555 0.039692648 -0.010560806)
(0.19613182 0.03944953 -0.010613997)
(-0.00044136784 0.001597639 0.0021848253)
(-0.002108001 0.0024717947 0.0016254731)
(-0.0035751135 0.0033516955 0.0016959882)
(-0.0054534529 0.0038606266 0.0010732809)
(-0.0075985915 0.0043877816 0.00058176539)
(-0.0097903822 0.004606618 -7.180533e-05)
(-0.012139785 0.0047018198 -0.00075131635)
(-0.014437426 0.0045462607 -0.0014523893)
(-0.016742122 0.0042400449 -0.0022082052)
(-0.018914622 0.0037182804 -0.0029578712)
(-0.020938445 0.0030367073 -0.0037331768)
(-0.022747875 0.0021670691 -0.0045260918)
(-0.024311172 0.0011636589 -0.0053143405)
(-0.025560625 -3.9330681e-06 -0.0060881241)
(-0.026471097 -0.001290693 -0.0068543411)
(-0.026989707 -0.002712231 -0.0076003237)
(-0.027093539 -0.0042191837 -0.0083137935)
(-0.026731154 -0.0058444465 -0.0090002855)
(-0.025914391 -0.007520546 -0.0096446488)
(-0.024563588 -0.0092919582 -0.010244422)
(-0.022733992 -0.011100747 -0.010793534)
(-0.020326782 -0.012965238 -0.011293387)
(-0.017412147 -0.014866459 -0.011717888)
(-0.01391436 -0.016805762 -0.012098175)
(-0.0099110146 -0.018741681 -0.012420497)
(-0.0053177679 -0.020712249 -0.012676757)
(-0.00025064583 -0.022652632 -0.012871105)
(0.0054171301 -0.024643076 -0.013007992)
(0.01158926 -0.026590358 -0.013102047)
(0.01826919 -0.0285416 -0.013141315)
(0.025452579 -0.030472532 -0.013136972)
(0.033107219 -0.032394822 -0.013092139)
(0.041230148 -0.034283459 -0.01301255)
(0.049792232 -0.036159034 -0.012905418)
(0.058784722 -0.037986012 -0.012768863)
(0.068172943 -0.039790923 -0.012623167)
(0.077959611 -0.041538822 -0.012452586)
(0.088091829 -0.043233461 -0.012269512)
(0.098585709 -0.044889136 -0.012080119)
(0.10938717 -0.046450289 -0.011883343)
(0.12048916 -0.047960585 -0.011674269)
(0.13186521 -0.04938155 -0.011464376)
(0.14347015 -0.05068824 -0.01125367)
(0.15531924 -0.051931854 -0.011019603)
(0.16730659 -0.053033455 -0.010798036)
(0.17951928 -0.054020924 -0.010584651)
(0.19182664 -0.055005524 -0.010318233)
(0 0 0)
(0 0 0)
(0 0 0)
(0 0 0)
(0 0 0)
(0 0 0)
(0 0 0)
(-0.0014111371 0.0013698177 -0.001868691)
(-0.0029292255 0.003934082 -0.0020487991)
(-0.0043530093 0.0039207756 -0.0017760084)
(-0.0065109871 0.0055461921 -0.0016822002)
(-0.0086255682 0.0060330701 -0.0015380971)
(-0.010892692 0.0066841945 -0.0013439885)
(-0.013300088 0.0070172493 -0.0012764547)
(-0.015589963 0.0071374599 -0.0012029765)
(-0.017973826 0.0070798861 -0.0011938232)
(-0.020082444 0.0067257714 -0.0012365541)
(-0.022172134 0.0062499135 -0.0013055247)
(-0.024029346 0.0054900855 -0.0013729181)
(-0.025584894 0.0046435702 -0.0015746441)
(-0.026803757 0.0035103573 -0.0017452773)
(-0.027731836 0.0023385664 -0.002001264)
(-0.028192837 0.00087091634 -0.002242472)
(-0.02830692 -0.00059337239 -0.0025488512)
(-0.027893981 -0.0023309728 -0.0028358427)
(-0.027065172 -0.0040442443 -0.0031764211)
(-0.025681515 -0.0059848696 -0.0034926054)
(-0.02382517 -0.0079013208 -0.0038424208)
(-0.021405797 -0.009983694 -0.00416665)
(-0.018473429 -0.012043581 -0.0045084809)
(-0.014988429 -0.014209076 -0.0048193488)
(-0.010955732 -0.016369227 -0.0051474875)
(-0.0063403732 -0.018571853 -0.0054649132)
(-0.0012478503 -0.020797226 -0.0057365082)
(0.0043749992 -0.023008212 -0.0059862419)
(0.010514647 -0.025201377 -0.0062127765)
(0.017164846 -0.027374751 -0.006422535)
(0.024304045 -0.029508956 -0.0066183361)
(0.031923173 -0.031610206 -0.0067937667)
(0.040002204 -0.033664475 -0.0069580176)
(0.04852874 -0.035664974 -0.0071130344)
(0.057478522 -0.037611454 -0.0072626568)
(0.0668519 -0.039506083 -0.0074066761)
(0.076592924 -0.041292046 -0.0075684731)
(0.08671939 -0.043080829 -0.0077087003)
(0.097184688 -0.04473758 -0.0078788629)
(0.10798881 -0.046339513 -0.0080482259)
(0.11907936 -0.047848653 -0.0082388216)
(0.1304684 -0.049272347 -0.0084343843)
(0.14207709 -0.050586484 -0.0086482841)
(0.15393491 -0.051813642 -0.008867623)
(0.16594417 -0.052907972 -0.0091036093)
(0.17816271 -0.053901629 -0.0093225838)
(0.19042689 -0.054903974 -0.0095917366)
(0.20392053 -0.042965901 -0.010371997)
(0.20404557 -0.031196075 -0.010578746)
(0.20443693 -0.019629545 -0.010620891)
(0.20493452 -0.0083505963 -0.010677032)
(0.20545791 0.0030293654 -0.010590011)
(0.20622704 0.014463428 -0.0107114)
(0.20726161 0.026182109 -0.010799813)
(0.19499565 0.039495227 -0.011842273)
(0.1825258 0.039617149 -0.012002178)
(0.17031215 0.039784579 -0.012252851)
(0.15819819 0.039808498 -0.012439679)
(0.14623338 0.039690086 -0.012676192)
(0.13446798 0.039429753 -0.012898786)
(0.12293019 0.039034606 -0.013112614)
(0.11164132 0.038503741 -0.013325719)
(0.10063797 0.037849913 -0.013536346)
(0.089942037 0.037081893 -0.013736446)
(0.079568039 0.036187716 -0.013926863)
(0.06962242 0.035156961 -0.014088132)
(0.059966914 0.034081783 -0.014259581)
(0.050762728 0.03286199 -0.014397945)
(0.041975496 0.031570461 -0.014517226)
(0.033643298 0.030176546 -0.01460044)
(0.025772101 0.028710978 -0.014649827)
(0.018396785 0.027157301 -0.014657773)
(0.01152101 0.025542041 -0.014617471)
(0.0051733945 0.023853155 -0.014525375)
(-0.00064095366 0.022120447 -0.014380025)
(-0.0059070205 0.020328983 -0.01417067)
(-0.01060822 0.018511242 -0.013901452)
(-0.01475478 0.016656415 -0.013567778)
(-0.018329615 0.014803305 -0.013176631)
(-0.021338086 0.012930915 -0.012711346)
(-0.023790619 0.011096059 -0.012200903)
(-0.025685329 0.0092645657 -0.011613046)
(-0.02705074 0.007504513 -0.010991895)
(-0.027888752 0.0057791486 -0.010302408)
(-0.028242109 0.0041560351 -0.0095846394)
(-0.028117302 0.0026029122 -0.0088211978)
(-0.027584943 0.0011889104 -0.0080329484)
(-0.02661455 -0.00015110073 -0.0072012388)
(-0.025296827 -0.0013084267 -0.0063796659)
(-0.023670863 -0.0023147991 -0.0055237068)
(-0.021799304 -0.003175402 -0.0046883719)
(-0.019687963 -0.0038613558 -0.0038544101)
(-0.017455396 -0.0043451985 -0.0030218114)
(-0.015104633 -0.0046515167 -0.0022176628)
(-0.012696026 -0.0047733349 -0.0014138095)
(-0.010275384 -0.0046603768 -0.00067224425)
(-0.0080054106 -0.0043832919 5.2703974e-05)
(-0.0058014271 -0.0039441 0.00069698287)
(-0.0038673199 -0.003314117 0.0011705391)
(-0.0022530883 -0.0023797941 0.0015309492)
(-0.0014243941 -0.0017598823 0.0012951313)
(0 0 0)
(0 0 0)
(0 0 0)
(0 0 0)
(0 0 0)
(0 0 0)
(0 0 0)
(0 0 0)
(0 0 0)
(0 0 0)
(0 0 0)
(0 0 0)
(0 0 0)
(0 0 0)
(0.20466303 -0.056049856 -0.010015247)
(0.20456091 -0.056124302 -0.010014445)
(0.20441394 -0.056130772 -0.009995439)
(0.20426499 -0.056148998 -0.0099533555)
(0.204101 -0.056129734 -0.0099107251)
(0.20390068 -0.056051217 -0.0098744368)
(0.2037148 -0.056010725 -0.0099439731)
(0.20935265 0.039177281 -0.01116455)
(0.20922305 0.039184648 -0.011137383)
(0.20907153 0.039220524 -0.01121049)
(0.20892302 0.039238958 -0.01125722)
(0.2087508 0.039244321 -0.011313927)
(0.20855207 0.039192444 -0.011357592)
(0.20840882 0.039233363 -0.011343447)
(-0.00075470908 -0.0012565359 -0.0017341509)
(-0.0021669339 -0.0019605153 -0.0015330375)
(-0.0037600459 -0.0028933011 -0.0017081088)
(-0.0056914296 -0.0036376508 -0.0016729679)
(-0.0077900078 -0.0042203547 -0.0016924283)
(-0.010078437 -0.0047386771 -0.0016959307)
(-0.01243102 -0.0050234628 -0.0017607255)
(-0.01478415 -0.005219844 -0.0018605601)
(-0.017128816 -0.0051906212 -0.0019944369)
(-0.019321773 -0.0050596134 -0.0021738071)
(-0.021401508 -0.0047010026 -0.0023999638)
(-0.023221417 -0.004245929 -0.0026520772)
(-0.024813991 -0.0035892966 -0.002947687)
(-0.026064981 -0.0028294121 -0.0032557216)
(-0.026971718 -0.0019127828 -0.0036126483)
(-0.027462971 -0.00088208492 -0.0039712408)
(-0.027540931 0.00027734688 -0.0043588497)
(-0.027139244 0.0015192825 -0.0047500312)
(-0.026258973 0.0028638787 -0.0051478973)
(-0.024852153 0.0042700826 -0.0055457775)
(-0.022922985 0.0057423712 -0.0059358674)
(-0.020444142 0.0072543872 -0.0063162239)
(-0.017413203 0.008795328 -0.0066778412)
(-0.013829945 0.010341476 -0.0070204937)
(-0.0096738448 0.011903211 -0.0073409025)
(-0.0049614696 0.013426063 -0.0076423353)
(0.00029154802 0.014928932 -0.0079134148)
(0.006092344 0.016396268 -0.0081528502)
(0.012425677 0.017796075 -0.0083713636)
(0.019264972 0.019140108 -0.0085609632)
(0.026611654 0.02041123 -0.0087281639)
(0.034442532 0.021595294 -0.0088736012)
(0.042733251 0.02269441 -0.0090029688)
(0.051480411 0.023704213 -0.0091183088)
(0.060652796 0.02460125 -0.0092227346)
(0.070218831 0.025410247 -0.009325011)
(0.080199398 0.026117002 -0.009432542)
(0.090511975 0.026685987 -0.0095168045)
(0.10119417 0.027200585 -0.0096413052)
(0.11218647 0.027531429 -0.0097319406)
(0.1234427 0.027859478 -0.0098857543)
(0.13500984 0.02790234 -0.0099643705)
(0.14677933 0.028053552 -0.010181968)
(0.15874483 0.027912713 -0.010271499)
(0.17093984 0.02767254 -0.010458205)
(0.18312609 0.027496849 -0.010657985)
(0.19559499 0.026779699 -0.010888715)
(-0.00037326729 -0.00086023368 -0.0012115378)
(-0.0017314636 -0.0011689239 -0.0011672837)
(-0.0034281304 -0.0020042429 -0.0013471794)
(-0.005340646 -0.0024486543 -0.0013969262)
(-0.007583896 -0.0029503497 -0.0014747262)
(-0.0098836698 -0.0033577815 -0.0015474393)
(-0.012303701 -0.0036102946 -0.0017289782)
(-0.014741985 -0.0038122989 -0.0018587016)
(-0.017130216 -0.0038282364 -0.0021163408)
(-0.019407588 -0.003803696 -0.0023453872)
(-0.021526853 -0.0035868587 -0.0026603166)
(-0.023419586 -0.0033516781 -0.0029606327)
(-0.025056277 -0.0029177833 -0.0033327214)
(-0.026341928 -0.0024538302 -0.0037016766)
(-0.027294953 -0.0018331339 -0.0041061684)
(-0.027839113 -0.0011709957 -0.0045126033)
(-0.027955423 -0.00038415147 -0.0049427213)
(-0.027606019 0.00044036622 -0.0053595525)
(-0.026755427 0.0013567188 -0.0057889008)
(-0.025392106 0.0023043987 -0.0062040481)
(-0.023484137 0.0033083012 -0.0066116134)
(-0.021031946 0.0043342791 -0.0070057575)
(-0.018027108 0.00537888 -0.00737405)
(-0.014450586 0.0064442356 -0.0077253413)
(-0.010314327 0.0074884863 -0.0080505694)
(-0.0056364871 0.0085296407 -0.0083294386)
(-0.00039451276 0.0095360924 -0.0085856874)
(0.005394885 0.010504613 -0.0088241826)
(0.011699987 0.011436034 -0.0090114833)
(0.018534801 0.012305049 -0.0091855838)
(0.025869639 0.013120802 -0.009329308)
(0.033689474 0.013857601 -0.0094455808)
(0.041977249 0.014535259 -0.0095508572)
(0.050720471 0.015123631 -0.0096326443)
(0.05987814 0.015638735 -0.0097063058)
(0.069465327 0.016070603 -0.0097728773)
(0.079431318 0.01642975 -0.009833948)
(0.089741761 0.016642506 -0.0098782164)
(0.10044582 0.01690606 -0.0099829155)
(0.1113952 0.016890099 -0.01000247)
(0.12272946 0.016998846 -0.010126452)
(0.13425207 0.016836071 -0.010174512)
(0.14608182 0.016752365 -0.010304618)
(0.15804332 0.016424781 -0.010360405)
(0.17025124 0.016096025 -0.01051232)
(0.18255156 0.015611573 -0.010665223)
(0.19514154 0.014970766 -0.010882828)
(-0.00021169344 -0.00051793297 -0.00075165374)
(-0.0016079571 -0.00079365297 -0.00071819025)
(-0.003180962 -0.0012286948 -0.00088418835)
(-0.005244127 -0.0015775117 -0.00097294218)
(-0.0074344869 -0.0019037588 -0.0011100915)
(-0.0098169617 -0.0021981241 -0.0013195987)
(-0.012298339 -0.0023885766 -0.0015068376)
(-0.014740204 -0.0025568171 -0.001808148)
(-0.017178395 -0.0026444431 -0.0021038351)
(-0.019459515 -0.0026649384 -0.0024518114)
(-0.021623542 -0.0026327759 -0.0028218013)
(-0.023541904 -0.0025382849 -0.003213089)
(-0.025203246 -0.0023519461 -0.0036559214)
(-0.026545827 -0.0021453436 -0.0040710313)
(-0.027540107 -0.0018457648 -0.0045295512)
(-0.028109895 -0.0015051327 -0.0049895608)
(-0.028263289 -0.001096281 -0.0054557343)
(-0.027929072 -0.00065562591 -0.0059226477)
(-0.027112248 -0.00016059435 -0.0063816328)
(-0.025770348 0.00035720422 -0.0068263579)
(-0.023906695 0.00091099404 -0.0072516058)
(-0.021496132 0.0014702338 -0.0076510498)
(-0.018510188 0.0020596679 -0.008025995)
(-0.014973639 0.0026193699 -0.0083766408)
(-0.010879226 0.0031898171 -0.0086753558)
(-0.0062146156 0.0037349901 -0.0089646276)
(-0.00098035244 0.0042622122 -0.0092258521)
(0.004787385 0.0047550642 -0.0094326353)
(0.011091895 0.0052125178 -0.0096198948)
(0.017920258 0.0056202338 -0.0097787726)
(0.025243042 0.0059830883 -0.0098989301)
(0.033061009 0.0062886835 -0.010002277)
(0.041344293 0.0065368985 -0.010080807)
(0.05007605 0.0067256585 -0.010139955)
(0.059243558 0.0068447515 -0.010187221)
(0.068819855 0.0069230505 -0.010231163)
(0.078772818 0.0068819102 -0.010248683)
(0.089123784 0.0068735842 -0.010302864)
(0.099799624 0.0067087884 -0.010319581)
(0.11080047 0.0065110025 -0.010331252)
(0.12209979 0.00634082 -0.010421968)
(0.1336507 0.0059131665 -0.010373157)
(0.14547718 0.0056679048 -0.010511729)
(0.15748214 0.0051346253 -0.010479626)
(0.16977853 0.0046758922 -0.010629737)
(0.18211174 0.004131084 -0.010686578)
(0.19463395 0.0034711615 -0.010791237)
(-0.00012852147 -0.00017868136 -0.0003004833)
(-0.0014546355 -0.00028093038 -0.00026277511)
(-0.0031100075 -0.00053813085 -0.00043743906)
(-0.0050527195 -0.00071874314 -0.00061897591)
(-0.0073240158 -0.00087903884 -0.00088637511)
(-0.0096958315 -0.0010998601 -0.0011086088)
(-0.012156878 -0.0012093023 -0.0015005288)
(-0.014639657 -0.001402028 -0.0017998722)
(-0.017075605 -0.0014952639 -0.0022153682)
(-0.01942073 -0.0016483184 -0.0026010703)
(-0.021595966 -0.0017318521 -0.003046294)
(-0.023540451 -0.0018307828 -0.003513096)
(-0.02522005 -0.0018712983 -0.0039997129)
(-0.026583624 -0.0019398788 -0.004483887)
(-0.027577869 -0.0019233558 -0.0050094298)
(-0.028176795 -0.0019341534 -0.0055115383)
(-0.028338912 -0.0018766691 -0.0060344005)
(-0.028032629 -0.0018395196 -0.0065319855)
(-0.027229438 -0.0017575713 -0.0070250375)
(-0.025911334 -0.0016829694 -0.0074966773)
(-0.024042474 -0.001590513 -0.0079458181)
(-0.021610574 -0.0014896775 -0.0083763978)
(-0.01864712 -0.0014130415 -0.0087692781)
(-0.015117581 -0.0013175051 -0.0091238436)
(-0.011012254 -0.0012352542 -0.0094590548)
(-0.0063503366 -0.0011657006 -0.0097527521)
(-0.0011449903 -0.0011208233 -0.0099823164)
(0.0046016559 -0.0011085252 -0.010185807)
(0.010884003 -0.0011168819 -0.010358243)
(0.017684545 -0.0011736468 -0.010479035)
(0.024987254 -0.001253764 -0.010583079)
(0.032783342 -0.0013889536 -0.010648335)
(0.041039823 -0.0015592575 -0.010695589)
(0.049756898 -0.0017759378 -0.010717341)
(0.058895016 -0.0020265867 -0.010732355)
(0.068449048 -0.0023515858 -0.010714859)
(0.078393708 -0.0026628213 -0.010717255)
(0.088696839 -0.0030708304 -0.010689258)
(0.099346077 -0.003511349 -0.01065134)
(0.11030066 -0.0039334572 -0.010666669)
(0.1216061 -0.0044564687 -0.010618964)
(0.13312591 -0.0049887169 -0.010608089)
(0.14496661 -0.0054633095 -0.010634531)
(0.15697203 -0.0061233243 -0.010563342)
(0.16920887 -0.0066102583 -0.01061975)
(0.18152675 -0.0072610143 -0.010540547)
(0.19407305 -0.0078612898 -0.010592669)
(-4.693067e-05 5.0093761e-05 0.00017036035)
(-0.0015150854 -4.9042351e-05 0.00024732537)
(-0.0029883608 -4.1751174e-05 1.6125451e-05)
(-0.0050638971 -6.5098568e-05 -0.00020328171)
(-0.007291223 -9.3786843e-05 -0.00047739972)
(-0.009677379 -0.00015503537 -0.00087216417)
(-0.012153225 -0.0002598215 -0.0012381712)
(-0.014637059 -0.00038163474 -0.0016857557)
(-0.017085925 -0.00056712578 -0.0021445059)
(-0.019400929 -0.00076382733 -0.0026558166)
(-0.021568799 -0.00098083495 -0.0031969568)
(-0.023511468 -0.0012254125 -0.0037423011)
(-0.025200817 -0.0014993108 -0.0042913518)
(-0.026555376 -0.001782022 -0.0048691992)
(-0.02757118 -0.0020794882 -0.0054335229)
(-0.028169867 -0.0023957752 -0.006000982)
(-0.028345805 -0.0027029502 -0.0065633808)
(-0.02804102 -0.0030426211 -0.0071050467)
(-0.027254699 -0.0033612694 -0.0076370206)
(-0.025941194 -0.0037108717 -0.008132511)
(-0.024095191 -0.004037301 -0.008612024)
(-0.021727312 -0.0044028093 -0.00903521)
(-0.018776927 -0.0047575062 -0.0094254907)
(-0.015271832 -0.0051427212 -0.0097942768)
(-0.01119313 -0.0055399202 -0.01009969)
(-0.0065716233 -0.0059534748 -0.01036346)
(-0.0013790441 -0.0063959441 -0.010585624)
(0.0043523177 -0.006847921 -0.010786379)
(0.010619771 -0.0073293885 -0.010927342)
(0.017401678 -0.0078324844 -0.011045585)
(0.024690433 -0.0083629386 -0.0111229)
(0.032464149 -0.0089243825 -0.011170396)
(0.040710322 -0.0095167752 -0.011189824)
(0.049400304 -0.010119589 -0.011196019)
(0.058525932 -0.010784591 -0.011163673)
(0.068063492 -0.011427248 -0.01114505)
(0.077973057 -0.012125711 -0.011096551)
(0.088287547 -0.012848368 -0.011034847)
(0.098891424 -0.013546494 -0.01101579)
(0.10990487 -0.014266423 -0.010936629)
(0.1211387 -0.0150183 -0.010882601)
(0.13268905 -0.015713607 -0.010829887)
(0.1444764 -0.016461556 -0.01076651)
(0.15647025 -0.017192531 -0.010677202)
(0.16869907 -0.017840507 -0.010651584)
(0.18109009 -0.018551377 -0.010540553)
(0.19358991 -0.019159672 -0.010469587)
(-9.1147925e-05 0.0004200501 0.00078273481)
(-0.0015516956 0.00057954524 0.00067389429)
(-0.0030921966 0.00082870675 0.00051493994)
(-0.0051374818 0.00097777494 0.00024403275)
(-0.0073249317 0.0011394962 -0.00020331311)
(-0.0096731021 0.001133573 -0.00061506179)
(-0.012117279 0.0011276489 -0.0011338096)
(-0.014558753 0.0009658325 -0.0016550374)
(-0.016964168 0.0007732806 -0.0022218001)
(-0.019253655 0.00046609607 -0.0028069362)
(-0.021402748 0.00011026648 -0.0034089458)
(-0.023321341 -0.00035796038 -0.0040185663)
(-0.024978042 -0.0008462467 -0.0046575849)
(-0.026315798 -0.0014261555 -0.0052841543)
(-0.027306136 -0.0020283924 -0.0059166272)
(-0.027893997 -0.0027003458 -0.0065406071)
(-0.02805269 -0.0033899006 -0.0071536833)
(-0.0277459 -0.0041302318 -0.0077443618)
(-0.026948977 -0.0048889132 -0.0083086432)
(-0.025637113 -0.0056816084 -0.0088444097)
(-0.023802158 -0.0065083435 -0.0093436014)
(-0.021393513 -0.0072986526 -0.0097855745)
(-0.018472283 -0.0081728163 -0.010220884)
(-0.014954612 -0.0090900076 -0.010573342)
(-0.010907333 -0.0099784312 -0.010891193)
(-0.0062878407 -0.010909383 -0.011169636)
(-0.0011160574 -0.011825554 -0.01139346)
(0.0045877461 -0.012771957 -0.011566574)
(0.010819968 -0.013719595 -0.01170098)
(0.017576974 -0.014695729 -0.011789713)
(0.024830384 -0.015683118 -0.011839502)
(0.032572592 -0.016687021 -0.011854077)
(0.040778236 -0.017696404 -0.011842425)
(0.049437464 -0.018733104 -0.011798141)
(0.05852184 -0.019749125 -0.011745763)
(0.068012183 -0.020797781 -0.011664681)
(0.07790377 -0.021828601 -0.01157458)
(0.08813588 -0.022846783 -0.011486637)
(0.098750224 -0.023888409 -0.011367691)
(0.10965336 -0.024890935 -0.011268503)
(0.12085664 -0.025852392 -0.011155271)
(0.13236744 -0.026780778 -0.011052356)
(0.14407848 -0.027736869 -0.01090817)
(0.15606419 -0.028545304 -0.010812207)
(0.16820037 -0.029356718 -0.010663827)
(0.18054074 -0.03009301 -0.010476619)
(0.19299432 -0.030664777 -0.010276194)
(-0.00014456294 0.0007604225 0.0012345822)
(-0.0016957206 0.0010742187 0.0011623464)
(-0.0032045834 0.0016084099 0.0010593784)
(-0.0052663847 0.0019930419 0.00063756151)
(-0.0073668016 0.0022539128 0.00019583724)
(-0.0097233664 0.002419621 -0.00034477792)
(-0.012100409 0.0024265965 -0.00092254296)
(-0.014513904 0.002315793 -0.0015404607)
(-0.016881894 0.002060138 -0.0021791603)
(-0.019139189 0.0016781161 -0.0028509579)
(-0.021253954 0.0011757947 -0.0035305827)
(-0.023129564 0.00054672373 -0.0042356286)
(-0.024759905 -0.00018565624 -0.0049366479)
(-0.026066334 -0.0010213308 -0.0056359068)
(-0.027041075 -0.0019425209 -0.0063364295)
(-0.027600568 -0.0029485448 -0.0070143461)
(-0.027751293 -0.00402054 -0.0076822394)
(-0.027423254 -0.0051603479 -0.0083101082)
(-0.02662422 -0.0063542809 -0.0089200036)
(-0.025306392 -0.007595062 -0.0094800513)
(-0.023460912 -0.008873713 -0.010006319)
(-0.02109815 -0.010190517 -0.010478135)
(-0.018138211 -0.011529431 -0.010904864)
(-0.014656719 -0.012915127 -0.011269025)
(-0.010615534 -0.014304222 -0.011602398)
(-0.006022331 -0.015710897 -0.011869208)
(-0.0008833384 -0.017138738 -0.012067303)
(0.0047949959 -0.018555648 -0.01223912)
(0.011012385 -0.019992251 -0.012350431)
(0.017738863 -0.021434983 -0.01241629)
(0.024963253 -0.022880086 -0.012442379)
(0.03267319 -0.024322943 -0.012430624)
(0.040844797 -0.025771866 -0.012384741)
(0.049465419 -0.027197249 -0.012318211)
(0.058509377 -0.028630864 -0.012220179)
(0.067966164 -0.030034445 -0.012110663)
(0.077797884 -0.03141563 -0.011993407)
(0.088021064 -0.03278298 -0.01184326)
(0.098558975 -0.034100327 -0.011716769)
(0.10943491 -0.035390695 -0.011561933)
(0.12059975 -0.03661016 -0.011412337)
(0.13205639 -0.037799386 -0.011243373)
(0.14372776 -0.038916314 -0.011076795)
(0.1556568 -0.039915298 -0.010928424)
(0.16771589 -0.040916997 -0.010699629)
(0.18000394 -0.041723541 -0.010538741)
(0.19236148 -0.042407799 -0.010262897)
(0 0 0)
(0 0 0)
(0 0 0)
(0 0 0)
(0 0 0)
(0 0 0)
(0 0 0)
(0 0 0)
(0 0 0)
(0 0 0)
(0 0 0)
(0 0 0)
(0 0 0)
(0 0 0)
(0 0 0)
(0 0 0)
(0 0 0)
(0 0 0)
(0 0 0)
(0 0 0)
(0 0 0)
(0 0 0)
(0 0 0)
(0 0 0)
(0 0 0)
(0 0 0)
(0 0 0)
(0 0 0)
(0 0 0)
(0 0 0)
(0 0 0)
(0 0 0)
(0 0 0)
(0 0 0)
(0 0 0)
(0 0 0)
(0 0 0)
(0 0 0)
(0 0 0)
(0 0 0)
(0 0 0)
(0 0 0)
(0 0 0)
(0 0 0)
(0 0 0)
(0 0 0)
(0 0 0)
(0 0 0)
(0 0 0)
(-0.0011507501 0.00060008324 0.0011192514)
(-0.0013728033 0.00080203991 0.00079735084)
(-0.0016422263 0.00085114238 0.00047377997)
(-0.001772968 0.00092469025 0.00018903684)
(-0.0017946995 0.00088840908 -8.9088215e-05)
(-0.0018156701 0.00095934453 -0.00041351463)
(-0.0016470775 0.00077222321 -0.00086971086)
(-0.0027293868 0.002785288 0.0013674519)
(-0.0030954634 0.0031626682 0.00077982225)
(-0.0032801151 0.0030106655 0.00041642811)
(-0.0033749597 0.0029719911 7.2319696e-05)
(-0.0035275453 0.0032577589 -0.00026348433)
(-0.003418501 0.0033362043 -0.00072045311)
(-0.0033546772 0.0034860543 -0.0013872759)
(-0.0039729154 0.0033267482 0.0012197891)
(-0.0044014327 0.0032757027 0.00091523338)
(-0.0047294565 0.003567628 0.00039256946)
(-0.0048385344 0.0036710306 3.6120535e-05)
(-0.0049041077 0.0036929401 -0.00040485586)
(-0.0048838296 0.0038456866 -0.00072705861)
(-0.0047996533 0.0042427837 -0.0014122405)
(-0.0059927528 0.0043568123 0.00078501375)
(-0.0062935536 0.0045955903 0.00052687684)
(-0.0065175502 0.0047020649 0.00013138487)
(-0.0066643399 0.0048347452 -0.00012432704)
(-0.0067827434 0.0050304039 -0.000469046)
(-0.0067903726 0.0053236272 -0.00093529756)
(-0.0066464678 0.0053540139 -0.0012498352)
(-0.0078940275 0.0048184106 0.00038204314)
(-0.0082104187 0.0050108049 0.00022636037)
(-0.0084884477 0.0052715975 -7.047865e-05)
(-0.0086174213 0.0054477386 -0.00033478523)
(-0.0087455068 0.0056529396 -0.00059079633)
(-0.0087774755 0.0058586715 -0.00087618166)
(-0.0087837827 0.0061433699 -0.0012395642)
(-0.010111731 0.0051745845 -0.00019224224)
(-0.010310547 0.0054157444 -0.00028346995)
(-0.010518526 0.0056606848 -0.00043943374)
(-0.010678175 0.0059229697 -0.00058841765)
(-0.010783838 0.0061593274 -0.00076620416)
(-0.010898946 0.006433344 -0.00098746907)
(-0.010898663 0.0066294783 -0.0011620094)
(-0.01231462 0.0052501226 -0.00075955922)
(-0.012496021 0.0055694131 -0.000766234)
(-0.01268369 0.0059056265 -0.00084938964)
(-0.012816403 0.0061664865 -0.00087727771)
(-0.012972377 0.0064615134 -0.00099118693)
(-0.013084805 0.0067277181 -0.0010670916)
(-0.013212105 0.0070378942 -0.0011544076)
(-0.014562373 0.0051637351 -0.0013821189)
(-0.0146821 0.0055154688 -0.0012949536)
(-0.014824542 0.0058491843 -0.0012404254)
(-0.014967765 0.0061790779 -0.0012091776)
(-0.015125203 0.006465406 -0.0011938078)
(-0.015271583 0.0067718664 -0.0012058685)
(-0.015448011 0.0070423276 -0.0012011362)
(-0.016770093 0.0048649186 -0.0020333495)
(-0.016841367 0.0052640745 -0.0018708761)
(-0.016936906 0.0056251255 -0.0017492605)
(-0.017072293 0.005971349 -0.0015930827)
(-0.017250846 0.0063528839 -0.0014762981)
(-0.017448577 0.0066446215 -0.0013825658)
(-0.017677352 0.0070028813 -0.0012698036)
(-0.018856506 0.0043667047 -0.0027076406)
(-0.018873184 0.0047881127 -0.0024428816)
(-0.018956444 0.0051864217 -0.0022334119)
(-0.019068675 0.005556922 -0.0020150616)
(-0.019254607 0.0059047697 -0.0018204191)
(-0.01949156 0.006248471 -0.0016145787)
(-0.01978399 0.0065988798 -0.0014349503)
(-0.020824054 0.0037068671 -0.0033947829)
(-0.020789026 0.0041384955 -0.0030875853)
(-0.020824393 0.0045720519 -0.0027709882)
(-0.020936321 0.0049494912 -0.0024496873)
(-0.021138354 0.0053522861 -0.0021523881)
(-0.021405265 0.0057275911 -0.0018801519)
(-0.021711966 0.0060806063 -0.0015768711)
(-0.022551082 0.0028522698 -0.0041166306)
(-0.022448283 0.0032889501 -0.0037062363)
(-0.022455803 0.0037290256 -0.0032950912)
(-0.022561354 0.0041279237 -0.002912134)
(-0.022762945 0.004546962 -0.002528805)
(-0.023052278 0.0049107304 -0.0021767397)
(-0.023466697 0.0053274339 -0.001722359)
(-0.024030885 0.0018545327 -0.004819132)
(-0.023901268 0.0023065565 -0.0043294308)
(-0.02388893 0.002769445 -0.0038749653)
(-0.023988636 0.0032002588 -0.0033926355)
(-0.024197486 0.0036153891 -0.0029320491)
(-0.024556582 0.0040357174 -0.0024901141)
(-0.024974847 0.0044045495 -0.0020001784)
(-0.025205402 0.00067673761 -0.0055291684)
(-0.025033922 0.0011333812 -0.00497878)
(-0.024975044 0.0015941558 -0.0044371974)
(-0.025052168 0.0020029838 -0.0038946817)
(-0.025284332 0.0024443187 -0.0033495761)
(-0.025633772 0.0028358049 -0.0028531284)
(-0.026117243 0.0032677715 -0.0022496428)
(-0.026054465 -0.00061583653 -0.0062358123)
(-0.025850772 -0.00014556689 -0.0056101456)
(-0.025758483 0.0003196169 -0.0050218445)
(-0.025861733 0.00077576142 -0.004399978)
(-0.026072308 0.0012043134 -0.003801817)
(-0.026477669 0.0016403942 -0.0032244004)
(-0.026984931 0.002040021 -0.002567097)
(-0.026508853 -0.0020542435 -0.0069220734)
(-0.026252241 -0.0016041216 -0.006249195)
(-0.026147969 -0.0011291383 -0.0055945446)
(-0.026204433 -0.00071854735 -0.0049225423)
(-0.026443029 -0.00027339549 -0.0042470906)
(-0.026844441 0.00013135382 -0.0036193694)
(-0.027402604 0.00058268303 -0.0028769863)
(-0.026555462 -0.0035914369 -0.0075954584)
(-0.026290935 -0.0031212381 -0.0068641882)
(-0.026135081 -0.0026685144 -0.0061673919)
(-0.026224062 -0.0022165659 -0.0054282862)
(-0.026443583 -0.0017884902 -0.0047151183)
(-0.02688792 -0.0013413101 -0.0040236554)
(-0.027458411 -0.00093720108 -0.0032328273)
(-0.026157494 -0.0052361234 -0.0082340092)
(-0.025832952 -0.0048062634 -0.0074703105)
(-0.025678793 -0.0043434802 -0.0067196865)
(-0.025725103 -0.0039412773 -0.0059433283)
(-0.025966633 -0.003501959 -0.0051701946)
(-0.026404005 -0.0031043547 -0.0044342504)
(-0.02701511 -0.0026555953 -0.0035783148)
(-0.025277811 -0.0069645687 -0.0088517162)
(-0.024958723 -0.0065182452 -0.0080382848)
(-0.024757007 -0.006090538 -0.0072593143)
(-0.024832539 -0.0056578921 -0.0064330174)
(-0.025052446 -0.0052527519 -0.0056269386)
(-0.025526916 -0.0048135362 -0.004846571)
(-0.026142575 -0.0044143069 -0.0039542799)
(-0.023918967 -0.0087649135 -0.0094159458)
(-0.023544569 -0.0083673816 -0.008582035)
(-0.023353048 -0.007936696 -0.00776688)
(-0.023391298 -0.0075584 -0.0069111464)
(-0.023631077 -0.0071400607 -0.0060671339)
(-0.024094775 -0.0067584838 -0.0052525565)
(-0.024740925 -0.0063292105 -0.0043149009)
(-0.022029135 -0.010632182 -0.0099514529)
(-0.02166932 -0.010227787 -0.0090852532)
(-0.021435545 -0.0098437658 -0.0082475241)
(-0.021499411 -0.0094429269 -0.0073636989)