/*--------------------------------*- C++ -*----------------------------------*\
  =========                 |
  \\      /  F ield         | OpenFOAM: The Open Source CFD Toolbox
   \\    /   O peration     | Website:  https://openfoam.org
    \\  /    A nd           | Version:  6
     \\/     M anipulation  |
\*---------------------------------------------------------------------------*/
FoamFile
{
    version     2.0;
    format      ascii;
    class       pointScalarField;
    location    "1.23";
    object      p;
}
// * * * * * * * * * * * * * * * * * * * * * * * * * * * * * * * * * * * * * //

dimensions      [1 -1 -2 0 0 0 0];

internalField   nonuniform List<scalar> 
28033
(
1296195.9
-1891134.7
8925.3833
4838.8861
2407242
-2673315.7
5728.0377
2850.7657
1076813
958698.65
825237.86
665966.05
497251.01
337248.78
170746.63
-11057.002
-191548.28
-358188.09
-556431.58
-660834.69
-895068.22
-1072518
-1064801
-11170.344
-6594.1205
-7836.3982
-4625.4051
-3946.4229
-1269.6523
1105.2397
4000.4808
6492.2589
9326.2017
12024.62
13552.714
15082.984
15747.81
13672.925
340019.91
368374.89
338614.43
362796.18
353463.86
364416.28
365739.96
367023.19
366605.27
368343.92
364555.02
361652.41
360617.14
357452
353145.48
347963.51
346415.03
341008.87
336921.49
332117.72
328512.37
322959.11
320137.36
315017.37
310284.42
306415.25
302133.36
297425.45
293273.63
288827.74
284669.41
279808.74
276073.11
271933.72
266758.48
262803.46
258567.31
255517.7
249861.2
246682.94
241728.88
237468.08
233036.51
229337.39
224846.49
221247.4
217035.52
213505.38
209479.56
206123.6
202277.62
198987.25
195420.57
192115.11
188746.37
185461.54
182172.59
178897.04
175574.26
172293.88
168916.69
165490.9
161948.04
158597.21
154861.41
151335.67
148294.69
144050.71
139321.14
135299.34
130740.24
126451.34
121681.05
117168.62
111949.76
107337.74
101746.71
97003.787
91111.914
86209.479
80275.639
75181.012
69116.202
63294.222
57568.453
51821.269
46516.844
41283.554
35246.707
30714.094
26513.794
20022.457
19397.252
16575.592
13389.671
-329080.42
-275058.23
-329823.87
-295352.14
-338528.09
-331049.63
-342443.2
-335506.13
-344925.52
-336308.49
-341386.85
-334142.44
-334006.68
-330580.52
-327446.74
-323262.29
-319822.83
-314525.11
-311737.85
-306845.18
-302065.09
-299481.51
-292992.76
-291189.8
-285189
-281781.56
-277455.19
-272855.6
-269382.8
-264170.09
-260053.18
-256047.63
-251168.12
-247898.15
-243412.02
-240362.48
-234763.75
-231811.45
-226727.08
-223512.04
-219057.52
-215379.05
-211224.12
-207560.52
-203500.01
-199905.61
-196026.22
-192428.82
-188765.72
-185234.01
-181703.55
-178283.79
-174860.38
-171568.39
-168224.92
-165012.4
-161764.94
-158581.18
-155376.23
-152212.21
-148990.81
-145800.4
-142540.98
-139243.48
-135887.38
-132440.93
-129042.4
-125527.91
-122226.04
-117896.83
-114447.67
-110250.67
-106410.06
-102138.45
-97948.172
-93558.963
-88999.318
-84446.206
-79610.967
-74826.749
-69819.851
-64791.726
-59536.174
-54430.467
-49007.65
-43756.939
-38395.793
-33222.401
-27823.636
-23028.696
-18259.715
-13525.308
-9715.5301
-7232.1916
-3930.9937
1986855
1872095.9
1361282
1371735.9
951886.32
565867.37
354307.03
-33646.445
-324286.97
-702245.54
-963484.92
-1320167.9
-1666871.1
-1942998.7
-2068747.7
-550944.47
-413755.12
-190255.32
-402479
-329843.92
-356958.23
-346210.99
-365470.42
-349067.33
-362497.83
-364914.9
-346529.57
-361075.7
-339903.54
-356651.84
-344355.18
-341876.07
-330166.04
-329860.68
-322739.73
-317463.23
-310263.42
-312817.48
-306782.74
-301740.4
-300014.36
-288856.07
-291915.36
-279762.77
-281201.38
-275804.92
-272295.09
-267056.69
-263666.37
-259889.51
-250013.71
-249648.24
-245573.51
-240939.22
-236582.53
-232178.09
-227887.32
-223629.69
-219358.44
-215236.14
-211239.92
-207139.84
-203259.98
-199344.28
-195636.85
-191944.5
-188396.97
-184895.74
-181505.82
-178150.43
-174796.16
-171572.95
-168245.77
-164979.41
-161690.19
-158323.89
-154953.72
-151480.67
-147938.91
-144306.72
-140540.45
-136953.37
-133493.83
-126715.48
-124542.8
-120374.73
-115846.57
-111304.38
-106688.62
-101859.24
-96995.2
-91951.863
-86957.191
-81720.734
-76471.781
-71024.973
-65655.316
-59993.514
-54580.987
-48901.349
-43458.061
-37816.127
-32585.317
-27163.798
-22234.404
-17474.45
-13070.25
-9971.0697
-6815.544
-5238.2626
16651.003
17699.34
14652.317
15838.633
10813.783
11156.964
6007.6544
4075.8554
470.49978
-2955.9409
-2452.5433
-7576.1724
-5776.2402
-10980.263
-7316.7298
22199.188
18576.46
19786.257
23947.739
27758.753
32975.847
38155.648
43803.884
49226.834
55244.013
60857.916
66351.52
72180.957
77923.651
83552.921
88948.458
94408.846
99513.58
104639.89
109569.42
114337.35
119048.18
123602.08
127927.02
132123.79
136128.38
138252.85
146138.17
147812.32
152033.63
155656.15
159354.31
162831.9
166366.45
169796
173199.32
176623.21
179961.27
183378.17
186762.82
190190.6
193632.39
197167.55
200686.01
204318.95
207986.24
211716.88
215533.36
219376.25
223310.79
227272.96
231263.24
235270.9
239771.99
243323.24
247875.44
251149.83
253075.45
262537.99
263816.16
266074.38
276828.02
276027.42
282413.55
282101.79
294046.61
289174.13
302616.75
302253.9
309646.68
312230.56
313691.48
325262.77
325635.96
327936.12
337305.68
336893.13
345407.71
345710.35
354765.11
362580.91
355948.81
361786.12
368603.06
373231.44
368811.95
376970.42
371754.44
370566.21
363355.11
360789.55
371257.01
363571.25
332654.76
416906.59
924130.95
1003482.7
1061676.1
1103432.5
1127327.4
1158975.6
1160162.8
1174656.4
1160874.7
1135796.1
1153464.9
1079848.4
1043772.4
1094404
874945.59
-1521311.7
-1915738.4
-1900013.8
-2049658.1
-2004463
-1913604
-2199727.1
-2348196.8
-2198074.9
-2206029.9
-2116930.6
-2040544.6
-1915039.8
-1896107.1
-1786818
4091.4962
4052.0327
4910.8013
5457.9254
6701.8094
7372.2107
7676.6012
7787.2699
7662.2205
7233.2275
6718.1269
5658.0509
4948.5507
4499.3297
4752.9116
2332.4151
5036.4687
4337.8285
3476.5822
2437.5315
2077.4424
1449.3676
1449.053
1665.6955
1944.836
3019.2156
3814.3954
4276.0483
7740.3867
2464.7207
332740.58
340642
306720.03
310310.36
317481.5
322595
324770.82
328023.97
329006.76
328330.24
326296.76
327912.17
323145.4
321008.85
316384.49
316534.29
310162.7
307918.41
302703.73
300295.18
295828.59
293230.18
288224.26
284418.63
280219.42
277459.12
272549.53
268955.14
264988.91
261411.65
256612.23
253101.38
249895.13
245443.17
241731
237669.99
233956.93
229125.95
225694.69
222222.84
218598.31
214631.92
211004.55
207135.07
203428.45
199968.11
196215.07
192985.13
189408.7
186226.77
182871.02
179780
176575.38
173542.85
170475.04
167471.59
164464.31
161450.53
158446.2
155403.92
152306.74
149117.96
145988.77
142765.18
139085.65
135835.76
131561.12
128015.53
124385.55
120690.2
116748.91
112774.94
108458.66
104356.6
99772.856
95470.702
90698.929
86262.189
81204.849
76796.742
71654.526
66959.589
62109.509
57603.57
52568.521
47691.416
42972.608
37903.716
33497.243
29551.088
24381.485
20918.693
17777.728
10842.432
5124.8447
309209.06
281831.24
251498.63
262504.58
263806.22
267376.8
269799.95
273282.4
273964.16
275915.23
274459.88
274429.97
271936.53
271603.23
268266.46
265868.2
262476.84
260846.46
256855.33
254236.77
250834.81
246723.91
244006.96
240879.55
237923.22
233885.17
231285.91
228061.36
224675.32
221352.81
218446.64
215206.68
211642.97
208406.46
205232.48
201920.67
198600.66
195536.88
192335.79
189074.54
185658.52
182947.89
179089.34
176229.32
172999.51
170146.75
167052.66
164370.29
161359.19
158786.68
155948.12
153420.79
150732.55
148235.03
145673.42
143176.95
140654.28
138172.02
135625.23
133098.94
130488.98
127867.64
125285.92
122519.37
119745.49
117986.16
115590.56
112789.95
110468.38
106973.78
103608.76
100353.37
96431.867
92897.492
88576.086
85216.297
80423.755
77077.461
72122.745
68664.71
63771.547
59723.785
55450.731
50116.802
45756.9
41364.518
36710.204
33044.198
29015.623
24799.797
21049.339
17490.802
12841.014
7705.9322
407.37407
237968.32
239567.3
207827.61
219706.8
216324.91
222156.94
225035.68
228474.07
228600.06
229751.61
228907.53
229556.75
227334.14
226155.27
223526.81
222689.39
219202.56
217544.24
214069.46
212485.55
209112.47
207323.43
204472.14
202109.47
198616.44
196750.89
193726.99
190855.38
188243.37
185621.65
182720.7
179935.7
177357.19
174686.3
171993.91
169219.85
166808.5
164185.81
161611.88
158864.45
155867.15
153223.42
150881.76
148360.18
145895.04
143383.91
140875.33
138504.31
136086.32
133819.67
131482.12
129324.11
127056.14
124960.13
122783.18
120673.57
118553.97
116446.23
114282.38
112144.17
109932.59
107686.28
105432.5
102894.07
100753.01
98736.099
96961.113
94415.246
92218.135
90030.692
87368.575
84327.614
81072.685
77940.255
74719.416
71328.945
68080.27
64462.999
61147.931
57485.007
53864.569
50564.672
46426.867
43209.635
39933.238
35951.803
32095.672
29039.854
25371.09
22129.043
18997.426
14600.648
11549.816
4856.9079
1294.3385
193381.53
191535.21
160084.85
172406.24
166353.13
173389
174438.47
177521.87
177397.13
180307.52
179283.25
180441.96
177861.34
179033.45
176072.95
175956.25
172758.31
172810.99
169527.17
168578.58
165670.44
164181.84
161672.06
159573.24
157825.93
155651.76
153571.78
151786.4
149681.81
147479.53
145631.88
143384.37
141388.83
139029.84
137435.25
134560.77
132941.05
129807.52
127611.38
125262.03
123796.84
121627.35
119430.5
117209.96
115236.36
113276.76
111335.21
109551.48
107692.32
105972.62
104197.54
102568.15
100844.46
99274.147
97598.257
96037.408
94397.343
92814.873
91150.285
89536.93
87847.608
86126.599
84355.081
82621.368
80792.57
78822.915
77391.526
74991.044
72439.08
70504.688
68383.114
65745.534
63727.902
61250.53
58626.047
56033.698
53367.968
50770.098
47961.254
45291.934
42508.711
39823.493
36849.077
33839.759
30909.784
28938.617
26089.212
23482.743
20713.574
18210.15
15023.51
12284.426
8766.4606
4560.0873
-123.6667
153336
140402.12
117684.48
128434.57
126179.75
129919.93
131984.43
133794.91
133847.53
135292.31
134919.74
134686.81
134273.07
133810.89
132005.91
131950.61
129285.4
129362.66
126439.76
126413.49
124015.17
123642.25
121114.56
120859.71
118542.28
117513.83
115743.31
114313.5
112557.02
111329.6
109589.47
108118.26
106501.33
105200.41
103480.05
101916.77
102026.35
101995.1
100596.17
101758.5
99114.614
97738.699
96436.73
94973.577
93527.085
92016.612
90475.43
89021.195
87573.473
86147.733
84751.966
83436.049
82060.414
80785.088
79463.948
78194.126
76890.695
75605.784
74286.735
72963.113
71624.178
70132.717
68843.565
67314.869
65551.853
64435.888
62513.971
60933.702
58988.303
57182.797
55346.615
52718.887
49745.802
47475.362
45070.305
42980.767
41051.622
38973.498
36940.936
35007.512
32737.503
30977.809
28617.72
26975.07
24646.736
23079.965
20574.317
18919.083
16529.252
14499.56
12315.849
9989.4346
7805.2795
3845.7605
817.48413
94355.548
95504.203
74398.703
85976.151
80339.403
83628.415
84782.985
86940.797
85754.099
88800.501
86770.989
88798.696
86573.078
87985.216
85735.625
86684.991
84446.812
85636.058
82692.16
83711.963
81196.469
81239.389
79619.313
79391.473
77798.431
77532.422
76299.948
75679.093
74768.414
73761.465
72887.193
71815.129
71070.257
69809.577
68914.585
68158.676
67937.933
67951.921
68431.501
68025.301
68421.56
67189.352
66033.397
65082.029
64044.197
63020.379
61984.619
61069.481
60087.793
59202.684
58299.94
57469.373
56583.818
55790.596
54958.139
54137.71
53325.248
52505.198
51651.841
50796.513
49895.565
49024.957
48026.483
47011.804
46172.622
44829.967
44010.737
42804.493
41595.162
40431.742
38953.58
37246.257
35923.155
33719.044
31616.697
30331.697
28838.729
27505.201
26053.662
24868.001
23125.667
22229.937
20285.725
19476.854
17528.604
16807.255
14833.676
14116.995
12295.508
11498.61
9955.8193
8332.7494
6692.1347
3832.5375
2241.8134
49618.422
43630.93
37474.199
43348.689
39307.029
40900.49
42635.756
42696.248
42477.075
42656.236
43279.2
42295.329
42727.988
42820.75
41639.98
42588.067
40903.388
41793.832
40042.075
41659.776
39470.567
41146.825
39332.227
40331.739
38977.31
39614.063
38408.715
38780.38
37767.224
37887.003
37218.966
37105.953
36437.128
36180.866
35753.548
35285.554
34779.688
34808.532
33818.899
32657.326
32516.246
32139.296
31471.935
31298.861
30866.257
30556.136
30073.036
29829.065
29379.528
29113.459
28747.301
28477.471
28127.559
27893.396
27557.118
27286.467
26977.37
26688.395
26323.154
26010.673
25636.382
25213.393
24799.429
24405.201
23782.134
23409.127
22779.679
22157.386
21577.265
20921.467
20237.329
19582.494
18497.45
18396.99
17782.788
17164.706
16282.511
15554.227
14833.442
14056.83
13300.959
12724.995
11725.073
11485.635
10295.102
10256.352
9068.7697
9115.1686
8016.1128
7734.0355
6610.7662
5894.4802
5495.5124
4106.5087
3788.7252
-8832.5236
-2924.6548
-8045.8358
-2030.2886
-4240.867
-2305.1963
-2942.7764
-1721.3163
-4563.784
-1547.8528
-4014.7908
-2498.2246
-3576.6563
-2636.9737
-3669.9297
-2004.4193
-3704.0043
-1338.6377
-3093.0505
-1247.2052
-2486.0536
-664.18004
-2172.8905
-457.7023
-1313.3007
-146.92792
-422.63562
284.15629
251.27746
662.16454
786.2977
848.33506
1144.8101
1257.0963
1435.8561
1360.5946
1983.9575
1711.6362
2223.5676
1857.596
2128.5748
2327.2581
2201.9511
2250.8004
2383.9689
2372.5822
2461.682
2624.9928
2707.4679
2858.7048
2990.8256
3166.9096
3298.5094
3485.4049
3634.3558
3798.1766
3955.9346
4111.138
4219.1169
4390.2058
4439.0206
4567.8556
4646.1034
4659.5007
4763.5527
4737.4847
4759.1186
4781.7161
4727.6646
4737.0584
4577.0847
4424.7246
4221.5456
4341.8647
4331.6291
4299.22
4093.6529
4128.8709
3976.849
4003.0364
3973.9375
3861.1751
4019.4497
3902.722
3943.7521
4158.7434
3845.3921
4492.9112
3839.3227
4738.2862
4492.6585
5238.0003
5314.1398
4773.4141
5570.3952
-52579.274
-51741.914
-43976.424
-42004.654
-42237.456
-44369.261
-43741.446
-45829.861
-45627.047
-47261.424
-46312.731
-47496.206
-46965.953
-46479.283
-46524
-45684.143
-45914.771
-43986.305
-45526.546
-42411.84
-43750.881
-41411.366
-42188.746
-39613.385
-40457.159
-38007.757
-38689.541
-36610.369
-36818.317
-35225.175
-35145.68
-33875.773
-33456.704
-32573.431
-32081.258
-31120.898
-30813.922
-29919.417
-29338.38
-28600.229
-28079.315
-27317.172
-26884.675
-26057.376
-25482.292
-24824.973
-24263.314
-23533.98
-22992.633
-22327.651
-21714.65
-21048.061
-20475.425
-19802.556
-19207.154
-18592.99
-17992.149
-17388.551
-16833.14
-16253.547
-15710.584
-15176.636
-14687.34
-14146.322
-13742.607
-13230.877
-12769.578
-12340.079
-11872.072
-11409.04
-10998.324
-10409.361
-10050.504
-9518.8513
-9403.4819
-9183.3861
-8515.3905
-8096.6071
-7462.7678
-6935.4401
-6302.0324
-5716.2658
-5006.545
-4329.3643
-3712.2529
-2618.2516
-2331.508
-679.0567
-665.14502
1185.0416
1296.5755
2419.3432
3081.3631
4631.0423
6846.5073
-107028.1
-103386.27
-86107.677
-86645.083
-88673.817
-89295.352
-91470.631
-91083.536
-94931.65
-93520.637
-94798.101
-94889.339
-94519.571
-93472.9
-93957.941
-91563.684
-91693.339
-89535.826
-89191.629
-86600.238
-86896.398
-82539.123
-82258.003
-79428.005
-79219.572
-76881.613
-76224.581
-74111.322
-73172.173
-71549.289
-70441.1
-68943.152
-67891.258
-66547.956
-65148.934
-64219.465
-62683.585
-61762.61
-60375.727
-59420.304
-58235.348
-57149.015
-55973.171
-54984.382
-53826.953
-52778.476
-51685.599
-50553.924
-49521.158
-48423.335
-47337.216
-46278.364
-45240.672
-44157.268
-43133.476
-42108.059
-41071.59
-40054.138
-39082.29
-38031.814
-37076.221
-36087.514
-35081.657
-34126.462
-33158.397
-32138.936
-31172.988
-30203.573
-29183.541
-28207.029
-27163.454
-26144.168
-25080.878
-23471.971
-21164.148
-19927.542
-18857.32
-17766.198
-16414.947
-15657.919
-13886.7
-13367.53
-11405.298
-10756.048
-9014.7127
-7802.6527
-6616.3572
-4567.108
-4014.7505
-1326.0764
-767.41664
1280.8234
3103.2517
5340.4102
7617.889
-162486.11
-129022.45
-115575.28
-117958.64
-121007.49
-122177.96
-124995.92
-127095.27
-129268.94
-129876.75
-130402.28
-130914.99
-130017.46
-129370.66
-128867.92
-126144.34
-126935.71
-123078.23
-123547.29
-120899.19
-121413.27
-121084.55
-121001.26
-118816.7
-119064.69
-115257
-115190.1
-111480.46
-110936.52
-107878.43
-106799.84
-104394.2
-103094.94
-100807.72
-99372.251
-97298.166
-95801.543
-93897.807
-92299.549
-90503.271
-88934.828
-87081.059
-85556.854
-83809.599
-82198.758
-80505.009
-78961.623
-77279.468
-75746.473
-74114.789
-72572.272
-70993.125
-69474.648
-67911.426
-66418.222
-64908.554
-63413.942
-61943.186
-60475.402
-59004.925
-57569.978
-56092.261
-54671.707
-53205.872
-51824.207
-50348.538
-48911.702
-47406.84
-45915.251
-44355.786
-42803.782
-41313.177
-39555.309
-37793.491
-36098.415
-33977.702
-31377.876
-29599.513
-27697.643
-25843.39
-24138.418
-22099.606
-20327.365
-18310.015
-16303.345
-14444.124
-12177.166
-10393.629
-8024.26
-5889.4812
-3746.9042
-922.47716
1685.3513
4805.0776
10148.771
-194205.9
-181320.72
-164396.15
-160052.75
-164006.37
-164613.71
-170168.01
-171297.36
-173833.34
-174874.5
-176189.95
-174831.74
-175635.58
-173186.13
-172675.03
-170544.03
-168910.89
-166076.61
-165393.2
-161360.35
-161483.85
-157587.88
-159651.62
-157727.69
-156285.21
-153507.19
-151708.52
-148609.36
-146575.57
-143507.78
-141670.89
-138685.71
-136699.3
-134220.99
-131815.73
-129695.97
-127202.32
-125039.73
-122664.74
-120545.74
-118175.66
-116123.14
-113888.81
-111803.05
-109656.63
-107551.88
-105519.95
-103413.23
-101394.99
-99393.162
-97397.347
-95428.232
-93502.513
-91567.112
-89673.308
-87795.371
-85925.356
-84058.123
-82230.498
-80370.694
-78512.043
-76675.696
-74779.729
-72892.15
-71020.736
-69075.346
-67114.964
-65192.122
-63155.181
-61068.893
-59063.166
-56809.957
-54628.577
-52419.018
-50103.459
-48427.424
-45743.271
-43208.059
-40575.081
-38023.887
-35273.691
-32601.421
-29769.061
-27008.087
-24051.43
-21398.353
-18157.204
-15709.41
-12512.892
-9623.5837
-7108.5885
-2991.799
263.65768
5665.2076
11427.114
-269643.93
-240999.16
-202919.28
-214583.9
-211889.76
-220551.71
-221651.48
-226156.89
-227251.08
-229440.84
-228732.24
-229892.98
-227457.95
-227089.85
-224279.85
-222111.98
-219820.6
-216193.04
-214518.28
-210455.66
-208889.69
-204792
-202551.23
-197405.05
-195957.72
-191276.09
-190322.66
-185347.86
-183791.47
-179585.23
-177487.33
-173535.23
-171533.23
-168047.31
-165588.16
-162510.5
-159732.31
-156848.19
-154200.49
-151278.4
-148695.3
-145883.59
-143220.45
-140499.49
-137878.7
-135214.42
-132686.25
-130044.68
-127571.27
-125049.88
-122576.69
-120124.38
-117728.51
-115314.53
-112956.83
-110611.67
-108267.79
-105954.57
-103653.48
-101320.76
-99031.6
-96696.199
-94351.384
-91976.82
-89606.118
-87190.095
-84764.392
-82287.651
-79750.219
-77119.63
-74459.962
-71765.666
-68987.347
-66140.625
-63134.236
-60319
-57238.624
-54179.298
-50934.058
-47684.058
-44399.163
-41027.476
-37625.267
-34203.508
-30770.457
-27269.888
-23815.697
-20515.359
-16675.531
-13796.181
-9608.0369
-6138.9012
-2076.3706
3142.1931
9361.4144
-294323.3
-278789.56
-233128.33
-253938.28
-255891.89
-263640.08
-265912.25
-271281.82
-272963.38
-273194.27
-275274.88
-272836.94
-272478.86
-270220.72
-267044.85
-264528.82
-261431.47
-256863.06
-254999.81
-250004.96
-246999.3
-243216.05
-240171.63
-237124.77
-233616.57
-229840.83
-226425.55
-222340.08
-219700.44
-215367.55
-212344.85
-208406.63
-204943.12
-201333.53
-197983.6
-194883.15
-191329.73
-188257.39
-184693.41
-181558.42
-178216.72
-174993.05
-171808.29
-168628.44
-165526.15
-162408.65
-159353.15
-156323.27
-153347.83
-150402.85
-147495.64
-144641.58
-141825.98
-139036.66
-136286.82
-133566.6
-130862.49
-128176.65
-125492.02
-122822.01
-120123.85
-117433.32
-114690.12
-111920.44
-109049.09
-106171.82
-103118.73
-100314.85
-97349.952
-94151.945
-91135.17
-87835.887
-84448.992
-81121.89
-77506.724
-73938.926
-70184.065
-66418.816
-62520.787
-58634.883
-54576.862
-50519.203
-46334.26
-42198.093
-37853.627
-33714.583
-29380.181
-25184.802
-20879.055
-17129.687
-12172.77
-9138.9809
-3989.8826
1188.9201
8526.1113
-409134.3
-269882.17
-289457.14
-292175.26
-304722.53
-301919.46
-311588.04
-313931.51
-314585.26
-316267.3
-315301.77
-315711.29
-312284.55
-309685.53
-306549.95
-302943.38
-300946.01
-294691.71
-293259.49
-286142.88
-283707.82
-277939.04
-276498.58
-270643.55
-269640.98
-262408.34
-260774.7
-254203.24
-253022.33
-247073.63
-244479.3
-239525.95
-235882.73
-231287.79
-227067.01
-224104.04
-220288.23
-216498.14
-212625.87
-208952.41
-205123.58
-201458.66
-197752.32
-194073.47
-190507.55
-186882.87
-183420.46
-179944.76
-176535.65
-173188.83
-169879.24
-166628.34
-163426.64
-160245.42
-157127.31
-154028.36
-150944.5
-147882.06
-144836.55
-141761.14
-138698.67
-135614.33
-132489.95
-129329.63
-126109.03
-122725.11
-119191.75
-115709.06
-112528.86
-108979.27
-105440.99
-101510.28
-97784.609
-93805.554
-89722.333
-85589.369
-81441.905
-77013.756
-72629.707
-68018.527
-63381.829
-58613.252
-53851.954
-48898.517
-44053.035
-39157.15
-34170.982
-29464.78
-24708.738
-20259.306
-15659.334
-12563.168
-7684.8009
-3630.3936
3730.0398
732037.67
715834.09
698593.67
718658.04
721794.52
727823.37
751828.18
737225.72
730261.49
729529.46
724308.79
700129.78
695035.67
731336.14
624933.92
659817.03
675048.5
644047.09
661606.26
667494.09
680053.53
662181.01
686582.13
679717.4
684913.26
671379.32
667978.82
667797.42
675194.05
583553.99
501879.29
564156.34
504079.24
527247.8
526379.78
522392.84
528306.08
524004.78
528713.71
520801.38
519844.12
523258.4
490194.92
539797.88
501217.02
433653.68
435592.26
436016.83
430031.47
443395.51
439711.96
446958.43
446566.3
443269.02
445171.78
445379.73
430946.58
433423.28
463471.16
336963.99
309183.17
346521.26
306866.82
330280.64
320028.71
331985.41
327949.42
327813.78
329260.02
329283.15
324520.83
324628.7
322167.24
331252.48
298918.89
228479.6
234387.97
222125.3
228099.02
229355.46
229989.81
228215.55
229150.72
230759.97
229598.05
223322.1
233072.83
219064.48
233472.98
223573.64
118469.55
119602.17
122506.15
116030.57
123137.72
123622.05
121715.41
121982.49
120440.63
121935.4
119162.94
113922.05
123495.53
114766.86
119688.7
12504.95
10016.445
5271.5361
12125.554
7758.4312
9981.5649
7917.9747
9138.9387
6407.0284
13108.722
-1950.0839
12915.002
20458.218
-6643.3886
52656.763
-84665.902
-96229.053
-80780.545
-91353.069
-86756.924
-88534.66
-89214.05
-88633.887
-91560.892
-84604.062
-97851.002
-83581.454
-84129.321
-109982.95
-14033.226
-175481.44
-213614.59
-189845.3
-197117.39
-197464.69
-199544.52
-203067.69
-201725.83
-208184
-196361.68
-221855.21
-192852.89
-190945.01
-234040.21
-117453.58
-282226.75
-346199.3
-287919.66
-322885.82
-305251.64
-316233.26
-312265.73
-313363.85
-315535.9
-302494.48
-312361.16
-305686.59
-287901.73
-326282.08
-192188.33
-414864.42
-393814.43
-398690.04
-386267.66
-404923.55
-404336.41
-408937.99
-412333.44
-414432.99
-409580.08
-430269.56
-380633.46
-399494.69
-445577.96
-295150.22
-472022.5
-533591.75
-465184.36
-492278.3
-468780.52
-486714.25
-480690
-480981.26
-477938.28
-472785.04
-480274.62
-482426.5
-441202.58
-532987.04
-266263.8
-577547.62
-693544.65
-602721.46
-652044.15
-669928.88
-664218.91
-669432.38
-701777.45
-684982.37
-703723.89
-661798.76
-647723
-661528.61
-648297.67
-583736.16
-630723.53
-560584.21
-505059.01
-509496.05
-530234.25
-570036.35
-544506.66
-525863.69
-504259.97
-500803.64
-511622.34
-515175.15
-515600.2
-576489.72
-515508.91
-570591.05
-534358.7
-634321.27
-669906.12
-695141.75
-758074.96
-728732.02
-681633.51
-775065.58
-758753.95
-733859.27
-695019.24
-665979.95
-632673.12
-530563.74
-403685.52
-406037.01
-456975.19
-470053.23
-489278.98
-506625.28
-520425.92
-535887.7
-553096.57
-525585.5
-514571.67
-482596.95
-485741.85
-479860.77
-484987.83
-335399.25
-385918.36
-377131.56
-413115.86
-439423.91
-425959.57
-447856.58
-443666.15
-430321.34
-449336.2
-431693.59
-437699.07
-423180.98
-375168.51
-391407.36
-339026.51
-385688.22
-390717.23
-400448.35
-412067.47
-420586.89
-424601.54
-428274.7
-427861.35
-417904.22
-418156.5
-407658.72
-391157.04
-384402.16
-362256.45
-364308.42
-400206
-390324.31
-419108.74
-424044.34
-432718.22
-441808.38
-440355.99
-443779.89
-442732.09
-431151.88
-422445.99
-404183.66
-387072.41
-382328.21
-354520.89
-370326.19
-378952.46
-394157.77
-400588.32
-411601.63
-411141.29
-413510.69
-414097.41
-407290.27
-404759.47
-396716.39
-384202.03
-374913.89
-355390.88
-353455.96
-380163.27
-380892.76
-396753.41
-399537.97
-408601.75
-411835.31
-413257.08
-413598.23
-409296.08
-401523.66
-396569.48
-385586.83
-370300.2
-372483.7
-358267.04
-364800.54
-375783.83
-379952.65
-392233.38
-393605.52
-398268.19
-399746.16
-398805.11
-395819.28
-391588.5
-384264.1
-377390.31
-365348.83
-356962.01
-350966.15
-367958.26
-370192.15
-381517.77
-381852.98
-391547.89
-389353.29
-393019.55
-392257.85
-387435.38
-384409.23
-378588.74
-372591.14
-364841.79
-358979.76
-353876.95
-356879.01
-364140.15
-365992.98
-372832.53
-373995.56
-378101.82
-377990.88
-376897.16
-377607.58
-372888
-370449.27
-365128.66
-358681.54
-355601.98
-346578.55
-356811.51
-358541.48
-366522.62
-368033.7
-373785.37
-372954.3
-376483.79
-375883.81
-373472.37
-372711.35
-369738.6
-364414.67
-361277.83
-357805.57
-348178.44
-348382.08
-353873.98
-355414.61
-359055.26
-359388.86
-363109.22
-363671.34
-364753.86
-364017.11
-362739.03
-360188.29
-358393.43
-353986.62
-352798.82
-344187.92
-346435.41
-347467.46
-352119.45
-353284.29
-357733.75
-357508.64
-359949.21
-359781.74
-359553.57
-357143.78
-357616.54
-352598.49
-352513.32
-350002.71
-339607.85
-339884.15
-344623.38
-344529.31
-347633.22
-347745.55
-349222.75
-350718.2
-351447.65
-350359.66
-350651.21
-349533.6
-348084.4
-346566.69
-346332.06
-336093.21
-336440.71
-338934.91
-340585.59
-343035.89
-343416.71
-345696.26
-345873.2
-347313.41
-347870.56
-346554.31
-347006.68
-342584.27
-344870.28
-343383.77
-330936.94
-331356.65
-335207.07
-334226.18
-336569.6
-336208.27
-340322.41
-337701.21
-338227.67
-337989.1
-337734.46
-337897.39
-334069.14
-335182.85
-333293.92
-328355.32
-326920.71
-329967.65
-328597.09
-332313.69
-332847.61
-333523.33
-334945.1
-335262.31
-336313.98
-335156
-336531.79
-335416.7
-334020.48
-336818.86
-323633.25
-323182.32
-325140.07
-324586.17
-326495.32
-326720.98
-328686.42
-327620.53
-328582.81
-328153.35
-327941.74
-327702.38
-328793.9
-325440.64
-326705.31
-318508.55
-318373.23
-320747.51
-321223.24
-322537.88
-322099.66
-322231.42
-324239.9
-323874.73
-325319.07
-322836.46
-326267.86
-323744.42
-327656.41
-325717.16
-314323.25
-314179.73
-315440.11
-315185.46
-317050.35
-317087.26
-319526.67
-317973.3
-319762.97
-318471.46
-318605.49
-319332.73
-317954.95
-319059.35
-317969.32
-311017.51
-309699.14
-312139.84
-310800.38
-312475.78
-311827.15
-313617.61
-314792.53
-313861.74
-315284.69
-315174.66
-316923.22
-315695.06
-317418.05
-316551.9
-303348.65
-305883.63
-305808.42
-306718.36
-307853.55
-307657.1
-309259.64
-308558.94
-310233.71
-309702.57
-309930.54
-310921.44
-309118.94
-309084.48
-311062.26
-302568.31
-300425.7
-302358.56
-302246.79
-303397.45
-303636.04
-304872.8
-304724.2
-304741.74
-306228.02
-305318.13
-306564.84
-304524.19
-307832.6
-306339.12
-295478.76
-296228.23
-296920.67
-298074.09
-298561.46
-298725.94
-300365.85
-299538.48
-301205.6
-300789.14
-300331.76
-302445.64
-301172.17
-301795.33
-301698.09
-292722.48
-292365.61
-293339
-292972.18
-294350.22
-294083.68
-295782.94
-295690.28
-296039.98
-297046.67
-295216.12
-297564.58
-296236.69
-297501.1
-297652.17
-288085.74
-286402.88
-288903.29
-287875.45
-289637.73
-289717.69
-291066.24
-290621.64
-291838.83
-292052.54
-293002.77
-293252.59
-291471.61
-294032.84
-292456.09
-283546.03
-282115.95
-283927.21
-284118.77
-285244.91
-286047.7
-286668.96
-287115.08
-287303.73
-287857.44
-287244.64
-289402.4
-286949.74
-288591.07
-289683.9
-279569.49
-277499.27
-279118.98
-279557.44
-281129.91
-281203.09
-282044.89
-282106.92
-283384.25
-283159.67
-283653.61
-284009.78
-282999.45
-285532.68
-283592.89
-274180.35
-274027.18
-275942.56
-275275.97
-276693.46
-276941.22
-277898.71
-278253.41
-278653.17
-279299.08
-278580.16
-280233.61
-278770.05
-279810.42
-280882.96
-271384.73
-268505.55
-270989.12
-270779.25
-272704.97
-272062.27
-273395.85
-273639.01
-274490.17
-274468.26
-274290.08
-275767.86
-274231.52
-276164.98
-276002.19
-266339.15
-265075.46
-266715.2
-266937.99
-267928.75
-269066.92
-269339.39
-269498.25
-269496.55
-270689.95
-270197.37
-271641.64
-270035.07
-271335
-271454.84
-262563.67
-260113.9
-262591.47
-262206.69
-263618.58
-264254.04
-264624.17
-264993.47
-265276.72
-265961.15
-265573.29
-267105.71
-265709.53
-267421.24
-267205.16
-258197.67
-256253.71
-258153.08
-258185.31
-259648.04
-259900.25
-260588.07
-260825.37
-261403.1
-261907.79
-261604.73
-262857.38
-261618.26
-262939.34
-262586.3
-253716.44
-251823.97
-253874.18
-253814.56
-255018.47
-255418.24
-256163.18
-256462.48
-256838.4
-257404.07
-256955.77
-258488.92
-257244.84
-258729.13
-258630.76
-248996.68
-247920.02
-249691.27
-249427.35
-250837.04
-251391.02
-251871.63
-252394.89
-252600.78
-253339.44
-252852.61
-254196.18
-252838.69
-254371.8
-253527.94
-244090.54
-244231.69
-244879.44
-246354.73
-246172.09
-247077.36
-247460.21
-247765.77
-248220.92
-248760.68
-248477.5
-249665.65
-248960.69
-249729.45
-250832.28
-241576.85
-239219.43
-241098.56
-241052.99
-242672.41
-242473.88
-243618.73
-243511.03
-244252.71
-244162.01
-244135.12
-245688.31
-244308.53
-245850.05
-245543.29
-236505.09
-235523.16
-236783.81
-237360.2
-237709.33
-238673.46
-238737.21
-239501.07
-239586.4
-240037.7
-239826.87
-241072.21
-240171.53
-241180.98
-241242.88
-233199.61
-230814.95
-232857.9
-232641.53
-233887.56
-234035.28
-234819.48
-235003.39
-235271.56
-235907.17
-235528.56
-237004.22
-235717.13
-237057.6
-236885.33
-228488.1
-226975.64
-228587.19
-228699.95
-229530.04
-230070.47
-230545.57
-230733.91
-231222.63
-231578.69
-231325.59
-232455.7
-231549.28
-232697.96
-232691.21
-224710.42
-222653.73
-224529.01
-224276
-225410.34
-225597.5
-226189.2
-226470.46
-226795.18
-227318.97
-226929.58
-228262.02
-227224.46
-228438.52
-228328.64
-220409.69
-218743.79
-220326.9
-220311.41
-221250.66
-221529.29
-222183.33
-222251.67
-222733.27
-223042.81
-222850.96
-224009.87
-223088.26
-224154.67
-224176.9
-216565.53
-214561.57
-216302.09
-216064.74
-217044.66
-217370.8
-217868.57
-218070.18
-218427.77
-218887.46
-218594.89