/*--------------------------------*- C++ -*----------------------------------*\
  =========                 |
  \\      /  F ield         | OpenFOAM: The Open Source CFD Toolbox
   \\    /   O peration     | Website:  https://openfoam.org
    \\  /    A nd           | Version:  6
     \\/     M anipulation  |
\*---------------------------------------------------------------------------*/
FoamFile
{
    version     2.0;
    format      ascii;
    class       pointVectorField;
    location    "0.47";
    object      u;
}
// * * * * * * * * * * * * * * * * * * * * * * * * * * * * * * * * * * * * * //

dimensions      [0 1 0 0 0 0 0];

internalField   nonuniform List<vector> 
625
(
(0 0 0)
(0 0 0)
(1.6765751 -0.063540475 0.015959949)
(1.5870914 -0.47673406 0.008334538)
(0 0 0)
(0 0 0)
(1.5932984 -0.48194244 0.0073328862)
(1.6826589 -0.069229592 0.015702425)
(0 0 0)
(0 0 0)
(0 0 0)
(1.6535137 -0.16761704 0.013160881)
(1.6309396 -0.26967732 0.011961479)
(1.6094198 -0.37225481 0.010110347)
(0.0031274539 0.013972141 0.012911406)
(0.012895761 0.028419191 0.013753596)
(0.031091116 0.043116726 0.014402754)
(0.058159453 0.057133974 0.014468766)
(0.091314953 0.069216349 0.014667579)
(0.13300665 0.080402314 0.014552312)
(0.18058882 0.089507558 0.014924499)
(0.23495392 0.096719342 0.015089159)
(0.29548214 0.10224331 0.015532465)
(0.36154914 0.10540018 0.015663416)
(0.43315548 0.10668723 0.016107426)
(0.50980127 0.10567318 0.016435322)
(0.59111949 0.10248155 0.016707448)
(0.67680226 0.097079986 0.016934767)
(0.76640884 0.089487612 0.01708275)
(0.85954691 0.079643285 0.017157713)
(0.95578865 0.067855385 0.017068686)
(1.0546571 0.053757737 0.017056376)
(1.155725 0.038060783 0.016738604)
(1.2583071 0.020432483 0.016604135)
(1.3622843 0.0012801752 0.016463732)
(1.4668268 -0.018967847 0.01625434)
(1.5712965 -0.040643338 0.016536534)
(-0.0023889023 -0.011261857 -0.016485567)
(0.0086842272 -0.02428547 -0.013667799)
(0.025821729 -0.039856826 -0.015448023)
(0.049436225 -0.054548181 -0.014392797)
(0.07961403 -0.06899132 -0.013918078)
(0.11762851 -0.085624033 -0.013022406)
(0.16028693 -0.10119128 -0.012526282)
(0.21002535 -0.11813442 -0.011322538)
(0.26517911 -0.13602172 -0.01058839)
(0.3258375 -0.1542174 -0.0094340209)
(0.39175918 -0.1737415 -0.008390498)
(0.46269144 -0.19397443 -0.0071867753)
(0.53828816 -0.2151428 -0.006042528)
(0.61831675 -0.23716622 -0.0048108597)
(0.7025107 -0.25996324 -0.0035758916)
(0.79049786 -0.28344353 -0.0023365034)
(0.88200609 -0.30747396 -0.0010449024)
(0.97662429 -0.33188638 0.0002188819)
(1.0740035 -0.35651635 0.0015596585)
(1.1736807 -0.38118799 0.0028375917)
(1.2753129 -0.40572204 0.0042186766)
(1.3782687 -0.42987252 0.0054889659)
(1.4821912 -0.45351322 0.0067558217)
(0 0 0)
(0 0 0)
(0 0 0)
(0.0019880028 -0.0071673266 0.011134426)
(0.011049375 -0.03059914 0.014083807)
(0.028788505 -0.039323678 0.011773418)
(0.052117137 -0.05579198 0.010902027)
(0.084259892 -0.073258823 0.011448654)
(0.12120787 -0.087242046 0.0099457075)
(0.1646167 -0.10450054 0.010320118)
(0.21453193 -0.12197548 0.0098095415)
(0.26978582 -0.13988806 0.0098932036)
(0.33061693 -0.15875834 0.0098862573)
(0.39664327 -0.17824663 0.0098457967)
(0.46765911 -0.19881869 0.0099237372)
(0.54335088 -0.22005924 0.0099200642)
(0.62352489 -0.24218868 0.0098696715)
(0.70782249 -0.26505683 0.0097839054)
(0.79595443 -0.28856473 0.0096122334)
(0.88759006 -0.31263487 0.0093780993)
(0.98235338 -0.33708783 0.0090993275)
(1.0798196 -0.36174162 0.0087694572)
(1.1796614 -0.38646497 0.0084426342)
(1.2812368 -0.41094932 0.0081401339)
(1.3843941 -0.43520858 0.0078977565)
(1.4882353 -0.45881358 0.0077925364)
(1.6158595 -0.37725345 0.0093699815)
(1.6366612 -0.27506007 0.011645115)
(1.6595964 -0.17352245 0.014270282)
(1.577683 -0.046388957 0.014071761)
(1.4726926 -0.024780599 0.012843565)
(1.3680934 -0.0042479268 0.011494546)
(1.2641468 0.014993021 0.010061314)
(1.1613332 0.032621975 0.0086544053)
(1.0601823 0.048506809 0.007215255)
(0.96116407 0.062502093 0.0058116755)
(0.86478258 0.074423965 0.00439298)
(0.77146684 0.084296694 0.0029964033)
(0.68168836 0.091988081 0.0015836659)
(0.5958189 0.097501122 0.00021186738)
(0.51432307 0.10091357 -0.001206975)
(0.43744594 0.10205044 -0.002551884)
(0.3656763 0.10136888 -0.0039835516)
(0.29913675 0.098369991 -0.0050654186)
(0.23888666 0.092969572 -0.0064049447)
(0.1839816 0.086716286 -0.0077805519)
(0.13567835 0.07778624 -0.0086948501)
(0.094736329 0.067096306 -0.0098730723)
(0.060114808 0.054853015 -0.010397482)
(0.032930959 0.042757723 -0.012427691)
(0.01370955 0.027138174 -0.011545424)
(0.0067936451 0.012669423 -0.0092859477)
(0 0 0)
(0 0 0)
(0 0 0)
(0 0 0)
(0 0 0)
(0 0 0)
(1.5883868 -0.47849245 0.00784157)
(1.5901512 -0.47990332 0.007925432)
(1.5914601 -0.48128557 0.0076475722)
(1.678643 -0.064380988 0.015983848)
(1.6802006 -0.066033742 0.015791664)
(1.6816664 -0.067256315 0.015707744)
(-0.0030952903 0.0080919364 0.0088611137)
(0.0067105808 0.015811508 0.0072266868)
(0.024816853 0.023438097 0.007865614)
(0.050735099 0.03003673 0.0076828338)
(0.083568041 0.035667019 0.0079313573)
(0.12448789 0.04010574 0.0081764998)
(0.17111219 0.042756372 0.0084338325)
(0.22457959 0.044255818 0.0088739076)
(0.2837586 0.043749823 0.0092809452)
(0.34889376 0.04152281 0.0097038586)
(0.41926509 0.037595513 0.010256784)
(0.4946457 0.031640102 0.01071092)
(0.57475011 0.023880504 0.011182591)
(0.6592368 0.014218332 0.01161776)
(0.74769048 0.0026388609 0.011999594)
(0.83979037 -0.010668818 0.012295009)
(0.93507886 -0.025814621 0.012582057)
(1.0331369 -0.042519387 0.012794049)
(1.1335546 -0.060637592 0.012924892)
(1.235728 -0.08024595 0.013201482)
(1.3393843 -0.10090208 0.013173425)
(1.4437823 -0.12227244 0.01346191)
(1.5486783 -0.14502786 0.013572638)
(-0.0057905557 0.0015674658 0.00024258625)
(0.0053041852 0.0015369819 -0.00074619496)
(0.022273759 0.0024020167 -0.0004069296)
(0.047493031 0.0022029944 0.00014389848)
(0.080131619 0.00068622169 0.00034936963)
(0.11937149 -0.0014523551 0.00079176181)
(0.16513845 -0.0047859321 0.0012586745)
(0.21742519 -0.0095846396 0.0018860939)
(0.27534817 -0.01566936 0.0024398359)
(0.33914482 -0.023184204 0.0031872219)
(0.40808074 -0.032261954 0.0038660636)
(0.48215406 -0.042883088 0.0046052701)
(0.56090538 -0.055067269 0.0053493601)
(0.64406559 -0.068826495 0.0060691122)
(0.7312567 -0.084078905 0.0067420629)
(0.82217529 -0.10080106 0.0074107453)
(0.91635679 -0.11887356 0.0080340668)
(1.0134794 -0.13812235 0.0085975797)
(1.1130355 -0.15854793 0.0092165605)
(1.2145354 -0.17976626 0.0097124847)
(1.3177016 -0.20172833 0.01030623)
(1.4217707 -0.22426775 0.010919385)
(1.526827 -0.24706143 0.011468302)
(-0.0068151177 -0.0055367992 -0.0059671312)
(0.004800692 -0.011035319 -0.006549366)
(0.020670629 -0.017007163 -0.006690797)
(0.046121353 -0.024571184 -0.0064137941)
(0.077495582 -0.033035411 -0.0061975305)
(0.11589838 -0.041269353 -0.0056858561)
(0.16088103 -0.051483101 -0.0050490393)
(0.21170822 -0.062075896 -0.0043708264)
(0.26848909 -0.073891384 -0.0036237226)
(0.33084716 -0.086955599 -0.0027638891)
(0.39844962 -0.10113253 -0.0019238554)
(0.47111217 -0.11660066 -0.00098180649)
(0.54843329 -0.1333019 -6.527038e-05)
(0.6301961 -0.15118135 0.0008481954)
(0.71604992 -0.17025874 0.0017894424)
(0.80569097 -0.19037191 0.0026974743)
(0.89869214 -0.21144835 0.0035996487)
(0.99477801 -0.23338519 0.0045269588)
(1.0933547 -0.25592487 0.0053950728)
(1.1942146 -0.27901242 0.0063605576)
(1.2966381 -0.30240519 0.0071897633)
(1.4003846 -0.32584172 0.0081345771)
(1.504871 -0.34918573 0.0090441075)
(0 0 0)
(0 0 0)
(0 0 0)
(0 0 0)
(0 0 0)
(0 0 0)
(0 0 0)
(0 0 0)
(0 0 0)
(0.0041051865 -0.004775472 -0.0072678498)
(0.0060160794 -0.0063787691 -0.0015124565)
(0.0053966338 -0.0044727199 0.0036062491)
(0.0169747 -0.027954707 -0.007242626)
(0.017106805 -0.028381538 -0.0008737943)
(0.016471581 -0.027199359 0.0070226461)
(0.031648206 -0.039461656 -0.0083576589)
(0.033715134 -0.038945561 -0.0019626859)
(0.034017261 -0.041441347 0.0060074385)
(0.055412838 -0.055429654 -0.007451482)
(0.057817565 -0.056848535 -0.0013217445)
(0.056674748 -0.055758964 0.0053608161)
(0.086422286 -0.071406271 -0.007474314)
(0.088138914 -0.071605386 -0.0019258516)
(0.088249907 -0.072985958 0.0053305515)
(0.12282536 -0.086897805 -0.0070949857)
(0.12526823 -0.087695705 -0.00095887122)
(0.12492416 -0.087909918 0.0049821752)
(0.16616544 -0.1032731 -0.0063407135)
(0.16848687 -0.10472095 -0.0015413705)
(0.16848911 -0.10522275 0.005332372)
(0.21561767 -0.12072008 -0.0058582483)
(0.21758873 -0.12094714 -0.00069036795)
(0.21775188 -0.12202975 0.0050347022)
(0.27042402 -0.1380681 -0.0050897635)
(0.27256663 -0.13952082 -0.00043408585)
(0.27274527 -0.14016131 0.0053478427)
(0.33094316 -0.15692568 -0.0043878436)
(0.33306491 -0.1580061 0.00019242032)
(0.3333801 -0.15890037 0.0055319749)
(0.3966283 -0.17626727 -0.0035107673)
(0.39873646 -0.17758199 0.00075004669)
(0.39904907 -0.17841706 0.0058000071)
(0.46732446 -0.19666884 -0.002642905)
(0.46936412 -0.19794992 0.0013518849)
(0.46983584 -0.19886785 0.0061017464)
(0.54266952 -0.21780444 -0.0017713945)
(0.54473019 -0.21915505 0.0019707055)
(0.54524085 -0.22014167 0.006384603)
(0.62248493 -0.23985122 -0.00087110717)
(0.62448323 -0.24122131 0.0025791516)
(0.62508723 -0.24221098 0.0066159231)
(0.70639756 -0.26260686 1.914024e-05)
(0.70837482 -0.26398754 0.0031554864)
(0.70907779 -0.26503548 0.006826315)
(0.79413948 -0.28604085 0.00089012043)
(0.79609154 -0.28743081 0.0037100701)
(0.79686949 -0.28850304 0.0069855831)
(0.8853564 -0.30998078 0.0017794917)
(0.88725828 -0.31136129 0.0042435583)
(0.88814679 -0.31248923 0.0070814542)
(0.97970048 -0.33431626 0.0026386638)
(0.98158693 -0.33570656 0.0047322803)
(0.98256499 -0.33685896 0.007165938)
(1.0767699 -0.35882771 0.0035289102)
(1.0785937 -0.36017235 0.0052542192)
(1.0796618 -0.36139841 0.0072041931)
(1.1761771 -0.38337096 0.0044025704)
(1.1779713 -0.38475364 0.0057255641)
(1.1791461 -0.38599682 0.0072500574)
(1.2774307 -0.40776553 0.0053145181)
(1.2791485 -0.40905047 0.006247842)
(1.2804173 -0.41034569 0.0073246614)
(1.3801854 -0.43178775 0.0061914109)
(1.3818805 -0.43313285 0.006793395)
(1.3832406 -0.43449758 0.007410161)
(1.4838481 -0.45542539 0.0070556452)
(1.4854147 -0.45667299 0.0072401636)
(1.4869697 -0.45794036 0.0075546953)
(1.6556633 -0.16865676 0.013808772)
(1.6573039 -0.17009353 0.013845512)
(1.6586084 -0.17148635 0.014008498)
(1.6326007 -0.27091645 0.012092406)
(1.6342516 -0.27253376 0.01188877)
(1.6354846 -0.27368874 0.011748124)
(1.6109817 -0.37392994 0.00983658)
(1.6127338 -0.37530095 0.0097942617)
(1.6140986 -0.37645631 0.0096365101)
(0.0095339774 0.010997329 0.0063341452)
(0.0096386731 0.012557424 0.0021268239)
(0.010416984 0.01214767 -0.0029655627)
(0.018005915 0.026853308 0.0075154761)
(0.019778944 0.027112152 0.0003162151)
(0.019441693 0.02623873 -0.0059726602)
(0.037948284 0.042600114 0.0075243101)
(0.038232512 0.042192639 0.00214032)
(0.038561496 0.04249035 -0.0060014511)
(0.063188865 0.055263077 0.007928693)
(0.065004818 0.055205978 0.0017895715)
(0.064811134 0.055496607 -0.0050729103)
(0.097259028 0.068631633 0.0084948677)
(0.099307425 0.067986348 0.0020743575)
(0.098932915 0.067649492 -0.0040829117)
(0.13861882 0.078795844 0.0083715366)
(0.13976019 0.077960703 0.0033580871)
(0.14018729 0.077877777 -0.0035334037)
(0.18603357 0.08776562 0.0090529553)
(0.18784832 0.087132007 0.0036406303)
(0.18807606 0.086717489 -0.0026180906)
(0.24045541 0.094960861 0.0094694659)
(0.24208202 0.09422542 0.0043182552)
(0.24212906 0.093909047 -0.0015369135)
(0.30042197 0.10058863 0.01015133)
(0.30229087 0.098984262 0.0051341444)
(0.3028071 0.09856415 -0.00047580118)
(0.36674602 0.10331965 0.010544414)
(0.36832743 0.10240678 0.0061111195)
(0.36884294 0.10149476 0.00049692548)
(0.43805606 0.10446162 0.011253391)
(0.43971177 0.1033402 0.0067416264)
(0.44029037 0.10256489 0.0016371575)
(0.5144956 0.10345778 0.011828901)
(0.5162288 0.10222314 0.0076333938)
(0.51690218 0.10135631 0.002809868)
(0.59563793 0.10026287 0.012406755)
(0.59739586 0.098942312 0.0084679661)
(0.59810622 0.098036218 0.0039348491)
(0.68111869 0.094881919 0.012929849)
(0.68287042 0.093522541 0.0092816482)
(0.68365357 0.092561769 0.0050572369)
(0.77051161 0.087335178 0.013417243)
(0.77226112 0.08593951 0.010041618)
(0.77313618 0.084930848 0.0061821292)
(0.86342113 0.077605795 0.013787141)
(0.8651859 0.076200323 0.010777038)
(0.86610267 0.075165077 0.00725877)
(0.95943065 0.065862098 0.014166111)
(0.96113921 0.064424243 0.011454018)
(0.96216911 0.063295627 0.0083532336)
(1.0580308 0.051957879 0.014414027)
(1.0597616 0.05053762 0.012080495)
(1.0608163 0.049448243 0.009392518)
(1.1587788 0.036352932 0.014638472)
(1.1604512 0.034901185 0.012751549)
(1.1616174 0.033695546 0.010460639)
(1.261159 0.018843583 0.015015037)
(1.2628752 0.017426315 0.013242369)
(1.264087 0.016167083 0.011498645)
(1.3648226 -0.00016261373 0.015088064)
(1.3664738 -0.0016532745 0.013859573)
(1.3676959 -0.0028898705 0.012565182)
(1.4690519 -0.020582502 0.015220924)
(1.4706183 -0.02176746 0.014498481)
(1.4719818 -0.023216874 0.013577959)
(1.5738711 -0.041751307 0.015867969)
(1.5753401 -0.043226875 0.01517691)
(1.5767856 -0.044776281 0.01479228)
(-0.0011129468 0.0045614266 -0.0060989678)
(0.0093127997 0.017449576 -0.0066980475)
(0.026110662 0.021688303 -0.0052007182)
(0.053609205 0.028558193 -0.005431296)
(0.08681957 0.033696603 -0.0045370491)
(0.12755304 0.037449276 -0.0039099599)
(0.17485768 0.039842581 -0.0031381569)
(0.22831764 0.040691211 -0.0022169073)
(0.28795449 0.039887192 -0.0013543628)
(0.35307923 0.037396063 -0.00027791685)
(0.4236025 0.033135665 0.00061216103)
(0.49920558 0.026963869 0.0017412027)
(0.57947231 0.01904379 0.002765791)
(0.66410775 0.0092511355 0.0037981108)
(0.75273844 -0.0023993263 0.0048488966)
(0.84497459 -0.015836586 0.0058525044)
(0.9404011 -0.030991178 0.0068730713)
(1.0386043 -0.047803575 0.0078507341)
(1.1390685 -0.066085511 0.0088503909)
(1.2414281 -0.085696784 0.0098149445)
(1.3450855 -0.10647188 0.010819204)
(1.4495468 -0.12810553 0.01178253)
(1.5546806 -0.1507534 0.013015059)
(-0.0051323655 0.0020717869 0.00071502512)
(0.0057064167 0.0029623742 -0.00014824381)
(0.024502467 0.00071723571 0.00075287905)
(0.05060581 0.0011516811 7.7751525e-05)
(0.083080807 -0.0011020781 0.00037435833)
(0.12314682 -0.0040106117 0.00090278888)
(0.1690924 -0.0076580589 0.0011313392)
(0.22161263 -0.012870202 0.0017341109)
(0.27983929 -0.019439624 0.0023541323)
(0.34370358 -0.027152705 0.0029191163)
(0.41291933 -0.036548217 0.0036233702)
(0.48715056 -0.047403733 0.0043188822)
(0.56605411 -0.059703652 0.0049879068)
(0.64940355 -0.073573767 0.0056790914)
(0.73676323 -0.088899339 0.0063300331)
(0.82782444 -0.10567369 0.0069408679)
(0.92218875 -0.12377532 0.0075581334)
(1.0194177 -0.14315659 0.0080945322)
(1.1190955 -0.16357138 0.0087032332)
(1.2207456 -0.18494603 0.0092244937)
(1.3239437 -0.20698838 0.0097901822)
(1.4280003 -0.22963809 0.01037907)
(1.5334309 -0.25258094 0.010950413)
(-0.0062833648 -0.0053042525 0.0051692596)
(0.0073830332 -0.0088806884 0.0052461548)
(0.024515466 -0.020024753 0.0072322678)
(0.04912027 -0.023983273 0.0053028757)
(0.081549044 -0.034599219 0.0063865655)
(0.12034776 -0.043445326 0.0060671361)
(0.16512297 -0.053470673 0.0060263676)
(0.216515 -0.065180664 0.0064255632)
(0.27328676 -0.077043439 0.0064920114)
(0.33590483 -0.090672601 0.0068882546)
(0.40357126 -0.10512263 0.0072070347)
(0.47635878 -0.12082972 0.007521228)
(0.55381106 -0.13772421 0.007886241)
(0.63571296 -0.15576258 0.0081713117)
(0.72169561 -0.17493954 0.0084400237)
(0.81145136 -0.19514014 0.0086592114)
(0.9046048 -0.21632107 0.0088216625)
(1.0007531 -0.23830713 0.0089524127)
(1.0994715 -0.26096547 0.0090719742)
(1.2003634 -0.28412713 0.0091202081)
(1.3027929 -0.30752065 0.009271515)
(1.4066479 -0.33110351 0.0092592033)
(1.5109492 -0.35434809 0.0095836216)
(0.0014053053 0.0039228027 0.0040135961)
(0.0014667519 0.0043487605 0.0015598744)
(0.0030540041 0.0037688085 -0.0024265928)
(0.012670256 0.015668089 0.0034004553)
(0.014747672 0.01570388 -0.00023778387)
(0.013364265 0.015864101 -0.004004443)
(0.031063302 0.022155453 0.0037735506)
(0.031450248 0.021872978 0.00062755182)
(0.031759699 0.021584956 -0.0026938024)
(0.056414349 0.029280577 0.0039754531)
(0.058455683 0.02911473 0.00054599316)
(0.058073459 0.028458308 -0.0027176765)
(0.089904569 0.034503719 0.0039265192)
(0.0914836 0.033990339 0.0011265688)
(0.091531788 0.0334058 -0.0020265849)
(0.13007022 0.038556748 0.0045659258)
(0.13186274 0.038133448 0.0016180716)
(0.13159213 0.037399078 -0.001417439)
(0.17675443 0.041287715 0.0049322655)
(0.17857988 0.040762532 0.0020523153)
(0.17876565 0.039886397 -0.00068359283)
(0.22992744 0.042576149 0.0054192083)
(0.23185442 0.041518195 0.0028663764)
(0.23193469 0.040563118 -4.0140893e-05)
(0.28904889 0.041690751 0.0060729025)
(0.29098031 0.040979005 0.0034302233)
(0.29119243 0.040093929 0.00099827843)
(0.35391755 0.039605387 0.0066310102)
(0.35586865 0.038521774 0.0042175919)
(0.35610157 0.037405314 0.0017298477)
(0.42408228 0.035512648 0.0073280872)
(0.4259736 0.034297986 0.0050565255)
(0.42633009 0.033345534 0.0026771592)
(0.49925956 0.029526348 0.0079686003)
(0.50122068 0.028349246 0.0058102548)
(0.501674 0.027211869 0.0036030287)
(0.5791907 0.02178184 0.0086165842)
(0.58113132 0.020468026 0.0066062686)
(0.58163462 0.019344953 0.0045591737)
(0.66345505 0.012093905 0.0092454025)
(0.66537662 0.010780482 0.0073793929)
(0.66597445 0.0096129227 0.0054575959)
(0.75169503 0.00060818516 0.0098148108)
(0.75360901 -0.00075489087 0.0081096445)
(0.75429567 -0.0019339627 0.0063614703)
(0.84357509 -0.012670789 0.010344996)
(0.8454504 -0.014055666 0.0088175927)
(0.84621114 -0.015267847 0.007218262)
(0.93859353 -0.027685248 0.010834824)
(0.94044397 -0.029072387 0.0094611529)
(0.94132281 -0.030319319 0.0080759174)
(1.0364326 -0.044302323 0.011261493)
(1.0382502 -0.045727996 0.010117994)
(1.0391675 -0.04695205 0.0088803805)
(1.1365474 -0.062315593 0.011679943)
(1.1382579 -0.063736587 0.010679001)
(1.139351 -0.065091735 0.009714253)
(1.2383913 -0.081793603 0.012134271)
(1.240233 -0.083265727 0.011361047)
(1.241298 -0.084563475 0.010471069)
(1.3416844 -0.10232716 0.012325208)
(1.343608 -0.10369259 0.011973214)
(1.34467 -0.10504467 0.011302731)
(1.4459543 -0.12374348 0.012909271)
(1.4475495 -0.12505918 0.01259634)
(1.4487817 -0.12657919 0.012070612)
(1.5506897 -0.1460391 0.013346401)
(1.5521537 -0.14757457 0.013145914)
(1.5535743 -0.14898368 0.013006732)
(-0.0023057321 0.0010448238 -0.0003027769)
(-0.0011610685 0.0014226065 -0.00072675567)
(-5.1758268e-05 0.0017091539 -1.677122e-05)
(0.0099937262 0.0017552551 -0.0016718499)
(0.011475487 0.0023206672 -0.0011443357)
(0.010057843 0.0018716581 -0.00094344427)
(0.028002274 0.0019221282 -0.00094424673)
(0.029241465 0.001424746 7.3991688e-05)
(0.029161326 0.0014295824 -2.4726389e-05)
(0.052741499 0.0010098554 -0.00098708147)
(0.05567418 0.00052494929 -0.00022986142)
(0.05454997 -0.00015985415 -0.00024706741)
(0.085663594 -0.00016765123 -0.00040934145)
(0.087832571 -0.0010874348 0.00070631592)
(0.086959297 -0.0010274976 -0.00015250103)
(0.12469025 -0.0027994359 6.6565137e-06)
(0.12710257 -0.0037517762 0.00062091376)
(0.12649888 -0.0042076509 0.00049001199)
(0.17045327 -0.0062254185 0.00037286346)
(0.17281458 -0.0075301128 0.0013913432)
(0.17236157 -0.0080796684 0.00069920664)
(0.22253809 -0.011342079 0.0011563603)
(0.2249249 -0.012544497 0.0018722696)
(0.22435516 -0.012830653 0.0013932947)
(0.28033628 -0.017376652 0.0016874425)
(0.28263411 -0.018839387 0.0024095774)
(0.28245903 -0.019560912 0.0019262544)
(0.34394686 -0.025120546 0.002474361)
(0.3462607 -0.026637442 0.0031980138)
(0.3460493 -0.027208171 0.0027073235)
(0.41276137 -0.034317927 0.0032304346)
(0.41497231 -0.035803142 0.0038613041)
(0.41495352 -0.036572497 0.0033326641)
(0.48663689 -0.044977737 0.0039832782)
(0.48886888 -0.046559116 0.0045808335)
(0.48893978 -0.047330082 0.004101439)
(0.56521287 -0.057188565 0.0047871758)
(0.56740076 -0.058808148 0.0053208636)
(0.56755581 -0.059645565 0.0048241667)
(0.64816641 -0.070960824 0.0055303316)
(0.6503093 -0.072587227 0.0060023514)
(0.65060413 -0.073430548 0.0055388811)
(0.73517379 -0.086165376 0.0062647437)
(0.73726388 -0.087794908 0.0066852842)
(0.73768128 -0.088721288 0.0062358061)
(0.82585714 -0.10285252 0.0069544147)
(0.82790013 -0.10447869 0.007311022)
(0.82843821 -0.10542498 0.0068781566)
(0.91982708 -0.12082158 0.0076207773)
(0.92180419 -0.12244294 0.0079243417)
(0.9224663 -0.12345173 0.0075244375)
(1.0167047 -0.14003062 0.0082296994)
(1.0186059 -0.14166764 0.0084932428)
(1.0194117 -0.1426968 0.0080889736)
(1.1159779 -0.16029609 0.0088742438)
(1.1178401 -0.16189083 0.0090387381)
(1.1187384 -0.16303387 0.0087317079)
(1.2173172 -0.18144432 0.0093745925)
(1.2190022 -0.18321351 0.0096275373)
(1.2200739 -0.18426246 0.0092517825)
(1.320275 -0.20329009 0.010211955)
(1.3216711 -0.20492636 0.01004097)
(1.3230297 -0.20612346 0.0098764606)
(1.4238999 -0.22586308 0.010657044)
(1.4255412 -0.22723662 0.010772951)
(1.426707 -0.22860733 0.010401878)
(1.5287002 -0.24841954 0.011286771)
(1.5304542 -0.25006337 0.011223681)
(1.5318663 -0.25121128 0.011104448)
(-0.0019554836 -0.0038388118 -0.0025900205)
(-0.0020579787 -0.0033882666 -0.00012456895)
(-0.002133855 -0.0032121234 0.0023789055)
(0.011465964 -0.01035521 -0.0035908729)
(0.012982025 -0.008446699 -0.00010475604)
(0.011676621 -0.0094529339 0.0028285484)
(0.027261483 -0.017574205 -0.0035499613)
(0.029020401 -0.019518517 1.2886566e-05)
(0.029045828 -0.019465882 0.0036002973)
(0.052858273 -0.026062964 -0.0035146835)
(0.054179964 -0.025099378 -9.9637111e-05)
(0.054079551 -0.025741207 0.0027256993)
(0.083899461 -0.033757429 -0.0031146121)
(0.085701382 -0.034832001 3.2120518e-05)
(0.085765079 -0.035016913 0.0030065448)
(0.12225925 -0.043143942 -0.0030276251)
(0.12404727 -0.043727655 0.00015390669)
(0.12409957 -0.044334684 0.0028360873)
(0.16693822 -0.053309327 -0.0023913481)
(0.16865564 -0.05390501 0.00074920455)
(0.16894554 -0.054235466 0.003135322)
(0.21762307 -0.063997204 -0.0018311003)
(0.21932682 -0.064935305 0.00077577294)
(0.21976506 -0.065816183 0.0033666223)
(0.27418032 -0.076145663 -0.0012785787)
(0.27593345 -0.077100183 0.0015338339)
(0.27642586 -0.077711938 0.0039009775)
(0.33632605 -0.089316799 -0.00047177576)
(0.3380749 -0.090311104 0.0020251344)
(0.33861866 -0.091145315 0.0042055306)
(0.40368608 -0.10356424 0.00021570639)
(0.40542971 -0.10473694 0.0026113894)
(0.40610583 -0.10559446 0.0047375006)
(0.47611769 -0.11914429 0.0010255234)
(0.47785497 -0.12033874 0.0032695161)
(0.47856899 -0.12124048 0.005205539)
(0.55318931 -0.13585808 0.0018101956)
(0.55490954 -0.13713064 0.003872096)
(0.55572466 -0.13806452 0.0056985579)
(0.63470429 -0.15377989 0.0025779149)
(0.63642833 -0.15507062 0.0044859555)
(0.63729559 -0.15603547 0.006166394)
(0.72029067 -0.17281621 0.0033588373)
(0.72198828 -0.17413765 0.0050735127)
(0.72295755 -0.17514239 0.0065971147)
(0.80963608 -0.19289216 0.0040937918)
(0.81134137 -0.19426131 0.0056335762)
(0.81237062 -0.19527496 0.0069863771)
(0.90236254 -0.21391964 0.0048268229)
(0.90401655 -0.21528415 0.00615398)
(0.90516133 -0.21632462 0.0073467735)
(0.99810066 -0.23574024 0.0055413356)
(0.99977644 -0.23714286 0.0066759233)
(1.0010004 -0.23822668 0.0076596117)
(1.0963919 -0.25822433 0.0062352232)
(1.0979983 -0.25963167 0.00714885)
(1.0992979 -0.2607051 0.0079772043)
(1.1968769 -0.28115661 0.0069887659)
(1.1985094 -0.28257855 0.007670597)
(1.199939 -0.28372141 0.0082671984)
(1.2989778 -0.30440756 0.0075966646)
(1.3005115 -0.30578446 0.0081345677)
(1.3019853 -0.30692822 0.008573048)
(1.4024363 -0.32775035 0.0083776663)
(1.4039984 -0.32916093 0.0087595497)
(1.4056061 -0.33033872 0.008942591)
(1.5065252 -0.35102549 0.0090768898)
(1.5080489 -0.35220741 0.0092016503)
(1.5096152 -0.35358154 0.0091987186)
)
;

boundaryField
{
    free
    {
        type            calculated;
    }
    fixed
    {
        type            calculated;
    }
    traction
    {
        type            calculated;
    }
}


// ************************************************************************* //
