/*--------------------------------*- C++ -*----------------------------------*\
  =========                 |
  \\      /  F ield         | OpenFOAM: The Open Source CFD Toolbox
   \\    /   O peration     | Website:  https://openfoam.org
    \\  /    A nd           | Version:  6
     \\/     M anipulation  |
\*---------------------------------------------------------------------------*/
FoamFile
{
    version     2.0;
    format      ascii;
    class       pointVectorField;
    location    "0.48";
    object      lm;
}
// * * * * * * * * * * * * * * * * * * * * * * * * * * * * * * * * * * * * * //

dimensions      [1 -2 -1 0 0 0 0];

internalField   nonuniform List<vector> 
3969
(
(0 0 0)
(0 0 0)
(5563.9809 -1293.7571 87.351615)
(5033.5184 -2424.8458 57.39856)
(0 0 0)
(0 0 0)
(5038.102 -2473.3186 58.457287)
(5569.4339 -1343.7569 84.675254)
(0 0 0)
(0 0 0)
(0 0 0)
(0 0 0)
(0 0 0)
(0 0 0)
(0 0 0)
(5497.4855 -1433.387 84.399287)
(5432.2559 -1574.4933 81.118144)
(5366.6935 -1717.099 77.01182)
(5300.6712 -1860.0321 72.529121)
(5234.1715 -2002.867 68.171093)
(5167.5265 -2144.8664 64.088049)
(5100.3771 -2285.8896 60.543779)
(-0.8465174 23.711468 31.81436)
(-8.8686051 42.868542 47.476344)
(-8.7106314 68.053796 61.556696)
(0.47699011 94.165631 72.658239)
(19.747436 121.96334 80.244163)
(50.695924 148.61798 85.216442)
(92.109307 174.36938 87.222315)
(144.93584 197.60148 86.253584)
(207.15977 218.35622 83.112371)
(278.76225 235.81412 77.588165)
(357.8138 250.57075 71.27834)
(443.638 261.99224 63.943841)
(534.89865 270.8789 56.478432)
(630.99226 277.4935 49.830732)
(731.62867 281.93375 43.958588)
(836.23278 284.55623 39.272453)
(945.45613 285.53504 35.884474)
(1059.5846 284.68012 33.466765)
(1179.3807 281.70852 31.870881)
(1305.32 276.12734 30.679565)
(1438.049 267.21807 29.585342)
(1577.7411 254.3534 28.208117)
(1724.3321 236.62952 26.388976)
(1877.3715 213.45567 24.020646)
(2035.8884 184.2869 21.139375)
(2199.0285 149.32159 18.039055)
(2365.1999 108.16544 14.936517)
(2533.4448 61.204093 12.058131)
(2702.3411 8.9207242 9.6985091)
(2870.7407 -48.00393 8.0823143)
(3038.0243 -108.90421 7.2327296)
(3203.5784 -173.17714 7.1970379)
(3367.0056 -240.10514 7.8449689)
(3528.2483 -309.19391 9.0986283)
(3687.0921 -379.9469 10.979519)
(3843.4553 -451.93149 13.259265)
(3997.3826 -524.51968 16.222418)
(4148.45 -597.72288 20.065255)
(4297.1971 -670.68641 24.372263)
(4442.7193 -743.4218 29.951882)
(4586.4842 -815.38552 36.119163)
(4727.3956 -886.05801 43.349427)
(4867.3683 -956.60023 50.889278)
(5006.1436 -1024.5273 58.790362)
(5144.7453 -1093.2578 66.468081)
(5284.1069 -1160.0927 73.684192)
(5424.1222 -1226.7256 80.377838)
(-15.65162 -13.452092 -24.423926)
(-16.993927 -25.521847 -21.145207)
(-23.047833 -49.102913 -32.425477)
(-19.345866 -70.289932 -30.898145)
(-5.276096 -100.3781 -33.682659)
(18.31102 -131.43728 -31.617378)
(50.589851 -164.53415 -31.763804)
(91.856675 -199.52556 -29.929249)
(141.47309 -234.75351 -29.841959)
(198.60624 -270.72612 -29.372904)
(261.75357 -306.11452 -30.330199)
(330.90619 -341.98023 -32.598818)
(404.20371 -377.1726 -35.595842)
(481.92024 -412.95693 -39.693962)
(563.13011 -449.38751 -44.662256)
(648.10209 -487.17395 -50.227002)
(736.89254 -526.97716 -56.087164)
(829.85869 -569.12762 -61.892874)
(927.7654 -614.51782 -67.145549)
(1031.243 -662.9143 -71.581421)
(1140.7375 -715.08782 -74.596211)
(1257.2804 -770.10386 -76.2282)
(1380.4982 -828.76771 -75.706598)
(1510.8389 -889.68145 -73.68405)
(1647.4302 -952.64006 -69.876097)
(1789.9773 -1017.0867 -64.547451)
(1936.9367 -1082.0797 -58.145293)
(2087.951 -1148.2866 -50.994424)
(2241.5052 -1214.0498 -43.695085)
(2396.3499 -1279.6336 -36.351712)
(2551.9162 -1344.9057 -29.421796)
(2707.3369 -1409.7021 -22.905822)
(2862.3422 -1474.0858 -16.9046)
(3016.5422 -1538.0147 -11.261284)
(3169.8428 -1601.5078 -5.9006053)
(3321.9981 -1664.6813 -0.62851897)
(3473.0597 -1727.3707 4.7965091)
(3622.4487 -1789.7816 10.070177)
(3770.1027 -1851.7519 15.602488)
(3916.009 -1913.6397 20.992653)
(4059.7092 -1975.5674 26.387707)
(4201.4457 -2037.6135 31.26334)
(4341.546 -2100.2644 36.106075)
(4480.2546 -2163.4856 40.409637)
(4618.3517 -2227.6895 44.734884)
(4756.3439 -2292.7334 48.929745)
(4894.711 -2358.4182 53.173088)
(0 0 0)
(0 0 0)
(0 0 0)
(0 0 0)
(0 0 0)
(0 0 0)
(0 0 0)
(-1.1104517 -13.366219 22.883177)
(-10.649079 -48.686646 44.315259)
(-20.435291 -49.575057 57.054969)
(-15.672388 -83.766941 67.861771)
(-4.4061226 -106.93516 76.601219)
(19.329322 -133.17916 79.113123)
(51.522663 -163.36702 80.742439)
(94.691241 -191.93938 78.17705)
(145.16861 -223.0292 74.210166)
(204.45854 -253.6441 67.15961)
(270.16047 -287.41867 60.815825)
(341.67951 -319.02156 52.042212)
(418.31951 -354.23605 44.13954)
(498.9341 -390.07605 36.765854)
(582.20527 -427.44595 30.712177)
(669.03606 -467.98812 26.01485)
(758.94942 -510.21373 22.516152)
(852.84446 -556.26812 20.063474)
(951.34369 -605.20761 18.188975)
(1055.3238 -657.92501 16.43231)
(1165.4741 -714.07595 14.472064)
(1282.341 -773.69429 11.893076)
(1406.2491 -836.32474 8.5745827)
(1536.7867 -901.38963 4.6153038)
(1673.7845 -968.88608 -0.059762527)
(1816.4219 -1037.298 -4.9243507)
(1961.7337 -1106.5947 -8.4922808)
(2111.1972 -1175.3734 -11.904881)
(2262.7322 -1243.978 -14.286598)
(2415.7351 -1311.9362 -15.806781)
(2569.3792 -1379.2111 -16.411597)
(2723.1733 -1445.8766 -16.140478)
(2876.7842 -1512.0113 -15.262018)
(3030.0189 -1577.6975 -13.892718)
(3182.5734 -1642.9777 -12.16543)
(3333.955 -1707.8657 -9.8356625)
(3484.8582 -1772.863 -7.3114304)
(3632.9893 -1836.3949 -3.584547)
(3779.9134 -1900.0067 0.59497125)
(3924.4894 -1962.9287 6.0968312)
(4066.8026 -2025.3774 12.349398)
(4207.3604 -2087.7319 19.350748)
(4346.2367 -2150.209 26.735754)
(4484.3358 -2213.1679 34.085003)
(4622.0831 -2276.954 41.040993)
(4760.26 -2341.5995 47.363183)
(4899.1397 -2407.092 52.897105)
(5104.8638 -2334.6011 62.303308)
(5171.8849 -2193.4845 65.736308)
(5239.2998 -2052.4306 68.692579)
(5305.3974 -1909.0278 71.307873)
(5372.0458 -1767.1632 73.96451)
(5437.6285 -1624.3477 76.858423)
(5502.7523 -1483.532 80.556459)
(5429.3553 -1276.9314 81.069214)
(5289.0416 -1210.3308 77.031754)
(5149.7701 -1143.8054 73.455837)
(5010.6914 -1075.8051 69.713895)
(4871.4019 -1006.7316 65.633669)
(4731.4267 -936.10752 61.316545)
(4590.0564 -864.02081 56.563605)
(4446.8675 -790.62619 51.529658)
(4301.4498 -716.30319 46.173212)
(4153.5432 -641.35699 40.64748)
(4003.3003 -566.63289 35.150836)
(3849.9032 -491.99293 29.306499)
(3694.4923 -418.43948 23.765857)
(3536.3265 -345.96016 17.934438)
(3375.85 -275.26679 11.931789)
(3213.0338 -206.56364 5.5993451)
(3048.0888 -140.35525 -1.1033043)
(2881.4468 -77.177547 -8.2492318)
(2713.5143 -17.678063 -15.597138)
(2545.2152 37.581123 -23.188268)
(2377.4552 87.884128 -30.546263)
(2211.3977 132.80873 -37.50492)
(2048.4212 171.94577 -43.630722)
(1889.6078 205.28324 -48.751961)
(1736.3074 232.89612 -52.474886)
(1589.2644 255.15593 -54.674284)
(1449.0735 272.69043 -55.372466)
(1315.9498 285.98223 -54.44228)
(1189.7408 295.78267 -52.256385)
(1070.0281 302.50314 -48.884151)
(956.32985 306.53914 -44.655233)
(847.85172 307.97796 -39.967964)
(744.16181 306.71903 -35.249012)
(645.16849 302.39554 -30.290436)
(550.85332 295.07674 -26.295641)
(460.74324 283.95968 -22.416329)
(376.36191 269.0635 -19.992225)
(298.01131 249.87901 -17.852041)
(226.42878 227.84254 -17.685542)
(164.15245 201.54699 -17.291819)
(110.68595 172.62353 -17.784523)
(65.826209 142.89036 -19.796156)
(33.507532 111.33039 -20.744608)
(9.381292 81.395117 -22.424593)
(-2.960949 55.404857 -22.924031)
(-6.8609467 27.883352 -21.267432)
(1.5567656 13.545144 -13.194589)
(0 0 0)
(0 0 0)
(0 0 0)
(0 0 0)
(0 0 0)
(0 0 0)
(0 0 0)
(0 0 0)
(0 0 0)
(0 0 0)
(0 0 0)
(0 0 0)
(0 0 0)
(0 0 0)
(5033.9768 -2430.4713 57.674487)
(5034.2116 -2436.2807 57.848074)
(5034.5768 -2442.0213 57.847942)
(5034.9748 -2447.7244 57.764687)
(5035.5012 -2453.551 57.87046)
(5036.16 -2459.7928 57.972708)
(5037.0284 -2466.2717 58.419732)
(5563.7789 -1301.8334 86.950072)
(5563.8217 -1308.9301 86.279926)
(5564.1983 -1315.5529 85.948058)
(5564.8821 -1321.8533 85.614876)
(5565.8418 -1327.8471 85.402018)
(5566.9425 -1333.4443 85.201143)
(5568.1814 -1339.0689 84.882472)
(-8.5053318 22.812564 30.640128)
(-15.90337 40.324264 36.502678)
(-18.344877 60.338135 49.744528)
(-10.476698 79.648708 57.98882)
(7.0948808 98.632188 64.95952)
(36.80772 117.0216 69.564435)
(76.615902 133.69441 71.426715)
(127.84635 149.22618 71.387427)
(188.71183 162.03174 68.593291)
(258.71537 173.08633 64.655814)
(336.23864 181.68294 59.09057)
(420.37694 188.05228 52.823358)
(510.02915 192.54991 46.483435)
(604.29751 194.89696 40.376844)
(702.82005 195.34501 34.843562)
(805.43265 193.98748 30.130159)
(912.34339 190.7011 26.346017)
(1023.9373 185.03683 23.341568)
(1140.9752 176.79914 21.065196)
(1264.039 165.36019 19.190784)
(1393.7495 150.26018 17.581601)
(1530.3428 130.83504 15.938271)
(1673.9719 106.71508 14.194029)
(1824.0334 77.44448 12.230378)
(1980.1895 42.986655 10.205016)
(2141.0737 3.0163628 7.9534218)
(2305.4299 -41.919034 6.0409638)
(2472.2342 -91.637252 4.3981399)
(2639.9832 -145.80398 3.2775446)
(2807.59 -203.66005 2.7306785)
(2974.3147 -264.86675 2.8436606)
(3139.4331 -328.9102 3.5343696)
(3302.6002 -395.19106 4.7772335)
(3463.6264 -463.45116 6.5636324)
(3622.3316 -533.07024 8.7222135)
(3778.6758 -603.7127 11.450431)
(3932.581 -674.99271 14.659887)
(4083.7965 -746.44626 18.609451)
(4232.5547 -817.76307 23.184376)
(4378.4499 -888.65948 28.723302)
(4522.2323 -958.74614 34.731173)
(4663.1805 -1028.2723 41.721394)
(4803.3153 -1096.9939 48.764809)
(4941.3311 -1164.8502 56.307242)
(5079.9117 -1232.8851 63.48655)
(5218.4328 -1299.7726 70.458176)
(5357.5471 -1366.3859 77.226176)
(-18.595015 18.348488 24.94935)
(-25.341877 30.003157 28.938622)
(-26.723088 47.769822 39.416863)
(-19.689282 59.670612 45.769393)
(-1.7483717 72.549054 51.401488)
(26.091745 83.647334 54.746368)
(64.921383 93.393717 56.801235)
(114.68863 101.21828 55.932285)
(173.68202 107.09914 54.419094)
(241.78768 111.32647 50.538437)
(317.40658 113.31595 45.888705)
(399.46813 113.80589 40.404122)
(486.96013 112.42093 34.650019)
(579.26254 109.44289 28.916193)
(675.63136 104.87156 23.667009)
(775.88741 98.611784 18.979251)
(880.36815 90.359691 15.018837)
(989.47795 79.811992 11.801327)
(1103.9861 66.544702 9.1920254)
(1224.5252 50.013905 7.0884689)
(1351.6911 29.674094 5.3078086)
(1485.8875 5.1915408 3.6843939)
(1626.8969 -23.842649 2.1745442)
(1774.8557 -57.626923 0.79297795)
(1928.5636 -96.453187 -0.64911718)
(2087.2488 -139.75711 -1.5797891)
(2249.6932 -187.86896 -2.3914265)
(2414.6346 -240.13815 -2.8765168)
(2580.7911 -296.0023 -2.7504586)
(2747.0958 -355.27064 -2.2217388)
(2912.7322 -417.29786 -1.1844854)
(3076.9436 -481.67001 0.35382381)
(3239.4269 -547.98724 2.3069721)
(3399.8794 -615.81883 4.6271084)
(3558.1666 -684.70426 7.3192357)
(3714.1626 -754.49035 10.488756)
(3867.8732 -824.52379 13.985277)
(4018.8268 -894.71833 18.221718)
(4167.619 -964.66102 22.859837)
(4313.2466 -1034.1469 28.266991)
(4457.1388 -1103.2212 34.155384)
(4597.9733 -1171.5231 40.605524)
(4738.0618 -1239.7158 47.3005)
(4876.064 -1306.8612 54.077847)
(5014.6407 -1374.5253 60.855366)
(5152.6324 -1440.9689 67.378487)
(5291.4147 -1507.6042 74.006941)
(-24.582122 12.557474 17.200749)
(-30.956705 21.085406 20.512505)
(-34.239301 30.788119 28.275183)
(-26.195532 38.082359 33.030487)
(-10.105091 44.385252 37.725522)
(17.748016 49.542212 40.988983)
(55.373437 51.895235 41.897034)
(103.56719 53.453415 42.396361)
(161.13424 52.539194 40.579821)
(227.75589 50.186152 37.544374)
(301.29003 46.202019 33.617955)
(381.32078 40.568799 28.812745)
(466.64464 33.640542 23.541981)
(556.33688 25.185114 18.370445)
(650.10605 15.360499 13.44438)
(748.00498 3.7923355 8.61576)
(849.98743 -9.6197491 4.522633)
(956.71573 -25.29753 0.79109833)
(1068.7865 -43.687415 -2.1918468)
(1186.766 -65.205923 -4.7262537)
(1311.3152 -90.288457 -6.6663174)
(1442.7051 -119.3821 -8.2586431)
(1581.5234 -152.80226 -9.4115268)
(1726.7225 -190.92555 -10.370243)
(1878.0975 -233.27496 -10.718125)
(2034.6418 -280.21641 -11.018507)
(2195.2765 -331.21831 -10.961249)
(2358.5146 -385.85181 -10.27237)
(2523.1979 -443.79861 -9.2328655)
(2688.2136 -504.5948 -7.8102787)
(2852.6869 -567.60375 -5.9099512)
(3015.9657 -632.64901 -3.6898884)
(3177.6571 -699.17109 -1.1700308)
(3337.4596 -766.83318 1.6295672)
(3495.2204 -835.44294 4.7585779)
(3650.8471 -904.48891 8.1643836)
(3804.0541 -973.77575 11.977173)
(3955.0297 -1043.0912 16.316301)
(4103.3004 -1112.1181 21.024359)
(4249.037 -1180.7955 26.524155)
(4392.4669 -1248.8606 32.150651)
(4533.2998 -1316.6258 38.613301)
(4673.1149 -1383.7873 44.752878)
(4810.8298 -1450.716 51.604148)
(4948.9288 -1517.5598 57.816341)
(5086.4779 -1583.9598 64.350723)
(5225.1751 -1650.4777 70.388734)
(-28.108323 5.4686485 9.153127)
(-35.757674 7.9284704 11.352039)
(-38.091413 12.101488 16.438104)
(-31.837842 13.67633 20.98044)
(-15.198439 13.688035 24.512675)
(11.317289 13.065529 26.566048)
(47.98218 9.1416232 28.42725)
(94.941354 4.7124044 27.903348)
(151.2364 -2.5743201 26.763025)
(215.76152 -10.746899 24.431559)
(287.49749 -21.198643 21.004461)
(365.60427 -32.710532 16.649248)
(448.62856 -45.622548 11.818353)
(536.15095 -60.045248 6.9737733)
(627.65859 -75.489257 1.736181)
(723.11328 -92.73711 -2.9658258)
(822.50078 -111.46929 -7.5034613)
(926.66934 -132.59078 -11.388608)
(1035.9227 -156.13275 -14.734241)
(1151.3194 -182.82888 -17.457333)
(1273.3896 -212.91987 -19.675039)
(1402.8967 -246.92809 -21.325177)
(1538.7947 -285.01402 -22.362565)
(1681.8082 -327.05673 -22.710458)
(1830.9746 -373.34364 -22.761722)
(1985.3733 -423.4937 -22.092498)
(2143.6499 -477.28359 -20.634373)
(2304.6957 -534.38633 -18.739766)
(2467.3546 -594.28927 -16.485448)
(2630.5073 -656.50075 -13.734914)
(2793.3438 -720.57874 -10.785807)
(2955.183 -786.17292 -7.5777183)
(3115.6255 -852.79257 -4.242994)
(3274.3952 -920.25319 -0.7129933)
(3431.3364 -988.18781 2.9522798)
(3586.1756 -1056.431 6.8861707)
(3739.0289 -1124.6929 11.065071)
(3889.3529 -1192.8623 15.660717)
(4037.3501 -1260.7285 20.677786)
(4182.7486 -1328.1416 25.985733)
(4326.0818 -1395.3009 31.664044)
(4466.8937 -1461.9036 37.525261)
(4606.622 -1528.4848 43.553002)
(4744.3737 -1594.5442 49.564691)
(4882.7178 -1661.0028 55.402306)
(5020.4291 -1727.0587 61.088673)
(5159.1227 -1793.4983 66.726652)
(-29.22587 0.47000961 0.84571824)
(-34.596668 -0.51568171 0.89108733)
(-40.345114 -3.431557 5.6063205)
(-33.319728 -8.4135177 8.1697936)
(-18.209458 -14.484329 10.487574)
(7.6739628 -22.48051 12.962443)
(43.075632 -32.749158 13.838242)
(89.123694 -44.221077 13.896476)
(143.42287 -58.165317 13.305324)
(206.60875 -73.18081 11.269429)
(276.411 -90.098488 8.2131152)
(352.24763 -107.45205 4.5229147)
(432.86021 -126.70874 0.3502471)
(517.94792 -146.39657 -4.4528571)
(606.76963 -167.68945 -9.2598129)
(699.44956 -190.10742 -14.08847)
(796.25089 -214.25636 -18.797725)
(897.57046 -240.42311 -22.991884)
(1004.2759 -268.95281 -26.754742)
(1116.906 -300.44444 -29.732475)
(1236.4477 -334.89734 -32.209415)
(1362.4436 -373.28445 -33.395603)
(1496.2038 -415.30697 -34.035638)
(1636.5272 -461.35549 -33.889918)
(1783.4235 -511.1201 -32.866909)
(1935.32 -564.40959 -30.977806)
(2091.5967 -621.11065 -28.549892)
(2250.8106 -680.58898 -25.731415)
(2411.7241 -742.37345 -22.384835)
(2573.2774 -806.01191 -18.830001)
(2734.6265 -871.08677 -15.070349)
(2895.1535 -937.19779 -11.227837)
(3054.409 -1004.0343 -7.3146294)
(3212.2229 -1071.2392 -3.3978713)
(3368.2467 -1138.7875 0.68675147)
(3522.5558 -1206.293 4.8615644)
(3674.7405 -1273.7445 9.2628002)
(3824.8236 -1340.9998 14.031729)
(3972.4756 -1407.8916 18.891477)
(4117.9402 -1474.5928 24.212439)
(4260.937 -1540.8489 29.594259)
(4401.9069 -1607.0212 35.489891)
(4541.1722 -1672.7287 40.988412)
(4679.1631 -1738.6046 46.92304)
(4817.0964 -1804.4573 52.237792)
(4954.4678 -1870.4456 57.897335)
(5092.9889 -1936.6886 63.028042)
(-25.879664 -8.4499534 -9.5233943)
(-31.860293 -15.137057 -7.0071696)
(-37.984253 -24.08517 -6.5980403)
(-32.224542 -33.913502 -4.8474963)
(-17.894077 -45.905167 -3.1567633)
(6.7412865 -59.722476 -1.5215502)
(41.674669 -76.033163 -0.74034282)
(86.227198 -93.980825 -0.19493699)
(139.67254 -114.30973 -0.82987437)
(201.18936 -135.56886 -2.2309049)
(269.18355 -158.78937 -4.5343778)
(342.84199 -182.72449 -7.738402)
(421.4317 -207.78935 -11.895465)
(504.13572 -233.64272 -16.388518)
(590.47688 -260.61731 -21.381386)
(680.60515 -288.82314 -26.445577)
(774.59101 -318.60518 -31.537209)
(873.15352 -350.25087 -36.177813)
(976.83676 -384.33771 -40.369259)
(1086.5154 -420.99552 -43.746718)
(1202.6563 -461.08597 -46.322399)
(1326.5323 -503.73317 -47.498363)
(1456.608 -550.62696 -48.128791)
(1594.1671 -601.42925 -47.124877)
(1737.8851 -654.98887 -45.270073)
(1887.0034 -711.96034 -42.478293)
(2040.7062 -771.4827 -38.911787)
(2197.3174 -833.17689 -34.591577)
(2355.8822 -896.57735 -29.977925)
(2515.3127 -961.42146 -25.104309)
(2674.7112 -1027.0803 -20.227996)
(2833.5294 -1093.3053 -15.379797)
(2991.3489 -1159.7788 -10.691774)
(3147.8976 -1226.3841 -6.0780104)
(3303.029 -1292.9063 -1.4936913)
(3456.5248 -1359.2855 3.1087379)
(3608.2766 -1425.5037 7.8806561)
(3757.9793 -1491.3965 12.768896)
(3905.6466 -1557.0864 18.052)
(4050.93 -1622.3305 23.239419)
(4194.0473 -1687.4705 28.839103)
(4334.9646 -1752.3728 34.196778)
(4474.3842 -1817.2136 39.621224)
(4612.607 -1882.1396 44.864158)
(4750.4524 -1947.2568 49.968795)
(4888.3136 -2012.7152 54.915625)
(5026.9766 -2078.7678 59.572206)
(-21.439409 -13.934213 -14.886132)
(-27.385766 -21.47778 -15.210301)
(-34.302112 -37.312468 -18.076802)
(-28.939543 -53.533192 -17.612564)
(-15.873232 -72.388491 -17.317916)
(8.8203746 -94.665087 -16.030325)
(42.341253 -118.81583 -15.357639)
(85.824626 -144.99024 -14.53164)
(137.56945 -172.82126 -14.665741)
(197.14524 -201.16793 -15.285394)
(263.24434 -231.38911 -16.875244)
(334.55722 -260.97489 -19.919284)
(410.89326 -292.04704 -23.133281)
(490.80781 -323.09422 -27.54248)
(574.67795 -355.29111 -32.32968)
(661.9404 -388.37192 -37.614519)
(753.23258 -423.13531 -42.899035)
(848.84364 -459.77525 -48.025015)
(949.61693 -498.90714 -52.616565)
(1056.238 -540.76795 -56.433313)
(1169.6102 -585.7082 -59.16187)
(1289.5543 -633.82526 -60.607618)
(1417.4635 -685.35299 -60.634459)
(1551.8457 -740.30458 -59.190149)
(1692.8267 -797.72003 -56.724939)
(1839.3322 -857.97104 -52.743161)
(1990.3477 -920.30425 -47.943874)
(2144.7218 -984.16789 -42.502368)
(2301.1172 -1049.4136 -36.715554)
(2458.4652 -1115.3083 -30.749822)
(2615.9551 -1181.5216 -24.945254)
(2773.066 -1247.8019 -19.335896)
(2929.3388 -1313.9127 -13.999021)
(3084.6476 -1379.7807 -8.877544)
(3238.6878 -1445.3317 -3.8623934)
(3391.4919 -1510.4626 1.0657412)
(3542.6737 -1575.3991 6.1496112)
(3692.1607 -1639.9567 11.31603)
(3839.515 -1704.1759 16.502407)
(3984.9167 -1768.3087 21.90517)
(4127.9255 -1832.1702 27.191181)
(4268.9771 -1896.1292 32.488791)
(4408.3635 -1960.0006 37.511709)
(4546.595 -2024.2946 42.531175)
(4684.3747 -2088.7427 47.172493)
(4822.298 -2153.9254 51.888789)
(4960.9748 -2219.6316 56.383978)
(0 0 0)
(0 0 0)
(0 0 0)
(0 0 0)
(0 0 0)
(0 0 0)
(0 0 0)
(0 0 0)
(0 0 0)
(0 0 0)
(0 0 0)
(0 0 0)
(0 0 0)
(0 0 0)
(0 0 0)
(0 0 0)
(0 0 0)
(0 0 0)
(0 0 0)
(0 0 0)
(0 0 0)
(0 0 0)
(0 0 0)
(0 0 0)
(0 0 0)
(0 0 0)
(0 0 0)
(0 0 0)
(0 0 0)
(0 0 0)
(0 0 0)
(0 0 0)
(0 0 0)
(0 0 0)
(0 0 0)
(0 0 0)
(0 0 0)
(0 0 0)
(0 0 0)
(0 0 0)
(0 0 0)
(0 0 0)
(0 0 0)
(0 0 0)
(0 0 0)
(0 0 0)
(0 0 0)
(0 0 0)
(0 0 0)
(-6.6795468 -1.4063968 -12.812071)
(-4.4798184 -4.0501702 -8.3456053)
(-0.54738843 -4.2042447 -2.7718248)
(0.77760893 -4.6419961 2.201135)
(0.77000938 -4.3323655 6.2102212)
(0.65295854 -5.2816668 10.478577)
(-0.11670666 -0.12625653 13.304905)
(-8.1845225 -30.069578 -15.848836)
(-2.4779469 -36.665817 -6.1850933)
(0.55337653 -32.737287 1.4205727)
(1.8588239 -31.282113 8.9711399)
(2.9892254 -34.672014 16.281635)
(-0.41937523 -33.687127 23.715411)
(-2.6882757 -33.458375 34.636445)
(-14.473085 -42.323247 -19.219989)
(-4.8613578 -39.879206 -11.065514)
(1.0496736 -45.274337 3.2509462)
(1.9218343 -44.866228 13.159797)
(1.5780401 -42.66131 24.491429)
(-1.7103864 -42.396789 32.765178)
(-7.4964991 -47.733688 48.525477)
(-6.2901698 -72.732964 -18.050135)
(2.2105268 -75.78091 -7.2890227)
(6.5733386 -75.184182 7.4347785)
(8.8809458 -75.17033 17.4977)
(8.0009687 -75.055143 29.74573)
(3.8668895 -77.128438 44.24676)
(-5.1585159 -74.513171 54.975441)
(7.9124327 -101.89527 -19.476747)
(17.740794 -102.54652 -6.3489873)
(24.705878 -104.58979 8.4041118)
(25.822546 -103.63144 22.542823)
(24.970461 -103.80156 35.931248)
(20.041635 -102.89389 49.161217)
(11.892546 -104.33392 64.99474)
(32.35925 -133.81379 -16.900133)
(40.938331 -134.69307 -3.1915723)
(46.392698 -134.40359 11.840963)
(48.614861 -135.24072 24.664809)
(46.777275 -133.83467 39.309626)
(41.017483 -133.79284 53.644774)
(31.922359 -132.09422 66.740425)
(63.759223 -166.79317 -17.052362)
(73.501108 -168.24576 -2.5442806)
(79.881175 -169.66448 11.900732)
(81.413067 -168.84671 25.71953)
(80.576362 -168.94478 40.704835)
(75.37137 -168.0504 54.15404)
(66.381368 -166.19074 69.175586)
(105.6744 -202.24045 -15.632059)
(114.64012 -203.65358 -1.9917786)
(119.85742 -202.88346 12.713808)
(122.26857 -202.77101 25.970125)
(120.32 -201.04085 39.70873)
(115.52971 -198.61784 53.114628)
(106.48667 -195.6944 66.318114)
(154.40411 -236.96252 -16.281302)
(163.12812 -237.97493 -2.2170914)
(169.29828 -238.30172 10.784726)
(170.87941 -237.40146 23.99373)
(170.15216 -236.34753 37.236077)
(165.36109 -233.95441 50.239431)
(157.66765 -230.57619 63.516419)
(210.91128 -272.30669 -16.653908)
(219.55188 -273.5115 -4.0553422)
(224.71164 -272.52287 8.2851623)
(227.31628 -272.21309 20.947535)
(226.18811 -269.48672 33.117362)
(222.07088 -266.38087 45.156214)
(214.49963 -261.68125 56.89815)
(273.81998 -307.58646 -18.68015)
(281.92544 -308.25458 -6.9695822)
(287.62292 -307.43703 4.9226185)
(289.83287 -305.91182 16.148373)
(289.31421 -303.80747 27.812142)
(285.74207 -300.80965 39.020174)
(279.33361 -296.09036 50.664923)
(342.01524 -341.8807 -21.996361)
(350.56429 -342.75412 -10.492478)
(355.82788 -341.70095 -0.17027389)
(358.58568 -341.059 10.993865)
(358.40924 -338.31818 21.832327)
(355.28079 -334.53201 31.907614)
(350.05278 -329.26652 42.809342)
(415.57423 -377.41297 -25.468884)
(423.48591 -377.6485 -15.267224)
(429.05447 -376.82807 -5.2295823)
(432.11434 -375.16586 5.0191733)
(432.03968 -372.22134 15.333232)
(429.60981 -369.03823 24.882147)
(424.94428 -363.26281 34.951848)
(492.97315 -412.26395 -30.398812)
(500.97079 -412.83894 -20.486175)
(507.03162 -412.03889 -11.184009)
(510.05957 -410.6554 -1.0946876)
(510.61267 -408.55661 8.8145923)
(508.76922 -404.55235 17.735177)
(504.99817 -399.13883 27.890045)
(574.44612 -449.14351 -35.702062)
(582.68578 -449.56127 -26.022935)
(588.68183 -448.67929 -17.004959)
(592.16179 -447.47834 -6.8723828)
(592.95169 -444.747 2.5809536)
(591.49032 -440.96573 11.801772)
(588.00949 -435.49233 21.717708)
(659.84082 -486.90042 -41.390316)
(668.06137 -487.44942 -31.81369)
(674.54205 -487.30172 -22.721191)
(678.17064 -486.08644 -12.758399)
(679.23258 -484.04962 -2.805597)
(678.01683 -480.34621 6.2170544)
(674.82985 -475.05944 16.769098)
(748.94344 -527.22284 -47.19002)
(757.50112 -528.27354 -37.328464)
(764.25358 -528.28567 -28.178625)
(767.98289 -527.27277 -17.60537)
(769.36229 -525.47056 -7.6505457)
(768.20235 -521.66075 1.8925576)
(765.13431 -516.82029 12.974214)
(842.51275 -570.32015 -52.653726)
(851.25914 -571.71121 -42.727014)
(858.32431 -572.3674 -32.979083)
(862.20485 -571.86509 -22.240608)
(863.73124 -570.33473 -11.755034)
(862.55324 -566.94339 -1.7403912)
(859.47023 -562.20746 10.055168)
(940.77703 -616.70286 -57.723926)
(949.71143 -618.64282 -47.273386)
(957.08371 -619.88974 -37.233281)
(960.93061 -619.59069 -26.046107)
(962.71632 -618.60432 -15.096631)
(961.42783 -615.30779 -4.6429874)
(958.36641 -611.13299 7.8028904)
(1044.3992 -666.56718 -61.766859)
(1053.5855 -669.13443 -51.124043)
(1060.9963 -671.00128 -40.793598)
(1064.9715 -671.3853 -29.26607)
(1066.8708 -670.72177 -18.053129)
(1065.5365 -667.97321 -7.187204)
(1062.5265 -663.92555 5.7613207)
(1154.0493 -720.03797 -64.788918)
(1163.1252 -723.24536 -54.019627)
(1170.6665 -725.83426 -43.478099)
(1174.6631 -726.51005 -31.900915)
(1176.6846 -726.48075 -20.49167)
(1175.4326 -723.92895 -9.4703457)
(1172.5124 -720.39959 3.7068679)
(1269.9666 -776.84183 -66.392153)
(1278.9753 -780.75185 -55.729557)
(1286.4548 -783.84991 -45.307792)
(1290.3989 -785.15897 -33.940619)
(1292.5917 -785.46725 -22.638343)
(1291.4074 -783.53177 -11.733501)
(1288.7842 -780.42657 1.2832111)
(1392.5306 -836.74146 -66.376957)
(1401.2065 -841.07578 -56.207428)
(1408.4525 -844.75575 -46.274495)
(1412.3876 -846.49954 -35.36152)
(1414.5892 -847.5789 -24.495273)
(1413.8144 -846.09345 -14.113488)
(1411.6133 -843.47791 -1.6106976)
(1521.6769 -898.7144 -64.851726)
(1529.7908 -903.89858 -55.548412)
(1536.7108 -907.89029 -46.295268)
(1540.4488 -910.38926 -36.136763)
(1543.0155 -911.5727 -26.175666)
(1542.571 -910.52773 -16.354819)
(1540.8964 -908.55477 -4.8739069)
(1656.8175 -962.77344 -62.154159)
(1664.5184 -968.27783 -53.529496)
(1670.6809 -972.41746 -45.521984)
(1674.6566 -975.52827 -36.17827)
(1676.9197 -976.96707 -27.389605)
(1677.0066 -977.03079 -18.520075)
(1675.9399 -975.88081 -8.6918669)
(1797.5097 -1027.7334 -57.841185)
(1804.5359 -1033.4501 -50.641122)
(1809.9535 -1038.2261 -43.809376)
(1813.8442 -1041.489 -35.238304)
(1815.9529 -1043.2444 -28.414174)
(1817.0054 -1043.8803 -20.522752)
(1816.7661 -1043.1699 -12.527753)
(1942.9706 -1093.3167 -52.68149)
(1949.0815 -1099.2487 -47.193451)
(1953.861 -1104.2987 -40.771065)
(1957.6979 -1107.9676 -34.768069)
(1960.1334 -1110.34 -28.123774)
(1961.4487 -1111.4008 -21.473316)
(1961.3691 -1111.1412 -14.793526)
(2092.5084 -1159.1265 -46.815324)
(2097.1438 -1165.1503 -42.531743)
(2101.7452 -1170.4721 -37.447031)
(2104.7644 -1174.0555 -32.941238)
(2107.4095 -1176.944 -27.221118)
(2108.9962 -1178.1123 -22.522766)
(2109.6438 -1179.1271 -16.874325)
(2244.3291 -1224.4827 -40.751754)
(2248.3682 -1230.6532 -37.36854)
(2251.7593 -1235.9408 -34.092222)
(2254.9145 -1239.8864 -30.195496)
(2257.107 -1243.1328 -26.290065)
(2259.2277 -1244.999 -22.473509)
(2260.3619 -1246.4896 -18.131058)
(2398.1047 -1289.5611 -34.304945)
(2400.969 -1295.5987 -32.449897)
(2404.0377 -1301.1035 -29.836433)
(2406.5976 -1305.253 -27.424749)
(2408.8632 -1308.9296 -24.454772)
(2411.2046 -1311.1677 -21.779643)
(2412.7408 -1313.2435 -18.569299)
(2552.5329 -1354.1156 -28.400668)
(2554.8073 -1360.2106 -27.26418)
(2557.1567 -1365.7098 -25.832839)
(2559.4601 -1370.1198 -24.210637)
(2561.6557 -1374.023 -22.303221)
(2564.0408 -1376.7571 -20.499297)
(2565.9908 -1379.3473 -18.273187)
(2707.2941 -1418.309 -22.58333)
(2708.9021 -1424.2485 -22.389496)
(2710.7942 -1429.8587 -21.5797)
(2712.7995 -1434.4606 -20.878952)
(2714.8929 -1438.6939 -19.713986)
(2717.3199 -1441.9604 -18.717906)
(2719.5788 -1444.9821 -17.234733)
(2861.7509 -1482.0161 -17.269742)
(2862.8764 -1487.9647 -17.612732)
(2864.344 -1493.6604 -17.506111)
(2866.0753 -1498.5157 -17.436991)
(2868.1031 -1503.0667 -16.933449)
(2870.525 -1506.7647 -16.581077)
(2873.0354 -1510.2603 -15.718139)
(3015.6225 -1545.4912 -12.15325)
(3016.3348 -1551.4357 -13.019739)
(3017.4868 -1557.1806 -13.395893)
(3019.022 -1562.248 -13.862023)
(3021.0062 -1567.046 -13.893878)
(3023.3866 -1571.2775 -14.13635)
(3026.0748 -1575.2337 -13.781565)
(3168.6232 -1608.6437 -7.2608012)
(3169.0266 -1614.5667 -8.4558289)
(3169.8976 -1620.4048 -9.3075406)
(3171.261 -1625.7228 -10.196018)
(3173.1743 -1630.796 -10.779368)
(3175.5438 -1635.4303 -11.436025)
(3178.4778 -1639.865 -11.590014)
(3320.5935 -1671.5279 -2.3332293)
(3320.7178 -1677.4669 -3.8241948)
(3321.3755 -1683.3605 -5.0428047)
(3322.6388 -1688.8341 -6.3063869)
(3324.5286 -1694.1215 -7.2070929)
(3326.9136 -1699.4429 -8.3029912)
(3329.9624 -1704.2427 -8.9030422)
(3471.3192 -1734.1995 2.7108093)
(3471.1608 -1740.0595 0.95600638)
(3471.6467 -1746.0285 -0.53318991)
(3472.7842 -1751.6435 -2.1652888)
(3474.6318 -1757.2937 -3.3174341)
(3476.8969 -1762.3748 -5.0286349)
(3480.0245 -1768.199 -6.214286)
(3620.4192 -1796.1064 7.9590384)
(3620.1872 -1802.2547 5.7985129)
(3620.5135 -1808.2266 4.225008)
(3621.5843 -1813.9603 2.3375158)
(3623.2618 -1819.7637 0.79276442)
(3625.8915 -1825.6271 -0.86629103)
(3628.8627 -1831.2655 -2.0499134)
(3768.0938 -1858.2184 13.293863)
(3767.5883 -1864.16 11.315634)
(3767.7958 -1870.1716 9.4792011)
(3768.7204 -1875.9856 7.5036422)
(3770.4127 -1881.8561 5.928045)
(3772.7058 -1887.6763 3.9440314)
(3775.5553 -1893.9098 2.2082009)
(3913.7796 -1919.9061 18.833085)
(3913.233 -1925.8464 16.77528)
(3913.3164 -1931.8817 14.885032)
(3914.1968 -1937.7288 13.038893)
(3915.7034 -1943.6648 11.255591)
(3917.9006 -1949.7236 9.2844594)
(3920.7314 -1956.1451 7.6790899)
(4057.6051 -1981.5702 24.340888)
(4056.984 -1987.5555 22.37328)
(4057.0048 -1993.6242 20.697844)
(4057.7283 -1999.4531 18.811995)
(4059.1147 -2005.4652 17.192874)
(4061.1523 -2011.5341 15.437485)
(4063.6313 -2018.0547 13.809675)
(4199.6229 -2043.5201 29.641518)
(4199.0736 -2049.4713 27.931143)
(4199.0949 -2055.5105 26.49227)
(4199.6922 -2061.3753 24.873288)
(4200.9758 -2067.3828 23.489964)
(4202.6677 -2073.4929 21.916742)
(4204.8652 -2080.0042 20.562949)
(4340.0536 -2105.9956 34.78272)
(4339.5989 -2111.969 33.432517)
(4339.5873 -2118.0378 32.310655)
(4340.0906 -2123.8935 30.927312)
(4341.2313 -2129.8786 29.814438)
(4342.6032 -2135.9829 28.612747)
(4344.5071 -2142.3992 27.638067)
(4479.2794 -2169.1696 39.619925)
(4479.0569 -2175.1306 38.716011)
(4479.1055 -2181.1506 37.875435)
(4479.6036 -2187.0368 36.868816)
(4480.565 -2193.0266 36.121544)
(4481.667 -2199.1591 35.237623)
(4483.2126 -2205.4915 34.639823)
(4617.8411 -2233.2779 44.276037)
(4617.774 -2239.2909 43.729369)
(4617.8988 -2245.2897 43.205998)
(4618.3391 -2251.1949 42.568617)
(4619.2206 -2257.1449 42.065767)
(4620.0576 -2263.2743 41.498174)
(4621.3601 -2269.5377 41.318787)
(4756.2568 -2298.3653 48.761233)