/*--------------------------------*- C++ -*----------------------------------*\
  =========                 |
  \\      /  F ield         | OpenFOAM: The Open Source CFD Toolbox
   \\    /   O peration     | Website:  https://openfoam.org
    \\  /    A nd           | Version:  6
     \\/     M anipulation  |
\*---------------------------------------------------------------------------*/
FoamFile
{
    version     2.0;
    format      ascii;
    class       pointVectorField;
    location    "0.29";
    object      lm;
}
// * * * * * * * * * * * * * * * * * * * * * * * * * * * * * * * * * * * * * //

dimensions      [1 -2 -1 0 0 0 0];

internalField   nonuniform List<vector> 
28033
(
(0 0 0)
(0 0 0)
(4466.5435 -64.515374 -31.653667)
(4315.2348 -909.2218 17.323944)
(0 0 0)
(0 0 0)
(4311.8025 -905.11119 -21.19339)
(4466.397 -61.446033 21.712031)
(0 0 0)
(0 0 0)
(0 0 0)
(0 0 0)
(0 0 0)
(0 0 0)
(0 0 0)
(0 0 0)
(0 0 0)
(0 0 0)
(0 0 0)
(0 0 0)
(0 0 0)
(0 0 0)
(0 0 0)
(4456.5504 -117.60536 -27.823354)
(4445.8308 -170.22877 -24.440923)
(4435.1777 -222.45171 -20.856893)
(4424.4592 -274.49819 -17.303751)
(4413.9501 -326.42283 -14.150746)
(4403.8673 -378.28555 -11.086914)
(4394.0703 -430.35077 -8.1310288)
(4384.6341 -482.46195 -5.3856239)
(4375.5335 -534.81573 -2.6863116)
(4366.771 -587.43736 -0.083367051)
(4358.2291 -640.39437 2.424208)
(4349.918 -693.62757 5.1152169)
(4341.6945 -747.21335 7.8751742)
(4333.3748 -801.03169 10.750493)
(4324.7818 -855.0765 13.861304)
(54.740075 78.905506 76.552539)
(85.132138 115.22313 98.492904)
(122.54191 147.5651 108.23733)
(166.24469 177.99663 111.81757)
(214.44948 204.09073 107.18553)
(268.01142 227.69499 99.087261)
(325.07987 247.39373 87.253799)
(384.39684 263.60502 73.689352)
(444.71462 276.61015 59.333751)
(504.49948 285.97157 45.296875)
(562.13714 292.48821 32.424597)
(617.05583 296.64017 21.404207)
(668.41861 298.77242 12.652145)
(716.26579 299.38496 6.1087045)
(760.52467 298.93655 1.8753058)
(801.9305 297.87987 -0.81573287)
(841.0381 296.35654 -2.1381377)
(878.6899 294.46543 -2.7821513)
(915.57096 292.39317 -3.2686619)
(952.23542 289.95153 -4.0209545)
(989.09116 287.1634 -5.1346491)
(1026.1122 283.89267 -6.8579982)
(1063.1579 280.12484 -8.8150415)
(1100.0031 275.90181 -10.950266)
(1136.01 271.26824 -12.829217)
(1170.8404 266.45359 -14.091947)
(1203.9497 261.55625 -14.351816)
(1235.339 257.07261 -13.541268)
(1264.6995 253.04305 -11.291257)
(1292.3641 249.92934 -7.9281876)
(1318.9657 247.94808 -3.4545409)
(1344.7545 247.16886 1.8452988)
(1370.6437 247.49321 7.4820596)
(1397.5982 249.16508 13.100504)
(1426.2135 251.93116 18.187963)
(1457.29 255.41795 22.709194)
(1491.4268 259.36429 25.936264)
(1529.0832 263.52702 27.864326)
(1570.2615 267.40811 28.493559)
(1615.0503 270.63594 27.738863)
(1663.2041 273.00093 25.710382)
(1714.3111 274.1085 22.604515)
(1767.7842 273.82434 18.716858)
(1822.9673 271.99591 14.308464)
(1879.188 268.61763 9.7017317)
(1935.6865 263.71248 5.2308509)
(1991.793 257.42099 1.1814472)
(2046.8643 249.93511 -2.1484076)
(2100.3619 241.50312 -4.5329975)
(2151.8705 232.41326 -5.7836972)
(2201.1061 222.97662 -5.7877706)
(2247.9534 213.497 -4.5035568)
(2292.4477 204.2756 -1.9764074)
(2334.7955 195.56018 1.6637373)
(2375.3462 187.56712 6.2047887)
(2414.5788 180.43193 11.36196)
(2453.0614 174.23717 16.793945)
(2491.4183 168.97781 22.135081)
(2530.2701 164.59036 27.009918)
(2570.1939 160.95078 31.08297)
(2611.6792 157.88505 34.065383)
(2655.0717 155.1905 35.777494)
(2700.5904 152.66754 36.102064)
(2748.2418 150.11381 35.082662)
(2797.9507 147.3627 32.807119)
(2849.4374 144.24248 29.557213)
(2902.3314 140.7561 25.50985)
(2956.2249 136.67545 21.074901)
(3010.6882 132.29464 16.469351)
(3065.3632 127.38617 12.152725)
(3119.8032 122.21102 8.3007683)
(3173.9121 116.74539 5.0234829)
(3227.471 111.12418 2.4896555)
(3280.413 105.38583 0.7474314)
(3332.8024 99.622976 -0.2359202)
(3384.6859 93.800338 -0.53532608)
(3436.2702 88.007942 -0.29263174)
(3487.6519 82.136527 0.36021999)
(3539.0971 76.245835 1.2208356)
(3590.6986 70.190872 2.1285182)
(3642.6923 64.000729 2.8999588)
(3695.1594 57.522405 3.3412172)
(3748.2155 50.792743 3.3238752)
(3801.9931 43.700536 2.6732986)
(3856.4278 36.24351 1.3887584)
(3911.5976 28.334168 -0.63350236)
(3967.2885 20.106859 -3.370502)
(4023.5777 11.370052 -6.7231066)
(4080.0849 2.4515871 -10.585783)
(4136.7867 -6.9500837 -14.687706)
(4193.2493 -16.336292 -18.887169)
(4249.4643 -26.103023 -22.774073)
(4304.9343 -35.56063 -26.187756)
(4359.576 -45.279188 -28.841751)
(4413.4433 -54.823082 -30.227822)
(23.820776 -79.300766 -97.980695)
(66.442724 -107.00069 -93.724305)
(106.62705 -146.62568 -111.80346)
(144.53033 -168.16466 -106.42359)
(195.34089 -196.45186 -101.83308)
(248.49767 -220.6132 -90.222408)
(305.09512 -240.63227 -76.784695)
(364.53897 -259.38716 -61.100053)
(424.48624 -274.25305 -45.627035)
(482.90332 -286.4921 -30.936305)
(539.22172 -295.8327 -18.063289)
(591.97801 -302.71169 -7.8382483)
(640.63287 -307.74381 -0.19719152)
(685.40507 -310.86943 4.5528337)
(726.51338 -313.10967 6.9881194)
(764.56538 -314.27509 7.5654443)
(800.68816 -315.15971 6.959177)
(835.5737 -315.70264 6.0435861)
(870.2209 -316.16731 5.168861)
(905.16609 -316.56669 5.0295734)
(940.77265 -316.90951 5.8920684)
(977.13254 -317.10139 7.5330269)
(1013.7205 -317.09989 10.086517)
(1050.4154 -316.92898 12.951715)
(1086.4254 -316.39914 15.86256)
(1121.149 -315.81677 18.2107)
(1154.054 -315.17066 19.756769)
(1184.8713 -314.72004 19.936784)
(1213.3823 -314.7264 19.010276)
(1239.9275 -315.48686 16.531798)
(1264.7318 -317.24516 13.104409)
(1288.7184 -320.31555 8.8919876)
(1312.4038 -324.9195 4.225557)
(1336.7263 -331.12488 -0.42419442)
(1362.551 -338.99808 -4.6618327)
(1390.4567 -348.5208 -8.1786737)
(1421.2817 -359.33244 -10.64458)
(1455.4774 -371.36092 -11.920785)
(1493.0809 -384.25268 -11.929672)
(1534.26 -397.60557 -10.769996)
(1578.8381 -411.07299 -8.5322623)
(1626.5184 -424.27564 -5.3923179)
(1676.8575 -436.8871 -1.5823231)
(1729.3031 -448.61474 2.6509634)
(1783.2278 -459.24729 7.0393642)
(1837.9627 -468.6361 11.309496)
(1892.8158 -476.71764 15.184565)
(1947.1236 -483.50032 18.402172)
(2000.265 -489.07149 20.712623)
(2051.7121 -493.57665 21.904816)
(2101.0521 -497.22392 21.813386)
(2148.0212 -500.25492 20.342956)
(2192.526 -502.94415 17.482002)
(2234.6548 -505.57409 13.316773)
(2274.6731 -508.42227 8.0352123)
(2313.0111 -511.74601 1.9244128)
(2350.2273 -515.76698 -4.6484594)
(2386.9639 -520.65904 -11.260323)
(2423.8946 -526.54078 -17.468919)
(2461.6649 -533.47172 -22.852885)
(2500.8361 -541.44567 -27.052796)
(2541.8412 -550.40834 -29.804543)
(2584.9523 -560.24613 -30.96832)
(2630.2643 -570.82102 -30.535311)
(2677.7042 -581.95213 -28.634688)
(2727.0542 -593.48121 -25.496859)
(2777.9753 -605.21373 -21.446815)
(2830.0808 -616.99938 -16.863299)
(2882.9684 -628.6844 -12.085256)
(2936.1703 -640.18001 -7.5160971)
(2989.3589 -651.47993 -3.4604728)
(3042.3552 -662.4464 -0.0464296)
(3094.9705 -673.17689 2.580219)
(3147.096 -683.64811 4.3586026)
(3198.7385 -693.91313 5.3328376)
(3249.9451 -704.01211 5.5890395)
(3300.8243 -714.02627 5.2790202)
(3351.4817 -723.98044 4.529051)
(3402.0741 -733.95957 3.5377133)
(3452.7205 -743.97038 2.4399864)
(3503.5738 -754.07533 1.411629)
(3554.7583 -764.27814 0.58257461)
(3606.3883 -774.59701 0.070211927)
(3658.5671 -785.03597 -0.026104131)
(3711.365 -795.56891 0.34459597)
(3764.8208 -806.1929 1.2225497)
(3818.9416 -816.84641 2.5829178)
(3873.6732 -827.51656 4.3834564)
(3928.931 -838.13053 6.52541)
(3984.5661 -848.66272 8.87318)
(4040.3994 -859.05872 11.263804)
(4096.1997 -869.30618 13.496806)
(4151.7476 -879.37269 15.363814)
(4206.8141 -889.32674 16.675167)
(4261.2893 -899.17491 17.249503)
(0 0 0)
(0 0 0)
(0 0 0)
(0 0 0)
(0 0 0)
(0 0 0)
(0 0 0)
(0 0 0)
(0 0 0)
(0 0 0)
(0 0 0)
(0 0 0)
(0 0 0)
(0 0 0)
(0 0 0)
(46.883454 -36.287846 75.817301)
(72.932631 -128.73023 101.68541)
(100.98163 -132.02368 108.6722)
(144.60281 -176.90227 117.5554)
(188.17294 -196.43945 113.32491)
(241.39012 -221.96383 103.20413)
(296.8076 -240.90409 91.544801)
(355.20996 -260.48183 77.052044)
(414.48993 -273.14209 62.064044)
(471.75509 -285.39653 47.791748)
(527.30763 -294.99373 34.991166)
(580.09167 -300.72302 24.842362)
(627.68419 -306.22586 16.443115)
(673.05157 -309.05541 10.960577)
(713.7339 -311.73739 7.2831893)
(752.56999 -313.28146 4.8657559)
(789.69673 -314.95196 3.6991531)
(825.66559 -315.66593 2.1289667)
(862.11626 -317.45401 0.35441789)
(898.81461 -318.60199 -2.2802778)
(936.50895 -319.93121 -5.6640916)
(974.95866 -321.0343 -10.01196)
(1013.4765 -322.46456 -14.809698)
(1052.0821 -323.15792 -19.476817)
(1089.5954 -323.6743 -23.577113)
(1125.4217 -323.9885 -26.615414)
(1159.6104 -324.61702 -27.885123)
(1190.3394 -324.31976 -27.810069)
(1219.5098 -325.87527 -25.368476)
(1245.4599 -326.42406 -21.493052)
(1270.1319 -328.75161 -16.029837)
(1293.3005 -332.06771 -9.4840668)
(1316.1895 -336.71647 -2.3959137)
(1339.5012 -342.92564 4.7183281)
(1364.4803 -350.19498 11.527207)
(1390.9537 -359.80057 17.006316)
(1421.309 -369.89073 21.874962)
(1454.2521 -381.39983 24.982505)
(1491.0832 -393.52146 26.652976)
(1531.5332 -406.13124 26.692709)
(1575.5695 -418.8095 25.310676)
(1622.898 -431.22299 22.639163)
(1673.0581 -443.04769 18.930713)
(1725.5089 -454.0275 14.474675)
(1779.5748 -463.94997 9.6130522)
(1834.556 -472.68291 4.694259)
(1889.711 -480.15981 0.082734337)
(1944.3321 -486.40338 -3.8719654)
(1997.758 -491.49164 -6.8537587)
(2049.4382 -495.58406 -8.6016821)
(2098.9476 -498.88242 -8.9298548)
(2146.0374 -501.63981 -7.7531229)
(2190.6375 -504.12771 -5.0912779)
(2232.8779 -506.63323 -1.0862369)
(2273.0698 -509.42947 4.0131599)
(2311.6883 -512.76576 9.8567784)
(2349.3256 -516.84837 16.02838)
(2386.6462 -521.83082 22.071925)
(2424.3208 -527.80168 27.538877)
(2462.9732 -534.79099 32.02442)
(2503.1221 -542.75988 35.206997)
(2545.1399 -551.62549 36.877988)
(2589.2308 -561.25366 36.956251)
(2635.417 -571.49513 35.496616)
(2683.563 -582.17899 32.673477)
(2733.3795 -593.14518 28.760315)
(2784.5141 -604.20991 24.096537)
(2836.5874 -615.54033 19.066329)
(2889.1508 -626.28861 14.190083)
(2941.5672 -637.56739 9.3051065)
(2994.2558 -648.24298 5.2123885)
(3046.2512 -658.9824 1.8193338)
(3097.9415 -669.54753 -0.71701102)
(3149.0927 -680.0369 -2.391606)
(3199.8363 -690.45103 -3.2802451)
(3250.2824 -700.82898 -3.4873536)
(3300.5528 -711.18165 -3.1651722)
(3350.8107 -721.51992 -2.4901395)
(3401.1941 -731.85837 -1.6322206)
(3451.8323 -742.19001 -0.76283049)
(3502.833 -752.5252 -0.033716227)
(3554.2805 -762.85722 0.4243711)
(3606.2351 -773.19021 0.50719362)
(3658.7368 -783.52371 0.13766641)
(3711.8008 -793.8538 -0.72189538)
(3765.4144 -804.18425 -2.0796467)
(3819.545 -814.49295 -3.9030849)
(3874.1206 -824.79379 -6.1200145)
(3929.053 -835.0355 -8.6272339)
(3984.2079 -845.24626 -11.280071)
(4039.448 -855.35563 -13.9216)
(4094.5993 -865.41526 -16.361777)
(4149.5095 -875.3519 -18.437941)
(4204.0456 -885.25144 -19.962202)
(4257.9451 -895.08011 -20.871919)
(4321.4488 -851.24409 -18.983942)
(4330.0252 -797.33577 -16.775768)
(4338.5858 -743.52357 -14.995732)
(4347.0778 -689.89314 -13.332716)
(4355.6879 -636.44268 -11.731308)
(4364.5721 -583.37902 -10.115163)
(4373.8051 -530.47178 -8.3291766)
(4383.2268 -478.08977 -6.2568856)
(4392.9913 -425.78106 -3.8405935)
(4403.1428 -373.91036 -1.0369331)
(4413.5038 -322.12814 2.2329942)
(4424.0925 -270.40595 5.6369275)
(4434.7536 -218.4886 9.384792)
(4445.5772 -166.49752 13.522386)
(4456.4796 -114.2839 17.350232)
(4413.4516 -51.656805 21.934977)
(4359.5232 -42.10762 20.776282)
(4304.7798 -32.105833 19.138527)
(4249.2562 -22.251665 16.649075)
(4193.1862 -12.424361 13.847903)
(4136.8173 -2.7809363 10.905151)
(4080.3431 6.5564119 8.058154)
(4024.0127 15.530407 5.4853547)
(3968.0098 24.071125 3.3297453)
(3912.4418 32.167634 1.6559881)
(3857.4403 39.813758 0.48915483)
(3803.0171 47.033068 -0.20063384)
(3749.1925 53.87929 -0.46173348)
(3695.9073 60.40977 -0.39462156)
(3643.1377 66.668895 -0.082912348)
(3590.801 72.744081 0.38422682)
(3538.7816 78.689521 0.87492619)
(3486.9585 84.563784 1.2725839)
(3435.1878 90.419996 1.4616871)
(3383.3096 96.301605 1.3104717)
(3331.169 102.21789 0.71405446)
(3278.6253 108.16585 -0.43399108)
(3225.5696 114.1181 -2.1993751)
(3171.9353 119.98386 -4.6189959)
(3117.7937 125.79662 -7.7110823)
(3063.2015 131.28115 -11.213908)
(3008.4413 136.35832 -15.244526)
(2953.9261 141.11291 -19.402185)
(2899.6708 145.44891 -23.309241)
(2846.562 149.12364 -26.813973)
(2794.7401 152.34499 -29.601568)
(2744.7079 155.06412 -31.30104)
(2696.7286 157.41928 -31.748579)
(2650.9762 159.56842 -30.791364)
(2607.4518 161.70524 -28.424288)
(2565.9897 164.05304 -24.74403)
(2526.2516 166.84146 -19.959606)
(2487.7555 170.28155 -14.373868)
(2449.908 174.55228 -8.3491198)
(2412.0534 179.77459 -2.2797169)
(2373.5244 185.99992 3.4474309)
(2333.6966 193.19808 8.4829682)
(2292.0338 201.25558 12.541801)
(2248.1317 209.97569 15.423325)
(2201.7428 219.09307 17.018271)
(2152.8 228.28442 17.311031)
(2101.4137 237.19735 16.374491)
(2047.8821 245.46089 14.35911)
(1992.6477 252.738 11.468793)
(1936.3188 258.71788 7.9644803)
(1879.5728 263.1468 4.1421445)
(1823.1834 265.93369 0.24652717)
(1767.9474 266.92231 -3.3368532)
(1714.5809 266.28998 -6.4508571)
(1663.8523 264.08057 -8.7558988)
(1616.194 260.70488 -10.131361)
(1572.168 256.29009 -10.456897)
(1531.5335 251.76736 -9.6399576)
(1495.2211 246.28815 -7.7302437)
(1461.7461 242.11507 -5.0497726)
(1431.49 238.6799 -1.4369579)
(1403.6331 235.25775 2.6801522)
(1377.301 234.26438 6.6908382)
(1351.3964 234.3928 10.44727)
(1325.729 236.44188 13.573272)
(1298.7065 238.91279 16.31902)
(1270.8806 243.65469 17.217882)
(1240.3856 248.60607 17.636609)
(1208.3219 254.62797 16.359014)
(1174.1262 260.80945 14.387184)
(1138.2446 267.07046 11.585311)
(1101.1849 272.78376 8.4756204)
(1063.251 278.42329 5.1739359)
(1024.9676 283.3464 2.319015)
(986.86714 287.48183 0.080872497)
(949.06067 291.34758 -1.6758693)
(911.39142 294.55857 -2.5901414)
(873.81443 297.4252 -3.023812)
(835.71448 299.7446 -3.450067)
(796.28883 301.87201 -4.1062724)
(755.07125 303.29946 -5.5132009)
(711.22851 303.3998 -8.3820317)
(664.37707 302.51041 -13.347602)
(613.89524 300.64123 -19.759781)
(560.21538 295.44098 -28.567331)
(503.92139 287.78779 -39.307751)
(445.48974 278.2812 -51.341645)
(386.13459 263.7299 -63.971439)
(327.39305 246.67624 -76.370221)
(270.59138 225.76315 -87.687467)
(217.8316 200.76259 -95.986068)
(169.29387 172.14898 -101.05442)
(126.82991 143.42059 -100.00081)
(87.710331 107.18546 -87.493628)
(71.795575 73.348002 -60.631485)
(0 0 0)
(0 0 0)
(0 0 0)
(0 0 0)
(0 0 0)
(0 0 0)
(0 0 0)
(0 0 0)
(0 0 0)
(0 0 0)
(0 0 0)
(0 0 0)
(0 0 0)
(0 0 0)
(0 0 0)
(0 0 0)
(0 0 0)
(0 0 0)
(0 0 0)
(0 0 0)
(0 0 0)
(0 0 0)
(0 0 0)
(0 0 0)
(0 0 0)
(0 0 0)
(0 0 0)
(0 0 0)
(0 0 0)
(0 0 0)
(4311.8125 -908.39995 16.847584)
(4308.2254 -907.02582 15.694444)
(4304.4068 -905.08305 13.911667)
(4300.5281 -902.85082 11.486991)
(4297.1453 -900.69456 8.441624)
(4294.4659 -898.92412 4.896969)
(4292.8363 -897.77964 1.0272838)
(4292.3874 -897.4416 -3.0190321)
(4293.1347 -897.87074 -6.992559)
(4294.9441 -898.973 -10.744801)
(4297.584 -900.54413 -14.041069)
(4300.7159 -902.20802 -16.799129)
(4303.9236 -903.70443 -18.887243)
(4306.9505 -904.69078 -20.342061)
(4309.4666 -905.1588 -21.113232)
(4463.3022 -62.904311 -31.19702)
(4459.3319 -61.600443 -29.787592)
(4454.8048 -60.835032 -27.464571)
(4450.0821 -60.45965 -24.164418)
(4445.5949 -60.437629 -20.063077)
(4441.7771 -60.616805 -15.265748)
(4439.1043 -60.848498 -10.003264)
(4437.898 -61.008722 -4.5068928)
(4438.3038 -61.028034 0.96033064)
(4440.2969 -60.899669 6.1408823)
(4443.6305 -60.659657 10.815568)
(4448.0066 -60.434524 14.776634)
(4452.8576 -60.291983 17.911604)
(4457.798 -60.487821 20.15532)
(4462.3455 -60.938072 21.609015)
(33.693539 50.075048 76.204192)
(71.380956 79.060337 80.567658)
(108.72196 109.18305 94.712416)
(154.11599 134.72684 95.010157)
(202.31335 157.08932 92.922506)
(257.20637 177.13497 85.698629)
(314.79436 194.43664 76.29207)
(375.48372 209.60287 64.958573)
(436.53501 222.0847 53.181034)
(497.17359 232.73977 41.368536)
(555.70691 241.12733 30.489847)
(611.45455 247.9821 21.192348)
(663.58816 252.82218 13.454372)
(712.01674 256.52345 7.6819935)
(756.80927 258.65869 3.5299439)
(798.62768 259.83912 0.93779376)
(838.0886 259.76788 -0.74381)
(875.91367 259.04511 -1.7364242)
(912.95174 257.28132 -2.5334165)
(949.73343 255.01664 -3.3810986)
(986.55743 252.0647 -4.5652284)
(1023.6355 248.70414 -5.9764705)
(1060.7269 245.06465 -7.6634931)
(1097.4962 241.15204 -9.337242)
(1133.5613 237.25418 -10.778592)
(1168.4011 233.4543 -11.668222)
(1201.5502 229.97353 -11.796266)
(1232.8049 226.80202 -10.971375)
(1262.1058 224.28169 -9.0817002)
(1289.6192 222.26792 -6.1922556)
(1315.7503 220.93412 -2.4546135)
(1341.1401 220.33333 1.922422)
(1366.5728 220.317 6.634242)
(1392.8435 220.90725 11.333183)
(1420.841 221.89981 15.757922)
(1451.2363 223.18882 19.514866)
(1484.7002 224.48894 22.383275)
(1521.6826 225.6733 24.23149)
(1562.3739 226.56812 24.877917)
(1606.7542 226.84774 24.46416)
(1654.5936 226.42778 22.93946)
(1705.5622 225.15643 20.513441)
(1759.0473 222.87493 17.370949)
(1814.3848 219.61737 13.766809)
(1870.8683 215.34506 9.950911)
(1927.7409 210.12109 6.1941148)
(1984.2853 204.0756 2.7771564)
(2039.8323 197.34334 -0.064500928)
(2093.8131 190.11581 -2.1192409)
(2145.7774 182.58708 -3.2263524)
(2195.4183 174.95915 -3.2844499)
(2242.5914 167.41371 -2.2581497)
(2287.317 160.11667 -0.18990351)
(2329.7869 153.18461 2.8104454)
(2370.3429 146.70539 6.5566043)
(2409.4639 140.70844 10.807026)
(2447.7255 135.19216 15.275365)
(2485.7609 130.10646 19.65523)
(2524.2094 125.38149 23.637945)
(2563.6706 120.92529 26.948611)
(2604.6578 116.63772 29.359967)
(2647.5412 112.42066 30.720699)
(2692.5621 108.19987 30.949945)
(2739.7613 103.90014 30.07607)
(2789.0685 99.473812 28.209218)
(2840.232 94.930691 25.470638)
(2892.9011 90.209212 22.143693)
(2946.693 85.408981 18.495568)
(3001.0247 80.408927 14.67975)
(3055.6161 75.328739 11.10927)
(3110.1164 70.159557 7.8715358)
(3164.2581 64.898368 5.1203153)
(3217.8579 59.595062 2.9814209)
(3270.8658 54.235717 1.4875584)
(3323.2922 48.804219 0.61648497)
(3375.2202 43.260451 0.31531921)
(3426.8088 37.614857 0.47113586)
(3478.2027 31.775743 0.96876431)
(3529.6166 25.752126 1.654747)
(3581.19 19.447266 2.3848921)
(3633.1247 12.8683 2.9906921)
(3685.5481 5.9197348 3.3447148)
(3738.5167 -1.3493387 3.2966015)
(3792.1888 -9.0497673 2.7534106)
(3846.5407 -17.135898 1.637828)
(3901.6051 -25.601431 -0.12509546)
(3957.2431 -34.366129 -2.4685205)
(4013.4408 -43.402135 -5.3595088)
(4069.9058 -52.637664 -8.6627994)
(4126.5506 -61.956351 -12.223017)
(4183.0481 -71.321705 -15.796853)
(4239.2008 -80.648854 -19.218435)
(4294.6739 -89.797982 -22.20514)
(4349.5656 -98.993164 -24.626374)
(4403.1958 -108.1915 -26.323101)
(19.99829 42.32925 62.929731)
(55.393257 56.283354 71.895916)
(98.101486 85.216212 81.094886)
(142.01377 104.09565 83.034015)
(192.90763 124.00483 80.08364)
(247.71131 140.73801 74.308414)
(306.48192 156.26772 66.101643)
(367.1536 169.44894 56.685798)
(428.79888 181.22631 46.648933)
(489.78201 191.19265 36.607257)
(548.80953 199.76297 27.560273)
(604.96322 206.76096 19.379411)
(657.59153 212.45249 12.868618)
(706.5953 216.74878 7.6678927)
(751.98209 219.80253 4.0599698)
(794.39879 221.5869 1.4667524)
(834.29203 222.28451 -0.085825582)
(872.7071 221.86461 -1.1814627)
(910.03234 220.6007 -1.9965936)
(947.05556 218.52538 -2.8611614)
(984.04159 215.85457 -3.8291525)
(1021.1065 212.80222 -5.0645117)
(1058.0913 209.44509 -6.3591402)
(1094.7665 206.06156 -7.6734756)
(1130.614 202.75608 -8.7332346)
(1165.1954 199.70986 -9.381866)
(1198.1338 196.92487 -9.341464)
(1229.2103 194.60862 -8.5565529)
(1258.2807 192.69052 -6.911797)
(1285.6128 191.24871 -4.4693753)
(1311.6156 190.2164 -1.2842605)
(1336.8281 189.52599 2.4056213)
(1362.0303 189.13051 6.3412856)
(1388.0464 188.93005 10.335396)
(1415.7408 188.80248 13.996259)
(1445.8247 188.56591 17.243556)
(1478.9555 188.16469 19.676424)
(1515.5438 187.442 21.28685)
(1555.8633 186.28635 21.988217)
(1599.9008 184.59985 21.730084)
(1647.4845 182.29245 20.588387)
(1698.2171 179.34559 18.660421)
(1751.5352 175.65323 16.179754)
(1806.8113 171.32079 13.231311)
(1863.3162 166.35064 10.0929)
(1920.2786 160.80728 6.9988926)
(1976.9701 154.80379 4.1545888)
(2032.7074 148.44116 1.7733105)
(2086.9032 141.8613 0.029118076)
(2139.0876 135.18402 -0.93638431)
(2188.9418 128.53654 -1.0400851)
(2236.3063 122.01551 -0.24738692)
(2281.1944 115.70641 1.4066759)
(2323.7895 109.64906 3.8331046)
(2364.4292 103.87015 6.8749363)
(2403.5911 98.349071 10.337255)
(2441.8449 93.057159 13.979442)
(2479.8228 87.934879 17.551519)
(2518.1633 82.924482 20.799314)
(2557.4658 77.96114 23.499074)
(2598.2368 72.989865 25.461586)
(2640.8605 67.964018 26.567565)
(2685.5764 62.877856 26.739794)
(2732.4459 57.684065 26.029995)
(2781.3752 52.436156 24.465775)
(2832.1694 47.117617 22.233169)
(2884.3868 41.734285 19.598855)
(2937.7315 36.33613 16.542652)
(2991.8392 30.966076 13.433206)
(3046.221 25.655889 10.41136)
(3100.5195 20.322158 7.7037402)
(3154.4989 14.992504 5.3660643)
(3208.016 9.676931 3.5252818)
(3260.9601 4.2957201 2.2036546)
(3313.3643 -1.1608884 1.4091223)
(3365.2863 -6.7706051 1.0936971)
(3416.88 -12.533496 1.1629717)
(3468.2776 -18.557397 1.541539)
(3519.6976 -24.82365 2.077464)
(3571.2693 -31.416819 2.6614847)
(3623.2024 -38.358461 3.1621788)
(3675.5967 -45.670594 3.4373398)
(3728.5385 -53.35383 3.3696055)
(3782.2821 -61.473149 2.9180005)
(3836.6201 -69.935678 1.9362687)
(3891.5862 -78.679298 0.43993693)
(3947.14 -87.679001 -1.6248244)
(4003.2285 -96.916454 -4.1143823)
(4059.5754 -106.18355 -7.036251)
(4116.1456 -115.56844 -10.084595)
(4172.4941 -124.82399 -13.284537)
(4228.5967 -134.06174 -16.245028)
(4284.0295 -143.06519 -18.946858)
(4338.8626 -152.11521 -21.179808)
(4392.5313 -161.20782 -22.743519)
(13.804779 31.708193 52.997349)
(48.345744 43.642171 59.008446)
(86.012291 63.404399 69.411524)
(131.97905 79.6226 70.00509)
(182.78482 95.171846 67.841606)
(238.80071 109.98625 62.840097)
(297.58113 122.76065 56.233256)
(359.11354 134.50145 48.464293)
(421.01702 144.62515 40.022994)
(482.37437 153.91834 32.001061)
(541.74156 161.56724 24.211849)
(598.33954 168.45512 17.612237)
(651.48507 173.80294 11.886976)
(700.98269 178.29647 7.5803592)
(747.03247 181.34349 4.1719883)
(789.96631 183.44699 1.9667047)
(830.58947 184.23749 0.28337268)
(869.38492 184.18718 -0.7860801)
(907.2102 183.07973 -1.711996)
(944.51823 181.3135 -2.5184415)
(981.63879 178.91651 -3.4764102)
(1018.7271 176.13326 -4.4634169)
(1055.6509 173.16658 -5.5677629)
(1092.1073 170.13967 -6.564194)
(1127.7145 167.26577 -7.3934193)
(1162.0544 164.57766 -7.785959)
(1194.7423 162.24231 -7.6763214)
(1225.553 160.2325 -6.9308019)
(1254.4658 158.58622 -5.4863401)
(1281.6534 157.23468 -3.3677386)
(1307.4694 156.14628 -0.70539705)
(1332.5762 155.23965 2.3811531)
(1357.6817 154.41703 5.714379)
(1383.5789 153.53625 9.0576463)
(1411.1223 152.5162 12.218634)
(1440.9929 151.29662 14.955936)
(1473.8879 149.69505 17.127936)
(1510.2274 147.73793 18.634365)
(1550.2525 145.28306 19.341741)
(1594.01 142.31965 19.279736)
(1641.2915 138.80963 18.486782)
(1691.7653 134.76409 17.022295)
(1744.8524 130.18182 15.044098)
(1799.9589 125.12958 12.691831)
(1856.3329 119.65116 10.15582)
(1913.2219 113.8372 7.6265357)
(1969.8886 107.77706 5.280071)
(2025.6512 101.56768 3.3021428)
(2079.9041 95.308179 1.8404088)
(2132.179 89.085497 1.0097184)
(2182.1433 82.977224 0.88402075)
(2229.6319 77.033619 1.490257)
(2274.6512 71.288719 2.7978217)
(2317.3758 65.740823 4.7316403)
(2358.1391 60.375951 7.1618017)
(2397.4065 55.145853 9.9271781)
(2435.74 50.003304 12.830322)
(2473.7628 44.881872 15.670676)
(2512.1017 39.725995 18.24374)
(2551.3439 34.484825 20.370059)
(2591.9956 29.122611 21.905994)
(2634.4348 23.629641 22.746263)
(2678.9017 18.000663 22.857684)
(2725.4615 12.257055 22.244638)
(2774.0339 6.4322563 20.969272)
(2824.4832 0.57105437 19.167961)
(2876.3523 -5.3024711 16.910524)
(2929.3694 -11.02528 14.316864)
(2983.0954 -16.822123 11.806227)
(3037.197 -22.568457 9.3971076)
(3091.2489 -28.208716 7.1834722)
(3145.0943 -33.829022 5.2849847)
(3198.471 -39.434441 3.7865693)
(3251.3505 -45.055099 2.7319304)
(3303.7114 -50.791963 2.0866147)
(3355.6311 -56.65329 1.8333015)
(3407.2296 -62.710755 1.898651)
(3458.6587 -68.992713 2.2076135)
(3510.0974 -75.554905 2.6480899)
(3561.7092 -82.434214 3.1383783)
(3613.6415 -89.652365 3.5404815)
(3666.0461 -97.222555 3.7645764)
(3719.0065 -105.17056 3.7216071)
(3772.6173 -113.43563 3.3092797)
(3826.7256 -122.10323 2.4285237)
(3881.6911 -130.96697 1.0613366)
(3937.1723 -140.13804 -0.68892992)
(3993.1668 -149.38686 -2.8848196)
(4049.4513 -158.76465 -5.3506388)
(4105.8758 -168.09393 -8.0354402)
(4162.1522 -177.36875 -10.753506)
(4218.1622 -186.55728 -13.364663)
(4273.5188 -195.57185 -15.717741)
(4328.3416 -204.59582 -17.733211)
(4382.0257 -213.62813 -19.191311)
(10.96875 26.79021 42.280768)
(41.254436 32.929022 49.43181)
(79.279957 48.123848 56.093999)
(124.19552 59.60651 57.083544)
(175.4696 72.250486 55.207775)
(230.96725 83.714916 51.467338)
(290.51827 94.392276 46.087905)
(351.90089 103.79241 39.725889)
(414.0588 112.54003 33.312975)
(475.59354 120.01062 26.576334)
(535.22212 126.73165 20.60522)
(592.10232 132.38619 15.009827)
(645.57733 137.17223 10.559779)
(695.60832 140.92354 6.754224)
(742.05105 143.6855 4.0881206)
(785.65237 145.45666 1.94581)
(826.62911 146.25257 0.55647353)
(865.99481 146.14604 -0.52380183)
(904.11208 145.21391 -1.3355978)
(941.67587 143.63699 -2.113639)
(978.89639 141.50149 -2.853288)
(1015.991 139.05913 -3.6695248)
(1052.7575 136.38726 -4.4473539)
(1089.0383 133.72717 -5.1717569)
(1124.3873 131.12253 -5.6633984)
(1158.4557 128.75039 -5.861722)
(1190.879 126.61219 -5.6282161)
(1221.4863 124.75663 -4.8912578)
(1250.2054 123.15604 -3.6158105)
(1277.2474 121.78412 -1.854228)
(1303.017 120.54014 0.36917043)
(1328.0763 119.35357 2.9189873)
(1353.1284 118.09987 5.6380765)
(1378.992 116.70501 8.3778572)
(1406.4439 115.07167 10.948462)
(1436.2172 113.08403 13.213625)
(1468.9986 110.65846 15.064822)
(1505.1458 107.81967 16.327098)
(1544.9575 104.48359 16.99546)
(1588.4395 100.63456 17.071065)
(1635.465 96.274324 16.504472)
(1685.6437 91.458402 15.439638)
(1738.503 86.220038 13.92212)
(1793.3701 80.626395 12.105806)
(1849.5452 74.748906 10.120661)
(1906.2739 68.674748 8.1269829)
(1962.8277 62.490849 6.2649722)
(2018.5096 56.280439 4.6941162)
(2072.7247 50.11968 3.5217708)
(2124.9966 44.073346 2.8494328)
(2174.9909 38.18792 2.7333526)
(2222.5418 32.486429 3.1923655)
(2267.6495 26.976731 4.2001833)
(2310.4876 21.633956 5.6950382)
(2351.3793 16.427206 7.5695289)
(2390.7832 11.295674 9.6964654)
(2429.2497 6.1877972 11.917703)
(2467.3882 1.0324945 14.079651)
(2505.8073 -4.2201461 16.021419)
(2545.0876 -9.618079 17.611577)
(2585.7142 -15.182585 18.733467)
(2628.0627 -20.932697 19.325629)
(2672.3659 -26.845347 19.348843)
(2718.6891 -32.90094 18.817204)
(2767.0025 -39.055593 17.798122)
(2817.046 -45.266457 16.330035)
(2868.5845 -51.479761 14.605435)
(2921.2539 -57.631619 12.700355)
(2974.5973 -63.816017 10.745811)
(3028.3383 -69.920084 8.8677307)
(3082.1252 -75.89086 7.0828578)
(3135.6545 -81.880689 5.6012067)
(3188.819 -87.826448 4.3876473)
(3241.5725 -93.824573 3.4733771)
(3293.8395 -99.898068 2.9104315)
(3345.7102 -106.08855 2.6336493)
(3397.2886 -112.46328 2.6251237)
(3448.7122 -119.06522 2.8057372)
(3500.1609 -125.92338 3.1163873)
(3551.7727 -133.10538 3.4602475)
(3603.7211 -140.59491 3.7531531)
(3656.1208 -148.43241 3.8990203)
(3709.0664 -156.62397 3.8275017)
(3762.6368 -165.11339 3.4317634)
(3816.8478 -173.91306 2.7032302)
(3871.7327 -182.96379 1.6127144)
(3927.1153 -192.17181 0.10259699)
(3983.0329 -201.5166 -1.6997698)
(4039.177 -210.87852 -3.8279709)
(4095.5108 -220.25132 -6.052198)
(4151.684 -229.51487 -8.4122326)
(4207.6234 -238.73032 -10.604688)
(4262.9219 -247.75475 -12.689852)
(4317.7721 -256.79529 -14.437073)
(4371.4381 -265.74302 -15.84863)
(8.2855336 19.269702 32.934804)
(37.240104 24.099049 37.162906)
(73.139054 34.874597 43.430262)
(117.45395 43.985405 44.339923)
(168.15603 52.876997 43.146102)
(224.3799 61.870925 40.123698)
(283.75785 69.672228 35.882979)
(345.47729 77.118325 31.438875)
(407.83169 83.347387 26.125833)
(469.55604 89.276067 21.346066)
(529.36008 94.015942 16.459982)
(586.47421 98.430464 12.426715)
(640.35604 101.76181 8.6541017)
(690.60748 104.60318 5.9200511)
(737.62743 106.45795 3.4779585)
(781.50287 107.7277 1.8849403)
(823.04131 108.07548 0.54218452)
(862.69215 107.83954 -0.35072286)
(901.17605 106.86937 -1.1600716)
(938.92297 105.41241 -1.7746539)
(976.28735 103.48709 -2.4511862)
(1013.3578 101.27919 -3.0424809)
(1050.0725 98.900286 -3.6559471)
(1086.1775 96.466428 -4.1236412)
(1121.3209 94.095819 -4.4555665)
(1155.1641 91.86758 -4.5084714)
(1187.3789 89.815298 -4.2364127)
(1217.7794 87.970458 -3.5661571)
(1246.3582 86.318698 -2.5104571)
(1273.3093 84.788293 -1.0373008)
(1299.0004 83.342349 0.75627939)
(1324.0126 81.868524 2.8065942)
(1349.0517 80.288135 5.0028347)
(1374.8784 78.502136 7.2139905)
(1402.2889 76.388061 9.3376885)
(1432.0045 73.911907 11.206389)
(1464.6575 70.962482 12.780731)
(1500.4897 67.548305 13.872283)
(1540.0175 63.564299 14.588013)
(1583.3186 59.108949 14.750387)
(1630.0702 54.161698 14.477044)
(1680.0285 48.813655 13.76386)
(1732.627 43.086214 12.698613)
(1787.2683 37.093533 11.370623)
(1843.242 30.897641 9.8923972)
(1899.8052 24.595779 8.3838034)
(1956.2265 18.265139 6.9627021)
(2011.813 11.986333 5.7445976)
(2065.9719 5.8213652 4.8192474)
(2118.2205 -0.18003366 4.2680826)
(2168.226 -5.9900853 4.1311857)
(2215.815 -11.600211 4.4257334)
(2260.9878 -17.021013 5.1308614)
(2303.9077 -22.287333 6.1987167)
(2344.8944 -27.442251 7.5481601)
(2384.3957 -32.549513 9.0831911)
(2422.9522 -37.667123 10.686024)
(2461.1588 -42.865001 12.244124)
(2499.6168 -48.1926 13.639023)
(2538.8888 -53.695188 14.773274)
(2579.4526 -59.400771 15.569799)