/*--------------------------------*- C++ -*----------------------------------*\
  =========                 |
  \\      /  F ield         | OpenFOAM: The Open Source CFD Toolbox
   \\    /   O peration     | Website:  https://openfoam.org
    \\  /    A nd           | Version:  6
     \\/     M anipulation  |
\*---------------------------------------------------------------------------*/
FoamFile
{
    version     2.0;
    format      ascii;
    class       pointVectorField;
    location    "0.27";
    object      lm;
}
// * * * * * * * * * * * * * * * * * * * * * * * * * * * * * * * * * * * * * //

dimensions      [1 -2 -1 0 0 0 0];

internalField   nonuniform List<vector> 
28033
(
(0 0 0)
(0 0 0)
(3916.0873 -30.614707 -4.7150153)
(3869.7366 -588.32975 1.7279109)
(0 0 0)
(0 0 0)
(3867.8453 -587.53334 -8.9954677)
(3911.689 -31.075058 -3.0483324)
(0 0 0)
(0 0 0)
(0 0 0)
(0 0 0)
(0 0 0)
(0 0 0)
(0 0 0)
(0 0 0)
(0 0 0)
(0 0 0)
(0 0 0)
(0 0 0)
(0 0 0)
(0 0 0)
(0 0 0)
(3845.8905 -64.704023 -3.6277443)
(3761.2668 -97.687626 -3.2795357)
(3698.4801 -130.0606 -3.2404765)
(3665.9365 -162.74696 -3.5369005)
(3667.6636 -196.42716 -4.05929)
(3702.4919 -231.91867 -4.5051298)
(3763.9185 -269.81213 -4.830725)
(3841.7438 -309.79074 -5.0368855)
(3923.2446 -351.25253 -5.001816)
(3995.1781 -393.06322 -4.7207679)
(4045.7343 -433.98368 -4.2157117)
(4066.5768 -472.36055 -3.3729254)
(4053.6409 -507.11325 -2.4039761)
(4008.1486 -537.49281 -1.2691844)
(3938.927 -563.71742 0.0098791574)
(11.080853 24.328173 30.851735)
(2.5484044 39.795628 49.510925)
(-4.1781453 58.431537 64.328436)
(-5.4580588 79.19513 74.457348)
(-3.6315927 101.36806 81.907898)
(3.7837769 125.24936 86.54466)
(16.304982 149.93215 89.121275)
(34.172471 175.02054 89.552872)
(57.235957 200.39115 88.567504)
(85.471882 225.55998 86.317523)
(118.45477 250.12812 82.802083)
(155.99108 274.01404 78.737077)
(197.47099 296.65486 74.377805)
(242.85356 318.00476 69.716394)
(291.33314 337.66161 65.080905)
(342.68682 355.6801 60.702013)
(396.57611 371.82744 56.644818)
(453.00661 385.94818 52.620859)
(511.2754 397.99271 48.767605)
(571.50871 408.04626 44.992554)
(633.67747 416.0794 40.973954)
(697.19756 421.89416 36.727547)
(762.35501 425.95391 32.136757)
(828.64484 427.87361 27.039223)
(895.66565 427.99506 21.657209)
(963.31548 426.44419 16.000056)
(1030.9863 423.24877 10.222613)
(1098.4106 418.59828 4.4959955)
(1164.9681 412.6966 -0.84161141)
(1230.6238 405.83076 -5.7743038)
(1294.8263 397.98067 -9.9432209)
(1357.5648 389.63219 -13.407124)
(1419.016 380.75392 -16.173126)
(1479.0859 371.74675 -18.32935)
(1538.0465 362.49994 -19.842842)
(1596.2423 353.20686 -20.900504)
(1653.922 343.80873 -21.908739)
(1711.258 334.39474 -22.641955)
(1768.4775 324.8434 -23.42661)
(1825.7001 315.02977 -24.235736)
(1882.7183 304.91674 -25.000638)
(1939.4869 294.36454 -25.667178)
(1995.6243 283.35328 -26.081792)
(2050.7902 271.84174 -26.062259)
(2104.5977 259.87881 -25.493203)
(2156.6743 247.53869 -24.242293)
(2206.6927 234.97246 -22.244315)
(2254.4399 222.37107 -19.496508)
(2299.7935 209.95448 -16.061013)
(2342.7834 197.96041 -12.060458)
(2383.5411 186.62276 -7.6687917)
(2422.3326 176.14269 -3.0892417)
(2459.4951 166.69122 1.4570267)
(2495.4427 158.36702 5.7535144)
(2530.6106 151.22344 9.5999012)
(2565.4417 145.22571 12.828371)
(2600.3453 140.29566 15.298481)
(2635.6863 136.28108 16.920507)
(2671.7528 132.98697 17.635934)
(2708.7453 130.19871 17.432871)
(2746.7775 127.66638 16.329923)
(2785.8403 125.14584 14.410627)
(2825.8568 122.41595 11.754642)
(2866.5705 119.28492 8.5473499)
(2907.7607 115.60102 4.8803427)
(2949.0096 111.19898 1.1440476)
(2989.8762 106.18409 -2.6365259)
(3029.9334 100.38888 -6.0857467)
(3068.7785 94.080872 -9.0897661)
(3106.025 87.274673 -11.348804)
(3141.3665 80.197269 -12.80965)
(3174.6727 73.04973 -13.467553)
(3205.9802 66.059939 -13.301667)
(3235.3182 59.397424 -12.414571)
(3263.0715 53.283952 -11.008432)
(3289.5504 47.767319 -9.2703365)
(3315.2929 43.030055 -7.5290235)
(3340.743 38.935793 -5.9419921)
(3366.4408 35.589928 -4.81681)
(3392.7513 32.756656 -4.2211578)
(3419.997 30.356033 -4.2895463)
(3448.4104 28.152009 -4.9854465)
(3477.9171 26.040498 -6.2159327)
(3508.5897 23.802904 -7.8780416)
(3540.073 21.224423 -9.682763)
(3572.1947 18.265693 -11.441641)
(3604.5352 14.835327 -12.959728)
(3636.9462 10.817397 -14.035363)
(3668.9657 6.5314687 -14.625492)
(3700.6716 1.5493069 -14.572619)
(3731.5977 -3.311163 -13.98471)
(3762.2247 -8.7519806 -12.800123)
(3792.1275 -13.858946 -11.23753)
(3821.7298 -19.109718 -9.0109551)
(3850.0541 -24.382368 -6.7125781)
(4.2795434 -23.798678 -29.001125)
(-4.6689638 -36.572566 -46.338135)
(-13.362138 -51.281535 -62.585178)
(-19.407822 -70.411099 -75.219125)
(-19.392132 -90.047466 -84.563516)
(-16.017454 -111.29967 -92.007273)
(-6.1975038 -133.00512 -96.814962)
(8.3491566 -155.32585 -99.77351)
(28.837635 -177.9066 -100.77485)
(54.201148 -199.92591 -99.914893)
(85.135369 -222.19717 -97.469675)
(120.49149 -243.33028 -93.457703)
(160.39502 -264.14746 -88.358456)
(204.03991 -283.90996 -82.374698)
(250.95297 -302.53674 -75.796586)
(300.8736 -320.37236 -68.899407)
(353.04262 -336.56686 -61.845914)
(407.16026 -351.89799 -55.082089)
(463.26173 -365.89201 -48.292849)
(520.87689 -378.38655 -41.67807)
(579.94047 -389.8953 -35.161624)
(640.61968 -399.95188 -28.583669)
(702.37625 -408.71896 -21.849514)
(765.50636 -416.36537 -14.936195)
(829.47857 -422.64154 -7.8383766)
(893.99272 -427.84756 -0.62632684)
(958.68083 -431.7899 6.4220149)
(1023.079 -434.79956 13.24579)
(1086.718 -436.71493 19.443305)
(1149.1905 -437.91893 24.80848)
(1210.2081 -438.33459 29.152996)
(1269.698 -438.31572 32.404608)
(1327.5774 -437.85409 34.486478)
(1384.0461 -437.16099 35.512915)
(1439.3802 -436.37796 35.721633)
(1493.9525 -435.54834 35.291208)
(1548.2352 -434.79249 34.63919)
(1602.5555 -433.98379 34.026305)
(1657.177 -433.26966 33.658282)
(1712.2046 -432.43002 33.688939)
(1767.6321 -431.45606 34.182151)
(1823.2478 -430.21587 35.076339)
(1878.6899 -428.62885 36.200081)
(1933.5088 -426.61032 37.331497)
(1987.192 -424.13365 38.206091)
(2039.2544 -421.2065 38.572606)
(2089.2647 -417.89821 38.221629)
(2136.9253 -414.32928 37.022241)
(2182.0755 -410.67354 34.92982)
(2224.7256 -407.13762 31.99841)
(2265.0428 -403.95782 28.363632)
(2303.3304 -401.3668 24.22791)
(2340.0007 -399.58642 19.831877)
(2375.5313 -398.80136 15.428079)
(2410.427 -399.14558 11.254826)
(2445.1836 -400.69127 7.5193956)
(2480.2545 -403.44316 4.3827151)
(2516.0268 -407.33521 1.9592494)
(2552.8058 -412.23852 0.3141685)
(2590.802 -417.97047 -0.52593463)
(2630.1237 -424.30108 -0.57288374)
(2670.7776 -430.98107 0.13699335)
(2712.6641 -437.74347 1.5392008)
(2755.5838 -444.33487 3.5466239)
(2799.2438 -450.51615 6.0522122)
(2843.2691 -456.10476 8.9136312)
(2887.2279 -460.95595 11.996137)
(2930.6317 -464.99265 15.094906)
(2973.0657 -468.16986 18.079881)
(3014.0161 -470.63362 20.543159)
(3053.0214 -472.42635 22.632693)
(3090.1445 -473.7927 24.019741)
(3125.0585 -474.9778 24.71707)
(3157.8746 -476.21837 24.626914)
(3188.8295 -477.7703 23.822099)
(3218.29 -479.8767 22.41843)
(3246.775 -482.75297 20.601058)
(3274.8178 -486.51108 18.552715)
(3303.0277 -491.23666 16.530081)
(3331.893 -496.87996 14.702137)
(3361.8595 -503.35431 13.256686)
(3393.1772 -510.46749 12.276872)
(3425.942 -517.98923 11.789968)
(3460.0643 -525.66306 11.74434)
(3495.2895 -533.2075 12.009016)
(3531.2448 -540.39967 12.432937)
(3567.4821 -547.02234 12.818567)
(3603.5434 -552.97697 13.00453)
(3639.0042 -558.20299 12.855566)
(3673.5442 -562.76015 12.287031)
(3706.9278 -566.76843 11.282963)
(3739.0781 -570.42697 9.8677444)
(3770.0334 -573.97919 8.119798)
(3799.9201 -577.67381 6.1143356)
(3833.7855 -582.522 3.8572293)
(0 0 0)
(0 0 0)
(0 0 0)
(0 0 0)
(0 0 0)
(0 0 0)
(0 0 0)
(0 0 0)
(0 0 0)
(0 0 0)
(0 0 0)
(0 0 0)
(0 0 0)
(0 0 0)
(0 0 0)
(12.234301 -8.7342845 19.231791)
(0.020396111 -37.777197 41.089393)
(-10.141073 -45.906861 51.233071)
(-12.007279 -71.406631 64.59985)
(-13.995303 -87.086426 69.586442)
(-7.4008512 -111.82716 75.66753)
(1.261467 -132.37919 77.799295)
(17.21833 -156.86591 79.487728)
(36.999384 -179.31167 78.548187)
(62.995415 -204.26082 76.765314)
(93.489684 -226.95033 73.512174)
(128.65155 -249.50144 69.562751)
(168.00477 -272.24346 64.477859)
(211.29685 -292.83412 59.579349)
(257.11357 -313.36247 53.895731)
(306.30797 -331.27841 49.168725)
(357.40304 -350.1775 44.332032)
(410.11461 -364.93259 39.579221)
(465.34635 -380.60594 35.59654)
(521.07949 -392.91204 31.499694)
(579.34639 -405.12734 27.587692)
(638.72942 -415.96367 23.395801)
(699.48268 -424.32258 18.861515)
(761.52898 -432.07544 13.999381)
(824.61234 -438.18063 8.7735985)
(888.631 -443.37839 3.3284204)
(952.43862 -446.66045 -2.3573286)
(1016.771 -449.65124 -7.6417558)
(1079.5236 -450.69964 -12.71884)
(1142.0953 -451.40766 -17.009928)
(1203.3457 -451.25064 -20.575336)
(1262.9564 -450.48765 -23.154291)
(1321.3876 -449.33144 -25.097015)
(1378.6393 -448.02482 -26.298706)
(1436.1809 -447.12294 -27.047406)
(1489.3886 -444.6846 -27.873654)
(1546.9233 -443.84671 -28.499875)
(1602.7735 -442.79475 -29.472628)
(1659.0238 -441.6543 -30.694068)
(1715.5295 -440.51581 -32.259131)
(1772.1937 -439.25376 -33.99487)
(1828.712 -437.75876 -35.708732)
(1884.6801 -435.91789 -37.146717)
(1939.647 -433.65634 -38.040014)
(1993.1392 -430.92774 -38.139995)
(2044.7481 -427.73977 -37.269832)
(2094.1471 -424.14717 -35.333538)
(2141.1496 -420.269 -32.338117)
(2185.7016 -416.25902 -28.389744)
(2227.9038 -412.32075 -23.680085)
(2267.977 -408.66911 -18.461384)
(2306.2539 -405.53277 -13.022748)
(2343.1328 -403.12068 -7.6522939)
(2379.0562 -401.61845 -2.6219045)
(2414.4705 -401.16405 1.8418689)
(2449.8068 -401.8438 5.5602993)
(2485.4516 -403.68254 8.4146646)
(2521.7403 -406.64495 10.335583)
(2558.9345 -410.6309 11.302733)
(2597.2231 -415.49503 11.334947)
(2636.7061 -421.03725 10.482657)
(2677.3927 -427.0374 8.8255977)
(2719.1977 -433.24585 6.4690054)
(2761.9313 -439.42221 3.5476779)
(2805.3228 -445.32604 0.20996179)
(2848.9838 -450.75386 -3.350308)
(2892.5121 -455.49081 -6.9588305)
(2936.4354 -459.81447 -10.399989)
(2976.381 -462.87038 -13.299661)
(3017.4408 -465.51153 -15.898476)
(3056.1069 -467.40054 -17.629153)
(3092.4421 -468.86276 -18.612223)
(3126.6869 -470.02289 -18.809188)
(3158.858 -471.19872 -18.242303)
(3189.1946 -472.60276 -17.097899)
(3218.1152 -474.5095 -15.533088)
(3246.0925 -477.11958 -13.781498)
(3273.6913 -480.57947 -12.091098)
(3301.4622 -484.98113 -10.67125)
(3329.896 -490.30582 -9.7064807)
(3359.3795 -496.48076 -9.3022064)
(3390.1441 -503.34053 -9.4899929)
(3422.2577 -510.67409 -10.219973)
(3455.6231 -518.24089 -11.370982)
(3489.9932 -525.78278 -12.765571)
(3525.0146 -533.08322 -14.201401)
(3560.2809 -539.94243 -15.483418)
(3595.3729 -546.26383 -16.431004)
(3629.9213 -551.97089 -16.934443)
(3663.6442 -557.13139 -16.925466)
(3696.3571 -561.79856 -16.416992)
(3728.0254 -566.18168 -15.454599)
(3758.6578 -570.40787 -14.155784)
(3788.5412 -574.7155 -12.563665)
(3812.7325 -578.51326 -10.861381)
(3944.4058 -563.70939 -7.738839)
(4018.2697 -537.3909 -6.7039142)
(4053.473 -504.91986 -6.105612)
(4062.8122 -468.92243 -5.5891245)
(4040.3415 -429.67807 -5.108625)
(3983.4511 -387.79971 -4.6188949)
(3914.6501 -346.05452 -4.3706629)
(3840.6712 -305.29873 -4.1586198)
(3751.4539 -264.71696 -3.8369878)
(3688.2709 -227.51472 -3.8794611)
(3663.6347 -193.15922 -3.8832382)
(3665.5494 -160.34712 -4.0036548)
(3699.1439 -128.51091 -4.1447132)
(3767.8997 -96.820864 -4.0350595)
(3863.1151 -64.754232 -3.9324563)
(3855.2532 -24.99374 -0.54337852)
(3830.3113 -19.810923 1.9320618)
(3801.2415 -14.1192 4.3621424)
(3771.5994 -8.3101448 6.4329885)
(3741.1871 -2.5419611 8.0412013)
(3710.036 3.1922872 9.0600721)
(3678.1067 8.6570059 9.5730495)
(3645.5238 13.789549 9.4655809)
(3612.5897 18.405206 8.9543936)
(3579.542 22.465548 8.1390471)
(3546.8087 25.922573 7.2160541)
(3514.6714 28.821259 6.3858802)
(3483.4726 31.218542 5.8552105)
(3453.3639 33.312915 5.723457)
(3424.4757 35.261351 6.1225393)
(3396.7569 37.294957 7.0900932)
(3370.0096 39.647112 8.5562119)
(3343.9146 42.521442 10.414087)
(3318.0306 46.094555 12.470477)
(3291.8643 50.488997 14.517529)
(3264.9104 55.738481 16.337331)
(3236.6845 61.810398 17.725135)
(3206.8114 68.581668 18.529776)
(3174.9694 75.862149 18.609149)
(3141.0459 83.461896 17.895308)
(3105.0733 91.071972 16.555886)
(3068.1775 98.318689 14.382441)
(3026.943 105.12192 11.668084)
(2986.5924 111.31855 8.4961565)
(2944.8831 116.71459 5.1578729)
(2902.7063 121.21033 1.6764068)
(2860.6204 124.87862 -1.5898602)
(2819.0218 127.78788 -4.5242082)
(2778.2489 130.14201 -6.9142132)
(2738.5527 132.14469 -8.6135337)
(2700.0672 134.05924 -9.4917968)
(2662.8041 136.15273 -9.4627833)
(2626.6595 138.68436 -8.4861653)
(2591.417 141.88818 -6.5673351)
(2556.7616 145.95738 -3.7710612)
(2522.3041 151.03137 -0.21094617)
(2487.5998 157.19514 3.9464683)
(2452.1813 164.47099 8.4922125)
(2415.5864 172.8268 13.189468)
(2377.3904 182.17762 17.787227)
(2337.2351 192.39534 22.042962)
(2294.8536 203.31957 25.743569)
(2250.0935 214.76593 28.723246)
(2202.9209 226.54362 30.880335)
(2153.4257 238.46132 32.182642)
(2101.8147 250.34598 32.676656)
(2048.3624 262.04437 32.453941)
(1993.4376 273.44938 31.680474)
(1937.3717 284.49249 30.490067)
(1880.5291 295.10751 29.101902)
(1823.2087 305.35596 27.605752)
(1765.641 315.19504 26.141655)
(1710.5242 325.20304 24.686959)
(1648.5172 334.11947 23.113025)
(1591.3952 343.38228 21.668614)
(1534.8214 352.76918 20.105292)
(1472.3139 361.31764 17.984436)
(1413.0897 369.87033 15.787595)
(1351.9367 378.33061 13.102841)
(1291.0762 386.491 9.9117649)
(1226.1847 393.45409 6.2687305)
(1163.3928 399.96256 2.1920962)
(1097.5455 405.21245 -2.0759111)
(1032.4436 409.25609 -6.6499129)
(966.99316 412.05991 -11.317912)
(901.38076 413.25759 -16.142567)
(836.15093 412.95045 -21.211033)
(771.52308 410.72766 -26.156789)
(707.1018 406.81902 -31.496457)
(643.9746 401.27916 -37.057204)
(582.2123 393.91583 -42.644927)
(521.08774 384.63178 -48.871522)
(462.63455 373.8927 -54.839222)
(404.75287 361.20979 -61.440211)
(350.6631 346.51527 -67.56221)
(298.6832 330.80615 -73.682044)
(249.4609 313.50784 -79.321514)
(203.98902 293.31183 -83.949461)
(163.26378 273.00322 -87.963459)
(126.2425 251.47934 -90.932199)
(93.877478 227.10433 -91.90472)
(67.045289 203.92491 -92.466926)
(44.768579 179.43089 -91.011864)
(27.482333 154.50394 -88.2739)
(15.156098 129.41502 -83.753991)
(7.2712956 105.87117 -78.036418)
(4.4411958 82.617908 -70.077358)
(5.6027895 62.714883 -60.361746)
(8.3539291 41.716087 -45.310666)
(22.518037 24.393576 -22.942038)
(0 0 0)
(0 0 0)
(0 0 0)
(0 0 0)
(0 0 0)
(0 0 0)
(0 0 0)
(0 0 0)
(0 0 0)
(0 0 0)
(0 0 0)
(0 0 0)
(0 0 0)
(0 0 0)
(0 0 0)
(0 0 0)
(0 0 0)
(0 0 0)
(0 0 0)
(0 0 0)
(0 0 0)
(0 0 0)
(0 0 0)
(0 0 0)
(0 0 0)
(0 0 0)
(0 0 0)
(0 0 0)
(0 0 0)
(0 0 0)
(3868.4336 -586.26737 1.9912633)
(3866.9047 -584.61092 1.9515805)
(3865.2921 -582.94126 1.6126232)
(3863.6583 -581.5396 1.0153155)
(3862.208 -580.42993 0.16042626)
(3860.9601 -579.53374 -0.95397998)
(3860.0807 -578.93164 -2.2385368)
(3859.6162 -578.65273 -3.6303962)
(3859.6162 -578.65251 -5.0241781)
(3860.0523 -579.00073 -6.3298736)
(3860.9568 -579.72735 -7.4381203)
(3862.1874 -580.76399 -8.3304001)
(3863.6533 -582.08705 -8.8889315)
(3865.0963 -583.70454 -9.1652686)
(3866.6875 -585.45512 -9.0317371)
(3914.9178 -32.566379 -4.8075203)
(3913.1332 -34.510744 -5.0586005)
(3911.0076 -36.483713 -5.2403849)
(3908.7846 -38.289715 -5.2250868)
(3906.6604 -39.882185 -5.0491816)
(3904.8 -41.151566 -4.7150797)
(3903.4408 -42.020966 -4.2881963)
(3902.6774 -42.417287 -3.8097043)
(3902.5602 -42.322951 -3.3420856)
(3903.075 -41.74363 -2.9421403)
(3904.1074 -40.715016 -2.6440848)
(3905.5726 -39.267628 -2.5063067)
(3907.216 -37.585902 -2.5248614)
(3908.8296 -35.583784 -2.604513)
(3910.5147 -33.495199 -3.0413835)
(3.8053314 25.336572 31.983835)
(-4.6017824 42.025268 43.540446)
(-11.401037 59.10281 55.16417)
(-13.669089 76.305234 62.978758)
(-13.217827 94.046269 69.611741)
(-6.9262415 112.87931 73.431092)
(3.6371393 132.0738 75.870195)
(20.022473 152.07543 76.405884)
(41.001899 172.18068 75.778307)
(67.263772 192.35284 74.0305)
(98.355985 212.14229 71.259326)
(134.02498 231.74118 68.091525)
(173.78844 250.43052 64.392903)
(217.36688 268.42918 60.651629)
(264.50344 285.18696 56.821148)
(314.83077 300.90199 53.20517)
(367.86006 314.9949 49.732884)
(423.41926 327.63221 46.478341)
(481.41934 338.59279 43.258799)
(541.64676 347.8958 40.112024)
(603.83797 355.23538 36.872587)
(667.95417 360.88556 33.351439)
(733.77762 364.77463 29.564318)
(801.06222 366.89167 25.44348)
(869.58941 367.45329 20.956028)
(938.92621 366.50601 16.235081)
(1008.6861 364.11943 11.374378)
(1078.4725 360.64135 6.5112703)
(1147.7796 356.05879 1.8643552)
(1216.2925 350.5495 -2.4199777)
(1283.5963 344.38591 -6.2753233)
(1349.587 337.55706 -9.4506737)
(1414.171 330.17823 -12.107761)
(1477.4118 322.36954 -14.20462)
(1539.473 314.20559 -15.849111)
(1600.5621 305.65797 -17.070674)
(1661.0673 296.74774 -18.157408)
(1721.2088 287.60274 -19.090408)
(1781.1612 278.06511 -19.988978)
(1841.0666 268.14714 -20.855347)
(1900.8238 257.96612 -21.679101)
(1960.2804 247.39741 -22.320938)
(2019.1236 236.5706 -22.675944)
(2076.9375 225.45121 -22.642698)
(2133.2788 214.18205 -22.052459)
(2187.689 202.80254 -20.820792)
(2239.7923 191.47533 -18.895768)
(2289.2896 180.31229 -16.287639)
(2336.0237 169.47375 -13.066479)
(2379.9809 159.10063 -9.354555)
(2421.2953 149.33951 -5.3203759)
(2460.2387 140.29738 -1.1519729)
(2497.1872 132.06783 2.9426665)
(2532.5998 124.68525 6.7718269)
(2566.9665 118.15469 10.153962)
(2600.7867 112.41966 12.939724)
(2634.5231 107.39515 15.009548)
(2668.5818 102.9425 16.288523)
(2703.2786 98.910866 16.728622)
(2738.8351 95.133173 16.330188)
(2775.3588 91.43484 15.130568)
(2812.8308 87.658642 13.211428)
(2851.1309 83.692072 10.675668)
(2889.9996 79.4259 7.6762305)
(2929.1485 74.807378 4.4356034)
(2968.1214 69.85695 1.0814695)
(3006.4717 64.55422 -2.1640231)
(3043.7976 59.026876 -5.0081664)
(3079.5382 53.255388 -7.4328762)
(3113.4007 47.440183 -9.0826128)
(3145.1849 41.63747 -10.073045)
(3174.7309 35.963779 -10.343968)
(3202.0937 30.538904 -9.9314373)
(3227.4507 25.405034 -8.9829168)
(3251.169 20.639694 -7.6645646)
(3273.6553 16.189949 -6.1897532)
(3295.4551 12.137441 -4.7891003)
(3317.0701 8.3491457 -3.617816)
(3338.9968 4.8733896 -2.9007801)
(3361.6566 1.5405417 -2.6499474)
(3385.3577 -1.641829 -2.9893632)
(3410.276 -4.8205355 -3.7989706)
(3436.4039 -7.9667519 -5.0529842)
(3463.7448 -11.287772 -6.5249447)
(3492.0316 -14.75383 -8.0759375)
(3521.0152 -18.409034 -9.5397408)
(3550.4386 -22.254417 -10.769084)
(3580.0131 -26.295459 -11.632925)
(3609.4366 -30.553584 -12.043783)
(3638.7256 -34.946791 -11.995344)
(3667.4614 -39.475587 -11.436236)
(3696.1061 -44.141555 -10.474808)
(3724.2751 -48.797195 -9.1312436)
(3752.4749 -53.609168 -7.4443211)
(3785.3049 -58.733137 -5.5775311)
(-5.062696 22.159198 29.569982)
(-13.570085 32.735483 38.251541)
(-18.037936 50.059422 46.63456)
(-21.637743 63.830166 53.797546)
(-20.966324 79.641805 58.34395)
(-16.231903 94.958162 61.61022)
(-6.2651529 111.32715 63.418794)
(8.1757958 127.63122 64.041094)
(27.98174 144.28656 63.694883)
(52.582323 160.99319 62.196655)
(81.98296 177.68629 60.282884)
(115.98512 194.15377 57.569701)
(154.19998 210.25094 54.755556)
(196.53681 225.73105 51.622777)
(242.43917 240.4388 48.608947)
(291.77791 254.18473 45.53416)
(344.05292 266.83136 42.745038)
(399.31752 278.14344 39.996112)
(457.1353 288.0157 37.437097)
(517.45152 296.34993 34.853181)
(579.98037 303.12218 32.213603)
(644.77455 308.29462 29.44031)
(711.49234 311.89528 26.461591)
(780.0133 313.90723 23.182109)
(849.98565 314.50051 19.62552)
(921.1041 313.78059 15.820897)
(992.92664 311.84282 11.876275)
(1065.0319 308.84614 7.8672874)
(1136.9382 304.8923 3.9739448)
(1208.2107 300.16519 0.27545694)
(1278.522 294.68625 -3.0214441)
(1347.5313 288.56805 -5.9263799)
(1415.1857 281.89872 -8.408684)
(1481.4669 274.70263 -10.389753)
(1546.5451 267.03794 -12.055778)
(1610.5773 258.88469 -13.349465)
(1673.9139 250.313 -14.505196)
(1736.7562 241.31959 -15.490772)
(1799.3469 231.94104 -16.43948)
(1861.8118 222.23386 -17.286066)
(1924.0483 212.23465 -18.08661)
(1985.909 201.98788 -18.66055)
(2047.0474 191.56628 -18.973883)
(2107.0035 181.0338 -18.857964)
(2165.3229 170.48481 -18.247663)
(2221.4716 159.9859 -17.035914)
(2275.0259 149.65226 -15.204879)
(2325.6439 139.56543 -12.766616)
(2373.1337 129.83708 -9.8012069)
(2417.465 120.5586 -6.4230519)
(2458.7747 111.82129 -2.7955982)
(2497.3513 103.68431 0.91222032)
(2533.605 96.199708 4.5099442)
(2568.0356 89.365242 7.8335423)
(2601.1799 83.16893 10.719182)
(2633.5863 77.543468 13.047038)
(2665.7552 72.408154 14.71584)
(2698.1237 67.647432 15.668514)
(2731.0298 63.144198 15.871686)
(2764.6985 58.772689 15.34175)
(2799.2206 54.41696 14.117976)
(2834.5679 49.982577 12.289277)
(2870.5756 45.42703 9.9456773)
(2906.9807 40.665475 7.2830569)
(2943.3822 35.756964 4.4097792)
(2979.3942 30.68786 1.5247881)
(3015.1356 25.4733 -1.0445204)
(3049.5402 20.278786 -3.4253683)
(3082.1315 15.142773 -5.2820031)
(3112.5781 10.155809 -6.5446028)
(3140.7515 5.2322272 -7.2080452)
(3166.5885 0.5210218 -7.2919204)
(3190.2083 -3.9526553 -6.8634588)
(3211.8511 -8.2760046 -6.0251278)
(3231.9169 -12.361125 -4.9664692)
(3250.889 -16.371484 -3.8047532)
(3269.2844 -20.155529 -2.7958963)
(3287.6474 -23.957896 -1.9851015)
(3306.4478 -27.596304 -1.5999921)
(3326.116 -31.281234 -1.5812334)
(3346.8862 -34.894376 -2.0473321)
(3368.9883 -38.538832 -2.86462)
(3392.3308 -42.192051 -3.9907076)
(3411.3707 -45.796503 -5.3105136)
(3433.6562 -49.459934 -6.6867096)
(3459.8634 -53.23397 -7.9251753)
(3486.6155 -57.111034 -8.9965754)
(3513.7969 -61.134698 -9.6619628)
(3541.0078 -65.164436 -10.101077)
(3568.3897 -69.432283 -9.9850552)
(3595.4885 -73.625477 -9.6715571)
(3622.7923 -78.114734 -8.8212261)
(3649.9562 -82.510634 -7.8522093)
(3677.3672 -87.123637 -6.4300702)
(3709.1212 -91.99488 -4.8491661)
(-11.215958 18.317298 26.431125)
(-19.901016 27.535302 33.117369)
(-26.122655 41.359138 40.471248)
(-28.804649 53.889236 45.220691)
(-28.602884 66.801212 48.413796)
(-23.547976 80.222953 50.637602)
(-14.693741 93.415116 51.996019)
(-0.56651666 107.02469 52.33079)
(18.096018 120.55366 51.694638)
(41.709715 134.4992 50.654874)
(70.065185 148.09014 48.780336)
(103.01836 161.85751 46.754164)
(140.36115 175.12044 44.274477)
(181.75598 188.16828 41.885036)
(227.03803 200.45622 39.315835)
(275.81068 212.13463 37.018854)
(327.93418 222.75817 34.712258)
(383.02757 232.38651 32.667812)
(440.99722 240.75081 30.644601)
(501.59013 247.85939 28.715058)
(564.75235 253.55098 26.76732)
(630.20564 257.84664 24.716026)
(697.79895 260.72905 22.461025)
(767.31265 262.28685 20.005445)
(838.46857 262.57508 17.300729)
(910.9039 261.69895 14.397572)
(984.20593 259.74419 11.335118)
(1057.9362 256.87315 8.2079039)
(1131.5924 253.17349 5.1230682)
(1204.7591 248.71505 2.1912778)
(1276.9991 243.62927 -0.52369174)
(1348.0562 237.94408 -2.9376147)
(1417.7807 231.71248 -5.0123688)
(1486.0898 224.94023 -6.7884251)
(1553.1328 217.66282 -8.2828659)
(1619.0593 209.9266 -9.5665566)
(1684.161 201.69095 -10.71358)
(1748.7002 193.08281 -11.749247)
(1812.8622 184.05768 -12.735282)
(1876.7262 174.7009 -13.657999)
(1940.2811 165.09292 -14.428734)
(2003.3278 155.298 -15.032374)
(2065.4976 145.39435 -15.297202)
(2126.3856 135.49697 -15.183559)
(2185.4482 125.65966 -14.561459)
(2242.1635 115.98272 -13.393166)
(2296.0721 106.55567 -11.660944)
(2346.8146 97.445063 -9.3969474)
(2394.1807 88.734098 -6.6801752)
(2438.1391 80.477821 -3.631345)
(2478.8314 72.729634 -0.3975441)
(2516.5606 65.51266 2.8658796)
(2551.7635 58.838378 5.9924695)
(2584.966 52.678752 8.8404164)
(2616.7414 46.997152 11.271538)
(2647.6643 41.712645 13.190171)
(2678.2623 36.746791 14.512201)
(2708.9942 31.996625 15.197553)
(2740.2054 27.36482 15.227246)
(2772.1173 22.763732 14.622419)
(2804.8233 18.118006 13.430813)
(2838.267 13.393567 11.729078)
(2872.271 8.5555479 9.6389439)
(2906.5488 3.6267424 7.2855806)
(2940.6588 -1.3799143 4.8205317)
(2974.3452 -6.352148 2.4186321)
(3006.6446 -11.419034 0.19793696)
(3042.0671 -16.274306 -1.8671199)
(3070.907 -20.927757 -3.2123425)
(3098.4216 -25.523671 -4.099632)
(3123.6008 -29.811867 -4.4702211)
(3146.5113 -33.924364 -4.3725642)
(3167.2406 -37.844071 -3.8632364)
(3186.1151 -41.600219 -3.0576007)
(3203.5807 -45.258582 -2.1207506)
(3220.053 -48.866651 -1.2023991)
(3236.1516 -52.446583 -0.44879438)
(3252.3054 -56.048363 0.049110455)
(3269.063 -59.669283 0.1723377)
(3286.7342 -63.360771 -0.059510286)
(3305.629 -67.081097 -0.66998231)
(3325.8738 -70.870345 -1.5923178)
(3347.5034 -74.70376 -2.706199)
(3370.4435 -78.601112 -4.0195361)
(3386.3534 -82.357681 -5.1614551)
(3411.3036 -86.269823 -6.3363628)
(3437.0423 -90.321492 -7.2107245)
(3463.2868 -94.349824 -7.912565)
(3489.8607 -98.496221 -8.2656631)
(3516.7424 -102.66509 -8.3148746)
(3543.628 -106.9082 -8.0926178)
(3570.934 -111.28482 -7.5019459)
(3598.3093 -115.6235 -6.8150744)
(3626.1796 -120.13883 -5.6748775)
(3657.3626 -124.85707 -4.5330085)
(-15.063226 16.02862 22.641467)
(-25.679431 22.141696 27.915597)
(-31.8816 33.754393 32.682527)
(-35.227869 43.520509 36.437064)
(-34.586837 54.58636 38.654133)
(-30.221705 65.392181 40.406854)
(-20.967036 76.561167 41.132854)
(-7.3632592 87.577451 40.991961)
(11.164335 98.992276 40.630852)
(34.501701 110.18669 39.339595)
(62.576017 121.52744 38.002657)
(95.3015 132.68256 36.09229)
(132.39546 143.68403 34.290018)
(173.78904 154.29246 32.211482)
(218.97976 164.41208 30.394992)
(267.98664 173.89792 28.499704)
(320.24823 182.56324 26.898685)
(375.8004 190.32306 25.333691)
(434.20345 196.99199 23.944565)
(495.46117 202.54174 22.591309)
(559.20064 206.8675 21.244343)
(625.38367 209.99269 19.797266)
(693.72068 211.89788 18.247518)
(764.04095 212.64773 16.518333)
(835.97046 212.26797 14.615668)
(909.19232 210.8984 12.539081)
(983.2758 208.60379 10.341044)
(1057.7633 205.50584 8.0741714)
(1132.1772 201.67334 5.8300697)
(1206.0714 197.22151 3.6584544)
(1279.0525 192.18691 1.6423597)
(1350.8245 186.62997 -0.18270153)
(1421.1899 180.57162 -1.8209473)
(1490.1341 174.04908 -3.2474581)
(1557.7219 167.08366 -4.5363691)
(1624.1295 159.67388 -5.6830889)
(1689.6056 151.84353 -6.7251435)
(1754.3478 143.63132 -7.7574993)
(1818.6638 135.08861 -8.7368904)
(1882.5897 126.2858 -9.619014)
(1946.0626 117.29458 -10.381309)
(2008.9015 108.17355 -10.908404)
(2070.7718 99.032513 -11.138666)
(2131.2139 89.926777 -10.967971)
(2189.7021 80.942711 -10.330371)
(2245.7307 72.157127 -9.2085614)
(2298.8406 63.650432 -7.6032769)
(2348.6732 55.481447 -5.5528857)
(2395.0331 47.707944 -3.1497026)
(2437.8971 40.373154 -0.50351449)
(2477.4178 33.504868 2.2552559)
(2513.9142 27.105649 4.9901212)
(2547.8345 21.166663 7.5657579)
(2579.722 15.642659 9.8677673)
(2610.1608 10.482662 11.789211)
(2639.7376 5.6015665 13.259322)
(2668.9903 0.924954 14.214049)
(2698.3821 -3.6447128 14.632891)
(2728.2552 -8.1824737 14.503946)
(2758.8406 -12.754139 13.854985)
(2790.2126 -17.400658 12.726359)
(2822.3138 -22.146739 11.203197)
(2854.9747 -26.977374 9.3760097)
(2887.8583 -31.856598 7.3574886)
(2920.6419 -36.750439 5.3078155)
(2952.8099 -41.586235 3.303456)
(2983.981 -46.31033 1.5323994)
(3013.7033 -50.864693 0.10438797)
(3041.5716 -55.23448 -0.92595738)
(3067.3756 -59.437744 -1.5343377)
(3091.0086 -63.314387 -1.7768606)
(3112.4487 -67.059891 -1.5767085)
(3131.9547 -70.614314 -1.1162297)
(3149.791 -74.068765 -0.50209812)
(3166.3348 -77.491489 0.18323159)
(3182.1072 -80.870789 0.82890031)
(3197.6467 -84.281196 1.2965249)
(3213.4032 -87.780482 1.5367929)
(3229.8913 -91.315026 1.4546796)
(3247.4133 -94.994143 1.0975306)
(3266.2743 -98.724769 0.40591348)
(3286.5899 -102.5552 -0.48289272)
(3308.3678 -106.47931 -1.5798986)
(3331.6314 -110.45374 -2.7072422)
(3356.0557 -114.46193 -3.8870957)
(3381.6114 -118.54106 -4.8729341)
(3407.9706 -122.69658 -5.788235)
(3435.0958 -126.89602 -6.3973155)
(3462.5996 -131.13845 -6.8746372)
(3490.6192 -135.49745 -6.9364591)
(3518.7455 -139.82548 -6.9363327)
(3547.427 -144.36233 -6.4890311)
(3576.2745 -148.77036 -6.0544637)
(3605.69 -153.37856 -5.1980889)
(3636.8096 -158.08186 -4.4278542)
(-19.189598 12.119251 18.49743)
(-30.559802 16.714613 21.635393)
(-37.907734 25.819465 26.003797)
(-41.210131 34.076576 28.586525)
(-40.883968 42.517673 29.976048)
(-35.643551 51.642597 30.691027)
(-26.356307 60.35199 30.646667)
(-12.20377 69.585282 30.531568)
(6.7650445 78.409184 29.511477)
(30.579812 87.663448 28.541443)
(59.186439 96.510237 27.02411)
(92.453226 105.55327 25.632218)
(130.29912 114.12592 23.914081)
(172.25963 122.55072 22.521262)
(218.36518 130.36832 20.960698)
(268.052 137.70288 19.769811)
(321.28837 144.22256 18.587791)
(377.63079 149.96303 17.661166)
(436.98884 154.72722 16.794575)
(499.02937 158.51943 16.04249)
(563.63478 161.24574 15.267421)
(630.54317 162.93398 14.486214)
(699.54345 163.57558 13.592819)
(770.33742 163.23082 12.591495)
(842.62208 161.96005 11.44447)
(916.0241 159.85956 10.177012)
(990.11421 156.98975 8.8106441)
(1064.4311 153.45239 7.4011618)
(1138.5194 149.33279 5.97329)
(1211.9372 144.67381 4.5943297)
(1284.3071 139.56169 3.2788993)
(1355.3483 134.01186 2.0577006)
(1424.9247 128.07842 0.93075082)
(1492.9807 121.77728 -0.12443877)
(1559.6204 115.10371 -1.1170977)
(1625.0538 108.12306 -2.0770487)
(1689.4362 100.78854 -3.0309256)
(1753.3249 93.209694 -3.992979)
(1817.4436 85.36731 -4.874929)
(1880.3479 77.378053 -5.6870689)
(1942.6972 69.218788 -6.3740466)
(2004.3285 61.037116 -6.8366227)
(2064.8879 52.832865 -7.0064265)
(2123.945 44.716445 -6.8274256)
(2181.0046 36.742288 -6.2489685)
(2235.5772 28.97491 -5.26286)
(2287.2245 21.483064 -3.8813309)
(2335.6131 14.312156 -2.1561672)
(2380.5695 7.5132246 -0.169341)
(2422.0787 1.1146175 1.98779)
(2460.3067 -4.869575 4.2045565)
(2495.57 -10.446927 6.3747523)
(2528.3206 -15.641553 8.3945114)
(2559.0926 -20.507582 10.177752)
(2588.4689 -25.105046 11.646068)
(2617.03 -29.518398 12.746436)