/*--------------------------------*- C++ -*----------------------------------*\
  =========                 |
  \\      /  F ield         | OpenFOAM: The Open Source CFD Toolbox
   \\    /   O peration     | Website:  https://openfoam.org
    \\  /    A nd           | Version:  6
     \\/     M anipulation  |
\*---------------------------------------------------------------------------*/
FoamFile
{
    version     2.0;
    format      ascii;
    class       pointScalarField;
    location    "0.27";
    object      p;
}
// * * * * * * * * * * * * * * * * * * * * * * * * * * * * * * * * * * * * * //

dimensions      [1 -1 -2 0 0 0 0];

internalField   nonuniform List<scalar> 
28033
(
366714.26
-452497.23
6014.192
1897.2771
717831.92
-629653.28
2821.2307
302.42317
339179.63
311012.7
274247.14
226898.55
171448.41
120914.74
67572.984
10164.482
-46228.982
-97014.96
-157023.03
-187208.69
-249469.77
-294630.1
-297169.69
-14425.857
-8068.5681
-8412.3841
-5061.809
-4420.4879
-2558.3476
-695.35285
1267.7345
2989.685
5056.3853
7245.355
8366.6841
10146.045
11423.376
10418.574
95380.743
108952.54
103213.69
114526.37
116321.45
122356
125447.37
128746.23
131314.55
133504.49
134469.27
135675.56
136049.81
136197.13
135555.79
134684
133568.12
132338.08
130163.24
128488.79
126566.04
124043.21
122094.33
119802.91
117186.16
115125.59
112792.7
110483.67
108119.38
105944.95
103730.5
101423.67
99470.911
97381.314
95312.051
93379.913
91573.704
89973.09
87708.01
86173.879
83963.495
81992.521
79974.548
78057.696
75919.983
73932.158
71791.897
69810.839
67715.025
65847.057
63925.733
62226.286
60581.728
59119.396
57771.699
56575.037
55514.643
54545.615
53679.385
52907.737
52158.74
51433.478
50704.918
50072.13
49307.644
48549.134
47947.387
46969.012
45930.342
45040.211
44084.319
43190.506
42140.388
41323.899
40166.497
39581.005
38215.872
37777.376
36311.051
35780.956
34301.143
33592.54
31983.922
30700.178
29122.229
27396.246
25798.705
24158.476
21224.927
19938.202
18141.588
14202.511
15337.603
14061.893
11637.58
-85090.373
-80730.842
-96712.919
-93973.348
-107325.48
-109714.34
-113969.05
-116485.98
-119864.6
-120853.17
-122799.53
-123363.92
-123713.72
-124077.07
-123152.71
-122768
-121212.24
-119919.98
-118281.28
-116389.8
-114208.76
-112463.12
-109827.32
-107952.2
-105807.21
-103223.53
-101556.25
-98795.92
-97180.154
-94445.376
-92600.631
-90309.655
-88401.06
-86434.99
-84621.524
-83022.312
-80800.957
-79310.231
-77307.055
-75740.716
-73851.925
-72135.849
-70252.601
-68442.311
-66518.391
-64650.102
-62726.958
-60859.175
-59016.354
-57244.839
-55562.218
-53980.339
-52527.004
-51197.507
-49998.042
-48932.927
-47979.194
-47124.407
-46363.215
-45658.447
-44990.347
-44347.064
-43708.662
-43021.55
-42327.998
-41565.898
-40844.779
-40038.513
-39357.424
-38226.829
-37506.713
-36511.138
-35774.878
-34874.11
-34129.187
-33330.495
-32563.997
-31860.001
-31078.924
-30268.564
-29427.643
-28467.538
-27338.031
-26241.423
-24815.089
-23341.444
-21721.324
-20032.335
-17945.961
-16236.908
-14325.293
-12035.539
-10399.512
-9730.9045
-7172.6672
612476.49
595502.19
446173.18
449626.79
324257.21
202212.94
135055.64
16884.514
-77828.297
-185448.45
-269855.8
-368912.59
-468710.02
-521044.95
-551907.28
-132752.51
-114519.27
-61553.824
-123519.05
-103455.45
-117997.21
-114512.05
-124925.63
-119299.49
-126802.03
-129161.09
-125574.94
-130857.1
-125942.1
-129851.68
-127006.38
-124039.63
-125087.14
-120790.07
-121792.33
-118306.62
-115051.16
-114184.38
-111939.05
-110130.77
-108119.97
-104087.48
-103723.49
-99423.179
-98600.366
-96626.066
-94463.696
-92476.601
-90563.055
-88984.439
-85487.81
-84730.321
-83028.276
-81124.161
-79273.908
-77404.236
-75528.594
-73586.516
-71628.625
-69657.961
-67663.226
-65661.51
-63678.934
-61730.398
-59858.72
-58071.953
-56390.43
-54829.456
-53404.425
-52102.154
-50939.093
-49898.174
-48966.779
-48128.906
-47370.659
-46652.292
-45978.863
-45292.044
-44608.354
-43882.979
-43132.895
-42473.214
-41670.918
-39882.332
-39770.728
-38863.691
-37892.371
-37002.814
-36131.19
-35286.032
-34490.138
-33706.952
-32992.206
-32211.577
-31403.76
-30510.144
-29558.038
-28405.292
-27219.072
-25798.177
-24270.644
-22538.837
-20772.836
-18776.098
-16795.596
-14851.844
-12733.102
-11726.319
-9955.1615
-9550.6188
13196.459
13210.4
9788.6592
10332.962
6201.4644
6266.7623
2591.7519
1194.9244
-1306.3467
-3542.903
-3662.4254
-6852.5395
-6942.3936
-11978.755
-10272.797
20511.728
15942.198
15556.168
17494.892
18845.68
21094.34
23061.21
25131.849
26973.89
28849.583
30515.321
31899.115
33370.29
34608.075
35812.83
36796.258
37839.998
38718.821
39622.893
40546.593
41415.174
42388.306
43329.55
44267.706
45213.808
46017.923
46490.42
49004.488
48762.856
50002.918
50777.528
51616.247
52310.258
53084.051
53785.273
54529.646
55333.953
56174.654
57130.992
58191.465
59377.897
60690.16
62166.726
63747.356
65486.128
67315.826
69259.052
71258.233
73331.715
75392.11
77505.453
79536.389
81623.537
83747.584
85558.513
87524.342
89251.51
90328.076
93861.192
95102.806
96210.126
100048.34
101088.54
103345.89
104127.85
108608.1
108611.27
113109.89
114712.26
117206.96
119396.65
120591.8
125207.58
126462.16
127100.26
132101.31
130898.16
136007.37
134138.74
137680.78
139822.23
138953.83
137037.24
140421.68
137296.73
134702.54
135959.92
131899.02
128425.72
122708.23
118434.24
119010.36
112846.59
99471.042
117560.37
236355.42
261487.87
275739.39
289991.06
297176.36
307148.36
308083.92
312445.62
309158.33
300372.07
306842.2
285788.63
271818.39
293835.28
223244.65
-356543.68
-434236.4
-432439.97
-470732.64
-457615.35
-440930.89
-509775.2
-540176.81
-506270.49
-505890.55
-482008.8
-462810.75
-431048.9
-425836.32
-415539.16
1737.7032
1918.0097
2582.212
2976.3544
3958.6591
4534.7055
4659.8127
4723.6199
4743.3797
4442.3866
4176.294
3310.6627
2904.7777
2372.1898
2322.823
-1412.6278
1347.2166
512.65425
-72.330028
-874.87531
-945.38542
-1484.974
-1384.516
-1226.1923
-1045.3108
-192.06883
423.97421
677.37466
4120.453
-728.8387
102435.63
102174.44
93728.834
98922.13
103247.59
106691.44
110512.59
113742.2
116086.1
118103.02
119641.25
120981.09
121439.39
121611.36
121394.92
121134.25
120273.22
119127.58
117795.92
116316.2
114808.27
112969.63
111142.43
109136.16
107006.99
105324.72
102979.36
101045.75
98962.716
97127.493
94836.342
92950.572
91412.426
89230.428
87571.003
85611.485
83843.277
81780.382
80195.84
78499.018
76856.732
75031.443
73286.686
71382.621
69527.285
67755.791
65847.337
64098.509
62271.503
60579.208
58896.127
57338.408
55851.26
54485.334
53219.896
52073.176
51019.777
50052.456
49187.786
48362.435
47580.351
46806.054
46100.925
45370.072
44442.663
43742.768
42668.561
41903.943
41059.92
40233.634
39312.999
38544.081
37569.886
36879.298
35858.783
35158.383
34094.916
33451.918
32209.376
31610.479
30353.912
29386.454
28276.306
27234.826
25790.278
24409.245
22991.602
21021.916
19572.921
18271.779
15427.594
14189.273
12687.215
7161.6493
2557.7506
98344.003
87073.281
78824.615
84523.124
85857.273
89352.399
92630.903
95398.296
97640.601
99802.819
101231.59
102380.75
103089.35
103625.04
103622.99
103396.96
102783.33
102199.98
101097.67
100026.09
98527.605
96962.821
95470.842
93812.877
92145.754
90319.082
88632.722
86952.049
85162.779
83417.724
81803.502
80172.329
78374.667
76735.555
75204.145
73493.659
71875.217
70343.978
68749.623
67122.747
65506.019
64144.605
62210.627
60732.736
59082.406
57556.87
55930.457
54443.281
52868.008
51444.967
49985.616
48664.24
47372.745
46194.272
45092.186
44078.839
43145.661
42297.985
41505.53
40772.076
40063.575
39417.693
38809.954
38167.603
37552.623
37356.235
37062.38
36522.442
36110.069
35382.761
34755.643
34191.104
33281.79
32805.602
31609.456
31331.071
29917.263
29727.654
28162.352
28010.106
26448.213
25788.332
24663.78
23061.64
21730.58
20550.137
18719.79
17659.45
16071.959
14028.874
12227.799
10697.213
7047.3947
3808.5879
-2475.0047
79615.849
76713.622
66630.295
70933.796
70700.203
74376.01
77078.46
79484.147
81124.141
83300.271
84419.395
85653.932
86283.721
86838.742
86886.137
86917.872
86469.581
85987.396
85184.32
84287.71
83259.001
82183.832
80853.077
79593.792
78040.564
76739.322
75204.644
73745.955
72285.304
70857.244
69400.119
67904.132
66586.877
65157.03
63834.492
62415
61224.687
59953.757
58632.785
57269.755
55856.624
54411.21
53266.881
51937.226
50664.523
49297.654
47992.05
46665.7
45383.157
44121.438
42897.944
41746.753
40630.763
39612.782
38645.213
37760.252
36951.207
36199.726
35502.01
34856.558
34242.853
33658.051
33088.635
32446.437
31995.856
31535.19
31213.7
30618.746
30279.094
29851.252
29277.562
28668.275
27994.249
27381.686
26785.032
26059.132
25467.925
24629.775
24080.194
23158.651
22399.285
21726.053
20429.773
19687.876
18647.26
17562.836
16127.881
15184.612
13582.124
12172.058
10777.056
7964.6449
6157.3185
1421.7057
-814.40097
65705.887
62692.933
52571.587
57080.606
55637.671
59245.171
61087.007
62679.213
64487.949
66161.474
67162.851
68137.65
68806.997
69274.126
69413.058
69464.464
69201.224
68946.807
68297.276
67701.419
66823.095
65889.803
64882.78
63813.041
62730.606
61607.49
60454.321
59347.901
58173.987
57035.667
55911.851
54811.405
53694.449
52544.448
51579.564
50266.791
49225.406
47740.406
46585.367
45466.087
44549.368
43529.153
42347.876
41209.467
40158.484
39087.467
38052.449
37032.082
36021.905
35036.94
34083.808
33168.708
32293.074
31476.481
30695.857
29990.199
29322.028
28704.399
28132.945
27604.992
27104.334
26628.421
26170.399
25752.937
25361.405
24923.845
24646.522
24135.221
23651.842
23303.425
22932.279
22386.549
22061.73
21550.912
20998.744
20464.298
19858.158
19395.575
18676.173
18189.36
17511.573
16940.195
16109.131
15433.285
14500.984
14073.454
12982.731
11967.456
10807.701
9712.2724
7772.5344
6390.4886
3826.4291
1232.9095
-2479.9896
54809.533
47507.194
39020.326
43242.744
42348.583
44846.922
46227.688
47720.406
48814.463
50243.247
50838.27
51775.889
52183.714
52662.148
52667.099
52867.859
52582.123
52406.236
51939.472
51546.808
50893.384
50313.72
49508.762
48813.217
47922.585
47115.13
46209.256
45354.626
44480.76
43647.128
42794.963
41951.326
41100.55
40330.272
39503.501
38679.72
38424.918
38276.462
37400.334
37355.7
36328.306
35464.016
34771.412
33979.318
33221.044
32372.052
31577.796
30738.456
29943.823
29137.761
28362.943
27614.539
26893.184
26212.17
25574.26
24982.433
24424.89
23914.726
23446.515
22998.713
22599.785
22158.759
21857.905
21431.632
21040.238
20782.819
20331.023
20005.948
19520.525
19164.918
18781.402
18299.01
17520.858
16921.444
16315.193
15848.712
15473.045
14961.514
14558.039
14165.855
13544.277
13289.337
12551.986
12329.628
11497.911
11288.99
10113.987
9642.523
8489.1259
7356.6018
6174.1786
4960.8911
3356.9658
808.85339
-1624.9971
35437.161
33691.502
26707.724
30368.341
28456.143
29884.905
31564.894
31995.287
32957.845
33951.253
34371.873
34951.388
35335.635
35552.146
35663.765
35786.521
35582.049
35547.831
35178.04
34893.689
34400.866
33985.547
33442.148
32961.96
32373.862
31851.426
31293.33
30772.058
30198.337
29662.711
29117.744
28572.641
28057.88
27517.3
26925.36
26496.18
26210.459
25940.803
26149.854
25862.803
25757.929
25144.726
24556.021
24028.058
23492.698
22925.127
22381.005
21835.349
21298.626
20762.974
20245.813
19737.918
19247.362
18784.525
18341.255
17925.711
17537.891
17179.034
16833.081
16522.176
16213.037
15951.165
15655.272
15403.59
15186.176
14878.035
14698.004
14451.65
14203.484
13959.955
13691.275
13257.466
12836.342
12075.993
11526.516
11250.651
10914.012
10614.788
10241.631
10107.778
9433.6733
9603.0949
8653.1285
8891.0045
7849.2769
8090.758
6915.4917
7146.1271
5969.5836
6015.1822
5062.2576
4220.768
2840.0188
1062.3399
-111.42205
19937.406
17310.66
13854.406
16594.7
14510.096
16210.464
16807.052
16944.238
17476.617
18086.901
18119.865
18584.1
18675.9
18924.799
18899.387
19053.831
18894.756
18965.708
18730.157
18713.345
18448.501
18328.704
18049.903
17846.606
17528.18
17332.194
17012.103
16770.603
16483.3
16268.285
15990.933
15766.846
15498.338
15234.388
15004.86
14777.435
14515.966
14377.261
13920.806
13545.749
13336.666
13101.059
12819.017
12642.747
12416.741
12175.16
11928.845
11681.079
11416.961
11159.097
10904.457
10650.215
10412.12
10185.132
9969.0607
9776.4698
9594.2661
9430.642
9276.3597
9137.8329
9007.6902
8878.4257
8771.7529
8643.2459
8522.497
8426.7908
8262.7942
8125.3109
7996.2365
7848.8609
7688.3382
7507.4665
7288.2105
7253.2869
7161.6106
6990.7113
6775.4341
6542.5272
6421.7978
6172.1881
5994.1136
5943.6753
5470.1847
5740.5602
5033.3474
5407.0646
4670.3528
4958.6132
4193.0414
4097.2577
3095.7281
2610.4193
2185.4808
1494.8592
869.38447
2294.028
2193.2169
286.68767
1591.7501
1091.8801
1253.6717
1600.0467
1383.3895
1398.0804
1661.5477
1498.0804
1606.9203
1715.2501
1744.0013
1742.5478
1939.9631
1852.8321
2030.6732
1956.1839
2090.1785
2058.9974
2220.2255
2091.5153
2168.0622
2189.4548
2235.8736
2257.9923
2332.6252
2371.9039
2414.3891
2449.3731
2495.3098
2505.7216
2567.531
2579.4749
2559.4913
2662.9777
2641.2667
2700.6275
2642.8605
2707.4044
2796.2585
2757.2488
2778.1775
2800.4032
2794.18
2818.1647
2823.3129
2826.0641
2816.0634
2803.7195
2781.7266
2755.1601
2721.6782
2693.8964
2659.7956
2624.686
2606.2059
2567.68
2556.5377
2529.1913
2526.4212
2501.6975
2512.3833
2525.6716
2504.6953
2538.173
2547.1523
2535.9053
2528.8985
2468.5692
2452.9147
2291.343
2247.0188
2159.1715
2146.5824
2005.9116
1969.3214
1892.2777
1817.6361
1836.5253
1672.5869
1797.7499
1670.5193
1637.1967
1826.4027
1399.7838
2017.9861
1284.4252
2157.6063
1835.1944
2682.889
2524.0548
2085.9269
2370.0939
-12317.944
-12648.703
-11721.431
-10874.299
-12073.924
-12705.564
-12546.578
-13643.262
-13748.389
-13988.114
-14375.493
-14384.93
-14422.838
-14472.326
-14388.936
-14199.104
-14209.021
-13881.868
-13835.813
-13542.301
-13438.205
-13307.111
-13045.466
-12629.606
-12391.317
-12023.35
-11743.979
-11362.923
-11087.513
-10730.576
-10425.966
-10108.259
-9819.8682
-9505.0178
-9269.2866
-8919.4541
-8707.491
-8377.4796
-8112.0871
-7798.8905
-7532.9093
-7234.706
-6979.3492
-6659.6491
-6370.0777
-6111.7293
-5856.3404
-5616.1106
-5397.6175
-5196.4226
-4998.9689
-4825.1938
-4661.9726
-4505.6013
-4358.215
-4226.2983
-4090.1792
-3959.1294
-3844.3352
-3713.5082
-3593.9668
-3489.346
-3358.624
-3247.0793
-3164.0348
-3040.3536
-2940.0606
-2851.2105
-2745.8781
-2647.9747
-2566.5975
-2454.0645
-2391.3526
-2315.344
-2353.9946
-2369.9536
-2229.8769
-2200.838
-2112.8362
-2085.2193
-1893.6747
-1909.8778
-1624.1835
-1535.1286
-1386.4871
-863.74699
-1065.281
28.791749
-471.54629
763.51515
271.61945
780.99811
643.12203
1919.4155
3357.7036
-29786.273
-29106.579
-24950.986
-26390.344
-27361.532
-28185.399
-29232.435
-30182.814
-31116.247
-31594.924
-32201.27
-32437.659
-32655.097
-32656.286
-32609.097
-32335.58
-32138.772
-31679.588
-31284.129
-30780.009
-30242.671
-29115.865
-28303.899
-27681.607
-27091.647
-26470.567
-25816.444
-25187.955
-24556.234
-23925.052
-23343.413
-22741.098
-22195.596
-21624.493
-21061
-20553.827
-19987.558
-19484.231
-18933.262
-18431.898
-17902.419
-17363.4
-16832.027
-16325.175
-15791.743
-15295.222
-14780.874
-14288.659
-13819.819
-13369.983
-12938.373
-12545.346
-12170.47
-11825.535
-11508.078
-11216.572
-10944.007
-10689.3
-10463.139
-10222.927
-10023.175
-9803.5707
-9592.4737
-9400.3558
-9185.3661
-8971.3281
-8765.2986
-8566.2942
-8355.4835
-8176.3261
-7991.8447
-7784.4295
-7679.3416
-7217.3006
-6686.4792
-6462.4971
-6185.8576
-6165.5995
-5829.2057
-5913.7439
-5272.6831
-5606.483
-4697.2551
-4954.9482
-4228.5106
-3879.7356
-3728.2365
-2440.2761
-2911.0332
-1005.5974
-1274.5412
-181.93512
914.97921
2463.7302
4168.3984
-45610.466
-36820.287
-35165.838
-36847.98
-38241.497
-40171.807
-41345.442
-42994.564
-44163.747
-44853.578
-45552.693
-46049.04
-46071.867
-46139.613
-45967.659
-45567.703
-45259.194
-44589.584
-44055.878
-43516.441
-43070.314
-43491.402
-42772.491
-42203.918
-41433.091
-40495.282
-39660.572
-38711.415
-37822.29
-36951.269
-36100.442
-35272.333
-34499.476
-33667.057
-32918.916
-32102.861
-31374.537
-30574.095
-29827.312
-29046.679
-28290.75
-27502.092
-26751.843
-25978.111
-25223.892
-24488.861
-23774.017
-23078.724
-22413.585
-21773.507
-21159.922
-20582.932
-20030.54
-19513.857
-19021.293
-18564.476
-18124.822
-17715.826
-17322.135
-16949.645
-16582.14
-16233.221
-15895.366
-15556.697
-15249.836
-14928.906
-14612.273
-14283.82
-13976.729
-13649.959
-13317.545
-13078.748
-12685.113
-12322.105
-11793.574
-11612.149
-10996.87
-10647.824
-10309.948
-9958.0124
-9700.6255
-9174.5729
-8885.7263
-8330.6202
-7775.7948
-7345.9185
-6429.4974
-6011.8591
-4917.0334
-4001.8125
-3136.6935
-1355.8685
-90.899904
2062.9375
5859.0036
-53950.474
-53347.781
-49178.193
-50798.357
-52738.316
-54952.113
-57121.638
-59134.716
-60314.351
-61887.04
-62496.214
-63091.638
-63302.678
-63321.022
-63033.828
-62660.264
-62009.576
-61206.32
-60424.345
-59402.866
-58619.203
-57460.195
-57465.814
-56803.505
-55612.552
-54589.332
-53365.423
-52153.578
-50991.095
-49793.198
-48690.839
-47516.812
-46493.426
-45396.979
-44362.053
-43361.639
-42320.787
-41325.601
-40309.279
-39321.038
-38294.887
-37313.951
-36300.223
-35314.521
-34311.941
-33327.155
-32354.18
-31393.588
-30466.385
-29574.613
-28716.909
-27913.97
-27157.712
-26455.562
-25806.268
-25211.748
-24663.309
-24153.59
-23692.954
-23244.092
-22822.761
-22425.285
-22007.369
-21611.148
-21219.36
-20810.789
-20403.456
-20005.902
-19588.377
-19152.211
-18801.493
-18335.013
-17961.368
-17606.79
-17150.666
-17156.815
-16713.08
-16239.734
-15803.168
-15398.08
-14824.572
-14340.64
-13677.306
-13038.975
-12176.713
-11569.527
-10260.384
-9722.5968
-8286.7185
-7073.0557
-6152.5156
-3330.3831
-1452.9325
3057.2504
7389.0731
-77182.329
-70531.708
-62124.197
-67502.329
-68108.881
-72665.493
-74406.325
-77149.815
-78779.434
-80385.604
-81338.034
-81958.751
-82308.933
-82298.19
-81941.531
-81484.414
-80739.804
-79705.47
-78746.097
-77447.398
-76160.192
-74882.085
-72955.228
-71490.029
-69921.583
-68575.993
-67106.722
-65658.398
-64187.885
-62788.972
-61363.327
-59984.074
-58730.634
-57419.977
-56198.267
-54924.105
-53668.809
-52426.246
-51213.089
-49954.658
-48745.057
-47490.773
-46258.063
-45015.842
-43786.225
-42574.624
-41384.816
-40217.619
-39092.727
-38007.092
-36963.377
-35981.13
-35046.06
-34174.457
-33353.847
-32599.6
-31884.428
-31229.061
-30610.716
-30022.363
-29473.334
-28930.084
-28405.693
-27885.726
-27379.807
-26864.281
-26361.457
-25833.14
-25321.419
-24786.023
-24231.072
-23711.72
-23164.992
-22618.694
-22068.969
-21553.662
-21016.208
-20482.438
-19885.626
-19260.949
-18628.439
-17898.43
-17135.761
-16265.229
-15392.04
-14304.522
-13212.896
-12122.511
-10403.484
-9448.9202
-7124.6703
-5263.322
-2965.21
846.60022
5667.8229
-82393.569
-81677.24
-72897.766
-80558.044
-83566.556
-87794.678
-90574.996
-93975.89
-96016.899
-97527.808
-99090.513
-99492.021
-99915.892
-99930.963
-99233.532
-98797.663
-97635.978
-96362.163
-95074.837
-93351.568
-91744.459
-90050.038
-88129.873
-86631.598
-84497.907
-82806.025
-80968.631
-79127.05
-77599.816
-75735.339
-74181.747
-72415.235
-70836.229
-69177.529
-67722.326
-66298.899
-64765.554
-63390.667
-61888.044
-60488.359
-59018.784
-57570.463
-56105.751
-54621.553
-53139.361
-51644.387
-50162.647
-48700.797
-47277.361
-45905.134
-44596.479
-43368.909
-42224.287
-41170.088
-40208.832
-39334.453
-38539.288
-37816.533
-37152.548
-36532.647
-35944.257
-35374.599
-34810.28
-34218.104
-33623.828
-32966.116
-32327.386
-31711.356
-31123.177
-30400.237
-29797.644
-29113.541
-28409.873
-27838.199
-27108.946
-26502.442
-25856.869
-25220.771
-24523.802
-23885.431
-23121.094
-22318.312
-21420.203
-20468.263
-19272.021
-18160.34
-16742.205
-15294.739
-13614.095
-12286.894
-9506.6223
-8548.7573
-5158.6332
-1235.1506
5349.6548
-111335.99
-82350.813
-87767.673
-93173.222
-97500.481
-100870.21
-105245.51
-108424.34
-110264.64
-112415.44
-113640.24
-114384.44
-114595.59
-114500.76
-113919.01
-113171.42
-112172.99
-110744.6
-109101.12
-107555.92
-105508.27
-103739.64
-101836.8
-99791.585
-97707.429
-95585.611
-93438.062
-91377.113
-89609.378
-87727.551
-85890.771
-83955.235
-82120.933
-80157.083
-78303.83
-76827.272
-75172.64
-73513.199
-71836.611
-70184.613
-68492.062
-66810.748
-65089.867
-63363.922
-61625.399
-59883.801
-58159.723
-56462.671
-54806.192
-53218.533
-51699.953
-50284.06
-48959.876
-47752.329
-46650.861
-45656.638
-44755.851
-43949.441
-43204.781
-42515.636
-41867.901
-41244.197
-40608.644
-39977.176
-39305.922
-38537.246
-37751.855
-37004.482
-36368.316
-35571.204
-34839.762
-33926.183
-33205.122
-32385.991
-31617.956
-30851.078
-30193.224
-29386.113
-28680.047
-27862.155
-27003.507
-26031.93
-25064.79
-23798.948
-22586.969
-21200.88
-19543.234
-18006.293
-16263.346
-14472.039
-12356.377
-11526.832
-8304.4169
-5729.2001
767.63786
211685.18
211044.75
198511.01
204763.63
205230.49
206782.93
215151.77
209298.81
209166.18
208175.82
207023.8
200810.01
197672.74
214346.38
176564.09
203527.52
209394.41
193247.67
199958.09
200425.16
205086.69
198570.76
206254.1
204287.03
206013.77
201695.21
201719.57
202367.59
207094.86
178081.98
154683.34
182065.25
157003.19
164576.76
163155.7
161249.27
163939.1
161702.64
163430.21
161571.76
161174.62
164347.78
153677.96
173151.5
160164.06
143283.93
143670.36
141427.12
139237.4
143324.18
141412.42
143388.19
144374.15
142347.37
143400.56
143923.67
139990.22
139673.24
154530.58
110132.7
103545.96
117666.48
100500.66
109328.75
105733.94
108622.2
107754.46
107061.61
108339.7
108564.52
107076.85
107830.61
106912.34
110911.1
100325.59
76279.611
81712.904
74597.587
77371.23
76667.51
77331.002
77109.754
77466.813
77708.572
77830.382
76322.544
79198.205
75416.69
81408.932
77452.1
44076.064
44251.621
43926.994
42089.477
44690.846
43878.861
44673.84
44408.056
44042.547
44140.45
44823.794
41477.222
45304.616
43708.992
42906.317
10197.821
10472.68
6881.7857
9818.0483
8849.1916
9152.1913
9674.248
9392.865
9440.0127
10725.115
8186.7407
10565.701
13087.258
6397.2494
22313.76
-22759.024
-25084.371
-22383.719
-23655.964
-23081.962
-23000.531
-22852.482
-22280.006
-23264.532
-20059.424
-22971.802
-20931.842
-19014.641
-26228.344
-2349.0295
-50797.171
-60807.011
-54708.19
-55743.824
-55371.566
-56185.566
-55740.971
-56003.418
-56643.74
-54408.797
-59715.857
-53569.641
-51990.881
-63495.191
-36774.063
-85244.184
-98205.493
-84052.754
-91703.449
-87315.163
-88214.216
-87722.572
-87359.962
-88546.273
-84083.156
-85783.662
-87825.046
-79032.261
-91180.651
-60308.168
-123945.39
-118128.07
-116068.98
-114422.44
-117474.43
-118066.45
-118087.3
-119272.87
-119147.11
-117930.54
-122342.09
-107541.58
-114247.62
-124007.48
-94924.787
-144342.67
-151344.14
-137844.11
-139749.45
-135134.37
-137813.1
-136766.97
-136692.56
-135632.8
-133122.28
-135102.75
-139421.19
-125755.06
-152891.7
-84572.516
-163597.77
-191041.31
-161671.35
-175725.7
-178855.45
-177053.47
-178475.6
-185294.64
-181199.52
-188868.96
-176606.9
-172325.16
-178271.09
-173387.35
-168534.83
-190121.45
-159003.18
-148803.61
-147577
-152969.27
-164867.16
-155636.39
-147805.05
-145378.14
-142961.98
-148432.32
-149809.63
-148649.11
-166914.45
-154211.64
-129480.19
-122338.68
-140436.92
-146733.31
-153803.91
-165467.06
-162075.75
-152902.73
-172314.89
-168835.26
-162513.48
-151956.61
-145203.28
-140567.07
-117081.09
-110636.74
-109431.25
-119839.08
-122473.04
-128395.26
-132159.21
-136195.65
-138463.88
-141883.14
-136696.89
-134055.78
-126408.76
-127058.5
-128517.26
-130331.25
-97245.254
-106802.21
-104975.73
-112687.13
-118141.23
-114387.47
-119302.77
-118468.11
-115121.51
-119658.86
-115626.67
-117597.88
-115622.36
-103693.51
-109285.48
-107865.37
-120038.99
-120342.33
-122870.63
-124589.2
-127427.85
-127845.5
-128588.33
-128504.78
-126250.88
-126168.15
-123268.33
-119936.69
-118705.6
-113240.07
-114647.4
-121661.64
-118178.32
-125698.61
-126029.07
-127855.72
-130527.74
-129873.63
-130669.86
-131238.78
-128035.46
-126251.6
-121732.75
-118119.28
-117070.43
-116338.3
-120906.96
-123405.8
-127503.39
-128084.5
-131092.34
-130557.54
-131074.91
-130936.05
-129103.01
-128847.92
-126560.16
-124716.96
-121634.1
-116364.2
-118983.56
-125042.25
-125329.92
-129130.32
-129007.73
-130980.77
-131823.08
-131973.71
-131797.53
-131110.76
-128798.75
-127859.17
-125213.66
-121172.06
-121855.39
-122570.39
-124785.51
-127458.37
-129668.77
-131992.95
-132671.62
-133547.68
-133898.6
-133338.81
-133010.32
-131673.66
-130036.23
-128079.5
-124448.67
-122189.37
-123398.73
-127229.56
-128231.86
-130866.69
-130519.72
-132578.1
-132153.81
-132820.45
-132278.65
-131603.83
-130484.75
-129024.4
-128038.06
-125172.61
-125165.01
-125791.86
-127196.85
-129353.76
-130440.98
-131931.61
-132434.91
-133174.24
-133132.08
-132923.37
-132797.55
-131560.09
-130831.32
-129418.36
-126952.55
-126696.59
-126070.28
-128814.09
-129589.07
-131531.62
-131684.41
-133018.53
-132909.32
-133406.68
-133163.5
-132887.76
-132296.74
-131535.95
-130104.46
-128792.78
-127757.43
-127246.67
-128254.69
-129964.7
-130478.77
-131312.21
-131635.37
-132040.64
-132093.62
-132066.68
-131806.37
-131183.82
-130359.59
-129825.47
-127775.23
-128306.94
-127707.94
-128617.96
-128973
-130860.59
-130844.15
-131808.4
-131651.03
-132076.97
-132012.79
-131757.84
-131181.56
-131038.86
-129785.61
-129268.7
-128091.81
-126597.07
-128128.36
-129294.23
-129321.41
-130096.45
-130236.34
-130203.96
-130835.75
-130485.66
-130327.71
-129975.34
-129638.13
-128976.95
-127477.46
-128266.64
-126726.29
-127020.99
-127798.06
-128819.97
-128840.14
-129230.09
-129420.19
-128907.94
-129514.03
-129335.36
-129000.52
-128783.61
-127999.24
-127762.73
-127080.74
-124938.02
-126214.56
-126844.62
-127276.11
-127290.09
-127666.17
-128131.19
-127673.87
-127512.21
-127576.04
-127107.31
-127187.1
-126240.31
-125713.19
-125906.55
-124119.44
-124318.77
-125146.2
-125202.04
-125727.92
-126049.17
-125996.75
-125940.27
-126168.41
-126018.81
-125803.97
-125816.42
-125792.61
-124150.42
-125482.55
-122772.29
-122928.33
-123582.42
-123394.89
-123711.16
-123861.33
-124079.14
-123678.71
-123814.51
-123826.99
-123432.18
-123449.43
-122698.9
-122783.48
-122582.55
-120402.23
-120872.53
-121488.23
-121905.33
-121744.67
-121857.33
-121460.09
-122120.78
-121959.53
-122004.17
-121651.97
-121753.46
-121426.18
-121319.73
-121407.61
-118758.14
-118756.23
-119339.26
-119084.26
-119503.1
-119693.2
-119860.07
-119317.8
-119685.49
-119482.91
-118915.87
-119662.32
-118915.95
-119347.78
-118803.61
-116850.04
-116684.44
-117325.84
-117190.33
-117192.5
-117103.76
-117432.97
-117501.24
-117409.83
-117416.82
-117366.36
-117455.38
-116932.63
-116972.06
-116951.35
-114091.69
-114622.3
-114922.65
-114897.5
-115078.63
-115026.24
-115153.29
-114929.77
-115272.49
-114811.09
-114928.4
-115308.32
-114996.11
-114442.13
-115338.7
-112500.94
-112006.96
-112614.19
-112537.83
-112764.43
-112603.13
-112952.97
-112809.52
-112568.38
-113178.05
-112606.8
-112650.69
-112116.11
-112778.47
-112533.14
-109982.78
-109774.66
-110440.78
-110394.2
-110428.77
-110665.67
-110441.78
-110332.68
-110577.79
-110359.96
-110184.62
-110589.94
-110285.49
-110108.53
-110277.13
-107625.81
-107725.01
-107774.58
-108012.5
-108033.23
-107918.66
-108364.83
-108193.57
-108230.13
-108410.07
-107756.19
-108376.57
-107955.36
-108111.83
-108150.61
-105807.24
-105017.44
-105713
-105350.89
-105824.19
-105897.15
-106073.21
-105842.43
-106029.8
-105958.52
-106147.65
-105810.51
-105501.07
-105949.83
-105575.43
-102930.1
-103022.5
-103127.08
-103640.84
-103269.7
-103904.48
-103618.26
-103840.63
-103715.07
-103771.62
-103544.81
-104124.35
-103319.94
-103576.26
-103941.32
-101213.82
-100429.98
-100789.53
-100962.02
-101416.41
-101397.75
-101431.25
-101454.2
-101622.12
-101510.29
-101454.18
-101437
-101123.6
-101663.08
-101018.64
-98290.725
-98660.469
-98919.684
-98833.585
-98926.943
-99208.548
-99257.731
-99409.206
-99380.954
-99479.192
-99252.148
-99514.724
-99026.587
-99064.834
-99478.67
-96855.457
-95894.589
-96560.994
-96670.495
-97083.966
-96886.115
-97168.992
-97190.012
-97291.934
-97115.697
-97017.715
-97191.387
-96704.643
-97117.391
-96891.196
-94409.662
-94010.753
-94482.3
-94577.938
-94713.247
-95159.144
-94980.056
-95063.751
-94878.853
-95182.352
-94928.943
-95136.098
-94648.384
-94885.01
-94775.01
-92568.926
-91702.814
-92454.729
-92438.059
-92713.608
-92917.681
-92956.325
-93063.839
-93001.89
-93105.362
-92858.856
-93084.573
-92604.731
-92921.381
-92704.909
-90387.548
-89728.128
-90371.175
-90409.627
-90722.714
-90913.731
-90960.535
-91058.822
-91042.375
-91137.736
-90915.598
-91116.523
-90645.333
-90960.243
-90667.595
-88437.106
-87721.243
-88427.738
-88444.72
-88772.672
-88934.365
-89062.076
-89145.049
-89132.294
-89197.939
-88995.261
-89177.046
-88762.809
-89088.683
-88798.522
-86346.719
-85902.1
-86593.461
-86511.276
-86881.591
-87138.846
-87139.289
-87365.77
-87254.487
-87482.651
-87133.216
-87414.289
-86862.568
-87249.429
-86705.822
-84285.785
-84286.453
-84577.75
-85113.145
-84958.167
-85322.215
-85385.692
-85486.079
-85519.436
-85587.371
-85425.401
-85536.225
-85265.155
-85318.231
-85444.243
-83047.983
-82222.455
-82969.277
-82957.104
-83504.965
-83441.287
-83767.295
-83704.512
-83870.301
-83642.004
-83641.886
-83864.12
-83365.08
-83673.122
-83355.692
-81036.196
-80621.93
-81225.968
-81403.317
-81543.988
-81880.861
-81864.364
-82075.314
-82011.882
-82101.277
-81902.796
-82094.936
-81716.08
-81837.604
-81647.332
-79499.59
-78771.15
-79590.844
-79543.675
-79968.687
-80057.187
-80244.271
-80294.9
-80317.312
-80393.124
-80179.4
-80437.204
-79931.056
-80114.292
-79902.48
-77599.777
-77109.687
-77809.472
-77855.27
-78166.519
-78352.787
-78464.322
-78529.209
-78576.31
-78610.145
-78423.701
-78594.868
-78183.476
-78313.776
-78151.694
-75904.667
-75299.71
-76082.384
-76029.786
-76427.844
-76504.111
-76669.458
-76710.724
-76746.138
-76807.001
-76585.367
-76803.183
-76365.058
-76472.246
-76309.887
-74028.038
-73523.165
-74217.84
-74209.097
-74547.274
-74651.643
-74808.135
-74812.874
-74887.445
-74898.977
-74726.207
-74922.789
-74492.049
-74578.742
-74455.107
-72187.427
-71615.965
-72339.564
-72261.379
-72626.056
-72702.967
-72847.454
-72858.408
-72913.278
-72942.632
-72758.302
-72952.77