/*--------------------------------*- C++ -*----------------------------------*\
  =========                 |
  \\      /  F ield         | OpenFOAM: The Open Source CFD Toolbox
   \\    /   O peration     | Website:  https://openfoam.org
    \\  /    A nd           | Version:  6
     \\/     M anipulation  |
\*---------------------------------------------------------------------------*/
FoamFile
{
    version     2.0;
    format      ascii;
    class       pointScalarField;
    location    "0.01";
    object      E;
}
// * * * * * * * * * * * * * * * * * * * * * * * * * * * * * * * * * * * * * //

dimensions      [1 -1 -2 0 0 0 0];

internalField   nonuniform List<scalar> 
625
(
4.1138145e-22
1.0978069e-21
-1324.1347
-166.94138
6.1805919e-22
7.8779451e-22
-775.62312
-2328.8505
4.6986714e-22
7.2326355e-22
1.0359035e-21
-499.71314
-455.96672
-256.63387
7.9431136e-21
2.6551867e-19
3.1723252e-18
4.6637159e-17
2.0635688e-15
7.1253162e-14
1.8009093e-12
3.3113231e-11
4.5623917e-10
4.6998455e-09
4.5321488e-08
7.0448011e-07
1.3249638e-05
0.00016025722
0.0011096944
0.0088354438
0.099416723
0.9288979
5.5462208
27.158614
88.789678
215.53272
361.28776
7.8764851e-21
5.4597463e-20
3.4190768e-18
6.9348202e-17
4.8945105e-16
1.0800957e-14
4.4823504e-13
7.497853e-12
6.5958935e-11
8.7157906e-10
2.7121883e-08
5.7036065e-07
7.0806647e-06
5.2998736e-05
0.0002362209
0.0013853858
0.028228686
0.42152644
3.5349155
18.514248
63.315613
158.81544
305.10581
4.3676233e-22
6.2464533e-22
5.8342936e-22
3.8460763e-21
3.0475634e-20
2.0952361e-18
4.7924926e-17
2.7318592e-16
1.5747844e-14
5.4214384e-13
4.8305959e-12
2.7850211e-11
1.4866654e-09
5.0265107e-08
8.0815999e-07
7.0951503e-06
3.2024146e-05
0.00011113894
0.0028221146
0.057026013
0.65506071
4.8976117
25.32556
94.480629
235.82439
496.47775
-1527.3358
-1618.9137
-1567.0012
268.76438
178.92648
80.604877
24.717233
5.270218
0.83179883
0.093534855
0.0087524936
0.00089175677
9.352863e-05
8.5617158e-06
6.3583119e-07
3.7028188e-08
1.6537868e-09
8.7280165e-11
8.504932e-12
5.625652e-13
2.5538103e-14
3.4216077e-16
5.0615984e-17
3.5023378e-18
9.1224168e-20
1.4332929e-21
2.3016869e-22
2.1996755e-22
3.1724282e-22
9.0411931e-22
8.3152437e-22
6.399086e-22
-268.90574
-286.30676
-290.7777
-1610.3213
-1690.5968
-1658.0894
6.8141146e-21
1.5559756e-19
2.2751515e-18
4.7810117e-17
1.0821143e-15
1.8108763e-14
3.7952915e-13
9.3455534e-12
1.8485253e-10
2.8854384e-09
4.1522882e-08
6.0671579e-07
8.5442261e-06
9.8275259e-05
0.00091623354
0.0095960994
0.09352493
0.58814436
1.9862598
6.3681168
30.167695
112.61921
195.49601
5.2372534e-21
1.0274926e-19
3.0250986e-18
5.1791111e-17
7.2319362e-16
1.2430877e-14
3.081465e-13
6.9611638e-12
1.2145821e-10
2.1299993e-09
4.2067171e-08
7.2438504e-07
9.2987971e-06
8.4542048e-05
0.00056728847
0.0045852263
0.048761461
0.3489646
1.217193
2.7217256
17.282565
94.52481
227.0998
9.7113959e-21
8.5865556e-20
4.0826801e-18
8.3176498e-17
7.9925039e-16
1.3597635e-14
3.9667575e-13
6.6234927e-12
6.6429322e-11
1.1794676e-09
3.812903e-08
8.1568225e-07
1.0664062e-05
8.7209817e-05
0.00045952785
0.0031173394
0.046699628
0.49684421
2.8693105
9.5536417
26.079639
70.632173
159.21696
2.9347611e-22
2.6754709e-22
2.2004839e-22
3.8334881e-22
3.9426967e-22
3.8043108e-22
6.1867481e-22
6.875412e-22
5.8459385e-22
2.0472018e-21
2.4154951e-21
2.2212078e-21
5.2503226e-20
5.8535625e-20
2.6193997e-20
2.5612034e-18
2.7245758e-18
1.8958369e-18
2.7424591e-17
2.671961e-17
2.7519622e-17
2.1044486e-16
2.5718447e-16
1.5878131e-16
1.1488335e-14
1.5675501e-14
1.4098579e-14
2.0130928e-13
3.6071635e-13
3.167448e-13
1.7659091e-12
1.7555496e-12
2.5016461e-12
2.2888572e-11
4.0196359e-11
1.6195413e-11
1.3067408e-09
2.2558975e-09
1.374408e-09
3.4320488e-08
5.2677006e-08
4.1322894e-08
5.0619525e-07
6.8256769e-07
6.1072982e-07
4.6342222e-06
5.2263849e-06
5.0221836e-06
2.6180073e-05
2.1592126e-05
2.0950858e-05
0.0001058657
7.5631999e-05
7.0678583e-05
0.0012507357
0.0019457415
0.0020966188
0.026175579
0.039999996
0.043690966
0.35791098
0.49215925
0.52398585
2.9809148
3.8409075
4.0744897
16.778094
20.964676
21.796857
66.486876
80.057634
84.372728
184.53202
212.63339
219.92145
421.51184
439.43716
450.3174
-836.36346
-870.1984
-882.31079
-679.17711
-815.02458
-834.19621
-891.42918
-823.71752
-840.4099
7.059259e-21
4.6220966e-21
8.9300101e-22
1.1439268e-19
1.1708462e-19
5.5057291e-20
7.4877238e-19
1.1534428e-18
1.6477052e-18
3.9543683e-17
2.9867512e-17
1.3753977e-17
1.1028392e-15
9.3846889e-16
3.5092376e-16
1.4834692e-14
1.3055998e-14
1.0660733e-14
2.0219538e-13
1.8922817e-13
3.297789e-13
5.598012e-12
5.3867526e-12
5.6110568e-12
1.5581934e-10
1.3740998e-10
9.5068685e-11
2.7093646e-09
2.2119958e-09
1.5053598e-09
3.6913228e-08
3.0211367e-08
2.4632744e-08
4.9314931e-07
4.6090448e-07
4.2029824e-07
7.9138553e-06
6.8948653e-06
6.1716786e-06
9.8404275e-05
7.9621831e-05
6.8175621e-05
0.00076022577
0.0006460925
0.0005763124
0.0058112807
0.0056187559
0.0054101117
0.06284744
0.06312385
0.06370016
0.6047683
0.63478056
0.63242306
3.9240684
4.2801603
4.3187488
21.24742
23.89752
23.658509
75.838591
83.568372
84.022117
209.79148
223.48182
226.53767
368.38506
352.33488
342.44713
8.050853e-22
3.9517789e-20
1.1659094e-18
7.0606425e-18
2.1656806e-16
9.955335e-15
1.2447697e-13
6.9304046e-13
3.6437064e-11
1.4263893e-09
2.8818543e-08
3.7942391e-07
3.7266372e-06
3.086607e-05
0.00026059096
0.0028345315
0.035115739
0.32607574
1.962578
8.0631078
28.106922
86.312221
161.04009
1.3345486e-21
4.6928167e-20
1.9085425e-18
1.5213562e-17
2.340716e-16
1.3927003e-14
2.2731166e-13
1.1599135e-12
3.5076334e-11
1.793383e-09
4.0658493e-08
5.3736219e-07
4.5396115e-06
2.4484341e-05
9.0860746e-05
0.0008225162
0.015641021
0.16510828
0.85721729
2.0777669
9.3379042
74.565776
242.17761
2.2491577e-21
2.2467992e-20
2.1369764e-18
2.7888965e-17
1.0245751e-16
1.0307039e-14
3.2276395e-13
2.5969619e-12
6.958968e-12
9.6815725e-10
3.4501432e-08
5.6249756e-07
5.1633443e-06
2.613517e-05
8.6241139e-05
0.001587247
0.035109752
0.41045006
2.7370065
9.7802889
23.235463
39.791251
117.41678
5.5008018e-21
4.5748416e-21
6.0675824e-22
1.0820771e-19
1.1109228e-19
5.3103463e-20
1.1800124e-18
1.0755206e-18
8.4237127e-19
3.9704946e-17
3.3244952e-17
4.3863135e-18
8.3508143e-16
8.5463624e-16
2.6320308e-16
7.5160084e-15
8.8649571e-15
6.9582891e-15
6.7318025e-14
9.233935e-14
5.3258172e-14
2.3893452e-12
3.1219098e-12
3.2899468e-13
8.0524935e-11
9.1267525e-11
3.0508548e-11
1.7187875e-09
1.8099183e-09
1.0763013e-09
2.5747556e-08
2.6436625e-08
2.1072932e-08
3.1627503e-07
3.11753e-07
2.8873809e-07
3.8434279e-06
3.3471744e-06
3.1488853e-06
4.5722105e-05
3.4845945e-05
3.0096029e-05
0.0004772063
0.00035950476
0.00029084723
0.0050637485
0.0042145454
0.003511777
0.05124978
0.044994867
0.040804627
0.33990251
0.3120815
0.30943762
1.3061342
1.2296228
1.3664101
5.4054212
4.9391242
5.5485328
26.731708
25.928397
27.694767
102.25034
105.08974
109.02726
194.8534
192.99369
195.54434
2.3527565e-21
2.1266663e-21
5.4981235e-22
9.7387902e-20
1.1747431e-19
6.0124598e-20
1.3441448e-18
1.5443168e-18
1.5313451e-18
1.9960974e-17
1.8135125e-17
7.3570873e-18
5.4562482e-16
6.9025143e-16
2.5226749e-16
8.9127294e-15
1.1755217e-14
1.0191374e-14
1.1857262e-13
1.2306938e-13
1.1683448e-13
2.7102442e-12
3.1132936e-12
6.4915891e-13
7.3957767e-11
9.8046964e-11
3.5486976e-11
1.6798983e-09
2.1925202e-09
1.4602338e-09
2.9232449e-08
3.5219917e-08
3.0930591e-08
3.882224e-07
4.1419932e-07
4.0617348e-07
4.0390907e-06
3.5948089e-06
3.4961971e-06
3.3433804e-05
2.3401311e-05
1.9645185e-05
0.00023315251
0.00013690933
9.0056589e-05
0.0021524883
0.0015897872
0.0012470713
0.026455887
0.022826031
0.021800368
0.2086659
0.19045874
0.19733316
0.82927138
0.78563327
0.87946782
2.1284327
2.2152326
2.4296969
13.086388
18.813496
16.33227
87.79236
95.066612
99.547945
235.43533
251.83643
263.09147
2.0302819e-21
1.1018285e-21
1.5465741e-21
4.7283171e-20
7.1681073e-20
4.2728278e-20
2.1023266e-18
2.5013312e-18
2.5128294e-18
2.4235002e-17
1.6019758e-17
2.1633629e-17
1.9917637e-16
2.0461053e-16
1.023484e-16
8.3164237e-15
1.180101e-14
1.1905027e-14
1.8164916e-13
1.9074661e-13
2.5011474e-13
2.0732352e-12
7.8096459e-13
1.1820139e-12
2.7004552e-11
1.6577287e-11
1.0869944e-11
9.0863883e-10
1.1506225e-09
1.2016835e-09
2.5041255e-08
3.0318769e-08
3.4500152e-08
4.3539729e-07
4.5466232e-07
5.1139802e-07
4.9975793e-06
4.3611998e-06
4.4854451e-06
3.9055843e-05
2.7761984e-05
2.2695247e-05
0.0002225348
0.00014202722
8.4618259e-05
0.0018233903
0.0016325455
0.001532035
0.028232478
0.028421074
0.032035959
0.31219911
0.31104975
0.35930166
1.9627355
1.9957235
2.3071788
6.659304
6.7075741
8.0698204
19.009963
20.812672
23.317135
57.958437
53.521112
59.496897
159.36306
145.09642
157.19202
)
;

boundaryField
{
    free
    {
        type            zeroGradient;
    }
    fixed
    {
        type            zeroGradient;
    }
    traction
    {
        type            zeroGradient;
    }
}


// ************************************************************************* //
