/*--------------------------------*- C++ -*----------------------------------*\
  =========                 |
  \\      /  F ield         | OpenFOAM: The Open Source CFD Toolbox
   \\    /   O peration     | Website:  https://openfoam.org
    \\  /    A nd           | Version:  6
     \\/     M anipulation  |
\*---------------------------------------------------------------------------*/
FoamFile
{
    version     2.0;
    format      ascii;
    class       pointVectorField;
    location    "1.59";
    object      u;
}
// * * * * * * * * * * * * * * * * * * * * * * * * * * * * * * * * * * * * * //

dimensions      [0 1 0 0 0 0 0];

internalField   nonuniform List<vector> 
625
(
(0 3.0536978e-19 0)
(0 2.7480831e-19 0)
(-1.5570379 -0.43326331 -0.13826599)
(-1.6193076 -0.085758018 -0.14061969)
(0 3.9596069e-19 0)
(0 2.1490094e-18 0)
(-1.6291142 -0.052696851 -0.14111418)
(-1.5668679 -0.4001298 -0.13893546)
(0 -4.6419143e-20 0)
(2.1342738e-19 -4.9575401e-19 0)
(0 1.0142089e-18 0)
(-1.5726445 -0.34630829 -0.1388279)
(-1.5880665 -0.25948137 -0.13943398)
(-1.6037273 -0.17265733 -0.1400417)
(-0.0037179555 -0.019007824 -0.017388047)
(-0.017179122 -0.037392037 -0.017666352)
(-0.039353908 -0.057526442 -0.018244176)
(-0.07199337 -0.077058886 -0.018371641)
(-0.10992977 -0.096009033 -0.019441643)
(-0.15702774 -0.11565548 -0.020775671)
(-0.20866963 -0.13464783 -0.023338026)
(-0.2669163 -0.15355731 -0.026163099)
(-0.32982718 -0.17305493 -0.030052788)
(-0.39726256 -0.19148335 -0.034255831)
(-0.46845943 -0.21066958 -0.039251269)
(-0.54306846 -0.22924815 -0.044835973)
(-0.62059637 -0.24787616 -0.050919623)
(-0.7003883 -0.26610817 -0.05752245)
(-0.78229168 -0.28420246 -0.064537758)
(-0.86568153 -0.30188336 -0.071955717)
(-0.95035898 -0.31935133 -0.079623144)
(-1.0360076 -0.3363521 -0.08764975)
(-1.122271 -0.35319521 -0.095726086)
(-1.2089559 -0.36961564 -0.1041088)
(-1.2960103 -0.38579915 -0.11254354)
(-1.3829922 -0.4017952 -0.12102807)
(-1.4700989 -0.41753029 -0.12967505)
(0.0002213073 0.015097165 0.021054422)
(-0.020020034 0.032861535 0.015235126)
(-0.045787622 0.049047464 0.015241088)
(-0.081208213 0.063427526 0.011026464)
(-0.12443421 0.073557428 0.0072796339)
(-0.17644366 0.082977628 0.0024546432)
(-0.23294445 0.087587348 -0.0025033919)
(-0.29647026 0.090587203 -0.0085220419)
(-0.36443072 0.090727151 -0.014581614)
(-0.43622395 0.087992482 -0.021508434)
(-0.51197934 0.083521592 -0.028714193)
(-0.59035504 0.076806009 -0.03637125)
(-0.67125034 0.068269412 -0.044374035)
(-0.75396674 0.05827734 -0.052641516)
(-0.83827941 0.046848108 -0.061200279)
(-0.92362677 0.03436968 -0.069868106)
(-1.0098827 0.020935856 -0.078740775)
(-1.0966253 0.0067718804 -0.087592331)
(-1.183767 -0.0079495023 -0.096592254)
(-1.2709761 -0.023134714 -0.10544863)
(-1.3583305 -0.038580565 -0.11441723)
(-1.4454433 -0.054224674 -0.12319029)
(-1.5325372 -0.070012028 -0.13197728)
(0 2.7726432e-19 0)
(-3.7889479e-18 -8.1525401e-19 0)
(0 2.0662382e-18 0)
(-0.0057777402 0.010288202 -0.014780739)
(-0.023388047 0.043648869 -0.018675105)
(-0.048244257 0.052206734 -0.01607893)
(-0.084235936 0.072332037 -0.017182073)
(-0.12870859 0.085411151 -0.019664001)
(-0.17989052 0.095767371 -0.020438112)
(-0.23752917 0.1031745 -0.024074144)
(-0.30175441 0.10868854 -0.027190187)
(-0.36961115 0.11028633 -0.031360839)
(-0.44289761 0.11038141 -0.036160557)
(-0.51847171 0.1071803 -0.041415031)
(-0.59786055 0.10250228 -0.047335159)
(-0.67894932 0.09538033 -0.053648109)
(-0.76228198 0.086787753 -0.060441652)
(-0.8468775 0.076522467 -0.067589378)
(-0.93259699 0.065010236 -0.075087899)
(-1.0190746 0.052356315 -0.082823827)
(-1.1060417 0.03880098 -0.090810326)
(-1.1932949 0.024520317 -0.098951781)
(-1.2806507 0.0096378572 -0.10722975)
(-1.3679806 -0.0056131477 -0.11561879)
(-1.4552161 -0.021184201 -0.12408542)
(-1.5422475 -0.036930697 -0.13259369)
(-1.6135111 -0.13958853 -0.14055236)
(-1.5978166 -0.22638441 -0.14002317)
(-1.5824748 -0.31314813 -0.13951267)
(-1.479947 -0.38437462 -0.13027898)
(-1.3927483 -0.36861883 -0.12153176)
(-1.3056072 -0.35263651 -0.11274065)
(-1.2184042 -0.33656391 -0.10382334)
(-1.1314054 -0.32026771 -0.094903874)
(-1.0447618 -0.30379854 -0.085962947)
(-0.9586864 -0.28715784 -0.077055971)
(-0.87347516 -0.27032771 -0.068250802)
(-0.78942965 -0.25339596 -0.059571951)
(-0.70686458 -0.23632913 -0.051094198)
(-0.62625337 -0.21921414 -0.042889183)
(-0.54796097 -0.20205403 -0.034995709)
(-0.47238502 -0.18506394 -0.027372133)
(-0.40020749 -0.16781841 -0.020433714)
(-0.33243948 -0.15077379 -0.013823799)
(-0.26817777 -0.13388487 -0.007635767)
(-0.20937609 -0.11759709 -0.0018901926)
(-0.15634454 -0.10018582 0.002751532)
(-0.10998244 -0.083805558 0.007637049)
(-0.070322411 -0.066704001 0.010811085)
(-0.037253101 -0.050722266 0.014439622)
(-0.015513193 -0.031061723 0.016737115)
(-0.0069325703 -0.017129863 0.012659695)
(0 -4.9507819e-19 0)
(0 -5.1626292e-19 -1.0648439e-18)
(0 -1.5215489e-18 0)
(0 8.9458079e-19 0)
(0 -9.8983647e-20 3.156127e-19)
(0 6.8136455e-19 0)
(-1.6217939 -0.07743565 -0.14072118)
(-1.6242493 -0.069168385 -0.1408696)
(-1.6266423 -0.06090217 -0.14099631)
(-1.559482 -0.42498557 -0.13843298)
(-1.5619578 -0.41673456 -0.13855321)
(-1.5643961 -0.40845085 -0.13877253)
(0.003771109 -0.010168766 -0.011514103)
(-0.011083696 -0.019018056 -0.0088428257)
(-0.034417811 -0.029385046 -0.010519094)
(-0.068274866 -0.040131413 -0.011026945)
(-0.10818223 -0.051649458 -0.012843768)
(-0.15698429 -0.064315749 -0.015281239)
(-0.21057168 -0.076926666 -0.018202575)
(-0.27069288 -0.090918098 -0.021920018)
(-0.33511148 -0.10520371 -0.026205066)
(-0.40432601 -0.12004886 -0.031186847)
(-0.47705599 -0.13571568 -0.036709176)
(-0.55308386 -0.15139999 -0.042791655)
(-0.63172265 -0.16763214 -0.049341787)
(-0.71262509 -0.18397764 -0.056322318)
(-0.79535905 -0.20050136 -0.063718344)
(-0.87947727 -0.21704378 -0.071392013)
(-0.96478462 -0.23358023 -0.07938171)
(-1.050815 -0.25002861 -0.087567037)
(-1.137447 -0.26643961 -0.095886771)
(-1.2243958 -0.28261255 -0.10443161)
(-1.3115546 -0.29872509 -0.11290858)
(-1.3986326 -0.31468491 -0.12158127)
(-1.4857744 -0.33053081 -0.13021019)
(0.0063328114 -0.0016082453 -0.00019350572)
(-0.011397095 -0.0010269489 -0.00038243808)
(-0.035011875 -0.0034839819 -0.0015725011)
(-0.06933792 -0.0058927986 -0.0039810848)
(-0.11133187 -0.0096871236 -0.0064193198)
(-0.16054309 -0.015101842 -0.0095107366)
(-0.21577232 -0.022055678 -0.013220644)
(-0.27719495 -0.030252946 -0.017714094)
(-0.34296156 -0.039848517 -0.022727925)
(-0.41343864 -0.050592515 -0.028216917)
(-0.48716058 -0.062542609 -0.034328767)
(-0.5641961 -0.075298051 -0.040899132)
(-0.64374735 -0.088994589 -0.04792682)
(-0.72543294 -0.10327131 -0.055331452)
(-0.80881872 -0.11810328 -0.063091747)
(-0.8935205 -0.13332256 -0.071086034)
(-0.97924153 -0.14884031 -0.079351427)
(-1.0656196 -0.16454889 -0.087722132)
(-1.1525514 -0.18038088 -0.096274174)
(-1.2396291 -0.19622216 -0.10484667)
(-1.3269403 -0.21211506 -0.11351313)
(-1.4140893 -0.22797177 -0.12214658)
(-1.5012877 -0.24378445 -0.130802)
(0.0061712073 0.0067853093 0.0074633018)
(-0.013393487 0.013960194 0.0069829008)
(-0.036575289 0.020608538 0.0056698937)
(-0.072896009 0.026284709 0.0028904064)
(-0.11517914 0.0305264 0.00013257368)
(-0.16553287 0.031236401 -0.0036735971)
(-0.22235034 0.031246898 -0.0082075755)
(-0.28455125 0.028312751 -0.013227711)
(-0.35154842 0.023685848 -0.018680482)
(-0.42307303 0.017238213 -0.024924919)
(-0.49782562 0.0089706527 -0.031513126)
(-0.5758992 -0.00061558359 -0.038644272)
(-0.65620895 -0.011591443 -0.046111074)
(-0.73865665 -0.023640463 -0.053945665)
(-0.82262001 -0.036611321 -0.06205976)
(-0.90784748 -0.050381547 -0.070396146)
(-0.99393185 -0.064706841 -0.07892377)
(-1.0806796 -0.079547817 -0.087567327)
(-1.16776 -0.09469876 -0.096283028)
(-1.2551055 -0.11009985 -0.10509065)
(-1.3424282 -0.12566502 -0.11380626)
(-1.4297141 -0.14129881 -0.12261173)
(-1.5168684 -0.15694584 -0.13132086)
(0 -3.1369552e-19 0)
(0 5.1829289e-19 1.087141e-18)
(0 1.1292197e-18 0)
(-5.6581614e-19 1.1297712e-20 0)
(2.3632847e-19 -3.5016657e-19 -1.7440722e-20)
(-1.4893276e-18 -1.339407e-18 0)
(0 5.0950283e-19 0)
(0 1.3693016e-18 -3.6417395e-20)
(0 1.5079117e-18 0)
(-0.0076183067 0.0066338793 0.0091487382)
(-0.010194963 0.0090606929 0.0019392515)
(-0.0095152953 0.0066045337 -0.0045651858)
(-0.030016832 0.03786452 0.0071831671)
(-0.029947415 0.038784412 -0.00022950486)
(-0.029387906 0.03765977 -0.0094880773)
(-0.051179338 0.048591269 0.0068733734)
(-0.053642893 0.048145972 -0.00038518079)
(-0.054198604 0.052887266 -0.009367073)
(-0.088197567 0.065310226 0.0032610069)
(-0.090498787 0.068522341 -0.0033484642)
(-0.088951121 0.068702076 -0.010492647)
(-0.13104225 0.076584117 0.00041741826)
(-0.13239667 0.077785763 -0.0052379898)
(-0.13299868 0.082057935 -0.012976052)
(-0.18153696 0.0854608 -0.0033973776)
(-0.18411824 0.088890928 -0.0095551875)
(-0.18362353 0.091878702 -0.015153316)
(-0.23863553 0.091382783 -0.0083526227)
(-0.24049382 0.094958091 -0.012523466)
(-0.24091853 0.099133523 -0.019043466)
(-0.30175072 0.095098647 -0.013147036)
(-0.30340058 0.09850192 -0.017513187)
(-0.3042435 0.10337655 -0.022641928)
(-0.36880582 0.095015332 -0.019021684)
(-0.37107317 0.099825658 -0.022688653)
(-0.3716028 0.10502113 -0.027467721)
(-0.44100591 0.093564825 -0.025156624)
(-0.44294406 0.098636277 -0.028389141)
(-0.44412639 0.10423039 -0.032546579)
(-0.51601397 0.089248486 -0.031927228)
(-0.51824011 0.094732481 -0.034746072)
(-0.51940958 0.10093565 -0.038408751)
(-0.59445502 0.083087187 -0.039152345)
(-0.5965873 0.089215506 -0.041485766)
(-0.59805364 0.095638712 -0.044639996)
(-0.67492175 0.074996401 -0.046691051)
(-0.67720971 0.081416987 -0.048665278)
(-0.67886931 0.08834262 -0.051428486)
(-0.75760674 0.065393023 -0.054612232)
(-0.75987075 0.072254035 -0.056280513)
(-0.76165211 0.079389679 -0.058548094)
(-0.84160273 0.054300375 -0.062809733)
(-0.84393224 0.061449416 -0.064119418)
(-0.84593027 0.068929517 -0.066033446)
(-0.9268564 0.042111325 -0.071176014)
(-0.92924005 0.049565978 -0.072265106)
(-0.93130293 0.057210422 -0.073830094)
(-1.0129153 0.028901076 -0.079761201)
(-1.0152923 0.036555398 -0.08060659)
(-1.0174875 0.044412293 -0.081832285)
(-1.0995294 0.01490255 -0.088411036)
(-1.1019548 0.02276073 -0.089060929)
(-1.1042192 0.030744281 -0.09003921)
(-1.1865166 0.00030542423 -0.097164305)
(-1.1889434 0.0082967172 -0.097660239)
(-1.1912695 0.016381927 -0.098382078)
(-1.2736637 -0.01480613 -0.10590786)
(-1.2761087 -0.0067095891 -0.10628852)
(-1.2784689 0.0014579293 -0.1068155)
(-1.3608355 -0.030212123 -0.11470591)
(-1.3632622 -0.022044969 -0.11496147)
(-1.3656679 -0.013841928 -0.11532631)
(-1.4479473 -0.045868418 -0.12339919)
(-1.4504285 -0.037634156 -0.12360751)
(-1.4528488 -0.029394006 -0.12387998)
(-1.5349768 -0.061655778 -0.1321116)
(-1.5374153 -0.053383917 -0.13226524)
(-1.5398405 -0.045168734 -0.13245607)
(-1.5750924 -0.33803083 -0.13900095)
(-1.5775647 -0.32975131 -0.13914963)
(-1.5800013 -0.3214638 -0.13934689)
(-1.5905078 -0.25118396 -0.13958772)
(-1.5929812 -0.24292524 -0.13970023)
(-1.5953549 -0.23465664 -0.13987748)
(-1.6062439 -0.16432514 -0.14015813)
(-1.6086896 -0.15605892 -0.14028364)
(-1.6111205 -0.14777685 -0.1404216)
(-0.012863275 -0.016003971 -0.0082159951)
(-0.012160968 -0.017186132 -0.0022525603)
(-0.013793449 -0.015292137 0.0052196904)
(-0.024662718 -0.035608664 -0.0083274099)
(-0.025426416 -0.035307991 0.00063772371)
(-0.023503753 -0.033181843 0.0094621077)
(-0.047022378 -0.058210596 -0.0093532888)
(-0.046787215 -0.055844223 -0.0023066362)
(-0.046232689 -0.054516191 0.0079982817)
(-0.077980358 -0.07486137 -0.0099721101)
(-0.078998527 -0.07304758 -0.0034635301)
(-0.077272246 -0.070485091 0.0052164075)
(-0.11581924 -0.095571228 -0.012236573)
(-0.11669109 -0.092590744 -0.0050271701)
(-0.11533568 -0.089403455 0.002036034)
(-0.16217147 -0.11336168 -0.013936468)
(-0.16270758 -0.1091188 -0.0091209606)
(-0.16189855 -0.10604835 -0.0017461696)
(-0.21346045 -0.13186547 -0.01712267)
(-0.21426338 -0.12830924 -0.012072225)
(-0.21368616 -0.1238195 -0.0060812563)
(-0.27139493 -0.15060474 -0.020776818)
(-0.27230562 -0.14554542 -0.016484557)
(-0.27187174 -0.14083928 -0.011058579)
(-0.33347559 -0.16886091 -0.025338798)
(-0.33510171 -0.16355191 -0.020950819)
(-0.33458496 -0.15822486 -0.017010249)
(-0.40112125 -0.18721081 -0.030019758)
(-0.40226335 -0.18111215 -0.02735271)
(-0.40259901 -0.17546469 -0.022895436)
(-0.47197506 -0.20544092 -0.035701968)
(-0.47346327 -0.19926227 -0.032731656)
(-0.47370066 -0.19295601 -0.029507518)
(-0.54650729 -0.22372586 -0.041726117)
(-0.54799196 -0.21679873 -0.039524289)
(-0.54870903 -0.2103487 -0.036715613)
(-0.62373095 -0.24162597 -0.048417829)
(-0.62550905 -0.23460799 -0.046462575)
(-0.62636984 -0.2276462 -0.044257855)
(-0.70350576 -0.25957928 -0.055417237)
(-0.70532264 -0.25211623 -0.053954221)
(-0.70649858 -0.24490003 -0.052147477)
(-0.78519554 -0.27717013 -0.062934122)
(-0.78722518 -0.26951294 -0.061712698)
(-0.78857605 -0.26205327 -0.060369207)
(-0.86853597 -0.2945772 -0.070653099)
(-0.87064404 -0.28671459 -0.069808555)
(-0.87222313 -0.2790288 -0.068789203)
(-0.95311716 -0.31171823 -0.078755447)
(-0.9553485 -0.30369481 -0.078101992)
(-0.95709537 -0.29585563 -0.077416832)
(-1.0386685 -0.32855845 -0.086967512)
(-1.0409543 -0.3204529 -0.086568131)
(-1.0428691 -0.31247461 -0.08614375)
(-1.1248489 -0.34517629 -0.095393099)
(-1.1272485 -0.33695738 -0.095187279)
(-1.1293057 -0.32888334 -0.094961895)
(-1.2115366 -0.36147085 -0.1039668)
(-1.2139567 -0.35327838 -0.10380594)
(-1.2161137 -0.34511524 -0.10378266)
(-1.2984965 -0.377579 -0.11250421)
(-1.3009635 -0.3693045 -0.11253075)
(-1.3032007 -0.36110871 -0.11262675)
(-1.3854969 -0.3935123 -0.12110697)
(-1.3879043 -0.38526435 -0.12124259)
(-1.3902686 -0.37701886 -0.12138791)
(-1.4725921 -0.40924346 -0.12981638)
(-1.4750316 -0.40096514 -0.12997843)
(-1.477465 -0.39272034 -0.13011502)
(0.0023225267 -0.0047300854 0.0077573911)
(-0.010429424 -0.019076184 0.0075378043)
(-0.032719847 -0.020854104 0.0045378336)
(-0.068156301 -0.031145421 0.0027362316)
(-0.10810633 -0.040006955 -1.1954248e-05)
(-0.15752897 -0.049099522 -0.0042485219)
(-0.21201235 -0.060259781 -0.0083672044)
(-0.27284207 -0.071118638 -0.01347415)
(-0.33817039 -0.083716009 -0.018907453)
(-0.4081772 -0.096306536 -0.025119668)
(-0.48159414 -0.1101889 -0.03149793)
(-0.5585089 -0.12410733 -0.038707506)
(-0.63789434 -0.13899808 -0.046071765)
(-0.71947508 -0.15408764 -0.05386296)
(-0.80287138 -0.16958953 -0.061961361)
(-0.88756057 -0.18534419 -0.070245727)
(-0.97330965 -0.20125567 -0.078747483)
(-1.0597784 -0.217288 -0.087351406)
(-1.1467091 -0.23335771 -0.096042897)
(-1.233905 -0.24942739 -0.1047611)
(-1.3212187 -0.26547308 -0.11350647)
(-1.4084042 -0.28142051 -0.12219481)
(-1.4956241 -0.29736271 -0.13089621)
(0.0056340446 -0.0020711411 -0.0013534197)
(-0.010502836 0.0004627553 -0.00029441543)
(-0.036567877 0.0038068349 -0.0027301394)
(-0.071621468 0.0023331054 -0.003517548)
(-0.11255847 0.00087489856 -0.0057746216)
(-0.16369973 -0.00046808797 -0.010032472)
(-0.21860501 -0.0066145906 -0.012952766)
(-0.28112094 -0.011458838 -0.017940001)
(-0.34735428 -0.019478151 -0.022819048)
(-0.41854264 -0.027858122 -0.028643963)
(-0.49281964 -0.038207534 -0.034646488)
(-0.57077264 -0.049081217 -0.041473339)
(-0.65072953 -0.061431396 -0.048411591)
(-0.73310983 -0.074293859 -0.055985134)
(-0.81692878 -0.088124067 -0.063700685)
(-0.90208836 -0.10238666 -0.071779166)
(-0.98814738 -0.11723027 -0.080032926)
(-1.0748534 -0.13238203 -0.088427355)
(-1.1619533 -0.14781881 -0.096973143)
(-1.2492419 -0.16344329 -0.10554414)
(-1.3366213 -0.17913976 -0.11418027)
(-1.4238046 -0.19491321 -0.12280251)
(-1.5111117 -0.21074089 -0.13141982)
(0.0054181992 0.007722131 -0.0076270471)
(-0.015975202 0.015279767 -0.0084029771)
(-0.040370274 0.029505449 -0.011972424)
(-0.074691582 0.03235149 -0.010702229)
(-0.11779514 0.041662877 -0.01461498)
(-0.16937861 0.044258507 -0.016452602)
(-0.22537705 0.046187412 -0.019603034)
(-0.28928112 0.046174191 -0.02375566)
(-0.35624801 0.043466513 -0.028136559)
(-0.42873154 0.039144396 -0.033220134)
(-0.50400838 0.032931135 -0.03889373)
(-0.58265482 0.025023413 -0.045019376)
(-0.66354849 0.015696694 -0.051680548)
(-0.74650036 0.0049644799 -0.058688681)
(-0.83094625 -0.0068190739 -0.066081126)
(-0.91654798 -0.019603988 -0.07377324)
(-1.0029962 -0.033187173 -0.081703327)
(-1.0899658 -0.04740348 -0.089825335)
(-1.1772968 -0.06213912 -0.098125259)
(-1.264739 -0.077242888 -0.10648444)
(-1.3521744 -0.092625787 -0.11499178)
(-1.4395108 -0.10818447 -0.1234639)
(-1.5266534 -0.12384011 -0.13207033)
(-0.0019679866 -0.0043696172 -0.004913515)
(-0.002008846 -0.0050911949 -0.0012383107)
(-0.0037105882 -0.0040196919 0.0032827781)
(-0.017750927 -0.019625945 -0.004211764)
(-0.019873927 -0.018718673 0.00034551621)
(-0.0174239 -0.017753044 0.0056399139)
(-0.041548098 -0.028039626 -0.0056307701)
(-0.040330622 -0.026512146 -0.0012829891)
(-0.040488412 -0.025238775 0.0021017732)
(-0.073652448 -0.039644042 -0.0067097268)
(-0.075558395 -0.037747287 -0.0025477731)
(-0.074406236 -0.034334579 0.00035145445)
(-0.11425955 -0.050535424 -0.0083709037)
(-0.1145928 -0.04746172 -0.0056343366)
(-0.11425303 -0.04448927 -0.0019468792)
(-0.16184518 -0.062035679 -0.011576666)
(-0.16307033 -0.059015693 -0.0084644371)
(-0.16227867 -0.055059732 -0.0060190328)
(-0.21535343 -0.074487355 -0.014744433)
(-0.21616553 -0.070788031 -0.012174198)
(-0.21617139 -0.06588806 -0.0098592362)
(-0.274821 -0.087817521 -0.01883426)
(-0.27635104 -0.0828252 -0.016746193)
(-0.27619028 -0.077988853 -0.014801227)
(-0.33939948 -0.10100478 -0.023471969)
(-0.34054078 -0.096252009 -0.02181111)
(-0.34074421 -0.090613081 -0.019916987)
(-0.40818468 -0.11559243 -0.028905298)
(-0.40948408 -0.11008469 -0.027332907)
(-0.410134 -0.10383355 -0.025961418)
(-0.48062276 -0.13043096 -0.034695325)
(-0.48221628 -0.12429728 -0.033386981)
(-0.48285074 -0.11784404 -0.032294547)
(-0.55647486 -0.14559779 -0.041119278)
(-0.5581257 -0.13916822 -0.040172503)
(-0.55913924 -0.13235462 -0.039190941)
(-0.63493553 -0.161353 -0.047962855)
(-0.63677853 -0.15448591 -0.04712675)
(-0.63795883 -0.14726645 -0.046504051)
(-0.71573034 -0.17724415 -0.055220014)
(-0.71764259 -0.17005112 -0.054701182)
(-0.71908139 -0.16259912 -0.054152708)
(-0.79830648 -0.19336802 -0.062863257)
(-0.80039485 -0.18588118 -0.062451514)
(-0.80197312 -0.1781953 -0.062132236)
(-0.88238513 -0.20958784 -0.070773234)
(-0.88451214 -0.20190509 -0.070566751)
(-0.88630154 -0.19401556 -0.070342705)
(-0.96753474 -0.22586293 -0.078956617)
(-0.96978679 -0.21797667 -0.078844208)
(-0.97171013 -0.20995422 -0.078764941)
(-1.0535404 -0.24211403 -0.087297161)
(-1.0558389 -0.23410649 -0.087317203)
(-1.0578851 -0.22595916 -0.087306711)
(-1.1400595 -0.25835976 -0.095788056)
(-1.1424348 -0.25020415 -0.095875863)
(-1.1446258 -0.24200671 -0.095960509)
(-1.2269759 -0.27437772 -0.1043936)
(-1.229412 -0.26624793 -0.10454215)
(-1.2316196 -0.25797757 -0.10463297)
(-1.3140513 -0.2904483 -0.11298866)
(-1.3165231 -0.28232557 -0.11319905)
(-1.3188124 -0.27397757 -0.11335942)
(-1.4011619 -0.30636685 -0.12171507)
(-1.4035572 -0.29811834 -0.1218948)
(-1.4059514 -0.28979006 -0.1220422)
(-1.488235 -0.32224378 -0.13037506)
(-1.4906896 -0.3139824 -0.13053353)
(-1.4931362 -0.30569047 -0.13070427)
(0.0017753827 -0.0010709572 0.00062685446)
(0.0003524784 -0.0019105499 0.00069474994)
(-0.0010177375 -0.0011984664 0.0004785514)
(-0.017032898 -0.0012532773 0.0011170826)
(-0.018455569 -0.0012633891 0.0011389195)
(-0.01584415 -0.00023017316 0.00091541968)
(-0.04137772 -0.0031517406 -0.00060726489)
(-0.042518799 -0.0016543321 -0.0020688505)
(-0.041931645 0.00019715923 -0.0015464805)
(-0.074923974 -0.0041261726 -0.0023094891)
(-0.078073491 -0.0020944606 -0.0033279285)
(-0.076270389 0.0011727275 -0.0027309397)
(-0.11678634 -0.008372627 -0.0054171965)
(-0.11859052 -0.0056853348 -0.0066479362)
(-0.11707934 -0.0031366976 -0.0051144165)
(-0.16549004 -0.012793286 -0.0083979963)
(-0.16792008 -0.0090669796 -0.0089930263)
(-0.16672994 -0.0052335654 -0.0087762733)
(-0.22052715 -0.019323138 -0.012065734)
(-0.22250862 -0.015300145 -0.013451648)
(-0.22188082 -0.010705921 -0.012441117)
(-0.28153253 -0.026635445 -0.016857923)
(-0.28384669 -0.021799552 -0.017701296)
(-0.28306776 -0.017399224 -0.016897917)
(-0.34702546 -0.035751116 -0.021876099)
(-0.34914127 -0.030802787 -0.022516904)
(-0.34905729 -0.025083037 -0.022103117)
(-0.41714632 -0.046078373 -0.02746136)
(-0.41950022 -0.040026175 -0.028327143)
(-0.41947175 -0.034459052 -0.027877904)
(-0.49083377 -0.057197427 -0.033696815)
(-0.49301491 -0.051162082 -0.034472998)
(-0.49347753 -0.044718166 -0.033938353)
(-0.56764796 -0.069572382 -0.040372522)
(-0.56998611 -0.06288775 -0.041058766)
(-0.57064239 -0.056334188 -0.040745371)
(-0.64707856 -0.082715152 -0.047507407)
(-0.64937793 -0.075839746 -0.048158449)
(-0.65037602 -0.068677553 -0.047839994)
(-0.72859271 -0.09656489 -0.055005373)
(-0.73100174 -0.089217473 -0.055604296)
(-0.73218164 -0.081965062 -0.055365336)
(-0.81189118 -0.11101117 -0.062874287)
(-0.81427082 -0.10351479 -0.063374842)
(-0.81573473 -0.095896398 -0.063213223)
(-0.89646131 -0.12591696 -0.0709358)
(-0.89889254 -0.11813524 -0.071425773)
(-0.90054122 -0.11038204 -0.071305118)
(-0.98208337 -0.14117305 -0.079293214)
(-0.98451797 -0.13325075 -0.07968788)
(-0.98636745 -0.1252843 -0.079630541)
(-1.0683898 -0.15667487 -0.087720929)
(-1.0708487 -0.14857809 -0.088087457)
(-1.0728413 -0.14056279 -0.088074179)
(-1.1552045 -0.17233568 -0.096331518)
(-1.1576587 -0.16418897 -0.096633285)
(-1.1598024 -0.15602552 -0.096675111)
(-1.242265 -0.18810089 -0.10494293)
(-1.2447393 -0.17981393 -0.10521792)
(-1.2469528 -0.17168219 -0.1052748)
(-1.3295029 -0.20396745 -0.11367012)
(-1.3318824 -0.19552814 -0.11378553)
(-1.3342626 -0.18744039 -0.11398439)
(-1.4165786 -0.21966371 -0.12227566)
(-1.4190119 -0.21145213 -0.12249937)
(-1.4214154 -0.20314068 -0.12259316)
(-1.5037594 -0.23550775 -0.13095577)
(-1.5062162 -0.22722785 -0.13112547)
(-1.508635 -0.21901168 -0.13128032)
(0.00029662716 0.0050767034 0.0032156871)
(0.00048273657 0.0047345203 0.0003855544)
(0.00034265523 0.0045855036 -0.0031956297)
(-0.021433698 0.01342531 0.003423121)
(-0.023111094 0.01185421 -0.00058422863)
(-0.021178694 0.014101611 -0.0043629138)
(-0.044099905 0.021687141 0.0018993325)
(-0.045329152 0.025155208 -0.002186043)
(-0.045854141 0.02652643 -0.0065776533)
(-0.080224348 0.028304593 -0.00039622455)
(-0.081131627 0.028589687 -0.0037898399)
(-0.081156931 0.031273305 -0.0070349419)
(-0.12161664 0.031800043 -0.0031026324)
(-0.12292721 0.035329148 -0.0063353919)
(-0.12296427 0.037844408 -0.009655687)
(-0.17191809 0.034316672 -0.0062769979)
(-0.17331554 0.03711388 -0.0093807606)
(-0.17351268 0.040837515 -0.012349975)
(-0.22805821 0.034390213 -0.010661244)
(-0.2289205 0.038214132 -0.01367201)
(-0.22980437 0.041774633 -0.016055677)
(-0.28979226 0.032023169 -0.015396038)
(-0.29144477 0.03640402 -0.017572414)
(-0.29213221 0.041088193 -0.02005159)
(-0.35673311 0.028147844 -0.02047956)
(-0.35792523 0.033116668 -0.022974009)
(-0.35910949 0.037926141 -0.025180263)
(-0.42775264 0.022273757 -0.026598853)
(-0.42934733 0.02754955 -0.028618012)
(-0.43052235 0.033124475 -0.030378184)
(-0.50227517 0.014575665 -0.032922172)
(-0.50388387 0.020569139 -0.034675293)
(-0.50546294 0.026417696 -0.036416992)
(-0.58004708 0.0055053609 -0.039848337)
(-0.5818272 0.011799062 -0.041440406)
(-0.58339589 0.018109359 -0.042869869)
(-0.66012764 -0.005011962 -0.047136702)
(-0.6619466 0.0017828104 -0.048494663)
(-0.66386053 0.0084575363 -0.049742221)
(-0.74235093 -0.01661511 -0.054821895)
(-0.74433563 -0.0095485189 -0.055975961)
(-0.74626109 -0.0025471638 -0.057075711)
(-0.82613716 -0.029252751 -0.062783858)
(-0.82814997 -0.021870499 -0.063780487)
(-0.83030027 -0.014585604 -0.064695172)
(-0.91115583 -0.042694279 -0.071013233)
(-0.91329925 -0.035095883 -0.071849019)
(-0.91549836 -0.027531338 -0.07260818)
(-0.99710358 -0.056800884 -0.079437229)
(-0.99928502 -0.048988407 -0.080107475)
(-1.0016104 -0.041250337 -0.08075823)
(-1.0836664 -0.071438536 -0.087980225)
(-1.0859523 -0.063492258 -0.088556409)
(-1.0883004 -0.055578379 -0.089061834)
(-1.1706539 -0.086458854 -0.096647068)
(-1.1729386 -0.078404852 -0.097086701)
(-1.175362 -0.070363916 -0.097508014)
(-1.2578281 -0.10177872 -0.10536744)
(-1.2602342 -0.093643882 -0.1057038)
(-1.2626405 -0.08551098 -0.10603194)
(-1.3450689 -0.1172906 -0.1140476)
(-1.34743 -0.10911615 -0.1143542)
(-1.3498676 -0.10093375 -0.11462203)
(-1.4322785 -0.13291266 -0.12281105)
(-1.4347238 -0.12470303 -0.12303889)
(-1.4371715 -0.1164903 -0.12325165)
(-1.5193514 -0.14859845 -0.13149533)
(-1.5217818 -0.1403446 -0.13167065)
(-1.5242304 -0.13206077 -0.13182888)
)
;

boundaryField
{
    free
    {
        type            calculated;
    }
    fixed
    {
        type            calculated;
    }
    freeTop
    {
        type            calculated;
    }
}


// ************************************************************************* //
