/*--------------------------------*- C++ -*----------------------------------*\
  =========                 |
  \\      /  F ield         | OpenFOAM: The Open Source CFD Toolbox
   \\    /   O peration     | Website:  https://openfoam.org
    \\  /    A nd           | Version:  6
     \\/     M anipulation  |
\*---------------------------------------------------------------------------*/
FoamFile
{
    version     2.0;
    format      ascii;
    class       pointScalarField;
    location    "0.6";
    object      p;
}
// * * * * * * * * * * * * * * * * * * * * * * * * * * * * * * * * * * * * * //

dimensions      [1 -1 -2 0 0 0 0];

internalField   nonuniform List<scalar> 
625
(
940854.14
-1459896.5
8523.7025
11840.397
1633352.8
-2675121.7
10787.309
3433.6192
643603.14
-86268.954
-196318.38
-10728.954
5871.1236
8933.1129
367707.28
419122.71
403259.29
406650.71
363743.81
351053.8
325157.18
298666.11
285359.01
252946.8
235429.83
214192.71
191658.47
171800.45
151464.32
132596.16
111603.07
96942.459
77463.483
61918.371
47389.809
30504.115
20834.826
-484376.08
-328349.52
-437421.65
-349440.79
-323382.38
-320320.88
-275925.56
-257433.74
-239766.17
-214710.57
-195853.37
-176221.97
-159537.53
-139747.3
-123611.8
-106880.28
-90204.182
-75380.081
-59521.691
-46539.656
-31951.61
-19510.675
-5943.998
1024854.8
-40708.179
-287979.83
-494013.75
-644875.04
-466593.54
-415867.52
-479156.02
-367275.72
-344331.13
-331948.68
-305842.7
-285534.3
-253950.75
-233193.91
-206936.8
-183359.27
-160026.7
-136906.85
-115817.66
-94643.528
-74897.138
-56757.974
-38753.173
-23398.027
-5979.0604
9142.3519
4361.1012
-3790.7055
25909.05
34760.962
46372.805
62818.34
80989.724
98495.963
117239.16
137066.64
156927.36
178370.7
198059.63
224124.67
242745.25
267589.93
278901.8
333249.61
343299.71
360422.45
429722.24
405405.9
495719.62
415549.19
469417.54
950079.01
986431.3
972364.26
-1583488.3
-1580195.9
-1575283.3
18553.616
18824.763
21665.372
-3223.8707
2889.8503
-348.34139
225293.66
244659.16
253524.86
229364.16
213868.2
215475.74
191940.48
185701.3
167366.78
155173.97
144657.41
130004.77
116226.34
104174.03
91278.568
78179.051
67263.2
56307.308
44426.923
38068.082
27402.123
17264.677
12390.531
-56998.465
-49026.819
-57010.887
-29504.608
-41893.823
-29387.91
-27944.223
-20831.022
-20102.335
-14602.498
-13546.927
-11608.367
-9068.6405
-6750.3009
-5926.1268
-4057.4765
-2474.3874
-1472.9411
-275.13063
1339.7002
885.3454
5759.2176
6456.2848
-320163.17
-269064.42
-243576.67
-217099.02
-234714.37
-189875.85
-185317.43
-166298.06
-149710.62
-134525.7
-122799.61
-108018.07
-96025.266
-84787.545
-73552.395
-62741.77
-52849.776
-42318.457
-33646.625
-23082.341
-15409.879
-8760.5596
679.99087
626546.1
566269.61
571148.96
-92661.516
-44647.515
-91740.358
-122285.29
-182013.76
-277272.41
-724203.46
-706888.63
-742174.83
-597136.76
-553998.19
-542961.19
-471074.74
-438494.62
-472903.49
-383758.66
-382652.14
-385663.95
-375105.31
-371367.69
-393043.98
-336952.32
-323058.51
-334216.82
-315362.81
-313337.42
-329570.43
-291978.68
-275474.39
-294493.87
-265999.91
-256492.15
-270815.26
-240672.87
-231857.23
-250195.86
-218161.54
-212658.42
-225511.63
-197573.32
-190494.6
-203192.88
-175021.1
-170136.64
-182148.33
-155155.6
-150127.86
-160867.41
-135886.06
-131100.96
-140934.46
-116797.91
-112479.7
-120527.86
-98755.265
-94064.332
-101646.11
-81122.92
-77719.503
-83610.089
-64703.042
-60614.283
-65161.449
-48769.602
-45710.237
-49638.161
-32224.852
-30309.837
-32983.942
-20299.257
-20889.899
-21398.142
-10575.64
-6383.0543
-8687.5478
-15158.287
-16033.671
-17112.594
4098.4659
3720.9319
5873.2066
12725.413
14145.745
13436.985
508233.17
457979.47
474292.64
469018.64
444795.67
497810.76
489233.74
426081.94
448652.27
422374.21
380062.04
423378.09
406966.46
383350.06
391684.12
385593.03
333348.02
362802.83
352985.7
321119.84
342521.82
334256.29
294255.65
306290.75
303151.41
271272.25
290253.87
279558.32
248853.47
265431.08
257643.43
225862.26
238078.9
232707.31
204384.56
217967.7
207929.75
185000.73
194887.01
186062.74
165392.1
173203.3
163318.6
145848.96
152848.94
141090.41
127540.06
132820.38
120877.65
109463.33
113898.32
100951.15
92152.522
95578.019
80462.176
74992.783
77638.213
64650.839
57985.877
62712.418
48299.187
43137.699
46413.132
33048.283
32714.22
32809.398
28090.834
28527.096
30276.069
254099.57
305723
234428.53
258092.64
229571.48
218982.51
211356.45
182266.12
175067.86
156633.06
146097.42
128753.98
116027
104605.75
91757.678
81185.066
69676.484
59543.036
49347.52
38682.416
29329.647
18876.619
6031.8937
-34387.493
30061.031
1139.5052
36258.541
29645.008
27750.175
28480.386
27043.488
20195.809
24652.632
21472.66
20291.29
19962.369
18485.681
17650.843
17434.048
15962.595
16103.479
13779.461
13319.663
12830.547
9831.0161
8204.6727
-158250.5
-147966.9
-244332.31
-211467.04
-215531.17
-219018.83
-194459.54
-188212.05
-166700.26
-157898.58
-144926.2
-130058.23
-117555.1
-103780.11
-91368.696
-78269.688
-66122.639
-54430.326
-43991.44
-32375.706
-23846.52
-12643.513
-8846.3586
310876.81
379528.68
331281.39
293555.67
320203.9
278842.34
211799.78
231994.46
261530.02
195949.72
259923.09
220769.18
221561.38
201272.85
213508.45
169927.74
207218.68
203843.51
172224.34
193541.72
177938.4
161200.1
171366.24
173443.86
146533.96
160323.85
161095.63
136476.83
151727.56
139042.72
124323.08
134596.36
131966.16
110035.8
124348.7
119461.57
102996.23
110447.63
107583.16
90721.375
98044.269
96438.473
79872.686
86100.296
85767.028
69935.216
75667.789
74370.996
60685.767
63919.824
64563.784
50203.382
54120.687
53832.072
41673.914
43289.469
44817.333
33062.99
37480.538
36018.429
23238.019
25774.823
24515.031
18522.33
16946.242
20162.349
6264.693
3234.96
3505.4571
-89863.005
-93796.517
-74452.072
-39408.61
-7037.9069
-28379.336
-6953.6049
-14151.06
-19279.614
-5844.1033
-8886.233
-38819.747
-4573.0954
-497.69781
1217.768
-59.495738
12127.121
-19335.25
9972.0156
5517.7034
-9486.9706
1271.8053
15689.212
-6512.1469
12150.47
14759.528
-11349.27
11602.392
12558.908
-3843.0201
9578.5946
15256.138
-4879.8595
13072.014
16874.929
-3515.3437
13027.246
15713.424
-2508.1563
11943.32
15510.232
-106.43233
11633.822
16279.847
1059.2318
11943.109
15573.457
1843.8367
10923.599
14229.737
3570.4034
9880.9333
14264.412
3527.4675
10800.161
11939.881
6232.2544
10751.773
11463.127
3537.3875
8615.5618
5580.5055
5161.7335
9030.3021
10606.358
6506.086
9886.6468
10678.027
11179.238
-305267.76
-333587.66
-368628
-223178.29
-173920.54
-263482.18
-210199.36
-305977.46
-281458.95
-265836.7
-220180.5
-246894.15
-201088.27
-233742.86
-237435.65
-193457.77
-219854.44
-225595.08
-186163.01
-201379.49
-206367.29
-161614.53
-186956.89
-203694.14
-147593.1
-178311.52
-180651.45
-140018.92
-158703.43
-165803.13
-121983.6
-144237.86
-151976.53
-109929.58
-130977.24
-136909.75
-97947.616
-118590.8
-121764.66
-86472.606
-104222.88
-107510.25
-74279.133
-91723.934
-93497.547
-64231.57
-79232.172
-80904.318
-53681.019
-67488.339
-67435.62
-44220.764
-54897.355
-55235.057
-34156.577
-44680.607
-44436.988
-26604.92
-33627.391
-32410.149
-18191.658
-24369.061
-22694.346
-8029.5151
-10488.673
-6743.8637
-1624.1116
-6821.7541
-7192.8894
)
;

boundaryField
{
    free
    {
        type            calculated;
    }
    fixed
    {
        type            calculated;
    }
    traction
    {
        type            calculated;
    }
}


// ************************************************************************* //
