/*--------------------------------*- C++ -*----------------------------------*\
  =========                 |
  \\      /  F ield         | OpenFOAM: The Open Source CFD Toolbox
   \\    /   O peration     | Website:  https://openfoam.org
    \\  /    A nd           | Version:  6
     \\/     M anipulation  |
\*---------------------------------------------------------------------------*/
FoamFile
{
    version     2.0;
    format      ascii;
    class       pointVectorField;
    location    "1.56";
    object      lm;
}
// * * * * * * * * * * * * * * * * * * * * * * * * * * * * * * * * * * * * * //

dimensions      [1 -2 -1 0 0 0 0];

internalField   nonuniform List<vector> 
3969
(
(-4.0340813e-15 -4.7705825e-17 1.3312818e-16)
(9.2297575e-16 -2.6090405e-16 -6.0252577e-16)
(4577.8195 2189.9451 -76.927476)
(5023.5892 847.11882 -59.234229)
(-7.1783695e-15 2.6020842e-15 -1.0366567e-15)
(-4.622429e-15 2.1493156e-15 -1.5432914e-15)
(5011.356 865.64708 -58.916061)
(4565.9831 2208.1947 -77.371001)
(-6.09887e-15 1.0869625e-16 -2.0095736e-16)
(-3.193382e-15 6.5333688e-16 6.3735029e-17)
(-2.9260211e-15 2.9260844e-16 -4.8432863e-17)
(-1.7497804e-15 -1.5755452e-16 -2.074758e-16)
(-4.3254872e-15 8.6218995e-16 7.3228779e-16)
(-2.4697388e-15 -4.9707839e-16 4.8086129e-16)
(5.2680668e-16 -4.7467027e-16 -5.3018058e-16)
(4633.939 2020.1749 -75.486965)
(4689.2879 1851.1129 -74.151954)
(4744.4415 1683.3341 -71.89727)
(4799.6763 1516.2294 -69.397203)
(4855.308 1349.5642 -66.611529)
(4911.1693 1182.744 -63.970447)
(4967.4085 1015.5719 -61.403916)
(-14.242352 -11.378952 -3.0294248)
(-31.722294 -12.973873 1.8127882)
(-48.15537 -10.770925 5.5265604)
(-60.650604 -3.9536347 6.1028034)
(-69.325057 5.7972673 5.0300342)
(-73.38068 20.6619 1.6328615)
(-71.642198 38.815808 -3.3147378)
(-64.317155 61.985683 -10.127681)
(-49.742629 88.719424 -18.461437)
(-28.328163 119.92429 -28.024727)
(0.84035521 154.69349 -38.329111)
(37.823007 193.50518 -49.632234)
(83.13166 235.06382 -61.679902)
(136.05368 280.73358 -73.568629)
(197.59042 328.19918 -85.656197)
(266.32049 378.36307 -97.397162)
(342.48421 430.46259 -108.17011)
(425.54929 484.2211 -118.26269)
(515.01841 539.19363 -126.95416)
(610.1449 595.06984 -134.15864)
(710.47016 651.54495 -139.58806)
(815.25518 708.3238 -143.03746)
(924.19429 765.20834 -144.55894)
(1036.5746 822.13462 -144.05759)
(1152.2923 878.58993 -141.55765)
(1270.6001 935.30545 -137.31251)
(1391.618 991.63668 -131.25785)
(1515.2505 1047.74 -123.86912)
(1641.2392 1103.7554 -115.2103)
(1769.6639 1159.6625 -105.62972)
(1900.5982 1215.5283 -95.417404)
(2034.2147 1271.4687 -84.943971)
(2170.6363 1327.4735 -74.557769)
(2310.2018 1383.6801 -64.662971)
(2453.0399 1440.1857 -55.772019)
(2599.3767 1496.823 -48.053698)
(2749.5539 1554.122 -42.140478)
(2903.5535 1611.4118 -38.307996)
(3061.2524 1669.4664 -36.538111)
(3222.5522 1727.6228 -36.75978)
(3387.1528 1786.034 -39.194233)
(3554.442 1844.7112 -43.138218)
(3723.811 1903.1719 -48.681842)
(3895.098 1961.4454 -54.664219)
(4065.9203 2019.696 -61.177302)
(4237.8685 2076.6657 -66.952785)
(4408.5312 2133.4625 -72.49958)
(-5.4423856 1.4402628 2.0264014)
(-22.200886 -4.260083 -10.165865)
(-33.899649 -14.617419 -17.295024)
(-43.772303 -29.863797 -30.966458)
(-49.557669 -47.008527 -43.200703)
(-48.704016 -67.026994 -57.346772)
(-41.873697 -89.050901 -71.910902)
(-27.197224 -111.39147 -86.525782)
(-4.4398605 -134.84981 -101.52613)
(26.885834 -156.81173 -115.8401)
(67.689093 -178.53285 -129.65604)
(117.24292 -197.40963 -142.94192)
(176.0815 -214.07621 -154.80249)
(243.58195 -227.14072 -165.23973)
(319.85191 -236.7044 -174.49181)
(403.89636 -241.83975 -181.96966)
(495.74209 -242.71371 -187.82635)
(593.99701 -238.85845 -191.94944)
(698.81632 -230.71306 -194.28715)
(808.57775 -217.85366 -194.89973)
(923.69698 -201.37615 -193.74478)
(1042.4023 -180.5197 -191.07311)
(1165.4207 -156.97504 -186.66066)
(1291.1896 -130.05104 -181.09372)
(1420.1488 -100.99655 -174.25244)
(1551.4847 -69.683815 -166.14271)
(1685.2227 -37.138784 -157.37774)
(1821.6163 -3.264552 -147.72901)
(1960.3605 31.526746 -137.63324)
(2101.3529 66.805586 -127.15245)
(2245.0467 102.47253 -116.57341)
(2391.2916 138.33091 -106.01972)
(2540.365 174.3669 -95.776635)
(2692.2498 210.56063 -86.056879)
(2847.1287 247.09342 -77.085307)
(3004.9281 284.03434 -69.023741)
(3165.4132 321.72547 -62.326431)
(3328.6194 360.47473 -56.636394)
(3494.3009 400.59938 -52.60762)
(3661.8367 442.32811 -49.87316)
(3831.2062 486.08106 -48.399209)
(4001.5676 531.90443 -48.228392)
(4172.7764 579.98387 -48.978652)
(4344.0493 630.27493 -50.527986)
(4515.0979 682.53028 -52.506542)
(4685.3714 736.55821 -54.886111)
(4854.8604 791.49581 -57.056413)
(-3.9179893e-16 -2.8384427e-17 -1.6191597e-16)
(6.8869455e-16 3.3255846e-16 -2.9305012e-16)
(-3.0379221e-16 -4.0639439e-16 3.7376104e-16)
(8.6048107e-16 -8.7588792e-17 1.0515471e-16)
(5.0258192e-16 -7.4376592e-16 6.4035694e-16)
(-2.9679417e-15 -3.4669267e-16 7.3060073e-16)
(8.9003905e-16 -2.834795e-16 1.0120244e-16)
(-18.829475 9.3006535 -7.60002)
(-42.383817 19.680434 -1.2315622)
(-55.479139 9.8872946 2.5569374)
(-69.063655 7.831852 3.4003594)
(-75.650817 -4.3547801 2.4324848)
(-74.787993 -17.147435 -0.39201171)
(-69.229596 -33.461346 -4.1581423)
(-52.690079 -51.801307 -10.896957)
(-31.012731 -71.090546 -16.912181)
(2.927846 -91.945465 -26.236529)
(44.321315 -112.68871 -34.283198)
(94.469938 -131.73211 -44.352076)
(156.3607 -150.19831 -55.240569)
(226.04108 -165.79763 -66.199094)
(305.28617 -179.68587 -77.213159)
(392.44046 -189.62563 -88.249688)
(487.60525 -197.33575 -98.400823)
(589.33976 -200.47802 -108.05486)
(697.57605 -200.86172 -116.28661)
(810.81153 -196.87516 -123.27859)
(928.91394 -189.82043 -128.41412)
(1050.6087 -178.86709 -131.79007)
(1175.7662 -164.87314 -133.09077)
(1303.3332 -147.54389 -132.3945)
(1433.6605 -127.52082 -129.73444)
(1565.6416 -104.58297 -125.22951)
(1699.8696 -80.193138 -118.48869)
(1835.5983 -52.478945 -110.88296)
(1973.4883 -23.110474 -101.59571)
(2113.0011 8.4080362 -91.431578)
(2254.5236 41.775572 -80.638166)
(2398.1121 76.922933 -69.447663)
(2544.0244 113.86969 -58.431583)
(2692.4504 152.67032 -47.890089)
(2843.52 193.30913 -38.47845)
(2997.8281 236.00465 -30.351472)
(3154.5489 280.51022 -24.365379)
(3315.1742 326.81923 -19.928038)
(3478.2321 375.34216 -18.157921)
(3644.2513 425.57752 -18.458579)
(3812.72 477.51663 -20.936024)
(3983.0552 530.94585 -25.152394)
(4154.7438 585.50376 -30.661644)
(4327.0793 641.04735 -36.990324)
(4499.4098 697.0829 -43.445678)
(4671.087 753.42613 -49.519335)
(4841.5511 809.36289 -54.530083)
(4954.8315 1035.1835 -62.208416)
(4897.8368 1203.4853 -64.860255)
(4841.9738 1370.3586 -67.100982)
(4786.6925 1537.4129 -68.876716)
(4731.6376 1704.2831 -70.597314)
(4677.142 1871.6299 -72.345776)
(4621.7306 2039.9397 -74.829336)
(4397.8565 2152.4406 -75.002179)
(4229.3463 2095.6953 -72.301487)
(4060.6478 2037.2929 -69.539821)
(3892.499 1976.8576 -67.373608)
(3725.603 1914.5918 -65.595619)
(3560.0822 1850.6907 -64.918027)
(3396.5887 1785.365 -65.432326)
(3235.3745 1719.1766 -67.341679)
(3076.9116 1652.3782 -70.667577)
(2920.8681 1585.635 -75.768355)
(2767.8827 1519.4893 -82.393299)
(2618.2473 1454.3387 -90.031795)
(2471.0746 1389.9077 -98.881803)
(2326.7209 1327.4937 -108.88711)
(2184.9794 1266.7136 -119.46409)
(2045.8575 1207.7959 -130.44328)
(1909.0619 1150.6654 -141.58366)
(1774.5172 1095.3963 -152.71835)
(1642.2888 1041.568 -163.36966)
(1512.1887 989.45941 -173.77073)
(1384.4127 938.43313 -183.30458)
(1259.1216 888.73519 -192.01989)
(1136.4157 839.76549 -199.69711)
(1016.6859 791.68428 -206.3703)
(900.50809 744.13506 -211.48576)
(788.10535 697.18852 -215.38845)
(680.24125 650.50136 -217.63283)
(577.38004 604.36114 -218.38694)
(480.36707 558.46206 -217.36323)
(389.51891 513.1553 -214.82336)
(305.78219 468.32156 -210.56568)
(229.41342 424.70205 -204.71876)
(161.07946 381.4346 -196.83575)
(101.80639 339.14312 -187.82293)
(50.73506 299.4703 -178.08519)
(7.4916299 261.52682 -165.74353)
(-26.058476 224.6348 -152.99896)
(-51.814255 190.68356 -139.485)
(-69.606993 158.42357 -124.60794)
(-79.507863 128.9635 -109.80182)
(-81.838444 101.94315 -94.347473)
(-79.658701 78.798919 -78.958794)
(-70.123813 56.769333 -63.443771)
(-56.920247 38.752907 -47.529354)
(-39.717544 24.019991 -33.34412)
(-21.075294 11.728392 -16.90984)
(0.88873335 0.58873194 -2.7861276)
(-6.7652979e-16 3.5118239e-16 1.2802193e-16)
(-2.3129286e-15 2.7505878e-16 1.3239036e-16)
(-3.6393531e-15 -1.4253491e-16 -1.5464221e-16)
(-4.9195801e-15 -9.3657526e-16 4.6870719e-16)
(-4.0844143e-15 -8.2232132e-16 1.723462e-16)
(-2.0271537e-15 -1.8079967e-16 2.6438577e-16)
(-2.0670014e-15 8.6459225e-16 1.4474963e-15)
(-4.5036838e-15 1.2268482e-15 -2.065022e-16)
(-1.9919023e-15 1.1694967e-15 -1.6367101e-16)
(-2.9438013e-15 1.1112212e-15 -1.969436e-16)
(-2.4504202e-15 9.597151e-16 -1.1789697e-16)
(-5.2893259e-15 2.5926013e-15 -8.0820905e-16)
(-1.8775489e-15 1.1365606e-15 -5.8525306e-16)
(-7.4714327e-17 -2.094137e-16 9.7564992e-17)
(5022.0048 849.26653 -59.240455)
(5021.0329 851.27605 -58.881269)
(5020.3511 852.96814 -58.453241)
(5019.7389 854.65003 -58.069626)
(5018.5637 856.51029 -57.994826)
(5017.0628 858.86847 -58.394875)
(5014.4697 861.83923 -58.786977)
(4576.7395 2194.2928 -76.690789)
(4575.4837 2197.7188 -76.137938)
(4574.1633 2200.0186 -75.831946)
(4572.6204 2201.5883 -76.011747)
(4570.8935 2203.0208 -76.358822)
(4569.1249 2204.2819 -76.77559)
(4567.4701 2206.1361 -77.383911)
(-12.397282 -0.22438872 -3.2784697)
(-33.737041 1.7752878 1.2472746)
(-50.803832 2.1479759 0.62452777)
(-65.420588 4.9851944 0.11248029)
(-74.810702 10.482055 -3.1194846)
(-80.042104 18.870818 -7.2458382)
(-78.626778 30.698407 -13.745513)
(-71.382684 45.875824 -21.181627)
(-56.262099 64.69807 -30.125426)
(-33.901261 87.034193 -39.860413)
(-3.3936399 113.29113 -50.567764)
(35.248715 142.53997 -61.716427)
(82.696512 175.99288 -73.276363)
(137.88378 212.19425 -84.637497)
(201.88139 251.44669 -95.998067)
(273.39922 293.96059 -106.73512)
(352.35849 338.71023 -116.73854)
(438.24653 385.75662 -125.72493)
(530.41982 434.72395 -133.43125)
(628.23445 485.31473 -139.69865)
(731.07479 537.12412 -144.20876)
(838.34602 589.82925 -146.99107)
(949.45692 643.28764 -147.85469)
(1063.9602 697.07763 -146.89933)
(1181.4907 751.1332 -143.94955)
(1301.8356 805.35093 -139.63576)
(1424.5649 859.37584 -133.48403)
(1549.8228 913.4086 -126.1004)
(1677.4231 967.26873 -117.58858)
(1807.3498 1021.0712 -108.27176)
(1939.8326 1074.7532 -98.364708)
(2074.9722 1128.3933 -88.272999)
(2212.9799 1181.9908 -78.239469)
(2354.0944 1235.6195 -68.772132)
(2498.5484 1289.3975 -60.111458)
(2646.5488 1343.3087 -52.695712)
(2798.3321 1397.5642 -46.760153)
(2953.8359 1452.0941 -42.812162)
(3112.9768 1507.3776 -40.673332)
(3275.5274 1562.9358 -40.397153)
(3441.2626 1619.2927 -42.030942)
(3609.4028 1675.9974 -45.239571)
(3779.5683 1733.3713 -49.626936)
(3950.9826 1791.0387 -54.903663)
(4122.2532 1848.8606 -60.430039)
(4294.2721 1906.4956 -65.685526)
(4464.5669 1963.5888 -70.855945)
(-14.196932 -1.0455799 -2.785561)
(-34.025041 1.1370717 -2.8881315)
(-50.887241 -1.07931 -4.470359)
(-64.762188 0.72851542 -7.5793841)
(-75.532639 1.7587112 -11.191163)
(-80.326591 6.2135688 -17.247822)
(-79.426109 11.947065 -24.073938)
(-71.816171 21.64097 -32.557218)
(-56.426012 33.39719 -41.705953)
(-33.454414 49.311703 -52.063977)
(-1.7154372 67.594422 -62.545774)
(38.398949 90.142893 -73.795113)
(87.178265 115.49692 -84.831541)
(144.69557 144.72399 -95.820333)
(210.70051 176.88897 -106.37693)
(284.2004 212.47815 -116.49135)
(365.28026 250.67746 -125.62842)
(453.21004 291.76554 -133.6896)
(547.48819 335.05734 -140.46853)
(647.43588 380.57135 -145.701)
(752.42133 427.63041 -149.35191)
(861.77288 476.21838 -151.24878)
(974.7725 525.72554 -151.4528)
(1091.2509 576.16472 -149.74056)
(1210.6045 626.9453 -146.55365)
(1332.6121 678.15014 -141.57)
(1457.1107 729.45523 -135.27474)
(1584.0878 780.88982 -127.75219)
(1713.2687 832.26288 -119.26703)
(1844.8931 883.62331 -110.047)
(1979.0722 934.90256 -100.36128)
(2115.8781 986.09738 -90.471222)
(2255.6076 1037.2105 -80.76701)
(2398.3955 1088.383 -71.564529)
(2544.5623 1139.6137 -63.167772)
(2694.1884 1191.0314 -55.938686)
(2847.4609 1242.8719 -50.189404)
(3004.4108 1295.0423 -46.053202)
(3164.9021 1348.1045 -43.763008)
(3328.5568 1401.5988 -43.142572)
(3495.1717 1456.095 -44.304977)
(3663.9982 1511.3335 -46.82222)
(3834.5143 1567.3583 -50.607913)
(4006.2649 1624.0086 -54.997746)
(4177.6873 1681.1214 -59.883512)
(4349.8826 1738.1014 -64.586888)
(4520.3441 1794.8433 -69.362772)
(-16.788836 -1.7540023 -2.8794045)
(-36.109629 -3.3732496 -3.4422899)
(-51.098178 -5.3219061 -7.4663151)
(-65.902908 -7.4828416 -10.8104)
(-75.320004 -8.4759851 -17.113241)
(-80.193672 -8.8354289 -23.808968)
(-78.828848 -6.813399 -32.369597)
(-70.305906 -3.0811791 -41.731389)
(-53.92818 3.4939182 -52.034243)
(-29.454074 12.386251 -62.732053)
(3.4871485 24.900019 -73.948703)
(44.899946 39.940205 -85.102279)
(95.378097 58.860444 -96.327892)
(154.27717 80.815522 -106.96827)
(221.60538 106.1933 -117.09738)
(296.95096 135.15415 -126.63898)
(379.94737 167.1005 -135.08562)
(469.88784 202.19566 -142.49949)
(566.21672 239.88171 -148.43692)
(668.07363 280.0132 -152.9431)
(774.8823 322.12941 -155.75596)
(885.93098 365.99671 -156.96336)
(1001.0262 411.45695 -156.36588)
(1119.3603 457.71994 -154.24568)
(1240.5772 505.07109 -150.39013)
(1364.5487 552.9003 -145.22623)
(1491.0068 601.27321 -138.79024)
(1619.7063 649.73116 -131.05655)
(1750.7795 698.36694 -122.54948)
(1884.249 747.08233 -113.35886)
(2020.1214 795.75137 -103.69482)
(2158.6821 844.38039 -93.893987)
(2300.0539 893.021 -84.289646)
(2444.5171 941.69875 -75.11712)
(2592.2349 990.51417 -66.763935)
(2743.3213 1039.5944 -59.510591)
(2898.0151 1089.0506 -53.584057)
(3056.0986 1139.1384 -49.227171)
(3217.5697 1189.9742 -46.543446)
(3382.0656 1241.613 -45.423681)
(3549.2262 1294.3596 -46.001816)
(3718.5615 1347.9856 -47.877711)
(3889.4089 1402.7138 -50.900138)
(4061.3677 1458.275 -54.734559)
(4233.1121 1514.4709 -58.963288)
(4405.3724 1571.0226 -63.267511)
(4575.8564 1627.4894 -67.541543)
(-16.124263 -2.6241001 -4.3023068)
(-33.989255 -6.1413903 -7.3145948)
(-49.371812 -11.020217 -11.366329)
(-62.19529 -15.147059 -17.495449)
(-71.572166 -20.10978 -24.403362)
(-75.7957 -23.544894 -32.625158)
(-73.516148 -26.67651 -42.263197)
(-64.453865 -27.474552 -52.366749)
(-47.568834 -27.247212 -62.794155)
(-22.619084 -23.969309 -73.84831)
(11.180139 -18.682149 -84.980112)
(54.120109 -9.8712603 -96.26431)
(105.94202 1.9565988 -107.39542)
(166.55526 17.186758 -117.67112)
(235.77163 35.933975 -127.63174)
(313.00559 58.403812 -136.55605)
(397.79829 83.973324 -144.49797)
(489.62942 113.01743 -151.03754)
(587.67028 144.8311 -156.21626)
(691.52702 179.46069 -159.80245)
(800.27684 216.68691 -161.96875)
(913.78662 256.18806 -162.37015)
(1030.4908 296.965 -161.24266)
(1150.6683 339.56689 -158.35997)
(1273.6575 383.11639 -154.20229)
(1399.3105 427.62833 -148.5135)
(1527.2606 472.63704 -141.53007)
(1657.5725 518.17468 -133.58331)
(1790.1784 563.9365 -124.86359)
(1925.1412 609.94805 -115.47288)
(2062.5866 655.9884 -105.76912)
(2202.6515 702.14448 -95.990378)
(2345.5869 748.32899 -86.405624)
(2491.5074 794.66284 -77.321623)
(2640.6392 841.18131 -69.028175)
(2793.111 888.06016 -61.784207)
(2949.0061 935.40916 -55.803947)
(3108.1078 983.51869 -51.372624)
(3270.5906 1032.3978 -48.403956)
(3435.8548 1082.2894 -47.129247)
(3603.7659 1133.3858 -47.234662)
(3773.554 1185.6128 -48.74061)
(3944.7847 1239.0357 -51.224704)
(4116.8873 1293.5286 -54.541653)
(4288.7194 1348.8656 -58.149529)
(4460.8513 1404.785 -61.910809)
(4631.2189 1460.8055 -65.529354)
(-14.98172 -4.9893406 -5.2966163)
(-33.213258 -12.036357 -7.3776321)
(-46.112912 -18.389633 -14.010132)
(-59.706524 -26.31803 -20.210849)
(-67.992778 -33.651623 -28.818152)
(-71.6142 -41.41385 -38.279622)
(-68.42937 -48.381059 -48.912858)
(-58.631621 -54.582705 -59.857372)
(-40.51131 -59.26882 -71.61411)
(-14.00302 -62.13789 -83.670918)
(21.549039 -62.216141 -95.886392)
(65.510355 -59.658677 -107.65058)
(118.86511 -54.173549 -118.63618)
(180.8712 -45.152394 -129.19891)
(251.52587 -32.836368 -138.71794)
(330.2693 -16.772026 -147.22534)
(416.8106 2.8140007 -154.57821)
(510.18583 25.96236 -160.4795)
(610.05018 52.361016 -165.01412)
(715.39944 81.833309 -167.84745)
(825.82215 114.49211 -169.34608)
(940.31621 148.89061 -168.66151)
(1058.9685 185.71233 -166.81738)
(1180.6245 224.0087 -163.40959)
(1305.4112 263.92623 -158.55015)
(1432.6589 304.8265 -152.32542)
(1562.4255 346.62848 -145.11552)
(1694.5307 389.01126 -136.93775)
(1828.9074 431.83435 -128.02833)
(1965.6419 474.95908 -118.56649)
(2104.8107 518.23867 -108.8218)
(2246.6478 561.66767 -98.974416)
(2391.2492 605.21147 -89.368638)
(2538.8189 648.94766 -80.220837)
(2689.5299 692.93235 -71.826259)
(2843.4982 737.3895 -64.447656)
(3000.6665 782.33183 -58.293094)
(3161.1051 828.2978 -53.580809)
(3324.5722 875.06474 -50.364142)
(3490.7794 923.20471 -48.545017)
(3659.1338 972.41635 -48.202921)
(3829.264 1023.145 -49.094911)
(4000.5784 1075.2578 -51.044216)
(4172.6037 1128.6471 -53.746311)
(4344.4857 1183.1912 -56.864014)
(4516.4167 1238.5302 -60.183035)
(4686.7881 1294.2546 -63.368798)
(-12.39299 -4.7015353 -4.0772878)
(-28.775304 -12.766226 -10.196028)
(-42.073042 -21.732583 -16.212891)
(-54.774762 -31.436649 -24.841139)
(-61.980229 -42.282654 -34.834545)
(-64.404624 -53.621363 -45.721819)
(-60.217702 -65.425295 -57.412876)
(-48.841107 -76.422837 -69.812155)
(-29.425729 -86.92677 -82.38629)
(-1.4811934 -95.478592 -94.886767)
(35.13135 -102.33879 -107.31317)
(80.926306 -106.57897 -119.14293)
(135.96223 -107.94549 -130.54802)
(199.70655 -105.93089 -140.90645)
(272.14991 -100.48711 -150.28258)
(352.66133 -91.108878 -158.44227)
(440.88672 -78.100108 -165.28818)
(535.96751 -61.140064 -170.57057)
(637.49656 -40.748163 -174.3714)
(744.46268 -16.731628 -176.47579)
(856.60081 10.019661 -177.05183)
(972.81737 40.424649 -175.76207)
(1092.7031 72.096641 -173.27937)
(1216.5439 106.33807 -168.83483)
(1342.6716 142.39919 -163.43425)
(1471.5177 179.62743 -156.7113)
(1602.7642 218.22179 -149.00167)
(1736.2961 257.66178 -140.33894)
(1872.0978 297.70583 -131.11461)
(2010.3483 338.15611 -121.33329)
(2151.0041 378.88354 -111.36056)
(2294.2833 419.85569 -101.32704)
(2440.3081 461.02082 -91.602619)
(2589.269 502.41043 -82.291397)
(2741.2517 544.15955 -73.832643)
(2896.384 586.36181 -66.261967)
(3054.5552 629.24781 -59.956791)
(3215.7669 673.05415 -54.995778)
(3379.8872 717.85441 -51.344032)
(3546.3606 764.16701 -49.223646)
(3715.1618 811.7325 -48.453993)
(3885.3955 861.04541 -49.075097)
(4056.9222 911.75745 -50.567808)
(4228.8676 964.05452 -52.941944)
(4400.8596 1017.622 -55.674857)
(4572.3746 1072.1741 -58.560721)
(4742.4833 1127.5481 -61.192796)
(-8.2881766 -6.8688525 -3.8020583)
(-25.012366 -15.724752 -9.8453163)
(-37.704012 -25.209632 -17.28632)
(-49.900748 -37.347229 -27.709781)
(-55.786349 -51.133013 -38.765507)
(-57.536953 -66.593279 -51.018182)
(-51.881245 -82.60153 -64.155183)
(-39.375992 -99.185352 -77.500098)
(-18.474285 -115.00987 -91.101448)
(10.705472 -130.09405 -104.48629)
(49.149675 -143.14166 -117.64855)
(96.564214 -154.32042 -130.20797)
(153.32146 -162.39879 -141.69736)
(218.80189 -167.39192 -152.18589)
(292.97498 -168.59282 -161.41069)
(375.17997 -165.93022 -169.36423)
(465.12839 -159.19383 -175.65792)
(561.83991 -148.40493 -180.49738)
(665.00152 -133.64022 -183.55653)
(773.5282 -115.11451 -185.05795)
(887.13854 -92.947429 -184.78688)
(1004.6914 -67.795092 -182.98219)
(1126.3125 -39.499758 -179.45592)
(1251.0839 -9.2269237 -174.60663)
(1378.5054 23.431205 -168.69794)
(1508.835 57.463998 -161.36394)
(1641.4138 92.96311 -153.16771)
(1776.4576 129.43266 -144.14485)
(1913.8577 166.56808 -134.49331)
(2053.6356 204.20909 -124.38486)
(2195.8473 242.19175 -114.11683)
(2340.7137 280.42814 -103.84014)
(2488.3142 318.88213 -93.846189)
(2638.799 357.55073 -84.317767)
(2792.2925 396.6363 -75.602448)
(2948.7858 436.12553 -67.772881)
(3108.2747 476.45975 -61.255894)
(3270.6965 517.70933 -55.939492)
(3435.6081 560.23006 -52.105281)
(3602.8514 604.16089 -49.665012)
(3771.9913 649.88209 -48.601179)
(3942.627 697.47202 -48.748118)
(4114.123 746.905 -49.896058)
(4285.9915 798.16234 -51.816863)
(4457.6989 850.96478 -54.136126)
(4628.621 905.11084 -56.682191)
(4798.482 960.30262 -59.184276)
(-1.8726199e-15 -1.0357256e-16 4.2324109e-16)
(-4.3693994e-15 5.8098526e-16 1.0825799e-16)
(-1.86708e-15 5.0203615e-16 5.7484399e-16)
(-1.1298519e-15 4.4303811e-16 -1.5186772e-16)
(-1.5283164e-15 1.7502349e-16 4.7144117e-17)
(-3.9278597e-15 -6.147074e-18 -1.0233878e-17)
(-3.270765e-15 8.5080195e-17 2.8271762e-17)
(-1.444637e-15 3.1767481e-17 -1.0328492e-16)
(-1.9600489e-15 -2.0641393e-16 2.5996682e-17)
(-1.0758982e-15 -5.0887233e-16 -1.6282415e-16)
(-1.1902312e-15 -6.3217422e-16 -1.0496995e-16)
(-2.2455722e-15 -1.0363924e-16 3.7607835e-16)
(-1.7254929e-15 1.2766475e-16 7.9907906e-17)
(-6.542485e-16 2.4659353e-16 4.7610311e-16)
(-1.0183069e-15 2.0413811e-16 3.0876606e-16)
(-1.2825224e-16 3.2154578e-16 2.6910031e-16)
(-2.4669526e-15 5.8726168e-16 -3.2350189e-17)
(-1.9694108e-15 5.8752001e-16 2.9593509e-16)
(-1.9972486e-15 5.0741204e-16 1.6376266e-16)
(-5.0142844e-16 5.9082617e-16 -1.5096731e-17)
(2.8672985e-17 2.0007103e-16 -2.079567e-16)
(-3.5598279e-15 1.6770216e-16 6.1584209e-17)
(1.5219227e-15 -3.8112137e-16 -3.4960392e-16)
(-8.8364966e-17 -1.5289127e-16 1.7491834e-16)
(2.7397895e-16 -2.6900304e-16 -2.0413732e-16)
(-5.1236454e-16 -3.7600259e-16 -4.411389e-17)
(-1.3114086e-15 -5.3747975e-16 1.2489795e-16)
(2.0041989e-16 -4.4379834e-16 -1.4360784e-16)
(-1.3448657e-15 3.3966264e-16 -2.7012678e-16)
(-2.2010094e-15 1.2158219e-16 1.1470551e-16)
(-1.2722141e-15 -2.3577892e-16 -7.7366055e-17)
(-2.6936153e-15 2.298542e-17 6.0151854e-16)
(-1.8084585e-15 2.5926424e-16 8.2177642e-17)
(-1.0121806e-15 3.7760621e-16 1.5728837e-17)
(-3.5076342e-15 -1.049112e-16 -1.8966684e-16)
(-1.2388067e-16 -2.746004e-16 -1.3203227e-16)
(-1.1077126e-15 -2.2449831e-16 5.9960705e-17)
(-7.9462407e-16 5.2806017e-17 1.8160622e-16)
(-1.481116e-15 2.6347307e-16 -6.003674e-17)
(5.3541372e-16 1.9494005e-16 5.7756958e-17)
(-2.5861876e-15 -7.0653702e-17 -1.8824779e-16)
(-1.6152529e-15 1.8241927e-16 3.8488004e-16)
(-1.0389662e-15 3.299921e-17 2.9700946e-16)
(-3.8817577e-15 -1.9427146e-16 -1.2145786e-15)
(-1.6161979e-15 2.8442108e-16 -1.856842e-16)
(8.1577518e-16 1.8112067e-17 2.0819295e-16)
(-2.485062e-15 2.8178417e-16 -5.4749215e-16)
(-1.8307085e-15 4.4562511e-16 -1.4619564e-16)
(-1.4586292e-15 4.0358521e-16 -4.0281137e-16)
(-7.7783392 1.6518256 0.74338109)
(-9.6376197 3.3425171 1.529868)
(-11.905932 3.9692475 1.7664642)
(-13.735827 4.7787032 1.5115753)
(-15.24833 5.323429 1.5482359)
(-17.421455 6.3430649 1.0086577)
(-18.495994 6.9926617 -1.6472)
(-24.422403 2.4154819 -6.6065335)
(-25.548827 6.9107499 -4.7426958)
(-27.155088 7.8052508 -1.7708013)
(-29.223416 9.2233339 -1.2434666)
(-32.722906 12.63242 0.30758592)
(-35.319139 15.278065 0.28925647)
(-38.87986 18.875501 -0.81310489)
(-33.287087 -9.3469383 -13.20457)
(-34.939804 -6.2481183 -9.5991952)
(-36.94428 -1.8992765 -7.0649646)
(-39.305483 1.0866476 -4.7374975)
(-41.963095 3.5454534 -2.169012)
(-46.580534 5.9972386 -0.28607071)
(-51.336886 12.543217 0.45615677)
(-43.8454 -20.043365 -24.913372)
(-43.473495 -14.432758 -19.515764)
(-44.953007 -10.228444 -15.108747)
(-46.980469 -6.3990303 -10.542674)
(-51.399035 -2.465881 -6.7789433)
(-55.962653 2.8567603 -4.2989412)
(-61.47054 5.6738314 0.080157041)
(-46.51553 -37.108163 -35.585343)
(-46.509709 -30.60326 -28.388257)
(-47.831293 -24.890246 -22.989564)
(-50.112819 -20.13279 -17.712871)
(-53.934807 -15.530519 -11.842715)
(-59.657852 -11.349954 -7.6469004)
(-66.448534 -5.398134 -2.2738342)
(-45.569101 -55.429194 -48.771011)
(-44.308768 -47.917477 -40.768926)
(-44.911271 -41.453574 -33.079785)
(-47.44701 -35.534518 -26.667676)
(-51.455937 -30.140941 -19.514897)
(-58.033015 -24.329136 -13.543859)
(-65.423134 -19.701983 -6.8836039)
(-37.35544 -76.344523 -61.942282)
(-35.446778 -68.185638 -52.634516)
(-35.740816 -60.325233 -44.615409)
(-37.786068 -54.402874 -36.243935)
(-42.070417 -48.313466 -28.41918)
(-48.278303 -43.372314 -20.936676)
(-57.267208 -36.359547 -11.650246)
(-21.570739 -98.33205 -75.868045)
(-19.423118 -88.784819 -65.621524)
(-19.218247 -80.724898 -55.758108)
(-21.09957 -73.60856 -46.560856)
(-25.959749 -67.316871 -37.615916)
(-32.271537 -61.08657 -28.728772)
(-41.797313 -55.559878 -19.819943)
(1.7854887 -120.69691 -89.862817)
(4.9068169 -111.05326 -78.790685)
(6.171499 -103.07707 -68.911378)
(3.9177058 -95.170868 -58.267861)
(-0.29217604 -88.330105 -48.022965)
(-7.4647686 -82.31768 -38.351785)
(-16.935594 -75.602092 -26.872407)
(34.49485 -143.12037 -103.78725)
(37.598064 -132.38397 -92.132814)
(38.524276 -123.10875 -80.943889)
(37.281181 -115.9531 -70.074764)
(32.714933 -109.14011 -59.366104)
(25.684327 -102.66302 -48.316716)
(15.515593 -96.613479 -37.304804)
(75.190467 -164.04921 -117.13724)
(79.327674 -153.92046 -105.51759)
(81.229027 -144.96299 -93.88573)
(79.643132 -137.15093 -82.330233)
(75.729389 -130.07976 -70.421488)
(68.188898 -123.57924 -59.454138)
(58.956624 -117.81765 -46.177028)
(125.85157 -183.49894 -130.45744)
(130.32294 -173.29032 -117.88311)
(131.88662 -163.80812 -106.17906)
(130.98139 -156.12683 -93.929102)
(126.80256 -149.18678 -82.089711)
(119.73306 -143.0932 -70.464771)
(109.88653 -136.98049 -56.414968)
(185.09411 -200.4371 -142.15992)
(189.68007 -190.3133 -129.88339)
(192.09474 -181.60308 -118.17535)
(191.14336 -173.89801 -106.00729)
(187.53757 -167.52225 -93.511304)
(180.20345 -161.20617 -81.698799)
(170.83241 -155.77048 -67.843761)
(253.12346 -214.35688 -153.10568)
(257.70297 -204.56599 -141.03453)
(260.59412 -195.80223 -129.34649)
(259.71857 -188.42093 -117.1315)
(256.56955 -182.32103 -104.80773)
(249.69136 -176.52668 -93.157359)
(240.75381 -171.43225 -78.793518)
(329.51466 -224.71309 -162.77471)
(334.48958 -215.58324 -151.07103)
(337.57203 -207.46967 -139.72087)
(337.19837 -200.74481 -127.80053)
(334.28528 -195.20081 -115.64871)
(327.9375 -189.71445 -103.81329)
(319.22116 -185.08438 -89.815852)
(413.86411 -231.03035 -170.94896)
(418.719 -222.59512 -159.81704)
(422.30984 -215.03961 -148.96186)
(421.93438 -208.71708 -137.46084)
(419.68929 -203.74536 -125.55607)
(413.65637 -198.75995 -114.27777)
(405.64998 -194.94764 -100.51698)
(505.49409 -233.16236 -177.58628)
(510.69089 -225.75615 -167.22249)
(514.31365 -218.86074 -156.88376)
(514.52565 -213.6201 -145.90222)
(512.5286 -209.32236 -134.63437)
(507.30395 -205.21204 -123.64401)
(499.89586 -201.96568 -110.37006)
(603.96154 -230.91826 -182.6253)
(608.91202 -224.32772 -173.00221)
(613.07383 -218.54645 -163.36497)
(613.25871 -213.93385 -153.08473)
(612.00211 -210.47386 -142.41126)
(607.1567 -206.93113 -132.00213)
(600.63626 -204.72029 -119.45076)
(708.35422 -224.18029 -185.85962)
(713.62005 -218.96284 -177.10294)
(717.63849 -214.01089 -168.22063)
(718.41811 -210.56599 -158.6534)
(717.41797 -207.88186 -148.73902)
(713.43988 -205.50663 -138.93535)
(707.65207 -203.99245 -127.16803)
(818.29063 -213.28353 -187.39879)
(823.17779 -209.02342 -179.45943)
(827.69944 -205.3814 -171.38319)
(828.46145 -202.77871 -162.60425)
(828.15778 -201.13299 -153.45764)
(824.65455 -199.51358 -144.34473)
(819.75157 -199.08901 -133.46716)
(932.78935 -198.1566 -187.13503)
(937.94153 -195.36322 -180.04079)
(942.30293 -192.75439 -172.74346)
(943.53227 -191.34399 -164.70049)
(943.50661 -190.57036 -156.39013)
(940.75142 -190.15272 -147.95616)
(936.55663 -190.61224 -137.95218)
(1051.6413 -179.38045 -185.19263)
(1056.4361 -177.74173 -178.84934)
(1061.1239 -176.38532 -172.24583)
(1062.3305 -175.95999 -165.03824)
(1062.8354 -176.19694 -157.44956)
(1060.5017 -176.78648 -149.70505)
(1057.1458 -178.3322 -140.61949)
(1173.9818 -157.17994 -181.51985)
(1178.9012 -156.83783 -175.85398)
(1183.385 -156.54926 -170.08942)
(1184.9506 -157.30329 -163.45397)
(1185.6759 -158.52125 -156.62239)
(1184.0289 -160.2859 -149.56954)
(1181.195 -162.74793 -141.24678)
(1299.5709 -131.8549 -176.31607)
(1304.4126 -132.81612 -171.36467)
(1308.8735 -133.54875 -166.1576)
(1310.5183 -135.50318 -160.00303)
(1311.5614 -137.51049 -153.97618)
(1310.0837 -140.33724 -147.35827)
(1307.868 -143.90219 -139.87899)
(1427.9561 -104.25911 -170.03005)
(1433.0574 -106.02572 -165.13512)
(1436.7972 -107.97814 -160.74769)
(1439.1205 -111.0162 -154.81797)
(1439.8245 -113.7948 -149.62082)
(1439.1441 -117.95423 -143.34466)
(1437.3715 -122.31175 -136.71045)
(1558.996 -74.385667 -162.1777)
(1563.8688 -76.982349 -157.83133)
(1567.7024 -80.369647 -153.86145)
(1570.0873 -83.769853 -147.95875)
(1570.7403 -87.727569 -143.62811)
(1570.3771 -92.533428 -137.69045)
(1568.6841 -97.934649 -131.66651)
(1692.4686 -42.717903 -153.55102)
(1697.4409 -46.240613 -149.75848)
(1701.1017 -50.393704 -145.10101)
(1703.3082 -54.693537 -140.61886)
(1704.3636 -59.196117 -135.61551)
(1704.0339 -65.433638 -130.11038)
(1702.5244 -71.721503 -124.41957)
(1828.725 -9.6471476 -143.92173)
(1833.1239 -14.154947 -140.11892)
(1836.9872 -18.958426 -135.44351)
(1838.7845 -23.837001 -131.45135)
(1839.6876 -29.307895 -126.31398)
(1839.2619 -35.743098 -121.75051)
(1838.1274 -43.199497 -116.15525)
(1966.9068 24.434854 -133.74948)
(1971.4354 19.439159 -129.64187)
(1974.7046 13.993241 -125.44115)
(1976.5616 8.5193056 -121.07639)
(1977.3226 2.4074506 -116.46614)
(1977.042 -4.7249169 -111.92855)
(1975.7171 -12.735542 -106.55704)
(2107.8289 59.337785 -122.90197)
(2111.864 53.795409 -118.90322)
(2115.1252 47.915976 -114.3238)
(2116.646 42.046966 -110.20101)
(2117.2938 35.52324 -105.50294)
(2116.6881 28.068279 -101.22272)
(2115.3576 19.514144 -96.027502)
(2251.0964 94.728296 -112.08831)
(2255.0224 88.928752 -107.6335)
(2257.8134 82.872622 -103.12673)
(2259.1056 76.718306 -98.787545)
(2259.4447 69.984849 -94.204298)
(2258.5878 62.216779 -89.950845)
(2257.0322 53.391574 -84.97665)
(2397.1081 130.60683 -101.08878)
(2400.5828 124.77366 -96.434699)
(2403.0577 118.6109 -91.673639)