/*--------------------------------*- C++ -*----------------------------------*\
  =========                 |
  \\      /  F ield         | OpenFOAM: The Open Source CFD Toolbox
   \\    /   O peration     | Website:  https://openfoam.org
    \\  /    A nd           | Version:  6
     \\/     M anipulation  |
\*---------------------------------------------------------------------------*/
FoamFile
{
    version     2.0;
    format      ascii;
    class       pointScalarField;
    location    "0.55";
    object      E;
}
// * * * * * * * * * * * * * * * * * * * * * * * * * * * * * * * * * * * * * //

dimensions      [1 -1 -2 0 0 0 0];

internalField   nonuniform List<scalar> 
3969
(
38207.735
39661.273
3611.2106
-4783.5293
39413.702
43103.236
-4311.3953
2477.081
17548.962
7176.4541
2470.4464
2799.5899
7289.5063
17461.225
35831.621
1939.8277
-535.09372
-510.7933
656.34002
1949.1009
2307.0992
1710.9974
37940.965
31283.008
31977.409
32226.146
32041.314
31471.404
30341.224
29414.157
27930.976
26743.793
25688.62
24496.473
23343.635
22274.555
21082.395
19876.386
18752.698
17468.025
16262.068
14858.1
13488.389
12042.007
10641.86
9248.8683
7876.2019
6497.253
4912.1404
3425.9785
1907.0403
376.581
-1100.8611
-2528.7577
-3849.142
-5029.6975
-5881.8423
-6719.0519
-7129.0895
-7512.6328
-7561.1959
-7666.26
-7194.2872
-7024.9743
-6041.6132
-5465.3436
-4124.5582
-3146.4093
649.93137
41435.252
29546.046
35193.048
33396.384
33204.79
31329.386
29637.163
27726.947
25424.46
23583.941
21193.603
19409.626
17460.824
15977.252
14343.908
13044.296
11855.407
10724.466
9933.6394
9151.2954
8722.2035
8551.4924
8225.5004
8347.1957
8442.7666
8787.314
8791.9946
8960.9337
9117.3365
9281.3371
9570.7138
9617.1982
9878.7482
9963.7125
10130.733
10293.375
10246.15
10172.743
9988.6718
9686.1525
9329.0246
8509.3863
7717.5253
6480.7758
5350.4843
3789.9056
1096.7252
19209.092
8256.8395
2903.6544
4549.4131
6803.5553
15830.197
30384.068
60526.24
43170.746
30562.575
41779.401
36857.063
36118.232
34666.083
30402.368
29827.804
25529.437
25360.917
23937.523
22360.206
20595.781
18698.659
17462.85
15714.3
14743.351
13559.042
12727.523
12023.455
11511.024
11124.436
10813.773
10605.741
10001.073
9339.9409
8911.439
8712.0073
8397.6161
8229.9615
8224.703
8085.1691
8005.9472
7691.0028
7017.3677
8918.6907
6835.6796
6668.4922
6197.9013
5568.4115
5078.758
4283.178
3387.4032
2372.2317
844.04216
1307.9335
2125.2281
2181.1249
2672.867
1731.04
35.775707
-1042.2449
1667.5356
670.72373
-186.01262
-488.85344
-1420.7221
-2169.8858
-2781.3232
-3195.3824
-3492.062
-3582.8588
-3338.5512
-2737.4862
-4890.8313
-2607.6967
-2472.0268
-1678.4175
-839.83935
101.41286
1261.3841
2429.2587
3733.3983
4967.1559
6297.0516
7500.992
8653.4339
9777.6489
10842.497
11981.143
13118.057
14380.709
15584.044
17000.76
18396.522
20091.738
20874.513
22457.816
24154.014
25666.442
27045.528
28091.651
29233.835
31967.873
31178.449
34349.614
32739.656
32447.855
32538.25
44087.668
25008.778
26106.388
25576.645
25789.226
25668.322
25376.3
27027.914
24884.125
26739.625
28841.144
29767.797
29732.37
31162.601
25601.509
-4652.1239
-4431.1685
-4505.8242
-4429.2311
-4472.2414
-4429.4347
-4349.4666
3604.8314
3546.6202
3521.192
3549.7704
3513.1756
3509.4561
3345.2874
22649.663
19008.856
19954.659
19815.77
20261.846
20167.269
19731.406
19397.147
18652.46
18161.397
17525.686
16578.259
15903.886
14996.99
14115.892
13361.464
12696.795
11889.067
11195.87
10394.267
9658.994
8875.2746
8133.1027
7311.3612
6419.1181
5585.5219
4782.4003
4174.7358
3731.7616
3357.8609
3035.461
2702.0319
2313.3462
2000.7972
1644.1466
1368.4188
1153.3973
866.14907
873.34077
929.22535
1105.5097
1453.9295
1807.7645
2046.5843
2641.8916
2657.488
3851.2101
9698.8023
8633.1817
9608.345
9779.5198
9887.3188
10169.631
9727.5738
9864.2315
9384.0111
9226.4426
8783.4708
8409.7197
8086.8334
7678.3023
7326.2026
6861.2855
6454.0063
6030.4852
5633.6444
5249.6287
4886.6088
4552.8525
4234.4747
3980.2708
3723.6137
3493.5039
3284.9691
3108.5686
2971.4356
2893.7306
2832.333
2722.8399
2676.7188
2611.1851
2631.7376
2652.2603
2803.9791
2827.5386
3147.8431
3127.1028
3536.7625
3461.7753
3854.1413
3661.5844
4040.2941
3226.494
3205.5576
3954.9315
1901.9178
3352.5098
2686.9332
3244.0585
3080.0331
3167.5569
3089.9338
2846.9182
2834.3755
2635.9772
2408.7477
2182.7701
1822.9661
1669.0561
1515.0217
1487.3758
1388.0818
1403.5156
1315.0099
1263.5058
1273.4173
1378.1139
1577.3647
1776.2942
1968.8904
2329.6684
2583.8209
2997.9729
3359.9036
3667.3822
3968.4437
4191.3486
4422.8737
4648.0936
4861.0823
5119.2224
5336.2773
5609.0602
5638.9827
5741.758
5566.5324
5486.3588
4870.8344
4628.7545
3174.8852
2270.1513
2603.9478
666.21157
904.24642
1044.1619
847.08353
1050.761
714.55259
921.33151
639.68848
590.55221
515.20134
468.18039
433.74955
343.28767
292.41751
338.46464
418.40398
606.19967
729.65397
930.40382
1245.4646
1590.2814
2022.3121
2315.8995
2559.9436
2877.8536
3060.1595
3310.3808
3584.3325
3822.605
4073.8571
4332.0961
4479.3186
4706.504
4780.7177
4878.4824
4969.9643
4953.0759
5049.2861
4902.1231
4859.1687
4336.125
4114.5325
3348.6335
3131.7779
1737.8276
1390.9165
7257.2456
4018.2152
4427.6346
3779.928
3774.9036
3722.2733
3376.7003
3256.7735
3042.8497
2885.7875
2902.3565
2625.1965
2415.236
2260.1158
2142.2584
2004.3022
1979.8407
1907.2465
1910.117
1884.4842
2195.2999
2226.795
2187.7365
2086.8144
2007.6371
1781.9727
1640.5887
1505.075
1386.4131
1266.7309
1157.2503
1081.3129
885.64958
814.55342
580.99904
480.61313
288.93447
146.95766
1045.7779
2704.9925
2488.5563
2156.0774
1770.5908
1383.4414
849.52723
-29.448036
923.6119
17313.056
13990.645
14107.6
14023.972
14078.006
13884.563
13394.261
12842.25
12204.497
11553.248
10884.677
10193.564
9456.6936
8887.4552
8272.8538
7806.6518
7295.3428
6906.5851
6496.4534
6094.6086
5771.6876
5525.2793
4822.8181
4322.4059
3994.3843
3730.4861
3350.8227
3102.2151
2730.8457
2418.6433
2073.4022
1714.2736
1337.8255
1030.7205
600.35229
366.85382
80.846537
-342.98378
-563.42951
-453.76778
-986.25851
-1495.4187
-1777.7835
-2089.1263
-2282.896
-2094.5433
250.10002
26481.421
23044.335
23019.501
23673.982
23563.333
22907.505
22110.568
20731.769
20029.466
18385.938
17561.339
16149.967
14974.253
13808.338
12898.972
12037.129
11350.52
10687.852
10090.426
9533.8417
9053.6847
8275.0084
7806.6649
6853.4806
6447.5578
5905.1253
5343.4397
4969.5016
4692.4281
4457.8008
4110.1149
3853.8173
3380.8367
2946.3183
2335.5916
1800.807
1126.8745
763.20293
261.62899
-1118.2343
-1670.9144
-1546.2903
-1225.5115
-790.03771
-303.31802
662.79451
2031.1096
10038.737
10414.539
8783.0627
8681.6533
8951.4321
9297.1433
12141.745
4139.2232
4047.4135
3328.225
3383.3352
3561.7696
3981.188
5328.6108
1241.3139
536.8429
-43.113192
190.50453
73.919172
417.85587
1356.7775
1207.6992
442.20193
177.87861
115.5375
331.6676
1045.935
2295.2071
2898.7458
1755.2597
1237.7544
1144.9557
1362.1652
2198.8523
3590.4582
9367.8588
6287.0934
5478.4485
4969.9455
5275.8382
6480.3342
9941.5054
16758.893
16467.333
13438.106
13874.296
13610.843
15009.424
19973.385
46682.226
41260.367
44238.484
47436.614
47107.445
50177.541
49053.114
42242.037
42920.939
39688.118
38543.488
42526.944
43105.962
44615.644
37099.659
38681.299
39887.038
39408.515
39351.987
39501.719
41371.335
38460.281
41882.718
41118.835
41996.928
42171.913
42353.036
39770.883
36173.015
37447.694
39669.937
39717.596
39356.5
38256.104
38311.813
35101.362
35809.989
36575.18
37181.163
36938.563
36500.026
35365.797
32674.677
33086.886
34866.494
34668.607
34881.785
34414.905
34414.511
30541
30800.129
31297.596
31481.197
31440.381
31061.321
30578.365
28349.073
28085.313
28962.825
29110.294
29116.027
28941.963
29427.322
25848.95
25893.386
26238.711
26702.947
26183.897
25954.193
26301.188
24053.126
23831.735
24391.516
23951.836
24186.001
23917.913
24300.848
21916.174
21755.935
21768.538
22183.715
21973.216
21107.517
23005.008
20103.668
19612.47
20310.956
19733.537
19948.129
19772.748
20953.083
18008.887
17835.363
18369.931
17942.098
18557.792
17494.324
19348.858
16615.538
16224.768
16695.195
16308.528
16438.417
15981.064
17443.296
15011.98
14466.234
15351.225
14588.574
15271.004
14480.27
15991.298
13564.323
13370.504
13944.502
13315.199
13826.762
13027.089
14346.901
12497.865
12112.955
12965.266
12218.04
12830.156
12080.95
13230.743
11490.547
11289.604
12168.427
11254.903
11920.283
11087.045
12193.051
10796.706
10589.19
11459.989
10593.043
11234.852
10471.58
11477.387
10264.816
10046.441
10964.952
9987.8999
10622.038
9850.8564
10873.32
9885.2964
9717.3342
10546.678
9638.9994
10207.294
9510.26
10532.839
9689.6218
9531.7815
10267.274
9440.1809
9923.1523
9385.0341
10446.866
9673.3446
9604.3315
10231.186
9472.9012
9808.7264
9302.0151
10331.961
9822.4618
9779.8788
10023.175
9623.8492
9785.577
9422.3304
10517.539
10120.189
9965.0032
10043.143
9919.9329
9929.8714
9449.3721
10292.336
10612.47
10127.524
10210.007
9616.7131
10285.233
9304.3988
10218.55
10779.182
10070.781
10262.102
9656.3846
9904.3239
9001.7928
9863.3776
10469.729
10058.196
10066.164
9628.1086
9832.8421
9333.8978
9637.6907
10545.068
9805.6165
10242.5
9484.5686
9897.445
9086.8989
9396.958
10234.297
9975.693
10154.311
9560.9272
9778.4361
9186.1542
9316.9992
10325.63
9927.467
10243.133
9564.7143
9866.4679
9284.8762
9361.1342
10200.492
10045.953
10282.283
9687.6122
9875.242
9345.6289
9417.5326
10274.617
10129.036
10334.302
9683.1892
9837.8724
9393.5271
9524.8492
10220.6
10144.105
10246.441
9690.2593
9781.8947
9391.6397
9546.481
10285.425
10085.828
10258.84
9577.1239
9770.7914
9811.9187
9610.984
10216.018
9879.7282
9932.1664
9491.0396
9718.4169
8088.2894
9172.1492
9117.1678
9173.818
9102.6365
8791.951
8683.3877
9551.3331
9467.6684
9660.9018
9351.8307
9448.9411
8912.5678
9031.4761
8586.2143
9178.3803
9252.5154
8817.6023
8857.9639
8511.1525
8549.0149
8174.5873
8851.3311
8555.2995
8116.5771
8262.4213
7885.1147
7971.7808
7640.3158
8158.1338
7677.9426
7273.2752
7355.0435
7157.3013
7198.2174
6947.7462
7399.6145
6630.6128
6358.6204
6559.9996
6374.2317
6409.0948
6216.8084
6573.5839
5401.3645
5279.3757
5339.6604
5262.2869
5249.6528
5194.8125
5428.7389
4168.816
4098.403
4186.1745
4152.1953
4167.6517
4156.4322
4267.297
2648.2217
2643.0988
2625.9479
2648.7
2611.3933
2643.1959
2649.0317
1096.0852
1139.8044
1106.7623
1091.2023
1107.1513
1104.8224
1208.7237
1228.6666
1690.8532
1684.7726
1726.109
1677.6526
1624.9178
1590.9949
-2026.9321
-1168.6498
-1276.3791
-1274.6043
-1338.0638
-1067.7748
-1613.4128
-378.70405
-207.15337
-152.33409
-129.16557
-140.51258
-194.47064
-585.3403
667.18225
871.98173
834.86474
913.60901
798.58743
988.71219
418.96665
2372.6941
3431.5914
2905.9887
2818.0755
2951.9565
2835.5964
2423.9252
2841.5131
2823.5127
2545.3187
2627.8577
2228.6713
2681.4278
2102.6208
1560.7819
1954.3866
1952.9401
1940.075
2208.1019
2012.551
1982.3627
35944.985
32387.149
30747.279
29872.876
30366.465
31428.522
32355.946
34655.192
31935.949
32133.448
31858.146
32062.925
32610.385
33781.638
35262.409
35682.411
34798.815
34401.444
35128.66
34608.844
34804.971
33900.931
34229.045
34266.512
34429.497
33963.437
33331.659
33727.397
34288.116
34066.26
34346.359
34099.696
34060.011
33425.268
32971.23
31896.407
32040.709
31977.147
31792.283
31765.749
31012.956
31411.65
31958.069
31366.88
31321.358
30795.941
31126.334
30981.943
31099.514
29603.92
29247.29
29226.331
28985.645
28735.589
28446.905
28886.879
28963.052
28294.594
28314.862
27835.034
28177.537
27432
28453.285
27217.738
26680.966
26527.764
26165.654
26179.778
25876.097
26552.002
25947.319
25524.505
25590.704
24987.849
25325.504
24703.599
25473.686
24887.475
24248.877
23957.514
23936.103
23738.576
23738.388
24092.147
23592.991
22918.833
22918.39
22392.772
22525.087
22103.309
23097.479
22484.964
21888.843
21622.425
21407.465
21532.893
21509.291
22020.222
21213.121
20354.558
20569.83
20251.124
20406.11
19486.527
20602.474
19812.664
19299.343
19275.729
18743.698
18925.832
18848.923
19286.562
18644.288
18185.34
17990.59
17874.747
17751.634
17487.658
18024.76
17444.181
16861.902
16911.087
16534.225
16500.225
16284.936
16669.223
16025.522
15706.294
15628.1
15380.732
15335.655
15093.585
15422.836
14757.581
14446.801
14385.861
14186.28
14063.588
13871.116
14157.388
13337.965
13133.41
13095.069
12879.415
12759.492
12621.271
12868.466
11912.084
11770.684
11694.823
11561.079
11450.361
11330.882
11597.478
10529.636
10363.221
10316.476
10236.047
10071.342
10035.019
10423.699
9221.1584
9082.8322
9027.0834
8953.401
8836.9159
8826.5655
9317.1942
8009.9283
7855.578
7726.0465
7751.9189
7544.0559
7592.2172
8217.4809
6840.4453
6552.6147
6520.5195
6498.9145
6364.3613
6422.499
7202.7589
5467.9065
5267.1375
5183.4395
5205.6943
5075.4148
5094.7071
5857.4015
4106.0111
3812.9381
3785.859
3843.288
3767.8511
3770.8967
4531.7624
2485.2108
2316.0599
2374.479
2374.2184
2309.9757
2306.8583
2976.2471
919.72433
940.36073
857.3662
900.37406
896.86444
917.38832
1481.5143
-558.02865
-586.77113
-586.60617
-491.47316
-502.67261
-507.1808
14.149465
-1980.9718
-1872.997
-1869.7092
-1817.0959
-1860.0364
-1785.7474
-1279.1327
-3185.7114
-3058.0826
-3081.6819
-3039.8351
-3034.8736
-2940.0081
-2385.897
-4210.3255
-4101.3052
-4141.4691
-4063.1772
-4078.3582
-3928.2251
-3450.6758
-4985.9941
-4982.9402
-4969.9263
-4950.885
-5022.6005
-5072.1172
-4079.9125
-5788.7812
-5626.8673
-5632.1743
-5654.8664
-5693.4729
-5260.1925
-5004.1471
-5849.3401
-6530.97
-6575.4311
-6701.9096
-6424.248
-6690.1997
-4382.6997
-6146.9656
-6216.1932
-6242.4699
-6254.9839
-6485.4563
-6075.3119
-5107.0832
-6107.9311
-6116.1219
-6253.5998
-6209.7394
-6375.5983
-6194.663
-4971.2113
-5917.6086
-6142.8669
-6261.8612
-6119.1867
-6364.2651
-6149.3273
-4937.1454
-5602.5781
-5734.4675
-5787.6544
-5721.8863
-5935.3802
-5858.1613
-4772.3566
-5372.8021
-5486.1732
-5589.2028
-5547.4134
-5713.9238
-5601.8841
-4492.2888
-4562.8967
-4621.5576
-4757.3196
-4641.514
-4813.0866
-4759.3345
-3985.4845
-4089.0966
-4238.7476
-4269.6403
-4243.5715
-4379.7858
-4323.3138
-3442.0017
-2801.7174
-2805.5715
-2888.9079
-2859.8021
-2981.5877
-2821.1308
-2321.8524
-2091.1467
-2235.6953
-2255.1499
-2282.3524
-2296.2397
-2299.3272
-2017.3424
814.42545
750.35274
646.30518
646.48978
594.33149
646.52555
617.16956
37696.338
27096.368
24896.964
24469.827
25521.574
24344.983
24113.391
22963.412
22109.049
21120.016
20052.093
18612.39
17386.663
16338.744
14872.627
14445.525
13428.652
12720.938
12254.591
11788.205
11434.249
11073.98
10638.647
10073.098
9462.1917
8820.4502
8543.6126
8112.8375
8034.2169
8004.5226
8013.8074
7981.5579
7855.2167
7642.1164
7227.8709
6801.2765
6686.1839
5742.2476
5252.699
4896.6687
4728.1623
4598.8189
4517.6349
4394.521
4226.8946
3759.6395
4979.0958
16120.571
15949.449
12743.587
13334.837
13991.21
12825.833
13560.04
13036.134
13181.982
12483.122
12411.47
11748.746
11468.51
10909.971
10448.682
10220.168
9720.8362
9269.2418
9035.7514
8604.2676
8272.6371
7909.457
7456.4787
7076.0257
6622.1392
6068.719
5790.9652
5840.7545
5395.8618
4973.2144
4531.824
4105.4285
3659.7761
3293.7446
2920.3757
2661.3475
2457.5782
2229.7805
2302.6944
2189.683
2252.8938
2077.2945
2035.3548
1640.2941
1610.7813
570.80449
2969.2878
5570.781
5125.555
4874.3273
4908.6628
5210.381
3543.2066
5159.3397
3737.9861
4558.156
3980.181
4045.0522
4058.907
4159.0839
4738.391
4787.0947
4588.2933
4555.0646
4259.1354
4191.2794
3850.4211
3672.4117
3356.7184
3046.4813
2610.4842
2293.3523
1852.5033
1595.3546
1051.6441
662.84667
259.69195
-111.52889
-497.22273
-755.80641
-1042.2525
-1263.2359
-1387.3808
-1544.2713
-1490.0003
-1461.2873
-1321.2214
-1202.0722
-1009.4653
-898.9275
-621.7872
-371.31115
-256.55542
1477.9518
2279.7346
2151.974
152.51585
2813.0561
374.86205
2165.5435
215.33101
1062.5519
1408.1897
644.7481
1896.3601
890.88378
1958.919
2889.129
2929.8419
3202.4121
3061.633
3103.2484
3044.1916
2927.1183
2756.6152
2605.3482
2272.3567
2170.2914
1836.7982
1735.8574
1379.9734
1149.2665
865.31542
602.5251
293.52417
17.970295
-211.15168
-541.00714
-685.69053
-889.40777
-1035.1439
-1144.7756
-1136.9917
-1234.4863
-1106.3672
-1180.3446
-890.23274
-932.73241
-302.43669
-632.61476
973.72081
6411.6688
1945.7146
3041.0757
2247.2781
2812.8474
2752.7357
3182.1601
3190.4175
2755.1593
3422.4669
2678.0317
3151.4425
2996.7784
2866.8256
3204.9248
2897.9338
2950.5791
2736.8876
2672.4194
2462.2433
2378.2241
2141.501
2031.5382
1678.2254
1339.8256
995.72125
598.78062
375.58158
66.091222
-257.10176
-565.3913
-823.55101
-1108.2843
-1304.6973
-1423.3533
-1650.9812
-1691.3925
-1704.3503
-1819.0617
-1626.7736
-1604.0534
-1315.1999
-1135.7946
-693.09569
-276.7917
272.78541
748.61587
13855.792
12510.037
9114.846
12696.589
9548.9576
12083.564
10685.433
10158.582
10698.345
9586.5374
10744.42
9552.5265
9116.843
8613.0501
7886.034
7422.4622
6772.7109
6320.0077
5790.9261
5377.475
4929.1167
4607.8329
4321.3989
3953.9733
3641.2185
3408.1277
3463.9218
3350.3872
3284.9769
3165.5189
3105.1017
2908.2337
2763.8395
2647.6835
2511.5493
2416.9346
2490.0571
2250.9664
2453.2912
2302.5855
2337.9414
2171.9708
2126.7617
1796.7331
1935.074
1372.6116
1586.3971
36547.069
22822.094
26293.817
23156.497
25513.38
24468.644
23156.969
23251.297
20683.489
19856.619
18377.689
18126.716
16084.173
15057.261
14103.521
13118.544
12532.786
11679.227
11024.949
10225.582
9455.1592
8526.7905
7674.2726
6562.2786
6039.0262
4842.2864
4669.9927
4583.3262
4440.7866
4439.7179
4214.0454
3914.6603
3539.7268
3091.3899
2525.1006
2127.2548
1572.1333
1271.1656
840.62129
838.59173
934.22813
1075.7773
1283.3394
1589.112
1863.5222
2267.2387
2645.0871
27874.024
23338.24
22799.526
22219.786
22532.684
22444.674
23498.62
25238.202
25809.702
24033.586
23975.565
23606.107
24207.595
24733.213
23965.533
25267.154
25190.767
24762.657
24814.72
24858.44
24727.505
23839.926
24334.612
24317.967
24459.617
24133.376
23913.53
23261.99
23294.221
24174.971
24688.255
24502.454
24439.761
24303.492
23691.251
22654.043
22885.164
22881.82
23066.151
22809.371
22565.893
22466.267
22243.602
22426.438
22592.638
22403.653
22267.416
22421.118
22134.262
21092.259
21072.755
21091.395
21155.858
21112.635
20851.496
20943.904
20577.411
20710.209
20398.494
20560.881
20197.894
20544.08
20465.663
19458.897
19241.167
19300.688
19118.41
19104.054
19178.007
19187.987
18554.531
18670.729
18417.173
18414.894
18436.176
18450.205
18621.188
17654.945
17354.053
17407.559
17338.232
17194.852
17356.035
17458.067
16760.202
16568.331
16438.691
16381.869
16367.849
16431.503
16361.158
15696.452
15428.123
15527.514
15377.644
15462.267
15355.453
15583.985
14793.9
14726.722
14351.752
14483
14306.238
14668.688
14385.261
13905.57
13699.126
13685.411
13709.267
13622.827
13622.963
13459.505
12976.982
12851.275
12771.24
12738.223
12768.861
12884.377
12860.279
12164.127
12082.156
12040.708
12001.091
12049.51
12177.43
11926.68
11418.46
11335.805
11296.382
11283.042
11393.843
11462.904
11307.759
10709.861
10698.921
10669.023
10668.963
10702.81
10833.763
10678.222
10132.675
10105.132
10125.023
10071.156
10175.149
10321.435
10144.819
9592.5898
9617.5719
9650.6158
9598.3086
9696.2356
9822.5203
9662.0264
9138.8734
9138.4904
9253.9961
9169.6526
9237.8641
9328.8102
9259.8399
8662.833
8613.5583
8855.6781
8689.653
8767.7373
8877.4705
8806.0688
8159.3411
8026.9446
8253.1729
8176.2272
8197.7789
8252.813
8286.0201
7571.7478
7453.0245
7792.7234
7592.1475
7651.338
7704.0081
7659.2511
7138.4657
6904.6782
7160.7624
7117.448
7086.8555
7190.9716
7264.8681
6729.6941
6549.2504
6783.5835
6664.2929
6687.2739
6621.1013
6769.5204
6356.584
6091.6193
6575.3636
6295.4006
6315.3388
6282.1245
6433.0394
6062.0372
6024.7757
6242.3177
6020.5702
6101.5877
5990.9193
6145.5062
5834.8831
5765.7699
6066.4203
5899.3051
5884.8259
5735.1795
5921.2982
5550.6874
5703.5031
5929.9405
5707.5239
5647.81
5577.8406
5735.8393
5349.8241
5601.3641
5736.6719
5585.4811
5582.27
5460.6837
5588.4344
5161.9758
5476.0271
5587.6665
5494.7576
5386.2864
5288.6932
5412.3812
4902.8234
5322.308
5397.2901
5324.2171
5264.9166
5153.6508
5294.0319
4799.0508
5122.3966
5152.2275
5115.917
5019.6439
4949.1274
5013.1725
4356.2916
4821.1734
4802.7664
4921.6052
4874.3385
4696.7809
5396.2477
4319.8262
4756.9946
4884.9784
4996.0794
4754.6849
4887.6114
4619.202
4048.3385
4269.579
4237.034
4336.9553
4307.7624
4121.2619
4524.6167
4021.5158
4078.2143
4032.8409
4206.5999
4044.1317
4102.5008
4264.966
3908.6991
3902.2231
3925.0253
4022.1099
3955.7802
3931.783
4177.3696
4015.2815
3970.6999
3944.6862
4056.7044
3954.2638
3986.1544
4165.4467
4032.4913
3986.3224
3953.8338
4094.945
3996.5435
4037.185
4138.8038
4049.6215
3933.1623
3985.5
4048.9188
3948.6635
4010.594
4178.1306
4283.851
4277.9876
4257.3116
4331.7274
4234.5983
4391.9846
4280.0754
4082.8413
3986.9614
4022.1207
4067.0579
4047.7088
4029.287
3945.4749
4729.0103
4673.8129
4654.7173
4652.5603
4589.6226
4596.9679
4623.9697
11630.366
8666.5689
7851.8205
7604.2329
7478.459
7773.5764
8666.6442
12798.004
13556.13
12724.647
12871.44
12855.587
13104.776
13435.764
12237.602
12504.375
12581.272
12275.049
12411.883
11966.663
12234.495
12432.176
13147.398
13428.792
13467.302
13174.361
13012.211
12205.204
12116.772
12403.685
12906.005
12624.045
12829.462
12317.054
12205.968
12181.343
12458.187
12100.772
12093.12
11929.939
11713.171
11653.818
11687.037
11860.435
12095.189
12016.067
11994.196
11861.372
11591.945
11654.709
11811.084
11417.65
11317.974
11256.286
11034
11142.025
11262.311
11364.36
11207.615
11133.813
10972.099
10999.741
11047.525
10998.39
10953.499
10739.223
10518.09
10644.492
10490.34
10500.31
10523.172
10694.306
10370.834
10316.333
10172.007
10167.993
10266.948
10207.363
10242.653
9882.8167
9782.235
9676.5832
9678.6091
9693.2749
9711.8281
9793.7971
9590.3921
9543.6024
9304.5442
9463.719
9316.975
9327.0614
9248.7573
9155.9815
8873.2329
8868.9229
8801.2739
8973.3707
8969.3116
8819.3493
8734.2105
8503.0909
8553.3852
8367.5788
8451.8189
8508.2318
8268.1084
8262.4131
8078.926
8042.289
7928.5146
8029.6554
8015.2525
7947.2038
7804.9508
7660.2173
7591.2302
7583.6409
7724.7666
7606.4512
7494.8557
7395.6409
7332.2648
7229.3413
7218.6964
7220.7902
7152.64
7118.0177
7012.1302
6928.9401
6847.2455
6818.9582
6929.908
6764.8858
6766.796
6661.1206
6637.9178
6502.6302
6536.8865
6632.6
6357.3409
6430.1032
6336.5798
6271.9446
6172.2837
6271.0834
6281.0041
6021.5625
6168.487
6047.0328
6005.8371
5947.9543
5984.2139
6064.9013
5739.2179
5828.6336
5731.9635
5708.8667
5571.1799
5784.6741
5807.4121
5497.0571
5545.6504
5513.5583
5376.2829
5396.8396
5653.7232
5645.1307
5305.7336
5300.9521
5273.783
5114.5011
5181.1907
5313.5247
5300.6784
5226.2729
5118.3972
5180.8352
5009.676
4911.6899
5151.317
5255.807
5080.4506
4960.9457
4885.4485
4727.2086
4891.9822
5145.2597
5119.1626
5083.4954
4473.7328
4471.1428
4571.6415
4591.4979
4895.0694
4800.5351
4651.2401
4480.4098
4592.7865
4357.2494
4391.4506
4761.2001
4544.3823
4544.5114
4279.0846
4235.7063
4149.4925
4227.8069
4534.2942
4347.3929
4341.5707
4022.8556
4083.5707
4017.3001
4002.6261
4360.2766
4190.4005
4145.8643
3926.4044
3953.6336
3853.2491
3879.0319
4267.6386
4081.2482
4073.4246
3793.4336
3791.0199
3726.7688
3769.2064
4127.3508
3925.6126
3966.202
3682.3384
3705.8823
3655.7005
3668.6143
3988.8018
3896.0877
3986.1077
3650.9377
3646.8954
3589.5102
3565.9069
3985.4803
3870.7474
3947.6248
3541.6731
3586.8015
3556.0085
3569.7845
3930.8937
3837.1259
4118.6589
3690.6568
3636.9396
3633.1367
3480.2704
3912.782
3713.0872
4131.8334
3487.7305
3623.3489
3589.8576
3580.1205
3960.6539
3909.7349
4301.183
3703.9896
3767.4445
3711.5849
3627.1766
3903.3055
3874.3513
4292.2199
3547.5129
3708.0622
3629.0018
3580.2718
3919.9917
3906.4506
4392.7545
3757.5285
3893.4508
3828.5313
3752.4973
3960.972
3894.3735
4188.4836
3525.0608
3689.8891
3577.0758
3520.3111
3735.011
3786.5136
4195.4135
3666.1974
3773.489
3741.3399
3682.444
3843.3337
3757.0995
3766.5016
3247.4747
3371.0245
3293.7742
3194.1516
3281.0738
3329.4323
3769.0756
3422.7802
3448.5017
3419.5144
3376.3942
3538.4124
3386.5809
2764.544
2300.4197
2349.5986
2278.3979
2259.5175
2147.8825
2033.1195
3027.7384
2963.4313
2750.2573
2737.9702
2688.4227
2734.0253
2840.6427
4592.3458
3542.9153
2959.735
2829.0805
2616.1526
2884.4966
2957.7751
3788.2942
4107.6059
3699.2828
3796.706
3708.9026
3570.9371
3808.4531
4858.4931
4827.508
4740.7188
4786.8366
4600.7973
4562.3144
4540.0953
4053.5945
4465.467
4995.303
5150.3486
4864.4835
4892.4217
4174.3368
4931.0123
5127.1196
5159.252
4896.9641
4859.7192
4450.9565
4786.326
4213.741
3666.7737
3716.6707
4138.8177
3838.4121
3728.713
3654.7955
4896.3886
4294.5616
4757.5177
4779.8084
4700.6856
4890.4466
4677.0786
4626.283
3742.5833
3597.1068
3395.642
3404.5563
3441.5111
3362.3875
4460.7178
3657.6582
3946.8753
4057.3427
4079.1328
4249.5031
4115.8416
4400.286
3460.6285
3486.9894
3315.0769
3270.3313
3468.2276
3509.7374
4193.3887
3242.2064
3398.477
3244.1817
3345.0974
3422.5551
3423.4387
4119.4571
2975.7092
3087.2611
3014.4149
3222.2697
3282.1985
3539.6536
3845.1088
2698.8399
2932.9075
2947.5247
2996.806
3111.0539
3312.9202
3462.8798
2849.1995
2863.6811
2708.5725
2896.4295
3036.1884
2978.5239
3024.428
2848.8485
2892.6971
2730.1693
2633.9599
2886.0257
3007.636
2875.9348
2734.1558
2757.9094
2577.9636
2606.0739
2736.4976
2878.7804
2842.7211
2646.0547
2753.747
2561.9105
2497.2144
2731.2316
2858.8073
2718.0547
2534.4851
2645.4708
2419.9223
2437.2193
2620.7609
2695.1128
2680.7191
2489.1998
2583.7844
2403.5425
2388.2848
2552.9073
2738.4218
2597.9226
2373.7546
2507.9906
2321.8789
2319.0556
2503.0511
2630.7077
2595.2006
2395.4471
2490.6222
2308.2821
2368.6753
2456.6968
2630.0701
2588.8223
2355.2207
2450.7712
2309.9968
2314.7581
2412.1925
2602.5392
2586.5404
2382.6006
2508.0843
2259.0555
2404.3043
2400.0636
2635.2933
2658.0851
2395.9568
2482.2576
2322.4999
2441.6458
2285.0185
2460.4822
2699.7925
2331.5588
2502.6538
2347.9458
2426.38
2239.6022
2583.6338
2700.8368
2297.0779
2541.7583
2238.9837
2405.2038
2259.4871
2324.2125
2883.9317
2322.727
2515.6251
2226.4126
2516.0009
2108.0776
2427.9973
2845.826
2316.6037
2462.2782
2318.3612
2454.531
2098.6273
2381.0989
2952.5308
2389.8939
2647.3998
2247.8364
2579.4
2072.4283
2388.1032
3036.5798
2365.5109
2476.4035
2289.8388
2580.8284
2029.8251
2386.2305
3049.7394
2364.4589
2596.41
2360.4721
2637.2657
2095.4906
2439.4047
3119.0951
2424.3666
2611.2352
2322.777
2646.9793
2090.0533
2393.286
3160.8958
2437.3745
2596.1025
2381.2436
2690.0028
2082.3786
2450.786
3233.7131
2483.2959
2675.1441
2420.0617
2704.24
2188.8025
2488.2722
3304.7755
2542.6104
2688.8322
2430.4469
2760.6677
2172.8703
2434.5037
3408.7804
2604.9732
2778.9152
2483.7409
2798.5222
2242.1653
2516.9085
3460.2987
2658.722
2783.952
2527.3216
2869.9092
2265.7125
2550.6339
3515.8562
2652.281
2871.3988
2589.9829
2889.6342
2367.7802
2501.7155
3490.061
2819.6648
2869.9256
2687.836
2864.6059
2402.4477
2525.5438
3497.6152
2789.6324
2817.3891
2733.7708
2856.0521
2574.9263
2505.7902
3369.533
2872.1775
2796.6757
2783.6093
2830.7236
2512.4157
2418.7476
3259.4112
2729.9014
2660.2075
2700.9168
2657.742
2610.7509
2400.0806
3029.699
2708.7532
2571.2886
2645.5248
2613.7944
2555.9988
2165.8767
2688.8406
2352.8533
2213.0793
2341.9444
2177.1195
2253.8174
1975.6923
2509.2809
2278.4753
2132.231
2240.2733
2071.0739
2390.4046
1842.31
1654.1382
1438.7616
1366.6489
1443.5641
1337.6321
1439.978
969.51897
1432.7441
1418.8287
1249.5802
1274.0145
1207.8559
1315.5378
1310.5197
2064.6056
1706.2425
1282.7066
1261.989
1129.3252
1184.8204
735.29176
1365.1617
2065.5791
2134.1989
2451.095
2344.5043
2254.8123
2039.4699
1047.8705
905.83891
703.1182
776.93194
735.17404
697.58183
261.61861
1532.1043
2566.7399
3187.8888
3480.1852
3494.3709
3239.8886
2595.6206
1059.4687
938.4692
376.65803
183.38076
74.614876
-16.889595
223.04189
1555.0119
1952.8411
2110.0369
2382.9335
2427.4867
2587.4714
2051.5563
1252.785
968.67337
743.09641
910.39467
773.3892
498.46277
931.40881
1848.0338
1540.0992
1323.9007
1444.2446
1193.6064
1445.1093
1309.7707
1687.1709
1425.4651
1329.5576
1298.8116
1576.9718
1302.3925
1696.8967
1972.3383
1678.9586
1099.4262
1210.6904
944.33228
982.77526
975.32914
1953.1821
1502.7611
1656.3994
1519.9885
1875.306
1701.2084
1935.8194
2100.2077
1907.3077
1490.4369
1296.4449
1399.5152
1267.5329
1416.9022
2239.9133
1734.3713
1371.0587
1754.3031
1893.2766
1662.4864
1830.183
2221.9151
2076.2679
1242.8757
1469.3271
1761.3529
1671.7301
1595.9072
1778.0197
1928.8789
1951.3092
1519.6819
1947.8155
1591.3484
1669.418
1857.8677
1930.0209
2003.5585
1675.6652
1960.5885
1833.4411
1848.1154
1902.2608
1986.013
2107.9615
1762.3117
2105.3752
1848.2176
1928.6195
2014.6237
2061.7155
2182.27
1870.09
2150.2688
1991.0874
2051.9116
2047.6313
2065.7607
2276.9295
1923.9155
2250.457
2043.5882
2116.317
2176.5051
2168.5639
2317.1714
2014.5405
2298.2418
2107.609
2188.5824
2269.9107
2115.6161
2374.278
2072.8942
2286.2203
2150.7942
2180.9633
2332.7317
2180.9234
2410.9712
2072.7039
2326.8707
2206.941
2231.9899
2459.6977
2175.9107
2318.8687
2153.0993
2278.0332
2195.6959
2108.2026
2525.3001
2081.7979
2358.3928
2136.0127
2215.9825
2243.6162
2271.6245
2565.8792
2074.9263
2404.0699
2015.4976
2141.2578
2268.7075
2119.7948
2624.2672
2128.0445
2306.7252
2067.1692
2174.7324
2252.4202
2203.9971
2540.2798
2047.7327
2280.4191
2099.3087
2121.8248
2276.6171
2120.9527
2599.0165
1982.649
2331.991
2024.6559
2139.8129
2288.9327
2095.3737
2608.6012
1977.9854
2191.2765
2083.5867
1964.0746
2267.8054
1987.9876
2528.2089
1907.9264
2136.2429
2011.4264
1997.9119
2312.7107
1943.4885
2520.3614
1918.3715
2126.8466
2035.0945
1915.6513
2259.1006
1852.9675
2491.3542
1879.5304
2042.2662
1952.9007
1813.9445
2223.5377
1759.7572
2448.105
1806.3677
1987.4464
1927.7464
1803.6078
2255.0832
1729.9377
2423.2665
1782.0261
1930.6172
1867.7405
1716.4406
2119.4198
1583.721
2353.9105
1713.8305
1812.8783
1801.973
1601.7787
2083.8964
1528.9723
2276.6656
1630.1428
1706.7767
1707.5409
1576.0449
1955.7618
1465.2026
2240.9893
1599.8278
1599.9044
1699.396
1392.1132
1906.9368
1320.1357
2080.5351
1461.979
1525.0469
1504.1453
1356.3512
1740.4833
1296.2412
1920.5199
1485.374
1423.4125
1487.156
1293.5629
1699.304
1225.8758
1650.6075
1172.5892
1289.8267
1228.8348
1150.745
1464.2449
1051.1693
1604.3458
1201.6237
1271.0836
1243.4849
1124.3517
1428.0835
1041.4907
1408.7666
889.61406