/*--------------------------------*- C++ -*----------------------------------*\
  =========                 |
  \\      /  F ield         | OpenFOAM: The Open Source CFD Toolbox
   \\    /   O peration     | Website:  https://openfoam.org
    \\  /    A nd           | Version:  6
     \\/     M anipulation  |
\*---------------------------------------------------------------------------*/
FoamFile
{
    version     2.0;
    format      ascii;
    class       pointVectorField;
    location    "0.62";
    object      u;
}
// * * * * * * * * * * * * * * * * * * * * * * * * * * * * * * * * * * * * * //

dimensions      [0 1 0 0 0 0 0];

internalField   nonuniform List<vector> 
28033
(
(0 2.7717208e-19 0)
(0 1.8776542e-18 0)
(1.6584977 -0.071304441 0.00732102)
(1.5828473 -0.45291062 0.0059125998)
(0 1.717884e-18 0)
(0 2.761875e-18 0)
(1.5832836 -0.4551042 0.0059620696)
(1.6589193 -0.073660288 0.007264533)
(0 6.1283261e-19 0)
(0 1.8045945e-19 0)
(0 1.4572339e-18 0)
(0 -6.92485e-19 0)
(0 9.2435427e-19 0)
(0 -5.3836363e-19 0)
(0 -1.2720693e-20 0)
(-4.1440591e-19 -1.3518623e-19 0)
(0 2.4890253e-19 0)
(0 1.2188642e-19 0)
(0 -4.6489602e-19 0)
(0 4.4976045e-19 0)
(0 5.4186907e-19 0)
(0 -4.4113329e-19 0)
(0 5.713805e-19 0)
(1.6537493 -0.095197147 0.0072072348)
(1.6489817 -0.11906884 0.0070925287)
(1.6442232 -0.14292843 0.0070007546)
(1.6394648 -0.1667631 0.0069087418)
(1.6347204 -0.19058102 0.0068354434)
(1.6299843 -0.21439399 0.0067638102)
(1.6252582 -0.23819133 0.006699943)
(1.6205463 -0.26199762 0.0066364189)
(1.6158403 -0.28580453 0.0065725237)
(1.6111407 -0.30962631 0.006506164)
(1.6064458 -0.33346556 0.0064310496)
(1.6017458 -0.35732193 0.0063437019)
(1.5970466 -0.38120029 0.0062567286)
(1.5923339 -0.40510121 0.0061505968)
(1.5876001 -0.4290113 0.0060364117)
(0.002937949 0.0050852845 0.005773418)
(0.0031053404 0.0080335579 0.0081621591)
(0.0037114244 0.011223746 0.010022691)
(0.0049455556 0.014557889 0.011241846)
(0.0065125699 0.018090374 0.012097463)
(0.0087900064 0.021677999 0.012704688)
(0.011578482 0.025437885 0.0131372)
(0.014975194 0.029102374 0.013406877)
(0.018928698 0.032946305 0.013609613)
(0.023483028 0.036653312 0.01372112)
(0.028547875 0.040444885 0.01380373)
(0.03422217 0.044132116 0.013788362)
(0.040392585 0.047838526 0.013838702)
(0.047194099 0.051436091 0.013755117)
(0.054423737 0.054996317 0.013768414)
(0.062289958 0.058452128 0.013641795)
(0.070610857 0.061858507 0.013625129)
(0.079507819 0.065122997 0.013504414)
(0.088865002 0.068324446 0.013440634)
(0.09877639 0.071389802 0.013310557)
(0.10914365 0.07436296 0.013237351)
(0.12003089 0.077191348 0.013096925)
(0.13137701 0.079916497 0.013005472)
(0.14321165 0.082503692 0.012878753)
(0.1554949 0.084953103 0.012762194)
(0.1682509 0.087284972 0.012636702)
(0.18143229 0.089455107 0.012521211)
(0.19506953 0.091509809 0.012397409)
(0.20913223 0.09339714 0.012267417)
(0.2236138 0.095157622 0.012148698)
(0.23852097 0.096757425 0.012017795)
(0.25382073 0.098209828 0.011888632)
(0.26953115 0.099514879 0.011761245)
(0.28562464 0.10065007 0.011628467)
(0.30210127 0.10164642 0.011491566)
(0.31895868 0.10246603 0.011347476)
(0.33616917 0.10313612 0.011210644)
(0.35374574 0.1036335 0.011064688)
(0.3716533 0.10396666 0.010904007)
(0.3899079 0.10414137 0.01075019)
(0.40847255 0.10413472 0.010584407)
(0.42735776 0.10398073 0.010419446)
(0.44654315 0.10364252 0.01024132)
(0.46602179 0.10314776 0.010065545)
(0.48577171 0.10247956 0.0098816051)
(0.50579514 0.10165258 0.009695399)
(0.52606474 0.10065937 0.0095069453)
(0.5465839 0.099507447 0.0093155724)
(0.56732513 0.098196902 0.0091247536)
(0.5882905 0.096732061 0.0089341541)
(0.60945572 0.095115991 0.0087457003)
(0.63081871 0.093352158 0.0085610468)
(0.65236073 0.09144599 0.0083811843)
(0.67407531 0.089399732 0.0082080299)
(0.69594892 0.087220679 0.0080422868)
(0.71797242 0.084910933 0.0078859487)
(0.74013582 0.082477368 0.0077393335)
(0.76243004 0.07992382 0.0076034173)
(0.78484644 0.077255876 0.0074788196)
(0.80737782 0.074476978 0.0073657871)
(0.83001631 0.07159424 0.0072639499)
(0.8527577 0.068609414 0.0071725966)
(0.87559131 0.065531178 0.0070934359)
(0.89852246 0.062355088 0.0070196926)
(0.92153133 0.05909963 0.0069621828)
(0.94462713 0.05575696 0.0069044795)
(0.9678018 0.052327923 0.0068593452)
(0.99105122 0.048828686 0.0068155152)
(1.0143708 0.045255086 0.0067778212)
(1.0377598 0.041612349 0.0067442671)
(1.0612154 0.037900376 0.0067169138)
(1.0847325 0.03412543 0.0066919776)
(1.1083122 0.030289046 0.0066695867)
(1.131946 0.026391265 0.0066527575)
(1.1556371 0.02243871 0.0066372906)
(1.1793752 0.018424872 0.0066279523)
(1.2031641 0.014362725 0.006620344)
(1.2269937 0.010239561 0.0066193149)
(1.2508664 0.006072001 0.0066197069)
(1.2747713 0.0018452495 0.0066290482)
(1.2987135 -0.0024263255 0.0066359835)
(1.3226774 -0.0067507382 0.0066551978)
(1.3466719 -0.011123744 0.0066720717)
(1.3706757 -0.015540902 0.0066982835)
(1.3947036 -0.020006966 0.006725614)
(1.4187312 -0.024512402 0.0067582336)
(1.4427729 -0.029072983 0.0067940523)
(1.466803 -0.033653236 0.0068331198)
(1.4908357 -0.038294424 0.0068777888)
(1.5148478 -0.04293936 0.0069228255)
(1.5388508 -0.047643615 0.0069798577)
(1.5628238 -0.052337079 0.0070329516)
(1.5867791 -0.057081726 0.0071041761)
(1.6107003 -0.061809061 0.0071717528)
(1.6346033 -0.066556257 0.0072498669)
(0.0014238889 -0.0057517312 -0.0068054965)
(0.0022379939 -0.0080133997 -0.0081884782)
(0.002513002 -0.011167977 -0.010821732)
(0.0029804122 -0.014084643 -0.011905476)
(0.0044207085 -0.017476758 -0.013035534)
(0.0061537707 -0.021123199 -0.013668893)
(0.0085059388 -0.024536626 -0.014224919)
(0.011386888 -0.028378549 -0.014494219)
(0.014870219 -0.032109468 -0.014748621)
(0.01878496 -0.035964008 -0.01485394)
(0.023315593 -0.039885186 -0.01492102)
(0.028271437 -0.043830704 -0.014925743)
(0.033798592 -0.047847996 -0.014882114)
(0.039774023 -0.05190469 -0.014830016)
(0.046276708 -0.05598119 -0.014720916)
(0.053235093 -0.060137921 -0.014618929)
(0.060696434 -0.064274539 -0.014472417)
(0.068615062 -0.068496702 -0.014320317)
(0.07700364 -0.072726511 -0.01416041)
(0.085868883 -0.077000401 -0.013979655)
(0.095165184 -0.081297752 -0.013788604)
(0.10493142 -0.08565563 -0.013604369)
(0.11511197 -0.089997379 -0.013397711)
(0.12574914 -0.094429601 -0.013195675)
(0.13679245 -0.098841848 -0.012991609)
(0.14828609 -0.10333589 -0.012765759)
(0.16016645 -0.10783377 -0.012569161)
(0.17248546 -0.11238528 -0.012333775)
(0.1851885 -0.11696805 -0.012126644)
(0.19831093 -0.1215801 -0.011884812)
(0.21181127 -0.12624706 -0.011660425)
(0.2257193 -0.1309349 -0.011418949)
(0.2400003 -0.13567636 -0.011176817)
(0.25467477 -0.14044213 -0.010923113)
(0.26971525 -0.14526059 -0.01066432)
(0.28513392 -0.1501008 -0.010402075)
(0.30090983 -0.15498015 -0.010114585)
(0.317045 -0.15990206 -0.0098362856)
(0.3335275 -0.16484833 -0.0095407119)
(0.35035752 -0.16983067 -0.0092407202)
(0.36751843 -0.17484138 -0.0089314949)
(0.38500764 -0.17987764 -0.0086171582)
(0.40281354 -0.18494036 -0.0082949866)
(0.42092886 -0.19002384 -0.0079690007)
(0.43934241 -0.1951277 -0.007637414)
(0.4580474 -0.20024819 -0.0073021009)
(0.47703047 -0.20538321 -0.0069641031)
(0.49628524 -0.21052978 -0.0066230156)
(0.51579842 -0.2156862 -0.0062809264)
(0.53556164 -0.22084867 -0.0059375676)
(0.55556341 -0.22601683 -0.0055942141)
(0.57579351 -0.23118688 -0.0052516055)
(0.59624118 -0.23635799 -0.0049102712)
(0.6168964 -0.24152836 -0.0045712863)
(0.63774809 -0.24669637 -0.0042352049)
(0.65878677 -0.25186067 -0.0039030393)
(0.68000236 -0.25702149 -0.0035751128)
(0.70138506 -0.2621763 -0.0032527909)
(0.72292614 -0.26732654 -0.0029360758)
(0.74461678 -0.27247056 -0.002626181)
(0.76644869 -0.2776093 -0.0023230995)
(0.78841429 -0.28274164 -0.0020281396)
(0.81050668 -0.28786955 -0.0017405468)
(0.83271914 -0.29299103 -0.0014617876)
(0.85504548 -0.29810881 -0.0011910292)
(0.87748127 -0.30322131 -0.00092842101)
(0.90002025 -0.30832973 -0.00067530419)
(0.92265941 -0.31343532 -0.00042716634)
(0.94539278 -0.31853363 -0.00019127075)
(0.96821776 -0.32362805 4.5480557e-05)
(0.99113258 -0.3287276 0.00027161511)
(1.0141331 -0.33381201 0.00049617902)
(1.0372161 -0.33890435 0.00071636366)
(1.0603797 -0.34398412 0.00093524242)
(1.0836214 -0.34906583 0.0011540822)
(1.1069378 -0.35414028 0.0013733705)
(1.1303264 -0.35921069 0.0015949822)
(1.153786 -0.36427564 0.0018200178)
(1.1773108 -0.36933393 0.0020497128)
(1.2008993 -0.37438415 0.0022830326)
(1.2245474 -0.37942706 0.0025227741)
(1.2482507 -0.38445774 0.0027657106)
(1.2720055 -0.38947907 0.0030152695)
(1.2958058 -0.39448435 0.0032658522)
(1.3196478 -0.39947713 0.0035213409)
(1.3435245 -0.40444973 0.0037749308)
(1.3674308 -0.40940585 0.0040294797)
(1.3913599 -0.41433827 0.00427867)
(1.415305 -0.41924928 0.0045231036)
(1.4392598 -0.42413416 0.0047586421)
(1.4632166 -0.42899316 0.0049833253)
(1.4871698 -0.43382445 0.0051954003)
(1.511112 -0.43862921 0.005393198)
(1.5350398 -0.44340789 0.0055771673)
(1.5589519 -0.44816548 0.0057477388)
(0 -7.6862234e-19 0)
(0 -5.7349861e-19 0)
(0 5.4282888e-19 0)
(0 -3.4366225e-19 0)
(0 -2.9298897e-19 0)
(0 1.6108818e-18 0)
(0 -4.6709702e-19 0)
(-1.0635093e-18 2.9727776e-19 0)
(0 -2.6564977e-19 0)
(0 6.3730338e-19 0)
(0 7.5490522e-19 0)
(0 2.6353281e-19 0)
(0 1.4063408e-19 0)
(0 -2.9046414e-19 0)
(0 2.0175237e-19 0)
(0.0031572101 -0.0023633791 0.0048625749)
(0.0029953555 -0.0092191394 0.0080592427)
(0.0024059622 -0.0097973771 0.0098719297)
(0.0034449133 -0.014779643 0.011716426)
(0.0044531467 -0.017135961 0.012608997)
(0.0064461234 -0.021168166 0.013212727)
(0.0087412237 -0.024418642 0.013679935)
(0.011761463 -0.028429759 0.013952835)
(0.01524184 -0.031989227 0.014124228)
(0.019207308 -0.036043528 0.014193097)
(0.02384381 -0.039877796 0.014262857)
(0.028752343 -0.043838653 0.014198232)
(0.03439264 -0.047978525 0.014205182)
(0.040318197 -0.051898543 0.014075196)
(0.046915815 -0.056232498 0.014033347)
(0.053848783 -0.060144869 0.013899384)
(0.061338824 -0.064560907 0.01380213)
(0.069276614 -0.068581878 0.013625256)
(0.0776646 -0.07302722 0.013518607)
(0.086559978 -0.077188418 0.013337035)
(0.095844444 -0.081587152 0.013209391)
(0.10563487 -0.085935084 0.013025608)
(0.11581808 -0.090340932 0.012887967)
(0.12647436 -0.094776301 0.012715655)
(0.13753113 -0.099217986 0.01254799)
(0.14903727 -0.10375269 0.012385589)
(0.16093511 -0.10824981 0.012207609)
(0.17325817 -0.11287359 0.012045358)
(0.18599022 -0.11744155 0.011863492)
(0.19910143 -0.12213767 0.011700638)
(0.21264083 -0.12680109 0.011517797)
(0.2265468 -0.13154729 0.01134533)
(0.24085391 -0.13630411 0.011158694)
(0.25552994 -0.14112286 0.010977836)
(0.2705977 -0.14596047 0.010787463)
(0.28601586 -0.15082925 0.010591842)
(0.30179802 -0.15577126 0.01039825)
(0.31795003 -0.16071353 0.010198716)
(0.33443881 -0.16569752 0.0099951482)
(0.35127575 -0.17071231 0.0097851457)
(0.36844392 -0.17575655 0.0095739127)
(0.38593747 -0.18082601 0.009358336)
(0.40374848 -0.18592109 0.0091400829)
(0.421867 -0.1910371 0.0089198533)
(0.44028369 -0.19617317 0.0086982399)
(0.45898962 -0.20132621 0.0084759798)
(0.47797407 -0.20649372 0.0082540787)
(0.49722757 -0.21167353 0.0080334731)
(0.51673885 -0.21686286 0.007815956)
(0.53649817 -0.2220595 0.0076017491)
(0.55649393 -0.22726129 0.007393781)
(0.57671669 -0.23246546 0.0071906968)
(0.59715479 -0.2376714 0.0069970455)
(0.61779864 -0.24287489 0.0068102322)
(0.63863725 -0.24807779 0.0066350142)
(0.65966164 -0.25327462 0.0064685698)
(0.68086077 -0.25846823 0.0063151705)
(0.70222718 -0.26365466 0.0061721028)
(0.72375024 -0.26883505 0.0060421118)
(0.74542346 -0.27400833 0.0059237109)
(0.76723738 -0.27917449 0.0058176455)
(0.7891864 -0.28433328 0.0057228534)
(0.81126226 -0.28948594 0.0056397793)
(0.83346009 -0.29463114 0.0055665264)
(0.85577322 -0.29977099 0.0055033433)
(0.8781972 -0.30490686 0.0054489349)
(0.90072793 -0.31003426 0.00540027)
(0.92335905 -0.31516821 0.0053642216)
(0.9460865 -0.32028027 0.0053264542)
(0.96890752 -0.32541058 0.0052998994)
(0.9918212 -0.33052701 0.0052755573)
(1.0148197 -0.33564469 0.0052558919)
(1.0379028 -0.34076115 0.0052382236)
(1.0610663 -0.34587633 0.0052247258)
(1.0843075 -0.35098974 0.0052133552)
(1.1076229 -0.35610045 0.0052054354)
(1.1310096 -0.36120753 0.0051999896)
(1.1544643 -0.36631005 0.0051987566)
(1.1779829 -0.37140536 0.0052006002)
(1.2015629 -0.37649217 0.0052067688)
(1.2251991 -0.38156835 0.005217036)
(1.2488891 -0.38663127 0.0052321147)
(1.272627 -0.39167854 0.0052513932)
(1.2964104 -0.39670806 0.0052760045)
(1.3202322 -0.40171702 0.0053048743)
(1.3440901 -0.40670311 0.0053387568)
(1.367976 -0.41166499 0.0053771609)
(1.391887 -0.41659931 0.0054202284)
(1.4158144 -0.42150702 0.0054684197)
(1.4397542 -0.42638355 0.0055210876)
(1.4636978 -0.43123339 0.0055804507)
(1.4876393 -0.43605031 0.0056446671)
(1.5115727 -0.4408445 0.0057171262)
(1.5354904 -0.44560861 0.0057948772)
(1.5593925 -0.45036203 0.0058803297)
(1.5880289 -0.43121395 0.0060157395)
(1.5927622 -0.40731747 0.0060629614)
(1.5974743 -0.38343179 0.0061309531)
(1.6021743 -0.35957364 0.0062068233)
(1.6068741 -0.33573757 0.006301068)
(1.6115627 -0.31191573 0.0063982098)
(1.6162626 -0.28811992 0.0065089137)
(1.6209627 -0.26431664 0.0066191413)
(1.6256835 -0.24053929 0.0067251021)
(1.6303942 -0.21673235 0.0068356679)
(1.6351397 -0.1929449 0.0069303578)
(1.6398749 -0.1691121 0.0070240589)
(1.644647 -0.14529753 0.0070954908)
(1.6493996 -0.12141851 0.0071650243)
(1.6541707 -0.097551625 0.0072141459)
(1.6350303 -0.068914025 0.0070669541)
(1.6111249 -0.064174132 0.0068770869)
(1.5871996 -0.059441633 0.0066739255)
(1.5632363 -0.054715258 0.006457831)
(1.5392484 -0.050002439 0.0062222724)
(1.5152334 -0.04530687 0.0059770156)
(1.4912018 -0.040633625 0.0057179612)
(1.4671568 -0.035986089 0.0054520338)
(1.4431063 -0.031369716 0.0051806181)
(1.4190572 -0.026786499 0.0049059941)
(1.3950134 -0.022240763 0.004631758)
(1.3709842 -0.017736347 0.0043603451)
(1.3469709 -0.013273691 0.0040916282)
(1.3229817 -0.0088589596 0.0038271786)
(1.2990208 -0.0044911471 0.0035689456)
(1.2750914 -0.00017381427 0.0033168467)
(1.2511983 0.0040905885 0.0030718143)
(1.2273439 0.0083007598 0.0028316439)
(1.2035321 0.0124568 0.0025962752)
(1.1797654 0.016554345 0.0023648026)
(1.1560464 0.020595828 0.002135342)
(1.1323781 0.024576342 0.0019066535)
(1.1087612 0.028499535 0.0016766432)
(1.0852015 0.032357256 0.0014458262)
(1.0616964 0.036156806 0.0012105139)
(1.0382556 0.039889408 0.00097128727)
(1.0148669 0.043560309 0.00072595676)
(0.99157967 0.04712912 0.00048729486)
(0.96831741 0.050675755 0.00022157278)
(0.94515568 0.054114774 -3.4944938e-05)
(0.92206262 0.057487873 -0.00030679641)
(0.89905361 0.060776334 -0.0005814576)
(0.87612978 0.063978886 -0.00086328231)
(0.85329791 0.06709138 -0.0011517692)
(0.83056289 0.0701086 -0.001445838)
(0.80793044 0.073027083 -0.0017456226)
(0.78540768 0.075839984 -0.0020510683)
(0.76300126 0.07854423 -0.0023608857)
(0.74071916 0.081132771 -0.0026753149)
(0.71856916 0.083602091 -0.0029935443)
(0.69656051 0.0859456 -0.0033151866)
(0.67470202 0.088159652 -0.0036394341)
(0.65300388 0.090238134 -0.0039662823)
(0.63147596 0.092177623 -0.0042945515)
(0.61012933 0.093972728 -0.0046242261)
(0.58897461 0.095620371 -0.0049543852)
(0.56802365 0.097116015 -0.0052846509)
(0.54728748 0.098457227 -0.0056141836)
(0.5267788 0.099640128 -0.0059427914)
(0.50650848 0.10066355 -0.006268991)
(0.48649037 0.10152317 -0.0065930429)
(0.46673363 0.10222142 -0.0069134766)
(0.44725499 0.10274956 -0.0072293163)
(0.42806084 0.10311839 -0.0075426621)
(0.40916955 0.10331189 -0.0078455846)
(0.3905898 0.10334525 -0.0081452304)
(0.37232592 0.10321778 -0.0084388463)
(0.35439547 0.10290512 -0.0087233959)
(0.33683377 0.1024322 -0.0089911696)
(0.31959281 0.10182257 -0.0092675641)
(0.30272512 0.10101402 -0.009528415)
(0.2862574 0.10006056 -0.009772018)
(0.27014772 0.098954901 -0.010012471)
(0.25442833 0.097691277 -0.010252789)
(0.23910625 0.096254617 -0.010482562)
(0.22421922 0.094688099 -0.010704663)
(0.2097146 0.092957728 -0.01091065)
(0.19566612 0.091090312 -0.011124813)
(0.18201771 0.089069647 -0.011327375)
(0.16882899 0.086925952 -0.011536016)
(0.15607044 0.084618419 -0.011723484)
(0.14377075 0.082191836 -0.011927327)
(0.13195203 0.079607925 -0.012098393)
(0.12058131 0.076954746 -0.012292336)
(0.1096891 0.074098441 -0.01247026)
(0.099309733 0.071188284 -0.012622533)
(0.089390138 0.068120765 -0.012809953)
(0.080011563 0.064962478 -0.012921644)
(0.07110915 0.061716617 -0.013104277)
(0.06275998 0.058320499 -0.013184762)
(0.05493809 0.054913186 -0.013323674)
(0.047609989 0.051332975 -0.013362605)
(0.040846457 0.047812249 -0.013490437)
(0.034639328 0.044043542 -0.01345703)
(0.028974406 0.040488573 -0.013528679)
(0.023851528 0.036628962 -0.01343219)
(0.019322254 0.032958214 -0.013359377)
(0.015347732 0.029123857 -0.013147651)
(0.011920666 0.025470394 -0.01290848)
(0.0091008538 0.021728607 -0.012475745)
(0.0068507036 0.018094521 -0.011839917)
(0.0052259532 0.014448444 -0.010965285)
(0.0041915755 0.011333064 -0.0097706243)
(0.0033936604 0.0078284519 -0.0076682677)
(0.0045479038 0.0048745342 -0.0043691772)
(0 8.621777e-19 0)
(0 3.2755815e-19 0)
(0 8.5018184e-19 0)
(0 8.5584722e-19 0)
(0 8.9200001e-19 0)
(0 5.3643388e-19 0)
(0 2.1384571e-20 0)
(0 -4.8607493e-19 -5.3333353e-19)
(0 5.755769e-20 0)
(0 5.1746332e-19 0)
(0 1.2477708e-18 0)
(0 1.0933075e-18 0)
(0 7.8260723e-19 0)
(0 7.56329e-19 0)
(0 8.6366554e-19 0)
(0 3.5460165e-18 0)
(0 1.5098467e-18 0)
(0 5.5407081e-19 0)
(0 1.0000697e-18 0)
(0 -8.7069111e-20 0)
(0 2.331019e-19 0)
(0 2.6561834e-18 0)
(0 -1.0809016e-18 -4.6871258e-19)
(0 1.5799246e-18 0)
(0 1.975072e-18 0)
(0 6.5269474e-19 0)
(0 2.6716132e-19 0)
(0 6.2010454e-19 0)
(0 1.1180067e-18 0)
(0 1.4380547e-19 0)
(1.5828927 -0.4531087 0.0059190514)
(1.5829257 -0.4533045 0.0059143778)
(1.582963 -0.45348985 0.0059058659)
(1.5829989 -0.4536606 0.0059018637)
(1.5830349 -0.45382279 0.0058998401)
(1.5830688 -0.45397065 0.0059044913)
(1.5830986 -0.45410877 0.0059105297)
(1.5831258 -0.45423696 0.0059216157)
(1.583149 -0.45435888 0.0059315064)
(1.5831699 -0.45447344 0.0059437194)
(1.5831886 -0.45458601 0.0059527838)
(1.5832055 -0.45469265 0.0059599492)
(1.5832239 -0.45479881 0.0059631406)
(1.5832417 -0.45490322 0.0059615549)
(1.5832653 -0.45500541 0.005963243)
(1.6585682 -0.071417024 0.0073190893)
(1.6586261 -0.07153419 0.0073176505)
(1.6586844 -0.071655008 0.0073157605)
(1.6587388 -0.071780502 0.007307616)
(1.6587929 -0.071908466 0.0072979385)
(1.6588415 -0.072039753 0.0072839463)
(1.6588852 -0.072173281 0.0072710441)
(1.6589215 -0.072310634 0.0072574815)
(1.6589507 -0.072451772 0.0072470932)
(1.6589707 -0.072598371 0.0072399564)
(1.6589828 -0.072751942 0.0072370055)
(1.6589841 -0.072914128 0.0072397107)
(1.6589796 -0.073084869 0.0072457436)
(1.6589643 -0.073269537 0.0072550568)
(1.6589457 -0.073459505 0.0072631141)
(0.0011265413 0.002034214 0.0057987077)
(0.0011365851 0.0026415077 0.0069269436)
(0.001247531 0.0034787551 0.0087392992)
(0.0020810638 0.00428323 0.009561631)
(0.0030390656 0.0051382456 0.010480417)
(0.0048426189 0.0061633855 0.01099058)
(0.0069709252 0.0072425441 0.011412333)
(0.0098878507 0.0085428982 0.011680729)
(0.013129145 0.0098248087 0.011894126)
(0.017122122 0.011335818 0.012033299)
(0.021535065 0.012795116 0.012086397)
(0.026612177 0.014483826 0.012175914)
(0.03214487 0.016086026 0.0121476)
(0.03830749 0.017916508 0.012176479)
(0.044936131 0.019661711 0.012124916)
(0.052204222 0.021590662 0.01211675)
(0.059961477 0.023470935 0.012027855)
(0.068256398 0.025474276 0.012004514)
(0.077125316 0.027474848 0.011910282)
(0.086516095 0.029542909 0.01184438)
(0.096438017 0.031636301 0.011758153)
(0.10688952 0.033753761 0.011677339)
(0.11788247 0.035921289 0.011571002)
(0.12936127 0.038090289 0.011487756)
(0.14138855 0.04029178 0.011378314)
(0.15390497 0.042499233 0.011280346)
(0.16693609 0.044722326 0.011172239)
(0.18045303 0.046941533 0.011069112)
(0.19447438 0.049157922 0.010959534)
(0.20897632 0.051368213 0.01084988)
(0.22395275 0.053553431 0.010738142)
(0.23940914 0.055719915 0.010622253)
(0.25532715 0.057851413 0.010510873)
(0.27169329 0.059937388 0.010390995)
(0.28851964 0.061982199 0.01027054)
(0.30577331 0.063951287 0.010148621)
(0.3234615 0.065871063 0.010018851)
(0.34155551 0.067701251 0.0098854404)
(0.36006799 0.069453041 0.0097487159)
(0.37896285 0.071106623 0.0096087841)
(0.39824173 0.07265661 0.009465869)
(0.41787669 0.074086726 0.0093116901)
(0.43786807 0.075409654 0.009159782)
(0.45819163 0.076589555 0.0089988986)
(0.47882771 0.077644431 0.0088352389)
(0.49976758 0.07855227 0.0086705451)
(0.52098793 0.079310704 0.0085004727)
(0.54247548 0.079915247 0.0083326861)
(0.56420913 0.080358256 0.0081625712)
(0.58617447 0.080635962 0.0079954205)
(0.6083504 0.080744343 0.0078298321)
(0.63072186 0.080678232 0.0076697983)
(0.65326963 0.080435948 0.0075139115)
(0.67597794 0.080012695 0.0073661964)
(0.69882931 0.079407793 0.0072256585)
(0.72180845 0.078616886 0.0070951402)
(0.74490007 0.077640447 0.0069738782)
(0.7680898 0.076474694 0.0068636973)
(0.79136416 0.075119682 0.0067644722)
(0.81471118 0.073573665 0.0066761777)
(0.83811894 0.071836201 0.0065984068)
(0.86157734 0.069906602 0.0065314919)
(0.88507661 0.067784058 0.0064739376)
(0.90860983 0.065467021 0.0064266878)
(0.93216317 0.062964042 0.0063842191)
(0.95574317 0.060256817 0.0063518521)
(0.97933609 0.057368731 0.006323232)
(1.0029234 0.054287525 0.0063046351)
(1.0265173 0.051015214 0.006289634)
(1.0501055 0.047554037 0.0062789227)
(1.0736871 0.043908782 0.006270973)
(1.0972577 0.040078062 0.0062664195)
(1.1208146 0.036066611 0.0062637209)
(1.1443519 0.031875483 0.0062658384)
(1.1678705 0.027508869 0.0062693376)
(1.1913634 0.022967107 0.0062785523)
(1.2148325 0.01825942 0.006288818)
(1.2382714 0.013380809 0.0063054208)
(1.2616819 0.0083479119 0.0063232531)
(1.2850579 0.0031500613 0.0063483093)
(1.3084031 -0.0021906528 0.0063736872)
(1.3317089 -0.0076826278 0.0064084237)
(1.3549807 -0.013311597 0.0064421529)
(1.37821 -0.019070554 0.0064849354)
(1.4014021 -0.024958874 0.0065268539)
(1.4245542 -0.030961311 0.0065753384)
(1.4476673 -0.037072617 0.0066255096)
(1.4707315 -0.043281341 0.006679425)
(1.4937604 -0.049577996 0.0067358751)
(1.516736 -0.055950737 0.0067965439)
(1.5396764 -0.062393081 0.0068593752)
(1.562563 -0.068882024 0.0069253961)
(1.5854169 -0.075428013 0.006996303)
(1.6082186 -0.081988565 0.0070656554)
(1.6309961 -0.088589236 0.0071379891)
(-0.00066550557 -0.00025838129 0.0051284829)
(-0.0010799949 -0.0027380817 0.0062506642)
(-0.0007827215 -0.0035927021 0.0074445981)
(-0.00068499453 -0.0053356821 0.0083700204)
(0.00010764551 -0.0064094518 0.0089965356)
(0.0012982228 -0.0076764777 0.0094332251)
(0.0031339867 -0.0085601399 0.0097823625)
(0.0053515913 -0.0094799311 0.01003999)
(0.0082612539 -0.010108255 0.0102532)
(0.011655777 -0.010689698 0.01031879)
(0.015586478 -0.011016398 0.010490364)
(0.020103236 -0.011256439 0.010452742)
(0.025137535 -0.011256348 0.010563422)
(0.030758215 -0.01115732 0.010499797)
(0.036891263 -0.010842 0.010568798)
(0.043660038 -0.010382598 0.010455334)
(0.050869636 -0.0097449055 0.010509396)
(0.058771897 -0.0089413841 0.010404936)
(0.067132439 -0.0079715674 0.010390864)
(0.076120839 -0.0068420569 0.010311117)
(0.085627414 -0.0055400005 0.01026537)
(0.095737937 -0.0040852087 0.010173195)
(0.1063697 -0.0024705103 0.010117288)
(0.11759472 -0.00070848037 0.010030218)
(0.12935406 0.0011962949 0.0099529797)
(0.14168401 0.0032476618 0.0098629761)
(0.1545515 0.0054230619 0.0097800333)
(0.16797389 0.0077258212 0.0096904896)
(0.18193632 0.010140593 0.009597271)
(0.19643614 0.012662785 0.0095041519)
(0.21147018 0.015274614 0.0094110535)
(0.2270311 0.017969786 0.0093138491)
(0.24310618 0.020733826 0.0092141117)
(0.25969669 0.023554217 0.0091138547)
(0.27678745 0.026414732 0.0090098339)
(0.29437031 0.029304607 0.0089034906)
(0.31244398 0.032204019 0.0087913489)
(0.33098112 0.035100797 0.0086819313)
(0.34996418 0.037976625 0.0085653098)
(0.36939781 0.040827098 0.0084451445)
(0.38924802 0.043615979 0.0083168622)
(0.40950988 0.046355152 0.0081940969)
(0.43016667 0.048996138 0.0080512224)
(0.45118432 0.051557128 0.0079215223)
(0.47255947 0.054004505 0.0077779983)
(0.49426349 0.05632831 0.0076377066)
(0.51627394 0.058516752 0.0074936001)
(0.53857244 0.060556605 0.0073514363)
(0.56113364 0.06243438 0.007207118)
(0.58393655 0.064140405 0.0070680147)
(0.60695689 0.065662701 0.0069298382)
(0.63017377 0.066990423 0.0067981689)
(0.65356301 0.068115637 0.0066711676)
(0.67710384 0.069026575 0.0065526699)
(0.70077407 0.069717026 0.006441547)
(0.72455365 0.070176795 0.0063403889)
(0.74842234 0.070400117 0.0062484547)
(0.77236166 0.070377507 0.006167826)
(0.79635393 0.070105158 0.0060968592)
(0.82038317 0.069574026 0.0060367114)
(0.84443292 0.068780934 0.0059868913)
(0.86849153 0.06771923 0.0059460534)
(0.89254365 0.066383161 0.0059158769)
(0.91657909 0.064774992 0.0058902108)
(0.94058943 0.062882486 0.0058752625)
(0.96456537 0.060710024 0.0058658386)
(0.98848413 0.058257546 0.0058637262)
(1.0123612 0.055506542 0.0058651186)
(1.0361798 0.052473194 0.0058648763)
(1.0599339 0.049151834 0.0058718335)
(1.0836208 0.045548739 0.0058791915)
(1.1072307 0.041658192 0.005892538)
(1.1307644 0.037489084 0.0059079434)
(1.154215 0.033037956 0.0059280848)
(1.1775846 0.028314128 0.0059496204)
(1.200865 0.023316328 0.0059765419)
(1.224062 0.01805723 0.0060034557)
(1.2471659 0.012533906 0.0060378954)
(1.2701852 0.0067648655 0.0060712594)
(1.2931094 0.00074321042 0.0061137619)
(1.3159504 -0.0055039655 0.0061529967)
(1.3386938 -0.011986574 0.0062032788)
(1.3613598 -0.018680579 0.0062503341)
(1.3839247 -0.025583139 0.0062993186)
(1.4064203 -0.032668755 0.0063518376)
(1.4288203 -0.039937099 0.0064134182)
(1.4511467 -0.047375276 0.0064757152)
(1.473388 -0.054952764 0.0065394199)
(1.4955611 -0.062678105 0.0066082661)
(1.5176535 -0.07050729 0.0066736625)
(1.5396867 -0.078453091 0.0067478208)
(1.5616442 -0.086467099 0.0068141695)
(1.5835566 -0.094568649 0.0068931159)
(1.605398 -0.10269869 0.0069586378)
(1.6272167 -0.11088531 0.0070337015)
(-0.0017296913 -0.0023525431 0.004484269)
(-0.0023761086 -0.0060641171 0.0052296484)
(-0.002991422 -0.0090051967 0.0065119017)
(-0.0028610504 -0.012024166 0.0071113802)
(-0.0024208903 -0.014852586 0.0075692963)
(-0.0013300957 -0.017483609 0.0079172849)
(-2.2683403e-06 -0.020075867 0.008227511)
(0.0021291125 -0.022364334 0.008437935)
(0.0045827508 -0.024633259 0.008536589)
(0.0076635694 -0.026504894 0.0087318954)
(0.011238544 -0.028377407 0.0087293877)
(0.015420567 -0.029827439 0.0088563783)
(0.020073474 -0.031248662 0.0088238192)
(0.025337349 -0.032263931 0.008907608)
(0.031148138 -0.033171196 0.0088289538)
(0.037488948 -0.033758451 0.0089046412)
(0.044454422 -0.034147521 0.0088220308)
(0.051949264 -0.03426151 0.0088278564)
(0.060035392 -0.034142882 0.0087784466)
(0.068699711 -0.033773857 0.0087518595)
(0.077956191 -0.033149486 0.0086883796)
(0.087776263 -0.032302095 0.0086553054)
(0.098201378 -0.031189532 0.0085888718)
(0.10919242 -0.02986462 0.0085338791)
(0.12077997 -0.02828628 0.0084663883)
(0.13294043 -0.026505779 0.008404276)
(0.1456911 -0.024495393 0.0083339973)
(0.15901355 -0.022288721 0.0082604522)
(0.17291572 -0.019880945 0.0081897118)
(0.187388 -0.017299781 0.0081150269)
(0.20242947 -0.014542071 0.008036947)
(0.21802768 -0.011634345 0.007958306)
(0.23418833 -0.0085857478 0.007879573)
(0.2508899 -0.005416724 0.0077967003)
(0.26813452 -0.0021423196 0.0077131366)
(0.28590519 0.0012220665 0.0076267176)
(0.3041848 0.004651936 0.0075430617)
(0.32296088 0.0081340751 0.0074539999)
(0.34225463 0.011641795 0.007359349)
(0.36200922 0.01515066 0.0072550579)
(0.38222351 0.018665248 0.0071606665)
(0.40287621 0.022137811 0.0070449221)
(0.42394495 0.025566022 0.0069478917)
(0.44541272 0.028925447 0.0068342342)
(0.46725512 0.032193249 0.0067203)
(0.48944421 0.035358967 0.0066078061)
(0.51196172 0.038399324 0.0064911401)
(0.53477965 0.041299317 0.0063761353)
(0.55787299 0.044041074 0.006261695)
(0.58121529 0.046609718 0.0061509055)
(0.60478189 0.048988655 0.0060414533)
(0.62854484 0.05116418 0.00593948)
(0.65247991 0.053121831 0.0058410554)
(0.67656061 0.054847683 0.0057517683)
(0.70076319 0.056330186 0.0056688823)
(0.72506283 0.057555682 0.0055959233)
(0.74943743 0.058513714 0.0055317175)
(0.77386476 0.059192642 0.0054776549)
(0.79832482 0.059582969 0.0054324763)
(0.82279782 0.059673732 0.0053981899)
(0.84726699 0.059457719 0.0053715271)
(0.87171546 0.058924274 0.0053550699)
(0.89612753 0.058069217 0.0053448341)
(0.92049223 0.056884049 0.0053418614)
(0.94479654 0.055359681 0.005347106)
(0.96901936 0.053500578 0.0053548153)
(0.99318342 0.05130126 0.0053713983)
(1.017229 0.048742115 0.0053841235)
(1.0411908 0.045828337 0.0054136441)
(1.065044 0.042579434 0.0054374073)
(1.0887864 0.038971102 0.0054667846)
(1.1124101 0.035019464 0.0054999875)
(1.1359197 0.030718943 0.0055322327)
(1.1593036 0.026073689 0.0055689268)
(1.1825652 0.021088489 0.0056056766)
(1.2056979 0.015768814 0.0056475414)
(1.2287039 0.010122867 0.0056906837)
(1.2515789 0.0041534083 0.0057396533)
(1.2743281 -0.0021236953 0.0057895381)
(1.2969453 -0.0087063049 0.0058457793)
(1.3194413 -0.015575345 0.0059025892)
(1.3418074 -0.022730095 0.0059679043)
(1.3640549 -0.030139972 0.0060286957)
(1.3861848 -0.037814146 0.0061015425)
(1.4082022 -0.045706225 0.0061728573)
(1.430096 -0.053832039 0.0062506659)
(1.4518925 -0.062148745 0.0063221331)
(1.473581 -0.070659848 0.0064025091)
(1.4951799 -0.079329125 0.0064775274)
(1.5166811 -0.088147819 0.0065579599)
(1.538107 -0.097090367 0.0066350253)
(1.5594458 -0.10613303 0.0067132484)
(1.5807285 -0.11527072 0.0067911701)
(1.6019354 -0.12445176 0.0068626972)
(1.6231126 -0.13369175 0.0069346412)
(-0.0023456851 -0.0030906318 0.0036792962)
(-0.0035306195 -0.0078840199 0.0044573298)
(-0.0041106467 -0.011594649 0.0052529093)
(-0.0042252801 -0.015552342 0.0056948843)
(-0.0037971416 -0.019101544 0.0060866529)
(-0.003072693 -0.022680327 0.0063988446)
(-0.0015939445 -0.02589858 0.0066032442)
(0.00022640637 -0.029125939 0.0067055287)