/*--------------------------------*- C++ -*----------------------------------*\
  =========                 |
  \\      /  F ield         | OpenFOAM: The Open Source CFD Toolbox
   \\    /   O peration     | Website:  https://openfoam.org
    \\  /    A nd           | Version:  6
     \\/     M anipulation  |
\*---------------------------------------------------------------------------*/
FoamFile
{
    version     2.0;
    format      ascii;
    class       pointVectorField;
    location    "0.45";
    object      lm;
}
// * * * * * * * * * * * * * * * * * * * * * * * * * * * * * * * * * * * * * //

dimensions      [1 -2 -1 0 0 0 0];

internalField   nonuniform List<vector> 
28033
(
(-1.780536e-14 4.8656612e-16 1.3104288e-15)
(-5.4375576e-15 3.3318594e-15 9.9433006e-16)
(763.95802 -217.92905 -5.4437892)
(591.79854 -592.75751 74.380839)
(-1.338461e-14 3.0090723e-15 -2.870051e-16)
(-1.2587315e-14 4.9008913e-15 -4.4266115e-15)
(582.95694 -677.04161 -2.4531153)
(777.16828 -249.0686 54.915996)
(-5.6329745e-15 1.0535579e-15 6.7193838e-16)
(-2.4534443e-15 3.0423504e-16 5.8836893e-16)
(-5.4923298e-15 2.4302826e-15 8.9528572e-16)
(-2.6209443e-15 -1.1537891e-15 -6.7979696e-16)
(-7.2548563e-15 1.5542294e-15 1.0013199e-15)
(-4.7613589e-15 -9.2108094e-16 -7.3952737e-16)
(-1.132389e-15 -2.2256662e-17 -6.4484848e-16)
(-7.4239857e-16 -2.4218299e-16 -3.6669977e-16)
(-1.1196198e-15 4.5550132e-16 8.383863e-16)
(-2.3465882e-16 2.2667819e-16 1.4996246e-15)
(-4.0583243e-15 -8.7236639e-16 -1.3429605e-15)
(-5.8237189e-15 8.4462789e-16 7.5519031e-16)
(-5.1611762e-15 1.0100276e-15 9.7613867e-16)
(-1.7679952e-15 -8.1010255e-16 4.5192313e-16)
(-4.4158752e-15 1.0299569e-15 -9.452958e-16)
(745.4826 -258.31563 -8.1573409)
(722.17902 -292.90749 -12.215585)
(700.47406 -321.72993 -11.201794)
(679.98491 -343.88501 -7.6746061)
(663.09768 -360.07134 -1.2908955)
(649.91868 -372.36047 8.8746329)
(640.09618 -380.60038 19.961842)
(634.50453 -389.08797 32.922991)
(631.59539 -397.93428 45.649544)
(629.87132 -410.40048 57.790942)
(629.7962 -427.90033 67.346472)
(627.94644 -451.00504 73.514176)
(625.33666 -480.49747 78.420275)
(618.74052 -516.1409 78.961501)
(607.5907 -555.45045 76.84225)
(-60.060638 -60.113218 -54.582747)
(-114.04819 -91.622138 -57.644088)
(-169.86642 -109.45008 -51.128647)
(-225.72811 -120.6925 -43.476798)
(-279.13022 -124.827 -32.25239)
(-329.01004 -124.35114 -21.641919)
(-373.46761 -119.19695 -11.431943)
(-411.34812 -111.87207 -3.4319998)
(-441.95949 -102.47605 2.3178856)
(-464.66751 -93.106085 4.9883139)
(-479.75794 -84.763573 4.3342714)
(-487.63297 -78.753946 0.52295562)
(-489.4918 -75.917878 -6.0572264)
(-486.37395 -77.242313 -15.569358)
(-481.16558 -83.15999 -26.647601)
(-475.41336 -93.28873 -38.556774)
(-470.93839 -106.98958 -50.481925)
(-470.37705 -124.1293 -61.803646)
(-475.78474 -143.24412 -70.396001)
(-488.1593 -162.7449 -76.56342)
(-508.96719 -181.37855 -78.779443)
(-538.11138 -197.17213 -76.801415)
(-575.98828 -209.31775 -70.559197)
(-621.06739 -215.8174 -59.698677)
(-671.79238 -215.95638 -44.639478)
(-726.20866 -209.5567 -26.595841)
(-781.76394 -195.98806 -5.7892759)
(-835.50296 -175.49464 16.416282)
(-884.24302 -149.32955 38.687216)
(-925.43742 -118.7113 59.803304)
(-956.05254 -84.7893 78.014305)
(-974.42725 -50.015078 92.746269)
(-979.06932 -16.358842 102.80757)
(-969.13469 14.112815 107.91299)
(-944.46473 39.951864 106.72358)
(-907.09926 58.767854 99.730303)
(-856.99658 70.460507 88.05041)
(-797.7792 73.244745 71.31584)
(-732.25978 67.080189 51.036709)
(-662.81953 53.16574 28.939721)
(-593.73278 31.599639 5.9704682)
(-527.89801 4.14783 -15.909588)
(-468.42887 -27.666544 -35.344178)
(-417.8753 -61.733863 -50.971418)
(-378.25851 -95.893878 -61.524252)
(-350.67714 -128.06968 -66.265597)
(-335.48343 -156.32874 -64.705021)
(-332.15032 -179.05853 -56.862496)
(-339.34486 -195.02541 -43.132784)
(-355.03304 -203.49238 -24.321597)
(-376.59991 -204.24097 -1.5848487)
(-401.05661 -197.59125 23.660741)
(-425.22398 -184.36607 49.814142)
(-445.97126 -165.83933 75.213528)
(-460.41243 -143.63239 98.23508)
(-466.11392 -119.61344 117.41154)
(-461.24384 -95.758748 131.52521)
(-444.70724 -74.018938 139.69226)
(-416.19356 -56.178552 141.41889)
(-376.21183 -43.761122 136.63598)
(-326.03507 -37.859832 125.7078)
(-267.61069 -39.18248 109.35036)
(-203.40207 -47.838052 88.75084)
(-136.37751 -63.477919 65.183724)
(-69.312165 -85.422605 40.060348)
(-5.6631532 -112.19402 15.720465)
(52.140361 -142.33546 -7.1667547)
(101.69059 -174.11523 -26.877318)
(140.75842 -205.42328 -42.194688)
(168.86437 -234.60761 -51.598272)
(185.00624 -259.84588 -55.451139)
(189.81392 -279.64958 -53.313806)
(184.49198 -292.9108 -45.380392)
(170.63745 -299.02663 -32.315283)
(150.64695 -297.72134 -15.094053)
(127.22515 -289.21294 5.0555075)
(103.23568 -274.17876 26.756304)
(81.599561 -253.61667 48.538563)
(65.068564 -228.99701 69.096299)
(55.898218 -201.66533 87.004285)
(56.065739 -173.7333 101.32342)
(66.748223 -146.69638 111.27438)
(88.4134 -122.0274 116.39882)
(121.20305 -101.40507 116.47398)
(164.12714 -85.782795 111.88917)
(215.82595 -76.344519 103.13511)
(274.46968 -73.125971 90.919768)
(337.46735 -76.346425 76.526593)
(402.88604 -85.366984 60.84125)
(467.47189 -99.580571 45.167661)
(529.80467 -117.39376 30.998192)
(586.86324 -138.17913 18.283155)
(638.83472 -159.88685 9.5656704)
(683.36253 -179.63457 2.8297235)
(723.78955 -199.63227 0.14049947)
(-20.803059 92.112096 102.3941)
(-89.172469 109.82983 78.074532)
(-163.6919 147.32173 75.475992)
(-224.18606 154.36426 47.897202)
(-288.1152 170.54812 29.933683)
(-345.21695 181.4138 9.1730818)
(-393.44687 187.78407 -7.7580319)
(-434.17151 193.79105 -20.557452)
(-463.76716 196.06984 -28.206696)
(-482.49262 197.9024 -29.13621)
(-489.49258 197.22005 -24.275132)
(-486.76914 197.34401 -12.722222)
(-474.17327 196.61708 3.6561432)
(-454.7635 197.38967 24.328629)
(-430.50916 199.94586 47.877677)
(-404.3591 204.6599 72.147291)
(-379.13436 213.1927 95.585623)
(-358.62118 224.30225 116.15078)
(-344.45163 239.71768 132.36518)
(-338.96946 258.04146 142.46326)
(-345.48282 279.63055 145.75706)
(-362.77294 303.6296 141.50345)
(-392.54125 328.3686 129.14344)
(-434.03502 354.23442 109.99831)
(-485.16149 378.17954 84.202345)
(-543.63298 399.47731 53.625867)
(-607.39511 416.99789 20.041546)
(-671.90332 429.13267 -14.805389)
(-734.75222 434.72692 -48.696238)
(-791.45147 433.71774 -79.173913)
(-838.73057 424.68197 -104.87338)
(-874.60573 408.69438 -123.93369)
(-895.9307 385.37813 -135.27623)
(-901.45074 355.76634 -137.97253)
(-890.54542 321.13233 -132.09223)
(-863.90024 283.03747 -118.25562)
(-822.10764 243.66751 -96.447197)
(-767.54578 203.32833 -69.352303)
(-703.33403 165.97731 -37.767762)
(-631.92774 131.86603 -3.9816322)
(-557.42544 103.15019 30.021506)
(-483.40105 80.96655 62.036951)
(-413.40595 66.100096 90.15435)
(-350.67965 58.903695 112.66784)
(-297.92197 59.22142 128.24197)
(-257.12137 66.409648 135.9992)
(-229.47156 79.383259 135.55066)
(-215.27144 96.674166 127.04275)
(-213.94166 116.5389 111.12313)
(-224.05088 137.06455 88.909976)
(-243.43883 156.30191 61.90541)
(-269.34729 172.38981 31.897841)
(-298.62701 183.68082 0.83890458)
(-327.93383 188.84361 -29.284719)
(-353.96865 186.95481 -56.585819)
(-373.68162 177.55046 -79.39526)
(-384.48392 160.65661 -96.371463)
(-384.40577 136.78767 -106.58422)
(-372.22744 106.89988 -109.56187)
(-347.5449 72.340742 -105.32645)
(-310.79312 34.743633 -94.371172)
(-263.20827 -4.0696878 -77.6239)
(-206.7278 -42.219045 -56.384374)
(-143.8728 -77.871975 -32.227327)
(-77.564175 -109.40861 -6.8767275)
(-10.944425 -135.47998 17.864235)
(53.020689 -155.11768 40.298667)
(110.91899 -167.85709 58.876591)
(161.06103 -173.29907 72.347842)
(200.5777 -172.62566 79.55559)
(228.26114 -165.75443 80.439574)
(244.1154 -154.84088 74.596069)
(247.73375 -140.86965 62.443361)
(240.17836 -125.68883 44.655612)
(223.09718 -111.13554 22.363335)
(198.56926 -98.955458 -3.0889151)
(169.23529 -90.741708 -30.171834)
(137.94321 -87.888357 -57.224708)
(107.61007 -91.388186 -82.629868)
(81.092533 -101.92676 -104.90047)
(60.904851 -119.67297 -122.73428)
(49.162157 -144.43873 -135.13357)
(47.38459 -175.57998 -141.44604)
(56.453257 -212.10905 -141.40749)
(76.53637 -252.71557 -135.15142)
(107.12894 -295.89447 -123.1832)
(147.06449 -339.9883 -106.36458)
(194.63537 -383.36856 -85.780326)
(247.71289 -424.46793 -62.762886)
(303.90606 -461.95621 -38.643698)
(360.69102 -494.88005 -14.766431)
(415.80182 -522.5979 7.6525164)
(467.13419 -545.1346 27.797214)
(513.31997 -563.53277 45.212969)
(554.93057 -578.66812 60.051293)
(3.2927448e-15 -1.3239155e-15 2.3845803e-16)
(2.4470133e-15 -9.6672015e-16 3.215493e-17)
(-9.0574249e-15 9.0550918e-16 6.4029168e-16)
(-1.2642219e-16 -5.721845e-16 4.4370095e-16)
(-7.6811722e-15 -4.9270561e-16 4.1193361e-16)
(-7.3893964e-15 2.7533729e-15 -1.0951501e-15)
(-3.2915852e-15 -8.1743692e-16 3.8364228e-16)
(-1.9032499e-15 5.3200654e-16 -8.2319016e-17)
(-4.7409759e-15 -4.8623412e-16 4.3918642e-16)
(-1.2869644e-14 1.1845665e-15 6.4228907e-16)
(-9.6157521e-15 1.4157374e-15 5.9836601e-16)
(-9.4077204e-15 4.9518432e-16 1.1192419e-15)
(-5.982767e-15 2.6210694e-16 3.0473736e-16)
(-1.1478475e-14 -5.3386198e-16 1.6580808e-15)
(-5.257323e-15 3.6289085e-16 2.8600704e-16)
(-43.598438 43.155921 -85.536564)
(-91.039423 135.6502 -89.842769)
(-151.3902 129.62948 -81.579302)
(-209.8895 153.98149 -75.424737)
(-268.64159 163.51855 -63.282757)
(-320.61069 168.07854 -45.80347)
(-370.93285 174.20017 -33.942527)
(-408.4976 174.19506 -20.505355)
(-441.06796 175.53918 -13.84553)
(-460.37706 170.43231 -9.8405629)
(-470.05921 170.05401 -9.846994)
(-472.49694 167.78323 -15.58668)
(-463.87812 164.47257 -23.998217)
(-450.54614 167.19037 -36.412205)
(-432.14883 167.79406 -50.102866)
(-411.9033 175.10905 -64.47879)
(-392.40107 184.16767 -77.850165)
(-378.19673 198.89803 -90.159204)
(-367.39585 215.37417 -97.095077)
(-368.10403 238.34431 -100.53826)
(-376.22073 259.85529 -99.100747)
(-395.46093 286.70974 -89.819431)
(-425.52606 315.26853 -76.68413)
(-466.40147 340.39805 -57.228746)
(-515.19371 364.29478 -33.384979)
(-570.99323 386.08025 -6.7268874)
(-631.01938 401.01487 22.000379)
(-689.32277 412.87185 51.094694)
(-748.63501 416.01577 77.745823)
(-797.533 411.04113 101.9399)
(-841.00619 399.8174 121.04488)
(-870.83528 380.77348 133.49483)
(-887.61853 354.76348 139.51692)
(-889.53127 323.27444 137.83101)
(-874.95283 286.47276 129.62469)
(-846.8703 250.40068 113.37026)
(-804.63163 206.62897 91.947036)
(-750.09793 168.79192 66.256156)
(-687.28043 132.1206 37.302115)
(-618.10303 99.934416 7.37833)
(-546.85913 73.653376 -21.68162)
(-476.69379 54.286884 -48.080657)
(-411.06956 42.510708 -70.060899)
(-353.06329 38.529973 -86.194963)
(-305.12405 42.039528 -95.431556)
(-269.05655 52.252467 -97.146232)
(-245.82978 67.968245 -91.224668)
(-235.55068 87.611808 -78.040179)
(-237.45332 109.36972 -58.449812)
(-249.96177 131.28538 -33.729148)
(-270.79999 151.39657 -5.4867946)
(-297.14841 167.85947 24.443806)
(-325.84177 179.06803 54.13316)
(-353.57805 183.75947 81.676027)
(-377.14513 181.08526 105.33096)
(-393.63167 170.68093 123.6207)
(-400.62318 152.66378 135.44126)
(-396.35087 127.65 140.11701)
(-379.81842 96.689914 137.45671)
(-350.84506 61.216285 127.74567)
(-310.09014 22.938393 111.73557)
(-258.98776 -16.261962 90.585628)
(-199.6621 -54.456846 65.771488)
(-134.7722 -89.811139 39.028639)
(-67.299687 -120.69623 12.113695)
(-0.57292388 -145.7552 -13.097618)
(62.77541 -163.77735 -34.930512)
(118.17533 -176.12675 -52.079583)
(167.03557 -180.90311 -62.501698)
(202.27305 -176.52057 -67.610163)
(227.1495 -169.41924 -65.263105)
(238.7963 -157.28865 -56.074788)
(238.61625 -142.59988 -41.038276)
(227.50828 -127.45839 -20.814457)
(207.26831 -113.46314 3.1474754)
(180.25092 -102.5938 29.398393)
(149.18899 -96.448506 56.292543)
(116.98969 -96.408684 82.205799)
(86.601271 -103.4727 105.61375)
(60.784116 -118.23073 125.19294)
(41.969206 -140.80093 139.89447)
(32.094497 -170.86895 149.01937)
(32.507218 -207.66489 152.24742)
(43.878768 -250.05724 149.65638)
(66.19975 -296.58661 141.70148)
(98.775248 -345.59292 129.18309)
(140.31513 -395.29048 113.16741)
(189.01321 -443.91683 94.924681)
(242.69967 -489.81587 75.802438)
(298.98428 -531.59912 57.151485)
(355.44748 -568.20699 40.199063)
(409.82738 -599.08055 25.910306)
(460.19661 -624.20365 14.968554)
(505.68581 -644.25792 7.3381189)
(545.20198 -660.55798 2.4543209)
(599.30142 -638.99565 -2.9174992)
(610.32278 -599.54678 -3.4362687)
(617.03716 -561.22146 -2.3489247)
(619.93029 -530.41792 1.3306515)
(621.73359 -503.16356 7.2187583)
(621.81267 -482.97768 14.522552)
(624.29068 -465.9917 23.565459)
(628.30698 -451.9618 32.86513)
(635.54193 -439.28113 41.472234)
(646.91858 -426.09808 49.512152)
(662.74197 -410.18718 55.473947)
(681.81272 -388.38492 59.975282)
(706.15301 -364.19063 60.0148)
(729.97495 -328.55919 60.788014)
(757.31236 -292.50484 56.349248)
(734.19716 -229.84459 44.502493)
(688.9802 -208.43609 35.370102)
(638.97158 -185.76134 21.781472)
(582.31432 -161.87207 5.4577468)
(519.349 -138.21246 -14.649534)
(451.77443 -116.56347 -36.994367)
(381.84237 -98.329913 -60.127945)
(311.85775 -84.79019 -82.905358)
(244.52171 -77.003163 -103.63254)
(182.43582 -75.640107 -121.04415)
(127.87939 -80.842132 -133.9307)
(82.959454 -92.594573 -141.3201)
(48.951177 -110.15963 -142.6691)
(26.754644 -132.45355 -137.95005)
(16.492133 -158.1264 -127.00651)
(17.662469 -185.75557 -110.35863)
(28.978218 -213.57252 -88.970264)
(48.514022 -239.79184 -64.058474)
(73.783466 -262.68914 -37.139892)
(101.95582 -280.781 -9.8229053)
(129.97752 -292.81215 16.226871)
(154.80766 -297.96306 39.407796)
(173.55553 -295.77118 58.27018)
(183.73927 -286.31424 71.744956)
(183.42982 -270.21459 78.750365)
(171.1652 -247.91808 79.400671)
(147.21346 -222.37767 72.570063)
(109.914 -190.22598 60.105174)
(61.930356 -162.08236 41.691093)
(5.1016575 -131.5962 19.657459)
(-59.01478 -104.37488 -5.7518673)
(-127.27419 -81.362836 -32.185643)
(-196.56217 -63.892786 -58.038182)
(-263.74702 -52.988704 -81.585799)
(-325.75432 -49.179615 -101.2367)
(-379.8783 -52.51044 -115.66077)
(-423.92171 -62.528182 -123.84949)
(-456.36397 -78.314779 -125.20998)
(-476.46249 -98.539885 -119.5884)
(-484.3083 -121.55952 -107.29182)
(-480.82884 -145.5195 -89.066117)
(-467.72561 -168.49555 -66.046035)
(-447.36429 -188.61723 -39.679886)
(-422.6124 -204.21265 -11.628971)
(-396.64751 -213.91391 16.339952)
(-372.73778 -216.76743 42.479953)
(-354.01791 -212.29404 65.171097)
(-343.28303 -200.51881 83.033907)
(-342.7652 -182.0047 95.016729)
(-354.06509 -157.75693 100.46779)
(-377.85357 -129.16642 99.096099)
(-414.14033 -98.130744 91.286971)
(-461.86734 -66.298207 77.389059)
(-519.18807 -36.050224 58.793342)
(-584.09233 -8.9229766 36.453619)
(-652.79627 13.035051 12.102689)
(-722.64858 29.151812 -12.392215)
(-790.63696 36.302486 -35.53094)
(-850.83165 36.150301 -56.504799)
(-904.42548 29.299868 -72.890558)
(-946.27323 14.10944 -83.598273)
(-972.56818 -9.9939668 -89.085947)
(-986.36901 -34.700747 -87.586949)
(-984.57181 -66.216753 -81.029574)
(-969.60714 -98.068937 -67.977949)
(-940.19214 -131.81445 -50.956701)
(-900.40096 -159.51847 -29.996333)
(-852.46223 -187.3904 -7.1154395)
(-797.89263 -208.08137 16.3726)
(-741.7232 -224.36461 39.174833)
(-685.50001 -234.01488 59.871812)
(-632.33597 -236.41773 76.727383)
(-585.43622 -232.20222 90.150603)
(-544.50669 -225.22537 98.495619)
(-512.41871 -212.45517 100.92226)
(-489.5981 -195.25147 99.395436)
(-474.45266 -180.04686 92.577434)
(-467.75331 -160.85185 82.013807)
(-466.90643 -146.00331 68.620226)
(-469.98422 -131.37092 53.147384)
(-475.97199 -120.71093 36.937058)
(-481.87429 -112.71336 21.348587)
(-485.30249 -108.6289 7.6278885)
(-483.9548 -109.00493 -4.1099949)
(-477.89028 -109.54284 -12.803821)
(-464.31763 -114.1928 -16.445509)
(-442.32105 -120.08925 -17.461582)
(-413.41717 -123.69308 -13.982856)
(-376.29668 -127.2423 -7.1345289)
(-332.68908 -128.683 3.244599)
(-283.43312 -125.93848 14.715316)
(-229.91315 -117.76355 27.736597)
(-174.93057 -105.5467 38.360367)
(-114.83951 -84.684775 46.396674)
(-71.972382 -58.505811 45.315244)
(-6.8708141e-15 1.5083581e-15 1.9262289e-16)
(-1.2504183e-14 5.7375616e-16 8.4327435e-16)
(-8.3449101e-15 1.4891922e-15 5.3018253e-16)
(-4.9731758e-15 1.4991158e-15 6.2376313e-16)
(-3.4146159e-15 1.5624416e-15 3.1576894e-17)
(2.0582335e-15 9.3962624e-16 -5.746342e-16)
(2.2101935e-15 3.7457559e-17 -1.1841335e-16)
(2.4553765e-15 -8.5141669e-16 -9.3419562e-16)
(1.2987427e-15 1.0081898e-16 1.7950851e-15)
(-4.5074861e-15 9.063971e-16 1.0710522e-15)
(-5.2682467e-15 2.1856155e-15 1.0652666e-15)
(-7.4917339e-15 1.915055e-15 2.2418828e-16)
(-9.400838e-15 1.3708275e-15 6.2833768e-16)
(-6.2048683e-15 1.3247981e-15 5.4317906e-16)
(-6.971104e-15 1.5128103e-15 7.5678131e-16)
(-1.2693866e-14 6.2923345e-15 -2.1364834e-15)
(-5.2452578e-15 2.6791924e-15 -5.3037742e-16)
(-1.0752404e-15 9.8318743e-16 -1.0111087e-16)
(-2.7353382e-15 1.7746034e-15 7.3085398e-17)
(1.0178949e-15 -1.5450237e-16 -4.119182e-16)
(-1.4303492e-15 4.136346e-16 -3.3264033e-16)
(-1.0059749e-14 4.7133437e-15 -1.6449855e-15)
(2.9801421e-15 -1.9180379e-15 -8.3172098e-16)
(-4.79756e-15 2.8035442e-15 1.1420498e-15)
(-5.4778068e-15 3.5047253e-15 -3.934403e-16)
(-1.8117877e-15 1.1581936e-15 -9.1309836e-16)
(-3.9812639e-16 4.7407236e-16 -2.2932148e-16)
(-1.5272242e-15 1.100363e-15 -2.2557932e-16)
(-4.1024849e-15 1.9838802e-15 2.8069696e-17)
(-5.3424143e-16 2.551799e-16 -1.9455919e-16)
(586.68448 -606.79163 73.565886)
(580.60062 -619.51139 69.844491)
(575.02233 -630.56492 64.397582)
(570.12195 -640.00345 58.350483)
(566.62743 -648.58325 51.90859)
(563.96431 -656.20969 45.564031)
(562.52916 -663.07823 39.176026)
(562.10578 -669.39998 32.913957)
(562.75708 -675.01668 26.818142)
(564.28228 -679.85202 20.858949)
(566.84186 -683.7124 15.215561)
(569.65288 -685.90519 9.7425965)
(573.18707 -686.45778 4.7416224)
(576.93768 -684.94677 0.84560757)
(580.61559 -681.73974 -2.3503195)
(767.40732 -214.70805 -4.9671971)
(767.86727 -211.88754 -2.6305444)
(767.93191 -209.87314 1.1619812)
(767.46078 -208.53853 5.5795141)
(767.87766 -208.17218 10.287184)
(768.50718 -208.31421 14.976744)
(769.98068 -208.94646 19.751703)
(772.3091 -209.92319 24.450108)
(775.40755 -211.30969 29.126499)
(778.91659 -213.2152 33.817812)
(782.40945 -215.88645 38.480203)
(785.07916 -219.76356 43.095311)
(786.40136 -224.80085 47.727162)
(785.81528 -232.02531 51.231118)
(782.73672 -240.06399 54.512741)
(-43.076898 -25.147704 -50.763488)
(-103.67499 -45.661337 -42.523895)
(-160.5322 -61.634928 -43.494658)
(-218.75682 -72.823975 -36.179205)
(-273.13698 -79.701876 -28.179943)
(-324.33633 -82.591496 -19.22623)
(-369.90981 -82.93477 -11.297406)
(-408.61307 -80.814523 -4.790361)
(-440.30256 -78.064834 -0.31494679)
(-463.65215 -75.152781 1.8749069)
(-478.97075 -73.507066 1.0418661)
(-486.87657 -73.202553 -1.9093434)
(-488.51638 -75.830681 -7.6305265)
(-485.20456 -80.800815 -15.097167)
(-478.93556 -88.80027 -24.194046)
(-471.66304 -99.003704 -33.718592)
(-465.91742 -111.83338 -43.390428)
(-463.61015 -125.57253 -51.938826)
(-466.98755 -139.58654 -58.96321)
(-477.64878 -152.98533 -63.305591)
(-496.39347 -164.26992 -64.732989)
(-524.3354 -172.73139 -62.66598)
(-560.79096 -177.2264 -56.929259)
(-605.1137 -176.98153 -47.723312)
(-656.15485 -171.722 -35.114835)
(-711.34526 -161.37743 -19.934596)
(-768.22497 -145.80202 -2.7225241)
(-824.08083 -126.30474 15.538292)
(-875.71563 -103.28189 33.83093)
(-920.38572 -78.192075 50.805574)
(-955.00741 -52.629245 66.011476)
(-977.62706 -27.977597 77.804767)
(-986.62321 -5.7810987 85.828305)
(-981.08066 12.702201 89.562283)
(-960.73214 25.680692 88.31031)
(-925.95814 32.75747 82.686881)
(-878.69559 33.261014 72.801168)
(-821.22911 26.809994 59.134475)
(-755.78783 14.024579 42.708854)
(-685.95026 -4.122412 24.716723)
(-615.2071 -27.174613 6.3487162)
(-547.06237 -53.236179 -11.288737)
(-484.09506 -80.787653 -26.806751)
(-429.75499 -108.20206 -38.992548)
(-385.95167 -133.74216 -47.077419)
(-354.18403 -155.94763 -50.308357)
(-335.06177 -173.60553 -48.404472)
(-328.32611 -185.78188 -41.357058)
(-332.89133 -191.97463 -29.532183)
(-346.90371 -192.09514 -13.612205)
(-367.8809 -186.483 5.4382753)
(-392.88182 -175.87872 26.437184)
(-418.70978 -161.36227 48.062793)
(-442.13555 -144.28185 68.946828)
(-460.10968 -126.15004 87.758787)
(-469.97351 -108.54849 103.30584)
(-469.6328 -93.006893 114.60386)
(-457.69589 -80.904232 120.94765)
(-433.55523 -73.37497 121.96019)
(-397.43616 -71.227842 117.60849)
(-350.34313 -74.878884 108.21104)
(-294.04694 -84.383638 94.403194)
(-230.84057 -99.28598 77.149638)
(-163.62148 -118.87716 57.455625)
(-95.264784 -142.16673 36.905186)
(-29.050885 -167.39063 16.489709)
(32.156282 -193.52898 -2.712164)
(85.622573 -219.16426 -18.497584)
(129.48002 -242.51182 -31.382775)
(161.7619 -262.25152 -38.820084)
(182.31935 -277.52686 -41.982305)
(191.16081 -287.16875 -40.095476)
(188.99608 -290.91391 -33.490234)
(177.4145 -288.64128 -22.690551)
(158.61871 -280.62753 -8.5204647)
(135.22421 -267.51865 7.9840842)
(110.10543 -250.21017 25.723764)
(86.262178 -229.89808 43.494143)
(66.491301 -207.88339 60.154175)
(53.442706 -185.54111 74.635738)
(49.092717 -164.38009 86.185761)
(55.158354 -145.51911 94.045989)
(72.104893 -130.01796 97.876906)
(100.43986 -118.88318 97.688673)
(139.39852 -112.9103 93.871134)
(188.05039 -112.00078 86.670845)
(244.55582 -116.20908 76.837189)
(306.52357 -124.94679 65.134207)
(371.84235 -137.59635 52.512206)
(437.64404 -153.20841 39.843905)
(501.39047 -170.64591 28.218421)
(561.61167 -188.88409 17.753766)
(615.47242 -207.25124 9.7177952)
(663.04469 -223.64512 2.7193576)
(705.24696 -241.66571 -2.2739993)
(-37.635133 -19.912444 -38.23704)
(-94.055309 -27.880435 -37.270233)
(-153.96454 -41.122779 -36.810265)
(-211.31931 -49.408773 -31.610057)
(-267.38974 -55.30254 -24.42222)
(-319.06333 -58.951675 -17.540982)
(-365.02447 -59.999883 -10.916358)
(-404.56261 -60.174493 -5.5293086)
(-436.02115 -59.404379 -1.5926448)
(-459.3349 -59.138275 -0.11028159)
(-474.66026 -59.499911 -0.16971705)
(-482.2744 -61.582113 -2.8990226)
(-483.49592 -65.364798 -7.0998741)
(-479.552 -71.41812 -13.244919)
(-472.63627 -79.472605 -20.152704)
(-464.63376 -89.324255 -28.027591)
(-458.22663 -100.32059 -35.375107)
(-455.12635 -111.88037 -42.329385)
(-457.84089 -123.06164 -47.576431)
(-467.64605 -133.00667 -51.015955)
(-486.14889 -140.74806 -51.919669)
(-513.51307 -145.45364 -50.082733)
(-549.95218 -146.48073 -45.298728)
(-594.45369 -143.34146 -37.670774)
(-645.66647 -135.85467 -27.3479)
(-701.44303 -124.26196 -14.881494)
(-759.2982 -108.91326 -0.83453829)
(-816.31169 -90.492149 13.980708)
(-869.53347 -70.050716 28.746934)
(-915.68231 -48.832906 42.772366)
(-952.33582 -28.03864 54.851832)
(-976.9589 -9.0831305 64.483549)
(-987.80634 6.7617098 71.068746)
(-984.045 18.392541 74.039115)
(-965.14161 24.680879 73.309023)
(-931.9749 25.440659 68.752933)
(-886.01845 20.246217 60.681638)
(-829.175 9.2992971 49.76762)
(-764.19389 -6.7249622 36.617848)
(-694.55653 -26.989238 22.100027)
(-623.32423 -50.364369 7.4778632)
(-554.10132 -75.344906 -6.8204944)
(-490.28623 -100.54574 -18.766383)
(-434.44906 -124.40093 -28.363372)
(-389.06532 -145.49325 -34.522329)
(-355.62449 -162.73466 -36.7798)
(-334.88643 -175.21197 -34.822075)
(-326.70005 -182.38682 -28.709861)
(-330.08447 -184.096 -18.727284)
(-343.27595 -180.56998 -5.4473515)
(-363.85482 -172.39848 10.340252)
(-388.92001 -160.50431 27.665598)
(-415.28374 -146.05459 45.448124)
(-439.69202 -130.39707 62.567884)
(-459.04315 -114.94892 77.938566)
(-470.60042 -101.11303 90.587593)
(-472.16864 -90.16354 99.709907)
(-462.23868 -83.18226 104.73871)
(-440.08891 -80.95469 105.36499)
(-405.80774 -83.949059 101.57361)
(-360.31488 -92.252218 93.627593)
(-305.2437 -105.60585 82.069929)
(-242.87881 -123.35185 67.660932)
(-175.96178 -144.59465 51.286061)
(-107.56545 -168.21892 34.267188)
(-40.612294 -192.41052 16.909135)
(21.355196 -216.8466 2.0580816)
(76.388933 -239.59938 -11.737894)
(122.03496 -258.69951 -22.115668)
(156.43949 -273.61339 -28.882578)
(178.84438 -283.75974 -31.653657)
(189.45369 -288.36492 -30.433289)
(188.68935 -287.41744 -25.292999)
(178.17299 -281.20474 -16.707054)
(159.90141 -270.23052 -5.3397751)
(136.46912 -255.32012 8.0249013)
(110.74554 -237.54772 22.418862)
(85.710946 -218.08688 36.896631)
(64.2866 -198.22472 50.528919)
(49.130234 -179.20884 62.432352)
(42.387297 -162.22945 71.958345)
(45.82557 -148.3309 78.596491)
(60.315189 -138.30813 81.864486)
(86.222258 -133.19904 81.853689)
(123.26644 -131.86801 78.501145)
(169.86241 -135.60632 72.639323)
(224.8341 -143.79626 64.65532)
(285.81351 -155.8035 55.152629)
(350.41488 -170.89767 44.809186)
(416.19366 -188.26374 34.449014)
(480.15236 -206.48776 24.664782)
(540.69972 -225.57282 15.605741)
(595.50389 -244.26054 8.4827912)
(643.17493 -260.55462 1.0403819)
(686.07776 -279.33502 -3.5589414)
(-36.484357 -13.029067 -29.286372)
(-91.264989 -18.062619 -27.963845)
(-147.97498 -26.023708 -29.706904)
(-205.35764 -31.275124 -25.778361)
(-261.143 -35.723778 -21.047484)
(-312.83463 -38.530766 -15.654067)
(-359.55579 -40.259471 -10.456941)
(-398.73699 -40.75636 -6.1391415)
(-430.47172 -41.387121 -3.4388629)
(-453.86026 -41.793468 -1.6548267)
(-468.94989 -43.572539 -2.112757)
(-476.24652 -46.100006 -3.6992939)
(-477.07327 -50.699379 -7.0944012)
(-472.73197 -56.553187 -11.340294)
(-465.1937 -64.266003 -16.850658)
(-456.84833 -72.94411 -22.299702)
(-449.65348 -82.558908 -28.027721)
(-446.13733 -92.029803 -32.905527)
(-448.27901 -100.91115 -36.81348)
(-457.77721 -108.2152 -39.135941)
(-475.77983 -113.23007 -39.628383)
(-502.95568 -115.36173 -37.903898)
(-539.16671 -114.01761 -34.005933)
(-583.6889 -109.02188 -27.889769)
(-635.08824 -100.25564 -19.792101)
(-691.22896 -88.102749 -10.031031)
(-749.60159 -72.92828 0.85893291)
(-807.29161 -55.69727 12.38365)
(-861.20219 -37.250576 23.915143)
(-908.43418 -18.845456 34.644352)
(-946.0819 -1.6187558 44.076523)
(-971.77682 13.192669 51.595208)
(-983.91199 24.538346 56.625136)
(-981.28507 31.454778 58.985426)
(-963.66322 33.345029 58.308725)
(-931.6339 29.890176 54.795378)
(-886.49372 21.005476 48.766392)
(-830.48573 7.0965085 40.482258)
(-766.21128 -11.142162 30.361066)
(-696.70239 -32.535244 19.479939)
(-625.53737 -56.12448 8.1878523)
(-556.15572 -80.375696 -2.2784684)
(-491.79449 -103.86027 -11.428238)
(-435.36195 -125.41559 -18.331564)
(-389.15318 -143.73247 -22.697593)
(-354.80337 -157.8192 -23.919957)
(-333.1041 -167.08808 -21.893762)
(-323.98347 -171.20265 -16.618673)
(-326.52307 -170.23385 -8.356734)
(-339.01937 -164.59753 2.4429458)
(-359.11369 -155.04172 15.145447)
(-383.94681 -142.58722 28.984513)
(-410.35967 -128.44932 43.102391)
(-435.10925 -113.96344 56.619457)
(-455.08609 -100.47687 68.68057)
(-467.52531 -89.267852 78.524146)
(-470.18497 -81.447958 85.525183)
(-461.50251 -77.895342 89.245698)
(-440.67336 -79.179478 89.45504)
(-407.73073 -85.549035 86.151669)
(-363.4924 -96.875462 79.564741)
(-309.53925 -112.72422 70.126716)
(-248.10345 -132.26441 58.42824)
(-181.80644 -154.59141 45.315252)
(-113.90054 -178.25966 31.389037)
(-46.737359 -202.19861 17.955915)
(15.265116 -225.02985 5.2119006)
(70.428582 -244.95814 -5.9332331)
(117.21315 -261.49532 -13.742929)
(152.42761 -273.82901 -19.002116)
(175.9164 -280.98344 -21.144343)
(187.46326 -282.9817 -20.062108)
(187.62564 -279.75945 -15.970067)
(177.85895 -271.75502 -9.2332981)
(160.18177 -259.56145 -0.29686251)
(137.06324 -244.25025 10.014154)
(111.3146 -226.81017 21.144471)
(85.897698 -208.52259 32.229537)
(63.711793 -190.58358 42.599818)
(47.430147 -174.20604 51.568782)
(39.266191 -160.41196 58.664928)
(41.050121 -150.12314 63.389534)
(53.576306 -143.89078 65.834833)
(77.629963 -142.63641 65.623996)
(112.74263 -145.93594 63.011335)
(157.68233 -152.93212 58.286794)
(211.10666 -164.50331 52.264409)
(270.6305 -179.32064 44.800457)
(334.30299 -196.85396 37.094989)
(399.21344 -215.94391 28.913219)
(462.71157 -235.85335 21.590946)
(523.31241 -255.93161 14.267778)
(577.97903 -275.53631 8.4112186)
(625.74081 -292.35639 1.9100257)
(668.86622 -311.16821 -3.1730781)
(-37.453238 -9.9676939 -20.95382)
(-89.230335 -11.865454 -22.15736)
(-144.45858 -16.445818 -23.368845)
(-200.52107 -19.404427 -21.205168)
(-255.60166 -21.719834 -17.476334)
(-307.61729 -23.775661 -13.470815)
(-353.54879 -24.128748 -9.606964)
(-392.93396 -24.578244 -6.735404)
(-424.59534 -24.409123 -4.0085776)
(-447.64286 -24.986144 -3.1633785)
(-462.44367 -26.095841 -2.8444146)
(-469.51958 -28.519473 -4.1318666)
(-469.96467 -32.303257 -5.9966564)
(-465.08895 -37.451516 -9.2396065)
(-457.41067 -44.068813 -12.485902)
(-448.38782 -51.454291 -16.49352)
(-441.00735 -59.495261 -20.09106)
(-437.09081 -67.264551 -23.421492)
(-439.00072 -74.3075 -25.875712)
(-448.15869 -79.708128 -27.327581)
(-466.09728 -82.970987 -27.33319)
(-493.09156 -83.387938 -25.927026)
(-529.34831 -80.661789 -22.905218)
(-573.85171 -74.552009 -18.352638)
(-625.30207 -65.15188 -12.362615)
(-681.54439 -52.786091 -5.240722)
(-740.0748 -38.016453 2.7374023)
(-797.942 -21.64026 11.12708)
(-852.1892 -4.6399574 19.451162)
(-899.67726 11.894969 27.283398)
(-937.71872 26.814145 34.13325)
(-963.91267 39.060497 39.546543)
(-976.4949 47.606198 43.242362)
(-974.38281 51.74393 44.938312)
(-957.309 50.89562 44.539087)
(-925.82037 44.909649 42.142637)
(-881.10929 33.876538 37.783513)
(-825.4131 18.418538 31.620301)
(-761.48109 -0.7501414 24.588614)
(-692.54044 -22.896605 16.704726)
(-621.85455 -46.476205 8.9594504)
(-552.82165 -70.264123 1.6347956)
(-488.75892 -92.960023 -4.4858719)
(-432.53188 -113.25782 -9.072486)
(-386.37578 -130.10349 -11.641684)
(-351.91486 -142.62755 -11.912016)
(-329.97523 -150.35615 -9.7719051)
(-320.49243 -153.08259 -5.2549533)
(-322.57586 -150.98228 1.4265979)
(-334.56232 -144.56923 9.9263074)
(-354.13335 -134.65787 19.753125)
(-378.47291 -122.30703 30.328079)
(-404.46889 -108.74282 41.003099)
(-428.91777 -95.277693 51.121783)
(-448.74498 -83.206124 60.043079)
(-461.20901 -73.732763 67.208326)
(-464.08442 -67.868925 72.156344)