/*--------------------------------*- C++ -*----------------------------------*\
  =========                 |
  \\      /  F ield         | OpenFOAM: The Open Source CFD Toolbox
   \\    /   O peration     | Website:  https://openfoam.org
    \\  /    A nd           | Version:  6
     \\/     M anipulation  |
\*---------------------------------------------------------------------------*/
FoamFile
{
    version     2.0;
    format      ascii;
    class       pointVectorField;
    location    "1.81";
    object      u;
}
// * * * * * * * * * * * * * * * * * * * * * * * * * * * * * * * * * * * * * //

dimensions      [0 1 0 0 0 0 0];

internalField   nonuniform List<vector> 
625
(
(0 0 0)
(0 0 0)
(0.072864694 0.017303027 -0.025611867)
(0.071895816 -0.029854365 -0.026038907)
(0 0 0)
(0 0 0)
(0.072905144 -0.019475476 -0.026557643)
(0.073940671 0.027410682 -0.025714291)
(0 0 0)
(0 0 0)
(0 0 0)
(0.072313834 0.0046080919 -0.026569876)
(0.071575015 -0.0062564382 -0.02594216)
(0.071676384 -0.017141467 -0.026085211)
(-0.00037376753 -0.00088685337 -0.00063210723)
(-0.0016807118 -0.0016036122 -0.00021913456)
(-0.0034661438 -0.0021640498 0.00052474447)
(-0.0055946568 -0.0026855486 0.0012214987)
(-0.0079647341 -0.0028479735 0.0019101507)
(-0.010257278 -0.0030675392 0.0025662168)
(-0.012562508 -0.0028337737 0.0030068151)
(-0.014506624 -0.0026603727 0.0033572759)
(-0.016189187 -0.0020596072 0.0034512385)
(-0.017202262 -0.0014292782 0.0032906635)
(-0.017686931 -0.00044698553 0.0028787972)
(-0.017285849 0.00061353286 0.0021690039)
(-0.016064084 0.0019828938 0.0011562721)
(-0.013761017 0.0034238713 -0.00016396302)
(-0.010409871 0.0051448281 -0.0017897572)
(-0.0058149255 0.0068272345 -0.0036642232)
(-5.623961e-05 0.0088244984 -0.0058848276)
(0.0070345192 0.010561966 -0.0081854233)
(0.015351209 0.012505101 -0.010872284)
(0.024787421 0.014194871 -0.013568424)
(0.035452745 0.01566218 -0.016335989)
(0.047023208 0.016957494 -0.019325131)
(0.059051549 0.017540671 -0.021998751)
(-0.00050342599 0.0013713406 0.0015233011)
(-0.0019156673 0.0024626028 0.0014130016)
(-0.0037197422 0.0034118381 0.0015681796)
(-0.0055846789 0.0038402482 0.0018139448)
(-0.0078544109 0.0041025723 0.0018628708)
(-0.0099949352 0.0037965886 0.0020123441)
(-0.012167062 0.0033595261 0.0018909564)
(-0.014013428 0.0023865594 0.0017276394)
(-0.015538351 0.001243986 0.0012845536)
(-0.016555477 -0.00027644325 0.00066191404)
(-0.01693184 -0.0020466679 -0.00021454769)
(-0.016590978 -0.0040542386 -0.0013413437)
(-0.015346036 -0.0062733427 -0.0027104783)
(-0.013171243 -0.0086884811 -0.0043323707)
(-0.0098962208 -0.011191159 -0.0061572359)
(-0.0055104572 -0.013815766 -0.0082083271)
(9.7089236e-05 -0.016442167 -0.010372307)
(0.0069181122 -0.01905612 -0.012707422)
(0.01499741 -0.02155365 -0.015055155)
(0.024254973 -0.023922572 -0.017485927)
(0.034721952 -0.0260044 -0.019819535)
(0.046164675 -0.027759218 -0.022138915)
(0.058355805 -0.029103782 -0.02435604)
(0 0 0)
(0 0 0)
(0 0 0)
(-0.00037880118 0.0005272941 -0.00082374499)
(-0.0016186202 0.0018213302 -0.00040516241)
(-0.0033993454 0.0022549868 0.00036954256)
(-0.0055839519 0.0028246848 0.0010743289)
(-0.0078004851 0.0031169919 0.0017051553)
(-0.010109116 0.0033544823 0.0022491626)
(-0.012352575 0.0032575808 0.0026848697)
(-0.014208499 0.0030319702 0.0029366539)
(-0.015829043 0.0026362249 0.0029863333)
(-0.016799125 0.0019490269 0.0028188822)
(-0.017261968 0.001230892 0.0023103899)
(-0.016802891 6.2290687e-05 0.001627462)
(-0.01559713 -0.0010440965 0.0005430253)
(-0.013283636 -0.002580873 -0.00075680948)
(-0.009962669 -0.0041343466 -0.0023885189)
(-0.005437903 -0.0059629215 -0.0042805371)
(0.00027879137 -0.0078622808 -0.0064330128)
(0.007263251 -0.0099046573 -0.0088019419)
(0.015437733 -0.011931491 -0.011393091)
(0.024925776 -0.013993888 -0.014129756)
(0.035374632 -0.015826984 -0.017028186)
(0.047075445 -0.017560374 -0.020015948)
(0.059307781 -0.018854385 -0.023082802)
(0.072874126 -0.0064577385 -0.02639291)
(0.07230305 0.0038860206 -0.026058135)
(0.073440187 0.014532805 -0.025319524)
(0.060428408 0.027671185 -0.02402616)
(0.04796457 0.026813105 -0.021739889)
(0.036420811 0.025625032 -0.019428032)
(0.025852463 0.023987157 -0.017038383)
(0.016407665 0.021980015 -0.014613951)
(0.0081939813 0.019693422 -0.012219571)
(0.0012088748 0.01727582 -0.0098771768)
(-0.0044913789 0.014680563 -0.007661317)
(-0.0090114323 0.012138252 -0.0056127437)
(-0.012338753 0.0095648171 -0.0037620278)
(-0.01462444 0.0071454869 -0.002158595)
(-0.015883835 0.0048393083 -0.00079551896)
(-0.016318664 0.0027758575 0.00029198334)
(-0.015960447 0.00088193111 0.0011356772)
(-0.015037673 -0.00059373689 0.0016632155)
(-0.013505658 -0.0019512329 0.0020837734)
(-0.011690391 -0.002892679 0.0022313837)
(-0.0096301914 -0.0034570933 0.0021620111)
(-0.0074932443 -0.0037501963 0.0020617293)
(-0.0053481909 -0.0036749947 0.0018610732)
(-0.0034461182 -0.0031964748 0.0015998025)
(-0.0018466616 -0.0024359377 0.0012853482)
(-0.0010570794 -0.0013624294 0.0008201095)
(0 0 0)
(0 0 0)
(0 0 0)
(0 0 0)
(0 0 0)
(0 0 0)
(0.072079455 -0.027670371 -0.026374036)
(0.072535409 -0.025062866 -0.02618403)
(0.072656592 -0.022669084 -0.026371319)
(0.073404213 0.020442756 -0.025590155)
(0.07373534 0.022731091 -0.025677195)
(0.073937735 0.025455532 -0.02576256)
(-0.00012578831 -0.00012484779 -0.00020647444)
(-0.0014917609 -0.00023340616 0.00033436285)
(-0.0033215602 -0.00044139725 0.00086319549)
(-0.0055321302 -0.00063928278 0.0013999149)
(-0.0079031644 -0.00074988028 0.0019575694)
(-0.010316657 -0.00092685014 0.0024247094)
(-0.012675707 -0.0009294556 0.0027443522)
(-0.014682451 -0.00097700068 0.0029284427)
(-0.016431376 -0.00088090342 0.0028874319)
(-0.017519129 -0.0007682847 0.0026075053)
(-0.018072738 -0.00052159078 0.0020713703)
(-0.017760372 -0.00022082358 0.0012629362)
(-0.016598487 0.00018930084 0.00015521436)
(-0.014380347 0.00068126035 -0.001228519)
(-0.01108566 0.0012317288 -0.0028869583)
(-0.0065727034 0.0019072767 -0.0048323209)
(-0.00084777241 0.0025537685 -0.0069733584)
(0.0061904159 0.0032349977 -0.0093295699)
(0.014466059 0.0039839246 -0.011916179)
(0.023992309 0.0044708122 -0.014469552)
(0.034742499 0.004929476 -0.017378499)
(0.046390713 0.0053112118 -0.020157623)
(0.05903757 0.0048475688 -0.023079652)
(-0.00012655873 0.00030760272 0.00034992391)
(-0.0014586364 0.00050699223 0.00068530208)
(-0.0032954802 0.0006362607 0.0010692844)
(-0.0054302948 0.00064258251 0.0014640788)
(-0.0078166657 0.00062430447 0.0018490051)
(-0.010200527 0.00041758402 0.0021691445)
(-0.0125031 0.00027951245 0.0022982807)
(-0.014532174 -0.00012212718 0.0023832088)
(-0.016236419 -0.00037848259 0.0021304784)
(-0.017348615 -0.00086074366 0.0017699598)
(-0.017893251 -0.0012315429 0.0010802308)
(-0.01759042 -0.0017223424 0.00016668834)
(-0.016452923 -0.002160138 -0.0010321621)
(-0.014264988 -0.002636966 -0.0024870133)
(-0.011015417 -0.0030517179 -0.0042140493)
(-0.0065466534 -0.0034990838 -0.00614881)
(-0.00087695348 -0.003896771 -0.0082947503)
(0.0060976855 -0.0042439002 -0.010641514)
(0.014337755 -0.0046298008 -0.013045678)
(0.023786961 -0.0049578279 -0.01561917)
(0.034471748 -0.005222445 -0.018217674)
(0.046154014 -0.0056570481 -0.020719178)
(0.058891064 -0.0058678087 -0.023355755)
(-0.000148019 0.00066891054 0.00075113402)
(-0.0015466279 0.001128294 0.0010915918)
(-0.0033834767 0.0016625685 0.0013238536)
(-0.0055006942 0.0019169883 0.0016580271)
(-0.0078253442 0.0019710365 0.0019225003)
(-0.010183321 0.0018551715 0.0020696831)
(-0.012410474 0.0014312505 0.0021849314)
(-0.014440403 0.00090437839 0.0020459685)
(-0.016081282 0.00012780207 0.0017781329)
(-0.0171827 -0.00080911768 0.0012641027)
(-0.017708259 -0.00185381 0.00048462838)
(-0.017391316 -0.0030811638 -0.00050894365)
(-0.016260717 -0.0043683523 -0.0017991527)
(-0.014082669 -0.0057321014 -0.0033287922)
(-0.010853664 -0.007177491 -0.0050863769)
(-0.0064167177 -0.008602202 -0.0070752957)
(-0.00080612472 -0.010032842 -0.0092480469)
(0.0061522025 -0.011435651 -0.011540555)
(0.014270877 -0.012745484 -0.013984058)
(0.023754467 -0.013943145 -0.016430261)
(0.034330194 -0.015090675 -0.018957666)
(0.046020066 -0.01591353 -0.021439219)
(0.058567186 -0.016552512 -0.023835111)
(0 0 0)
(0 0 0)
(0 0 0)
(0 0 0)
(0 0 0)
(0 0 0)
(0 0 0)
(0 0 0)
(0 0 0)
(-0.00092896358 0.00058897249 0.00059014368)
(-0.00094095869 0.00066097643 0.00015169012)
(-0.00077299737 0.00047795889 -0.00030100176)
(-0.0023630829 0.0023950635 0.00096273984)
(-0.0022317401 0.0021631871 0.00053435669)
(-0.0020773981 0.0020112586 -1.5431571e-05)
(-0.0037924592 0.0030781287 0.001232651)
(-0.0037781955 0.0028265147 0.00085349541)
(-0.0036977515 0.0027809198 0.00062105003)
(-0.005749685 0.0036277685 0.0016043594)
(-0.0058093978 0.0034512333 0.0014039957)
(-0.0056981581 0.0033273902 0.0012408012)
(-0.0078638655 0.003863882 0.0018731998)
(-0.0078317727 0.003701199 0.0018198072)
(-0.007830467 0.0035645942 0.0017984172)
(-0.0099790522 0.0037531355 0.0021289754)
(-0.0099990442 0.0036478776 0.0021892088)
(-0.01003575 0.0036567638 0.0022513732)
(-0.01202599 0.0033290073 0.0021982286)
(-0.011988704 0.0033875504 0.002426864)
(-0.012092107 0.0035084609 0.0026423038)
(-0.013771109 0.0026373467 0.0021663404)
(-0.013838938 0.0028517119 0.002474197)
(-0.013905476 0.0030713682 0.002766765)
(-0.015253192 0.0016489306 0.0018682996)
(-0.015230591 0.0019932218 0.0023055769)
(-0.015371059 0.0024558234 0.0027415951)
(-0.016121935 0.00031864783 0.0013711384)
(-0.016113305 0.00092715059 0.0019411029)
(-0.016274974 0.0015614188 0.0024752509)
(-0.016484012 -0.0011259287 0.00062100507)
(-0.016445837 -0.00031541827 0.0012698036)
(-0.016634664 0.00053307472 0.0019072028)
(-0.015975545 -0.0029749738 -0.00040293729)
(-0.015926394 -0.0019429427 0.00036706662)
(-0.016123971 -0.0008334021 0.0011055992)
(-0.014716311 -0.004881283 -0.0016804071)
(-0.014634146 -0.0035739257 -0.0008516912)
(-0.014828833 -0.002294779 -2.187376e-05)
(-0.012408349 -0.0070900577 -0.0032330245)
(-0.012295466 -0.0056102897 -0.002317354)
(-0.012505422 -0.0040397245 -0.0014181621)
(-0.0090968027 -0.0093716306 -0.0050110221)
(-0.0089648035 -0.007613575 -0.004065127)
(-0.0091344765 -0.0058990776 -0.003095953)
(-0.0046288493 -0.01180025 -0.0070300891)
(-0.004447314 -0.0098992099 -0.0060408897)
(-0.0046234853 -0.0079471188 -0.0050367167)
(0.00099850843 -0.014275658 -0.0092056273)
(0.0011927902 -0.012158342 -0.0082332822)
(0.0010725396 -0.010077923 -0.0072164262)
(0.0078691586 -0.016776298 -0.011571177)
(0.0081165715 -0.014547484 -0.010607344)
(0.0080164714 -0.012296216 -0.0095840484)
(0.01590672 -0.019193474 -0.013989962)
(0.016154748 -0.016801206 -0.013088493)
(0.016107316 -0.01448942 -0.012147351)
(0.025176749 -0.021515944 -0.016515487)
(0.025477309 -0.019102561 -0.015713411)
(0.025480915 -0.016667471 -0.014822518)
(0.03550132 -0.023631628 -0.019020066)
(0.035758028 -0.021054276 -0.018335502)
(0.035825191 -0.018597119 -0.017607382)
(0.046865917 -0.025395665 -0.0215032)
(0.047185453 -0.022857823 -0.020976595)
(0.047317578 -0.020398737 -0.020476502)
(0.058977656 -0.026904704 -0.023957367)
(0.059186415 -0.024246068 -0.02372534)
(0.059449574 -0.021657204 -0.023400593)
(0.072982384 0.0076306031 -0.025899914)
(0.073309447 0.010173327 -0.025817446)
(0.073434185 0.012658458 -0.025630786)
(0.071894418 -0.0035764802 -0.025793514)
(0.072315587 -0.0012073768 -0.025913715)
(0.072301938 0.0013896271 -0.026004145)
(0.072075213 -0.014747862 -0.026262617)
(0.072484841 -0.012120665 -0.026156582)
(0.072570451 -0.0094797765 -0.026235189)
(-0.00093011274 -0.00101407 -0.00025461121)
(-0.0010638989 -0.0010982665 4.902739e-05)
(-0.0011185987 -0.0011296271 0.00031054749)
(-0.0021083509 -0.0019446479 0.00018617573)
(-0.0021679582 -0.0021164142 0.00050065943)
(-0.0022261957 -0.0020728885 0.00091750921)
(-0.003741348 -0.0026443645 0.00078635001)
(-0.0037518189 -0.0028094438 0.00098602154)
(-0.0037163142 -0.0028477854 0.0013677253)
(-0.0057519009 -0.00311134 0.0014333515)
(-0.0056533533 -0.0033342318 0.0015801706)
(-0.0055944919 -0.0033501893 0.0017559119)
(-0.007862231 -0.0033787738 0.0020287339)
(-0.0077673467 -0.003417409 0.0020332244)
(-0.007642824 -0.0034948893 0.0020795957)
(-0.010078941 -0.0033843621 0.0025843589)
(-0.0098719222 -0.0034326517 0.0024776044)
(-0.0097539751 -0.0033146366 0.0023623153)
(-0.012212775 -0.0031000085 0.0029622581)
(-0.011960928 -0.002976837 0.0027564657)
(-0.011739095 -0.002869847 0.0025519796)
(-0.014038699 -0.0027051738 0.0031995268)
(-0.013690065 -0.0024478978 0.0029129679)
(-0.013517292 -0.0020993397 0.0025099612)
(-0.015531309 -0.0019115327 0.0032082796)
(-0.015196136 -0.0014407455 0.0027730791)
(-0.01493735 -0.00101715 0.0022664283)
(-0.016471976 -0.0010305022 0.0029528375)
(-0.016048662 -0.00034897053 0.0024537655)
(-0.015799328 0.00028121425 0.001825173)
(-0.016811637 0.00015930719 0.0024385079)
(-0.01638862 0.0010769124 0.0018436634)
(-0.016110764 0.0018851975 0.0010975013)
(-0.016346463 0.0015259416 0.0016427329)
(-0.015882375 0.0026527899 0.00095627888)
(-0.015593841 0.003705637 9.0857068e-05)
(-0.015019222 0.0031313083 0.00053432877)
(-0.014538127 0.0045053181 -0.00022867672)
(-0.014253044 0.0057465273 -0.0011911939)
(-0.012660296 0.0048755538 -0.0008765189)
(-0.012188427 0.0064614691 -0.0016959415)
(-0.011917118 0.0079316071 -0.0027498478)
(-0.0092548892 0.006815919 -0.002555144)
(-0.008785987 0.0086098703 -0.0034415943)
(-0.0085007557 0.010258337 -0.0045538778)
(-0.0046473902 0.008786677 -0.0045428225)
(-0.0041884634 0.010766923 -0.0054367057)
(-0.003960304 0.012635858 -0.0066039877)
(0.001118356 0.010928679 -0.0067199371)
(0.0015412376 0.013048635 -0.0076385575)
(0.0018132405 0.01503049 -0.0088212481)
(0.0081896353 0.012894667 -0.0091310042)
(0.0086112811 0.015162971 -0.010064827)
(0.0087818808 0.017367694 -0.011216446)
(0.016408997 0.014949408 -0.011751448)
(0.016763683 0.017313816 -0.012532091)
(0.016989516 0.019573538 -0.013682575)
(0.025824027 0.016765383 -0.01430608)
(0.026198372 0.019202461 -0.015240994)
(0.026403738 0.021544106 -0.016207912)
(0.036422626 0.01832256 -0.017161266)
(0.036779582 0.020754421 -0.017888749)
(0.036900179 0.023219 -0.018722567)
(0.047858853 0.019433048 -0.020082625)
(0.048072217 0.022140654 -0.020525674)
(0.048294021 0.024541971 -0.021201195)
(0.060155414 0.020619542 -0.02256989)
(0.060375259 0.023040547 -0.02313013)
(0.060658714 0.025415465 -0.023379542)
(-0.00031555604 -0.00034684151 0.00069775777)
(-0.0016134024 -0.0013553764 0.00091562309)
(-0.0031811098 -0.0015834989 0.0012670878)
(-0.0052492188 -0.0017923375 0.0015868291)
(-0.0075089129 -0.0017213264 0.0018712918)
(-0.0097879571 -0.0014757001 0.0020811063)
(-0.011971348 -0.0010267436 0.0021903655)
(-0.013916819 -0.00032276066 0.0020927875)
(-0.015526718 0.00055416356 0.0018271603)
(-0.016581277 0.0015459356 0.001344956)
(-0.017042609 0.0027843202 0.00058735542)
(-0.016692868 0.0040737082 -0.00042139239)
(-0.015502263 0.0054836109 -0.0016795011)
(-0.013287436 0.0069388666 -0.0032146804)
(-0.0099954895 0.0084122392 -0.0049724228)
(-0.0055193693 0.0098496903 -0.0069622668)
(0.00017403057 0.011228427 -0.0091152102)
(0.0071682005 0.012457474 -0.011433575)
(0.015387579 0.013532525 -0.013819787)
(0.024915681 0.014389532 -0.016292653)
(0.035574658 0.014934787 -0.018719268)
(0.047243617 0.015233845 -0.021139097)
(0.060016479 0.014875657 -0.023294233)
(-0.00012057904 -0.00024920009 0.00015296533)
(-0.0014310072 -0.00066047641 0.00064511461)
(-0.0031546731 -0.00054571358 0.00099321175)
(-0.005327604 -0.0005650585 0.001418789)
(-0.0076260493 -0.00041501407 0.0018171815)
(-0.0099656503 -0.00020540608 0.0021436348)
(-0.012218622 0.00014697084 0.0022849746)
(-0.014212657 0.00044981179 0.0023820662)
(-0.015869769 0.00098845279 0.0021341609)
(-0.016939662 0.0013731844 0.0017884826)
(-0.017450002 0.0019987822 0.0010934885)
(-0.01709607 0.0024672766 0.00019190959)
(-0.015938159 0.0030581703 -0.0010084523)
(-0.013693391 0.0035318505 -0.0024690297)
(-0.010407694 0.0040459527 -0.0041885885)
(-0.0059038678 0.0044054619 -0.0061419793)
(-0.00017576876 0.0047710433 -0.0082942443)
(0.0068441544 0.0049359928 -0.010640594)
(0.015131506 0.005085059 -0.013079365)
(0.024696089 0.0050317356 -0.015655706)
(0.035453033 0.004958799 -0.018267169)
(0.047190875 0.0045784404 -0.020901488)
(0.060333032 0.0044227343 -0.023526102)
(6.7925261e-05 0.00011360763 -0.00012276087)
(-0.0014384757 0.00014006567 0.00019717001)
(-0.0032272361 0.00053498163 0.00056895172)
(-0.0054311108 0.0008037887 0.0011833479)
(-0.0077278057 0.0010290784 0.0016806599)
(-0.010069185 0.0012802277 0.0020851117)
(-0.01236532 0.0014291941 0.0024188562)
(-0.014336516 0.0015170385 0.0025456961)
(-0.016016343 0.0016160001 0.0024594749)
(-0.017062388 0.0015147818 0.0021998099)
(-0.017587142 0.0014678733 0.0016155842)
(-0.01722538 0.0012467859 0.00080569699)
(-0.016048866 0.00094799924 -0.00029642106)
(-0.013818464 0.00058195716 -0.0016900782)
(-0.010522427 4.8429934e-05 -0.0033311793)
(-0.006028203 -0.00053233439 -0.0052392245)
(-0.00030707275 -0.0012598021 -0.0073740409)
(0.0066959294 -0.0020485805 -0.0097056985)
(0.014946533 -0.0029104773 -0.012194468)
(0.024515658 -0.0038046766 -0.014853112)
(0.035099949 -0.0046892918 -0.017559469)
(0.04700369 -0.0054784266 -0.020442025)
(0.059419198 -0.0060824643 -0.023197558)
(-0.00035463742 -0.00016825234 -4.4298234e-05)
(-0.00042204723 -0.00022562469 0.00011665829)
(-0.00054712959 -0.00023668213 0.0002940047)
(-0.0018608514 -0.00062043907 0.0004556887)
(-0.0018608814 -0.00079589511 0.00056233024)
(-0.0018660905 -0.00083562849 0.00084520638)
(-0.0035126865 -0.0009661945 0.00095050661)
(-0.003525726 -0.0010523967 0.0010908233)
(-0.003479389 -0.0012873899 0.0011713375)
(-0.0055847635 -0.0011290407 0.0014971014)
(-0.0055750885 -0.0012957933 0.0015285111)
(-0.0054574512 -0.0014564233 0.0015861653)
(-0.0078479852 -0.0012817569 0.0019869738)
(-0.0077476807 -0.0013398272 0.0019565275)
(-0.0076536211 -0.0015083476 0.0019776131)
(-0.010100871 -0.00126366 0.0024329285)
(-0.0099764321 -0.0012815387 0.0023681628)
(-0.0098531436 -0.0013565182 0.0022506879)
(-0.012316127 -0.0012167673 0.0027048126)
(-0.012146714 -0.0010572007 0.0025449693)
(-0.011986665 -0.0010279868 0.0024087535)
(-0.014219511 -0.0010167658 0.0028462708)
(-0.013973384 -0.00073298319 0.0026439795)
(-0.013842381 -0.00057775236 0.0024375589)
(-0.015809012 -0.00076268376 0.0027578428)
(-0.015566597 -0.0002568303 0.0024984343)
(-0.015386017 0.00010950455 0.0021963787)
(-0.016828569 -0.0003533158 0.0024308689)
(-0.016505729 0.00033299882 0.0020925094)
(-0.016343806 0.00088062494 0.0017737184)
(-0.017242746 0.00012716196 0.0018418983)
(-0.016930026 0.0010493927 0.0014884006)
(-0.016745488 0.0018060609 0.0010811917)
(-0.016855827 0.00071738033 0.00098935922)
(-0.016495833 0.0018577052 0.00055254078)
(-0.016313886 0.0028678587 0.00010246613)
(-0.015609511 0.0013986559 -0.0001791333)
(-0.015231728 0.0027837329 -0.00064134396)
(-0.015055039 0.0039967503 -0.0011290121)
(-0.013325717 0.0021582609 -0.0015958269)
(-0.012949655 0.0037588998 -0.0021080264)
(-0.012778895 0.0052147675 -0.002635924)
(-0.010002145 0.0029846774 -0.0033259478)
(-0.0096050527 0.0048022972 -0.0038630803)
(-0.0094294169 0.0064472164 -0.0044006097)
(-0.0054477476 0.0038676495 -0.0052784631)
(-0.0050639766 0.0058486769 -0.0058218315)
(-0.0049208984 0.0077105302 -0.0063864929)
(0.00025151833 0.0047279461 -0.0074687264)
(0.00063063538 0.006910858 -0.0080372966)
(0.0008114594 0.0089040302 -0.0085751677)
(0.0072920946 0.0055927708 -0.0098490399)
(0.0076792374 0.0078654782 -0.010378061)
(0.0077733016 0.01005905 -0.010923678)
(0.015496377 0.0064407692 -0.0123889)
(0.015801363 0.0088650758 -0.012908116)
(0.016007358 0.011059719 -0.013364833)
(0.024912287 0.0070694731 -0.014955129)
(0.025319736 0.0095041266 -0.015428524)
(0.025435494 0.011866378 -0.015923471)
(0.035498861 0.0075730883 -0.017853393)
(0.035944288 0.010148445 -0.018050519)
(0.035981355 0.012546734 -0.018435)
(0.047104554 0.0079397152 -0.020457015)
(0.047361526 0.010552949 -0.020629385)
(0.047516089 0.012865514 -0.020994349)
(0.059562994 0.0077984283 -0.023204984)
(0.059768393 0.010189036 -0.023306028)
(0.059984251 0.012679972 -0.023370425)
(-0.00035145485 1.6103892e-06 0.00017084305)
(-0.00038727176 -3.6307416e-05 0.00018040096)
(-0.0004451471 -7.2311185e-05 8.8232103e-05)
(-0.0017656451 0.00016315733 0.00061575752)
(-0.00181061 -3.468151e-06 0.00059364841)
(-0.0017247248 -7.4663277e-05 0.00061861947)
(-0.0034753523 0.00017203628 0.0010486349)
(-0.0034724747 7.0272104e-05 0.0010175809)
(-0.0034340747 -0.000194868 0.0010018097)
(-0.0055945153 0.00026690707 0.0014675306)
(-0.005573932 4.3444144e-05 0.0014336106)
(-0.0054526397 -9.9314389e-05 0.0014340159)
(-0.0078131371 0.00021915645 0.0018857456)
(-0.0077261154 0.00014369062 0.0018905642)
(-0.0076939788 -2.2087342e-05 0.0018743367)
(-0.01010095 0.00014967385 0.0022247632)
(-0.010020004 0.00012855752 0.0022286153)
(-0.0099406502 5.0960392e-05 0.0022162496)
(-0.012302638 0.00011902847 0.0023733844)
(-0.012162239 0.00023947983 0.0024051594)
(-0.012082337 0.00025542607 0.0023874293)
(-0.014212549 -8.1748033e-05 0.0024786464)
(-0.014028363 0.00016887331 0.0025241418)
(-0.014006277 0.00041046286 0.0024997276)
(-0.015823919 -0.00015176328 0.002231294)
(-0.015629519 0.00033717219 0.0022882036)
(-0.01556202 0.00066059472 0.0022566055)
(-0.016835804 -0.00037483087 0.0018785532)
(-0.016571645 0.00027018593 0.0019635363)
(-0.016565983 0.0008932693 0.0019345617)
(-0.017289168 -0.00051402858 0.0011956578)
(-0.017015495 0.00039618896 0.001281973)
(-0.016989481 0.001162651 0.0012412715)
(-0.016909679 -0.00072481281 0.00026289694)
(-0.016581774 0.00036923658 0.00037055364)
(-0.01658661 0.0014397901 0.00032643354)
(-0.015684377 -0.00090134353 -0.0009278505)
(-0.015347434 0.00045779757 -0.00081190581)
(-0.01535364 0.0017127261 -0.00086333223)
(-0.013444961 -0.0011119054 -0.0024251957)
(-0.013062733 0.0004315538 -0.0023007727)
(-0.013095467 0.0019492644 -0.002353445)
(-0.010129254 -0.001280323 -0.0041459108)
(-0.0097421134 0.0004821772 -0.0040001779)
(-0.0097677423 0.002192729 -0.0040684091)
(-0.0056356019 -0.0015180764 -0.0061223523)
(-0.0052131397 0.00041177887 -0.0059864688)
(-0.0052671797 0.0023499283 -0.0060563599)
(5.7383141e-05 -0.0016914734 -0.0082943385)
(0.00047774991 0.00041286481 -0.0081386633)
(0.00043149768 0.0024861987 -0.0082153441)
(0.0070458766 -0.0019104336 -0.010648237)
(0.0074752791 0.00026760203 -0.010490151)
(0.0074276271 0.0025322341 -0.010587942)
(0.01521649 -0.0021480221 -0.013096861)
(0.015655851 0.00019449647 -0.012967657)
(0.01561672 0.0024986551 -0.013028642)
(0.024687176 -0.0023768654 -0.015713997)
(0.025122066 -0.0001378142 -0.015495662)
(0.025075901 0.002364392 -0.015639153)
(0.035329635 -0.002580908 -0.018159446)
(0.035620297 -0.00023744686 -0.018200917)
(0.035708898 0.0022809979 -0.018220862)
(0.046844539 -0.0031054802 -0.020831828)
(0.04715359 -0.00055943299 -0.0207043)
(0.047166964 0.0018625693 -0.020900107)
(0.059393238 -0.0032213299 -0.023423165)
(0.059929279 -0.00082325282 -0.02342369)
(0.060037914 0.0018448788 -0.023450336)
(-0.00041511562 0.00023750028 0.00035974515)
(-0.00033960163 0.00024688106 0.00016189759)
(-0.0003152745 0.00015909025 -5.0565088e-05)
(-0.0019070611 0.00086660092 0.00084009853)
(-0.0019179925 0.00074018691 0.00057040328)
(-0.0017575118 0.00055563607 0.00037845007)
(-0.0036085718 0.0013409632 0.0011455249)
(-0.0035775222 0.0012070647 0.001029995)
(-0.0034553484 0.00093913972 0.00080647131)
(-0.0056252949 0.0016232904 0.0015703633)
(-0.0056245263 0.0015503033 0.0014372285)
(-0.0055522952 0.0012458755 0.0013098786)
(-0.0078581681 0.0017349823 0.0019305226)
(-0.0078015033 0.001647879 0.0018921849)
(-0.0077862596 0.0014598218 0.0018639857)
(-0.010090589 0.0016921649 0.0021719954)
(-0.010062473 0.0017665355 0.0022127305)
(-0.010034544 0.0015491973 0.0021747861)
(-0.012255452 0.0014391449 0.0023821477)
(-0.012145202 0.0015882495 0.0024615855)
(-0.012206532 0.0015693816 0.0024913543)
(-0.014154554 0.0010588618 0.002327149)
(-0.014059263 0.0013700868 0.0024746563)
(-0.014125408 0.0014826771 0.0025928791)
(-0.015698192 0.00050861072 0.0021366021)
(-0.015602261 0.0010392034 0.0023500573)
(-0.015673388 0.0013361671 0.0024783768)
(-0.016713246 -0.00018498702 0.0017041141)
(-0.016541362 0.00048884197 0.0019592104)
(-0.016675319 0.0010245214 0.0021583113)
(-0.017121683 -0.00099306212 0.00097707331)
(-0.01699487 -6.049833e-05 0.0012975181)
(-0.017092408 0.00067770954 0.0015425544)
(-0.016725067 -0.0019536581 4.8757195e-05)
(-0.016522801 -0.00081031879 0.00040960797)
(-0.016680926 0.00020149762 0.00068816463)
(-0.015503659 -0.0029725965 -0.0012121636)
(-0.015322349 -0.0016143567 -0.00081298164)
(-0.015436526 -0.00037706792 -0.00047375407)
(-0.013246501 -0.0041102966 -0.0027024917)
(-0.01301517 -0.0025237883 -0.0022523455)
(-0.013162082 -0.0010300663 -0.0018979018)
(-0.0099489002 -0.005305346 -0.0044537815)
(-0.0097365113 -0.0035243039 -0.0039999549)
(-0.0098282267 -0.0018045692 -0.0036007366)
(-0.0054724716 -0.0065399225 -0.0064475332)
(-0.0052047243 -0.0045787746 -0.0059555077)
(-0.0053185812 -0.0026439542 -0.0055470919)
(0.00019916922 -0.0078074061 -0.0086281512)
(0.00041654574 -0.0056791032 -0.0081433794)
(0.00038329155 -0.0035583128 -0.0077155735)
(0.0071267631 -0.0090716454 -0.010970615)
(0.0074221415 -0.0068261263 -0.010489524)
(0.0073992147 -0.0045540102 -0.010081576)
(0.015274732 -0.010313211 -0.013462276)
(0.015503944 -0.0079672322 -0.013002216)
(0.015523503 -0.0055365352 -0.012589824)
(0.024679906 -0.011466024 -0.015962464)
(0.024963397 -0.0090404631 -0.015564844)
(0.025091158 -0.0065410203 -0.015219978)
(0.0351401 -0.012574529 -0.018634789)
(0.035367215 -0.010091713 -0.018273921)
(0.035484348 -0.0075100263 -0.017947837)
(0.046758846 -0.013467979 -0.021176296)
(0.046994849 -0.010969097 -0.02083386)
(0.047265513 -0.0083275823 -0.020659075)
(0.05906482 -0.014273384 -0.023740577)
(0.059243095 -0.011532983 -0.023582875)
(0.059538999 -0.0090626818 -0.023547993)
)
;

boundaryField
{
    free
    {
        type            calculated;
    }
    fixed
    {
        type            calculated;
    }
    traction
    {
        type            calculated;
    }
}


// ************************************************************************* //
