/*--------------------------------*- C++ -*----------------------------------*\
  =========                 |
  \\      /  F ield         | OpenFOAM: The Open Source CFD Toolbox
   \\    /   O peration     | Website:  https://openfoam.org
    \\  /    A nd           | Version:  6
     \\/     M anipulation  |
\*---------------------------------------------------------------------------*/
FoamFile
{
    version     2.0;
    format      ascii;
    class       pointScalarField;
    location    "1.56";
    object      p;
}
// * * * * * * * * * * * * * * * * * * * * * * * * * * * * * * * * * * * * * //

dimensions      [1 -1 -2 0 0 0 0];

internalField   nonuniform List<scalar> 
625
(
121241.11
-119523.2
2328.2163
8154.3798
208139.26
-306653.7
6868.874
1043.6442
78417.928
36664.921
689.53528
-12861.352
2722.1346
7597.5557
73835.093
75505.62
88132.725
94708.906
88509.766
93927.572
90330.429
90164.898
93468.32
90445.718
95138.811
97477.203
99449.148
100937.19
100493.19
98524.411
92654.952
87234.181
77942.921
66644.909
53843.16
34479.269
19950.814
-52738.491
-33330.963
-55755.724
-50473.979
-57316.469
-61711.236
-64844.947
-67944.778
-73170.258
-75953.647
-80083.686
-82429.293
-85498.054
-85096.897
-83822.087
-80419.068
-73924.826
-66589.397
-55712.637
-46722.195
-35265.576
-22056.635
-8097.0252
165245.86
-10322.058
-82274.824
-61923.185
-92688.465
-87726.282
-86749.716
-114546.62
-104157.66
-112566.71
-121846.22
-125694.91
-132008.93
-128701.41
-134088.88
-125199.13
-123605.87
-113951.45
-104100.2
-93404.692
-79621.014
-66852.442
-53188.273
-37957.838
-23653.649
-9112.8299
5203.9001
2273.5731
-7101.0018
24238.96
32448.784
42283.292
57416.822
71504.033
81737.846
90896.221
98576.003
102878.44
104537.09
104877.61
102385.36
99316.877
94944.52
81581.415
92954.246
83173.168
73579.85
81863.057
65094.322
80830.744
53555.835
54127.354
133147
98282.858
76151.709
-136077.52
-131891.17
-118835.32
18277.233
17644.33
21409.558
-7696.6603
-1780.5811
-4793.7603
25776.834
35227.761
44285.748
43953.889
51140.87
59209.359
62235.726
69575.052
74476.479
78951.397
84180.828
85583.775
86512.49
84583.149
81517.397
74494.06
66772.915
57933.063
45611.068
37043.975
25952.733
13363.283
7993.3222
4709.3012
15915.255
10160.204
16290.122
14521.843
14325.325
11869.322
10990.736
7395.7402
2983.2323
-552.78753
-4890.1395
-8698.5573
-11231.406
-13415.241
-14139.848
-13270.797
-11697.151
-9814.6107
-6945.0761
-6145.9073
1035.3466
3098.254
-32422.926
-32697.162
-38408.929
-34577.049
-47373.527
-43587.744
-49632.025
-49436.042
-50707.044
-50674.89
-48520.79
-47394.687
-44022.387
-41521.09
-37928.328
-34587.392
-31364.25
-27290.458
-24591.513
-19010.606
-14630.578
-11429.68
-3386.2262
80584.034
51190.622
64995.158
11819.165
15620.979
14884.016
-8602.3739
-21229.61
-49215.279
-71468.262
-75268.667
-75627.692
-63332.654
-63402.153
-61117.294
-75582.071
-75275.495
-79696.802
-68339.449
-72734.561
-77201.618
-79811.558
-85904.038
-92090.972
-83464.86
-88545.398
-92603.983
-89270.25
-94554.165
-103180.89
-94281.37
-98786.177
-107448.3
-97498.76
-101737.35
-111457.5
-100982.12
-105169.04
-116531.47
-101459.6
-105010.26
-117497.49
-101772.41
-106260.59
-118417.62
-98903.581
-102685.16
-115381.9
-94546.582
-98610.139
-110171.69
-88190.946
-91405.43
-103158.82
-79762.876
-83208.091
-92534.433
-70624.473
-72151.742
-81628.913
-59599.409
-62225.012
-69158.887
-50206.962
-50279.453
-55794.13
-38950.421
-38762.036
-43423.479
-27754.707
-27456.072
-31164.323
-18421.416
-20493.216
-21103.929
-16013.952
-10677.388
-14638.139
-18525.146
-20002.094
-21803.174
1084.4392
818.94314
3273.3167
10164.834
11574.608
8897.1244
69004.662
75097.458
69356.003
78205.169
77436.805
64398.071
90660.126
79234.222
71398.894
86144.336
78498.201
73228.1
90244.398
86971.958
71989.609
98500.461
78098.483
77498.337
96968.725
80679.375
79844.775
103655.84
81679.006
77902.99
105168.13
83292.923
89996.425
112144.64
80747.291
91610.543
116135.49
85765.864
96780.171
119224.68
87036.644
101909.79
120917.99
89877.469
106044.09
121148.02
90900.19
108058.78
118612.84
91114.655
108140.83
113135.75
89026.082
105083.29
105067.57
85695.528
99877.516
95460.618
79826.625
90882.277
81156.406
71179.079
79461.635
68562.572
60124.179
68093.356
52950.223
48054.782
53050.28
34484.376
35388.491
35036.088
26798.526
28036.346
30221.867
37070.407
48720.799
42668.223
45442.461
55200.499
53013.774
57252.07
55867.892
58463.85
55943.366
55557.232
52463.813
48166.715
44421.471
39044.538
34675.439
29398.601
26108.839
22212.189
17647.343
15475.174
9698.1369
2368.7294
-10717.502
-3015.7263
-6223.8159
-3483.2321
-2158.3995
-7950.6559
-7810.023
-9448.0061
-11113.984
-12044.085
-8802.3743
-8578.952
-3048.615
102.67463
6199.4208
10368.45
14367.362
18229.609
17344.217
19101.916
17126.388
13986.6
7478.0743
-44569.338
-49455.823
-55446.921
-61192.616
-61701.061
-67980.964
-64269.995
-65430.304
-63566.857
-62483.983
-60727.268
-59270.096
-59290.994
-57398.954
-57716.082
-56042.424
-53390.524
-50598.811
-45672.402
-38048.405
-31574.982
-22532.621
-13353.38
46326.49
40901.217
32142.971
57144.636
37783.391
33125.744
46337.181
36212.85
43846.03
50342.07
48626.507
35233.165
66431.805
46047.73
45455.783
58008.012
54634.09
51974.967
69074.746
66071.593
54558.045
72258.886
63782.327
59956.013
71118.543
71150.216
64581.401
72756.447
75524.635
64636.79
69561.323
75081.96
65080.358
65601.486
75449.68
64397.863
60591.431
72419.419
60948.847
53203.722
68495.533
56935.193
45425.155
62088.172
50655.937
36845.292
55188.635
44854.664
29985.969
47478.835
37790.29
22986.496
38743.045
30202.003
16406.503
29421.592
25120.953
11718.825
25854.976
19486.364
6325.4346
15823.65
9614.0572
7832.3487
8614.4447
10748.936
1024.8119
-1004.364
-1590.8214
12875.201
291.19198
8496.3455
10072.542
8167.3949
11083.925
13038.489
6414.0392
7269.1583
14388.3
5877.9261
5768.8357
11167.638
4863.7257
8050.1075
9567.3506
7285.1643
5311.1423
12296.062
3617.3723
1365.5759
6287.3188
757.37019
-606.13866
6510.9409
1250.9578
-4401.5596
6253.4064
-2710.8657
-8309.0267
3875.6096
-2832.3573
-13046.241
4522.5053
-3015.3292
-16265.318
4099.7288
-1793.6989
-19753.918
5462.7126
-876.15627
-22092.725
5317.2881
1713.279
-22186.233
6922.8425
4542.4547
-22056.535
8073.4756
6321.9045
-19974.417
7365.5519
7535.3653
-17323.536
8396.8993
9281.8059
-10435.599
9561.3912
10364.369
-11912.27
9038.3296
-3931.43
-2740.1483
7953.0541
9626.0311
1678.7562
7878.1333
8274.4267
6699.5732
-50690.424
-55068.559
-74540.021
-29829.111
-32476.485
-49659.496
-36193.362
-46545.2
-55623.688
-47609.341
-44307.689
-58084.158
-44463.936
-45201.132
-58810.907
-47518.373
-48954.18
-65355.384
-48039.068
-47269.897
-64199.29
-48908.819
-50219.917
-66447.653
-47211.097
-49265.218
-64528.894
-47629.953
-50069.918
-64602.518
-45391.233
-51292.56
-62904.572
-43427.149
-52031.695
-60021.944
-40911.826
-54948.221
-58832.047
-39216.119
-56706.968
-55937.167
-37078.228
-58499.881
-53594.509
-35567.992
-58960.387
-52128.94
-34044.679
-58914.969
-48974.448
-32459.47
-54930.334
-44656.589
-29349.113
-49836.76
-41955.747
-25807.965
-44992.508
-34984.211
-22101.743
-34718.823
-25897.818
-13892.249
-21547.424
-11862.411
-6122.0272
-12820.097
-10834.793
)
;

boundaryField
{
    free
    {
        type            calculated;
    }
    fixed
    {
        type            calculated;
    }
    traction
    {
        type            calculated;
    }
}


// ************************************************************************* //
