/*--------------------------------*- C++ -*----------------------------------*\
  =========                 |
  \\      /  F ield         | OpenFOAM: The Open Source CFD Toolbox
   \\    /   O peration     | Website:  https://openfoam.org
    \\  /    A nd           | Version:  6
     \\/     M anipulation  |
\*---------------------------------------------------------------------------*/
FoamFile
{
    version     2.0;
    format      ascii;
    class       pointScalarField;
    location    "1.47";
    object      p;
}
// * * * * * * * * * * * * * * * * * * * * * * * * * * * * * * * * * * * * * //

dimensions      [1 -1 -2 0 0 0 0];

internalField   nonuniform List<scalar> 
3969
(
-991890.47
1470110.6
-381.32139
-783.03204
-2037719.2
2823180.8
-1032.421
465.52795
-854230.91
-584621.6
-292443.23
-2408.3402
233273.61
546738.63
587722.52
1460.8378
1954.7854
1972.2363
681.57771
-823.2289
-1635.6553
-1422.3733
-289240.45
-349349.41
-340830.95
-369515.07
-359626.49
-369939.67
-357806.02
-356470.51
-345239.57
-335256.7
-326768.46
-316841.62
-306340.46
-296384.13
-286329.53
-273937.86
-264675.28
-252823.91
-242930.78
-230880.34
-220734.79
-209576.99
-199095.15
-188945.2
-177787.2
-167281.11
-156660.53
-146596.97
-137132.77
-126827.53
-117225.18
-107755.37
-98032.658
-88618.748
-79697.915
-70512.65
-61282.754
-53280.27
-44346.389
-36784.495
-29132.247
-22111.83
-15827.62
-9861.8944
-5579.091
-2119.8313
275.74961
363182.51
322844.5
368503.48
340622.31
374349.45
347962.65
359598.31
342025.3
342695.19
327963.39
322486.45
313131.03
301847.85
292612.92
280535.89
268786.44
257861.66
244880
233512.51
221995.59
208131.73
198936.78
184847.72
175211.1
162856.53
151953.4
139745.59
129201.85
118994.59
108449.26
99968.8
89948.637
81619.921
72640.302
64723.178
56699.954
49483.255
42132.824
35437.721
28836.917
22704.68
17716.485
12817.868
8918.7659
5000.6666
2261.9025
378.43539
-1507064.9
-1122894.1
-485345.64
39499.86
488854.9
999740.7
850189.87
389512.6
468848.94
312580.78
427408.36
381235.54
398152.12
381789.39
381638.6
367446.38
352940.95
358289.61
338197.6
337928.83
326117.01
311627.26
305222.32
287392.81
278451.13
263032.37
250892.38
238232.61
226516.57
214299.64
202745.59
191539.69
182020.88
170505.77
157257.39
147981.28
137284.07
126390.62
116289.37
106119.9
95983.118
86177.798
76626.097
66652.499
57557.537
49287.726
40738.961
32573.696
25374.272
18358.945
12308.203
7089.1759
2817.6155
-532.1715
-2623.5381
-1491.1381
-1917.7439
1425.682
1098.6449
1874.5964
2231.7283
-834.47907
-1962.5815
-3813.1151
-7536.2031
-11622.4
-16551.442
-22057.74
-27900.077
-34860.128
-41280.554
-47397.586
-59393.966
-65976.184
-74221.166
-84022.425
-93353.079
-103267.05
-113762.7
-123683.14
-135151.77
-146391.91
-157486.34
-169925.07
-182031.69
-194913.99
-207932.14
-220947.09
-232894.72
-246765.54
-258242.79
-271964.65
-279702.15
-287043.03
-307487.11
-330481.83
-320377.18
-343038.53
-342008.29
-347823.18
-374516.13
-383592.98
-369082.79
-392822.36
-371303.48
-353323.85
-375910.75
-375695.24
-814180.73
-911772.31
-963384.71
-960296.07
-932399.06
-926721.89
-680650.71
1181763.3
1448952.1
1656553.5
1757510.7
1658413.5
1670736.2
1321856.1
285.77263
81.585198
-353.55031
-913.41434
-1152.7236
-774.06383
-678.6269
473.31511
790.73381
731.19093
857.85381
169.45262
-496.90761
266.42194
-255583.54
-273732.65
-279169.96
-283346.64
-287084.34
-284352.89
-281063.51
-278900.93
-269271.82
-267895.65
-259117.72
-249165.33
-245968.91
-236101.6
-228453.61
-219986.31
-212743.3
-203437.99
-194859.19
-185964.72
-177723.29
-168389.05
-160041.39
-151423.76
-143836.77
-134804
-126497.28
-118656.62
-110449.13
-102318.75
-94551.833
-86496.398
-78696.534
-71058.949
-63464.551
-55855.03
-48454.638
-41400.335
-34506.866
-28548.708
-22138.4
-17208.121
-12065.972
-8398.9627
-4980.0331
-2111.2079
162.37139
-160106.12
-168466.96
-166541.5
-181339.57
-184566.65
-192806.46
-187480.3
-186245.12
-181887.48
-178665.71
-172824.46
-168939.38
-162382.63
-156512.58
-152613.54
-146411.14
-141576.24
-135061.02
-130007.93
-123942.64
-117851.53
-111740.72
-105799.7
-100442.76
-94586.592
-89610.873
-84876.49
-78755.867
-74367.602
-69031.303
-64065.902
-59065.856
-54064.913
-49121.525
-44133.439
-39315.584
-34400.158
-30024.222
-25299.577
-21200.534
-16858.568
-13373.907
-9632.0987
-6666.205
-3975.2324
-1574.0507
238.3785
-72356.663
-90216.055
-77945.614
-90514.179
-88309.99
-94984.861
-92148.945
-95264.623
-91912.63
-89319.256
-89291.4
-84782.09
-83227.089
-78268.619
-74798.018
-72146.992
-70001.132
-67074.271
-65367.729
-62179.025
-60813.474
-58234.712
-55824.455
-52878.256
-50533.355
-47617.013
-45121.245
-43017.975
-40593.751
-37986.128
-35456.401
-32765.41
-30029.121
-27195.718
-24542.813
-21658.264
-18788.837
-16142.609
-13062.778
-10829.278
-8195.5359
-6394.6048
-4048.3976
-2865.9917
-1477.4673
-283.45124
272.11433
9955.4552
4502.6123
15199.766
3899.6483
10692.413
5526.7292
12240.163
7687.0779
9663.3308
3138.6194
7916.2465
3259.6859
5835.8862
2814.2631
2172.281
907.21094
519.10015
-46.785245
-708.1906
-409.30879
-1326.4499
-419.59048
657.24576
138.45095
-839.49976
-1124.0937
-1933.3369
-2507.9201
-2898.486
-3348.9211
-3731.17
-3923.5136
-3972.2256
-4016.9392
-3961.2368
-3828.5581
-3373.9667
-3038.5124
-2730.1385
-2680.4554
-2208.6524
-1826.7697
-1167.2765
-1035.6966
-172.42063
-107.37587
22.721185
110404.82
93622.092
103889.33
101817.28
108382.98
105218.67
105515.4
102766.73
101187.51
95681.456
95108.734
88414.995
88282.913
81574.781
80031.981
75212.285
72053.337
68538.152
64546.1
61800.735
55747.19
49398.904
44689.124
38685.734
36653.343
34918.862
30912.17
27692.658
25023.663
22372.618
19751.012
17680.201
15433.268
13564.816
11683.375
10040.145
8860.0612
7062.6215
7760.4977
6878.1338
5958.227
4856.9095
4090.1045
3137.3307
2459.7578
1428.414
51.552353
208015.39
192140.43
198864.29
205486.76
208655.11
205023.54
205392.74
198838.75
198218.78
188402.8
187884.59
180035.06
175864.86
169950.55
163649.73
156230.18
149472.1
142573.97
135127.88
128786.72
119643.04
113662.38
101078.78
93106.979
85227.903
79142.195
73407.06
67088.594
61482.355
55838.341
50976.713
45797.642
41072.587
36623.764
32269.125
28294.226
24412.583
20957.413
17644.933
15227.637
12321.321
9768.5715
7375.6719
4948.7026
3313.781
1483.9644
-29.469579
331972.31
257531.65
297950.21
294310.74
305034.02
297850.68
299669.45
290887.99
290177.82
278564.39
276509.52
266225.04
258867.85
247987.15
238687.19
227446.9
217205.43
206883.97
196916.23
185958.22
177012.89
165407.92
155669.07
146183.85
136416.36
127843.69
119775.97
109824.04
101013.16
92528.856
84371.233
76417.331
68623.012
61427.708
54200.173
47485.962
41052.925
35020.292
29834.791
23675.664
18885.957
14455.437
10754.963
7289.5641
4850.2496
2425.6836
603.04361
-581345.4
-575694.46
-601050.84
-593813.81
-599530.77
-585441.46
-541667.35
-403006.95
-466754.68
-428509.55
-447554.06
-446322.56
-436293.78
-426196.3
-204216.54
-241923.7
-196364.76
-218926.35
-198845.18
-201548.9
-218530.53
-30015.95
-8562.2887
3040.1167
-16339.187
-9343.7122
22889.849
-58094.959
152520.59
149674.49
169309.28
154188.34
159105.19
160902.76
99990.787
416671.8
437417.44
433620.78
440464.36
452939.2
446464.51
407895.32
556780.02
484470.17
433805.06
443984.7
425608.28
388920.26
438219.16
514987.69
521967.85
585795.38
601656.57
612530.74
609327.29
486578.42
432309.86
480990.33
477129.71
483261.84
502542.42
488089.52
451645.52
366894.96
404252.87
425023.6
425093.79
423735
403514.65
415072.03
382961.34
406563.03
400958.46
418938.59
405911.66
405643.25
385619.4
378203.8
395579.69
408740.44
409914.26
411267.87
398375.69
398795.55
380439.04
372443.78
379989.57
384508.83
385796.71
378055.03
378496.93
364637.1
372212.03
376694.37
379889.9
379679.42
379348.12
378788.98
365874.58
358981.57
363108.29
363585.99
358124.26
363132.3
362761.12
351350.32
353209.21
353214.95
355104.52
357994.27
358938.43
361468.46
349528.77
342396.39
340198.51
342988.21
342891.06
342611.77
342868.98
337163.5
334854.58
331826.45
333888.42
334765.53
333078.85
342403.92
326083.74
322715.21
321159.75
325955.12
323950.68
320653.12
327680.74
317977.61
308785.19
311648.07
310671.57
313754.8
311557.29
322448.56
303716.35
297597.49
303411.39
302736.39
305127.19
302645.75
309326.12
294106.83
286088.54
291951.47
288413.68
291604.62
289461.51
297548.7
281668.5
273687.62
281406.28
278531.41
283105.99
281462.27
288567.17
268688.1
263312.95
269755.05
266113.23
270810.67
268094.68
273796.86
256732.44
251829.31
258235.99
254507.31
260562.78
257401.62
264423.83
244045.35
239816.14
246151.39
241839.17
248105.38
244763.41
251911.72
231134.62
228281.15
234182.56
230467.59
237435.39
234198.41
241569.35
219564.12
215595.67
221968.58
217872.31
224886.3
221675.05
228923.2
206751.15
204013.39
209805.68
206654.06
213632.19
210650.66
218327.29
195094.73
191610.49
198285.41
194832.5
201233.58
199058.05
206296.73
182461.29
181191.76
186317.85
183178.96
190166.97
188335.42
195595.82
170487.77
170422.12
172774.17
172683.56
178128.49
177423.35
184487.85
157616.66
159967.16
159761.53
163954.85
166611.72
168449.83
173909.85
148833.97
148869.2
150061.09
153231.26
155506.42
156661.89
162270.38
138247.48
138027.85
139928.3
142150.81
144070.62
146701.56
149684.87
127200.36
127339.49
129381.8
130793.63
132511.56
136399.14
138416.01
117295.54
116979.13
119530.3
120690.71
123005.21
126475.91
128247.35
106735.2
107481.94
109278.84
110649.23
112549.62
116082.24
117775.13
97492.638
97678.416
99626.58
100925.48
102884.2
106299.49
108041.85
87676.577
88380.337
90005.234
91442.772
93238.396
96655.269
98385.362
78736.501
79353.648
80893.959
82274.262
83991.238
87276.632
88731.132
69812.951
70598.415
71811.463
73163.599
74759.406
78141.63
79546.706
61395.713
62151.587
63178.83
64702.295
66186.637
68389.758
70327.67
53269.719
53602.941
54734.671
55503.155
57395.483
60576.785
61761.279
45672.742
46674.865
46859.389
48419.602
49196.262
51606.894
52879.039
38007.461
38393.16
38824.849
39967.937
41001.366
43410.002
44423.826
31277.955
31489.688
32048.183
32697.405
33630.705
35799.648
36852.677
24386.352
24849.869
24831.725
25437.515
26354.464
28254.106
29095.023
18640.468
19017.984
18728.375
19465.836
19970.406
21670.505
22463.478
13099.173
13026.877
12680.827
13164.745
13510.304
15185.339
15883.097
8691.4151
8512.7857
8279.2618
8568.7143
8818.7996
10183.72
10643.123
4412.081
3933.7856
3636.9019
3654.6556
3821.8373
4974.0188
5328.6251
1850.1426
1493.5759
1345.3192
1239.733
1389.4296
2152.6272
2661.0819
25.330711
-549.83811
-690.00147
-873.22465
-781.55833
-275.48429
-412.74529
2484.7239
2673.7275
2504.746
2351.7763
1720.1418
1610.1412
1544.3088
3740.8756
3702.0887
3264.464
3358.9167
2760.1937
2268.4017
2793.7854
2751.9913
3022.2692
2588.4025
2338.3069
1916.47
1706.6823
1873.9417
930.52817
1032.265
908.42342
794.17773
137.05978
271.82924
-8.4285358
-1202.0259
-980.67716
-1561.1728
-1769.828
-2361.7495
-2375.102
-2136.4015
-2060.3644
-2012.7442
-2032.5242
-2462.3836
-2939.7077
-2755.841
-2606.776
-2035.8503
-2175.158
-2380.9204
-2772.0083
-2971.8473
-2871.3914
-3201.6917
-375775.26
-372025.58
-436471.83
-417636.49
-436638.3
-412011.08
-401632.8
-412642.42
-421202.05
-448419.83
-447668.86
-452445.17
-420370.78
-412067.28
-404754.47
-408345.86
-420856.44
-424048.29
-421658.09
-396001.96
-397915.66
-383702.64
-401124.87
-411020.09
-418187.57
-412301.01
-397086.98
-400215.9
-386495.89
-389542.87
-393867.42
-397617.09
-395909.98
-382648.85
-376685.13
-371157.77
-378667.99
-385043.93
-382613.06
-382576.57
-368106.45
-371334.34
-369669.13
-369812.94
-372042.69
-370774.86
-375622.43
-365064
-372527.71
-355203.29
-358040.67
-363044.78
-352438.84
-360463.63
-350649.63
-353774.27
-351246.87
-352826.99
-353276.87
-349063.62
-355225.39
-343145.32
-354962.71
-342867.75
-338978.89
-340951.26
-335865.22
-341161.62
-331628.1
-341337.76
-333326.77
-329718.77
-336042.83
-328084.32
-334820.3
-325242.51
-332686.55
-320688.82
-322144.67
-320967.56
-316218.61
-319766.74
-312179.55
-321185.16
-313944.69
-308986.81
-311725.1
-306560.38
-311561.63
-302033.91
-302977.71
-302001.26
-300306.03
-299264.96
-295782.44
-297513.7
-292483.4
-296205.3
-290394.97
-289399.54
-286459.02
-286969.38
-286121.95
-281965.77
-288029.28
-282580.25
-276557.99
-276049.74
-272890.49
-275554.77
-269581.19
-272844.73
-269978.99
-266586.41
-264220.99
-263621.54
-262664.23
-257695.4
-260591.06
-258896.65
-254152.41
-253386.51
-250826.9
-249886.78
-246127.98
-247786.31
-246390.95
-243296.08
-241623.75
-239077.09
-238274.19
-234700.95
-236164.06
-235698.41
-231187.74
-229780.61
-227230.69
-226027.46
-222498.45
-223497.1
-224327.66
-219430.73
-218658.91
-215486.11
-214271.62
-210880.09
-211674.94
-212991.26
-208192.14
-207349.72
-203811.42
-202261.87
-198513.75
-199511.11
-201986.2
-196878.58
-196373.29
-192246.01
-190641.53
-187100.17
-188241.86
-190718
-186164.96
-185172.42
-180877.36
-179052.87
-175231.63
-176358.97
-180269.97
-174432.22
-174399.86
-169352.41
-167882.64
-163902.44
-165158.73
-169615.14
-163409.44
-163714.31
-158248.48
-156770.05
-152764.26
-153616.02
-158493.09
-153104.48
-152687.1
-147330.12
-145757.97
-141511.72
-142881.41
-148480.58
-142609.6
-142018.83
-136964.35
-135595.4
-131491.49
-132553.39
-137484.85
-131935.89
-131863.09
-126533.7
-124777.7
-120681.25
-121634.89
-127190.25
-122445.18
-121262.56
-116504.8
-114687.17
-111022.44
-111570.35
-117174.01
-112384.36
-111382.02
-106841.2
-104906.64
-101152.4
-101622.75
-106945.23
-102790.93
-101264.36
-97061.226
-94880.28
-91475.092
-91915.776
-97012.738
-93257.722
-91719.403
-87773.291
-85519.802
-82546.001
-82829.834
-87335.305
-84038.174
-82140.546
-78571.515
-76459.852
-73797.716
-73603.578
-78000.466
-75042.893
-73070.423
-69910.633
-67369.536
-65079.795
-64281.765
-67918.027
-65594.105
-63654.586
-60594.86
-58798.988
-56834.595
-56714.997
-59697.55
-57919.499
-55119.407
-53130.937
-50886.351
-48843.529
-49043.049
-50883.1
-49314.203
-46968.172
-44809.974
-42974.855
-40522.142
-41492.862
-41960.259
-41102.392
-38160.932
-37116.647
-35039.483
-33759.543
-34111.212
-34402.236
-33758.391
-31287.907
-30358.532
-28189.942
-27179.132
-27464.074
-26662.564
-26209.279
-23839.503
-23143.526
-21250.818
-21040.386
-21030.63
-19886.586
-19678.9
-17522.882
-17138.421
-15555.251
-15474.279
-15480.584
-13911.575
-13537.937
-11660.866
-11552.29
-10078.49
-10494.565
-10394.589
-8447.8216
-8003.961
-6699.5417
-6667.1265
-5780.221
-6438.0061
-6215.7088
-4410.6975
-4110.8161
-3213.6036
-3130.1027
-2404.8184
-2870.8317
-2755.0757
-1530.9375
-1355.3682
-652.48985
-718.35149
-589.2759
-1162.2151
-1213.129
-202.86821
-315.47376
-37.79997
-164.00298
53.987895
-317.13498
-143.81257
-420557.02
-291848.11
-290152.65
-286787.85
-300126.25
-306216.39
-293922.74
-291637.19
-287959.37
-282355.38
-270640.24
-265381.17
-253724.93
-244136.06
-236361.41
-226567.81
-215226.24
-205713.94
-196064.82
-186103.33
-176344.92
-166210.09
-156599.19
-147310.51
-137883.18
-128794.47
-119326.69
-110129.1
-101616.1
-92908.845
-84522.809
-76507.77
-68561.317
-61003.462
-54428.629
-46454.214
-39632.586
-34625.671
-28235.224
-23236.501
-18529.288
-14139.472
-10372.573
-7147.6782
-4463.1071
-2380.5206
424.51273
-240280.44
-226819.58
-172401.15
-202772.6
-237107.32
-215361.56
-229524.72
-214698.19
-218965.58
-204789.49
-206577.75
-194227.28
-187709.02
-179793.79
-173547.77
-167815.75
-159910.68
-150963.93
-144777.36
-135998.58
-128477.89
-120559.53
-112976.47
-104958.01
-97275.518
-88856.643
-83171.878
-75876.163
-69527.499
-63270.151
-57304.586
-51534.958
-45984.816
-41133.874
-35536.52
-31354.889
-27272.001
-22949.071
-18911.556
-15584.323
-12342.181
-9300.374
-6795.1661
-4576.5649
-2714.1156
-850.71692
377.50963
-121299.64
-134177.13
-73417.938
-113082.22
-102043.24
-91921.093
-100802.8
-91986.165
-93038.815
-86441.324
-89756.302
-84432.52
-86247.694
-81856.295
-81989.743
-79544.643
-75397.095
-71749.717
-69076.815
-63747.066
-60297.366
-56265.522
-52294.062
-48495.29
-45051.825
-41421.642
-38191.778
-34040.417
-30583.483
-27510.861
-24252.542
-21328.706
-18685.718
-15948.358
-13456.815
-11572.386
-9559.2188
-7717.8444
-5971.3304
-5079.471
-3819.3822
-2794.7526
-2199.2939
-1575.9188
-1012.8182
-839.81358
815.33852
9388.2154
-25199.666
8623.6858
-17225.517
-3868.7743
-10702.649
-9506.5518
2483.5863
-6306.8903
-2256.4738
-3821.8609
-3074.3028
-6852.0368
-9491.9897
-12446.705
-10143.646
-10824.289
-9315.7798
-8898.7605
-6820.1972
-6603.1441
-5190.7223
-4190.7509
-3109.222
-1612.6237
-274.1659
898.95332
1691.8332
2858.0071
3382.7857
4288.5844
4292.831
4806.1197
4921.1482
4903.1004
4806.5164
4755.9241
4402.7408
4092.7712
3416.3634
3103.7254
2653.6239
1924.4508
1648.9981
680.93379
704.30202
266.68449
159541.56
83993.798
94429.158
68718.706
88106.83
73557.983
87206.796
81419.86
75970.19
80356.288
71263.565
77675.74
69950.862
74848.762
70366.548
70343.091
66847.215
65805.44
63115.692
61247.895
58778.368
56859.655
54462.666
52552.764
49510.283
47852.564
45105.574
42878.041
40944.481
38796.665
36738.947
34312.982
32049.369
29369.314
27027.142
24450.068
21777.713
19121.071
16613.719
13858.986
11432.938
8908.1971
6764.1047
4498.9197
2811.5226
867.51595
793.59813
251540.95
199694.18
172174.76
176684.99
187017.71
183301.93
187975.86
174638.32
183474.93
180585.13
179693.1
178736.33
168530.73
168885.17
158659.14
155019.97
145909.81
140796.52
133197.53
127966.04
122038.4
116045.79
110155.67
103050.7
95986.195
89101.655
84421.057
79263.431
74479.868
69437.902
64979.334
59994.129
55142.312
50281.106
45476.49
40752.91
35840.776
31171.139
26786.577
22222.626
18057.122
14293.63
10423.376
7522.1004
4256.9807
2175.6743
-33.683775
331794.68
283810.22
282216.65
279750.65
301442.03
292781.18
302125.65
290826.2
296469.13
283854.98
281544.99
271227.28
264017.62
255766.6
247195.85
239359.95
231893.36
222074.3
214540.68
204610.54
195689.71
186030.1
177051.63
167124.68
159039.14
144672.73
137164.58
129059.78
120706.91
112814.46
104801.56
96438.271
88623.921
80461.577
72687.043
64850.703
56871.671
49926.096
42476.138
35409.433
29133.296
22612.976
17395.586
12051.566
7903.1942
3542.6585
1892.6754
-486045.86
-528216.11
-516004.88
-538007.23
-533680.99
-501691.64
-467854.32
-332002.11
-393731.22
-387378.22
-397694.9
-387449.17
-366310.85
-328638.77
-322902.08
-358958.05
-379927.1
-382474.28
-374720.76
-369730.86
-351229.28
-312932.08
-322732.18
-332549.95
-340980.7
-326183.93
-329367.4
-294213.14
-306210.39
-320563.37
-337108.22
-332528.82
-327940.42
-322752.11
-295769.13
-302148.17
-313392.76
-309666.32
-318472.47
-310163.75
-307369.84
-306497.35
-297232.67
-303019.97
-308168.89
-310210.95
-298952.54
-305460.02
-292667.47
-289291.69
-302391.45
-295068.87
-302052.27
-297824.99
-291078.46
-287139.72
-287149.51
-290448.72
-283025.12
-297002.21
-282395.5
-289316.54
-281926.03
-276166.89
-280334.07
-282603.28
-286155.34
-277327.67
-280392.46
-273720.4
-267955.01
-278092.39
-269885.16
-275689.81
-267198.56
-270067.42
-264787.73
-266320.47
-264064.52
-264676.46
-266527.43
-262705.85
-261154.67
-256229.85
-253886.12
-258285.43
-255224.93
-260594.99
-250820.23
-253394.63
-250755.59
-247301.57
-246357.08
-247496.85
-249450.03
-242910.43
-243972.91
-241692.51
-239358.01
-238899.35
-239799.5
-237772.04
-234107.15
-234629.41
-230116.35
-229261.04
-228871.21
-231115.43
-229805.25
-225448.94
-223675.98
-221341.71
-219892.91
-219508.56
-220439.3
-219642.2
-215014.97
-214455.06
-212148.58
-210829.45
-210313.12
-211873.91
-209074.14
-205573.33
-204580.4
-202219.39
-201531.49
-201792.43
-200960.99
-199703.21
-195939.99
-194461.17
-191182.11
-192748.07
-191777.45
-191856.26
-189797.18
-186293.44
-184537.86
-181933.36
-182053.26
-183426.1
-181797.32
-180033.22
-176205.87
-174785.29
-171272.7
-173252.38
-174336.75
-171972.58
-170012.75
-166876.95
-165052.97
-162135.97
-163525.32
-165304.43
-161501.04
-160506.78
-156793.65
-156056.06
-151508.63
-154316.7
-156067.54
-152033.75
-150754.07
-147970.31
-146277.97
-141831.05
-144283.43
-147892.17
-141920.43
-142207.73
-137940.11
-137553.41
-132477.07
-136566.73
-138541.32
-133963.79
-131918
-129946.49
-127716.63
-123518.45
-128565.2
-129626.87
-124469.77
-123659.82
-121072.21
-119237.04
-114757.64
-119699.14
-120102.51
-116762.73
-114672.4
-111653.38
-110097.33
-105311.77
-111139.5
-112961.32
-107245.64
-105830.97
-103491.49
-101712.46
-97204.531
-103591.18
-103349.02
-99526.629
-97622.225
-95304.787
-93211.645
-88999.673
-95220.617
-95178.789
-90958.116
-89031.235
-86663.217
-84849.895
-80706.807
-87309.359
-86681.149
-83230.843
-81004.174
-78972.259
-77083.645
-73256.57
-79425.009
-78548.046
-75061.312
-72919.844
-71075.368
-69457.944
-65498.354
-71823.303
-70458.987
-67504.518
-65213.186
-63640.772
-61578.164
-58077.999
-63848.032
-62183.683
-59567.808
-57458.821
-55905.678
-54587.167
-51465.218
-56518.899
-54794.527
-52736.551
-50280.02
-49236.544
-47680.914
-44995.319
-49510.72
-47453.11
-45256.986
-43055.7
-42475.978
-40303.277
-38458.405
-42317.043
-39413.568
-38117.875
-36233.373
-34821.132
-34881.444
-32571.269
-35589.517
-32305.455
-32138.865
-29793.624
-29720.667
-28680.646
-27204.092
-29092.598
-26529.369
-25880.781
-23956.665
-23338.801
-23019.345
-21623.428
-22956.137
-19933.487
-19864.608
-17605.144
-18087.371
-17584.736
-16958.439
-17619.063
-15386.969
-15080.752
-13550.568
-13743.402
-13185.166
-12787.049
-12326.972
-9812.6013
-9890.9318
-8202.9824
-8616.1836
-8483.7972
-8818.477
-8387.8522
-6823.7698
-6779.2852
-5402.694
-5932.559
-5626.688
-5688.7522
-4218.2067
-3026.4609
-2646.5773
-1778.7452
-2187.9265
-1910.0779
-2686.1847
-1790.6844
-868.68066
-734.01949
-221.82345
-470.28495
-590.64935
-598.58394
402.93248
1064.6613
1267.5611
1455.5011
1050.8587
1354.3505
568.25332
-310682.98
-314605.41
-346685.5
-337544.32
-350363.01
-317667.53
-321265.32
-231323.56
-285777.4
-298610.52
-309306.45
-308480.8
-283992.83
-267923.51
-240116.97
-222734.84
-253107.7
-241255.9
-251789.98
-226296.9
-227806.86
-205855.01
-221185.81
-237002.67
-232810.32
-238266.9
-226291.49
-202300.7
-217206.22
-221422.48
-234994.26
-225084.18
-235466.39
-220190.35
-211931.98
-206912.5
-211296.24
-219781.7
-214027.32
-215060.4
-215836.44
-205171.16
-206049.66
-213875.73
-224867.26
-215388.48
-222039.28
-217379.54
-203689.88
-202845.18
-203400.47
-209076.08
-203024.91
-209033.72
-201553.42
-199534.39
-197940.37
-199458.12
-212716.84
-204629.53
-205517.83
-204409.92
-196128.94
-190220.62
-195968.08
-202079.41
-189783.4
-197373.15
-192199.62
-190402.52
-187852.31
-191453.62
-194694.35
-189809.55
-194026.9
-190913.38
-182711.7
-181691.54
-181668.47
-191162.85
-180794.44
-187825.24
-179131.66
-182300.01
-174246.14
-178614.98
-185439.25
-174542.67
-180988.38
-175339.87
-171290.72
-168516.73
-172439.26
-177128.85
-167236.82
-173106.31
-167626.58
-161991.43
-161529.04
-168790.32
-168539.01
-162775.11
-166626.61
-162205.31
-155388.45
-156391.31
-160900.94
-160504.51
-156499.6
-157174.4
-154525.05
-146667.33
-149749.14
-155648.36
-154542.82
-149899.41
-150528.19
-149464.96
-142711.39
-143869.88
-149074.9
-146656.33
-143326.24
-143017.11
-141574.85
-133284.21
-138488.98
-142219.91
-140149.16
-136951.96
-136313.27
-134771.13
-127555.31
-131806.73
-135237.11
-133166.35
-130092.75
-128703.11
-126980.32
-120343.56
-126691.61
-128901.94
-126534.36
-123451.27
-121927.04
-120451.78
-114145.87
-121374.05
-121953.36
-119423.82
-116618.22
-114984.83
-113108.53
-106821.13
-116267.75
-115077.22
-113216.26
-110500.1
-108852.78
-105794.66
-100775.45
-110737.33
-108588.92
-107182.72
-104308.56
-101926.13
-98661.091
-94562.784
-105057.1
-102489.81
-100881.09
-97768.074
-95798.948
-91846.017
-88664.583
-99350.719
-96627.504
-93494.122
-93208.585
-88214.505
-85289.967
-82847.159
-92632.74
-90661.379
-88127.101
-84701.742
-83308.292
-77986.431
-76125.047
-87914.402
-83694.887
-82208.799
-79139.119
-76979.779
-72212.389
-70622.107
-81576.441
-78015.499
-76809.338
-72897.145
-71427.529
-65954.175
-64669.814
-75752.835
-72566.371
-70049.586
-67200.417
-64833.448
-60270.023
-58741.346
-70006.972
-66820.013
-64811.827
-61606.923
-59552.776
-54868.677
-53449.159
-64033.218
-61459.451
-58727.263
-56096.574
-53762.448
-49553.591
-48027.373
-58547.181
-56024.642
-53385.564
-50757.4
-48582.196
-44288.557
-42661.129
-52625.252
-50536.307
-47598.167
-45535.046
-43095.123
-39218.349
-37995.7
-47128.146
-45421.695
-42682.832
-40529.064
-38327.05
-34884.727
-33817.305
-41564.756
-40441.99
-37156.11
-35716.29
-33270.998
-30202.512
-28309.867
-36159.874
-34992.461
-32136.76
-30704.885
-28544.992
-25808.805
-24406.342
-30823.501
-30763.151
-27387.737
-26545.465
-24271.637
-22030.832
-20885.846
-25870.035
-25773.299
-23174.189
-22188.804
-20308.125
-18609.654
-16846.495
-21021.593
-21595.654
-18396.988
-17751.294
-16108.039
-14444.821
-13286.866
-16950.964
-17126.407
-14458.364
-14367.323
-12750.28
-11606.257
-10539.608
-12569.644
-13324.833
-10645.055
-10858.861
-9164.2207
-8472.5667
-7719.217
-9308.264
-9662.6398
-7374.4096
-7637.9763
-6176.652
-5975.0943
-5350.5611
-5872.016
-6301.5313
-4241.7349
-4810.7286
-3670.6423
-3709.0607
-3323.1026
-3432.1409
-3624.4449
-2078.8106
-2546.0272
-1566.5228
-1765.6594
-1879.8053
-898.43665
-871.94318
343.08084
-137.93665
330.80997
-47.290359
-282.39462
451.31488
821.05288
1404.5232
1107.0223
985.50872
1258.1998
613.38292
-181994.42
-181309.73
-172744.81
-187846.15
-178448.52
-168225.27
-162771.54
-125204.13
-187073.66
-171883.56
-187535.46
-163262.22
-168280.81
-137900.24
-130271.77
-122031.9
-136703.71
-135557.38
-130473.09
-118256.77
-114041.35
-102759.81
-125507.44
-131630.98
-140098.5
-125725.9
-130647.03
-106396.92
-117909.59
-113419.56
-124434.87
-117234.13
-117036.42
-107947.68
-102302.28
-102458.95
-118092.96
-112428.82
-114332.6
-116717.05
-106073.92
-105531.57
-107455.7
-114437.56
-104854.02
-113251.49
-111412.03
-104429.77
-102736.06
-102841.65
-113859.04
-103984.24
-109170.57
-106654.78
-97228.541
-101148.53
-102370.24
-115149.01
-97943.639
-107114.51
-102821.78
-99769.407
-99148.097
-103794.44
-107895.96
-94971.659
-100516.53
-101809.56
-93519.798
-95574.477
-98920.399
-107497.59
-91198.671
-102099.39
-97617.491
-93224.435
-92824.846
-95452.757
-101546.02
-88082.749
-95230.099
-93403.934
-87032.398
-89432.897
-90703.206
-103092.54
-84917.282
-93250.219
-90548.152
-84555.248
-85603.112
-89367.129
-95699.351
-83463.971
-90041.043
-89714.643
-77717.319
-85339.467
-87196.351
-91062.742
-79362.566
-86333.53
-83853.09
-75381.848
-80764.237
-83011.551
-85643.089
-79149.265
-80561.693
-81309.981
-71888.258
-78318.128
-78408.386
-83515.376
-74657.705
-78411.143
-76718.845
-69308.507
-72773.674
-76526.999
-78303.728
-72013.542
-74108.746
-73254.225
-65575.481
-68793.251
-71890.355
-75731.776
-68180.67
-70971.664
-68660.918
-62101.363
-64264.221
-69664.937
-71838.364
-65287.969
-67043.667
-64915.311
-58732.401
-61149.17
-65878.253
-68654.927
-61656.544
-63430.382
-60594.034
-55842.821
-56009.687
-62880.828
-64622.119
-58610.159
-59754.56
-57440.275
-51742.613
-52637.028
-59661.646
-61221.592
-55209.13
-56921.693
-52378.338
-48917.145
-48586.742
-56547.199
-57207.042
-52445.783
-52245.022
-48442.062
-45809.301
-44539.606
-53646.901
-53926.024
-48926.803
-48865.797
-44744.687
-43056.599
-40710.351
-51040.18
-49232.271
-46397.435
-44675.937
-41074.812
-39405.623
-36694.109
-48008.223
-47225.441
-42909.987
-42806.033
-37025.601
-37229.693
-32776.961
-45195.905
-44865.996
-39812.066
-39070.189
-34653.265
-33570.689
-30461.621
-42261.185
-41132.939
-36631.174
-35717.577
-31225.145
-30132.693
-27226.815
-39559.337
-38109.613
-33966.962
-32782.679
-28619.793
-27484.06
-24392.188
-36773.945
-35096.638
-30872.747
-29984.274
-25478.337
-24598.852
-21660.997
-34012.845
-32116.709
-28198.657
-27056.86
-22823.886
-21954.248
-18819.888
-31165.699
-29013.048
-25213.926
-24181.175
-20081.296
-19172.225
-16587.965
-28383.97
-26109.377
-22674.184
-21590.469
-17649.769
-17035.112
-14514.137
-25573.551
-23144.083
-19930.707
-18724.967
-15189.933
-14453.087
-12032.914
-22641.179
-20229.345
-17207.985
-16177.045
-12948.642
-12276.663
-10419.763
-20074.557
-17357.704
-14910.767
-13701.674
-11044.395
-9977.9562
-8829.5087
-17063.402
-14901.296
-12314.692
-11637.097
-8736.8357
-8441.0079
-7281.5723
-14648.387
-11990.665
-9946.489
-9040.8442
-6953.5033
-6640.1528
-5616.136
-12257.899
-9929.9071
-7961.5296
-7534.4463
-5385.5651
-5041.276
-4315.4668
-9671.933
-6843.687
-5959.3452
-5066.8012
-3735.5049
-3592.9652
-3524.9486
-7479.8671
-5767.9206
-4684.9086
-4069.4045
-2790.0311
-2695.4791
-2402.7179
-5315.7991
-3051.3886
-2534.0277
-1855.1576
-1115.6538
-1268.5284
-1586.7683
-3647.7657
-2425.7711
-2135.1123
-1773.1703
-1029.2533
-1381.9586
-1181.1183
-1775.0837
-632.52735
-423.1494
137.87452
454.09965
106.51354
96.160238
-690.93368
-343.10151
52.839664
-144.84137
85.217484
-293.21044
-13.182344
619.4144
1648.9292
1470.7914
1468.8871
1525.3942
1255.9383
945.41421
-6503.0868
12847.48
6284.6187
8628.6549
7180.9746
11712.474
-9945.2049
863.81358
-5854.1287
-6141.3496
-15103.525
-7991.7641
-10195.686
-5946.7251
-21061.695
11076.922
638.56642
12104.459
4447.8579
11379.723
-3987.2116
-3692.5191
-2173.2796
-18318.789
-11785.345
-12881.922
-18276.403
2417.9863
-11906.273
-11851.655
-17984.453
-1519.1155
-17598.6
8186.5611
-9243.0668
-10959.737
-4792.5162
-9862.641
-13973.369
-11285.592
-12954.392
-4301.6331
-13997.965
-15215.627
-25382.266
-12112.28
-19281.586
-8059.3771
-10033.15
-15370.327
-13227.124
-11434.818
-14841.15
-12098.017
-13070.533
-6582.7772
-14039.245
-10798.273
-21930.883
-13467.267
-18998.893
-11771.403
-4971.4319
-10061.31
-14601.042
-14798.243
-10764.229
-12567.856
-8071.4584
-6550.6783
-11692.631
-12379.762
-16261.839
-12022.021
-14060.253
-10241.152
-5829.0705
-8565.085
-12903.552
-11904.813
-10408.179
-10234.995
-8643.1457
-4546.8556
-11156.561
-11250.49
-12488.821
-11411.97
-12546.558
-9716.1036
-2961.5246
-8008.2462
-9584.9977
-13962.386
-11703.786
-5656.3657
-8204.0028
1396.0255
-9187.8757
-12930.254
-6950.2939
-12560.562
-4717.3756
-9463.063
-1016.6157
-6355.6897
-10529.787
-6782.5486
-11886.088
-2937.4099
-7658.2689
807.44962
-7412.4034
-10147.47
-6956.0333
-12761.91
-2458.7928