/*--------------------------------*- C++ -*----------------------------------*\
  =========                 |
  \\      /  F ield         | OpenFOAM: The Open Source CFD Toolbox
   \\    /   O peration     | Website:  https://openfoam.org
    \\  /    A nd           | Version:  6
     \\/     M anipulation  |
\*---------------------------------------------------------------------------*/
FoamFile
{
    version     2.0;
    format      ascii;
    class       pointScalarField;
    location    "1.74";
    object      E;
}
// * * * * * * * * * * * * * * * * * * * * * * * * * * * * * * * * * * * * * //

dimensions      [1 -1 -2 0 0 0 0];

internalField   nonuniform List<scalar> 
3969
(
2665.1687
-725.11701
21335.162
20885.081
3477.0048
3306.0932
21312.356
21615.806
484.64483
510.28173
-33.085022
-113.85655
-204.83482
-221.26996
85.821699
22922.061
20843.398
20411.408
19822.485
19355.852
19934.314
21931.097
2735.4615
2432.3398
1650.46
1999.156
1971.377
2350.2223
2162.7866
2988.0894
2111.1011
2701.763
2941.4477
2694.1505
3273.0261
2787.6343
3459.8636
2782.6726
3473.5806
3114.5616
3614.5185
3347.5396
3528.272
3593.1492
3662.2535
4022.7401
4013.2404
4558.378
4658.4713
4885.1688
5384.9742
5640.6034
5956.9597
6504.0831
6866.4284
7435.9033
8176.7263
8979.5445
9905.1391
10967.113
12064.213
12823.768
14531.419
15049.232
17105.57
17543.632
19712.244
19730.699
21627.823
6685.0581
-2965.9231
7306.26
1441.2333
6925.9183
3712.2475
6678.3009
5563.4121
6170.4295
6685.1368
5756.5493
7282.8199
6740.9526
7153.5168
7181.4242
7299.3844
8014.6056
7157.9569
8189.8927
7719.1208
8105.0757
8107.679
8262.2866
8866.8289
8895.0004
9766.6796
9085.3104
10050.873
10205.718
9847.0628
10753.698
10560.89
11287.618
11578.796
12360.065
13296.976
14142.058
14777.954
15963.883
16717.828
18112.796
18457.495
19708.683
20111.576
21335.707
21859.722
22315.908
1723.1652
879.50147
178.9444
799.87907
162.76309
525.56056
542.65799
8794.6723
12410.838
-8392.364
10058.814
3632.0704
4860.9275
7992.5161
4075.6617
11063.29
3113.0762
10908.899
5100.7642
6508.2579
7143.963
4848.844
7719.4588
5438.0491
7200.1184
6742.811
7061.3296
7495.311
7413.9008
7994.0754
7659.2589
8911.8904
8645.3583
9835.3603
9726.2007
10460.69
10658.516
10921.89
11495.101
11905.588
12497.37
12695.853
13591.201
14324.754
14806.877
15479.3
16246.181
16617.424
17652.463
18023.801
18909.072
19503.393
19885.185
21536.852
23106.419
18789.354
21921.796
17776.206
21168.947
19687.18
23490.418
22899.44
19779.335
19874.969
18244.95
17145.428
15973.614
14878.18
13769.84
12994.305
11958.18
11148.182
9610.1598
9322.5543
8488.6916
7869.1113
7305.7465
6863.9664
6575.1785
6240.4676
6242.641
5878.6134
6010.2
5492.8651
5383.131
5024.4451
4898.6923
4596.598
4390.5648
4304.3288
3850.0115
4079.341
3467.3106
4218.1293
3322.2372
3206.6713
2594.9593
2937.2466
1884.9597
2899.1004
2257.5661
2497.0486
654.29411
2821.4617
-949.04273
3556.5805
-950.76035
5828.793
891.17716
1062.0604
412.96626
1220.6577
716.05242
1181.9847
-876.35661
-1853.4209
-1156.6517
-2128.5899
-2081.1119
-1251.2764
-507.76827
-2058.5031
20908.65
21376.463
21277.099
21440.341
21431.084
21464.577
21441.124
21809.436
21804.103
21843.246
21943.943
21950.837
22007.772
22134.424
4525.7606
349.86831
2149.472
1162.4651
591.74705
1492.2133
202.81274
1281.6122
624.18215
1521.4589
1339.5733
1496.4887
1927.973
1987.1388
2290.7504
2556.2894
3176.7059
3242.9719
3744.8702
3887.8072
4245.2947
4440.3801
4868.2971
4780.6694
5096.5826
5275.6538
5349.7901
5729.6304
6237.1834
6557.5919
7160.3887
7662.3143
7984.2329
8571.1386
8953.8257
9471.6373
10190.691
10568.001
11468.391
12182.892
13338.969
14337.851
15742.918
16472.727
18503.719
18724.34
22337.377
2085.8157
183.43888
837.29989
-25.603195
341.77447
500.48892
-58.88796
510.90393
-165.65024
-15.483663
-131.1969
3.7903657
-112.30024
-401.36376
-149.13632
-14.013896
272.5556
320.68477
726.4451
1019.6922
1405.0973
1988.1863
2128.6533
2722.5099
3063.3721
3339.9223
3680.5872
4214.2713
4298.5407
4893.6885
5415.3095
5795.46
6403.3596
6887.9731
7456.0339
8106.0424
8836.1664
9368.0109
10653.667
11168.176
13044.088
13403.792
15840.072
16110.11
19221.436
18426.273
23504.167
1678.7514
-587.11698
1083.2717
-174.80651
5.6784194
-32.585165
194.3336
456.70629
513.6389
1421.0598
1042.5638
1770.153
1431.7995
2115.3869
1694.3406
1931.2674
2079.2677
2240.9987
2753.8106
2642.1092
2912.559
2565.3684
3059.4326
3184.9252
3502.7422
3719.3234
4421.8077
4518.0289
5280.9173
5912.6835
6288.2495
6965.2418
7426.5408
8030.8023
8688.0073
9449.4611
10291.002
11453.495
12690.204
13754.818
14712.123
15901.789
17068.334
17684.704
19309.561
18436.276
24057.4
870.13504
-656.60919
266.27246
-339.37599
-286.60679
15.532229
-465.65204
-652.99359
-499.49829
-1289.9677
-1097.5016
-725.44705
-1241.3345
-368.26887
-899.99897
403.55175
-139.73548
856.49876
536.06775
1104.3176
1476.5578
2429.1242
3009.9515
3367.3691
3632.3991
4440.4227
4515.2645
5033.8838
5454.9844
5808.4941
6302.0112
6804.19
7285.7523
7893.6588
8433.1574
9072.9469
9860.8652
10247.686
10803.06
11002.306
12734.891
13079.912
15040.651
15431.947
18202.972
18277.557
24238.117
1106.6716
-1351.8653
468.14195
-1209.8081
-579.70508
-876.66585
-1059.4614
-586.5999
-568.02695
-717.09451
300.1178
-441.23106
244.81096
-120.00148
158.34717
87.09894
196.56939
447.71673
553.7673
1011.5123
1151.0244
1288.4293
1347.7554
1419.0644
2077.8258
2168.4563
2396.1358
2994.5189
3358.7275
3941.4625
4391.1626
5090.4611
5607.3374
6338.7164
6992.4189
7878.2012
8681.4669
9870.4585
10647.952
12815.127
13646.963
15256.29
16390.538
17953.383
19528.119
19724.761
24161.344
1864.7253
-1144.7873
967.7087
491.35104
1157.7481
1312.455
1495.1578
1255.6754
1965.4333
1046.6293
1982.2284
1545.3948
2219.2488
2240.0729
2293.2184
2855.2159
2687.9721
3219.375
3272.468
3416.893
3992.0415
4106.7875
4318.5859
5347.132
5584.8832
6007.7261
6423.5782
6732.4433
7019.104
7487.8998
7915.4476
8220.6337
8768.7648
9341.9212
9804.8343
10666.846
11298.612
11845.966
13261.571
13193.84
14131.283
14692.917
15939.869
16689.062
17883.025
19132.836
22817.986
2022.7852
-3265.2903
108.44696
-1997.3773
-1262.1288
-1750.9257
-1541.8608
-2335.2886
-427.7933
-2753.9392
587.54515
-2182.1613
-149.67354
-1203.0443
21.170517
-240.94316
597.2017
885.76872
1255.8117
1821.5543
1784.7861
2452.8732
2491.2306
2623.5784
1960.07
2274.1558
2522.9311
2808.7586
3273.3259
3884.1341
4320.105
4974.0469
5394.3249
5999.3051
6300.9222
7030.9473
7439.4935
8733.6056
9195.1138
10600.54
11804.925
13770.845
15189.934
17127.397
18719.032
20981.764
22664.532
-175.88369
-403.70069
-870.93796
-1020.0303
-797.93186
-388.20191
-545.13699
174.25698
309.59463
-303.61516
3.3126082
-36.022447
331.12289
-55.136507
-191.07965
-524.06014
-835.97717
-727.49964
-781.52577
-578.09444
-619.17298
-144.04562
-393.13442
-280.5134
-281.56346
-150.84374
163.2601
279.16323
-545.77292
-769.56058
-712.39507
-767.62385
-678.54505
-495.14228
-129.7842
-619.00688
-1412.7811
-1172.3582
-1584.6526
-1338.1294
-1256.2109
-621.46206
-1021.6523
-949.84982
-1639.2522
-2127.1182
-1953.9912
-1873.1849
-1077.5291
6772.9349
8955.066
9207.5559
10620.074
10792.847
10042.708
8315.6829
4821.8698
6538.5875
2508.2189
1132.6944
5736.7973
3556.606
7971.9315
376.66856
665.32371
4438.5643
2717.7736
1391.2105
810.24052
5127.3611
6572.0355
7322.0425
3788.8133
4669.8768
5169.8347
7418.9071
4048.8836
3971.7296
4218.5531
6129.669
4760.7839
4612.4167
4682.6276
7630.9946
7738.4727
5287.0355
3672.7459
4690.2426
3304.5492
5122.4192
4451.9445
5630.9054
5511.9896
7166.3945
6383.5614
7059.3253
7526.7305
9087.8445
7712.5831
6461.9953
5863.0641
5695.067
3847.0547
4443.8601
4908.0382
7355.7272
6241.5824
6230.252
6312.2631
8485.9493
8318.0155
11271.182
6362.288
6218.6454
5605.5761
8457.3244
5417.4064
5469.595
6109.6156
8594.4837
7287.7362
8716.4114
5653.561
7973.9475
7008.9974
9152.9812
6454.9057
7680.2333
6000.0611
8817.4502
8164.6148
5605.9576
8280.1332
9535.612
6778.1958
8612.3685
5972.4675
6561.7471
7855.1349
7360.7397
7487.1537
7635.3328
8689.6017
6970.3169
10059.673
7030.672
9954.4947
9204.1168
8852.7212
7645.6788
7692.0988
7050.1838
6523.0236
7236.3642
8855.3095
7037.1212
8978.3105
6811.0224
9086.6343
7646.9932
9525.4156
8233.7809
8552.0116
8156.7153
6900.5431
8223.0652
6680.5235
8077.8357
9102.8859
7362.811
8598.0374
7239.8027
8657.1635
7382.5101
8514.7643
8693.0651
7651.4627
8645.4532
6850.7353
8491.0687
6928.3243
8699.372
8791.4534
7707.9481
8503.0715
7479.4185
8642.994
7522.3543
8512.071
9082.0044
7733.2721
8879.5092
7308.3363
8616.6086
7215.2325
8687.7352
8840.2757
7967.1442
8715.6667
7514.9014
8595.4833
7431.7129
8816.947
9288.3664
8193.6675
8914.1339
7860.6628
8908.7162
7944.6429
9317.0985
9252.2687
8669.2349
8980.3348
8270.4077
8912.225
7686.6968
9164.3382
9526.7708
9495.9339
8565.3253
8967.951
8892.2714
8701.1203
10417.862
9976.6381
9565.1428
9031.9205
9398.6769
8863.1164
8785.2679
10627.132
10396.973
9719.498
9978.1951
8861.7116
10382.365
9431.5227
11719.667
11084.262
9733.275
10304.259
9459.6639
9945.067
8373.8051
11631.806
10132.457
10370.582
9601.3354
9952.9317
9926.0561
9811.5026
11351.888
11217.087
9767.7627
10540.184
9956.7084
10531.648
9573.3467
11532.173
10606.895
10630.191
10402.821
10399.868
10469.16
10111.986
11507.297
11461.243
10740.056
10919.365
10682.693
10983.51
10505.041
11883.869
11543.362
11231.92
11291.443
11275.697
11382.558
11033.089
12437.697
12283.568
11928.179
11989.064
11764.485
11799.788
11616.922
13020.008
12867.489
12517.738
12347.292
12394.01
12413.019
12330.225
13499.769
13819.231
13377.239
13293.793
13147.681
12957.094
13444.08
14562.07
14204.035
14001.218
13735.4
13812.316
14230.091
13049.695
15287.705
15289.291
14034.49
14259.443
13916.081
14075.08
14385.542
15778.173
16130.53
15738.488
15579.738
15232.689
15376.134
14819.76
16861.907
17239.253
16354.041
16084.292
16139.939
15866.129
15784.19
17699.34
17764.115
16973.42
16982.114
16642.542
16694.112
16499.324
18057.061
18611.199
17677.71
17539.743
17537.958
17408.066
17311.845
18765.678
19105.258
18322.799
18425.869
18204.071
18088.196
18113.279
19301.729
19505.557
19148.952
18914.655
18965.297
18739.669
19055.793
19788.105
20236.657
19796.439
19726.316
19701.829
19610.54
19861.29
20314.996
20540.788
20612.425
20265.835
20484.729
20202.899
20624.652
20738.826
21230.82
21273.526
21205.955
21199.857
21374.052
21405.612
21690.291
23663.143
23636.226
23597.331
23741.458
23637.938
23656.358
23576.623
18335.911
19996.849
19731.102
19864.123
19670.24
19929.372
18859.045
20659.766
21264.1
21686.542
21732.381
21743.705
21602.518
20257.868
17886.343
18471.344
18372.472
18621.14
18116.048
18755.861
16985.058
19262.775
21420.413
21755.977
21421.078
22096.558
21626.684
20148.301
20371.633
20533.808
20081.956
20406.544
19708.456
20230.249
18741.653
22416.8
23029.903
23048.454
23141.951
22982.115
23108.053
22866.815
2229.6231
3484.8421
3045.1905
2986.0945
3508.9698
4115.3352
2688.4658
684.35871
377.24046
1011.263
1929.1826
1159.6763
228.55499
1240.2718
2551.1325
3436.4645
2593.752
1990.5701
4137.1131
2425.0664
4291.0114
1583.0534
1244.5476
949.38197
2166.1178
959.41465
216.61134
1358.3039
4192.8111
3304.7015
3959.318
3297.5017
4350.1254
3644.5982
4279.3118
1755.2299
1804.6354
1036.4047
1001.5077
921.54584
-53.445227
1767.1057
4798.9983
3561.5927
4125.4948
4129.3296
4002.0627
3927.2494
4314.9325
2372.6846
2111.6638
1506.3171
1309.2276
1395.7306
1237.1542
2575.5793
4166.5268
3461.4539
3982.563
2947.3274
4077.7695
2527.2977
4547.7509
3967.962
2623.3987
2639.7729
2311.5311
2453.7148
2195.7721
3171.0947
3857.0246
3160.3226
3433.9214
3152.9582
3269.924
2514.0977
3735.8707
4243.328
3121.759
2929.6608
3235.6971
3161.0342
3035.5139
4309.3775
4227.9485
3465.2862
3835.5882
3032.9883
3913.7179
2667.4269
4262.9007
4533.2656
3443.0108
3428.8388
3405.4797
3491.2035
3989.4389
4832.7551
4604.5832
3855.341
3891.8735
4072.4374
4519.3681
2996.3389
5352.4536
4685.5726
3679.4424
4086.9082
3052.0476
4315.8291
3795.4864
4612.4843
4992.2866
4374.6332
4262.1753
4206.5418
4607.8136
3638.3692
5464.9908
5147.9363
3914.5731
4562.4686
3871.0683
4365.4731
3780.5793
4987.0576
4987.0389
4427.3301
4595.0701
3944.7517
4864.5186
3972.2925
5346.5785
5126.9497
4323.8812
4517.3384
4273.1912
4627.9992
3949.3599
5185.8024
5019.355
4304.9335
4760.5879
4071.0269
4771.5303
4184.7265
5298.4916
5090.415
4561.7341
4596.7199
4270.3829
4800.9188
4084.4854
5327.0254
5128.8531
4304.8279
4641.5838
4256.0774
4667.686
4197.1246
5528.5701
5415.2273
4712.2282
4818.2667
4495.5933
4873.2836
4589.9609
5909.4028
5672.4898
4894.4419
4991.0809
4767.4091
5094.0918
4741.2636
6129.4859
6354.8058
5154.5506
5452.8063
5109.5521
5469.4364
5190.1659
6683.719
6554.5238
5498.5808
5682.1115
5400.8996
5713.318
5402.1034
6885.8857
6963.2866
5840.5271
5958.2778
5852.5342
6211.8143
5830.7961
7348.14
7149.541
5884.0077
6431.8092
5958.8673
6340.723
5982.1517
7294.516
7207.7478
6498.153
6449.9015
6263.6337
6708.1102
6303.9815
7500.3751
7628.6813
6534.5343
6816.7755
6625.8015
7060.9653
6557.6106
7708.9837
7855.2655
7099.9959
7238.2829
7070.6539
7315.6055
7012.1115
7988.8037
8329.2479
7553.486
7684.8371
7451.8622
7861.1336
7495.9855
8418.544
8926.6162
8237.1716
8194.2915
8224.5125
8345.7411
8194.1093
9000.1768
9652.0531
8819.6296
8961.5237
8807.0857
8945.7741
8855.4742
9597.5972
10368.39
9850.4741
9771.9363
9641.1618
9882.9913
9833.577
10551.727
11476.674
10476.669
10293.042
10358.208
10821.859
10072.32
11972.74
12231.141
11563.988
11583.812
11524.11
11644.641
11985.156
12445.568
13598.893
13072.256
12837.254
12824.328
12972.019
12597.72
13871.91
14682.213
13779.106
13611.04
13957.057
13722.651
13939.21
14852.09
15879.259
15167.47
15248.348
15230.569
15211.91
15124.265
15681.489
16422.005
15844.595
15686.415
15775.19
15768.797
15873.84
16654.374
18028.15
17581.534
17415.701
17685.635
17581.261
17677.615
17669.053
18212.465
17654.688
17678.112
17704.054
17610.122
17728.498
18225.3
19972.521
19883.507
19739.793
19897.431
19802.391
20332.534
20105.24
19559.77
19381.929
19411.992
19333.281
19508.981
19510.961
19512.68
21940.393
22106.047
22005.17
22171.142
22189.006
22299.297
22336.911
3292.5522
195.58645
-442.91193
-821.41976
-813.78679
378.14343
-1318.1436
384.14118
-620.93806
1006.0219
653.28393
666.53686
1046.6992
675.24612
1103.7599
2261.9444
1814.7672
3186.7181
2986.1322
4070.366
4154.0267
4878.4967
5002.4526
5173.1962
4915.3226
5106.5076
4890.2589
5270.4584
5536.342
6011.6569
6611.8778
7238.5628
7775.6936
8321.7387
8985.353
8734.4031
10272.304
10087.474
11165.023
11719.706
13146.365
14375.2
15986.432
17536.815
19382.13
20145.273
23533.211
1842.8836
2130.0603
-994.20924
-247.82125
2158.698
-857.01585
1828.933
1128.4759
1356.3388
2124.9882
1286.0153
2195.7405
2226.5956
2472.8301
2903.9974
2809.1819
3179.9297
3111.8964
3520.5968
3598.6055
3878.9242
4022.8184
4098.4313
4324.0326
4434.8343
4739.7087
5169.9092
5788.7804
6267.8478
6737.7033
7171.7029
7640.1699
8058.3989
8740.1621
9212.0515
9859.4983
10654.376
11618.796
12828.224
13614.351
14935.082
15825.348
17286.754
17630.628
19906.402
17958.184
25082.371
965.44959
-88.252622
-1125.0431
-94.485993
-1481.4072
470.82217
-669.69725
-114.65265
108.71078
202.56438
-160.58058
1330.2884
-104.54973
336.03788
344.55854
503.25478
848.60126
1336.521
1237.4152
1838.779
1921.4955
2260.4763
2567.9338
2711.8273
3189.308
3235.3774
4083.1587
4084.3029
4808.2311
5117.6156
5755.7509
6089.9978
6803.3232
7319.706
8003.1285
8827.8388
9596.1808
10595.088
11614.983
12833.018
13830.628
15463.087
16415.217
18219.638
19686.644
20378.385
26413.366
524.58512
1184.3795
-1505.4438
1727.6905
-1578.1885
2541.841
-2499.6045
2757.5343
-1353.5831
903.34202
640.58109
52.237364
274.45496
2837.1303
1510.6368
2437.0111
2317.0163
2351.6079
2652.7094
2904.9468
3158.3861
3398.0951
3662.4586
4282.1953
4800.3807
5489.0112
5676.7494
6272.5095
6631.3623
7030.8364
7457.1106
7926.0892
8527.3393
8979.1922
9776.8997
10421.37
11197.756
11999.507
13085.748
13708.433
15097.399
15715.117
17297.309
17535.169
20087.516
18124.724
26117.939
1504.8855
92.110262
688.94786
428.51225
317.52951
109.68481
-792.64805
2403.9908
-2233.0374
3152.8068
-1549.5264
2187.584
542.61622
1289.9432
774.94315
1531.9478
1378.7618
2092.3503
2196.2614
2665.5597
2916.0422
3108.2002
3695.2161
3580.4979
3343.7508
3259.1283
3609.5493
3929.7273
4536.9781
4923.863
5528.9529
6001.8393
6545.0338
7275.2453
8066.1529
8693.4433
9647.0447
10703.288
11370.197
13018.532
13675.572
15532.039
16290.684
18359.009
19415.081
20922.984
25186.245
1741.902
2654.4707
-1129.7677
3817.2565
-921.18943
2780.2441
2791.8192
1218.9387
4448.5637
2555.9565
1800.3856
4414.6046
585.86876
4029.5873
2359.5488
3458.3597
3342.1835
3762.2813
3979.5783
4049.7352
4339.1235
4364.2166
4916.6209
4793.5085
6540.8371
7278.029
8151.7302
8440.9941
8887.698
9088.8677
9614.3419
9725.6752
10103.792
10617.048
11060.648
11564.032
12534.277
12772.068
14247.715
14556.341
15768.031
16366.141
17675.291
17907.86
19950.473
19048.629
24158.73
3700.7305
-1779.247
2088.7237
-3090.6883
1839.9892
-1203.0867
214.13327
-1538.2506
979.21966
-762.57851
-1058.1252
2116.3241
-770.03746
3303.0054
347.82319
3434.0787
2432.5534
3511.3373
3552.4452
4023.7948
4106.7339
4240.0347
4284.766
4003.9469
4009.2721
3633.3168
3005.5067
3644.5225
3768.5447
4602.4793
4967.2525
5284.8287
5744.091
6181.5886
6374.1071
6928.5535
7646.1321
8768.7595
9373.237
11112.55
12464.022
14309.247
15876.675
17900.943
19604.131
21488.84
23002.313
2027.8315
2516.1302
2354.0127
2203.0553
2252.0175
1510.9405
2083.8048
777.81013
891.30892
-126.64084
-121.06996
-634.95415
-515.09877
85.753065
1257.5638
762.75047
1309.9243
943.64661
952.02881
788.98811
1651.4503
1450.1067
472.23245
269.79257
310.2433
-72.048746
357.63243
38.464744
1235.0351
694.67721
1869.9611
259.19101
1439.5221
-21.236791
616.69055
1553.4541
1115.0417
313.4827
1403.0779
649.20354
1045.5791
1767.7367
1228.3235
154.18768
1799.8853
26.397605
654.92686
381.88377
-44.923875
1592.2347
1739.0664
1066.6045
1515.5765
1801.1186
726.19377
1747.6228
1504.3002
879.37427
1265.38
1522.0211
819.66594
1198.4062
509.38086
1725.6171
1628.9906
1763.6987
1129.5895
1662.0022
1088.921
1364.0022
1548.0075
1975.862
1485.961
2064.0421
1741.8711
1740.185
1682.4415
2381.6136
1750.7671
2270.4253
1429.4252
1729.0721
1415.2738
1312.7428
2118.0408
2391.5682
1865.0133
2088.8504
2269.3197
1639.7
2219.0903
2765.3379
2374.6916
2783.8086
2234.5509
2789.41
1329.5982
2372.5975
2646.1792
2872.4879
2018.236
2507.7453
1844.0964
2389.8423
1873.4801
3449.3582
3216.2011
3020.8773
3296.7166
3002.9494
2588.5632
2565.4734
3230.1659
3129.9044
2830.1727
3241.3388
2620.2923
2639.6925
2623.8549
3708.2587
3615.9549
3436.3916
3685.1563
3330.9895
3614.7036
3313.1413
4038.8047
3849.9353
3575.0387
3836.6954
3654.1188
3440.4518
3223.5542
4307.4406
4309.3563
3988.2851
4467.279
3926.0162
4123.1874
3933.0111
4809.8567
4613.3768
4479.1261
4603.6493
4347.1718
4390.2549
4039.9986
5057.9734
4925.3834
4811.3936
5102.2416
4760.3619
4895.6023
4557.3502
5552.8604
5322.1188
5403.2066
5399.3284
5133.4979
5018.1347
4868.7701
5682.4241
5345.3147
5638.5064
5695.1004
5418.0683
5514.6017
5276.2434
6157.4745
5600.7182
5923.6253
5919.2007
5644.5694
5463.9654
5368.9714
6055.7667
5554.3215
6139.9305
5897.6322
5829.7024
5607.3234
5801.3253
6413.5452
5729.6633
6304.576
6114.6803
5879.3383
5956.5013
5723.4286
6617.1048
6049.4806
6214.4296
6241.7853
6156.8128
5769.5169
5979.743
6759.3629
5752.8198
6923.6311
6522.0576
6326.3981
6230.3517
6317.536
7062.5611
6845.1335
7008.9474
6750.4191
6809.6844
6548.9614
6642.0638
7616.2194
6764.2313
7376.5483
7344.3555
7209.8934
6885.6984
7058.1064
7770.1479
7424.6635
7929.5063
7728.6955
7517.0723
7412.2237
7558.3638
8359.2677
7951.0138
8345.0059
8241.504
8176.068
8001.13
8097.618
8812.3179
8408.5218
8783.4251
8787.4897
8573.2769
8536.0207
8550.7988
9256.4701
9023.0652
9387.6287
9403.0463
9329.7609
9086.1897
9199.7034
9998.9109
9601.5151
9795.5382
9967.9233
9610.8106
9727.618
9854.1149
10422.841
9911.1711
10310.704
10397.528
10485.339
10098.292
10968.759
11128.748
10763.47
11081.75
11555.629
10836.986
11557.54
10658.933
11727.879
11727.089
11664.526
12032.095
11743.998
11446.572
11993.385
12696.482
12202.707
12079.139
12864.226
12112.809
12750.848
12553.472
13540.469
13283.796
13259.999
13830.296
13296.696
13597.477
13479.079
14778.474
14354.646
14212.243
14820.156
14231.982
14756.899
14621.46
15967.257
15836.135
15612.664
16367.794
15776.235
16271.302
15762.929
17105.434
16693.474
16732.039
17232.115
16638.988
17109.832
17084.147
19133.566
19137.993
19055.378
19525.317
19023.085
19981.717
19043.82
19780.568
19588.938
19697.213
19953.293
19793.757
19894.249
19283.073
22964.615
22879.846
22825.677
22964.843
22809.639
22926.583
23001.16
827.68301
1647.4462
1326.0325
1383.6593
906.98902
1107.1709
507.8015
363.28294
921.8993
401.15679
1022.0254
920.73531
1289.7087
1070.0996
766.76952
142.91178
-95.165594
-446.52337
-18.375765
-620.95464
660.0078
240.23293
611.21058
760.87341
1218.4154
508.22609
1242.4448
-335.45569
1696.3318
1002.7781
1764.0732
684.26632
1947.7654
532.84663
1596.4248
979.08457
767.3324
-248.40702
516.56708
-685.04371
290.08526
-59.1733
1995.1855
911.42438
2022.377
1264.8647
1817.1081
1672.6494
729.6047
1645.6132
1458.0079
299.01051
899.75088
357.79568
546.07345
625.47212
2203.1732
735.87754
1376.1386
1373.0273
640.4098
1428.1349
342.61101
2161.046
1438.5059
1407.8942
1205.0169
1461.9416
1385.6083
1351.5186
2626.5904
1181.9674
1324.1261
1736.4098
744.32257
1376.9741
357.62881
2471.1472
1406.1972
1430.3511
1439.2386
1404.3706
1632.5927
1509.0835
2760.8469
1466.2493
1521.0923
2471.4013
1446.2743
2397.8205
963.38022
2614.6439
1150.0983
1833.7199
1680.5852
1224.9983
1962.9298
1533.4599
2698.8421
1773.8611
2217.1286
2250.6335
2342.8293
2352.77
2111.8621
2976.2396
1271.115
2373.4204
1828.4002
2123.431
2100.9456
1972.6852
2811.527
2224.0884
2535.0143
2471.556
2621.4688
2523.3676
2531.0142
3366.0449
2104.0255
2712.4655
2522.4353
2639.0095
2707.4752
2499.132
3205.0631
2510.6468
2966.3418
2837.7431
3004.6885
2891.7007
2809.8369
3689.6274
2755.2746
3115.1254
3165.1733
3116.2045
3116.0583
3104.5352
3535.6836
2866.9959
3351.0658
3269.1185
3338.6447
3498.7142
3303.4625
3851.4697
3527.6884
3595.4362
3643.1791
3751.6867
3575.6867
3635.9242
3918.4493
3503.7788
3608.9063
3890.1626
3574.2394
4060.1983
3934.1144
4331.127
3975.7134
4062.7541
3987.657
4035.1574
4662.8118
4343.1881
4515.0036
4178.6738
4340.4131
4119.723
4313.7144
4546.7412
4247.2097
5073.7809
4602.7076
4497.4725
4878.376
4263.0456
5283.678
5082.1082
5209.0767
4895.6084
5012.1585
4581.6716
5340.5308
5284.6365
5382.0617
5902.8121
4646.1201
5492.7305
5481.7596
5277.9249
5853.6927
5600.5083
5992.6265
5855.4286
6164.4705
5535.9486
5702.4558
6366.2164
5896.5511
6662.041
6186.6746
6208.1302
5964.9279
6298.2373
6686.9569
6235.7988
6959.1591
6334.608
6620.48
6605.1628
6525.422
7035.0767
6754.1079
7320.2101
7112.6252
7372.1028
7120.7232
7079.0815
7788.6076
7280.1989
7987.1948
7558.843
7666.7792
7501.3696
7643.6824
8142.9903
7696.0671
8431.1316
8157.3423
8349.1772
8381.3211
8234.7998
8742.2745
8350.2408
9198.7339
8799.421
9002.844
8863.7466
8710.919
9417.981
9189.2848
9826.4601
9422.9754
9657.1044
9706.127
9521.5431
10291.837
9557.6421
10872.295
10464.778
10488.988
10614.485
10031.801
11170.681
10382.886
11778.36
10717.901
11314.446
11208.651
11188.551
11780.869
11318.279
12936.93
12169.028
12573.044
12397.738
12112.132
12700.428
12240.023
13756.335
12370.05
13300.244
12930.607
13030.325
13707.059
13338.732
15154.059
14217.544
14959.747
14647.672
14537.842
14911.208
14272.565
15742.681
14428.79
15356.346
14834.081
14924.92
15367.078
15277.791
17437.35
16658.092
17302.472
17140.564
17151.368
17443.03
16828.31
17705.643
16660.003
17375.779
17007.817
16856.995
16952.378
17112.633
20125.953
19731.773
20103.199
19959.432
19959.935
20517.236
20000.275
18922.99
18097.969
18532.71
18170.729
18367.378
17868.42
17479.215
23674.841
24034.301
23471.469
23578.852
23477.731
23735.345
24079.192
996.60177
1512.5849
1221.6296
1190.4167
1083.0149
1093.3617
696.06638
-528.8578
-513.0501
-801.2262
-763.04361
-551.73585
-766.42578
-303.98266
943.987
261.57979
223.69294
-56.397086
-220.05766
-428.362
145.77775
-224.32295
-312.07254
434.95674
834.40957
813.47098
1133.3811
435.19956
1414.3729
779.08767
890.25339
-690.83348
-105.86046
-1477.6395
7.6467706
477.30955
-1142.194
-633.5896
-381.72845
-115.37995
359.14951
161.50206
634.80665
190.28591
1296.7478
615.16587
1186.1217
-179.30619
614.89021
602.76615
-462.21733
-475.39365
-848.1764
-786.36322
-621.45074
-350.11694
230.50882
-71.543875
631.70455
685.75556
1505.3026
375.43216
694.7366
931.03906
318.36683
119.5971
-20.168603
-372.98271
-517.91595
-173.86703
291.83082
-59.313555
371.74412
20.06443
828.14193
-148.36502
432.66316
1078.5529
568.38528
537.37263
589.11535
666.11591
454.571
578.89105
1015.682
6.2716397
1281.0549
-26.536593
990.02661
-557.94259
778.63181
1440.5261
1015.0648
1696.0757
680.73451
1396.716
448.04934
1227.3795
2373.82
1026.5599
1131.5175
959.89059
875.4319
546.58263
851.7282
2342.1236
1551.5997
1569.8832
1565.8913
1391.2874
901.46024
1630.8867
2927.2457
1438.3001
1731.0318
1859.3841
1263.3174
1199.3186
1424.2155
2895.0977
1508.7865
2155.2095
1846.0484
1603.6672
1501.1514
1999.512
3349.3576
2015.0135
2308.4303
2227.2742
1885.1904
1745.2027
1936.9089
3431.1629
1942.7693
2557.0744
2371.8931
2017.0546
2129.1877
2337.6151
3862.9807
2540.431
2988.26
2729.1728
2494.7543
2336.0563
2513.8234
4211.6061
2549.4391
3153.6208
3064.8311
2513.9842
2759.7043
2850.3964
4556.7254
2981.571
3824.4433
3012.6981
3243.3642
3029.3914
3147.1179
4889.6779
3302.1598
3962.3424
3679.0726
3771.4022
3073.9192
3108.3128
5238.4712
3482.8344
4472.2826
4164.4272
4069.9011
3436.5481
3885.9412
5469.8209
3868.9115
5108.6412
3999.6789
4542.47
3840.976
3595.5845
6319.6829
4219.4815
5317.5642
4324.3699
5356.763
3999.893
4515.7966
6217.4299
4599.1067
5557.7172
5358.6758
5184.8356
4610.1727
4644.1426
6888.777
5529.0694
6478.5473
5178.2551
6167.0366
5056.9474
5342.1925
7356.3038
5552.9594
6215.963
5830.6943
6393.2713
5261.5425
5657.3103
7620.6233
6111.4588
7183.3443
6546.7464
7050.8775
6060.5548
6372.088
8263.992
6707.5178
7552.8084
6776.9261
7313.1709
6450.6329
6629.0344
8687.2851
7244.7078
7952.3676
7525.4201
7989.6174
7050.3132
7322.7109
9324.9794
7793.8087
8647.4272
8094.948
8342.3205
7783.0317
7962.3536
9890.7738
8541.0596
9260.4605
8709.8495
9120.3939
8513.6982
8360.982
10700.601
9320.8677
10045.352
9424.3793
9780.9406
9171.1754
9311.3031
11367.727
9998.0041
10675.754
10194.937
10649.602
9971.7616
10053.452
12176.301
10873.461
11672.817
11139.866
11316.1
10972.919
10665.932
12720.714
12096.011
12393.252
12111.928
12158.075
11852.877
11801.022
13813.366
13186.985
13185.943
13378.425
13122.969
13335.279
12696.561
14455.545
14404.9
14146.323
14442.887
13991.115
14000.091
13502.751
15791.672
15448.814
15188.272
15610.132
15004.774
15722.087
14997.163
16559.306
16881.672
16450.927
16971.689
16399.901
16948.132
15734.131
17736.783
17700.656
17308.231
17920.099
17020.215
17867.841
17184.004
19162.363
19506.123
19181.882
19767.303
18918.143
20591.779
18830.1
19366.439
19470.855
19364.055
19771.873
19234.457
19927.222
18184.243
23684.245
24082.725
23739.834
24025.48
23729.241
24498.318
24128.102
453.03868
707.87195
474.14217
577.56987
426.71609
482.66687
9.54101
-286.83342
-22.224245
151.06885
549.04518
602.29663
926.80011
1209.0528
-93.530925
-962.80639
-1157.1317
-1218.7771
-1180.6115
-1132.3769
-1283.0993
250.33443
824.34785
1432.2776
1620.4229
1848.9445
1895.4505
1647.8167
43.753541
-706.58866
-972.46491
-1894.3175
-1899.2409
-1888.9733
-1212.2843
778.74263
706.17494
1135.749
1787.1701
2176.0247
2001.5873
2102.6357
92.165824
-264.78187
-981.5418
-966.22938
-1516.361
-1488.0078
-1063.1789
567.02843
841.0586
955.8399
1217.4877
1337.5921
2124.9296
1601.0343
707.24716
339.0916
573.272
-528.58809
536.59211
-636.19446
228.15519
180.68376
740.21756
433.86463
519.18281
503.38839
1304.5422
1053.9745
724.46239
-13.674246
1733.0583
51.70713
1749.5251
1012.3425
621.53752
319.46652
874.58432
1105.2568
-183.30018
1135.2157
623.36944
1555.4264
607.50758
179.12249
1535.578
355.65229
1812.1057
1088.2748
189.88628
521.79425
872.13483
739.18035
731.16885
642.84187
1548.0095
1065.7458
509.08034
43.686512
1737.5876
426.3962
1500.792
1332.406
752.2845
719.29269
235.36773
1524.7731
1001.0813
974.52714
1766.8475
1064.1398
785.78102
203.97172
1827.4921
999.46197
1339.5424
2046.5232
1151.2811
1267.0447
900.43035
2107.941
1289.9064
1457.7111
2121.8125
1457.009
1163.5812
875.35814
2236.7809
1441.4042
1823.7841
2569.4605
1622.7827
1747.1348
1440.4751
2547.4627
1771.3534
2166.2443
2433.0116
1935.586
1795.7485
1420.1102
2726.9666
2096.5153
2240.6912
2964.349
2261.8009
2346.5383
2004.58
3178.2835
2095.1811
2740.026
3114.1825
2483.0209
2610.7436
2399.1819
2844.051
2918.7291
2934.6598
3376.2713
2691.1598
3093.3904
2526.6585
3383.8825
3374.5396
2801.4779
3799.0591
3535.456
3497.5579
2842.389
4155.1662
3019.8636
2879.2285
4384.5262
3348.5487
4122.1525
3537.3328
3966.7909
3732.7156
3603.7116
4518.6052
4333.9402
4124.8286
3661.3974
4562.0926
4351.0339
3745.3972
4942.2456
4354.3036
4748.8716
4207.287
5297.9638
4331.8851
4697.6098
5268.9396
5058.4547
5402.2945
4635.6073
5336.3322
5049.7601
4520.4695
5623.688
5271.5076
5554.264
4894.8882
5898.6152
5435.8365
5468.8216
6284.6382
5899.2978
6125.8786
5654.4165
6424.762
5983.9184
5765.3866
6454.2088
6328.5706
6680.2326
6107.9595
6881.0212
6462.4393
6280.0352
7051.95
6887.3131
7166.9773
6588.984
7451.5068
6950.0201
6940.5328
7720.0054
7522.247
7798.1933
7285.9259
8108.7714
7696.7993
7586.0368
8242.4118
7893.5634
8417.0231
7936.8697
8723.9232
8214.9808
8197.4154
8818.1007
8750.5194
9059.7931
8620.0749
9255.0322
9023.5594
9025.0386
9547.077
9366.715
9870.4723
9461.9438
10104.787
9926.0569
9540.6853
10362.987
10050.135
10556.973
10184.151
10946.945
10485.155
10555.654
11053.73
11009.746
11721.3
11355.422
11908.227
11574.962
11611.013
12093.45
11966.676
12511.032
11702.572
12632.482
12139.904
12303.865
12689.176
12660.29
14026.517
13168.138
14179.662
13657.745
13717.049
14120.578
14035.685
14757.309
13653.352
14715.59
13947.176