/*--------------------------------*- C++ -*----------------------------------*\
  =========                 |
  \\      /  F ield         | OpenFOAM: The Open Source CFD Toolbox
   \\    /   O peration     | Website:  https://openfoam.org
    \\  /    A nd           | Version:  6
     \\/     M anipulation  |
\*---------------------------------------------------------------------------*/
FoamFile
{
    version     2.0;
    format      ascii;
    class       pointScalarField;
    location    "1.74";
    object      p;
}
// * * * * * * * * * * * * * * * * * * * * * * * * * * * * * * * * * * * * * //

dimensions      [1 -1 -2 0 0 0 0];

internalField   nonuniform List<scalar> 
3969
(
-185287.48
195685.9
-62.496612
-333.58164
-261926.8
655830.03
-611.37952
192.03474
-167852.45
-127730.83
-77908.95
-28861.618
21880.153
71940.19
92859.242
827.77202
1095.7884
1125.9145
441.13076
-368.41317
-823.26368
-701.9184
-57529.334
-78012.119
-76666.59
-88623.448
-87007.29
-96285.062
-93623.159
-99782.432
-99362.616
-100878.34
-103093.9
-104317
-105198.2
-106487.96
-107818.2
-107812.48
-109010.69
-108591.16
-108870.17
-107352.36
-106725.73
-104779.36
-102835.03
-100335.27
-97132.196
-93423.686
-89297.751
-84915.615
-80613.797
-75296.01
-70233.501
-64844.305
-59220.037
-53498.612
-48141.542
-42467.158
-36797.38
-31679.215
-26229.83
-21533.227
-16879.718
-12581.14
-8923.6876
-5250.865
-2883.9978
-1003.5901
396.59709
62154.069
48960.339
70047.507
63302.483
79644.531
73178.31
85285.416
82449.914
90768.801
90374.975
95774.053
98580.836
100151.83
103175.47
104534.76
105660.99
106835.97
106760.01
106285.58
106452.74
103121.9
103485.19
98631.969
97403.739
92374.831
88926.461
82980.281
78389.393
72617.612
66947.242
61694.055
55501.249
50014.729
44073.771
38656.589
33252.752
28334.182
23534.542
19212.141
15138.297
11573.13
8805.6339
6184.9669
4216.7606
2335.4148
1051.6138
212.20251
-203319.98
-124402.95
-10646.724
100173.85
189183
282186.73
232272.64
85449.003
106501.83
79583.049
106665.79
103775.64
109905.03
111486.64
114430.75
118692.71
112123.11
123099.31
120530.23
125012.01
128880.05
124218.88
131210.57
125211.64
128903
124642.23
124886.14
121775.04
120504.22
117159.38
114359.81
110686.17
107840.42
103000.21
97177.479
92584.677
87071.104
80925.733
75063.617
68871.227
62536.449
56328.909
49950.802
44038.557
37591.95
32225.207
26630.289
21265.884
16590.146
12084.89
8194.8955
4813.0624
2072.7407
-109.71508
-1263.9839
-811.16716
-1112.9917
826.15722
536.70433
1045.0741
1445.5162
-198.39113
-340.61832
-664.81475
-2143.1892
-3866.3416
-6178.4235
-8887.2995
-12062.695
-16002.196
-19786.03
-23314.716
-31232.769
-35327.157
-40470.454
-46856.157
-52666.763
-58667.041
-64798.242
-70331.056
-76089.499
-81519.068
-85947.587
-90966.975
-94501.518
-98661.196
-100994.74
-104019.03
-104306.54
-106681.75
-105245.97
-106571.01
-102828.82
-100122.9
-102297.35
-102588.35
-91485.971
-95713.817
-86154.428
-84836.257
-86989.998
-81933.423
-73935.759
-75436.895
-59397.645
-61750.031
-56956.453
-49370.194
-143513.88
-145144.73
-143244.91
-135196.59
-122101.18
-109127.97
-52244.276
144905.72
199938.67
258400.44
285014.12
289568.14
315888.13
237656.55
325.82943
135.6067
-105.06857
-612.87833
-792.67665
-808.25305
-532.53658
571.30008
674.16717
484.28762
472.90705
-127.36187
-531.33096
6.9043817
-54022.847
-68218.254
-68368
-69057.234
-72653.428
-72349.135
-75141.694
-77087.777
-77101.809
-80746.605
-81838.713
-81098.59
-85377.669
-84623.925
-86260.224
-85870.251
-87058.258
-86104.981
-86135.97
-85008.669
-84475.639
-82494.103
-81060.543
-78797.168
-76911.306
-73682.36
-70711.845
-67424.403
-63779.563
-59836.438
-55892.943
-51584.857
-47238.703
-42869.025
-38418.838
-33818.654
-29350.992
-25024.749
-20783.196
-17085.108
-13128.623
-10063.213
-6862.9981
-4580.8314
-2536.2967
-887.04241
380.09108
-34344.46
-48003.223
-42400.815
-46623.714
-49676.142
-52109.454
-51146.733
-52926.995
-53090.58
-54407.933
-53903.552
-55239.463
-54966.305
-54711.388
-55979.217
-55582.328
-56188.9
-55334.779
-55644.446
-54717.642
-54009.682
-52801.274
-51673.318
-50530.88
-48882.639
-47443.259
-46027.326
-43581.51
-41845.58
-39452.492
-37196.011
-34653.31
-32119.093
-29404.503
-26665.829
-23877.815
-21039.141
-18385.633
-15504.4
-12938.584
-10256.436
-7982.7611
-5641.8278
-3682.672
-2003.3275
-638.98844
497.04658
-21053.255
-31875.366
-22476.547
-26461.382
-26555.014
-25904.649
-25592.06
-27248.948
-26893.463
-26373.763
-28275.991
-26617.804
-27868.758
-26465.432
-26693.969
-26141.353
-26701.9
-25935.619
-26797.593
-25728.445
-26619.63
-25839.605
-26039.497
-25099.277
-25061.513
-24114.411
-23536.819
-22902.916
-22192.793
-21123.868
-20200.782
-18961.437
-17742.354
-16313.474
-14975.067
-13414.95
-11808.644
-10271.94
-8427.8024
-7013.7393
-5301.2518
-4058.6193
-2447.6969
-1579.1523
-597.06462
91.395859
478.98426
-2106.89
-9892.8341
-3503.643
-6240.2153
-3639.9685
-3510.3124
920.61544
-412.51565
2559.416
-1397.0473
3535.8139
821.14244
3365.3546
2299.2404
2432.3758
2852.4162
2651.6053
3244.5641
2742.9815
3507.5671
2921.3691
3793.2335
3966.458
3614.9248
2809.0691
2619.7212
1704.9439
1132.8786
469.50224
-168.77248
-892.9608
-1392.1715
-1905.2138
-2315.3436
-2652.0304
-2867.9722
-2774.1926
-2683.0191
-2514.4474
-2424.362
-2019.9138
-1613.5625
-1023.1621
-719.65783
-17.58569
105.03779
299.35845
16706.175
8114.6578
16675.631
16577.871
20889.185
22436.122
24512.031
25526.502
26909.078
26925.007
29619.865
28372.105
31380.151
30144.938
31956.47
31792.74
31899.847
32499.113
31575.079
32235.341
30135.062
28812.028
26948.563
24440.072
23549.025
22854.872
20529.212
18899.362
16900.607
15215.67
13175.441
11596.326
9747.4377
8212.6205
6677.1427
5353.3559
4353.4033
3172.9437
3604.3035
3116.6126
2647.8162
2146.6255
1925.7616
1566.3653
1445.5769
903.51815
221.97067
34167.642
28566.626
34119.237
38669.611
41924.045
44024.893
48162.017
48890.952
53715.902
53410.935
57917.538
58363.845
60506.077
62265.675
62918.961
63782.746
63670.359
64438.167
63159.033
63678.294
60790.232
60535.634
55846.926
53561.545
49990.112
47901.634
44926.485
41886.582
38600.47
35293.924
32069.796
28660.506
25348.132
22216.137
19119.182
16249.309
13558.979
11215.571
9135.0226
7742.9835
6049.27
4717.7353
3557.7104
2420.5261
1737.4374
849.14442
109.13476
57021.148
44360.841
57037.111
56968.766
65672.67
65663.709
72779.057
72742.051
79822.46
78761.967
84869.57
85859.049
88837.904
89219.64
91477.755
90990.724
92276.379
91274.847
91983.419
89715.91
89641.023
86214.567
84828.298
81706.332
78435.31
74921.521
71499.176
66580.964
61865.963
56987.382
52021.168
47012.544
41907.607
37095.534
32252.879
27693.631
23350.387
19507.301
16086.69
12380.094
9570.6336
7143.5933
5242.1448
3496.7139
2419.6551
1255.2048
374.31884
-100580.58
-95653.642
-92974.345
-84448.895
-82625.651
-73929.896
-67585.463
-77080.699
-82759.067
-68275.708
-66311.9
-61042.654
-49679.8
-51178.874
-47694.484
-53193.303
-32487.772
-30669.672
-19115.369
-12427.327
-19970.147
-18951.845
-12719.821
842.08894
1133.5625
11358.562
31666.984
10462.868
16009.992
20735.559
34489.038
38063.156
45866.804
55749.541
43161.913
65094.663
62750.59
73584.23
78330.969
88885.375
95884.168
88868.422
87693.749
89080.035
73696.639
80174.936
87036.493
80904.654
105345.48
81299.211
90681.736
108842.44
115064.56
120330.35
126017.54
100230.88
69286.887
75488.513
79075.904
83705.673
87682.231
93663.339
89738.108
78462.233
92079.935
97806.669
98700.776
102937.06
101758.69
102296.03
74442.276
79400.788
81044.051
87865.709
87584.742
90871.393
92713.565
81460.419
90849.208
98341.758
101637.52
104294.12
104421.55
105270.45
86205.639
85579.108
91130.208
94586.595
99632.876
100294.75
103562.12
86638.742
93123.58
96847.676
101226.17
104653.93
105329.53
107915.53
93286.637
93565.165
97681.351
100032.38
100655.76
104523.86
106601.69
93676.656
98509.281
100321.4
105125.92
108424.24
111176.01
113486.74
100311.25
100482.08
101376.15
104162.51
106362.2
107977.73
110442.55
102117.83
104190.8
104475.2
108104.32
111154.52
112566.24
117026.22
103763.71
105821.12
106297.11
110871.45
111547.71
112429.73
115518.28
108259.76
106644.44
109003.42
110698.35
113589.77
113608.37
119879.61
108662
108522.38
112434.2
114332.99
115813.97
116340.32
119617.29
111361.16
110344.23
113598.73
113589.47
116076.77
115556.21
120292.37
112402.53
110935.04
115050.13
115642.52
118269.92
118218.04
122021.63
112632.17
112400.34
115950.3
115776.81
118378.73
117083.3
120503.74
113197.74
113006.92
116363.17
116084.6
119275.47
117911.56
121805.05
112632.26
112398.82
115930.89
115055.76
118327.12
116343.03
120248.62
111479.14
112172.18
115212.33
114534.08
118089.01
116200.4
120247.54
110419.5
109900.58
113561.94
112392.72
116066.13
113918.46
117797.23
107929.09
108479.18
111624.06
110837.56
114428.78
112362.59
116394.35
105566.84
105212.51
109008.12
107811.12
111187.72
109438
113341.31
102046.26
102916.16
105728.82
104790.53
108478.26
107009.76
110849.22
98245.998
99226.658
100865
101395.57
104055.18
103325.59
106865.01
92991.74
95425.343
95531.262
98489.766
99849.312
100615.92
103354.81
89455.476
90404.947
91405.611
93485.046
94976.84
95460.019
98609.247
84266.918
85031.894
86641.464
88284.639
89490.83
90896.089
92841.164
78558.966
79383.954
80993.126
82230.176
83540.417
85528.312
87136.499
72913.882
73500.179
75390.989
76586.036
78245.456
80142.111
81682.675
66619.642
67799.817
69256.058
70578.625
72071.772
74073.248
75615.843
60763.4
61644.893
63156.368
64524.171
66042.153
68164.795
69735.423
54421.859
55587.852
56902.834
58349.453
59828.644
62073.793
63642.679
48391.642
49516.585
50760.05
52281.442
53701.578
56037.011
57450.883
42394.854
43621.774
44674.91
46175.184
47553.196
50093.335
51449.321
36691.546
37862.203
38838.689
40427.252
41806.278
43499.3
45397.257
31136.644
32137.929
33063.111
34192.773
35899.334
38430.586
39674.748
26129.293
27418.367
27929.378
29495.088
30446.259
32628.366
33745.74
21249.983
22126.697
22693.595
24014.188
25086.986
27274.08
28235.155
16994.388
17814.94
18315.175
19415.84
20335.765
22326.653
23310.49
12882.722
13729.127
13950.823
14924.812
15807.902
17620.922
18408.657
9597.1761
10324.679
10301.57
11295.772
11877.206
13457.611
14165.764
6522.7729
6935.2054
6841.1094
7613.9975
8038.6955
9506.0144
10122.295
4245.9764
4492.2174
4443.1675
5017.0868
5311.514
6487.413
6919.5001
2058.3283
2081.3025
1983.3671
2249.1391
2482.3562
3375.1913
3690.9614
871.11736
815.14954
767.6132
881.45957
1000.9749
1539.9822
1938.6072
-14.712314
-200.02599
-198.89594
-308.44954
-277.72076
72.277252
50.194274
1579.988
1717.2022
1421.1871
1160.6272
623.77799
527.4977
515.76957
2152.7699
2131.6039
1711.2958
1624.566
1103.6156
768.99605
1177.11
1757.6405
1831.7351
1413.3919
1080.7393
688.55676
511.05292
794.048
792.46217
791.69988
574.04842
357.58675
-173.69352
-208.4013
-231.79065
-380.06864
-316.85577
-774.03055
-1058.0644
-1632.5296
-1709.7075
-1453.2649
-837.82814
-839.99978
-970.4621
-1390.0881
-1768.9924
-1830.0625
-1518.8856
-829.27359
-872.12693
-1039.5101
-1417.9459
-1782.6757
-1669.01
-1864.2304
-69908.244
-60499.488
-72551.081
-62076.934
-65180.507
-56877.879
-60154.689
-85148.849
-82125.143
-84788.577
-82304.193
-78201.265
-71812.072
-63087.985
-86255.233
-80892.929
-80239.538
-77913.764
-73879.461
-72034.835
-65587.686
-83507.939
-85986.416
-83028.887
-82082.637
-79352.475
-72570.184
-70946.193
-91281.284
-87729.338
-85051.293
-84157.892
-79770.335
-78976.624
-70501.625
-89295.558
-89748.243
-86935.23
-83933.632
-80274.656
-74115.144
-71598.172
-95174.393
-92350.936
-89254.41
-87625.316
-85689.906
-80495.721
-82131.837
-93689.187
-93035.371
-91328.41
-84411.792
-85446.843
-81459.286
-78330.448
-98776.197
-98294.279
-94956.721
-90880.285
-90968.726
-86665.241
-86510.632
-100963
-97469.665
-94706.282
-92099.682
-91210.363
-86932.105
-86939.326
-103048.7
-100116.95
-100970.87
-96412.447
-96329.711
-92457.797
-92511.048
-103586.91
-103121.67
-100043.79
-97023.552
-96361.499
-92930.374
-93694.761
-107184
-103785.99
-103480.75
-100398.29
-100506.07
-96396.766
-94771.203
-107974.7
-106254.53
-104411.26
-102009.73
-100548.87
-97842.793
-96858.178
-108954.59
-107779.17
-105433.75
-104981.75
-103271.59
-100720.53
-101018.03
-110818.49
-107700.3
-106413.8
-104297.03
-104175.69
-101337.29
-100902.03
-111020.99
-109157.8
-107701.3
-106549.04
-105594.41
-102504.07
-102328.52
-111154.78
-108754.07
-107807.85
-106239.85
-104984.7
-102276.76
-101981.54
-110369.39
-108818.19
-107983.7
-106121.05
-105462.94
-102866.36
-102769.57
-109998.32
-107781.87
-106979.55
-105221.9
-104404.23
-101456.19
-101356.06
-108751.49
-106361.04
-106151.59
-104121.24
-103560.71
-100678.92
-100701.28
-106957.77
-104549.55
-104397.09
-102125.02
-101366.17
-98081.521
-98297.24
-104710.93
-102214.55
-102308.48
-99750.235
-99166.44
-96058.004
-96436.504
-101955.09
-99543.878
-99464.883
-96680.415
-96004.236
-92521.686
-92927.398
-98848.822
-95876.458
-96249.49
-93153.657
-92656.472
-89103.428
-89611.182
-95205.089
-91775.249
-92329.572
-88888.479
-88299.493
-84692.55
-85084.95
-90682.417
-87721.941
-87819.867
-84384.744
-83714.913
-80030.346
-80631.808
-86352.402
-82951.641
-82984.26
-79662.79
-78950.303
-75358.601
-75671.312
-81080.671
-77814.597
-77900.816
-74287.728
-73372.606
-69756.782
-70017.515
-75726.976
-72641.821
-72173.197
-68846.738
-67761.304
-64420.355
-64434.595
-70259.689
-67108.352
-66606.962
-63240.612
-62066.906
-58695.82
-58579.403
-64409.424
-61430.686
-60530.68
-57320.159
-55898.776
-52734.404
-52537.522
-58473.79
-55624.589
-54628.772
-51516.173
-49933.865
-47139.267
-46856.224
-52574.325
-49884.9
-48622.297
-45656.326
-44130.371
-41631.793
-40843.306
-46866.965
-44332.841
-42872.351
-40163.279
-38243.198
-35844.844
-34732.173
-40420.322
-38177.188
-36713.449
-34039.122
-32511.407
-30577.381
-29931.991
-35296.981
-33499.72
-31312.88
-29397.051
-27641.393
-25635.477
-25092.324
-29808.698
-28144.559
-26139.313
-24279.045
-22482.869
-20425.778
-20281.434
-24240.444
-23044.892
-20748.042
-19487.512
-17610.807
-16371.94
-15887.89
-19638.739
-18629.778
-16660.061
-15523.193
-13669.429
-12622.222
-12117.04
-14926.344
-14177.261
-12226.278
-11353.721
-9641.9902
-9169.4809
-8587.6316
-10917.47
-10346.74
-8638.0299
-8021.1267
-6540.7734
-6277.6011
-5745.822
-7461.0224
-7000.2047
-5439.2798
-5146.4902
-3764.1545
-3899.5681
-3370.3785
-4272.8274
-3787.5177
-2777.0034
-2590.8995
-1638.6483
-2006.6939
-1499.4181
-2184.5484
-1927.8449
-1194.5983
-979.22863
-216.13549
-529.4298
-197.10546
-600.18204
-414.11467
47.420212
58.338622
197.9848
-162.10964
-13.217765
-51.423562
-141.01919
1.2110925
-94.889344
115.61387
-78.38812
169.07773
-52405.355
-43135.236
-46663.263
-49041.161
-55811.392
-60328.08
-59479.752
-64206.744
-66144.323
-71227.08
-71104.009
-75142.249
-76579.458
-78019.584
-79572.9
-80977.006
-80634.511
-81496.548
-81051.722
-80685.49
-79512.053
-77931.853
-75899.964
-73645.378
-70769.786
-67588.687
-63715.776
-59593.033
-55531.119
-50963.999
-46351.01
-41787.25
-36968.203
-32441.014
-28458.778
-23399.927
-19212.888
-16445.423
-12718.901
-9961.0642
-7546.4566
-5332.3242
-3620.4934
-2256.5294
-1291.1344
-554.58236
697.1039
-17862.796
-20172.102
-23423.579
-24508.237
-36596.043
-34544.055
-40866.339
-38574.035
-47059.323
-43026.085
-50444.283
-48922.27
-51667.954
-52410.328
-54782.437
-55595.128
-57279.855
-56376.226
-57693.876
-56536.893
-56433.886
-54771.498
-53740.891
-51304.056
-49291.641
-45902.832
-43980.46
-40712.352
-37498.733
-34136.154
-30792.541
-27303.353
-23857.387
-20816.419
-17216.403
-14502.885
-12035.749
-9439.2396
-7022.7575
-5374.5587
-3757.8809
-2279.7142
-1388.2797
-612.95733
-161.87796
352.54781
576.25698
6245.442
-5278.1593
-3670.8866
-5728.6498
-8511.8284
-6105.8826
-11798.713
-9394.0903
-13822.142
-11409.259
-16891.592
-15705.577
-19414.128
-19103.903
-21337.159
-22321.968
-22614.296
-23020.365
-23352.065
-22876.628
-22494.613
-21944.086
-21145.887
-20134.556
-19147.429
-17802.423
-16711.687
-14942.123
-13077.54
-11578.507
-9764.7921
-8072.5947
-6567.981
-4930.7856
-3458.4013
-2408.311
-1332.9363
-378.33632
419.86861
520.17956
943.35645
1091.856
862.26157
752.39524
489.49199
129.244
687.87038
35319.195
18652.833
18667.879
16619.614
15222.96
17206.807
13515.251
16513.464
13720.665
12950.809
11906.289
12318.067
8482.4238
8640.4873
5125.8575
6530.6993
4117.1853
4733.0105
3356.7299
4120.9273
3087.716
3503.8026
3189.1964
3564.7638
3796.4214
4349.5816
4765.2905
5209.5262
5780.9562
6041.4952
6624.342
6714.5434
7079.486
7231.8351
7199.0407
7145.7936
7015.971
6673.7325
6208.2628
5490.3471
4953.6824
4204.9496
3231.7339
2619.8133
1431.2265
1043.5485
335.3116
63002.708
38452.704
34625.682
34216.949
33372.034
35002.244
36796.61
37166.324
34245.449
36949.367
32879.478
37218.285
33587.077
36476.645
35267.484
35852.073
35237.439
35210.115
35045.62
34750.132
34195.316
34004.229
33361.206
33069.599
32191.696
31924.081
30676.541
29732.681
28769
27721.104
26596.835
25236.894
23914.836
22269.208
20775.183
19097.567
17229.636
15374.945
13504.705
11526.048
9616.6996
7636.7365
5865.6447
4022.935
2506.412
944.47798
566.19331
80569.152
59616.114
55294.147
55322.549
60252.547
60721.449
63289.474
61394.855
65007.465
66451.963
67704.17
72082.481
68495.737
73039.929
69150.8
71994.655
68819.425
69896.017
67766.36
67770.445
66189.722
65331.627
63346.283
61047.56
58002.561
55070.273
52983.081
50741.728
48411.006
45887.652
43384.476
40600.496
37690.868
34735.003
31710.535
28672.129
25442.478
22295.288
19364.413
16147.999
13255.852
10554.293
7772.6728
5606.341
3241.1849
1646.5377
157.54774
91112.486
78673.69
74454.796
79571.499
83470.104
85969.742
91652.929
90162.149
96973.825
96409.014
99653.926
98216.547
99901.062
100143.54
101353.8
101373.41
102789.53
101695.77
102418.77
100792.48
100203.8
98003.971
96373.545
93482.8
91298.103
85594.488
82554.413
78954.178
75051.88
71113.839
66899.46
62259.7
57740.114
52821.002
48120.997
43109.445
37909.894
33665.412
28603.19
23985.041
19769.367
15438.497
11812.163
8218.2385
5340.6895
2406.1063
1165.0929
-95688.323
-101845.17
-90185.08
-91932.026
-82263.922
-70224.517
-63922.18
-70173.899
-77368.225
-69248.132
-66392.166
-60472.802
-58125.094
-43323.023
-70196.446
-75870.97
-72479.181
-69555.725
-67539.002
-59100.684
-54147.757
-73125.681
-70951.846
-68237.834
-68727.558
-60503.541
-58671.427
-50127.446
-75416.573
-73842.247
-74000.281
-69689.282
-63762.089
-61484.363
-49663.962
-75989.085
-74775.145
-69461.918
-69551.854
-66348.272
-60952.327
-60288.633
-79922.263
-75473.306
-75292.375
-72869.993
-65268.664
-68078.297
-60439.248
-79169.866
-80420.857
-75589.443
-73755.01
-71276.515
-66897.138
-62143.201
-84474.963
-80099.805
-74448.557
-78887.279
-71704.813
-70210.426
-65832.974
-83121.603
-79679.216
-81635.07
-78696.571
-74284.306
-72825.064
-69971.016
-83849.671
-85977.109
-79932.132
-79422.075
-74996.718
-74370.43
-69469.415
-88126.884
-83558.341
-82885.858
-81365.581
-79480.301
-76060.967
-73324.057
-87267.161
-86901.968
-84075.261
-84716.209
-78598.16
-78827.078
-74707.551
-88930.914
-85759.053
-86489.58
-84328.484
-81844.51
-80026.828
-77769.882
-89616.239
-87806.677
-86735.244
-84792.771
-81865.05
-81187.022
-77984.409
-89955.386
-87570.786
-88643.274
-86485.261
-84039.219
-82097.663
-79903.396
-89461.73
-88510.127
-87778.943
-86839.858
-83482.137
-82197.957
-79906.497
-89519.216
-88093.986
-88553.157
-86376.042
-84025.787
-83029.68
-81114.752
-88707.673
-88450.807
-87213.274
-86265.948
-83552.249
-82349.966
-79669.062
-88131.256
-87160.726
-86876.155
-85642.61
-83227.405
-81946.309
-79992.743
-86010.275
-86530.199
-85328.527
-84269.25
-81471.923
-80490.827
-78016.296
-84532.334
-85170.689
-83728.319
-82594.876
-80408.467
-79191.459
-77287.819
-82316.463
-83307.404
-81014.782
-80473.237
-77770.934
-77099.507
-74414.484
-79740.039
-80907.768
-78765.07
-78049.313
-75913.566
-74761.895
-72187.513
-76516.908
-78639.559
-75157.933
-75229.394
-72287.271
-71746.444
-69014.702
-73861.743
-75326.657
-72676.043
-71596.632
-69780.734
-68389.188
-65996.737
-70963.138
-71887.272
-68891.004
-68463.663
-66224.187
-65137.901
-62390.187
-67333.048
-67853.102
-65555.569
-64217.665
-62001.684
-60746.305
-58047.079
-63299.473
-64389.377
-60932.507
-60082.131
-57960.064
-56748.395
-54046.341
-59710.938
-59759.218
-57139.455
-55803.08
-53834.062
-52329.384
-49693.272
-55399.083
-55458.444
-52443.273
-51153.96
-49014.648
-47641.248
-44926.888
-51178.736
-50768.51
-48142.45
-46569.036
-44640.995
-43142.036
-40597.431
-46756.089
-46164.995
-43414.374
-41841.726
-40005.71
-38659.662
-35914.326
-42512.424
-41539.093
-39027.533
-37244.292
-35589.083
-33811.375
-31140.257
-37770.744
-36511.723
-34096.881
-32416.846
-30799.748
-29416.337
-27162.774
-33519.452
-32112.982
-30133.582
-28148.767
-26810.944
-25315.784
-23153.74
-29220.591
-27757.547
-25544.723
-23706.143
-22732.119
-20712.546
-19095.37
-25031.362
-22674.871
-21273.617
-19511.049
-17952.025
-17504.45
-15396.051
-20913.053
-18564.939
-17663.54
-15830.381
-15116.891
-13992.806
-12366.896
-17007.736
-15031.882
-13882.09
-12303.993
-11311.773
-10685.957
-9106.1019
-13307.093
-11096.671
-10383.853
-8682.9686
-8439.1129
-7684.9667
-6704.7852
-10162.042
-8454.6778
-7779.3899
-6492.6386
-6177.2583
-5474.5074
-4688.3563
-6910.8243
-5134.8501
-4757.6907
-3479.0055
-3405.9419
-3025.1794
-2725.5262
-4777.0391
-3567.5697
-3318.2399
-2207.5692
-2282.626
-1827.182
-1486.8509
-2166.6241
-1283.1531
-892.21119
-184.51949
-324.77402
-46.461773
-169.30736
-888.86116
-263.81741
-152.14577
251.75191
129.50563
255.31678
473.57314
465.06235
970.02276
1079.4016
1229.6639
1000.4641
1199.9526
840.16952
-69809.668
-61770.043
-62418.963
-54360.187
-49596.539
-37354.068
-38037.76
-52251.535
-49742.825
-49283.236
-45407.908
-40633.907
-33433.625
-30079.102
-52576.52
-44459.692
-47051.728
-41445.06
-38903.114
-32842.273
-26407.689
-49220.269
-46970.577
-44977.373
-41171.412
-38065.814
-31827.458
-30631.162
-52396.321
-47939.82
-46590.877
-41325.139
-39537.364
-37928.889
-31404.984
-51418.37
-48215.103
-47020.532
-42212.33
-40076.954
-37683.798
-33035.867
-53421.781
-52383.894
-50588.058
-45543.402
-43645.412
-41582.119
-36829.558
-55273.088
-50454.855
-48508.581
-44458.55
-44360.735
-39577.889
-36835.418
-55597.529
-51770.27
-53433.02
-49449.453
-45738
-44562.517
-40531.166
-54792.07
-54042.239
-53384.97
-46426.461
-46395.073
-44096.466
-42095.66
-57722.871
-55539.067
-53026.003
-50283.182
-49943.815
-47692.665
-42970.525
-58147.198
-53980.499
-55801.779
-50545.168
-51044.782
-46041.576
-46860.577
-57367.34
-56989.655
-57165.03
-51965.775
-52563.442
-49465.527
-47758.464
-58230.629
-57021.347
-57043.142
-51817.677
-53015.765
-49805.069
-47265.223
-57991.52
-59303.776
-57602.576
-54613.883
-54913.221
-52253.32
-48959.676
-58845.596
-58153.92
-57647.972
-54519.544
-54073.626
-51938.43
-48569.559
-58542.502
-59908.728
-58723.26
-55720.135
-55401.246
-54247.238
-50945.125
-58989.483
-59172.738
-58070.205
-55397.5
-55100.413
-53381.842
-49846.24
-58832.853
-59558.192
-58428.765
-56328.867
-55747.935
-54373.946
-51032.807
-58387.372
-58500.715
-57901.193
-55426.83
-54773.536
-53084.753
-49954.236
-58016.413
-58496.647
-57521.58
-55367.377
-54714.669
-53304.371
-50317.084
-57786.928
-57079.927
-56328.783
-54078.621
-53507.467
-51736.944
-48705.775
-56918.726
-56004.394
-55476.624
-53493.375
-52879.361
-50710.786
-48061.22
-55950.753
-54350.863
-54202.208
-51854.214
-51050.59
-48620.515
-46463.48
-54385.997
-53116.918
-52529.064
-50239.471
-49541.556
-46815.205
-44798.613
-52906.192
-51062.98
-49872.908
-49302.71
-46922.825
-44637.452
-43267.147
-50224.748
-49459.472
-48251.873
-45246.235
-44996.791
-41355.341
-39859.285
-48545.088
-46038.438
-45686.573
-43405.705
-42316.621
-39117.672
-37559.655
-45947.539
-44020.238
-43374.381
-40442.333
-39795.851
-36058.149
-34719.726
-43284.294
-41294.923
-39993.877
-37555.464
-36368.867
-33016.204
-31434.006
-40493.809
-38456.891
-37253.557
-34615.263
-33508.202
-29977.456
-28508.234
-37403.693
-35548.206
-33934.202
-31502.156
-30169.106
-26898.053
-25298.517
-34503.61
-32668.51
-30888.984
-28460.518
-27083.887
-23691.181
-21940.234
-31183.297
-29400.592
-27353.339
-25221.068
-23655.901
-20429.05
-19061.678
-28034.678
-26483.795
-24417.404
-22352.274
-20703.469
-17858.471
-16497.485
-24814.358
-23544.331
-21110.533
-19350.188
-17580.45
-14839.845
-12955.977
-21599.299
-20209.896
-17824.634
-16259.703
-14466.185
-12115.202
-10527.794
-18393.226
-17687.893
-15088.797
-13806.308
-12041.11
-9881.5612
-8601.4486
-15358.831
-14696.474
-12500.759
-11211.978
-9661.0286
-7956.4083
-6206.7408
-12465.679
-12138.215
-9537.459
-8633.4369
-7130.913
-5501.8481
-4221.8297
-9957.6477
-9472.4789
-7326.3247
-6857.6907
-5342.7861
-4176.3027
-3088.2431
-7185.897
-7181.4306
-5044.1175
-4849.4633
-3317.3903
-2572.0826
-1705.4477
-5326.1032
-5185.7637
-3296.7512
-3288.5356
-1917.2448
-1541.7278
-826.08398
-3107.8319
-3012.5004
-1458.0568
-1736.7585
-614.29008
-526.06411
-116.48328
-1770.4908
-1670.8548
-550.97672
-760.68754
151.26868
59.150573
152.99066
-225.96213
-29.028051
798.01294
505.1553
928.83389
742.61491
678.89567
433.19432
852.05658
1132.2187
916.61928
859.41168
1015.3824
644.34469
-44497.356
-38238.58
-29678.798
-28593.635
-17979.051
-10298.169
-8146.8912
-28956.203
-36172.579
-28238.727
-25758.853
-14128.279
-17127.193
-3685.2883
-30196.746
-27579.624
-27284.166
-21197.474
-17899.675
-11458.498
-2736.1113
-27753.735
-28132.873
-22323.315
-21068.756
-12660.14
-12420.794
-7918.4755
-31063.361
-24495.786
-25649.758
-20716.325
-15601.256
-15998.312
-3610.5945
-25705.818
-28249.912
-22295.67
-19552.58
-19198.108
-11226.607
-9164.9201
-31725.101
-27520.853
-22511.369
-22563.743
-18166.894
-16657.922
-11357.487
-28399.783
-27060.07
-24080.5
-20979.289
-19086.375
-14499.371
-12215.786
-29693.837
-30896.67
-23637.746
-23885.22
-20066.213
-18217.547
-14063.078
-32081.366
-28128.47
-24101.763
-21822.222
-22242.853
-16698.982
-15987.351
-30635.169
-30699.859
-23673.298
-25305.248
-21916.37
-19626.978
-15747.161
-30389.958
-28921.424
-25099.43
-24083.291
-23708.776
-18057.494
-18702.922
-29812.221
-32267.774
-24180.667
-25640.425
-22113.831
-20418.429
-18277.783
-31087.608
-30105.3
-25994.094
-25800.733
-25803.937
-19586.085
-20734.569
-30838.305
-30603.371
-24853.97
-26839.911
-24004.249
-19875.197
-21044.955
-30633.596
-29633.928
-27235.871
-25765.148
-25505.885
-21000.684
-22817.046
-29435.339
-30932.487
-25905.595
-26778.593
-25007.749
-21318.054
-21715.571
-30291.7
-29345.645
-26795.584
-26405.883
-25732.33
-21519.346
-22914.616
-28716.35
-30190.118
-26151.505
-26709.228
-24827.909
-21524.197
-21999.665
-29214.995
-29346.7
-26394.634
-26083.192
-25095.439
-21461.779
-22824.521
-28133.906
-29360.355
-25522.634
-25871.843
-24069.258
-21346.675
-21592.527
-27870.212
-28287.969
-25452.248
-25167.666
-24086.463
-20620.148
-21514.107
-26949.009
-27845.236
-24477.456
-24805.049
-22414.85
-20094.242
-20405.541
-26380.918
-26677.569
-24157.063
-23357.637
-21594.177
-19341.302
-19416.123
-25458.99
-25894.909
-22817.56
-22505.597
-20293.644
-18640.682
-18157.884
-24873.949
-24200.522
-22373.306
-20738.935
-19010.209
-17195.044
-16456.56
-23867.236
-23706.499
-20639.605
-20342.088
-17305.639
-16499.026
-14944.736
-23049.821
-22853.426
-19696.81
-18922.805
-16516.855
-15001.095
-13993.628
-21828.141
-21575.602
-18265.163
-17360.611
-14615.718
-13217.574
-12204.356
-20987.99
-20101.485
-16944.738
-16048.445
-13427.976
-11972.942
-10685.548
-19725.061
-18818.115
-15506.986
-14700.685
-11707.914
-10439.806
-9138.5442
-18655.892
-17432.834
-14219.711
-13213.444
-10308.922
-9014.1621
-7385.7947
-17325.608
-15881.809
-12577.255
-11662.737
-8711.5995
-7412.6364
-5986.7192
-16057.285
-14378.29
-11335.003
-10357.422
-7394.6972
-6316.6394
-4720.2796
-14680.476
-12886.194
-9884.2704
-8810.8087
-5992.949
-4850.1102
-3110.634
-13193.774
-11223.837
-8356.5484
-7362.4036
-4680.2016
-3611.4631
-2144.4545
-11781.483
-9707.9199
-7161.293
-6108.702
-3733.3287
-2449.1656
-1320.7464
-10137.416
-8297.8678
-5778.5002
-5032.7739
-2463.6777
-1752.6896
-489.33091
-8785.6327
-6685.2498
-4454.3449
-3630.4011
-1564.3973
-890.21369
396.20108
-7402.4152
-5445.9436
-3432.6823
-2912.3538
-854.22906
-185.41051
820.73548
-5789.1304
-3584.2819
-2365.4905
-1604.5548
-65.291771
259.15185
903.39722
-4501.2016
-3085.6686
-1844.6745
-1220.2934
161.85455
430.43437
1247.9466
-3108.0773
-1284.841
-543.54509
1.4171096
957.06812
929.50733
1232.4335
-2091.6986
-1025.1006
-663.13061
-297.44131
589.41792
349.23957
913.97171
-885.09085
105.33374
300.47699
838.82028
1244.3218
911.12111
1274.481
-220.31786
162.30323
384.26894
306.58308
504.90604
263.35239
638.71377
592.84096
1348.5313
1134.891
1187.9271
1170.6208
955.48268
839.5218
-9763.5456
4909.7903
9570.4851
14911.578
21785.366
27392.064
25372.786
-7323.4357
-2113.1158
1675.6772
6152.6697
12863.418
16001.904
21206.048
-9756.4208
2693.6481
5744.8474
13464.745
13803.635
20888.914
19932.137
-6595.8738
-634.6007
1754.7609
6174.0444
10240.324
12046.34
16992.85
-4453.438
885.15038
1910.3197
9886.5213
7635.6643
16815.395
16916.539
-4703.5716
154.51557
2132.8897
4601.4331
9963.9093
10574.812
13619.791
-5991.2752
1278.8803
-868.73928
8959.7742
7335.5474
11176.304
14883.7
-5316.2318
-1613.8462
3343.9234
4518.977
7859.8007
9972.9283
13635.674
-5596.8902
2253.6957
134.93449
5492.6342
7110.1802
9570.4883
13278.184
-1792.6952
396.78782
2322.5558
6643.3971
7705.9192
9876.7271
13148.105
-2613.7902
907.04556
1308.8665
4905.9593
6334.3435
8601.5272
11556.771
-1070.5627
982.39665
3446.0179
5838.9105
7783.3106
8342.7449
11250.961
-2059.2902
1273.067
2465.3227
3821.1597
5716.4668
6347.598
11862.223
37.657514
2193.2529
1408.8023
4842.2518
6884.3635
8333.7105
10855.185
-158.93242
43.678361
4040.8808
2921.5109
7661.0733
5776.7541
9720.9794
632.47628
2009.7971
3407.8797
4010.7357
7292.4838
6694.626
9970.5301
740.4425
908.27268
3575.009
2070.1202
6973.2582
5281.4739
8705.7034
735.12566
2244.9989
2896.5997
3117.7343
7135.0517
6068.235
9260.5641
1284.1524
471.56563
2914.6237
1985.3496
6439.105
4805.9637
8051.9525
447.49897
1564.6416
2934.0146
2766.2703
6627.8684