/*--------------------------------*- C++ -*----------------------------------*\
  =========                 |
  \\      /  F ield         | OpenFOAM: The Open Source CFD Toolbox
   \\    /   O peration     | Website:  https://openfoam.org
    \\  /    A nd           | Version:  6
     \\/     M anipulation  |
\*---------------------------------------------------------------------------*/
FoamFile
{
    version     2.0;
    format      ascii;
    class       pointScalarField;
    location    "1.26";
    object      E;
}
// * * * * * * * * * * * * * * * * * * * * * * * * * * * * * * * * * * * * * //

dimensions      [1 -1 -2 0 0 0 0];

internalField   nonuniform List<scalar> 
625
(
25682.996
22597.914
-650710.19
-296126.36
24637.469
24668.28
-451510.24
-974567.74
8076.4562
2865.7273
14285.283
-347125.85
-339934.23
-250034.48
36894.502
31983.652
30422.536
29930.611
25183.627
24036.745
21071.541
17904.846
16438.727
13753.121
11828.304
10132.289
8314.4391
7166.8747
6230.419
5340.6356
5738.2478
5399.1117
6323.1867
6821.1893
7835.6395
8767.2204
11691.81
31216.154
18343.928
27074.651
22266.098
18400.387
21140.44
13572.06
13979.384
11809.377
9194.982
8831.1465
6556.6243
5937.7045
4845.8788
4322.9996
3801.7815
3860.86
3828.1231
4772.2555
4471.9391
7005.0763
6683.6229
9030.5396
7231.2728
2364.0487
13081.051
47968.643
54488.224
32581.681
39909.383
43292.355
24990.494
30901.901
23229.314
22849.543
20197.058
15856.769
14744.101
11259.339
9452.8289
7427.5952
5652.3415
4378.8589
3366.7497
2377.1213
2144.8816
1918.3178
2103.107
-942.1164
-675665.89
-744368.99
-717133.62
5842.5006
4605.0539
5649.1607
4555.2721
3803.5184
3284.1998
2747.5827
2912.1187
3137.8578
4040.4361
4518.5607
6571.8744
7455.7841
10497.837
11479.593
13142.739
16905.825
18845.869
23235.979
22980.851
31695.338
28132.077
35753.18
22473.243
21472.264
21146.021
17441.195
17511.878
18156.659
-335917.9
-335707.58
-337277.8
-730827.75
-732257.37
-731894.59
16472.162
12979.375
13102.733
12440.3
10326.467
10482.576
8673.1606
7793.0629
7417.9252
6027.5448
5759.3472
4972.0108
4580.5672
4644.1452
4366.5814
4918.128
5187.9733
5769.8346
7353.8617
7852.9917
9595.3407
11670.267
14566.991
4807.0698
3338.37
4863.7365
3430.9982
3948.9646
4485.3577
2881.7357
4210.4138
3107.9414
3605.9516
3613.6988
3858.433
4233.8965
4652.7508
5165.694
5935.2675
6657.7827
7751.4972
8787.8824
9402.3965
12307.443
11691.02
17610.349
10095.855
7818.8829
7787.3352
5956.958
6906.9112
4750.0786
5476.303
4490.5828
4250.1012
4545.6285
3752.6904
4349.5455
4258.3201
4703.15
5041.9947
5953.5186
6389.0596
7779.5763
8244.5272
10596.401
10564.526
13579.87
15903.577
5361.9803
5186.6548
4631.6763
1508.6979
1246.9653
2545.4625
6511.1871
7217.9014
7795.2696
36927.759
39265.365
42964.373
41874.275
40363.443
42522.238
30035.976
27268.708
33745.127
29759.691
33899.25
33119.312
29814.884
26038.47
32957.465
24318.509
24684.51
26727.222
23225.718
22646.694
27578.031
20319.404
17043.817
22748.917
18292.294
17203.722
19862.343
17538.891
12995.369
18392.824
14030.296
11853.827
15060.969
13414.903
9507.2131
13377.167
10989.449
7769.2563
11313.562
9932.3925
6263.2885
9301.951
8620.0616
4978.9751
7950.7163
7611.9982
4055.0132
6596.0895
6853.4265
3406.5642
5547.0388
6357.9681
3060.1809
4907.8104
6059.7542
3105.2699
4402.1061
5700.8009
3001.3525
3940.1327
6192.5899
3969.5748
4392.1829
6564.9219
4936.9467
4557.4689
5253.1894
3939.794
4800.9114
-471575.63
-470175.15
-470618.66
-418529.02
-461897.11
-462127.18
-485073.05
-446732.92
-447059.11
36131.438
32119.947
30431.897
34525.076
31048.006
31445.315
34233.343
29933.774
29457.602
29678.518
25836.507
25333.569
27659.947
25299.233
23743.762
24921.617
20479.943
20583.012
22073.877
19559.629
18203.041
20006.356
16692.429
16730.554
17972.441
14153.951
13655.743
14992.717
12862.493
11499.703
13388.082
11144.008
9933.4353
11477.501
9368.413
8418.0148
9649.3106
8000.4851
7114.5643
8560.5069
6935.005
6092.0947
7286.2499
6036.645
5509.4668
6604.7826
5605.8439
5006.2471
6453.1167
5418.6137
5046.9085
6255.6739
5610.8814
5245.9385
6886.7654
6290.408
5883.8642
7411.1061
7111.7491
6581.4939
8518.1164
7505.6843
7544.7092
6087.6616
6601.7626
6871.9213
8654.9635
7036.1706
6856.4861
21333.871
20045.631
17062.012
16665.904
15039.635
12929.718
13815.776
10366.928
10386.936
9939.4215
8884.6148
8048.3792
7585.1533
7189.4438
6890.7677
6846.7862
6758.3836
7159.4818
7273.3574
7958.6211
9024.5183
10321.166
14323.75
2690.5577
10283.712
1279.977
6977.5437
3804.6246
4193.9221
4636.9362
3176.0171
4432.9287
3230.9332
3776.8377
3794.4148
3925.729
4586.6987
5044.4573
5771.2086
6790.8538
7832.9222
9074.947
10534.285
12529.89
11994.971
18576.619
17711.981
7280.3925
10569.078
9798.6351
9164.5793
9906.4109
7571.9443
9141.951
5880.0303
6944.283
5562.7404
5496.4621
5051.7951
5074.9232
4984.5499
5324.503
5818.2475
6514.1952
7527.5526
9045.643
9765.9573
13093.757
12934.568
19716.962
17355.68
16722.36
18571.206
18068.645
16663.67
16547.847
15566.307
14024.067
15780.811
14650.444
13922.527
14849.519
13911.476
12940.508
13817.524
12199.574
10395.556
12687.56
11652.331
11303.399
11860.375
10882.448
8886.9068
10598.695
9562.802
8526.6361
9858.9758
8799.4404
7750.1146
9570.1842
8365.2691
7253.7378
8393.3061
7660.8651
6608.247
8201.9008
7428.8887
6299.92
7766.1269
6987.0181
6063.5129
7399.3894
6838.9725
6053.6785
7613.0025
6969.9982
6115.4252
7326.9663
6942.3383
6390.266
7939.5487
7478.5782
6713.944
8284.9789
7671.0498
7432.4453
8261.336
8071.5069
7730.8576
10156.236
9892.3644
9411.1404
11706.421
12208.631
11047.436
15899.315
14166.377
14884.567
4099.433
3721.0814
2806.6544
7524.9545
10347.513
10150.666
4005.9887
1659.0841
2144.4285
4949.6443
6769.9599
6875.0251
5184.436
3517.388
3701.3255
4758.0292
3505.6738
3948.3591
3937.9928
3561.0069
3991.6016
4952.7477
2914.6498
2501.5269
3940.4812
2300.3096
3403.0822
4436.3559
2852.592
2897.9755
4299.2105
2253.1983
2794.2573
4362.0878
2626.5803
3131.8362
4799.2398
2838.6618
3034.8382
5001.7427
3051.2093
3519.7612
5641.8389
3723.9843
3997.8062
6198.3966
4377.7465
4616.6838
7048.9374
5268.6789
5339.2151
8069.9902
6284.3863
6443.7879
9034.2608
7725.7055
7455.0841
10092.289
8775.672
8653.5088
13013.261
10378.908
11571.67
11550.491
11034.398
9662.9453
17688.726
16396.575
16846.117
12257.601
13600.129
15530.362
7508.4473
7710.759
11067.306
7682.8383
11926.739
12793.649
8647.0042
8524.9849
10795.299
6220.779
9199.9784
10663.67
5663.889
8127.0644
10350.572
6060.8116
7320.4308
8628.4476
3828.0403
6654.3803
9494.5285
4226.9617
6477.6883
8146.6089
3411.6635
6045.0638
7799.2293
3156.3463
5429.3074
7169.6367
3255.9497
5505.3069
6884.2324
2947.498
5232.5455
6581.2474
3380.5644
5473.4807
6461.1184
3561.1411
5523.4723
6601.0983
4265.8264
6235.8696
6793.1004
4936.7376
6377.1037
7201.7958
6000.467
7810.0249
8172.266
6972.7092
7927.5071
8498.3441
8792.7
10648.48
10710.047
8942.4511
9960.7694
10113.925
12028.21
13807.736
14392.451
13669.432
14116.61
12896.799
)
;

boundaryField
{
    free
    {
        type            zeroGradient;
    }
    fixed
    {
        type            zeroGradient;
    }
    traction
    {
        type            zeroGradient;
    }
}


// ************************************************************************* //
