/*--------------------------------*- C++ -*----------------------------------*\
  =========                 |
  \\      /  F ield         | OpenFOAM: The Open Source CFD Toolbox
   \\    /   O peration     | Website:  https://openfoam.org
    \\  /    A nd           | Version:  6
     \\/     M anipulation  |
\*---------------------------------------------------------------------------*/
FoamFile
{
    version     2.0;
    format      ascii;
    class       pointScalarField;
    location    "0.87";
    object      E;
}
// * * * * * * * * * * * * * * * * * * * * * * * * * * * * * * * * * * * * * //

dimensions      [1 -1 -2 0 0 0 0];

internalField   nonuniform List<scalar> 
3969
(
2081.6728
-80.705701
28538.172
5261.0338
1803.9368
1294.1139
6974.2606
24846.564
619.52713
276.86793
-40.87975
40.715004
-113.22311
-616.82717
-539.42335
20128.254
12487.231
14048.047
18793.533
24881.797
28532.17
26365.394
2731.8786
2458.6382
3126.3708
3632.394
4306.0396
4571.1436
4860.2177
5259.1646
4909.267
5174.5252
5244.9349
5055.7479
5151.3136
5024.4528
5018.6446
4607.7887
4675.6028
4388.4341
4259.6511
3946.9165
3608.1761
3231.7586
2774.9664
2417.3882
1681.4175
1184.5992
240.71284
-822.35357
-1877.7704
-3256.4027
-4702.4976
-6183.3719
-7722.9215
-9242.685
-10374.551
-11399.476
-11900.648
-12393.362
-11992.982
-11683.9
-9937.3575
-8718.1469
-5496.1494
-3089.5633
1184.2265
4928.9216
16685.435
4165.274
-802.90752
4527.1898
2252.6263
4226.4379
3089.5601
3338.4342
2642.7892
2069.5855
1667.8801
535.1433
-78.165805
-1056.0426
-1309.898
-1958.4664
-2295.6829
-2318.8811
-2655.5286
-2127.6998
-1833.5217
-843.2751
298.99707
1919.4111
4022.395
6317.3498
9252.5313
11506.846
15084.557
18534.139
21597.661
25499.456
28897.623
32579.465
35865.829
39114.211
42072.837
44023.428
45844.934
46844.755
46905.356
46504.75
44862.619
42345.807
38981.223
35133.644
30577.525
21838.942
632.73444
248.2618
-143.36271
187.08909
-106.25768
-132.87559
-352.18479
3701.1147
6696.4276
-2940.0518
6167.4137
4275.5568
3701.5409
5391.0012
2208.0482
4342.2064
385.65936
3754.592
2143.8285
1901.6203
1074.2242
324.52278
-39.009792
-520.40522
-696.13986
-425.46463
-210.97877
613.6645
1333.3998
2565.8158
3715.9818
5582.7295
8140.6489
10773.826
13918.381
16956.997
20298.16
23470.561
26974.288
30044.48
32969.419
35212.969
38043.575
40569.006
39390.572
39813.984
39263.92
37710.353
35961.68
33167.639
29960.28
26235.214
21619.995
23102.608
26045.832
26389.983
24235.063
21319.989
15981.864
11515.54
19287.404
16169.272
14968.184
13684.215
10749.454
8398.7806
6303.7534
4531.4667
3086.9914
2049.0439
1219.8451
896.13628
-506.81302
-426.71766
-372.70646
-407.52547
-323.98579
-211.39147
20.988079
185.39312
464.28255
620.44609
844.94852
805.32658
843.23515
886.10615
970.34611
1104.2278
1262.2796
1607.6044
1824.1128
2385.4806
2821.148
3697.8976
3073.9931
3768.0815
4298.4661
4416.4282
4496.4343
4504.7701
4560.7358
5318.3449
3531.8619
5141.7594
2589.8529
3918.2686
1021.7813
4044.7503
1040.678
1138.9188
890.07035
1110.59
1012.5419
892.12004
191.49172
-876.28394
-473.47773
-1063.5682
-1142.9317
-836.20397
-520.51713
-1635.7946
5826.8949
6000.578
5846.0776
5894.1294
5728.2159
5775.3634
6122.0797
28379.637
27980.798
27928.67
27933.404
27818.096
27771.587
27115.887
2392.0077
703.74345
1519.7064
1385.9401
982.59795
1433.9732
594.2862
965.3617
346.50079
567.53385
256.63006
31.540038
99.57124
-150.59572
-165.80221
-103.35305
336.15968
298.22923
732.55194
852.85494
1232.7708
1499.0084
1941.4908
2166.9136
2539.3455
2913.1547
3269.6097
3806.2787
4619.8949
5325.4287
6227.7794
7160.6589
7947.0098
8927.226
9876.6469
10704.915
11820.73
12571.541
13748.967
14793.855
15992.552
17302.537
18724.109
19736.872
21568.848
22474.939
24884.906
903.5444
-0.92053423
307.02772
-178.50495
-270.64952
-388.97075
-929.1274
-837.29612
-1327.0005
-1247.7907
-1417.2615
-1230.4359
-1308.337
-1170.2021
-897.64158
-645.71355
-346.94834
4.7387539
524.60639
1078.1051
1648.3535
2430.9967
3037.9508
3970.4549
4782.8716
5667.6321
6657.8075
7800.5671
8820.5519
10017.349
11254.321
12376.47
13545.538
14686.409
15741.461
16804.763
18007.756
18653.58
20012.6
20433.779
21923.732
22117.159
23456.937
23563.843
24737.62
24138.448
22377.159
646.95711
-336.70564
134.4271
-399.127
-616.38237
-651.67686
-914.59573
-880.59897
-1020.1432
-850.29191
-912.28602
-723.95792
-765.40853
-374.73907
-317.79754
140.34678
652.98057
1255.5618
2017.4483
2625.1059
3426.5256
4048.6135
5101.1806
6063.1184
7107.9434
8186.6616
9596.0317
10699.765
12265.173
13738.934
15141.716
16619.995
17954.867
19294.452
20540.992
21714.403
22745.782
23786.321
24702.874
25338.095
25783.226
25865.787
26087.879
25453.609
25343.2
23662.74
19724.946
321.3442
-85.267248
109.17438
-112.44225
-348.47006
-325.57337
-710.73355
-952.58127
-988.83219
-1360.4929
-1312
-1040.5603
-1177.0611
-528.70589
-513.81778
408.53227
641.90515
1561.2048
2052.3899
2927.9141
3809.5303
5075.2482
6124.7843
7001.3545
7811.0871
8906.2453
9735.031
10636.952
11580.288
12403.979
13282.715
14155.798
14879.431
15760.858
16391.418
17127.193
17839.126
18400.776
19638.193
20067.676
20868.14
20761.244
21344.424
20866.778
21322.877
19783.766
17569.552
340.37008
-663.63225
-85.638844
-773.08408
-738.89372
-1030.6853
-1160.2817
-1277.8559
-1024.6587
-1154.3392
-430.41923
-405.91406
112.09095
525.77408
971.67958
1497.9927
2010.1971
2604.0106
3229.7485
3841.327
4480.0382
5233.6833
6441.6304
6462.2608
6626.4549
6401.7578
6127.4562
5860.2716
5544.6616
5154.3325
4731.6609
4312.5863
3797.2455
3420.7585
2931.0318
2703.6052
2423.4776
2431.2224
7397.625
14580.892
14384.472
14884.923
15160.824
15444.395
15734.619
15359.515
17589.687
681.86789
-614.31225
101.7996
171.30092
329.78207
496.92312
709.58001
652.68002
1256.6755
1203.7156
1551.3937
1613.2899
2390.6278
2786.378
3132.3753
3708.6388
4005.2894
4462.2473
4766.5623
4962.8593
5317.9018
4866.139
5121.9943
5332.6637
5091.2581
4698.9914
4545.3938
3983.9899
3333.3877
2734.5065
2069.2072
1356.3286
756.48054
333.8883
-228.11529
-126.31526
-241.30496
-86.685735
318.57504
3096.6874
3476.1299
4266.7683
5543.8499
7029.8489
8845.268
11380.637
18971.234
951.67872
-1406.167
222.71574
-56.165151
432.43969
612.69927
1087.5093
997.99809
1920.4546
1574.7461
2331.5819
1692.5181
2324.9261
1995.0692
2400.0145
2389.8081
2649.2464
2797.7784
2895.2931
3026.8017
2975.6676
3026.1969
2491.9781
2367.0187
2028.5125
1891.3094
2084.0327
2082.1521
2259.0839
2646.9786
2965.9228
3279.7979
3639.4169
4049.1407
4354.5399
5169.4052
5523.5727
6862.4557
7359.9079
4211.1503
5409.5044
7859.2055
10584.879
13430.403
16541.052
20321.733
25533.832
136.24129
-49.402003
-191.03482
-300.03918
-142.65417
-150.17554
5.4308691
145.23606
215.0736
38.846583
66.530748
84.893533
181.11777
62.619067
-129.45997
-269.35768
-400.93313
-379.75354
-378.03513
-361.04832
-330.55
-6.8276281
-106.25183
-73.990652
-94.10617
-81.345273
49.484249
51.286989
-254.90578
-346.60829
-372.62691
-411.89447
-430.17277
-343.51268
-262.94038
-679.25696
-1074.4109
-983.31757
-1215.5283
-1189.6204
-1137.8828
-922.22882
-1063.3764
-1113.7913
-1498.386
-1661.6655
-1603.7624
-1541.2556
-1224.3881
3596.8797
4686.7429
4812.2547
5606.6539
5344.596
5000.8052
3973.9808
3280.9035
4437.2262
2163.0065
1333.7186
3703.4363
2461.1503
4785.1975
1676.3686
1412.6077
3460.1708
2556.8139
1945.9595
1603.3025
4166.0269
3968.1144
4710.369
3056.1778
3467.0592
3652.7472
4768.5723
3433.0397
3936.3034
3916.9204
5157.79
4564.8418
4543.6184
4324.698
5922.5064
4310.4774
3521.6891
2789.503
3366.8389
2966.9948
3619.4225
3287.8496
3915.2885
3724.2232
4812.4322
4286.1187
4900.1518
4816.3274
5750.8521
3584.3572
3182.3509
2746.0118
2785.5037
2173.7696
2465.596
2481.7716
3265.53
2618.9181
3130.4074
2845.9284
3484.8991
3405.5445
4517.2449
2128.766
1805.0039
1298.3791
2307.2038
1194.0615
1217.7471
1381.162
2197.0436
1535.365
2094.7103
838.20717
1460.5703
962.71451
2769.8028
716.25718
1164.4856
122.44877
937.33362
502.80161
-683.51089
1834.5271
508.88211
-265.5214
244.58459
-413.35182
-189.86886
-31.177714
960.52835
-513.2428
-718.34947
-280.01832
-1191.4271
-367.4247
-1585.1756
739.99514
-840.99408
-960.41969
-1287.0285
-1407.387
-1458.0251
-1809.9388
-271.02682
-1151.7803
-1874.7476
-1324.9244
-2201.2305
-1547.4067
-2432.1915
-551.31503
-1840.2728
-1747.8674
-1757.398
-2365.3162
-1871.896
-2627.0761
-1102.6165
-1539.7944
-2074.7816
-1626.0495
-2431.4066
-1880.0316
-2739.7712
-1251.8309
-1542.559
-1773.1828
-1350.8445
-2279.0542
-1631.8896
-2382.8025
-992.92459
-946.14857
-1280.5414
-922.4831
-1702.3843
-1097.4187
-1966.4988
-688.90341
-115.9578
-461.73856
-56.328275
-920.88877
-412.20397
-1130.3611
111.46932
1021.141
703.30776
986.94946
133.41475
756.05336
-77.712284
1157.0783
2665.6877
2266.7457
2451.599
1779.7752
2228.8326
1558.2318
2710.0122
4678.194
4268.071
4361.5435
3680.0554
4111.7721
3293.7769
4331.9615
7072.7076
6822.2057
6223.8193
6172.5429
6201.7668
5761.3029
6812.6738
9912.421
9327.5166
8906.6464
8619.8018
8192.6099
8361.6432
9609.3913
12422.593
12254.505
11827.554
11636.041
12225.557
11408.15
12489.376
15718.2
14918.394
15238.956
14547.762
14735.398
13622.229
15389.251
18086.27
18397.813
17606.853
18167.494
17810.215
17816.184
18400.399
21827.484
20999.176
21516.951
21367.14
21450.484
21003.37
21683.2
24565.428
24955.002
24613.977
25117.365
24781.315
24719.997
25025.182
28311.044
28046.74
28181.466
28602.35
28397.812
28417.047
28616.584
31246.908
31533.562
31488.763
32172.07
31841.704
32039.566
32212.949
34575.272
34722.986
34758.17
35454.431
34970.152
35304.947
35480.437
37278.567
37601.993
37490.155
38319.989
38028.56
38542.536
38338.805
40092.426
40145.208
40073.579
40876.339
40166.742
40761.296
41157.739
41330.031
41665.718
41793.701
42493.363
42465.432
40311.086
40883.351
40868.217
40657.138
40930.883
41468.119
40988.215
44565.865
44107.036
43733.326
43561.936
43859.053
44063.285
43862.449
44197.995
44662.698
43921.638
43733.662
43408.687
44111.09
43595.077
44002.124
44537.838
42959.402
42411.039
42539.972
42787.672
42477.694
42813.208
43082.374
41100.908
40695.079
40528.851
40920.579
40553.358
40873.866
41061.585
38471.661
38094.873
38198.607
38342.372
38073.609
38304.431
38404.721
35023.454
34950.525
34781.963
34964.862
34634.207
34969.082
34814.421
31241.017
31099.12
31023.298
31070.675
30950.372
31101.662
30851.707
26728.642
26759.492
26544.029
26697.066
26418.691
26593.78
26115.573
22311.301
22217.96
22166.898
22036.575
22067.472
22005.906
22036.382
17846.327
19067.237
19035.477
19040.575
18907.689
18799.613
18696.26
9961.3534
11590.446
11360.107
11317.912
11151.153
11724.122
10585.003
15254.065
15126.093
15199.164
15093.941
15052.454
14350.711
14240.138
19699.82
19837.79
19679.791
19742.81
19385.816
19585.758
18772.809
26025.92
28554.873
26867.258
26595.673
26756.292
26336.258
25737.311
29659.155
29045.302
28545.415
28634.915
27526.492
28394.538
27190.906
25843.007
26473.785
26502.58
26332.228
27171.107
26331.09
26234.026
2600.21
2900.5749
2843.3403
2853.8818
2940.7946
3156.5854
2512.1458
1921.5811
1351.9884
1795.763
2254.6529
1808.0615
1395.7419
2011.9588
3910.6629
4185.6019
3782.6736
3464.9952
4391.8209
3623.239
4390.7793
3599.8029
3528.567
3356.5319
3819.6909
3278.3942
3025.1196
3607.2964
5448.6651
5004.5873
5251.8145
4987.6169
5319.7293
4954.8234
5215.074
4418.538
4484.064
4184.533
4177.9526
4107.9728
3400.2341
4182.3228
6152.1169
5571.915
5625.8387
5600.0665
5690.9754
5826.7534
5904.6789
5043.3718
5026.0191
4771.9985
4579.8184
4466.188
4266.6565
4803.4901
5871.1341
5374.3806
5460.6279
5170.9028
5560.3389
4692.0302
5478.5565
5692.2359
5188.551
5151.2391
5057.5479
4849.6392
4689.0385
5072.9498
5413.3056
5228.5477
5207.2385
4884.9415
4985.7141
4534.5924
4869.6242
5468.9004
5138.4149
4826.0762
5165.8093
4951.4959
4866.8903
5142.4475
5396.0505
4818.9579
4984.0444
4464.5815
4802.6195
4049.558
4799.4163
5211.8758
4932.6933
4656.2841
4737.2919
4693.0917
4802.8652
5118.4522
5039.4896
4399.5848
4623.5206
4726.2233
4870.4842
3736.4584
4606.7941
4723.5558
4278.3076
4468.223
3725.7124
4330.6984
4057.6561
4270.3426
4498.158
4360.4007
4180.5882
4261.3677
4279.0848
3760.766
4263.7307
4453.1061
3884.4294
4113.0722
3745.909
3891.405
3568.6901
3859.034
3951.5463
3813.9106
3787.0753
3493.1374
3842.9316
3327.7898
3651.1099
3831.5218
3471.1676
3488.1323
3346.03
3485.3361
3059.4161
3340.2389
3313.2729
3026.4375
3214.3665
2878.1757
3169.413
2790.5154
3075.8483
2978.5757
2766.0273
2771.8309
2562.3262
2792.8618
2388.244
2819.4827
2551.1794
2169.6176
2312.0598
2078.891
2291.2675
2033.9467
2671.7004
2271.9292
1862.6027
1931.5964
1695.551
1891.8084
1780.6748
2606.8943
1923.3115
1415.5799
1437.7663
1256.8808
1428.1984
1365.6453
2479.6962
1727.2656
927.24963
1101.2955
843.07227
990.48688
1026.1057
2389.2484
1128.7845
448.59325
401.21863
259.52082
338.68965
435.04955
1971.0885
513.65595
-314.99097
-334.73292
-413.60559
-299.56983
-216.01865
1520.1616
-513.26501
-1350.6926
-1077.3799
-1438.8611
-1309.6701
-1175.6108
617.36874
-1635.3357
-2161.5789
-2343.9817
-2489.7528
-2313.2295
-2161.5779
-261.68033
-2719.7693
-3411.6926
-3378.6116
-3518.7949
-3425.3615
-3270.9906
-1249.5244
-3938.161
-4445.033
-4511.0469
-4656.7682
-4644.9655
-4398.9908
-2252.0175
-5039.9053
-5511.9025
-5644.7278
-5834.2988
-5792.0559
-5450.2463
-3129.9093
-5997.7999
-6459.4422
-6628.1909
-6652.7438
-6681.2888
-6327.4694
-3978.8993
-6722.232
-7284.7329
-7412.6045
-7535.1992
-7696.8336
-7317.2764
-4713.3381
-7376.3447
-7842.064
-7969.3043
-8140.0243
-8116.6989
-10061.489
-7350.8425
-9671.4813
-10476.376
-10630.841
-10813.512
-10669.119
-7963.6348
-3274.1231
-6906.6685
-7671.0242
-7982.4563
-7833.4804
-8083.3815
-8120.113
-4987.3265
-6791.9914
-7247.8834
-7468.1936
-7479.7601
-7719.0507
-7397.8521
-4029.4508
-5883.6351
-6649.9831
-6875.7218
-6728.7999
-6936.7125
-6527.4556
-3386.3072
-4408.0175
-4998.6745
-5020.2689
-5018.963
-5228.2625
-5127.7668
-2243.3097
-3063.0483
-3619.2276
-3757.2752
-3812.2028
-3933.8827
-3635.0195
-705.13243
-252.50235
-667.01481
-823.10127
-761.81324
-878.23937
-822.74277
1377.9542
1817.5664
1297.9013
1261.9638
1180.5102
1024.3163
1133.4069
3574.0618
5719.3597
5504.8417
5408.5584
5310.0126
5212.0834
5448.6496
7093.1868
8564.0062
8260.3716
8172.1666
8027.3998
8050.6011
7964.7089
8902.3697
16665.325
16618.401
16349.452
16329.513
16221.733
16233.821
16271.446
2342.2837
1067.5378
1320.5169
1336.9424
1677.8505
2140.0604
1111.5063
1787.4496
867.1897
715.30983
628.62812
-762.27272
-596.11235
-1684.8908
-2152.7144
-1908.8477
-2225.8032
-1984.5892
-1752.8351
-1216.0486
-604.06355
179.42314
1036.9093
1901.3314
2810.8888
3984.5249
5505.2914
7188.003
9233.86
11463.119
13918.222
16366.11
18768.63
20950.948
23205.343
24510.597
28098.862
27485.616
28220.809
28822.841
29258.114
29413.618
29294.736
28716.601
27951.03
26070.316
28582.705
1456.2677
1554.3512
123.33166
398.01413
1348.7726
-301.01084
828.26952
150.38801
186.52483
289.13456
-293.15387
18.135826
-64.906936
-75.213446
486.36571
496.72596
932.48806
1294.0134
1935.6202
2597.4585
3323.9452
4153.8078
4977.1768
5964.9086
7000.987
7945.1638
8860.6073
10953.183
12208.705
13408.231
14486.008
15449.622
16220.45
17067.164
17518.194
18375.283
18229.208
18613.394
19008.762
18862.178
18890.891
18474.714
18211.04
17304.366
17194.484
15293.079
20192.931
437.76842
80.080502
-458.81797
-52.452964
-763.28247
-286.91943
-769.01966
-735.16679
-447.1355
-779.56708
-391.08618
192.24744
974.46218
1531.9664
2367.515
2526.2043
3519.1404
3950.0995
4482.1488
5141.9806
5546.5798
6004.8584
6345.1063
6468.207
6732.2914
6639.2045
6874.0541
6338.2144
6307.6758
5911.1004
5609.3146
5131.9838
4891.9325
4481.3276
4177.0472
4050.3198
3869.3241
4062.9991
4255.3311
4705.4024
5309.8231
6229.8087
7120.1407
8595.3289
10022.735
11761.504
15786.433
139.01143
598.27214
-599.97032
552.45577
-867.71512
607.68265
-1169.0783
992.11182
-654.38013
643.10001
757.54459
828.01638
1529.2276
4039.0233
4134.0116
4746.2524
5406.3623
5634.385
6251.5453
6501.7982
6763.9255
6825.1219
6754.9522
6826.0369
6547.7643
6497.44
5869.3077
5456.2275
4732.5212
4051.2473
3254.6846
2517.9994
1834.1517
1001.5995
567.63096
67.64863
-231.64372
-375.26331
-81.339069
196.51022
1134.693
1933.7561
3798.5243
5222.7972
8292.1796
10130.123
14169.817
368.20591
-16.565279
78.354552
133.61944
123.08627
431.81517
157.6451
1773.4682
582.48735
2564.7845
1489.5125
2815.0623
2957.2597
3549.9464
4188.95
4820.1327
5174.448
5723.6687
5953.1455
6300.0834
6398.1866
6386.1041
6440.5275
5985.9971
5351.8425
4288.2036
3449.268
2515.8732
1573.9602
488.01152
-589.0855
-1607.2522
-2657.5149
-3437.5635
-3969.6544
-4565.6715
-4587.8888
-4235.0887
-3861.8541
-2454.0764
-1211.3002
1199.9146
3472.0632
6761.7346
10218.975
14066.785
15874.895
-169.08947
1095.0458
-996.89257
1526.9315
-577.03013
644.50924
986.13131
-190.34991
1388.9263
964.30149
1347.1477
1896.8081
1067.4677
2115.6063
2024.9063
2287.1901
2768.3937
2807.3707
3277.62
3312.7344
3575.1818
3660.737
3867.8738
3955.5392
4145.2686
4423.1444
4839.0909
4975.9038
5206.7938
5343.612
5740.5543
5814.5639
6201.1774
6721.9205
7185.24
7816.4916
8831.6607
9414.6417
10952.032
11772.615
13262.328
14560.202
16199.213
17641.133
19835.252
20891.373
21657.242
1518.4475
-990.7704
1730.4454
-1056.9767
1733.1091
591.22516
1393.3003
1246.1362
1801.3856
1636.0207
2385.4454
2714.5465
1776.8942
2721.7335
2096.7246
3038.6125
2897.1384
3320.0417
3318.8408
3339.8685
3175.7363
2941.0104
2575.7265
2014.4406
1723.6407
1937.4337
1335.4089
1573.8512
1387.8768
1657.491
1443.5455
1338.858
1383.8012
1437.9929
1759.0391
3342.4992
3003.9385
4578.8737
5920.3219
8396.3535
10790.577
13483.705
16246.01
19097.081
21801.117
24238.339
27357.729
1520.4793
1600.5222
1456.8667
1356.0929
1372.8969
1124.7134
1619.4358
1218.7366
1207.2729
895.76845
938.34308
741.73566
744.28204
1142.37
1479.3291
1386.3532
1594.0421
1411.6564
1470.2243
1480.7196
1940.6325
2061.5572
1742.4677
1667.5613
1749.22
1596.5772
1611.3332
1763.6822
1732.5293
1520.8844
2043.2795
1467.7012
1840.9614
1520.7675
1793.7213
2047.0794
1936.9128
1694.3831
2137.5454
1907.7241
1895.428
2276.5615
1632.6573
1107.6205
1793.5704
1206.7586
1370.3462
1384.2632
1348.1787
1504.5504
1504.5671
1488.4012
1522.2798
1775.9427
1365.3671
1748.8794
1232.3523
962.358
1168.5948
1369.0796
1046.1152
1278.8903
1088.3126
900.62428
628.55744
991.03669
583.80782
889.59683
652.90351
691.2035
437.19548
516.47071
619.84822
772.95293
898.67198
771.41917
828.98291
307.36583
-121.11271
372.16681
-42.008628
100.66889
-86.080197
-93.398518
-124.14874
-171.99409
-105.92053
14.514119
104.32804
66.548267
-87.924939
-336.08393
-696.63887
-62.104966
-516.61871
-149.16854
-858.63487
-550.479
-655.34681
-544.88124
-817.07602
-612.17551
-824.21641
-481.39671
-902.115
-558.72952
-838.23003
-552.8454
-454.10932
-527.16294
-893.71948
-1167.6239
-823.14995
-979.64595
-784.9763
-757.21987
-833.54903
-985.35247
-1083.1699
-726.20721
-812.00191
-599.80241
-580.37979
-599.78652
-645.56269
-1042.3642
-436.72259
-600.75478
-492.64837
-441.22793
-394.25098
-637.98557
-962.54159
-243.43681
-271.58153
-158.03985
-36.023262
-162.05258
-272.70516
-576.48674
350.63441
259.2499
411.26836
359.90604
327.94883
202.44242
-171.37725
855.25293
829.28335
971.53382
951.74285
906.92482
796.18993
441.54002
1697.3935
1621.3955
1830.8965
1710.1837
1661.9012
1441.5154
1200.4118
2431.6939
2325.5675
2637.5208
2498.8361
2469.9861
2282.2584
2066.6087
3493.0822
3223.9404
3560.4178
3401.9445
3369.4875
3006.7559
2914.7668
4377.6164
4051.9328
4570.9755
4230.6958
4309.8871
3893.681
4011.3169
5546.8105
5161.9627
5674.1966
5407.7909
5358.3816
5155.1764
5165.5829
6907.7217
6457.5356
6770.0269
6690.7592
6634.2071
6142.4522
6494.2965
8312.2199
7633.1856
8557.2472
8058.0518
7990.9931
7647.1961
8056.4219
9910.6452
9626.7845
9911.3222
9517.7687
9689.8823
9150.9404
9695.2658
11672.33
11075.723
11640.434
11430.43
11336.484
10773.674
11513.849
13314.402
13007.084
13467.416
13042.714
12935.255
12527.713
13364.608
15117.888
14846.773
15149.983
14911.3
14863.883
14396.698
15400.039
16903.775
16661.646
16951
16769.254
16537.993
16224.81
17061.75
18557.318
18435.496
18602.717
18421.259
18250.259
17650.487
19160.365
20155.165
19964.246
20107.194
20037.429
19672.578
19810.329
20209.528
21356.038
21325.829
21057.096
21220.109
21018.764
20319.053
24161.35
22589.877
23627.497
23974.295
23923.573
23572.772
23761.939
23471.378
23746.578
23877.95
23683.339
23826.22
23461.42
23217.192
24927.93
24810.803
24550.688
24188.149
24614.443
24040.099
24232.922
25559.039
25492.989
25296.867
25014.078
25347.228
24831.666
24880.615
26316.944
26211.59
25888.903
25514.599
25870.196
25315.811
25634.489
26827.461
26691.791
26491.521
26115.884
26542.171
26054.672
26279.562
27143.493
26806.496
26375.209
26180.538
26447.073
25949.312
26241.381
27223.961
27324.855
27102.282
26874.607
27115.52
26723.168
27222.93
27429.32
26852.939
26422.381
26322.134
26468.146
26246.721
26322.691
26299.426
27747.956
27606.217
27478.175
27499.714
27287.404
27344.18
27328.808
584.28273
803.44846
607.01816
680.20548
471.32235
584.59037
476.66074
406.97565
604.00833
413.39307
654.17671
643.46158
839.89779
862.76022
454.94992
216.10178
193.07501
62.921425
298.30745
11.14631
777.07209
237.4443
437.3595
388.42811
602.86076
288.40134
630.45318
80.129288
580.19986
297.65972
716.6218
284.4193
872.95436
296.70419
897.32282
172.43007
211.6874
-195.8643
68.027741
-355.02214
-95.63489
-45.944017
223.82469
-5.4014328
508.74206
238.34183
444.89748
374.30546
104.73901
6.3843763
153.33912
-274.12813
-0.38342532
-190.87286
-301.04064
-195.7386
-107.34731
-373.46096
-74.197644
-106.57659
-402.08623
-219.60362
-440.6054
-266.68024
-159.21152
-95.982689
-134.5864
-45.503766
-240.84296
-247.50717
-282.65565
-326.52767
-264.09065
-199.0577
-521.77947
-552.65107
-675.21192
-361.77651
-244.68855
-327.83413
-187.88292
-305.15682
-358.91451
-443.50634
-337.303
-366.39005
-75.885287
57.651375
-265.83997
-239.20835
-664.17139
-303.21866
-410.56746
-82.196322
-347.00648
-372.70632
-458.50889
-569.6678
-84.620429
-158.86153
104.26836
12.4917
213.31376
-20.174577
-337.6101
207.84874
-244.15958
356.2805
73.778358
191.91102
-102.55416
-284.50323
305.17714
339.03561
638.94921
414.11752
548.00691
421.35505
322.22282
890.55382
662.85708
1000.9141
846.58944
956.35143
809.11767
605.27665
1211.4756
1101.5606
1452.6719
1251.1332
1432.2329
1222.6642
1132.2713
1895.3622
1746.6354
2014.4445
1953.6499
1966.5867
1845.9967
1848.0459
2456.2433
2349.5384
2629.7166
2471.0522
2585.6181
2615.6715
2498.729
3298.1543
3328.2204
3386.4566
3330.852
3496.1036
3319.8665
3384.7554
4139.4588
4049.2247
4112.4166
4179.9825
4092.1077
4297.5448
4338.5792
5233.2261
5135.9345
5183.117
5043.3252
5121.3493
5456.6515
5468.878
6284.9355
6155.0824
6126.5184
5988.8422
6102.7927
6371.4849
6354.6993
7679.8879
7410.9957
7456.7941
7310.1071
7128.5357
7588.2284
7981.1161
9103.7135
8670.433
8433.6068
8286.8709
8685.5147
9073.7337
9106.4581
10711.669
9523.8356
9811.3367
9800.4408
9697.2047
10426.074
10395.565
11776.486
11490.052
11301.811
10911.83
11018.629
11949.961
11656.812
13415.03
12706.114
12347.966
12340.266
12443.088
13305.424
13068.874
14838.591
13918.701
13797.575
13731.684
13657.904
14702.377
14509.578
16253.374
15390.128
15137.81
15045.626
15069.716
16262.952
16021.775
17818.263
16616.211
16396.005
16362.407
16416.224
17627.459
17239.678
19171.309
17815.052
17685.839
17621.375
17618.304
18701.992
18677.085
20523.321
18978.499
18831.985
18791.162
18728.427
20275.852
20021.287
21734.864
19897.353
19913.216
19818.968
19997.659
20987.872
21023.932
22965.195
21087.175
20951.583
20967.775
20640.946
22198.145
21912.052
23746.943
21447.611
21558.077
21584.61
21510.348
22937.65
22762.529
24717.074
22457.611
22662.111
22544.225
22372.203
23467.621
23514.022
25030.616
22400.12
22921.495
22543.075
22712.207
23759.123
23822.94
25568.613
23262.799
23705.979
23388.646
23395.536
24039.364
24017.247
25159.789
22797.121
23366.54
22843.417
22999.106
23621.294
23877.911
25283.738
23377.4
23768.15
23467.544
23591.552
23897.049
23811.654
24332.166
22496.263
22866.961
22473.374
22452.086
22587.117
22806.43
24242.763
22955.35
23116.673
22870.835
22936.429
23142.647
22871.368
22459.071
21078.94
21175.954
20863.456
20934.965
20603.143
20379.386
21725.97
21243.511
20905.986
20819.742
20766.65
20760.217
20892.495
421.40479
598.71236
451.89807
436.14606
384.49459
400.96276
338.74174
-184.37001
-217.70617
-349.68076
-359.76596
-285.35554
-362.0881
-53.275971
156.04372
-194.13926
-225.75093
-294.00143
-346.60932
-339.86575
82.355915
-223.47579
-161.31199
148.40786
293.102
182.76453
329.32946
22.7294
185.11519
-189.68482
-108.19089
-681.86898
-480.74528
-1028.521
-318.32611
-134.96079
-755.41783
-508.44699
-448.71503
-430.97333
-172.80607
-431.31107
-253.60492
-641.27593
-38.187901
-390.62709
-6.5291322
-719.94936
-373.9512
-206.02479
-735.87038
-688.75099
-849.82903
-1017.1512
-870.30716
-890.76645
-519.25396
-822.74847
-380.45417
-351.03068
-69.642822
-424.67595
-574.95127
10.590338
-474.78483
-465.81508
-524.98024
-816.93314
-854.99136
-950.70766
-254.42551
-696.63068
-443.85525
-497.04524
-333.20195
-501.88648
-603.71251
161.80065
-226.14919
-223.99607
-102.9491
-171.70204
-312.93414
-478.086
273.41418
-226.79575
43.893948
113.12518
29.71546
-100.20491
114.94951
419.85708
663.24825
852.83853
370.56744
600.86452
487.59095
375.52846
1064.1986
828.99904
994.16297
1032.3913
800.28109
815.14284
871.50269
1417.5006
1461.4109
1590.2249
1495.2286
1416.4407
1247.002
1454.3164
2167.2701
1916.7296
2115.3532
2107.1321
1822.5368
1914.9114
1899.3641
2714.1475
2419.2553
2761.5934
2514.6714
2457.1521
2500.2241
2560.5227
3464.9856
3112.3108
3353.3697
3238.5116
3027.674
3119.8824
3112.8251
4122.4618
3665.1622
4010.1551
3807.4482
3626.1633
3860.2285
3875.3041
5024.1099
4503.164
4781.0805
4538.2769
4400.9403
4508.952
4542.105
5886.6906
5093.3788
5408.5652
5267.0168
4968.5956
5247.613
5328.631
6809.1117
5926.7582
6363.7512
5875.2006
5899.1643
5973.4544
6152.7083
7705.3871
6675.2265
7011.0129
6707.282
6777.7145
6602.9189
6696.9482
8724.2598
7397.1774
7883.3947
7591.1967
7642.2476
7284.8629
7827.4935
9632.9473
8139.389
8703.3394
8126.0454
8317.8971
8071.782
8091.036
10852.485
8946.0964
9433.4451
8894.1014
9425.4515
8581.4944
9299.4094
11619.036
9735.4351
10140.817
9851.3237
10069.5
9206.8692
9935.3255
12733.729
10698.895
11200.833
10374.166
11096.845
9872.1677
10791.917
13683.329
11288.441
11623.456
11129.342
11789.772
10357.176
11487.415
14501.632
12114.389
12570.737
12046.511
12619.417
11183.101
12320.333
15416.473
12898.791
13253.381
12583.075
13267.042
11724.911
12774.122
16169.87
13580.949
13863.312
13337.509
13961.549
12231.175
13489.604
16892.909
14282.68
14572.158
13954.451
14519.965
13063.741
14072.047
17569.816
14947.429
15122.745
14469.556
15185.737
13421.264
14367.923
18158.969
15530.7
15710.545
15066.652
15583.888
14132.278
14936.919
18612.766
16043.973
16143.413
15470.233
16199.65
14498.904
15317.541
19043.591
16402.677
16666.144
15934.564
16540.295
15078.393
15530.485
19086.686
16999.547
16930.333
16351.387
16779.053
15526.403
15897.185
19397.206
17365.378
17144.518
16839.067
17111.89
16217.949
16124.986
19268.509
17777.082
17301.508
17231.895
17283.497
16417.281
16243.505
19460.262
17879.31
17477.274
17502.065
17354.032
17105.969
16599.346
19273.144
18236.158
17743.934
17852.453
17704.972
17457.039
16457.305
19116.209
18040.601
17628.498
17832.897
17435.81
17487.492
16699.875
19112.629
18394.917
18061.558
18242.956
17808.297
18327.971
16842.269
18405.873
17744.319
17563.296
17670.204
17349.08
17505.486
16295.225
17242.757
16925.916
16726.703
16809.574
16531.374
16808.913
16552.226
148.30186
274.43825
137.04223
203.4704
133.37793
180.31071
-23.497269
8.431129
89.958086
171.42959
378.39713
344.57539
531.20453
593.57115
-70.840951
-549.21053
-599.93364
-622.51601
-564.16499
-514.33982
-538.43454
204.25905
252.57253
509.18638
522.19065
644.95863
693.77662
533.0577
-0.10738033
-488.31236
-617.83501
-998.23502
-1005.4862
-1023.0938
-687.88007
426.75404
-5.0320621
303.76981
533.9135
613.5117
522.86313
620.6194
178.51981
-272.19604
-733.29552
-588.68945
-861.28109
-717.69474
-588.97998
486.76197
104.9778
250.27536
334.4142
392.93982
731.15345
574.00752
658.23915
152.83143
90.139565
-145.70228
177.70874
-198.27405
160.63884
783.5832
294.42027
242.93136
314.50218
316.58142
789.4586
873.7266
1197.1408
256.50255
1044.2506
484.81744
1059.5756
871.26632
732.53122
1527.0773
921.48391
1185.5862
481.32768
1155.1148
1032.5991
1751.5745
2053.9317
872.04677
1346.1717
1319.0769
1849.1856
1642.0769
1448.5325
2532.0668
1409.4756
1320.8097
1255.3503
1798.2128
1591.9377
1836.2119
2148.2435
1864.818
2698.2421
1704.1038
2604.3783
2039.0857
2245.8259
2856.0573
2399.4207
3022.0944
2380.86
2742.1628
2517.0085
2836.7018
3420.0254
2893.5577
3533.2517
2833.1023
3390.3708
3222.0765
3569.457
4065.5616
3664.9844
4193.0755
3501.0028
3935.4118
3639.9536
4114.5536
4586.3325
4124.926
4672.616
3911.2994
4527.3238
4330.4367
4763.6119
5269.5683
4854.1198
5317.1638
4574.471
5153.6973
4730.5162
5277.9942
5783.2832
5241.0357
5749.0146
5033.6167
5509.3066
5374.804
5847.6163
6303.6508
5868.4496
6344.6451
5449.3899
6139.1068
5858.5304
6291.0897
6781.9323
6329.7321
6457.2499
6094.8996
6428.6963
6326.1483
6592.725
7346.6431
6662.261
6946.8582
6544.3919
6628.8748
6726.3245
7220.1028
7779.3498
6942.3031
7328.4288
6623.1057
6652.3112
7150.4928
7102.6856
8340.8656
7336.0425
7523.2033
7044.5903
7119.3199
7417.3086
7702.6869
8488.66
7478.5269
7749.1515
7444.4746
7098.4173
7790.119
7554.0584
8912.1831
7644.287
8065.1288
7521.5163
7417.4433
8068.2584
7747.4249
9186.9587
7803.1791
8021.7452
7837.2295
7201.9674
8186.7142
7742.341
9255.976
7787.062
8078.7498
7915.1346
7452.8833
8583.9343
7768.9982
9426.4007
7920.3518
8229.1641
8081.6145
7440.3383
8580.2696
7670.2106
9538.9317
7947.5999
8187.2416
8117.8629
7412.7298
8765.8157
7583.9229
9602.9416
7893.0227
8261.3091
8229.9257
7580.2585
9002.9192
7612.2951
9717.4963
7992.8826
8359.8239
8340.2746
7650.3383
9003.2813
7401.7986
9750.3307
8030.6489
8371.8321
8465.0655
7744.1042
9172.6744
7444.3076
9858.475
8103.6558
8477.6161
8599.8259
8044.6042
9217.0992