/*--------------------------------*- C++ -*----------------------------------*\
  =========                 |
  \\      /  F ield         | OpenFOAM: The Open Source CFD Toolbox
   \\    /   O peration     | Website:  https://openfoam.org
    \\  /    A nd           | Version:  6
     \\/     M anipulation  |
\*---------------------------------------------------------------------------*/
FoamFile
{
    version     2.0;
    format      ascii;
    class       pointScalarField;
    location    "0.37";
    object      E;
}
// * * * * * * * * * * * * * * * * * * * * * * * * * * * * * * * * * * * * * //

dimensions      [1 -1 -2 0 0 0 0];

internalField   nonuniform List<scalar> 
3969
(
16172.68
15433.161
-681706.26
-337856.64
18563.318
16785.708
-510631.52
-1034413.8
7911.637
3505.7121
1281.2949
907.09027
2376.7325
6110.9426
12978.495
-366958.87
-362037.01
-366555.87
-372927.96
-378598.08
-382137.58
-285672.45
16614.265
12911.329
13000.471
12745.355
12479.758
12126.951
11534.988
11179.827
10553.94
10212.786
9794.934
9497.8646
9144.0726
8864.925
8529.4
8247.1165
7941.8147
7563.0175
7190.9112
6744.639
6263.3157
5746.0385
5182.3956
4573.034
4044.8097
3424.4984
2814.4666
2294.0757
1746.2599
1274.6905
890.93519
579.93655
380.17848
211.02232
338.67389
279.27428
649.37523
709.57663
1269.3087
1565.4827
2304.8387
3028.012
3768.4498
5062.6293
6086.738
7013.8166
11711.37
15591.811
10696.601
12739.719
11377.683
11195.948
10157.292
9432.5601
8490.1413
7595.5759
6789.6152
5843.8344
5104.1944
4302.7347
3668.0459
3067.8853
2584.9413
2246.7723
1916.2497
1848.216
1732.3481
1861.5295
2120.1173
2302.1606
2814.4609
3340.4574
4076.9448
4642.4389
5391.0731
6237.0133
7284.4305
8332.712
9424.7157
10488.162
11599.664
12677.883
13673.548
14533.865
15191.745
16156.851
16319.991
16643.336
16837.772
16273.498
16179.692
15552.277
14861.773
13351.846
8477.7602
4094.4892
1337.4514
1502.1531
2229.3151
5578.6206
11242.644
23111.67
16323.629
10667.961
14649.047
12018.929
11519.878
10706.975
9098.1402
8739.9686
7110.7028
6705.2511
6191.8087
5493.0211
4789.3746
4370.4876
3959.8089
3597.6413
3396.4284
3236.7695
3166.6941
3237.5771
3399.8744
3689.4045
4066.7199
4496.8836
5151.8659
5646.0983
6385.0771
7231.3799
8024.2265
8858.4023
9753.4726
10620.325
11495.154
12332.439
13025.152
13958.207
14267.917
14411.031
14509.454
14381.123
14161.574
13502.768
13007.98
12189.074
11849.828
10709.99
-830074.47
-691261.36
-819596.85
-749230.45
-737537.01
-654340.15
-808066.22
10391.593
8748.5439
9002.3911
8108.2741
7156.1717
6179.5785
5456.6483
4642.5732
3963.9354
3685.5721
3233.1363
2122.0859
1777.4549
1757.4082
1448.8443
1436.4193
1374.2278
1524.1647
1698.1769
1973.6382
2258.7187
2688.0127
3132.5265
3604.0536
4085.6165
4571.5335
5081.328
5594.8909
6096.3406
6583.4469
7093.396
7493.889
8065.2272
8579.9443
9031.4782
9450.8637
9983.1928
10530.171
10866.456
11375.457
12427.985
12349.396
13494.911
13369.778
13156.705
13656.804
19805.846
12765.253
12574.123
12321.904
12385.052
12326.214
12242.717
13027.195
10130.626
10853.364
11807.726
12337.117
12209.722
12835.527
10824.42
-381490.35
-381396.44
-381461.47
-381453.39
-381461.86
-381439.76
-381482.01
-769804.49
-769239.1
-769436.45
-769534.1
-769681.05
-770090.05
-771090.19
9883.8993
7943.2821
8233.4411
8015.5211
7994.8754
7892.3957
7577.8839
7399.977
7031.279
6809.4962
6462.2339
6129.2621
5805.067
5498.5955
5128.1871
4775.7883
4434.643
4029.8002
3683.7317
3322.7998
2997.4276
2691.1101
2446.7664
2246.1795
2110.0594
2062.9369
2062.5901
2222.4749
2407.9324
2750.7774
3134.6953
3598.2234
4085.4903
4612.3978
5235.8342
5639.1851
6355.4573
6771.6024
7430.185
7977.6622
8450.3575
9054.1304
9624.6408
9990.2223
11190.404
12035.819
14173.497
4233.9891
3632.9205
4076.8895
3962.179
4027.837
4012.3122
3841.3741
3805.5746
3571.621
3439.0056
3181.55
2977.4934
2795.767
2599.5292
2393.2131
2161.5014
1922.0473
1709.2583
1516.164
1393.1303
1321.8114
1309.7364
1395.7517
1580.7143
1848.3934
2231.4719
2630.1715
3196.7625
3709.0362
4362.8931
4997.9889
5655.9975
6302.9374
7013.3291
7566.5505
8217.8175
8857.945
9149.1115
9959.0229
10024.637
10903.354
11103.353
11837.069
12137.791
12909.561
12528.124
12196.773
1694.3836
903.49392
1497.1373
1259.7286
1414.6571
1371.2613
1384.0088
1307.0328
1200.0374
1145.8505
997.72519
855.2004
669.79936
457.45663
327.75396
195.77449
97.420739
8.1222634
3.3367552
19.396194
100.92608
307.99823
606.21402
988.73983
1469.6858
1963.08
2599.8987
3240.1394
3911.2206
4637.4732
5336.3246
6081.3521
6833.3809
7533.1515
8292.9392
9040.7808
9692.8497
10521.605
11240.103
11763.826
12637.883
12766.49
13706.316
13788.148
15213.164
14572.443
11728.606
872.84288
144.97865
363.45497
368.90953
362.60313
384.46128
295.90371
278.56228
162.11201
46.720502
-44.284785
-148.98196
-241.86187
-372.71872
-498.36919
-514.10777
-538.80514
-447.72441
-357.43529
-180.5413
44.69801
404.92847
861.17276
1300.7437
1696.9643
2228.8055
2736.8149
3341.8698
3984.7683
4691.0579
5396.9674
6215.7187
6929.8307
7808.4603
8600.4823
9352.3054
10215.362
10980.128
11831.841
12674.796
13246.161
13736.729
14375.299
14643.278
15407.334
14281.672
13065.857
2332.3372
1263.4544
1496.4257
1283.0866
1262.8676
1237.6325
1079.3318
1027.9329
873.99606
800.66982
746.35125
624.57049
554.48809
503.14047
514.64936
506.13371
549.94977
587.9494
677.26686
755.22535
1021.0675
1206.3233
1436.0392
1520.8389
1624.8577
1745.9848
1878.7411
2032.3722
2176.8997
2352.4918
2569.0523
2814.4672
3133.7915
3496.8913
3893.0062
4486.5499
4923.4945
5756.0088
7751.3236
9834.2089
10487.88
11335.95
11888.394
12576.27
12879.446
13918.044
15918.371
5908.0037
4711.5731
4841.5416
4676.1642
4624.4325
4380.8519
4148.3579
3840.8323
3553.9581
3282.6519
3070.1931
2824.4609
2635.926
2447.2079
2305.972
2180.7296
2070.0195
2003.2132
1946.4043
1902.7811
1826.5342
1944.9437
1629.4281
1458.022
1426.3516
1411.3052
1354.0614
1465.1385
1544.6696
1739.1755
1938.7371
2270.1743
2613.6673
3113.3505
3595.7565
4247.0602
4961.3361
5562.3604
6351.9218
8203.92
8732.3488
9637.7589
10158.007
11092.995
11712.454
12335.186
15310.883
9118.4688
8256.2979
8117.4668
8104.3809
7865.7239
7463.7084
6958.0498
6417.9777
5990.5804
5415.6428
5129.4598
4624.5268
4333.0839
3961.6264
3719.1819
3435.9595
3232.3987
3018.1325
2831.9659
2664.0293
2592.0533
2382.8505
2341.4797
2140.8459
2382.9631
2470.661
2577.7468
2743.4421
2941.949
3179.2475
3396.8926
3762.4867
4141.6459
4589.5411
5057.3221
5796.2674
6229.7479
7217.0698
7811.3968
7639.9642
8107.6537
9034.1301
10198.471
11395.324
12348.105
14372.423
15235.291
4356.6153
4559.4844
3715.1613
3726.3174
3786.0035
3954.5469
5190.1505
2075.7578
1963.1643
1675.8311
1724.472
1759.3028
1920.3242
2486.8097
648.41832
439.93137
198.79698
263.7688
219.54422
295.20265
691.51413
413.11297
217.62849
155.70009
152.53755
210.52203
374.95064
768.87718
932.50404
597.93672
473.35264
420.7638
514.4246
699.21707
1171.3203
3397.5052
2467.9085
2215.8391
2102.344
2246.1507
2627.0754
3758.3932
6204.1795
6115.0896
5184.7239
5324.5587
5231.5286
5684.82
7532.4641
18258.753
16299.876
17568.876
18797.291
18701.015
20000.529
19309.482
15608.281
16052.621
14787.399
14421.793
16027.266
16196.307
16562.444
12892.257
13322.009
13969.793
13797.528
13584.703
13644.558
14479.874
13338.776
14417.204
13970.707
14277.224
14337.678
14554.993
13306.179
12006.044
12279.959
12981.604
12922.887
12838.685
12488.261
12705.272
11450.049
11402.646
11476.194
11735.121
11509.674
11425.687
11083.169
10189.509
10220.695
10670.455
10598.625
10693.971
10580.911
10718.246
9330.4664
9224.6397
9226.1131
9266.9768
9135.2725
9038.1927
8985.21
8328.5887
8179.3655
8357.1453
8308.1555
8388.1574
8340.4776
8654.7858
7414.8059
7252.1149
7229.4841
7411.0017
7054.3359
7043.8445
7187.6237
6624.3207
6403.81
6485.9598
6239.5733
6409.3643
6388.0367
6348.5246
5799.1541
5627.151
5503.4374
5658.5435
5518.2837
5123.1308
5767.6543
5079.5206
4777.1305
4933.3854
4680.2018
4728.4817
4755.1364
4963.0197
4299.2385
4137.9783
4243.6181
4006.0561
4234.8561
3832.1613
4320.5749
3798.9353
3601.4203
3645.013
3524.1652
3498.6702
3398.2661
3775.0995
3317.751
3032.7299
3276.7959
2950.6679
3155.9455
2922.2817
3354.161
2911.7124
2778.3954
2843.4031
2639.8169
2749.8274
2560.68
2950.6936
2703.6578
2418.3717
2665.4512
2357.6436
2539.2811
2326.0262
2714.1297
2522.0096
2346.936
2533.1241
2227.8238
2382.4679
2184.9337
2575.9207
2546.6432
2265.1163
2536.2994
2180.9748
2387.6959
2180.341
2553.9087
2636.6433
2397.615
2626.3841
2294.9008
2482.7969
2280.9374
2631.8848
2895.9853
2579.5508
2862.3373
2501.8758
2695.2922
2485.3038
2837.0412
3192.0114
2939.0279
3168.3955
2861.2532
3020.2093
2874.3746
3181.9016
3686.3351
3396.2815
3609.6046
3275.072
3437.2469
3320.34
3557.0047
4254.9332
3926.789
4125.1228
3935.4365
4025.9672
3852.739
4049.2036
4924.4718
4633.9743
4730.3785
4529.7211
4682.7949
4518.1396
4835.7615
5810.9615
5432.451
5498.7487
5197.1055
5542.7906
5267.3153
5537.1846
6611.1787
6278.6418
6310.7051
6086.4462
6218.4388
6017.527
6282.1015
7462.3391
7172.4573
7251.132
6957.4098
7168.4003
7055.8111
7170.6422
8488.8179
8131.7455
8267.7138
7880.7012
8184.4418
7902.7147
8083.3653
9451.9051
9161.7378
9274.4171
8892.1049
9154.6861
8893.9139
9082.4576
10517.805
10213.42
10307.063
9905.9029
10233.33
9919.9712
10121.58
11554.533
11248.284
11371.211
10987.648
11268.308
10932.282
11138.865
12543.9
12266.351
12403.727
11970.127
12285.485
11922.938
12162.752
13522.751
13312.827
13372.456
13005.75
13277.868
12953.798
13156.974
14499.473
14122.343
14335.208
13893.282
14219.988
13809.755
13917.653
15095.891
14933.864
15058.024
14756.195
14781.84
14241.338
14236.636
15453.039
15125.057
15074.997
14958.541
14942.022
15108.386
15317.101
16191.309
15874.081
16186.558
15747.38
15963.405
15814.571
16167.718
16752
16364.227
16541.198
16127.863
16348.533
15996.499
16132.831
16685.929
16205.391
16512.419
16068.317
16360.603
15959.459
16203.613
16563.094
16222.686
16370.995
16131.905
16185.206
15898.968
16050.113
15975.605
15474.591
15856.604
15479.757
15668.346
15445.23
15567.052
15500.669
15267.598
15441.575
15226.953
15304.586
15062.859
15008.382
14781.888
14443.928
14677.794
14456.581
14587.225
14419.811
14368.799
14130.316
13884.071
14223.068
14035.844
14185.376
14015.079
13867.089
12283.957
12304.37
12318.757
12280.494
12290.634
12142.997
12248.818
-452784.66
-498466.18
-498615.77
-498711.14
-498715.19
-498601.16
-498320.3
-488130.79
-487477.8
-487531.94
-487683.7
-487635.08
-526051.08
-487866.72
-528766.77
-490329.43
-490423.55
-490430.49
-490463.51
-444972.31
-490147.75
-499199.24
-498826.09
-499268.73
-499178.09
-499364.87
-498936.15
-499377
-507792.3
-458605.96
-507234.68
-507307.22
-506915.81
-507144.72
-507174.42
-465291.55
-553609.01
-513830.86
-513638.44
-555474.47
-513617.19
-514008.89
-553462.19
-512834.06
-512935.22
-513135.72
-464304.44
-513110.67
-512901.76
16180.569
14543.952
13699.332
13230.668
13562.203
14092.708
14170.131
14702.611
13634.553
13622.288
13464.46
13632.027
13791.676
14308.446
14508.725
14800.213
14491.092
14320.104
14667.647
14335.242
14282.259
13679.166
13801.776
13914.947
14018.144
13838.528
13574.872
13581.835
13497.26
13533.621
13695.795
13609.348
13655.73
13254.313
13064.342
12428.365
12545.313
12646.428
12585.161
12626.357
12402.943
12421.789
12219.104
12043.914
12152.044
11920.901
12109.346
12044.626
12016.221
11292.425
11286.706
11340.958
11390.843
11248.838
11171.649
11289.825
11029.329
10808.67
10881.741
10767.757
10938.063
10707.999
10999.017
10430.476
10278.991
10361.101
10248.978
10300.421
10243.284
10370.009
10014.679
9863.8571
10005.364
9795.7396
10011.448
9812.2574
9990.1901
9590.3098
9492.924
9474.59
9511.7443
9485.5467
9543.9424
9585.5033
9246.4218
9052.4179
9112.6496
9015.2007
9099.1366
9017.3163
9036.1543
8818.9669
8782.8767
8847.9073
8739.4853
8821.2747
8732.0789
8848.2387
8452.3455
8328.7681
8411.7816
8397.5566
8474.2091
8357.1649
8275.4026
8174.5603
8047.4608
8054.9916
7988.5247
8022.509
8054.7776
7938.7357
7844.2599
7726.6415
7696.0088
7721.5444
7684.4619
7639.5957
7511.154
7473.0686
7326.1124
7363.4661
7299.5375
7270.819
7260.4893
7066.9821
7012.8664
6938.8025
6910.2765
6892.8249
6845.8263
6822.9354
6599.7849
6565.0509
6509.6185
6446.8882
6472.1271
6359.1079
6374.8942
6132.8758
6062.922
6054.8178
5968.4064
5980.0424
5842.6795
5879.6351
5611.599
5541.6888
5565.3131
5427.667
5478.954
5316.9671
5370.8517
5084.9999
4966.7878
5031.1918
4879.0323
4953.4122
4752.5249
4813.883
4526.5352
4389.9574
4522.5062
4329.4042
4418.5524
4227.9958
4268.1476
3997.187
3829.9569
4001.8685
3745.7484
3910.3309
3637.1205
3713.4903
3432.6431
3248.9662
3489.5591
3201.4996
3359.0169
3096.0868
3144.9007
2940.3421
2653.7841
2995.9815
2694.1703
2807.2108
2584.4561
2606.0411
2390.9426
2197.8165
2440.3848
2192.7174
2329.6838
2078.1783
2111.478
1946.0191
1697.3446
2016.1274
1749.2868
1903.9981
1611.943
1680.4131
1554.0447
1301.4601
1681.7439
1351.7823
1489.7112
1274.9371
1303.4453
1226.7013
1023.2938
1300.3188
1046.96
1234.354
971.45055
984.85894
1016.8133
784.56829
1110.3813
890.77968
990.84846
782.13226
818.92261
865.7538
707.00497
978.59216
746.99997
866.78939
683.22203
645.59504
867.16046
709.55194
906.7709
772.36901
888.86902
742.97792
748.24658
1000.121
903.81458
1072.8003
934.03855
987.62799
810.78442
719.09941
1088.818
1068.3664
1075.5409
1048.1887
1126.8477
1004.9955
687.01179
980.47272
965.9123
935.87377
1104.9163
825.02005
926.79991
1127.1282
2039.1835
1978.2324
1905.8768
1779.4251
1911.8014
1729.5207
1591.0279
2310.0195
2378.9428
2341.8634
2464.7133
2327.8567
2302.8279
2205.0259
2844.0389
3089.2545
2940.1727
2876.637
2928.0091
2817.7623
2696.0235
3406.3242
3663.6537
3444.9074
3658.2675
3541.4846
3518.0108
3363.0816
4130.7883
4581.4524
4542.4589
4494.4914
4480.9132
4362.5287
4193.1306
4900.2079
5365.9996
5011.9322
5160.746
5131.8219
5111.8004
5057.8972
5769.924
6369.7927
6381.7638
6382.7729
6417.5221
6233.6544
6129.5902
6694.1088
7737.2398
7419.467
7568.6793
7477.9034
7379.4313
7383.3957
7756.8582
7654.9715
7926.1572
7738.116
7859.1499
7788.4448
7701.8408
7933.9323
12376.79
11691.702
11860.052
11811.991
11695.011
11923.685
11770.529
16507.902
11287.819
10348.725
10019.352
10102.068
9591.1398
9316.9123
8829.8359
8301.0283
7904.2232
7384.9826
6806.6858
6348.8826
5887.905
5333.3138
5056.9485
4628.3623
4275.5799
4054.5984
3856.576
3761.0273
3773.2139
3872.0836
4066.5317
4393.2439
4761.7257
5415.6869
5889.8106
6560.116
7248.9561
7948.1224
8646.2758
9313.6017
9867.7037
10441.29
11071.59
11446.992
11873.625
11760.705
11985.847
12110.543
12101.978
12183.432
12116.25
12401.681
12594.971
15958.607
6819.9557
6766.0633
5282.1901
5408.2056
5732.222
5092.1053
5381.6487
5150.2709
5007.6361
4874.3844
4657.7442
4427.5722
4207.0412
3896.7205
3626.6269
3473.3837
3210.6044
2999.7504
2873.8174
2724.2134
2649.7361
2658.3796
2676.7116
2829.6764
2989.8459
3109.2459
3346.9142
3964.2408
4358.5584
4822.0823
5317.6993
5893.0272
6398.4764
7069.4938
7591.766
8227.6289
8741.6413
9150.9056
9559.9812
9955.0404
10259.491
10394.519
10624.992
10589.625
11005.651
10215.057
13140.604
2413.2448
2305.1847
1970.0932
2287.1355
2177.816
1795.4601
2212.968
1816.5087
1991.9395
1870.6494
1765.6425
1802.9266
1859.0493
2227.7706
2290.5922
2254.2606
2290.8505
2256.1573
2296.0395
2275.299
2302.6488
2328.8001
2351.0873
2394.536
2459.0311
2532.7277
2696.636
2721.44
2884.6076
3007.0307
3209.3541
3345.4165
3604.5493
3800.594
4040.4584
4322.0457
4664.8915
5024.689
5326.895
5866.9745
6338.9714
7040.6341
7646.0205
8640.604
9381.8052
10565.509
10536.468
847.15819
803.97481
248.80194
1211.5539
403.53586
912.95932
78.938723
537.62945
455.32828
321.66293
642.96339
341.82669
687.60755
1325.8016
1338.1698
1417.2455
1404.1843
1392.3491
1386.9739
1344.6954
1275.8226
1232.1966
1109.8739
1110.5144
1009.0944
1034.8876
932.12346
957.37708
977.67537
1102.6599
1231.9876
1471.0774
1796.0393
2100.0003
2623.8276
3107.6265
3722.0784
4333.5471
5178.3308
5906.4176
6971.0005
7731.9112
8975.4604
9974.3699
11415.134
12557.901
12287.206
1993.2287
590.18044
1059.98
822.84771
1019.7887
901.6801
1147.2465
1170.9592
886.93667
1304.0757
913.24451
1226.7575
1146.8841
1192.0442
1334.3756
1274.7128
1313.4682
1289.3519
1286.6896
1235.6614
1210.014
1136.7087
1127.3305
1037.8952
899.86328
851.4817
792.27611
823.40604
854.48932
927.52257
1049.3141
1265.5578
1499.2691
1842.13
2319.8596
2768.7245
3466.2722
4153.8342
4961.0661
5990.2974
6912.8534
8125.7584
9420.4196
10681.189
12025.989
13810.475
15432.91
4997.6198
4183.0618
3040.6624
4191.8196
2970.7705
3606.4211
3156.6757
2735.6184
2951.9718
2515.1257
2630.0207
2408.4097
2154.6379
2025.4865
1857.2829
1680.6712
1576.6859
1468.0114
1378.9158
1331.66
1281.9257
1269.7867
1286.0666
1301.4974
1012.1055
1187.2314
1323.9066
1538.4721
1802.2116
2124.0342
2541.7485
3006.7374
3570.2892
4226.9821
4953.638
5697.0737
6589.1329
7489.0096
8639.8064
9443.4146
10625.724
11660.444
12628.781
13742.618
14632.509
16180.278
16079.479
13546.228
7745.7455
9308.0851
7449.6861
8334.7367
7402.5983
6958.3505
6570.4591
5822.2158
5406.7867
4979.8066
5150.6261
4407.7756
4171.8217
3691.4757
3423.4273
3111.8172
2840.4975
2610.3872
2380.5677
2162.8064
1950.6596
1798.0739
1503.3742
1658.375
1454.2148
1604.6595
1777.4949
1904.913
2177.469
2445.7109
2793.5301
3200.5912
3684.7607
4222.8872
5145.8199
5863.8832
6495.4248
7337.2734
8509.4154
9530.6991
10670.137
11874.713
13094.696
14194.744
15648.067
15101.32
12470.515
10328.999
10154.46
9928.064
10021.562
9964.6885
10278.377
10880.846
11118.142
10345.75
10297.364
10160.485
10319.083
10480.577
9999.6689
10711.564
10692.951
10529.078
10505.835
10503.833
10331.035
9702.7713
10014.201
10107.109
10183.976
10040.4
9901.0343
9544.2943
9219.5668
9631.4289
9890.5802
9835.5019
9822.6371
9737.9366
9372.9844
8830.3873
9040.7668
9123.9608
9296.9478
9159.0827
9079.5485
8997.1047
8451.7236
8601.9372
8735.0828
8633.2928
8626.9981
8661.3058
8518.0097
7968.1895
8084.6523
8099.9968
8260.6002
8238.2319
8138.9463
8174.9345
7600.114
7698.6386
7648.4318
7733.5571
7606.0801
7777.1354
7747.4608
7109.9571
7156.255
7164.0169
7200.6752
7218.8572
7276.3396
7280.223
6682.0809
6746.8023
6705.9651
6783.6135
6797.3408
6859.7456
6925.2591
6278.1491
6234.4579
6276.5251
6298.1479
6292.4563
6376.8905
6458.2351
5864.8163
5863.7559
5815.6018
5881.5642
5909.0768
6007.2981
5985.8525
5418.4817
5369.7111
5420.9085
5414.6615
5497.1269
5504.1815
5598.8711
4974.1665
5011.5461
4914.7645
5023.9241
4970.5228
5197.6268
5125.7627
4543.7196
4570.9484
4541.1284
4629.8858
4637.5187
4737.5894
4699.2835
4141.9338
4140.2681
4113.081
4158.5218
4216.5481
4340.5061
4361.2584
3736.1108
3755.2949
3747.0668
3810.8367
3843.3622
4019.0444
3936.7961
3415.161
3402.5607
3416.9547
3463.0149
3541.5943
3681.3123
3642.0359
3127.9561
3122.1708
3141.879
3220.4897
3253.5273
3427.9793
3392.9885
2936.8839
2879.5648
2956.2713
2994.8495
3061.4489
3246.4271
3201.6861
2815.8353
2744.2039
2833.5826
2873.3645
2957.618
3124.2063
3098.615
2800.9191
2671.3557
2824.433
2846.1385
2911.8119
3081.7167
3104.3845
2883.9993
2709.4929
2935.8598
2874.6645
2979.5359
3158.0029
3193.2962
3053.501
2824.5704
3040.7565
3033.0953
3100.1887
3269.7731
3373.637
3249.9012
3052.9035
3376.0505
3246.7052
3338.6805
3555.4622
3603.5481
3673.9419
3375.088
3613.4726
3629.2691
3682.3491
3899.4933
4093.4102
4083.1813
3821.0267
4108.4666
4061.9591
4117.473
4316.3173
4540.5366
4584.3982
4283.2826
4694.836
4509.5508
4637.6835
4826.6262
5090.6456
5155.9387
4883.0509
5235.6737
5081.338
5239.5301
5377.2285
5706.0007
5783.7998
5477.4164
5876.4253
5739.0318
5840.4759
5988.254
6353.6311
6403.6172
6146.2773
6549.0468
6340.8481
6466.9073
6595.2328
6992.4383
7047.8997
6824.6589
7158.2221
7018.9838
7132.0068
7239.2672
7738.5348
7702.0215
7467.3258
7847.3109
7683.8169
7773.8011
7908.5512
8243.5962
8314.6835
8132.7974
8421.6825
8255.5131
8336.5168
8283.3056
8937.2968
8816.8847
8673.325
8967.0817
8879.3603
8843.644
9164.0637
9190.6551
9403.356
9255.7187
9568.8132
9300.7606
9525.4952
9356.8898
10522.654
9892.4512
10006.378
10199.479
10227.399
10123.258
10248.236
10352.616
10263.8
10172.243
10430.55
10241.808
10381.405
10347.955
10858.377
10783.695
10659.322
10751.441
10731.078
10687.297
10736.196
11066.109
10968.154
10854.902
11084.824
10953.67
11073.111
11036.345
11443.919
11469.528
11444.102
11457.767
11449.59
11410.359
11413.437
11644.12
11741.107
11511.426
11669.121
11647.044
11728.655
11690.145
11881.28
11777.468
11784.928
11906.632
11976.325
11856.277
11826.052
11999.534
12597.985
12405.753
12652.207
12535.373
12596.453
12692.81
12578.189
12958.814
13398.142
13225.188
13360.384
13398.267
13330.71
13281.222
15709.723
15333.938
15715.718
15553.02
15626.782
15643.548
15801.75
5153.7551
3912.9575
3557.8566
3424.1708
3393.1304
3467.1509
3781.4196
5510.0702
5973.7538
5605.6947
5684.501
5671.6995
5700.0774
5795.3373
5243.0458
5469.4263
5580.374
5431.5778
5491.0071
5224.3804
5237.6875
5073.287
5395.8658
5562.039
5563.8602
5468.0108
5375.3761
4949.8837
4948.6542
5136.8983
5411.2806
5325.4355
5408.9438
5138.7796
5073.0809
4788.6827
4931.1616
4861.5256
4870.0337
4796.5921
4733.819
4643.2552
4577.6099
4680.9928
4782.2138
4778.5749
4785.7853
4721.0044
4591.7065
4446.3712
4551.7659
4454.1477
4477.6085
4455.2076
4389.1308
4424.9897
4240.8693
4276.7748
4254.5801
4230.2
4206.1214
4227.8725
4228.0403
4055.7037
4084.513
4021.8587
4046.7243
4090.3108
4069.0367
4063.1871
3782.3224
3855.7898
3793.9273
3807.9595
3745.3107
3766.7161
3820.3653
3563.5239
3655.8715
3534.3062
3562.7362
3548.2718
3599.7349
3570.8872
3287.2658
3352.1543
3355.9927
3367.3887
3327.658
3361.9204
3305.6343
3053.8304
3071.6563
3101.6554
3077.2651
3068.6954
3053.2387
3128.8674
2850.2067
2811.679
2882.7339
2803.3197
2874.5803
2799.7464
2811.8429
2612.4408
2544.1473
2605.8423
2584.6454
2613.4775
2540.3555
2565.0197
2355.9231
2350.8539
2368.5297
2388.7847
2351.1085
2335.4006
2376.7446
2160.4434
2154.585
2169.9721
2198.306
2167.8571
2130.8957
2124.2014
1995.0577
2020.3375
2017.4059
2043.235
2002.9034
1950.0728
1977.8099
1889.665
1915.6958
1914.8434
1952.5224
1889.2941
1854.3103
1874.8051
1833.1241
1885.5433
1885.1359
1898.9915
1822.7219
1810.0642
1796.069
1872.5952
1944.7668
1918.7101
1941.2286
1874.6412
1834.6213
1840.9701
2008.8695
2053.6217
2017.7731
2055.6467
1935.6789
1947.0158
1936.3293
2227.6598
2258.5721
2232.5767
2225.7196
2161.9724
2191.6576
2152.8052
2534.1433
2575.5759
2486.9851
2520.0657
2454.4839
2425.1073
2408.4297
2947.6731
2953.9622
3027.4991
2904.5502
2829.5675
2842.6013
2837.8878
3440.355
3511.4644
3275.8562
3414.8938
3304.6325
3319.0905
3284.7781
4008.2167
4038.8398
3760.2075
3850.5272
3810.8166
3822.4383
3766.7399
4538.4278
4533.5925
4523.6508
4455.6131
4405.5517
4421.1879
4323.5657
5199.9127
5249.1788
5045.7231
5059.0318
5026.3229
5033.5138
4934.8736
5868.8247
5859.2945
5719.0156
5747.7332
5665.3429
5686.6224
5561.1719
6532.5597
6583.7702
6403.9228
6391.3407
6325.9807
6397.0802
6267.4996
7241.7441
7273.2673
7060.7749
7096.9984
7044.4322
7121.4374
6861.5715
7926.8334
7932.4636
7752.1922
7760.8024
7682.113
7688.0834
7562.7983
8521.516
8604.3942
8384.6933
8431.5659
8315.4942
8537.578
8248.9721
9229.5804
9193.4175
9042.6851
9011.686
9029.5202
9021.0787
8843.0229
9707.0267
9799.7122
9571.6608
9648.7795
9496.9722
9666.1498
9314.7915
10258.9
10181.2
10050.622
10164.564
10020.444
10300.856
9912.4207
10742.973
10729.575
10628.13
10604.889
10522.231
10706.83
10355.504
11085.314
10943.332
10824.982
10903.643
10815.855
11088.808
10664.432
11493.064
11393.134
11317.954
11396.032
11258.148
11459.36
11069.768
11705.124
11483.435
11412.415
11440.309
11306.216
11613.984
11238.879
11936.887
11840.817
11783.386
11908.34
11856.051
12048.31
11609.046
12029.275
11804.006
11804.794
11814.35
11604.726
11835.976
11509.356
12494.405
12442.979
12302.045
12313.549
12333.827
12745.234
12375.61
11945.832
11334.509
11515.884
11451.507
11351.841
11522.208
11089.445
12891.456
12844.296
12701.446
12599.183
12607.903
12626.973
12711.427
2067.0565
1590.9924
1384.3459
1322.483
1248.3972
1270.37
1306.503
1708.6226
1956.3652
1836.2494
1892.5378
1833.0923
1760.5927
1831.2224
2158.1261
2177.4927
2162.1506
2161.2016
2113.7879
2003.3705
1968.9318
1819.8617
2030.5684
2310.9809
2404.9809
2318.2858
2299.8742
1996.6608
2059.9223
2162.6874
2185.9324
2089.8259
2092.6077
1909.9641
2050.2332
1844.8136
1645.7422
1764.8618
1935.8677
1829.5243
1814.9925
1734.0963
1979.3113
1792.0267
1992.4813
2008.507
1977.4471
2011.0327
1945.541
1876.432
1596.8571
1605.5599
1536.4328
1550.4018
1608.4484
1567.5224
1747.2518
1490.7866
1610.6147
1650.4646
1662.0963
1736.6514
1667.2385
1681.9724
1387.5452
1466.2346
1398.4178
1378.1024
1473.5663
1496.2026
1571.351
1246.0653
1339.377
1257.3784
1304.6944
1381.5822
1369.9365
1511.2649
1098.5122
1240.825
1165.6126
1273.0374
1303.2327
1380.0514
1377.872
926.83711
1078.9614
1084.9176
1112.3993
1191.1622
1278.7618
1112.0502
1002.1988
1029.7839
983.6049
1037.3941
1179.5804
1116.4801
880.40289
959.49252
955.26026
940.16747
901.38529
1080.6446
1095.9229
746.64981
900.48945
885.2786
889.96885
847.69397
1004.6151
1020.6442
725.27888
825.66913
882.02771
847.91976
792.02787
994.03293
985.95274
666.83092
814.83876
850.43708
823.23809
773.49201
991.72004
934.11886
710.76049
843.08939
885.13508
873.18887
819.66294
1020.7048
987.1983
753.63305
893.07126
930.92371
933.19281
872.2304
1095.9647
1032.5956
868.48526
1034.136
1063.6256
1070.4861
1031.3146
1219.028
1151.931
1031.4759
1197.654
1212.8876
1248.4418
1194.5756
1393.3955
1314.6649
1264.2511
1423.5178
1461.6552
1486.0996
1444.0235
1625.5748
1543.8909
1546.9496
1720.3593
1738.5617
1783.4464
1749.2051
1893.9727
1756.4798
1912.0234
2020.0983
2062.511
2131.6119
2078.7817
2205.5952
2130.9853
2270.5433
2369.5468
2458.6922
2472.7308
2438.6807
2609.537
2456.7151
2756.6538
2835.8147
2847.3015
2898.0206
2917.1151
2986.8816
2900.3007
3206.0243
3241.838
3290.1774
3359.1777
3316.9019
3424.1208
3342.3856
3765.869
3711.7719
3807.832
3772.4559
3842.7836
3877.979
3838.4759
4331.4614
4253.9538
4210.5624
4275.7293
4344.8175
4307.6307
4364.2319
4918.822
4706.4735
4761.191
4790.2518
4860.4047
4826.451
4931.9287
5533.472
5265.6887
5291.5799
5267.1801
5419.2221
5293.7037
5463.0702
6164.9524
5777.9867
5787.2551
5796.3249
5936.9955
5743.6212
6033.8074
6748.0478
6290.5105
6347.7622
6309.5988
6489.6913
6312.667
6650.2342
7440.0048
6863.6225
6892.3751
6835.0113
7050.6767
6760.3634
7120.2441
7982.9048
7367.3198
7407.6912
7357.3942
7564.8121
7268.2678
7696.9447
8613.6681
7915.9224
7960.2749
7887.4218
8123.8697
7749.1579
8235.2261
9200.1841
8395.4926
8579.9029
8359.7271
8699.2344
8234.6863
8746.5045
9637.837
9031.0592
8995.8593
8936.1088
9161.3316
8728.8747
9218.4729
10326.099
9319.4367
9634.5303
9378.0328
9764.219
9251.0845
9690.962
10615.713
10024.08
10140.873
9935.2706
10198.243
9661.7295
10104.783
11130.051
10310.714
10571.89
10328.315
10683.512
10316.72
10672.921
11554.149
11001.313
11098.48
10940.374
11201.148
10776.756
10956.109
11971.4
11420.791
11561.564
11428.05
11585.369
11276.017
11576.174
12715.608
12139.843
12168.605
12065.341
12216.549
12121.567
12017.592
12505.773
12350.552
12413.298
12442.551
12651.056
12367.618
12358.778
10829.202
10365.273
10240.775
10136.617
10386.854
10084.687
10445.151
796.03824
694.34769
582.1612
582.33743
511.77298
486.18084
279.29025
463.21284
880.87208
955.80836
1064.5814
1003.6505
932.02606
820.43607
550.72987
609.22486
572.81757
627.05667
603.71873
514.71104
318.43993
560.97762
995.01078
1273.8019
1415.3877
1358.7922
1277.7792
1032.484
493.70637
545.61605
389.5367
324.2148
287.44417
265.76076
301.02329
563.4262
722.07779
736.96271
935.23761
927.39332
956.20249
819.71461
541.98844
452.40919
344.74527
410.70637
342.65238
248.7739
426.85471
705.6409
563.76033
460.6301
541.08121
480.87699
565.14484
543.25468
695.33847
544.04163
462.68294
414.05306
531.35253
403.6215
630.34281
726.14723
567.71573
342.45619
404.63915
385.3708
406.5386
404.97874
737.90036
501.05392
539.93828
441.884
636.60381
521.99255
657.96606
745.97175
603.01075
448.39081
352.47974
483.51339
408.81771
530.50057
787.79984
518.25565
340.1452
476.58358
608.46739
465.44291
606.60096
732.79615
626.68618
147.44464
329.90309
490.70898
428.00389
486.72742
455.53199
498.33538
553.92603
349.98003
556.8469
400.15007
516.95832
478.95706
497.39465
558.31652
407.42461
546.68219
460.9729
558.06925
512.67535
535.61608
596.24099
453.91827
599.9292
490.51779
600.35048
594.88112
588.12635
649.88023
516.98134
649.23016
546.7281
655.24328
665.31088
643.22651
729.59355
589.60656
730.04077
621.04496
718.40706
804.23509
738.13425
812.40349
682.23043
815.34543
694.58108
802.8202
959.91454
816.87511
936.91991
815.62726
913.69971
807.84888
890.6294
1131.2245
970.12187
1075.6248
927.25967
1041.1179
935.04845
1020.6342
1326.5003
1126.3238
1216.4954
1101.5668
1191.317
1075.731
1099.8515
1602.3906
1302.3084
1396.1073
1262.0797
1354.1262
1253.7872
1326.4797
1846.5436
1537.9032
1611.225
1477.3795
1523.6703
1468.6373
1476.5156
2144.414
1816.7441
1866.9199
1711.8369
1800.8077
1710.5722
1684.3772
2435.4963
2094.8565
2117.9549
1986.4616
2088.0842
1965.1093
1941.6318
2844.369
2345.697
2472.1336
2304.8172
2386.1484
2301.8768
2214.2608
3236.2474
2734.8436
2790.8216
2695.5084
2699.2776
2665.8247
2484.6306
3657.1314
3127.0696
3171.6862
3083.6578
3093.1662
3087.8408
2825.6223
4123.3035
3546.3628
3599.794
3567.917
3514.4263
3542.3161
3189.4216
4636.1631
4044.8452
4075.3523
4040.8156
3912.7459
4021.4361
3577.014
5128.6442
4506.6543
4558.1442
4559.3996
4450.4669
4631.8048
4075.0033
5740.3116
5090.751
5123.3376
5147.1078
4972.9426
5142.5536
4520.8518
6275.2363
5615.9682
5669.7888
5703.1483
5510.3181
5794.6314
5067.4749
6902.3044
6217.9258
6252.2071
6304.269
6124.4751
6353.4699
5671.4774
7545.1058
6826.3767
6863.9397
6993.1408
6649.8358
7103.4057
6266.1063
8033.0683
7424.226
7466.1857
7486.7461
7329.0181
7661.7606
6928.3935
8586.3036
8171.8312
8067.1146
8275.9061
7946.6919
8424.4442
7615.2357
8932.7456
8753.205
8687.1652
8758.1651
8540.2754
8920.3544
8220.2107
9647.8507
9632.4724
9303.5831
9597.0476
9256.295
9758.3915
9108.7413
10447.436
10093.631
9999.372
10046.009
9864.2238
10280.195
9682.8015
11097.18
11031.297
10756.804
10960.66
10769.367
11134.502