/*--------------------------------*- C++ -*----------------------------------*\
  =========                 |
  \\      /  F ield         | OpenFOAM: The Open Source CFD Toolbox
   \\    /   O peration     | Website:  https://openfoam.org
    \\  /    A nd           | Version:  6
     \\/     M anipulation  |
\*---------------------------------------------------------------------------*/
FoamFile
{
    version     2.0;
    format      ascii;
    class       pointVectorField;
    location    "1.22";
    object      lm;
}
// * * * * * * * * * * * * * * * * * * * * * * * * * * * * * * * * * * * * * //

dimensions      [1 -2 -1 0 0 0 0];

internalField   nonuniform List<vector> 
3969
(
(0 0 0)
(0 0 0)
(-5429.2715 1547.1627 6.7601463)
(-4955.8866 2713.3619 -59.72377)
(0 0 0)
(0 0 0)
(-4861.3006 2723.3544 -59.215085)
(-5336.839 1556.2909 7.2683304)
(0 0 0)
(0 0 0)
(0 0 0)
(0 0 0)
(0 0 0)
(0 0 0)
(0 0 0)
(-5264.008 1654.7742 -2.0314038)
(-5088.4412 1754.1658 -10.119252)
(-5030.2107 1892.2758 -17.863441)
(-5079.0078 2075.2334 -25.926573)
(-5159.9678 2280.5515 -34.619277)
(-5182.869 2468.4256 -43.368192)
(-5100.0481 2608.6241 -51.800489)
(-3.4166897 -9.2305265 -14.51907)
(-0.22731628 -21.080194 -19.172583)
(0.025638114 -34.160147 -25.246038)
(-2.7731905 -48.137667 -28.566619)
(-7.7484541 -64.191025 -33.859912)
(-17.263302 -80.868342 -37.766691)
(-29.673488 -99.034569 -42.980423)
(-47.739519 -118.35498 -48.024481)
(-70.802876 -138.59076 -53.417013)
(-100.48842 -159.46648 -58.806661)
(-137.12325 -180.82895 -64.579402)
(-182.55338 -202.82346 -69.679389)
(-236.98103 -223.9698 -74.786956)
(-302.01435 -244.5794 -79.182868)
(-378.55076 -263.40465 -82.645186)
(-467.21096 -279.98014 -85.320401)
(-568.89461 -293.14113 -86.66912)
(-684.32912 -302.31085 -86.625387)
(-813.66313 -306.30521 -84.964678)
(-957.09107 -304.28134 -81.54308)
(-1114.2252 -295.3562 -76.349973)
(-1284.5694 -278.82574 -69.29216)
(-1467.0117 -254.04586 -60.513144)
(-1660.3799 -220.59716 -50.125264)
(-1862.7778 -178.50186 -38.350426)
(-2072.6503 -127.55517 -25.575497)
(-2287.4537 -68.477588 -12.155169)
(-2505.2312 -1.5516273 1.5411149)
(-2723.5682 72.381722 15.059418)
(-2940.0921 152.08522 27.876722)
(-3152.6951 236.63504 39.677488)
(-3359.3875 324.71572 49.988306)
(-3558.3707 415.05521 58.597882)
(-3748.2582 506.54432 65.249966)
(-3927.8061 597.89857 69.746129)
(-4096.376 688.18832 72.267576)
(-4253.2295 776.42566 72.620365)
(-4398.4688 861.89527 70.79793)
(-4532.0742 944.22302 67.46623)
(-4654.3791 1022.7392 62.679212)
(-4766.5036 1097.4121 56.59301)
(-4868.6908 1168.0506 49.722353)
(-4962.2564 1235.0171 42.254003)
(-5048.5912 1297.9686 34.578921)
(-5128.0981 1357.9495 27.001554)
(-5203.2186 1414.918 19.855047)
(-5281.9219 1471.2408 13.144642)
(6.6610756 2.1961544 4.1780603)
(11.959405 5.3274856 8.2107929)
(19.626804 10.090534 13.864198)
(19.276848 18.970048 15.259529)
(17.635371 28.537174 17.870166)
(13.959123 39.958681 20.246356)
(6.2903866 54.283591 22.395865)
(-3.553704 70.517675 25.140326)
(-17.57567 90.12845 27.593939)
(-36.353026 113.42267 30.196341)
(-59.307665 139.59431 32.887269)
(-88.99217 170.69551 35.388728)
(-124.88898 205.98672 37.536664)
(-168.66715 245.96718 39.224551)
(-220.80181 291.2177 40.667784)
(-282.27043 341.57778 41.380927)
(-354.03929 397.67219 41.749314)
(-436.25877 458.66675 41.445245)
(-530.25569 525.79199 40.60891)
(-635.61998 597.5004 39.366391)
(-753.0591 674.72055 37.520684)
(-882.4872 756.1366 35.45216)
(-1023.4464 841.97425 32.848777)
(-1175.7052 931.23531 30.153605)
(-1338.3102 1023.1925 27.318482)
(-1510.3582 1117.3671 24.43809)
(-1691.2884 1213.1717 21.416826)
(-1878.9554 1309.6579 18.422583)
(-2072.2999 1406.0053 15.388126)
(-2269.485 1501.5606 12.262223)
(-2468.7156 1595.7614 9.1092227)
(-2668.2479 1687.8187 5.8707341)
(-2866.3354 1777.3405 2.5511019)
(-3061.2296 1863.797 -0.92491038)
(-3251.3275 1946.8559 -4.5479495)
(-3435.1305 2026.2331 -8.2935478)
(-3611.5263 2101.8169 -12.458837)
(-3779.1288 2173.4813 -16.500635)
(-3937.0415 2240.9639 -20.890356)
(-4085.3827 2304.9139 -25.377798)
(-4222.4993 2364.5928 -29.966595)
(-4349.7645 2420.8723 -34.493323)
(-4466.582 2473.651 -39.017038)
(-4573.6294 2523.1333 -43.423917)
(-4671.6726 2569.6281 -47.708893)
(-4761.6021 2613.4684 -51.836688)
(-4853.791 2659.869 -55.847493)
(0 0 0)
(0 0 0)
(0 0 0)
(0 0 0)
(0 0 0)
(0 0 0)
(0 0 0)
(2.1155864 2.1898548 -4.6468275)
(8.8982348 11.91122 -11.864851)
(16.299769 15.06974 -17.598857)
(15.346628 29.340793 -21.590037)
(15.793315 37.522591 -27.814044)
(11.22826 50.738379 -31.265496)
(4.7493559 66.928455 -38.246397)
(-5.0573451 81.572575 -41.816916)
(-18.603022 104.52013 -49.798097)
(-36.163764 123.95938 -53.534846)
(-59.235082 154.78238 -61.987419)
(-87.255324 181.05749 -66.182755)
(-122.53938 216.95291 -72.582735)
(-165.73559 254.72671 -76.803453)
(-216.75709 297.54304 -80.85756)
(-277.91347 345.8241 -83.565633)
(-348.52051 398.38519 -85.310378)
(-430.42448 456.60007 -85.421557)
(-523.45513 519.9648 -84.288833)
(-628.46129 588.29336 -81.3376)
(-745.30256 661.92327 -76.982805)
(-874.1316 740.09608 -70.99533)
(-1014.5604 822.87593 -63.628534)
(-1166.112 909.46084 -54.998025)
(-1327.9535 999.95587 -45.208782)
(-1498.7899 1092.7166 -34.948022)
(-1676.0648 1187.5408 -25.090022)
(-1860.6327 1283.6028 -15.18422)
(-2050.0575 1380.2764 -5.6724231)
(-2242.8538 1476.923 3.0177326)
(-2437.2472 1572.846 10.543383)
(-2631.5144 1667.2748 16.634745)
(-2823.9686 1759.6421 21.083132)
(-3013.0641 1849.4326 23.723613)
(-3197.2914 1935.9887 24.41827)
(-3375.5312 2019.3768 23.409588)
(-3546.3824 2099.1528 20.465948)
(-3707.7023 2173.0314 15.841262)
(-3860.8202 2244.167 9.9617404)
(-4004.2447 2310.502 2.7624698)
(-4137.6761 2372.511 -5.2680019)
(-4261.3904 2430.3252 -13.768407)
(-4375.4928 2484.0782 -22.467392)
(-4480.4881 2534.0783 -31.031849)
(-4577.2043 2580.6022 -39.088407)
(-4666.4306 2624.1314 -46.466026)
(-4736.6696 2657.6945 -52.66902)
(-5004.8599 2620.0215 -52.068687)
(-5083.8041 2477.8454 -43.9261)
(-5055.4497 2286.8879 -34.457764)
(-4956.9224 2072.3813 -24.852359)
(-4929.6009 1897.639 -16.027986)
(-5004.6425 1765.3328 -7.9327061)
(-5185.0805 1667.9552 -0.27135341)
(-5192.6318 1481.4946 11.315568)
(-5136.833 1431.3385 15.80822)
(-5059.6721 1373.5574 20.046651)
(-4977.684 1312.23 24.068942)
(-4889.4965 1246.9399 27.901502)
(-4794.0911 1177.4465 31.362584)
(-4690.3997 1103.4577 34.519482)
(-4577.5417 1025.0422 37.226217)
(-4454.7782 942.31284 39.564108)
(-4321.6856 855.74609 41.256426)
(-4176.8038 765.94347 42.377701)
(-4019.5664 672.16123 43.57799)
(-3857.6999 578.93151 43.531356)
(-3680.6003 483.55076 43.388876)
(-3495.1033 389.17075 42.744764)
(-3300.9233 296.51001 41.890947)
(-3099.5965 206.97991 40.806439)
(-2892.7032 121.84601 39.672199)
(-2682.0488 42.358275 38.481844)
(-2469.7223 -30.448496 37.461845)
(-2257.8114 -95.600176 36.489241)
(-2048.4886 -152.35195 35.771514)
(-1843.9016 -200.40891 35.301925)
(-1646.0307 -239.40506 35.026817)
(-1456.7913 -269.45915 34.980033)
(-1277.7887 -290.81772 35.032918)
(-1110.2735 -304.04404 35.217775)
(-955.3471 -309.77843 35.402609)
(-813.51971 -308.86371 35.549983)
(-685.32401 -302.25213 35.617902)
(-570.58647 -290.82346 35.420385)
(-469.13699 -275.64065 35.225403)
(-381.12919 -258.57367 34.74587)
(-304.47128 -237.2657 33.478751)
(-239.06973 -215.37579 32.760331)
(-183.95122 -193.99379 31.092694)
(-138.58024 -171.57208 29.960786)
(-100.81387 -150.08083 28.55221)
(-70.744378 -129.40273 27.237319)
(-47.041608 -108.90199 25.664829)
(-29.200175 -90.398814 24.220567)
(-15.693658 -73.146407 22.917064)
(-6.4049588 -57.032598 22.063679)
(-0.8649156 -42.073577 19.931065)
(1.27299 -29.458507 18.590568)
(1.6809092 -17.374206 15.641329)
(-6.0667441 -7.5779914 7.5676834)
(0 0 0)
(0 0 0)
(0 0 0)
(0 0 0)
(0 0 0)
(0 0 0)
(0 0 0)
(0 0 0)
(0 0 0)
(0 0 0)
(0 0 0)
(0 0 0)
(0 0 0)
(0 0 0)
(-4943.9993 2713.9713 -59.807191)
(-4931.8685 2714.7197 -59.602315)
(-4919.9339 2715.3485 -59.288943)
(-4907.9928 2716.1411 -58.877968)
(-4896.2149 2717.0728 -58.786474)
(-4884.4785 2718.6462 -58.658212)
(-4872.9394 2720.6019 -59.147077)
(-5416.9427 1549.3827 6.9583069)
(-5404.8545 1550.9301 7.2083179)
(-5393.0666 1552.2403 7.2206815)
(-5381.5431 1553.4103 7.1360723)
(-5370.2263 1554.4801 7.0423185)
(-5359.032 1555.3267 6.9751054)
(-5347.9056 1556.2577 7.0927763)
(0.61165399 -11.00747 -14.351908)
(4.6861716 -21.767382 -17.18056)
(5.4886423 -33.162224 -20.811016)
(4.5633582 -45.67506 -25.036532)
(0.40478657 -58.801894 -28.214884)
(-7.2427635 -73.512927 -32.130693)
(-18.410428 -88.927063 -36.190032)
(-34.017629 -105.33157 -40.960109)
(-55.366021 -122.05043 -45.141539)
(-82.74677 -139.52391 -50.472166)
(-117.44815 -156.89398 -55.169098)
(-160.38077 -173.71759 -59.95172)
(-213.18062 -189.86969 -64.322336)
(-276.33127 -204.19779 -68.227068)
(-351.31857 -215.92904 -71.489507)
(-438.8905 -224.51675 -73.544558)
(-539.61566 -228.73885 -74.654194)
(-654.23587 -227.76071 -74.359379)
(-782.7294 -220.59319 -72.494027)
(-925.10817 -206.47021 -69.055019)
(-1080.6914 -184.74047 -63.934863)
(-1248.6395 -154.89839 -57.189339)
(-1427.65 -116.74371 -48.992308)
(-1616.1581 -70.309537 -39.474549)
(-1812.3061 -15.834234 -28.977181)
(-2014.0628 46.236991 -17.817874)
(-2219.1399 114.91515 -6.2499501)
(-2425.6099 189.49414 5.167888)
(-2630.9945 268.80059 16.073069)
(-2833.425 351.65456 26.246437)
(-3031.0794 436.95059 35.242671)
(-3222.3072 523.52065 42.889983)
(-3405.849 610.29907 48.971343)
(-3580.7415 696.37793 53.359258)
(-3746.189 780.82843 56.080008)
(-3901.9739 863.19067 57.058329)
(-4047.8387 942.63277 56.474116)
(-4184.1751 1019.1311 54.267455)
(-4311.2201 1092.488 50.946073)
(-4429.8238 1162.3899 46.489609)
(-4540.719 1229.1823 41.226062)
(-4644.6679 1292.8774 35.300344)
(-4743.2812 1353.982 29.031506)
(-4837.0673 1412.4932 22.57788)
(-4927.7303 1469.33 16.196191)
(-5016.4798 1524.3758 9.9979121)
(-5118.4688 1582.66 3.9604765)
(5.0133196 -7.477782 -11.879062)
(8.8823143 -16.371503 -12.003515)
(11.142588 -26.768863 -17.342957)
(10.872182 -36.443241 -19.339289)
(7.5535772 -48.331813 -23.251971)
(1.5198274 -60.870395 -26.088126)
(-7.9826035 -73.978475 -30.660882)
(-23.518958 -87.670779 -33.507073)
(-43.484836 -101.30583 -38.460551)
(-70.483285 -115.40098 -42.518026)
(-104.74823 -127.91408 -46.715475)
(-148.16765 -140.5401 -50.857224)
(-201.1105 -150.35677 -54.769488)
(-264.9656 -157.89948 -58.260677)
(-340.70118 -161.66772 -60.871284)
(-428.77288 -161.61202 -62.510277)
(-529.82697 -156.11931 -63.096647)
(-643.76517 -144.73436 -62.339894)
(-770.56799 -126.58501 -60.297753)
(-909.5228 -101.18478 -56.808897)
(-1059.6776 -68.285517 -51.873729)
(-1219.7784 -27.764586 -45.696142)
(-1388.0364 20.039306 -38.317751)
(-1562.8963 74.917176 -30.057867)
(-1742.1598 136.02772 -21.093059)
(-1924.1189 202.63339 -11.867406)
(-2106.6343 273.7515 -2.4522538)
(-2287.8692 348.42888 6.4726757)
(-2466.5778 425.49911 14.961367)
(-2641.1325 504.05454 22.606548)
(-2810.6627 583.1353 29.208509)
(-2974.3465 661.97448 34.624189)
(-3131.8938 739.89945 38.72499)
(-3283.0717 816.42705 41.506208)
(-3428.1832 891.2325 42.913477)
(-3567.5279 964.0574 43.077246)
(-3701.7053 1034.9976 41.955249)
(-3831.434 1103.9037 39.811514)
(-3957.7317 1171.3776 36.614634)
(-4081.4313 1237.114 32.790477)
(-4203.575 1302.037 28.119451)
(-4325.0691 1365.9885 23.16821)
(-4447.1011 1429.8736 17.711101)
(-4570.3065 1493.4087 12.25478)
(-4695.9209 1557.8079 6.6044878)
(-4824.4599 1622.4838 1.0638783)
(-4959.2754 1689.3189 -4.5145163)
(11.827739 -6.7490204 -10.655316)
(15.221546 -13.333688 -12.134731)
(18.0048 -20.635598 -14.173456)
(17.158922 -28.78897 -16.272723)
(15.765092 -37.84847 -18.320912)
(9.1332419 -47.08238 -21.376592)
(-1.0764785 -56.139584 -22.918093)
(-16.00154 -65.503189 -26.768716)
(-36.599177 -74.03973 -29.61239)
(-64.207441 -81.726162 -32.610613)
(-99.431117 -88.493696 -35.91563)
(-143.28443 -92.995956 -38.938749)
(-197.09451 -94.780128 -41.705874)
(-261.488 -93.298374 -43.888378)
(-337.22298 -87.879721 -45.72028)
(-424.71628 -77.684433 -46.417383)
(-523.84877 -62.060541 -46.394035)
(-634.45144 -40.609232 -45.344683)
(-755.83929 -12.82884 -43.304968)
(-887.01028 21.100499 -40.188465)
(-1026.7492 61.343065 -36.170763)
(-1173.4296 107.50356 -31.246266)
(-1325.738 159.23114 -25.518149)
(-1481.8014 215.76384 -19.184148)
(-1639.9529 276.47939 -12.543221)
(-1798.6913 340.49735 -5.6215743)
(-1956.5638 407.13961 1.1159769)
(-2112.5477 475.4396 7.6196692)
(-2265.6494 544.82624 13.544531)
(-2415.4084 614.62507 18.887172)
(-2561.6052 684.30715 23.392291)
(-2704.2904 753.6343 27.012185)
(-2843.8123 822.33824 29.668355)
(-2980.789 890.46099 31.326893)
(-3115.9069 957.93764 32.032375)
(-3250.1087 1025.181 31.711928)
(-3384.3242 1092.147 30.538666)
(-3519.6232 1159.5462 28.437307)
(-3656.9087 1227.4626 25.632264)
(-3797.2478 1296.4102 22.142634)
(-3941.4689 1366.81 18.068054)
(-4090.3106 1438.8454 13.583876)
(-4244.517 1513.0764 8.6774379)
(-4404.3656 1589.4487 3.5777582)
(-4570.3328 1668.5293 -1.763641)
(-4742.7053 1750.055 -7.1288132)
(-4910.8651 1830.3801 -12.49251)
(11.739841 -3.7863107 -6.2319059)
(15.220798 -7.0091388 -4.5042395)
(20.011587 -11.082501 -7.8182093)
(21.134583 -15.881036 -8.8279978)
(19.083575 -19.623278 -10.970624)
(13.068494 -25.139801 -11.515522)
(4.0746709 -27.91687 -14.707345)
(-11.128235 -32.111865 -15.893099)
(-31.335202 -33.142962 -17.946699)
(-59.009066 -34.348615 -20.409023)
(-93.728418 -31.896128 -22.009863)
(-137.98911 -27.754456 -23.935694)
(-191.21542 -20.061397 -25.042221)
(-254.67485 -8.8553055 -26.356763)
(-328.25871 6.1788 -27.005569)
(-412.51813 25.68436 -27.37978)
(-506.91938 49.715763 -27.160061)
(-611.15752 78.743662 -26.373434)
(-724.30669 112.60327 -24.993234)
(-845.62231 151.24071 -22.989675)
(-973.89105 194.58529 -20.309908)
(-1108.1554 242.06928 -17.080562)
(-1246.3541 293.14332 -13.296194)
(-1387.6122 347.54572 -9.2909174)
(-1530.7641 404.6639 -4.8511738)
(-1674.7593 463.96695 -0.43022634)
(-1818.7764 524.97588 3.9893557)
(-1962.1685 587.25558 8.2257867)
(-2104.584 650.47812 12.217028)
(-2245.9273 714.33152 15.811565)
(-2386.332 778.70706 18.866579)
(-2526.0505 843.60856 21.32521)
(-2665.6787 908.99599 23.109322)
(-2805.764 975.09571 24.168928)
(-2947.113 1042.105 24.4359)
(-3090.45 1110.2789 23.950429)
(-3236.6451 1179.9207 22.694151)
(-3386.7074 1251.5491 20.637948)
(-3540.0076 1324.8857 17.874699)
(-3699.128 1400.9948 14.489664)
(-3863.5274 1479.7752 10.512405)
(-4033.6753 1561.4442 6.0403546)
(-4209.975 1646.3495 1.1099059)
(-4392.1965 1734.2143 -4.0671506)
(-4580.6395 1825.5718 -9.5725754)
(-4774.731 1919.6344 -15.013927)
(-4956.7058 2009.6803 -20.666205)
(13.573423 -0.49204202 -2.9240358)
(18.698233 -0.85741613 -3.2835582)
(24.875267 -1.7463697 -4.7074969)
(24.868381 -2.2450514 -3.8126498)
(23.883776 -2.7703509 -3.7873026)
(17.666276 -1.8161099 -4.3897055)
(8.7858739 0.39845804 -4.3146584)
(-6.6147585 3.7709477 -4.3161895)
(-26.219801 9.8499276 -4.913198)
(-53.172882 17.190887 -4.841588)
(-86.668482 28.285835 -4.9942492)
(-128.59377 40.367199 -5.553625)
(-178.88585 57.418691 -5.9781924)
(-238.44599 76.323064 -6.4711481)
(-307.24774 99.892952 -6.868376)
(-385.55721 126.65423 -7.18453)
(-473.35205 157.63892 -7.1127887)
(-570.04424 192.20497 -6.9569301)
(-675.43918 230.83615 -6.4981009)
(-788.54208 272.96287 -5.7214619)
(-909.07662 318.76026 -4.6281495)
(-1037.8568 368.59508 -3.4796948)
(-1172.5823 421.4574 -1.7112871)
(-1308.2427 475.90649 0.32415945)
(-1447.1931 532.45404 2.5296908)
(-1588.8604 590.97915 4.9001205)
(-1732.7893 651.26976 7.3560402)
(-1878.5014 713.12884 9.8346812)
(-2025.6533 776.38404 12.181207)
(-2174.2032 840.94169 14.34721)
(-2324.0043 906.84598 16.182292)
(-2475.2059 974.03892 17.645088)
(-2627.8811 1042.59 18.60905)
(-2782.299 1112.6288 19.009952)
(-2938.5782 1184.2043 18.786122)
(-3097.0487 1257.4863 17.897348)
(-3257.9254 1332.5987 16.323926)
(-3423.5378 1410.6049 13.9462)
(-3618.6474 1501.6681 11.116716)
(-3794.5619 1586.2109 7.4126961)
(-3964.9096 1669.3726 3.1597993)
(-4138.9376 1755.2864 -1.6776089)
(-4315.2177 1843.1874 -6.8181268)
(-4493.7121 1933.1809 -12.383822)
(-4674.331 2025.1732 -18.025433)
(-4856.4599 2118.7181 -23.807508)
(-5025.8484 2207.5619 -29.444382)
(12.079474 1.7818683 1.2169306)
(16.398619 4.5383679 1.9811678)
(23.273802 7.0607149 3.6362833)
(23.954297 9.7006895 4.7056861)
(22.669753 14.224717 5.1567415)
(17.512764 19.546769 6.136152)
(8.7522948 27.759651 7.0802444)
(-4.7712681 36.507841 7.679094)
(-22.571239 49.004468 8.5817582)
(-46.784472 62.33066 9.1457468)
(-76.730422 79.854767 9.8060662)
(-114.37119 99.612106 10.449964)
(-159.48451 123.009 10.898747)
(-213.11232 149.28331 11.072278)
(-275.34148 179.38697 11.196571)
(-346.87406 212.77099 11.081452)
(-427.68832 250.08083 10.958202)
(-518.04503 290.85089 10.547348)
(-617.66929 335.56337 10.319979)
(-726.54662 383.66428 9.9109722)
(-844.42071 435.72623 9.7370773)
(-970.90247 490.56158 9.4440573)
(-1107.9389 550.30487 9.9823983)
(-1248.2784 611.67676 9.7966051)
(-1394.8457 675.31519 10.293865)
(-1547.0244 741.27812 10.853328)
(-1704.4541 809.54662 11.519935)
(-1866.3828 879.81758 12.172786)
(-2032.1662 951.99505 12.935941)
(-2200.9739 1025.8275 13.597319)
(-2372.2214 1101.0528 14.111797)
(-2545.2318 1177.4919 14.38855)
(-2719.3435 1254.9667 14.274079)
(-2893.9738 1333.2362 13.785475)
(-3068.5429 1412.2111 12.726879)
(-3242.5033 1491.705 11.135052)
(-3415.4303 1571.6506 8.8995234)
(-3587.0415 1652.0356 6.0890703)
(-3761.7653 1734.8683 2.5450114)
(-3980.766 1839.4289 -1.3994919)
(-4133.5572 1915.0318 -6.0654542)
(-4293.6531 1995.3207 -11.050944)
(-4449.445 2074.9116 -16.416576)
(-4601.877 2154.2548 -21.916237)
(-4750.8278 2233.2036 -27.527705)
(-4896.6198 2311.6808 -33.067277)
(-5035.9075 2388.1964 -38.375282)
(9.0469446 5.8707642 3.4944603)
(15.346 9.344982 5.09092)
(22.745026 13.030222 7.7297825)
(22.482338 17.964154 9.6208901)
(22.417572 25.010912 11.408633)
(16.935744 34.076619 13.058032)
(9.5127229 45.306735 14.939216)
(-2.1701922 58.298367 16.407072)
(-18.069658 74.974056 18.551091)
(-38.68609 92.565426 19.882589)
(-65.521068 115.67003 21.713162)
(-98.143547 139.75353 23.213197)
(-138.75447 169.37696 24.108425)
(-186.58684 201.47149 25.266843)
(-243.57869 238.24695 25.599537)
(-309.55996 278.93816 25.893208)
(-385.63508 324.09551 25.695033)
(-471.82994 373.65656 25.306494)
(-568.7407 427.65564 24.626916)
(-676.47293 486.19607 23.723636)
(-795.0627 548.9317 22.8094)
(-924.27071 616.06085 21.573407)
(-1064.2833 687.14608 20.639248)
(-1213.8607 761.97291 19.511626)
(-1372.7634 840.00975 18.588692)
(-1540.051 920.86097 17.504739)
(-1714.79 1004.1628 16.554219)
(-1895.8444 1089.2812 15.687656)
(-2081.7705 1175.9236 14.846706)
(-2271.1693 1263.2225 13.904098)
(-2462.6924 1350.7772 12.808548)
(-2654.8452 1438.0398 11.547185)
(-2846.1818 1524.4457 9.9665404)
(-3035.4718 1609.6314 8.1116761)
(-3221.2342 1693.2006 5.7441767)
(-3402.592 1774.8104 3.0610084)
(-3578.3663 1854.3749 -0.18971705)
(-3747.8065 1931.6229 -3.8590199)
(-3910.7086 2006.6959 -7.9391275)
(-4069.8919 2081.3047 -12.440293)
(-4212.039 2148.7723 -17.182857)
(-4352.2392 2216.952 -22.225242)
(-4484.4264 2282.5412 -27.314929)
(-4609.4842 2346.2103 -32.481108)
(-4727.7987 2407.7791 -37.548052)
(-4840.1239 2467.6766 -42.478053)
(-4949.5188 2527.1091 -47.163744)
(0 0 0)
(0 0 0)
(0 0 0)
(0 0 0)
(0 0 0)
(0 0 0)
(0 0 0)
(0 0 0)
(0 0 0)
(0 0 0)
(0 0 0)
(0 0 0)
(0 0 0)
(0 0 0)
(0 0 0)
(0 0 0)
(0 0 0)
(0 0 0)
(0 0 0)
(0 0 0)
(0 0 0)
(0 0 0)
(0 0 0)
(0 0 0)
(0 0 0)
(0 0 0)
(0 0 0)
(0 0 0)
(0 0 0)
(0 0 0)
(0 0 0)
(0 0 0)
(0 0 0)
(0 0 0)
(0 0 0)
(0 0 0)
(0 0 0)
(0 0 0)
(0 0 0)
(0 0 0)
(0 0 0)
(0 0 0)
(0 0 0)
(0 0 0)
(0 0 0)
(0 0 0)
(0 0 0)
(0 0 0)
(0 0 0)
(4.7866729 -0.92244271 2.9383437)
(3.3851451 -0.29489054 3.0250529)
(2.3347466 -0.01521493 1.4913575)
(2.2251675 0.025062843 0.50234822)
(1.656769 0.16216364 -0.40804923)
(1.9114099 0.46865979 -1.9265459)
(2.7166716 -0.64048389 -2.6511602)
(8.712509 2.5997811 7.257938)
(6.6402051 5.7041132 3.6065303)
(5.2668236 5.6693575 1.6192157)
(4.3349895 5.8771707 -0.87786589)
(4.4693312 7.0348828 -3.0926857)
(5.3290543 6.8256787 -6.1234811)
(6.4766417 6.2342289 -8.5222685)
(14.628848 7.2502623 9.7310854)
(10.8724 6.7329505 7.0995994)
(8.0626498 9.373685 1.2333871)
(7.9333163 9.6138982 -0.17950957)
(7.3189415 9.2771176 -5.5264096)
(9.0628323 10.450983 -7.8549746)
(11.697817 11.978736 -13.724425)
(11.833707 18.722116 10.477389)
(9.3659544 21.270936 6.3157062)
(6.3937175 21.395954 1.8812524)
(5.6556506 22.033136 -2.2685737)
(5.4754381 23.173385 -7.2213152)
(8.0249645 24.605546 -12.24902)
(10.789842 23.521156 -16.805152)
(12.202754 27.50945 12.742643)
(6.7454888 28.237054 7.9753327)
(3.2220273 30.254161 1.0294528)
(2.5219594 30.667426 -4.1167121)
(2.4640849 31.667037 -10.155739)
(5.0734133 32.610019 -15.18741)
(8.9595372 33.835893 -22.074043)
(5.5051262 41.042962 13.821783)
(1.2347068 41.502816 8.2803893)
(-2.3501461 42.313968 1.1466468)
(-3.0680824 44.139571 -4.433505)
(-2.7784623 44.016642 -12.53417)
(0.94340656 45.790469 -18.480972)
(4.902293 45.975136 -25.256767)
(-1.2301797 54.314669 15.302439)
(-6.9220882 55.648581 8.2743226)
(-10.971841 58.300184 0.39947292)
(-12.422037 59.197661 -7.0050789)
(-11.831456 60.838689 -14.969789)
(-9.1423084 62.843399 -22.422049)
(-3.4464238 62.638756 -31.100523)
(-12.926557 71.992922 16.883978)
(-19.098374 73.593981 9.201133)
(-23.148111 74.824798 -0.40996583)
(-24.106773 76.095724 -8.9271007)
(-22.881813 76.195235 -17.701953)
(-19.149516 76.893079 -26.11074)
(-12.915805 77.642749 -34.202063)
(-27.821378 92.094688 18.415648)
(-34.235459 93.223587 8.8510799)
(-38.661517 96.327503 -0.76554252)
(-40.105213 97.776914 -10.202434)
(-39.257688 99.772963 -20.441324)
(-35.474658 100.91326 -30.288202)
(-28.887436 100.8491 -40.843305)
(-46.760665 115.27052 19.898467)
(-54.163349 117.74291 9.7708316)
(-58.942857 119.268 -1.4191197)
(-60.559239 121.65914 -12.532523)
(-58.816633 121.30645 -23.55309)
(-54.312501 121.67554 -34.038424)
(-46.790035 121.63403 -44.307257)
(-71.457163 142.96488 21.302515)
(-79.115253 145.12885 9.9326556)
(-84.007135 148.16329 -2.9128177)
(-84.924623 148.94784 -13.867677)
(-83.886496 150.14372 -26.393194)
(-78.84354 151.08505 -37.606984)
(-71.271631 150.96015 -50.709034)
(-101.46172 173.9199 23.16618)
(-109.53234 176.97873 9.7221559)
(-114.46107 179.49217 -2.6277548)
(-116.59489 181.51777 -16.163968)
(-114.76811 181.91682 -29.697813)
(-108.79617 181.14671 -41.610358)
(-101.21511 180.64423 -55.134096)
(-138.66005 210.88274 23.673727)
(-146.46461 213.36363 9.9125615)
(-152.13985 216.67717 -4.019162)
(-153.30784 217.42862 -18.141397)
(-151.34724 217.54218 -32.171011)
(-145.66434 218.13154 -45.12884)
(-136.64181 215.60032 -60.143158)
(-182.46922 251.01251 25.050168)
(-190.81578 254.31085 9.9269712)
(-196.68129 257.52736 -4.4046147)
(-197.86269 258.31563 -19.474905)
(-196.37182 259.30152 -34.559496)
(-189.73398 257.38377 -48.275542)
(-180.96757 255.83004 -64.106365)
(-235.06365 297.82038 25.442587)
(-243.59722 301.01513 9.6316339)
(-249.18886 303.66678 -5.3313675)
(-250.60491 304.84231 -21.400117)
(-248.35709 304.16866 -36.555815)
(-241.95628 302.96308 -51.327892)
(-232.25732 299.90532 -67.491379)
(-296.64988 348.69987 25.720185)
(-304.95023 351.68725 9.6042601)
(-311.01024 355.18988 -6.0783765)
(-311.92716 355.4009 -22.051849)
(-310.10357 355.35694 -38.260041)
(-303.17645 353.01333 -53.05353)
(-293.48727 349.48542 -69.929008)
(-367.91828 405.35023 25.738214)
(-376.45138 408.95885 9.089285)
(-382.0304 411.4898 -6.4773075)
(-383.09768 411.84507 -23.266336)
(-380.90019 411.1162 -39.158475)
(-374.08774 408.20437 -54.500567)
(-364.14161 404.04259 -71.513547)
(-450.02901 467.41979 25.239609)
(-457.99345 470.45298 8.9892432)
(-463.69164 473.2604 -7.0127829)
(-464.37509 473.28307 -23.3265)
(-462.34159 472.13089 -39.431775)
(-455.39312 468.65887 -54.78353)
(-445.47244 463.63024 -71.674974)
(-542.9514 534.57914 24.790528)
(-550.75211 537.76697 8.4767577)
(-555.93145 540.13662 -7.0174569)
(-556.60232 539.71281 -23.271108)
(-554.4111 538.23065 -39.02333)
(-547.59261 534.14695 -54.137528)
(-537.90098 528.67079 -70.701072)
(-647.48971 606.85711 23.800931)
(-654.68261 609.76542 8.2573809)
(-659.54289 611.79342 -6.8425339)
(-659.92873 611.20558 -22.448685)
(-657.78726 609.26599 -37.638311)
(-651.15809 604.70937 -52.352926)
(-641.81116 598.45991 -68.245036)
(-763.69574 683.97139 22.87056)
(-770.27321 686.65286 8.0435579)
(-774.50698 688.34029 -6.2644063)
(-774.81865 687.32377 -21.081113)
(-772.56315 685.01418 -35.49293)
(-766.29795 679.90876 -49.473556)
(-757.43685 673.21762 -64.482077)
(-891.55591 765.37521 21.69955)
(-897.34088 767.76502 7.9942858)
(-901.09158 768.97395 -5.3334562)
(-901.05542 767.6998 -19.038286)
(-898.87492 764.9861 -32.421836)
(-892.95231 759.54823 -45.46797)
(-884.74001 752.48105 -59.346477)
(-1030.8848 850.75953 20.469399)
(-1035.936 852.82541 8.0494916)
(-1038.8312 853.62211 -3.9790222)
(-1038.6715 852.02194 -16.446231)
(-1036.3313 848.99072 -28.567565)
(-1030.943 843.2759 -40.452007)
(-1023.5214 835.92208 -52.963276)
(-1181.3846 939.44962 19.21998)
(-1185.3484 941.17493 8.3403203)
(-1187.625 941.42424 -2.2730274)
(-1187.0347 939.58575 -13.326754)
(-1184.8092 936.20036 -23.948921)
(-1179.9577 930.32897 -34.544751)
(-1173.3142 922.90703 -45.477158)
(-1342.01 1030.7482 18.125564)
(-1345.2457 1032.1574 8.7611733)
(-1346.4977 1031.9111 -0.32033765)
(-1345.696 1029.9238 -9.8314208)
(-1343.2838 1026.2381 -18.724749)
(-1338.8496 1020.5106 -27.965544)
(-1333.1715 1013.2539 -36.922717)
(-1512.2561 1124.2061 16.987898)
(-1514.409 1125.2113 9.3206645)
(-1514.7066 1124.6502 1.8676077)
(-1513.806 1122.522 -5.9677737)
(-1511.2772 1118.5636 -13.291717)
(-1507.3831 1112.7147 -20.883729)
(-1502.4275 1105.4021 -27.910433)
(-1691.0648 1219.1584 15.823975)
(-1691.9419 1219.6155 9.9207138)
(-1691.3503 1218.7951 4.0609256)
(-1689.8157 1216.2216 -1.8543632)
(-1687.4862 1212.2189 -7.892797)
(-1683.6874 1206.7576 -13.866693)
(-1679.3065 1199.4853 -19.48031)
(-1877.0617 1314.6614 14.63189)
(-1876.4062 1314.6547 10.396009)
(-1874.9009 1313.5753 6.2056099)
(-1872.9417 1310.7389 1.9637268)
(-1870.1104 1307.0237 -2.4208005)
(-1866.978 1301.6006 -6.8003681)
(-1862.9091 1294.9471 -11.026011)
(-2068.488 1410.0222 13.291161)
(-2066.4077 1409.7267 10.66239)
(-2063.9396 1408.3229 8.2571526)
(-2061.4186 1405.6521 5.5012118)
(-2058.2937 1401.8993 2.7430491)
(-2055.2985 1396.8492 -0.18065753)
(-2051.6784 1390.694 -2.8465729)
(-2263.7705 1504.7641 11.807292)
(-2260.4471 1504.0963 10.86111)
(-2257.0036 1502.5604 9.8510918)
(-2253.7821 1499.8519 8.6309565)
(-2250.3201 1496.2789 7.296338)
(-2247.4055 1491.7539 5.8431668)
(-2244.0469 1486.1539 4.5766188)
(-2461.2745 1598.0533 10.111289)
(-2456.6228 1597.1402 10.640329)
(-2452.1931 1595.4762 10.989554)
(-2448.3123 1592.9044 11.155819)
(-2444.524 1589.6193 11.162559)
(-2441.4834 1585.5876 10.958527)
(-2438.3277 1580.6946 10.990828)
(-2659.1984 1689.4085 8.1953554)
(-2653.3921 1688.3571 10.053625)
(-2648.0476 1686.6625 11.538632)
(-2643.4604 1684.2949 12.934213)
(-2639.1972 1681.2702 14.033036)
(-2635.9054 1677.8534 14.965092)
(-2632.7391 1673.6641 16.090789)
(-2855.9031 1778.3259 5.9425277)
(-2848.9722 1777.1567 8.9053112)
(-2842.6437 1775.5129 11.344945)
(-2837.298 1773.3477 13.761712)
(-2832.5503 1770.6935 15.801427)
(-2828.8945 1767.8852 17.663369)
(-2825.5614 1764.4661 19.713926)
(-3049.6158 1864.3142 3.3355241)
(-3041.6 1863.1548 7.1638224)
(-3034.4171 1861.6179 10.357568)
(-3028.3687 1859.7526 13.586105)
(-3023.0632 1857.4766 16.327214)
(-3018.8325 1855.3072 18.981133)
(-3015.1903 1852.6618 21.714554)
(-3238.7232 1947.0685 0.30379969)
(-3229.7768 1945.9662 4.7648268)
(-3221.7606 1944.6239 8.5123098)
(-3214.9297 1943.0568 12.311626)
(-3208.9661 1941.2048 15.625306)
(-3204.2342 1939.6295 18.835418)
(-3200.2075 1937.7325 21.900801)
(-3421.8621 2026.3161 -3.0995729)
(-3412.064 2025.3318 1.7173083)
(-3403.2874 2024.166 5.8007378)
(-3395.6662 2022.9638 9.9520345)
(-3389.1878 2021.4079 13.512957)
(-3383.4076 2020.4564 17.133178)
(-3378.8435 2019.6068 20.437144)
(-3597.7391 2102.009 -7.0637813)
(-3586.9769 2100.9954 -2.069048)
(-3577.3701 2100.1997 2.0879105)
(-3569.1611 2099.2218 6.4772556)
(-3561.9555 2098.3468 10.174864)
(-3555.2408 2097.4699 13.817069)
(-3550.1065 2097.3316 17.810798)
(-3764.589 2173.1781 -11.41862)
(-3753.5804 2173.0403 -6.3261277)
(-3743.431 2172.3203 -2.1541516)
(-3734.4538 2171.8 2.0818455)
(-3726.507 2171.0406 5.9316269)
(-3719.7645 2171.3481 9.5981615)
(-3713.5946 2171.1366 12.835589)
(-3922.7921 2241.2061 -15.943393)
(-3911.1583 2240.856 -11.266922)
(-3900.4336 2240.4704 -7.3090581)
(-3890.8702 2240.2482 -3.2115158)
(-3882.3297 2239.8841 0.28365947)
(-3874.4643 2240.3751 3.752285)
(-3867.2439 2240.7632 7.1649436)
(-4070.7603 2305.0387 -20.950702)
(-4058.6582 2304.9997 -16.599659)
(-4047.5216 2304.9449 -12.94514)
(-4037.4451 2304.9815 -9.2042761)
(-4028.2166 2304.9355 -5.9617595)
(-4019.5404 2305.7036 -2.6886758)
(-4011.7696 2306.5083 0.16892966)
(-4208.5077 2365.0877 -26.06657)
(-4196.2005 2365.3449 -22.231053)
(-4184.6235 2365.4818 -19.005251)
(-4174.0367 2365.7525 -15.667005)
(-4164.1736 2365.9464 -12.843427)
(-4154.8986 2367.0278 -10.010185)
(-4146.1735 2368.0719 -7.5135678)
(-4335.8043 2421.487 -31.254035)
(-4323.3313 2421.9155 -28.005996)
(-4311.5629 2422.2951 -25.281013)
(-4300.4828 2422.7618 -22.469037)
(-4290.2085 2423.2374 -20.077655)
(-4280.1581 2424.4565 -17.655979)
(-4270.6999 2425.6764 -15.660278)
(-4452.9663 2474.3664 -36.447654)
(-4440.4554 2474.9722 -33.835121)
(-4428.417 2475.5314 -31.640459)
(-4417.0837 2476.1899 -29.294908)
(-4406.3188 2476.8318 -27.393415)
(-4395.7148 2478.1471 -25.449461)
(-4385.6142 2479.5132 -23.947418)
(-4560.3724 2523.9403 -41.537146)
(-4547.8455 2524.6715 -39.564119)
(-4535.7938 2525.3623 -37.844506)
(-4524.1885 2526.1514 -36.06235)
(-4513.0716 2526.9604 -34.620249)
(-4502.004 2528.3723 -33.111777)
(-4491.3334 2529.8099 -32.099399)
(-4658.709 2570.4245 -46.448341)
(-4646.3184 2571.2625 -45.035137)
(-4634.1945 2572.0434 -43.817126)
(-4622.4458 2572.9422 -42.494323)