/*--------------------------------*- C++ -*----------------------------------*\
  =========                 |
  \\      /  F ield         | OpenFOAM: The Open Source CFD Toolbox
   \\    /   O peration     | Website:  https://openfoam.org
    \\  /    A nd           | Version:  6
     \\/     M anipulation  |
\*---------------------------------------------------------------------------*/
FoamFile
{
    version     2.0;
    format      ascii;
    class       pointVectorField;
    location    "1.45";
    object      lm;
}
// * * * * * * * * * * * * * * * * * * * * * * * * * * * * * * * * * * * * * //

dimensions      [1 -2 -1 0 0 0 0];

internalField   nonuniform List<vector> 
625
(
(0 0 0)
(0 0 0)
(-4480.4814 342.7217 -314.58265)
(-4505.5055 1239.802 13.152335)
(0 0 0)
(0 0 0)
(-4831.4242 1281.5322 5.2312115)
(-4789.4671 382.15549 -321.01585)
(0 0 0)
(0 0 0)
(0 0 0)
(-4109.8785 509.87355 -216.65182)
(-4243.3846 733.92132 -147.09047)
(-4609.1059 1030.4634 -74.884332)
(-35.701205 -86.8928 -78.938054)
(-95.126665 -162.5539 -88.572215)
(-193.61414 -228.74013 -103.29183)
(-327.29677 -284.53028 -115.2553)
(-480.30087 -323.88312 -133.54288)
(-662.48709 -353.13841 -152.06077)
(-860.39698 -368.94977 -174.34811)
(-1075.6176 -373.16004 -197.1022)
(-1304.6523 -367.52939 -222.60475)
(-1543.44 -351.01454 -247.00908)
(-1788.6979 -325.61214 -271.86374)
(-2035.7892 -291.98601 -294.83207)
(-2280.7747 -251.43573 -315.44493)
(-2519.8376 -205.40963 -332.25139)
(-2749.5842 -155.20417 -344.73975)
(-2966.9383 -101.73693 -352.52969)
(-3170.5389 -47.114024 -355.39378)
(-3359.2473 9.1063951 -354.26674)
(-3533.4278 64.634831 -349.08628)
(-3696.181 119.32951 -342.0004)
(-3849.2043 172.99582 -332.47735)
(-3996.3154 226.03573 -322.20618)
(-4140.4193 276.98319 -311.21266)
(10.062261 56.230561 87.123606)
(-58.807571 116.53154 65.705353)
(-158.60181 179.18386 64.362332)
(-279.8218 228.89087 46.715165)
(-417.14445 268.35671 34.173474)
(-575.63199 314.17389 19.14572)
(-739.56726 348.29967 6.9178145)
(-918.31662 386.9217 -6.8458859)
(-1103.627 424.56898 -18.274551)
(-1299.5325 462.80741 -29.571591)
(-1503.4103 505.03218 -38.833237)
(-1716.9071 548.97408 -46.814923)
(-1939.6965 597.57609 -52.473442)
(-2170.9892 649.37414 -55.863642)
(-2410.3096 704.87483 -56.84817)
(-2655.4261 763.48681 -55.347877)
(-2903.7793 824.35742 -51.408682)
(-3151.978 886.09726 -45.250115)
(-3396.0028 948.21152 -37.159848)
(-3631.9759 1008.415 -27.367975)
(-3856.6498 1067.0426 -17.278628)
(-4066.3767 1121.5724 -6.209946)
(-4283.1836 1179.6945 3.1299564)
(0 0 0)
(0 0 0)
(0 0 0)
(-29.46194 46.285513 -59.21346)
(-104.15177 176.78856 -58.149209)
(-222.79909 211.74283 -38.028237)
(-351.49829 276.53644 -30.089899)
(-510.58233 339.39408 -31.359807)
(-679.78077 375.27372 -24.127533)
(-859.11167 424.06288 -30.287717)
(-1054.2411 463.29737 -29.569368)
(-1258.4521 504.57635 -34.170117)
(-1471.3723 543.67511 -38.598067)
(-1694.0868 583.51661 -42.659433)
(-1925.976 626.13169 -46.962921)
(-2166.5547 670.00695 -50.178959)
(-2414.8182 717.36367 -51.969862)
(-2669.1511 767.45431 -52.297513)
(-2927.0076 820.09935 -50.609915)
(-3185.2689 875.28517 -47.125861)
(-3440.5642 931.60375 -41.748687)
(-3688.5971 988.605 -34.828868)
(-3926.0092 1045.2309 -26.785834)
(-4149.2105 1100.1508 -17.94883)
(-4355.7598 1153.4048 -9.3871864)
(-4519.4118 1196.9065 -1.2936245)
(-4964.8231 1078.2118 -82.251071)
(-4481.4833 760.68298 -150.70483)
(-4509.8108 560.97902 -227.95621)
(-4479.4868 317.94217 -319.76568)
(-4354.5362 267.41018 -331.185)
(-4197.9689 215.32248 -340.38573)
(-4031.6649 162.34573 -347.85812)
(-3852.9652 109.57621 -353.36638)
(-3659.416 57.276936 -355.71655)
(-3450.4016 5.6971129 -354.31315)
(-3226.1484 -44.059625 -348.90397)
(-2988.1674 -91.629552 -338.74841)
(-2738.675 -136.2579 -323.91393)
(-2480.9532 -177.01109 -304.48243)
(-2218.6107 -213.59477 -280.67102)
(-1955.2466 -244.2917 -253.31148)
(-1695.1455 -269.7945 -222.75706)
(-1453.3444 -288.74196 -192.24112)
(-1197.439 -296.09197 -157.02646)
(-968.98452 -297.82977 -123.11498)
(-756.96952 -288.05788 -90.659446)
(-561.81251 -269.15141 -55.960851)
(-385.21026 -235.67183 -26.265156)
(-237.69529 -198.22544 8.8805871)
(-114.49127 -133.19376 29.318878)
(-53.216129 -73.65643 45.658024)
(0 0 0)
(0 0 0)
(0 0 0)
(0 0 0)
(0 0 0)
(0 0 0)
(-4586.8203 1248.7719 10.441804)
(-4668.4937 1259.8934 8.7356597)
(-4749.6596 1270.2209 6.8869149)
(-4558.1187 353.12772 -315.74598)
(-4635.2878 362.31433 -317.15776)
(-4712.7461 371.94057 -319.2663)
(1.2214413 -44.1878 -52.383828)
(-51.546192 -88.08671 -49.138744)
(-139.22344 -128.37336 -63.966713)
(-259.15195 -161.80901 -76.510162)
(-411.60909 -188.79335 -93.256982)
(-595.30992 -205.11437 -112.50724)
(-802.69028 -211.17841 -132.92606)
(-1033.0946 -205.79123 -156.01361)
(-1278.1803 -188.79399 -178.43745)
(-1531.1051 -160.04668 -200.71171)
(-1785.6118 -122.2844 -220.61843)
(-2033.3372 -76.356897 -237.7795)
(-2269.8929 -25.081929 -250.54436)
(-2490.5925 29.310761 -259.05042)
(-2693.6675 84.792807 -263.03975)
(-2878.7238 139.44608 -263.04841)
(-3047.4356 192.34212 -260.01763)
(-3202.8237 242.74946 -254.77245)
(-3349.1453 290.24315 -248.22515)
(-3492.5421 336.02761 -241.24424)
(-3638.4264 379.95641 -234.1364)
(-3792.4308 424.00395 -228.15178)
(-3980.6676 470.23796 -223.66386)
(23.886907 -20.050076 -17.623284)
(-50.546243 -32.969523 -16.885269)
(-157.2416 -45.178181 -30.782859)
(-300.77155 -50.458793 -43.594637)
(-469.49673 -43.618545 -58.946137)
(-653.66069 -33.622997 -74.888677)
(-849.71403 -15.640625 -91.856644)
(-1050.4113 8.3657908 -108.51954)
(-1251.0118 36.503394 -124.12782)
(-1450.2213 68.772078 -138.56778)
(-1644.6899 104.09243 -151.41475)
(-1835.5937 141.8496 -161.85064)
(-2023.192 181.81066 -170.13415)
(-2209.8919 223.33467 -176.18289)
(-2398.1117 267.00291 -179.93796)
(-2590.6729 312.63466 -181.87497)
(-2790.1774 360.6809 -182.03948)
(-2998.8271 411.24408 -180.62989)
(-3217.8237 464.73572 -178.01749)
(-3448.1953 521.02889 -174.44872)
(-3689.3434 580.32553 -169.75169)
(-3939.3705 641.41613 -164.83085)
(-4171.2057 701.23394 -158.4433)
(30.245451 22.125681 30.486809)
(-65.754999 42.6942 28.615686)
(-184.79438 66.404903 17.227993)
(-340.34303 98.22107 3.0770929)
(-505.86255 129.97288 -11.752888)
(-678.84578 155.61905 -27.774418)
(-852.93512 187.39339 -42.965255)
(-1023.1006 213.71258 -56.749808)
(-1191.9378 241.99328 -69.433248)
(-1358.6077 270.59406 -80.874313)
(-1527.3152 299.81698 -90.588457)
(-1700.9288 331.97265 -99.248542)
(-1883.4199 366.60004 -106.56041)
(-2078.0378 405.50025 -112.53655)
(-2287.2585 449.22871 -117.17992)
(-2512.6664 498.07944 -120.06699)
(-2754.0899 552.74469 -121.15164)
(-3010.4355 612.76371 -119.97385)
(-3278.6622 677.86847 -116.72773)
(-3554.8135 746.74007 -110.94996)
(-3833.3986 818.63495 -103.48509)
(-4108.9571 891.08088 -94.511652)
(-4340.6234 956.44587 -84.202587)
(0 0 0)
(0 0 0)
(0 0 0)
(0 0 0)
(0 0 0)
(0 0 0)
(0 0 0)
(0 0 0)
(0 0 0)
(-27.90205 24.47852 42.011862)
(-43.378429 36.908995 15.934242)
(-45.082881 30.862627 -14.740411)
(-103.41403 143.16535 42.489703)
(-116.09489 154.88576 12.969366)
(-121.03656 163.13529 -23.760492)
(-195.24912 188.43229 40.066433)
(-217.29556 196.68043 15.0965)
(-230.30546 224.66748 -15.611493)
(-311.80952 242.09107 28.304829)
(-338.38737 262.66449 10.057693)
(-350.20705 274.67473 -12.025223)
(-456.16901 291.98544 20.492354)
(-481.99338 309.42758 7.1937652)
(-502.12567 334.31432 -12.692774)
(-608.83519 330.57414 9.9650672)
(-640.49626 352.50459 -1.3895399)
(-663.40543 370.84538 -14.870283)
(-778.82245 371.04641 -1.4013715)
(-811.20356 393.61827 -6.978065)
(-839.47797 417.68275 -19.259617)
(-958.69136 408.46598 -11.646404)
(-992.37838 428.73762 -16.270404)
(-1024.6423 452.18146 -24.076176)
(-1146.9343 445.74253 -22.332253)
(-1184.3441 468.61198 -24.779271)
(-1219.8444 490.76222 -29.896388)
(-1345.5715 484.56654 -31.870788)
(-1386.2229 505.84294 -32.811056)
(-1426.4406 529.12513 -36.511034)
(-1553.3036 524.89214 -40.344147)
(-1597.803 546.62413 -40.717642)
(-1641.016 568.13969 -42.212914)
(-1771.0106 568.93249 -47.56161)
(-1818.4414 588.81094 -46.894416)
(-1866.039 610.10422 -47.568204)
(-1997.4149 615.38076 -52.499349)
(-2048.9985 634.46801 -51.759734)
(-2100.4714 654.92591 -51.576327)
(-2232.5922 665.79382 -55.529916)
(-2288.0454 683.7028 -54.656602)
(-2343.7125 702.98652 -53.727218)
(-2475.1535 719.51568 -56.190564)
(-2534.6848 736.34284 -55.220366)
(-2594.48 754.482 -54.099186)
(-2722.8461 776.21738 -54.421053)
(-2786.5258 791.92866 -53.59599)
(-2850.4653 808.71546 -52.35285)
(-2973.1978 835.1416 -50.402295)
(-3040.8055 849.95875 -49.75174)
(-3108.5037 865.49226 -48.536444)
(-3222.5433 895.26615 -44.259838)
(-3293.7395 909.31942 -43.733381)
(-3365.0948 923.65987 -42.784395)
(-3467.0489 955.72316 -36.240261)
(-3541.6373 969.05581 -35.982206)
(-3615.952 982.20363 -35.421083)
(-3703.2231 1015.0968 -26.80364)
(-3780.1812 1027.8261 -27.099533)
(-3857.0218 1040.2103 -26.897208)
(-3926.7652 1072.5785 -17.039811)
(-4005.8483 1084.6877 -17.418243)
(-4084.6477 1096.3706 -17.505711)
(-4135.9387 1127.1811 -6.8208517)
(-4216.1026 1139.2077 -7.6471305)
(-4295.9476 1150.0789 -8.397466)
(-4328.5687 1178.9149 2.164958)
(-4409.247 1190.0013 1.1477313)
(-4489.5805 1200.6887 -0.27198387)
(-4217.9375 524.03947 -219.4793)
(-4290.3104 532.85195 -220.84096)
(-4362.7391 542.19612 -222.65367)
(-4268.2692 734.53234 -146.41071)
(-4357.3763 746.35302 -148.44888)
(-4431.2968 755.3951 -150.11281)
(-4653.6437 1032.6816 -76.344903)
(-4756.8579 1047.5584 -78.321469)
(-4839.1463 1058.1495 -79.929023)
(-68.109523 -68.356102 -39.712468)
(-70.728993 -73.214963 -16.999988)
(-72.641597 -75.087457 11.077069)
(-121.60907 -147.08354 -54.556726)
(-134.64232 -146.14492 -24.624035)
(-135.18452 -145.04398 6.8176259)
(-229.9727 -217.29511 -72.133679)
(-240.86047 -209.76067 -48.037221)
(-247.55945 -209.71104 -16.454886)
(-355.38978 -266.10089 -89.310598)
(-375.40481 -258.97308 -67.472511)
(-386.01097 -255.79537 -43.632225)
(-515.7019 -305.61522 -112.21927)
(-540.11467 -296.59104 -93.128974)
(-554.70151 -288.35974 -73.060811)
(-696.24189 -331.72682 -134.14271)
(-721.69564 -318.55102 -120.42561)
(-744.94795 -311.84664 -103.3695)
(-895.03336 -344.8806 -159.8604)
(-926.84313 -332.4538 -147.39566)
(-952.83317 -321.69192 -134.49527)
(-1112.2304 -348.86197 -185.80975)
(-1147.2012 -334.27915 -176.6251)
(-1181.1037 -323.40498 -166.59601)
(-1345.073 -342.35597 -213.82775)
(-1379.6538 -325.67126 -205.59976)
(-1416.2114 -313.46756 -198.30191)
(-1578.6821 -324.15564 -239.76689)
(-1632.5052 -309.98026 -236.06224)
(-1669.6026 -296.13509 -229.5582)
(-1830.0802 -299.66377 -266.35377)
(-1879.1405 -284.39938 -262.39681)
(-1926.6317 -270.99562 -259.03235)
(-2080.2442 -267.08603 -290.59593)
(-2134.1132 -251.82703 -287.9724)
(-2186.7179 -238.01828 -285.84219)
(-2329.4008 -227.83174 -311.79326)
(-2387.6579 -213.13539 -309.96469)
(-2444.5672 -199.61591 -308.76883)
(-2573.2229 -183.57488 -329.15763)
(-2635.4752 -169.63431 -328.0234)
(-2696.5887 -156.53743 -327.44386)
(-2808.2777 -135.10664 -342.1889)
(-2874.1554 -121.98188 -341.36758)
(-2938.9255 -109.51994 -341.34882)
(-3031.3989 -83.760575 -350.41003)
(-3100.3661 -71.486521 -350.10497)
(-3168.325 -59.924728 -350.4746)
(-3240.8835 -30.496687 -354.18934)
(-3312.3279 -19.072326 -354.09914)
(-3382.8898 -8.2564458 -354.70235)
(-3435.3799 23.989159 -353.62939)
(-3508.6077 34.443234 -353.89511)
(-3581.3289 44.346766 -354.9254)
(-3615.4059 78.387095 -349.71196)
(-3690.2596 88.169322 -350.25881)
(-3764.4706 97.81168 -351.44162)
(-3782.4353 132.1694 -342.9507)
(-3857.9968 141.61949 -343.6165)
(-3933.1624 150.67862 -344.87502)
(-3939.8297 185.53229 -334.09501)
(-4014.8229 194.65515 -334.96321)
(-4090.7327 203.47581 -336.55589)
(-4089.8428 237.70357 -324.16729)
(-4165.1855 246.43146 -325.52063)
(-4240.9637 255.32874 -326.93676)
(-4237.9701 289.09657 -314.12406)
(-4312.753 297.84781 -315.69322)
(-4387.7396 307.11452 -317.06942)
(-4.1692266 -14.203677 24.34579)
(-77.630946 -59.596462 15.384993)
(-170.75601 -73.547496 -1.6194609)
(-309.13329 -97.767821 -17.456995)
(-472.44891 -112.2016 -41.528326)
(-665.81565 -119.84098 -65.227778)
(-889.43455 -119.51264 -94.234352)
(-1134.4219 -110.55115 -122.78178)
(-1400.6578 -91.499244 -151.91202)
(-1679.6077 -64.068923 -181.35452)
(-1964.2604 -29.306761 -207.06612)
(-2246.9001 12.122422 -230.16674)
(-2520.7085 57.492 -248.31669)
(-2779.1524 105.98071 -261.33171)
(-3018.4972 155.80644 -269.36159)
(-3235.6028 205.42767 -272.43966)
(-3429.8339 254.17199 -271.4932)
(-3602.2808 300.99435 -267.40569)
(-3755.9746 345.63368 -261.03298)
(-3895.0615 388.26525 -253.30803)
(-4026.0168 429.42354 -245.31898)
(-4154.8467 469.49864 -237.59108)
(-4267.739 507.36563 -229.16261)
(2.9155448 -8.7782472 -3.4880887)
(-82.799752 -9.5961296 -10.177483)
(-206.54227 1.1935614 -26.412358)
(-366.74743 1.9432429 -38.638944)
(-550.98039 18.945634 -55.059551)
(-760.59091 34.802555 -72.766298)
(-981.63724 59.123998 -89.590832)
(-1211.6069 85.310698 -106.51801)
(-1444.4452 117.42292 -123.35924)
(-1673.876 149.80884 -137.88788)
(-1896.9292 185.13061 -151.34242)
(-2111.5783 220.79991 -162.83323)
(-2316.2779 256.68523 -171.68979)
(-2512.9902 293.42204 -178.27338)
(-2703.1066 330.65438 -182.33772)
(-2889.5539 369.35048 -184.05803)
(-3075.745 409.88363 -183.76704)
(-3264.9121 452.73176 -181.89689)
(-3460.2677 498.67837 -178.45585)
(-3664.2366 547.79031 -174.40823)
(-3879.3108 600.76667 -169.48495)
(-4105.6138 656.88482 -164.32705)
(-4397.8694 726.36028 -160.67562)
(10.648422 27.11231 -34.586839)
(-118.82604 47.534419 -32.100366)
(-256.99411 116.39149 -41.597442)
(-425.41366 137.44553 -33.160039)
(-611.51224 188.08861 -42.057253)
(-799.46094 222.42797 -46.73354)
(-989.4626 254.1607 -53.140274)
(-1177.2976 288.33719 -63.287947)
(-1360.8633 314.36954 -71.388073)
(-1542.5764 343.50223 -80.952483)
(-1725.1725 370.10512 -90.037689)
(-1911.4053 398.71447 -98.243699)
(-2105.43 429.11739 -105.82272)
(-2310.4431 463.17188 -111.99964)
(-2528.4454 501.73707 -116.93376)
(-2761.316 545.48819 -120.07582)
(-3008.8566 594.9492 -121.45675)
(-3270.1109 650.3524 -120.65611)
(-3542.1369 711.26919 -117.75121)
(-3821.4584 777.23087 -112.83077)
(-4102.6963 847.10295 -105.99174)
(-4380.5325 919.52149 -97.881791)
(-4667.7498 997.02247 -89.728858)
(-16.142751 -16.775633 -23.414507)
(-19.186154 -19.555675 -12.792072)
(-24.453128 -15.839006 7.4100222)
(-79.824771 -76.544019 -30.022182)
(-94.209175 -73.591163 -13.064809)
(-90.915628 -69.641096 5.3579988)
(-168.63304 -108.60385 -43.492823)
(-180.97334 -101.07079 -29.720627)
(-186.42873 -92.266727 -13.729948)
(-287.17833 -141.03495 -59.238026)
(-308.20159 -132.99319 -45.098269)
(-316.5286 -120.57467 -29.075507)
(-440.05353 -163.97848 -75.679698)
(-464.04329 -151.43685 -64.610063)
(-478.30729 -137.34368 -52.141419)
(-620.51563 -177.32796 -97.897029)
(-648.4862 -164.52809 -88.058361)
(-666.31287 -147.51462 -75.717939)
(-827.99308 -182.16458 -120.26915)
(-860.31846 -167.17245 -112.0247)
(-886.02609 -148.39594 -103.46183)
(-1058.5279 -176.14218 -145.12117)
(-1095.5125 -158.91794 -138.6248)
(-1125.48 -138.48395 -130.54257)
(-1306.5185 -158.20503 -170.01018)
(-1347.4648 -141.26495 -165.17486)
(-1384.0135 -120.76077 -159.89684)
(-1564.9354 -131.44714 -194.32259)
(-1611.0399 -113.60553 -190.78375)
(-1653.1142 -91.39193 -186.42508)
(-1828.0413 -94.628712 -216.6656)
(-1877.9792 -76.660478 -214.70634)
(-1925.8155 -55.761896 -211.87708)
(-2086.9199 -50.378397 -235.88729)
(-2141.7521 -33.431809 -234.7765)
(-2194.4579 -12.144155 -232.83257)
(-2336.9361 -1.068809 -250.68663)
(-2395.6045 15.270239 -250.67288)
(-2452.6019 35.048211 -249.6793)
(-2572.0562 51.806999 -260.92251)
(-2634.2656 66.7873 -261.72504)
(-2695.0822 85.315994 -261.09316)
(-2789.5579 105.75583 -266.29415)
(-2854.8379 119.61561 -267.7648)
(-2918.6427 136.45298 -267.64146)
(-2987.8195 159.41327 -267.48904)
(-3055.4714 172.03511 -269.45492)
(-3121.7449 187.10517 -269.56573)
(-3167.0729 211.47036 -265.07315)
(-3236.6602 222.82539 -267.32232)
(-3304.8469 236.48119 -267.6222)
(-3329.5952 261.11658 -260.2024)
(-3400.3776 271.64007 -262.4546)
(-3469.986 283.81708 -263.05584)
(-3478.2724 307.92092 -253.47726)
(-3550.9577 317.70217 -255.89786)
(-3621.2521 329.04354 -256.35301)
(-3631.0072 353.70782 -246.94171)
(-3681.9899 361.01476 -247.42853)
(-3763.3179 372.28323 -248.84579)
(-3764.9693 396.34333 -239.02721)
(-3824.7052 403.90181 -239.83238)
(-3902.3922 414.3093 -241.30105)
(-3900.6216 437.57043 -231.5935)
(-3972.3345 446.34037 -233.25252)
(-4044.3812 455.9981 -234.19002)
(-4051.5691 479.63759 -224.86995)
(-4124.0617 488.3584 -226.45388)
(-4196.287 497.75479 -227.5406)
(-0.65112264 -9.2547945 -6.6832449)
(-8.8591781 -11.410729 -0.18461059)
(-16.409362 -7.7926033 -0.78986222)
(-80.054026 -23.872012 -7.6922047)
(-92.908601 -22.031192 -6.1933184)
(-93.095506 -11.183386 -5.8301302)
(-192.17824 -30.264953 -23.789427)
(-206.11496 -21.442916 -24.921746)
(-217.43515 -8.3228498 -22.485139)
(-332.51961 -30.574883 -35.279614)
(-357.00397 -20.07126 -34.833485)
(-368.62363 -0.64904655 -35.065422)
(-505.11752 -24.388877 -52.840946)
(-529.67882 -10.31883 -54.609266)
(-546.94923 8.0357613 -51.699219)
(-691.81397 -11.780772 -70.18278)
(-721.23787 3.1268464 -70.134832)
(-745.27264 25.943898 -70.042394)
(-893.27759 6.2114152 -87.36889)
(-926.9714 24.321088 -88.435638)
(-954.21819 47.389309 -86.107521)
(-1101.4765 31.777026 -106.10956)
(-1138.5208 49.38523 -106.34511)
(-1171.1508 71.815061 -105.07177)
(-1310.7056 59.385994 -122.43014)
(-1351.9906 78.145935 -122.53205)
(-1389.2238 102.06769 -120.30536)
(-1519.51 92.416491 -138.33013)
(-1564.26 111.05895 -138.6966)
(-1605.6173 133.70282 -136.46874)
(-1722.5861 127.6384 -152.22318)
(-1770.914 146.10673 -152.01202)
(-1815.9861 167.41782 -149.29921)
(-1920.9488 164.85923 -163.5121)
(-1972.3232 182.45608 -163.3176)
(-2021.3384 202.63346 -160.9623)
(-2113.5802 203.83773 -172.47421)
(-2167.7583 220.72046 -172.34303)
(-2219.8395 238.96973 -169.94087)
(-2302.1693 244.14551 -178.76295)
(-2358.8309 259.71773 -178.50696)
(-2414.3348 276.25051 -176.54605)
(-2488.9586 285.91857 -182.55248)
(-2548.0659 300.18216 -182.48554)
(-2606.4131 315.1609 -180.8876)
(-2676.3411 329.35334 -184.16524)
(-2737.6671 342.27244 -184.12525)
(-2799.0147 355.70333 -182.99167)
(-2867.395 374.6554 -183.73384)
(-2931.2121 386.33049 -183.83772)
(-2994.9588 398.71088 -183.12354)
(-3064.7186 422.30047 -181.72606)
(-3130.5834 433.05771 -181.95953)
(-3196.9377 444.26337 -181.79142)
(-3270.27 472.54816 -178.27067)
(-3338.6709 482.34228 -178.70813)
(-3407.424 493.01276 -178.78186)
(-3486.4578 525.57725 -174.13955)
(-3556.7599 534.99366 -174.24971)
(-3627.6287 545.16866 -175.21643)
(-3692.7415 578.17764 -167.39278)
(-3820.0182 596.63852 -171.71989)
(-3858.1771 600.64815 -170.50284)
(-3949.824 640.45859 -163.31499)
(-4024.1663 649.41498 -164.26752)
(-4098.4067 659.08898 -165.36291)
(-4196.5554 702.08715 -157.60437)
(-4272.5896 711.48735 -158.90229)
(-4349.0189 721.31103 -160.40671)
(-1.2440153 18.287916 16.768233)
(-5.6187485 19.238544 1.3657015)
(-8.8512209 17.819811 -13.377496)
(-109.35403 47.227226 17.99066)
(-125.92979 43.133217 -0.81062767)
(-128.93871 53.70726 -14.86426)
(-225.44577 82.028599 7.8557408)
(-247.84484 103.97027 -7.8846588)
(-260.95921 110.4944 -22.673384)
(-381.48784 119.42408 -3.2489521)
(-405.07131 128.48316 -15.236508)
(-421.5116 140.98702 -24.930518)
(-545.96945 148.1025 -18.206835)
(-575.52627 169.53452 -27.573912)
(-596.80855 180.78908 -34.137561)
(-720.63153 179.56458 -30.822219)
(-751.94259 199.60327 -37.243314)
(-777.02329 214.28331 -41.446721)
(-897.06518 209.97745 -45.976914)
(-931.2043 231.14152 -50.219988)
(-961.05388 244.12082 -52.625747)
(-1070.7831 236.86346 -58.717451)
(-1107.0931 258.58663 -60.504766)
(-1141.1828 274.40237 -61.590198)
(-1243.3406 265.17963 -70.81777)
(-1282.6729 286.11651 -72.00309)
(-1320.1109 301.52409 -72.590187)
(-1413.9259 292.68774 -82.195082)
(-1455.4394 313.63987 -82.334033)
(-1496.3227 328.51007 -81.535949)
(-1586.1401 321.11891 -91.768325)
(-1630.4445 340.54667 -91.427072)
(-1674.6212 355.82739 -90.679064)
(-1762.809 351.74363 -100.40511)
(-1809.7958 370.07557 -100.04421)
(-1857.1863 384.84949 -98.988704)
(-1947.2226 384.74782 -107.6962)
(-1997.3551 401.92913 -107.22881)
(-2047.8233 416.23943 -106.26325)
(-2142.8693 421.91372 -113.53995)
(-2196.2532 437.55062 -113.34443)
(-2250.1542 451.28797 -112.51391)
(-2351.8781 463.41665 -117.99746)
(-2408.8556 477.90935 -118.07865)
(-2466.1799 491.12959 -117.35767)
(-2575.9248 510.12635 -120.69101)
(-2636.7012 523.63674 -121.05139)
(-2697.6022 536.06789 -120.50853)
(-2815.171 562.50944 -121.46114)
(-2879.7576 574.95364 -122.16627)
(-2944.3496 586.76381 -121.81816)
(-3068.5219 620.24934 -120.13322)
(-3136.9675 632.09456 -121.12776)
(-3205.1995 643.17041 -121.00498)
(-3333.5118 683.16917 -116.61726)
(-3405.4352 694.22474 -117.857)
(-3477.5224 705.01388 -117.84005)
(-3606.3429 750.41241 -110.86399)
(-3682.0525 761.50538 -112.34978)
(-3756.9286 771.70187 -112.74027)
(-3882.4646 820.86357 -103.41585)
(-3960.3731 831.32747 -104.89904)
(-4038.5477 841.4826 -105.68187)
(-4156.1727 893.22511 -94.680244)
(-4236.4456 903.71374 -96.436957)
(-4316.9276 913.76427 -97.150975)
(-4421.8826 965.58914 -85.269141)
(-4504.0135 976.14409 -87.180877)
(-4585.3433 986.45329 -88.161227)
)
;

boundaryField
{
    free
    {
        type            zeroGradient;
    }
    fixed
    {
        type            fixedValue;
        value           uniform (0 0 0);
    }
    traction
    {
        type            zeroGradient;
    }
}


// ************************************************************************* //
