/*--------------------------------*- C++ -*----------------------------------*\
  =========                 |
  \\      /  F ield         | OpenFOAM: The Open Source CFD Toolbox
   \\    /   O peration     | Website:  https://openfoam.org
    \\  /    A nd           | Version:  6
     \\/     M anipulation  |
\*---------------------------------------------------------------------------*/
FoamFile
{
    version     2.0;
    format      ascii;
    class       pointVectorField;
    location    "1.05";
    object      u;
}
// * * * * * * * * * * * * * * * * * * * * * * * * * * * * * * * * * * * * * //

dimensions      [0 1 0 0 0 0 0];

internalField   nonuniform List<vector> 
625
(
(0 2.0701947e-19 0)
(0 1.8147132e-19 0)
(-0.71673033 -0.121652 0.090700958)
(-0.731062 0.044817483 0.06153469)
(0 2.6960185e-19 0)
(0 1.4191112e-18 0)
(-0.69909003 0.0301848 0.060984043)
(-0.68470747 -0.13629987 0.090078552)
(0 -3.1596573e-20 0)
(1.3780288e-19 -3.2009168e-19 0)
(0 6.5033464e-19 0)
(-0.72032366 -0.079897433 0.083488186)
(-0.72386608 -0.03827875 0.076183827)
(-0.72740345 0.0031454053 0.068801638)
(-0.0015869793 -0.0062002427 -0.0051127644)
(-0.0073927244 -0.012438244 -0.0041245161)
(-0.017402867 -0.018859107 -0.002187024)
(-0.030867464 -0.025298802 0.00013231441)
(-0.047502469 -0.031106798 0.0027175361)
(-0.067146455 -0.037360279 0.0057329311)
(-0.089560471 -0.042896484 0.0087583789)
(-0.11448707 -0.048728511 0.01216245)
(-0.14201264 -0.054168932 0.015764109)
(-0.17153682 -0.059634776 0.019715705)
(-0.20320241 -0.064915309 0.023802246)
(-0.2366879 -0.070142093 0.028193818)
(-0.27188938 -0.075208305 0.032823926)
(-0.30857561 -0.080168803 0.037665312)
(-0.34657208 -0.084986414 0.042723983)
(-0.38569069 -0.089665092 0.047945499)
(-0.42573907 -0.094169193 0.0532996)
(-0.46649729 -0.098575031 0.058766873)
(-0.5078312 -0.10271677 0.064240925)
(-0.54949299 -0.10680633 0.06975152)
(-0.59137874 -0.11064373 0.075181162)
(-0.63325708 -0.11445338 0.080490381)
(-0.67512589 -0.11807322 0.085691184)
(-0.00097113555 0.0065983527 0.0079826931)
(-0.0090711766 0.014258131 0.0054175164)
(-0.019973569 0.02236203 0.0053067931)
(-0.033605152 0.029279045 0.0048629417)
(-0.051174977 0.035868619 0.0046456905)
(-0.071822983 0.041829166 0.0049556792)
(-0.09497773 0.047092344 0.0056013214)
(-0.12096701 0.051546373 0.0064914829)
(-0.14937252 0.055556902 0.007868943)
(-0.17997529 0.058775643 0.0094923534)
(-0.21253937 0.061367416 0.011538328)
(-0.24703611 0.063356137 0.013862428)
(-0.28301587 0.064680162 0.0165809)
(-0.32050373 0.065371038 0.019556968)
(-0.3591445 0.065477708 0.02287111)
(-0.39883972 0.064964974 0.026419052)
(-0.43932859 0.063915921 0.030246679)
(-0.48046108 0.062312632 0.03425972)
(-0.52201521 0.060252111 0.038498342)
(-0.56387901 0.057745175 0.042851854)
(-0.60578266 0.054876631 0.04741085)
(-0.64774222 0.051720267 0.052000569)
(-0.68947881 0.048290948 0.05677112)
(0 1.8979e-19 0)
(-2.4646248e-18 -5.3030427e-19 0)
(0 1.331638e-18 0)
(-0.00078074758 0.0035759176 -0.0063950333)
(-0.0051982263 0.01486397 -0.0084186919)
(-0.01342639 0.018480543 -0.0075395304)
(-0.025407765 0.025737773 -0.0072961254)
(-0.041098899 0.031364171 -0.0068381479)
(-0.059288789 0.036071616 -0.0056118789)
(-0.080640402 0.04044229 -0.0044376722)
(-0.10485622 0.044335538 -0.0028417421)
(-0.13144929 0.047369698 -0.00090368646)
(-0.16020962 0.049748808 0.0014123434)
(-0.19133887 0.051712293 0.0039724489)
(-0.22406798 0.052770868 0.0069852418)
(-0.25879544 0.053544416 0.01023916)
(-0.29485172 0.053474165 0.013890995)
(-0.33235852 0.053037626 0.017800279)
(-0.37094684 0.051969344 0.022009227)
(-0.4104917 0.050458745 0.026452746)
(-0.45078904 0.048486312 0.031101134)
(-0.49164941 0.046110662 0.035924036)
(-0.53291048 0.043389089 0.040853398)
(-0.57440736 0.04037657 0.045871057)
(-0.6160042 0.037120935 0.050916308)
(-0.65759228 0.033696144 0.055962255)
(-0.69545075 -0.011463062 0.068261188)
(-0.69193466 -0.052901888 0.075460723)
(-0.68832105 -0.094619533 0.082755327)
(-0.64315362 -0.13277837 0.085121551)
(-0.60157669 -0.12920152 0.080055592)
(-0.56006212 -0.12547359 0.075046382)
(-0.51876654 -0.12148822 0.069999824)
(-0.47779058 -0.11727883 0.06503636)
(-0.43732909 -0.11279994 0.06010193)
(-0.39754747 -0.1080393 0.055285079)
(-0.35861967 -0.10304457 0.050594881)
(-0.32072423 -0.097772567 0.046060634)
(-0.2840674 -0.092315948 0.041719659)
(-0.24880313 -0.086617581 0.037568153)
(-0.21511234 -0.080807819 0.03368879)
(-0.18324921 -0.074777685 0.029972807)
(-0.15308233 -0.068727823 0.02662824)
(-0.12557441 -0.062292538 0.023247896)
(-0.099750712 -0.056045794 0.020516408)
(-0.076820571 -0.049480161 0.017816574)
(-0.056094763 -0.042884968 0.015498266)
(-0.038824376 -0.035859581 0.013279253)
(-0.024048326 -0.028848661 0.011442233)
(-0.012387485 -0.021915144 0.010112649)
(-0.0050590706 -0.013712268 0.008266145)
(-0.002797741 -0.0069327304 0.0053381736)
(0 -3.3782087e-19 0)
(0 -3.514477e-19 -7.24896e-19)
(0 -1.0359086e-18 0)
(0 5.9074179e-19 0)
(0 -6.5364445e-20 2.0841674e-19)
(0 4.4994317e-19 0)
(-0.72307648 0.041278613 0.061435394)
(-0.71511464 0.037613902 0.061296589)
(-0.70710954 0.033939911 0.061134667)
(-0.7087615 -0.12539368 0.090507306)
(-0.70076727 -0.12898563 0.090319352)
(-0.69274642 -0.13262385 0.090233407)
(-0.0043129098 -0.0033157294 -0.0031947312)
(-0.015329272 -0.00664197 -0.0015032742)
(-0.029373678 -0.010127051 -0.00049333089)
(-0.046305359 -0.013727086 0.0013006571)
(-0.065103579 -0.017133387 0.0032348177)
(-0.085835558 -0.020577962 0.0055448914)
(-0.10795436 -0.023525603 0.008059384)
(-0.13123178 -0.026484367 0.010867114)
(-0.15593337 -0.028962113 0.01394683)
(-0.18186643 -0.031439459 0.017296141)
(-0.20922213 -0.033626666 0.020848381)
(-0.23806665 -0.035798504 0.024690067)
(-0.26861087 -0.037950152 0.028748245)
(-0.30097056 -0.04024422 0.033040838)
(-0.33529311 -0.042729214 0.037560591)
(-0.37163648 -0.045508258 0.042261439)
(-0.41000204 -0.048648163 0.047159566)
(-0.45034446 -0.052178802 0.052199874)
(-0.49249584 -0.056081798 0.057330954)
(-0.53622407 -0.060411624 0.062610193)
(-0.58125699 -0.065000131 0.067826698)
(-0.62719503 -0.069892501 0.073117561)
(-0.67372485 -0.074850439 0.078308722)
(0.0014726629 0.0002262673 0.00070540093)
(-0.0053611599 0.0010327667 0.001243523)
(-0.015532897 0.001581854 0.0019158852)
(-0.029324449 0.0019496459 0.0026991968)
(-0.046642534 0.0023931492 0.0040544424)
(-0.066831844 0.0022858282 0.0055954221)
(-0.089850724 0.0021756272 0.0074227073)
(-0.11550906 0.0015339721 0.0096359623)
(-0.14363488 0.00086747707 0.012052488)
(-0.17386647 -0.00030488439 0.014816311)
(-0.20620344 -0.0015837002 0.017884387)
(-0.24030947 -0.003265366 0.021226365)
(-0.27608893 -0.0051498765 0.024861552)
(-0.31332159 -0.007313933 0.028753464)
(-0.35180574 -0.0097126623 0.032910392)
(-0.39135786 -0.012333252 0.037271825)
(-0.43177789 -0.015154356 0.041848507)
(-0.47287887 -0.018143303 0.046558693)
(-0.51444332 -0.021272191 0.051409682)
(-0.55635806 -0.024555145 0.056351446)
(-0.59834283 -0.027893718 0.061282056)
(-0.64039706 -0.031284005 0.066294458)
(-0.68230764 -0.034769079 0.071249588)
(0.0065967391 0.0037530819 0.0031629074)
(0.0036477731 0.0080677209 0.0033647551)
(-0.0024040085 0.012952406 0.0033385066)
(-0.013495554 0.017461007 0.0037177128)
(-0.028934026 0.021618314 0.0042903933)
(-0.048658567 0.024874944 0.0051126509)
(-0.072659758 0.027523712 0.0063901345)
(-0.10047437 0.029344672 0.0078643478)
(-0.13188141 0.030407455 0.0097578393)
(-0.16634778 0.03065145 0.01201428)
(-0.20361076 0.030300491 0.014562064)
(-0.24289445 0.029214389 0.017504913)
(-0.28390952 0.027721415 0.020730696)
(-0.3259326 0.025764175 0.024287231)
(-0.36858031 0.023543506 0.028101928)
(-0.41131562 0.021152619 0.032156549)
(-0.45377216 0.018666614 0.036417176)
(-0.49560311 0.016223206 0.040826782)
(-0.53659694 0.013789806 0.045380548)
(-0.57660041 0.0115317 0.049991767)
(-0.61557854 0.0093005912 0.054688724)
(-0.65364658 0.0072601683 0.059398124)
(-0.69084097 0.0051665701 0.064134826)
(0 -2.1231746e-19 0)
(0 3.536049e-19 7.4170105e-19)
(0 7.6874375e-19 0)
(-3.6623132e-19 7.31258e-21 0)
(1.5296645e-19 -2.2664953e-19 -1.1288717e-20)
(-9.6399365e-19 -8.6695492e-19 0)
(0 3.2707808e-19 0)
(0 8.7903052e-19 -2.3378342e-20)
(0 9.6615189e-19 0)
(-0.0036539974 0.0031374558 0.0028442295)
(-0.003861612 0.0036408713 -0.00049396362)
(-0.0027676317 0.0021468825 -0.0028337408)
(-0.011846382 0.015811825 0.0016255412)
(-0.010413329 0.014805438 -0.0014877713)
(-0.0088871796 0.013014998 -0.0051418841)
(-0.020474007 0.021508369 0.0016308522)
(-0.01943045 0.019813551 -0.0014157943)
(-0.017609812 0.019429311 -0.0049489024)
(-0.034152316 0.028819221 0.0012949796)
(-0.032708773 0.027794246 -0.0017469489)
(-0.029749596 0.025806237 -0.0047210796)
(-0.051149286 0.035306328 0.0014298259)
(-0.048719592 0.033436948 -0.0011857233)
(-0.045822065 0.031937262 -0.0042541207)
(-0.070702843 0.040763997 0.0019644223)
(-0.068097877 0.038821831 -0.0008669577)
(-0.064351626 0.036906427 -0.0033636256)
(-0.093410379 0.045723971 0.0027046156)
(-0.09030306 0.043848842 0.00042326316)
(-0.086248209 0.041536179 -0.0023274337)
(-0.11886396 0.050115688 0.0038536839)
(-0.11503241 0.047739387 0.001538681)
(-0.11056741 0.045479157 -0.00085247264)
(-0.14667384 0.053790506 0.0053430736)
(-0.14246598 0.05142222 0.003237043)
(-0.13758611 0.048882473 0.00094786777)
(-0.17660799 0.056773967 0.0071952199)
(-0.17199903 0.054169493 0.0051733609)
(-0.16662611 0.051472786 0.0031125776)
(-0.20880305 0.059270481 0.0093697105)
(-0.20368841 0.056491091 0.0075138961)
(-0.19797588 0.053610585 0.0055733801)
(-0.24259887 0.060945553 0.011893387)
(-0.237111 0.057954238 0.010176847)
(-0.23104427 0.054984368 0.0084075932)
(-0.27821309 0.062150161 0.014747801)
(-0.27234248 0.059072784 0.013168615)
(-0.26592083 0.055895432 0.011570511)
(-0.31515982 0.062646253 0.017921286)
(-0.30892212 0.059354566 0.016504179)
(-0.30223721 0.056123599 0.015053103)
(-0.35340403 0.06260794 0.021401839)
(-0.34685984 0.059243154 0.020113261)
(-0.33987159 0.055842196 0.018850475)
(-0.3926749 0.061965176 0.025136316)
(-0.38581631 0.058441365 0.024024626)
(-0.37862251 0.054999362 0.022916795)
(-0.43279533 0.060781472 0.029147721)
(-0.42568586 0.057204798 0.028178505)
(-0.41827223 0.053652148 0.02723723)
(-0.47358104 0.059095988 0.033341872)
(-0.46623336 0.055422568 0.032537839)
(-0.45865815 0.051831996 0.031757556)
(-0.51484722 0.056929729 0.037752548)
(-0.50729875 0.053226408 0.037097335)
(-0.49958273 0.049588775 0.036462472)
(-0.55641024 0.054362759 0.042275132)
(-0.5487034 0.050626533 0.041777606)
(-0.5408837 0.046962651 0.04128369)
(-0.59814237 0.051423248 0.046969887)
(-0.59032243 0.047690712 0.046593815)
(-0.58241307 0.044021118 0.046196047)
(-0.63991091 0.048224566 0.051718847)
(-0.63197764 0.04448598 0.051430174)
(-0.62400713 0.040812769 0.051158506)
(-0.68155452 0.044763124 0.056569554)
(-0.67358206 0.041067733 0.056352394)
(-0.66560333 0.037401542 0.056161892)
(-0.71236145 -0.083622912 0.08325812)
(-0.70438758 -0.087277242 0.083067833)
(-0.69636153 -0.090948019 0.082931062)
(-0.71588911 -0.0419548 0.075979853)
(-0.70792543 -0.045580115 0.075806311)
(-0.69997426 -0.04924022 0.075641035)
(-0.71938709 -0.00043045792 0.068675036)
(-0.71146358 -0.004066129 0.068558976)
(-0.7034329 -0.0077576121 0.068404372)
(-0.0046390396 -0.0057808652 -0.0022545064)
(-0.0046065509 -0.0062149534 -8.0229296e-05)
(-0.0049296323 -0.005644179 0.0022982137)
(-0.0098840141 -0.012901717 -0.0010881329)
(-0.009429033 -0.013375478 0.0020884689)
(-0.0084082724 -0.012818515 0.0052850284)
(-0.018980073 -0.020531786 0.00057166096)
(-0.018175805 -0.020381379 0.0032303291)
(-0.016853587 -0.020767011 0.0071237753)
(-0.031737275 -0.026507713 0.002815371)
(-0.030406434 -0.027436387 0.0054622322)
(-0.028426549 -0.027604529 0.0087798232)
(-0.047546022 -0.033296792 0.005060896)
(-0.045924015 -0.033953621 0.007779407)
(-0.043328058 -0.034660563 0.010639508)
(-0.066622489 -0.039327255 0.0079597847)
(-0.064174058 -0.040452014 0.01008349)
(-0.061279008 -0.041188051 0.013119939)
(-0.08840934 -0.045183337 0.010777248)
(-0.085655185 -0.046507169 0.012955045)
(-0.082167866 -0.047677743 0.015586481)
(-0.11278482 -0.051121368 0.014021097)
(-0.10937526 -0.05278245 0.016016065)
(-0.10552042 -0.054009044 0.018502563)
(-0.13938962 -0.056956169 0.017398475)
(-0.13578054 -0.058599542 0.019338769)
(-0.13132997 -0.060271396 0.021339407)
(-0.16853558 -0.062513004 0.021204299)
(-0.16422893 -0.064604942 0.02271917)
(-0.15952201 -0.066246216 0.024896256)
(-0.19965443 -0.067963305 0.025128667)
(-0.19495594 -0.070173032 0.026629471)
(-0.18980174 -0.072174339 0.028434908)
(-0.23258937 -0.073370257 0.02935585)
(-0.22746384 -0.075838759 0.030667845)
(-0.22195929 -0.077996107 0.03228678)
(-0.26726213 -0.078638778 0.03381677)
(-0.26172002 -0.081263447 0.034952899)
(-0.25586597 -0.083643762 0.036354273)
(-0.30342663 -0.08374732 0.038482451)
(-0.29753308 -0.086570549 0.039454783)
(-0.29134329 -0.089126566 0.040663667)
(-0.34095244 -0.088726737 0.043395093)
(-0.33467632 -0.091689743 0.04417657)
(-0.32818338 -0.094433195 0.045193108)
(-0.37960156 -0.093514211 0.048428774)
(-0.37301275 -0.09663143 0.049061221)
(-0.36624006 -0.099543231 0.049885647)
(-0.41922422 -0.098140735 0.053665824)
(-0.41233133 -0.10136541 0.054117565)
(-0.40529407 -0.10442726 0.054760811)
(-0.45960566 -0.10256759 0.058948962)
(-0.4524484 -0.1058897 0.05925878)
(-0.44519294 -0.10907785 0.059730407)
(-0.50059931 -0.10677945 0.064337215)
(-0.49321041 -0.11017989 0.064512066)
(-0.48571998 -0.11351012 0.06482349)
(-0.54198554 -0.11082318 0.069710199)
(-0.53437515 -0.11427601 0.069753146)
(-0.526757 -0.11768227 0.06991511)
(-0.58360646 -0.1146484 0.07507661)
(-0.57587334 -0.11816289 0.075028824)
(-0.56810102 -0.12165022 0.07507447)
(-0.62537027 -0.11833371 0.080318375)
(-0.61750477 -0.12185812 0.08022515)
(-0.60961785 -0.12541239 0.080170194)
(-0.66710374 -0.1218679 0.085542431)
(-0.65917485 -0.12547846 0.085407039)
(-0.65118851 -0.1290728 0.085265625)
(-0.0039034183 -0.0031581619 0.0037019293)
(-0.012642072 -0.010719496 0.0050925615)
(-0.023989292 -0.013838495 0.005684242)
(-0.039162374 -0.018751938 0.0073089377)
(-0.05595111 -0.023103803 0.0089356542)
(-0.074539153 -0.027313858 0.010736804)
(-0.094741888 -0.031206007 0.012859147)
(-0.11609478 -0.034923557 0.015200667)
(-0.13908251 -0.038289854 0.017841417)
(-0.1631344 -0.04153618 0.020603849)
(-0.1888005 -0.044492173 0.023796901)
(-0.21604472 -0.047424422 0.027107697)
(-0.24507248 -0.050258678 0.030734495)
(-0.27605471 -0.053195682 0.034597104)
(-0.30906063 -0.056255779 0.038728472)
(-0.34424235 -0.059501253 0.043066914)
(-0.3815543 -0.063028179 0.047636098)
(-0.42096902 -0.066825065 0.052378075)
(-0.46232446 -0.07092109 0.057278237)
(-0.50542316 -0.075294848 0.062282492)
(-0.5499165 -0.07990882 0.06738981)
(-0.5955286 -0.084711943 0.072532436)
(-0.64176185 -0.089621328 0.077657707)
(0.0032488149 -0.0010509465 -0.00013718723)
(-0.0015047226 -0.0017751176 0.00063844782)
(-0.0098382344 -0.0012145758 0.00098634857)
(-0.021902686 -0.0021502612 0.0023124502)
(-0.036856489 -0.0027598997 0.0035122708)
(-0.055158176 -0.0035573265 0.0050135823)
(-0.076236435 -0.0046635172 0.0067963385)
(-0.10000195 -0.0062143024 0.0090619376)
(-0.12633067 -0.0076502581 0.011300017)
(-0.15474036 -0.0097365163 0.014181674)
(-0.18551063 -0.011746473 0.017099363)
(-0.21800595 -0.014236077 0.020480455)
(-0.25239864 -0.016720528 0.024047487)
(-0.28824081 -0.019599296 0.027951436)
(-0.32549443 -0.022487024 0.032047326)
(-0.36390847 -0.025629107 0.036406529)
(-0.40331118 -0.028834558 0.04095447)
(-0.44350778 -0.03214502 0.045661852)
(-0.48432633 -0.035543687 0.050515962)
(-0.52557063 -0.038954846 0.055449075)
(-0.56708734 -0.042440855 0.060469859)
(-0.60875147 -0.045903347 0.065447188)
(-0.6503936 -0.049359002 0.070509649)
(0.0085531595 0.0034682514 -0.0029385795)
(0.0069914503 0.0065226328 -0.0033115476)
(0.0030968069 0.011781421 -0.0038515394)
(-0.0057324147 0.013985931 -0.002600191)
(-0.019165367 0.017841481 -0.0021175803)
(-0.036993059 0.020015786 -0.00075433766)
(-0.05898823 0.02184499 0.00085295476)
(-0.084830863 0.022706236 0.0026730475)
(-0.11449377 0.022963752 0.0049732625)
(-0.14722713 0.022318992 0.0075630207)
(-0.18282281 0.021139235 0.010487369)
(-0.22055551 0.0192774 0.013764178)
(-0.26009658 0.016951027 0.01734037)
(-0.30078035 0.014302922 0.021204473)
(-0.34216844 0.011377995 0.025342784)
(-0.3837886 0.0083833829 0.029704405)
(-0.42521926 0.0053783873 0.034258207)
(-0.46617206 0.0024747331 0.038957015)
(-0.50639393 -0.00028324137 0.043771494)
(-0.54576691 -0.0028289138 0.048655578)
(-0.58426009 -0.0052107917 0.053570205)
(-0.62193334 -0.0073764041 0.058495134)
(-0.6589504 -0.0094526911 0.063411606)
(-0.0060134382 -0.0022242972 -0.001244213)
(-0.0058513372 -0.0025232791 0.00014595563)
(-0.0062521836 -0.0025230826 0.0016355728)
(-0.017336082 -0.0077424753 6.4185141e-06)
(-0.017152399 -0.0081164129 0.0014477608)
(-0.015872621 -0.00854128 0.0035762484)
(-0.030844789 -0.011339697 0.0010955056)
(-0.029752642 -0.01183927 0.0027986399)
(-0.028287927 -0.012906258 0.0043274586)
(-0.046981405 -0.015482721 0.0027891371)
(-0.045730909 -0.016459133 0.0043080448)
(-0.04348055 -0.017254378 0.0058656492)
(-0.065301265 -0.019218843 0.0047167545)
(-0.063435389 -0.020201659 0.0060218772)
(-0.060814019 -0.021462162 0.007621786)
(-0.085224733 -0.022692877 0.0068725366)
(-0.082852254 -0.024155125 0.0081530045)
(-0.079652382 -0.025532714 0.0094961024)
(-0.10669262 -0.026045362 0.0092735535)
(-0.10386187 -0.027577907 0.010462052)
(-0.10019529 -0.029236843 0.011714287)
(-0.12935238 -0.029097577 0.01201337)
(-0.12597149 -0.030912046 0.013025629)
(-0.12187408 -0.032761392 0.014152451)
(-0.15346631 -0.031847891 0.014914941)
(-0.14964468 -0.033838647 0.015854128)
(-0.14509058 -0.035951731 0.016906728)
(-0.17880574 -0.034424579 0.018157742)
(-0.17446688 -0.036705866 0.018935809)
(-0.16952591 -0.038911466 0.019828541)
(-0.2055645 -0.036845241 0.021576856)
(-0.20080979 -0.039217495 0.022308496)
(-0.19543285 -0.041759022 0.02305826)
(-0.23384881 -0.039177999 0.025309447)
(-0.22866089 -0.041796555 0.025881755)
(-0.22292376 -0.044494967 0.026529504)
(-0.2638766 -0.041501854 0.029232868)
(-0.25827645 -0.044261581 0.029714365)
(-0.25218185 -0.047179789 0.030248031)
(-0.29572968 -0.043936781 0.033430661)
(-0.2897721 -0.046862933 0.033819155)
(-0.28335057 -0.04993644 0.034229231)
(-0.32959864 -0.046546146 0.037831851)
(-0.32326383 -0.049619836 0.038116206)
(-0.31654957 -0.052869745 0.038442779)
(-0.36548698 -0.0494308 0.042449202)
(-0.35884995 -0.052619413 0.042669844)
(-0.35186745 -0.05599751 0.04289007)
(-0.40347217 -0.05263844 0.047262164)
(-0.39653013 -0.055932971 0.047394343)
(-0.38931465 -0.059429599 0.047531583)
(-0.44343888 -0.056190163 0.052224723)
(-0.43625042 -0.059576426 0.052295081)
(-0.4288254 -0.063160331 0.052354167)
(-0.48528721 -0.060117986 0.057318266)
(-0.47786201 -0.063562832 0.057334395)
(-0.47025553 -0.067216798 0.057313001)
(-0.52874093 -0.064384881 0.06250764)
(-0.52113558 -0.067909584 0.062442031)
(-0.51340798 -0.071570596 0.062374025)
(-0.57353279 -0.068936574 0.0677288)
(-0.5657844 -0.072449512 0.067616138)
(-0.55794098 -0.076176266 0.067523726)
(-0.61935449 -0.073722519 0.072984336)
(-0.61149262 -0.077306536 0.072835679)
(-0.60355395 -0.081041207 0.072681255)
(-0.66576248 -0.078628338 0.078160318)
(-0.65782432 -0.082223588 0.077978893)
(-0.64980669 -0.085935103 0.077806673)
(0.00023277425 -0.0001612208 0.00043552382)
(0.00016239636 -0.00045188899 0.00027540917)
(0.00019125491 -0.00076675322 6.1245698e-05)
(-0.0069240109 0.00039510807 0.0011956995)
(-0.0065099086 -0.00041468907 0.00089824072)
(-0.0047854802 -0.00093828291 0.00087309372)
(-0.016586638 0.00048259912 0.001819546)
(-0.015537426 -2.8743167e-05 0.0012906767)
(-0.013810052 -0.001036453 0.0013219881)
(-0.029824914 0.00094379937 0.0027750495)
(-0.028732933 -7.4852358e-05 0.0023126791)
(-0.026055054 -0.0010141917 0.0023317304)
(-0.046421892 0.00079602481 0.0039836618)
(-0.04452396 -0.00021063982 0.0034552131)
(-0.041519533 -0.0017304949 0.0036747318)
(-0.065974383 0.00062162759 0.0055473279)
(-0.063659182 -0.0007702497 0.0051403227)
(-0.060099792 -0.0023297656 0.0051841393)
(-0.088414799 0.00017425032 0.0073539783)
(-0.085546116 -0.0013061209 0.0068789267)
(-0.081564334 -0.0031702542 0.0069209589)
(-0.11346476 -0.00059697585 0.0095337943)
(-0.11002114 -0.0024989993 0.0090907272)
(-0.10565243 -0.0044284167 0.0091890869)
(-0.14095804 -0.0015799043 0.011909695)
(-0.13712479 -0.0035089075 0.011486774)
(-0.13229405 -0.0057746527 0.011455172)
(-0.17065102 -0.0028742923 0.014651868)
(-0.16625379 -0.0051516133 0.014283634)
(-0.161054 -0.0075300752 0.014238536)
(-0.20243643 -0.0044228799 0.017690354)
(-0.19764203 -0.006818058 0.017285218)
(-0.19206175 -0.0094336161 0.017223101)
(-0.23605072 -0.0062214077 0.021002994)
(-0.2307807 -0.0089123287 0.020613709)
(-0.2248676 -0.011627178 0.020548902)
(-0.2713168 -0.0083018663 0.024625434)
(-0.26568471 -0.011079838 0.024270987)
(-0.25944042 -0.014016546 0.024153741)
(-0.30809612 -0.01058999 0.028494913)
(-0.30205996 -0.013603792 0.028135177)
(-0.29553008 -0.016658091 0.028008046)
(-0.34612137 -0.013126371 0.032650605)
(-0.33975229 -0.016228194 0.032313522)
(-0.33294357 -0.019443331 0.032156099)
(-0.3852646 -0.01584467 0.037001895)
(-0.37856846 -0.019090685 0.036674295)
(-0.37152665 -0.022414038 0.036494369)
(-0.42529748 -0.018739882 0.041586232)
(-0.41831957 -0.02207108 0.041270311)
(-0.41105308 -0.025515498 0.041072246)
(-0.46603395 -0.021792595 0.046299785)
(-0.45880612 -0.025206014 0.045990049)
(-0.4513499 -0.028722122 0.045789457)
(-0.50731509 -0.024955178 0.05116016)
(-0.49985775 -0.028435705 0.050883851)
(-0.49223867 -0.032018948 0.050660318)
(-0.54891057 -0.028261386 0.056123181)
(-0.54127067 -0.031762001 0.055793784)
(-0.53353598 -0.035385613 0.055610586)
(-0.59070384 -0.031511298 0.061065854)
(-0.58291633 -0.035262878 0.060834404)
(-0.57507168 -0.038765175 0.060654856)
(-0.63258634 -0.03501583 0.066067254)
(-0.6247041 -0.038566073 0.06582959)
(-0.6167605 -0.042248417 0.065625832)
(-0.67435419 -0.038408057 0.071079639)
(-0.66639789 -0.042036541 0.070868209)
(-0.65839873 -0.045701505 0.07071241)
(0.0047692638 0.0028884904 0.0011234164)
(0.0054598041 0.002340128 -0.00024000457)
(0.0059824069 0.0023139869 -0.0015922104)
(0.0014984949 0.0077802529 0.0015156464)
(0.0019992625 0.0064477838 -0.0004390803)
(0.0038212406 0.0064954736 -0.002059075)
(-0.0037491586 0.012689526 0.0014426103)
(-0.0026033541 0.01228361 -0.00025245245)
(-0.00071468828 0.011716693 -0.0021126093)
(-0.014358038 0.017160207 0.001892956)
(-0.012589794 0.015649995 8.5549498e-05)
(-0.010197166 0.014866248 -0.0014176555)
(-0.029011332 0.020753112 0.0024982489)
(-0.02680137 0.019530237 0.00096832474)
(-0.023916182 0.018498342 -0.00047676774)
(-0.048138355 0.023973572 0.0035036743)
(-0.045459931 0.022426055 0.0019646395)
(-0.042001362 0.021090094 0.00054698568)
(-0.071464219 0.026322213 0.004839117)
(-0.068225659 0.024475576 0.0033168511)
(-0.064349335 0.022935396 0.0021590537)
(-0.098641524 0.027858272 0.0064147766)
(-0.094892515 0.025915158 0.0051267918)
(-0.090649899 0.024210136 0.0038627251)
(-0.12941667 0.028690612 0.0083988752)
(-0.12530299 0.026572514 0.0071279286)
(-0.12046391 0.024530382 0.0060530799)
(-0.16335268 0.028730549 0.010752377)
(-0.1586588 0.026343238 0.0095931981)
(-0.15356351 0.02420834 0.0085760739)
(-0.19999098 0.028108153 0.013383311)
(-0.19499863 0.025587612 0.012320154)
(-0.18940217 0.023207769 0.011405736)
(-0.2387658 0.026828923 0.016431915)
(-0.23328798 0.024153922 0.015482621)
(-0.2274073 0.02161089 0.014610627)
(-0.27924197 0.025114953 0.019741348)
(-0.27343941 0.022247245 0.018868511)
(-0.26716391 0.01950072 0.018100655)
(-0.32078528 0.022961511 0.023394488)
(-0.31460037 0.019970429 0.022622661)
(-0.30806206 0.017076687 0.021912299)
(-0.36295816 0.020574172 0.027292887)
(-0.35647786 0.017426395 0.026605735)
(-0.34961437 0.014375249 0.025968584)
(-0.40526628 0.018017189 0.031440215)
(-0.39847025 0.014767588 0.030836182)
(-0.39138966 0.011568427 0.030263406)
(-0.44731208 0.015415589 0.035784698)
(-0.44027117 0.012049674 0.035255017)
(-0.43293635 0.0087317901 0.0347568)
(-0.48878552 0.012843213 0.04028082)
(-0.4814832 0.0093968281 0.039837847)
(-0.47399113 0.0059697863 0.039391949)
(-0.52944598 0.010348069 0.044917057)
(-0.52196449 0.0068397514 0.044524083)
(-0.51428716 0.0033298973 0.044147776)
(-0.56917081 0.0080004695 0.049608014)
(-0.56147897 0.0044318094 0.049299869)
(-0.55371923 0.0008405187 0.048982595)
(-0.60794505 0.0057464453 0.054372407)
(-0.60014515 0.0021587955 0.054094952)
(-0.59227128 -0.0014552792 0.053850894)
(-0.6457908 0.0036435976 0.059146405)
(-0.63790133 1.8320539e-05 0.058959228)
(-0.62993401 -0.0036157118 0.058732261)
(-0.68290962 0.0015954856 0.063953902)
(-0.67494879 -0.0020340384 0.063764108)
(-0.66696217 -0.0057341911 0.063571533)
)
;

boundaryField
{
    free
    {
        type            calculated;
    }
    fixed
    {
        type            calculated;
    }
    freeTop
    {
        type            calculated;
    }
}


// ************************************************************************* //
