/*--------------------------------*- C++ -*----------------------------------*\
  =========                 |
  \\      /  F ield         | OpenFOAM: The Open Source CFD Toolbox
   \\    /   O peration     | Website:  https://openfoam.org
    \\  /    A nd           | Version:  6
     \\/     M anipulation  |
\*---------------------------------------------------------------------------*/
FoamFile
{
    version     2.0;
    format      ascii;
    class       pointScalarField;
    location    "1.13";
    object      p;
}
// * * * * * * * * * * * * * * * * * * * * * * * * * * * * * * * * * * * * * //

dimensions      [1 -1 -2 0 0 0 0];

internalField   nonuniform List<scalar> 
625
(
1091663.8
-1496061.6
9468.4537
12151.455
1743278.8
-3332962.2
10740.991
3887.8759
797654.66
-23987.901
-97188.319
-9678.9891
6610.9149
9425.0068
458155.86
498415.95
484259.91
483928.51
422269.8
414413.53
372773.71
338392.97
321237.98
279670.39
256059.2
230006.63
202228.76
179152.43
155338.74
134754.34
112253.02
96151.392
76615.198
60806.857
46610.786
29772.333
20419.43
-538928.2
-338196.26
-472663.74
-368785.32
-344698.85
-348739.41
-299139.68
-282170.06
-263828.7
-237321.05
-218889.77
-194316.86
-178111.23
-154692.24
-136362.12
-117522.03
-98245.634
-81570.623
-63654.007
-49012.482
-33154.445
-19674.698
-5631.2369
1085889.2
-229643.43
-397618.85
-616713.28
-774231.23
-567085.79
-486179.09
-590999.34
-419096.2
-402907.11
-375504.63
-342297.56
-319048.33
-272855.63
-252100.47
-215898.07
-190099.6
-163689.39
-137065.61
-115345.07
-92915.488
-72638.372
-54434.841
-36624.845
-21838.026
-5174.8462
9614.3193
5083.526
-3184.027
26167.604
35133.329
48295.502
66398.715
86450.322
105856.89
127497.51
149487.09
172495.52
196970.92
219465.82
249352.89
269608.91
298987.86
311105.36
370622.42
380178.81
397730.69
480317
432898.54
557636.56
448027.23
506094.11
1133110.3
1067012.5
1077680.5
-1731625.9
-1788446.4
-1773791
18456.132
18173.974
21136.604
-1771.2776
3364.6011
21.6056
291932.51
308658.18
313290.63
274500.34
257166.88
253739.64
219497.39
213078.5
187654.22
169829.1
156321.99
137897.64
121361.8
106839.85
92759.171
78594.653
66920.953
55760.903
44130.296
37562.02
27415.948
17262.803
12668.381
-35107.902
-19568.786
-45317.618
-12235.789
-33071.469
-23048.891
-23277.632
-18657.746
-20975.971
-17465.083
-16967.738
-16094.009
-14686.28
-11683.822
-10988.236
-8610.0066
-6314.6619
-4519.9442
-2415.7092
-74.855101
606.41787
5395.9391
6917.3552
-332839.54
-272925.94
-256382.51
-215766.82
-256071.16
-195871.04
-198623.89
-180815.06
-163575.23
-149708.89
-135395.49
-122098.91
-107825.75
-95390.675
-83109.24
-70450.905
-59020.79
-47042.736
-36736.347
-25266.804
-16538.252
-8920.4954
636.78094
738858.72
639375.4
647421.36
-87838.171
-75289.327
-150500.15
-56607.693
-140262.88
-302153.3
-832772.63
-840855.38
-899402.84
-646974.97
-623623.28
-618772.14
-532143.38
-512987.69
-554450.9
-418721.86
-433386.15
-451388.76
-414752.8
-427331.92
-458258.93
-375082.51
-364124.28
-385221.33
-349632.12
-357262.06
-380626.13
-322923.69
-310985.6
-336203.09
-296598.05
-288354.46
-306364.9
-268156.58
-257623.79
-279896.8
-240537.24
-232643.42
-248948.23
-218541.61
-208396.32
-222724.95
-191962.21
-182904.2
-196509.28
-169226.89
-159983.25
-171217.92
-147121.2
-138106.46
-148852.06
-125360.97
-117313.97
-125372.23
-105232.73
-96915.304
-104527.54
-85381.911
-79036.142
-85104.884
-67247.871
-60972.039
-65545.607
-50101.36
-45337.73
-49211.245
-32462.576
-29394.12
-32101.262
-19672.643
-19613.535
-20404.91
-9568.2152
-5167.8076
-7800.4475
-13814.788
-15105.422
-16488.604
4644.677
4223.6642
5814.7338
13434.107
14590.691
13507.688
600242.23
533629.57
548446.55
545416.81
500696.53
544630.82
572524.71
491514.82
501056.92
484709.37
432070.49
471501.42
470532.02
440482.64
436455.67
440809.81
377514.07
402429.89
396656.66
362756.06
382258.46
375353.14
332163.73
339780.85
339017.22
303120.08
319463.64
304493.66
275811.73
293417.15
280916.06
248413.02
261067.2
249470.94
222360.79
238501.46
220604.87
199093.17
211619.96
195341.68
176330.98
187542.51
169590.4
154117.57
164435.39
145560.66
133085.69
141817.56
123279.42
113265.68
121107.05
102328.15
94387.491
100765.22
81168.181
76110.879
81276.833
64385.838
57959.235
64948.036
47911.866
42805.46
47942.976
32350.394
31840.865
33052.811
27223.033
27748.561
29661.02
242188.35
330302.06
246774.27
281623.35
250219.15
238373.69
233374.52
199582.19
196081.81
172605.46
162620.54
143362.05
128558.26
115931.03
100913.68
89184.218
75653.963
64228.901
52749.102
40945.646
30745.505
19871.793
7127.4799
-85725.877
-14136.185
-19026.269
16329.046
20228.75
21409.559
21701.24
30950.161
19665.639
29775.248
27134.638
27253.838
27069.443
25319.308
24932.958
23473.007
21472.914
20721.171
17490.827
15966.002
14803.055
11092.375
9095.2499
-225488.24
-221219.55
-300605.21
-273849.82
-257657
-268350.25
-224634.77
-216375.84
-184739.71
-170930.4
-152668.81
-133048.59
-118713.06
-101004.12
-87876.108
-73836.85
-61253.795
-49673.019
-39802.216
-28783.033
-20825.093
-10257.989
-7344.0258
369395.2
433201.96
346288.6
360913.44
361838.03
302985.36
253050.58
261909.58
288802.86
232536.29
299638.9
233592.5
268810.24
222841.75
231303.48
192086.74
231296.4
225776.97
199602.72
221340.11
193890.65
188029.49
188331.52
190143.31
158659.87
176409.43
179133.43
152737.27
168075.49
154349.18
134210.1
146991.06
146255.14
117424.94
134489.64
132450.34
108225.09
119072.78
119781.63
93753.807
105309.54
106904.58
81988.169
91352.219
94295.988
70294.939
79933.522
82048.032
60610.129
67232.749
70527.471
49812.648
56457.586
58457.805
40884.714
44875.569
48356.498
32337.761
38534.995
38591.288
22416.236
27324.453
26203.926
18055.434
17570.261
20877.518
6942.4101
4497.6837
5036.8245
-68324.712
-107903.79
-104018.98
-28741.784
-19632.275
-49587.832
6489.7066
-13425.765
-41802.983
10804.42
-18392.99
-59410.675
2424.9006
-2650.737
-8999.5549
4550.0179
14053.671
-31387.707
21403.818
6185.2316
-19994.003
-1518.6494
14272.738
-12898.057
14481.699
18230.684
-15192.198
11281.392
15387.8
-6937.4588
7603.7118
15766.08
-6863.933
10398.47
19467.993
-3132.9343
9803.7873
17538.92
-1584.7888
8895.5539
17047.74
774.09551
8065.2961
17589.102
3090.9528
8808.2921
16830.468
3724.1985
8214.4631
15368.115
5365.1428
7760.8938
15107.219
5267.53
8962.4308
12659.559
7703.0021
9579.035
12430.31
4878.9158
7657.9255
6444.2422
5732.1489
9000.6998
10811.29
7100.3893
10015.483
11228.25
11199.426
-332273.51
-392965.68
-463052.72
-233659.85
-203441.22
-318989.86
-222352.29
-343340.51
-332990.78
-296173.14
-257451.51
-298461.77
-218682.51
-264730.65
-275741.43
-208245.92
-251869.42
-261787.97
-207670.96
-225788.54
-236361.23
-176018.76
-211587.85
-227226.9
-161506.6
-193981.71
-199738.18
-151286.27
-176531.84
-180726.74
-133483.23
-156668.5
-162119.43
-118961.72
-139763.1
-142666.86
-105045.2
-126462.09
-126171.45
-92989.103
-109081.1
-108761.32
-79057.493
-95210.152
-93088.107
-67929.201
-80976.439
-79820.478
-56213.412
-68392.412
-65398.322
-46017.898
-54949.94
-53160.019
-35162.792
-44221.168
-41891.874
-26941.203
-32346.591
-30483.05
-17830.1
-23258.474
-20874.396
-7798.3532
-9686.4013
-5632.0721
-975.05044
-5785.2707
-5624.2808
)
;

boundaryField
{
    free
    {
        type            calculated;
    }
    fixed
    {
        type            calculated;
    }
    traction
    {
        type            calculated;
    }
}


// ************************************************************************* //
