/*--------------------------------*- C++ -*----------------------------------*\
  =========                 |
  \\      /  F ield         | OpenFOAM: The Open Source CFD Toolbox
   \\    /   O peration     | Website:  https://openfoam.org
    \\  /    A nd           | Version:  6
     \\/     M anipulation  |
\*---------------------------------------------------------------------------*/
FoamFile
{
    version     2.0;
    format      ascii;
    class       pointVectorField;
    location    "0.39";
    object      u;
}
// * * * * * * * * * * * * * * * * * * * * * * * * * * * * * * * * * * * * * //

dimensions      [0 1 0 0 0 0 0];

internalField   nonuniform List<vector> 
625
(
(0 7.6177439e-20 0)
(0 6.7392768e-20 0)
(1.8954677 -0.12497369 0.026736895)
(1.8134312 -0.52135289 0.016426931)
(0 9.9147191e-20 0)
(0 5.2701349e-19 0)
(1.820671 -0.53076839 0.016345842)
(1.9026572 -0.13438167 0.026737203)
(0 -1.1676908e-20 0)
(5.1559762e-20 -1.197642e-19 0)
(0 2.4243418e-19 0)
(1.8749708 -0.22409013 0.024170447)
(1.854408 -0.32311655 0.021589481)
(1.8339383 -0.42221058 0.018997921)
(0.0070033032 0.022036046 0.020479337)
(0.024417464 0.043697923 0.020188297)
(0.055167449 0.064716172 0.020930946)
(0.098424668 0.082506152 0.019395445)
(0.14998596 0.096364403 0.01892099)
(0.21228324 0.10718024 0.017693884)
(0.2812949 0.11394915 0.017084886)
(0.35739918 0.11685834 0.01623719)
(0.43937929 0.11648663 0.015962929)
(0.52562395 0.11233292 0.015318605)
(0.61607811 0.10540571 0.015234515)
(0.70929841 0.095431313 0.015225376)
(0.80493184 0.083076477 0.015471042)
(0.90207751 0.068621777 0.01590959)
(1.0004917 0.052437897 0.016522165)
(1.0995418 0.034924717 0.017314207)
(1.1991347 0.016362381 0.018156514)
(1.2987832 -0.0029998144 0.019216413)
(1.3986641 -0.022881713 0.020173972)
(1.4982203 -0.043007952 0.021421737)
(1.5978018 -0.063474437 0.022613816)
(1.6971487 -0.083942317 0.023938196)
(1.7963372 -0.10447858 0.025342057)
(-0.0023404849 -0.018115115 -0.026072845)
(0.015772167 -0.038873378 -0.020302082)
(0.04421875 -0.062915451 -0.022720471)
(0.080892175 -0.084658038 -0.019786495)
(0.12617954 -0.10541227 -0.018945313)
(0.18181626 -0.12915765 -0.016922618)
(0.24298717 -0.15020579 -0.015836059)
(0.31226273 -0.17299617 -0.013764445)
(0.38709795 -0.19576526 -0.012304571)
(0.46755081 -0.21821491 -0.010196018)
(0.55241241 -0.24129615 -0.0081835195)
(0.64111525 -0.26409925 -0.005935873)
(0.73290434 -0.28686598 -0.0036937369)
(0.82704656 -0.30945909 -0.0014059048)
(0.92308691 -0.33181051 0.00084593097)
(1.0204212 -0.35387733 0.0030057867)
(1.1187247 -0.37567682 0.005100616)
(1.2176223 -0.39709535 0.007009248)
(1.3168555 -0.41833391 0.0088808446)
(1.4162597 -0.43916334 0.010524547)
(1.5156871 -0.45991723 0.012151566)
(1.6150201 -0.480426 0.013625234)
(1.7143058 -0.50091083 0.015050012)
(0 6.9998999e-20 0)
(-9.1987675e-19 -1.979265e-19 0)
(0 4.9632213e-19 0)
(0.0040261826 -0.011657914 0.017643156)
(0.01886754 -0.047857967 0.020546176)
(0.049522883 -0.061437314 0.015789391)
(0.085355725 -0.085166912 0.0136524)
(0.13345175 -0.11052899 0.013329137)
(0.18881109 -0.13054362 0.0098476013)
(0.25034237 -0.15448293 0.0097813029)
(0.32011448 -0.17802902 0.0077904434)
(0.39549387 -0.20143902 0.0068282163)
(0.47582997 -0.22524233 0.0060252841)
(0.56066523 -0.24864381 0.0053397955)
(0.64918106 -0.27228668 0.0050909889)
(0.74067216 -0.29542102 0.0050340587)
(0.83464408 -0.31835595 0.0052484853)
(0.93048117 -0.34099072 0.0057141538)
(1.0277147 -0.36315237 0.0063732075)
(1.1259519 -0.3850388 0.0072207394)
(1.2248098 -0.4065082 0.0082475388)
(1.3240372 -0.42767866 0.0093915755)
(1.4234328 -0.44855681 0.01066409)
(1.5228446 -0.46925509 0.012006778)
(1.622222 -0.48980946 0.013435779)
(1.7214762 -0.51023364 0.014876136)
(1.8411471 -0.43158827 0.018924741)
(1.8616139 -0.33250374 0.02153783)
(1.8821487 -0.23349906 0.024142217)
(1.8035365 -0.11389075 0.025261756)
(1.7043052 -0.093333424 0.023786437)
(1.6049855 -0.072917176 0.022278481)
(1.5054504 -0.0525259 0.020659967)
(1.4057703 -0.03232826 0.018948182)
(1.3060059 -0.012517597 0.017107051)
(1.2062259 0.0068906718 0.015119254)
(1.1066488 0.025526841 0.013020747)
(1.0074762 0.043261934 0.01077716)
(0.90904281 0.059732689 0.0084532805)
(0.81173013 0.074610081 0.0060399511)
(0.7161207 0.087563923 0.0035917943)
(0.62265065 0.098229481 0.0011146423)
(0.5321939 0.10598506 -0.0012487893)
(0.44575011 0.1105086 -0.0035254474)
(0.36350601 0.11215525 -0.0059237089)
(0.28729274 0.11005101 -0.0080761318)
(0.21749343 0.10355358 -0.0098949628)
(0.15580958 0.094371194 -0.012398224)
(0.10174787 0.079818844 -0.01365128)
(0.059129021 0.064334419 -0.016461937)
(0.025900592 0.041765761 -0.017388018)
(0.013045031 0.021671325 -0.014027499)
(0 -1.2422543e-19 0)
(0 -1.2927004e-19 -2.6663238e-19)
(0 -3.8099008e-19 0)
(0 2.1938301e-19 0)
(0 -2.4274309e-20 7.7399455e-20)
(0 1.6709481e-19 0)
(1.815267 -0.52366339 0.016411912)
(1.8170712 -0.52602999 0.016422873)
(1.8188687 -0.52838432 0.016372734)
(1.8972601 -0.12729074 0.026744096)
(1.8990721 -0.12962435 0.026730258)
(1.9008584 -0.13199426 0.026753554)
(-0.0042236935 -0.012339516 0.012252709)
(0.0087500136 -0.022687041 0.0095142016)
(0.032677455 -0.030734628 0.010670803)
(0.068134396 -0.036964023 0.0099547017)
(0.11327716 -0.039130859 0.010114262)
(0.17049061 -0.038662799 0.009838655)
(0.23635165 -0.035165373 0.0095906281)
(0.31257681 -0.028792903 0.0095020346)
(0.39688542 -0.020575812 0.0093519216)
(0.48895042 -0.011548849 0.0094933618)
(0.58712555 -0.0023372749 0.0097323413)
(0.68966029 0.0055420339 0.010216569)
(0.79516572 0.011377389 0.010872152)
(0.90201762 0.013972084 0.011698052)
(1.0088977 0.012485755 0.012706927)
(1.1146094 0.0062117014 0.01378892)
(1.2183739 -0.0055049074 0.015005186)
(1.3195412 -0.022796098 0.016255078)
(1.4179583 -0.045722287 0.017545831)
(1.5133811 -0.074028568 0.01892944)
(1.6064084 -0.10698788 0.020201215)
(1.6971967 -0.14379489 0.021577733)
(1.7864728 -0.18325484 0.022870627)
(-0.0085208271 0.0030087442 0.0011984023)
(0.010786976 0.0043888419 -0.00039313419)
(0.039143903 0.0054052884 -0.0001288729)
(0.079710241 0.0043002919 0.00027505828)
(0.1302322 0.00016152191 0.00021964793)
(0.18905571 -0.0056746365 0.0003744224)
(0.25574095 -0.013685267 0.00061251927)
(0.32937476 -0.024153828 0.0011180922)
(0.40852635 -0.036450031 0.0017092214)
(0.49288186 -0.050620659 0.0024767495)
(0.58106954 -0.066247384 0.0034578807)
(0.67265967 -0.083249314 0.0046255485)
(0.76680281 -0.10126567 0.00590382)
(0.86291213 -0.12010529 0.0073204842)
(0.96043439 -0.1395624 0.008780225)
(1.0589481 -0.15944968 0.010272784)
(1.1581275 -0.17965803 0.011782955)
(1.2576004 -0.20002176 0.013245444)
(1.3573303 -0.22053529 0.014707236)
(1.4569061 -0.2410906 0.016120663)
(1.5565972 -0.2616402 0.017449776)
(1.6559726 -0.28214724 0.01887917)
(1.7553166 -0.30267939 0.020208615)
(-0.0075773807 0.013877262 -0.010634154)
(0.017810932 0.02617331 -0.011278047)
(0.050704812 0.033741706 -0.01097601)
(0.097339326 0.034278367 -0.010178666)
(0.15071278 0.028574691 -0.00951884)
(0.21171474 0.017705482 -0.0084111797)
(0.27806316 -0.0016043473 -0.0071968473)
(0.34822367 -0.026242391 -0.0059588297)
(0.42172638 -0.056818492 -0.0047024868)
(0.49785676 -0.092175774 -0.003214151)
(0.57623018 -0.13071974 -0.0017656995)
(0.65682321 -0.17136155 -0.00022150196)
(0.73967104 -0.21230189 0.0013187368)
(0.82507433 -0.25215828 0.0028965162)
(0.91324264 -0.28954089 0.0044991127)
(1.0045077 -0.32319198 0.0061138427)
(1.0989184 -0.3522748 0.0077651846)
(1.1966135 -0.37613727 0.0094138168)
(1.2973861 -0.39452578 0.011048399)
(1.4010023 -0.40769776 0.012729026)
(1.5070682 -0.41601061 0.014286273)
(1.6149663 -0.42042429 0.015928669)
(1.7241703 -0.42208279 0.01745855)
(0 -7.8558725e-20 0)
(0 1.30623e-19 2.7398721e-19)
(0 2.8406007e-19 0)
(-1.3691475e-19 2.7337916e-21 0)
(5.7186164e-20 -8.4732416e-20 -4.2202616e-21)
(-3.6038375e-19 -3.2410635e-19 0)
(0 1.2197447e-19 0)
(0 3.2780944e-19 -8.7182883e-21)
(0 3.6052891e-19 0)
(0.0076992889 -0.0077463843 -0.011398143)
(0.010652732 -0.010281826 -0.0025386577)
(0.0095808408 -0.0072370294 0.0058803413)
(0.027481966 -0.045104952 -0.011410205)
(0.028100238 -0.045680071 -0.0015662555)
(0.026857241 -0.044271025 0.010231179)
(0.052865485 -0.062847 -0.012870961)
(0.056072462 -0.061775389 -0.0033645805)
(0.056203498 -0.066034543 0.0078982653)
(0.088233322 -0.085811077 -0.011029021)
(0.092037531 -0.08813018 -0.0028642049)
(0.090708374 -0.086669934 0.00638465)
(0.13512794 -0.10917557 -0.011140714)
(0.13783892 -0.10968096 -0.0040750092)
(0.13805115 -0.1117555 0.005429547)
(0.18817188 -0.13074245 -0.010425843)
(0.19178031 -0.13237956 -0.0032659734)
(0.19185983 -0.13270443 0.0040936246)
(0.25001701 -0.15339949 -0.0094200121)
(0.25310556 -0.1551202 -0.0042346042)
(0.25390586 -0.15639936 0.0036762268)
(0.31853212 -0.17617063 -0.008582833)
(0.32151422 -0.1773965 -0.0036410176)
(0.3224642 -0.17888759 0.0026821663)
(0.39296164 -0.19850825 -0.0074525589)
(0.39575026 -0.2008138 -0.003294227)
(0.39689703 -0.2020739 0.0022931804)
(0.4727888 -0.22178235 -0.0062221907)
(0.4754558 -0.22372056 -0.0026503894)
(0.47701374 -0.22537782 0.0021122068)
(0.55704622 -0.24454163 -0.0047339831)
(0.55974704 -0.24672387 -0.0017684754)
(0.56117146 -0.24842462 0.0021453463)
(0.6452636 -0.26751906 -0.0030482313)
(0.64766856 -0.26967199 -0.00075815636)
(0.64931073 -0.27153448 0.0024979309)
(0.73642423 -0.29017646 -0.0013729689)
(0.7388275 -0.29237787 0.00045322332)
(0.74041475 -0.29442329 0.0030700119)
(0.83016385 -0.31274951 0.00044745695)
(0.83238896 -0.31489883 0.0018325741)
(0.83398852 -0.31702924 0.0038043243)
(0.92576198 -0.33495034 0.0022457613)
(0.92789742 -0.3371303 0.0032135672)
(0.92952809 -0.33942929 0.0046917513)
(1.022797 -0.35692285 0.0040127834)
(1.0248652 -0.35910866 0.0046916299)
(1.0264922 -0.36144527 0.0057291109)
(1.1208658 -0.37854432 0.0057557728)
(1.1228397 -0.38073985 0.006186647)
(1.1245093 -0.38313075 0.0068378207)
(1.2195789 -0.39984597 0.0074319754)
(1.221527 -0.40208196 0.0076588823)
(1.223219 -0.40450446 0.008058597)
(1.3187221 -0.42090092 0.0090458725)
(1.3206108 -0.4231705 0.0091580576)
(1.3223381 -0.42555502 0.0093401558)
(1.4180627 -0.44166046 0.010600384)
(1.4199251 -0.44394988 0.01063109)
(1.4216633 -0.44634616 0.01068602)
(1.5174389 -0.4622738 0.012110701)
(1.5192561 -0.46460801 0.012089848)
(1.5210479 -0.46696509 0.012062211)
(1.61679 -0.48276915 0.01355964)
(1.6186357 -0.48513723 0.013526668)
(1.6204184 -0.48749266 0.013489058)
(1.7161058 -0.50320032 0.014992182)
(1.7178867 -0.50555411 0.014942254)
(1.7196859 -0.50788106 0.01493096)
(1.876757 -0.22639891 0.024160025)
(1.8785623 -0.22874312 0.024155336)
(1.8803527 -0.23110944 0.024161709)
(1.8562005 -0.32542158 0.021586552)
(1.858034 -0.32777318 0.021563666)
(1.8597875 -0.33010647 0.021551147)
(1.8357848 -0.42456969 0.018980457)
(1.8375636 -0.42689855 0.018992364)
(1.8393577 -0.42925438 0.018939225)
(0.016539719 0.018247756 0.0098568597)
(0.017416239 0.019908819 0.0030723527)
(0.019054756 0.019324411 -0.0046177571)
(0.032492213 0.041530498 0.0096872176)
(0.034808542 0.041739539 0.00074161966)
(0.033306765 0.041176443 -0.0090124609)
(0.064879711 0.064242813 0.010830662)
(0.066225445 0.063554503 0.0029938039)
(0.066834473 0.064154978 -0.0082134351)
(0.10546976 0.080102235 0.010144825)
(0.10825183 0.079783526 0.0026771552)
(0.10770287 0.079606109 -0.0065922615)
(0.15809546 0.095306532 0.01094898)
(0.16085525 0.094675028 0.0030958448)
(0.16057466 0.094364379 -0.0051837207)
(0.21932199 0.10536881 0.010193179)
(0.22113798 0.10395602 0.0043433378)
(0.22211873 0.10383727 -0.0039479213)
(0.28776479 0.11176582 0.01051626)
(0.2905226 0.11100012 0.0044850664)
(0.29095269 0.11011454 -0.0025452226)
(0.36371387 0.11483775 0.010468031)
(0.36587993 0.11344248 0.0053015679)
(0.36667265 0.11266239 -0.0011877617)
(0.44457163 0.11430382 0.010980934)
(0.44724373 0.11258009 0.0056986521)
(0.44794692 0.11166139 0.00086843632)
(0.53090576 0.11015959 0.010950501)
(0.53292155 0.10832498 0.0075112997)
(0.53429847 0.10709196 0.0022273695)
(0.62061016 0.10292285 0.011570095)
(0.6228518 0.10107105 0.007917902)
(0.62392555 0.099679782 0.0041023923)
(0.71354336 0.093037448 0.01210681)
(0.71548683 0.090936086 0.0093471431)
(0.71693528 0.08937524 0.006052777)
(0.80860275 0.080621622 0.012964121)
(0.81065988 0.078435988 0.010569577)
(0.81207255 0.076674106 0.008010014)
(0.90549039 0.066184335 0.013832014)
(0.9074183 0.063895346 0.012034058)
(0.90891647 0.061959553 0.0099938063)
(1.0035059 0.050048503 0.014906961)
(1.0054114 0.047649273 0.013481711)
(1.0069669 0.045618426 0.011954878)
(1.1023132 0.032532329 0.016007447)
(1.104189 0.030120502 0.01500459)
(1.1057797 0.027982532 0.01387619)
(1.2016108 0.014047737 0.017234053)
(1.2034565 0.011560911 0.016513168)
(1.2050887 0.0093453574 0.015724974)
(1.3011182 -0.0053286018 0.018477729)
(1.3029523 -0.0077675478 0.018011877)
(1.3045917 -0.0099866847 0.017506281)
(1.4007078 -0.025097773 0.019764693)
(1.4024955 -0.027556158 0.019533603)
(1.4042181 -0.029888947 0.019197283)
(1.5001629 -0.04529144 0.021181174)
(1.5020506 -0.047757479 0.020964902)
(1.5037377 -0.05004352 0.020808118)
(1.5996822 -0.065758054 0.022475342)
(1.6014792 -0.068186865 0.022425359)
(1.603197 -0.070496158 0.022347101)
(1.6989375 -0.086226782 0.023869729)
(1.7007138 -0.088584515 0.023883227)
(1.7025057 -0.09091829 0.023827713)
(1.7981451 -0.10678464 0.02531432)
(1.7999468 -0.10913056 0.025315801)
(1.8017405 -0.11148664 0.025274028)
(-0.0024475052 -0.017224567 -0.0086912077)
(0.012077897 -0.019871388 -0.010097457)
(0.035159304 -0.034154592 -0.0082917281)
(0.072436791 -0.038918054 -0.0083197376)
(0.11882733 -0.04232741 -0.0076531644)
(0.17564237 -0.043112924 -0.0061257827)
(0.24281204 -0.039621406 -0.004954046)
(0.31873779 -0.034438009 -0.0034200749)
(0.40363336 -0.026832219 -0.0017854204)
(0.49570853 -0.018631865 0.00015086454)
(0.593815 -0.010028023 0.0019848414)
(0.6964531 -0.0028579339 0.0041234434)
(0.80192442 0.0024867544 0.0061967081)
(0.90876596 0.0047179984 0.0082512301)
(1.0156438 0.0029840857 0.010251499)
(1.1213916 -0.0034502413 0.012140807)
(1.2251787 -0.015171889 0.013924805)
(1.3264353 -0.032476187 0.015585741)
(1.4248621 -0.05537058 0.017159103)
(1.5204671 -0.083595567 0.018616661)
(1.6135118 -0.1165047 0.020054066)
(1.7043185 -0.15320797 0.021414473)
(1.7936818 -0.19268537 0.02277907)
(-0.0057283023 0.0036584638 -1.6957618e-05)
(0.012546876 0.0057670378 -0.00032888416)
(0.043198877 0.0033015818 0.0014607166)
(0.084372602 0.0030901177 0.00071297355)
(0.13466191 -0.0012365091 0.0012713951)
(0.19464343 -0.0082403029 0.0020168943)
(0.26143533 -0.016351648 0.0019707395)
(0.33549654 -0.027578797 0.0024020271)
(0.41527709 -0.040836046 0.0028557897)
(0.49979111 -0.055836908 0.003264847)
(0.58843167 -0.072463925 0.0038315522)
(0.68027333 -0.090518465 0.0046632158)
(0.77445789 -0.10928368 0.0055625008)
(0.8706382 -0.12880594 0.0067343815)
(0.96812164 -0.14866701 0.0080089417)
(1.0665692 -0.16884904 0.0094301707)
(1.1656728 -0.18915055 0.010915287)
(1.2651041 -0.20957368 0.012449017)
(1.3647167 -0.23003738 0.01399186)
(1.4643122 -0.25051576 0.015536944)
(1.563853 -0.27103603 0.017062391)
(1.6631881 -0.29150175 0.018565024)
(1.7625867 -0.31203779 0.020044494)
(-0.0067587135 0.014356861 0.009507036)
(0.022725805 0.030254263 0.0086596989)
(0.057696906 0.029062559 0.010336479)
(0.10344469 0.034890783 0.0065742022)
(0.15866798 0.025971553 0.0068345208)
(0.22015468 0.01346367 0.0053963637)
(0.28616119 -0.0053730284 0.0043789279)
(0.35711785 -0.03207417 0.0042020645)
(0.4303625 -0.063029578 0.0037400691)
(0.50655282 -0.099311376 0.0037989521)
(0.58460364 -0.13848262 0.0041334296)
(0.66491258 -0.17951204 0.0046123376)
(0.74749624 -0.22082088 0.0053680969)
(0.83266733 -0.26086228 0.0061760536)
(0.92069149 -0.29842405 0.0071278718)
(1.0118217 -0.33224484 0.0081350477)
(1.106219 -0.36143715 0.0092299118)
(1.2038494 -0.3854072 0.010385084)
(1.3046294 -0.40391148 0.011639125)
(1.4082218 -0.41708809 0.012951525)
(1.5142547 -0.425436 0.014369897)
(1.622175 -0.42988159 0.015823956)
(1.7313555 -0.43145104 0.017381213)
(0.0012591155 -0.017984392 0.0055807205)
(0.0017514584 -0.017364644 0.0018910099)
(0.0034912244 -0.017788399 -0.0029465117)
(0.01693644 -0.022857382 0.0043151965)
(0.02004544 -0.02295833 -0.0001144655)
(0.01804096 -0.022902327 -0.0061845371)
(0.041319789 -0.033037225 0.0052165796)
(0.042498054 -0.033729215 0.00067799643)
(0.042528444 -0.033095381 -0.0041821658)
(0.075795094 -0.037973971 0.0051153153)
(0.079255284 -0.038410512 0.00038870512)
(0.078415118 -0.03911942 -0.0043737057)
(0.12168424 -0.04095552 0.0048857036)
(0.12441331 -0.042153805 0.001211684)
(0.12429609 -0.042170796 -0.003797103)
(0.17764831 -0.04083804 0.005403325)
(0.1806484 -0.041681908 0.0014119553)
(0.18042965 -0.042179949 -0.002946491)
(0.24339737 -0.037284239 0.00541307)
(0.24635578 -0.038368251 0.0018062977)
(0.24677009 -0.039214027 -0.0018373346)
(0.31892049 -0.030943921 0.0056291888)
(0.32186175 -0.032706865 0.0026006138)
(0.32218785 -0.033516248 -0.00081933743)
(0.40290479 -0.023323443 0.0060135455)
(0.40550682 -0.024647248 0.0034315241)
(0.40623238 -0.025745801 0.00042513716)
(0.49428293 -0.014032863 0.0065904847)
(0.49690803 -0.015566339 0.0042531505)
(0.49778654 -0.017336475 0.001928207)
(0.59184651 -0.004971874 0.007280617)
(0.59418115 -0.0068995862 0.0053815601)
(0.59523058 -0.0084963408 0.0035960266)
(0.69378342 0.0029352283 0.0081902514)
(0.69608403 0.0010495398 0.0067652738)
(0.69732825 -0.00093007027 0.005271273)
(0.79882814 0.0088018707 0.009274916)
(0.80095213 0.0067143141 0.0081082848)
(0.80230171 0.0045601836 0.0071479308)
(0.9052188 0.011404852 0.010455753)
(0.90725336 0.0092639945 0.0097036852)
(0.90868139 0.0069348903 0.0089726088)
(1.0117137 0.0099693574 0.011798682)
(1.013644 0.0077289074 0.011254775)
(1.0151643 0.0053328813 0.010801562)
(1.1171221 0.0036992905 0.013155266)
(1.1190102 0.0014316913 0.012863346)
(1.1205668 -0.0010335036 0.012556611)
(1.2206186 -0.0079506399 0.014589196)
(1.2224608 -0.010242609 0.014416404)
(1.2240748 -0.012726269 0.014244874)
(1.3216258 -0.025217781 0.015984908)
(1.323459 -0.027548505 0.015946997)
(1.3250652 -0.029998656 0.015828501)
(1.4198481 -0.048114106 0.017420342)
(1.421632 -0.050427821 0.01741669)
(1.4233478 -0.052931375 0.017339992)
(1.5151973 -0.076408392 0.018816836)
(1.5171323 -0.078781197 0.018828025)
(1.5187759 -0.081148568 0.018748061)
(1.6081977 -0.10938752 0.020158518)
(1.610082 -0.11166312 0.020183548)
(1.6117283 -0.11407267 0.020143448)
(1.6989678 -0.14613582 0.021568576)
(1.7007476 -0.14842578 0.021551349)
(1.7025046 -0.15085103 0.021468855)
(1.7882774 -0.18558631 0.02285908)
(1.7900916 -0.18791454 0.0228359)
(1.7918744 -0.19029257 0.022796752)
(-0.0020838799 0.0019395854 -6.6825133e-05)
(-0.00017271449 0.0029436836 -0.00066436849)
(0.0013710864 0.0028912443 -0.00056114634)
(0.018081376 0.003986489 -0.002054267)
(0.020021441 0.0048909363 -0.0019740156)
(0.018263767 0.0042384052 -0.0013938067)
(0.047842863 0.004378679 -0.0011886698)
(0.049431101 0.004172198 0.00026324074)
(0.049889648 0.0037054156 -6.3881864e-05)
(0.087160515 0.002182633 -0.0014267784)
(0.090538733 0.0019992086 -0.00076332041)
(0.089813498 0.00039335702 -0.00032830502)
(0.13780873 -0.0013017379 -0.0009522752)
(0.14021167 -0.0019132878 0.0004524269)
(0.13982749 -0.0024602134 -0.00012845583)
(0.19584374 -0.0075782733 -0.0006490454)
(0.19855269 -0.0082710068 -5.770753e-05)
(0.19884805 -0.0095951902 0.00054522895)
(0.26219369 -0.015505008 -0.00057964276)
(0.26492714 -0.016666999 0.00074996594)
(0.26500791 -0.018267323 0.00072030648)
(0.33525163 -0.026349298 0.00029698357)
(0.33779601 -0.027530608 0.0012097886)
(0.33816825 -0.028690403 0.0011825611)
(0.41381286 -0.038459282 0.00087038145)
(0.4165389 -0.039929427 0.0015527158)
(0.41708455 -0.041804491 0.0017667288)
(0.49776815 -0.05272972 0.0017203246)
(0.50030346 -0.054687709 0.00259646)
(0.50099684 -0.056309438 0.0025705009)
(0.58549091 -0.068621185 0.0028023387)
(0.58806677 -0.070651922 0.0035506983)
(0.58880141 -0.072563983 0.0031970636)
(0.67666698 -0.085680969 0.0040450261)
(0.67914228 -0.087970019 0.0046401954)
(0.68006464 -0.089864359 0.004282155)
(0.77040642 -0.10378296 0.0053986462)
(0.77283308 -0.10625388 0.0059137042)
(0.77376926 -0.10830067 0.0053808326)
(0.866111 -0.12268387 0.0068743361)
(0.86840935 -0.1253198 0.0072687892)
(0.86950798 -0.12729157 0.0066731673)
(0.96332614 -0.14214163 0.0084115488)
(0.96551933 -0.14479309 0.0086773007)
(0.96673399 -0.1468721 0.0080546653)
(1.0615492 -0.1620107 0.0099496704)
(1.0636113 -0.16470386 0.010136523)
(1.0649839 -0.16677189 0.0095313791)
(1.1604899 -0.18217204 0.011522313)
(1.1624734 -0.18479018 0.011597782)
(1.1639359 -0.18695847 0.011037739)
(1.259824 -0.20246309 0.013039598)
(1.2616682 -0.20509921 0.013054763)
(1.2633002 -0.20724871 0.012580369)
(1.3593464 -0.2229746 0.014547455)
(1.3612 -0.2254425 0.014495538)
(1.3628772 -0.22770396 0.01411638)
(1.4589359 -0.24337169 0.01600423)
(1.4606902 -0.24594627 0.015914428)
(1.4624462 -0.24814316 0.015618624)
(1.5585233 -0.26396379 0.017378032)
(1.560154 -0.26634404 0.017252437)
(1.5620531 -0.26864754 0.017161437)
(1.657786 -0.28446802 0.018815479)
(1.6595919 -0.28679744 0.018726191)
(1.6613785 -0.28916585 0.018613134)
(1.7571652 -0.30495143 0.020171331)
(1.7589584 -0.30730616 0.020117098)
(1.7607665 -0.30965131 0.020085002)
(5.6166222e-05 0.016279848 -0.0052921993)
(0.00013434196 0.016887409 -0.0005624745)
(0.00012384558 0.0173324 0.0040416811)
(0.028331744 0.026590138 -0.006774915)
(0.03087492 0.029564084 -0.00054905389)
(0.028859132 0.027876219 0.0041392273)
(0.060356124 0.031800515 -0.0064138796)
(0.063262802 0.028552715 -0.00057606749)
(0.063276901 0.029024384 0.0047719312)
(0.10661324 0.031165507 -0.0062088618)
(0.10907945 0.032060724 -0.0010552912)
(0.10884897 0.031448829 0.0030906165)
(0.15912548 0.026684075 -0.0054124175)
(0.16224249 0.02443856 -0.00083294789)
(0.16239289 0.024772369 0.0029699869)
(0.21961074 0.014233336 -0.005220137)
(0.22252621 0.012484435 -0.0010861926)
(0.22273911 0.012166384 0.0021536847)
(0.2851008 -0.0047718099 -0.0041647904)
(0.28788243 -0.0065796841 -0.00045122359)
(0.28862367 -0.0065769704 0.002145966)
(0.35470697 -0.029436114 -0.0033538829)
(0.3574635 -0.031826336 -0.00066465905)
(0.35836815 -0.032334825 0.0018806262)
(0.42766466 -0.060333454 -0.0025597696)
(0.43018906 -0.062650363 0.00011342214)
(0.43153064 -0.063256683 0.0021896945)
(0.50314619 -0.095664194 -0.0013414493)
(0.50565577 -0.098085598 0.00070971499)
(0.5070535 -0.099005902 0.0022556976)
(0.58093663 -0.13419198 -0.00024875146)
(0.58322623 -0.13675835 0.0013662561)
(0.58497601 -0.13790622 0.0027657123)
(0.66101589 -0.17477126 0.00097694231)
(0.66318061 -0.1772459 0.0023152867)
(0.66499593 -0.17864683 0.0033806736)
(0.74337761 -0.21559542 0.0022609357)
(0.74538083 -0.21808649 0.0032930703)
(0.74736544 -0.21976912 0.0041400326)
(0.82835931 -0.25538516 0.0036091344)
(0.83028551 -0.25775443 0.0043979856)
(0.83228661 -0.2596225 0.0050993758)
(0.91618959 -0.29262364 0.0050156931)
(0.91803082 -0.29491995 0.0056207103)
(0.92007769 -0.29700221 0.0061559117)
(1.007127 -0.32618111 0.006476622)
(1.008948 -0.32843015 0.0069255896)
(1.010953 -0.33065239 0.0073178867)
(1.1013254 -0.35514905 0.0080044014)
(1.1031108 -0.35735584 0.0082961662)
(1.1051006 -0.35967679 0.0085889776)
(1.1987989 -0.37888035 0.0095377025)
(1.2006001 -0.38111033 0.0097468776)
(1.2025465 -0.38347376 0.0099316397)
(1.2994459 -0.3972057 0.011120129)
(1.3012388 -0.39943142 0.011245311)
(1.3031314 -0.40182599 0.011314977)
(1.4029485 -0.41024747 0.012727492)
(1.4047555 -0.41250874 0.012739829)
(1.4066109 -0.41488636 0.012797744)
(1.5089127 -0.41846988 0.014262174)
(1.5107209 -0.42074512 0.014318299)
(1.5125432 -0.42311111 0.014293789)
(1.6167949 -0.42284045 0.015896374)
(1.6186187 -0.42517153 0.015894136)
(1.620432 -0.42752977 0.015849346)
(1.7259905 -0.4244112 0.017437137)
(1.72778 -0.42674098 0.017405509)
(1.7295684 -0.42913134 0.01737038)
)
;

boundaryField
{
    free
    {
        type            calculated;
    }
    fixed
    {
        type            calculated;
    }
    freeTop
    {
        type            calculated;
    }
}


// ************************************************************************* //
