/*--------------------------------*- C++ -*----------------------------------*\
  =========                 |
  \\      /  F ield         | OpenFOAM: The Open Source CFD Toolbox
   \\    /   O peration     | Website:  https://openfoam.org
    \\  /    A nd           | Version:  6
     \\/     M anipulation  |
\*---------------------------------------------------------------------------*/
FoamFile
{
    version     2.0;
    format      ascii;
    class       pointVectorField;
    location    "0.38";
    object      lm;
}
// * * * * * * * * * * * * * * * * * * * * * * * * * * * * * * * * * * * * * //

dimensions      [1 -2 -1 0 0 0 0];

internalField   nonuniform List<vector> 
3969
(
(-4.0340813e-15 -4.7705825e-17 1.3312818e-16)
(9.2297575e-16 -2.6090405e-16 -6.0252577e-16)
(1514.9594 -311.0222 -28.115497)
(1545.1112 -351.67725 73.17131)
(-7.1783695e-15 2.6020842e-15 -1.0366567e-15)
(-4.622429e-15 2.1493156e-15 -1.5432914e-15)
(1505.0821 -420.7854 26.902423)
(1478.0333 -317.09463 7.6868206)
(-6.09887e-15 1.0869625e-16 -2.0095736e-16)
(-3.193382e-15 6.5333688e-16 6.3735029e-17)
(-2.9260211e-15 2.9260844e-16 -4.8432863e-17)
(-1.7497804e-15 -1.5755452e-16 -2.074758e-16)
(-4.3254872e-15 8.6218995e-16 7.3228779e-16)
(-2.4697388e-15 -4.9707839e-16 4.8086129e-16)
(5.2680668e-16 -4.7467027e-16 -5.3018058e-16)
(1440.0881 -308.38688 -20.702819)
(1376.9445 -299.91191 -11.596609)
(1390.2718 -299.13154 2.9568912)
(1469.3389 -309.29484 21.730939)
(1566.7929 -324.7905 42.188782)
(1623.4503 -339.30235 59.207495)
(1607.252 -347.55041 68.288774)
(32.897565 35.774061 28.833027)
(62.903007 64.476988 25.776126)
(104.58456 92.469257 19.608182)
(159.54275 115.71512 7.9634495)
(221.90218 134.55078 -3.0051056)
(292.58266 145.85955 -15.635259)
(364.93308 150.93141 -24.544723)
(438.33406 148.92665 -32.42576)
(506.89063 141.7444 -34.282736)
(571.15035 130.82004 -33.553489)
(629.69506 117.8628 -28.176513)
(683.63534 103.67428 -20.685314)
(735.6273 89.44476 -11.888333)
(788.14532 74.23105 -5.0369501)
(843.21787 57.370155 -1.0712958)
(902.02973 37.59623 -1.5712255)
(963.75287 13.620158 -6.0232376)
(1025.4076 -15.321743 -13.405639)
(1083.7063 -48.927815 -21.741196)
(1134.1561 -86.026606 -28.702405)
(1173.3287 -124.42487 -32.123948)
(1199.0233 -161.53168 -30.698627)
(1211.2721 -194.68443 -24.224668)
(1212.0977 -221.82256 -13.627358)
(1205.2287 -242.09959 -0.9019877)
(1195.1639 -256.03349 11.514483)
(1186.4617 -264.56771 21.283933)
(1181.9294 -269.46525 26.956462)
(1183.3142 -272.51881 28.166718)
(1190.3494 -275.20199 25.809028)
(1200.995 -277.9494 21.683111)
(1212.6135 -280.56602 18.112509)
(1222.8502 -282.32984 16.970493)
(1230.1497 -282.37171 19.416151)
(1234.5019 -280.01164 24.894823)
(1237.9319 -275.10921 32.613193)
(1242.5632 -268.09333 39.435369)
(1251.9594 -260.07512 43.496514)
(1268.5392 -253.10434 42.803179)
(1293.5361 -248.05331 35.94281)
(1325.4845 -246.78276 23.994694)
(1362.7621 -250.17093 8.5893294)
(1399.5844 -256.43512 -7.3451466)
(1432.3484 -267.77287 -20.429808)
(1456.6708 -277.93518 -27.865483)
(1468.4346 -287.56811 -29.793201)
(1472.8902 -298.11179 -25.447586)
(19.287399 -50.241408 -59.086506)
(41.154472 -80.459636 -68.432536)
(75.501173 -107.73987 -74.088107)
(123.41027 -138.9225 -66.53068)
(180.79386 -163.06392 -57.184222)
(243.83764 -184.45565 -42.635246)
(311.66283 -199.66517 -27.368449)
(377.73655 -210.27445 -11.428196)
(440.76814 -215.99115 3.204522)
(498.20386 -220.05455 15.093142)
(548.89146 -221.90238 23.887988)
(595.0749 -225.62812 30.590849)
(637.97592 -230.846 34.219)
(682.25986 -239.02914 37.639907)
(729.5114 -249.20872 41.572029)
(782.33874 -260.06228 47.413949)
(840.34778 -270.36023 55.788921)
(902.21604 -277.72258 66.517645)
(964.74923 -281.03758 78.63607)
(1023.8451 -279.21717 90.725475)
(1075.6691 -272.1552 100.74865)
(1116.5784 -261.56124 107.5237)
(1145.4935 -247.83946 109.09579)
(1162.0241 -234.31458 105.81991)
(1168.6478 -222.27468 97.597079)
(1168.8152 -213.6489 86.639446)
(1166.5503 -209.0492 74.453516)
(1165.3708 -208.20692 62.959192)
(1167.6671 -211.01331 54.136104)
(1175.0297 -216.02446 48.843083)
(1186.5324 -222.05534 47.435262)
(1200.762 -228.07249 49.153646)
(1215.0945 -233.65808 52.528217)
(1227.3679 -238.99216 55.683113)
(1236.0887 -244.78119 56.825583)
(1241.2061 -251.88405 54.566795)
(1244.3658 -261.55636 48.3625)
(1248.9245 -273.8478 39.489143)
(1258.2287 -289.26314 29.13979)
(1275.0822 -306.29562 20.028755)
(1302.0611 -323.74724 14.252513)
(1338.1448 -339.44834 13.818477)
(1380.9024 -351.71236 18.70566)
(1425.6881 -358.78893 28.18661)
(1466.8728 -360.37786 40.019663)
(1499.4584 -357.72813 51.841391)
(1527.2454 -353.36119 62.32034)
(-3.9179893e-16 -2.8384427e-17 -1.6191597e-16)
(6.8869455e-16 3.3255846e-16 -2.9305012e-16)
(-3.0379221e-16 -4.0639439e-16 3.7376104e-16)
(8.6048107e-16 -8.7588792e-17 1.0515471e-16)
(5.0258192e-16 -7.4376592e-16 6.4035694e-16)
(-2.9679417e-15 -3.4669267e-16 7.3060073e-16)
(8.9003905e-16 -2.834795e-16 1.0120244e-16)
(21.85722 -28.98396 43.305843)
(27.745857 -75.824786 57.775338)
(56.367783 -92.053306 53.719842)
(102.33985 -127.58371 42.813049)
(165.89909 -150.97238 23.296608)
(231.12 -177.09856 1.7912587)
(304.70066 -199.57873 -15.213339)
(369.20808 -212.31685 -31.171989)
(431.90273 -227.50075 -34.756625)
(482.36212 -228.91316 -34.915395)
(525.88399 -234.25848 -24.620892)
(566.01919 -233.54387 -13.472367)
(601.93757 -237.02626 1.8443537)
(642.01029 -240.24766 13.075207)
(689.81265 -246.78567 18.824864)
(746.38698 -255.80176 17.894206)
(811.13889 -264.85845 11.176038)
(879.54513 -272.77298 1.8371821)
(946.91597 -276.45718 -6.7567991)
(1007.1485 -274.45347 -10.963247)
(1056.1122 -265.89523 -8.5561103)
(1091.2454 -251.43042 1.0735007)
(1112.737 -232.95987 16.637868)
(1123.1402 -213.21422 35.265969)
(1126.3501 -195.00351 53.882755)
(1126.8244 -181.39985 68.86511)
(1129.2888 -173.12788 77.851669)
(1134.0997 -170.89941 81.052066)
(1143.3013 -174.27334 78.841927)
(1156.0743 -181.37405 73.00029)
(1170.4439 -190.34829 66.044946)
(1184.0084 -199.39754 60.486158)
(1194.3342 -207.19528 58.437062)
(1200.0146 -213.30527 60.82531)
(1201.2658 -218.35294 67.168509)
(1200.3528 -223.73789 75.550539)
(1198.2186 -231.39628 82.518027)
(1203.1386 -242.68244 87.087919)
(1213.9274 -260.01925 84.702641)
(1236.5973 -282.54752 74.931712)
(1269.3943 -309.6314 59.006053)
(1310.5928 -338.48929 39.522203)
(1355.6597 -365.66819 20.68586)
(1398.6818 -387.99613 6.9285835)
(1434.4168 -402.74409 1.5648957)
(1459.2461 -409.74675 5.1503016)
(1467.6494 -408.95183 16.300477)
(1570.4944 -417.36696 25.940098)
(1576.6541 -402.25996 24.117617)
(1509.8976 -373.40829 24.33)
(1406.0026 -343.29222 22.117513)
(1339.0015 -322.1304 21.193406)
(1340.3288 -317.86148 18.913448)
(1415.6028 -322.88166 13.528082)
(1438.9975 -304.77952 -0.45217348)
(1432.7507 -285.93319 -5.947305)
(1413.9745 -264.84278 -16.810823)
(1388.714 -242.5339 -26.316773)
(1357.5503 -222.26341 -33.826005)
(1323.1393 -207.92766 -38.305735)
(1289.4448 -201.49637 -38.223502)
(1259.4004 -202.97004 -34.066627)
(1235.1521 -210.94216 -26.380593)
(1217.4954 -222.52936 -17.2681)
(1203.7281 -234.15313 -7.898344)
(1198.0345 -243.68622 1.761507)
(1191.9264 -250.68688 7.3122462)
(1185.5611 -252.02133 11.696201)
(1178.1208 -249.73396 14.107252)
(1169.0535 -245.11074 15.879916)
(1159.5441 -240.13776 18.135163)
(1151.0252 -236.48612 22.209663)
(1145.7532 -234.74834 28.410995)
(1144.6387 -234.94094 37.45448)
(1148.3529 -234.79474 47.869834)
(1155.3895 -232.82926 58.999788)
(1163.0795 -225.64164 68.607658)
(1167.8172 -211.75036 75.475529)
(1165.5349 -189.92248 77.826502)
(1152.966 -160.68006 75.284749)
(1128.2583 -125.91414 68.042112)
(1091.1583 -88.54384 57.12581)
(1043.5152 -51.859964 44.133554)
(988.31158 -18.743827 30.880714)
(929.14487 8.9894301 18.801125)
(869.93754 30.636165 8.7459887)
(814.80729 47.457268 1.8434051)
(758.27443 61.405133 -4.0429022)
(705.68071 73.033052 -7.4779839)
(654.89154 86.287665 -11.489932)
(601.51111 100.29163 -15.998427)
(543.69633 116.34214 -22.32333)
(480.25197 130.79078 -30.64068)
(413.28285 143.03284 -39.10666)
(342.77335 153.49809 -50.280449)
(269.20885 150.31968 -57.293237)
(204.18182 147.37635 -65.693614)
(142.56225 129.46945 -67.247223)
(94.514329 106.8247 -65.180746)
(55.076478 76.378213 -58.959847)
(46.35437 43.028535 -38.032774)
(-6.7652979e-16 3.5118239e-16 1.2802193e-16)
(-2.3129286e-15 2.7505878e-16 1.3239036e-16)
(-3.6393531e-15 -1.4253491e-16 -1.5464221e-16)
(-4.9195801e-15 -9.3657526e-16 4.6870719e-16)
(-4.0844143e-15 -8.2232132e-16 1.723462e-16)
(-2.0271537e-15 -1.8079967e-16 2.6438577e-16)
(-2.0670014e-15 8.6459225e-16 1.4474963e-15)
(-4.5036838e-15 1.2268482e-15 -2.065022e-16)
(-1.9919023e-15 1.1694967e-15 -1.6367101e-16)
(-2.9438013e-15 1.1112212e-15 -1.969436e-16)
(-2.4504202e-15 9.597151e-16 -1.1789697e-16)
(-5.2893259e-15 2.5926013e-15 -8.0820905e-16)
(-1.8775489e-15 1.1365606e-15 -5.8525306e-16)
(-7.4714327e-17 -2.094137e-16 9.7564992e-17)
(1533.1194 -359.6725 67.965143)
(1525.4783 -367.31219 60.96378)
(1519.1448 -376.83923 54.267008)
(1515.4353 -387.73356 47.341172)
(1512.3717 -398.28917 40.383388)
(1511.3868 -406.00741 34.899424)
(1507.3981 -413.84464 27.330511)
(1509.8391 -306.62575 -25.761684)
(1505.0278 -303.57112 -20.364792)
(1502.2128 -301.33958 -14.555934)
(1499.8977 -300.96169 -8.4574931)
(1497.0808 -302.04101 -2.4812539)
(1493.6359 -305.61666 2.1209452)
(1487.2727 -310.81693 7.1343759)
(18.035138 17.997959 23.849038)
(45.150273 36.021648 15.046861)
(80.923091 53.386596 11.198876)
(128.86504 68.19265 2.7586971)
(184.15577 78.487427 -6.1088947)
(249.65627 86.945949 -13.947885)
(318.17114 89.749602 -21.355727)
(390.91971 90.183873 -25.460411)
(462.19073 86.197151 -28.037733)
(531.28735 80.094572 -26.534812)
(595.92235 71.2592 -22.812181)
(656.81201 61.097966 -16.914726)
(714.58989 49.147757 -9.6738683)
(771.89593 34.410268 -3.2822763)
(831.17687 16.904804 1.5291418)
(894.15021 -4.9084342 3.1797964)
(961.59538 -31.122958 1.5987634)
(1031.1819 -61.673702 -2.5064813)
(1099.6423 -95.382826 -7.8975475)
(1161.5256 -130.34332 -12.396916)
(1211.7856 -164.10711 -14.186456)
(1246.3775 -194.34753 -11.958525)
(1263.8657 -219.6008 -5.6103082)
(1265.7579 -239.15392 3.7922112)
(1256.0124 -253.71898 14.191539)
(1240.5244 -264.22104 23.620508)
(1225.166 -272.24629 29.803077)
(1213.899 -279.01646 32.258253)
(1209.0661 -284.86687 31.143126)
(1210.2935 -289.81877 28.000451)
(1215.115 -293.14055 24.600571)
(1220.5784 -294.06167 22.893721)
(1224.0178 -292.22006 23.875527)
(1224.137 -287.59807 27.586287)
(1221.4263 -280.95298 33.224442)
(1217.8695 -273.45181 38.875082)
(1216.527 -266.37236 42.814218)
(1220.437 -261.44152 43.25822)
(1231.5745 -259.41184 39.294968)
(1250.8456 -260.49904 30.944676)
(1277.2303 -264.85495 19.840891)
(1307.9535 -271.08568 7.1627307)
(1339.3499 -278.45242 -4.2521226)
(1367.8947 -285.50822 -13.106589)
(1388.8672 -290.7779 -17.78102)
(1402.5371 -294.58132 -19.136113)
(1414.4605 -301.34286 -17.757495)
(10.276069 10.09463 11.500572)
(33.69337 16.647322 4.7385347)
(69.339233 29.366546 1.9950077)
(114.48785 36.788706 -6.0637046)
(169.84676 45.080599 -11.191483)
(232.17699 49.65824 -17.778939)
(301.40766 51.526492 -21.175891)
(374.43388 50.750142 -24.753567)
(447.66541 46.70794 -24.470265)
(519.45929 40.95245 -22.890588)
(587.74392 32.926937 -18.802643)
(652.15441 23.474326 -12.708511)
(713.62573 11.93132 -5.7266716)
(773.99478 -2.3395536 1.0569271)
(835.7698 -19.636155 6.5204998)
(901.46619 -41.072935 9.5272083)
(971.53524 -66.604187 10.23659)
(1044.514 -95.875231 8.6893907)
(1116.4045 -127.25814 6.1005726)
(1181.6833 -158.711 4.0870016)
(1234.4023 -187.73189 4.0133129)
(1270.1748 -212.63175 6.8561462)
(1287.1601 -232.34561 12.556918)
(1286.8215 -246.96729 20.030898)
(1273.8345 -257.39834 27.796009)
(1254.3087 -265.27532 33.816506)
(1234.648 -271.39647 37.047444)
(1219.0193 -277.03405 37.172749)
(1209.7911 -281.76157 34.774637)
(1206.3245 -285.24394 31.306779)
(1206.077 -286.73019 28.338302)
(1206.1605 -285.68852 27.125937)
(1204.1587 -282.12923 28.217339)
(1199.0911 -276.63309 31.34148)
(1191.9103 -270.38881 35.393493)
(1184.7817 -264.51154 38.90706)
(1180.749 -260.52941 40.591282)
(1182.8432 -258.95655 39.006657)
(1192.5585 -260.50097 34.411837)
(1211.0092 -264.43319 26.972345)
(1235.9715 -270.35789 17.852794)
(1266.2132 -277.12186 8.6908439)
(1296.9349 -283.36213 0.45095646)
(1326.1987 -289.10499 -5.1016004)
(1349.5808 -292.939 -8.0816544)
(1366.6464 -296.26523 -9.035503)
(1380.7029 -302.01745 -7.9842881)
(3.3104638 3.5978741 4.8508118)
(29.643114 7.535961 -2.4050079)
(65.824815 12.691747 -7.511811)
(115.8521 17.71082 -13.186862)
(173.81632 19.801007 -18.127894)
(242.17819 20.703693 -21.815747)
(315.30903 18.367886 -24.768995)
(391.12965 14.516686 -24.220462)
(466.19839 8.0000539 -22.346244)
(538.26705 0.53682982 -18.496476)
(604.96021 -8.3429843 -12.217645)
(667.25217 -18.638542 -5.3851352)
(725.72104 -30.49847 1.9910799)
(783.41296 -44.577949 8.430683)
(842.67452 -61.118433 13.510133)
(905.41796 -81.115512 16.718275)
(972.20285 -104.05466 18.175316)
(1040.6457 -129.3173 18.241214)
(1106.9864 -155.3431 17.989844)
(1165.8968 -180.31758 18.266715)
(1212.4518 -202.45329 19.920346)
(1242.8266 -220.50861 23.337688)
(1255.837 -233.87654 27.981824)
(1253.5381 -243.00837 33.203442)
(1239.8747 -249.13016 37.702052)
(1220.1879 -253.1499 40.735072)
(1200.0685 -256.56283 41.663923)
(1183.5924 -259.8405 40.217859)
(1172.9754 -262.93019 37.301826)
(1167.9354 -265.46669 34.149052)
(1166.6815 -266.89455 31.665447)
(1166.7942 -266.59783 30.822838)
(1165.8948 -264.58467 31.90867)
(1163.0696 -261.3765 34.565434)
(1158.6844 -257.61088 37.862588)
(1154.725 -254.60075 40.594919)
(1153.9049 -253.29937 41.610938)
(1159.1948 -254.48086 40.017228)
(1172.8567 -258.32435 35.858743)
(1195.5385 -264.43554 28.926602)
(1226.555 -272.40172 21.310628)
(1263.5828 -280.45233 12.87092)
(1302.7068 -288.54046 6.6105042)
(1341.2003 -295.00105 1.9091287)
(1374.2608 -300.2771 0.57226266)
(1400.6053 -303.86262 1.2363402)
(1418.6248 -308.33902 3.7444174)
(3.419613 -2.1376867 -9.0601784)
(33.474083 -4.074027 -18.805123)
(75.059796 -2.2107359 -22.236236)
(130.91792 -3.2064909 -27.156271)
(198.51642 -5.574749 -28.385393)
(272.88506 -8.8614993 -29.470035)
(351.27059 -16.122617 -26.481316)
(428.7301 -23.136395 -23.00432)
(502.63623 -32.797761 -17.315679)
(569.6227 -42.125872 -10.056472)
(630.21945 -52.676118 -2.5876382)
(685.37791 -63.165156 4.8618784)
(737.01747 -74.388195 11.856025)
(788.63504 -87.216891 17.407228)
(841.9876 -101.30809 21.822127)
(898.71749 -117.83573 24.886382)
(957.72572 -135.69323 27.028259)
(1016.8041 -154.67021 28.808157)
(1071.9988 -173.30992 30.622661)
(1119.3774 -190.37455 32.920924)
(1155.0864 -204.77783 36.019807)
(1177.2219 -215.6114 39.43303)
(1185.89 -223.06122 43.090964)
(1182.5201 -227.67896 46.437875)
(1170.7557 -230.0207 48.594889)
(1154.9661 -231.36167 49.02202)
(1139.3744 -232.33032 47.494593)
(1127.2369 -233.61325 44.57678)
(1120.4276 -235.30583 40.930985)
(1119.1148 -237.39878 37.337156)
(1122.3821 -239.52827 34.632379)
(1128.1928 -241.26128 33.431314)
(1134.5771 -242.57888 33.894695)
(1140.0417 -243.31188 35.700223)
(1144.2949 -243.97545 38.175741)
(1148.4018 -245.05265 40.240207)
(1154.649 -247.36665 41.103725)
(1165.9838 -251.37788 39.772066)
(1185.0635 -257.48196 35.868365)
(1213.9724 -265.62509 30.119745)
(1252.3033 -275.21522 23.385977)
(1298.8694 -285.62907 16.810358)
(1349.0321 -295.70764 12.08658)
(1399.7825 -304.66903 9.4241392)
(1444.3785 -311.79489 10.041513)
(1480.7138 -316.27679 13.462725)
(1504.0915 -320.07722 17.991995)
(-0.89004451 -12.438968 -20.612716)
(33.986365 -17.356146 -28.278348)
(80.256436 -23.004303 -32.930262)
(144.90042 -28.301816 -34.698651)
(218.42551 -35.908443 -33.689316)
(299.38557 -43.766673 -29.629732)
(380.81778 -54.247868 -24.053976)
(458.92614 -63.950935 -17.301129)
(528.97204 -75.170823 -8.875949)
(590.63927 -85.168777 -0.91110076)
(644.31584 -95.211479 6.8429062)
(692.10371 -104.32536 13.998108)
(736.95929 -114.07657 19.886714)
(782.53256 -124.05353 24.654063)
(830.17507 -135.10062 28.606918)
(880.568 -147.32066 32.086914)
(932.27332 -160.2929 35.322696)
(982.7762 -173.45107 38.503228)
(1028.8674 -185.88133 41.86598)
(1067.4925 -196.79064 45.324037)
(1096.2755 -205.46776 48.871309)
(1118.5358 -211.88578 51.813919)
(1130.4949 -215.98436 54.672909)
(1128.8283 -217.65497 55.737427)
(1120.8051 -218.01729 55.528922)
(1110.2521 -217.64639 53.774645)
(1100.0365 -217.16741 50.948461)
(1092.9022 -217.07609 47.493057)
(1090.6537 -217.73433 43.749006)
(1093.8707 -219.26302 40.510106)
(1101.9981 -221.5559 38.240243)
(1113.6088 -224.43752 37.334467)
(1126.8162 -227.70046 37.786533)
(1139.8823 -231.21074 39.361064)
(1151.7961 -234.89597 41.341694)
(1162.7305 -239.14531 42.997708)
(1174.3511 -244.21672 43.560611)
(1189.1423 -250.82961 41.920865)
(1215.1062 -260.54461 38.796048)
(1248.4279 -270.99835 33.621575)
(1290.5802 -282.11622 27.503324)
(1342.6617 -293.88483 21.33027)
(1400.8584 -305.55222 17.677345)
(1460.7191 -315.53275 15.867375)
(1514.1245 -323.6432 18.823347)
(1557.735 -328.10061 24.249215)
(1585.4153 -331.1048 31.886319)
(1.1323746 -18.688105 -35.622516)
(39.571222 -33.239588 -45.880364)
(85.98213 -44.535815 -48.89718)
(151.1504 -56.864618 -47.817654)
(226.05145 -69.829477 -41.557224)
(306.594 -82.447423 -33.698913)
(386.49389 -96.531605 -23.774199)
(460.75461 -108.93797 -12.890744)
(526.07858 -121.24269 -2.934002)
(581.97236 -130.99877 6.4520104)
(630.29467 -139.53161 14.42082)
(673.09164 -146.26162 20.937024)
(714.48757 -152.90205 26.068902)
(757.13458 -159.30837 30.577689)
(802.82585 -166.4807 34.803872)
(851.61209 -174.47688 39.252141)
(901.81609 -183.14394 43.893866)
(951.19573 -191.82661 48.985689)
(996.56086 -199.96646 54.277191)
(1035.3528 -206.70988 59.341645)
(1065.5801 -211.36157 63.937826)
(1088.2138 -215.18313 67.193688)
(1099.3052 -215.2306 69.147544)
(1103.4745 -213.67932 69.153556)
(1101.5202 -211.32369 67.123849)
(1096.9081 -208.46229 63.482184)
(1092.6107 -205.78349 58.714524)
(1091.1185 -204.20777 53.327408)
(1094.0031 -204.01545 48.190335)
(1101.862 -205.32563 44.051908)
(1114.4471 -208.17979 41.476258)
(1130.4755 -212.27297 40.683238)
(1148.1505 -217.35084 41.541551)
(1165.7041 -222.93866 43.484935)
(1181.7701 -229.033 45.609151)
(1196.1187 -235.4706 46.976051)
(1209.8625 -242.61028 46.574701)
(1225.6851 -250.8055 44.068733)
(1246.2464 -260.54602 38.932816)
(1282.4932 -273.43028 32.019977)
(1322.0876 -285.54173 25.384912)
(1371.9651 -298.34271 20.544614)
(1428.7089 -310.76377 18.669122)
(1487.5624 -321.86431 20.461828)
(1540.7526 -330.35502 26.31744)
(1583.1977 -335.59289 34.440877)
(1611.6903 -338.37636 44.355605)
(5.9025505 -38.579711 -46.869959)
(37.536951 -56.486464 -54.999346)
(78.193216 -73.926537 -58.845206)
(138.50174 -90.56876 -54.591074)
(207.29372 -107.20815 -46.157544)
(283.01508 -122.38613 -35.276641)
(358.64897 -136.66285 -22.293371)
(430.34088 -148.65354 -9.7586766)
(494.10495 -159.53737 1.9422836)
(549.1216 -167.51587 11.917024)
(596.57362 -175.14295 20.018573)
(638.63289 -180.51984 25.758576)
(679.44359 -186.71474 30.507004)
(722.33334 -192.2433 34.515895)
(769.53259 -198.82382 39.024692)
(821.17433 -205.67081 44.380805)
(876.51471 -212.76922 50.974479)
(932.64633 -219.45286 58.511876)
(986.32345 -224.9742 66.446641)
(1034.0545 -228.86759 73.980439)
(1072.9407 -230.63498 80.257409)
(1101.8191 -230.18996 84.231955)
(1119.5998 -227.91309 85.6677)
(1128.2746 -223.59542 84.272919)
(1130.2635 -218.6154 80.359039)
(1128.549 -213.24761 74.226692)
(1126.5717 -208.66263 67.230477)
(1126.8938 -205.82018 60.029542)
(1131.5967 -204.67456 53.78153)
(1141.2767 -205.73087 49.106026)
(1155.4351 -208.58381 46.541585)
(1172.3946 -213.09665 46.07828)
(1189.9714 -218.73218 47.251613)
(1206.0526 -225.23389 49.212827)
(1219.1774 -232.42269 50.801283)
(1229.1443 -240.47779 51.019136)
(1237.5337 -249.26914 48.884959)
(1247.0898 -259.29661 44.298521)
(1261.8772 -270.48855 37.777572)
(1285.424 -282.59145 30.368629)
(1319.6987 -295.13699 24.005603)
(1364.0946 -307.54082 20.108735)
(1415.7049 -319.13949 20.212355)
(1469.2942 -328.95122 24.447159)
(1517.2771 -335.97844 32.045471)
(1554.8344 -340.67284 42.275654)
(1576.5388 -342.48314 52.403021)
(-1.8726199e-15 -1.0357256e-16 4.2324109e-16)
(-4.3693994e-15 5.8098526e-16 1.0825799e-16)
(-1.86708e-15 5.0203615e-16 5.7484399e-16)
(-1.1298519e-15 4.4303811e-16 -1.5186772e-16)
(-1.5283164e-15 1.7502349e-16 4.7144117e-17)
(-3.9278597e-15 -6.147074e-18 -1.0233878e-17)
(-3.270765e-15 8.5080195e-17 2.8271762e-17)
(-1.444637e-15 3.1767481e-17 -1.0328492e-16)
(-1.9600489e-15 -2.0641393e-16 2.5996682e-17)
(-1.0758982e-15 -5.0887233e-16 -1.6282415e-16)
(-1.1902312e-15 -6.3217422e-16 -1.0496995e-16)
(-2.2455722e-15 -1.0363924e-16 3.7607835e-16)
(-1.7254929e-15 1.2766475e-16 7.9907906e-17)
(-6.542485e-16 2.4659353e-16 4.7610311e-16)
(-1.0183069e-15 2.0413811e-16 3.0876606e-16)
(-1.2825224e-16 3.2154578e-16 2.6910031e-16)
(-2.4669526e-15 5.8726168e-16 -3.2350189e-17)
(-1.9694108e-15 5.8752001e-16 2.9593509e-16)
(-1.9972486e-15 5.0741204e-16 1.6376266e-16)
(-5.0142844e-16 5.9082617e-16 -1.5096731e-17)
(2.8672985e-17 2.0007103e-16 -2.079567e-16)
(-3.5598279e-15 1.6770216e-16 6.1584209e-17)
(1.5219227e-15 -3.8112137e-16 -3.4960392e-16)
(-8.8364966e-17 -1.5289127e-16 1.7491834e-16)
(2.7397895e-16 -2.6900304e-16 -2.0413732e-16)
(-5.1236454e-16 -3.7600259e-16 -4.411389e-17)
(-1.3114086e-15 -5.3747975e-16 1.2489795e-16)
(2.0041989e-16 -4.4379834e-16 -1.4360784e-16)
(-1.3448657e-15 3.3966264e-16 -2.7012678e-16)
(-2.2010094e-15 1.2158219e-16 1.1470551e-16)
(-1.2722141e-15 -2.3577892e-16 -7.7366055e-17)
(-2.6936153e-15 2.298542e-17 6.0151854e-16)
(-1.8084585e-15 2.5926424e-16 8.2177642e-17)
(-1.0121806e-15 3.7760621e-16 1.5728837e-17)
(-3.5076342e-15 -1.049112e-16 -1.8966684e-16)
(-1.2388067e-16 -2.746004e-16 -1.3203227e-16)
(-1.1077126e-15 -2.2449831e-16 5.9960705e-17)
(-7.9462407e-16 5.2806017e-17 1.8160622e-16)
(-1.481116e-15 2.6347307e-16 -6.003674e-17)
(5.3541372e-16 1.9494005e-16 5.7756958e-17)
(-2.5861876e-15 -7.0653702e-17 -1.8824779e-16)
(-1.6152529e-15 1.8241927e-16 3.8488004e-16)
(-1.0389662e-15 3.299921e-17 2.9700946e-16)
(-3.8817577e-15 -1.9427146e-16 -1.2145786e-15)
(-1.6161979e-15 2.8442108e-16 -1.856842e-16)
(8.1577518e-16 1.8112067e-17 2.0819295e-16)
(-2.485062e-15 2.8178417e-16 -5.4749215e-16)
(-1.8307085e-15 4.4562511e-16 -1.4619564e-16)
(-1.4586292e-15 4.0358521e-16 -4.0281137e-16)
(35.284476 -18.481891 -31.771167)
(38.847613 -21.308473 -20.962153)
(41.254897 -22.718309 -10.830464)
(41.919973 -23.008148 -2.7678293)
(39.263471 -21.068668 6.1435217)
(35.575147 -20.772274 15.260249)
(29.014302 -14.247769 24.964761)
(57.602302 -72.127452 -55.962186)
(65.853137 -77.750798 -32.682407)
(67.591489 -75.260926 -16.68951)
(66.144867 -73.274407 -4.3241795)
(63.800888 -73.860411 7.5398256)
(57.487332 -71.07361 22.624844)
(49.031914 -65.930805 39.92398)
(91.706393 -106.74953 -57.68316)
(99.634974 -104.64584 -40.473491)
(103.34677 -106.55059 -22.954124)
(101.76306 -105.64962 -9.5887529)
(99.230145 -102.63261 6.8338709)
(89.674245 -100.95513 19.878931)
(79.302744 -97.636843 42.529479)
(135.99273 -146.07717 -53.88406)
(139.33528 -149.35755 -40.204281)
(142.44806 -147.91974 -26.089304)
(141.19043 -147.02257 -13.836896)
(137.89678 -145.7295 -0.34036441)
(130.10139 -145.27077 13.130289)
(121.32216 -139.00489 28.894991)
(188.09914 -174.99693 -48.608245)
(192.11032 -177.0465 -38.427655)
(194.65907 -178.45421 -28.010812)
(193.53642 -177.91726 -17.938045)
(191.16195 -177.70041 -7.7954563)
(184.61011 -174.52777 0.83327232)
(178.0655 -172.37579 15.157961)
(246.51559 -197.38822 -37.432727)
(247.86982 -200.32418 -32.580756)
(248.85595 -200.30973 -25.479569)
(247.12181 -200.89801 -21.220711)
(245.74533 -199.13528 -14.723953)
(243.07299 -199.15005 -9.9744743)
(237.96882 -194.74498 -4.0729246)
(310.82802 -213.95987 -26.027167)
(308.76322 -216.72688 -23.567017)
(308.00886 -219.34909 -22.352576)
(306.6896 -219.32146 -21.732837)
(304.96985 -218.67937 -19.743422)
(303.17987 -218.43468 -20.722328)
(302.97867 -217.80327 -18.827766)
(371.24723 -222.63214 -12.592182)
(368.6833 -226.20677 -15.722885)
(367.70614 -227.3235 -17.324515)
(365.4302 -227.03725 -20.38314)
(365.6714 -225.78154 -23.725552)
(365.53843 -224.43675 -25.337842)
(366.45371 -222.94826 -29.577564)
(433.25503 -228.28647 -0.52518024)
(427.69065 -229.69766 -4.6002411)
(423.466 -231.22542 -9.2295665)
(422.12062 -231.24766 -15.562871)
(420.97694 -231.66927 -20.84197)
(423.08628 -229.57538 -27.193858)
(423.54703 -231.19944 -34.020587)
(487.38249 -227.90945 10.890368)
(481.61495 -230.59028 4.0856735)
(478.05645 -231.66089 -1.8146196)
(475.66392 -230.99607 -7.9785721)
(474.19923 -229.03011 -15.264133)
(476.47479 -227.12066 -21.913105)
(477.84332 -227.28259 -30.244526)
(539.12151 -229.14907 19.95602)
(532.07992 -229.81782 13.6064)
(527.60405 -231.21577 7.740948)
(524.30707 -228.95229 -0.00048755079)
(522.55246 -228.79007 -6.5674556)
(523.35098 -226.65955 -14.521324)
(523.33329 -226.90099 -21.045059)
(585.45588 -230.06159 26.9944)
(578.96344 -231.02764 21.482341)
(573.42072 -231.56048 15.031118)
(569.8378 -230.48308 9.3865586)
(567.1241 -228.78717 2.5914953)
(566.48002 -224.70847 -2.9600521)
(565.72568 -225.74922 -9.2712531)
(630.62307 -235.37258 31.570039)
(624.16426 -235.17247 27.290119)
(618.68104 -235.65106 22.84276)
(614.50361 -233.09497 17.621874)
(611.30626 -231.69969 12.120829)
(608.6398 -229.48562 7.7770216)
(606.90108 -228.36755 4.4762551)
(676.06184 -242.51901 35.331095)
(670.03997 -242.21071 32.458549)
(664.50976 -242.41656 28.545442)
(659.33208 -240.54949 24.087536)
(656.06735 -239.38216 20.02278)
(651.80618 -236.85161 16.308884)
(649.34412 -235.93634 15.685449)
(724.31709 -253.13208 39.349601)
(718.53691 -252.46351 37.124499)
(712.61908 -252.07646 33.242726)
(707.49563 -250.42295 29.186977)
(704.26162 -248.79097 24.981173)
(699.23001 -247.59435 21.788293)
(696.48051 -246.84307 21.485415)
(776.94457 -264.51409 44.397049)
(770.7752 -263.37319 41.638962)
(764.74761 -262.87776 37.233466)
(759.6751 -261.38168 31.989039)
(756.39291 -260.13863 27.554487)
(751.82329 -259.87545 22.893164)
(749.67445 -260.13724 21.450762)
(833.46073 -274.98702 51.129367)
(826.84785 -273.54907 47.016966)
(820.45655 -272.22917 40.80775)
(815.77318 -270.62292 34.168555)
(812.85426 -269.49235 27.706066)
(809.88084 -269.81602 21.172587)
(808.79386 -271.49699 16.594194)
(893.10891 -282.26701 59.781493)
(885.45454 -279.96571 53.184997)
(878.62384 -277.84902 45.14341)
(874.28663 -276.13893 36.004028)
(871.57633 -274.94659 27.170252)
(870.81302 -275.77333 18.192567)
(871.01258 -278.92985 9.3285524)
(952.78084 -284.40399 69.63853)
(944.02892 -281.09348 60.567575)
(936.59178 -278.18837 50.205789)
(932.51605 -275.75326 38.818801)
(930.16243 -274.39463 27.422954)
(931.5833 -275.08713 16.055953)
(933.05354 -279.62905 2.8674598)
(1009.4651 -280.46079 79.908224)
(999.49668 -276.15049 68.473043)
(991.32986 -272.18281 56.376144)
(987.35883 -269.11122 43.187829)
(985.02458 -267.2848 29.720737)
(988.0046 -267.59827 16.720385)
(990.40694 -272.79034 0.22136294)
(1059.4582 -270.81584 89.107926)
(1048.6037 -265.27401 76.21421)
(1039.773 -260.58241 63.231313)
(1035.6234 -256.55008 49.189984)
(1033.1814 -254.13652 34.780687)
(1036.7514 -253.64355 21.242735)
(1039.3848 -258.88887 3.233403)
(1100.3026 -256.60502 95.795621)
(1088.9549 -250.20681 82.78497)
(1079.5968 -244.82155 69.96692)
(1075.0787 -240.10255 56.424341)
(1072.2673 -237.00137 42.398545)
(1075.2267 -235.58898 29.624223)
(1077.4281 -239.93828 12.36589)
(1130.4043 -240.10508 98.760311)
(1119.1367 -233.18635 87.005843)
(1109.6592 -227.56132 75.729922)
(1104.7281 -222.14541 63.838008)
(1101.4757 -218.16641 51.572374)
(1102.8199 -215.83826 40.908295)
(1103.9091 -218.77425 26.357809)
(1149.7899 -224.11756 97.555409)
(1139.4239 -216.87098 88.337807)
(1130.3041 -211.17183 79.501179)
(1124.9987 -205.30183 70.280224)
(1120.8949 -201.00511 60.995769)
(1120.2431 -198.06138 52.990269)
(1119.6801 -199.05295 42.682127)
(1160.3495 -210.55803 92.44054)
(1151.1932 -203.74263 86.222853)
(1143.0616 -198.44604 80.759972)
(1137.1804 -192.38317 74.605328)
(1133.0833 -187.85052 68.75837)
(1130.1803 -184.04666 64.074296)
(1128.1267 -182.89606 58.613371)
(1164.5757 -201.70747 84.084446)
(1157.1875 -195.76727 81.309412)
(1150.2529 -190.40731 79.172975)
(1144.4625 -184.77341 75.804181)
(1140.1237 -180.0608 74.06567)
(1135.3769 -176.18797 72.160507)
(1131.742 -173.61508 71.068115)
(1165.9354 -197.9995 74.338668)
(1160.3502 -192.99629 74.810765)
(1154.6696 -188.00357 74.880552)
(1149.3192 -182.79909 75.095887)
(1144.8224 -177.92793 75.479715)
(1138.862 -173.99439 75.91611)
(1134.5775 -170.37234 77.847727)
(1167.366 -199.30498 64.592084)
(1163.4203 -195.08384 67.189428)
(1158.6573 -190.52605 69.262685)
(1154.0922 -185.95202 71.586655)
(1149.6473 -181.14997 73.64879)
(1143.8219 -177.25593 76.181147)
(1139.1743 -172.58327 79.681741)
(1171.3163 -204.64021 56.738911)
(1167.9452 -201.34265 60.366226)
(1164.6804 -197.19966 63.793315)
(1160.4449 -192.91072 66.684992)
(1156.5839 -188.13275 70.096455)
(1151.0945 -184.16448 72.760498)
(1146.4905 -179.30833 76.849945)
(1178.321 -212.3465 51.399561)
(1175.5573 -209.59191 55.538891)
(1172.6973 -205.66683 58.671772)
(1169.2499 -201.56707 61.87967)
(1165.6961 -196.95325 65.169487)
(1161.1105 -192.85442 67.513745)
(1156.9791 -188.51651 71.063905)
(1188.5592 -220.51906 49.544622)
(1185.4903 -218.09332 52.89246)
(1183.1115 -214.35373 55.457466)
(1180.0225 -210.33231 58.041095)
(1176.7629 -205.75713 60.777721)
(1173.2335 -201.60001 62.27586)
(1169.3997 -197.93723 64.54782)
(1200.5104 -227.96604 50.477742)
(1197.1245 -225.58793 52.806083)
(1194.6067 -221.90419 54.355975)
(1191.6743 -217.80152 56.18116)
(1188.535 -213.26777 58.002904)
(1185.7434 -208.77244 58.729773)
(1181.9895 -205.89535 59.455897)
(1212.6162 -233.96543 53.292096)
(1208.8017 -231.35113 54.481097)
(1205.9565 -227.71919 55.25238)
(1202.9423 -223.53697 56.393023)
(1199.6249 -218.87137 57.578983)