/*--------------------------------*- C++ -*----------------------------------*\
  =========                 |
  \\      /  F ield         | OpenFOAM: The Open Source CFD Toolbox
   \\    /   O peration     | Website:  https://openfoam.org
    \\  /    A nd           | Version:  6
     \\/     M anipulation  |
\*---------------------------------------------------------------------------*/
FoamFile
{
    version     2.0;
    format      ascii;
    class       pointVectorField;
    location    "0.4";
    object      u;
}
// * * * * * * * * * * * * * * * * * * * * * * * * * * * * * * * * * * * * * //

dimensions      [0 1 0 0 0 0 0];

internalField   nonuniform List<vector> 
625
(
(0 0 0)
(0 0 0)
(1.2645729 0.0040753655 0.0067113897)
(1.2182983 -0.29640172 0.0055446992)
(0 0 0)
(0 0 0)
(1.2193157 -0.29757693 0.0047751759)
(1.2655831 0.0025691779 0.0065320474)
(0 0 0)
(0 0 0)
(0 0 0)
(1.2524919 -0.071802826 0.0055740214)
(1.2406375 -0.14586319 0.0060132721)
(1.2296631 -0.22024112 0.0056971168)
(0.0031995215 0.012547483 0.011247357)
(0.012051867 0.02489191 0.012064935)
(0.028000309 0.037251324 0.012437708)
(0.051050894 0.048878077 0.012545523)
(0.079040763 0.058638646 0.01264189)
(0.113604 0.067571469 0.012495227)
(0.15261021 0.074662835 0.012593609)
(0.19662831 0.080250245 0.012456343)
(0.24497654 0.084471515 0.012389788)
(0.29712152 0.086943643 0.012016408)
(0.3528913 0.088132114 0.011744926)
(0.41184277 0.087822263 0.011326169)
(0.47360299 0.086207069 0.010831073)
(0.53790177 0.083365017 0.010298392)
(0.60439606 0.079411077 0.0097565973)
(0.67284092 0.074350697 0.0092449967)
(0.74297265 0.068517342 0.0086993467)
(0.81459033 0.061534466 0.0083777309)
(0.88750974 0.054030542 0.0078984152)
(0.96137375 0.045594819 0.0076907229)
(1.0363045 0.036396977 0.0075584731)
(1.1118308 0.026697447 0.0073227239)
(1.187516 0.015978972 0.0075147804)
(-0.0018251231 -0.00951928 -0.013996361)
(0.0086115087 -0.020478374 -0.01086493)
(0.024130059 -0.033496578 -0.011660031)
(0.044756406 -0.045195332 -0.010227855)
(0.070934084 -0.056678478 -0.0091661999)
(0.10333691 -0.069398332 -0.0079198017)
(0.13926788 -0.081044178 -0.0070161205)
(0.18066315 -0.093233799 -0.0056580218)
(0.22597325 -0.10570528 -0.0047716412)
(0.27523439 -0.1179384 -0.0036709015)
(0.32807368 -0.13056407 -0.0027972368)
(0.38421691 -0.14317282 -0.001915235)
(0.44328261 -0.15588341 -0.0012012825)
(0.50501405 -0.16866777 -0.00053044725)
(0.56915613 -0.18149276 5.3740979e-05)
(0.63540355 -0.19436279 0.00056527816)
(0.7035777 -0.20727244 0.0010765422)
(0.77341786 -0.2201952 0.0015335424)
(0.84477829 -0.23312408 0.0020573607)
(0.91742857 -0.24605734 0.0025501657)
(0.99129953 -0.25892214 0.003173994)
(1.0660753 -0.27164162 0.0037746716)
(1.141588 -0.28413802 0.0044462001)
(0 0 0)
(0 0 0)
(0 0 0)
(0.0019814236 -0.0063338605 0.0097342995)
(0.010446244 -0.02665782 0.01227233)
(0.025916526 -0.033425383 0.010402645)
(0.046249028 -0.046967339 0.0098300612)
(0.073739013 -0.06051254 0.01046672)
(0.10495037 -0.070971277 0.0093459427)
(0.14145046 -0.083538701 0.0096366628)
(0.18267545 -0.095743484 0.0092728623)
(0.22801257 -0.10781176 0.0091466232)
(0.27721863 -0.12003803 0.0089524168)
(0.33002771 -0.13225438 0.0086440582)
(0.3860889 -0.14467438 0.0083678853)
(0.44507681 -0.15712895 0.0080279372)
(0.50674699 -0.16971882 0.007659157)
(0.57077737 -0.18241713 0.0073061877)
(0.63693088 -0.19521233 0.0069535235)
(0.70498603 -0.20811625 0.0066358103)
(0.77472821 -0.22109267 0.0063652796)
(0.84594683 -0.23410355 0.0061260162)
(0.9185663 -0.24714011 0.0059328231)
(0.99222961 -0.26005241 0.0057600289)
(1.0670868 -0.27291634 0.0055871009)
(1.1425154 -0.28541467 0.0054098242)
(1.2309311 -0.22121008 0.0051850202)
(1.2412987 -0.14723688 0.0057385773)
(1.2534892 -0.073538644 0.0066814821)
(1.1888027 0.014429185 0.0053717162)
(1.1125851 0.025075432 0.0047098103)
(1.0370589 0.035120447 0.0040697029)
(0.96225766 0.044473088 0.003482849)
(0.88838488 0.053019396 0.0030115485)
(0.81565471 0.060758458 0.0025830344)
(0.74421906 0.067644229 0.0022408122)
(0.67429913 0.073534413 0.001899943)
(0.60605381 0.078449935 0.0015643264)
(0.53975258 0.082227074 0.0011632942)
(0.47561399 0.084813118 0.00071399178)
(0.41397394 0.086183519 0.0001137949)
(0.35507346 0.086117671 -0.00055862946)
(0.29933915 0.084893872 -0.0014420838)
(0.24696584 0.082033602 -0.0022420738)
(0.19895017 0.077507198 -0.0033191576)
(0.1545715 0.072195673 -0.0046059992)
(0.11504306 0.064932854 -0.0056608327)
(0.081164498 0.056180164 -0.0069624889)
(0.052058663 0.046128572 -0.0078576232)
(0.028873451 0.036156816 -0.010007167)
(0.012317617 0.023096172 -0.0096140264)
(0.0059338043 0.011040795 -0.0081032937)
(0 0 0)
(0 0 0)
(0 0 0)
(0 0 0)
(0 0 0)
(0 0 0)
(1.218381 -0.2970848 0.0051321177)
(1.2188213 -0.29739568 0.0052486336)
(1.2188871 -0.29781096 0.0050130429)
(1.2652155 0.0042379859 0.0067223063)
(1.2654978 0.0036387368 0.0065677194)
(1.2657295 0.0034789165 0.006522243)
(-0.0021668493 0.0070952493 0.0078626055)
(0.0069853216 0.01363449 0.0063375752)
(0.022884919 0.020073645 0.00700367)
(0.045263387 0.02553332 0.0069961848)
(0.073171432 0.030099829 0.0073238279)
(0.10735023 0.033678443 0.007560549)
(0.14592088 0.035864103 0.0077718086)
(0.18950197 0.037167867 0.0080321993)
(0.23719974 0.037067446 0.0081466677)
(0.28898415 0.035854919 0.0081832624)
(0.3442374 0.033588728 0.0082081924)
(0.40267591 0.030153296 0.0080875562)
(0.46397827 0.02576853 0.0079148901)
(0.52783784 0.020456336 0.0076941714)
(0.59392539 0.014232891 0.0074402228)
(0.66200641 0.0073117447 0.0071473417)
(0.73181975 -0.00044034168 0.0069221862)
(0.80314104 -0.0088161123 0.0067148557)
(0.87581522 -0.017745438 0.0064932743)
(0.94956108 -0.027472038 0.0065161405)
(1.024387 -0.037686665 0.0062801765)
(1.0998294 -0.048299426 0.0063331596)
(1.175949 -0.060092494 0.0062384052)
(-0.0044092001 0.0014815752 0.00050606714)
(0.0056824239 0.0016332649 -7.5866804e-05)
(0.020895708 0.0024860283 0.00051469863)
(0.042769045 0.0024725475 0.001292161)
(0.070693815 0.001357523 0.0016873878)
(0.1038178 -0.00014101138 0.0022949239)
(0.14191311 -0.0025078416 0.002820634)
(0.18488126 -0.005797275 0.0033519036)
(0.23190867 -0.009899397 0.003746508)
(0.28302093 -0.014788529 0.0041588487)
(0.33755794 -0.020531905 0.0044223923)
(0.39538788 -0.027018265 0.0046275256)
(0.4560688 -0.034217682 0.004768384)
(0.51934306 -0.042085107 0.0048417942)
(0.58487535 -0.05053083 0.0048552303)
(0.65246389 -0.059533528 0.0048757399)
(0.72179529 -0.069035134 0.004895659)
(0.79273216 -0.078925978 0.0049030707)
(0.86504568 -0.0893289 0.0050328717)
(0.93848593 -0.10002499 0.0051183042)
(1.0130943 -0.11106594 0.0053055016)
(1.0884174 -0.12252974 0.0056054107)
(1.1647176 -0.13413535 0.005805792)
(-0.0054656696 -0.0042904919 -0.0047366018)
(0.0053596126 -0.0085978104 -0.0049985243)
(0.019748032 -0.013564658 -0.0046207116)
(0.041930618 -0.019646363 -0.0040303652)
(0.069034038 -0.026321394 -0.0034101943)
(0.10160753 -0.032665301 -0.0025743411)
(0.13928949 -0.040264108 -0.0018086004)
(0.18136121 -0.047915613 -0.0010107241)
(0.22776507 -0.056155505 -0.0002992274)
(0.27806804 -0.064937229 0.00039275072)
(0.33191222 -0.074128889 0.00096455524)
(0.389019 -0.083783497 0.0014979789)
(0.44900145 -0.093842866 0.0019276819)
(0.51160108 -0.10422681 0.0022704266)
(0.5765243 -0.11496762 0.002584048)
(0.64353012 -0.12595497 0.0028368021)
(0.71233447 -0.13719162 0.0030707609)
(0.78283636 -0.14868073 0.003341432)
(0.85467387 -0.16031879 0.0035834068)
(0.9279054 -0.17215042 0.0039391584)
(1.0021283 -0.18417017 0.0042425747)
(1.0773679 -0.19615403 0.0046553783)
(1.1533349 -0.20819388 0.0051131588)
(0 0 0)
(0 0 0)
(0 0 0)
(0 0 0)
(0 0 0)
(0 0 0)
(0 0 0)
(0 0 0)
(0 0 0)
(0.0037672392 -0.0041439216 -0.006112541)
(0.0054076363 -0.005571702 -0.0011687475)
(0.0049045214 -0.0038899664 0.0031971839)
(0.015573122 -0.024164711 -0.0054477968)
(0.015559854 -0.02449192 -0.00021122011)
(0.015019245 -0.023509185 0.0063756881)
(0.028614732 -0.033423998 -0.0058544965)
(0.03019656 -0.032911647 -0.00069270655)
(0.030350639 -0.035128134 0.0057493234)
(0.049327492 -0.046206984 -0.0046452276)
(0.051172491 -0.047407273 0.00026026937)
(0.050006733 -0.046618903 0.0054775258)
(0.076059587 -0.058811718 -0.0041214064)
(0.077141402 -0.058990019 0.00015028945)
(0.077059383 -0.060117143 0.0057346087)
(0.10695112 -0.070574327 -0.0033628798)
(0.10859615 -0.071040301 0.0012912645)
(0.10806732 -0.071276985 0.0056787691)
(0.14333133 -0.08257971 -0.0024093032)
(0.1448256 -0.083601361 0.0011068014)
(0.14455596 -0.083942339 0.0060501896)
(0.18435559 -0.095039506 -0.0017100189)
(0.18548638 -0.0950738 0.0019960772)
(0.18529743 -0.09572875 0.0059812065)
(0.22931131 -0.10699789 -0.00092572276)
(0.23053649 -0.10776253 0.0022907515)
(0.23033635 -0.10803238 0.0061419916)
(0.2783487 -0.11948692 -0.00028033489)
(0.27948007 -0.11989794 0.0027577938)
(0.27937368 -0.12024741 0.0061834229)
(0.33092407 -0.13185258 0.00035524441)
(0.33200297 -0.13232153 0.003070439)
(0.33187993 -0.13254883 0.0061834387)
(0.3868121 -0.14441354 0.00089082778)
(0.38777939 -0.14476563 0.0033281828)
(0.38775233 -0.14496332 0.0061397608)
(0.44562524 -0.15698078 0.0013346672)
(0.44655551 -0.15730138 0.0035201636)
(0.44653937 -0.15747199 0.0060418438)
(0.50715496 -0.16967431 0.0017164896)
(0.50798814 -0.16994359 0.0036501242)
(0.50801012 -0.17006835 0.005890051)
(0.57105953 -0.18240324 0.0020397045)
(0.57182813 -0.18263913 0.003738932)
(0.57188358 -0.18275388 0.0057336829)
(0.63712139 -0.19520853 0.0023120793)
(0.63782488 -0.19542339 0.0038039317)
(0.63788589 -0.19553482 0.0055718072)
(0.70508395 -0.20805051 0.0025913784)
(0.70570716 -0.20825606 0.0038792906)
(0.70579878 -0.20839139 0.0054168568)
(0.77475407 -0.22095299 0.0028486441)
(0.77533629 -0.2211745 0.0039527327)
(0.77542838 -0.22131957 0.0053156508)
(0.84591721 -0.23385502 0.0031631358)
(0.84641551 -0.23405999 0.0041035039)
(0.84651238 -0.23427102 0.0052327849)
(0.91841821 -0.24676343 0.003488361)
(0.91888271 -0.24703212 0.0042436187)
(0.91899945 -0.24725406 0.0052018901)
(0.99203705 -0.25963201 0.0038842305)
(0.99241592 -0.25983603 0.0044695851)
(0.99255109 -0.26011243 0.0052033616)
(1.0666841 -0.27231983 0.0043049487)
(1.067059 -0.27260876 0.0047276471)
(1.0672195 -0.2729654 0.0051923932)
(1.1420438 -0.28491841 0.0047442683)
(1.1422967 -0.28512399 0.0048882884)
(1.1425801 -0.28538049 0.0051641155)
(1.2532324 -0.071801921 0.0062039349)
(1.2535514 -0.072175577 0.0062361113)
(1.2536466 -0.072550265 0.0064218798)
(1.2409554 -0.14609851 0.0061301988)
(1.2413248 -0.14664127 0.0059324087)
(1.2412989 -0.14684975 0.0058294205)
(1.2300081 -0.2208124 0.005460649)
(1.2304282 -0.22109347 0.0054834761)
(1.2305169 -0.22130232 0.005377471)
(0.0087425845 0.0099083467 0.005447343)
(0.0086730045 0.011143282 0.0017504693)
(0.009235808 0.010749685 -0.0026507869)
(0.01639568 0.023451442 0.0065606219)
(0.017710606 0.023533628 0.00046384749)
(0.017352181 0.022623198 -0.0049213413)
(0.033567242 0.036725227 0.0066642822)
(0.033707917 0.036192013 0.0021117411)
(0.033705413 0.036316542 -0.0046787546)
(0.055077557 0.047261233 0.007109308)
(0.056391497 0.047020362 0.0020351388)
(0.056024186 0.047105466 -0.0035053335)
(0.083614303 0.05812708 0.0076721519)
(0.085138046 0.057457995 0.0026322363)
(0.084602282 0.057037772 -0.002330474)
(0.11779547 0.066350163 0.0076890187)
(0.1186077 0.065583568 0.0036913048)
(0.11870505 0.065383586 -0.0015841037)
(0.15659343 0.073464019 0.0081601615)
(0.15786826 0.072942049 0.0040506891)
(0.15778062 0.072511566 -0.00066027566)
(0.20049774 0.07921598 0.0083761856)
(0.20158497 0.078637409 0.0045633218)
(0.20138309 0.078355967 0.00030200459)
(0.24831142 0.08361291 0.0086210072)
(0.24956362 0.082613651 0.0050895236)
(0.24968804 0.082304719 0.0010985878)
(0.30052077 0.086029914 0.0085996688)
(0.30146861 0.085534595 0.0055177209)
(0.30160868 0.08497347 0.0016862342)
(0.35597491 0.087265898 0.0086190619)
(0.35690809 0.086745484 0.0056479568)
(0.3570575 0.086362152 0.0022655192)
(0.41465419 0.087114795 0.0084812667)
(0.41556054 0.086610521 0.0058161552)
(0.41574578 0.086251638 0.0027257797)
(0.47617814 0.08562093 0.0082697543)
(0.47701231 0.085148144 0.0058654078)
(0.47718395 0.084844634 0.0030441673)
(0.54022733 0.082877023 0.0079887635)
(0.5409679 0.08246037 0.005832905)
(0.54113732 0.082193174 0.0032656784)
(0.60648501 0.07899683 0.0076908281)
(0.60713169 0.078617826 0.0057367168)
(0.60730805 0.07838633 0.0034422776)
(0.67469283 0.074024122 0.0073406429)
(0.67527288 0.073692029 0.0056396295)
(0.67540596 0.073499193 0.003556566)
(0.74461916 0.068159654 0.0070893132)
(0.74508807 0.067823901 0.0055416582)
(0.74524182 0.06760495 0.0037051885)
(0.8160324 0.061252609 0.006826084)
(0.81646412 0.060962713 0.0054657305)
(0.81654835 0.060821238 0.0038510881)
(0.88870863 0.053712279 0.0066298213)
(0.88905761 0.05338981 0.0055358684)
(0.8891803 0.053166323 0.0040962545)
(0.96248033 0.045253239 0.0066875002)
(0.96284683 0.044947996 0.0055206315)
(0.96294433 0.044701929 0.0043974669)
(1.0372572 0.036085226 0.0065648217)
(1.0375803 0.035694507 0.0057106758)
(1.0376233 0.035495528 0.0048119665)
(1.1125998 0.026139639 0.0064680311)
(1.1128372 0.026032906 0.0059705127)
(1.112986 0.025644235 0.0052761008)
(1.1886978 0.015920891 0.0069116522)
(1.1888664 0.015490299 0.0063235236)
(1.1890984 0.01500993 0.0060352968)
(-0.00089008295 0.0037720502 -0.005208937)
(0.0086928123 0.014343134 -0.0052936901)
(0.023253053 0.017853045 -0.00382489)
(0.046876948 0.02351247 -0.0036221802)
(0.074972813 0.027814511 -0.0025575039)
(0.10895071 0.031126709 -0.0017787054)
(0.14797004 0.033466334 -0.00093956096)
(0.19147794 0.034692714 -0.00010224232)
(0.23940185 0.034868665 0.00055616884)
(0.29109511 0.033907347 0.0012832762)
(0.34631055 0.031889198 0.0017144561)
(0.40472635 0.028733271 0.0022258128)
(0.46593026 0.024616681 0.0025525291)
(0.52964287 0.0195057 0.0028117327)
(0.59557585 0.013454153 0.0030393295)
(0.66346791 0.0065414863 0.0032135021)
(0.73308477 -0.0011647564 0.0034138762)
(0.8042477 -0.0096495372 0.0036148493)
(0.87671939 -0.018804171 0.0038982152)
(0.95042525 -0.028598189 0.0042123116)
(1.0250957 -0.039020379 0.0046471193)
(1.100531 -0.049929989 0.0051167147)
(1.176828 -0.061678288 0.0058705626)
(-0.0040575069 0.0017537505 0.00069344951)
(0.0058936094 0.0023001914 0.00011593235)
(0.022173094 0.0005607412 0.0010938879)
(0.044812587 0.00092899633 0.000886253)
(0.07238264 -0.00054770644 0.0013592388)
(0.10600001 -0.0023747619 0.0019845457)
(0.14414568 -0.0047134919 0.0023748355)
(0.1871237 -0.0078808029 0.0028640535)
(0.23425943 -0.011932431 0.0033536382)
(0.28525646 -0.016519563 0.0036307461)
(0.339821 -0.022067721 0.0039428649)
(0.39756388 -0.02833651 0.0041515935)
(0.45812743 -0.035284848 0.004263323)
(0.52128034 -0.042976199 0.0043452375)
(0.58666761 -0.051296273 0.0043819647)
(0.65407943 -0.060235465 0.0043853691)
(0.72327931 -0.069713127 0.0044306407)
(0.7940537 -0.079739531 0.0044502737)
(0.86624025 -0.090168424 0.004592627)
(0.93965854 -0.10104777 0.0047041454)
(1.0141926 -0.11222233 0.0049130925)
(1.0894724 -0.12382402 0.005143832)
(1.1661574 -0.13552992 0.0054119102)
(-0.0051331967 -0.0045053994 0.0045601099)
(0.0073647717 -0.0075359199 0.004803277)
(0.022339323 -0.016992643 0.0067506675)
(0.043780256 -0.020019964 0.005264093)
(0.071402219 -0.0283192 0.0063161213)
(0.10415753 -0.034915128 0.0062532336)
(0.14151872 -0.042072478 0.0062420807)
(0.18384954 -0.050129248 0.0065693379)
(0.2301013 -0.057997362 0.0065195306)
(0.28043428 -0.06671201 0.0066247509)
(0.33416678 -0.075662307 0.0066062139)
(0.3911815 -0.085077922 0.006508656)
(0.45105526 -0.094904367 0.0064054481)
(0.51353883 -0.10512087 0.0062333047)
(0.57831793 -0.11571492 0.006058721)
(0.64516494 -0.12662968 0.0058840641)
(0.71385104 -0.13788794 0.0057235228)
(0.78416519 -0.1494013 0.0056051018)
(0.85593142 -0.16116106 0.0055424687)
(0.92903108 -0.17311618 0.0054722902)
(1.0031362 -0.18516267 0.0055165078)
(1.0784452 -0.19732676 0.0054217818)
(1.1542224 -0.20929488 0.0055724107)
(0.001510123 0.0033137995 0.0035153493)
(0.0015401814 0.0037154128 0.0014049724)
(0.0028329773 0.0031437641 -0.0020958084)
(0.011902611 0.013412061 0.0030936625)
(0.013502618 0.013345715 8.330204e-05)
(0.012232649 0.013389482 -0.0031124173)
(0.0278438 0.018920366 0.0035712881)
(0.028098106 0.018472886 0.00097245353)
(0.028081916 0.018150396 -0.001729262)
(0.049655945 0.024827045 0.0039776)
(0.051153949 0.024554299 0.0012871022)
(0.050629702 0.02390735 -0.0013764462)
(0.07794103 0.029167181 0.0041640714)
(0.079082133 0.028612955 0.0019776145)
(0.078882419 0.028021139 -0.00054360594)
(0.11144723 0.032560702 0.0048018354)
(0.11269681 0.032122439 0.0025691642)
(0.11222298 0.031467385 0.00023550482)
(0.14993554 0.034918491 0.0051850196)
(0.15116942 0.034460968 0.0030898973)
(0.15104837 0.033792926 0.0009808792)
(0.19318908 0.036213678 0.0055714256)
(0.19445468 0.035497191 0.0037214016)
(0.19427897 0.034834125 0.0015939443)
(0.24073972 0.036035521 0.0059459831)
(0.241941 0.035613656 0.0040951898)
(0.24184595 0.035093652 0.0023159402)
(0.29222429 0.035045903 0.0061499631)
(0.29337965 0.034509125 0.0045004852)
(0.29331218 0.033914362 0.0027453679)
(0.34722502 0.032822018 0.0063360755)
(0.34827623 0.032291488 0.004809745)
(0.34828193 0.031918349 0.003186511)
(0.40541553 0.029497151 0.0063897226)
(0.40643439 0.02910269 0.0049665179)
(0.4064907 0.028682616 0.0035029432)
(0.46649686 0.025232508 0.0063682687)
(0.46742091 0.024834349 0.0050710665)
(0.46748517 0.024508815 0.0037470753)
(0.53011374 0.019963871 0.0062909484)
(0.53094397 0.019653697 0.0050963966)
(0.53103173 0.019359649 0.0038822231)
(0.59596945 0.013849133 0.0061520101)
(0.59671967 0.013568333 0.0050719488)
(0.59681205 0.01331562 0.003991393)
(0.66384265 0.0069263476 0.0060039808)
(0.66448996 0.0066706848 0.0050398307)
(0.66457029 0.0064273154 0.0040558594)
(0.73341262 -0.0007728721 0.0058742416)
(0.73398616 -0.00099337259 0.004991263)
(0.73408346 -0.0012460445 0.0041505658)
(0.8045715 -0.009147533 0.0057599804)
(0.80507348 -0.0093964148 0.005019109)
(0.80510755 -0.0096168816 0.0042480955)
(0.8770213 -0.018096969 0.005708705)
(0.87740166 -0.018336021 0.0050385896)
(0.87752115 -0.018687346 0.0044408859)
(0.9505564 -0.027805552 0.0057849884)
(0.9510189 -0.028115825 0.0052312275)
(0.95103751 -0.028398212 0.0046364226)
(1.0251372 -0.038006764 0.0056575696)
(1.0256548 -0.038242135 0.0054285033)
(1.0255957 -0.038583219 0.0049773505)
(1.1005292 -0.048707779 0.0059268465)
(1.1007931 -0.048926709 0.005714198)
(1.1008497 -0.049441985 0.0053049744)
(1.1765287 -0.060116619 0.0060737111)
(1.1766901 -0.060583926 0.0059255219)
(1.1768819 -0.060968511 0.0058344074)
(-0.0015042189 0.00094904152 -9.6120759e-05)
(-0.0005615714 0.0012637314 -0.00054196068)
(0.00030472913 0.0014370257 4.8975585e-05)
(0.0096342416 0.0016647044 -0.00090025512)
(0.010792363 0.0020498285 -0.00055331175)
(0.0094649507 0.0015415358 -0.00049327925)
(0.025489547 0.0019911632 3.811463e-06)
(0.026311757 0.0014617865 0.00078034155)
(0.026146624 0.0013004392 0.00054629635)
(0.046923195 0.0013412712 0.0003467989)
(0.049119164 0.00089570127 0.00088471674)
(0.048003859 0.00012773423 0.00074114004)
(0.074937471 0.000606295 0.0011061875)
(0.076419585 -0.00020151668 0.0018986255)
(0.075560485 -0.00034311758 0.0010963665)
(0.10774988 -0.0011840445 0.0017134433)
(0.10939654 -0.0019244351 0.002092953)
(0.10870712 -0.002400132 0.0018392218)
(0.14572991 -0.0035091365 0.0021923898)
(0.14727873 -0.0044416482 0.0028509275)
(0.14671982 -0.0049164256 0.0022181774)
(0.18843268 -0.0068904586 0.0028728847)
(0.18992121 -0.0076377146 0.0032796599)
(0.18928907 -0.0078751102 0.0028101056)
(0.23524579 -0.010817237 0.0032641325)
(0.23662808 -0.011657773 0.0036695023)
(0.2362784 -0.012079421 0.0032292947)
(0.28610188 -0.015715934 0.0037164845)
(0.28742138 -0.016482904 0.004098476)
(0.28705664 -0.01671278 0.0036643708)
(0.34043701 -0.021381438 0.0040341096)
(0.34163378 -0.022034138 0.0043480743)
(0.34138665 -0.022299509 0.0039050896)
(0.39801592 -0.027768083 0.0042459491)
(0.39915479 -0.028385313 0.0045370349)
(0.39894943 -0.028566936 0.0041488854)
(0.45846608 -0.034870393 0.0044175297)
(0.45951662 -0.035435542 0.0046683486)
(0.45933854 -0.035584082 0.004275667)
(0.52150143 -0.042665683 0.0044896453)
(0.52246032 -0.043165276 0.0047069319)
(0.52232514 -0.043249951 0.0043463578)
(0.58682667 -0.051021709 0.004534195)
(0.58768898 -0.051483476 0.0047294983)
(0.58758121 -0.051578934 0.0043876438)
(0.65418697 -0.059991248 0.0045490469)
(0.65496691 -0.060416875 0.0047158138)
(0.65487033 -0.060487709 0.0043883413)
(0.72332982 -0.069423942 0.004582474)
(0.72402044 -0.069836171 0.0047321831)
(0.72393145 -0.069934229 0.0044311593)
(0.79408719 -0.079339997 0.0046194377)
(0.79468423 -0.0797735 0.0047610983)
(0.79462247 -0.079870316 0.0044560938)
(0.86618216 -0.089685271 0.0047520773)
(0.86673356 -0.090085739 0.0048396688)
(0.86665947 -0.090282618 0.0046124983)
(0.93955141 -0.1003988 0.0048373203)
(0.93997531 -0.10099033 0.0050152567)
(0.93994968 -0.10107556 0.0047205395)
(1.0140495 -0.11141732 0.0052373233)
(1.0142376 -0.11194484 0.0050780187)
(1.0143846 -0.11213859 0.0049829999)
(1.0890923 -0.12299659 0.0053796014)
(1.0894172 -0.12329231 0.0054706915)
(1.0893915 -0.12367754 0.0051749301)
(1.1652214 -0.13444249 0.0056801798)
(1.1656994 -0.13499024 0.0056313436)
(1.1658392 -0.13515626 0.0055467811)
(-0.0012773245 -0.0031249426 -0.0020426004)
(-0.0015028262 -0.0027338403 4.6377002e-05)
(-0.0015132719 -0.0026443612 0.0021349324)
(0.010971392 -0.0084207036 -0.0026036145)
(0.012117153 -0.0068376681 0.00031334318)
(0.011028754 -0.0078034768 0.0027194115)
(0.025034944 -0.014411166 -0.0021267272)
(0.026307136 -0.016152237 0.00067777833)
(0.02623345 -0.016278363 0.0036305163)
(0.047232152 -0.021213182 -0.0017322907)
(0.048099052 -0.020570385 0.0010149831)
(0.047898992 -0.02116962 0.0032618323)
(0.073869682 -0.027188671 -0.0010141299)
(0.075075006 -0.028119439 0.0014079796)
(0.0749399 -0.028416593 0.0035995108)
(0.10628577 -0.03432934 -0.00055600213)
(0.10740672 -0.034855039 0.0017832048)
(0.10723763 -0.035349907 0.0038245001)
(0.14358512 -0.041747119 0.0001812648)
(0.14462283 -0.042206421 0.0024549687)
(0.14458453 -0.04245865 0.0041613006)
(0.18539995 -0.049319266 0.00083324839)
(0.18638131 -0.04994784 0.0026402448)
(0.18643266 -0.050494101 0.0044341225)
(0.23149138 -0.057622048 0.0013616152)
(0.23247704 -0.058175494 0.0032341676)
(0.23251588 -0.058447149 0.0048091658)
(0.28151096 -0.066303125 0.0019564254)
(0.28243332 -0.066780092 0.003542995)
(0.28250526 -0.067109939 0.004932574)
(0.335056 -0.07537313 0.0023704604)
(0.33593875 -0.075868749 0.0038293051)
(0.33606597 -0.076123289 0.0051220568)
(0.39188735 -0.08493769 0.0027620592)
(0.39270617 -0.085356966 0.0040603127)
(0.3928368 -0.085562979 0.0051855134)
(0.45159668 -0.094860233 0.0030550218)
(0.45234971 -0.095244358 0.004198122)
(0.45252072 -0.095399189 0.0052092698)
(0.51395024 -0.10515876 0.0032682294)
(0.5146458 -0.10548323 0.0042846128)
(0.51481705 -0.10560787 0.0051747271)
(0.57863154 -0.11578739 0.0034508396)
(0.57924518 -0.1160713 0.0043316342)
(0.57944936 -0.11618694 0.0051131651)
(0.64539849 -0.12670444 0.0035798795)
(0.64596721 -0.12698321 0.0043619806)
(0.6461594 -0.12708141 0.0050331546)
(0.71401219 -0.13790508 0.0037155004)
(0.71447992 -0.13815202 0.0043819824)
(0.714705 -0.13825858 0.0049747622)
(0.78427248 -0.14933708 0.0038614581)
(0.78472075 -0.14960078 0.0044464781)
(0.784945 -0.14974496 0.0049303905)
(0.85595415 -0.16099619 0.0040261684)
(0.85630494 -0.16127423 0.0045136435)
(0.85651799 -0.16139724 0.0049454363)
(0.92895872 -0.17280377 0.0042879101)
(0.92930148 -0.17309087 0.004672191)
(0.9295759 -0.17328688 0.0049898885)
(1.0029699 -0.18478434 0.0044616949)
(1.0032265 -0.18506817 0.0047940117)
(1.0034639 -0.18525174 0.0050721826)
(1.0780589 -0.19680657 0.0048176734)
(1.07831 -0.19713184 0.0051044676)
(1.0786543 -0.19734566 0.0052257964)
(1.153726 -0.20888764 0.005142886)
(1.1539374 -0.20900144 0.0052496095)
(1.1542264 -0.20941798 0.0052328219)
)
;

boundaryField
{
    free
    {
        type            calculated;
    }
    fixed
    {
        type            calculated;
    }
    traction
    {
        type            calculated;
    }
}


// ************************************************************************* //
