/*--------------------------------*- C++ -*----------------------------------*\
  =========                 |
  \\      /  F ield         | OpenFOAM: The Open Source CFD Toolbox
   \\    /   O peration     | Website:  https://openfoam.org
    \\  /    A nd           | Version:  6
     \\/     M anipulation  |
\*---------------------------------------------------------------------------*/
FoamFile
{
    version     2.0;
    format      ascii;
    class       pointScalarField;
    location    "1.82";
    object      p;
}
// * * * * * * * * * * * * * * * * * * * * * * * * * * * * * * * * * * * * * //

dimensions      [1 -1 -2 0 0 0 0];

internalField   nonuniform List<scalar> 
625
(
-18599.781
26549.535
5127.1694
6446.6777
-1395.8302
54762.789
4792.2537
12.520165
-2208.0449
1421.8105
3578.9613
-15680.996
548.1786
4505.8679
-1649.1933
-646.07251
5091.2479
9943.8481
12679.246
17895.858
20832.303
25180.19
28756.862
31701.15
34989.718
38294.234
40294.655
42434.841
43877.328
44798.905
43692.326
43953.521
41542.451
37295.372
32970.969
23748.631
17066.573
509.35225
-4043.5765
-10040.789
-14669.455
-20595.487
-24706.247
-30277.546
-33260.727
-38897.831
-42324.336
-46081.531
-49446.636
-52379.599
-54072.317
-55282.862
-55733.436
-54072.64
-52140.177
-47490.941
-42700.453
-35478.965
-25304.095
-12847.097
17620.369
4367.3182
-1893.179
5202.1576
2377.6925
-7595.8237
-8709.5221
-16430.686
-20139.399
-21295.66
-29854.573
-33327.347
-39180.542
-41357.262
-47482.466
-48045.673
-51879.245
-52112.641
-52392.908
-51459.852
-48376.985
-44522.501
-39298.642
-31003.542
-23354.333
-11852.978
4069.6935
490.04861
-8739.4188
23542.172
28738.7
35900.672
44561.898
52588.845
56881.945
60476.722
62996.304
63511.446
62923.425
61647.621
58903.167
55719.1
50710.167
45924.847
43272.935
35536.035
32013.396
25920.955
18728.877
15452.689
10260.481
-828.02164
-18900.896
-22025.352
-17415.783
35694.946
45036.455
49065.499
16654.535
14825.715
17750.392
-6505.8736
-434.36469
-4205.3258
-1757.0506
1046.4672
3235.1094
4899.0417
7569.1288
10646.552
13111.244
15758.949
18388.918
20982.868
23569.55
25275.627
26929.007
27912.249
28877.559
28000.83
27806.313
26623.769
23638.536
23089.438
18250.747
10129.157
7331.5623
-2343.7305
-1921.8717
-4122.6796
-4283.3075
-5780.7867
-6652.9817
-7958.5004
-8765.8791
-9806.3356
-10744.72
-11775.023
-12294.506
-12854.407
-12770.644
-12880.516
-12291.244
-11200.983
-10267.797
-8764.149
-6639.9011
-6312.6422
-1215.3844
754.04395
-1140.9216
-5922.3469
-9683.2916
-12515.729
-16323.079
-19593.727
-23448.075
-26258.314
-28908.021
-31447.977
-33301.646
-34934.042
-35627.348
-36462.123
-35934.848
-34938.214
-33410.105
-30369.945
-27559.004
-22505.963
-16799.635
-12889.84
-4636.4186
-4119.671
-1449.1506
3669.3222
-2157.0993
2460.432
6538.8428
-905.88278
3941.9699
5930.5302
5491.2847
5324.3421
9925.4263
-1053.1274
1320.7547
2128.6608
-11150.781
-9678.577
-8201.278
-15377.946
-12844.3
-12632.093
-20643.858
-17985.681
-16670.603
-25294.128
-22664.673
-21245.462
-30543.643
-27320.725
-25939.642
-36047.789
-30418.848
-31239.943
-40512.513
-35436.462
-35512.466
-44921.39
-39849.065
-40275.324
-48844.496
-43062.182
-43831.399
-52177.712
-46862.594
-47799.7
-54735.632
-49074.213
-50569.207
-56249.547
-51289.041
-52773.116
-57284.913
-52090.864
-54182.876
-56445.424
-52198.892
-53936.944
-54933.94
-50419.947
-52978.56
-51277.979
-48345.991
-50421.837
-47411.608
-44079
-45875.207
-40893.456
-38249.963
-40452.332
-32533.317
-31023.823
-32883.833
-24213.003
-25297.709
-25184.614
-18236.44
-14874.016
-17473.804
-20724.379
-22349.006
-23788.842
96.91858
-300.51013
757.92055
6323.917
7575.989
5048.9158
-2355.3669
-816.4633
721.6107
1507.2418
1159.3721
3089.8449
8235.6273
8441.0153
11486.026
12449.539
13741.338
16592.262
16939.23
16907.449
21024.874
22967.863
22472.27
27265.43
27312.801
26231.978
32942.023
32661.47
30549.547
35897.143
36385.997
34439.336
43101.177
41512.067
37753.291
47002.72
46083.756
41212.687
50701.148
49405.613
43585.716
54184.322
52311.655
46257.164
56830.587
54696.894
47663.851
58340.273
55980.031
48710.693
59128.249
55900.564
48634.743
58516.307
54972.696
47995.087
57229.028
53039.579
46071.494
53934.594
48071.864
42302.227
49376.786
44211.519
36514.906
44790.875
37433.595
32156.734
37333.622
27711.04
26625.325
27294.331
26333.596
27335.243
28653.171
5722.7136
10223.093
8857.6847
12802.962
17412.402
19338.712
22936.554
26012.556
28341.785
30515.005
32788.207
34027.31
34566.257
35297.998
34543.053
33963.295
31769.634
30076.033
26810.774
22262.43
17791.961
10874.383
2617.3618
1179.2949
3381.86
2245.8418
5080.4158
5721.815
6284.7811
7282.121
7512.6274
8151.4922
8324.7621
9390.4498
9115.5295
10229.003
10188.201
10953.622
10963.467
11167.171
11584.373
10293.796
10114.521
9820.4639
7674.7506
5052.1418
1331.3353
2335.1905
2795.0934
-2171.0502
-2859.6188
-6388.9104
-9138.3986
-9229.9674
-12052.106
-13686.617
-15484.117
-16850.572
-19026.641
-19999.183
-22124.23
-23200.832
-23977.425
-24870.975
-24580.476
-22533.698
-20419.863
-14968.379
-12472.658
-2417.5468
1213.8286
-185.3626
3961.6143
4545.6947
6270.3424
4892.1275
7613.701
10826.689
6137.7611
10056.332
9706.7334
10787.211
13582.733
15982.813
10584.817
16289.737
18546.273
14305.486
20226.071
20936.767
15924.129
22430.183
25283.118
18580.671
25539.271
28256.813
19791.757
28556.177
30229.742
21447.206
30279.702
32280.798
22368.547
32488.097
34495.41
23578.918
33587.871
35154.132
24012.681
34231.424
35931.963
23965.231
34024.975
35585.415
23549.481
33567.582
34847.649
23245.922
32116.519
33185.437
21530.708
29894.716
30117.98
19527.306
26161.542
27823.662
15892.527
25977.427
23964.26
12529.607
18261.063
16983.629
10745.98
11340.176
14201.3
2077.1999
-304.85721
522.2279
745.17597
1123.4086
4191.3584
-844.95231
-477.14082
1789.1039
-2304.0564
-955.99563
1236.3145
-1219.1314
351.98971
2130.7765
-2317.6364
-291.46266
2550.4514
-2363.4145
152.53948
2179.9969
-2844.6556
205.59169
2363.6175
-3550.9419
85.076146
1857.7736
-3821.886
-91.559526
1145.2491
-3977.8175
-307.53576
1227.947
-4384.4416
-57.617012
259.75935
-3802.0038
108.20462
-36.042291
-3588.6258
659.38675
-493.9725
-2512.25
928.77848
-893.08319
-2070.4134
1766.1783
-508.52585
-462.08923
2941.0635
-818.07795
879.0338
3288.256
-495.86743
1294.6052
3863.1605
-519.92932
3190.7829
4500.694
1250.925
4108.049
5416.5584
-1047.2544
3612.095
-242.25521
-536.32188
5499.8683
5215.2013
1723.0041
5554.7968
6034.4767
5888.6128
-702.27596
4368.6751
513.51754
-1591.2415
-907.65252
818.58976
-4949.7279
-777.71022
850.25807
-8352.5929
-6374.3312
-4130.3686
-12061.793
-8590.6848
-6792.8034
-15172.577
-12408.469
-9642.6826
-17520.145
-14631.584
-11987.796
-20567.688
-18250.973
-16112.994
-22332.123
-20567.977
-16249.982
-25095.975
-22326.962
-19337.684
-26047.322
-24875.129
-21059.035
-27290.656
-26476.497
-22311.7
-28059.358
-28560.064
-23799.77
-28393.774
-29813.876
-24647.967
-28073.633
-31126.015
-25077.749
-27701.016
-31778.247
-26048.833
-26825.246
-32715.472
-25694.259
-25523.718
-31503.238
-24611.502
-23028.847
-30125.365
-24504.619
-20541.643
-29087.367
-21833.771
-17696.733
-23784.343
-18115.727
-12025.568
-16383.822
-9683.2395
-5813.4168
-11412.14
-8527.9592
)
;

boundaryField
{
    free
    {
        type            calculated;
    }
    fixed
    {
        type            calculated;
    }
    traction
    {
        type            calculated;
    }
}


// ************************************************************************* //
