/*--------------------------------*- C++ -*----------------------------------*\
  =========                 |
  \\      /  F ield         | OpenFOAM: The Open Source CFD Toolbox
   \\    /   O peration     | Website:  https://openfoam.org
    \\  /    A nd           | Version:  6
     \\/     M anipulation  |
\*---------------------------------------------------------------------------*/
FoamFile
{
    version     2.0;
    format      ascii;
    class       pointScalarField;
    location    "1.02";
    object      p;
}
// * * * * * * * * * * * * * * * * * * * * * * * * * * * * * * * * * * * * * //

dimensions      [1 -1 -2 0 0 0 0];

internalField   nonuniform List<scalar> 
625
(
1322428.5
-1851646.4
9709.1739
12762.416
2132693.7
-3916286.7
11567.581
4350.1716
935418.55
-53524.862
-141025.67
-8917.744
7235.0415
9952.7814
539007.4
590173.89
562933.68
555251.16
480541.82
463168.66
413056.18
370571.69
348162.26
300616.89
273647.48
244464.06
214228.21
189454.21
164263.79
142483.81
118601.71
101940.71
80846.554
64010.878
48484.988
30905.614
20671.306
-646563.29
-398425.16
-554546.7
-421067.01
-382575.9
-382461.77
-318358.9
-295326.56
-270076.82
-238628.36
-216003.13
-188973.56
-171081.6
-146498.88
-128047.73
-109365.73
-90562.875
-74734.907
-57509.778
-44265.967
-29001.631
-16803.725
-3812.4469
1323708.6
-193833.18
-407824.6
-722288.88
-905454.95
-645959.14
-542477.83
-654884.86
-456670.38
-434651.11
-398492.15
-359786.43
-331916.76
-281635.35
-257508.33
-220122.13
-192355.15
-164921.71
-137762.37
-115311.94
-92421.006
-71775.206
-53210.757
-35207.983
-20153.884
-3318.4603
10257.462
5447.8981
-2338.2866
25840.073
35651.909
48242.545
66054.292
85734.134
105331.4
126893.74
149256.49
172982.24
198665.65
222649.6
256048.69
279245.75
314533.32
331598.6
401513.46
419793.02
446691.54
547445.42
507941.15
652782.84
540976.43
622282.12
1356393.6
1327955.9
1327530.7
-2121123
-2168104.1
-2176389.4
18768.478
18712.033
21820.788
-1382.834
4238.2791
968.14648
341805.17
356987.25
357984.7
313211.55
288892.68
282386.36
242550.48
233228.9
204088.82
183832.93
168444.91
148284.54
130224.68
114907.82
99620.519
84451.009
71982.739
59907.704
47136.309
39917.134
28704.596
18630.492
13402.257
-47274.099
-33186.867
-53425.341
-13083.156
-35209.321
-20340.65
-18712.269
-12392.633
-13963.771
-9079.9505
-8326.6449
-7401.6926
-5840.4572
-3112.6653
-2995.7104
-1154.0721
448.06159
1370.7285
2533.9152
3988.2447
3237.7926
7776.3228
7785.7108
-402400.96
-326433.67
-294847
-247579.48
-286392.73
-212959.66
-211478.32
-187964.06
-166197.28
-148648.03
-132554.03
-116986.6
-101762.68
-88773.504
-76292.29
-63742.22
-52729.169
-41269.676
-31825.746
-20730.312
-12968.539
-6532.1809
2153.8353
888594.38
783347.8
784869.22
-106340.33
-79061.837
-174342.31
-69969.86
-164814.81
-331985.82
-1008619.5
-1010621.4
-1081108.6
-780377.99
-741718.93
-733972.3
-616701.39
-586126.5
-634129.46
-472563.94
-485602.52
-500031.68
-461090.09
-471552.33
-501066.77
-408291.35
-392310.6
-413992.1
-372732.63
-380144.99
-403452.42
-338320.69
-325572.61
-350564.16
-305609.56
-297647.25
-314758.39
-271458.2
-261729
-284541.99
-240316.99
-234431.82
-250755.03
-215700.72
-207161.66
-221919.98
-187230.98
-180470.78
-194730.79
-163540.96
-156606.11
-168748.96
-141104.53
-134461.17
-145891.18
-119310.75
-113469.67
-122286.48
-99416.429
-93189.25
-101497.03
-80074.777
-75708.823
-82121.077
-62575.161
-57732.324
-62547.116
-45998.192
-42615.744
-46550.86
-29021.951
-26890.289
-29546.266
-17127.952
-18004.319
-18386.619
-7959.0199
-3573.0599
-5962.2246
-12884.186
-13796.452
-14875.436
5215.5131
4917.6002
7049.1788
13370.32
15044.149
14421.531
714691.86
639697.85
656764.6
644415.9
601163.96
655411.35
665590.29
578508.81
592142.44
558310.04
501311.38
547440.31
534054.06
503054.13
500398.74
492934
425757.01
452816.84
438460.23
402960.06
422295.99
409224.26
364192.61
370777.06
365631.42
327240.54
342290.71
325474.09
295402.53
310461.07
297166.89
263425.68
272396.99
262474.75
233786.72
246613.12
230745.76
208221.18
216919.52
203718.8
183601.26
190757.54
176360
159955.38
166451.56
150958.14
138058.68
143027.06
127847.77
117458.51
121688.2
105925.33
97890.918
101099.61
83778.276
79056.293
81394.622
66476.427
60638.89
64960.708
49060.012
44419.293
47499.148
33521.532
33162.43
33406.416
27298.76
27671.372
29509.591
308004.59
401052.88
300126.45
334915.02
291426.91
273874.93
263565.74
221922.4
214341.33
186361.94
173532.82
151093.22
134376.05
120406.32
104222.99
91805.069
77888.341
66058.218
54332.105
42419.706
31877.017
20883.147
7378.7564
-78856.581
6950.0087
-11062.926
30374.51
29308.864
31335.101
29133.602
37226.778
23692.719
33591.115
29445.634
28644.137
28200.518
25901.237
25211.646
23930.186
21894.327
21296.043
18171.995
16850.012
15645.885
11760.237
9360.1064
-239210.01
-227490.76
-340696.18
-302360.72
-283545.94
-293665.43
-242336.58
-233470.15
-196795.27
-180838.25
-161065.19
-139585.55
-123796.07
-105413.27
-91385.546
-76534.536
-63431.575
-51261.222
-40769.588
-29225.996
-20978.194
-10147.403
-7020.9632
436472.78
518800.25
427968.38
414979.16
428442.63
362017.09
290002.2
301259.75
333955.11
265124.73
342494.27
274150.41
301005.89
252285.82
263980.4
216946.49
257970.79
251995.32
221983.26
242406.25
215353.7
207290.84
204984.75
206290.36
175044.84
189973.37
192490.54
167244.32
179128.66
162824.07
147057.72
155034.85
153336.76
128101.46
141660.57
137340.59
118479.73
124505.09
123127.26
102551.96
109630.53
109270.3
89695.564
94965.207
96135.792
77312.841
83047.815
83092.017
66711.432
69521.066
71370.238
54801.296
58353.83
59111.823
45187.013
46344.991
48831.268
35903.962
39339.686
38885.328
25289.214
27318.361
26734.585
19758.455
18366.772
21595.799
7862.6066
4909.7837
5283.9886
-95014.955
-126345.98
-116834.24
-37858.416
-16910.063
-53794.25
5149.7936
-14640.94
-35509.06
9654.5971
-15791.393
-59766.12
3794.8466
415.66854
-1752.4375
8836.6079
20971.554
-26027.344
27354.369
10817.339
-13600.851
4653.9803
21639.647
-5725.8716
22676.343
24579.175
-9783.9068
19758.953
21161.842
-1209.196
15732.211
21682.015
-1620.2447
19152.759
25182.19
1285.4473
18385.65
22450.042
2094.8923
16764.856
21649.066
4466.6522
15649.33
22131.252
6101.2585
15913.874
20781.532
6419.4173
14423.531
18870.26
8008.7879
13179.778
18504.972
7664.6282
13779.126
15450.969
10013.105
13275.248
14645.283
6988.391
11178.046
8199.3023
8057.9966
10960.976
12617.795
9002.2704
10954.107
11768.622
12167.544
-396889.5
-459657.9
-529390.53
-280584.47
-228924.09
-367981.52
-259306.82
-403690.1
-385168.53
-344866.16
-289791.92
-340786.7
-244962.84
-295430.54
-309408.13
-229948.05
-276590.88
-289360.71
-225293.59
-243111.84
-258078.78
-185610.78
-223139.71
-244308.21
-167057.09
-203018.61
-213137.26
-153875.29
-181262.6
-189433.18
-132749.73
-158813.16
-168375.4
-116235.67
-140345.09
-147237.69
-101249.6
-125951.42
-128538.69
-88471.472
-107512.26
-110130.75
-74065.179
-93298.292
-93720.342
-63138.993
-78955.053
-79857.814
-51721.624
-66219.231
-64912.502
-41913.949
-52689.277
-52439.831
-31555.884
-42184.329
-41144.798
-23891.321
-30437.786
-29132.356
-15893.942
-21533.931
-19884.682
-5716.8446
-7873.041
-3920.9719
74.9784
-4804.115
-5517.9608
)
;

boundaryField
{
    free
    {
        type            calculated;
    }
    fixed
    {
        type            calculated;
    }
    traction
    {
        type            calculated;
    }
}


// ************************************************************************* //
