/*--------------------------------*- C++ -*----------------------------------*\
  =========                 |
  \\      /  F ield         | OpenFOAM: The Open Source CFD Toolbox
   \\    /   O peration     | Website:  https://openfoam.org
    \\  /    A nd           | Version:  6
     \\/     M anipulation  |
\*---------------------------------------------------------------------------*/
FoamFile
{
    version     2.0;
    format      ascii;
    class       pointVectorField;
    location    "0.62";
    object      lm;
}
// * * * * * * * * * * * * * * * * * * * * * * * * * * * * * * * * * * * * * //

dimensions      [1 -2 -1 0 0 0 0];

internalField   nonuniform List<vector> 
28033
(
(0 0 0)
(0 0 0)
(3506.5644 -1080.2561 5.7450013)
(3433.1998 -1354.398 15.37433)
(0 0 0)
(0 0 0)
(3424.1046 -1346.1925 16.709675)
(3506.2881 -1070.0527 3.870399)
(0 0 0)
(0 0 0)
(0 0 0)
(0 0 0)
(0 0 0)
(0 0 0)
(0 0 0)
(0 0 0)
(0 0 0)
(0 0 0)
(0 0 0)
(0 0 0)
(0 0 0)
(0 0 0)
(0 0 0)
(3414.7837 -1068.2701 6.5098608)
(3298.8441 -1047.9764 7.1864142)
(3212.5011 -1036.3223 7.9105997)
(3167.3395 -1037.7533 8.6832502)
(3168.8553 -1054.6464 9.447954)
(3215.3556 -1087.1199 10.305311)
(3298.2319 -1132.9751 11.198572)
(3403.3691 -1187.773 12.161005)
(3513.3398 -1245.67 13.084824)
(3609.9156 -1300.2548 13.944872)
(3677.3166 -1345.3511 14.723962)
(3703.9394 -1376.137 15.180168)
(3684.7227 -1390.0879 15.613501)
(3621.4255 -1386.9978 15.717783)
(3526.9252 -1371.1649 15.551868)
(49.303123 47.472742 43.568554)
(84.205928 71.698185 46.938291)
(119.31716 89.576775 47.370654)
(154.8992 103.6927 44.886309)
(188.39762 114.65078 41.064944)
(221.03173 122.89595 37.352598)
(251.4232 129.16588 34.048006)
(279.68911 133.3391 31.494309)
(305.65146 136.64349 29.918785)
(329.28506 138.551 29.314886)
(350.41973 140.33721 29.908478)
(369.61909 141.64708 31.110021)
(386.87521 143.35107 33.445151)
(402.86726 145.24511 36.044608)
(417.51119 147.91337 39.503773)
(431.79005 151.15703 42.920992)
(445.65652 155.30317 46.810357)
(459.81507 160.26093 50.569592)
(474.49519 166.26951 54.479052)
(490.26042 173.00838 58.127635)
(507.26643 180.58639 61.734002)
(526.18619 188.99756 64.99536)
(547.00472 197.86182 68.125541)
(570.3855 207.35341 70.835242)
(596.49299 217.04315 73.205494)
(625.65618 226.78086 75.11941)
(658.17093 236.35723 76.597199)
(694.277 245.5336 77.49865)
(734.1613 253.87259 77.773577)
(777.96306 261.26575 77.483615)
(825.74179 267.30108 76.444789)
(877.42282 271.71693 74.761551)
(933.00579 274.32216 72.422222)
(992.26337 274.79234 69.456099)
(1055.1166 273.0379 65.871228)
(1121.1164 268.80947 61.784157)
(1189.9514 262.1949 57.365601)
(1261.3969 253.02376 52.573774)
(1334.879 241.30484 47.594569)
(1410.1867 227.19911 42.593367)
(1486.8791 210.69548 37.5652)
(1564.6236 191.95514 32.701107)
(1643.1167 171.05406 28.027449)
(1722.062 148.15072 23.591392)
(1801.1923 123.42128 19.477429)
(1880.3225 96.982787 15.642262)
(1959.2612 68.978014 12.121025)
(2037.8533 39.521582 8.8677956)
(2115.9634 8.7467826 5.857056)
(2193.4757 -23.252584 3.0435369)
(2270.2659 -56.354453 0.37878097)
(2346.2291 -90.477781 -2.1781024)
(2421.2439 -125.50564 -4.6721375)
(2495.1869 -161.36183 -7.1320187)
(2567.9276 -197.93439 -9.5851694)
(2639.3169 -235.14237 -12.040074)
(2709.204 -272.88204 -14.506303)
(2777.4161 -311.06856 -16.972933)
(2843.7767 -349.60579 -19.428877)
(2908.0924 -388.40443 -21.855319)
(2970.166 -427.36713 -24.227496)
(3029.7803 -466.40914 -26.517538)
(3086.7417 -505.42091 -28.691468)
(3140.7957 -544.2626 -30.707135)
(3191.7834 -582.83107 -32.63021)
(3239.4649 -621.04896 -34.183418)
(3283.6335 -658.51242 -35.545225)
(3324.1491 -695.25201 -36.626344)
(3360.8766 -731.00019 -37.470496)
(3393.7077 -765.46382 -37.790773)
(3422.6069 -798.4942 -37.851593)
(3447.6243 -829.80563 -37.531441)
(3468.7815 -859.15872 -36.760317)
(3486.2308 -886.45114 -35.614651)
(3500.1754 -911.44866 -34.09664)
(3510.8226 -934.08563 -32.221032)
(3518.5257 -954.27841 -30.04573)
(3523.5029 -972.02642 -27.599422)
(3526.2325 -987.3952 -24.948261)
(3526.8859 -1000.4408 -22.128349)
(3525.9564 -1011.4141 -19.215359)
(3523.6764 -1020.3794 -16.273511)
(3520.3603 -1027.6641 -13.294248)
(3516.2566 -1033.4292 -10.381638)
(3511.5907 -1038.0969 -7.6402563)
(3506.5364 -1041.6755 -5.000575)
(3501.2522 -1044.6091 -2.6485724)
(3495.8224 -1046.998 -0.46726742)
(3490.3476 -1049.0749 1.3439179)
(3484.9603 -1051.0784 2.8853563)
(3479.4874 -1052.8435 4.0608376)
(3474.3015 -1055.0168 4.8913878)
(3469.023 -1056.9171 5.3820207)
(3463.8956 -1059.1833 5.7247796)
(3459.1768 -1061.5556 5.6923637)
(11.216161 -49.763933 -51.978807)
(43.713425 -59.978568 -46.76669)
(79.933602 -76.559024 -45.812828)
(114.50134 -82.972589 -33.312699)
(151.16183 -91.542329 -23.882536)
(184.93672 -99.04683 -13.705715)
(216.10321 -102.38164 -5.0391287)
(244.10369 -106.94343 2.1502862)
(269.20966 -109.22082 7.4295239)
(290.34081 -111.12134 10.673237)
(308.68957 -112.40129 12.410877)
(323.94563 -113.51636 12.352102)
(336.86623 -114.75935 11.197314)
(347.69517 -116.18314 8.8469125)
(357.07599 -118.36866 5.862078)
(365.22071 -121.14702 2.1388903)
(372.69418 -124.94824 -1.8906053)
(379.89585 -129.95098 -6.1856652)
(387.01722 -135.95141 -10.728533)
(394.44721 -143.57553 -15.337229)
(402.52263 -152.33816 -19.985099)
(411.47342 -162.77968 -24.601666)
(421.57862 -174.61215 -29.115298)
(433.36508 -188.09933 -33.388804)
(446.81415 -203.18359 -37.348781)
(462.72332 -219.97275 -40.760097)
(480.98107 -238.45918 -43.638078)
(502.33106 -258.57407 -45.681211)
(526.68152 -280.46364 -46.950438)
(554.59793 -303.85738 -47.138213)
(586.00216 -328.9436 -46.406534)
(621.16577 -355.39515 -44.585279)
(660.0296 -383.25083 -41.773818)
(702.61816 -412.29971 -37.994511)
(748.77697 -442.38213 -33.412859)
(798.36132 -473.32647 -28.144679)
(851.09869 -504.8477 -22.310833)
(906.6966 -537.02195 -16.219135)
(964.94927 -569.37593 -9.9310133)
(1025.5468 -601.98324 -3.6391096)
(1088.1889 -634.58271 2.4943993)
(1152.5942 -667.08547 8.3332935)
(1218.5302 -699.39592 13.795226)
(1285.7615 -731.42799 18.794939)
(1354.097 -763.12689 23.295657)
(1423.3648 -794.44191 27.276025)
(1493.4139 -825.33892 30.73554)
(1564.1184 -855.78721 33.695872)
(1635.3564 -885.76085 36.184865)
(1707.0265 -915.23051 38.24737)
(1779.0257 -944.17421 39.932722)
(1851.2625 -972.55713 41.299811)
(1923.6454 -1000.353 42.416303)
(1996.0888 -1027.5298 43.356149)
(2068.5059 -1054.0543 44.202549)
(2140.8149 -1079.8961 45.045632)
(2212.9278 -1105.0231 45.978861)
(2284.7524 -1129.3969 47.095809)
(2356.1856 -1152.9815 48.485845)
(2427.106 -1175.7275 50.222216)
(2497.3673 -1197.578 52.360007)
(2566.7944 -1218.4637 54.924195)
(2635.1783 -1238.3012 57.904656)
(2702.2655 -1256.9894 61.249596)
(2767.7766 -1274.4243 64.869071)
(2831.387 -1290.4812 68.634497)
(2892.7842 -1305.0463 72.359118)
(2951.5436 -1318.0465 75.902486)
(3007.4903 -1329.2963 79.085195)
(3060.0384 -1338.8744 81.389598)
(3108.9323 -1346.2749 83.091785)
(3154.2211 -1352.3386 83.802139)
(3195.3654 -1356.3254 83.420412)
(3232.4093 -1358.7327 81.877012)
(3265.3503 -1359.577 79.236457)
(3294.2058 -1359.0754 75.513122)
(3319.1434 -1357.4519 70.87394)
(3340.3742 -1354.9424 65.49251)
(3358.2031 -1351.8497 59.586903)
(3372.931 -1348.3986 53.41328)
(3384.93 -1344.8848 47.216059)
(3394.5534 -1341.5162 41.226446)
(3402.156 -1338.5019 35.664816)
(3408.0662 -1335.9875 30.684241)
(3412.5825 -1334.0945 26.419254)
(3415.9491 -1332.8648 22.9136)
(3418.3806 -1332.3347 20.191411)
(3420.0297 -1332.4637 18.202424)
(3421.0216 -1333.201 16.861043)
(3421.4365 -1334.4587 16.062349)
(3421.336 -1336.1361 15.655186)
(3420.7504 -1338.1126 15.518922)
(3419.7078 -1340.2665 15.498342)
(3418.2447 -1342.482 15.484436)
(3423.0986 -1347.3128 15.424099)
(0 0 0)
(0 0 0)
(0 0 0)
(0 0 0)
(0 0 0)
(0 0 0)
(0 0 0)
(0 0 0)
(0 0 0)
(0 0 0)
(0 0 0)
(0 0 0)
(0 0 0)
(0 0 0)
(0 0 0)
(25.859099 -23.580163 43.842842)
(48.164939 -75.012101 48.352101)
(78.344986 -72.344432 46.172558)
(110.34184 -91.542945 41.717341)
(145.2732 -95.761305 36.093572)
(175.4947 -103.59313 27.234613)
(207.00138 -108.15594 22.640069)
(231.96293 -112.73096 17.112113)
(257.5096 -115.4842 15.47027)
(276.54095 -116.51237 13.677806)
(294.03445 -118.27324 14.762451)
(309.8777 -119.23179 16.410075)
(321.69691 -119.9435 19.547492)
(333.60845 -120.98038 22.974434)
(342.69526 -122.69758 27.352787)
(351.51685 -124.34833 31.291753)
(361.11888 -128.58327 36.006003)
(368.70461 -131.29169 39.910944)
(378.03299 -138.15657 44.080685)
(386.95513 -143.92146 47.596117)
(396.86798 -152.67137 50.988393)
(408.52123 -162.46494 53.930511)
(420.58547 -174.09747 56.67514)
(434.5716 -187.39043 58.750381)
(450.2796 -202.41738 60.500577)
(468.37855 -219.27252 61.822905)
(488.03867 -237.70572 62.478552)
(511.59729 -258.57673 62.800138)
(536.42379 -280.19084 62.258199)
(565.63318 -304.57425 61.303259)
(597.6306 -329.92953 59.676352)
(632.97761 -356.83355 57.39799)
(671.69653 -385.0473 54.571914)
(713.79948 -414.34245 51.216665)
(760.6067 -445.44932 47.468982)
(806.72062 -474.53521 43.087581)
(859.56056 -507.25942 38.65131)
(914.23406 -539.06991 34.012321)
(971.37654 -571.20276 29.248287)
(1030.9817 -603.43811 24.500844)
(1092.7137 -635.60313 19.843027)
(1156.3592 -667.62073 15.333742)
(1221.6922 -699.41933 11.035315)
(1288.4904 -730.92536 6.976598)
(1356.5614 -762.10497 3.1770205)
(1425.7262 -792.9263 -0.35917205)
(1495.821 -823.36678 -3.6409505)
(1566.6997 -853.41227 -6.6880595)
(1638.226 -883.04873 -9.5232818)
(1710.2753 -912.26195 -12.180598)
(1782.7268 -941.03906 -14.687747)
(1855.4709 -969.35999 -17.086087)
(1928.393 -997.20685 -19.398882)
(2001.389 -1024.5469 -21.6687)
(2074.3452 -1051.355 -23.912647)
(2147.1551 -1077.5795 -26.164665)
(2219.6952 -1103.1757 -28.431572)
(2291.8439 -1128.0716 -30.731112)
(2363.4572 -1152.187 -33.053374)
(2434.379 -1175.4247 -35.389456)
(2504.4315 -1197.6653 -37.709243)
(2573.4111 -1218.7834 -39.972378)
(2641.0946 -1238.6309 -42.12727)
(2707.227 -1257.0637 -44.10433)
(2771.5517 -1273.9338 -45.845376)
(2833.7518 -1289.0975 -47.257557)
(2893.603 -1302.3669 -48.323822)
(2952.2489 -1314.4498 -48.843544)
(3004.1397 -1323.8211 -49.035399)
(3055.6679 -1330.6693 -48.398832)
(3103.3478 -1336.7454 -47.599132)
(3147.2123 -1340.5929 -45.918488)
(3187.3079 -1342.7557 -43.891412)
(3223.6653 -1343.5496 -41.374323)
(3256.1598 -1343.0875 -38.422338)
(3284.8866 -1341.6416 -35.150826)
(3309.9638 -1339.484 -31.623668)
(3331.5363 -1336.8649 -27.916227)
(3349.8143 -1334.0326 -24.114689)
(3365.0433 -1331.2044 -20.283538)
(3377.4788 -1328.5643 -16.490192)
(3387.411 -1326.2614 -12.778355)
(3395.1136 -1324.391 -9.1957961)
(3400.8783 -1323.0208 -5.7664704)
(3404.9646 -1322.1679 -2.5210255)
(3407.6392 -1321.8237 0.52291968)
(3409.1232 -1321.9529 3.3459637)
(3409.6389 -1322.4999 5.9267525)
(3409.3669 -1323.406 8.2451991)
(3408.4681 -1324.5961 10.279721)
(3407.0801 -1326.0202 12.013457)
(3405.301 -1327.6011 13.429762)
(3403.2128 -1329.3005 14.539604)
(3400.8427 -1331.0695 15.355904)
(3390.6023 -1329.9494 15.915165)
(3524.7843 -1366.2036 16.300336)
(3626.5916 -1385.5212 16.003978)
(3676.406 -1384.1659 15.319403)
(3691.3659 -1369.0618 14.412645)
(3662.7606 -1337.9322 13.313128)
(3589.2015 -1290.6859 11.979286)
(3496.222 -1237.4722 10.618918)
(3398.6619 -1183.6404 9.3528697)
(3279.707 -1123.8037 8.0417048)
(3194.5988 -1076.6974 6.9542656)
(3162.7727 -1048.4547 6.1096123)
(3167.0719 -1032.7367 5.437255)
(3215.2047 -1031.1233 4.8598843)
(3309.7522 -1044.1736 4.6239194)
(3441.6622 -1067.9772 4.2754108)
(3467.3704 -1053.851 3.5756449)
(3478.6959 -1053.4608 3.1643412)
(3482.1819 -1050.7044 2.5999009)
(3485.7555 -1047.9512 2.0020971)
(3489.2406 -1045.0575 1.3782629)
(3492.8271 -1041.9707 0.8556262)
(3496.5875 -1038.6652 0.69585531)
(3500.4882 -1035.049 0.97714033)
(3504.5959 -1031.0484 1.8546016)
(3508.8283 -1026.6275 3.5001275)
(3513.1476 -1021.6044 5.908492)
(3517.3712 -1015.9234 9.1746717)
(3521.3681 -1009.3692 13.218812)
(3524.7435 -1001.7054 17.949812)
(3527.304 -992.81828 23.265256)
(3528.6211 -982.43688 28.969108)
(3528.3232 -970.34413 34.791834)
(3526.006 -956.35987 40.560517)
(3521.2262 -940.24838 45.95943)
(3513.5907 -921.87986 50.797326)
(3502.7339 -901.13676 54.853101)
(3488.3333 -877.96486 57.983507)
(3470.1501 -852.37447 60.08978)
(3447.9786 -824.42335 61.158975)
(3421.8073 -794.26192 61.142175)
(3391.4173 -762.00696 60.290825)
(3359.0832 -728.6424 58.553532)
(3317.6231 -691.42231 55.719605)
(3276.8186 -655.58035 53.233695)
(3230.9317 -617.12346 49.92398)
(3181.9693 -578.40317 46.716391)
(3129.8305 -539.09573 43.472563)
(3074.8261 -499.48793 40.461418)
(3017.1574 -459.81637 37.714807)
(2957.0555 -420.25523 35.302973)
(2894.7082 -380.94107 33.233742)
(2830.2951 -341.99976 31.485506)
(2763.9817 -303.52489 30.008624)
(2695.9148 -265.5957 28.733899)
(2626.2373 -228.27393 27.581767)
(2555.0808 -191.61962 26.467902)
(2482.5789 -155.68394 25.312333)
(2408.8593 -120.5247 24.041197)
(2334.0555 -86.200671 22.594943)
(2258.2994 -52.781469 20.922404)
(2181.7273 -20.342916 18.990296)
(2104.4805 11.02565 16.771843)
(2026.6988 41.227448 14.257452)
(1948.5446 70.151872 11.438074)
(1870.1598 97.674389 8.3331741)
(1791.7505 123.69297 4.9213052)
(1713.468 148.0109 1.2986512)
(1635.5653 170.59209 -2.6184886)
(1558.2691 191.17292 -6.6426823)
(1481.8466 209.71151 -10.812218)
(1406.6021 226.06093 -15.063128)
(1332.7932 240.22885 -19.260196)
(1264.5666 252.54371 -23.410666)
(1190.1 260.7972 -27.196654)
(1123.6235 268.07143 -30.839261)
(1061.8716 273.14774 -34.089942)
(997.09342 274.23805 -36.647296)
(939.77703 274.52977 -38.824233)
(885.29272 272.40752 -40.436132)
(835.9822 268.87104 -41.461677)
(787.20735 262.56407 -41.833203)
(745.32108 256.21828 -41.618035)
(704.64513 247.53202 -40.946358)
(668.94824 238.84952 -39.833632)
(636.38132 229.38009 -38.419749)
(606.97688 219.53688 -36.676484)
(580.4264 209.86572 -34.840036)
(556.46293 200.01553 -32.784117)
(534.76769 190.76772 -30.758876)
(514.62583 181.98857 -28.820685)
(496.92955 173.79312 -26.781402)
(479.45124 166.51105 -25.046255)
(464.14833 159.91931 -23.227224)
(448.00069 154.23575 -21.788108)
(433.13196 149.56153 -20.403742)
(418.44747 145.75577 -19.466992)
(402.18824 142.36393 -18.672541)
(384.48854 140.09577 -18.712565)
(367.40814 138.00216 -18.761948)
(347.26704 136.45851 -20.004656)
(324.63382 134.1417 -21.569183)
(301.76921 132.48133 -24.037294)
(275.4414 129.01224 -27.235762)
(246.89551 125.0975 -31.148426)
(215.95923 118.51152 -35.439225)
(184.32346 110.72473 -39.666529)
(150.91843 99.020546 -43.759762)
(117.79579 87.084143 -46.455068)
(79.428431 66.650017 -45.109145)
(58.373299 44.647056 -35.530919)
(0 0 0)
(0 0 0)
(0 0 0)
(0 0 0)
(0 0 0)
(0 0 0)
(0 0 0)
(0 0 0)
(0 0 0)
(0 0 0)
(0 0 0)
(0 0 0)
(0 0 0)
(0 0 0)
(0 0 0)
(0 0 0)
(0 0 0)
(0 0 0)
(0 0 0)
(0 0 0)
(0 0 0)
(0 0 0)
(0 0 0)
(0 0 0)
(0 0 0)
(0 0 0)
(0 0 0)
(0 0 0)
(0 0 0)
(0 0 0)
(3432.9959 -1354.303 15.392547)
(3432.752 -1354.1091 15.271285)
(3432.5011 -1353.7905 15.092114)
(3432.1608 -1353.1916 14.943303)
(3431.8141 -1352.4609 14.784156)
(3431.3952 -1351.5634 14.719968)
(3430.9322 -1350.5596 14.695257)
(3430.4111 -1349.5141 14.765513)
(3429.8381 -1348.4906 14.897269)
(3429.2046 -1347.5802 15.140403)
(3428.5037 -1346.8422 15.408195)
(3427.7598 -1346.2752 15.758383)
(3426.9391 -1345.9722 16.073566)
(3426.0274 -1345.9713 16.356203)
(3425.1317 -1346.034 16.67413)
(3505.7485 -1079.8028 5.6815185)
(3504.9133 -1079.41 5.4986206)
(3504.2476 -1078.9556 5.15477)
(3503.8465 -1078.3532 4.7578753)
(3503.7254 -1077.6137 4.343888)
(3503.8954 -1076.7498 3.9807094)
(3504.3163 -1075.7993 3.673924)
(3504.9198 -1074.7896 3.4512823)
(3505.6271 -1073.7813 3.3179794)
(3506.3359 -1072.8145 3.2735842)
(3506.9653 -1071.9374 3.3180532)
(3507.3768 -1071.2271 3.414274)
(3507.5587 -1070.6362 3.5799275)
(3507.3895 -1070.3253 3.7211485)
(3506.9226 -1070.1184 3.8940545)
(33.869706 22.339719 40.47406)
(70.306583 41.783232 37.570409)
(103.9661 58.298498 42.243941)
(139.16453 72.439907 39.386496)
(171.30022 83.994111 37.718892)
(203.57333 93.572634 34.63371)
(233.1498 101.1183 32.217213)
(261.7693 107.52775 29.980111)
(287.46971 112.37081 28.720034)
(311.60411 116.71518 28.127083)
(333.22975 120.14767 28.213563)
(353.1383 123.5737 29.387939)
(371.09579 126.5216 30.863287)
(387.71225 129.97898 33.230973)
(403.04565 133.36898 35.832712)
(417.74014 137.469 38.978702)
(432.00276 141.86171 42.086717)
(446.2179 147.09301 45.61022)
(460.93241 152.7391 48.943982)
(476.3333 159.17727 52.371658)
(492.96235 166.13468 55.596312)
(511.13188 173.72025 58.777137)
(531.20493 181.69727 61.618556)
(553.53376 190.016 64.354156)
(578.55847 198.46521 66.67392)
(606.56648 206.86846 68.682719)
(637.92098 215.05109 70.268734)
(672.86585 222.61076 71.427955)
(711.77663 229.40514 72.024591)
(754.75993 235.12256 72.057185)
(801.98493 239.40849 71.5084)
(853.54966 242.06649 70.311601)
(909.40799 242.80011 68.517077)
(969.40951 241.42411 66.095332)
(1033.4131 237.69571 63.092905)
(1101.128 231.5324 59.573844)
(1172.2253 222.86198 55.675876)
(1246.22 211.59327 51.421078)
(1322.8093 197.76211 46.916371)
(1401.504 181.49307 42.342746)
(1481.7762 162.74637 37.727886)
(1563.2103 141.74733 33.207667)
(1645.5726 118.57016 28.808978)
(1728.252 93.397192 24.672616)
(1811.0659 66.389784 20.759198)
(1893.6751 37.683468 17.140722)
(1975.8599 7.4273688 13.792194)
(2057.4025 -24.232735 10.708979)
(2138.1321 -57.159544 7.8556019)
(2217.8885 -91.225174 5.1971571)
(2296.5311 -126.29676 2.6920661)
(2373.9232 -162.25911 0.30089022)
(2449.9364 -198.98192 -2.0191716)
(2524.4303 -236.35812 -4.2933986)
(2597.2693 -274.25923 -6.550639)
(2668.3019 -312.58147 -8.8025627)
(2737.377 -351.20268 -11.055833)
(2804.3261 -390.01871 -13.302256)
(2868.9801 -428.91071 -15.532562)
(2931.1595 -467.76741 -17.722429)
(2990.6734 -506.46845 -19.844169)
(3047.3391 -544.8895 -21.857138)
(3100.9486 -582.88129 -23.736732)
(3151.3197 -620.27327 -25.450172)
(3198.2601 -656.98262 -26.897986)
(3241.6461 -692.70266 -28.081756)
(3280.962 -727.20959 -29.127102)
(3316.7584 -760.63341 -29.719706)
(3348.5264 -792.3728 -30.08849)
(3376.09 -822.42887 -29.925792)
(3399.775 -850.62479 -29.569702)
(3419.4608 -876.72433 -28.784657)
(3435.3183 -900.66936 -27.718812)
(3447.5138 -922.36742 -26.366842)
(3456.3063 -941.74981 -24.7615)
(3461.9508 -958.85529 -22.953956)
(3464.7994 -973.72353 -20.975685)
(3465.1616 -986.44574 -18.886584)
(3463.4338 -997.18768 -16.696342)
(3459.9332 -1006.0703 -14.483753)
(3455.035 -1013.3538 -12.230407)
(3449.0749 -1019.1754 -10.019634)
(3442.1828 -1023.7492 -7.8349034)
(3434.7414 -1027.369 -5.7782005)
(3427.5658 -1030.3392 -3.7424)
(3419.8087 -1032.6157 -1.8377659)
(3412.2014 -1034.5187 -0.089033139)
(3404.6854 -1036.1396 1.5235289)
(3397.4963 -1037.6583 2.9121403)
(3390.6723 -1039.1642 4.0746065)
(3384.1575 -1040.7066 5.0404132)
(3378.2968 -1042.4224 5.6892866)
(3372.7108 -1044.1852 6.1759434)
(3367.6892 -1046.2082 6.4031606)
(3371.1925 -1050.8692 6.4753999)
(25.613655 18.6665 33.130874)
(57.281796 27.392713 33.801298)
(92.219203 42.440875 36.67224)
(124.07781 52.664161 36.072321)
(156.53228 63.936051 34.442293)
(187.38985 72.574975 32.352696)
(217.45721 80.926008 30.308713)
(245.31828 87.441081 28.673656)
(271.83251 93.512231 27.683415)
(296.33938 98.361546 26.848429)
(318.86192 103.0348 27.297515)
(339.62927 106.97571 27.716634)
(358.61238 111.01847 29.288879)
(376.27285 114.82151 30.908449)
(392.56751 118.90718 33.385493)
(408.2519 123.14362 35.723828)
(423.07255 127.81002 38.803926)
(438.13365 132.85984 41.625141)
(453.1013 138.41967 44.771195)
(468.90087 144.44542 47.791028)
(485.55565 150.95985 50.854708)
(503.69446 157.88271 53.684464)
(523.50316 165.12878 56.468988)
(545.55966 172.61764 58.968812)
(570.09323 180.13932 61.253858)
(597.62395 187.5112 63.212662)
(628.42888 194.52045 64.83742)
(662.93258 200.92035 66.051574)
(701.40116 206.39047 66.809985)
(744.17117 210.68435 67.078012)
(791.39114 213.49129 66.803615)
(843.21853 214.54096 65.964469)
(899.643 213.56633 64.553326)
(960.60963 210.36815 62.559345)
(1025.9568 204.71902 60.062719)
(1095.4222 196.53182 57.055018)
(1168.6197 185.69622 53.639661)
(1245.0795 172.20938 49.895106)
(1324.3925 156.10592 45.923481)
(1405.9316 137.44403 41.782089)
(1489.2183 116.31312 37.63359)
(1573.7946 92.902686 33.467802)
(1659.015 67.263929 29.513387)
(1744.5325 39.696607 25.69856)
(1829.9189 10.304555 22.113559)
(1914.814 -20.729655 18.766452)
(1998.9089 -53.221766 15.677122)
(2081.9564 -87.019366 12.823077)
(2163.7364 -121.94803 10.177816)
(2244.0638 -157.85711 7.7163485)
(2322.7804 -194.58469 5.3933735)
(2399.7392 -231.99032 3.1762812)
(2474.8075 -269.91397 1.0286834)
(2547.8487 -308.22669 -1.0720478)
(2618.7378 -346.77349 -3.151989)
(2687.3356 -385.43325 -5.2126995)
(2753.5072 -424.06161 -7.2586652)
(2817.1039 -462.53974 -9.277271)
(2877.9798 -500.73079 -11.251597)
(2935.9703 -538.51367 -13.155081)
(2990.9145 -575.75043 -14.953854)
(3042.6396 -612.30559 -16.61963)
(3090.9716 -648.01601 -18.129575)
(3135.7621 -682.76278 -19.405834)
(3176.7967 -716.3571 -20.467836)
(3213.8655 -748.53333 -21.318543)
(3247.6684 -779.47276 -21.827945)
(3284.2923 -810.32235 -22.168326)
(3311.6956 -838.17731 -22.126445)
(3333.8718 -863.86358 -21.847174)
(3352.0042 -887.47769 -21.32547)
(3366.2389 -908.91349 -20.560061)
(3376.7443 -928.1721 -19.599823)
(3383.7701 -945.21207 -18.428595)
(3387.6319 -960.10066 -17.104887)
(3388.6229 -972.89444 -15.661432)
(3387.1671 -983.72493 -14.10807)
(3383.5604 -992.70561 -12.502451)
(3378.2739 -1000.0618 -10.815182)
(3371.5774 -1005.8946 -9.150004)
(3363.9036 -1010.5218 -7.4198007)
(3355.5366 -1014.0255 -5.7525235)
(3346.9391 -1016.7359 -4.100147)
(3326.6881 -1015.2852 -2.372699)
(3309.6771 -1014.353 -0.79387995)
(3300.7439 -1015.3919 0.60449906)
(3292.772 -1016.4894 1.9622055)
(3285.4297 -1017.5453 3.1845939)
(3278.7618 -1018.7122 4.2210467)
(3273.0048 -1020.1397 5.1836818)
(3267.9153 -1021.6472 5.8635039)
(3263.9428 -1023.6572 6.4561123)
(3260.7436 -1025.8426 6.8101213)
(3258.499 -1028.3756 7.0384305)
(3263.9675 -1033.4521 7.1313964)
(21.569991 13.60219 26.916357)
(52.065384 21.144532 27.694549)
(81.713727 30.921052 32.762657)
(113.71187 40.07355 32.177166)
(144.97018 48.980822 31.332822)
(176.48616 57.504521 29.787188)
(205.87982 64.746496 28.482603)
(234.9445 71.607026 27.336279)
(261.81091 77.244642 26.198768)
(287.23465 82.86723 26.177562)
(310.71723 87.369898 25.998742)
(332.63874 92.124837 26.912377)
(352.73706 96.145166 27.829881)
(371.42576 100.55795 29.644115)
(388.93941 104.67196 31.316449)
(405.31194 109.21434 33.866072)
(421.29128 113.81482 36.107432)
(436.77674 118.85827 38.867681)
(452.45994 124.16133 41.482778)
(468.5194 129.87339 44.279205)
(485.48576 135.88703 46.84563)
(503.59986 142.19342 49.501938)
(523.42223 148.7067 51.87242)
(545.20554 155.27268 54.156799)
(569.48464 161.77027 56.147669)
(596.5895 167.97114 57.927964)
(626.99173 173.68961 59.363962)
(661.03241 178.62496 60.465255)
(699.10955 182.53862 61.17997)
(741.51015 185.11546 61.456745)
(788.48665 186.08636 61.272262)
(840.19141 185.16512 60.607285)
(896.6852 182.11895 59.439536)
(957.92375 176.71024 57.803799)
(1023.7243 168.77496 55.681817)
(1093.8064 158.24935 53.123186)
(1167.7678 145.00159 50.248137)
(1245.1161 129.0962 47.063967)
(1325.3934 110.49204 43.60749)
(1407.9899 89.39641 40.063083)
(1492.3061 65.887206 36.439457)
(1577.7267 40.129234 32.850394)
(1663.7127 12.359266 29.369402)
(1749.767 -17.287894 26.049495)
(1835.3869 -48.593734 22.897416)
(1920.1969 -81.332472 19.96783)
(2003.8532 -115.33886 17.245275)
(2086.0719 -150.41926 14.726629)
(2166.616 -186.39267 12.389861)
(2245.2929 -223.08897 10.206124)
(2321.9441 -260.33969 8.1367226)
(2396.4236 -297.98615 6.1584797)
(2468.6164 -335.86828 4.234188)
(2538.4021 -373.84317 2.3486747)
(2605.6808 -411.75742 0.48342706)
(2670.3378 -449.48246 -1.357237)
(2732.2696 -486.87415 -3.1737087)
(2791.3606 -523.8109 -4.9422105)
(2847.4913 -560.15815 -6.6436536)
(2900.5349 -595.79331 -8.242082)
(2950.3568 -630.58192 -9.7103048)
(2996.8254 -664.3883 -11.017137)
(3039.7882 -697.08291 -12.123448)
(3079.1529 -728.52476 -12.996711)
(3114.6622 -758.52058 -13.695234)
(3147.3083 -787.22313 -14.018749)
(3168.2698 -812.38091 -14.313013)
(3211.4251 -842.43593 -14.187656)
(3233.3777 -865.96032 -13.983582)
(3250.4377 -887.35692 -13.475037)
(3263.7376 -906.6523 -12.845488)
(3273.3395 -923.85474 -12.047936)
(3279.6051 -938.99496 -11.119198)
(3282.8104 -952.13987 -10.131372)
(3283.2672 -963.34436 -9.1080705)
(3281.3297 -972.73629 -8.0446456)
(3277.3834 -980.47144 -6.9725194)
(3271.8194 -986.71645 -5.8874814)
(3265.0024 -991.65235 -4.8120498)
(3257.3341 -995.48118 -3.7275646)
(3249.1147 -998.39081 -2.6503619)
(3240.6977 -1000.5799 -1.5846073)
(3232.4473 -1002.2606 -0.49338699)
(3224.5273 -1003.6368 0.57232912)
(3199.5446 -999.32742 1.5230812)
(3191.1191 -999.78026 2.5562463)
(3185.7458 -1001.1065 3.5579693)
(3181.3794 -1002.6081 4.4600597)
(3178.1938 -1004.4455 5.315971)
(3176.1934 -1006.6562 6.0224456)
(3175.3044 -1009.1935 6.6322157)
(3175.922 -1012.355 7.095049)
(3177.633 -1015.8118 7.4322186)
(3180.6929 -1019.7778 7.6677622)
(3189.4673 -1025.7157 7.7985334)
(20.651754 12.861366 22.375614)
(48.047084 16.617453 25.100577)
(77.345046 24.785972 28.47582)
(108.34139 31.445934 28.23872)
(139.8469 39.452034 28.048768)
(170.5586 46.209617 27.343451)
(201.34938 53.195328 26.501544)
(230.60272 58.97544 25.426755)
(258.49604 64.86966 25.424204)
(284.92041 69.653842 24.882019)
(309.53312 74.478044 25.520182)
(332.40442 78.739746 25.908087)
(353.50371 82.959677 27.314233)
(373.32849 87.08933 28.387412)
(391.4214 91.175594 30.484918)
(408.88876 95.49883 32.175345)
(425.22083 99.867885 34.476999)
(441.40914 104.58606 36.67356)
(457.33065 109.43387 39.026212)
(473.75126 114.61109 41.277975)
(490.70889 119.92136 43.575309)
(508.91868 125.42557 45.700389)
(528.5403 130.94228 47.712635)
(550.17839 136.38973 49.545045)
(574.1288 141.58684 51.169531)
(600.91849 146.33637 52.558894)
(630.90089 150.41858 53.658097)
(664.52739 153.58109 54.490577)
(702.14102 155.54273 54.96523)
(744.08432 156.05005 55.10114)
(790.5893 154.8026 54.868484)
(841.84295 151.58007 54.234454)
(897.87203 146.11156 53.224615)
(958.62908 138.26101 51.821508)
(1023.9265 127.83683 50.047356)
(1093.4524 114.83993 47.964233)
(1166.8975 99.095861 45.575476)
(1243.6518 80.801061 42.886483)
(1323.1436 60.009353 40.149744)
(1404.7448 36.830077 37.250805)
(1487.8693 11.389618 34.316424)
(1571.8878 -16.048564 31.417601)
(1656.227 -45.341229 28.59509)
(1740.3136 -76.220722 25.876737)
(1823.7021 -108.49348 23.30977)
(1905.9818 -141.93965 20.905222)
(1986.7982 -176.37264 18.65637)
(2065.8738 -211.58574 16.567295)
(2142.9809 -247.40227 14.607701)
(2217.9449 -283.64698 12.756528)
(2290.6202 -320.15484 10.988771)
(2360.8951 -356.77179 9.2780949)
(2428.6783 -393.34418 7.6005854)
(2493.8876 -429.73778 5.9484588)
(2556.4542 -465.81027 4.3105069)
(2616.3035 -501.44462 2.6983176)
(2673.3703 -536.50957 1.1193407)
(2727.5727 -570.90062 -0.39684369)
(2778.8309 -604.49853 -1.8272378)
(2827.0523 -637.1981 -3.1371689)
(2872.1407 -668.88642 -4.2995978)
(2913.9876 -699.45674 -5.2827641)
(2952.5056 -728.80367 -6.0567712)
(2987.5536 -756.775 -6.6506279)
(3019.1425 -783.34839 -6.9679289)
(3047.0054 -808.28481 -7.1509487)
(3071.8075 -831.75642 -7.0575069)
(3090.8371 -852.82098 -6.8510042)
(3109.2533 -872.8839 -6.5098333)
(3123.0777 -890.79869 -6.0137692)
(3133.009 -906.70623 -5.455549)
(3140.3278 -920.85655 -4.8183908)
(3145.2549 -933.30057 -4.1948357)
(3147.7201 -944.00726 -3.5838982)
(3147.6613 -952.97037 -2.9623796)
(3145.8021 -960.44221 -2.3561179)
(3142.5499 -966.57331 -1.7573005)
(3138.2493 -971.53357 -1.1716813)
(3133.3131 -975.52113 -0.56505809)
(3128.041 -978.69382 0.02795284)
(3122.808 -981.28493 0.67409432)
(3117.8787 -983.42379 1.3084666)
(3113.5019 -985.36074 2.0264103)
(3109.9461 -987.15837 2.6979772)
(3108.167 -989.34274 3.4772334)
(3106.1262 -991.1959 4.2003959)
(3105.8486 -993.62777 4.9544006)
(3106.9609 -996.39948 5.6682169)
(3109.456 -999.66106 6.3183501)
(3113.4995 -1003.471 6.925798)
(3118.8821 -1007.7455 7.4227239)
(3126.0177 -1012.7608 7.8478542)
(3134.4707 -1018.2061 8.1552218)
(3144.4961 -1024.2768 8.4027621)
(3157.4354 -1031.4682 8.5307842)
(19.333122 10.450247 19.201488)
(46.968288 13.969171 20.727907)
(75.432709 20.576076 24.321175)
(106.90216 26.695327 24.915251)
(138.10001 32.57773 25.342686)
(170.73957 38.860029 24.797052)
(202.00408 44.216852 24.021397)
(232.56231 49.766689 24.239073)
(261.64908 54.133638 23.576219)
(289.23327 58.809731 24.111444)
(314.7152 62.514869 24.296408)
(338.54139 66.522339 25.406541)
(360.58715 69.948449 26.117662)
(380.71554 73.659342 27.847623)
(399.65909 77.145825 29.107436)
(417.19311 80.936819 31.007255)
(433.95699 84.702783 32.742748)
(450.12136 88.749851 34.707612)
(466.19361 92.885808 36.492723)
(482.41546 97.191003 38.442245)
(499.33899 101.56646 40.112957)
(517.26022 105.93572 41.805382)
(536.67844 110.21151 43.238809)
(557.96779 114.21368 44.586905)
(581.60454 117.81967 45.663426)
(607.99774 120.78413 46.571056)
(637.57813 122.92977 47.226739)
(670.74319 123.96445 47.65217)
(707.85822 123.69079 47.803722)
(749.2132 121.79367 47.72046)
(795.05408 118.09102 47.334772)
(845.48553 112.30872 46.698372)
(900.54013 104.30354 45.788043)
(960.12524 93.901676 44.616823)
(1024.0165 81.031254 43.210794)
(1091.8725 65.666311 41.58896)
(1163.2741 47.788669 39.73846)
(1236.4502 27.47776 37.938328)
(1313.2513 4.8374869 35.83211)
(1392.7358 -19.883044 33.676333)
(1473.1372 -46.523511 31.531707)
(1554.212 -74.9025 29.369822)
(1635.3343 -104.79293 27.266647)
(1716.0216 -135.97556 25.238284)
(1795.8153 -168.24481 23.302433)
(1874.3055 -201.37816 21.462632)
(1951.1843 -235.19068 19.72295)
(2026.186 -269.4895 18.079184)
(2099.1172 -304.11148 16.50708)
(2169.8202 -338.89742 15.002803)
(2238.1862 -373.70004 13.537267)
(2304.1289 -408.38258 12.101015)
(2367.5937 -442.81545 10.677668)
(2428.5293 -476.88102 9.2681427)
(2486.9043 -510.46254 7.8686998)
(2542.6814 -543.46085 6.4984757)
(2595.8289 -575.77093 5.1688473)
(2646.3023 -607.30955 3.9139877)