/*--------------------------------*- C++ -*----------------------------------*\
  =========                 |
  \\      /  F ield         | OpenFOAM: The Open Source CFD Toolbox
   \\    /   O peration     | Website:  https://openfoam.org
    \\  /    A nd           | Version:  6
     \\/     M anipulation  |
\*---------------------------------------------------------------------------*/
FoamFile
{
    version     2.0;
    format      ascii;
    class       pointScalarField;
    location    "0.14";
    object      p;
}
// * * * * * * * * * * * * * * * * * * * * * * * * * * * * * * * * * * * * * //

dimensions      [1 -1 -2 0 0 0 0];

internalField   nonuniform List<scalar> 
625
(
474543.04
-730696.74
1963.3835
1037.164
885789.72
-1323373.8
275.47847
192.47257
340655.57
-18148.977
-71330.802
-1162.7517
-537.59707
82.058434
184528.59
201829.62
190530.53
179941.36
156224.32
143011.18
122639.75
103513.56
90336.48
71106.657
58333.587
46048.914
37213.029
30081.473
25045.063
20813.303
17557.423
13510.612
10678.415
7286.8362
3501.0102
880.32902
1121.6116
-237448.05
-156194.94
-200324.04
-151427.82
-134072.13
-126971.53
-100972.57
-86443.048
-72132.702
-55907.201
-43681.011
-32851.381
-25712.327
-20519.183
-17746.163
-16343.813
-15760.054
-14829.902
-14668.047
-12409.747
-10882.984
-6604.6254
-4149.6246
494095.05
5696.4555
-141663.37
-236217.25
-299603.37
-205162.21
-177278.8
-193457.45
-138497.61
-121352.17
-107194.27
-85949.918
-69017.062
-51009.548
-37455.48
-26205.587
-18461.688
-13854.228
-11025.181
-9905.356
-8835.9342
-7439.0597
-5359.5669
-3240.115
-1273.4648
-780.59044
195.07719
-376.89664
-1420.2697
2005.2979
5497.4457
10181.641
14108.729
18021.125
21518.996
24687.81
27746.186
31072.062
35376.881
41489.991
51286.893
61883.572
73964.65
100879.27
114019.31
135549.39
148149.94
186389.66
181314.91
210741.44
236425.58
206839.03
511891.31
516023.87
481921.25
-798932.87
-796384
-784169.2
3632.7153
2645.2694
3311.4379
362.86776
-304.62297
61.626188
108921.34
118595.47
117240.24
102441.61
92270.104
86813.251
71061.683
63591.877
50199.924
41207.107
33068.747
25493.808
19149.934
14392.712
10947.065
8956.6122
7753.55
7019.716
7299.719
6311.1247
5338.633
3506.4709
2293.9119
-23225.333
-14437.024
-19619.626
-5687.6091
-12112.088
-6319.1925
-6189.192
-2979.5441
-2124.9829
-97.621134
1154.9664
2077.4278
2672.3001
2820.7973
2514.2333
2341.0732
2125.8143
2042.5637
2099.8871
1352.7736
1607.7858
79.834725
-0.2881516
-144513.38
-120182.16
-105257.82
-92062.712
-95588.714
-71295.26
-65540.674
-53249.724
-43339.349
-33283.363
-25323.225
-18284.612
-13567.135
-10543.618
-9078.8223
-8134.4367
-7405.3095
-6687.6933
-5251.7934
-4704.6901
-3563.3698
-2378.7419
-2767.6358
286772.63
281434.61
289742.51
-20605.284
-5159.4116
-33987.997
-61829.926
-91052.834
-131289.59
-343386.38
-333485.59
-348997.84
-273953.98
-255532.92
-242924.98
-207715.15
-193250.93
-208814.31
-165328.09
-163065.34
-163427.24
-156639.13
-152653.38
-163711.17
-132679.7
-124441.48
-126864.7
-114816.49
-111849.35
-117268.97
-97162.128
-87145.157
-94047.207
-77688.57
-72442.756
-76309.965
-60609.651
-55149.522
-59365.234
-45693.129
-42047.805
-44036.111
-34147.17
-30692.36
-31924.583
-25459.373
-22853.453
-23357.442
-20414.3
-18039.118
-18291.845
-18066.535
-15835.679
-16176.273
-17396.954
-14983.299
-15513.43
-17041.379
-14723.229
-15129.008
-16303.495
-13729.348
-14250.083
-14651.502
-12872.51
-12851.764
-11792.655
-9963.9569
-10011.493
-8645.5619
-7671.3025
-7195.0974
-3238.1117
-1780.2777
-2567.1555
-1309.9545
-552.01393
-1235.014
-1548.8121
-1507.4959
-1858.1694
-758.50292
-315.04399
-1639.5642
-1290.3229
-719.75468
-1116.5413
252548.86
225669.1
246389
236627.96
215707.09
228811.04
226584.72
203315.48
219649.57
188637.68
174432.81
189359.18
174644.94
166362.21
168039.86
154850.41
134446.68
150164.43
130570.76
123861.87
132092.48
114453.65
104234.53
111300.79
91624.412
88246.1
90476.679
74672.719
70676.737
77021.978
58333.211
57343.208
59275.373
45366.087
44874.612
47574.351
34382.62
36544.507
38119.521
27545.303
30215.161
31801.421
22585.821
25573.86
27548.079
19646.694
21872.138
24549.05
17288.67
18343.277
21669.3
15161.132
14954.276
18597.827
13030.662
11089.895
15333.511
10395.501
7395.7033
11663.505
6921.9629
3710.8158
7230.9266
3724.6885
1319.1651
3238.217
1610.0115
306.6251
612.61645
132165.65
142244.83
111295.31
119650.52
107610.93
94133.816
84248.274
72177.257
58766.713
49980.759
42833.448
34787.963
29180.216
25306.2
21814.485
18722.735
15905.975
13349.211
10980.302
9079.4833
7023.8735
5143.1599
3069.1486
-13333.604
19635.445
2244.5037
23623.437
21000.537
15379.134
19041.035
16617.218
14561.743
15013.311
14735.717
13732.09
13273.483
13366.013
13307.52
13284.354
13084.45
12140.854
11002.675
9147.5089
7120.5293
5090.8537
1815.8236
-85427.37
-79296.524
-113806.9
-88143.308
-87309.838
-79017.859
-62023.225
-54237.42
-41151.705
-32522.624
-24215.06
-16461.757
-9929.8293
-4031.6115
267.52222
2914.7299
3823.3098
3247.7072
2147.053
843.64143
501.4984
472.03533
-929.23171
170097.2
185583.02
161345.67
140010.23
155060.58
145724.35
107508.65
111933.78
132312.9
94590.916
122641.42
103930.8
100771.7
88523.54
99858.277
72256.438
89441.752
93061.354
70246.131
77211.177
75828.334
58544.258
62265.57
65441.986
49044.138
51217.034
58593.925
39242.466
43627.72
44022.746
31803.914
33246.825
36719.043
24662.246
26761.231
30164.193
20441.968
21397.917
25113.819
16594.099
17427.092
21507
13925.243
14907.143
19437.178
11818.388
13272.677
17724.013
10115.37
12076.672
16378.035
8920.244
11083.06
14989.106
7979.5781
10048.313
13573.832
5345.4322
9098.7411
11336.967
4912.3424
9068.2293
9825.5603
4411.7075
5702.7552
6812.025
3114.3108
3248.917
4260.5176
-25544.568
-35199.844
-14275.655
-9767.6405
12494.433
1877.6761
9509.2715
5614.8834
3632.331
2420.9696
5288.4647
-6497.5311
2207.6667
8716.8408
12950.821
2712.2876
14272.054
1774.5382
5870.1618
9012.0831
3158.0364
1914.1446
11308.652
7511.2867
4038.012
12463.083
4649.8833
5060.8711
10533.629
7613.4546
4570.071
10617.764
8130.3093
5156.3827
10919.988
9547.3275
4961.7623
10231.54
9794.222
4394.0021
9625.0094
10615.041
3885.0528
9390.9006
10776.89
3682.3932
9206.1157
10875.576
3663.6863
9321.964
10667.872
4357.7692
9148.6071
10593.819
4061.3621
8630.6974
9626.3681
4512.1912
8603.5402
9406.8174
3645.6038
7656.4472
5532.76
3654.4401
4697.7849
4147.6755
1983.9998
2714.1048
2393.3543
-145399.52
-160026.56
-178115.31
-100488.12
-84362.737
-123941.33
-93932.055
-141224
-126704.38
-115886.93
-92878.285
-102118.51
-80741.877
-92928.841
-95016.597
-75645.734
-81728.983
-85458.972
-66882.909
-69788.837
-68968.217
-52673.449
-56003.831
-62464.853
-41707.492
-47619.643
-47905.206
-33900.378
-35782.037
-37700.019
-24581.557
-26532.777
-27457.566
-18061.181
-18583.217
-19337.913
-12432.629
-12340.906
-12078.472
-8495.8582
-6915.6049
-6412.9488
-5211.0575
-2863.6497
-2190.0293
-2763.6765
-75.133074
722.17159
-1115.5725
1614.9709
2290.3254
187.78543
2102.2358
3066.4109
611.61772
2232.7689
3496.9757
753.84169
1725.1063
2279.162
774.30835
1252.7122
2026.7202
51.615107
-490.6944
267.64854
1576.4718
1459.7288
2279.3893
)
;

boundaryField
{
    free
    {
        type            calculated;
    }
    fixed
    {
        type            calculated;
    }
    freeTop
    {
        type            calculated;
    }
}


// ************************************************************************* //
