/*--------------------------------*- C++ -*----------------------------------*\
  =========                 |
  \\      /  F ield         | OpenFOAM: The Open Source CFD Toolbox
   \\    /   O peration     | Website:  https://openfoam.org
    \\  /    A nd           | Version:  6
     \\/     M anipulation  |
\*---------------------------------------------------------------------------*/
FoamFile
{
    version     2.0;
    format      ascii;
    class       pointVectorField;
    location    "0.6";
    object      lm;
}
// * * * * * * * * * * * * * * * * * * * * * * * * * * * * * * * * * * * * * //

dimensions      [1 -2 -1 0 0 0 0];

internalField   nonuniform List<vector> 
28033
(
(-1.780536e-14 4.8656612e-16 1.3104288e-15)
(-5.4375576e-15 3.3318594e-15 9.9433006e-16)
(-4061.772 1086.693 -10.490587)
(-3646.5645 2248.065 34.950478)
(-1.338461e-14 3.0090723e-15 -2.870051e-16)
(-1.2587315e-14 4.9008913e-15 -4.4266115e-15)
(-3652.2371 2186.3589 -5.9377015)
(-4061.1176 1061.9093 25.214131)
(-5.6329745e-15 1.0535579e-15 6.7193838e-16)
(-2.4534443e-15 3.0423504e-16 5.8836893e-16)
(-5.4923298e-15 2.4302826e-15 8.9528572e-16)
(-2.6209443e-15 -1.1537891e-15 -6.7979696e-16)
(-7.2548563e-15 1.5542294e-15 1.0013199e-15)
(-4.7613589e-15 -9.2108094e-16 -7.3952737e-16)
(-1.132389e-15 -2.2256662e-17 -6.4484848e-16)
(-7.4239857e-16 -2.4218299e-16 -3.6669977e-16)
(-1.1196198e-15 4.5550132e-16 8.383863e-16)
(-2.3465882e-16 2.2667819e-16 1.4996246e-15)
(-4.0583243e-15 -8.7236639e-16 -1.3429605e-15)
(-5.8237189e-15 8.4462789e-16 7.5519031e-16)
(-5.1611762e-15 1.0100276e-15 9.7613867e-16)
(-1.7679952e-15 -8.1010255e-16 4.5192313e-16)
(-4.4158752e-15 1.0299569e-15 -9.452958e-16)
(-3929.1689 1129.2151 -4.0933474)
(-3769.5426 1158.5255 1.5370151)
(-3647.3142 1194.1126 4.8023717)
(-3575.0723 1243.1489 8.3692069)
(-3558.5935 1309.8372 10.3588)
(-3595.0619 1397.9323 12.417823)
(-3673.0418 1504.7527 14.297142)
(-3776.241 1627.2005 15.652824)
(-3883.3883 1756.7274 17.3601)
(-3973.7837 1884.739 18.581252)
(-4029.8697 2001.3729 20.132194)
(-4038.1589 2097.886 22.70256)
(-3994.7525 2168.653 24.374118)
(-3901.4482 2211.9479 27.306076)
(-3773.1554 2232.1531 30.601967)
(-20.691337 -25.765538 -28.648518)
(-32.175121 -42.043608 -36.172838)
(-45.92109 -55.655342 -39.95422)
(-61.721639 -68.835091 -40.250861)
(-80.231323 -81.017353 -38.057969)
(-101.3663 -92.313077 -34.179849)
(-124.956 -102.25278 -28.955913)
(-150.69479 -110.63822 -22.78512)
(-178.60025 -117.38324 -15.992665)
(-207.91875 -122.03525 -8.8008288)
(-238.28481 -124.47958 -1.8168972)
(-269.25971 -124.74229 5.2229512)
(-300.2965 -122.64372 11.603954)
(-331.00576 -118.14593 17.667302)
(-360.49905 -111.30934 22.642044)
(-388.70058 -102.44419 26.937566)
(-415.11362 -91.661193 30.333134)
(-439.53998 -79.268692 32.961232)
(-461.20876 -65.337317 34.31716)
(-480.56229 -50.623779 35.031326)
(-497.05087 -35.175432 34.838165)
(-510.89298 -19.529451 33.732091)
(-522.07021 -4.1483243 32.05228)
(-530.63355 10.752358 29.552059)
(-536.87365 24.641433 26.353049)
(-541.15617 37.323548 22.744952)
(-543.67554 48.386425 18.52362)
(-544.93361 57.710983 13.866224)
(-545.52668 65.075961 8.908771)
(-545.71549 70.504772 3.684724)
(-546.27819 73.869825 -1.6269383)
(-547.95439 75.415795 -6.9239388)
(-550.84136 75.21711 -12.063434)
(-555.56292 73.547894 -17.055363)
(-562.82466 70.683844 -21.602863)
(-572.79538 66.976641 -25.31696)
(-585.99032 62.751876 -28.504099)
(-602.20542 58.424313 -30.949936)
(-621.96763 54.382318 -32.41588)
(-644.95289 50.753301 -33.089865)
(-671.01983 47.863433 -32.904499)
(-700.03548 45.879036 -31.980176)
(-731.50694 44.806258 -30.476805)
(-765.09405 44.616391 -28.56895)
(-800.39587 45.164048 -26.479574)
(-836.9183 46.237875 -24.580622)
(-874.34116 47.539334 -23.061257)
(-912.32555 48.732172 -22.293392)
(-950.71716 49.482289 -22.485741)
(-989.45301 49.461921 -23.870162)
(-1028.6786 48.419418 -26.560876)
(-1068.6661 46.189566 -30.594258)
(-1109.8832 42.737855 -35.887359)
(-1152.9148 38.16648 -42.249504)
(-1198.4659 32.750024 -49.38323)
(-1247.2967 26.896034 -56.887568)
(-1300.1749 21.178333 -64.308098)
(-1357.812 16.27308 -71.134227)
(-1420.8189 12.935281 -76.854472)
(-1489.6314 11.978332 -80.9811)
(-1564.482 14.169926 -83.099376)
(-1645.3725 20.283494 -82.837554)
(-1732.0719 30.885702 -80.017796)
(-1823.9872 46.437252 -74.571399)
(-1920.4892 67.324373 -66.258637)
(-2020.62 93.565885 -56.051164)
(-2122.9063 124.67225 -43.465556)
(-2226.7812 160.90903 -29.23777)
(-2330.5148 201.16274 -13.580603)
(-2432.7663 244.96529 2.1484459)
(-2532.6084 291.1761 17.70838)
(-2628.8946 338.98101 32.556387)
(-2720.7335 387.32426 45.836509)
(-2807.4446 435.27613 57.128088)
(-2888.6064 481.97445 65.916934)
(-2964.0953 526.64523 71.985794)
(-3034.0016 568.78984 75.1572)
(-3098.6082 607.93364 75.511337)
(-3158.5399 644.0789 73.062741)
(-3214.3314 676.89807 68.352672)
(-3266.746 707.03009 61.452224)
(-3316.7623 734.43779 53.133307)
(-3364.8733 759.64798 43.543724)
(-3411.9018 783.08753 33.441122)
(-3458.6429 805.28888 23.247956)
(-3505.334 827.16916 13.560015)
(-3552.6595 848.63801 4.5100956)
(-3600.4277 870.45973 -3.1807328)
(-3649.1091 892.91373 -9.8141684)
(-3698.4284 915.92456 -14.154026)
(-3748.3536 940.51817 -17.885493)
(-3798.5105 964.78656 -18.43093)
(-3848.7615 991.84539 -19.047611)
(-3898.8015 1017.3717 -16.590797)
(-3948.8128 1043.8838 -13.531492)
(-10.175364 29.83064 35.234427)
(-19.697574 42.717586 39.693185)
(-29.819633 58.952927 48.263585)
(-41.807539 70.931756 49.775815)
(-58.43825 85.948838 50.894002)
(-78.14651 99.568161 49.125634)
(-100.70014 111.63861 46.870606)
(-126.69404 124.03479 42.182444)
(-155.80819 135.11159 36.840795)
(-186.82784 144.89249 30.170791)
(-220.24209 153.93731 22.510347)
(-254.64056 161.34308 14.281348)
(-289.78541 167.80759 5.5617614)
(-324.94399 172.91209 -3.3465375)
(-359.58483 176.97844 -12.128561)
(-392.90447 179.87923 -20.589614)
(-424.39728 181.72199 -28.161748)
(-453.39154 182.86145 -34.763777)
(-479.65369 183.07839 -40.118382)
(-502.65859 182.78466 -43.898255)
(-522.14569 182.11687 -45.990695)
(-537.96681 180.95601 -46.295257)
(-550.18284 179.9832 -44.676214)
(-558.69045 178.84662 -41.256038)
(-563.6524 178.0146 -36.010443)
(-565.5905 177.78023 -29.090304)
(-564.61422 177.96629 -20.829593)
(-561.44705 179.2525 -11.313658)
(-556.42297 181.40538 -1.0009102)
(-550.35117 184.97455 9.8665465)
(-543.85477 189.85063 20.772915)
(-537.50055 196.38686 31.447675)
(-532.0557 204.62211 41.473068)
(-528.14022 214.76589 50.449671)
(-526.43755 226.73716 58.098562)
(-527.18711 240.73866 64.205137)
(-531.1112 256.46324 68.517724)
(-538.27247 274.15673 71.051619)
(-548.6744 293.31347 71.902897)
(-562.39925 313.99625 71.098446)
(-579.17207 335.86225 68.939603)
(-598.64276 358.69723 65.749014)
(-620.35455 382.23702 61.917836)
(-643.78675 406.26324 57.86439)
(-668.36493 430.58423 54.027956)
(-693.54698 455.07612 50.811922)
(-718.83892 479.69408 48.576516)
(-743.84865 504.47702 47.596991)
(-768.32979 529.57217 48.054406)
(-792.19532 555.21126 50.01473)
(-815.55425 581.72227 53.425708)
(-838.70653 609.50318 58.116545)
(-862.14434 639.00123 63.808581)
(-886.53222 670.68868 70.126972)
(-912.67791 705.0246 76.629705)
(-941.48552 742.42623 82.82796)
(-973.90921 783.22448 88.226266)
(-1010.8883 827.64312 92.351814)
(-1053.2841 875.75691 94.793987)
(-1101.8238 927.48413 95.235961)
(-1157.0353 982.56418 93.484174)
(-1219.2106 1040.572 89.485183)
(-1288.3723 1100.9109 83.339299)
(-1364.2607 1162.8652 75.299734)
(-1446.3395 1225.6123 65.728447)
(-1533.8204 1288.2524 55.135008)
(-1625.8073 1349.9033 44.119015)
(-1720.8764 1409.8107 33.101076)
(-1818.2674 1466.7779 23.082668)
(-1916.4103 1520.863 13.771016)
(-2013.9205 1570.9787 6.423584)
(-2110.1011 1617.2012 1.05162)
(-2203.6305 1659.1103 -2.1443766)
(-2293.8593 1696.9247 -3.0905652)
(-2380.2112 1730.8197 -1.9261833)
(-2462.2195 1761.2154 1.2064799)
(-2539.7588 1788.5744 5.9790454)
(-2612.8763 1813.4986 12.02289)
(-2681.7353 1836.5497 18.871767)
(-2746.7438 1858.4174 26.116248)
(-2808.3678 1879.6325 33.297494)
(-2867.1941 1900.7634 39.987876)
(-2923.8385 1922.2216 45.842625)
(-2978.9257 1944.3649 50.542637)
(-3033.0381 1967.3789 53.912758)
(-3086.6894 1991.3811 55.824895)
(-3140.2771 2016.2966 56.309924)
(-3194.0769 2041.9908 55.472517)
(-3248.2278 2068.1666 53.533342)
(-3302.6884 2094.4934 50.789006)
(-3357.3819 2120.4947 47.613145)
(-3412.0129 2145.7955 44.337689)
(-3466.2904 2170.0298 41.229204)
(-3520.0441 2192.5801 38.736299)
(-3580.299 2218.7788 36.506912)
(3.2927448e-15 -1.3239155e-15 2.3845803e-16)
(2.4470133e-15 -9.6672015e-16 3.215493e-17)
(-9.0574249e-15 9.0550918e-16 6.4029168e-16)
(-1.2642219e-16 -5.721845e-16 4.4370095e-16)
(-7.6811722e-15 -4.9270561e-16 4.1193361e-16)
(-7.3893964e-15 2.7533729e-15 -1.0951501e-15)
(-3.2915852e-15 -8.1743692e-16 3.8364228e-16)
(-1.9032499e-15 5.3200654e-16 -8.2319016e-17)
(-4.7409759e-15 -4.8623412e-16 4.3918642e-16)
(-1.2869644e-14 1.1845665e-15 6.4228907e-16)
(-9.6157521e-15 1.4157374e-15 5.9836601e-16)
(-9.4077204e-15 4.9518432e-16 1.1192419e-15)
(-5.982767e-15 2.6210694e-16 3.0473736e-16)
(-1.1478475e-14 -5.3386198e-16 1.6580808e-15)
(-5.257323e-15 3.6289085e-16 2.8600704e-16)
(-10.892866 10.647151 -23.020791)
(-13.446883 37.169674 -32.365688)
(-18.133717 41.808908 -38.947598)
(-29.526953 59.122613 -39.756228)
(-46.889945 68.488044 -38.951007)
(-66.386311 80.919823 -34.362728)
(-91.604265 92.40894 -29.670124)
(-118.44115 104.04514 -23.59816)
(-150.10059 114.0296 -16.663456)
(-181.26494 123.65149 -10.090817)
(-215.46559 131.50577 -3.5560249)
(-250.68773 138.3903 2.6049043)
(-284.10224 143.66054 7.9102491)
(-319.48417 147.51882 12.300697)
(-350.57204 149.20384 15.569975)
(-382.47653 149.86123 17.591824)
(-411.68656 149.82444 18.510072)
(-437.36535 146.19491 18.196411)
(-461.78498 143.90278 16.766675)
(-481.80269 138.1964 14.21991)
(-499.87927 134.06273 11.214029)
(-515.09232 128.51637 6.9426137)
(-526.98221 122.21026 2.2407408)
(-535.89624 116.84346 -2.9554532)
(-542.68042 112.09336 -8.4459934)
(-546.91813 107.88296 -14.289835)
(-548.99418 105.15774 -20.077894)
(-550.16081 103.05038 -26.360626)
(-548.54296 103.28529 -32.217526)
(-547.70641 104.80939 -38.410883)
(-545.54577 108.60103 -44.049078)
(-543.9798 114.34894 -49.428711)
(-542.83631 122.22584 -54.43598)
(-542.90716 132.26292 -58.787843)
(-545.75234 144.08023 -62.446451)
(-547.30376 157.89426 -65.138284)
(-554.48289 174.10335 -67.244923)
(-563.2292 191.45848 -68.150375)
(-574.85634 210.42934 -67.916821)
(-589.142 230.68668 -66.886679)
(-606.11795 251.88563 -64.90436)
(-625.46184 273.9288 -62.263747)
(-646.85254 296.55814 -59.1607)
(-669.82401 319.63995 -55.880378)
(-693.90684 343.06056 -52.74098)
(-718.59777 366.78407 -50.065704)
(-743.44275 390.84297 -48.177263)
(-768.06488 415.35237 -47.357634)
(-792.20717 440.50042 -47.838259)
(-815.77349 466.55591 -49.766821)
(-838.8446 493.83867 -53.199425)
(-861.70374 522.72394 -58.083247)
(-884.82777 553.59727 -64.249145)
(-908.88353 586.85232 -71.421283)
(-934.68942 622.83677 -79.216016)
(-963.18364 661.85155 -87.174529)
(-995.35879 704.09293 -94.774766)
(-1032.2077 749.65779 -101.48131)
(-1074.6479 798.49961 -106.76637)
(-1123.459 850.4401 -110.16236)
(-1179.2198 905.14963 -111.28792)
(-1242.2583 962.17262 -109.88586)
(-1312.6206 1020.9232 -105.83075)
(-1390.0433 1080.7403 -99.173355)
(-1474.0232 1140.9003 -90.04735)
(-1563.6245 1200.689 -78.798018)
(-1658.0928 1259.1427 -65.918316)
(-1756.9178 1317.731 -51.838276)
(-1855.3165 1370.3563 -37.651331)
(-1956.0993 1422.3394 -22.917777)
(-2056.7206 1471.1377 -8.738633)
(-2154.9501 1516.4056 3.9277857)
(-2250.4692 1558.271 15.292328)
(-2342.2229 1597.046 24.617928)
(-2429.4683 1632.7755 31.765234)
(-2511.778 1665.8815 36.560802)
(-2588.9481 1696.7291 38.968524)
(-2660.9586 1725.7639 39.056651)
(-2728.0517 1753.4216 36.992044)
(-2790.6192 1780.1295 33.032525)
(-2849.2291 1806.2493 27.512234)
(-2904.5358 1832.0976 20.82645)
(-2957.2809 1857.8915 13.400578)
(-3008.1971 1883.7727 5.6934863)
(-3058.0171 1909.7828 -1.8601211)
(-3107.3676 1935.8904 -8.8365838)
(-3156.7976 1961.9662 -14.874488)
(-3206.6834 1987.8566 -19.672819)
(-3257.2712 2013.3128 -23.013532)
(-3308.6118 2038.1397 -24.772199)
(-3360.6118 2062.0602 -24.908708)
(-3413.0184 2084.9622 -23.48717)
(-3465.4889 2106.6332 -20.599067)
(-3517.5404 2127.4106 -16.548442)
(-3560.7805 2142.4907 -11.636639)
(-3786.621 2175.9017 -1.905925)
(-3923.7769 2161.4739 2.4238559)
(-4001.7278 2111.9693 5.0645258)
(-4040.2639 2042.2194 6.7719345)
(-4028.5629 1948.415 6.8732521)
(-3963.9189 1833.2575 6.6084001)
(-3875.5553 1711.9937 5.0402913)
(-3781.0999 1592.4983 3.8853294)
(-3659.8302 1467.6907 3.3278628)
(-3576.5552 1362.444 2.4684102)
(-3556.841 1283.9668 3.7927495)
(-3577.5715 1219.5814 4.199832)
(-3653.6141 1173.7428 8.0650065)
(-3784.1566 1138.8977 11.689743)
(-3962.0927 1114.1277 18.06956)
(-3960.3964 1022.8245 29.20214)
(-3919.448 998.98374 32.0944)
(-3868.2777 973.34066 36.111522)
(-3816.3032 947.53484 39.306474)
(-3763.451 921.32092 43.567555)
(-3710.6016 895.18043 47.083258)
(-3658.0242 868.64456 50.316933)
(-3606.1673 841.76708 52.555072)
(-3555.3197 814.38163 53.50415)
(-3505.6698 786.23197 52.93658)
(-3457.1701 757.21929 50.570827)
(-3409.7093 727.10135 46.255704)
(-3362.7985 695.62087 40.139809)
(-3316.0037 662.67531 32.364658)
(-3268.3335 627.8513 23.308088)
(-3219.2053 591.28828 13.232345)
(-3167.6247 552.84708 2.7237778)
(-3112.6792 512.50557 -7.6302658)
(-3053.5321 470.43579 -17.273704)
(-2989.3973 426.81526 -25.556877)
(-2919.6824 381.98954 -31.976068)
(-2844.0191 336.39826 -36.078889)
(-2762.2551 290.56103 -37.517054)
(-2674.598 245.12032 -36.215603)
(-2581.4695 200.75703 -32.017402)
(-2483.6259 158.05876 -25.393187)
(-2382.9127 118.28704 -16.00642)
(-2276.9603 79.977249 -4.0570019)
(-2171.2045 47.646081 7.8480063)
(-2065.7638 18.056189 21.189237)
(-1961.3578 -7.0241801 34.715028)
(-1859.8617 -27.561258 47.830473)
(-1762.3211 -43.739335 59.865712)
(-1669.7726 -55.698754 70.384592)
(-1583.026 -63.78597 78.956072)
(-1502.6066 -68.454633 85.319448)
(-1428.7666 -70.268353 89.33142)
(-1361.4812 -69.818271 91.005184)
(-1300.4693 -67.731529 90.478888)
(-1245.2313 -64.601359 88.00943)
(-1195.09 -60.981327 83.95084)
(-1149.2596 -57.331312 78.718952)
(-1106.8975 -54.023549 72.757825)
(-1067.1765 -51.302354 66.510511)
(-1029.3331 -49.304611 60.378764)
(-992.72861 -48.045322 54.704511)
(-956.86498 -47.442555 49.740465)
(-921.43727 -47.335392 45.64841)
(-886.29808 -47.490089 42.482488)
(-851.49012 -47.691133 40.22261)
(-817.20811 -47.628956 38.72645)
(-783.74 -47.151962 37.838438)
(-751.49512 -46.010429 37.327962)
(-720.93078 -44.113037 36.899701)
(-692.40783 -41.475437 36.393218)
(-666.4379 -37.944198 35.445434)
(-643.32152 -33.977489 33.960303)
(-625.10537 -29.300575 31.720894)
(-605.78261 -24.197116 28.537565)
(-592.75105 -19.432876 24.450012)
(-583.58728 -14.872995 19.684858)
(-573.77484 -10.666627 13.924821)
(-569.16132 -7.6653659 7.4408574)
(-566.05672 -5.3057284 0.47330864)
(-565.22738 -4.666858 -6.7294358)
(-563.42109 -5.0774098 -14.193188)
(-564.29768 -7.5892368 -21.355926)
(-562.88442 -11.306117 -28.209648)
(-562.08017 -16.708142 -34.394084)
(-559.66235 -23.641047 -39.674221)
(-555.56353 -31.967865 -43.982559)
(-549.32646 -41.906343 -46.810186)
(-540.50348 -52.590439 -48.659308)
(-528.95313 -63.694979 -48.82972)
(-514.35909 -75.779628 -47.407179)
(-497.42064 -87.852566 -44.87777)
(-476.60742 -99.339602 -40.536052)
(-454.38068 -110.86226 -35.294388)
(-427.99612 -120.79683 -28.539546)
(-401.02075 -130.07647 -21.171459)
(-371.92895 -137.5634 -12.795309)
(-340.82079 -143.37321 -4.179744)
(-308.90296 -146.60387 4.6662291)
(-278.01788 -148.58652 13.618358)
(-246.31426 -147.98947 22.066786)
(-215.25234 -144.0506 29.513465)
(-186.81479 -139.33405 36.971849)
(-159.05549 -131.6209 42.61034)
(-133.78133 -122.12459 47.19757)
(-110.34295 -109.89653 49.947903)
(-90.110992 -96.911746 51.654709)
(-71.93338 -82.256637 50.999417)
(-56.431759 -67.346228 48.067634)
(-41.371335 -49.76868 40.84672)
(-34.237972 -31.224706 28.258321)
(-6.8708141e-15 1.5083581e-15 1.9262289e-16)
(-1.2504183e-14 5.7375616e-16 8.4327435e-16)
(-8.3449101e-15 1.4891922e-15 5.3018253e-16)
(-4.9731758e-15 1.4991158e-15 6.2376313e-16)
(-3.4146159e-15 1.5624416e-15 3.1576894e-17)
(2.0582335e-15 9.3962624e-16 -5.746342e-16)
(2.2101935e-15 3.7457559e-17 -1.1841335e-16)
(2.4553765e-15 -8.5141669e-16 -9.3419562e-16)
(1.2987427e-15 1.0081898e-16 1.7950851e-15)
(-4.5074861e-15 9.063971e-16 1.0710522e-15)
(-5.2682467e-15 2.1856155e-15 1.0652666e-15)
(-7.4917339e-15 1.915055e-15 2.2418828e-16)
(-9.400838e-15 1.3708275e-15 6.2833768e-16)
(-6.2048683e-15 1.3247981e-15 5.4317906e-16)
(-6.971104e-15 1.5128103e-15 7.5678131e-16)
(-1.2693866e-14 6.2923345e-15 -2.1364834e-15)
(-5.2452578e-15 2.6791924e-15 -5.3037742e-16)
(-1.0752404e-15 9.8318743e-16 -1.0111087e-16)
(-2.7353382e-15 1.7746034e-15 7.3085398e-17)
(1.0178949e-15 -1.5450237e-16 -4.119182e-16)
(-1.4303492e-15 4.136346e-16 -3.3264033e-16)
(-1.0059749e-14 4.7133437e-15 -1.6449855e-15)
(2.9801421e-15 -1.9180379e-15 -8.3172098e-16)
(-4.79756e-15 2.8035442e-15 1.1420498e-15)
(-5.4778068e-15 3.5047253e-15 -3.934403e-16)
(-1.8117877e-15 1.1581936e-15 -9.1309836e-16)
(-3.9812639e-16 4.7407236e-16 -2.2932148e-16)
(-1.5272242e-15 1.100363e-15 -2.2557932e-16)
(-4.1024849e-15 1.9838802e-15 2.8069696e-17)
(-5.3424143e-16 2.551799e-16 -1.9455919e-16)
(-3650.0957 2251.3671 33.58201)
(-3652.4345 2254.831 33.040399)
(-3655.4992 2257.5479 32.433203)
(-3658.396 2258.7807 31.174722)
(-3661.1154 2258.6009 28.960641)
(-3663.2867 2256.6101 25.970924)
(-3664.6838 2252.7025 22.220137)
(-3665.1716 2247.1998 17.926429)
(-3664.7546 2240.2135 13.339554)
(-3663.5668 2232.2416 8.836572)
(-3661.749 2223.7796 4.5336468)
(-3659.5057 2215.1782 0.90223747)
(-3657.4778 2207.053 -2.0943127)
(-3655.2133 2199.9337 -3.8130696)
(-3654.0676 2192.9893 -5.7411221)
(-4068.2684 1086.2754 -9.3504334)
(-4074.2943 1085.0085 -7.4792512)
(-4080.8876 1083.4324 -5.0689916)
(-4087.4453 1081.2659 -1.544135)
(-4093.9697 1078.5716 2.4589211)
(-4099.505 1075.4868 6.8319204)
(-4103.5825 1072.2459 11.130944)
(-4105.7158 1069.0333 15.191146)
(-4105.6524 1066.1145 18.731003)
(-4103.3021 1063.6444 21.572954)
(-4098.8937 1061.7717 23.623905)
(-4092.6718 1060.6291 24.786628)
(-4085.4388 1060.0881 25.323282)
(-4077.135 1060.4728 25.047718)
(-4069.1268 1061.0219 25.188454)
(-12.060538 -15.651013 -26.233065)
(-24.850632 -28.817713 -28.905703)
(-37.298083 -40.36462 -33.487498)
(-52.673252 -51.157351 -33.095185)
(-69.447931 -60.813251 -32.056684)
(-89.382657 -69.765583 -28.798232)
(-111.10091 -77.499081 -24.779392)
(-135.74854 -84.304501 -19.678272)
(-161.86745 -89.56104 -14.177571)
(-190.10868 -93.514316 -8.3470319)
(-219.45843 -95.699591 -2.2490464)
(-249.9198 -96.328034 3.4861951)
(-280.67806 -94.894938 9.1669678)
(-311.63176 -91.826955 14.251119)
(-341.9691 -86.897237 18.932952)
(-371.45028 -80.184777 22.777098)
(-399.53882 -71.72136 26.053126)
(-426.01113 -61.836899 28.519389)
(-450.31173 -50.755785 30.272737)
(-472.2963 -38.529595 31.201918)
(-491.79545 -25.618563 31.437048)
(-508.56225 -12.314086 30.972842)
(-522.64371 1.1413176 29.837757)
(-534.12716 14.253793 28.095742)
(-542.91105 26.83459 25.752667)
(-549.39208 38.480568 22.914145)
(-553.81109 49.014644 19.550554)
(-556.57124 58.117938 15.799241)
(-557.96378 65.705592 11.682055)
(-558.70368 71.610823 7.3030545)
(-559.32813 75.937815 2.6193949)
(-560.18106 78.655843 -1.9207441)
(-562.19571 79.819848 -6.5450088)
(-565.78637 79.78659 -10.979976)
(-571.66046 78.79076 -15.227344)
(-580.29535 77.10952 -18.858213)
(-591.95833 75.033996 -21.960751)
(-607.12889 72.919207 -24.451)
(-625.81654 71.164765 -26.142034)
(-648.19445 69.738598 -27.041433)
(-673.95266 69.077155 -27.255532)
(-703.07189 69.134588 -26.742566)
(-735.00202 69.938071 -25.657806)
(-769.34351 71.333042 -24.183569)
(-805.57864 73.207517 -22.633368)
(-843.19826 75.270852 -21.159732)
(-881.69518 77.232973 -20.117092)
(-920.68649 78.802637 -19.732003)
(-959.89317 79.703743 -20.254994)
(-999.21933 79.734187 -21.849668)
(-1038.7568 78.800989 -24.6091)
(-1078.7988 76.926079 -28.517943)
(-1119.8378 74.291605 -33.462129)
(-1162.5304 71.218855 -39.215856)
(-1207.6611 68.178712 -45.459437)
(-1256.0809 65.752147 -51.798799)
(-1308.636 64.623012 -57.798612)
(-1366.1049 65.49693 -62.99326)
(-1429.1244 69.099271 -66.952686)
(-1498.1231 76.096992 -69.285425)
(-1573.3011 87.047904 -69.681882)
(-1654.5624 102.40356 -67.927914)
(-1741.537 122.39627 -63.957464)
(-1833.5701 147.06974 -57.707947)
(-1929.8302 176.47933 -49.543894)
(-2029.1587 209.91163 -39.502444)
(-2130.1476 247.12336 -27.778829)
(-2231.882 287.63704 -15.425761)
(-2332.8409 330.17017 -2.3455662)
(-2431.4766 374.43687 10.409729)
(-2527.0058 419.18834 22.884083)
(-2618.2379 463.70762 34.179178)
(-2704.4523 507.29007 44.111965)
(-2785.0722 549.24067 52.214675)
(-2859.8542 589.10199 58.305433)
(-2928.775 626.51032 62.271437)
(-2992.0227 661.30973 64.036355)
(-3050.0792 693.44379 63.689688)
(-3103.4443 723.05448 61.409801)
(-3152.9203 750.29397 57.40432)
(-3199.2121 775.5657 51.943186)
(-3243.1795 799.15392 45.340149)
(-3285.4008 821.3566 38.061233)
(-3326.7799 842.56065 30.270302)
(-3368.1439 863.54482 22.421314)
(-3409.5984 884.12333 14.765978)
(-3451.4546 904.84167 7.7203812)
(-3494.2634 925.851 1.4639307)
(-3537.7917 947.2819 -3.7053061)
(-3582.7066 969.36092 -7.6577229)
(-3627.912 991.99211 -10.32311)
(-3674.4732 1014.9474 -11.334877)
(-3721.218 1039.0145 -11.424771)
(-3768.0914 1062.3312 -9.4786422)
(-3824.9961 1089.128 -6.7970925)
(-6.5842128 -12.880435 -21.636541)
(-17.108496 -19.978548 -24.921832)
(-30.510969 -30.150184 -27.779641)
(-44.020998 -37.889018 -27.934503)
(-60.638014 -46.283721 -26.821719)
(-78.940098 -53.335357 -24.255329)
(-100.16485 -60.054169 -20.872183)
(-123.18424 -65.66174 -16.802399)
(-148.62322 -70.296576 -12.320761)
(-175.9095 -73.772013 -7.2486939)
(-204.73705 -75.972694 -2.428865)
(-234.88494 -76.723446 2.7002486)
(-265.82184 -76.039248 7.3885615)
(-297.28034 -73.776851 11.990629)
(-328.57451 -69.9086 15.977437)
(-359.49962 -64.480134 19.589919)
(-389.38499 -57.563002 22.556648)
(-418.02884 -49.199439 24.95346)
(-444.84383 -39.562622 26.682855)
(-469.64637 -28.896524 27.805236)
(-491.97229 -17.343899 28.292175)
(-511.7985 -5.2494498 28.164703)
(-528.82795 7.1199167 27.478147)
(-543.07888 19.479375 26.26469)
(-554.51863 31.439123 24.541914)
(-563.32837 42.804021 22.329933)
(-569.65711 53.227097 19.713786)
(-573.85408 62.479229 16.745926)
(-576.33583 70.406089 13.384637)
(-577.61436 76.918072 9.7676299)
(-578.12707 81.888343 6.0144607)
(-578.80023 85.448655 2.0650548)
(-580.14439 87.714151 -1.9233804)
(-582.7911 88.864756 -5.8185235)
(-587.39314 89.118327 -9.5000923)
(-594.62709 88.803917 -12.844527)
(-605.08182 88.23364 -15.747491)
(-619.00271 87.69132 -18.127478)
(-636.68239 87.49024 -19.893633)
(-658.29456 87.795999 -21.009374)
(-683.60728 88.842378 -21.434891)
(-712.45441 90.584055 -21.303312)
(-744.34937 93.037595 -20.640984)
(-778.84835 96.056753 -19.626704)
(-815.30743 99.403855 -18.491113)
(-853.11216 102.82096 -17.445671)
(-891.71336 105.98919 -16.755726)
(-930.60705 108.64686 -16.645203)
(-969.49291 110.55403 -17.333314)
(-1008.2388 111.59927 -18.954385)
(-1046.957 111.78467 -21.583127)
(-1085.9878 111.26133 -25.184485)
(-1125.8979 110.35067 -29.636424)
(-1167.4352 109.49831 -34.707941)
(-1211.4776 109.29438 -40.095481)
(-1258.9527 110.40025 -45.432535)
(-1310.7628 113.52517 -50.315066)
(-1367.7014 119.35989 -54.340169)
(-1430.3685 128.54924 -57.141712)
(-1499.1302 141.60801 -58.396539)
(-1574.0479 158.91285 -57.868969)
(-1654.8866 180.67893 -55.444189)
(-1741.099 206.86059 -51.042489)
(-1831.896 237.31836 -44.834461)
(-1926.0959 271.66204 -36.931924)
(-2022.6128 309.09702 -27.537297)
(-2120.15 349.54327 -17.53603)
(-2221.7876 392.35803 -6.4840234)
(-2318.8051 435.88881 4.7786678)
(-2412.2968 479.52344 15.806531)
(-2501.7781 522.53339 26.158042)
(-2586.519 564.27154 35.517441)
(-2665.838 604.22855 43.487326)
(-2739.4486 641.9025 49.845333)
(-2807.1889 677.09543 54.464322)
(-2869.2394 709.60883 57.232703)
(-2925.9395 739.52119 58.164822)
(-2977.806 766.89266 57.40838)
(-3025.4912 792.0339 55.028225)
(-3069.7484 815.13721 51.332834)
(-3111.2657 836.68733 46.493517)
(-3150.842 856.91792 40.77942)
(-3189.5167 876.4046 34.686484)
(-3215.7059 892.5199 27.964434)
(-3245.1513 908.91242 21.742077)
(-3282.5923 927.46275 15.449041)
(-3321.3923 946.52719 9.7517442)
(-3361.2172 966.18047 4.7870594)
(-3402.3148 986.45659 0.49782243)
(-3444.7091 1007.496 -2.3449185)
(-3488.2463 1029.2811 -4.7782493)
(-3532.9235 1051.2593 -5.0632272)
(-3578.9622 1074.8153 -5.5525754)
(-3624.9345 1096.9732 -3.2687847)
(-3680.7432 1123.1302 -1.597446)
(-3.9384531 -9.2380101 -17.506529)
(-13.55595 -15.110573 -19.732487)
(-24.141025 -21.803039 -23.132542)
(-37.920641 -28.341725 -23.010577)
(-53.622046 -34.745216 -22.06536)
(-72.007747 -40.830537 -19.692434)
(-92.291635 -46.205451 -16.989982)
(-115.3066 -50.969526 -13.531917)
(-140.34058 -54.775687 -9.4827153)
(-167.52051 -57.836139 -5.5615845)
(-196.43733 -59.528582 -1.1573584)
(-226.92043 -60.287983 2.939822)
(-258.47215 -59.554705 7.1487203)
(-290.76485 -57.590402 10.845866)
(-323.3524 -54.116655 14.409867)
(-355.74513 -49.323285 17.41552)
(-387.48581 -43.021777 20.021308)
(-418.10993 -35.456768 22.061173)
(-447.21305 -26.662788 23.614403)
(-474.32885 -16.811902 24.620771)
(-499.15313 -6.0866588 25.085676)
(-521.36785 5.2273744 25.098357)
(-540.72948 16.949849 24.616432)
(-557.14707 28.673935 23.720194)
(-570.53467 40.237785 22.397868)
(-580.96623 51.220305 20.755202)
(-588.57492 61.468163 18.750485)
(-593.70591 70.682957 16.445939)
(-596.68509 78.724363 13.883207)
(-598.01323 85.445605 11.116926)
(-598.36798 90.850248 8.1185883)
(-598.32083 94.974926 5.0291982)
(-598.58685 97.884359 1.8803426)
(-599.97881 99.804639 -1.2167273)
(-603.20611 100.97207 -4.2365785)
(-608.99613 101.71831 -7.0530033)
(-617.89489 102.31412 -9.5643114)
(-630.35608 103.06083 -11.660106)
(-646.72584 104.24981 -13.302269)
(-667.03014 106.1241 -14.387073)
(-691.23384 108.67427 -15.019219)
(-719.08555 112.07289 -15.146824)
(-750.12454 116.15707 -14.82465)
(-783.76781 120.77371 -14.242708)
(-819.32977 125.69575 -13.522481)
(-856.16417 130.60976 -12.882972)
(-893.60446 135.24869 -12.515016)
(-931.14889 139.33552 -12.619697)
(-968.43998 142.70287 -13.367536)
(-1005.3701 145.28783 -14.870038)
(-1042.0635 147.17145 -17.183965)
(-1078.9248 148.59213 -20.26605)
(-1116.5741 149.94081 -24.008298)
(-1155.8387 151.73183 -28.20266)
(-1197.6511 154.59603 -32.596621)
(-1242.992 159.19383 -36.869376)
(-1292.7834 166.20793 -40.693115)
(-1347.8051 176.26118 -43.740716)
(-1408.6266 189.87744 -45.717351)
(-1475.529 207.4386 -46.366695)
(-1548.493 229.15692 -45.542989)
(-1627.1755 255.05989 -43.129065)
(-1710.9116 284.92838 -39.133668)
(-1798.8138 318.52002 -33.700683)
(-1889.6181 355.10383 -26.801746)
(-1982.8428 394.39793 -19.084009)
(-2071.8569 434.53183 -10.041165)
(-2176.4293 479.09853 -0.83905264)
(-2267.8172 521.11285 8.3799472)
(-2355.3953 562.7435 17.209119)
(-2438.8699 603.02138 25.648726)
(-2517.311 641.58129 33.163994)
(-2590.3319 678.00575 39.588802)
(-2657.6777 712.01048 44.751578)
(-2719.4183 743.4356 48.459534)
(-2775.8216 772.3453 50.800322)
(-2827.3011 798.82185 51.66763)
(-2874.4632 823.06428 51.197086)
(-2917.9735 845.38432 49.457497)
(-2958.5731 866.08124 46.637124)
(-2997.0635 885.52639 42.848308)
(-3034.1091 904.02144 38.41095)
(-3070.4922 922.03147 33.368855)
(-3107.0294 939.93956 28.019457)
(-3126.994 952.13337 22.543416)
(-3162.7011 969.43602 17.367298)
(-3201.6789 987.99738 12.58699)
(-3242.0889 1007.3562 8.1741405)
(-3284.0115 1027.3991 4.6514073)
(-3327.924 1048.4302 1.8677072)
(-3373.0001 1070.1128 -0.080277697)
(-3420.2293 1092.4042 -0.64162474)
(-3468.9535 1116.0414 -0.80740185)
(-3518.2741 1138.6161 0.78551967)
(-3575.7016 1164.4802 2.6225778)
(-2.6154176 -7.872301 -14.0068)
(-10.265795 -11.382531 -16.542427)
(-20.657343 -16.437647 -18.74451)
(-33.853448 -21.260978 -18.404077)
(-49.784088 -26.484204 -17.359383)
(-67.709032 -31.208631 -15.419745)
(-88.677776 -35.733843 -12.963379)
(-111.88552 -39.531317 -9.6959563)
(-137.50525 -42.772635 -6.5746257)
(-165.37596 -44.996766 -2.8712435)
(-195.17876 -46.366745 0.6314833)
(-226.67923 -46.595182 4.2882313)
(-259.41249 -45.637831 7.5975797)
(-293.13411 -43.435424 10.812532)
(-327.16954 -39.903831 13.636025)
(-361.23939 -35.051655 16.087487)
(-394.66215 -28.849871 18.107813)
(-427.12954 -21.450654 19.711314)
(-457.96617 -12.826756 20.841865)
(-486.86561 -3.2402055 21.537079)
(-513.3284 7.1961644 21.828881)
(-537.06172 18.214891 21.745657)
(-557.75434 29.592071 21.29398)
(-575.28213 41.024842 20.566955)
(-589.49492 52.259369 19.561234)
(-600.47333 62.993512 18.323922)
(-608.34835 73.012839 16.85803)
(-613.41706 82.057098 15.254299)
(-616.021 90.006183 13.447656)
(-616.75991 96.736337 11.510869)
(-616.16204 102.24538 9.4627296)
(-614.98902 106.55547 7.3181347)
(-614.00446 109.82136 5.1163089)
(-613.99307 112.26074 2.8893452)
(-615.71348 114.09093 0.69069822)
(-619.92387 115.65461 -1.380739)
(-627.25228 117.22406 -3.247744)
(-638.0949 119.15333 -4.9998048)
(-652.87821 121.62761 -6.3472375)
(-671.64568 124.70714 -7.4577241)
(-694.31818 128.68779 -8.1551184)
(-720.52778 133.47878 -8.5236011)
(-749.86695 138.99067 -8.6383782)
(-781.68666 145.07653 -8.531292)
(-815.30637 151.45004 -8.3174438)
(-850.00355 157.82527 -8.1607502)
(-885.13547 163.93274 -8.1914627)
(-920.183 169.53445 -8.5635562)
(-954.82039 174.48611 -9.3919394)
(-988.95635 178.76401 -10.771255)
(-1022.7607 182.48889 -12.728108)
(-1056.6695 185.92678 -15.238621)
(-1091.3411 189.48733 -18.210721)
(-1127.6259 193.69394 -21.491459)
(-1166.468 199.15135 -24.881275)
(-1208.8463 206.48727 -28.136169)
(-1255.6574 216.33007 -31.01078)
(-1307.6544 229.21771 -33.251311)
(-1365.355 245.59123 -34.627655)
(-1428.998 265.74164 -34.965708)
(-1498.5197 289.77777 -34.130548)
(-1573.5269 317.62982 -32.034587)