/*--------------------------------*- C++ -*----------------------------------*\
  =========                 |
  \\      /  F ield         | OpenFOAM: The Open Source CFD Toolbox
   \\    /   O peration     | Website:  https://openfoam.org
    \\  /    A nd           | Version:  6
     \\/     M anipulation  |
\*---------------------------------------------------------------------------*/
FoamFile
{
    version     2.0;
    format      ascii;
    class       pointVectorField;
    location    "0.6";
    object      u;
}
// * * * * * * * * * * * * * * * * * * * * * * * * * * * * * * * * * * * * * //

dimensions      [0 1 0 0 0 0 0];

internalField   nonuniform List<vector> 
28033
(
(0 2.6816909e-19 0)
(0 1.817075e-18 0)
(1.7395136 -0.090812096 0.0066400811)
(1.6540923 -0.49519905 0.0051739619)
(0 1.6620344e-18 0)
(0 2.6727679e-18 0)
(1.6545936 -0.49713569 0.0053008183)
(1.7399424 -0.092886196 0.006508129)
(0 5.9273221e-19 0)
(0 1.7448465e-19 0)
(0 1.4087506e-18 0)
(0 -6.6944389e-19 0)
(0 8.9374353e-19 0)
(0 -5.2068952e-19 0)
(0 -1.2307726e-20 0)
(-4.0111122e-19 -1.3084928e-19 0)
(0 2.4100292e-19 0)
(0 1.1804941e-19 0)
(0 -4.5032567e-19 0)
(0 4.3566629e-19 0)
(0 5.248171e-19 0)
(0 -4.2713991e-19 0)
(0 5.5307601e-19 0)
(1.7341851 -0.1160632 0.0065614388)
(1.7288559 -0.14131469 0.0064867987)
(1.7235279 -0.16657966 0.0064101216)
(1.7181956 -0.19184481 0.0063232175)
(1.712863 -0.21712245 0.0062383242)
(1.707523 -0.24240994 0.0061390704)
(1.7021804 -0.26769961 0.0060422396)
(1.6968348 -0.29299694 0.0059370188)
(1.6914842 -0.31829273 0.0058322294)
(1.6861365 -0.34358574 0.0057267865)
(1.6807865 -0.36887309 0.005625387)
(1.6754408 -0.39415162 0.005527497)
(1.6700998 -0.41942325 0.0054366701)
(1.6647633 -0.44468884 0.0053470494)
(1.6594272 -0.46994819 0.0052627395)
(0.0033309397 0.0055640033 0.0062356142)
(0.0037431601 0.0087560387 0.0087109103)
(0.0046327979 0.012136175 0.01061222)
(0.0061743709 0.015646491 0.011835631)
(0.0080553583 0.019322297 0.012665144)
(0.010657198 0.023032796 0.013240452)
(0.013769795 0.026889524 0.013633518)
(0.017482161 0.03062804 0.013865307)
(0.021742794 0.034527524 0.014034594)
(0.026586405 0.038269538 0.014118207)
(0.031919679 0.042083926 0.014185771)
(0.037841792 0.045781908 0.014160762)
(0.044236141 0.049493585 0.014216816)
(0.051242649 0.053091387 0.01414362)
(0.058654588 0.056653357 0.014181301)
(0.066691532 0.060113178 0.014081835)
(0.075168694 0.063528036 0.014101261)
(0.084220007 0.066809327 0.014016434)
(0.093727008 0.070034213 0.013992689)
(0.10379701 0.07313122 0.013899152)
(0.1143319 0.076142899 0.013860103)
(0.12540399 0.079016612 0.013748096)
(0.13695393 0.081791267 0.013679076)
(0.14901695 0.084431337 0.013566858)
(0.16155412 0.086933818 0.013455921)
(0.17459325 0.08931737 0.013327542)
(0.18808494 0.091535415 0.013201624)
(0.20206193 0.093632786 0.01305942)
(0.21649117 0.09555475 0.012903323)
(0.23136533 0.097341953 0.012755039)
(0.24668814 0.098958598 0.012589306)
(0.26242394 0.10041828 0.012423619)
(0.27858906 0.10172023 0.012259896)
(0.29515243 0.10284314 0.012091017)
(0.3121125 0.10381769 0.01192114)
(0.32946584 0.10460819 0.011746545)
(0.34717965 0.10524225 0.0115857)
(0.3652703 0.10569867 0.011420135)
(0.38369935 0.10598656 0.01124565)
(0.40248293 0.1061131 0.011084882)
(0.42158617 0.10605748 0.010917645)
(0.44101992 0.10585401 0.010757223)
(0.46076454 0.10546719 0.010589153)
(0.4808159 0.10492565 0.010428661)
(0.50115361 0.10421304 0.010264122)
(0.52178219 0.10334443 0.010101624)
(0.54267696 0.10231291 0.0099399715)
(0.56384352 0.10112601 0.0097785963)
(0.58525729 0.099783845 0.0096202115)
(0.60692267 0.098290565 0.0094643706)
(0.62881839 0.096648829 0.0093126532)
(0.65094487 0.09486153 0.0091665183)
(0.67328649 0.092933173 0.009026665)
(0.69583961 0.090864947 0.0088946882)
(0.71859389 0.088662424 0.008770866)
(0.74154339 0.086325965 0.0086564459)
(0.76468138 0.083859827 0.0085510019)
(0.78800208 0.081264953 0.0084543642)
(0.81150003 0.078543549 0.0083657379)
(0.83517094 0.075694971 0.0082839011)
(0.85900962 0.072721794 0.0082066078)
(0.88301365 0.06962119 0.0081313497)
(0.90717374 0.06639652 0.0080574364)
(0.93149659 0.063037615 0.0079765273)
(0.95595811 0.05956009 0.0078989014)
(0.98057223 0.055946493 0.0078015983)
(1.0053194 0.052196778 0.0077029507)
(1.0301961 0.048321534 0.007588535)
(1.0551938 0.04431783 0.0074565959)
(1.0802968 0.040183365 0.0073132111)
(1.1054979 0.035924595 0.0071625812)
(1.1307844 0.031544207 0.0069976948)
(1.1561434 0.027048916 0.0068243023)
(1.1815572 0.02244302 0.006648395)
(1.2070172 0.01773907 0.0064703029)
(1.2325031 0.012937608 0.0062987873)
(1.2580081 0.0080598237 0.0061344966)
(1.2835146 0.0031020133 0.0059867921)
(1.3090162 -0.001910295 0.0058543086)
(1.3344991 -0.006983642 0.0057492613)
(1.3599646 -0.012092988 0.005661789)
(1.3853956 -0.017240541 0.0056101918)
(1.4108048 -0.022415302 0.0055791001)
(1.4361744 -0.027609022 0.0055811561)
(1.4615228 -0.032820001 0.0056063707)
(1.4868383 -0.038037493 0.0056557868)
(1.5121405 -0.043278469 0.0057250588)
(1.5374175 -0.048507393 0.0058088947)
(1.5626912 -0.053771619 0.0059061845)
(1.5879504 -0.05901283 0.0060082321)
(1.6132148 -0.064299599 0.006116777)
(1.6384726 -0.069560954 0.0062229977)
(1.6637379 -0.074867047 0.0063301712)
(1.6889982 -0.080164543 0.0064352422)
(1.71426 -0.085482855 0.0065360506)
(0.0015935119 -0.0063750367 -0.007489501)
(0.0027135889 -0.0087809961 -0.0088627374)
(0.0032721147 -0.012186178 -0.011618989)
(0.0040039056 -0.015218564 -0.012646286)
(0.0057819653 -0.018795526 -0.013743169)
(0.0078412345 -0.022596554 -0.014296971)
(0.010520651 -0.026130258 -0.014775247)
(0.013726373 -0.030107899 -0.014952689)
(0.017527609 -0.033952056 -0.015122552)
(0.02173155 -0.037914853 -0.015151767)
(0.026535325 -0.041939857 -0.01515167)
(0.031733392 -0.045985551 -0.015105573)
(0.037473955 -0.050103618 -0.015027816)
(0.043635624 -0.054262017 -0.014956955)
(0.050296813 -0.058447538 -0.014847139)
(0.05739013 -0.062717968 -0.014759002)
(0.064966975 -0.066980162 -0.014639914)
(0.07298597 -0.071337731 -0.014527708)
(0.081466995 -0.075715213 -0.0144159)
(0.090420686 -0.080152795 -0.014289109)
(0.099809243 -0.084625335 -0.014156869)
(0.10967527 -0.089173822 -0.014030434)
(0.11996963 -0.093720636 -0.01388111)
(0.13073823 -0.098368889 -0.013732565)
(0.14193406 -0.10301191 -0.013576005)
(0.15360298 -0.10774611 -0.013391719)
(0.16568362 -0.1124944 -0.013228482)
(0.1782283 -0.11730414 -0.013019405)
(0.19118156 -0.12215233 -0.012830513)
(0.20457841 -0.12703475 -0.01259977)
(0.21837438 -0.13197628 -0.012380242)
(0.23259813 -0.13694257 -0.012138517)
(0.24721138 -0.14196465 -0.011891751)
(0.26223356 -0.1470141 -0.011630295)
(0.27763243 -0.15211766 -0.011362768)
(0.29342113 -0.15724737 -0.011090505)
(0.30957338 -0.16241794 -0.010793939)
(0.32609051 -0.16763608 -0.010508764)
(0.34296019 -0.17288327 -0.010209126)
(0.36018143 -0.17817322 -0.0099082365)
(0.37773718 -0.18349898 -0.0096024353)
(0.3956252 -0.18885961 -0.0092961519)
(0.41383409 -0.19425704 -0.008987251)
(0.43235773 -0.19968721 -0.0086799466)
(0.45118587 -0.20515102 -0.0083728459)
(0.4703133 -0.21064609 -0.0080678772)
(0.48972826 -0.21617166 -0.0077662271)
(0.50942628 -0.22172593 -0.0074674077)
(0.52939624 -0.22730853 -0.007173368)
(0.54963207 -0.23291685 -0.0068835298)
(0.57012492 -0.23855176 -0.0065986814)
(0.59086744 -0.24421076 -0.0063188793)
(0.61185206 -0.24989426 -0.0060437569)
(0.63307228 -0.25560179 -0.005773192)
(0.65452093 -0.26133301 -0.0055063227)
(0.67619272 -0.26708785 -0.0052423991)
(0.69808221 -0.27286771 -0.0049797353)
(0.7201845 -0.27867116 -0.0047173806)
(0.74249597 -0.28450034 -0.0044528484)
(0.76501303 -0.29035422 -0.0041846413)
(0.7877325 -0.29623365 -0.0039100505)
(0.81065167 -0.30213709 -0.003627763)
(0.8337679 -0.30806525 -0.0033345438)
(0.8570781 -0.31401447 -0.0030298491)
(0.88057845 -0.3199844 -0.0027113743)
(0.90426586 -0.32597029 -0.0023785814)
(0.92813339 -0.3319692 -0.0020322405)
(0.95217737 -0.3379766 -0.0016695331)
(0.97638427 -0.34398064 -0.0013008632)
(1.0007492 -0.34998013 -0.00091074759)
(1.0252637 -0.35598095 -0.00052218834)
(1.0499105 -0.36194783 -0.00012446255)
(1.0746808 -0.36790534 0.00027220277)
(1.0995587 -0.37382188 0.00066545423)
(1.1245301 -0.3797085 0.0010510419)
(1.1495801 -0.38555076 0.0014240169)
(1.1746938 -0.39134897 0.0017810489)
(1.1998588 -0.39709973 0.0021190272)
(1.2250595 -0.40280138 0.0024350169)
(1.2502861 -0.40845406 0.0027260818)
(1.2755277 -0.41406071 0.0029933546)
(1.3007759 -0.41962117 0.0032339096)
(1.326025 -0.42514322 0.0034521305)
(1.3512697 -0.43062702 0.0036452254)
(1.3765087 -0.43608266 0.003820305)
(1.4017403 -0.44151045 0.0039754698)
(1.4269661 -0.44692091 0.0041183515)
(1.4521878 -0.45231427 0.0042485863)
(1.4774082 -0.4576987 0.0043721338)
(1.5026307 -0.46307479 0.0044904245)
(1.5278576 -0.46844624 0.0046061873)
(1.553092 -0.47381296 0.0047213234)
(1.5783344 -0.47917494 0.0048359377)
(1.6035847 -0.48452994 0.0049512629)
(1.6288404 -0.48987162 0.005063341)
(0 -7.4343999e-19 0)
(0 -5.5451356e-19 0)
(0 5.2477087e-19 0)
(0 -3.3222276e-19 0)
(0 -2.8328478e-19 0)
(0 1.5579679e-18 0)
(0 -4.5192871e-19 0)
(-1.0293691e-18 2.8773473e-19 0)
(0 -2.5721657e-19 0)
(0 6.172342e-19 0)
(0 7.3123675e-19 0)
(0 2.5527724e-19 0)
(0 1.3620913e-19 0)
(0 -2.8125466e-19 0)
(0 1.9528523e-19 0)
(0.0035445623 -0.0026566738 0.0054096183)
(0.0036241746 -0.010226604 0.0087493765)
(0.0032514883 -0.010768111 0.010613824)
(0.0045972774 -0.016116415 0.012501128)
(0.005929604 -0.018581772 0.013373986)
(0.0082305974 -0.022799579 0.013923876)
(0.010858443 -0.026200287 0.014355428)
(0.014176097 -0.030359585 0.014583736)
(0.017959472 -0.034043536 0.014727345)
(0.022175603 -0.038208935 0.014778156)
(0.027059749 -0.042154162 0.014846383)
(0.032175454 -0.046214014 0.014797066)
(0.037995426 -0.050444436 0.014832781)
(0.044075521 -0.054461361 0.014747664)
(0.05080098 -0.058882196 0.014760274)
(0.057845403 -0.062892838 0.01468719)
(0.0654278 -0.067420071 0.014660524)
(0.073459897 -0.071539574 0.014549227)
(0.081925204 -0.076125871 0.01450982)
(0.090919033 -0.080411739 0.01438679)
(0.10029902 -0.084970662 0.014309467)
(0.11020432 -0.089486925 0.01416508)
(0.12052387 -0.094079305 0.014055966)
(0.13133631 -0.098714814 0.013895787)
(0.14257454 -0.10337508 0.013728029)
(0.15428924 -0.10813818 0.013554015)
(0.16641448 -0.11288025 0.013351285)
(0.17899709 -0.11776056 0.013156138)
(0.19200477 -0.1225921 0.012933576)
(0.20541462 -0.12756224 0.012724719)
(0.21926843 -0.13250577 0.012495215)
(0.23350214 -0.13753437 0.012276205)
(0.24814708 -0.14257864 0.012046475)
(0.26316832 -0.14768636 0.011828095)
(0.2785865 -0.1528163 0.011605631)
(0.29435807 -0.15797469 0.011388869)
(0.31049459 -0.16321097 0.011179495)
(0.32700271 -0.16844904 0.010974974)
(0.34384741 -0.17373156 0.010774622)
(0.36104182 -0.17904921 0.010576226)
(0.37856961 -0.18440177 0.010383421)
(0.39642656 -0.18978712 0.010192098)
(0.41460663 -0.19520727 0.010002635)
(0.43310197 -0.20065963 0.0098141344)
(0.45190562 -0.20614533 0.0096259888)
(0.47101096 -0.21166328 0.0094375743)
(0.49040973 -0.21721305 0.0092489227)
(0.51009483 -0.22279436 0.0090600561)
(0.53005729 -0.22840629 0.0088722275)
(0.55028973 -0.23404841 0.0086852361)
(0.57078279 -0.23972019 0.0085018994)
(0.5915294 -0.24542043 0.0083208829)
(0.61252032 -0.25114986 0.0081468368)
(0.63374862 -0.25690557 0.007977374)
(0.65520615 -0.26269043 0.0078173301)
(0.67688715 -0.26849991 0.0076639154)
(0.69878408 -0.27433736 0.0075211318)
(0.72089337 -0.28019923 0.0073858394)
(0.74320853 -0.2860865 0.0072599614)
(0.76572745 -0.29199765 0.0071409482)
(0.78844507 -0.29793154 0.0070281964)
(0.81136011 -0.30388634 0.0069190845)
(0.83446824 -0.30986093 0.0068123762)
(0.85776786 -0.31585092 0.0067046233)
(0.88125478 -0.32185483 0.00659443)
(0.9049263 -0.32786973 0.0064789943)
(0.92877668 -0.33388457 0.0063546117)
(0.95280478 -0.33991692 0.0062288211)
(0.97698483 -0.3459085 0.0060889239)
(1.0013335 -0.35193476 0.0059415028)
(1.0258297 -0.35791597 0.0057889946)
(1.0504569 -0.36388382 0.005630717)
(1.0752111 -0.36982337 0.0054672123)
(1.1000731 -0.37573184 0.0053054129)
(1.1250311 -0.38160326 0.0051460414)
(1.1500699 -0.38743425 0.0049938942)
(1.1751752 -0.3932222 0.0048522036)
(1.2003328 -0.3989656 0.0047257122)
(1.2255293 -0.40466279 0.0046163022)
(1.2507534 -0.41031505 0.0045276218)
(1.2759938 -0.41592368 0.0044610511)
(1.3012432 -0.42149109 0.0044181142)
(1.3264934 -0.42702048 0.004398308)
(1.3517419 -0.43251628 0.0044017711)
(1.3769836 -0.43798235 0.0044259164)
(1.4022203 -0.4434234 0.0044690246)
(1.4274501 -0.44884433 0.0045277046)
(1.4526774 -0.45424818 0.0045986958)
(1.4779022 -0.45964039 0.00467886)
(1.5031297 -0.46502088 0.0047640267)
(1.5283608 -0.47039567 0.0048530627)
(1.5535978 -0.4757598 0.0049416179)
(1.5788425 -0.48112079 0.0050313557)
(1.6040907 -0.48646682 0.0051193105)
(1.6293448 -0.49181031 0.0052093716)
(1.659921 -0.47188556 0.005382789)
(1.6652529 -0.44663503 0.0054585683)
(1.6705824 -0.4213822 0.0055416159)
(1.6759188 -0.39612347 0.005620038)
(1.6812555 -0.37086654 0.0056977143)
(1.6865966 -0.34559181 0.0057724719)
(1.6919355 -0.32032553 0.0058439451)
(1.6972746 -0.29503979 0.0059167894)
(1.702623 -0.26977206 0.0059836481)
(1.7079465 -0.24447692 0.0060577359)
(1.7132872 -0.21921301 0.0061284065)
(1.7186142 -0.1939311 0.0062014904)
(1.7239503 -0.16867438 0.0062798606)
(1.7292768 -0.14340425 0.0063540729)
(1.7346094 -0.11814757 0.0064344217)
(1.7146822 -0.087553617 0.0063833288)
(1.6894096 -0.082236369 0.0062537042)
(1.6641403 -0.076926509 0.0061258035)
(1.638861 -0.071625031 0.0059919632)
(1.6135874 -0.066333196 0.005854515)
(1.5883099 -0.061050055 0.0057185464)
(1.5630323 -0.055774421 0.0055750101)
(1.5377492 -0.050506983 0.005429817)
(1.5124577 -0.045248063 0.0052759274)
(1.4871541 -0.039998613 0.0051132167)
(1.4618324 -0.034760086 0.0049376172)
(1.4364908 -0.029537697 0.0047480537)
(1.4111235 -0.024332282 0.0045396057)
(1.3857307 -0.019153748 0.0043122308)
(1.3603141 -0.014006048 0.0040639169)
(1.3348722 -0.0088961596 0.0037941867)
(1.3094099 -0.0038332177 0.0035025232)
(1.283932 0.0011743536 0.0031893389)
(1.2584469 0.0061193877 0.0028561615)
(1.2329634 0.010989899 0.0025058106)
(1.2074927 0.015781003 0.0021400837)
(1.1820472 0.020480656 0.0017624225)
(1.1566389 0.025086372 0.0013757274)
(1.1312837 0.029584014 0.00098510782)
(1.1059913 0.033979177 0.00059041353)
(1.0807837 0.038257396 0.00020092402)
(1.0556477 0.042426025 -0.00018747845)
(1.0306825 0.046407165 -0.00054850492)
(1.0057529 0.050365957 -0.00092996765)
(0.98099742 0.054138502 -0.0012822863)
(0.9563623 0.057805803 -0.0016335962)
(0.93187684 0.061343392 -0.0019661507)
(0.90754047 0.064755026 -0.0022888662)
(0.88336258 0.06804098 -0.0026000318)
(0.85934734 0.07120023 -0.0029005056)
(0.83549951 0.074233749 -0.0031918414)
(0.81182424 0.077138898 -0.0034756378)
(0.78832563 0.079916495 -0.0037524955)
(0.76500869 0.082563195 -0.0040244601)
(0.74187803 0.085078643 -0.0042924646)
(0.7189395 0.087459225 -0.0045577853)
(0.69619863 0.089703668 -0.0048211022)
(0.6736623 0.091808092 -0.0050836826)
(0.65133729 0.09377078 -0.0053455007)
(0.62923159 0.095587901 -0.0056074637)
(0.60735299 0.097257607 -0.0058694914)
(0.58571047 0.098776367 -0.0061318917)
(0.56431241 0.10014265 -0.0063944852)
(0.54316869 0.10135304 -0.006657628)
(0.52228769 0.10240725 -0.0069206067)
(0.50168032 0.10330044 -0.0071838357)
(0.48135362 0.10403635 -0.0074472478)
(0.46132112 0.10460446 -0.0077092158)
(0.44158734 0.10501691 -0.0079738536)
(0.42216815 0.10525568 -0.0082326873)
(0.40307121 0.10533558 -0.0084932203)
(0.38429753 0.10525463 -0.0087535432)
(0.36586532 0.1049879 -0.00901189)
(0.34780892 0.10455787 -0.0092566689)
(0.33008117 0.10398576 -0.0095160178)
(0.31273202 0.10320886 -0.0097667163)
(0.29579553 0.10228094 -0.010000326)
(0.27922478 0.10118919 -0.010237546)
(0.26305853 0.09993061 -0.010474416)
(0.24730348 0.098485754 -0.010703666)
(0.2320049 0.096904489 -0.010923356)
(0.21710554 0.095141131 -0.011125912)
(0.20268988 0.09323624 -0.011333926)
(0.18869682 0.091164038 -0.011527058)
(0.1751908 0.088962097 -0.011722612)
(0.16214294 0.086589296 -0.011891955)
(0.14957833 0.084093537 -0.012075126)
(0.13752457 0.081441129 -0.012219629)
(0.12594233 0.078716713 -0.012384629)
(0.11485418 0.07579663 -0.012533702)
(0.10430215 0.07282477 -0.012653392)
(0.094216094 0.069706619 -0.01281438)
(0.084681518 0.066502136 -0.012897312)
(0.075621636 0.063222267 -0.01306337)
(0.067110195 0.059801459 -0.01312888)
(0.059117138 0.056372883 -0.01326516)
(0.051601508 0.052778195 -0.013310225)
(0.044634284 0.049252537 -0.013461241)
(0.038199755 0.045472467 -0.013453355)
(0.032287618 0.041906871 -0.013571219)
(0.026894587 0.038028692 -0.013528535)
(0.02207525 0.034330343 -0.013516756)
(0.01779357 0.030449974 -0.013375608)
(0.014047006 0.026741087 -0.013208712)
(0.010902899 0.022916912 -0.012848775)
(0.0083309567 0.01917868 -0.012272602)
(0.006391534 0.015397026 -0.011448593)
(0.0050662926 0.012154309 -0.01027973)
(0.0039664107 0.0084365509 -0.0081381623)
(0.0050062298 0.0053042335 -0.0047094399)
(0 8.3413379e-19 0)
(0 3.1690902e-19 0)
(0 8.2254187e-19 0)
(0 8.2802306e-19 0)
(0 8.6300051e-19 0)
(0 5.1899407e-19 0)
(0 2.0689344e-20 0)
(0 -4.7027232e-19 -5.1599451e-19)
(0 5.5686451e-20 0)
(0 5.0064025e-19 0)
(0 1.207205e-18 0)
(0 1.0577634e-18 0)
(0 7.5716416e-19 0)
(0 7.3174025e-19 0)
(0 8.3558719e-19 0)
(0 3.4316104e-18 0)
(0 1.4611341e-18 0)
(0 5.3619467e-19 0)
(0 9.6780415e-19 0)
(0 -8.4259977e-20 0)
(0 2.2558127e-19 0)
(0 2.5704863e-18 0)
(0 -1.0460281e-18 -4.5359038e-19)
(0 1.528951e-18 0)
(0 1.9113497e-18 0)
(0 6.3163667e-19 0)
(0 2.5854182e-19 0)
(0 6.0009794e-19 0)
(0 1.0819361e-18 0)
(0 1.3916584e-19 0)
(1.6541297 -0.49533417 0.0051762551)
(1.6541651 -0.49546491 0.0051798443)
(1.6542009 -0.49559082 0.0051856432)
(1.6542349 -0.49571029 0.0051959111)
(1.6542668 -0.49582864 0.0052055417)
(1.6542981 -0.49594301 0.0052183166)
(1.6543269 -0.49605746 0.0052297357)
(1.6543558 -0.4961712 0.0052433102)
(1.6543837 -0.49628765 0.005254654)
(1.654412 -0.49640439 0.00526776)
(1.6544397 -0.49652501 0.0052786462)
(1.6544679 -0.49664575 0.0052889785)
(1.6544965 -0.49676941 0.0052964397)
(1.6545261 -0.49689216 0.0053003186)
(1.6545577 -0.49701674 0.0053022943)
(1.7395407 -0.090939439 0.0066396444)
(1.7395646 -0.091074205 0.0066341361)
(1.7395893 -0.091207624 0.0066238688)
(1.7396142 -0.091341903 0.0066093067)
(1.7396394 -0.091473037 0.0065949616)
(1.7396659 -0.091602998 0.006578819)
(1.7396942 -0.091729986 0.006564648)
(1.7397236 -0.091855738 0.006550342)
(1.7397547 -0.091979565 0.0065383492)
(1.7397862 -0.092102783 0.0065277007)
(1.7398183 -0.092226252 0.0065187978)
(1.7398479 -0.092350846 0.0065127329)
(1.7398774 -0.09247724 0.0065077475)
(1.7399023 -0.092608406 0.0065063768)
(1.7399239 -0.092743031 0.006507695)
(0.0013907648 0.0022004618 0.0062457312)
(0.0016973981 0.0028927559 0.007349883)
(0.002089791 0.0038055284 0.0092501824)
(0.0032449454 0.0046671106 0.010057145)
(0.0045094008 0.0055551699 0.010975964)
(0.0066426785 0.0066002966 0.011458886)
(0.0090867884 0.0076795852 0.011856106)
(0.012326776 0.0089705165 0.012093459)
(0.015867841 0.01022616 0.012282372)
(0.020152853 0.011704216 0.01240045)
(0.02483297 0.013120524 0.01243713)
(0.030158817 0.014763302 0.012521493)
(0.035913938 0.016314256 0.012492595)
(0.042279411 0.018096442 0.012531501)
(0.049087683 0.019795282 0.012495376)
(0.056518416 0.021682741 0.012510806)
(0.064423393 0.023529272 0.012448475)
(0.072857091 0.025507685 0.012456627)
(0.081859997 0.027493284 0.01239472)
(0.091386646 0.029556602 0.012360782)
(0.10145147 0.031655693 0.012304279)
(0.11205827 0.033789782 0.012249834)
(0.12322439 0.035982038 0.012163851)
(0.13489841 0.038185033 0.01209559)
(0.1471466 0.04042591 0.011993532)
(0.15991276 0.042678418 0.011895107)
(0.17322317 0.044949979 0.011779517)
(0.18705003 0.047219354 0.011661531)
(0.20141207 0.049485666 0.011531104)
(0.21628432 0.051746021 0.011394431)
(0.23165805 0.053978803 0.011252268)
(0.24753763 0.056190267 0.011103515)
(0.26390171 0.058364425 0.010957725)
(0.28073349 0.060490103 0.010804212)
(0.29804335 0.06257103 0.010651607)
(0.31579577 0.064574854 0.010500544)
(0.33399554 0.066527469 0.010345947)
(0.35261294 0.06838901 0.010192522)
(0.37165958 0.070171773 0.010040838)
(0.39109888 0.071857026 0.0098921469)
(0.41093291 0.073439317 0.0097457228)
(0.43113463 0.074903358 0.0095934981)
(0.45170477 0.076261841 0.0094492121)
(0.47262205 0.077480036 0.0092999753)
(0.49386785 0.078574852 0.0091526486)
(0.51543635 0.079525248 0.0090075528)
(0.53730624 0.080328115 0.0088604315)
(0.55946704 0.080978771 0.0087181711)
(0.5819001 0.081468927 0.0085759754)
(0.60459381 0.081794139 0.0084387468)
(0.62752971 0.081949195 0.0083049284)
(0.65069554 0.081927759 0.0081781696)
(0.67407498 0.081726337 0.0080569032)
(0.69765521 0.081338155 0.0079446991)
(0.7214219 0.080759931 0.0078401006)
(0.74536298 0.079984432 0.0077451816)
(0.76946643 0.079008463 0.0076583848)
(0.79372117 0.077824502 0.0075802115)
(0.81811689 0.076428118 0.007509287)
(0.84264443 0.074812798 0.0074440435)
(0.86729428 0.072973278 0.0073822602)
(0.89205817 0.070903875 0.0073227254)
(0.91692714 0.068598782 0.0072617598)
(0.94189405 0.066051525 0.0071999469)
(0.96694354 0.063267849 0.0071278011)
(0.9920826 0.060222994 0.0070518465)
(1.0172897 0.056942813 0.0069663216)
(1.04254 0.053412441 0.0068729876)
(1.0678395 0.049629202 0.0067692896)
(1.0931686 0.045601228 0.0066564759)
(1.118517 0.041336926 0.006534872)
(1.1438691 0.036834791 0.0064060587)
(1.1692111 0.032108555 0.0062725004)
(1.1945266 0.027164131 0.0061399776)
(1.2198049 0.022012422 0.0060083523)
(1.2450291 0.016662117 0.0058857107)
(1.2701913 0.011129829 0.0057708427)
(1.2952772 0.0054183141 0.0056721542)
(1.3202828 -0.00044845123 0.0055876541)
(1.345197 -0.0064746613 0.0055256072)
(1.370022 -0.012632106 0.0054806073)
(1.3947489 -0.018925327 0.0054629177)
(1.4193864 -0.02533724 0.0054625426)
(1.4439305 -0.031858008 0.0054872965)
(1.4683914 -0.038483916 0.0055273674)
(1.492776 -0.045205158 0.0055874497)
(1.5170921 -0.052015052 0.0056613083)
(1.5413427 -0.058905562 0.005747203)
(1.56555 -0.06587081 0.0058413659)
(1.5897041 -0.072901016 0.0059423159)
(1.6138383 -0.079996268 0.0060446704)
(1.6379316 -0.087134455 0.0061498889)
(1.6620216 -0.094329731 0.0062534611)
(1.6860829 -0.10154596 0.0063579644)
(1.7101427 -0.10879882 0.0064607708)
(-0.00047943795 -0.00021148683 0.0054867671)
(-0.00062071881 -0.0028142333 0.006627473)
(2.3681324e-06 -0.0036830748 0.0078763555)
(0.00039538257 -0.0055034142 0.0088063868)
(0.0015146552 -0.0066342895 0.0094282306)
(0.0030215429 -0.0079806687 0.009847554)
(0.0051849031 -0.0089443281 0.010174641)
(0.0077129277 -0.0099566863 0.010410815)
(0.010928362 -0.010682897 0.010605162)
(0.014611765 -0.011367406 0.010649605)
(0.018810944 -0.011799429 0.01081261)
(0.023575774 -0.012146795 0.010765468)
(0.028833814 -0.012250995 0.010878016)
(0.034656764 -0.012252807 0.010818451)
(0.040966974 -0.012032061 0.010901161)
(0.047895429 -0.011658923 0.010804101)
(0.055245911 -0.011096895 0.010880651)
(0.063278503 -0.010357488 0.010800817)
(0.071760027 -0.0094392089 0.010813452)
(0.080869081 -0.0083469262 0.010760448)
(0.090498787 -0.0070688421 0.010740252)
(0.10074314 -0.0056236684 0.010670658)
(0.11152319 -0.0040057118 0.010633363)
(0.12291706 -0.0022275566 0.010559548)
(0.13486879 -0.00029517472 0.010489536)
(0.14742003 0.0017938193 0.01040027)
(0.16053865 0.0040159484 0.010311272)
(0.17424458 0.0063730072 0.010209329)
(0.18852234 0.0088483271 0.01009768)
(0.20337051 0.011435843 0.0099811332)
(0.21878292 0.014117169 0.0098605471)
(0.2347517 0.0168855 0.0097329408)
(0.25126079 0.019724622 0.0096013932)
(0.26830921 0.022622531 0.0094694696)
(0.28587902 0.025562878 0.0093347519)
(0.30395932 0.028534752 0.0092004983)
(0.32254693 0.031517779 0.0090643176)
(0.34161208 0.034501073 0.0089347185)
(0.36113593 0.037465737 0.0088032374)
(0.3811231 0.040407916 0.0086732038)
(0.40153889 0.043290864 0.0085399196)
(0.42237861 0.04612705 0.0084178657)
(0.44362744 0.048867965 0.008280012)
(0.46525258 0.051530856 0.0081596591)
(0.48725237 0.054082048 0.0080292785)
(0.50960049 0.05651122 0.0079053897)
(0.5322771 0.05880564 0.0077804407)
(0.55526619 0.060951319 0.007659724)
(0.57854523 0.062933736 0.0075388705)
(0.60209588 0.064741881 0.007424879)
(0.6258967 0.066362173 0.0073133246)
(0.64992965 0.067781986 0.0072094853)
(0.6741736 0.068990886 0.007111385)
(0.69861091 0.069974601 0.0070223852)
(0.72322273 0.07072354 0.0069409974)
(0.74799237 0.07122395 0.0068691069)
(0.77290312 0.071465879 0.0068051542)
(0.79793996 0.071435473 0.0067500788)
(0.82308838 0.07112392 0.0067012039)
(0.84833525 0.070517433 0.0066580484)
(0.87366655 0.069607769 0.0066188991)
(0.89907179 0.068383589 0.0065806605)
(0.92453611 0.066834659 0.0065437501)
(0.95004898 0.064959473 0.0065012688)
(0.97559867 0.062743943 0.0064558578)
(1.0011744 0.06018929 0.0064081788)
(1.0267402 0.057294816 0.0063518155)
(1.0523152 0.054039783 0.0062880486)
(1.0778735 0.050445532 0.0062071568)
(1.1033939 0.046511599 0.0061255621)
(1.128866 0.042243824 0.0060334703)
(1.1542681 0.037644571 0.0059402937)
(1.1795904 0.032729076 0.0058440813)
(1.2048144 0.027499637 0.0057501712)
(1.2299311 0.021973119 0.0056582575)
(1.2549224 0.016156041 0.0055751331)
(1.2797851 0.010066987 0.0054981209)
(1.3045027 0.0037106067 0.0054373901)
(1.3290785 -0.0028893807 0.0053861899)
(1.3534984 -0.0097350119 0.0053570415)
(1.3777743 -0.016794774 0.0053378072)
(1.4018918 -0.024077056 0.0053441456)
(1.4258744 -0.031553598 0.005361841)
(1.4497069 -0.039221607 0.005396261)
(1.4734226 -0.047061784 0.0054473269)
(1.4970071 -0.055069145 0.005515664)
(1.5204884 -0.063232913 0.0055946476)
(1.5438664 -0.071525726 0.0056803419)
(1.567168 -0.079960689 0.005777137)
(1.5903879 -0.088491792 0.0058723859)
(1.6135607 -0.097142853 0.005976968)
(1.6366716 -0.10585854 0.0060760754)
(1.6597607 -0.11466467 0.0061819868)
(1.6828054 -0.12350964 0.0062840231)
(1.7058445 -0.13240385 0.0063851017)
(-0.0015722756 -0.0024371949 0.0047737066)
(-0.0019410177 -0.0063267386 0.0055196054)
(-0.0022891344 -0.0094046001 0.0068784493)
(-0.0018469233 -0.01256862 0.0074754672)
(-0.0010926046 -0.015541881 0.0079353922)
(0.00032734568 -0.018313582 0.0082669663)
(0.0019710735 -0.021055599 0.008565746)
(0.0044218703 -0.023494135 0.0087601973)
(0.0071788254 -0.025917868 0.0088402876)
(0.010549722 -0.02794093 0.0090267676)
(0.014394112 -0.029969051 0.0090125758)
(0.018825683 -0.031567011 0.0091370424)
(0.023703591 -0.033134726 0.0091028909)
(0.029168782 -0.034287159 0.009194024)
(0.035158456 -0.035324432 0.0091239081)
(0.041656026 -0.036029063 0.0092150368)
(0.048760716 -0.036524737 0.0091494059)
(0.056379375 -0.036730454 0.0091760922)
(0.064580711 -0.036689009 0.0091478768)
(0.073354778 -0.036381263 0.0091433725)
(0.082723155 -0.035802858 0.0091003269)
(0.092661773 -0.034984295 0.0090856697)
(0.10321862 -0.033886125 0.0090339028)
(0.1143594 -0.032559092 0.008989448)
(0.12612014 -0.030965716 0.0089272958)
(0.13848081 -0.029155967 0.0088647839)
(0.1514619 -0.027104974 0.0087884592)
(0.16504712 -0.024846277 0.0087031099)
(0.17924572 -0.022377443 0.0086153906)
(0.19404751 -0.019726082 0.0085190258)
(0.20945162 -0.016890996 0.0084157235)
(0.22544337 -0.013899076 0.0083091428)
(0.24202617 -0.010760394 0.0082015599)
(0.25917643 -0.0074953366 0.0080893179)
(0.27689281 -0.0041200644 0.0079776473)
(0.2951563 -0.00065014006 0.0078653647)
(0.31394631 0.00289048 0.0077586739)
(0.33324892 0.0064875237 0.007650526)
(0.35308389 0.010114459 0.0075412851)
(0.37339284 0.01374613 0.0074266951)
(0.39417476 0.017388023 0.0073271904)
(0.41540881 0.020990757 0.0072105909)
(0.43707325 0.024551897 0.0071165508)
(0.45915264 0.028046674 0.0070099047)
(0.48162407 0.031451073 0.0069061531)
(0.50446238 0.034754014 0.0068064584)
(0.52765126 0.037930826 0.0067048486)
(0.55116558 0.040965597 0.0066066665)
(0.57498285 0.043838828 0.0065105356)
(0.59907957 0.046534064 0.006419215)
(0.62343383 0.049032687 0.0063303153)
(0.64802085 0.051318706 0.0062496365)
(0.67281943 0.053374851 0.0061732203)
(0.69780655 0.055184172 0.0061061848)
(0.72296186 0.056731298 0.0060456326)
(0.74826426 0.057998747 0.005994351)
(0.77369531 0.058971488 0.0059506061)
(0.79923636 0.05963324 0.0059148987)
(0.82487076 0.059969612 0.0058849942)
(0.85058168 0.059964844 0.0058617086)
(0.87635433 0.059606942 0.0058407944)
(0.90217312 0.058881085 0.0058232741)
(0.92802277 0.057779082 0.0058049367)
(0.95388996 0.056290355 0.0057841536)
(0.97976017 0.054402353 0.0057633326)
(1.0056058 0.052121037 0.0057345637)
(1.031449 0.04943714 0.005705138)
(1.0572138 0.0463401 0.0056542388)
(1.0829267 0.0428264 0.0056230039)
(1.1085613 0.0389308 0.0055713481)
(1.134097 0.034631465 0.0055202406)
(1.1595186 0.029949033 0.0054668764)
(1.1848165 0.024885388 0.0054091823)
(1.2099684 0.01945076 0.0053553071)
(1.2349658 0.01365659 0.0053018299)
(1.259794 0.0075153447 0.0052568421)
(1.2844462 0.0010414701 0.0052177959)
(1.3089122 -0.0057567785 0.0051913033)
(1.3331923 -0.012859144 0.0051740413)
(1.3572781 -0.020259375 0.0051724155)
(1.38118 -0.027936188 0.0051811894)
(1.404891 -0.035886905 0.00520965)
(1.4284265 -0.044080259 0.0052423447)
(1.451791 -0.052524389 0.0052986765)
(1.4749958 -0.061176762 0.0053595677)
(1.4980453 -0.070053214 0.0054390332)
(1.5209659 -0.079112354 0.0055165366)
(1.5437622 -0.088359803 0.0056094772)
(1.566458 -0.097762668 0.005700899)
(1.5890547 -0.10731295 0.0058010933)
(1.611587 -0.1169909 0.005899129)
(1.634042 -0.12676884 0.0060021806)
(1.6564649 -0.13664653 0.0061027453)
(1.6788364 -0.14657991 0.006205191)
(1.7011935 -0.1565666 0.0063049988)
(-0.0021990073 -0.0032104867 0.0039041272)
(-0.0031406274 -0.0082413361 0.0047030895)
(-0.003450965 -0.012133577 0.0055479092)
(-0.0032691514 -0.016286081 0.0059879386)
(-0.002522744 -0.020014735 0.0063826462)
(-0.0014849639 -0.023775749 0.0066885548)
(0.00031921715 -0.027172872 0.0068845557)
(0.0024545413 -0.030582051 0.0069718519)
(0.0051395158 -0.033638239 0.0071964872)