/*--------------------------------*- C++ -*----------------------------------*\
  =========                 |
  \\      /  F ield         | OpenFOAM: The Open Source CFD Toolbox
   \\    /   O peration     | Website:  https://openfoam.org
    \\  /    A nd           | Version:  6
     \\/     M anipulation  |
\*---------------------------------------------------------------------------*/
FoamFile
{
    version     2.0;
    format      ascii;
    class       pointScalarField;
    location    "1.2";
    object      E;
}
// * * * * * * * * * * * * * * * * * * * * * * * * * * * * * * * * * * * * * //

dimensions      [1 -1 -2 0 0 0 0];

internalField   nonuniform List<scalar> 
625
(
32801.976
32705.628
-683733.09
-348607.91
29398.122
33378.179
-533378.62
-1053341.4
8855.1432
5436.3538
20900.165
-378899.86
-398875.37
-271175.51
46178.965
40274.14
40249.521
41613.936
40213.493
43285.019
42742.665
42719.659
40302.194
34475.863
24493.612
10662.559
-6313.033
-25030.838
-43115.392
-59933.579
-70791.387
-78194.843
-75098.811
-68740.77
-56078.886
-38761.831
-8394.778
36970.524
22894.567
26192.697
19961.507
11468.355
7486.3923
-857.0201
-4774.7752
-6995.7723
-7288.2495
-2872.3694
4358.5473
16112.921
31039.339
49003.55
67043.924
85072.339
98115.442
106902.34
107380.35
96048.247
80485.217
46102.141
8770.7333
4056.3184
18769.493
60408.252
58678.027
32339.09
36127.543
34264.737
13736.512
17079.162
9989.2198
10843.087
13382.07
17587.748
26301.207
33293.146
41596.471
48219.079
54247.927
59530.35
63332.972
64669.694
63505.51
56431.454
45056.621
26554.397
-769163.84
-815455.38
-767554.57
-3456.1763
-22460.275
-33291.191
-44348.118
-51873.072
-53748.597
-53274.759
-46604.999
-37550.639
-24913.739
-11761.426
1892.4827
13454.759
23198.798
29414.11
33656.438
35423.449
34779.212
37911.004
35898.359
40552.706
36554.596
44270.593
27967.917
25935.895
25375.133
24810.67
23354.744
24028.208
-396780.26
-395746.19
-398532.4
-774112.67
-773161.68
-775112.38
18717.539
15627.497
15405.801
13433.059
8829.8999
5094.9231
342.50043
-3894.837
-5956.8424
-6869.1337
-4146.1952
866.22208
9259.7116
20013.732
32215.814
44957.447
56922.033
66190.918
73683.623
71764.969
70137.096
59795.163
31009.671
6187.1321
1663.1482
1717.4748
-2193.2157
-1621.0548
-1031.1381
-1224.594
2082.2245
3291.0578
6227.3984
8747.7927
11585.252
15017.307
19012.76
23633.626
28295.402
33019.134
34877.517
36761.674
30988.336
29480.051
16880.991
5843.2939
16053.485
15162.595
18646.188
18337.227
21266.948
21962.725
24144.005
24266.499
23290.765
20448.386
14052.636
5217.1372
-6765.2576
-20735.291
-35901.695
-50035.767
-62831.478
-69933.462
-74488.82
-68191.703
-58135.139
-40249.445
-7917.4682
6132.1137
5464.4453
5065.9873
3043.4013
2514.1804
4437.1123
10267.807
11076.606
11757.167
46711.812
47140.679
49725.033
48108.896
45404.729
44626.841
33155.754
30001.116
33780.471
28489.802
31209.489
29049.598
23012.086
20970.466
24818.284
13414.478
15861.023
15806.73
9392.572
10317.537
14312.309
5471.8493
4125.1868
5509.0686
2113.1998
5036.6293
3665.8061
4233.8815
5425.7246
5522.477
7798.3919
10409.849
9346.9937
16201.487
17348.407
17484.15
26308.945
26434.15
27527.015
39586.259
36869.574
39157.207
54070.399
47898.851
52072.178
69036.996
59105.124
64916.26
82651.415
69693.931
76809.23
93609.168
78615.43
86330.01
99128.675
83857.947
91388.792
97364.664
83152.61
89817.613
88110.247
76367.335
82066.182
69397.409
65178.045
67927.796
40358.286
36634.497
41456.643
-509404.31
-507568.83
-505597.67
-472266.63
-520325.9
-521529.14
-538375.49
-495025.05
-494028.6
43779.161
40525.442
36998.967
41962.483
39266.628
38938.646
43361.716
38552.435
37519.669
41494.445
37671.051
37456.859
42019.015
39864.052
37737.752
44634.115
37683.536
37931.167
44357.52
40616.243
39513.395
45006.458
39774.071
38411.534
41440.003
37586.946
34543.288
34345.967
31882.25
29562.606
25428.355
22746.06
19856.823
11086.54
9922.2986
6791.4377
-5596.5125
-5291.1316
-7909.1625
-23121.074
-21989.417
-23801.566
-40013.654
-38278.572
-38469.51
-54227.405
-52347.345
-51363.45
-63821.985
-62826.463
-59771.271
-68540.646
-67636.974
-64480.911
-67347.937
-68508.701
-62949.084
-58015.265
-62975.002
-56533.749
-45105.394
-50875.992
-45238.885
-33360.243
-33360.036
-31781.766
-4422.4527
-5611.8266
-4863.4507
24469.484
23541.896
17884.211
14760.371
10181.808
3971.9199
1444.1507
-2748.8022
-3457.9121
-1278.8675
3689.3263
10463.545
20112.265
30810.402
41914.418
52453.917
60972.423
67295.775
68574.317
66307.679
57850.996
44737.944
33624.202
4150.529
12936.368
3492.3419
14189.847
15457.236
20985.398
25713.82
27006.027
28397.469
25027.159
21244.487
15125.946
8307.0922
1016.4037
-6968.542
-15045.359
-22554.322
-29497.145
-34308.836
-36336.102
-35090.594
-29941.251
-17438.709
25576.487
17392.394
21116.413
18476.001
19405.126
17953.277
16833.377
17537.188
12949.853
9868.041
2404.3654
-6808.1937
-17960.311
-29941.974
-41947.651
-52300.057
-59921.68
-63932.23
-62455.418
-55373.503
-43484.339
-22464.536
-149.90057
23500.795
19715.026
19148.685
22391.623
21073.246
19236.576
19078.218
17901.933
15551.553
15477.871
13428.273
12327.905
10661.017
9793.6768
8653.6625
5497.7895
4770.4562
2059.9249
1296.8823
267.06676
-1636.0237
-2978.2859
-3398.042
-5956.0841
-4310.5281
-4975.6764
-7447.2851
-3541.1025
-4587.7815
-6587.0771
780.36463
-614.53674
-2173.5938
7042.145
5903.3995
4710.6888
16699.088
15288.616
14709.057
28170.886
26610.515
26486.211
40802.691
39398.982
39658.26
53838.896
52512.103
52553.467
65103.97
64254.806
64485.158
74781.069
74262.942
73114.487
79428.4
77849.859
78380.06
75810.559
79988.088
77103.758
71853.571
72244.552
70585.962
58994.852
59440.472
58346.75
34428.718
33809.431
34959.015
5185.2756
4444.2678
3440.7146
7619.8639
11197.466
10794.673
3221.1508
555.36166
702.53439
4641.059
8358.1177
8053.0925
7452.6466
6807.6784
7113.226
8725.4289
10624.769
10752.009
11154.678
13432.343
14056.114
14081.413
15499.016
15307.321
14730.69
16300.391
17427.925
15962.189
17030.949
17054.848
15802.121
15815.997
16019.99
15576.839
14816.163
14397.997
15088.842
13376.223
11939.857
14236.636
11613.755
9985.2934
13418.461
10128.132
7562.533
12024.826
7623.7039
5347.5637
10336.466
5390.9329
2507.5138
7797.6395
1175.9298
-162.63002
4774.3151
-1708.8251
-3364.2047
35.929561
-4393.9835
-6367.892
-10758.566
6427.4953
-6147.002
-5735.4803
-11474.488
-10818.033
-7970.4425
-13725.987
-12887.524
18660.202
20335.645
23145.32
15921.881
18733.743
24283.489
17510.295
21452.435
24394.234
19586.573
17586.497
21626.609
18341.932
18331.193
22843.679
19357.961
18053.262
21817.967
21496.073
17617.075
20859.737
19603.602
17091.161
21496.615
19392.953
16032.675
18838.558
15371.454
12374.489
15034.844
9244.5764
6273.7536
8597.7747
394.34276
-2159.1988
-390.18771
-11491.672
-12905.824
-11598.916
-24702.901
-24722.771
-24419.609
-38870.547
-37124.485
-37489.619
-52232.134
-47945.367
-49701.83
-62828.661
-57191.489
-59457.057
-70105.591
-61944.583
-64724.522
-71222.49
-61851.633
-65698.803
-64743.565
-56877.683
-59507.877
-54291.251
-46657.816
-50343.549
-32952.943
-27151.308
-30978.85
-7031.6045
-1583.4022
-4132.3142
)
;

boundaryField
{
    free
    {
        type            zeroGradient;
    }
    fixed
    {
        type            zeroGradient;
    }
    traction
    {
        type            zeroGradient;
    }
}


// ************************************************************************* //
