/*--------------------------------*- C++ -*----------------------------------*\
  =========                 |
  \\      /  F ield         | OpenFOAM: The Open Source CFD Toolbox
   \\    /   O peration     | Website:  https://openfoam.org
    \\  /    A nd           | Version:  6
     \\/     M anipulation  |
\*---------------------------------------------------------------------------*/
FoamFile
{
    version     2.0;
    format      ascii;
    class       pointVectorField;
    location    "1.14";
    object      u;
}
// * * * * * * * * * * * * * * * * * * * * * * * * * * * * * * * * * * * * * //

dimensions      [0 1 0 0 0 0 0];

internalField   nonuniform List<vector> 
3969
(
(0 0 0)
(0 0 0)
(2.3103381 -0.24430792 0.03721411)
(2.1549972 -0.77881465 0.03284581)
(0 0 0)
(0 0 0)
(2.1547117 -0.78726365 0.032353929)
(2.3099657 -0.25295399 0.036719183)
(0 0 0)
(0 0 0)
(0 0 0)
(0 0 0)
(0 0 0)
(0 0 0)
(0 0 0)
(2.290379 -0.31176544 0.036236776)
(2.2706637 -0.37835488 0.035773796)
(2.2512012 -0.44477694 0.035292418)
(2.2319669 -0.51113308 0.034983501)
(2.2128599 -0.57757775 0.034603541)
(2.1937476 -0.6442208 0.034232819)
(2.1746524 -0.71124159 0.033629964)
(0.0058979728 0.012618237 0.013879818)
(0.0093158781 0.022574532 0.016919782)
(0.016624124 0.033520143 0.019095646)
(0.027448277 0.044030721 0.019662843)
(0.040997171 0.054752628 0.020144049)
(0.058037259 0.064675117 0.020082605)
(0.0774463 0.074273701 0.020282533)
(0.10014237 0.083051182 0.020169036)
(0.12511288 0.091201011 0.020369554)
(0.1529316 0.098355289 0.020277488)
(0.18305223 0.10490808 0.020545437)
(0.21566049 0.11044372 0.020618985)
(0.25049603 0.11516662 0.020806306)
(0.28756998 0.11901032 0.021049842)
(0.32682641 0.1219063 0.021235521)
(0.36799602 0.12389819 0.021523099)
(0.4112256 0.12499546 0.021811613)
(0.45628895 0.12513181 0.022123586)
(0.50320843 0.12435825 0.022468129)
(0.55183139 0.12262247 0.022808623)
(0.60213983 0.11994411 0.023202975)
(0.6540219 0.11633085 0.023582075)
(0.70741797 0.11175643 0.0240038)
(0.76225388 0.10625708 0.024420982)
(0.81841356 0.099782019 0.024862516)
(0.87587203 0.092454185 0.025320922)
(0.93449268 0.084179443 0.025796045)
(0.99423964 0.075018632 0.026275464)
(1.0550227 0.064994236 0.026773866)
(1.1167225 0.054116895 0.027287872)
(1.1793094 0.042437206 0.027807068)
(1.2426808 0.029961086 0.02833902)
(1.3067623 0.016741975 0.028875844)
(1.3714869 0.0028006233 0.029414519)
(1.436793 -0.011806905 0.02995545)
(1.5025781 -0.027089882 0.030504832)
(1.5688384 -0.042889564 0.031022952)
(1.6354119 -0.059378146 0.031582655)
(1.7023718 -0.076196768 0.032075178)
(1.7694995 -0.093695011 0.032655816)
(1.836921 -0.11139675 0.033126135)
(1.9044001 -0.12962877 0.033708828)
(1.972017 -0.14819144 0.034240724)
(2.0396815 -0.16682916 0.034773206)
(2.10728 -0.1860861 0.03543757)
(2.1749105 -0.2051116 0.036023711)
(2.2423671 -0.22442721 0.036828547)
(0.00012997819 -0.012712671 -0.016860633)
(0.0052810652 -0.020687683 -0.017250358)
(0.010162947 -0.030647793 -0.021248027)
(0.019187609 -0.040547369 -0.020235049)
(0.031283085 -0.051373406 -0.020556243)
(0.045634427 -0.06235292 -0.019452721)
(0.062869042 -0.073416523 -0.018814384)
(0.082196823 -0.084823169 -0.017765712)
(0.10402804 -0.09624473 -0.016849649)
(0.12824526 -0.10825668 -0.01579081)
(0.15433336 -0.120018 -0.014848056)
(0.18292583 -0.13258467 -0.013843174)
(0.21329275 -0.14505911 -0.012815026)
(0.24583206 -0.15803065 -0.011793622)
(0.28024777 -0.17135005 -0.010757909)
(0.31662909 -0.18496673 -0.0097051545)
(0.35490778 -0.19908428 -0.0086390721)
(0.39489559 -0.21340337 -0.0075571934)
(0.43677683 -0.22834395 -0.0064250487)
(0.48027212 -0.24350503 -0.0053058845)
(0.52543747 -0.25921695 -0.0041046589)
(0.57226523 -0.27524632 -0.0029271753)
(0.6205636 -0.2917586 -0.0016426706)
(0.67043403 -0.30867733 -0.00036912387)
(0.72165328 -0.32590568 0.00093062163)
(0.77431568 -0.34357904 0.0022811632)
(0.82817974 -0.36150319 0.0036691841)
(0.88341809 -0.37992803 0.0050960995)
(0.93983315 -0.39858297 0.0065049376)
(0.99736428 -0.4175443 0.0079743431)
(1.0559778 -0.43680888 0.0094419719)
(1.1155667 -0.4563024 0.010929845)
(1.1761119 -0.47603084 0.012421284)
(1.2375108 -0.49594708 0.013910169)
(1.2997311 -0.51602373 0.015395987)
(1.3626854 -0.53624338 0.016865489)
(1.4263387 -0.5565495 0.018320901)
(1.4905988 -0.576912 0.019760375)
(1.5554284 -0.59735658 0.021178564)
(1.6207679 -0.6177583 0.022561914)
(1.6865427 -0.63818842 0.02393921)
(1.7527083 -0.65854165 0.025270222)
(1.8192024 -0.67882245 0.026588173)
(1.8859688 -0.69902062 0.027871777)
(1.9529315 -0.71907956 0.029129407)
(2.0200979 -0.7390188 0.030334619)
(2.087319 -0.75889253 0.03155537)
(0 0 0)
(0 0 0)
(0 0 0)
(0 0 0)
(0 0 0)
(0 0 0)
(0 0 0)
(0.0050799449 -0.0085735744 0.013088802)
(0.0070482577 -0.026294403 0.0185982)
(0.011077613 -0.029021471 0.019567486)
(0.021001751 -0.044384931 0.020605251)
(0.032479013 -0.05352374 0.021050175)
(0.047069388 -0.065170799 0.020226575)
(0.06427097 -0.077240148 0.020627461)
(0.083522715 -0.088021364 0.019739354)
(0.10541369 -0.10100142 0.020228789)
(0.12920282 -0.11188115 0.019390469)
(0.15534517 -0.12563129 0.020306587)
(0.18374681 -0.13692835 0.019615248)
(0.2140783 -0.15043164 0.020016171)
(0.24669003 -0.16345047 0.019917956)
(0.2809565 -0.1767532 0.020034989)
(0.3173807 -0.19094624 0.020192032)
(0.35552649 -0.2048762 0.020293629)
(0.39552939 -0.21972507 0.020485485)
(0.43728317 -0.23465198 0.020662991)
(0.4807384 -0.25015859 0.020859128)
(0.52584846 -0.26598934 0.021088158)
(0.57254735 -0.28228448 0.021333656)
(0.62081239 -0.29894037 0.021585654)
(0.67053825 -0.31598414 0.021867359)
(0.72174354 -0.33350877 0.022117688)
(0.77443968 -0.35133498 0.022317924)
(0.82817173 -0.36961571 0.022731819)
(0.88327942 -0.38807043 0.023060397)
(0.93956445 -0.40690563 0.023455904)
(0.99701184 -0.42599185 0.023837623)
(1.0555265 -0.44532914 0.024227124)
(1.115057 -0.46490277 0.024640857)
(1.1755311 -0.48467639 0.025061666)
(1.2369034 -0.50461652 0.025487765)
(1.2990873 -0.52469611 0.02592235)
(1.3620453 -0.54493945 0.026365405)
(1.4257179 -0.56516981 0.026791656)
(1.489956 -0.58558799 0.027260373)
(1.5548357 -0.60595466 0.027692788)
(1.6202063 -0.62636882 0.028156757)
(1.68602 -0.64674309 0.028609203)
(1.7522425 -0.66709709 0.029087367)
(1.8187687 -0.68735172 0.029575039)
(1.8855851 -0.70754047 0.030092325)
(1.9525828 -0.72758598 0.030634989)
(2.0197728 -0.74752232 0.031235355)
(2.0869422 -0.76740215 0.031836111)
(2.1744383 -0.71975181 0.0326765)
(2.1934537 -0.65273007 0.033174117)
(2.21258 -0.58610967 0.033843217)
(2.2316468 -0.51969329 0.03452598)
(2.2508393 -0.45336416 0.035320401)
(2.2702688 -0.38693987 0.035924289)
(2.2900613 -0.32043813 0.036520503)
(2.2421715 -0.23313556 0.035302827)
(2.1744826 -0.21382255 0.034182871)
(2.1069206 -0.1946269 0.032941013)
(2.0392788 -0.17559017 0.031718202)
(1.9716086 -0.15680148 0.030409076)
(1.9039761 -0.13829364 0.02907368)
(1.836428 -0.12012524 0.027713094)
(1.7690056 -0.1023225 0.026314946)
(1.7017846 -0.084944504 0.02488675)
(1.6348134 -0.06799853 0.023437912)
(1.5681213 -0.051582234 0.021959842)
(1.501909 -0.035776663 0.020500894)
(1.4360109 -0.020410992 0.018967541)
(1.3706839 -0.0057528176 0.017460482)
(1.3059275 0.0082775187 0.015924312)
(1.241826 0.021590299 0.014406794)
(1.1784477 0.034185976 0.01288791)
(1.1158747 0.045998175 0.011379184)
(1.0541764 0.057026593 0.0098914659)
(0.99344203 0.067198876 0.0084275857)
(0.93374108 0.076552197 0.0069764766)
(0.87515859 0.084980956 0.0055754364)
(0.81777765 0.092555201 0.0041914031)
(0.76164967 0.099176101 0.0028470751)
(0.70689677 0.10490415 0.00152304)
(0.65356145 0.10966168 0.00025275941)
(0.60173923 0.11351786 -0.0010148802)
(0.55149963 0.11638591 -0.0022144245)
(0.5029227 0.11834996 -0.0034200952)
(0.45607761 0.11934381 -0.0045763482)
(0.41103395 0.11941887 -0.0057165438)
(0.36788008 0.11859565 -0.0068658284)
(0.32663998 0.1168736 -0.0079366165)
(0.28760431 0.11398335 -0.0089305755)
(0.25064697 0.11039625 -0.010103902)
(0.21569938 0.10601751 -0.010985096)
(0.18323837 0.1006824 -0.012138197)
(0.15296675 0.094450204 -0.013031866)
(0.1252015 0.087669016 -0.014184676)
(0.10017681 0.079543078 -0.014954757)
(0.07778194 0.071369945 -0.015901494)
(0.057757691 0.062016109 -0.016654291)
(0.04125845 0.052411004 -0.017389606)
(0.027170072 0.042073888 -0.017513804)
(0.016971024 0.032133343 -0.017228603)
(0.0092427197 0.020725949 -0.015714945)
(0.0096939677 0.011923315 -0.009962563)
(0 0 0)
(0 0 0)
(0 0 0)
(0 0 0)
(0 0 0)
(0 0 0)
(0 0 0)
(0 0 0)
(0 0 0)
(0 0 0)
(0 0 0)
(0 0 0)
(0 0 0)
(0 0 0)
(2.1549094 -0.78014082 0.032720724)
(2.1548806 -0.78136139 0.032657457)
(2.1548467 -0.78248621 0.032626414)
(2.1548104 -0.78360527 0.032607153)
(2.1547733 -0.78466058 0.032595177)
(2.1547399 -0.78562717 0.032572086)
(2.1546963 -0.7866118 0.032434838)
(2.3106412 -0.24518906 0.037176752)
(2.3106657 -0.24625874 0.037156027)
(2.3106735 -0.24730239 0.037052374)
(2.3106557 -0.24837519 0.036960286)
(2.3105934 -0.24945427 0.036861252)
(2.310472 -0.25057783 0.036780673)
(2.3104101 -0.25166419 0.036757822)
(0.0016227494 0.0096127174 0.012633082)
(0.0053133133 0.017251939 0.012517934)
(0.012082702 0.025714972 0.014479536)
(0.022448398 0.033796509 0.015015306)
(0.035745765 0.041468831 0.015245022)
(0.052550738 0.049068639 0.015494151)
(0.071716146 0.055829553 0.015502506)
(0.094011446 0.062351211 0.015799915)
(0.11878803 0.067830634 0.015730774)
(0.1462187 0.072840704 0.016075819)
(0.17595696 0.077017865 0.016235028)
(0.20811463 0.080324291 0.016437119)
(0.24254167 0.083035802 0.016741026)
(0.27913194 0.084746235 0.016999318)
(0.31782772 0.085671496 0.017357312)
(0.35854867 0.08574199 0.017686588)
(0.40122246 0.084974885 0.018083553)
(0.44574837 0.083284581 0.018495581)
(0.49210179 0.080761917 0.018917151)
(0.54018463 0.077326115 0.01937114)
(0.58993015 0.07301693 0.019843797)
(0.64125253 0.067818878 0.020328785)
(0.69411287 0.061739873 0.020842327)
(0.74836246 0.054775555 0.021367812)
(0.80403329 0.046961813 0.021928549)
(0.86095995 0.038251236 0.022462967)
(0.91908553 0.028728695 0.02304744)
(0.97835822 0.018381093 0.023640674)
(1.0386675 0.0072123673 0.024248174)
(1.0999366 -0.0047141768 0.024867688)
(1.1621151 -0.017388156 0.025499945)
(1.2250974 -0.030795378 0.026140973)
(1.2888231 -0.044870623 0.026788497)
(1.3532299 -0.05960584 0.027438008)
(1.418229 -0.0749577 0.028092807)
(1.4837531 -0.090868298 0.028741108)
(1.5497743 -0.10732186 0.029380766)
(1.6161525 -0.12428589 0.030042238)
(1.6829323 -0.14165447 0.030663354)
(1.749947 -0.15949534 0.031328395)
(1.8172291 -0.1775918 0.031931214)
(1.8846315 -0.19616927 0.032624945)
(1.9522408 -0.21483308 0.033199284)
(2.0198126 -0.23385423 0.033918453)
(2.0874898 -0.25310865 0.034563779)
(2.1550659 -0.27226316 0.035228072)
(2.2225815 -0.29199851 0.035878995)
(-0.0020657304 0.0063680455 0.0087108235)
(0.0014995902 0.010757689 0.008037296)
(0.0085259288 0.017730257 0.0099415287)
(0.018589673 0.022717996 0.0099163741)
(0.032069184 0.028313425 0.010498392)
(0.048107012 0.033261682 0.010474383)
(0.067115025 0.037767958 0.011011782)
(0.089133075 0.041683119 0.010853932)
(0.1134229 0.044874492 0.011460498)
(0.14039532 0.047592145 0.011609627)
(0.16977027 0.049370998 0.011934629)
(0.20145584 0.050644184 0.012306333)
(0.23539888 0.051065934 0.012692199)
(0.27151333 0.050671138 0.01313509)
(0.30973394 0.049581681 0.013581824)
(0.34990718 0.047705146 0.014020187)
(0.39204189 0.04506208 0.014493774)
(0.43600827 0.041575942 0.014993514)
(0.48181377 0.037316754 0.01550135)
(0.52934213 0.032186668 0.016049253)
(0.57852942 0.026254705 0.016601098)
(0.62934297 0.019496256 0.017170613)
(0.68159343 0.011910981 0.017775317)
(0.73538102 0.0035500471 0.018392039)
(0.79048093 -0.0056696469 0.01901105)
(0.84687915 -0.015619961 0.019702373)
(0.90450602 -0.026378935 0.020387662)
(0.96327623 -0.037911352 0.021081238)
(1.0230978 -0.050136783 0.02181496)
(1.0839335 -0.063106998 0.02254625)
(1.1456787 -0.076744115 0.023289147)
(1.2082596 -0.091048041 0.024055982)
(1.2716232 -0.10595935 0.024808445)
(1.3356786 -0.12147296 0.025582274)
(1.4003597 -0.13752143 0.02634535)
(1.4656098 -0.15409597 0.027113817)
(1.5313684 -0.17112546 0.02786859)
(1.5974986 -0.18862988 0.028645744)
(1.6641202 -0.20643598 0.029353954)
(1.7308965 -0.22471888 0.030142943)
(1.7981112 -0.24317832 0.030832943)
(1.8653607 -0.26201947 0.031604208)
(1.9329115 -0.28098991 0.032302584)
(2.0003933 -0.30022662 0.033077938)
(2.0680562 -0.31960638 0.033788106)
(2.1355936 -0.33907645 0.034496957)
(2.2032474 -0.35883803 0.035183346)
(-0.0053453086 0.0035949841 0.0053445981)
(-0.0013649403 0.0064380275 0.0048766948)
(0.0049589495 0.0099148309 0.0055360095)
(0.015459039 0.013033587 0.0055802548)
(0.028242609 0.015793091 0.0057618377)
(0.044693251 0.018403357 0.0060506938)
(0.063616216 0.020022375 0.0059203515)
(0.085236633 0.021592731 0.006532424)
(0.10931156 0.022227737 0.0067616092)
(0.13612036 0.022458405 0.0070310266)
(0.16492149 0.022079933 0.0075712914)
(0.19620859 0.020980807 0.0079678822)
(0.22958816 0.019296215 0.0084616954)
(0.26514715 0.016861363 0.0089853814)
(0.30274768 0.013836172 0.0095622114)
(0.34238567 0.010008423 0.010048098)
(0.3839308 0.0054801013 0.010663601)
(0.42734976 0.00019882795 0.011212624)
(0.472579 -0.0058600492 0.011859284)
(0.51948005 -0.012642176 0.012490778)
(0.56807036 -0.02018522 0.013173143)
(0.61817441 -0.0284957 0.013878598)
(0.66991908 -0.037528147 0.014607047)
(0.72304141 -0.047375373 0.015328594)
(0.77756064 -0.057904386 0.016136152)
(0.83340763 -0.069191769 0.016894506)
(0.89052394 -0.081198959 0.017673245)
(0.94876915 -0.093886212 0.018502953)
(1.008133 -0.10724078 0.019322017)
(1.0684953 -0.12125893 0.020157963)
(1.1297915 -0.13586968 0.021023519)
(1.1919677 -0.15108831 0.021881269)
(1.2549295 -0.16685206 0.022754333)
(1.3186208 -0.18314019 0.023630194)
(1.3829657 -0.19992476 0.024506225)
(1.447915 -0.21713565 0.025369977)
(1.5133547 -0.23480231 0.026249606)
(1.5793229 -0.2527786 0.027089609)
(1.645645 -0.27114669 0.027943835)
(1.7123059 -0.28979247 0.02881818)
(1.7793009 -0.30861231 0.0296009)
(1.8464147 -0.32780992 0.03052713)
(1.9138451 -0.34699226 0.031262251)
(1.9812453 -0.36649499 0.032188291)
(2.0488936 -0.38604267 0.032922761)
(2.1164138 -0.40563012 0.033776687)
(2.1840162 -0.42539613 0.034566427)
(-0.0059392176 0.00059809013 0.0008013632)
(-0.0020408625 0.00093306401 -0.0006091567)
(0.0039848013 0.0020806518 -2.6198375e-05)
(0.013803503 0.0025903757 3.7032703e-05)
(0.026907676 0.0025568264 0.00054947112)
(0.042727093 0.0027837567 0.00056025729)
(0.061174689 0.0017358929 0.0014690143)
(0.082307854 0.0010157559 0.0016840962)
(0.10602515 -0.00085184627 0.0022413822)
(0.1320543 -0.0027433044 0.0029598129)
(0.16045164 -0.0056537821 0.0034516084)
(0.19128492 -0.0088417721 0.0039882338)
(0.22413057 -0.012737503 0.004541701)
(0.25923766 -0.017344993 0.0051819126)
(0.29628986 -0.022367851 0.0057013972)
(0.3354358 -0.028251896 0.0063898182)
(0.37637464 -0.034584266 0.0069928692)
(0.41924983 -0.041766056 0.0076998596)
(0.46380793 -0.04952803 0.0084055702)
(0.51016905 -0.05802235 0.0091235172)
(0.55815515 -0.067233802 0.0098729944)
(0.60786272 -0.077093727 0.010623409)
(0.65893596 -0.087694056 0.011401586)
(0.71151568 -0.098917919 0.012246345)
(0.76548749 -0.11082643 0.01305419)
(0.8207966 -0.12338809 0.013908875)
(0.87731842 -0.13657707 0.014838792)
(0.9350258 -0.15041326 0.015770728)
(0.99384641 -0.16483223 0.016705692)
(1.053686 -0.17984975 0.017699654)
(1.1145072 -0.19539752 0.018667002)
(1.1762116 -0.21149389 0.019672632)
(1.2387377 -0.22806242 0.020666823)
(1.302024 -0.2451027 0.02167639)
(1.3659927 -0.26255321 0.022670301)
(1.4305695 -0.28041415 0.023682033)
(1.4957307 -0.29859044 0.024662757)
(1.5613402 -0.31710829 0.025655256)
(1.627384 -0.33590681 0.026649993)
(1.6938077 -0.3548898 0.027579858)
(1.7605895 -0.37415229 0.028550368)
(1.8275627 -0.39353452 0.02948602)
(1.8948632 -0.41301065 0.030382013)
(1.9621747 -0.4326842 0.031359369)
(2.0297473 -0.45229728 0.032216821)
(2.09721 -0.47200717 0.033195762)
(2.1648497 -0.49174981 0.034063716)
(-0.0067342519 -0.0023161745 -0.0032287406)
(-0.0025532912 -0.0034445775 -0.004344089)
(0.002600819 -0.0051133367 -0.004231688)
(0.012926488 -0.0072665765 -0.0044110231)
(0.025318596 -0.0096858133 -0.0042366047)
(0.041181024 -0.012324095 -0.0037341685)
(0.059221304 -0.015768338 -0.0033118009)
(0.080417364 -0.019091851 -0.0030059893)
(0.10352641 -0.023439167 -0.0022309789)
(0.12944147 -0.027830968 -0.0017877407)
(0.15739966 -0.033068915 -0.0012747691)
(0.1876733 -0.038320726 -0.00056969209)
(0.21999357 -0.04465158 0.0001462144)
(0.25451128 -0.051057154 0.00082212404)
(0.29097576 -0.058359685 0.0015963468)
(0.32942135 -0.066069836 0.0023733196)
(0.36979357 -0.074449936 0.003119975)
(0.41196828 -0.083401889 0.0039257949)
(0.45597185 -0.092949576 0.004723105)
(0.50164927 -0.10315214 0.0055574124)
(0.54905119 -0.11390487 0.0064202201)
(0.59789472 -0.12534047 0.0073427729)
(0.64835396 -0.13733004 0.0082858102)
(0.70027002 -0.15001138 0.0092224871)
(0.75363879 -0.16327253 0.01020077)
(0.80829882 -0.17711266 0.011228377)
(0.86426408 -0.19156141 0.012260069)
(0.92142487 -0.20655291 0.013283675)
(0.97971012 -0.22207723 0.014355404)
(1.0390492 -0.23810888 0.015421715)
(1.0993814 -0.2546257 0.016510385)
(1.1606239 -0.27161019 0.017613198)
(1.2227179 -0.28901429 0.018716712)
(1.2855954 -0.3068074 0.019820509)
(1.3491686 -0.32498462 0.020936886)
(1.4134194 -0.34345518 0.02202643)
(1.4782202 -0.36223432 0.023121428)
(1.5435677 -0.38129235 0.024216384)
(1.6093574 -0.4005067 0.025236486)
(1.6756315 -0.41995479 0.026317897)
(1.742147 -0.43952608 0.027352701)
(1.8090032 -0.45919294 0.028394194)
(1.8760723 -0.47895847 0.029403573)
(1.9432955 -0.49877925 0.030460385)
(2.010738 -0.51855574 0.031418463)
(2.0781898 -0.53838621 0.032487003)
(2.1457587 -0.55811578 0.033486939)
(-0.0057021231 -0.0053168777 -0.0081083295)
(-0.00086235973 -0.0091527771 -0.0090310275)
(0.0042246693 -0.013510241 -0.010194621)
(0.014099299 -0.018328703 -0.010180845)
(0.026399895 -0.023327426 -0.0098315189)
(0.041655245 -0.028708399 -0.0092791677)
(0.059591726 -0.034644411 -0.0087592098)
(0.080038698 -0.040562732 -0.0079604387)
(0.10288046 -0.047341654 -0.0072403749)
(0.12813541 -0.053990961 -0.0064872388)
(0.15559756 -0.061513923 -0.0056600076)
(0.18523821 -0.069189399 -0.0048725029)
(0.21703117 -0.077520919 -0.0041370612)
(0.25088943 -0.086232651 -0.0032639097)
(0.2866954 -0.095466181 -0.0024831017)
(0.32452604 -0.10518272 -0.001593761)
(0.36417811 -0.1154421 -0.00078714668)
(0.40573569 -0.12618517 0.00014007758)
(0.44900378 -0.13754634 0.0010200642)
(0.49403054 -0.14936379 0.0019730148)
(0.54065597 -0.16185384 0.0029202319)
(0.58903955 -0.17468961 0.0039478132)
(0.63877472 -0.18823662 0.0049163501)
(0.6900466 -0.2024431 0.0059962681)
(0.74272538 -0.21702938 0.0070738569)
(0.79672535 -0.23219727 0.0081559921)
(0.85207757 -0.24780244 0.0092820559)
(0.90860433 -0.26391397 0.010460625)
(0.96629005 -0.28046066 0.011631773)
(1.0250598 -0.29748687 0.012845377)
(1.0848345 -0.31492009 0.014064138)
(1.1455529 -0.33274324 0.015306217)
(1.2071539 -0.35092668 0.016540434)
(1.2695507 -0.3694566 0.017793704)
(1.3327077 -0.38824976 0.019022983)
(1.3965266 -0.40733544 0.020262024)
(1.4609761 -0.42663658 0.021485336)
(1.5259619 -0.446107 0.022685773)
(1.591462 -0.46580053 0.023897251)
(1.657362 -0.48555331 0.025067306)
(1.7236697 -0.50540257 0.026230808)
(1.7903151 -0.52530643 0.027355063)
(1.8571686 -0.5452878 0.028507754)
(1.9243054 -0.56519541 0.02959493)
(1.9915606 -0.58509757 0.030711027)
(2.0589554 -0.6049472 0.031847499)
(2.1264772 -0.62463322 0.032980706)
(-0.0034591245 -0.0096580965 -0.011440317)
(0.0010686872 -0.014451294 -0.013148718)
(0.0058656181 -0.021748932 -0.014924306)
(0.015819361 -0.028791632 -0.014949064)
(0.027404937 -0.036365918 -0.014737278)
(0.042773005 -0.044545352 -0.014097975)
(0.060048138 -0.052941399 -0.013488353)
(0.080215843 -0.061553598 -0.012595617)
(0.10253587 -0.070806133 -0.011881001)
(0.12722078 -0.07977128 -0.010951498)
(0.15426121 -0.089974022 -0.010028818)
(0.18319717 -0.099553107 -0.0093423324)
(0.21452511 -0.11039536 -0.0082317252)
(0.24759365 -0.12103446 -0.0074413786)
(0.28289415 -0.13242636 -0.0064298159)
(0.3199507 -0.14407118 -0.0055271342)
(0.35900886 -0.15624836 -0.0045317548)
(0.39981318 -0.16886855 -0.0035514194)
(0.44241033 -0.18194325 -0.0025436851)
(0.48672003 -0.19551868 -0.0015046606)
(0.53269728 -0.20953745 -0.00045258406)
(0.58020398 -0.2240712 0.00066557157)
(0.62939529 -0.23906626 0.0017716016)
(0.67995453 -0.25459463 0.0029486391)
(0.73196133 -0.2705065 0.0041007951)
(0.78531809 -0.28690079 0.0053260818)
(0.83999155 -0.3037192 0.0066090064)
(0.89591157 -0.32094458 0.0078736792)
(0.95300959 -0.33858024 0.009172144)
(1.0111971 -0.35660343 0.010501226)
(1.0704173 -0.37495935 0.011837768)
(1.1306139 -0.39365247 0.013191482)
(1.1917016 -0.412638 0.014549979)
(1.2536368 -0.43187979 0.015906502)
(1.3163353 -0.45135844 0.017260755)
(1.3797513 -0.47103731 0.018607184)
(1.4438037 -0.49086866 0.019930843)
(1.5084648 -0.51086416 0.021260724)
(1.5736243 -0.53092261 0.022533903)
(1.6392602 -0.55107372 0.023820095)
(1.7053094 -0.57123699 0.025067332)
(1.7717138 -0.59144208 0.026316492)
(1.8383883 -0.61160094 0.027528598)
(1.9053456 -0.63169428 0.028710844)
(1.9724149 -0.65174438 0.029921504)
(2.0397071 -0.67165439 0.031071088)
(2.1070504 -0.69138654 0.032289639)
(0 0 0)
(0 0 0)
(0 0 0)
(0 0 0)
(0 0 0)
(0 0 0)
(0 0 0)
(0 0 0)
(0 0 0)
(0 0 0)
(0 0 0)
(0 0 0)
(0 0 0)
(0 0 0)
(0 0 0)
(0 0 0)
(0 0 0)
(0 0 0)
(0 0 0)
(0 0 0)
(0 0 0)
(0 0 0)
(0 0 0)
(0 0 0)
(0 0 0)
(0 0 0)
(0 0 0)
(0 0 0)
(0 0 0)
(0 0 0)
(0 0 0)
(0 0 0)
(0 0 0)
(0 0 0)
(0 0 0)
(0 0 0)
(0 0 0)
(0 0 0)
(0 0 0)
(0 0 0)
(0 0 0)
(0 0 0)
(0 0 0)
(0 0 0)
(0 0 0)
(0 0 0)
(0 0 0)
(0 0 0)
(0 0 0)
(0.0052511074 -0.0037251901 -0.0088699749)
(0.0066531555 -0.0049282832 -0.0062251022)
(0.0081687434 -0.0052240955 -0.0032753324)
(0.0087432657 -0.0055152492 -0.00088790054)
(0.0085564501 -0.0051406428 0.0015207288)
(0.0080731297 -0.0054578284 0.0041565235)
(0.0066301448 -0.0034633438 0.0069377424)
(0.010309004 -0.02004118 -0.014365282)
(0.013164707 -0.022613355 -0.0080895276)
(0.014489749 -0.021218294 -0.0038506445)
(0.014881178 -0.020609804 -0.0002130879)
(0.015021139 -0.021955734 0.0033551902)
(0.013427863 -0.021668734 0.0075919922)
(0.011785248 -0.021549552 0.013084624)
(0.014621452 -0.028306028 -0.015396054)
(0.018422182 -0.027041429 -0.01111824)
(0.020895773 -0.028597893 -0.0049379298)
(0.021217307 -0.028589447 -0.00072658147)
(0.021109823 -0.027950052 0.0047485913)
(0.019253087 -0.028300808 0.0085749297)
(0.016698602 -0.02982382 0.015558281)
(0.024775304 -0.041561554 -0.015244537)
(0.027803707 -0.042668694 -0.010669321)
(0.02981397 -0.042329511 -0.0048989003)
(0.030636604 -0.042461014 -0.00044001974)
(0.030271104 -0.042679479 0.0047687084)
(0.028492874 -0.043627299 0.010376408)
(0.025262932 -0.042641518 0.015267564)
(0.035762516 -0.052316305 -0.015524806)
(0.039452031 -0.05242187 -0.010884214)
(0.042075501 -0.05322351 -0.0051860002)
(0.042641007 -0.053134443 5.9524722e-05)
(0.042416408 -0.05364216 0.0053741981)
(0.040566472 -0.05365955 0.010259107)
(0.037676208 -0.054271744 0.016308132)
(0.050597792 -0.064067535 -0.01454136)
(0.053600226 -0.064356033 -0.010106157)
(0.05575576 -0.064461592 -0.0045669736)
(0.056482105 -0.065199327 -0.00010843456)
(0.056064359 -0.064970457 0.0056120696)
(0.054169582 -0.065431326 0.010639847)
(0.051144875 -0.065167397 0.015611185)
(0.067214345 -0.074869786 -0.014092241)
(0.070434345 -0.075569874 -0.0093312661)
(0.072705232 -0.076784667 -0.0043248754)
(0.073476913 -0.077000622 0.00054518429)
(0.073176601 -0.0776635 0.0058609646)
(0.071540487 -0.078256913 0.010544602)
(0.068671977 -0.078029242 0.016020672)
(0.086604196 -0.08674235 -0.013102447)
(0.089682017 -0.087709654 -0.0089170995)
(0.091714501 -0.088041537 -0.0036585102)
(0.092391228 -0.088621449 0.00095250645)
(0.091883279 -0.088627219 0.0058131155)
(0.090303405 -0.088588892 0.010768685)
(0.087309387 -0.088394619 0.015374912)
(0.10836141 -0.098324351 -0.012433541)
(0.11122104 -0.099024052 -0.0077731843)
(0.11322071 -0.10025049 -0.0031565244)
(0.11387721 -0.10083657 0.0013014847)
(0.11360579 -0.10169069 0.0061994334)
(0.1120506 -0.10180317 0.010847321)
(0.10936734 -0.1018741 0.015872556)
(0.13211828 -0.11001346 -0.011428309)
(0.13501905 -0.11133052 -0.0073157395)
(0.13689488 -0.11195399 -0.0027375132)
(0.13775005 -0.11296996 0.0020114273)
(0.13715103 -0.11286974 0.0065366893)
(0.13568031 -0.11289968 0.011010456)
(0.13297306 -0.11268497 0.01545494)
(0.1584451 -0.12234154 -0.010575213)
(0.16107502 -0.12337686 -0.0063854041)
(0.16296638 -0.12452027 -0.001682419)
(0.16341243 -0.12486278 0.0023153103)
(0.16316078 -0.12560596 0.0069163574)
(0.16164192 -0.12589018 0.01113362)
(0.1590166 -0.12592837 0.016019244)
(0.18658178 -0.13435726 -0.0098286283)
(0.18932515 -0.13577234 -0.0054472351)
(0.19087952 -0.1367751 -0.0015575265)
(0.1917185 -0.13785842 0.0029284189)
(0.19124839 -0.13822999 0.0073318113)
(0.18963486 -0.13801785 0.011375152)
(0.18745676 -0.13816735 0.01584018)
(0.21710584 -0.14743821 -0.008700372)
(0.21940806 -0.14851536 -0.004723634)
(0.22116334 -0.14978759 -0.00059503404)
(0.22171851 -0.15027727 0.0035305818)
(0.2212991 -0.15066847 0.0077409716)
(0.21985496 -0.15124598 0.011652391)
(0.21751613 -0.15082441 0.016064908)
(0.24932027 -0.16005204 -0.0079703431)
(0.25170585 -0.16148973 -0.0039407851)
(0.25343939 -0.16275981 -0.0001264916)
(0.25390746 -0.16352209 0.0039680445)
(0.25363769 -0.16439937 0.0081155303)
(0.25214453 -0.16426868 0.011846129)
(0.2500777 -0.16429567 0.016230593)
(0.28367617 -0.17371013 -0.0069797802)
(0.28600123 -0.1750392 -0.0030569397)
(0.28751144 -0.17612567 0.00062385704)
(0.28807527 -0.17700561 0.0047229132)
(0.28770734 -0.17735014 0.0084920559)
(0.28635149 -0.17761517 0.012335532)
(0.28423098 -0.17746107 0.016410004)
(0.31996934 -0.18722963 -0.0060651869)
(0.32210702 -0.18855012 -0.0023053336)
(0.32370716 -0.18999954 0.0013310924)
(0.32416202 -0.19076945 0.0050957593)
(0.32386706 -0.19150193 0.0090291826)
(0.32250445 -0.19170842 0.012547836)
(0.32051044 -0.19157061 0.016650294)
(0.35799557 -0.20133474 -0.00512254)
(0.36016828 -0.20285897 -0.0013848123)
(0.3616162 -0.20407942 0.0019838851)
(0.36207968 -0.20488638 0.0058884743)
(0.36178951 -0.20554588 0.0094559936)
(0.36049971 -0.20566477 0.013000679)
(0.35856063 -0.20564442 0.016920028)
(0.39799583 -0.21581724 -0.0041019266)
(0.39999356 -0.21726513 -0.00064339086)
(0.40145515 -0.21862063 0.0028234193)
(0.40185838 -0.21955511 0.0063989339)
(0.40158287 -0.22020246 0.0099529537)
(0.40031341 -0.22047413 0.013384934)
(0.39843586 -0.22034527 0.017174011)
(0.43963601 -0.23067227 -0.0031625675)
(0.44158941 -0.23216565 0.00032155687)
(0.44298111 -0.23356071 0.0035539769)
(0.44333292 -0.2343831 0.0070962309)
(0.44310749 -0.23512528 0.010511833)
(0.44186145 -0.23530058 0.013826825)
(0.44008253 -0.23534811 0.017468641)
(0.48303662 -0.24592342 -0.0020765207)
(0.48491433 -0.2474946 0.0011914888)
(0.48622327 -0.2488541 0.0043597306)
(0.48657549 -0.24985161 0.0077655106)
(0.48633878 -0.25052569 0.011032013)
(0.48513286 -0.25086022 0.014264275)
(0.48342458 -0.25079307 0.017771069)
(0.52809412 -0.26163609 -0.0010531026)
(0.52985049 -0.26316162 0.0021313512)
(0.53112239 -0.26462622 0.0051933932)
(0.53143802 -0.26551942 0.0084571076)
(0.5312182 -0.26630437 0.01162542)
(0.53006056 -0.26655244 0.014738376)
(0.5284207 -0.26659816 0.018105579)
(0.57472739 -0.27768957 5.3036177e-05)
(0.57642084 -0.27932194 0.0031092304)
(0.57762497 -0.28071917 0.0060446267)
(0.57791144 -0.28174694 0.0091830818)
(0.577704 -0.28246604 0.012228012)
(0.57656935 -0.28282931 0.015220719)
(0.57500739 -0.28286037 0.01846492)
(0.62292256 -0.29422976 0.0011921532)
(0.62452543 -0.29580144 0.004118799)
(0.62565439 -0.29727636 0.0069199452)
(0.62593309 -0.298252 0.0099312572)
(0.62571043 -0.29907666 0.012851814)
(0.62463921 -0.29942807 0.015717395)
(0.6231524 -0.29949808 0.018832667)
(0.67261827 -0.31106635 0.0023756738)
(0.6741279 -0.31276244 0.0051434359)
(0.67519479 -0.31415813 0.0078167843)
(0.67543617 -0.31526148 0.010716025)
(0.67524161 -0.31601223 0.013486755)
(0.67421349 -0.31639582 0.016248989)
(0.67277479 -0.31649244 0.01923348)
(0.72370103 -0.3283651 0.0035246481)
(0.7251933 -0.33003473 0.0062206083)
(0.72613021 -0.33142047 0.0087415)
(0.726412 -0.33255052 0.011540137)
(0.72615929 -0.33331167 0.014136509)
(0.72516812 -0.33382996 0.016805284)
(0.72380778 -0.33398546 0.019591373)
(0.77617162 -0.34599758 0.0047621746)
(0.77761453 -0.34766 0.0072899549)
(0.77842708 -0.34909542 0.0096968293)
(0.77872248 -0.35023369 0.012420842)
(0.77840645 -0.35099067 0.014774531)
(0.7775869 -0.3515419 0.017326074)
(0.7762974 -0.3516996 0.019898095)
(0.82997371 -0.36400072 0.0060130232)
(0.83130978 -0.3656539 0.0083272229)
(0.83209181 -0.36713593 0.010775376)
(0.83239007 -0.36825548 0.013100993)
(0.83215296 -0.3690772 0.015575377)
(0.83128919 -0.36965344 0.017969408)
(0.82999732 -0.36984804 0.020441123)
(0.88509703 -0.38233028 0.0072830992)
(0.88625801 -0.38397938 0.00951489)
(0.88705969 -0.38547926 0.011795374)
(0.88724977 -0.38656883 0.01397309)
(0.88703416 -0.38744537 0.016379475)
(0.88621788 -0.3879749 0.018527436)
(0.88499543 -0.38832095 0.020939358)
(0.94135564 -0.40094465 0.0085660124)
(0.94247141 -0.40264917 0.010729905)
(0.94313392 -0.4041057 0.012769886)
(0.94336263 -0.40522944 0.014950965)
(0.94308898 -0.40612735 0.017104554)
(0.94234417 -0.40672768 0.019180974)
(0.94117051 -0.4070815 0.021449522)
(0.99878365 -0.41990869 0.009934041)
(0.99975462 -0.42155203 0.011898699)
(1.0004091 -0.42303694 0.013883971)
(1.0005732 -0.42416319 0.015857173)
(1.0003184 -0.42510702 0.017911938)
(0.99962287 -0.42569983 0.019837487)
(0.99850549 -0.42612726 0.021973457)
(1.0572365 -0.43909856 0.011251842)
(1.0581506 -0.44076708 0.013133745)
(1.0587244 -0.44222548 0.014931554)
(1.0588669 -0.4433675 0.016821429)
(1.0586219 -0.44430535 0.018705492)
(1.0579544 -0.44494465 0.020516894)