/*--------------------------------*- C++ -*----------------------------------*\
  =========                 |
  \\      /  F ield         | OpenFOAM: The Open Source CFD Toolbox
   \\    /   O peration     | Website:  https://openfoam.org
    \\  /    A nd           | Version:  6
     \\/     M anipulation  |
\*---------------------------------------------------------------------------*/
FoamFile
{
    version     2.0;
    format      ascii;
    class       pointVectorField;
    location    "1.9";
    object      lm;
}
// * * * * * * * * * * * * * * * * * * * * * * * * * * * * * * * * * * * * * //

dimensions      [1 -2 -1 0 0 0 0];

internalField   nonuniform List<vector> 
3969
(
(-4.0340813e-15 -4.7705825e-17 1.3312818e-16)
(9.2297575e-16 -2.6090405e-16 -6.0252577e-16)
(7514.4062 186.27208 364.61711)
(7247.5342 -1727.0023 268.21934)
(-7.1783695e-15 2.6020842e-15 -1.0366567e-15)
(-4.622429e-15 2.1493156e-15 -1.5432914e-15)
(7331.99 -1964.0497 270.43355)
(7597.9615 -51.135991 368.0146)
(-6.09887e-15 1.0869625e-16 -2.0095736e-16)
(-3.193382e-15 6.5333688e-16 6.3735029e-17)
(-2.9260211e-15 2.9260844e-16 -4.8432863e-17)
(-1.7497804e-15 -1.5755452e-16 -2.074758e-16)
(-4.3254872e-15 8.6218995e-16 7.3228779e-16)
(-2.4697388e-15 -4.9707839e-16 4.8086129e-16)
(5.2680668e-16 -4.7467027e-16 -5.3018058e-16)
(7438.9029 -52.460758 349.97121)
(7371.3854 -287.67829 336.388)
(7344.7227 -523.66624 325.36116)
(7352.0965 -763.47085 315.82651)
(7367.5453 -1007.4729 306.56898)
(7360.9599 -1252.2294 295.7365)
(7315.5196 -1492.4114 282.56119)
(5.4513148 27.842115 33.888722)
(7.1294797 50.741661 43.623616)
(20.213563 80.005829 47.96444)
(44.185115 108.97924 48.920404)
(76.520926 140.34758 47.735275)
(119.53314 171.66506 45.772136)
(170.7433 203.47959 43.478662)
(232.198 235.01785 40.503166)
(302.26945 266.09984 37.809891)
(381.78851 295.92089 34.391269)
(470.18107 325.25069 31.562599)
(567.2119 352.25815 28.132236)
(672.93151 378.0372 24.523144)
(786.59543 401.79921 20.930562)
(908.54518 423.14185 16.845157)
(1037.3343 442.21777 12.512143)
(1173.4986 459.16254 8.0638501)
(1316.012 473.61613 3.175201)
(1464.9305 485.91781 -1.8273124)
(1619.3281 496.01011 -6.9887201)
(1779.344 504.18703 -12.154309)
(1944.1404 510.59992 -17.098183)
(2113.8474 515.41608 -21.738668)
(2287.8942 519.01251 -25.792857)
(2466.2111 521.08219 -29.008293)
(2648.5762 522.87137 -31.182492)
(2834.9857 523.53046 -31.997157)
(3025.4297 523.56436 -31.349981)
(3219.8032 522.99379 -28.809873)
(3418.0385 521.6888 -24.371584)
(3620.2058 519.71117 -17.748638)
(3826.3247 516.80341 -8.8526483)
(4036.2667 512.77928 2.4008431)
(4250.0163 507.55315 15.876219)
(4467.4736 500.41272 32.089358)
(4688.6048 491.764 49.838245)
(4912.7072 480.70325 70.518652)
(5140.1738 467.09511 92.681567)
(5370.3546 451.08322 116.34494)
(5602.721 431.77258 141.75385)
(5837.3324 409.97082 167.93629)
(6072.9581 384.96075 195.28231)
(6310.2767 356.81931 222.95915)
(6546.9986 327.02758 251.14138)
(6785.1779 293.09756 279.43765)
(7021.3893 259.38849 307.72092)
(7257.0323 222.57827 336.03419)
(3.0527008 -37.436367 -49.486067)
(14.183993 -64.001026 -54.356323)
(23.893202 -95.842957 -70.18049)
(43.674934 -127.63773 -74.805542)
(74.566442 -162.98845 -81.381479)
(112.50815 -197.76636 -84.919683)
(160.41378 -233.31311 -89.208543)
(216.59581 -268.89514 -91.906996)
(281.98125 -304.69491 -94.820843)
(355.96229 -340.26337 -96.699252)
(438.67854 -376.11282 -98.312676)
(529.85937 -411.77274 -99.66236)
(628.70989 -447.13412 -100.48961)
(735.59247 -482.573 -101.18061)
(849.50717 -517.68487 -101.93534)
(970.63402 -552.62556 -102.7229)
(1098.0093 -587.22383 -103.83028)
(1231.5509 -621.57079 -105.34247)
(1370.4591 -655.65649 -107.30094)
(1514.7943 -689.33557 -109.83087)
(1663.5115 -723.06668 -112.79417)
(1817.1622 -756.12551 -116.35403)
(1974.7693 -789.69181 -119.90375)
(2136.6635 -822.73809 -123.88221)
(2302.3232 -856.03732 -127.67618)
(2472.3364 -889.34474 -130.96886)
(2645.7132 -922.68856 -133.54799)
(2823.824 -956.95877 -135.0486)
(3006.1431 -991.37668 -135.3242)
(3192.7197 -1026.4476 -133.79111)
(3384.0852 -1062.1748 -130.28419)
(3580.0869 -1098.6831 -124.41248)
(3781.1005 -1135.9614 -116.02006)
(3987.0428 -1174.0003 -104.83715)
(4197.9683 -1212.8135 -90.854623)
(4413.9291 -1252.367 -73.974542)
(4634.7111 -1292.5168 -54.071108)
(4859.8942 -1333.0311 -31.789733)
(5089.3791 -1374.1151 -6.6369313)
(5322.6188 -1415.0685 20.424346)
(5558.8799 -1456.1673 49.503093)
(5797.6499 -1496.8403 79.867727)
(6038.2314 -1537.0916 111.4825)
(6279.6769 -1576.5911 143.33426)
(6521.4782 -1615.3589 175.41423)
(6762.5649 -1653.2159 207.07906)
(7005.3113 -1690.3382 237.92529)
(-3.9179893e-16 -2.8384427e-17 -1.6191597e-16)
(6.8869455e-16 3.3255846e-16 -2.9305012e-16)
(-3.0379221e-16 -4.0639439e-16 3.7376104e-16)
(8.6048107e-16 -8.7588792e-17 1.0515471e-16)
(5.0258192e-16 -7.4376592e-16 6.4035694e-16)
(-2.9679417e-15 -3.4669267e-16 7.3060073e-16)
(8.9003905e-16 -2.834795e-16 1.0120244e-16)
(10.392105 -19.607809 32.989154)
(13.696736 -64.313009 46.31366)
(22.251179 -75.620746 47.30652)
(48.874945 -117.04518 48.073038)
(79.079863 -144.75856 46.3586)
(121.71261 -180.03338 41.271409)
(171.14028 -214.43941 38.716053)
(230.61608 -249.55816 32.873068)
(297.6141 -285.36816 29.683074)
(373.69498 -321.02383 24.193586)
(457.65268 -357.54441 21.206326)
(550.07406 -392.21846 15.869852)
(651.08803 -427.85523 11.181258)
(759.79862 -463.39612 6.3470544)
(875.41446 -497.50084 1.0023964)
(998.73361 -532.8508 -4.1647644)
(1128.2171 -566.61383 -9.9813746)
(1264.4001 -601.29265 -15.797783)
(1406.2071 -635.43209 -22.033988)
(1553.7565 -670.17736 -28.360878)
(1706.302 -705.24008 -34.779455)
(1863.7525 -741.10911 -41.12893)
(2025.7525 -777.91621 -47.261405)
(2191.9165 -815.79835 -52.987396)
(2362.4638 -855.4625 -58.212572)
(2537.1355 -896.38761 -62.726998)
(2715.2406 -939.91507 -65.603587)
(2897.502 -984.39602 -67.594889)
(3083.8858 -1031.3083 -67.914993)
(3274.4523 -1079.8628 -66.674557)
(3469.2037 -1130.2419 -63.664951)
(3668.277 -1182.2468 -58.560193)
(3871.7151 -1235.682 -51.357642)
(4079.5623 -1290.1137 -41.95572)
(4291.8267 -1345.2848 -30.252191)
(4508.4623 -1401.0276 -16.49126)
(4729.5441 -1456.2357 -0.22871849)
(4953.7196 -1511.1782 17.918337)
(5182.3937 -1564.9744 37.891679)
(5414.1593 -1617.5406 59.785804)
(5648.6988 -1668.26 83.047155)
(5885.7236 -1716.9728 107.68014)
(6124.2486 -1763.3944 133.35526)
(6363.935 -1807.3202 159.86698)
(6603.8283 -1848.9137 187.04482)
(6843.3729 -1887.8631 214.63061)
(7079.2882 -1924.2645 242.34027)
(7402.1863 -1731.8916 283.8625)
(7443.3312 -1492.0872 296.40263)
(7444.1652 -1246.5938 307.88645)
(7421.5071 -1000.1874 318.55034)
(7421.6855 -761.47119 329.76169)
(7455.017 -524.78206 341.9942)
(7529.4056 -290.41357 355.40944)
(7344.8336 -14.329816 336.4753)
(7108.1217 22.914854 305.20601)
(6868.1333 59.380903 272.46583)
(6626.5641 95.887309 238.89512)
(6384.3217 131.587 204.81422)
(6142.1781 166.48962 170.91068)
(5900.8 200.33588 137.73025)
(5660.8202 232.96527 105.69409)
(5423.0128 264.37118 75.292403)
(5187.9354 294.30321 47.036198)
(4955.2233 322.62509 21.316857)
(4728.3093 348.46967 -2.0165255)
(4503.5722 374.67482 -22.109396)
(4283.5091 397.86084 -39.628555)
(4067.8943 419.51352 -54.098848)
(3856.7018 439.38867 -65.694838)
(3649.9049 457.3906 -74.648631)
(3447.5961 473.4883 -81.202135)
(3249.5601 487.5571 -85.494864)
(3055.8362 499.641 -88.059014)
(2866.1752 509.58222 -89.034051)
(2680.5968 517.35418 -88.8925)
(2498.9798 522.73751 -87.889629)
(2321.3445 525.86588 -86.531384)
(2147.8027 526.48066 -84.778464)
(1978.3985 524.59668 -83.165795)
(1813.3471 520.14591 -81.70872)
(1652.9624 513.08043 -80.571632)
(1497.5804 503.41942 -79.849392)
(1347.53 491.17826 -79.512667)
(1203.4002 476.44038 -79.603744)
(1065.4234 459.36627 -79.907675)
(934.59109 440.127 -80.380853)
(811.17222 417.77593 -80.470313)
(695.48838 394.22142 -81.272166)
(587.41972 368.72586 -80.608172)
(488.60155 341.91364 -80.7199)
(398.40597 312.78631 -79.436903)
(316.92734 283.63052 -78.455306)
(246.16476 251.41921 -76.143886)
(184.10206 220.74846 -73.790056)
(130.5927 187.8458 -70.737626)
(88.493592 155.3054 -67.303679)
(54.566415 122.36041 -62.34801)
(31.265754 91.487376 -56.528161)
(17.278205 57.593738 -47.3246)
(24.142226 32.455664 -27.223103)
(-6.7652979e-16 3.5118239e-16 1.2802193e-16)
(-2.3129286e-15 2.7505878e-16 1.3239036e-16)
(-3.6393531e-15 -1.4253491e-16 -1.5464221e-16)
(-4.9195801e-15 -9.3657526e-16 4.6870719e-16)
(-4.0844143e-15 -8.2232132e-16 1.723462e-16)
(-2.0271537e-15 -1.8079967e-16 2.6438577e-16)
(-2.0670014e-15 8.6459225e-16 1.4474963e-15)
(-4.5036838e-15 1.2268482e-15 -2.065022e-16)
(-1.9919023e-15 1.1694967e-15 -1.6367101e-16)
(-2.9438013e-15 1.1112212e-15 -1.969436e-16)
(-2.4504202e-15 9.597151e-16 -1.1789697e-16)
(-5.2893259e-15 2.5926013e-15 -8.0820905e-16)
(-1.8775489e-15 1.1365606e-15 -5.8525306e-16)
(-7.4714327e-17 -2.094137e-16 9.7564992e-17)
(7258.491 -1758.3784 268.14982)
(7269.3981 -1789.0933 268.09611)
(7279.9683 -1818.9455 268.35436)
(7290.3655 -1848.2467 268.68558)
(7300.628 -1877.3219 269.38998)
(7310.8057 -1906.0756 270.17306)
(7321.1336 -1935.2806 270.24998)
(7525.3221 157.08644 365.01508)
(7536.2873 127.74039 364.85812)
(7547.3994 98.954882 364.78185)
(7558.5391 70.201363 364.84427)
(7569.2829 41.119267 365.29313)
(7579.5974 11.426774 366.0857)
(7589.0569 -19.306197 367.49783)
(-4.1574617 23.907159 28.859524)
(-2.6705777 39.967386 29.838787)
(8.3649208 61.132914 33.045528)
(30.501692 81.592209 33.152893)
(61.478678 103.307 31.559704)
(103.4152 126.41502 29.777874)
(153.20759 148.57023 27.055214)
(213.68161 172.12904 24.536389)
(282.67995 193.82334 21.460017)
(361.53213 215.92666 18.707461)
(448.97586 236.53357 15.693929)
(545.60308 255.93631 12.481271)
(650.99235 274.36854 9.372287)
(764.60347 290.56312 5.9613109)
(886.4832 305.23464 2.3748609)
(1015.89 317.94696 -1.4536566)
(1152.6521 328.79047 -5.5352487)
(1296.0097 337.40346 -9.9072705)
(1445.7479 344.3103 -14.444207)
(1601.249 349.22207 -19.254747)
(1762.1471 352.55471 -23.961007)
(1927.9124 354.24414 -28.654696)
(2098.3247 354.68773 -32.966701)
(2272.8409 353.82541 -36.789865)
(2451.5536 352.07097 -39.714406)
(2634.0532 349.28392 -41.948881)
(2820.1205 345.7444 -42.652628)
(3009.8555 341.55026 -41.881136)
(3203.2229 336.46691 -39.468187)
(3399.9627 330.75773 -35.085921)
(3600.3595 324.2064 -28.618596)
(3804.2766 316.61051 -19.912627)
(4011.6725 307.97266 -8.9789005)
(4222.6467 297.88386 4.4452311)
(4436.9845 286.27527 19.995448)
(4654.6428 272.9993 37.812675)
(4875.3711 257.46204 57.840829)
(5099.2183 239.94575 79.640227)
(5325.6979 220.05935 103.15089)
(5554.4438 197.71278 128.22626)
(5785.3478 173.22406 154.20407)
(6017.6508 146.02647 181.49606)
(6251.523 117.03691 208.99747)
(6485.4401 85.818592 237.42181)
(6720.8874 52.605974 265.58399)
(6954.8104 18.95432 293.89853)
(7192.5213 -16.853187 322.00265)
(-14.214252 14.20343 17.460951)
(-11.504884 22.541451 16.816109)
(0.19402117 39.048359 18.216978)
(21.578549 50.80019 17.141076)
(52.84766 65.726429 15.4038)
(92.581319 79.867577 12.944705)
(142.34728 94.63643 10.814352)
(201.53599 109.25932 7.454489)
(269.96028 123.21649 5.5347323)
(347.6987 137.08227 2.2129715)
(434.91535 149.65614 -0.23647026)
(530.97849 161.46666 -3.2504889)
(635.979 171.91524 -6.015108)
(749.63239 180.89882 -9.1115798)
(871.47071 188.34742 -12.223492)
(1000.7802 194.22477 -15.854759)
(1137.3393 198.39046 -19.570642)
(1280.4928 200.86743 -23.549003)
(1430.0711 201.69391 -27.835346)
(1585.2551 200.95814 -32.204884)
(1745.815 198.70132 -36.679329)
(1911.0507 195.20478 -41.083425)
(2080.6166 190.5162 -45.221935)
(2254.3926 184.94324 -48.80282)
(2431.8545 178.28438 -51.890198)
(2612.7855 171.17833 -53.640221)
(2797.23 163.07756 -54.371364)
(2985.2019 154.53186 -53.743439)
(3176.3497 145.3585 -51.179367)
(3371.0132 135.47223 -46.91784)
(3569.1146 124.81148 -40.506148)
(3770.6461 113.29688 -31.904872)
(3975.7203 100.6957 -20.98737)
(4184.3205 86.888391 -7.7791166)
(4396.3489 71.732283 7.713343)
(4611.8701 54.827421 25.556044)
(4830.7051 36.336701 45.322197)
(5052.5002 15.74976 67.207581)
(5277.4307 -6.646522 90.642776)
(5504.7209 -31.329108 115.59309)
(5734.7501 -57.761876 141.65968)
(5966.0902 -86.519841 168.80624)
(6199.7885 -116.83917 196.42369)
(6433.5053 -148.91461 224.55323)
(6669.3856 -182.6386 252.8077)
(6903.6811 -216.56962 280.87549)
(7140.8496 -252.51906 309.17136)
(-21.006694 5.6903233 8.1812951)
(-17.467084 9.5760511 6.3052441)
(-6.8743453 16.142187 4.6120365)
(15.860196 22.128225 2.8914983)
(45.656914 28.052638 0.029353072)
(87.217 35.395195 -2.2385702)
(136.6034 40.962449 -5.9873992)
(196.18543 48.039846 -8.1339733)
(264.45167 53.405986 -11.267653)
(342.81188 59.114777 -14.105033)
(429.27976 63.861914 -16.590977)
(525.13175 67.567062 -19.294734)
(629.43419 70.604813 -21.934833)
(742.07195 72.000561 -24.548484)
(862.44372 72.534804 -27.209765)
(990.50971 71.559676 -30.41108)
(1125.4631 69.224223 -33.502143)
(1267.0531 65.448533 -37.251112)
(1414.5378 60.367415 -40.889731)
(1567.4426 53.972706 -44.940734)
(1725.2477 46.458114 -48.883651)
(1887.5716 37.952717 -52.976187)
(2054.444 28.604407 -56.692376)
(2224.9657 18.129407 -60.20106)
(2399.2542 7.3050933 -62.792522)
(2577.246 -4.4043912 -64.833567)
(2759.0557 -16.592555 -65.847663)
(2944.2244 -29.329185 -65.260351)
(3133.083 -42.643947 -63.206796)
(3325.6623 -56.654672 -59.388131)
(3521.9962 -71.240623 -53.454085)
(3722.2363 -86.764113 -45.405176)
(3926.4864 -103.22997 -35.04285)
(4134.7003 -120.72399 -22.390644)
(4347.0234 -139.70271 -7.2477436)
(4563.3081 -159.89763 10.027556)
(4783.4181 -181.90137 29.648732)
(5007.4026 -205.40087 51.236409)
(5234.7178 -230.81328 74.645563)
(5465.0813 -257.98096 99.826167)
(5698.1178 -286.78759 126.13386)
(5933.3055 -317.59426 153.86965)
(6170.504 -349.4661 181.83828)
(6408.2934 -383.19926 211.08118)
(6647.7456 -417.73457 239.76182)
(6885.9527 -453.02579 269.09907)
(7124.9274 -489.46539 297.63873)
(-22.398509 -2.859288 -4.3046059)
(-17.923346 -6.0565269 -9.2552877)
(-6.5693208 -6.155864 -11.765943)
(14.984045 -8.7919987 -14.07257)
(46.810794 -10.185064 -16.977019)
(87.077611 -11.477332 -20.187179)
(136.9993 -13.698135 -22.32286)
(195.95713 -14.908239 -25.517918)
(264.57532 -17.569726 -27.746803)
(341.74056 -19.710435 -30.062391)
(428.15254 -23.309954 -32.332365)
(523.5364 -27.063601 -34.795055)
(626.95679 -31.839148 -37.188196)
(738.59048 -37.837403 -39.329773)
(857.66396 -44.354529 -42.072403)
(984.00266 -52.260808 -44.627933)
(1116.669 -61.036206 -47.646824)
(1255.571 -71.064058 -50.716909)
(1399.906 -82.054228 -54.074185)
(1549.5003 -94.160708 -57.687859)
(1703.9451 -107.03117 -61.499119)
(1863.0279 -120.6802 -65.411962)
(2025.7837 -135.23623 -69.104798)
(2192.7042 -150.14839 -72.453147)
(2363.4735 -165.6299 -75.539421)
(2538.1736 -181.50239 -77.779154)
(2716.4573 -197.85521 -78.675072)
(2898.7238 -214.67533 -78.456586)
(3085.0509 -232.00678 -76.725922)
(3275.6143 -249.87753 -73.112597)
(3470.5803 -268.36096 -67.624772)
(3670.1193 -287.71026 -59.883135)
(3874.3335 -307.82784 -49.938417)
(4083.3494 -329.075 -37.491525)
(4297.1997 -351.44848 -22.708261)
(4515.7406 -375.19833 -5.443802)
(4739.0639 -400.29211 14.112015)
(4966.558 -427.08747 35.906629)
(5198.1413 -455.39869 59.705947)
(5433.2769 -485.24219 85.174845)
(5672.0757 -516.68959 112.1047)
(5912.9327 -549.6303 140.2215)
(6156.3324 -583.77517 169.17719)
(6400.1333 -619.24698 198.7411)
(6645.7619 -655.50005 228.28701)
(6889.7983 -692.1956 257.99068)
(7132.3865 -729.28548 287.35775)
(-22.281786 -12.110359 -16.03386)
(-16.121928 -19.552654 -20.828483)
(-6.6396614 -29.393086 -24.771184)
(16.767426 -39.293253 -28.315412)
(47.345355 -49.042989 -32.523391)
(88.765288 -58.711774 -34.911783)
(138.40652 -69.006678 -38.71187)
(198.39855 -78.426121 -41.505632)
(266.35458 -89.337929 -44.060814)
(344.2707 -99.564286 -46.782601)
(430.38692 -110.92595 -49.304158)
(524.87529 -121.96716 -51.424967)
(627.36089 -134.57493 -53.099047)
(737.63103 -147.12034 -55.235095)
(854.90167 -160.89228 -57.056957)
(979.02469 -175.28921 -59.178699)
(1109.3355 -190.41614 -61.532631)
(1245.5052 -206.40209 -64.212797)
(1386.8866 -222.92257 -67.154861)
(1533.3512 -240.24791 -70.429264)
(1684.3049 -257.87497 -73.876114)
(1840.0121 -276.17517 -77.368343)
(2000.4657 -295.06539 -80.793425)
(2163.7905 -314.5085 -84.157177)
(2331.4197 -334.1303 -87.028573)
(2502.6935 -354.22751 -89.045682)
(2678.3286 -374.77715 -90.302691)
(2858.1584 -395.74028 -90.530106)
(3042.472 -417.09035 -89.183877)
(3231.4064 -438.9974 -86.28474)
(3425.3066 -461.5566 -81.350331)
(3624.2758 -484.8761 -74.342699)
(3828.5594 -509.08825 -64.968898)
(4038.2202 -534.24858 -53.216485)
(4253.3194 -560.67138 -38.866573)
(4473.8103 -588.18502 -22.066884)
(4699.5616 -617.11847 -2.7680009)
(4930.1545 -647.61337 18.953042)
(5167.478 -679.44444 42.618943)
(5408.7487 -712.72949 68.324937)
(5651.9321 -747.26052 95.689311)
(5897.9616 -783.12898 124.5779)
(6145.8366 -819.8972 154.11106)
(6394.6598 -857.75235 184.71257)
(6644.0647 -895.81794 215.07625)
(6891.7734 -934.21441 246.15511)
(7137.1075 -972.08991 276.41679)
(-17.662622 -19.91973 -28.49603)
(-8.7170588 -35.750383 -33.829365)
(1.4190774 -53.566142 -41.20026)
(24.035611 -71.594375 -45.571721)
(54.932608 -89.1785 -49.60779)
(95.15797 -107.39451 -52.940709)
(145.05445 -125.55732 -56.469973)
(203.72305 -143.6113 -59.002849)
(271.64845 -162.25341 -61.665871)
(348.3907 -180.40558 -63.736407)
(433.59844 -199.43977 -65.636438)
(527.15739 -218.56787 -67.254065)
(628.62753 -238.21554 -69.005982)
(737.58992 -258.22079 -70.421324)
(853.50335 -278.62452 -71.979032)
(976.16527 -299.52533 -73.670843)
(1104.8435 -320.82522 -75.710529)
(1239.3032 -342.56618 -77.939961)
(1378.9533 -364.74527 -80.560686)
(1523.5665 -387.28188 -83.529805)
(1672.5472 -410.40091 -86.751439)
(1826.7927 -433.20916 -90.231611)
(1983.7387 -457.06896 -93.676742)
(2145.8841 -481.42367 -97.1102)
(2311.336 -505.45076 -100.20269)
(2481.2164 -530.25047 -102.75351)
(2655.3858 -555.09545 -104.50757)
(2833.8269 -580.35148 -105.03058)
(3016.936 -606.00838 -104.31537)
(3205.0243 -632.35087 -101.78971)
(3398.17 -659.31413 -97.408667)
(3596.644 -687.04929 -90.786713)
(3800.6549 -715.60478 -81.831401)
(4010.2678 -745.18346 -70.328616)
(4225.5323 -775.7156 -56.185953)
(4446.364 -807.34968 -39.455551)
(4672.7261 -840.1839 -20.032978)
(4904.0431 -874.12785 1.8870223)
(5140.3419 -909.33336 25.967344)
(5382.8182 -945.89946 52.421952)
(5626.742 -982.752 80.509879)
(5873.1927 -1020.6095 109.90453)
(6121.6649 -1059.1349 140.42109)
(6370.84 -1098.0751 171.48856)
(6620.1791 -1137.0966 202.80388)
(6868.3889 -1176.0557 233.96826)
(7114.8377 -1214.4005 264.60881)
(-8.6885609 -31.622577 -37.039947)
(0.12862446 -50.905255 -44.68129)
(9.3183768 -77.1476 -54.187826)
(31.911353 -101.24844 -59.412348)
(60.818922 -126.70075 -64.580915)
(101.39314 -153.08854 -68.139872)
(149.45495 -179.32188 -72.064872)
(207.60714 -205.83068 -74.697285)
(274.17082 -232.66476 -77.580499)
(349.70585 -259.0414 -79.510286)
(434.12959 -286.40203 -81.336106)
(526.37567 -313.06836 -83.030916)
(626.94985 -340.67958 -84.066017)
(734.86252 -367.99207 -85.209797)
(850.00648 -395.6712 -86.397523)
(971.87747 -423.41381 -87.722627)
(1099.9498 -451.38557 -89.276212)
(1233.9049 -479.45716 -91.205427)
(1373.1106 -507.74055 -93.540686)
(1517.3337 -536.06231 -96.318634)
(1666.271 -564.47208 -99.468985)
(1819.2359 -593.04915 -102.89815)
(1976.9398 -621.53574 -106.5258)
(2138.347 -650.60625 -110.00343)
(2303.7716 -679.27721 -113.5717)
(2473.5453 -708.50048 -116.39589)
(2647.2019 -737.7022 -118.50085)
(2825.328 -767.31498 -119.6029)
(3008.0191 -797.36628 -119.31628)
(3195.437 -827.96517 -117.27324)
(3387.7167 -859.1265 -113.33533)
(3585.2162 -890.95833 -107.12462)
(3787.9491 -923.58854 -98.472014)
(3996.137 -957.03468 -87.22497)
(4209.681 -991.43327 -73.187079)
(4428.6706 -1026.6001 -56.536826)
(4652.7915 -1062.9386 -36.926513)
(4881.8714 -1099.9985 -14.837966)
(5115.4146 -1137.9849 9.5462072)
(5352.9565 -1176.5878 36.267389)
(5593.748 -1215.8432 64.664117)
(5837.249 -1255.5626 94.671866)
(6082.4236 -1295.4533 125.51837)
(6328.4898 -1335.4494 157.15669)
(6574.5984 -1375.0644 188.62287)
(6819.9124 -1414.5141 220.18811)
(7062.4647 -1452.841 251.08754)
(-1.8726199e-15 -1.0357256e-16 4.2324109e-16)
(-4.3693994e-15 5.8098526e-16 1.0825799e-16)
(-1.86708e-15 5.0203615e-16 5.7484399e-16)
(-1.1298519e-15 4.4303811e-16 -1.5186772e-16)
(-1.5283164e-15 1.7502349e-16 4.7144117e-17)
(-3.9278597e-15 -6.147074e-18 -1.0233878e-17)
(-3.270765e-15 8.5080195e-17 2.8271762e-17)
(-1.444637e-15 3.1767481e-17 -1.0328492e-16)
(-1.9600489e-15 -2.0641393e-16 2.5996682e-17)
(-1.0758982e-15 -5.0887233e-16 -1.6282415e-16)
(-1.1902312e-15 -6.3217422e-16 -1.0496995e-16)
(-2.2455722e-15 -1.0363924e-16 3.7607835e-16)
(-1.7254929e-15 1.2766475e-16 7.9907906e-17)
(-6.542485e-16 2.4659353e-16 4.7610311e-16)
(-1.0183069e-15 2.0413811e-16 3.0876606e-16)
(-1.2825224e-16 3.2154578e-16 2.6910031e-16)
(-2.4669526e-15 5.8726168e-16 -3.2350189e-17)
(-1.9694108e-15 5.8752001e-16 2.9593509e-16)
(-1.9972486e-15 5.0741204e-16 1.6376266e-16)
(-5.0142844e-16 5.9082617e-16 -1.5096731e-17)
(2.8672985e-17 2.0007103e-16 -2.079567e-16)
(-3.5598279e-15 1.6770216e-16 6.1584209e-17)
(1.5219227e-15 -3.8112137e-16 -3.4960392e-16)
(-8.8364966e-17 -1.5289127e-16 1.7491834e-16)
(2.7397895e-16 -2.6900304e-16 -2.0413732e-16)
(-5.1236454e-16 -3.7600259e-16 -4.411389e-17)
(-1.3114086e-15 -5.3747975e-16 1.2489795e-16)
(2.0041989e-16 -4.4379834e-16 -1.4360784e-16)
(-1.3448657e-15 3.3966264e-16 -2.7012678e-16)
(-2.2010094e-15 1.2158219e-16 1.1470551e-16)
(-1.2722141e-15 -2.3577892e-16 -7.7366055e-17)
(-2.6936153e-15 2.298542e-17 6.0151854e-16)
(-1.8084585e-15 2.5926424e-16 8.2177642e-17)
(-1.0121806e-15 3.7760621e-16 1.5728837e-17)
(-3.5076342e-15 -1.049112e-16 -1.8966684e-16)
(-1.2388067e-16 -2.746004e-16 -1.3203227e-16)
(-1.1077126e-15 -2.2449831e-16 5.9960705e-17)
(-7.9462407e-16 5.2806017e-17 1.8160622e-16)
(-1.481116e-15 2.6347307e-16 -6.003674e-17)
(5.3541372e-16 1.9494005e-16 5.7756958e-17)
(-2.5861876e-15 -7.0653702e-17 -1.8824779e-16)
(-1.6152529e-15 1.8241927e-16 3.8488004e-16)
(-1.0389662e-15 3.299921e-17 2.9700946e-16)
(-3.8817577e-15 -1.9427146e-16 -1.2145786e-15)
(-1.6161979e-15 2.8442108e-16 -1.856842e-16)
(8.1577518e-16 1.8112067e-17 2.0819295e-16)
(-2.485062e-15 2.8178417e-16 -5.4749215e-16)
(-1.8307085e-15 4.4562511e-16 -1.4619564e-16)
(-1.4586292e-15 4.0358521e-16 -4.0281137e-16)
(15.522994 -11.023491 -25.691575)
(18.628798 -13.372566 -17.827086)
(21.795133 -13.839543 -9.7709702)
(22.662722 -14.387471 -3.0567022)
(21.555851 -13.04165 3.5666054)
(19.731327 -13.302177 10.691967)
(14.842217 -8.4299975 17.967172)
(26.751116 -58.433955 -44.865417)
(34.136606 -61.982919 -27.341744)
(37.223411 -57.165798 -14.736049)
(37.509686 -54.985994 -4.3993672)
(37.220812 -57.189171 5.690775)
(32.042883 -55.804439 17.416911)
(26.519146 -54.424728 31.74208)
(34.617474 -83.692038 -52.737206)
(44.395831 -78.722823 -39.016104)
(50.42795 -80.311511 -22.040481)
(51.397707 -79.237668 -8.8443553)
(50.213596 -76.907427 6.1277916)
(44.965995 -76.799461 17.66306)
(37.551185 -78.790357 35.887279)
(59.875591 -124.3385 -58.781332)
(69.230578 -124.25532 -43.896185)
(74.777015 -121.35293 -26.694751)
(77.043179 -119.95732 -12.829731)
(75.586485 -118.87558 2.3445554)
(70.67155 -119.23245 18.338056)
(61.076913 -115.48681 32.78896)
(88.446206 -158.33573 -64.718146)
(98.91477 -154.84885 -49.368177)
(106.30383 -153.62526 -32.32663)
(108.34445 -151.7238 -16.233079)
(107.7362 -150.89153 -0.099713577)
(102.56669 -149.2774 14.595386)
(94.229002 -148.48129 32.243705)
(128.5728 -195.5035 -68.483816)
(138.61286 -193.2636 -53.273681)
(145.72411 -190.78021 -36.022594)
(148.56677 -189.74316 -21.283849)
(147.62543 -187.42778 -4.1247233)
(142.47191 -185.36108 11.72224)
(133.71506 -182.9001 26.803222)
(175.66382 -230.11045 -72.879062)
(186.689 -228.15226 -56.923896)
(194.33171 -226.76233 -40.590375)
(197.41917 -224.80737 -24.822645)
(197.09573 -223.43143 -8.237848)
(192.96492 -222.38141 6.6271738)
(184.67819 -219.12942 24.109836)
(232.79765 -267.45373 -75.781887)
(243.71126 -265.73939 -60.758453)
(251.50955 -263.50674 -43.802521)
(254.99983 -261.98559 -28.354249)
(254.35844 -259.28444 -12.678072)
(250.50643 -256.78881 3.507764)
(241.87787 -253.55394 18.409958)
(297.9251 -302.83604 -79.019223)
(309.21598 -301.12767 -63.177404)
(317.16818 -299.86152 -47.638926)
(320.74771 -297.68279 -32.27277)
(321.01497 -296.39265 -16.342282)
(317.28104 -293.29826 -1.3518003)
(309.96456 -290.87363 15.18244)
(372.07586 -339.54725 -81.146299)
(383.32846 -338.10684 -66.320178)
(391.34211 -335.91202 -50.669053)
(395.57781 -334.96314 -35.053516)
(395.67735 -332.34595 -20.041387)
(392.27175 -329.38373 -4.7470149)
(384.75967 -325.7095 10.300778)
(454.69391 -375.39163 -83.066196)
(465.95806 -374.11137 -68.470004)
(474.10612 -372.66434 -52.743027)
(477.96949 -370.07683 -38.76829)
(478.80206 -368.28154 -23.332501)
(475.46832 -364.85376 -9.1931434)
(468.89009 -362.74381 7.0366044)
(545.49933 -411.17212 -85.02359)
(556.94706 -410.24336 -70.177454)
(564.81053 -408.57326 -56.050185)
(569.44375 -407.11496 -41.377607)
(570.22684 -404.89162 -26.49621)
(566.94887 -401.61267 -12.872012)
(561.33879 -398.29186 2.6356805)
(644.60227 -447.28235 -86.089189)
(655.39532 -445.92032 -71.91554)
(663.57797 -444.52839 -58.093759)
(667.9253 -441.98873 -44.060198)
(668.99127 -439.83646 -29.95817)
(666.27459 -436.72694 -16.6844)
(660.81514 -433.34445 -2.0021511)
(750.78391 -482.46318 -87.521958)
(761.69433 -481.41298 -73.89564)
(770.1792 -479.88979 -60.725989)
(774.55336 -478.00452 -47.224252)
(776.24425 -476.21297 -33.368664)
(773.82074 -472.83316 -20.887634)
(769.2201 -469.38578 -6.2170705)
(864.61513 -517.90547 -88.851656)
(875.51104 -516.69791 -75.502157)
(883.65487 -515.05109 -63.151442)
(888.25607 -512.98068 -49.736736)
(890.05827 -510.63322 -37.087935)
(888.10386 -507.13776 -24.571953)
(883.89022 -503.70724 -10.943715)
(985.31034 -552.55908 -90.212679)
(996.00451 -551.34121 -77.728668)
(1004.2463 -549.82525 -65.82697)
(1009.1922 -547.88618 -53.419336)
(1011.2492 -545.88129 -40.857197)
(1009.9538 -542.67574 -29.150562)
(1006.2543 -539.02705 -15.782111)
(1112.403 -587.03761 -92.061976)
(1123.0072 -585.88821 -80.001082)
(1131.4668 -584.33007 -68.815417)
(1136.2449 -582.35413 -56.616107)
(1138.8499 -580.30735 -44.893718)
(1137.8411 -576.79549 -33.556856)
(1134.8565 -573.32076 -20.849665)
(1245.616 -621.16276 -94.1626)
(1256.3253 -619.94389 -82.922881)
(1264.6347 -618.50006 -72.190109)
(1269.9202 -616.7589 -60.710029)
(1272.7447 -614.79928 -49.527883)
(1272.3838 -611.62265 -38.562318)
(1269.9664 -607.9803 -26.384482)
(1384.5289 -654.93341 -96.858111)
(1394.9839 -653.77711 -86.152429)
(1403.6961 -652.42905 -75.929026)
(1408.9615 -650.83937 -64.967265)
(1412.3228 -649.00883 -54.204074)
(1412.4122 -645.85087 -43.699205)
(1410.784 -642.44168 -32.109544)
(1528.5347 -688.53203 -100.0094)
(1539.2879 -687.34919 -89.876889)
(1547.9809 -686.35913 -80.29006)
(1553.7091 -685.05921 -69.726815)
(1557.4807 -683.44785 -59.531876)
(1558.2123 -680.69469 -49.340878)
(1557.2396 -677.18393 -38.189077)
(1677.5952 -721.8238 -103.65685)
(1688.2857 -720.96714 -94.14548)
(1697.3647 -720.23898 -84.880375)
(1703.3916 -719.25317 -74.80042)
(1707.6446 -718.00431 -64.948363)
(1708.9686 -715.41674 -55.069221)
(1708.7416 -712.20517 -44.307065)
(1831.1704 -755.22612 -107.74651)
(1842.1108 -754.53631 -98.647422)
(1851.4895 -754.31705 -89.846444)
(1857.9036 -753.79122 -80.186432)
(1862.6761 -752.88377 -70.6385)
(1864.6131 -750.85094 -61.00549)
(1865.1174 -747.88432 -50.54322)
(1989.1382 -788.56064 -111.95586)
(2000.2716 -788.32192 -103.38134)
(2010.0872 -788.63581 -95.018913)
(2016.9463 -788.695 -85.602932)
(2022.226 -788.54779 -76.275177)
(2024.8929 -787.0216 -66.919415)
(2026.112 -784.39984 -56.581526)
(2151.2607 -821.89664 -116.26985)
(2162.8012 -822.5059 -108.20731)
(2173.0202 -823.42994 -100.10416)
(2180.2772 -824.36632 -90.905134)
(2186.2631 -824.64746 -81.916719)
(2189.4523 -823.66678 -72.511825)
(2191.3608 -821.67287 -62.328313)
(2317.397 -855.79672 -120.69286)
(2329.5713 -857.13469 -112.58029)
(2339.9116 -858.6559 -105.05624)
(2348.0742 -860.72756 -95.868548)
(2354.2733 -861.72879 -86.99505)
(2358.2561 -862.01433 -77.673601)
(2360.8299 -860.73625 -67.703165)
(2487.5273 -890.0422 -124.2832)
(2500.2643 -892.04896 -116.71646)
(2511.0329 -895.02428 -109.40082)
(2519.7556 -897.83257 -99.928724)
(2526.3746 -899.80716 -91.846008)
(2531.2657 -901.03676 -82.433627)
(2534.4795 -900.37456 -72.412762)
(2661.861 -924.65704 -127.21719)
(2674.9958 -927.97848 -120.47125)
(2686.3432 -932.14748 -112.28558)
(2695.6485 -936.11374 -104.17274)
(2703.0132 -939.49354 -95.024934)
(2708.4652 -941.90314 -85.527827)
(2712.022 -942.37264 -75.445281)
(2840.5006 -960.13062 -129.12955)
(2853.6942 -964.91913 -122.59559)
(2866.1548 -970.35347 -114.39072)
(2875.5568 -975.78252 -106.70055)
(2883.7683 -980.26424 -96.939009)
(2889.4822 -983.71816 -88.176378)
(2893.7544 -985.83092 -77.519685)
(3023.0382 -996.22481 -129.83102)
(3037.21 -1002.6354 -123.0515)
(3049.6483 -1009.6552 -115.60813)
(3059.8697 -1016.3502 -107.18553)
(3068.2539 -1022.4924 -98.067747)
(3074.7398 -1027.5678 -88.93455)
(3079.5259 -1031.0446 -78.113359)
(3210.2727 -1033.2451 -128.35481)
(3224.5559 -1041.3553 -122.16941)
(3237.7439 -1050.0419 -114.34785)
(3248.3562 -1058.4563 -106.37132)
(3257.3697 -1066.2468 -97.08873)
(3264.3781 -1072.7284 -87.955929)
(3269.6447 -1077.9733 -77.022523)
(3401.7909 -1071.1443 -125.22742)
(3416.6987 -1081.2363 -118.91803)
(3430.2194 -1091.6555 -111.50536)
(3441.3164 -1101.7758 -103.34966)
(3450.7257 -1111.1533 -94.276555)
(3458.1854 -1119.4201 -85.067225)
(3463.9474 -1126.4426 -74.155827)
(3598.1281 -1110.0749 -119.48458)
(3613.3286 -1122.0019 -113.5047)
(3627.2044 -1134.3004 -106.06023)
(3638.7046 -1146.1472 -98.145495)
(3648.5266 -1157.3601 -89.126849)
(3656.4683 -1167.4307 -80.002151)
(3662.6577 -1176.3831 -69.113173)
(3799.1586 -1149.7529 -111.34419)