/*--------------------------------*- C++ -*----------------------------------*\
  =========                 |
  \\      /  F ield         | OpenFOAM: The Open Source CFD Toolbox
   \\    /   O peration     | Website:  https://openfoam.org
    \\  /    A nd           | Version:  6
     \\/     M anipulation  |
\*---------------------------------------------------------------------------*/
FoamFile
{
    version     2.0;
    format      ascii;
    class       pointVectorField;
    location    "1.05";
    object      lm;
}
// * * * * * * * * * * * * * * * * * * * * * * * * * * * * * * * * * * * * * //

dimensions      [1 -2 -1 0 0 0 0];

internalField   nonuniform List<vector> 
3969
(
(-4.0340813e-15 -4.7705825e-17 1.3312818e-16)
(9.2297575e-16 -2.6090405e-16 -6.0252577e-16)
(-6690.344 -2358.1798 -254.56966)
(-7199.3533 -513.62603 -162.52807)
(-7.1783695e-15 2.6020842e-15 -1.0366567e-15)
(-4.622429e-15 2.1493156e-15 -1.5432914e-15)
(-7312.7925 -389.86929 -161.48582)
(-6806.3114 -2233.3346 -252.58618)
(-6.09887e-15 1.0869625e-16 -2.0095736e-16)
(-3.193382e-15 6.5333688e-16 6.3735029e-17)
(-2.9260211e-15 2.9260844e-16 -4.8432863e-17)
(-1.7497804e-15 -1.5755452e-16 -2.074758e-16)
(-4.3254872e-15 8.6218995e-16 7.3228779e-16)
(-2.4697388e-15 -4.9707839e-16 4.8086129e-16)
(5.2680668e-16 -4.7467027e-16 -5.3018058e-16)
(-6777.1061 -2135.3654 -243.6954)
(-6801.1724 -1893.9483 -231.00519)
(-6827.3208 -1655.4914 -218.76373)
(-6873.7042 -1424.0642 -207.16698)
(-6942.6083 -1197.4471 -196.37952)
(-7025.9244 -971.65452 -185.60745)
(-7115.0337 -743.97856 -174.37258)
(13.740256 0.39790988 -9.5938022)
(36.606966 -4.7742648 -21.787923)
(57.736903 -18.323676 -34.310966)
(73.448588 -34.866989 -44.544848)
(85.304409 -56.339067 -54.481104)
(89.496787 -81.091604 -63.069577)
(87.224962 -109.37307 -71.100693)
(75.208817 -140.88018 -77.396318)
(53.862205 -175.35786 -82.410307)
(21.270782 -212.17537 -85.343523)
(-22.601575 -252.16873 -87.024746)
(-78.647008 -294.06785 -86.628983)
(-147.23 -338.46151 -84.603797)
(-228.22665 -385.26712 -81.708172)
(-322.23823 -433.63705 -77.657999)
(-428.37064 -483.9382 -73.230985)
(-547.25127 -536.06689 -68.78016)
(-678.46087 -589.62614 -64.127612)
(-822.18301 -644.75581 -59.60482)
(-977.85651 -701.22923 -55.058342)
(-1145.431 -759.13375 -50.606522)
(-1324.0524 -818.48236 -46.158187)
(-1513.2173 -879.25204 -41.889102)
(-1711.7393 -941.60167 -37.946365)
(-1918.4207 -1005.1886 -34.704235)
(-2131.8503 -1070.9005 -32.507528)
(-2350.7753 -1137.9359 -31.762962)
(-2574.0998 -1206.5423 -32.530855)
(-2800.681 -1276.6842 -35.129434)
(-3029.5543 -1348.0225 -39.216339)
(-3260.2106 -1420.5859 -44.650457)
(-3492.0852 -1493.9765 -50.984809)
(-3724.61 -1567.8338 -57.857586)
(-3957.1463 -1641.8402 -64.842285)
(-4188.9411 -1715.0256 -72.294337)
(-4418.9407 -1787.1798 -79.633711)
(-4645.4211 -1857.1357 -87.944483)
(-4867.8162 -1924.0765 -97.335332)
(-5083.7419 -1987.5745 -107.88815)
(-5292.6814 -2046.208 -120.64743)
(-5493.4323 -2100.5216 -134.77088)
(-5685.0323 -2149.3228 -150.84444)
(-5868.1617 -2192.747 -167.94999)
(-6040.6729 -2231.6892 -185.62953)
(-6206.4279 -2264.792 -203.44961)
(-6361.088 -2294.8902 -220.58587)
(-6524.5533 -2325.9632 -238.10087)
(16.854798 -5.3245514 -1.682001)
(39.979636 -0.46134337 10.108482)
(63.307422 8.2918662 25.289839)
(76.039519 25.553091 35.326264)
(82.574803 45.935557 46.126951)
(81.288436 70.323083 55.381795)
(70.203014 98.504101 64.390198)
(49.967422 129.29724 72.389952)
(18.649259 162.39953 80.250765)
(-24.182738 196.99378 87.103354)
(-78.923927 232.01805 93.696089)
(-146.41604 266.87795 99.489)
(-226.68565 300.97757 104.44978)
(-320.27622 333.22358 108.30327)
(-426.97588 363.16173 111.30909)
(-546.93956 390.14918 113.16464)
(-680.11693 413.87215 114.06193)
(-825.82988 433.873 114.21094)
(-984.02703 449.95862 113.75633)
(-1153.8545 461.71993 113.09998)
(-1334.7401 469.24555 112.36238)
(-1525.9139 471.78005 112.01597)
(-1726.7114 470.10195 111.72412)
(-1936.026 463.46998 112.25586)
(-2153.1335 452.41143 112.9807)
(-2377.418 437.07799 113.81114)
(-2608.0682 417.95626 114.77175)
(-2844.1993 395.61313 115.42821)
(-3085.3457 369.93036 115.77834)
(-3330.5463 341.81528 115.38951)
(-3579.6046 311.2179 114.20353)
(-3831.3967 278.32481 111.79517)
(-4085.3093 242.96783 108.0091)
(-4340.0013 204.95813 102.44802)
(-4594.2745 164.07911 94.858739)
(-4846.6052 120.15879 84.886884)
(-5095.2773 73.20033 72.165166)
(-5338.2517 23.263059 56.856914)
(-5574.0962 -28.960081 38.639747)
(-5801.2074 -83.356747 18.166905)
(-6015.9419 -138.62057 -4.4467291)
(-6220.5817 -194.52647 -28.240878)
(-6411.5819 -250.11982 -52.962611)
(-6589.1599 -305.00651 -77.244818)
(-6753.4491 -358.62378 -100.9495)
(-6904.3961 -410.8663 -123.09716)
(-7046.5679 -462.20651 -143.50801)
(-3.9179893e-16 -2.8384427e-17 -1.6191597e-16)
(6.8869455e-16 3.3255846e-16 -2.9305012e-16)
(-3.0379221e-16 -4.0639439e-16 3.7376104e-16)
(8.6048107e-16 -8.7588792e-17 1.0515471e-16)
(5.0258192e-16 -7.4376592e-16 6.4035694e-16)
(-2.9679417e-15 -3.4669267e-16 7.3060073e-16)
(8.9003905e-16 -2.834795e-16 1.0120244e-16)
(16.232589 -6.2936167 5.1352629)
(35.895053 -3.2612741 -4.5979729)
(53.973896 4.8007458 -12.889624)
(63.566273 23.717946 -19.674511)
(68.947044 41.738019 -27.482564)
(63.225773 65.899496 -32.691407)
(51.597388 92.565402 -39.26746)
(27.064683 121.17167 -41.806316)
(-6.0717399 152.71988 -45.596342)
(-53.159145 184.73397 -44.740557)
(-111.49643 218.95215 -45.307629)
(-182.25751 250.45601 -41.504699)
(-267.29447 282.39106 -36.739394)
(-365.53548 313.43616 -30.705686)
(-475.86542 341.40265 -23.758965)
(-599.91421 368.28781 -16.337514)
(-735.81219 390.90012 -8.4723961)
(-884.48843 410.97539 -0.41918933)
(-1045.0663 426.62887 7.839152)
(-1217.4658 438.43517 16.353607)
(-1401.2428 445.8285 24.954625)
(-1595.669 448.96259 33.654184)
(-1800.2481 447.84924 42.135751)
(-2013.6777 442.70492 50.065847)
(-2235.5905 434.07066 57.036308)
(-2463.413 421.56076 62.522441)
(-2697.686 407.51315 65.620056)
(-2937.3939 389.80803 67.282676)
(-3182.0766 370.5053 66.498586)
(-3430.9883 348.96778 63.954635)
(-3683.7627 325.59128 59.884625)
(-3939.8709 300.31516 54.501064)
(-4198.5664 273.08949 48.298864)
(-4458.8394 243.61433 41.467818)
(-4719.2523 211.94586 33.970286)
(-4978.8132 177.72157 25.765815)
(-5232.58 140.75848 16.191366)
(-5481.591 101.97836 5.1984632)
(-5721.9406 60.021988 -7.5768235)
(-5951.8487 15.973787 -22.492815)
(-6169.4586 -30.367559 -39.082073)
(-6373.8323 -78.713194 -57.210252)
(-6563.9382 -128.69808 -76.071568)
(-6739.8912 -180.19185 -95.029664)
(-6901.7827 -232.43706 -113.41898)
(-7050.1411 -285.47403 -130.7167)
(-7175.6953 -337.50477 -146.48283)
(-7218.9878 -618.19522 -172.07938)
(-7143.2611 -846.50189 -183.05854)
(-7074.9227 -1074.1461 -194.57685)
(-6995.5726 -1299.8188 -205.84778)
(-6949.2128 -1530.3016 -217.91672)
(-6917.5653 -1767.8979 -230.29711)
(-6879.1546 -2004.6228 -242.29412)
(-6622.5906 -2193.2101 -234.92472)
(-6491.7969 -2170.6703 -218.37981)
(-6335.2472 -2139.7192 -199.47757)
(-6168.7208 -2106.2546 -179.17144)
(-5992.2584 -2069.5877 -157.84724)
(-5806.017 -2029.9404 -136.26812)
(-5610.3633 -1987.0351 -115.0962)
(-5405.9907 -1940.7231 -94.895466)
(-5193.7102 -1890.9791 -76.105635)
(-4974.8492 -1837.985 -59.091531)
(-4750.9686 -1781.4588 -44.306777)
(-4517.8579 -1719.6007 -31.099112)
(-4289.8266 -1660.0771 -20.162839)
(-4054.2197 -1595.3762 -10.814722)
(-3818.8111 -1530.1409 -3.1905677)
(-3583.0282 -1464.3864 2.9000732)
(-3347.8031 -1398.6164 7.7356025)
(-3113.9962 -1333.3631 11.446258)
(-2882.3034 -1268.7792 14.099458)
(-2653.5706 -1205.1172 16.130236)
(-2428.5787 -1142.2383 17.630748)
(-2208.3217 -1080.1425 18.954714)
(-1993.8343 -1018.6564 20.344507)
(-1786.0184 -957.7985 22.227811)
(-1586.24 -897.64266 24.478134)
(-1395.2613 -838.20892 27.412314)
(-1214.1551 -779.7557 30.962664)
(-1043.7761 -722.32182 34.874216)
(-884.89844 -666.20319 39.106389)
(-737.88406 -611.35749 43.308678)
(-603.50134 -558.04867 47.265729)
(-481.55241 -506.25206 50.703591)
(-372.86627 -456.22544 53.433662)
(-277.50228 -406.42794 55.137675)
(-194.00056 -358.82752 57.057898)
(-122.31001 -313.1556 56.76571)
(-63.976819 -269.07616 56.853402)
(-16.661602 -226.87037 55.713451)
(20.080977 -187.83278 54.463954)
(44.985318 -149.90471 52.111866)
(60.888827 -117.31344 48.943387)
(68.422017 -87.678571 44.802237)
(67.645377 -61.250502 40.466087)
(59.65856 -38.924308 32.766754)
(46.562947 -22.597167 26.333355)
(29.143013 -6.9606792 16.275341)
(4.9937507 1.1308918 2.8996087)
(-6.7652979e-16 3.5118239e-16 1.2802193e-16)
(-2.3129286e-15 2.7505878e-16 1.3239036e-16)
(-3.6393531e-15 -1.4253491e-16 -1.5464221e-16)
(-4.9195801e-15 -9.3657526e-16 4.6870719e-16)
(-4.0844143e-15 -8.2232132e-16 1.723462e-16)
(-2.0271537e-15 -1.8079967e-16 2.6438577e-16)
(-2.0670014e-15 8.6459225e-16 1.4474963e-15)
(-4.5036838e-15 1.2268482e-15 -2.065022e-16)
(-1.9919023e-15 1.1694967e-15 -1.6367101e-16)
(-2.9438013e-15 1.1112212e-15 -1.969436e-16)
(-2.4504202e-15 9.597151e-16 -1.1789697e-16)
(-5.2893259e-15 2.5926013e-15 -8.0820905e-16)
(-1.8775489e-15 1.1365606e-15 -5.8525306e-16)
(-7.4714327e-17 -2.094137e-16 9.7564992e-17)
(-7215.2593 -496.03491 -161.94141)
(-7230.6251 -479.15946 -161.26846)
(-7244.8836 -463.47243 -160.86588)
(-7258.5102 -448.53271 -160.64795)
(-7271.8088 -433.93987 -160.99446)
(-7285.0033 -419.37579 -161.62543)
(-7298.777 -404.45392 -161.7821)
(-6704.6761 -2341.7922 -254.41201)
(-6719.2939 -2325.4291 -253.53673)
(-6733.944 -2310.2183 -252.63981)
(-6748.723 -2295.6369 -251.95941)
(-6763.4032 -2281.0768 -251.68246)
(-6777.9791 -2266.2221 -251.7417)
(-6792.1611 -2250.2994 -252.59612)
(15.326568 -13.162248 -10.462687)
(41.598849 -21.479851 -19.565556)
(65.057513 -33.317704 -27.730919)
(83.612961 -46.263227 -36.137418)
(97.288538 -62.173502 -43.552098)
(103.04921 -81.336519 -50.784869)
(101.5845 -102.21784 -56.750989)
(89.681458 -126.55201 -61.993999)
(67.224673 -152.17906 -65.456594)
(32.739424 -180.73086 -67.913643)
(-14.019676 -211.33978 -68.456969)
(-74.088905 -243.77226 -67.542899)
(-147.51312 -278.9809 -65.341266)
(-233.87239 -315.53926 -62.082039)
(-333.4654 -354.10617 -58.129703)
(-445.5427 -394.34619 -53.751009)
(-569.76758 -435.83373 -49.231792)
(-705.57113 -478.29872 -44.696051)
(-852.56332 -521.88038 -40.17792)
(-1010.0135 -566.30734 -35.709287)
(-1177.2741 -611.72842 -31.369421)
(-1353.4857 -658.13064 -27.10851)
(-1537.7841 -705.88951 -23.112233)
(-1728.9804 -754.89378 -19.509265)
(-1926.2678 -805.67876 -16.667519)
(-2128.4982 -857.92475 -14.494179)
(-2334.5761 -911.94186 -13.690036)
(-2543.8721 -967.61752 -14.252862)
(-2755.9905 -1024.6751 -16.112454)
(-2970.3956 -1083.2751 -19.292613)
(-3187.2588 -1143.2322 -23.588542)
(-3406.4424 -1204.3629 -28.752342)
(-3627.8052 -1266.7828 -34.536237)
(-3851.2625 -1330.1789 -40.998743)
(-4076.2243 -1394.563 -47.926272)
(-4301.8131 -1459.7058 -55.612298)
(-4527.1145 -1524.835 -64.404321)
(-4751.2752 -1590.0526 -74.517526)
(-4972.5781 -1654.3279 -86.293053)
(-5190.0512 -1716.8926 -100.03032)
(-5402.8192 -1777.7082 -115.19611)
(-5610.1584 -1835.3308 -132.43079)
(-5811.8499 -1890.5292 -150.35676)
(-6007.0667 -1942.0206 -169.44541)
(-6197.7135 -1990.6351 -188.2986)
(-6380.3528 -2036.622 -206.8541)
(-6570.8627 -2083.4472 -225.4253)
(22.438797 -10.270079 -9.6327405)
(47.869022 -17.896882 -14.581302)
(72.3944 -29.517478 -20.461715)
(92.905347 -38.900215 -26.256732)
(108.04225 -51.929506 -32.02315)
(116.37745 -65.673421 -36.785877)
(115.19404 -81.769578 -41.839107)
(102.98432 -99.423783 -44.750474)
(78.756848 -118.6361 -48.109365)
(41.017315 -140.00476 -48.846136)
(-11.295093 -162.81434 -48.893378)
(-77.863696 -187.72253 -47.340881)
(-159.25012 -214.39308 -44.8247)
(-254.74291 -242.69357 -41.294514)
(-363.70536 -272.40852 -37.244021)
(-484.74821 -303.48622 -32.578482)
(-616.87732 -335.43879 -28.06144)
(-758.89338 -368.07605 -23.561252)
(-909.73777 -401.23104 -19.2118)
(-1068.025 -434.81194 -15.065089)
(-1232.6339 -468.74957 -11.066541)
(-1402.2682 -503.36451 -7.2233731)
(-1575.597 -538.59323 -3.6500244)
(-1751.9802 -574.95 -0.57627439)
(-1930.1764 -612.14301 2.0818415)
(-2109.4296 -650.82276 3.5666278)
(-2289.7103 -690.54442 4.190308)
(-2470.7658 -731.74923 3.8159545)
(-2652.8432 -774.38851 2.0736324)
(-2836.5559 -818.46459 -0.60848022)
(-3022.6276 -864.13694 -4.3145531)
(-3211.7609 -911.60529 -8.8732999)
(-3404.8384 -961.01518 -14.159269)
(-3602.4841 -1012.6816 -20.153109)
(-3804.9895 -1066.75 -26.855757)
(-4012.7385 -1123.1424 -34.651279)
(-4225.54 -1182.161 -43.407638)
(-4443.0005 -1243.065 -53.891952)
(-4665.0934 -1306.1621 -65.826915)
(-4891.0739 -1370.2982 -79.722419)
(-5120.9728 -1435.8732 -95.234721)
(-5353.7856 -1501.3841 -112.66134)
(-5590.1849 -1567.6472 -131.11888)
(-5828.396 -1633.189 -150.72907)
(-6070.4395 -1698.9578 -170.78867)
(-6312.1319 -1764.4084 -190.79972)
(-6557.1146 -1829.3972 -211.35202)
(29.222896 -7.3593702 -8.5764777)
(54.279022 -12.879624 -11.736828)
(80.168537 -19.667114 -13.652725)
(100.96413 -26.555023 -17.132279)
(118.53236 -33.704016 -19.156529)
(125.99913 -42.629013 -22.142016)
(125.08417 -50.372754 -23.195747)
(111.51002 -60.743369 -25.144302)
(84.77233 -70.722637 -25.29844)
(42.314252 -82.637697 -24.534126)
(-14.743787 -95.883224 -23.200669)
(-88.345722 -110.41066 -20.573453)
(-177.32066 -127.30922 -17.132409)
(-281.03885 -145.65357 -13.443179)
(-398.02954 -166.12523 -9.5729331)
(-527.06603 -188.14086 -5.3894282)
(-666.21271 -211.55885 -1.6531853)
(-813.65583 -236.09701 2.1154536)
(-967.57889 -261.54304 5.299714)
(-1125.9059 -287.71988 8.3688367)
(-1287.1407 -314.64627 11.073421)
(-1449.5653 -342.289 13.671408)
(-1612.4053 -370.95148 15.899228)
(-1774.0666 -400.09524 17.896232)
(-1933.9821 -430.49 19.171988)
(-2092.1144 -461.69536 20.074727)
(-2248.5762 -494.00495 20.281678)
(-2403.5343 -527.31893 19.369477)
(-2558.1292 -561.64929 17.711799)
(-2713.5739 -597.17358 15.220742)
(-2871.194 -634.17466 11.844665)
(-3032.6959 -672.81898 7.7914712)
(-3199.6073 -713.58453 3.0436155)
(-3373.3446 -756.90631 -2.3795784)
(-3555.3466 -802.93932 -8.7160334)
(-3746.5394 -852.35078 -15.937704)
(-3947.8309 -904.92211 -24.514415)
(-4159.9085 -961.14687 -34.574204)
(-4383.0941 -1020.6094 -46.293683)
(-4617.5013 -1083.1681 -60.126977)
(-4863.3456 -1148.8304 -75.605215)
(-5120.558 -1216.6547 -93.352263)
(-5388.9504 -1287.4421 -112.06586)
(-5667.6832 -1359.4087 -132.94853)
(-5957.1543 -1434.0759 -153.80249)
(-6254.3617 -1509.8611 -175.94241)
(-6549.0639 -1584.6343 -197.56714)
(31.084099 -3.3211476 -4.233165)
(55.173093 -3.9493106 -3.7270579)
(81.545942 -6.5144515 -4.1963448)
(103.2758 -7.3597233 -4.1749093)
(119.17236 -8.6093736 -3.6106362)
(127.52441 -9.4623719 -2.5890595)
(124.95905 -9.0251996 -2.1171846)
(110.44866 -9.5469453 -0.037292075)
(81.120049 -8.7156694 1.5400004)
(37.175511 -9.6230858 3.8382982)
(-23.543667 -10.508056 6.8513333)
(-100.61725 -13.739 10.571527)
(-193.38086 -18.832097 14.420285)
(-301.24415 -25.985627 18.044523)
(-422.25392 -36.283182 21.78626)
(-555.28649 -48.860178 24.911141)
(-697.64729 -64.197027 27.818992)
(-847.90772 -81.642022 29.992685)
(-1003.4524 -101.21944 31.720164)
(-1162.7539 -122.71197 33.170201)
(-1323.8404 -146.0935 34.444815)
(-1485.3079 -171.36389 35.57879)
(-1645.0294 -197.81243 36.504937)
(-1802.6126 -226.04578 37.136347)
(-1957.4175 -255.5283 37.754947)
(-2109.2776 -286.3517 37.7736)
(-2258.2665 -318.09313 36.942461)
(-2405.3199 -350.79637 35.557727)
(-2551.6121 -384.37916 33.503623)
(-2698.513 -418.97334 30.596807)
(-2847.747 -454.69059 27.107913)
(-3001.1597 -491.76868 22.871795)
(-3160.451 -530.65454 18.063169)
(-3327.5027 -571.64106 12.412874)
(-3503.7833 -615.17275 6.00077)
(-3690.6972 -661.48699 -1.5610239)
(-3889.4553 -711.00048 -10.337756)
(-4101.318 -763.57908 -20.757304)
(-4324.4769 -818.97384 -32.928881)
(-4562.9474 -877.86999 -46.936167)
(-4815.4696 -939.76058 -62.799841)
(-5081.4294 -1004.0638 -80.521782)
(-5361.5993 -1071.2604 -99.727008)
(-5654.2412 -1140.071 -120.40899)
(-5960.2011 -1211.7614 -141.59198)
(-6275.6065 -1284.737 -163.67531)
(-6584.9773 -1356.6516 -185.67415)
(30.627022 1.3126884 -0.073919622)
(54.49882 4.3632418 -0.075855377)
(80.983263 7.9317589 3.0098501)
(100.02611 12.050615 6.4341161)
(115.41192 17.625076 10.702015)
(120.54694 24.301678 14.220009)
(116.51857 33.423612 18.743078)
(99.096763 42.58558 23.074403)
(69.342399 53.867469 27.040501)
(23.735185 63.96418 31.897022)
(-36.625011 74.247056 36.623958)
(-112.56917 82.112218 40.943926)
(-203.86676 88.901704 44.872198)
(-309.52908 91.919941 48.609561)
(-428.55298 92.428252 51.486699)
(-559.42469 89.309319 53.719884)
(-700.68896 82.594254 55.353331)
(-850.29795 72.542598 56.216645)
(-1006.6727 58.871345 56.622172)
(-1167.9386 42.04892 56.690686)
(-1332.5531 21.805684 56.538506)
(-1501.1598 -1.1538625 56.232031)
(-1669.8594 -27.127629 55.974767)
(-1834.1936 -55.186934 55.650268)
(-1997.0343 -85.836099 55.131952)
(-2157.9098 -118.13458 54.17108)
(-2317.5408 -151.98369 52.993348)
(-2476.2931 -187.14282 51.428013)
(-2635.1375 -223.41137 49.159085)
(-2795.2473 -260.67775 46.373484)
(-2958.1491 -298.94553 42.856789)
(-3125.2717 -338.36292 38.70109)
(-3298.0743 -379.11905 33.781583)
(-3477.9253 -421.57412 28.073568)
(-3665.9415 -465.79016 21.336183)
(-3863.0658 -512.25644 13.442895)
(-4070.1184 -560.90685 4.1469196)
(-4291.5905 -612.21185 -6.9405225)
(-4556.8822 -670.95779 -19.674346)
(-4798.215 -726.78326 -34.46042)
(-5042.5297 -782.84785 -51.020407)
(-5297.8533 -840.41832 -69.530643)
(-5561.8752 -899.13262 -89.062523)
(-5834.0823 -958.30636 -110.17931)
(-6113.9995 -1018.8825 -131.26662)
(-6399.1702 -1079.5758 -153.49794)
(-6678.4983 -1139.9303 -174.93762)
(27.208765 2.5374573 1.7114608)
(48.545101 10.522431 5.4220419)
(73.867052 17.044529 11.952114)
(91.354952 26.039038 17.727329)
(103.2386 36.213739 24.322576)
(106.19994 49.804459 30.396816)
(99.1012 65.311993 36.759599)
(81.151703 82.567912 42.42606)
(50.521065 101.73982 48.202832)
(6.8725287 120.46424 53.735393)
(-50.749912 139.69952 58.684294)
(-122.53139 157.72871 63.682113)
(-208.6426 173.94731 68.187114)
(-308.47505 187.42863 71.710307)
(-421.46283 197.84729 74.514571)
(-547.00656 204.70776 76.378508)
(-683.98813 207.74915 77.561769)
(-831.41745 206.76857 77.83195)
(-988.12727 201.81525 77.700483)
(-1152.9119 192.68398 77.171039)
(-1324.8288 179.91974 76.514721)
(-1500.6444 161.93522 75.901597)
(-1687.9362 142.00853 75.559326)
(-1871.2095 117.51073 75.05322)
(-2056.1981 89.289555 74.577477)
(-2243.4099 58.576548 74.05418)
(-2431.81 24.96221 73.31817)
(-2621.7225 -10.731678 72.001791)
(-2813.3191 -48.305909 70.300383)
(-3007.1392 -87.374686 67.809647)
(-3203.5304 -127.84546 64.640979)
(-3403.1449 -169.68626 60.567632)
(-3606.501 -212.89832 55.601768)
(-3814.0693 -257.5732 49.511537)
(-4025.9495 -303.79396 42.154717)
(-4242.3087 -351.63924 33.317065)
(-4462.9748 -400.93012 22.752898)
(-4688.0461 -451.66868 10.270997)
(-4926.2968 -504.40421 -4.0934947)
(-5230.1437 -564.74121 -21.03632)
(-5440.9366 -615.76222 -39.446005)
(-5672.7161 -668.68795 -59.323402)
(-5902.2777 -720.83514 -80.369665)
(-6130.8694 -772.24596 -101.89893)
(-6358.382 -823.05627 -123.4845)
(-6584.0857 -873.02128 -144.68529)
(-6807.6317 -922.80862 -165.19032)
(20.34357 7.0420018 3.5273266)
(43.692346 15.559574 8.4975956)
(68.615711 23.513114 17.623914)
(83.457299 34.46655 26.302169)
(93.941796 49.111621 35.059452)
(93.577116 67.481942 42.632662)
(85.519072 88.418536 50.635168)
(65.972971 111.96307 57.353477)
(35.591696 137.48005 64.408258)
(-6.9224942 163.40018 70.522757)
(-62.66994 190.2649 76.275648)
(-130.84263 215.77623 81.9883)
(-213.25857 240.67976 86.182467)
(-308.35765 262.97778 89.971094)
(-417.05622 282.79713 92.653784)
(-538.50893 299.33567 94.544133)
(-672.75772 312.42187 95.473221)
(-818.96076 321.73136 95.749213)
(-976.68753 327.09035 95.514449)
(-1145.1039 328.30352 95.01828)
(-1323.489 325.13761 94.505396)
(-1510.666 317.89593 94.086067)
(-1706.1788 305.80498 93.868124)
(-1909.0207 290.04132 93.838796)
(-2117.6187 269.64007 94.277224)
(-2332.185 245.72669 94.450858)
(-2550.454 218.13134 94.453358)
(-2772.8064 187.4061 94.204957)
(-2998.5307 154.05448 93.410795)
(-3227.0579 118.26208 91.821095)
(-3458.0094 80.293433 89.429062)
(-3691.1375 40.21179 85.967204)
(-3925.8993 -1.8794216 81.279497)
(-4161.8721 -46.077583 75.193029)
(-4398.198 -92.243708 67.367992)
(-4634.1149 -140.60688 57.781574)
(-4868.5018 -190.56461 45.852482)
(-5100.4646 -242.13097 31.727377)
(-5329.6816 -294.68712 15.529056)
(-5559.8336 -348.15208 -3.0392014)
(-5765.8732 -400.35608 -23.218354)
(-5977.6919 -452.66582 -45.017903)
(-6180.1567 -503.83177 -67.39464)
(-6374.9987 -553.60166 -90.179412)
(-6561.9171 -602.05072 -112.23151)
(-6741.2488 -648.94045 -133.68396)
(-6922.241 -695.60845 -154.10212)
(-1.8726199e-15 -1.0357256e-16 4.2324109e-16)
(-4.3693994e-15 5.8098526e-16 1.0825799e-16)
(-1.86708e-15 5.0203615e-16 5.7484399e-16)
(-1.1298519e-15 4.4303811e-16 -1.5186772e-16)
(-1.5283164e-15 1.7502349e-16 4.7144117e-17)
(-3.9278597e-15 -6.147074e-18 -1.0233878e-17)
(-3.270765e-15 8.5080195e-17 2.8271762e-17)
(-1.444637e-15 3.1767481e-17 -1.0328492e-16)
(-1.9600489e-15 -2.0641393e-16 2.5996682e-17)
(-1.0758982e-15 -5.0887233e-16 -1.6282415e-16)
(-1.1902312e-15 -6.3217422e-16 -1.0496995e-16)
(-2.2455722e-15 -1.0363924e-16 3.7607835e-16)
(-1.7254929e-15 1.2766475e-16 7.9907906e-17)
(-6.542485e-16 2.4659353e-16 4.7610311e-16)
(-1.0183069e-15 2.0413811e-16 3.0876606e-16)
(-1.2825224e-16 3.2154578e-16 2.6910031e-16)
(-2.4669526e-15 5.8726168e-16 -3.2350189e-17)
(-1.9694108e-15 5.8752001e-16 2.9593509e-16)
(-1.9972486e-15 5.0741204e-16 1.6376266e-16)
(-5.0142844e-16 5.9082617e-16 -1.5096731e-17)
(2.8672985e-17 2.0007103e-16 -2.079567e-16)
(-3.5598279e-15 1.6770216e-16 6.1584209e-17)
(1.5219227e-15 -3.8112137e-16 -3.4960392e-16)
(-8.8364966e-17 -1.5289127e-16 1.7491834e-16)
(2.7397895e-16 -2.6900304e-16 -2.0413732e-16)
(-5.1236454e-16 -3.7600259e-16 -4.411389e-17)
(-1.3114086e-15 -5.3747975e-16 1.2489795e-16)
(2.0041989e-16 -4.4379834e-16 -1.4360784e-16)
(-1.3448657e-15 3.3966264e-16 -2.7012678e-16)
(-2.2010094e-15 1.2158219e-16 1.1470551e-16)
(-1.2722141e-15 -2.3577892e-16 -7.7366055e-17)
(-2.6936153e-15 2.298542e-17 6.0151854e-16)
(-1.8084585e-15 2.5926424e-16 8.2177642e-17)
(-1.0121806e-15 3.7760621e-16 1.5728837e-17)
(-3.5076342e-15 -1.049112e-16 -1.8966684e-16)
(-1.2388067e-16 -2.746004e-16 -1.3203227e-16)
(-1.1077126e-15 -2.2449831e-16 5.9960705e-17)
(-7.9462407e-16 5.2806017e-17 1.8160622e-16)
(-1.481116e-15 2.6347307e-16 -6.003674e-17)
(5.3541372e-16 1.9494005e-16 5.7756958e-17)
(-2.5861876e-15 -7.0653702e-17 -1.8824779e-16)
(-1.6152529e-15 1.8241927e-16 3.8488004e-16)
(-1.0389662e-15 3.299921e-17 2.9700946e-16)
(-3.8817577e-15 -1.9427146e-16 -1.2145786e-15)
(-1.6161979e-15 2.8442108e-16 -1.856842e-16)
(8.1577518e-16 1.8112067e-17 2.0819295e-16)
(-2.485062e-15 2.8178417e-16 -5.4749215e-16)
(-1.8307085e-15 4.4562511e-16 -1.4619564e-16)
(-1.4586292e-15 4.0358521e-16 -4.0281137e-16)
(18.187293 -5.3619163 0.86343046)
(17.643791 -5.9310765 2.5057924)
(17.734642 -5.8022339 2.2409089)
(17.76864 -5.9308751 2.1402958)
(17.41432 -5.5136574 1.8768318)
(17.470444 -5.4869041 1.2672432)
(17.551342 -6.0143232 2.3175038)
(38.702185 -6.3274086 8.9213606)
(36.546742 -6.0271734 7.4978162)
(34.425123 -5.4423032 5.1057857)
(33.171672 -4.9844606 3.1147352)
(33.450924 -4.6767771 0.89178763)
(33.63839 -4.7449696 -1.2584603)
(35.134638 -6.0022924 -2.202268)
(57.220462 -0.2691375 19.563122)
(52.328206 -1.0431752 15.101817)
(49.411989 0.10339825 9.1996951)
(47.869051 0.47483851 6.3668624)
(47.02688 0.11230006 1.0947755)
(48.038226 0.62558469 -2.2637003)
(50.353981 1.119141 -7.9138053)
(66.561332 19.503632 27.22412)
(61.228684 19.26413 20.227554)
(56.590273 18.594348 13.333901)
(54.297419 18.438976 7.45274)
(53.692508 18.425233 0.66527496)
(55.503985 19.443862 -5.6285802)
(58.360821 18.439268 -12.4201)
(72.595231 37.815771 35.992492)
(64.354426 35.635163 26.711257)
(58.69533 34.851923 16.991524)
(56.006714 34.762857 8.4609494)
(55.051635 35.092742 -0.3654093)
(56.806621 35.493729 -8.3722473)
(60.988387 36.308381 -18.46228)
(67.781603 64.4945 43.380633)
(59.008722 62.140719 32.464776)
(52.218439 60.692517 20.758393)
(49.073489 60.453432 10.976167)
(47.886451 59.795442 -0.64991087)
(51.20882 60.368316 -11.095936)
(55.554183 60.835276 -21.875583)
(56.408063 91.19945 50.591934)
(45.888141 88.135902 37.439845)
(38.525782 86.540978 24.647554)
(34.334854 85.786083 12.220589)
(33.347862 85.951068 -0.43892261)
(35.387804 87.230231 -12.59746)
(41.208523 87.367831 -27.083617)
(33.625367 122.95145 57.129528)
(22.195907 120.04451 43.028877)
(13.72959 118.08316 27.608795)
(9.3664411 116.9902 13.868279)
(8.7829781 116.03926 -0.042559508)
(10.895203 116.64072 -14.173302)
(17.703245 117.25983 -28.161753)
(1.2435616 155.57601 63.739759)
(-11.106034 151.83676 47.536008)
(-20.278614 149.80512 32.326683)
(-25.104575 148.72107 16.826334)
(-26.779774 148.73051 1.1052156)
(-23.972148 148.93226 -13.970354)
(-18.187085 149.78226 -30.870298)
(-42.748468 190.19722 69.759357)
(-56.094051 186.65274 53.026045)
(-65.634379 183.87734 36.286544)
(-71.559576 183.41157 19.859089)
(-73.039818 182.37943 3.6446944)
(-70.610183 182.56643 -12.649923)
(-64.032513 182.75518 -29.308532)
(-98.534481 225.37442 75.465438)
(-112.50895 221.60115 58.252709)
(-123.00909 219.10009 40.398093)
(-128.73643 217.14882 23.992005)
(-131.17976 216.65141 6.5651177)
(-128.65881 216.26851 -9.9668124)
(-123.41361 217.93423 -28.695009)
(-166.5018 259.93308 81.386809)
(-181.49442 256.56003 63.074329)
(-192.28908 253.65473 45.820364)
(-199.24619 252.54637 28.173408)
(-201.97742 251.71472 10.432363)
(-199.94921 251.545 -6.1650221)
(-194.71886 251.25787 -25.199086)
(-247.81057 294.73125 85.906838)
(-262.58482 290.80647 67.736026)
(-274.12468 287.85236 50.297752)
(-281.03444 285.57723 32.672892)
(-284.33683 284.72953 15.176228)
(-282.90009 284.21449 -1.6853177)
(-278.1456 284.14317 -20.076341)
(-341.26 327.06336 90.366639)
(-356.42963 323.27542 72.403399)
(-368.79975 320.08013 55.356862)
(-376.18494 318.30774 37.895529)
(-380.37205 317.45532 20.435608)
(-379.61483 316.55632 4.1071852)
(-375.92444 316.15048 -14.384703)
(-448.09771 357.82203 93.792472)
(-463.59799 353.88651 76.167237)
(-475.88036 350.43152 59.662178)
(-483.74596 348.12982 42.367812)
(-488.34228 346.77845 25.924894)
(-488.3445 345.39663 9.5870485)
(-485.31762 344.91138 -7.8697125)
(-567.866 385.23997 96.390535)
(-583.18799 381.30931 79.660073)
(-595.94343 377.86669 63.792683)
(-604.30744 375.59834 47.527757)
(-609.4958 374.24055 31.380287)
(-610.43692 372.89289 15.931065)
(-608.17535 371.91468 -0.98684135)
(-700.36985 409.57721 98.259828)
(-715.74941 405.69664 82.34934)
(-728.61923 402.11905 67.449979)
(-737.10384 399.48811 51.733654)
(-743.0019 397.99915 36.697646)
(-744.51892 396.03908 21.940608)
(-743.2865 395.11872 5.9823828)
(-845.58534 430.04371 99.366708)
(-860.74137 426.21678 84.755216)
(-873.65934 422.54597 70.739922)
(-882.64515 420.12745 56.207142)
(-888.95448 418.33117 42.137654)
(-891.34938 416.58966 28.211758)
(-890.90996 415.14912 13.222157)
(-1002.9659 446.45811 100.17587)
(-1017.8133 442.55678 86.655496)
(-1030.8731 439.00421 73.769771)
(-1039.9486 436.29343 60.333024)
(-1046.9288 434.57624 47.240999)
(-1050.0093 432.50796 34.386924)
(-1050.6657 431.15026 20.472585)
(-1171.9335 458.37952 100.66139)
(-1186.6166 454.5646 88.412065)
(-1199.6351 450.98875 76.844451)
(-1209.1444 448.56658 64.488455)
(-1216.6209 446.63374 52.642594)
(-1220.5693 444.84094 40.802003)
(-1222.1344 443.10135 27.978968)
(-1352.0447 465.70953 101.25348)
(-1366.4681 461.86268 90.350937)
(-1379.6426 458.53831 79.849165)
(-1389.4212 455.96476 68.739054)
(-1397.5241 454.24549 57.97677)
(-1402.2732 452.30712 47.261684)
(-1404.9591 450.6935 35.56205)
(-1542.4443 468.2755 102.0821)
(-1556.7722 464.57282 92.311852)
(-1570.0804 461.25621 83.03827)
(-1580.2367 459.00371 73.113485)
(-1588.916 457.16361 63.474144)
(-1594.555 455.58123 53.831758)
(-1598.4209 453.94149 43.30517)
(-1742.4817 466.19316 103.10197)
(-1756.769 462.40281 94.512028)
(-1770.301 459.37451 86.425829)
(-1780.9068 457.17791 77.52853)
(-1790.2763 455.77262 68.910639)
(-1796.9501 454.28428 60.413966)
(-1801.9643 452.81492 50.913863)
(-1951.1744 459.1207 104.45839)
(-1965.7771 455.83112 96.941537)
(-1979.5021 452.83832 89.804359)
(-1990.6245 451.18209 81.77568)
(-2000.6538 449.58381 74.26557)
(-2008.0678 448.38111 66.50733)
(-2014.3778 447.21994 58.101354)
(-2167.8559 448.10876 106.25184)
(-2182.9841 444.7415 99.154179)
(-2196.587 442.06204 93.197175)
(-2208.728 440.60953 85.699195)
(-2219.0081 439.36738 79.006733)
(-2227.7364 438.77981 72.022047)
(-2235.264 438.00416 64.576799)
(-2391.7297 432.80752 107.64835)
(-2407.2628 429.54583 101.41403)
(-2421.3707 427.49982 96.094493)
(-2434.3531 426.25386 88.70376)
(-2445.1043 425.36875 83.269641)
(-2454.5124 424.95265 76.670679)
(-2462.397 424.36461 69.72174)
(-2622.5777 413.9089 109.03579)
(-2638.1499 410.95479 103.75479)
(-2652.8195 409.31263 97.709107)
(-2665.6878 408.2576 91.980753)
(-2677.5229 407.85475 85.72586)
(-2687.985 408.28937 79.386171)
(-2696.5721 408.43965 72.615153)
(-2859.0203 391.5438 109.95314)
(-2874.8237 389.41972 104.79892)
(-2890.4091 387.93044 98.776276)
(-2903.6752 387.67166 93.520566)
(-2916.0604 387.71084 86.831303)
(-2926.741 388.4347 81.290635)
(-2936.2057 389.62556 74.156277)
(-3100.2683 366.54178 110.466)
(-3117.1027 364.78133 104.89515)
(-3132.6953 364.1051 99.513979)
(-3146.7742 364.17176 93.379284)
(-3159.4524 365.02821 87.186836)
(-3170.8795 366.68508 81.113644)
(-3180.7416 368.47596 73.632535)
(-3346.3656 338.93876 109.72682)
(-3363.4414 337.94366 104.48633)
(-3379.91 337.85038 98.346431)
(-3394.3947 338.74553 92.374638)
(-3407.6786 340.38649 85.708494)
(-3419.4534 342.74948 79.334583)
(-3429.703 345.43935 71.353663)
(-3596.0413 309.19083 108.47774)
(-3614.0223 308.96157 102.63345)
(-3630.8799 309.62648 96.548618)
(-3645.9266 311.32127 89.970366)
(-3659.6121 313.705 83.076237)
(-3671.7195 317.10696 76.182989)