/*--------------------------------*- C++ -*----------------------------------*\
  =========                 |
  \\      /  F ield         | OpenFOAM: The Open Source CFD Toolbox
   \\    /   O peration     | Website:  https://openfoam.org
    \\  /    A nd           | Version:  6
     \\/     M anipulation  |
\*---------------------------------------------------------------------------*/
FoamFile
{
    version     2.0;
    format      ascii;
    class       pointVectorField;
    location    "1.05";
    object      u;
}
// * * * * * * * * * * * * * * * * * * * * * * * * * * * * * * * * * * * * * //

dimensions      [0 1 0 0 0 0 0];

internalField   nonuniform List<vector> 
3969
(
(0 -4.6400064e-20 0)
(0 -2.4902106e-19 0)
(-0.91897682 -0.20074757 0.021158498)
(-0.94709977 0.034813792 0.020051474)
(0 2.5383979e-18 0)
(0 2.0514241e-18 0)
(-0.94485157 0.030159564 0.020099324)
(-0.9167472 -0.20532187 0.021104699)
(0 1.0830433e-19 0)
(0 6.5241603e-19 0)
(0 2.8476518e-19 0)
(-1.643691e-18 -1.4800197e-19 0)
(0 7.9053215e-19 0)
(0 -4.5526781e-19 0)
(0 -4.4348811e-19 0)
(-0.92251441 -0.17117838 0.021074177)
(-0.92596569 -0.14168246 0.020978447)
(-0.9294263 -0.11226394 0.020807438)
(-0.93289902 -0.082892219 0.020634368)
(-0.93639994 -0.053545886 0.020441324)
(-0.93995414 -0.024160376 0.020275196)
(-0.94354055 0.0052872818 0.020147324)
(-0.0013473916 -0.0043776436 -0.0049448763)
(-0.0018747251 -0.0075852808 -0.0063173166)
(-0.0039622434 -0.011143354 -0.0070561895)
(-0.0071894178 -0.014949962 -0.0072537709)
(-0.011479999 -0.018626285 -0.0073182159)
(-0.016832426 -0.022546883 -0.0071553574)
(-0.023159974 -0.026282747 -0.0070317074)
(-0.030449299 -0.030211681 -0.006765558)
(-0.038719365 -0.03396215 -0.0065339713)
(-0.047888285 -0.037875505 -0.0061854376)
(-0.058007963 -0.041682908 -0.0058774942)
(-0.069006994 -0.045633299 -0.0054577011)
(-0.080928757 -0.049496854 -0.0050387964)
(-0.093698679 -0.05352374 -0.0045541827)
(-0.10736705 -0.057493917 -0.0040389678)
(-0.12185694 -0.061590865 -0.0034817799)
(-0.13718604 -0.065700837 -0.002912775)
(-0.1533456 -0.069908419 -0.0023045894)
(-0.17031272 -0.074158769 -0.0016756268)
(-0.1880854 -0.078483742 -0.0010263944)
(-0.20663975 -0.082868907 -0.0003542291)
(-0.22597219 -0.087322216 0.00032977952)
(-0.24606004 -0.091829869 0.0010339554)
(-0.26690285 -0.096393669 0.0017502961)
(-0.28845628 -0.10101045 0.0024796028)
(-0.31072931 -0.10566971 0.0032176965)
(-0.33367598 -0.11036421 0.0039625302)
(-0.35729495 -0.11509488 0.0047184371)
(-0.38155573 -0.11982885 0.0054796248)
(-0.40642665 -0.12458455 0.0062486481)
(-0.43188806 -0.12932807 0.0070289487)
(-0.45790839 -0.13406727 0.0078217935)
(-0.48445954 -0.13877565 0.008626435)
(-0.51150973 -0.14345805 0.0094538298)
(-0.53901501 -0.14809161 0.01029354)
(-0.56696219 -0.15267081 0.011152281)
(-0.59527287 -0.1571858 0.012032547)
(-0.62394058 -0.16162051 0.012926319)
(-0.65288718 -0.16597596 0.0138204)
(-0.68209596 -0.17023366 0.014722084)
(-0.71149081 -0.17439878 0.015618264)
(-0.7410444 -0.17845244 0.01650446)
(-0.77070177 -0.18240041 0.017365442)
(-0.80039004 -0.18625285 0.01820523)
(-0.83013644 -0.18997655 0.018999973)
(-0.85977901 -0.19364604 0.019754702)
(-0.88942273 -0.19720292 0.020458218)
(-0.00060546396 0.0045108747 0.0060800712)
(-0.0030518379 0.0079416999 0.0059503685)
(-0.0051520871 0.011910668 0.0071977808)
(-0.0086135424 0.01569261 0.0071334844)
(-0.01343772 0.019926793 0.0072424202)
(-0.01902761 0.02385195 0.0071745738)
(-0.025882278 0.027928337 0.007129002)
(-0.033596005 0.031745045 0.007094437)
(-0.042394882 0.035604186 0.0071112865)
(-0.052101573 0.039208079 0.0071465338)
(-0.062820911 0.042817325 0.0072588051)
(-0.074427716 0.046176277 0.007407165)
(-0.086992384 0.049482151 0.0076145062)
(-0.1004471 0.052565275 0.0078293274)
(-0.11481289 0.055532007 0.0081252105)
(-0.13004885 0.058290429 0.0084194317)
(-0.14618712 0.060908457 0.0087678574)
(-0.16313218 0.063300356 0.0091204649)
(-0.18098861 0.065554299 0.0094956279)
(-0.19959277 0.067557441 0.0098854561)
(-0.21908532 0.069432145 0.010273299)
(-0.23930455 0.071023849 0.010678133)
(-0.26036163 0.072481822 0.011056922)
(-0.28213029 0.07367379 0.011451742)
(-0.30465532 0.074670606 0.01183279)
(-0.3278546 0.075414458 0.012214228)
(-0.35174 0.07595328 0.012565198)
(-0.37630161 0.076239499 0.012907562)
(-0.40149491 0.076284959 0.013247407)
(-0.42727415 0.076086406 0.013561539)
(-0.45361972 0.075648275 0.013870971)
(-0.48048641 0.074966837 0.014166587)
(-0.50784487 0.074041832 0.014458687)
(-0.53564629 0.072869314 0.014746896)
(-0.56385774 0.071456593 0.015038647)
(-0.59243291 0.069797989 0.015327447)
(-0.62131646 0.067900761 0.015636706)
(-0.65047765 0.065763586 0.015934718)
(-0.6798656 0.063413788 0.016257686)
(-0.70942591 0.060837355 0.016587039)
(-0.73911534 0.058066109 0.016933292)
(-0.76889631 0.055113141 0.017293882)
(-0.79870929 0.051992535 0.017675398)
(-0.82852411 0.048732622 0.018084254)
(-0.85829856 0.045356229 0.018522847)
(-0.88799665 0.041892684 0.018996964)
(-0.91759939 0.038359854 0.019512145)
(0 -2.8238957e-20 0)
(0 3.3293712e-19 0)
(0 -3.9570395e-19 0)
(8.0974072e-19 -8.2423906e-20 0)
(0 -6.834315e-19 0)
(0 -3.1691446e-19 0)
(0 -2.6584769e-19 0)
(-0.0019967632 0.0028931902 -0.0046994117)
(-0.0031713939 0.0092907011 -0.0065452309)
(-0.004699809 0.010627534 -0.0068192283)
(-0.0086486964 0.015970535 -0.0073260379)
(-0.012906447 0.019240169 -0.0074000288)
(-0.01869091 0.023309289 -0.007217054)
(-0.025277826 0.027046164 -0.0072092645)
(-0.033032048 0.030708335 -0.0069027834)
(-0.041647891 0.034279737 -0.0067826917)
(-0.051311128 0.037678619 -0.0064437508)
(-0.061947865 0.041047024 -0.0062442044)
(-0.073397381 0.044061016 -0.0058412513)
(-0.086023816 0.047187112 -0.0054744967)
(-0.099338776 0.049924757 -0.0050206295)
(-0.11374669 0.052751065 -0.0045677398)
(-0.12887636 0.055202451 -0.0040441731)
(-0.14501748 0.057711002 -0.0035305024)
(-0.16189797 0.059870822 -0.0029542651)
(-0.17971481 0.062027663 -0.0023872493)
(-0.19828522 0.063881375 -0.0017706781)
(-0.21772181 0.065656267 -0.0011575369)
(-0.23790897 0.067170471 -0.00051043906)
(-0.25890232 0.06854159 0.00014259982)
(-0.28062143 0.069667779 0.00081821898)
(-0.30310879 0.070626939 0.0015194905)
(-0.32633837 0.071322415 0.0022615502)
(-0.35019057 0.071871726 0.0029630654)
(-0.37469 0.072149266 0.0036793139)
(-0.39982345 0.072195888 0.0044039215)
(-0.42554545 0.071990956 0.0051462105)
(-0.45182737 0.07153963 0.0059034405)
(-0.47863696 0.070838878 0.0066733737)
(-0.50592828 0.069879883 0.0074636358)
(-0.53367897 0.068673168 0.0082735092)
(-0.56183061 0.067205956 0.00910363)
(-0.59037802 0.065513173 0.0099605719)
(-0.6191983 0.063517164 0.010830934)
(-0.64834806 0.061380743 0.011719846)
(-0.67770699 0.058953733 0.012620621)
(-0.70725151 0.056339718 0.013527056)
(-0.73693109 0.053526578 0.01443204)
(-0.76669791 0.050539755 0.015322279)
(-0.79650308 0.047393602 0.016198531)
(-0.82630799 0.044112175 0.017045392)
(-0.85606832 0.040720799 0.017861824)
(-0.88575353 0.037241709 0.01863701)
(-0.91533759 0.033713793 0.019369272)
(-0.94129212 0.00065088071 0.020259888)
(-0.93771048 -0.028793025 0.020399751)
(-0.93416919 -0.058161206 0.020507477)
(-0.93064105 -0.087511904 0.020579208)
(-0.92720736 -0.11685232 0.02067114)
(-0.92372572 -0.1462915 0.020772852)
(-0.92028733 -0.17577456 0.02092552)
(-0.88722096 -0.20178725 0.020550307)
(-0.85758985 -0.19823047 0.019986778)
(-0.8279295 -0.19457801 0.019476206)
(-0.79823671 -0.19083229 0.018992765)
(-0.76854953 -0.18697962 0.018552455)
(-0.7389263 -0.18301265 0.018135975)
(-0.70940756 -0.17893365 0.017743391)
(-0.68003983 -0.17474064 0.017371007)
(-0.65087422 -0.17044423 0.017019078)
(-0.62195663 -0.16605856 0.016670799)
(-0.59331381 -0.16155091 0.016343786)
(-0.56509941 -0.15699343 0.016004189)
(-0.53714662 -0.15236507 0.015700398)
(-0.50968129 -0.14768049 0.015380536)
(-0.4826567 -0.14296158 0.015074405)
(-0.45613734 -0.13821551 0.014756819)
(-0.43014412 -0.1334548 0.014436453)
(-0.40471737 -0.1286908 0.014107756)
(-0.37988195 -0.12393065 0.013765082)
(-0.35567151 -0.11918328 0.013412625)
(-0.33210584 -0.11445656 0.013042692)
(-0.30921956 -0.10975403 0.012660547)
(-0.28702897 -0.10507962 0.01225826)
(-0.26554446 -0.10044445 0.011857632)
(-0.24480125 -0.095834396 0.011437839)
(-0.22480664 -0.09128144 0.011021165)
(-0.20558012 -0.086747918 0.010592006)
(-0.18712655 -0.082281587 0.010180366)
(-0.16947567 -0.077831401 0.0097572011)
(-0.15261429 -0.073445612 0.0093643801)
(-0.13658461 -0.069084407 0.008973612)
(-0.12135556 -0.064774048 0.008615273)
(-0.10696156 -0.060507088 0.0082830182)
(-0.093485254 -0.056216005 0.0079334228)
(-0.080868074 -0.051991794 0.0077035962)
(-0.068998502 -0.047829887 0.0074242482)
(-0.058135576 -0.043641775 0.007265049)
(-0.048043412 -0.039500454 0.0071257393)
(-0.038904382 -0.035405437 0.0070687921)
(-0.030717505 -0.031255724 0.0069863718)
(-0.023496907 -0.027146647 0.0069832052)
(-0.017022133 -0.023157559 0.0070311556)
(-0.011815094 -0.019018284 0.0070441338)
(-0.0074514488 -0.015131302 0.0069328832)
(-0.0042568746 -0.01134401 0.0066524626)
(-0.0023302501 -0.0072130141 0.0058679057)
(-0.0029651044 -0.0043284324 0.0036019774)
(0 3.4314336e-19 0)
(0 2.68319e-19 0)
(0 -1.3904289e-19 0)
(0 -9.1362971e-19 4.5722414e-19)
(0 -8.0217493e-19 0)
(0 -1.763702e-19 0)
(0 8.4342086e-19 0)
(0 1.1709709e-18 0)
(0 1.1162314e-18 0)
(0 1.0606101e-18 0)
(0 9.1600444e-19 -1.125273e-19)
(0 2.4745201e-18 0)
(0 1.0847954e-18 0)
(0 -1.9987586e-19 0)
(-0.9468564 0.034309711 0.020071207)
(-0.94662015 0.033783541 0.020085289)
(-0.94636961 0.033233915 0.020078488)
(-0.94610072 0.032666151 0.020076015)
(-0.94581243 0.032077127 0.020063745)
(-0.94550034 0.031461814 0.020060112)
(-0.94517573 0.030836318 0.020090516)
(-0.91872209 -0.20140005 0.02114506)
(-0.91846007 -0.2020191 0.021134708)
(-0.91819468 -0.20262566 0.021128799)
(-0.91792171 -0.20320787 0.021130812)
(-0.91763645 -0.20376969 0.021132816)
(-0.91734513 -0.20430904 0.02112589)
(-0.91704697 -0.20482595 0.021111033)
(-0.0017494152 -0.0038078671 -0.0043573511)
(-0.0043179685 -0.0061247635 -0.0045763621)
(-0.0079964938 -0.0092013942 -0.0052630217)
(-0.012844292 -0.012076495 -0.005477781)
(-0.018644025 -0.015057042 -0.0055213832)
(-0.025446539 -0.018185659 -0.0054919259)
(-0.033042206 -0.021249778 -0.0053225727)
(-0.041391031 -0.024402389 -0.0052017956)
(-0.050584822 -0.027482554 -0.0049173416)
(-0.060404202 -0.030631283 -0.0046845033)
(-0.070974926 -0.033711997 -0.0043407123)
(-0.082152504 -0.036808967 -0.003990592)
(-0.094064462 -0.03991445 -0.0035599896)
(-0.10654578 -0.043011483 -0.003110034)
(-0.11972601 -0.046095083 -0.002623076)
(-0.1335136 -0.049210466 -0.002086959)
(-0.14794411 -0.052312802 -0.0015324306)
(-0.16301396 -0.055438345 -0.00094645451)
(-0.17874636 -0.058570782 -0.0003339984)
(-0.19514152 -0.061730936 0.00029959944)
(-0.21221837 -0.064917005 0.00095316462)
(-0.22999152 -0.068130217 0.0016227242)
(-0.24847267 -0.071384284 0.0023053173)
(-0.26768084 -0.074685017 0.0030013602)
(-0.287621 -0.078030166 0.0037003021)
(-0.30832145 -0.081432992 0.0044131048)
(-0.3297646 -0.084898949 0.0051282431)
(-0.35197546 -0.088431866 0.0058463577)
(-0.37494929 -0.092034953 0.0065640694)
(-0.39868105 -0.095712202 0.0072905468)
(-0.42316732 -0.09946565 0.0080184221)
(-0.44839855 -0.10329713 0.0087531082)
(-0.47435744 -0.1072069 0.0094979217)
(-0.50102119 -0.11119693 0.010255184)
(-0.52836426 -0.11525729 0.01101943)
(-0.55634925 -0.11939389 0.011804434)
(-0.58493261 -0.12359552 0.012598508)
(-0.61407884 -0.12785086 0.013400353)
(-0.64371832 -0.13216428 0.014212445)
(-0.67380409 -0.13650924 0.015022089)
(-0.70426201 -0.14088394 0.015836208)
(-0.73504058 -0.1452697 0.016632904)
(-0.76605679 -0.14965891 0.017424915)
(-0.79724629 -0.15403107 0.018189882)
(-0.828564 -0.15837816 0.018936191)
(-0.85988056 -0.1627005 0.019660439)
(-0.89124638 -0.16695339 0.020364577)
(-0.0011906718 -0.0025740483 -0.0028880855)
(-0.004674423 -0.0040306731 -0.0030280413)
(-0.0092567868 -0.0065960359 -0.003551518)
(-0.014758419 -0.008534479 -0.0036600994)
(-0.021363226 -0.010776958 -0.0037351125)
(-0.028683199 -0.013026155 -0.0036139931)
(-0.036801153 -0.015236778 -0.0036153541)
(-0.045696809 -0.017535982 -0.0033694026)
(-0.055224922 -0.019744161 -0.0032508775)
(-0.065382028 -0.022053223 -0.0029695644)
(-0.076151498 -0.024204446 -0.0027288684)
(-0.087501759 -0.026513312 -0.0023612555)
(-0.099411138 -0.028665925 -0.0020147386)
(-0.11188184 -0.030909311 -0.0016081573)
(-0.12492007 -0.033069319 -0.001147935)
(-0.13848556 -0.03529081 -0.0006451031)
(-0.15260679 -0.037465587 -0.00011551645)
(-0.16731152 -0.039672697 0.00044662408)
(-0.18259937 -0.041862785 0.0010318959)
(-0.19851689 -0.04408579 0.0016383999)
(-0.21506492 -0.046319424 0.0022663792)
(-0.23228705 -0.048589221 0.0029015848)
(-0.25018518 -0.050905544 0.0035585534)
(-0.26881012 -0.05326865 0.004209714)
(-0.28816809 -0.055700399 0.0048789886)
(-0.30829556 -0.058213596 0.0055425788)
(-0.32919685 -0.060806138 0.0062095872)
(-0.35090353 -0.063503466 0.00687539)
(-0.37342196 -0.066304693 0.0075426865)
(-0.39675475 -0.069230095 0.0082093637)
(-0.42091184 -0.072276245 0.0088766891)
(-0.44588672 -0.075459899 0.0095498285)
(-0.471663 -0.078780187 0.010228607)
(-0.49823417 -0.082240197 0.010912627)
(-0.52556157 -0.085845574 0.011610641)
(-0.55362431 -0.089594675 0.012317644)
(-0.58237078 -0.093476998 0.013035588)
(-0.61175729 -0.09749467 0.013762652)
(-0.64171971 -0.10163217 0.014498157)
(-0.67220902 -0.10587787 0.015237745)
(-0.70314304 -0.11022385 0.015980532)
(-0.73445714 -0.1146398 0.016716487)
(-0.76607546 -0.11912119 0.017450646)
(-0.79790455 -0.12363884 0.0181732)
(-0.82991179 -0.12817208 0.018879032)
(-0.86193364 -0.13271812 0.019586084)
(-0.89404256 -0.13721484 0.020259622)
(0.00031112711 -0.0013513988 -0.0016011445)
(-0.002536391 -0.0021439712 -0.0016154947)
(-0.0062662751 -0.0033548611 -0.0017658877)
(-0.011345373 -0.0044148556 -0.0018679128)
(-0.017238335 -0.0055019404 -0.0017976486)
(-0.024134289 -0.0066852349 -0.00186187)
(-0.031912192 -0.0077715805 -0.0016338607)
(-0.040394051 -0.0089560339 -0.0016051638)
(-0.049730992 -0.010144453 -0.001389438)
(-0.059712061 -0.011302629 -0.0012132954)
(-0.070460538 -0.012573907 -0.0009340532)
(-0.081817123 -0.01380061 -0.00063935335)
(-0.093889757 -0.015073455 -0.00031027303)
(-0.10658716 -0.01638172 8.7697399e-05)
(-0.11995937 -0.017731372 0.00049426942)
(-0.13395957 -0.019122711 0.00095691009)
(-0.14862548 -0.020540655 0.0014551425)
(-0.16393828 -0.022013033 0.0019682119)
(-0.17992496 -0.023522742 0.002516194)
(-0.19657765 -0.025096307 0.0030705506)
(-0.21391242 -0.026720641 0.0036446561)
(-0.23194557 -0.028420389 0.0042291478)
(-0.25070245 -0.030195441 0.0048212665)
(-0.27018964 -0.032057715 0.0054250123)
(-0.29040999 -0.034015805 0.0060291913)
(-0.31139179 -0.036079846 0.006640435)
(-0.33313017 -0.038254966 0.0072528818)
(-0.3556371 -0.040556495 0.007868217)
(-0.37889271 -0.042982748 0.0084763618)
(-0.40291028 -0.045541502 0.0090865437)
(-0.42767474 -0.048242031 0.0096989683)
(-0.45317549 -0.051082644 0.010311113)
(-0.47939221 -0.054068968 0.010928327)
(-0.50630676 -0.05720038 0.011552796)
(-0.5338802 -0.060482086 0.012186915)
(-0.5620862 -0.063900891 0.012828045)
(-0.59087385 -0.067463879 0.013480842)
(-0.62020371 -0.071157238 0.014142059)
(-0.65001406 -0.074976359 0.014815005)
(-0.68024438 -0.07890438 0.015485094)
(-0.71083001 -0.082925624 0.016163719)
(-0.74171652 -0.087023629 0.016833002)
(-0.77282328 -0.091192745 0.017512299)
(-0.80409092 -0.095389784 0.018168779)
(-0.83546497 -0.099627065 0.018837741)
(-0.86683912 -0.10385814 0.019487481)
(-0.8982581 -0.10807615 0.020144718)
(0.0022881156 1.1750764e-05 -6.2210947e-05)
(0.0011691814 0.00025535823 0.00029611323)
(-0.00099270319 0.00022639084 0.00018526214)
(-0.0042798989 0.00045919808 0.00017457238)
(-0.0088558285 0.00064801905 0.00010494079)
(-0.014391771 0.00071115823 0.00024434178)
(-0.020942699 0.00092533521 0.00016949522)
(-0.028531221 0.00090946556 0.0003470742)
(-0.037055272 0.001008673 0.00041458235)
(-0.046569293 0.00090055284 0.00060793017)
(-0.056996286 0.00081354442 0.00082597317)
(-0.068389182 0.00059074272 0.0010720504)
(-0.080675202 0.00030931933 0.0014172398)
(-0.093860774 -0.00011571766 0.0017546855)
(-0.10792835 -0.00060577295 0.0021412008)
(-0.12286175 -0.0012778203 0.0025697263)
(-0.13865124 -0.0020083317 0.0030165604)
(-0.1552815 -0.0029089634 0.0034926898)
(-0.17273754 -0.0038953473 0.003984448)
(-0.19101443 -0.0050288477 0.004490165)
(-0.21010258 -0.0062964547 0.0050286325)
(-0.23000744 -0.0077011688 0.005553541)
(-0.25063983 -0.0092286424 0.0061108986)
(-0.27203684 -0.010905534 0.0066550924)
(-0.29416728 -0.012718021 0.007221591)
(-0.31700553 -0.014676796 0.0077722156)
(-0.34052858 -0.016762308 0.0083222422)
(-0.36471297 -0.018988759 0.0088642354)
(-0.38953508 -0.021337378 0.0094076312)
(-0.41496696 -0.023821248 0.0099507016)
(-0.44097563 -0.026427191 0.010493085)
(-0.46753524 -0.02914593 0.011033824)
(-0.49460067 -0.031987056 0.011586006)
(-0.52215017 -0.034929584 0.01213923)
(-0.55012773 -0.037978042 0.012704255)
(-0.57850686 -0.041120973 0.013276217)
(-0.60723307 -0.044355048 0.013861342)
(-0.63626276 -0.047664854 0.014453277)
(-0.66553924 -0.051043192 0.015053536)
(-0.69503981 -0.054484338 0.01566142)
(-0.72470149 -0.057982749 0.016279908)
(-0.75446999 -0.06151636 0.016895985)
(-0.78430742 -0.065081269 0.017521491)
(-0.81415579 -0.068651825 0.018139741)
(-0.844003 -0.072241115 0.018769945)
(-0.87375721 -0.07581009 0.019390528)
(-0.90348122 -0.079377833 0.020011917)
(0.0040770592 0.0013031439 0.0014529858)
(0.0043938875 0.0022893445 0.0018304377)
(0.0042088716 0.0037458706 0.0018771106)
(0.0022889977 0.0051561447 0.0019258793)
(-0.00076832977 0.006603571 0.0020742654)
(-0.0049823525 0.0080639575 0.0019817562)
(-0.010486928 0.009405596 0.0021528205)
(-0.017101604 0.010764487 0.0021863211)
(-0.024963715 0.011932445 0.0023413665)
(-0.033967837 0.013079718 0.0024938351)
(-0.044189223 0.014041255 0.002706789)
(-0.055511932 0.014870245 0.0029470648)
(-0.068022036 0.015536747 0.0032133506)
(-0.08164577 0.016025488 0.0035118995)
(-0.096384601 0.016343831 0.0038546515)
(-0.11220623 0.016452025 0.0042131486)
(-0.12910547 0.016381322 0.0046246167)
(-0.14701185 0.016074142 0.0050382249)
(-0.16593378 0.015600056 0.0054823465)
(-0.18578997 0.014882856 0.0059369667)
(-0.2065883 0.013977611 0.0064061595)
(-0.22819573 0.012891922 0.0068575974)
(-0.25065607 0.011579763 0.0073441932)
(-0.27392129 0.010114358 0.0078230066)
(-0.29790373 0.0084441017 0.0083008439)
(-0.32257342 0.0066186914 0.0087776305)
(-0.34787096 0.0046223216 0.0092614172)
(-0.37374125 0.0024815165 0.0097446594)
(-0.40012416 0.00020305243 0.01023152)
(-0.42696961 -0.0021990856 0.010714506)
(-0.45422914 -0.0047071933 0.011199239)
(-0.48184643 -0.0073047879 0.011684453)
(-0.50977156 -0.0099949607 0.012181776)
(-0.53796083 -0.012738141 0.012674658)
(-0.56635196 -0.015554296 0.013187324)
(-0.59491524 -0.018409443 0.013703179)
(-0.62359132 -0.021309843 0.014233491)
(-0.65234339 -0.024227189 0.014769657)
(-0.68113253 -0.027187032 0.015330939)
(-0.70992625 -0.030161754 0.015883198)
(-0.73865228 -0.033122159 0.016443046)
(-0.76731278 -0.036081915 0.017007289)
(-0.79586532 -0.03903367 0.0175805)
(-0.82429587 -0.041964809 0.018148521)
(-0.85258387 -0.044892805 0.018732964)
(-0.88070408 -0.047786708 0.019299611)
(-0.9087063 -0.050694911 0.019884495)
(0.0042599545 0.0023816045 0.0030553372)
(0.0049708552 0.004509282 0.0033864902)
(0.0053572473 0.0070705943 0.0037200362)
(0.0040451839 0.0094997643 0.0039411276)
(0.0016184769 0.012142038 0.0038515541)
(-0.0020955949 0.014555489 0.0039609662)
(-0.007128679 0.017102005 0.0039445233)
(-0.013404542 0.019406944 0.0040007972)
(-0.020969234 0.021696366 0.0040920008)
(-0.02980865 0.02378998 0.0041763777)
(-0.039918313 0.025760391 0.0043574814)
(-0.051286428 0.027534246 0.0045498304)
(-0.063918912 0.029142379 0.0048002049)
(-0.077758395 0.030499564 0.0050778004)
(-0.092826727 0.031672619 0.0053876266)
(-0.10905721 0.032572969 0.0057363076)
(-0.12645453 0.033265429 0.0061038391)
(-0.1449424 0.033681045 0.0064906758)
(-0.16450813 0.033881518 0.0069027194)
(-0.18507659 0.033806995 0.0073135818)
(-0.20661957 0.033536692 0.0077528371)
(-0.22907017 0.032934134 0.0081624766)
(-0.25237353 0.032178436 0.0086449419)
(-0.27647084 0.031238068 0.0090460855)
(-0.30129263 0.030057825 0.0095081883)
(-0.32676292 0.028668335 0.0099467026)
(-0.35284133 0.02708941 0.01037922)
(-0.37943758 0.025338304 0.010804259)
(-0.4064981 0.02343472 0.011233297)
(-0.43396591 0.021397363 0.011651948)
(-0.46177088 0.019243759 0.012072826)
(-0.48985557 0.016987937 0.012490693)
(-0.51816171 0.014642443 0.0129153)
(-0.54663434 0.012231982 0.013338182)
(-0.57521323 0.0097466889 0.013781082)
(-0.6038665 0.0072251747 0.014219335)
(-0.63252369 0.0046563922 0.0146771)
(-0.66116305 0.0020624955 0.015136607)
(-0.68974021 -0.00055228227 0.015614262)
(-0.71820063 -0.0031787357 0.016084109)
(-0.74653937 -0.0058326937 0.016585219)
(-0.77472839 -0.0084730609 0.017083067)
(-0.8027445 -0.011110896 0.017595308)
(-0.83057382 -0.013733245 0.018114383)
(-0.85820947 -0.01635584 0.018650112)
(-0.88565449 -0.018956721 0.01919355)
(-0.91293191 -0.021578641 0.019748526)
(0.0025548333 0.0035644273 0.004240104)
(0.0023520077 0.006177946 0.0046925955)
(0.0020246824 0.0095912087 0.0053805362)
(-6.1690004e-05 0.012853049 0.0054420342)
(-0.0030410782 0.01618875 0.0055545277)
(-0.0074422235 0.019579192 0.0055318277)
(-0.01297658 0.022861023 0.0055440316)
(-0.019708802 0.026102989 0.005561116)
(-0.027669286 0.029190908 0.005620764)
(-0.036773853 0.032178644 0.0056953244)
(-0.0471083 0.034969044 0.0058460842)
(-0.058571995 0.037640724 0.0060122982)
(-0.071208006 0.040081186 0.0062407457)
(-0.084972217 0.042348812 0.0064828946)
(-0.099864074 0.044382795 0.0067741824)
(-0.11583603 0.046203111 0.0070947145)
(-0.13289466 0.047788478 0.0074318051)
(-0.15096328 0.049141603 0.0078090756)
(-0.17005523 0.050255094 0.0081790395)
(-0.19008827 0.051139591 0.0085828881)
(-0.21105343 0.051761696 0.0089818853)
(-0.23287334 0.052187403 0.0093866207)
(-0.25556532 0.052334064 0.0098015604)
(-0.27900007 0.05229832 0.010205032)
(-0.30317503 0.052010276 0.010623794)
(-0.32801106 0.051518835 0.011013386)
(-0.35347256 0.050810426 0.01139889)
(-0.3795102 0.049890045 0.011787946)
(-0.40605858 0.048787051 0.012168287)
(-0.43306981 0.047509252 0.012538284)
(-0.46048238 0.046067662 0.012902276)
(-0.48824714 0.044471602 0.013264026)
(-0.5163107 0.04273025 0.013625544)
(-0.54461989 0.040858625 0.013988439)
(-0.57312722 0.038849507 0.01436144)
(-0.60178674 0.036738569 0.014732299)
(-0.63054079 0.034502593 0.015121024)
(-0.6593702 0.032174895 0.015511373)
(-0.68820145 0.029749028 0.015921576)
(-0.71701501 0.027242632 0.016334045)
(-0.74577484 0.024657615 0.016761154)
(-0.77445028 0.022007824 0.017195617)
(-0.80301115 0.019307485 0.017648865)
(-0.831436 0.016561835 0.018115601)
(-0.85970725 0.013778066 0.018608835)
(-0.88782221 0.010976077 0.019113326)
(-0.91575657 0.0081407728 0.019640629)
(0 -1.03378e-19 0)
(0 5.7850613e-19 0)
(0 5.0022806e-19 0)
(0 4.414425e-19 -1.5132077e-19)
(0 1.7439314e-19 0)
(0 -6.1249371e-21 0)
(0 8.477427e-20 0)
(0 3.1749624e-20 0)
(0 -2.0629795e-19 0)
(0 -5.0858639e-19 0)
(0 -6.3181898e-19 -1.0491096e-19)
(0 -1.03581e-19 0)
(0 1.2759306e-19 0)
(0 2.4646145e-19 0)
(0 1.9903965e-19 0)
(0 3.1351507e-19 0)
(0 5.7259462e-19 0)
(0 5.7399095e-19 2.8912047e-19)
(0 4.9473926e-19 0)
(0 5.760702e-19 0)
(0 1.9507981e-19 0)
(-3.3559568e-18 1.5809787e-19 0)
(1.4299658e-18 -3.5809343e-19 0)
(-8.3153046e-20 -1.4387347e-19 0)
(2.580973e-19 -2.5340982e-19 -1.9230415e-19)
(-4.8214439e-19 -3.538253e-19 0)
(-1.2340594e-18 -5.0577823e-19 0)
(1.886002e-19 -4.1762549e-19 0)
(0 3.1179649e-19 0)
(0 1.1149928e-19 0)
(0 -2.163392e-19 0)
(0 2.1090297e-20 5.5192397e-19)
(0 2.3788818e-19 0)
(0 3.4647289e-19 0)
(0 -9.6261727e-20 0)
(0 -2.5134042e-19 0)
(0 -2.054822e-19 0)
(0 4.8333089e-20 0)
(0 2.4115561e-19 -5.4951335e-20)
(0 1.7842768e-19 0)
(0 -6.4668974e-20 0)
(0 1.6697085e-19 0)
(0 3.0814764e-20 0)
(0 -1.8166536e-19 0)
(0 2.6596525e-19 0)
(0 1.6936791e-20 1.946835e-19)
(0 2.6349945e-19 0)
(0 4.167089e-19 0)
(0 3.773982e-19 0)
(-0.0022881839 0.0015134715 0.0030946403)
(-0.0027335783 0.0018831205 0.0020381616)
(-0.0032317576 0.0019308541 0.00099863104)
(-0.0033778739 0.0020350487 0.00014193271)
(-0.0032793219 0.0018592976 -0.00068761415)
(-0.0031177004 0.0019184669 -0.0015913458)
(-0.0024894043 0.0013248837 -0.0025244892)
(-0.0045864988 0.007888273 0.0047143403)
(-0.0055422301 0.0083620712 0.0026428519)
(-0.005905746 0.0077603356 0.0011042624)
(-0.0059387839 0.0074598793 -0.0001155144)
(-0.0059639586 0.0078043897 -0.0013568814)
(-0.0053125648 0.0077236018 -0.0028061615)
(-0.0046824541 0.0077336587 -0.0046012057)
(-0.0063251563 0.01090629 0.0051153626)
(-0.0074416107 0.010391076 0.0035422523)
(-0.0081699059 0.010631618 0.0015093526)
(-0.00822389 0.010521547 -4.1026335e-05)
(-0.0080563463 0.010255797 -0.001811437)
(-0.0074128741 0.010386564 -0.0031852941)
(-0.0065653199 0.010811138 -0.0053927842)
(-0.010426604 0.015802449 0.0052380069)
(-0.011435493 0.015823363 0.0035097108)
(-0.011990074 0.015542193 0.0015072989)
(-0.012150368 0.015377351 -8.9034346e-05)
(-0.011941353 0.01537188 -0.001850789)
(-0.011313201 0.01553976 -0.0037661178)
(-0.010099319 0.015330625 -0.0054481955)
(-0.014823973 0.019736843 0.0053145482)
(-0.015874724 0.019418826 0.0035787423)
(-0.016584813 0.019349101 0.0016325482)
(-0.0166749 0.01918049 -0.00016587192)
(-0.016491816 0.019094827 -0.0020046363)
(-0.015765706 0.019133966 -0.0036990894)
(-0.014734294 0.019216068 -0.0057132058)
(-0.020668932 0.023909902 0.0052616646)
(-0.0215835 0.023665408 0.0035130307)
(-0.022215913 0.023462168 0.0015973795)
(-0.022350158 0.023348534 -0.00011389689)
(-0.022080657 0.023231407 -0.0020018131)
(-0.021369075 0.023155807 -0.0038119185)
(-0.020210291 0.023159893 -0.0055344792)
(-0.027326806 0.027785686 0.0052456386)
(-0.02831651 0.027602907 0.0034714205)
(-0.02894751 0.027438497 0.001616862)
(-0.029039014 0.027284284 -8.8882327e-05)
(-0.028821734 0.027173593 -0.0019464962)
(-0.028100717 0.027195326 -0.0036281213)
(-0.026980292 0.027074271 -0.0055357437)
(-0.035105556 0.031691646 0.0052386014)
(-0.036000032 0.031429398 0.0035101864)
(-0.036577869 0.031210016 0.0016585153)
(-0.03671697 0.031047449 -7.2906471e-05)
(-0.036377052 0.030853537 -0.0018334945)
(-0.035700698 0.030750075 -0.0035881262)
(-0.034539816 0.03068556 -0.0052683194)
(-0.043806055 0.0354059 0.0052744325)
(-0.044740521 0.035183372 0.0035155521)
(-0.045336685 0.035011473 0.0017761817)
(-0.045386667 0.034755313 7.1047356e-05)
(-0.045146829 0.034650155 -0.0016689297)
(-0.044402566 0.034485873 -0.0033576783)
(-0.043297736 0.03437787 -0.0051633118)
(-0.053540193 0.03906699 0.0053434708)
(-0.054389201 0.038736108 0.0036524314)
(-0.054911528 0.038439602 0.0018537692)
(-0.055036926 0.038287764 0.00017397454)
(-0.054701113 0.038051159 -0.0015377594)
(-0.053997959 0.037875379 -0.0032165641)
(-0.052847399 0.037753567 -0.0048778384)
(-0.064179952 0.04253942 0.0054731171)
(-0.065049134 0.04223341 0.0037818777)
(-0.065606398 0.042004224 0.0020489675)
(-0.065641315 0.041715967 0.00044393024)
(-0.065394588 0.041489852 -0.0012822755)
(-0.064626954 0.041314562 -0.0028675772)
(-0.063546209 0.041173535 -0.0046544554)
(-0.075819333 0.045909315 0.0056581365)
(-0.076632714 0.045547775 0.0039343509)
(-0.077086094 0.045207394 0.0022931923)
(-0.077184443 0.044917578 0.00060555378)
(-0.076841679 0.044657566 -0.0010467284)
(-0.076072586 0.044444718 -0.0026319054)
(-0.075041802 0.044239022 -0.0043219512)
(-0.088340489 0.04913126 0.0058844652)
(-0.089115554 0.048721046 0.0042099661)
(-0.089647306 0.04842549 0.0025798515)
(-0.089693928 0.048100274 0.00095069544)
(-0.089379248 0.047828761 -0.00069868411)
(-0.088658423 0.047614283 -0.002233315)
(-0.087571941 0.047346571 -0.00393245)
(-0.10176968 0.052191836 0.0061443521)
(-0.10251389 0.05175396 0.0044726992)
(-0.10302135 0.051371167 0.0028901206)
(-0.10299939 0.050984138 0.0012473646)
(-0.1027362 0.050692021 -0.00033724835)
(-0.10194556 0.050400114 -0.0018677275)
(-0.10093141 0.050160175 -0.0035354589)
(-0.11610824 0.055105517 0.0064584918)
(-0.11686275 0.054640785 0.0048199123)
(-0.11732479 0.054232387 0.003261675)
(-0.11738309 0.053885776 0.0016502369)
(-0.11705415 0.05354355 8.8122815e-05)
(-0.11633809 0.053276019 -0.0014373722)
(-0.11528322 0.052957853 -0.0030784247)
(-0.13133022 0.057837785 0.0067876048)
(-0.13201559 0.057323736 0.0051718427)
(-0.13251807 0.05690445 0.0036412755)
(-0.13247875 0.056457155 0.0020509098)
(-0.13220202 0.056112717 0.0005078766)
(-0.13143592 0.055761921 -0.00098086618)
(-0.13042362 0.055484522 -0.0025944861)
(-0.14740941 0.060403402 0.0071565758)
(-0.14813674 0.059902367 0.005576496)
(-0.14857062 0.059416385 0.0040659061)
(-0.14858532 0.059012598 0.0025024128)
(-0.14827369 0.058622126 0.00099010841)
(-0.14755655 0.058317011 -0.00048398879)
(-0.1465222 0.05795976 -0.0020900051)
(-0.16437116 0.062799559 0.0075443717)
(-0.16501565 0.062228677 0.0059875116)
(-0.16548834 0.061757712 0.0045011933)
(-0.16543605 0.061279777 0.0029608868)
(-0.16516124 0.060895924 0.0014757146)
(-0.16440051 0.060499535 1.7776184e-05)
(-0.16340826 0.060185833 -0.0015469266)
(-0.18214664 0.064999941 0.007945569)
(-0.18282544 0.064455558 0.0064254446)
(-0.18323557 0.063922157 0.0049639199)
(-0.18322273 0.063478948 0.0034526105)
(-0.1829109 0.063033664 0.0019944241)
(-0.18219348 0.062693441 0.00055931291)
(-0.18119134 0.062316061 -0.00098846453)
(-0.20077254 0.067027634 0.0083662604)
(-0.20138122 0.066420485 0.006872508)
(-0.20181845 0.065907762 0.0054382374)
(-0.20175332 0.065401758 0.0039540634)
(-0.20147424 0.064979931 0.0025202967)
(-0.20072898 0.064571163 0.001106862)
(-0.19975858 0.06421548 -0.00040453731)
(-0.22018602 0.068844525 0.0087898487)
(-0.22081628 0.068266744 0.0073291408)
(-0.22119498 0.067703273 0.0059256547)
(-0.22115944 0.067223083 0.0044677156)