/*--------------------------------*- C++ -*----------------------------------*\
  =========                 |
  \\      /  F ield         | OpenFOAM: The Open Source CFD Toolbox
   \\    /   O peration     | Website:  https://openfoam.org
    \\  /    A nd           | Version:  6
     \\/     M anipulation  |
\*---------------------------------------------------------------------------*/
FoamFile
{
    version     2.0;
    format      ascii;
    class       pointScalarField;
    location    "1.68";
    object      E;
}
// * * * * * * * * * * * * * * * * * * * * * * * * * * * * * * * * * * * * * //

dimensions      [1 -1 -2 0 0 0 0];

internalField   nonuniform List<scalar> 
625
(
23827.977
9481.2746
11248.324
9238.8723
15095.516
21848.434
10974.003
10872.893
5060.6887
-25.449393
5790.0696
12343.577
6294.0853
10331.35
26780.651
19892.986
15716.633
14228.877
7500.9126
7589.3027
3751.6854
1892.5323
1962.4533
-392.60077
-313.09501
-514.1953
279.96396
228.35539
1701.6124
2342.9717
3521.4036
4783.9124
6636.1263
7013.0377
10065.047
8600.2035
11306.421
22628.732
6789.2227
21381.481
15638.417
10957.026
17745.584
8265.8033
11540.766
11020.521
8059.4408
10567.001
9228.2091
10083.004
10049.724
10956.013
11280.704
12071.222
12615.253
13653.481
13258.2
15266.338
13386.033
14691.694
2525.6697
2461.792
9998.218
43361.635
51432.035
16818.531
29802.952
31050.833
13296.461
17389.414
15567.054
11652.587
14955.836
9799.9718
13668.005
12034.41
13272.516
14369.788
13952.177
15154.033
14713.916
14734.18
14008.422
13163.135
12062.368
12362.742
9968.4452
3562.3613
13125.068
13165.8
9489.1012
10152.054
8517.7389
7456.5083
6057.5022
4785.5435
3574.63
2636.2432
1875.8685
628.82953
1280.303
412.25551
1974.352
-335.12038
295.02421
3770.3876
4420.9535
5433.3489
2405.3672
13808.3
10670.152
21930.388
14855.138
13770.352
10787.332
9649.9346
11692.94
13281.554
8493.7458
10045.24
9005.3411
10092.354
11293.967
10625.516
13831.427
7849.3796
8013.8898
5729.1533
3133.7153
3572.4533
1281.682
1250.7208
536.09403
74.136696
1117.9174
747.45636
1371.3889
1737.7771
2535.0991
3025.1955
4283.9884
4806.5097
6247.6245
7110.8041
8971.4188
8147.469
13908.334
3831.0237
2044.5697
3475.5421
1446.8854
2934.1145
2957.4472
1271.9714
3223.031
1931.3372
3268.8065
2695.3311
3199.4912
3603.711
4116.366
4453.0667
5071.1385
5411.245
5723.1064
6760.525
6051.2507
7845.7616
6787.8123
14458.175
5680.6112
1977.5027
2348.5909
275.23163
1407.2663
-2764.4635
-275.9138
-2269.2046
-2886.0241
-1916.7508
-3336.4653
-2001.4062
-2514.5269
-1758.8783
-1692.1235
-623.51762
-112.21649
1543.6223
2181.3942
5324.8732
6138.9736
9777.4623
13722.231
2042.2278
2273.3212
685.64221
107.27647
273.6796
2285.9414
3240.55
4279.0044
5815.2902
26754.956
32796.137
36973.135
31092.143
29656.728
34942.04
18358.137
14642.048
25143.304
20796.619
23987.705
20657.231
22026.775
15442.47
26304.735
16308.572
18642.721
18233.942
17818.389
13540.566
17815.966
15174.194
9822.4536
16828.035
13128.027
13114.184
13038.521
15632.546
10054.377
15637.941
12474.396
11320.882
12567.895
14982.96
10725.626
13988.172
13440.645
11632.207
14438.66
15213.319
12126.837
14270.26
15061.2
12798.144
15645.82
15539.602
13548.692
15570.46
15929.427
14083.526
15877.324
15714.888
14346.578
15947.651
15680.402
14813.436
15653.693
14908.922
14529.674
14780.868
14205.7
14140.99
13925.764
12436.124
13174.455
12772.849
12375.323
12577.019
12159.349
12572.143
13462.692
12532.106
5239.7297
6206.85
3411.7753
12365.238
12809.118
11530.465
25006.887
21875.306
16043.616
20118.506
15101.944
13640.504
20635.978
15399.71
15482.312
12529.123
9441.2397
6743.6235
12985.525
9572.1702
9427.1008
9197.6898
3927.8599
7026.4474
6578.4767
5336.7094
5869.03
5640.0428
2084.049
4594.5066
3806.499
2870.7104
3085.6058
4116.6061
106.82419
5251.0821
2706.2723
1505.5834
3176.6316
4160.1869
466.44774
4424.2545
3328.4339
1524.7031
4351.7717
4721.7493
1689.2875
5066.2971
5301.0236
2787.8311
6070.5875
6020.9824
3593.0701
6701.614
7249.0933
4848.3664
7682.3597
7871.2054
5910.8562
8496.9388
9140.0801
7597.7431
9326.3882
9080.0783
8425.0009
9578.3577
11113.574
10784.73
10738.606
9785.8549
8967.2555
9146.4598
12274.404
11886.869
12184.427
10782.535
7127.6812
4299.9681
5446.4779
2714.4033
1632.8038
2552.9918
504.23258
571.57499
614.03687
359.42032
661.65313
608.11683
830.59956
1434.6202
2051.6016
2806.0149
4010.6622
5153.7936
6816.3986
9280.6702
9731.2416
16033.468
2653.1682
8350.6869
-341.76516
6441.1848
2654.5223
5800.8558
4268.5169
5302.7942
6111.1614
5964.1973
6313.4765
7825.5573
7225.1793
8823.1719
9319.7968
9932.7517
10888.985
11376.872
11983.217
12001.053
12877.309
9610.9122
18544.268
16106.639
4764.7757
9781.4404
66.8428
4485.524
1294.1116
-3395.8918
1079.7382
-5792.2136
-1601.363
-4800.2443
-3581.1857
-4012.4296
-3444.8533
-2843.4548
-1770.119
-484.15861
1125.9823
3299.2209
5847.902
8312.7065
11530.224
14286.253
14117.64
11185.303
9104.5251
11233.03
9677.0496
6874.576
9321.1904
6882.1159
5593.5487
6871.0991
5816.8364
4185.8042
6907.0289
3976.149
5024.507
4804.923
3766.9917
2562.0883
3962.0624
2194.6464
3272.6926
3504.816
2580.9137
2552.0134
3217.7877
429.27466
1758.6407
2898.1189
1902.0448
2855.8619
3266.1384
1389.5371
1732.1549
2671.5643
1224.552
2979.8169
3496.3931
1876.7149
2797.9787
3719.5799
2042.5631
3381.4038
4203.4827
2470.7385
3627.6076
4805.2234
3291.5287
4383.2334
5525.9266
3927.2525
4770.9396
6074.1184
5007.2103
5462.6285
7173.915
5886.0789
6397.5198
6743.3966
7897.1594
6640.8367
7628.828
10484.57
8171.8891
9454.9445
8298.07
7364.0741
13702.514
13922.394
14085.9
3087.0142
3143.9528
3177.9749
5713.3552
8562.3107
8606.5462
3002.5569
362.7617
1512.5711
3789.8698
5857.5526
6279.2961
4867.6441
2430.816
2475.3157
3730.4315
3326.2289
4334.3264
3783.5783
2977.8687
3282.7742
5222.1874
3301.2188
3066.1923
3547.7005
2968.9866
3612.739
5169.9356
4002.3501
3645.1503
5208.025
3365.2364
3957.1293
5680.7386
4297.2619
4666.2919
6365.9576
5023.3765
4882.0715
6572.0465
5199.341
5115.0906
7364.2217
6187.4174
6003.925
7627.0958
6448.3596
6075.9352
8235.0591
7251.8375
6746.4787
8464.5236
7453.8274
6982.1273
9230.4192
8483.6077
7721.3865
9455.889
7921.7545
7492.5942
12185.731
6803.7208
9882.0783
8553.0169
7788.5099
7008.7891
15213.894
15703.449
15891.379
9579.2023
11830.026
14130.995
1389.3585
1451.1366
5767.0869
3422.3051
9255.5072
10990.594
3362.9008
294.97806
3007.0724
426.75428
3093.5095
5137.6736
951.94217
-469.95542
2371.5546
1745.1529
-1065.8197
1458.9639
-1392.5748
-1658.8288
2165.5389
996.5292
-2781.3388
515.42412
-8.332853
-2703.1054
1069.2985
-239.19003
-3535.4405
732.4339
557.34714
-2924.6158
750.23413
392.27666
-3642.8791
1161.691
1245.1786
-2807.8629
1515.1337
1771.7215
-2748.1214
2129.8315
2635.8892
-1664.0257
3020.4505
3695.3312
-784.37118
4005.5961
4819.4773
950.34824
5264.823
6261.9948
2214.0746
6313.3533
7728.2736
5371.7195
8441.0509
9136.5781
6659.2364
8910.886
11288.689
11167.727
12951.239
14122.368
12780.506
13624.763
)
;

boundaryField
{
    free
    {
        type            zeroGradient;
    }
    fixed
    {
        type            zeroGradient;
    }
    freeTop
    {
        type            zeroGradient;
    }
}


// ************************************************************************* //
