/*--------------------------------*- C++ -*----------------------------------*\
  =========                 |
  \\      /  F ield         | OpenFOAM: The Open Source CFD Toolbox
   \\    /   O peration     | Website:  https://openfoam.org
    \\  /    A nd           | Version:  6
     \\/     M anipulation  |
\*---------------------------------------------------------------------------*/
FoamFile
{
    version     2.0;
    format      ascii;
    class       pointVectorField;
    location    "0.43";
    object      u;
}
// * * * * * * * * * * * * * * * * * * * * * * * * * * * * * * * * * * * * * //

dimensions      [0 1 0 0 0 0 0];

internalField   nonuniform List<vector> 
3969
(
(0 0 0)
(0 0 0)
(1.4345987 -0.020303048 0.0018828865)
(1.3710712 -0.37038858 0.00069723497)
(0 0 0)
(0 0 0)
(1.3722445 -0.37023468 0.00043241315)
(1.4357562 -0.020355351 0.0015317059)
(0 0 0)
(0 0 0)
(0 0 0)
(0 0 0)
(0 0 0)
(0 0 0)
(0 0 0)
(1.4262467 -0.06480784 0.0012942121)
(1.4179837 -0.10839197 0.0012562877)
(1.4099211 -0.15175191 0.0011559843)
(1.4020726 -0.19502097 0.0012508066)
(1.3943585 -0.2383597 0.0012456602)
(1.3866631 -0.28187987 0.0012751108)
(1.3790919 -0.32576462 0.0010736066)
(0.0028823021 0.0071128801 0.0077964364)
(0.0042992597 0.012470354 0.0098484693)
(0.00780712 0.018628743 0.011088384)
(0.013340781 0.024789188 0.01151937)
(0.020399176 0.031039414 0.011771657)
(0.029399123 0.037211376 0.01176361)
(0.039870338 0.043221065 0.0118161)
(0.052174033 0.049096623 0.01171287)
(0.065971263 0.0546835 0.011704976)
(0.08146413 0.060020495 0.011558025)
(0.098479115 0.065086643 0.01152617)
(0.11708619 0.069840999 0.011376201)
(0.13719415 0.074218912 0.01124308)
(0.15879739 0.078299765 0.011097408)
(0.18187615 0.081932051 0.01090169)
(0.20630215 0.085185807 0.010711791)
(0.23210174 0.088016926 0.010515509)
(0.25919329 0.090411542 0.010301573)
(0.28753133 0.092359525 0.01008559)
(0.31704477 0.093850486 0.0098650402)
(0.34768831 0.094880401 0.009649555)
(0.3793957 0.095461947 0.0094341638)
(0.41211565 0.095581653 0.009223551)
(0.44579707 0.095257624 0.009017295)
(0.48037588 0.094485371 0.0088112029)
(0.51582125 0.093311735 0.0086140926)
(0.55206859 0.091711239 0.0084200521)
(0.58910446 0.089710977 0.0082186676)
(0.62687449 0.087316043 0.008015662)
(0.66533712 0.084542453 0.0078093492)
(0.70446796 0.081396024 0.0075881876)
(0.74423289 0.07788992 0.0073548049)
(0.78458994 0.074021048 0.0071054341)
(0.82550924 0.069811023 0.0068352195)
(0.8669613 0.065261099 0.0065449555)
(0.90888515 0.060349802 0.0062458844)
(0.95127137 0.055183572 0.0059041609)
(0.9940323 0.049568393 0.0055782762)
(1.0371789 0.043841832 0.005191212)
(1.0806127 0.037580805 0.0048706012)
(1.1243371 0.031298084 0.0044449393)
(1.1682632 0.024536776 0.00411522)
(1.2123722 0.017600328 0.0037311927)
(1.2566167 0.010547991 0.0033350015)
(1.3009198 0.0029885994 0.0030592239)
(1.3453002 -0.0044108066 0.0026798342)
(1.389581 -0.012078444 0.0025160868)
(0.00017717467 -0.0066777878 -0.0089797744)
(0.0028685387 -0.011365106 -0.0093702)
(0.0054626693 -0.017027043 -0.011506426)
(0.0102913 -0.022674967 -0.011371727)
(0.01695563 -0.028905667 -0.011692782)
(0.02495823 -0.035044888 -0.011452354)
(0.034713133 -0.04144169 -0.0113734)
(0.045796636 -0.047786947 -0.011137937)
(0.058464825 -0.054344531 -0.010976497)
(0.072602532 -0.060921138 -0.010727593)
(0.088130441 -0.0676462 -0.010549873)
(0.10519237 -0.07446089 -0.010320253)
(0.12356451 -0.081384319 -0.01009639)
(0.14339847 -0.088403533 -0.0098101824)
(0.16456031 -0.095561743 -0.0095465734)
(0.18708663 -0.10278924 -0.0092206957)
(0.21093526 -0.11015717 -0.008893983)
(0.23600981 -0.11757045 -0.0085276638)
(0.26236064 -0.12513935 -0.0081396367)
(0.289845 -0.13273974 -0.0077396154)
(0.31847129 -0.14050117 -0.0073113517)
(0.34818633 -0.14827456 -0.0068972838)
(0.3789162 -0.15621729 -0.0064426791)
(0.41064507 -0.16420946 -0.0060221558)
(0.44327611 -0.17228139 -0.0056105499)
(0.4768156 -0.18044319 -0.0052101176)
(0.51115001 -0.18867047 -0.0048200069)
(0.54636604 -0.19703114 -0.004447303)
(0.5823496 -0.20544225 -0.0041147783)
(0.61907129 -0.21393925 -0.0037824149)
(0.6565211 -0.22252433 -0.0034762473)
(0.69464523 -0.23118366 -0.00317907)
(0.73343727 -0.23990475 -0.0028987989)
(0.77284995 -0.24869369 -0.0026287322)
(0.81287004 -0.25751734 -0.0023649473)
(0.85344657 -0.26638744 -0.0021130647)
(0.89456484 -0.27526479 -0.0018683728)
(0.93616862 -0.28414145 -0.0016129944)
(0.97824293 -0.29303527 -0.0013748245)
(1.0207278 -0.301871 -0.0011359043)
(1.0635943 -0.31069056 -0.00089762541)
(1.1067976 -0.31944998 -0.00066284929)
(1.1502853 -0.32811474 -0.00044263917)
(1.194035 -0.33673845 -0.00020924819)
(1.2379535 -0.34522311 -4.6364703e-06)
(1.2820914 -0.35361886 0.00017530711)
(1.3262954 -0.36200555 0.00039069317)
(0 0 0)
(0 0 0)
(0 0 0)
(0 0 0)
(0 0 0)
(0 0 0)
(0 0 0)
(0.0025617749 -0.0043647356 0.0069287458)
(0.0035929552 -0.013788006 0.0099296805)
(0.0056655793 -0.015765743 0.010454107)
(0.011148054 -0.023948005 0.011181588)
(0.017362597 -0.029121139 0.01140003)
(0.025687993 -0.035614242 0.011092166)
(0.035302344 -0.042069739 0.011282249)
(0.046570537 -0.048320937 0.01085807)
(0.059170193 -0.055066814 0.010994327)
(0.073317874 -0.061483544 0.010613976)
(0.088867508 -0.068528419 0.010802685)
(0.10582128 -0.074989893 0.01044615)
(0.12437126 -0.082122086 0.010332296)
(0.14422546 -0.089068758 0.010084463)
(0.16545201 -0.09621642 0.009847653)
(0.1880377 -0.10350953 0.0096060651)
(0.21189533 -0.11083866 0.0093321914)
(0.23702263 -0.11832926 0.0090668282)
(0.26335426 -0.12588799 0.0087934663)
(0.29085465 -0.13354539 0.0085211843)
(0.31946996 -0.14128691 0.0082615846)
(0.34915157 -0.14911035 0.008012603)
(0.37986268 -0.15700651 0.0077706719)
(0.41153536 -0.16496558 0.0075460233)
(0.44417505 -0.17304912 0.0073025273)
(0.47776247 -0.18117227 0.0070385862)
(0.51206569 -0.18944319 0.0068739807)
(0.54723445 -0.19771172 0.0066680495)
(0.58318989 -0.20608849 0.0064797131)
(0.61990968 -0.21452811 0.0062686806)
(0.65735327 -0.22304283 0.0060436831)
(0.69549506 -0.23163455 0.0058084349)
(0.73430151 -0.24029026 0.0055522203)
(0.77374815 -0.24900504 0.0052762979)
(0.81379218 -0.25776743 0.0049809073)
(0.85442178 -0.2665985 0.0046682885)
(0.89556656 -0.27536099 0.0043326023)
(0.93720327 -0.2842664 0.0039957239)
(0.97930866 -0.29307904 0.0036383296)
(1.0218253 -0.30190456 0.0032804773)
(1.0647117 -0.31068651 0.0029130795)
(1.1079408 -0.31942478 0.0025529385)
(1.1514382 -0.32808192 0.0021938169)
(1.1951992 -0.33667779 0.0018444224)
(1.239135 -0.34515547 0.0015034268)
(1.2832697 -0.35355123 0.0011961313)
(1.3274126 -0.36193909 0.00086667085)
(1.3803598 -0.32566447 0.00033600834)
(1.3878663 -0.28182574 0.00043372166)
(1.3955515 -0.23827402 0.00069524746)
(1.403278 -0.19503799 0.00096160057)
(1.4110606 -0.15172267 0.0013560338)
(1.4190952 -0.10840553 0.0015528553)
(1.427461 -0.064879388 0.0017545389)
(1.3909264 -0.012158272 0.0010635582)
(1.3464033 -0.0045432151 0.00093016036)
(1.3020731 0.0030304014 0.00068976049)
(1.2577644 0.0104051 0.00049802664)
(1.213527 0.017565999 0.00025262188)
(1.1694193 0.02448318 6.8237204e-06)
(1.1254883 0.031141509 -0.00023514332)
(1.0817676 0.037525023 -0.00048582778)
(1.0383177 0.043618826 -0.0007375971)
(0.99517538 0.049422182 -0.00098778163)
(0.95236046 0.054897906 -0.0012436155)
(0.91003931 0.060005983 -0.0014714857)
(0.86804279 0.064868355 -0.0017456719)
(0.82658678 0.069333014 -0.001998411)
(0.78563992 0.073479059 -0.0022690905)
(0.74526076 0.077261261 -0.0025389127)
(0.70547244 0.080698123 -0.0028200286)
(0.66632126 0.083768121 -0.0031156102)
(0.62783265 0.086478942 -0.0034208723)
(0.59005003 0.088807221 -0.0037431605)
(0.55300085 0.090769515 -0.0040852122)
(0.51673372 0.092324201 -0.004436629)
(0.48127889 0.093495196 -0.0048076514)
(0.44667551 0.094244131 -0.0051945877)
(0.41298548 0.09457575 -0.0055926379)
(0.38025031 0.094473073 -0.0059939905)
(0.34852266 0.093930262 -0.0064030409)
(0.31786386 0.092938598 -0.0068027854)
(0.28832975 0.09149433 -0.0071980015)
(0.25997352 0.089598198 -0.0075791293)
(0.23286279 0.087258779 -0.0079472881)
(0.20703347 0.084488416 -0.0082963756)
(0.18253667 0.081317254 -0.0086216656)
(0.15955307 0.07756866 -0.0088533563)
(0.13798682 0.073568771 -0.0092183605)
(0.1177686 0.069238215 -0.0093692924)
(0.099208845 0.064496114 -0.0096809504)
(0.082080188 0.059442845 -0.009877482)
(0.066540992 0.054199021 -0.010172634)
(0.052724894 0.048457272 -0.01030904)
(0.040500994 0.042731388 -0.010520553)
(0.029695573 0.03673432 -0.010703942)
(0.020920571 0.030543314 -0.010824583)
(0.013591787 0.024332752 -0.010683725)
(0.0082934785 0.018357591 -0.010286247)
(0.0046177825 0.011739617 -0.0091762668)
(0.0052919047 0.0068108376 -0.0056964751)
(0 0 0)
(0 0 0)
(0 0 0)
(0 0 0)
(0 0 0)
(0 0 0)
(0 0 0)
(0 0 0)
(0 0 0)
(0 0 0)
(0 0 0)
(0 0 0)
(0 0 0)
(0 0 0)
(1.3712289 -0.37062655 0.00059708273)
(1.3714213 -0.3707341 0.00055925015)
(1.3715895 -0.3707581 0.00055285185)
(1.3717474 -0.37078964 0.00056515092)
(1.3718986 -0.37077323 0.00058149364)
(1.3720255 -0.37068893 0.00058812121)
(1.3721536 -0.37063614 0.00049231295)
(1.4350475 -0.020028273 0.0018636688)
(1.4352469 -0.020014631 0.0018681058)
(1.4354262 -0.01997939 0.0017733487)
(1.4355948 -0.019971787 0.0017010773)
(1.4357286 -0.019978411 0.0016195578)
(1.4358158 -0.020044331 0.0015522446)
(1.4359687 -0.020045744 0.0015463842)
(0.00051404048 0.0056056453 0.0071020108)
(0.0020885404 0.0096275541 0.0073298203)
(0.0053039805 0.014501373 0.0084021731)
(0.010620772 0.019092044 0.0087665606)
(0.017535972 0.02369615 0.0089036999)
(0.026454079 0.028360638 0.0090084925)
(0.036827608 0.032767754 0.0089474017)
(0.048969909 0.037143105 0.0090141573)
(0.062708831 0.041153446 0.0088850114)
(0.078053617 0.045047321 0.0088996136)
(0.094928966 0.048615663 0.008804021)
(0.11334975 0.051877911 0.0087265156)
(0.13331666 0.054896371 0.0086223447)
(0.15471706 0.05752705 0.0085091249)
(0.17759395 0.059807682 0.0083934237)
(0.20185264 0.061737772 0.0082483244)
(0.22745746 0.063286767 0.008115653)
(0.25435004 0.064424367 0.0079732059)
(0.28249034 0.065172807 0.007826563)
(0.31181536 0.065505385 0.0076799484)
(0.34226703 0.065433552 0.0075389641)
(0.37378574 0.064949507 0.0073954236)
(0.40632199 0.064063055 0.0072641757)
(0.43980589 0.062774924 0.0071307074)
(0.47421612 0.061106726 0.0070104573)
(0.50948576 0.059035823 0.0068729648)
(0.5455621 0.056605616 0.0067483991)
(0.58242681 0.053813687 0.0066178622)
(0.62002819 0.050654791 0.0064848669)
(0.65832721 0.047160614 0.0063399751)
(0.69730208 0.043326543 0.0061859011)
(0.73691351 0.03915765 0.0060174487)
(0.77712374 0.034667962 0.00583429)
(0.81791253 0.02986872 0.0056298981)
(0.85923108 0.024745287 0.0054148632)
(0.9010352 0.019343872 0.0051740095)
(0.94332214 0.013644614 0.0049142561)
(0.98598924 0.0076502714 0.0046601303)
(1.0290645 0.0014324675 0.0043648774)
(1.0724448 -0.005104947 0.0040979629)
(1.1161048 -0.011778659 0.0037737301)
(1.1600109 -0.018845124 0.0035232506)
(1.2041156 -0.025911798 0.0031571899)
(1.2483389 -0.033340415 0.002917222)
(1.2926957 -0.040930777 0.0025989219)
(1.3370302 -0.048493554 0.0022888053)
(1.3814396 -0.056641775 0.0019523179)
(-0.0016009187 0.0037503983 0.0049044908)
(-7.2557737e-05 0.005995699 0.0048667139)
(0.003383062 0.010009915 0.0057208461)
(0.0085260361 0.012868161 0.0058733857)
(0.015582382 0.016209864 0.0060535477)
(0.024177991 0.019304868 0.0060197643)
(0.034475702 0.0222894 0.0061722025)
(0.046531447 0.025101058 0.0060327175)
(0.06007486 0.027673058 0.0061536436)
(0.075251135 0.030102842 0.0060799838)
(0.091974166 0.032157571 0.0060883298)
(0.11024342 0.034076514 0.0060360417)
(0.13000256 0.035618597 0.006013179)
(0.15126792 0.036886504 0.0059806127)
(0.17395721 0.037819922 0.0059225058)
(0.1980152 0.038460729 0.0058508371)
(0.22341421 0.03874373 0.0057763932)
(0.25010169 0.038677798 0.0057058093)
(0.27803799 0.038248 0.0056281577)
(0.30716388 0.037452471 0.0055597197)
(0.33741958 0.036284732 0.005485785)
(0.36875184 0.034757553 0.0054191938)
(0.40107598 0.032864809 0.0053543123)
(0.43438931 0.03063175 0.0052957121)
(0.46859685 0.02802715 0.0052259697)
(0.50366524 0.02510309 0.0051827348)
(0.53955685 0.021832676 0.0051235152)
(0.57623632 0.01823075 0.0050548623)
(0.61364447 0.014325535 0.0049918899)
(0.65177507 0.010100638 0.0049097216)
(0.69057872 0.0055763981 0.0048172327)
(0.73002522 0.00075247256 0.0047177051)
(0.77008489 -0.004353237 0.0045931052)
(0.81072736 -0.0097444725 0.0044610115)
(0.85190079 -0.015403986 0.0043107196)
(0.89359809 -0.021322559 0.0041415814)
(0.93575749 -0.027486509 0.003964064)
(0.97831274 -0.033934275 0.0037831297)
(1.0213235 -0.04050133 0.0035464316)
(1.0645722 -0.047441957 0.0033773155)
(1.1082359 -0.054408556 0.0031142816)
(1.1520478 -0.061719758 0.0029287596)
(1.1961522 -0.069055512 0.0026648328)
(1.240322 -0.076691348 0.0024872496)
(1.2846737 -0.084389148 0.0022219656)
(1.3290438 -0.092281683 0.0019673793)
(1.3735956 -0.10040414 0.0016538498)
(-0.0032433327 0.0020886558 0.0029922677)
(-0.0015395712 0.0034728589 0.0029129006)
(0.0015809878 0.0054962008 0.0031769018)
(0.0069753555 0.0072314587 0.003280035)
(0.013737806 0.0089221887 0.0032473657)
(0.022513849 0.010633054 0.0033696004)
(0.032820762 0.011940742 0.0031897248)
(0.044720164 0.013305048 0.0033526673)
(0.05821588 0.01433281 0.0032998317)
(0.07330359 0.015206604 0.0033126365)
(0.089857692 0.015899922 0.0033309126)
(0.1079357 0.016301676 0.0033309838)
(0.12750324 0.016493403 0.0033410064)
(0.14851672 0.01637814 0.0033458191)
(0.17096293 0.016040496 0.0033670549)
(0.19481098 0.015373508 0.0033380611)
(0.2199924 0.014412178 0.003339431)
(0.24647317 0.013127613 0.0033254879)
(0.27419528 0.011518153 0.0033294894)
(0.30308651 0.0095939413 0.0033337797)
(0.33309735 0.0073417868 0.003354416)
(0.36416188 0.0047647175 0.0033776703)
(0.39628397 0.0018828713 0.0034059152)
(0.42934769 -0.0013411596 0.0034228769)
(0.46332782 -0.0048505444 0.0034672733)
(0.49818516 -0.0086718995 0.0034776369)
(0.53388614 -0.012785092 0.0034826466)
(0.57035801 -0.017187554 0.0034981419)
(0.6075869 -0.021861884 0.0034922526)
(0.64553143 -0.026819925 0.0034748805)
(0.68414979 -0.032031377 0.0034541859)
(0.72342811 -0.037508085 0.0034119472)
(0.76332057 -0.043232503 0.0033584338)
(0.80380063 -0.049197931 0.0032911988)
(0.84483467 -0.055404741 0.0032078759)
(0.88639061 -0.061812402 0.0031032914)
(0.92840326 -0.068484781 0.0030066307)
(0.97090111 -0.075272245 0.0028584824)
(1.0137596 -0.082335109 0.0027397027)
(1.056979 -0.089540307 0.0026138695)
(1.1005281 -0.096836248 0.0024228062)
(1.1442866 -0.1044508 0.0023493133)
(1.1883394 -0.11199125 0.002113599)
(1.2324962 -0.11985799 0.0020356857)
(1.2769035 -0.12773236 0.0017898375)
(1.3212985 -0.13570833 0.0016365467)
(1.3657927 -0.14384166 0.0014402877)
(-0.0035924438 0.00041460568 0.00053352621)
(-0.0019410302 0.00040595962 -7.2243374e-05)
(0.001172469 0.0010848246 8.5145493e-05)
(0.0062173587 0.0012400493 0.00014684243)
(0.013176263 0.0014074613 0.00025706408)
(0.021703043 0.0016015152 0.00019016227)
(0.031804073 0.001382169 0.00045491579)
(0.043554295 0.0012931954 0.00042464105)
(0.056850988 0.00078891048 0.00055618533)
(0.071688279 0.00029830147 0.00066830627)
(0.088038987 -0.00055482536 0.00071951706)
(0.10598068 -0.0015237206 0.00078077402)
(0.12533633 -0.0027613504 0.00079185963)
(0.14619168 -0.0042412078 0.00086893966)
(0.16844125 -0.0059317452 0.00087656065)
(0.19209689 -0.0078957591 0.00093980733)
(0.21705109 -0.010110366 0.00097941836)
(0.2433133 -0.012616268 0.0010485566)
(0.27078491 -0.015400704 0.0011186643)
(0.29945168 -0.018466503 0.0011969984)
(0.32925885 -0.021827037 0.0012721981)
(0.36018588 -0.025446681 0.0013533023)
(0.39205184 -0.029367496 0.0014310708)
(0.42490466 -0.033534921 0.0015337541)
(0.45867412 -0.037973067 0.0016008588)
(0.49332085 -0.042663424 0.0016810122)
(0.5287781 -0.047610239 0.001776508)
(0.56502808 -0.052806547 0.0018567816)
(0.60203422 -0.05823692 0.0019158355)
(0.63975772 -0.063909413 0.0019838642)
(0.67817449 -0.069796881 0.0020198808)
(0.71725222 -0.075918456 0.0020555312)
(0.75695187 -0.082244087 0.0020678889)
(0.79725725 -0.088779202 0.00207279)
(0.83811691 -0.095500556 0.0020545608)
(0.87950445 -0.10243341 0.0020428746)
(0.92139099 -0.10949584 0.001995269)
(0.96370935 -0.11676419 0.0019594083)
(1.0064332 -0.12418317 0.001925981)
(1.0495288 -0.13168384 0.0018325603)
(1.0929756 -0.1393843 0.0017961158)
(1.1366588 -0.14715962 0.0017221278)
(1.1806572 -0.15496702 0.0016148715)
(1.2247739 -0.16299839 0.0015999813)
(1.2691116 -0.17091521 0.00146187)
(1.3134596 -0.17900873 0.0014616641)
(1.3579909 -0.18710356 0.0013309697)
(-0.0038731679 -0.0013071168 -0.0017312326)
(-0.0019703376 -0.0020693324 -0.0023094901)
(0.00068242644 -0.0031946924 -0.0023631959)
(0.0059681304 -0.0044377291 -0.0024421707)
(0.01267657 -0.0057845041 -0.0025656541)
(0.021172449 -0.0072246573 -0.0023686181)
(0.031204992 -0.0088757286 -0.00240949)
(0.042903749 -0.010569304 -0.0023334229)
(0.056044115 -0.012519644 -0.0022309376)
(0.07081467 -0.014575517 -0.0021831459)
(0.087044321 -0.016855812 -0.0021522211)
(0.10474092 -0.019203898 -0.0020558611)
(0.12389863 -0.021882594 -0.0019400319)
(0.1445246 -0.024656649 -0.001842866)
(0.16652814 -0.027724292 -0.0017168153)
(0.18991517 -0.030978259 -0.0015790172)
(0.21464161 -0.034476103 -0.0014657344)
(0.24063978 -0.038196684 -0.0013185649)
(0.26788307 -0.04215887 -0.0011779846)
(0.29629268 -0.046355732 -0.001019019)
(0.3258593 -0.050776162 -0.00085876792)
(0.3564044 -0.055457011 -0.00065813405)
(0.38801706 -0.06034068 -0.00047734841)
(0.42060174 -0.065498402 -0.00030516051)
(0.45412639 -0.070856528 -0.00012543303)
(0.4885052 -0.076439744 5.7439112e-05)
(0.52374059 -0.082240407 0.00022067914)
(0.55976768 -0.088242663 0.00035889838)
(0.5965533 -0.094444961 0.00049760938)
(0.63406337 -0.10083729 0.00061346774)
(0.67227393 -0.10741949 0.00071861821)
(0.71114589 -0.11418684 0.00081234262)
(0.7506597 -0.12112939 0.00089018144)
(0.79077328 -0.12822625 0.00095036646)
(0.83145768 -0.13550988 0.0010145627)
(0.87268997 -0.1429013 0.0010425478)
(0.91440097 -0.15045621 0.0010797519)
(0.95660295 -0.15814782 0.0011121317)
(0.99919019 -0.16590264 0.0010915782)
(1.0422357 -0.17378496 0.0011220894)
(1.0855291 -0.18175747 0.0011292682)
(1.1291708 -0.1897484 0.0011191649)
(1.1730381 -0.19784974 0.0011282246)
(1.2171043 -0.20597587 0.0011475219)
(1.2613873 -0.21407025 0.0011123086)
(1.3057861 -0.22225524 0.0011519197)
(1.3502723 -0.23035449 0.001150849)
(-0.003202373 -0.0028855833 -0.0043157385)
(-0.00089509247 -0.0052196094 -0.0049042259)
(0.0017582882 -0.0078605179 -0.0055204596)
(0.0069246897 -0.010593312 -0.0057246207)
(0.013555023 -0.013512691 -0.0056486849)
(0.021880586 -0.016456529 -0.0056077663)
(0.031829123 -0.019690485 -0.0055084839)
(0.043311078 -0.022873373 -0.005341145)
(0.056321728 -0.026355659 -0.005227903)
(0.070859552 -0.029823689 -0.005046778)
(0.086865571 -0.033564095 -0.0049126503)
(0.10434519 -0.037405188 -0.0047576638)
(0.12329002 -0.041469331 -0.0046380672)
(0.14365169 -0.045667759 -0.0044610487)
(0.1654004 -0.050072095 -0.0043020685)
(0.18852778 -0.054631298 -0.0041169457)
(0.21297151 -0.059404392 -0.0039356194)
(0.23870177 -0.064338195 -0.0037149345)
(0.26565568 -0.069501436 -0.003500306)
(0.29378813 -0.07481991 -0.0032564624)
(0.32303429 -0.080394279 -0.0030174913)
(0.35341708 -0.086028957 -0.0027372258)
(0.38474486 -0.091960543 -0.002526056)
(0.41706658 -0.098135213 -0.002233804)
(0.45030687 -0.10441787 -0.0019941739)
(0.48441323 -0.11088855 -0.0017631576)
(0.51938794 -0.11749893 -0.0015361371)
(0.55514527 -0.12428066 -0.0013071734)
(0.59166933 -0.13121036 -0.0011091728)
(0.62893404 -0.13831093 -0.00091491879)
(0.66689646 -0.14555813 -0.00073963607)
(0.70553632 -0.1529526 -0.00057338496)
(0.74481949 -0.16047873 -0.00042835712)
(0.78471486 -0.16815415 -0.00028288748)
(0.82519535 -0.17591852 -0.0001677588)
(0.86621432 -0.18382424 -4.331872e-05)
(0.90775772 -0.19181054 6.4524049e-05)
(0.94975356 -0.19987034 0.00015890335)
(0.99220761 -0.20804289 0.00026667154)
(1.0350249 -0.21624052 0.0003570651)
(1.0782043 -0.22446453 0.00043953495)
(1.1217243 -0.23271994 0.00051294074)
(1.1654467 -0.24103805 0.00061840134)
(1.2094665 -0.24926806 0.00067178437)
(1.2536173 -0.25751782 0.00076853105)
(1.2979494 -0.26573247 0.00089711707)
(1.3423943 -0.2737931 0.0010347184)
(-0.0018631293 -0.0051916659 -0.0061846373)
(0.0003998928 -0.0082005204 -0.0071224765)
(0.0029129553 -0.012426609 -0.0081990169)
(0.0081294476 -0.016522713 -0.0083639661)
(0.01447889 -0.020874813 -0.0084812944)
(0.022860796 -0.025484254 -0.0083731516)
(0.032584613 -0.030163623 -0.0082887468)
(0.043950139 -0.034982747 -0.0081033882)
(0.05678288 -0.039946572 -0.0079874511)
(0.071095448 -0.044942818 -0.0077747358)
(0.086955541 -0.050205144 -0.0076220776)
(0.10417622 -0.055454219 -0.0074675266)
(0.1229126 -0.06097678 -0.007246032)
(0.14298884 -0.066553005 -0.007045088)
(0.16450721 -0.07230624 -0.0068136318)
(0.18734372 -0.078188288 -0.0065729053)
(0.21152691 -0.08422415 -0.0063024095)
(0.23696181 -0.090407326 -0.0060243933)
(0.26363386 -0.096738968 -0.0057200787)
(0.29147572 -0.10322406 -0.0054071468)
(0.32045519 -0.10983348 -0.0050840051)
(0.35046241 -0.1166214 -0.0047384558)
(0.38157896 -0.12352038 -0.0044129553)
(0.41359865 -0.13060595 -0.0040686305)
(0.44655884 -0.13778491 -0.0037644128)
(0.48038773 -0.14510869 -0.0034415073)
(0.51507501 -0.15255982 -0.0031185047)
(0.55057205 -0.16012295 -0.002837431)
(0.58684518 -0.16781803 -0.0025670819)
(0.62385407 -0.17563579 -0.0023078764)
(0.66157023 -0.18356223 -0.0020675831)
(0.69997164 -0.19159959 -0.0018401445)
(0.73901938 -0.19974279 -0.0016239467)
(0.77869306 -0.20796567 -0.0014250416)
(0.81895311 -0.21628268 -0.0012305423)
(0.85977415 -0.22466688 -0.0010447068)
(0.90110967 -0.23309808 -0.00087848957)
(0.94295003 -0.24159818 -0.00069374365)
(0.98521384 -0.25010725 -0.00054341826)
(1.0278882 -0.25864614 -0.00037863841)
(1.0709316 -0.26717016 -0.00022536276)
(1.1143042 -0.27570641 -6.273172e-05)
(1.1579257 -0.28420529 9.0717686e-05)
(1.2018279 -0.2926243 0.00021418247)
(1.2458459 -0.30105401 0.0004080476)
(1.2900992 -0.30932763 0.00052452599)
(1.3344162 -0.31747307 0.0007418871)
(0 0 0)
(0 0 0)
(0 0 0)
(0 0 0)
(0 0 0)
(0 0 0)
(0 0 0)
(0 0 0)
(0 0 0)
(0 0 0)
(0 0 0)
(0 0 0)
(0 0 0)
(0 0 0)
(0 0 0)
(0 0 0)
(0 0 0)
(0 0 0)
(0 0 0)
(0 0 0)
(0 0 0)
(0 0 0)
(0 0 0)
(0 0 0)
(0 0 0)
(0 0 0)
(0 0 0)
(0 0 0)
(0 0 0)
(0 0 0)
(0 0 0)
(0 0 0)
(0 0 0)
(0 0 0)
(0 0 0)
(0 0 0)
(0 0 0)
(0 0 0)
(0 0 0)
(0 0 0)
(0 0 0)
(0 0 0)
(0 0 0)
(0 0 0)
(0 0 0)
(0 0 0)
(0 0 0)
(0 0 0)
(0 0 0)
(0.0028049767 -0.0020369372 -0.0046883794)
(0.003545136 -0.0026228576 -0.0032232117)
(0.0043110968 -0.0027591388 -0.0016751285)
(0.0045936449 -0.0029190046 -0.00040605808)
(0.0044751595 -0.0026974903 0.00087166305)
(0.004220214 -0.0028141909 0.0022649861)
(0.0033667237 -0.0018337385 0.0037062191)
(0.0054926902 -0.010946977 -0.0076269808)
(0.0070590608 -0.012012255 -0.0043573759)
(0.0077458969 -0.011282904 -0.002008594)
(0.0078968024 -0.010925525 -0.00010321379)
(0.0079628179 -0.011533376 0.0018294516)
(0.0070516614 -0.011388875 0.0040862108)
(0.0060904444 -0.011326589 0.0069506837)
(0.0077796235 -0.015602959 -0.0083089605)
(0.0097292482 -0.014966941 -0.005904741)
(0.011027942 -0.015568438 -0.0027017215)
(0.011216734 -0.01553132 -0.00033428087)
(0.011073365 -0.015180185 0.0025216573)
(0.010056979 -0.015372004 0.0046379302)
(0.0086958748 -0.016023494 0.0082462639)
(0.013345161 -0.022943171 -0.0085335896)
(0.015095647 -0.023290728 -0.0059124747)
(0.016160185 -0.023041055 -0.0027828598)
(0.016579572 -0.022996236 -0.00028283441)
(0.016326961 -0.023073657 0.0025186272)
(0.015382712 -0.023434662 0.0055489717)
(0.013515121 -0.023019331 0.0082429909)
(0.019493338 -0.028978648 -0.0087792749)
(0.021474524 -0.028846994 -0.0061221465)
(0.022853139 -0.02906403 -0.0030252278)
(0.023167484 -0.028973561 -0.00014686938)
(0.023009093 -0.029076142 0.0027963036)
(0.021927903 -0.029106784 0.0054866318)
(0.020308097 -0.029303607 0.0087706192)
(0.027823141 -0.035577105 -0.0085918377)
(0.029545952 -0.035552144 -0.0059496221)
(0.030762672 -0.03548929 -0.0028848755)
(0.031167579 -0.035654429 -0.00025922056)
(0.030883678 -0.035550459 0.0028328246)
(0.029827481 -0.035587824 0.0057070922)
(0.028050482 -0.035520914 0.0084550332)
(0.037293278 -0.041740703 -0.0085474618)
(0.03916887 -0.041904624 -0.0058071224)
(0.040449076 -0.042172957 -0.0029072682)
(0.04084524 -0.04221067 -0.0001618463)
(0.040663313 -0.042323231 0.0028460987)
(0.039666089 -0.042551875 0.0055283755)
(0.037966584 -0.042337724 0.0086535707)
(0.048499235 -0.048379426 -0.0083505638)
(0.050284484 -0.04856276 -0.0057502061)
(0.051472917 -0.04860878 -0.0027612344)
(0.051907291 -0.048726488 -2.8564687e-05)
(0.051561799 -0.048630959 0.002776942)
(0.050631275 -0.048562485 0.005631207)
(0.048851968 -0.048434964 0.0082922159)
(0.061088668 -0.054841756 -0.0082329647)
(0.062869541 -0.055043177 -0.0054961402)
(0.064092609 -0.055371892 -0.0027570519)
(0.064466116 -0.05541251 -6.5622821e-05)
(0.064283746 -0.055614387 0.0027735483)
(0.06330417 -0.05553855 0.0054918629)
(0.061677156 -0.055448245 0.0084401678)
(0.075161763 -0.06152779 -0.0080326461)
(0.076920183 -0.061791925 -0.005453447)
(0.078065222 -0.061884813 -0.0026549976)
(0.078559582 -0.062174079 9.1286379e-05)
(0.078228014 -0.062077255 0.002823846)
(0.077312669 -0.061974471 0.0055168787)
(0.075634184 -0.061784143 0.008178639)
(0.090714137 -0.068245791 -0.0078716353)
(0.092427453 -0.068532141 -0.0052816641)
(0.0936112 -0.068846783 -0.0024901745)
(0.0939486 -0.068861039 1.0373749e-05)
(0.093800158 -0.06896162 0.0027929785)
(0.092825795 -0.068898939 0.0053270344)
(0.09124472 -0.068835711 0.0082627165)
(0.10768269 -0.075064312 -0.0077357379)
(0.10939664 -0.075414207 -0.0050599526)
(0.11044372 -0.075640055 -0.0025485537)
(0.11095142 -0.075849411 0.0001520567)
(0.11067108 -0.075852479 0.0028286718)
(0.10967846 -0.075706925 0.0053311761)
(0.10826182 -0.075534084 0.0080933335)
(0.12609538 -0.082081817 -0.0074986497)
(0.12766413 -0.082357659 -0.0049547888)
(0.12881966 -0.082706229 -0.0024162081)
(0.12920812 -0.082754737 0.0001566901)
(0.12897761 -0.082800206 0.0027665152)
(0.12808286 -0.082793439 0.0051828953)
(0.12660553 -0.082504997 0.0079132334)
(0.14580974 -0.089093313 -0.0073307425)
(0.14738698 -0.089451012 -0.0047984473)
(0.14854667 -0.089756846 -0.0023727898)
(0.14888523 -0.089865464 0.0001805896)
(0.14875864 -0.089989496 0.0027275624)
(0.1478088 -0.08981236 0.0050824203)
(0.14647445 -0.089600941 0.007792044)
(0.16693767 -0.096322499 -0.0071117948)
(0.16850447 -0.096663912 -0.0046312023)
(0.16957201 -0.096944063 -0.0022892281)
(0.16998207 -0.097093563 0.00024341778)
(0.16978763 -0.097100325 0.0026438589)
(0.16894248 -0.096999119 0.0050086705)
(0.16759544 -0.096734477 0.0075840273)
(0.18940977 -0.10356501 -0.0068622978)
(0.19088179 -0.1039048 -0.0044768136)
(0.19200324 -0.10425187 -0.0021784269)
(0.19234598 -0.10435328 0.0002203343)
(0.1922242 -0.10443803 0.002627463)
(0.19137888 -0.10430243 0.0048652138)
(0.19010323 -0.10404734 0.0074117526)
(0.21313936 -0.11093906 -0.0066153105)
(0.21462677 -0.1113311 -0.0042763312)
(0.21567435 -0.11162613 -0.002089235)
(0.21603218 -0.11175238 0.00029821672)
(0.21590973 -0.11181277 0.0025639656)
(0.21511112 -0.11166868 0.0047686052)
(0.21387962 -0.11141403 0.0072189319)
(0.23818145 -0.11841003 -0.0063146449)
(0.23958041 -0.1187773 -0.0040997211)
(0.24063414 -0.11910727 -0.0019404768)
(0.24096434 -0.11923866 0.00032065726)
(0.24087087 -0.11930082 0.0025253622)
(0.24009458 -0.11915773 0.0046609076)
(0.23891693 -0.11889883 0.0070175981)
(0.26440773 -0.12596399 -0.0060268246)
(0.26577776 -0.12635256 -0.0038636166)
(0.26678709 -0.12666801 -0.0018061977)
(0.26710592 -0.12679757 0.00038768324)
(0.26702646 -0.12685372 0.0025010779)
(0.26628187 -0.12671269 0.0045625928)
(0.265168 -0.1264736 0.0068189909)
(0.29181914 -0.13360722 -0.0056901164)
(0.29313424 -0.13398545 -0.0036332986)
(0.29411229 -0.13431616 -0.0016504417)
(0.29442007 -0.13445826 0.00045358842)
(0.29435738 -0.13451067 0.0024791095)
(0.29364468 -0.1343846 0.0044669214)
(0.29258269 -0.13412463 0.0066248436)
(0.32035955 -0.14133512 -0.0053633929)
(0.32162023 -0.14172649 -0.0033839761)
(0.32255657 -0.14205184 -0.0014814562)
(0.32285846 -0.1421804 0.00053588762)
(0.32280168 -0.14223959 0.0024728988)
(0.32212383 -0.14209776 0.0043819172)
(0.32111454 -0.14185251 0.0064431379)
(0.34997145 -0.14914678 -0.0050132379)
(0.35117695 -0.14953396 -0.0031241372)
(0.35208476 -0.14985056 -0.0012995473)
(0.35236888 -0.14999629 0.00061906699)
(0.35232603 -0.15003688 0.0024798092)
(0.35167344 -0.14991265 0.0043062535)
(0.35071778 -0.14966564 0.0062728912)
(0.38061238 -0.15704901 -0.0046561192)
(0.38177578 -0.1574267 -0.0028504441)
(0.38263263 -0.15774417 -0.0011241679)
(0.38291384 -0.15787624 0.00071774028)
(0.38286784 -0.15793413 0.002491156)
(0.38225736 -0.15780762 0.0042295711)
(0.38135004 -0.15755477 0.0061108924)
(0.41224611 -0.16501125 -0.0042944096)
(0.41335705 -0.16541384 -0.0025921726)
(0.41417236 -0.1656905 -0.00093978675)
(0.41443898 -0.16585703 0.00082072807)
(0.4144113 -0.16587634 0.0024977935)
(0.4138247 -0.16574421 0.0041744124)
(0.41295648 -0.16549494 0.0059638665)
(0.44478891 -0.1730775 -0.0039797081)
(0.44589602 -0.17345486 -0.0023220698)
(0.44662547 -0.17371349 -0.00076769695)
(0.44692835 -0.17389369 0.00092933395)
(0.44685868 -0.17389231 0.0025061838)
(0.44631656 -0.17381918 0.0041199153)
(0.44549532 -0.17357577 0.0057888184)
(0.47823768 -0.18121942 -0.0036424218)
(0.47930808 -0.18157012 -0.0020845541)
(0.47998101 -0.18185793 -0.00059651985)
(0.48028799 -0.18200364 0.001060576)
(0.48019202 -0.1820026 0.002491501)
(0.47974204 -0.18191662 0.0040418561)
(0.47896159 -0.18165509 0.0055871666)
(0.51254172 -0.18944454 -0.0033367722)
(0.51356533 -0.18978489 -0.0018885819)
(0.51422135 -0.1900734 -0.00038915064)
(0.51453608 -0.19020253 0.0010558463)
(0.51448356 -0.19020118 0.002546239)
(0.51401506 -0.19012346 0.0040192204)
(0.51323354 -0.18987153 0.0054933979)