/*--------------------------------*- C++ -*----------------------------------*\
  =========                 |
  \\      /  F ield         | OpenFOAM: The Open Source CFD Toolbox
   \\    /   O peration     | Website:  https://openfoam.org
    \\  /    A nd           | Version:  6
     \\/     M anipulation  |
\*---------------------------------------------------------------------------*/
FoamFile
{
    version     2.0;
    format      ascii;
    class       pointVectorField;
    location    "0.82";
    object      u;
}
// * * * * * * * * * * * * * * * * * * * * * * * * * * * * * * * * * * * * * //

dimensions      [0 1 0 0 0 0 0];

internalField   nonuniform List<vector> 
3969
(
(0 0 0)
(0 0 0)
(2.8330213 -0.46189893 0.022287209)
(2.6036782 -1.0983518 0.014954785)
(0 0 0)
(0 0 0)
(2.606653 -1.1061642 0.014357642)
(2.8358885 -0.46989348 0.021744235)
(0 0 0)
(0 0 0)
(0 0 0)
(0 0 0)
(0 0 0)
(0 0 0)
(0 0 0)
(2.8037837 -0.54197548 0.020983108)
(2.7748612 -0.62128633 0.020140893)
(2.7461984 -0.70047679 0.019277041)
(2.7177536 -0.77962408 0.018579282)
(2.6894148 -0.85887051 0.017812051)
(2.6610571 -0.93829627 0.017066463)
(2.6326596 -1.0180938 0.016091476)
(0.0069544759 0.015386902 0.016920032)
(0.01124514 0.027506425 0.020781977)
(0.01998525 0.040979046 0.023403699)
(0.033329298 0.053966919 0.024100246)
(0.050024687 0.067079707 0.024657494)
(0.071154645 0.07929379 0.024456758)
(0.095436474 0.090955964 0.024600176)
(0.12379533 0.10155898 0.02424977)
(0.15526578 0.11118639 0.024257691)
(0.19025262 0.1195801 0.023901501)
(0.22838078 0.12691219 0.023862555)
(0.26962656 0.13289147 0.023612413)
(0.31382787 0.13759132 0.023426503)
(0.36090053 0.14098322 0.023263793)
(0.41075152 0.14288829 0.023031725)
(0.46308975 0.14345237 0.022852223)
(0.51799285 0.14255081 0.022681826)
(0.57520238 0.14020244 0.022501882)
(0.63468431 0.13637227 0.022350272)
(0.69623188 0.1310715 0.022185518)
(0.75978184 0.1242769 0.022052508)
(0.82516428 0.11604621 0.021912281)
(0.89228052 0.10633421 0.021788797)
(0.9609984 0.095223411 0.021666977)
(1.0311674 0.082667053 0.021548845)
(1.1027237 0.068842525 0.021450956)
(1.1754873 0.053656627 0.021362554)
(1.2494008 0.037217954 0.021266335)
(1.3243408 0.019567261 0.021189533)
(1.400163 0.000767658 0.021122304)
(1.4768202 -0.019116436 0.021058898)
(1.5541908 -0.040031511 0.021011169)
(1.6321892 -0.061906177 0.020967761)
(1.7107337 -0.084673204 0.020936156)
(1.7897618 -0.10826951 0.020913053)
(1.8691497 -0.13265896 0.020912943)
(1.9489309 -0.1576517 0.020887505)
(2.0288708 -0.18343724 0.02093496)
(2.1091396 -0.20957568 0.020917058)
(2.1894286 -0.23645053 0.021019373)
(2.2699506 -0.26354534 0.021020989)
(2.3504192 -0.29116636 0.021161693)
(2.4309521 -0.31912257 0.021257665)
(2.5114763 -0.34714103 0.021390844)
(2.5918553 -0.37573126 0.021647698)
(2.6722523 -0.40410712 0.021850374)
(2.7524383 -0.43271793 0.022268256)
(-8.7863176e-05 -0.015694626 -0.020543708)
(0.0052166514 -0.02556804 -0.021822957)
(0.01081871 -0.037778914 -0.02687227)
(0.021115227 -0.050141657 -0.026208438)
(0.035423833 -0.063748 -0.026872854)
(0.052438393 -0.077602919 -0.026049988)
(0.07301147 -0.091774009 -0.025645174)
(0.096226742 -0.10644273 -0.024877402)
(0.12252437 -0.12137215 -0.024228761)
(0.15173908 -0.13703821 -0.023458061)
(0.18345702 -0.15281286 -0.022805588)
(0.21813866 -0.16947845 -0.022078935)
(0.25516966 -0.18647151 -0.021383998)
(0.29495594 -0.20413106 -0.020587819)
(0.33710913 -0.22247084 -0.019842164)
(0.38176292 -0.24135567 -0.019001053)
(0.42878225 -0.26104829 -0.018146442)
(0.47801667 -0.2812458 -0.01724215)
(0.52952588 -0.3022982 -0.016279212)
(0.58310333 -0.32389011 -0.015298248)
(0.63868984 -0.34628646 -0.014239676)
(0.6963046 -0.36923793 -0.013187509)
(0.75568721 -0.39295329 -0.012022054)
(0.81691838 -0.41727312 -0.010883504)
(0.87975473 -0.44213975 -0.0097218523)
(0.94424329 -0.46761259 -0.0085246937)
(1.0101267 -0.49354415 -0.0073062466)
(1.0775605 -0.52014064 -0.0060597631)
(1.1463214 -0.54712168 -0.0048612362)
(1.2163155 -0.57453313 -0.0036119522)
(1.2874929 -0.60236634 -0.0023951052)
(1.3597305 -0.63053995 -0.0011630756)
(1.4329876 -0.65902739 4.0775159e-05)
(1.5071534 -0.68778829 0.0012385332)
(1.5821753 -0.71676686 0.0024068305)
(1.6579582 -0.74595428 0.0035581424)
(1.7344521 -0.77525654 0.0046683009)
(1.8115636 -0.80467586 0.0057741223)
(1.8892341 -0.83419448 0.0068274769)
(1.9674152 -0.86370634 0.0078548399)
(2.0460045 -0.89325491 0.0088534462)
(2.1249763 -0.92277866 0.0098145553)
(2.204254 -0.95221567 0.010738025)
(2.2837887 -0.98161423 0.011636768)
(2.363498 -1.0108722 0.012488002)
(2.443404 -1.0400361 0.013289343)
(2.523338 -1.0691405 0.014095044)
(0 0 0)
(0 0 0)
(0 0 0)
(0 0 0)
(0 0 0)
(0 0 0)
(0 0 0)
(0.0056683163 -0.010269329 0.015749637)
(0.0073788414 -0.031365857 0.022598969)
(0.012088351 -0.035001131 0.023844877)
(0.023553238 -0.053243881 0.02496903)
(0.037530561 -0.064835337 0.025247366)
(0.054961815 -0.079101472 0.024112627)
(0.075780648 -0.094297289 0.024175676)
(0.099175356 -0.10814257 0.022931207)
(0.12569147 -0.12450289 0.02292195)
(0.15478564 -0.13921863 0.021779272)
(0.18661276 -0.15657356 0.022087313)
(0.22131994 -0.17230664 0.021063006)
(0.25862214 -0.19014424 0.02075481)
(0.29852622 -0.20799362 0.020185159)
(0.34080815 -0.22640522 0.019686391)
(0.38552159 -0.24585456 0.019248026)
(0.43258879 -0.2655552 0.018752957)
(0.48184456 -0.2862464 0.01832334)
(0.53333092 -0.30745266 0.017878688)
(0.58688301 -0.32940664 0.017448787)
(0.64246286 -0.35200571 0.017047227)
(0.69996442 -0.37527197 0.016660831)
(0.75934034 -0.3991637 0.016284582)
(0.82045648 -0.42362868 0.015933044)
(0.88329752 -0.44883525 0.015541409)
(0.94790149 -0.47452928 0.015080796)
(1.0136209 -0.50081535 0.01490607)
(1.080955 -0.52744006 0.014605645)
(1.1495836 -0.55459956 0.014398399)
(1.2195154 -0.58214179 0.014167939)
(1.2906112 -0.61005404 0.013955853)
(1.3628005 -0.63831277 0.013781348)
(1.4359996 -0.66686176 0.013622451)
(1.5101417 -0.69565549 0.013486609)
(1.5851321 -0.72466084 0.013368747)
(1.6608919 -0.75389352 0.013298313)
(1.7374147 -0.78314306 0.013205198)
(1.8144625 -0.81263229 0.013195988)
(1.8921615 -0.84209774 0.0131619)
(1.9703317 -0.87164111 0.013185425)
(2.0489302 -0.9011621 0.013216853)
(2.1279175 -0.93067882 0.013290491)
(2.2071901 -0.96011812 0.0133928)
(2.2867398 -0.98949769 0.013533199)
(2.3664582 -1.0187532 0.013710814)
(2.4463589 -1.047911 0.013951391)
(2.5262313 -1.0769975 0.014197013)
(2.6356905 -1.0259757 0.015070518)
(2.6640063 -0.94619223 0.015959246)
(2.6923815 -0.86677162 0.01700007)
(2.7206742 -0.78755514 0.018053387)
(2.7490865 -0.70842115 0.019206012)
(2.7777181 -0.62922563 0.020175787)
(2.8066982 -0.55000359 0.021144301)
(2.7554514 -0.44078414 0.020750279)
(2.6750535 -0.41213824 0.020031572)
(2.59474 -0.38360906 0.019203389)
(2.5143095 -0.35520207 0.018378111)
(2.4338026 -0.32702997 0.017473576)
(2.3532702 -0.29911144 0.016532028)
(2.2727445 -0.27153284 0.015563989)
(2.1922614 -0.24432038 0.014551043)
(2.111879 -0.21755579 0.013498887)
(2.0316592 -0.19125613 0.012418164)
(1.9515817 -0.16553542 0.011306521)
(1.8719084 -0.14056071 0.010195415)
(1.7924031 -0.11604055 0.0089913348)
(1.713376 -0.092406905 0.0078063915)
(1.634804 -0.069535874 0.0065707594)
(1.5567905 -0.047568144 0.005336894)
(1.479405 -0.026525022 0.0040838894)
(1.4027509 -0.0065055647 0.0028152647)
(1.3269112 0.012458072 0.0015525433)
(1.2519934 0.030267086 0.00028603638)
(1.1780996 0.046918674 -0.00098239432)
(1.1053356 0.062288307 -0.002224016)
(1.0338198 0.076400014 -0.0034604163)
(0.96363603 0.089155352 -0.004678536)
(0.89495137 0.10054141 -0.0058783792)
(0.82785091 0.11050875 -0.0070353218)
(0.7624747 0.11904967 -0.0081826328)
(0.69893851 0.12611589 -0.0092687839)
(0.6373823 0.13172088 -0.010341132)
(0.57790436 0.13583708 -0.011359602)
(0.52067117 0.13848617 -0.012354194)
(0.46573682 0.13969301 -0.013322579)
(0.41329978 0.139453 -0.014245296)
(0.36352551 0.1375749 -0.015025158)
(0.31650846 0.13444302 -0.015994475)
(0.27209259 0.13006502 -0.016666482)
(0.23089801 0.12423224 -0.017585603)
(0.19248423 0.11714806 -0.018277585)
(0.15743112 0.10905095 -0.019263987)
(0.12574071 0.099372905 -0.019800804)
(0.097537056 0.089162826 -0.020591879)
(0.072505169 0.077633711 -0.021181215)
(0.051715873 0.065633217 -0.021780362)
(0.034253496 0.052617678 -0.021704247)
(0.02147129 0.040172824 -0.021160774)
(0.011852274 0.025867683 -0.0192093)
(0.01215739 0.014710811 -0.01227501)
(0 0 0)
(0 0 0)
(0 0 0)
(0 0 0)
(0 0 0)
(0 0 0)
(0 0 0)
(0 0 0)
(0 0 0)
(0 0 0)
(0 0 0)
(0 0 0)
(0 0 0)
(0 0 0)
(2.603967 -1.0995707 0.014820295)
(2.604328 -1.1006944 0.014746983)
(2.6046945 -1.1017414 0.014688951)
(2.605061 -1.1027687 0.014661794)
(2.6054325 -1.1037424 0.014627245)
(2.6058178 -1.1046353 0.014591952)
(2.6061893 -1.1055453 0.014450562)
(2.8337226 -0.46274957 0.022243461)
(2.8341534 -0.46374015 0.02220752)
(2.8345717 -0.46470751 0.022103725)
(2.8349625 -0.46570018 0.022003305)
(2.8353065 -0.46669627 0.021906363)
(2.8355878 -0.4677299 0.021818638)
(2.8359264 -0.46873779 0.021791032)
(0.00013317956 0.0087638592 0.015161764)
(0.0028756313 0.015552351 0.015197296)
(0.0089681858 0.023491402 0.017735224)
(0.019727022 0.031152505 0.018496098)
(0.033983231 0.038601261 0.01881445)
(0.052838901 0.046196942 0.019119458)
(0.074829961 0.053029518 0.018980825)
(0.10095322 0.059758715 0.019199966)
(0.13050452 0.065513521 0.018887296)
(0.16369166 0.070815184 0.019009484)
(0.20024708 0.075219092 0.018844403)
(0.24017097 0.078768937 0.018713445)
(0.28343509 0.081500392 0.018634653)
(0.32980042 0.083117236 0.018487268)
(0.37926743 0.083704075 0.0184022)
(0.43167265 0.083156865 0.018275444)
(0.48693028 0.081412087 0.018172031)
(0.54480705 0.078396384 0.018084774)
(0.6052845 0.07409276 0.017983903)
(0.66811758 0.068427823 0.017899937)
(0.7332005 0.061393395 0.017832794)
(0.80032269 0.052956473 0.017762273)
(0.86936384 0.043109003 0.017721788)
(0.94007485 0.031853728 0.017683941)
(1.0123884 0.019203109 0.017685471)
(1.0860472 0.0051419141 0.017649918)
(1.1608981 -0.010246476 0.017668362)
(1.2368149 -0.026941969 0.017695815)
(1.3135975 -0.044936316 0.017738647)
(1.3911015 -0.064108302 0.017794117)
(1.4692109 -0.084446073 0.017871513)
(1.5477649 -0.10588315 0.017959505)
(1.6266586 -0.12833217 0.018065609)
(1.7057833 -0.15175183 0.018184578)
(1.7850401 -0.17605737 0.018317916)
(1.8643224 -0.20116477 0.018462384)
(1.9436154 -0.22703128 0.01860867)
(2.0227562 -0.25359026 0.018801197)
(2.1018326 -0.28070111 0.018958453)
(2.1806613 -0.3084249 0.019187662)
(2.25934 -0.33650581 0.019363354)
(2.3377272 -0.36514814 0.019641282)
(2.4159706 -0.39395801 0.019825833)
(2.4938745 -0.42315939 0.020148204)
(2.5716203 -0.45262898 0.020407638)
(2.6491018 -0.48203336 0.020697604)
(2.7263545 -0.51197447 0.020964799)
(-0.0050898607 0.0039656334 0.010470176)
(-0.003590791 0.0056568664 0.010077981)
(0.002077599 0.010805568 0.012291661)
(0.011468264 0.013856035 0.012372451)
(0.025108061 0.018008488 0.012992985)
(0.04217499 0.021683228 0.012866832)
(0.06311971 0.025182891 0.013356094)
(0.088050546 0.028372396 0.013002433)
(0.11632886 0.030968799 0.013410168)
(0.14835988 0.03328045 0.013304377)
(0.18387709 0.034761119 0.013339375)
(0.22285605 0.035800363 0.013373313)
(0.26519964 0.035948712 0.013404107)
(0.31087919 0.035295556 0.013422388)
(0.35975449 0.03374072 0.013444703)
(0.41168352 0.031259617 0.013397128)
(0.46652555 0.027732548 0.013406173)
(0.52419665 0.023089667 0.013404469)
(0.58454227 0.017253138 0.013410949)
(0.64740507 0.010172505 0.013446222)
(0.71260041 0.0017967162 0.013478623)
(0.77997541 -0.007879944 0.01352993)
(0.84925093 -0.018896581 0.013611071)
(0.92038431 -0.031229439 0.013709557)
(0.99305131 -0.044950516 0.013802491)
(1.0671161 -0.059931727 0.013979295)
(1.1423877 -0.076264299 0.014147509)
(1.2186882 -0.093868961 0.014321097)
(1.2958137 -0.11266643 0.014546192)
(1.3736383 -0.13266744 0.014764695)
(1.4519802 -0.15378689 0.015002908)
(1.5306874 -0.17597344 0.01526596)
(1.6096449 -0.19915741 0.015527311)
(1.6887212 -0.22328391 0.015809382)
(1.7678092 -0.24825795 0.016092403)
(1.8468209 -0.27405748 0.016393188)
(1.9257091 -0.30054533 0.016681023)
(2.0042973 -0.3277491 0.017017283)
(2.0827786 -0.35543942 0.017278042)
(2.1607648 -0.38378851 0.017648933)
(2.2386662 -0.41245564 0.017910152)
(2.3160372 -0.44162502 0.018283123)
(2.3932695 -0.4710355 0.018576118)
(2.4700313 -0.50077236 0.018954032)
(2.5466199 -0.53071866 0.019282596)
(2.6228628 -0.56079023 0.019606308)
(2.6990014 -0.59115663 0.019916754)
(-0.0082605897 0.0016063531 0.0063371626)
(-0.0056947576 0.0025498878 0.00592959)
(-0.00018063114 0.0045216092 0.0066228003)
(0.010421893 0.0062913201 0.0067100418)
(0.023961651 0.007789517 0.0067874025)
(0.042090427 0.0093359681 0.0070507839)
(0.063470436 0.0099530122 0.0067054663)
(0.088494873 0.01060157 0.0071436676)
(0.11692514 0.010368378 0.0071442457)
(0.14894179 0.0097364566 0.0071779857)
(0.18405773 0.0084817766 0.0073938667)
(0.22252643 0.0064209499 0.0074905365)
(0.26415714 0.0036872959 0.0076008982)
(0.30886936 4.5459174e-05 0.0077667587)
(0.35663537 -0.0044087614 0.0079612872)
(0.40728548 -0.0098761826 0.0080554199)
(0.46075509 -0.016359145 0.0082353704)
(0.51687555 -0.023929664 0.0083527389)
(0.5755548 -0.032649304 0.0085551478)
(0.63657203 -0.042500244 0.0087409902)
(0.69983672 -0.053543117 0.0089788959)
(0.76511981 -0.065794097 0.009233813)
(0.83244017 -0.079243569 0.0095108996)
(0.90143656 -0.093961304 0.0097753295)
(0.97204913 -0.10982565 0.010129346)
(1.0440994 -0.12690931 0.01042587)
(1.117461 -0.14515872 0.01073398)
(1.191895 -0.16450507 0.01110014)
(1.2673127 -0.1849347 0.011452437)
(1.3435287 -0.20640052 0.011813175)
(1.4204123 -0.22881463 0.012208578)
(1.4978442 -0.25216663 0.01259749)
(1.5756994 -0.27636205 0.0130014)
(1.6538674 -0.30135196 0.013411131)
(1.7322523 -0.32709127 0.013831268)
(1.8107807 -0.35346959 0.014240295)
(1.8893276 -0.38049803 0.014676173)
(1.9679384 -0.40801181 0.015078781)
(2.0464351 -0.43606366 0.015502705)
(2.1248254 -0.46451539 0.015958764)
(2.2031501 -0.49325485 0.016330303)
(2.2811682 -0.52245698 0.016857111)
(2.3592155 -0.55172314 0.017189537)
(2.4368822 -0.58135906 0.0177299)
(2.5145782 -0.61109605 0.01807428)
(2.5919706 -0.64089376 0.018536999)
(2.6692805 -0.67087355 0.018942056)
(-0.007599985 0.00075902675 0.00089307008)
(-0.0035332326 0.0012046535 -0.00071952468)
(0.0036113665 0.0027909803 -0.00029113618)
(0.015265449 0.0033606522 -0.00037905218)
(0.031091086 0.0034692351 -4.6252402e-05)
(0.050280374 0.0035581771 -0.00025847035)
(0.072895728 0.0021590513 0.00043458006)
(0.098869465 0.00085413541 0.00040823293)
(0.12808776 -0.0018985193 0.00073233628)
(0.16033305 -0.0049761083 0.0011240037)
(0.19559367 -0.0093447457 0.0013337914)
(0.23390472 -0.014413954 0.0015479169)
(0.27488464 -0.020476101 0.0017488152)
(0.31867913 -0.027665754 0.0020626657)
(0.36502194 -0.035680857 0.0022450349)
(0.41400351 -0.04490074 0.0025511774)
(0.46527948 -0.055076413 0.0028178172)
(0.51895566 -0.066444905 0.0031623849)
(0.57474858 -0.078880218 0.0035270276)
(0.6327096 -0.09243672 0.0039019986)
(0.69265449 -0.10712842 0.0042994459)
(0.75462555 -0.12287883 0.0047047488)
(0.8181947 -0.13972115 0.0051333587)
(0.88349931 -0.15756203 0.0056344986)
(0.95037616 -0.17642496 0.006078664)
(1.0187403 -0.19625096 0.0065714912)
(1.0884285 -0.21700288 0.0071355792)
(1.1593845 -0.23865204 0.0076898658)
(1.2315167 -0.26113584 0.0082366763)
(1.3047067 -0.28442087 0.0088310463)
(1.378894 -0.30843289 0.0093952687)
(1.4539667 -0.33315808 0.0099846925)
(1.5298453 -0.35849035 0.010555413)
(1.6064577 -0.38443006 0.011142021)
(1.6837153 -0.41086454 0.011701045)
(1.7615281 -0.43780702 0.01228635)
(1.8398884 -0.46511888 0.012825897)
(1.9186203 -0.49283672 0.01339494)
(1.9977355 -0.52085542 0.013956571)
(2.0771746 -0.54910215 0.014464962)
(2.1569045 -0.57764758 0.015013175)
(2.2367749 -0.60631473 0.015529996)
(2.3169284 -0.63509683 0.016010688)
(2.3970223 -0.66406095 0.016581353)
(2.4773695 -0.69297525 0.017022732)
(2.5575518 -0.72196313 0.017603823)
(2.6378839 -0.7509953 0.018066137)
(-0.0069778821 -0.00044261023 -0.0042077444)
(-0.00057752414 0.00069947707 -0.0057978566)
(0.0075112018 0.00075526624 -0.0060628317)
(0.021619918 0.00024478004 -0.0064888978)
(0.038579017 -0.0010867514 -0.006657471)
(0.059546282 -0.0030500413 -0.0063546047)
(0.083391938 -0.0063100696 -0.0062641496)
(0.11070859 -0.010015033 -0.0061829139)
(0.14054692 -0.015284182 -0.0057208898)
(0.17347401 -0.021180729 -0.0055645964)
(0.20887417 -0.028484822 -0.005340494)
(0.24683662 -0.036470568 -0.0049433833)
(0.28715269 -0.046012654 -0.0045173097)
(0.32986707 -0.056344704 -0.0041122434)
(0.37475787 -0.068026229 -0.0036460454)
(0.42178775 -0.080753776 -0.003120535)
(0.47090004 -0.094624084 -0.002647362)
(0.52195055 -0.10958714 -0.002090648)
(0.57494024 -0.12560807 -0.001543155)
(0.62972588 -0.14270044 -0.00094608298)
(0.68635639 -0.16074316 -0.00033798643)
(0.74451159 -0.17980674 0.00036537819)
(0.80442513 -0.19973669 0.0010496161)
(0.86591466 -0.22063837 0.0017298389)
(0.92903084 -0.24234933 0.0024406524)
(0.99360375 -0.26483693 0.0031873352)
(1.0596825 -0.28809281 0.0039197241)
(1.1271822 -0.31201421 0.0046205951)
(1.1960557 -0.33656306 0.0053536179)
(1.2662559 -0.36167616 0.0060638054)
(1.3377512 -0.38731738 0.0067784708)
(1.4104705 -0.41343525 0.0074919104)
(1.4843854 -0.43997277 0.0081959155)
(1.559431 -0.4668732 0.0088868348)
(1.6355305 -0.49411944 0.0095858324)
(1.7126766 -0.52161143 0.01024926)
(1.7907306 -0.54934998 0.010918327)
(1.8696779 -0.57730659 0.011590368)
(1.9494244 -0.60533862 0.012173073)
(2.0299693 -0.63353722 0.01283465)
(2.1110536 -0.66177638 0.013446837)
(2.1927524 -0.6900481 0.014071077)
(2.2748999 -0.71834579 0.014671904)
(2.3574064 -0.74663688 0.015311349)
(2.4403025 -0.774835 0.015864918)
(2.5233259 -0.80304437 0.016523607)
(2.6065657 -0.83112536 0.017109609)
(-0.0051270344 -0.0030935056 -0.010171739)
(0.0028837511 -0.0045064251 -0.01177737)
(0.011515535 -0.0068485942 -0.013370276)
(0.025891506 -0.0099321539 -0.013835986)
(0.043433786 -0.013939861 -0.013716045)
(0.064459541 -0.018675171 -0.013537176)
(0.088668974 -0.024755369 -0.013269855)
(0.11580088 -0.031395399 -0.012783534)
(0.14560963 -0.039543469 -0.012376439)
(0.17811923 -0.048280998 -0.011907641)
(0.21300119 -0.05850797 -0.011404829)
(0.25023743 -0.069615209 -0.010886421)
(0.28971 -0.082004473 -0.010428117)
(0.33132484 -0.095361358 -0.0098453477)
(0.37494626 -0.10990874 -0.0092761645)
(0.42059609 -0.12547721 -0.0086451153)
(0.46809438 -0.14216404 -0.0080358576)
(0.51748571 -0.15981009 -0.00732265)
(0.56859778 -0.17854514 -0.0066217998)
(0.62147081 -0.19814945 -0.0058524314)
(0.6759543 -0.21878068 -0.0050798863)
(0.73229168 -0.24008955 -0.0042115846)
(0.79000046 -0.26235231 -0.0034520162)
(0.84934927 -0.28552218 -0.0025312363)
(0.91027839 -0.30923911 -0.0016747846)
(0.97270981 -0.33364952 -0.00080438127)
(1.0367569 -0.35860997 8.7648564e-05)
(1.1022675 -0.38411772 0.0010069506)
(1.1692775 -0.41008085 0.0018985361)
(1.237757 -0.43652927 0.0028082794)
(1.3076628 -0.46334573 0.0037020294)
(1.3789805 -0.49051183 0.0046032918)
(1.4516718 -0.51795833 0.0054744874)
(1.5256732 -0.54568298 0.0063573622)
(1.6009753 -0.57355478 0.0071935754)
(1.6774743 -0.60163636 0.0080441901)
(1.7551469 -0.62980446 0.0088586124)
(1.8338911 -0.65803599 0.0096545957)
(1.9136593 -0.68637382 0.010451351)
(1.9943208 -0.71466253 0.011214262)
(2.0758479 -0.74291093 0.011956322)
(2.1581185 -0.7711368 0.012677192)
(2.2409687 -0.79932143 0.013408611)
(2.3244127 -0.82736884 0.014089588)
(2.4082387 -0.85531868 0.014787943)
(2.4923909 -0.88317246 0.015511466)
(2.5768099 -0.91081216 0.016227622)
(-0.0029521796 -0.0097591829 -0.014402737)
(0.0038464648 -0.013430625 -0.016835075)
(0.011178075 -0.020355604 -0.019405232)
(0.024748797 -0.027170948 -0.019840681)
(0.040617353 -0.035183246 -0.019925043)
(0.060755153 -0.044105508 -0.019648173)
(0.083425802 -0.053881784 -0.019257458)
(0.10928189 -0.064263388 -0.018718085)
(0.13775395 -0.075793481 -0.018259368)
(0.16890216 -0.087658173 -0.017624889)
(0.20265963 -0.10105708 -0.017052317)
(0.2386396 -0.11463569 -0.016542968)
(0.27715668 -0.12970005 -0.015793496)
(0.31771555 -0.14529307 -0.015181677)
(0.36061801 -0.161983 -0.014451246)
(0.40549179 -0.17947801 -0.013739501)
(0.45250081 -0.19791942 -0.012945693)
(0.5014021 -0.21722266 -0.01214315)
(0.55223474 -0.23739597 -0.011283126)
(0.60489315 -0.25839773 -0.010400981)
(0.65937735 -0.28018351 -0.0094803219)
(0.7154979 -0.30275713 -0.0085068287)
(0.77348929 -0.32605925 -0.0075412818)
(0.83297902 -0.3500998 -0.006514978)
(0.89412604 -0.37470031 -0.005540321)
(0.95680831 -0.39992924 -0.0044870216)
(1.0210617 -0.42569665 -0.0034146143)
(1.0868286 -0.45197007 -0.0023742362)
(1.1540541 -0.47871043 -0.0013282737)
(1.222679 -0.50588995 -0.00026560239)
(1.2926713 -0.53340591 0.00077664319)
(1.3639944 -0.56126735 0.0018220462)
(1.4365791 -0.58939487 0.0028509154)
(1.5103948 -0.61774969 0.0038645981)
(1.5853694 -0.64628703 0.0048600094)
(1.6614491 -0.6749783 0.0058416264)
(1.7385624 -0.70374097 0.0067846774)
(1.8166621 -0.73261514 0.0077374499)
(1.8956295 -0.7614668 0.008619772)
(1.9754134 -0.79033965 0.0095173077)
(2.0559396 -0.81914135 0.01036945)
(2.1371103 -0.84792278 0.011224293)
(2.2188134 -0.87658893 0.012038557)
(2.301019 -0.90513065 0.012821556)
(2.3835191 -0.93357421 0.013628547)
(2.4663758 -0.96184586 0.014372969)
(2.5493848 -0.98990678 0.015175614)
(0 0 0)
(0 0 0)
(0 0 0)
(0 0 0)
(0 0 0)
(0 0 0)
(0 0 0)
(0 0 0)
(0 0 0)
(0 0 0)
(0 0 0)
(0 0 0)
(0 0 0)
(0 0 0)
(0 0 0)
(0 0 0)
(0 0 0)
(0 0 0)
(0 0 0)
(0 0 0)
(0 0 0)
(0 0 0)
(0 0 0)
(0 0 0)
(0 0 0)
(0 0 0)
(0 0 0)
(0 0 0)
(0 0 0)
(0 0 0)
(0 0 0)
(0 0 0)
(0 0 0)
(0 0 0)
(0 0 0)
(0 0 0)
(0 0 0)
(0 0 0)
(0 0 0)
(0 0 0)
(0 0 0)
(0 0 0)
(0 0 0)
(0 0 0)
(0 0 0)
(0 0 0)
(0 0 0)
(0 0 0)
(0 0 0)
(0.0061120979 -0.0045010494 -0.010883623)
(0.0077877062 -0.0059438673 -0.0076177748)
(0.0095437108 -0.0063192095 -0.0040313991)
(0.010252383 -0.0066578154 -0.0011071338)
(0.0099645238 -0.0062045993 0.0018704558)
(0.0093533425 -0.0065284388 0.0050958027)
(0.0075825807 -0.0040937475 0.0084602079)
(0.01149971 -0.024268858 -0.018202395)
(0.015106843 -0.027259669 -0.010375836)
(0.016788982 -0.025650182 -0.0050051901)
(0.017218162 -0.024973038 -0.00050212037)
(0.01738596 -0.026411874 0.0039311067)
(0.015418662 -0.02600397 0.0091735747)
(0.013334277 -0.025690903 0.01583798)
(0.016606378 -0.034704886 -0.019701161)
(0.021371391 -0.033273401 -0.014097753)
(0.024389821 -0.034961921 -0.0066473637)
(0.024876146 -0.034949824 -0.0012089704)
(0.024696478 -0.034132921 0.0054949806)
(0.022359784 -0.03439623 0.010375627)
(0.019132946 -0.035909035 0.018960761)
(0.0280971 -0.05101987 -0.019937021)
(0.032023529 -0.052207798 -0.014118778)
(0.03465211 -0.051748999 -0.0068696775)
(0.035679925 -0.051820476 -0.0011989517)
(0.035258236 -0.051962136 0.00532322)
(0.033044476 -0.052850203 0.012272743)
(0.0290246 -0.051652114 0.018408042)
(0.041352753 -0.064738415 -0.020627243)
(0.04604038 -0.064796706 -0.01461152)
(0.049360932 -0.06562839 -0.0075529793)
(0.050194767 -0.065501305 -0.00092978956)
(0.049901971 -0.065868071 0.0057962301)
(0.047616152 -0.065652125 0.01193387)
(0.043973721 -0.066054729 0.019435613)
(0.058714832 -0.079278324 -0.019882815)
(0.062771007 -0.07971178 -0.014138792)
(0.065609445 -0.079754966 -0.0071476403)
(0.066625485 -0.080407786 -0.0013159444)
(0.066167687 -0.080095774 0.0057375712)
(0.063915837 -0.080324639 0.012189773)
(0.06010214 -0.079710872 0.018377748)
(0.078787031 -0.093465797 -0.019716941)
(0.083006133 -0.094243388 -0.013649855)
(0.085986987 -0.095417386 -0.0072372765)
(0.087033035 -0.095632341 -0.0011150677)
(0.08677562 -0.096097177 0.0056551957)
(0.084696765 -0.096429685 0.01159603)
(0.081208407 -0.095812327 0.01845131)
(0.10195214 -0.10844839 -0.019004395)
(0.1060637 -0.10962868 -0.013521399)
(0.10883461 -0.11005065 -0.006860307)
(0.109886 -0.11050678 -0.00091862839)
(0.10938705 -0.11036496 0.0053049353)
(0.10753473 -0.1100098 0.011616018)
(0.10387957 -0.10929241 0.017455874)
(0.12819309 -0.12368768 -0.018615307)
(0.13209191 -0.12461128 -0.012712611)
(0.13482634 -0.12579964 -0.0067558094)
(0.13580375 -0.12631346 -0.0009706941)
(0.13558913 -0.12692231 0.0052419033)
(0.13374463 -0.12666723 0.01114782)
(0.13046949 -0.12624092 0.017454066)
(0.15696451 -0.1390904 -0.017932383)
(0.16087324 -0.14059301 -0.012557644)
(0.16349406 -0.14136262 -0.0066363336)
(0.16471308 -0.14227116 -0.00061195035)
(0.16422434 -0.14199359 0.0052111009)
(0.16255103 -0.14164669 0.011036254)
(0.15927169 -0.14083829 0.016695643)
(0.18881903 -0.1553677 -0.017360196)
(0.19247977 -0.15669404 -0.012032025)
(0.19514858 -0.15790513 -0.0059864671)
(0.19601012 -0.15818115 -0.00076742559)
(0.19587855 -0.15868446 0.0051906172)
(0.19413594 -0.15848241 0.01057746)
(0.19104503 -0.15795832 0.016736861)
(0.22313662 -0.17175181 -0.016945095)
(0.22686428 -0.17335894 -0.011400903)
(0.2291805 -0.17446436 -0.0061802504)
(0.23036331 -0.17543692 -0.00051406738)
(0.23007118 -0.17556268 0.0051421932)
(0.22832901 -0.1749728 0.010406839)
(0.22571283 -0.17448902 0.016187761)
(0.26027613 -0.18918364 -0.016205553)
(0.26359132 -0.19058795 -0.01102988)
(0.26608583 -0.19199703 -0.0057020171)
(0.26711953 -0.19240159 -0.00036519887)
(0.26689924 -0.19265561 0.0050923434)
(0.2652868 -0.19261346 0.010204342)
(0.26262714 -0.19168868 0.015765993)
(0.29975339 -0.20671064 -0.015714836)
(0.30303058 -0.20838187 -0.01054164)
(0.30557612 -0.20977058 -0.0055515838)
(0.30641684 -0.21044998 -0.00029863698)
(0.30636358 -0.21102906 0.0050224718)
(0.30479293 -0.21048754 0.0098874718)
(0.30243967 -0.20989545 0.01545577)
(0.34175609 -0.22529117 -0.015069274)
(0.34503114 -0.22693885 -0.010021345)
(0.3473308 -0.22824741 -0.0052515858)
(0.34830867 -0.22900752 7.3230391e-07)
(0.34824167 -0.22923054 0.0049036313)
(0.34682448 -0.22895079 0.0098624793)
(0.34449679 -0.22821345 0.015066785)
(0.38628431 -0.24421727 -0.014390383)
(0.38933316 -0.24586293 -0.0095559114)
(0.39166391 -0.2474035 -0.004889984)
(0.39257803 -0.24812049 1.0970954e-05)
(0.39254742 -0.24860978 0.0049668008)
(0.39118346 -0.24831188 0.0095865957)
(0.38902858 -0.24760318 0.014748268)
(0.43300777 -0.26390665 -0.013714437)
(0.43604861 -0.26571356 -0.008970256)
(0.43825066 -0.26716821 -0.0045909918)
(0.43916729 -0.26790071 0.00033260663)
(0.43917788 -0.26836929 0.0049379347)
(0.4379366 -0.2680144 0.0095003225)
(0.43588326 -0.26738025 0.014452086)
(0.482139 -0.2842646 -0.012922305)
(0.48499592 -0.286044 -0.0084817006)
(0.48716933 -0.2875856 -0.004126599)
(0.48804187 -0.28841398 0.00049419828)
(0.48807657 -0.28888708 0.0049721933)
(0.4868932 -0.28863631 0.009381953)
(0.48496535 -0.28796461 0.014142018)
(0.53337869 -0.30529544 -0.012179485)
(0.53614338 -0.30710596 -0.0078321323)
(0.53824078 -0.30868467 -0.0037061682)
(0.53906588 -0.30946038 0.00077023491)
(0.53915227 -0.31000087 0.0050654722)
(0.5380491 -0.309729 0.0092983607)
(0.53624415 -0.30918655 0.013859293)
(0.58676098 -0.32696841 -0.011311423)
(0.58941544 -0.32881843 -0.0071979299)
(0.59140955 -0.33040502 -0.0032378952)
(0.59221687 -0.33129977 0.0010579942)
(0.59233143 -0.33182732 0.0051464881)
(0.59128168 -0.33166466 0.009231272)
(0.58962179 -0.33107069 0.013592636)
(0.64217854 -0.34935243 -0.010460786)
(0.64468704 -0.35119913 -0.0065222769)
(0.64660333 -0.35283659 -0.0027184319)
(0.64739942 -0.35368196 0.0013726322)
(0.64751946 -0.35427813 0.0052885258)
(0.64657277 -0.35409294 0.0091883557)
(0.645013 -0.35359967 0.013352163)
(0.69952743 -0.3723523 -0.0095417713)
(0.70192047 -0.37423328 -0.0057906497)
(0.70376221 -0.37584346 -0.0021734681)
(0.70450452 -0.37677946 0.0017118523)
(0.70467071 -0.3773596 0.0054496501)
(0.70375888 -0.37727101 0.0091667038)
(0.70233649 -0.37679945 0.013138089)
(0.75873262 -0.39603444 -0.0085780547)
(0.76101785 -0.397884 -0.0050268236)
(0.76274588 -0.3995263 -0.0016100712)
(0.76349385 -0.40045019 0.0020852995)
(0.7636345 -0.40111206 0.0056394671)
(0.76283034 -0.40105272 0.0091499947)
(0.76152569 -0.40062721 0.012936838)
(0.81974488 -0.42027381 -0.0075749603)
(0.82188615 -0.42219718 -0.0042487966)
(0.82354172 -0.4237666 -0.0010187381)
(0.82422376 -0.42479346 0.0024892129)
(0.82443803 -0.42540018 0.005820422)
(0.82369543 -0.42537359 0.0091766514)
(0.82248257 -0.42500086 0.012763144)
(0.88237646 -0.44513795 -0.0066245574)
(0.88449021 -0.44704936 -0.0034292336)
(0.88597971 -0.4485569 -0.00041839012)
(0.88672567 -0.44966018 0.0029342422)
(0.88686203 -0.4502406 0.0060369725)
(0.88616976 -0.45040568 0.0092286708)
(0.88506879 -0.45011594 0.012532433)
(0.94663134 -0.4705564 -0.0055912381)
(0.94866592 -0.47243082 -0.0026264964)
(0.95001153 -0.47398514 0.00021722399)
(0.95074629 -0.47505914 0.0034538757)
(0.95083868 -0.47563224 0.0061917697)
(0.95036547 -0.47588365 0.0092214093)
(0.9493995 -0.47560717 0.012226311)
(1.0124032 -0.4965017 -0.0045677523)
(1.0143259 -0.49837139 -0.0018822772)
(1.0155986 -0.49991646 0.0009780227)
(1.0163752 -0.50104814 0.0036855815)
(1.0165471 -0.5016914 0.0065623323)
(1.0160523 -0.50196375 0.0093778778)
(1.015077 -0.5017073 0.012237939)
(1.0797078 -0.52297402 -0.003531663)
(1.0813921 -0.52478485 -0.00096946763)
(1.0827022 -0.52638569 0.0016504552)
(1.0833314 -0.52740359 0.0041569658)
(1.0835616 -0.52811709 0.0069342801)
(1.0831188 -0.5283443 0.009407225)
(1.082245 -0.52831173 0.012166219)
(1.1482726 -0.54984789 -0.0025074089)
(1.1499041 -0.55171637 -5.4456253e-05)
(1.1510377 -0.55321561 0.0022596337)
(1.1517336 -0.55430101 0.0047467365)
(1.1518724 -0.5550383 0.007185511)
(1.1515362 -0.55537677 0.0095504553)
(1.1507343 -0.55535172 0.012121929)
(1.2181421 -0.57722582 -0.0014025049)
(1.2195963 -0.57898368 0.00079455121)
(1.2207269 -0.58052679 0.0030217577)
(1.2213307 -0.58159099 0.0052304858)
(1.2215111 -0.58239079 0.00753218)
(1.2212434 -0.58272293 0.0097010351)
(1.2205145 -0.58280637 0.012084015)
(1.2891344 -0.60493469 -0.00038010741)
(1.2905231 -0.60671421 0.001702525)
(1.2915505 -0.60819921 0.0036852948)
(1.2921423 -0.60928481 0.0057779757)
(1.2923361 -0.61007155 0.0078629192)