/*--------------------------------*- C++ -*----------------------------------*\
  =========                 |
  \\      /  F ield         | OpenFOAM: The Open Source CFD Toolbox
   \\    /   O peration     | Website:  https://openfoam.org
    \\  /    A nd           | Version:  6
     \\/     M anipulation  |
\*---------------------------------------------------------------------------*/
FoamFile
{
    version     2.0;
    format      ascii;
    class       pointScalarField;
    location    "1.85";
    object      p;
}
// * * * * * * * * * * * * * * * * * * * * * * * * * * * * * * * * * * * * * //

dimensions      [1 -1 -2 0 0 0 0];

internalField   nonuniform List<scalar> 
625
(
-76812.342
-19173.09
1888.1754
391.06369
-2067.5727
304887.58
-801.22446
482.84076
-67024.999
-59859.234
-31429.491
46.861527
-527.29038
-338.59834
-39952.269
-46221.044
-47821.519
-57086.528
-49868.085
-58915.954
-54079.517
-54785.542
-55386.404
-51443.501
-50367.424
-47783.161
-45582.164
-41754.44
-38675.938
-34363.084
-29280.744
-25485.607
-19143.657
-14504.784
-9750.6666
-4041.3347
-790.19944
11693.18
-7892.1866
8062.028
2040.7324
5689.4614
7108.006
7909.9805
8788.8721
10255.388
9795.5189
10875.393
9753.325
10109.776
8879.9278
7777.8786
6419.8362
4605.7959
3262.1158
1766.4266
581.91984
-87.023779
-467.8934
-1024.8841
29190.35
102851.56
94699.917
54670.187
75628.222
63095.903
65727.188
81041.935
69263.224
77533.585
79767.339
71499.55
78363.573
67996.242
71120.191
61109.013
58611.236
50958.263
45063.42
37340.157
31019.564
23779.169
17570.554
11793.116
6051.7197
1599.8764
142.36838
150.48146
-469.71813
480.45276
110.69773
1318.2987
567.87647
-499.52597
-450.73576
-2148.5559
-1422.2127
-3133.2205
-2103.6756
-2748.1967
-1425.3748
-2780.3972
4729.1348
-4244.6696
2813.4288
-59.866051
6131.9341
-106.73019
11972.033
5867.0515
3511.906
11813.423
-82277.295
-15628.696
7299.6903
39444.485
92505.29
91382.158
799.36699
-1023.7022
-571.01859
1789.763
1012.9153
893.3115
-25883.388
-34923.77
-38982.412
-36064.965
-39800.468
-41806.354
-39633.973
-41023.667
-41922.747
-40106.871
-41151.621
-38722.166
-37090.775
-33080.253
-30542.127
-25326.632
-21406.715
-16466.283
-11070.632
-7011.6265
-3347.0328
-852.51062
327.10315
-15146.099
-26194.834
-18603.992
-22766.964
-21012.483
-21203.625
-20268.011
-21440.907
-20841.594
-17863.39
-17409.26
-14818.16
-13271.811
-10929.421
-9438.5868
-7009.105
-5626.7272
-3518.286
-2284.1413
-648.15174
-147.10189
412.22344
16.46533
-2167.0584
-4526.9453
-3535.1575
-7343.6538
411.9773
-3701.8443
-1619.2932
-2436.6008
-1408.249
-817.68834
-2294.6432
-1690.7124
-2155.9265
-1759.3244
-1984.7494
-1471.2639
-1167.4037
-866.05113
-324.75931
-7.5975584
1280.1153
973.30782
649.44229
-37250.359
-3527.3803
-2482.1473
-21210.154
2721.4495
19266.186
-13903.528
5846.4034
58042.232
24511.171
42184.715
54286.635
16400.472
32273.058
45036.458
30583.304
43846.692
52613.594
17094.181
34429.695
48107.645
24841.48
44105.909
57401.693
25075.955
40795.637
53369.198
26376.316
42706.899
57978.878
27662.207
44507.898
58231.137
26886.412
42733.395
57002.653
26798.068
43486.002
56618.517
25615.767
39738.819
53173.953
23811.789
38614.526
50809.263
21643.087
34446.911
46006.595
18991.687
31134.076
40881.485
16277.109
26182.028
35761.735
13151.717
22555.999
30102.994
10496.052
17424.068
24021.146
7674.6031
13656.438
18766.379
5258.5489
9284.6315
13164.615
3282.6888
6109.2141
8984.8296
1121.8566
2899.5096
4827.2489
741.52804
1129.0992
2694.3276
64.744429
-487.01513
-147.43522
393.30402
-169.68615
-470.16626
255.7491
21.377649
-1739.5707
-1744.4353
-2021.3689
-2817.0093
-31244.442
-17021.955
-13027.785
-39274.582
-20799.329
-4628.5961
-47945.054
-22911.336
-8585.3138
-40214.524
-23748.002
-6873.9111
-46924.761
-27918.496
-6882.1523
-46943.787
-22391.955
-6865.4972
-44722.941
-25090.575
-10192.301
-46782.354
-24463.246
-8489.4766
-46803.306
-27117.522
-10139.525
-44990.387
-22564.422
-9953.6315
-44635.838
-24719.432
-11634.939
-43856.524
-22176.092
-12146.439
-39888.121
-22421.078
-12758.488
-37717.069
-20721.498
-12361.958
-33431.904
-20024.081
-12686.046
-29108.426
-17837.469
-11412.901
-24429.866
-16285.936
-10509.586
-19471.365
-13488.011
-8824.3381
-13906.768
-11250.729
-6879.2064
-9780.4608
-8848.3272
-5096.3423
-5530.7973
-5222.0314
-2813.6669
-2244.9916
-3110.7042
-1406.1362
277.33522
306.43012
-254.1338
23251.282
15334.038
15702.043
11492.812
11050.719
10005.073
10947.915
10484.292
10591.131
9690.3822
8201.7279
9819.0605
9095.2301
8522.2863
8683.8741
7504.826
7020.6108
6098.3348
4880.2486
4054.5347
2231.8697
1415.5633
1916.1706
45609.947
36670.838
31124.852
34132.821
27092.041
34303.193
28770.73
31894.33
28238.877
31715.3
26332.74
28116.859
23241.628
23676.588
19167.405
17632.705
14189.887
11513.999
8873.1479
5933.0373
3766.8395
2116.8819
946.86557
48082.654
53404.703
55332.3
57295.84
58573.074
61409.266
56737.704
59563.36
58571.543
56974.798
55266.11
52051.13
49995.53
45277.168
41035.814
36004.914
30531.181
24677.516
19256.548
13188.491
8802.9993
4561.4117
1378.0794
-27839.307
-6519.6614
12944.312
-32587.702
-7273.4345
9698.3135
-24222.176
-7298.6829
228.89603
-23600.705
-14028.921
10268.943
-34093.019
-7843.2925
6563.2947
-23358.245
-12655.641
3442.0797
-30357.083
-17127.792
4280.8126
-32703.361
-14521.755
3279.2045
-29132.619
-12179.686
2295.0593
-28802.695
-17411.414
800.37712
-28114.411
-15383.451
1971.8111
-24233.52
-13862.207
1413.5091
-22189.784
-13193.045
2170.3532
-19342.937
-11390.342
1713.8908
-15626.997
-9170.6399
3151.7249
-12195.049
-7364.5339
3406.0678
-9140.3944
-4919.8094
4130.3858
-5635.4688
-2920.8741
4519.1942
-2918.3207
-1091.5192
4780.6468
-1905.2477
546.41697
4513.0137
922.11533
1605.7457
5417.6906
1071.0865
2383.2558
2906.2716
1635.8737
1862.1926
3095.4793
-11939.118
16106.755
27477.761
-15247.336
6540.3703
13835.275
-12632.827
3766.4313
19742.225
-18714.636
4858.937
17450.078
-12632.986
2801.8522
18467.417
-14477.531
1018.6512
18188.147
-17906.573
-430.54361
20041.326
-15089.385
5396.935
20307.683
-12633.632
-239.47448
18544.268
-15542.168
2700.8113
19522.068
-12414.742
1979.5133
19749.728
-12511.454
2979.9063
18890.359
-9943.5661
1558.3845
18783.583
-9463.9279
3255.3919
18200.776
-6411.4565
2121.0462
17501.931
-5577.5165
2949.6481
16100.393
-3024.0737
2425.1305
14787.975
-1783.4694
2688.4036
13237.288
-228.90412
2493.0645
10435.673
-381.86019
2423.115
9843.1985
1834.1669
3497.5145
4938.4011
1542.3042
793.04303
3701.4925
789.09978
707.26438
1287.4273
16940.07
37710.787
62045.971
691.37422
15496.559
37865.907
3954.0346
25030.515
40995.573
12122.184
23335.797
42498.672
6398.4477
25057.841
42552.792
7518.5681
25140.08
44959.976
7913.5568
27662.937
45967.19
10012.289
26616.354
43585.287
8039.0831
26667.881
44699.296
9863.3339
27348.956
43608.801
9899.7951
27179.134
43039.287
10688.681
26443.671
40843.611
10248.818
26172.623
39583.229
10558.464
25072.007
37019.966
10103.469
23627.346
33763.823
10153.676
21403.7
30568.797
9061.1478
19063.602
26632.285
8587.7966
15925.273
22341.905
7064.0281
13104.758
18090.124
6680.3579
9456.0623
13315.704
3811.7988
7396.8429
8824.1001
2495.9973
3114.1756
4308.7462
1283.2655
2254.7651
3301.1709
)
;

boundaryField
{
    free
    {
        type            calculated;
    }
    fixed
    {
        type            calculated;
    }
    freeTop
    {
        type            calculated;
    }
}


// ************************************************************************* //
