/*--------------------------------*- C++ -*----------------------------------*\
  =========                 |
  \\      /  F ield         | OpenFOAM: The Open Source CFD Toolbox
   \\    /   O peration     | Website:  https://openfoam.org
    \\  /    A nd           | Version:  6
     \\/     M anipulation  |
\*---------------------------------------------------------------------------*/
FoamFile
{
    version     2.0;
    format      ascii;
    class       pointVectorField;
    location    "1.25";
    object      lm;
}
// * * * * * * * * * * * * * * * * * * * * * * * * * * * * * * * * * * * * * //

dimensions      [1 -2 -1 0 0 0 0];

internalField   nonuniform List<vector> 
625
(
(0 0 0)
(0 0 0)
(-5532.7152 1692.2458 84.598389)
(-4866.2672 2869.3726 -11.261362)
(0 0 0)
(0 0 0)
(-4731.8371 2810.9906 -12.664799)
(-5397.5038 1633.5664 82.664603)
(0 0 0)
(0 0 0)
(0 0 0)
(-5365.397 1985.4655 60.102508)
(-5200.3104 2279.4329 36.888608)
(-5034.5315 2575.0735 12.557164)
(-11.461028 -43.162298 -42.234136)
(-39.255613 -94.803922 -46.966413)
(-96.732296 -143.04117 -59.021527)
(-186.29241 -188.19957 -65.628019)
(-298.84391 -223.95135 -72.851067)
(-448.75122 -250.60479 -77.239573)
(-622.42091 -262.74536 -79.107232)
(-825.13324 -260.19989 -78.027724)
(-1054.5083 -241.09653 -73.836313)
(-1304.7936 -203.13455 -65.228426)
(-1575.506 -147.21431 -54.890913)
(-1862.2434 -72.397453 -41.669961)
(-2161.044 20.23054 -26.651672)
(-2468.8168 129.18557 -10.884734)
(-2781.9304 253.0291 5.1089969)
(-3097.4732 389.28513 20.468027)
(-3413.1086 536.56312 34.413227)
(-3726.8195 691.28848 46.988367)
(-4037.4241 852.88798 57.289217)
(-4344.1079 1018.4836 65.807212)
(-4646.8078 1186.3947 72.808716)
(-4945.659 1355.5411 77.562587)
(-5240.9377 1524.2815 81.708982)
(18.705211 22.682031 45.079356)
(-9.7514097 54.630663 26.864757)
(-53.834339 107.9472 29.748487)
(-119.06136 159.46339 20.158937)
(-204.87406 216.2706 12.861646)
(-320.96877 297.83614 4.3730272)
(-451.22626 375.06857 0.43895742)
(-609.28104 469.94334 -7.221303)
(-788.08454 576.40987 -10.134296)
(-987.90752 689.84759 -14.075377)
(-1207.0461 815.84719 -16.072438)
(-1443.7957 948.99742 -17.623546)
(-1695.4574 1090.4727 -18.106819)
(-1960.157 1238.0905 -18.334511)
(-2235.1571 1391.1839 -18.134237)
(-2518.2079 1548.3778 -17.96165)
(-2807.038 1708.9036 -17.735664)
(-3099.7929 1871.7255 -17.696808)
(-3394.5323 2036.2815 -17.644575)
(-3690.286 2202.0034 -17.567429)
(-3985.5849 2368.4013 -17.11786)
(-4280.4172 2535.1772 -16.152793)
(-4574.2295 2702.0563 -14.340998)
(0 0 0)
(0 0 0)
(0 0 0)
(1.2305492 21.202961 -34.954213)
(-8.6787101 98.506569 -57.567939)
(-52.606843 121.92248 -62.091827)
(-101.36877 177.25564 -70.285032)
(-189.785 255.55174 -85.17101)
(-293.66874 304.2235 -86.000601)
(-417.69401 389.59461 -94.122324)
(-571.3204 475.83901 -94.833373)
(-742.86899 572.3532 -95.047166)
(-936.13474 679.79969 -92.150277)
(-1149.6484 795.49216 -86.132283)
(-1378.5044 922.26784 -79.108578)
(-1623.7427 1056.5808 -70.37154)
(-1880.5412 1198.4013 -61.103932)
(-2147.7903 1347.2423 -52.077158)
(-2422.9493 1500.5501 -43.511428)
(-2703.821 1658.4455 -36.103086)
(-2989.0143 1819.1962 -29.984561)
(-3276.8956 1982.0712 -25.222768)
(-3566.5068 2146.488 -21.687112)
(-3857.2484 2311.6723 -19.094255)
(-4148.3478 2477.494 -17.022823)
(-4440.177 2643.5502 -15.042567)
(-4900.046 2517.7712 11.35844)
(-5066.1148 2220.4237 35.15668)
(-5230.039 1926.1721 59.112974)
(-5106.0714 1466.0492 78.991792)
(-4812.5898 1296.947 75.382835)
(-4516.6656 1128.3122 71.725815)
(-4218.5964 960.93864 67.507324)
(-3917.7139 796.1821 62.812515)
(-3614.2444 636.10048 57.356341)
(-3308.8783 482.917 51.225404)
(-3002.341 338.74331 44.52582)
(-2696.4539 206.2273 37.468472)
(-2393.2195 87.350753 30.379932)
(-2095.0071 -15.496867 23.629511)
(-1805.6551 -101.16313 17.767201)
(-1527.1777 -167.92341 12.776711)
(-1264.9496 -216.44411 9.8341281)
(-1019.7774 -246.78721 7.840025)
(-798.65984 -255.88733 7.3571407)
(-600.84963 -253.80731 10.256058)
(-428.93358 -236.03803 12.984725)
(-288.01921 -205.04662 18.002138)
(-172.73423 -165.8731 20.767267)
(-88.880937 -128.49401 31.269735)
(-29.92987 -77.613648 30.823101)
(-13.271772 -32.540057 26.928295)
(0 0 0)
(0 0 0)
(0 0 0)
(0 0 0)
(0 0 0)
(0 0 0)
(-4832.0781 2854.3468 -11.702114)
(-4798.2572 2840.0295 -11.684288)
(-4765.0049 2824.7827 -12.241373)
(-5499.4724 1678.2595 83.933221)
(-5465.3957 1663.7159 83.304727)
(-5431.5736 1649.2631 83.031957)
(11.240989 -29.718584 -34.310831)
(-16.964928 -62.918248 -31.221293)
(-71.994328 -89.219714 -41.203811)
(-152.65228 -109.31298 -45.869079)
(-260.52246 -122.43112 -53.659835)
(-401.15859 -122.6656 -57.492406)
(-564.15467 -110.60799 -60.272225)
(-756.85784 -85.306344 -60.987459)
(-973.11285 -43.109533 -58.044045)
(-1211.9026 15.053882 -52.747057)
(-1471.1182 89.129885 -45.342046)
(-1745.8866 179.85625 -35.579268)
(-2034.2831 285.33617 -24.663685)
(-2332.5521 404.87886 -12.791278)
(-2637.3455 536.50319 -0.89557622)
(-2946.2507 678.75092 10.562299)
(-3256.2229 829.30056 21.079746)
(-3566.0587 986.41638 30.424384)
(-3873.67 1148.8942 38.069476)
(-4178.3789 1314.1311 44.69769)
(-4479.8639 1481.6214 49.726027)
(-4778.1591 1649.9976 53.783191)
(-5072.7014 1818.0399 57.288825)
(21.17488 -10.861683 -6.1406336)
(-10.780317 -17.657506 -5.8461129)
(-56.409327 -21.496488 -15.312958)
(-132.28123 -21.437252 -22.899122)
(-235.25639 -8.1587124 -28.940063)
(-363.55163 13.296017 -35.03187)
(-518.6471 46.404955 -39.146846)
(-699.81462 94.794389 -41.301487)
(-904.12514 155.85858 -40.819915)
(-1131.5408 231.94918 -39.225897)
(-1377.9759 322.63053 -34.685217)
(-1641.4136 427.04552 -29.198634)
(-1918.744 544.6862 -22.172791)
(-2206.7745 673.90393 -14.618832)
(-2502.6264 813.4383 -6.783141)
(-2803.5363 961.40267 0.83241193)
(-3107.1344 1116.2595 7.8495128)
(-3411.6192 1276.4994 14.023767)
(-3715.0034 1440.4793 19.285834)
(-4017.0761 1607.0279 23.761915)
(-4316.3152 1775.0744 27.377535)
(-4613.2242 1943.6986 30.560359)
(-4907.4735 2112.763 33.501188)
(28.803787 9.3293924 10.477643)
(-2.2921536 20.680222 6.5535106)
(-42.011051 34.660345 1.2230552)
(-116.76374 61.867686 -5.0426362)
(-210.62922 99.40611 -11.590683)
(-332.25296 141.30868 -17.584284)
(-478.33069 202.08123 -22.864438)
(-647.91391 270.45994 -25.867133)
(-841.86751 352.61533 -28.10402)
(-1056.5415 448.56183 -28.29909)
(-1291.3477 555.84895 -26.999087)
(-1542.829 675.54926 -24.637171)
(-1808.787 805.63725 -21.177555)
(-2086.244 945.20758 -17.194454)
(-2372.4515 1092.6827 -12.964636)
(-2664.9878 1246.7647 -8.8743294)
(-2961.4928 1405.8914 -5.137768)
(-3259.8654 1568.9246 -1.8765842)
(-3558.982 1734.5793 0.84253567)
(-3857.0608 1902.1049 3.2088704)
(-4153.9798 2070.3439 5.2484083)
(-4449.047 2239.359 7.298149)
(-4742.2795 2407.7791 9.8842517)
(0 0 0)
(0 0 0)
(0 0 0)
(0 0 0)
(0 0 0)
(0 0 0)
(0 0 0)
(0 0 0)
(0 0 0)
(-2.8390224 10.408096 20.914432)
(-9.2047411 15.373228 1.7333252)
(-8.7731045 8.3913272 -11.648122)
(-33.870672 80.477533 6.6192352)
(-30.60923 83.861753 -9.9458008)
(-29.194485 78.530776 -35.544076)
(-71.323943 114.70798 7.547177)
(-76.634991 112.47621 -12.289939)
(-74.425637 125.83211 -42.458471)
(-134.16448 168.91599 -5.1158299)
(-135.66623 178.44262 -26.641386)
(-126.93946 170.54525 -51.456786)
(-223.4909 239.77478 -12.077543)
(-222.11464 241.33692 -32.141003)
(-214.46776 247.96378 -61.654213)
(-329.97639 307.96837 -19.040953)
(-328.80258 310.01119 -43.355683)
(-318.82381 309.34098 -67.681143)
(-460.86666 390.55856 -26.16199)
(-458.92687 397.03119 -45.97207)
(-446.59929 394.29001 -75.455983)
(-616.97932 485.50431 -30.648699)
(-611.04218 482.9133 -52.201512)
(-598.25596 482.35531 -76.3302)
(-791.50981 587.27591 -33.655285)
(-784.44172 588.78443 -53.866639)
(-770.41791 582.08918 -77.629889)
(-988.02286 701.79608 -35.296744)
(-979.69736 698.5336 -54.335825)
(-963.247 692.29118 -75.768701)
(-1203.7117 823.6107 -35.329177)
(-1192.7019 819.71745 -52.7571)
(-1175.3868 810.52438 -71.707442)
(-1435.8182 955.11973 -34.46543)
(-1423.1678 948.83661 -49.69139)
(-1404.5008 938.44165 -66.108508)
(-1684.0437 1093.5971 -32.299813)
(-1669.1699 1085.9289 -45.401166)
(-1648.7609 1074.1945 -59.333875)
(-1944.5121 1238.7117 -29.910461)
(-1927.2564 1229.358 -40.818116)
(-1905.6822 1216.3381 -51.944011)
(-2215.8493 1389.2603 -27.182412)
(-2196.3838 1378.7859 -35.786752)
(-2173.0458 1365.0552 -44.599523)
(-2495.3853 1544.175 -24.60552)
(-2473.4908 1532.5667 -31.268013)
(-2448.7678 1518.1725 -37.814116)
(-2781.0975 1702.5219 -22.420263)
(-2756.9981 1690.0848 -27.218441)
(-2730.54 1675.2729 -31.865791)
(-3071.1013 1863.4793 -20.6805)
(-3044.6709 1850.3933 -23.948326)
(-3016.8064 1835.3863 -27.037883)
(-3363.6484 2026.3644 -19.376254)
(-3335.3778 2012.724 -21.404279)
(-3306.0059 1997.5431 -23.339329)
(-3657.6596 2190.5967 -18.393737)
(-3627.4895 2176.5554 -19.524447)
(-3596.8291 2161.3736 -20.595119)
(-3951.9604 2355.6457 -17.407969)
(-3920.4548 2341.416 -17.902837)
(-3888.7313 2326.2312 -18.542162)
(-4246.0822 2521.5194 -16.253403)
(-4213.4154 2506.9719 -16.467431)
(-4180.7815 2491.7789 -16.796076)
(-4539.5265 2687.4615 -14.348851)
(-4506.3341 2672.9545 -14.440421)
(-4473.0626 2658.1191 -14.840515)
(-5331.8038 1971.4749 59.913915)
(-5298.0059 1956.9982 59.402134)
(-5264.1716 1941.9923 59.292285)
(-5166.6432 2264.7422 36.420995)
(-5132.735 2250.34 35.821952)
(-5099.5928 2235.4175 35.619153)
(-5000.1316 2560.8856 12.151187)
(-4966.4423 2546.594 12.210055)
(-4933.168 2531.7095 11.719781)
(-29.190468 -32.702901 -22.093195)
(-25.414554 -36.145688 -7.9554331)
(-28.620634 -33.068937 8.0306095)
(-51.536971 -84.22005 -28.41092)
(-53.270192 -82.056075 -2.6429469)
(-48.601781 -76.77875 13.791028)
(-116.02281 -134.51038 -35.848686)
(-111.83748 -129.74356 -17.705996)
(-110.76717 -127.54426 8.8696522)
(-196.61474 -175.10051 -42.757662)
(-197.98356 -170.20987 -20.354358)
(-193.23383 -168.46891 1.9189049)
(-315.33646 -214.60751 -51.030778)
(-316.03097 -208.14302 -27.219575)
(-309.18272 -205.13085 -4.8662137)
(-460.86479 -238.10192 -54.109585)
(-457.30599 -233.26996 -33.463083)
(-451.90162 -231.02177 -8.9032557)
(-633.27029 -251.7629 -57.417319)
(-631.79078 -248.32389 -35.882237)
(-624.03195 -246.35197 -11.672408)
(-835.09327 -251.01405 -57.363879)
(-831.39721 -248.59556 -35.868074)
(-821.2866 -249.88974 -13.580624)
(-1060.5331 -235.02594 -53.732646)
(-1054.4046 -232.0864 -34.287521)
(-1044.1071 -233.48054 -12.43155)
(-1308.4267 -198.15239 -47.698014)
(-1300.9918 -200.24575 -29.694956)
(-1288.5365 -201.49708 -8.7797003)
(-1576.03 -144.47308 -38.507188)
(-1565.8909 -147.68941 -21.903273)
(-1551.36 -151.7237 -3.78203)
(-1858.7144 -72.703269 -27.480395)
(-1846.1238 -77.486352 -13.176585)
(-1829.9189 -83.007558 3.1580325)
(-2153.6785 17.253449 -14.665798)
(-2138.5155 10.878878 -2.3585582)
(-2119.9876 3.6016062 11.558436)
(-2457.4256 123.80442 -0.97055881)
(-2439.3912 115.74918 9.0378417)
(-2418.7161 107.20379 20.521409)
(-2766.4402 245.40804 12.922411)
(-2745.6598 236.04653 20.731937)
(-2722.8234 226.19157 29.951309)
(-3078.1099 380.05772 26.206331)
(-3054.7017 369.34856 32.140113)
(-3029.7749 358.49758 39.039648)
(-3390.2019 525.49548 38.609382)
(-3364.2781 513.77027 42.667637)
(-3337.317 502.13963 47.549045)
(-3700.6172 679.36524 49.450195)
(-3672.5786 667.07137 51.951819)
(-3643.9328 654.66648 55.164881)
(-4008.6832 840.0127 58.557468)
(-3978.7659 826.81092 60.061774)
(-3948.399 813.86319 61.775409)
(-4313.2554 1004.7201 66.184561)
(-4281.8604 991.42327 66.525898)
(-4250.3275 977.9385 67.276749)
(-4614.2158 1172.4214 72.441472)
(-4581.6018 1158.4541 72.016319)
(-4549.1987 1144.6789 72.032152)
(-4912.048 1341.0789 76.652909)
(-4879.0753 1327.1029 76.334761)
(-4845.8565 1312.8614 75.881579)
(-5207.014 1510.5459 80.941426)
(-5173.4682 1496.0152 80.396632)
(-5139.5319 1481.5524 79.780545)
(8.7757307 -14.367238 15.650815)
(-15.423888 -55.733079 16.557279)
(-61.651017 -67.752404 3.5742157)
(-143.16309 -92.272407 2.9732455)
(-248.06925 -103.98394 -5.6770449)
(-380.91707 -110.1596 -9.8838231)
(-542.37251 -104.25608 -13.591942)
(-727.61039 -84.989374 -15.793168)
(-939.03192 -52.386989 -15.846871)
(-1170.8323 -2.2256028 -14.383634)
(-1422.027 63.212816 -10.47115)
(-1689.0745 146.24802 -5.6162758)
(-1968.5027 245.00033 0.69461608)
(-2257.5524 358.77789 7.6724202)
(-2552.9008 486.02737 15.020699)
(-2852.2596 624.8368 22.228329)
(-3153.3976 773.19794 28.990208)
(-3454.6767 929.01923 35.111378)
(-3755.0361 1090.3478 40.432339)
(-4053.7457 1255.456 44.960667)
(-4350.4187 1422.6041 48.90075)
(-4645.4507 1590.7727 52.370332)
(-4938.2836 1758.8608 55.583777)
(24.670897 -6.3695825 -4.6768476)
(1.6219119 -5.4453975 -10.934517)
(-47.693569 0.55439506 -18.653506)
(-119.92525 -0.67792728 -23.16778)
(-215.83322 11.264805 -30.257996)
(-341.8806 27.479711 -35.690995)
(-490.75948 56.760281 -39.470539)
(-666.97851 95.056275 -41.669436)
(-865.79474 149.83586 -41.770217)
(-1086.3456 216.39915 -39.082117)
(-1326.2505 299.36793 -35.399244)
(-1582.1814 396.25583 -29.388359)
(-1851.3257 507.3767 -22.6643)
(-2130.8623 631.0731 -15.067136)
(-2417.8207 766.2924 -7.2933446)
(-2709.7788 910.96624 0.13723189)
(-3004.7207 1063.616 7.0539145)
(-3300.9382 1222.0887 13.066514)
(-3597.2437 1385.095 18.206032)
(-3892.9202 1550.8056 22.342617)
(-4187.441 1718.2043 25.91454)
(-4481.0859 1885.9248 28.878773)
(-4772.9003 2054.8128 31.941495)
(30.510476 21.507012 -18.900144)
(-1.6345757 27.941301 -26.102379)
(-39.355179 72.044737 -40.648546)
(-101.22551 77.57057 -43.43011)
(-195.34948 121.44231 -55.286527)
(-309.37576 163.23674 -60.776545)
(-449.67318 211.07694 -64.772463)
(-613.70329 277.73266 -67.918857)
(-801.4224 349.7041 -67.05847)
(-1009.8205 438.36003 -65.339901)
(-1237.3687 537.62409 -60.666705)
(-1481.6027 649.73447 -54.320243)
(-1739.4896 773.51396 -47.009925)
(-2008.6357 907.42938 -38.671852)
(-2286.1731 1050.4162 -30.40479)
(-2569.9786 1200.9834 -22.416524)
(-2857.9148 1357.3312 -15.189424)
(-3148.3849 1518.2809 -8.9729276)
(-3440.1199 1682.2529 -3.889797)
(-3732.3051 1848.2807 0.1950804)
(-4024.5088 2015.1991 3.4167371)
(-4316.2912 2182.8742 6.2082906)
(-4607.9356 2350.2318 8.6108451)
(-3.6356353 -14.548526 -16.342247)
(-0.25759265 -15.033829 -6.7571487)
(-6.1200392 -11.60527 7.3152759)
(-34.491011 -57.617464 -16.225568)
(-38.337901 -54.054404 -4.3012793)
(-30.649041 -54.804044 6.2408387)
(-89.440559 -76.179819 -25.258813)
(-85.105509 -72.510724 -15.861307)
(-83.602022 -68.359263 -4.8078273)
(-167.74622 -99.068181 -32.456463)
(-169.31558 -95.737486 -20.25034)
(-163.08298 -91.131892 -8.3658961)
(-277.33623 -110.02982 -37.742083)
(-277.02275 -104.10682 -27.370295)
(-270.84237 -101.21601 -16.628988)
(-413.79614 -110.12971 -43.677304)
(-411.9668 -107.34596 -32.982909)
(-402.49587 -104.63244 -21.02448)
(-576.06411 -100.54456 -46.935658)
(-574.51216 -97.936476 -36.071115)
(-565.84397 -96.735782 -25.054578)
(-766.34096 -76.62843 -47.568928)
(-762.70707 -73.862225 -37.392231)
(-750.59274 -74.480042 -26.442888)
(-979.56278 -35.714974 -46.350476)
(-974.42544 -36.558833 -36.566589)
(-962.42221 -39.352929 -26.521753)
(-1215.7712 18.686906 -41.839682)
(-1208.8132 17.419521 -32.774605)
(-1194.4009 12.94151 -23.092896)
(-1471.2782 90.759894 -35.477875)
(-1461.6549 87.410114 -27.573842)
(-1445.8338 80.45819 -19.089675)
(-1742.3271 178.42304 -27.146209)
(-1730.5595 173.13366 -20.122039)
(-1713.1539 164.76368 -12.460334)
(-2027.027 281.42941 -17.385739)
(-2012.5725 274.6055 -11.371752)
(-1993.2093 264.43116 -5.0945059)
(-2321.1585 398.60893 -6.8357497)
(-2304.004 390.14121 -2.0154326)
(-2282.7013 378.7192 3.1803891)
(-2622.1223 528.26952 3.8600243)
(-2602.1539 518.51939 7.6238187)
(-2579.0434 505.90564 11.722753)
(-2927.0204 668.75422 14.193266)
(-2904.5135 657.73045 16.996391)
(-2879.4024 644.39244 19.979938)
(-3233.6887 817.89171 23.732749)
(-3208.5594 806.12574 25.56826)
(-3181.6186 792.15637 27.623514)
(-3540.1114 974.17975 32.125302)
(-3512.7214 961.6474 33.18721)
(-3484.2223 947.2612 34.447803)
(-3845.1509 1135.7745 39.113975)
(-3815.8592 1122.5527 39.650292)
(-3785.5858 1107.8202 40.249255)
(-4147.8218 1300.2953 45.050343)
(-4116.7572 1286.918 45.083906)
(-4085.531 1272.1392 45.101596)
(-4447.5966 1467.4591 49.665224)
(-4415.378 1453.9868 49.3912)
(-4383.1673 1438.8563 49.253887)
(-4744.7878 1635.5873 53.491736)
(-4711.9575 1621.5728 53.183907)
(-4678.796 1606.3394 52.716862)
(-5039.493 1803.7529 56.869016)
(-5005.8259 1789.2418 56.393211)
(-4972.1852 1774.2805 55.976795)
(11.376888 -5.8308329 -1.305882)
(9.4596177 -4.7531668 1.7347834)
(5.4551962 -8.0140335 -0.93703421)
(-21.560346 -12.505619 -0.57892487)
(-24.165968 -11.694364 -3.7875698)
(-15.08054 -8.9428487 -6.9034718)
(-72.54336 -12.728469 -13.283394)
(-70.507835 -7.6983602 -17.726417)
(-68.84842 -6.2841268 -16.631296)
(-143.66606 -10.784674 -18.387117)
(-149.10763 -2.7749524 -20.785088)
(-140.0584 0.65923757 -22.089084)
(-248.78637 2.8723456 -26.392117)
(-247.70815 9.7617574 -32.224454)
(-238.07976 8.9746725 -29.110773)
(-374.29866 24.390714 -33.529952)
(-373.72695 30.030043 -35.958974)
(-364.54744 30.512716 -36.103698)
(-528.19347 56.550803 -36.616231)
(-526.2306 62.88477 -40.78684)
(-514.20369 61.80343 -38.813599)
(-707.40099 104.52059 -40.345216)
(-702.8846 107.18763 -43.463261)
(-690.2093 103.23125 -42.450512)
(-909.08074 162.84237 -39.553544)
(-903.02875 164.85415 -42.472202)
(-889.4329 160.67916 -41.647402)
(-1133.6619 237.42441 -38.312095)
(-1125.4878 236.99838 -41.030768)
(-1110.173 230.31408 -40.068254)
(-1376.8469 325.81353 -34.105768)
(-1366.0556 323.23405 -36.370891)
(-1349.6022 315.3243 -35.551818)
(-1636.7571 427.88159 -28.574528)
(-1623.8669 423.25462 -30.623772)
(-1605.8001 413.75613 -29.805566)
(-1910.465 543.18707 -21.716753)
(-1894.8493 536.82753 -23.401082)
(-1875.0957 526.02578 -22.720306)
(-2194.5726 670.21886 -14.227068)
(-2176.3398 662.12651 -15.568937)
(-2155.0246 650.24415 -15.0717)
(-2486.6576 807.74789 -6.3984435)
(-2465.8976 798.13178 -7.5026182)
(-2442.7478 785.4973 -7.0582602)
(-2783.8915 953.88101 1.0976514)
(-2760.5623 943.08038 0.23887147)
(-2735.6197 929.88861 0.50025211)
(-3084.1115 1107.2911 8.0659104)
(-3058.3751 1095.528 7.3951373)
(-3031.7103 1081.8368 7.530721)
(-3385.3929 1266.1956 14.154517)
(-3357.5522 1253.5095 13.578744)
(-3329.1844 1239.6763 13.615399)
(-3686.4398 1429.1101 19.260998)
(-3656.6445 1415.9755 18.878387)
(-3626.7967 1401.6881 18.776136)
(-3986.243 1594.7332 23.632255)
(-3954.6521 1580.6649 23.182447)
(-3923.68 1566.7905 22.901838)
(-4283.7413 1762.3803 27.27415)
(-4251.6555 1747.7591 26.60195)
(-4219.131 1733.7904 26.499317)
(-4579.9689 1929.8947 30.043995)
(-4546.7885 1915.6985 29.765787)
(-4513.8515 1900.868 29.354899)
(-4873.7823 2098.4643 33.170598)
(-4839.8726 2084.0284 32.811009)
(-4806.5585 2069.5159 32.38871)
(13.00032 10.800888 4.079651)
(15.660015 8.4103357 -2.312699)
(15.807499 9.6478018 -9.5856504)
(-20.620591 25.158927 -0.098612853)
(-23.802147 16.171655 -11.313724)
(-18.010041 25.318417 -20.291771)
(-60.076753 45.094884 -8.5119846)
(-61.574005 58.523411 -20.521676)
(-60.102708 62.363115 -31.406081)
(-134.2304 78.711007 -13.125984)
(-132.61162 73.113269 -25.646947)
(-126.28313 80.72279 -35.429055)
(-226.25257 110.70413 -23.309836)
(-225.46619 117.22494 -35.590314)
(-219.55246 120.64311 -46.449606)
(-345.98493 158.12547 -27.439267)
(-343.34438 161.06786 -39.830806)
(-333.74543 164.86305 -49.67758)
(-489.61108 217.25776 -33.657423)
(-485.71458 217.36493 -46.776107)
(-475.43402 218.60989 -56.289674)
(-656.79958 283.62397 -36.808721)
(-650.70634 285.07154 -47.531682)
(-638.87928 285.66926 -58.066737)
(-847.17261 365.58902 -38.124798)
(-840.11978 364.34928 -49.711)
(-826.22287 361.97584 -59.102601)
(-1058.7338 459.09277 -38.113099)
(-1049.0955 456.67437 -48.085129)
(-1034.2102 452.45888 -56.686853)
(-1289.4574 564.18584 -35.727469)
(-1278.227 560.41536 -44.770765)
(-1261.485 553.9726 -52.934078)
(-1537.0493 681.57307 -32.292128)
(-1523.3571 675.99274 -40.320183)
(-1505.2319 667.65909 -47.271723)
(-1798.8575 808.97534 -27.723771)
(-1782.815 802.18229 -34.370931)
(-1763.1357 792.2101 -40.410645)
(-2072.1179 946.12479 -22.459253)
(-2053.7795 937.88957 -27.952276)
(-2032.4453 926.42651 -33.072748)
(-2354.4199 1091.1571 -17.093462)
(-2333.6249 1081.7504 -21.467087)
(-2310.5667 1069.3002 -25.495907)
(-2643.1693 1242.9631 -11.933128)
(-2619.941 1232.6411 -15.168563)
(-2595.2096 1219.2751 -18.376944)
(-2936.2056 1400.0671 -7.2337974)
(-2910.7807 1388.8423 -9.6082475)
(-2884.3166 1374.9272 -11.969551)
(-3231.7325 1561.2475 -3.2703096)
(-3204.0806 1549.3492 -4.8386494)
(-3176.0576 1534.9576 -6.5483629)
(-3528.2284 1725.2437 0.018697786)
(-3498.8455 1712.6772 -0.97213249)
(-3469.2608 1698.1403 -2.1454562)
(-3824.6117 1891.2633 2.7165184)
(-3793.4892 1878.3175 2.1114829)
(-3762.7116 1863.4466 1.327759)
(-4120.275 2058.362 4.9078593)
(-4088.0396 2044.7848 4.602887)
(-4056.1836 2030.0002 4.0678544)
(-4414.6279 2226.0603 7.0051588)
(-4381.5466 2212.1702 6.8932078)
(-4348.789 2197.2857 6.5584035)
(-4707.8065 2393.4991 9.5480401)
(-4674.2944 2379.4874 9.3006931)
(-4641.0321 2364.2352 8.8223514)
)
;

boundaryField
{
    free
    {
        type            zeroGradient;
    }
    fixed
    {
        type            fixedValue;
        value           uniform (0 0 0);
    }
    traction
    {
        type            zeroGradient;
    }
}


// ************************************************************************* //
