/*--------------------------------*- C++ -*----------------------------------*\
  =========                 |
  \\      /  F ield         | OpenFOAM: The Open Source CFD Toolbox
   \\    /   O peration     | Website:  https://openfoam.org
    \\  /    A nd           | Version:  6
     \\/     M anipulation  |
\*---------------------------------------------------------------------------*/
FoamFile
{
    version     2.0;
    format      ascii;
    class       pointVectorField;
    location    "0.22";
    object      lm;
}
// * * * * * * * * * * * * * * * * * * * * * * * * * * * * * * * * * * * * * //

dimensions      [1 -2 -1 0 0 0 0];

internalField   nonuniform List<vector> 
3969
(
(0 0 0)
(0 0 0)
(2797.0089 -188.93647 11.093064)
(2817.1204 -102.69522 -0.5154197)
(0 0 0)
(0 0 0)
(2812.847 -99.903783 17.397228)
(2798.706 -179.85748 -5.9946485)
(0 0 0)
(0 0 0)
(0 0 0)
(0 0 0)
(0 0 0)
(0 0 0)
(0 0 0)
(2799.3677 -175.26277 9.9445133)
(2804.377 -164.51592 9.0371039)
(2808.742 -155.8145 6.38136)
(2812.0971 -147.10442 3.8344879)
(2814.2164 -138.39523 1.6086417)
(2814.9972 -127.49718 0.23130553)
(2815.2761 -114.70969 -0.11101806)
(20.83753 45.77786 46.636542)
(35.011565 76.362713 57.093033)
(62.361758 109.9545 61.167565)
(100.39706 143.1199 60.823322)
(147.93405 174.51935 58.397008)
(204.87149 204.47113 54.636975)
(269.55886 231.18957 50.350909)
(341.77881 255.51804 45.439046)
(419.77848 275.94356 40.595159)
(502.93483 293.46536 35.499429)
(589.96497 307.48361 30.713856)
(679.85894 318.49004 26.142891)
(771.43117 326.30673 22.260732)
(863.97526 331.73439 19.000986)
(956.58945 334.71004 16.647423)
(1048.8599 336.11586 15.229981)
(1140.6937 336.24096 14.596584)
(1232.2313 335.61118 14.618312)
(1323.9651 334.66077 14.935172)
(1416.6493 333.74007 15.168708)
(1511.1786 332.87264 14.908829)
(1608.4805 332.12041 13.778455)
(1709.2006 330.98064 11.523435)
(1813.8556 328.92 8.0572439)
(1922.4684 325.09866 3.2352339)
(2034.6279 318.62477 -2.7533129)
(2149.4714 308.30118 -9.9190534)
(2265.7303 293.3562 -18.053572)
(2381.5728 272.87078 -26.989125)
(2494.7882 246.3747 -36.436898)
(2602.9451 213.76914 -46.04522)
(2703.2783 175.38627 -55.246395)
(2792.898 132.12448 -63.380433)
(2869.0352 85.300453 -69.436189)
(2929.4921 36.861976 -72.573933)
(2972.3032 -11.285561 -72.101791)
(2997.1591 -56.57485 -67.364494)
(3004.9197 -97.535183 -57.902332)
(2997.3888 -132.00935 -45.896748)
(2977.813 -159.67666 -31.086988)
(2950.6065 -179.396 -16.182761)
(2919.3177 -191.79889 -2.1188392)
(2889.2173 -199.11048 8.3722067)
(2861.9112 -199.92791 15.931977)
(2839.227 -198.4526 17.929811)
(2824.1835 -197.05377 17.426247)
(2810.1542 -192.28724 12.806932)
(6.0472201 -41.491669 -55.27497)
(31.503459 -69.501194 -52.391237)
(55.624145 -102.31788 -61.945286)
(91.405201 -130.69947 -58.430814)
(138.98659 -162.57586 -56.58067)
(193.2067 -190.22111 -51.830476)
(256.56369 -217.05884 -47.213409)
(326.05414 -240.74925 -41.701519)
(401.97662 -262.41748 -36.236542)
(482.58165 -280.9898 -30.579202)
(567.14622 -297.51957 -25.148496)
(654.56222 -311.2274 -19.813983)
(743.898 -322.99667 -14.795831)
(834.42699 -332.87457 -10.169868)
(925.24887 -341.45109 -6.1943114)
(1015.9605 -349.13758 -2.8750321)
(1106.1423 -356.58478 -0.52694351)
(1195.5935 -364.16748 0.83872493)
(1284.7993 -372.53134 1.1132759)
(1374.0218 -381.72963 0.38422598)
(1464.3127 -392.1188 -1.0765966)
(1556.4309 -403.39893 -3.0168758)
(1651.4848 -415.32177 -4.8465)
(1750.1413 -427.30676 -6.0828231)
(1852.9414 -438.63924 -6.2704546)
(1960.1549 -448.59216 -4.8821023)
(2071.2743 -455.94542 -1.4761589)
(2185.5879 -460.29572 3.8013279)
(2301.2201 -460.30176 11.036921)
(2416.1106 -455.3035 19.896836)
(2527.7556 -444.61118 29.862556)
(2633.2989 -427.90942 40.253556)
(2729.6946 -405.10021 50.239491)
(2814.0883 -376.75775 58.989619)
(2883.9275 -343.60657 65.652466)
(2937.1713 -307.42963 69.502071)
(2973.3378 -269.55228 70.520475)
(2991.8182 -232.76439 67.064531)
(2994.3447 -197.84884 61.287477)
(2984.2008 -167.80684 52.527347)
(2963.932 -143.2347 42.248707)
(2937.7918 -124.73637 30.915796)
(2909.8607 -112.2901 20.332265)
(2883.2353 -105.09696 11.367442)
(2860.0943 -101.93615 4.8039425)
(2841.9497 -100.95607 0.968909)
(2827.4781 -102.0104 -0.15431025)
(0 0 0)
(0 0 0)
(0 0 0)
(0 0 0)
(0 0 0)
(0 0 0)
(0 0 0)
(19.539919 -27.409126 42.765268)
(34.878237 -84.619394 56.597591)
(54.883864 -92.964214 55.976736)
(95.885569 -137.97535 57.074973)
(140.76147 -162.47501 54.170109)
(196.82857 -192.75162 48.800875)
(260.33363 -219.15648 44.672434)
(330.45211 -243.32599 38.593593)
(406.86151 -264.95945 33.439949)
(487.30566 -284.11618 27.869483)
(572.40294 -301.04882 23.205312)
(660.48573 -314.33766 17.571562)
(750.41832 -327.05244 13.7184)
(840.72742 -336.81148 10.292136)
(931.35439 -345.78512 8.1798057)
(1021.1744 -353.23105 7.1686217)
(1110.0975 -360.19377 7.2765622)
(1198.0616 -367.01044 8.3944043)
(1285.4689 -374.20484 10.126597)
(1373.1045 -382.19678 12.000402)
(1462.0192 -391.33129 13.492598)
(1553.3879 -401.6696 13.953031)
(1648.4655 -413.13118 12.813496)
(1748.2052 -425.32148 9.5861554)
(1853.3326 -437.7729 3.9475901)
(1963.8236 -449.42615 -4.0348565)
(2077.8848 -459.04506 -13.972197)
(2195.1198 -465.63932 -25.129189)
(2313.548 -467.95157 -37.607801)
(2430.8065 -465.15375 -50.394531)
(2543.937 -456.49257 -62.675533)
(2649.957 -441.56519 -73.59045)
(2745.7838 -420.39829 -82.216747)
(2828.5258 -393.34074 -87.672438)
(2895.826 -361.05912 -89.32088)
(2944.8516 -324.92426 -86.451739)
(2978.8242 -290.20452 -79.399344)
(2991.8585 -249.17118 -67.447871)
(2991.4305 -213.97833 -53.36348)
(2977.7595 -181.35596 -36.674722)
(2954.7587 -153.91931 -20.037065)
(2927.6129 -132.2852 -5.1864195)
(2899.2863 -116.98997 6.833135)
(2873.4695 -107.25956 14.895733)
(2851.8666 -102.37775 18.999064)
(2835.3292 -100.85389 19.84181)
(2822.9076 -101.12323 18.72448)
(2811.3184 -110.63445 13.966324)
(2811.6052 -121.1314 11.207693)
(2811.5571 -130.87439 7.1579647)
(2810.6407 -138.16117 3.3008038)
(2809.2192 -146.37028 0.066985552)
(2806.7855 -156.06194 -3.0799357)
(2800.7753 -166.19424 -4.7224802)
(2811.3045 -182.20661 -4.4867602)
(2827.18 -188.61198 -3.5958262)
(2846.8037 -193.76511 1.8250954)
(2870.3596 -198.59815 8.7530174)
(2898.5752 -201.39823 18.224544)
(2929.4062 -199.32743 29.558889)
(2959.8582 -190.83957 41.381221)
(2986.402 -174.41336 52.855097)
(3005.1733 -149.55158 62.680647)
(3012.2079 -116.42555 70.3036)
(3006.3623 -76.123442 75.061822)
(2979.697 -29.475718 76.116995)
(2939.4477 18.294861 74.14174)
(2879.518 69.008283 68.747105)
(2803.5812 117.87511 60.65874)
(2713.1613 163.73918 50.437699)
(2611.032 205.09687 39.032955)
(2500.3273 240.8162 27.295673)
(2384.1156 270.33335 16.241817)
(2265.5283 293.55473 6.6034208)
(2147.1745 310.60068 -0.83256284)
(2031.0771 322.24986 -5.882489)
(1918.8409 329.22755 -8.4165002)
(1811.1855 332.72031 -8.70179)
(1708.1869 333.75707 -7.2685031)
(1609.4586 333.41273 -4.7678693)
(1514.1468 332.5031 -1.9042635)
(1421.1762 331.6964 0.62246913)
(1329.4955 331.21049 2.3343527)
(1238.1083 331.1494 2.821586)
(1146.4113 331.14326 1.9843943)
(1054.0468 330.88909 -0.045560744)
(961.18635 329.73482 -3.2215034)
(868.19866 326.47651 -7.0426643)
(775.11269 321.56926 -12.056061)
(683.04885 313.91698 -16.936222)
(593.1763 303.38967 -22.523814)
(505.87305 289.56874 -28.122605)
(422.5054 272.37104 -34.004896)
(344.65917 251.37684 -39.616337)
(272.59162 227.87129 -45.232593)
(206.14497 201.10517 -50.510714)
(150.57204 171.04007 -54.731003)
(101.82423 140.32116 -57.60278)
(64.289894 108.05999 -57.550175)
(37.821747 71.293282 -53.353511)
(34.669114 44.204968 -35.27001)
(0 0 0)
(0 0 0)
(0 0 0)
(0 0 0)
(0 0 0)
(0 0 0)
(0 0 0)
(0 0 0)
(0 0 0)
(0 0 0)
(0 0 0)
(0 0 0)
(0 0 0)
(0 0 0)
(2818.6867 -101.8042 0.51897036)
(2820.585 -101.58971 2.7257313)
(2822.295 -102.16759 5.6561846)
(2822.8569 -102.73473 8.9270633)
(2822.0947 -102.80149 12.124823)
(2819.6248 -103.02373 14.122429)
(2816.8288 -101.38324 17.298357)
(2799.5925 -187.07979 10.77918)
(2802.8348 -184.71982 9.5442253)
(2804.7937 -183.79492 7.525446)
(2805.1518 -183.48252 4.3921892)
(2804.2012 -183.44833 0.61334259)
(2801.6022 -183.08532 -2.3123837)
(2799.8256 -181.90313 -5.9359126)
(6.5161327 32.352914 41.725422)
(23.390254 52.992869 41.196836)
(49.335638 79.096297 45.609757)
(87.473844 102.50422 45.169851)
(134.87702 125.17465 43.523715)
(192.54679 146.7927 41.086726)
(257.98598 166.39099 37.659445)
(330.76304 184.12539 34.609992)
(409.87696 199.25031 30.737229)
(493.82438 212.4274 27.30788)
(581.64717 222.89358 23.752063)
(672.12543 231.28451 20.570578)
(764.41366 237.56506 17.673245)
(857.42684 241.96327 15.393115)
(950.43342 244.65447 13.796958)
(1042.9157 245.94939 12.867444)
(1134.7838 246.12541 12.573429)
(1226.1077 245.3805 12.710194)
(1317.426 244.0434 13.021845)
(1409.5238 242.17499 13.187282)
(1503.3443 239.87913 12.915043)
(1599.8382 237.01292 11.881735)
(1699.8843 233.32036 9.9161365)
(1803.9777 228.36768 6.8711264)
(1912.4497 221.70296 2.6771784)
(2024.7784 212.4811 -2.5005373)
(2140.2991 200.21913 -8.5762976)
(2257.6859 184.48415 -15.332741)
(2375.1115 164.66951 -22.54368)
(2490.2975 140.85145 -29.964068)
(2600.7435 113.17175 -37.223062)
(2703.5606 82.21829 -43.95373)
(2795.7656 48.930472 -49.573694)
(2874.5685 14.480349 -53.449347)
(2937.3573 -19.767783 -55.178885)
(2982.4639 -52.54545 -53.823607)
(3009.2439 -82.289697 -49.66458)
(3017.7284 -108.50039 -42.190049)
(3010.6472 -130.25788 -32.719852)
(2990.8628 -147.55326 -21.480052)
(2962.5875 -160.19259 -10.340953)
(2929.8433 -169.36611 0.023777819)
(2898.0323 -174.79649 7.6464273)
(2868.1588 -178.05178 12.716623)
(2844.4315 -179.19014 14.359224)
(2827.5962 -179.95614 13.865471)
(2811.7279 -177.28181 11.082038)
(-4.9368293 21.203118 28.313863)
(11.667241 31.730273 27.8737)
(39.742189 53.001512 31.237804)
(77.369123 67.236408 30.845666)
(126.35319 83.302152 29.819993)
(183.65291 97.797777 27.847215)
(249.3745 111.08691 26.23063)
(322.81828 122.79532 23.785283)
(401.99467 132.9612 21.746305)
(486.33254 141.60555 19.464591)
(574.36618 148.42051 17.375424)
(665.22905 153.94908 15.358037)
(757.68024 157.78716 13.730733)
(850.86785 160.3145 12.521163)
(943.99416 161.48656 11.6823)
(1036.6267 161.66204 11.251213)
(1128.4549 160.78487 11.145875)
(1219.7131 159.02806 11.302602)
(1310.8743 156.49092 11.407454)
(1402.7356 153.28771 11.322071)
(1496.2239 149.35611 10.799882)
(1592.3927 144.71033 9.6394109)
(1692.1688 139.22242 7.7111562)
(1796.2393 132.68788 4.9678793)
(1904.739 124.70046 1.4643406)
(2017.4006 115.07442 -2.5683878)
(2133.5505 103.18387 -7.2291528)
(2251.8007 88.865606 -12.259312)
(2370.2229 71.945527 -17.374096)
(2486.7083 52.352946 -22.537844)
(2598.463 30.413045 -27.457747)
(2702.5753 6.6074637 -31.79425)
(2796.0746 -18.29162 -35.239122)
(2875.9612 -43.321645 -37.416487)
(2939.8257 -67.471728 -37.829806)
(2985.8674 -89.802961 -36.306681)
(3013.3667 -109.41981 -32.720258)
(3022.8013 -126.14839 -26.953844)
(3016.5473 -139.19778 -20.025769)
(2996.9848 -149.56853 -11.929092)
(2969.2775 -156.65984 -4.1907968)
(2936.279 -161.7634 2.691309)
(2904.0849 -165.11767 7.8458366)
(2873.9907 -166.87787 11.163285)
(2849.0266 -167.49054 11.858589)
(2831.6111 -168.19865 11.748121)
(2814.0708 -165.53759 9.3410098)
(-11.671983 11.360957 16.349797)
(5.7555912 17.87001 15.473715)
(31.934493 27.944116 16.778247)
(71.443708 36.456776 16.29936)
(119.74906 44.401307 15.552191)
(177.80782 52.586491 15.079438)
(244.39946 58.765283 13.547635)
(317.4832 64.830201 13.11155)
(397.13648 69.622892 11.926839)
(481.43911 73.604533 11.112042)
(569.62628 76.631533 10.136589)
(660.40032 78.759939 9.372419)
(752.82722 79.965745 8.7925025)
(845.96955 80.208756 8.4142546)
(939.07407 79.751546 8.3040064)
(1031.5651 78.347225 8.4101002)
(1123.3162 76.150047 8.7323438)
(1214.4178 73.149792 9.099282)
(1305.3571 69.438441 9.3299421)
(1396.9068 65.067828 9.3063398)
(1490 59.996056 8.8415099)
(1585.7765 54.389911 7.7877288)
(1685.165 48.058599 6.1370003)
(1788.7565 40.889538 3.9351323)
(1896.9455 32.795571 1.2931514)
(2009.4906 23.497867 -1.8235591)
(2125.7881 12.848239 -5.2253398)
(2244.3863 0.7123548 -8.6071255)
(2363.5503 -13.01959 -11.975054)
(2480.895 -28.28925 -15.16625)
(2593.6437 -44.702745 -17.966027)
(2698.914 -61.944074 -20.290743)
(2793.5243 -79.343724 -21.897967)
(2874.5412 -96.114924 -22.563735)
(2939.4906 -111.73679 -22.119811)
(2986.4753 -125.30806 -20.383235)
(3014.8799 -136.56314 -17.323344)
(3025.2167 -145.16929 -13.012189)
(3019.3613 -151.43823 -8.0212764)
(3000.682 -155.60222 -2.3911773)
(2973.1567 -157.68337 2.3729947)
(2940.8007 -159.17086 7.0822454)
(2908.6055 -159.15128 9.7019672)
(2878.3606 -159.18451 11.33075)
(2853.0449 -158.36987 11.138855)
(2834.8056 -158.03188 9.9834946)
(2816.7344 -155.91359 7.9957389)
(-13.766012 1.7324749 2.9811702)
(3.1149848 1.3209861 0.12929508)
(30.311606 4.4634076 0.72584034)
(68.277776 5.0717727 1.0854928)
(117.38707 6.0378629 1.7143342)
(175.20182 7.3577002 1.3915244)
(240.80158 7.2493852 2.5324467)
(313.99563 7.7774209 2.5589121)
(393.05088 7.4028624 3.110627)
(477.19298 7.0103371 3.4909203)
(565.07205 6.0747283 3.78214)
(655.81754 4.9386452 4.2147687)
(748.04883 3.2368712 4.5356299)
(841.11963 1.2217435 5.1710068)
(934.09239 -1.3126347 5.7331331)
(1026.5549 -4.4079612 6.4350421)
(1118.1868 -8.0768577 7.0824477)
(1209.1241 -12.365606 7.5892455)
(1299.8544 -17.221413 7.8097193)
(1391.0995 -22.608609 7.6388425)
(1483.8556 -28.529 6.9959197)
(1579.2226 -34.825834 5.8297819)
(1678.1426 -41.581512 4.2426139)
(1781.3992 -48.770036 2.3318963)
(1889.3279 -56.439848 0.085816354)
(2001.8334 -64.653662 -2.171325)
(2118.1112 -73.519349 -4.243465)
(2236.8801 -83.124596 -6.0459196)
(2356.2818 -93.361855 -7.5020517)
(2473.9712 -104.21209 -8.3902038)
(2587.2087 -115.36998 -8.8547285)
(2692.9949 -126.54136 -8.7581273)
(2788.1456 -137.22475 -8.1037089)
(2869.752 -146.87972 -6.9442587)
(2935.2584 -155.09056 -5.1817979)
(2982.8535 -161.39155 -2.9078267)
(3011.998 -165.53263 -0.23072328)
(3023.1232 -167.60557 2.6342736)
(3018.58 -167.65664 5.5898928)
(3000.6925 -166.01805 8.1716821)
(2974.2211 -163.37484 10.276771)
(2942.5401 -160.26935 11.445654)
(2910.9045 -156.81973 11.615155)
(2880.9804 -153.77046 11.024839)
(2855.7906 -150.90294 9.8553294)
(2837.4037 -149.09378 8.042998)
(2819.4067 -147.16523 6.3935643)
(-14.803392 -7.2639083 -10.041494)
(4.5501894 -10.625216 -13.697635)
(28.937979 -17.228237 -13.026249)
(68.123448 -23.256923 -12.863643)
(116.75164 -29.671902 -12.604852)
(174.03146 -35.726433 -10.751218)
(240.0015 -41.665637 -9.9027183)
(312.77198 -47.274852 -8.3502805)
(391.73534 -52.640676 -6.9275586)
(475.59993 -57.815934 -5.3843995)
(563.32141 -62.696563 -3.8928732)
(653.5573 -67.342913 -2.3894324)
(745.52435 -71.947233 -0.8094214)
(838.29116 -76.455548 0.66654452)
(930.98975 -81.205861 2.1143609)
(1023.1625 -86.183095 3.4805195)
(1114.5262 -91.547736 4.5317915)
(1205.1489 -97.299251 5.28827)
(1295.4782 -103.54612 5.6081051)
(1386.2592 -110.12755 5.4309666)
(1478.3897 -117.21081 4.8516485)
(1573.0406 -124.39739 3.7917753)
(1671.062 -131.80011 2.4380153)
(1773.5421 -139.22142 0.94215947)
(1880.7863 -146.64941 -0.47947483)
(1992.5834 -153.95031 -1.5513955)
(2108.4771 -161.11026 -2.1861559)
(2227.1358 -168.01748 -2.2815149)
(2346.7374 -174.61471 -1.7028574)
(2464.9244 -180.83039 -0.53173621)
(2578.9043 -186.43151 1.1750174)
(2685.6338 -191.18053 3.3066563)
(2781.8685 -194.86705 5.746775)
(2864.6441 -196.94781 8.1885247)
(2931.2746 -197.57418 10.770467)
(2980.0352 -196.07178 12.968511)
(3010.0643 -192.97298 14.935422)
(3022.1901 -187.76664 16.388575)
(3017.6514 -181.46746 17.544432)
(3000.1308 -174.52346 17.709545)
(2973.9712 -167.20771 17.054326)
(2942.8398 -160.148 16.135747)
(2911.1247 -153.50647 14.134074)
(2881.5916 -148.17697 12.277641)
(2856.9605 -143.69208 9.8330105)
(2838.443 -140.86238 7.2225517)
(2821.7349 -139.02178 5.3293906)
(-11.387787 -16.558815 -25.393658)
(9.9747262 -28.431397 -27.267189)
(34.6507 -43.234655 -29.246067)
(73.769987 -56.727696 -29.256268)
(121.27395 -70.955851 -26.853682)
(178.09805 -83.430708 -25.061595)
(243.13576 -96.144646 -22.354639)
(315.18685 -107.36121 -19.452789)
(393.30874 -118.05748 -16.68257)
(476.30296 -127.58796 -13.518157)
(563.21921 -136.36527 -10.786954)
(652.79479 -144.2318 -7.9798352)
(744.11441 -151.5075 -5.4064342)
(836.25776 -158.25267 -2.8744407)
(928.44994 -164.73604 -0.59064257)
(1020.1402 -171.08086 1.358769)
(1111.075 -177.59306 2.8577716)
(1201.2745 -184.30257 3.8309381)
(1291.1452 -191.42838 4.1859212)
(1381.3661 -198.84601 3.9091725)
(1472.8522 -206.64081 3.1325804)
(1566.833 -214.59485 1.8105382)
(1664.2633 -222.59584 0.51326947)
(1765.7925 -230.33768 -0.88966609)
(1871.8562 -237.69765 -1.7959811)
(1982.5917 -244.3599 -2.1198941)
(2097.4367 -250.16979 -1.585062)
(2215.0856 -254.95198 0.089291774)
(2333.8567 -258.53125 2.7433071)
(2451.4142 -260.68461 6.3717204)
(2565.0401 -261.15982 10.696069)
(2671.7003 -259.81888 15.491846)
(2768.1999 -256.37972 20.335304)
(2851.5201 -250.81854 24.86909)
(2919.0361 -242.97997 28.786786)
(2968.877 -233.06753 31.5982)
(3000.3124 -221.45346 33.304279)
(3013.5656 -208.39702 33.303964)
(3010.9974 -194.57694 32.385613)
(2995.6387 -180.9372 29.393746)
(2970.8179 -168.43395 26.120131)
(2940.9361 -157.02274 21.491175)
(2910.4738 -147.46013 16.829548)
(2882.1644 -139.79118 12.216493)
(2858.4158 -134.36486 8.2953885)
(2839.8803 -130.55439 5.4092235)
(2824.092 -128.51592 3.9026851)
(-5.202909 -28.376231 -36.308506)
(17.060863 -44.629425 -39.934422)
(41.213582 -68.583805 -44.263897)
(80.111355 -89.448694 -42.825457)
(126.39963 -110.54421 -41.035896)
(183.04251 -130.85994 -37.878769)
(247.15435 -149.77753 -34.228618)
(318.44232 -167.3073 -30.314323)
(395.78343 -183.20856 -26.261534)
(477.88019 -197.43749 -22.051419)
(564.19447 -210.19962 -18.061541)
(652.83269 -221.31318 -14.142182)
(743.49348 -231.25913 -10.396056)
(835.04285 -240.12385 -6.8858349)
(926.77242 -248.26583 -3.8466902)
(1018.0563 -256.06739 -1.2904945)
(1108.6255 -263.84273 0.62636705)
(1198.4054 -271.89551 1.784269)
(1287.7345 -280.35947 2.1694222)
(1377.2845 -289.30868 1.792412)
(1467.9475 -298.64915 0.82447728)
(1560.8216 -308.20451 -0.47268214)
(1656.8874 -317.6265 -1.9514613)
(1756.9683 -326.61664 -2.9706099)
(1861.64 -334.59059 -3.3226441)
(1970.9868 -341.04436 -2.5853503)
(2084.6844 -345.97745 -0.58211978)
(2201.4663 -348.73799 2.7550554)
(2319.7024 -349.18402 7.4657622)
(2437.0369 -346.93489 13.372108)
(2550.7919 -341.76575 20.118711)
(2657.9017 -333.45608 27.282585)
(2755.1452 -321.94137 34.27693)
(2839.4808 -307.2656 40.562591)
(2908.1525 -289.79964 45.579426)
(2959.4478 -269.83735 48.746522)
(2992.2012 -248.77683 49.930209)
(3006.9249 -226.61523 48.647074)
(3005.5543 -205.08242 45.219012)
(2991.2635 -185.10841 40.069377)
(2967.2674 -167.26255 33.360678)
(2938.3098 -152.23542 26.119261)
(2908.3785 -139.97626 18.994647)
(2880.6115 -130.62601 12.715161)
(2857.4199 -123.91319 7.9824652)
(2838.9714 -118.95641 4.5521851)
(2825.6566 -115.8918 2.6194875)
(0 0 0)
(0 0 0)
(0 0 0)
(0 0 0)
(0 0 0)
(0 0 0)
(0 0 0)
(0 0 0)
(0 0 0)
(0 0 0)
(0 0 0)
(0 0 0)
(0 0 0)
(0 0 0)
(0 0 0)
(0 0 0)
(0 0 0)
(0 0 0)
(0 0 0)
(0 0 0)
(0 0 0)
(0 0 0)
(0 0 0)
(0 0 0)
(0 0 0)
(0 0 0)
(0 0 0)
(0 0 0)
(0 0 0)
(0 0 0)
(0 0 0)
(0 0 0)
(0 0 0)
(0 0 0)
(0 0 0)
(0 0 0)
(0 0 0)
(0 0 0)
(0 0 0)
(0 0 0)
(0 0 0)
(0 0 0)
(0 0 0)
(0 0 0)
(0 0 0)
(0 0 0)
(0 0 0)
(0 0 0)
(0 0 0)
(22.09888 -13.931605 -28.110433)
(26.361629 -17.652664 -18.826927)
(31.180474 -18.33924 -9.7632664)
(32.828549 -19.384534 -2.0928131)
(31.929912 -17.873764 5.2835554)
(30.530693 -18.578755 13.382745)
(25.163459 -12.925445 22.433551)
(46.552807 -70.02501 -42.207552)
(55.452752 -76.16241 -23.898975)
(58.935241 -71.031705 -10.847751)
(59.373535 -68.516883 -0.30300223)
(60.189081 -72.390548 10.271079)
(54.607902 -71.700956 22.956874)
(49.400338 -71.81764 39.570881)
(67.034404 -95.038394 -44.550701)
(77.49788 -91.194586 -31.509211)
(84.378712 -94.490392 -14.581998)
(85.233594 -94.20763 -1.2412671)
(84.0587 -91.973946 13.260857)
(78.896447 -93.013542 24.633773)
(71.775175 -97.301735 44.198371)
(107.44071 -134.2632 -43.680134)
(116.63365 -136.04151 -30.238252)
(121.63722 -134.52147 -13.790214)
(123.58794 -134.06469 -1.5327612)
(122.36862 -134.53728 12.573149)
(117.72384 -136.72366 28.548322)
(107.75836 -134.16972 41.785379)
(151.30072 -164.85387 -42.408884)
(160.57695 -163.87772 -29.783628)
(167.34445 -165.0243 -14.997565)
(168.63604 -164.43752 -1.0297331)
(167.86512 -164.56196 12.652167)
(162.73109 -165.02107 25.705649)
(155.24556 -166.03759 41.530483)
(206.40285 -194.63537 -38.898682)
(214.10805 -194.57509 -26.780598)
(219.37929 -194.07228 -13.342196)
(221.44621 -194.8466 -1.3933949)
(219.87277 -194.58138 11.957609)
(215.65356 -194.6798 25.083937)
(207.40263 -194.26352 37.10056)
(267.6833 -220.90543 -35.534289)
(275.38676 -221.78967 -24.441892)
(281.01255 -223.04878 -12.470085)
(282.44444 -223.19933 -1.5895625)
(281.85055 -223.47556 10.857231)
(277.85793 -224.45171 21.445232)
(271.22373 -223.70788 33.959019)
(336.58525 -245.72364 -31.45176)
(343.28733 -246.43429 -21.891308)
(347.77589 -246.43143 -11.209385)
(349.68727 -247.21786 -1.2622885)
(348.53949 -247.03077 8.9844427)
(345.14759 -246.79745 19.593959)
(338.90941 -246.11392 29.263167)
(411.0364 -266.88493 -27.397156)
(417.06361 -268.03994 -18.67171)
(421.44814 -269.57403 -9.8479491)
(422.82512 -269.5319 -1.4063565)
(422.56494 -270.51013 7.5621982)
(419.51234 -270.04399 16.133957)
(414.48937 -269.82718 25.398938)
(490.4457 -286.08019 -23.148053)
(495.64989 -287.06812 -16.28049)
(499.36631 -287.49811 -8.4104666)
(501.01704 -288.56437 -0.88576012)
(500.26859 -288.65823 6.7652797)
(498.0889 -288.29893 14.003505)
(493.619 -287.7989 21.387495)
(573.90529 -302.09272 -18.996544)
(578.28171 -303.20878 -12.957502)
(581.69037 -304.62497 -6.7179727)
(582.75861 -304.84324 -1.1180704)
(582.93266 -305.47914 5.2031781)
(580.87848 -305.38473 10.86286)
(577.32037 -305.19638 17.701845)
(660.21826 -315.79864 -15.006397)
(663.84735 -316.98665 -10.078951)
(666.43258 -317.99874 -5.64814)
(667.92592 -318.59415 -0.59572025)
(667.59612 -319.18051 4.3660543)
(665.94169 -318.7581 8.8961903)
(664.01642 -318.70029 13.361377)
(748.41484 -327.38454 -11.101777)
(751.25511 -328.28688 -7.4672919)
(753.83087 -329.53944 -3.8696311)
(754.83052 -330.08721 -0.25221693)
(754.98022 -330.69151 3.4363387)
(754.31433 -330.86107 6.6435895)
(752.58836 -330.4674 10.289912)
(837.79153 -336.92392 -7.5247841)
(840.18571 -337.82568 -4.768096)
(842.28773 -338.90983 -2.290507)
(843.05248 -339.4414 0.44118019)
(843.64056 -340.16036 3.0652544)
(842.84587 -339.80949 5.5016356)
(842.09809 -339.88109 7.9430353)
(927.77793 -345.01153 -4.2417598)
(929.73337 -345.81648 -2.2705663)
(931.22806 -346.81296 -0.5865108)
(932.22301 -347.5442 1.425556)
(932.46172 -347.94411 3.0968774)
(932.41607 -347.90226 4.9108344)
(931.88571 -348.01006 6.3758613)
(1017.7709 -352.11025 -1.4162063)
(1019.1658 -352.76741 -0.0051253447)
(1020.5429 -353.79289 1.1887709)
(1021.125 -354.28322 2.5032613)
(1021.6416 -354.75551 3.7315084)
(1021.5784 -354.56269 4.9862926)
(1021.3764 -354.83458 5.8589258)
(1107.3185 -358.77501 0.74231824)
(1108.6109 -359.43301 1.8754363)
(1109.4619 -360.2561 2.7022939)
(1110.0685 -360.7995 3.7967007)
(1110.3673 -361.09277 4.5871995)
(1110.4495 -360.92085 5.7027509)
(1110.1682 -361.0392 6.1823696)
(1196.6129 -365.66148 2.1448089)
(1197.5984 -366.15739 3.1688249)
(1198.3251 -366.95233 4.0249113)
(1198.676 -367.39336 4.9573757)
(1198.9307 -367.56299 5.7051256)
(1198.8347 -367.2778 6.8461065)
(1198.4337 -367.25107 7.2579538)
(1285.663 -373.18401 2.6087937)
(1286.7236 -373.68857 3.8376568)
(1287.151 -374.33752 4.7873228)
(1287.4301 -374.76499 5.8638947)
(1287.4396 -374.75251 6.7176805)
(1287.1711 -374.455 8.1111519)
(1286.4416 -374.04613 8.7485815)
(1375.1804 -381.80409 2.2190654)
(1376.2188 -382.272 3.7528605)
(1376.5808 -382.88204 4.9838348)
(1376.6725 -383.28233 6.297063)
(1376.5613 -383.16893 7.4567109)
(1375.9702 -382.81296 9.1422169)
(1374.8746 -381.91483 10.273133)
(1465.767 -391.72816 1.0579511)
(1466.9838 -392.29434 2.9629262)
(1467.2086 -392.84798 4.4491758)
(1467.2612 -393.28369 6.0844912)
(1466.9858 -393.10446 7.5396362)
(1466.0846 -392.69524 9.6023176)
(1464.6574 -391.27654 11.36138)
(1558.3879 -402.89506 -0.63991715)
(1559.6588 -403.62827 1.5678482)
(1559.9151 -404.21045 3.299585)
(1559.8929 -404.74995 5.1191492)
(1559.5493 -404.54298 6.8813041)
(1558.4135 -404.17213 9.1230138)
(1556.7928 -402.27629 11.526123)
(1653.7934 -415.14957 -2.5172166)
(1655.1378 -416.09546 -0.1774501)
(1655.4004 -416.76572 1.5190402)
(1655.3888 -417.40757 3.3945438)
(1655.0856 -417.3364 5.1719281)
(1653.867 -417.07054 7.4333344)
(1652.2758 -414.79144 10.294873)
(1752.7161 -427.81388 -4.1099115)
(1753.9384 -429.05472 -2.0439988)
(1754.2519 -429.85069 -0.54515032)
(1754.2829 -430.68282 0.90984961)
(1754.1496 -430.84921 2.4932242)
(1753.1413 -430.67952 4.3836302)
(1751.8897 -428.34333 7.3012432)
(1855.4348 -440.23338 -5.061629)
(1856.4048 -441.76448 -3.6450033)
(1856.8423 -442.77891 -2.8495539)
(1856.9254 -443.81582 -2.111032)
(1857.1639 -444.27723 -1.1271335)
(1856.5293 -444.41138 -0.076319825)
(1855.9738 -442.34024 2.3011277)
(1962.0416 -451.45282 -4.8762161)
(1962.6549 -453.25154 -4.7286286)
(1962.9421 -454.43005 -4.8836512)
(1963.1528 -455.63157 -5.364326)
(1963.7433 -456.4257 -5.4302725)
(1963.9005 -456.86287 -5.6872085)
(1964.6451 -455.25755 -4.4795605)
(2072.1133 -460.3309 -3.1436218)
(2071.8827 -462.21978 -4.6884671)
(2072.0164 -463.69489 -6.4512345)
(2072.5937 -465.17162 -8.5893842)
(2073.5712 -466.47831 -10.293056)
(2074.7954 -466.89977 -12.02943)
(2076.5573 -466.05807 -12.617329)
(2184.6637 -465.76025 0.079081637)
(2183.3604 -467.84612 -3.5712768)
(2183.1669 -469.3891 -7.4067964)
(2183.6753 -471.28117 -11.584322)
(2185.3758 -472.82094 -15.173197)
(2187.7157 -473.63087 -19.059893)
(2191.1647 -473.43767 -21.746319)
(2297.9698 -466.77838 4.8256052)
(2295.5352 -468.79796 -1.2406685)
(2294.6868 -470.62298 -7.5770664)
(2295.3563 -472.45095 -13.970506)
(2297.4381 -474.46756 -20.022726)
(2301.2201 -475.58383 -26.344636)
(2306.4134 -476.27651 -31.745504)
(2410.1653 -462.29369 11.00653)
(2406.3588 -464.20513 2.0619084)
(2404.7972 -465.94838 -6.7922834)
(2405.4367 -468.04959 -15.837318)
(2408.0423 -470.44659 -24.46037)
(2413.2392 -471.81883 -33.401923)
(2420.2525 -473.43471 -41.861481)
(2518.8453 -451.65994 18.112939)
(2513.5773 -453.21353 6.2851251)
(2511.1931 -455.10046 -5.2895519)
(2511.7225 -457.24316 -16.91181)
(2514.7533 -459.8827 -28.205648)
(2521.285 -461.57119 -39.817043)
(2530.0678 -464.02956 -51.423951)
(2621.3961 -434.36512 25.772257)
(2614.7218 -435.62948 11.065942)
(2611.3895 -437.44257 -2.9552634)
(2611.7455 -439.5996 -17.106265)
(2615.0813 -442.49758 -30.965166)
(2622.7498 -444.43941 -45.083456)
(2633.1032 -447.68254 -59.7558)
(2715.1256 -410.48358 33.298284)
(2707.0685 -411.32003 16.137553)
(2702.8491 -413.13685 -0.091592722)
(2702.9177 -415.31456 -16.43076)
(2706.4109 -418.32039 -32.498383)
(2714.9304 -420.5098 -48.7999)
(2726.5548 -424.44285 -66.148634)
(2797.3407 -380.51553 40.144487)
(2788.1555 -381.01762 21.064804)
(2783.1364 -382.72997 3.1994821)
(2782.8503 -384.82248 -14.751912)
(2786.3658 -387.85868 -32.52596)
(2795.3241 -390.36419 -50.482005)
(2807.7699 -394.83688 -69.874222)
(2865.7641 -345.52677 45.682636)
(2855.7654 -345.62203 25.504482)
(2850.103 -347.27478 6.711526)
(2849.4163 -349.35014 -12.189886)
(2852.7689 -352.36645 -30.974254)
(2861.7544 -355.03424 -49.887554)
(2874.6415 -359.81049 -70.451189)
(2918.6171 -307.21514 49.405205)
(2908.2134 -306.90295 29.080154)
(2902.2933 -308.40863 10.141794)
(2901.1288 -310.4122 -8.842097)
(2904.3807 -313.00799 -27.471077)
(2912.834 -316.49335 -47.038254)
(2925.3377 -321.34405 -67.081986)
(2955.351 -267.50107 50.934826)
(2944.9708 -266.60398 31.267704)
(2938.8363 -268.18616 13.551162)
(2937.2691 -269.9811 -4.8120613)
(2940.167 -272.86547 -22.470831)
(2946.9399 -274.52686 -40.527148)
(2958.7473 -280.92518 -62.011219)
(2974.9083 -226.96315 49.973145)
(2965.8979 -227.40257 32.045519)
(2959.8984 -228.55314 16.100516)
(2958.3696 -230.21515 -0.27486376)
(2959.9067 -232.78166 -16.76805)
(2966.9221 -236.22451 -33.154185)
(2977.0459 -240.39324 -50.752845)
(2980.4646 -192.02102 46.372495)
(2972.2886 -191.24877 31.567803)
(2967.01 -192.26755 17.993101)
(2965.1846 -193.88322 4.0408474)
(2966.6264 -195.86353 -9.5248105)
(2971.3559 -198.15614 -23.21221)
(2978.724 -202.40608 -39.368025)
(2973.2167 -160.50427 41.124006)
(2966.6461 -159.86662 29.225181)
(2962.0949 -160.75372 18.771031)
(2960.4456 -162.1492 7.9328748)
(2960.9359 -163.72626 -2.658944)
(2963.7491 -166.06576 -13.530426)
(2969.6998 -169.27413 -25.487323)
(2956.4899 -135.49185 33.989023)
(2951.7036 -134.86377 25.868184)
(2948.3176 -135.66665 18.626856)
(2946.561 -136.84666 11.081551)
(2946.4242 -138.05797 3.8356891)
(2947.7531 -140.10423 -3.5721352)
(2950.9486 -142.38734 -12.080601)
(2933.9483 -117.24385 25.989875)
(2931.0705 -116.82599 21.459507)
(2928.7487 -117.47239 17.276098)
(2927.1148 -118.36246 13.176388)
(2926.6174 -119.26701 8.9821333)
(2926.0827 -121.04645 4.666574)
(2927.2666 -122.18766 -0.1351186)
(2909.0828 -105.86676 18.218385)
(2907.7792 -105.58542 16.754096)
(2906.5889 -105.98757 15.289478)
(2905.1303 -106.69354 13.921364)
(2904.3004 -107.32142 12.455055)
(2902.4185 -108.81824 10.914189)
(2901.9694 -109.02514 9.2786923)
(2884.7253 -100.17441 11.436397)
(2884.8247 -99.980897 12.215805)
(2884.538 -100.09039 12.686051)
(2883.4523 -100.68647 13.524282)
(2882.4084 -101.15885 14.216181)
(2879.6622 -102.34284 14.664282)
(2877.9499 -101.95685 15.421099)
(2863.1337 -98.676094 6.1630649)
(2864.0081 -98.52592 8.2095512)
(2864.4539 -98.497424 10.004423)
(2863.6741 -99.058656 12.186302)
(2862.6211 -99.360581 14.29572)
(2859.4401 -100.25153 16.100912)
(2857.1158 -99.519531 18.338649)
(2845.1553 -99.574867 2.8408388)
(2846.4887 -99.33931 5.2911642)
(2847.4359 -99.241042 7.486313)
(2847.2625 -99.765485 10.392337)
(2846.0799 -100.08544 13.381252)