/*--------------------------------*- C++ -*----------------------------------*\
  =========                 |
  \\      /  F ield         | OpenFOAM: The Open Source CFD Toolbox
   \\    /   O peration     | Website:  https://openfoam.org
    \\  /    A nd           | Version:  6
     \\/     M anipulation  |
\*---------------------------------------------------------------------------*/
FoamFile
{
    version     2.0;
    format      ascii;
    class       pointScalarField;
    location    "1.63";
    object      E;
}
// * * * * * * * * * * * * * * * * * * * * * * * * * * * * * * * * * * * * * //

dimensions      [1 -1 -2 0 0 0 0];

internalField   nonuniform List<scalar> 
28033
(
41721.734
36007.193
9137.4067
8505.1686
44482.08
47827.474
9853.5103
10032.548
23511.376
16372.987
10710.81
8066.5333
4405.2697
2913.2403
1809.5598
1600.2359
2295.67
3603.2108
5827.8505
9750.9726
14356.089
19832.137
30089.05
11163.025
10175.811
10202.987
9708.5955
9159.3524
9291.2998
8126.5141
8707.7802
8453.2045
8171.975
8789.0783
8544.4428
8931.1238
9504.456
10279.186
31570.544
19133.552
18013.885
17573.519
18180.27
18004.844
18035.322
17619.028
17524.48
16811.423
16592.989
16001.119
15416.144
14780.045
14065.325
13326.197
12528.955
12106.23
11414.61
10942.857
10535.163
10090.063
9740.5851
9500.0143
8879.1308
8766.3469
8051.4318
7848.4577
7113.5246
6752.6146
6370.7258
5743.0198
5187.3104
4849.9296
4397.4534
4402.0723
3702.6993
3679.3721
3291.3365
2961.7092
2616.9865
2399.9519
2153.1571
2062.2633
2031.2866
2198.5591
2255.6561
2631.8226
2746.1526
3127.8661
3236.2835
3492.4483
3549.4887
3654.4936
3670.893
3707.8461
3720.6676
3767.742
3813.4318
3897.0919
3966.7228
4084.8494
4115.3644
4324.8522
4375.3855
4504.5425
4687.4714
4815.9281
5059.9967
5521.8956
5705.7557
6106.8656
6329.9224
6727.2506
6994.603
7293.6427
7499.9164
7835.4836
7914.3426
8134.0387
8381.1051
8461.6581
8817.7315
8610.624
9030.6054
8884.7078
9336.1285
9135.8587
9750.7926
9339.4097
10217.867
9539.9986
10578.198
10021.937
10198.139
34248.317
14928.572
23420.615
17299.026
20066.839
19348.698
18844.921
18680.952
18831.967
17879.535
18256.661
17312.769
17576.703
16722.843
16527.704
15833.339
15405.503
14687.109
14119.681
13739.98
12809.751
12771.392
11892.334
12452.926
11484.048
11988.472
10921.718
11058.635
10000.238
9866.4482
8629.2015
8324.3993
7494.2033
7039.1848
6440.0754
6196.6271
5835.5163
5526.6731
5220.3222
5280.5184
5009.5019
5020.4366
4884.8492
4938.04
4853.3414
4999.9936
5024.0424
5225.5679
5353.3347
5546.2195
5675.3991
5790.5433
5794.286
5778.6999
5628.9842
5471.1284
5257.9379
5054.9958
4883.7668
4787.9813
4754.9061
4829.5489
4981.1883
5208.3662
5493.7053
5802.1314
6176.5278
6577.7826
7066.5458
7233.8542
7757.4678
7938.4373
8560.9671
8701.5394
9181.1913
9401.0359
9600.4481
9876.5308
9891.5287
10031.079
10066.749
10012.97
10118.972
10060.831
10185.084
10213.585
10392.694
10477.413
10681.585
10797.019
10933.774
10961.26
10948.328
10772.995
10413.976
27673.751
18519.177
11769.081
10009.708
4958.7325
3203.1739
2329.4055
2126.2346
3180.6173
5437.2259
7690.3748
11673.248
16552.465
23330.665
31706.429
60297.644
33277.207
8902.209
25337.186
19763.521
20123.727
21311.165
20879.738
21300.944
21254.109
20721.156
19280.584
20470.99
17526.618
19227.377
16252.237
18701.307
14074.115
17260.181
13527.391
15165.782
14906.729
13538.137
14462.867
12066.197
13413.624
12242.41
11425.379
11702.292
8773.5932
8630.8122
8065.2813
7417.5355
7433.128
7171.1652
8468.4873
6367.2456
7452.3974
7052.73
6856.106
6613.6918
6302.8224
6038.8209
5828.8384
5778.9282
5798.9543
5955.7859
6140.622
6333.7331
6447.2404
6452.1399
6316.792
6064.3775
5701.9476
5345.5806
5009.6518
4793.2579
4739.7476
4835.5722
5123.4439
5488.4662
5967.4807
6409.6768
6844.5371
7194.983
7469.5311
7756.3019
7442.2063
8168.9199
8228.6307
8406.1291
8488.6923
8774.1985
8981.9774
9145.1493
9249.6413
9291.7029
9291.9917
9190.9707
9153.6591
9059.1927
9099.6385
9107.8571
9290.004
9398.3427
9660.7486
9794.0169
10006.4
10054.993
10120.984
10048.933
9953.5067
9883.2353
9589.8793
10065.372
10828.767
10993.063
9598.6161
9393.0585
9327.4148
8643.5193
8718.3314
8171.8461
9958.5003
7843.0212
9605.4619
7976.7488
11311.937
8733.8909
11542.285
11236.025
9794.2948
10993.488
10333.021
10465.222
10165.827
10028.065
9838.9351
9592.1651
9463.3302
9251.6684
9151.6362
9104.908
8916.7488
8897.1124
8793.6282
8712.7046
8590.7112
8428.5944
8231.0264
7996.2699
7723.3847
7451.5727
7087.3034
6988.142
6519.9017
6449.1468
4885.4555
5930.157
5251.8676
5120.787
4785.3172
4520.8823
4301.5102
4124.6954
4021.0848
3984.8163
4016.5686
4097.4699
4212.9444
4324.6739
4425.6346
4472.6946
4477.823
4417.1612
4319.2528
4187.6311
4043.5203
3923.6868
3826.2242
3743.4952
3778.2092
3748.6333
3833.9787
3841.8194
4034.4802
3769.5129
4483.2913
3811.2148
4287.6009
5318.9052
4487.4579
5502.6151
5769.2842
6635.6025
7134.1443
7210.3063
7869.6412
7963.1987
8871.6691
9368.6932
9377.2293
8800.5376
10619.876
9945.9888
10340.937
11347.388
11421.758
12742.997
12831.013
13531.006
13706.322
15304.319
14348.512
17175.583
15717.591
16092.124
16541.452
17774.3
16436.537
16241.501
18311.493
19047.366
11684.492
37096.652
24579.946
25153.131
23509.508
23995.623
23791.392
24772.26
23673.492
24594.168
24170.727
24113.472
22875.05
22133.021
22514.707
23243.542
23919.911
25407.898
26294.174
24481.592
26876.522
26734.487
25721.604
28224.019
30212.137
28915.394
29677.687
28316.148
27379.455
27004.521
26483.821
29716.595
9437.395
9459.446
9515.0233
9457.8599
9458.5806
9449.6624
9445.9217
9455.6101
9519.3899
9554.3642
9666.5894
9642.6295
9767.4856
9427.5572
10290.879
10131.973
9734.6377
10060.746
9763.7746
9987.9742
9921.8432
9935.7442
9921.4457
9963.2413
9943.7614
10059.608
9954.734
10057.212
9891.7641
10417.867
24365.605
15177.384
14560.073
14073.532
13895.125
14126.277
14056.341
14172.236
13715.575
13951.415
12915.798
12961.092
11844.964
12001.682
10770.5
11014.758
10363.098
10284.064
9774.5419
9681.3743
9216.7136
8762.2603
8411.0859
7576.3499
7207.9826
6473.2305
6088.0199
5556.0686
5424.3354
5295.9841
5193.8672
5354.6254
5610.8748
5773.1888
6044.3562
5857.6492
5961.521
5786.2834
5825.5764
5639.0109
5738.2189
5622.9783
5666.774
5735.8177
5574.6715
5530.8492
5283.3321
5060.6568
4692.1903
4395.2179
4048.7697
3849.4501
3733.0304
3803.1759
4023.3733
4397.4543
4879.2064
5417.9666
5960.2673
6455.825
6853.1075
7177.3703
7334.6339
7491.0464
7404.7524
7427.0807
7612.3565
7431.3433
7571.5991
7168.0695
7225.8693
7084.6234
7065.8596
7010.7443
6953.6504
6957.8521
7022.8032
7074.1678
7322.3344
7474.9608
7889.1194
8137.2985
8540.7015
8763.5009
8980.1694
9335.3861
9497.4941
9612.2711
9835.494
9661.202
10127.619
9724.5887
10513.879
10053.902
10877.424
15773.181
10145.257
11291.687
9772.6709
10609.151
10025.099
10301.127
10073.138
10050.033
9799.1209
9558.9878
9319.0473
8936.8539
8602.0541
8233.7813
8181.6628
7480.4463
7568.0044
7151.1692
7071.563
6641.7626
6508.5697
6013.5422
5822.3435
5385.2385
5122.9236
4755.4991
4533.6992
4333.3025
4202.7094
4154.4326
4243.9621
4107.6843
4125.9885
4173.3639
4164.0182
4311.6094
4413.0412
4331.9487
4318.0229
4317.8619
4338.5565
4451.9641
4401.689
4435.7098
4536.5523
4524.6884
4547.7566
4534.4426
4497.6313
4449.6328
4432.3362
4424.4447
4478.7457
4579.0014
4745.7969
4948.6707
5196.843
5452.439
5694.6709
5917.4464
6105.6161
6245.1667
6349.1659
6471.7395
6641.7378
6446.2852
7127.023
7025.4933
7191.5594
7439.3946
7475.2609
7521.8232
7612.0412
7692.02
7792.6162
7918.5702
8050.951
8284.0401
8348.1911
8764.6277
8686.9721
9228.5942
8926.0934
9904.6461
9906.9922
10362.941
10105.344
10744.486
10259.335
11005.22
10381.188
11310.194
9886.4866
11872.485
10392.116
5909.721
7836.2281
6580.5954
7240.3692
6638.2962
6855.3422
6877.421
6815.2816
6791.206
6533.1325
6549.3653
6071.6658
6110.045
5687.5308
5591.7911
5389.0744
5374.1383
5069.0835
5058.7811
4863.6133
4741.1391
4556.7108
4323.4691
4078.0731
3818.0256
3665.3549
3436.0783
3421.5539
3321.441
3427.5165
3361.88
3610.8665
3702.1016
3863.1498
3947.5647
3906.8381
3740.6777
3932.6342
3938.0137
4083.936
4165.1299
4145.9059
4361.5095
4531.2761
4621.6324
4688.959
4742.614
4742.4405
4695.3553
4690.2513
4650.9779
4692.5165
4759.4863
4918.3363
5113.2905
5376.6773
5654.5382
5939.4558
6200.1186
6430.1656
6622.0492
6736.4216
6859.7248
6947.7198
6891.0621
7180.3787
7042.7136
7331.3038
7195.8463
7372.7544
7306.5114
7554.9431
7653.7116
7787.789
7891.3811
8019.8153
8204.4481
8323.5599
8506.2732
8736.6116
8890.809
8988.1473
9592.9146
9575.2796
9338.7321
9355.3927
9554.3895
9686.7363
9516.8586
10061.154
9467.6195
10353.51
9286.6637
12268.403
6340.9676
3800.2609
4296.3913
4295.7821
4363.489
4237.1275
4359.2956
4341.8112
4147.2679
4221.9972
4085.512
4032.8109
3739.5918
3869.2705
3357.7986
3648.12
3107.3991
3353.4576
2961.4112
3209.4377
2784.2757
2960.0101
2549.6163
2640.0089
2321.8248
2360.0943
2105.575
2170.0326
2028.9188
2144.6476
2115.5623
2320.7882
2431.9345
2518.6566
2768.426
2809.3624
3063.8457
3614.9247
3672.8419
3793.5449
3865.3217
4052.2848
4192.0988
4331.1304
4406.6275
4529.8432
4663.4403
4785.9066
4887.0366
4990.1056
5077.9147
5145.0198
5229.0081
5298.2508
5392.1877
5494.6901
5621.5674
5755.6721
5913.836
6064.1847
6225.8334
6371.7881
6475.5215
6651.3368
6694.416
6852.2139
6895.2785
6989.8815
7240.8129
7055.0683
7508.9422
7598.2609
7421.5336
7315.1847
7508.113
7588.3855
7730.5647
7795.9771
7981.6026
8059.6892
8296.3437
8297.7135
8794.7237
8555.3629
9065.0172
8969.4322
9889.1456
9547.7143
10322.591
9806.7688
10790.623
9785.9031
11432.572
9216.8428
13252.133
4226.4095
1362.0517
2597.6817
1721.2275
2516.6353
2016.31
2534.7973
2188.3668
2487.5218
2387.4815
2377.2735
2276.7076
2236.4876
2133.798
2017.2384
2052.9458
1874.1633
2047.7674
1824.6758
2000.2895
1788.1442
1995.9609
1738.6025
1914.5643
1651.0784
1710.1345
1617.0085
1605.0605
1654.073
1715.0786
1886.9747
2026.0404
2205.9446
2436.238
2611.2969
2734.0854
3083.188
2682.3545
2882.8668
2962.0441
3328.4544
3358.6745
3567.9452
3781.2973
3992.2377
4176.2904
4349.5787
4452.3399
4566.8546
4635.588
4713.1577
4759.4698
4856.7456
4920.282
5048.0154
5160.2586
5310.3196
5453.1699
5605.8148
5748.3025
5882.0982
5990.7057
6114.8329
6249.5229
6244.0052
6485.2578
6586.9578
6535.0765
6813.1675
6899.7979
7261.6068
7170.6439
7738.244
8495.9382
8505.8445
8692.671
8745.9024
8931.3397
9045.7499
9174.1691
9346.0234
9513.6804
9582.7513
9891.1439
9899.6778
10137.503
9940.4595
10034.525
10049.366
9945.0882
10261.983
9916.4859
10920.521
9136.0427
13761.762
2326.6549
577.53759
1085.6574
817.15575
958.2388
1035.4065
986.37375
1118.4984
1076.6677
1156.7722
1069.4259
1200.0042
969.56287
1162.1739
867.70633
1072.8183
791.83095
1048.8789
771.78547
1109.1974
831.43356
1134.0819
850.19626
1123.6798
820.88925
1155.457
864.52911
1177.2813
1056.8767
1312.2724
1342.4779
1538.3265
1733.2945
1913.0334
2100.0111
2385.3054
2503.9996
3117.7521
3085.8848
3426.547
3471.5152
3767.6975
3859.4735
4129.5003
4286.8734
4470.8418
4592.4157
4755.3593
4866.8151
4989.9199
5091.2861
5202.0475
5303.4636
5420.4754
5535.4993
5663.3408
5788.4375
5909.3096
6043.4244
6144.2984
6233.3183
6382.2763
6420.2755
6470.7058
6711.7827
6641.606
6817.588
6916.6225
7094.3721
7161.0523
7246.3226
7426.1637
7527.434
7015.8642
7037.235
7119.9239
7274.3932
7384.8658
7522.3405
7623.5387
7850.4157
7807.8381
8253.5513
8032.6885
8616.0692
8380.7322
9130.2514
8876.0657
9777.7753
9301.6956
10526.742
9552.3899
11247.111
9293.3148
14106.417
1554.0058
-338.41568
579.5991
-344.34376
365.67386
-6.4521365
456.06185
213.88573
579.61385
388.62361
589.89566
392.79577
488.90742
356.63869
322.29253
346.34737
271.40675
381.58482
284.06476
516.01738
330.99621
655.76687
392.35724
687.04935
509.90594
666.06541
564.80369
745.41621
698.34543
936.97203
1002.9835
1293.3127
1471.3923
1676.7635
1943.9654
2108.6208
2261.9881
2419.8338
2505.8858
2795.1134
2863.7362
3115.8094
3280.503
3519.3435
3744.5298
3948.6292
4219.6858
4378.99
4584.4031
4690.1393
4839.7671
4899.1272
5021.081
5083.8351
5210.6819
5306.0861
5459.4863
5591.4392
5758.2028
5877.6537
6077.7799
6159.5112
6287.8996
6496.2507
6500.4753
6730.2282
6831.2147
7016.0738
7190.444
7301.7427
7714.9249
7629.713
8031.9724
8246.0581
8639.4127
8812.5122
9011.0922
9094.1564
9295.817
9398.5757
9551.1315
9764.1905
9824.1227
10086.216
10140.977
10302.818
10315.639
10378.767
10425.602
10219.44
10506.257
9906.6388
11303.531
9199.2627
14526.144
1276.4534
-53.649204
392.4434
97.759487
284.6171
286.83517
359.82294
379.75368
491.2127
483.99576
506.67893
585.68475
520.80367
577.63805
517.85495
571.00145
493.05653
604.82
535.5338
674.7273
525.49893
707.46869
551.9234
918.68804
584.55786
1004.4532
765.84551
1096.1726
987.76245
1282.8284
1282.2365
1557.7601
1620.4548
1900.2135
2084.7072
2229.3319
2552.103
2679.8125
2925.1759
3150.0064
3272.8814
3523.7156
3712.0073
3931.4255
4071.7491
4314.8948
4445.8411
4638.9926
4760.5539
4908.9474
4992.4428
5097.6575
5167.0339
5237.7026
5310.9209
5381.3436
5471.6077
5551.6407
5647.0105
5763.4888
5844.0131
5937.885
6084.5737
6102.1807
6256.826
6316.3492
6448.6346
6549.7228
6662.2725
6850.3833
6868.767
7075.1866
7248.7122
7127.9296
7027.4017
7071.9679
7169.8749
7244.7722
7381.2421
7394.1074
7625.3065
7528.6352
7880.0395
7708.4535
8163.2515
7989.782
8572.4665
8398.808
9104.1792
8921.6977
9970.1522
9581.2812
11096.684
9452.8826
14247.186
1513.919
-67.415611
803.90621
94.371892
563.67946
298.78184
733.60559
475.80477
848.42554
592.11206
823.7433
569.81529
614.69789
409.70744
373.06752
246.88668
236.86393
192.73708
217.88005
320.89077
368.00889
674.24293
631.2495
702.0933
629.28959
801.28343
617.88866
829.79826
717.88457
959.29637
979.2908
1234.049
1369.8555
1657.8346
1701.8838
2080.3132
2055.8239
2341.4444
2372.4107
2517.1701
2656.0771
2785.2271
3000.3956
3142.5317
3443.6964
3625.4071
3904.8352
4075.7865
4304.3049
4421.4753
4579.6351
4650.7959
4755.2405
4814.0689
4915.1404
4996.5125
5126.2483
5227.1706
5401.5814
5504.0796
5652.9637
5802.3445
5880.3805
6039.1155
6137.2163
6305.44
6413.4149
6584.642
6800.7418
6950.8864
7240.1859
7442.2057
7692.9026
7929.1064
8594.3374
8676.9802
8905.0539
9046.0847
9175.2701
9352.3084
9414.1428
9661.5297
9688.6065
9961.3484
10010.383
10219.833
10279.523
10411.841
10470.34
10489.287
10620.331
10232.729
11203.963
9531.4701
14156.284
3070.5312
1412.3876
2398.3786
1728.4215
2295.6087
2124.8928
2374.0484
2167.814
2350.8178
2354.5095
2322.7303
2352.9367
2341.2886
2264.5591
2275.8905
2136.949
2165.2291
2021.6609
2095.5519
1972.1984
1975.3681
1855.1802
1684.7228
1837.3528
1740.9754
1877.4156
1741.351
1977.5068
1827.4468
2091.7594
2000.8477
2255.3776
2304.4372
2438.8914
2700.8831
2758.2505
2996.9646
3149.5594
3282.0568
3535.3516
3651.9027
3893.6687
4011.1446
4272.5868
4370.6705
4610.5425
4728.7061
4920.1654
5021.913
5160.7018
5230.1271
5311.6761
5365.441
5421.3157
5470.9349
5536.7398
5599.3256
5688.6773
5783.1505
5867.2457
6007.7431
6088.259
6215.9306
6324.0985
6454.6225
6525.7245
6683.0333
6823.9459
6942.5782
7082.563
7215.7575
7333.4712
7414.3104
7526.6193
7597.6292
7368.4662
7694.1057
7602.4331
7884.5488
7831.1766
8137.7025
8058.8901
8405.8384
8296.7444
8686.6618
8533.3937
9025.4476
8810.006
9429.6189
9212.4261
9916.3858
9831.8692
10795.05
10118.883
14054.642
3250.7431
2249.1064
2939.9077
2429.9528
3061.0388
2791.8269
3010.3165
2831.0925
3073.6071
2878.6191
2819.4176
2697.7353
2573.9116
2322.0415
2322.0819
1962.8497
2194.1633
1757.067
2096.7029
1717.2828
2127.248
1662.5935
1965.2402
1962.1547
1871.673
1760.8806
1680.0136
1562.2521
1438.2136
1447.2817
1367.1614
1547.4081
1460.427
1819.6581
1710.4037
2025.0676
2058.8227
2228.8967
2351.5177
2412.5826
2579.5955
2617.4164
2841.425
2930.9884
3173.6854
3318.0482
3546.2444
3660.2827
3831.9475
3890.3383
3963.4058
3961.4893
3977.0092
3947.0205
3962.4169
3974.803
4041.0192
4129.4386
4260.0461
4417.8694
4590.7333
4777.1802
4952.7949
5174.4486
5320.641
5570.9347
5761.4887
5958.8953
6167.3963
6415.8551
6658.8651
6879.1729
7113.4024
7475.875
7675.0518
8140.6076
8115.4037
8371.8158
8420.2632
8614.8736
8730.5634
8930.542
9082.0329
9324.5844
9486.8339
9781.6719
9926.0342
10236.676
10383.401
10605.134
10871.764
10782.569
11371.964
10622.636
13076.642
7614.3613
4178.7007
5503.4986
5302.6898
5857.7763
5613.1966
5941.7261
5760.893
5893.031
5827.6575
5721.101
5608.765
5572.6706
5239.837
5184.5177
4978.9598
4840.4433
4656.9446
4628.8368
4441.7154
4345.5175
4413.9394
4430.4258
4254.3847
4189.6779
4121.8139
4007.2563
4023.2386
3945.8582
4010.1701
4031.7556
4057.9561
4208.9
4259.1452
4424.8731
4570.8366
4594.5403
4765.2145
4708.5715
4874.2749
4792.348
4958.8713
4901.4981
5073.8413
5083.5173
5251.3218
5331.9139
5485.1027
5591.7452
5717.1784
5806.4019
5904.4994
5981.303
6065.1133
6152.9355
6257.3016
6369.7492
6498.9101
6639.8413
6770.797
6907.1211
7021.6123
7123.8299
7197.9779
7263.4353
7312.885
7360.5395
7430.2161
7528.3079
7624.6984
7698.1037
7780.984
7989.3639
7881.0849
8047.0685
8071.9801
8096.7829
8220.8214
8309.1341
8388.3215
8531.7566
8568.4377
8698.6066
8722.6998
8840.1398
8816.7997
8937.08
8881.352
9003.1534
9027.8778
9217.2763
9393.728
10213.904
10077.274
13056.24
11637.2
8621.6823
9455.8692
8792.217
8726.2071
8345.0738
8540.8892
8014.8941
8194.6239
7812.8758
7658.5282
7460.9259
6995.1754
6786.3961
6407.5518
6030.7387
5851.7848
5411.9039
5447.9842
4956.9277
5086.4985
4624.4441
4687.3326
4233.9476
4363.9924
3732.1823
3690.2041
3184.5381
2962.9429
2738.2529
2468.1046
2503.2943
2293.1096
2475.6527
2381.2637
2500.1084
2575.1964
2610.7611
2750.3398
2707.3698
2868.0871
2852.1531
2998.7952
3060.2766
3197.7089
3277.421
3398.2211
3418.1058
3459.302
3395.7254
3328.5179
3195.4655
3075.8664
2941.1673
2863.1867
2824.0681
2858.4133
2966.1425
3130.696
3358.921
3608.1933
3902.0218
4154.8969
4474.3922
4691.4495
5009.1589
5190.0013
5463.3643
5659.4689
5877.7768
6030.549
6360.8487
6309.6124
6682.8269
6664.0329
6933.1839
6931.5837
7064.9952
7104.286
7294.7294
7406.821
7651.7135
7874.815
8214.7249
8488.315
8908.588
9208.6792
9652.7033
9984.6399
10371.525
10742.053
10990.427
11328.322
11114.441
12170.664
17229.454
12189.336
12995.093
11511.772
12476.313
12039.581
12287.588
12213.192
12354.485
12149.164
12066.439
11662.514
11526.38
11020.598
10686.116
10205.516
9911.8133
9353.4736
9441.5702
8817.1597
8998.0473
8501.9213
8373.3319
8008.5077
7762.1539
7400.9462
7221.2224
6734.4056
6537.1743
6084.8985
5967.5032
5679.6145
5626.9791
5633.6931
5471.4684
5578.5142
5495.2129
5568.9842
5397.5385
5467.356
5282.3984
5312.0261
5189.5385
5237.6498
5215.6779
5311.9559
5376.3818
5484.0773
5562.4244
5627.8925
5647.0109
5636.6201
5596.6832
5540.9412
5495.9176
5476.2848
5499.907
5569.0729
5696.1412
5855.6047
6045.6513
6249.5093
6446.4886
6634.3752
6797.8267
6980.3979
7122.6845
7332.9699
7410.9823
7556.0917
7800.8997
7819.604
8116.9733
8148.0309
8313.3492
8350.8964
8475.7797
8504.0327
8583.2981
8632.4584
8701.1815
8780.4749
8908.9641
8988.26
9169.1148
9239.9673
9423.6476
9462.1144
9584.198
9613.0985
9635.7821
9708.3938
9810.4658
10184.496
11259.651
21856.648
14890.155
15769.519
14132.078
15498.691
14632.067
15195.092
14956.61
14664.971
14372
13465.668
13152.43
12416.465
11846.798
11563.013
10911.438
10984.319
10215.074
10522.599
9480.5292
9890.674
8396.8356
8671.4648
7209.4463
7251.5792
6421.162
6397.2593
6158.6943
6300.1226
6554.36
6686.3852
7042.6358
7168.0381
7332.0625
7169.0096
7220.4874
7051.96
6794.453
6655.2303
6335.922
6204.9663
5977.1466
5847.4665
5649.7451
5467.2254
5193.2083
4920.4231
4570.7444
4268.4635
3982.0286
3805.0577
3753.0561
3867.1613
4121.7448
4535.385
5034.7976
5573.7404
6114.3425
6574.4896
6940.5275
7180.4221
7314.176
7311.7108
7273.5115
7137.4512
7028.1394
6764.9604
6688.2261
6400.5798
6544.7298
6170.2062
6299.6306
6003.5298
6129.3243
6026.0667
6233.784
6350.4216
6657.2284
7025.0496
7463.5307
7877.8419
8409.3217
8734.2297
9203.0007
9394.3761
9716.8501
9787.1076
9991.9567
10067.929
10226.981
10429.653
10753.397
10944.303
11562.149
11481.955
11679.56
12090.974
8911.4407
8507.2717
7915.6605
8081.1316
7709.6507
7892.4776
7749.2397
8483.7587
7849.7893
7933.168
9301.2023
9931.5468
12033.512
9333.8142
7966.1287
6272.8312
6586.9704
5627.523
5704.4777
5295.0509
5382.0535
5688.099
5401.8527
5520.2435
6018.1465
6256.6411
7551.7408
8713.5035
5812.6666
4268.354
2240.9946
2262.6827
1626.1882
1476.4366
1503.1237
1238.5971
1307.5991
1405.072
1621.3712
1635.9181
2146.4861
3494.4436
4879.0209
3942.5978
3195.7602
2305.119
1754.4155
1699.6535
1478.0679
1457.9539
1339.1323
1532.6819
1468.2352
1695.7616
1762.0489
2399.6556
3238.5517
3338.7382
2284.1623
1600.6351
649.18303
522.22214
177.47913
175.92032
57.911511
75.950934
-7.9657802
65.879544
143.10615
340.75299
695.58359
1115.5548
2182.9343
2003.9485
1219.8209
709.88355
633.61995
460.04796
439.57975
343.74931
376.39528
383.76938
405.33981
497.35612
523.58032
722.5955
1087.3317
1717.6217
929.16793
475.42919
173.36576
2.3619775
-60.39171
-150.43163
-162.04535
-209.65069
-204.73939
-164.16274
-128.42599
28.881117
163.81352
566.71008
1047.0745
1021.9855
583.60047
303.59107
240.43854
135.69608
121.08782
80.497104
91.405819
106.07358
111.47641
167.14567
226.81491
332.43214
614.02521
1092.3858
889.27625
520.11107
132.86672
57.301957
-60.070808
-103.5785
-124.88845
-96.003178
-115.19348
5.3487644
17.565715
171.25598
339.90015
817.36848
1203.4423
2009.0123
1419.2606
856.59641
727.19464
543.12217
514.34369
487.66418
475.19355
499.20167
479.4662
678.7848
652.74849
1038.8463
1658.423
2261.6095
2301.3794
1737.5961
903.84409
759.62266
488.45612
548.58151
418.71176
539.67264
487.55785
681.57447
774.75377
1004.8272
1539.4089
2405.3876
3192.3453
4566.5541
2999.8305
2257.4873
1719.1446
1565.7306
1301.9537
1337.118
1257.614
1356.7308
1444.2079
1696.1915
1791.484
2624.2373
3722.0046
5158.5975
6208.8558
5346.9657
3655.8274
3343.0482
2895.8003
2940.6534
2663.2889
2956.2994
3027.0539
3016.9008
3366.6427
3444.1363
4312.1488
5977.6184
7444.631
11187.34
8452.338
7117.8217
6428.5278
6025.7513
5834.3473
6240.9329
6381.9593
6347.9931
6072.5615
6323.8198
6549.8699
7309.7135
8813.5633
11789.866
14494.893
14735.276
11201.655
10896.497
10165.305
9713.3311
10562.799
11322.926
10303.999
10996.969
10585.693
11078.825
12240.322
14325.881
17791.932
39385.398
37417.923
35281.877
37449.112
38711.24
37947.908
40200.533
42421.943
42050.615
42534.187
41619.036
39891.52
39953.493
40951.412
38846.022
31127.7
24193.41
25586.906
25183.077
23222.111
26091.752
25318.268
25433.091
27596.695
24681.005
25782.1
24183.056
26636.657
29515.024
32810.886
20101.554
21434.1
19620.369
19371.19
22103.265
17857.2
17781.455
18131.949
15404.928
19786.147
18716.257
23349.58
21949.049
20548.751
22834.105
19051.355
22062.636
21839.623
19028.769
19029.904
19539.363
18752.143
19566.159
19866.88
18688.043
20602.618
20581.779
22125.282
23186.356
21079.555
22025.729
21888.856
20205.057
23116.186
21214.635
21404.686
22210.223
21577.653
22281.096
24508.255
22569.627
23944.926
22217.439
22691.323
23493.741
18090.231
20189.65
20233.005
20430.235
20416.721
20423.533
19842.415
19896.558
20338.69
19307.172
21053.348
20536.452
21051.63
21723.903
19918.845
19421.286
20713.265
20756.931
20468.601
20675.893
21134.301
21468.728
21435.914
21768.423
22203.517
21416.479
22147.064
21615.633
21004.341
21952.512
19198.092
19208.053
19942.241
20741.923
21018.743
20714.292
20821.373
21206.61
20683.964
21556.939
21461.153
21423.187
21302.474
20417.322
21291.354
18660.5
19997.34
20064.607
20647.198
19976.62
20745.573
20599.415
20950.939
21159.923
20964.3
21027.485
20689.934
20804.679
20734.378
20286.529
19307.73
18668.131
19447.21
19520.961
20024.574
19847.428
20181.769
20164.844
19593.559
20932.591
19906.974
21029.584
20272.804
20265.024
21114.564
18564.436
19309.003
19318.418
19972.001
19667.218
20260.79
20055.828
20285.019
20798.906
20088.15
21109.36
20448.515
20677.174
20722.93
21013.244
19240.72
18222.409
18814.655
18833.78
19107.102
19113.019
19208.748
19110.769
18726.668
19329.707
18724.996
19139.008
18925.231
18842.129
20199.552
18323.639
18377.206
17991.424
18787.569
18439.641
18741.76
18853.523
18747.888
19320.577
19234.305
19559.975
19513.189
19646.527
19925.549
20249.347
18020.641
17431.005
17971.239
17429.141
17813.117
18161.8
18078.55
17733.161
17403.206
17507.669
17088.394
17438.45
17255.042
17040.605
18942.13
17399.942
16580.778
16687.313
17481.123
17500.446
17148.138
16970.509
17380.293
17675.499
17850.678
18409.824
18334.997
18553.668
18969.128
19414.782
16393.734
16210.586
16518.076
16416.647
15795.158
16645.825
16591.133
16243.887
15950.651
15963.558
15273.649
15619.013
15547.644
15417.643
17103.452
15583.087
14775.84
14985.911
15304.608
15865.999
15626.438
15541.063
15375.789
16027.374
15951.74
16682.037
16685.774
16673.849
16566.292
18296.391
14793.499
14760.26
14618.371
14767.48
14353.68
14897.473
14638.427
15109.559
14704.896
14875.999
14251.668
14214.909
14135.323
14295.532
14830.358
14472.215
13919.884
14462.687
14221.601
14519.367
14055.185
14847.385
14108.355
14509.704
14468.906
14518.599
14903.63
15247.896
15124.182
16965.314
13457.187
13347.52
13161.585
13696.04
13479.938
14044.57
13720.25
13915.586
13912.476
13956.154
14273.121
14133.454
13831.725
13697.944
14404.427
13940.233
13336.238
13827.585
13439.933
13598.331
13315.915
13827.491
13620.085
13727.124
13377.543
13463.292
13530.173
14515.045
14055.321
15577.45
13057.097
13255.463
12894.104
13500.054
13008.446
13835.951
13054.847
13590.647
12918.224
14239.786
13673.465
14055.521
13306.537
12771.416
15448.071
14067.859
12688.066
13380.367
12828.513
13232.118
12968.203
13248.345
12840.596
13406.03
12906.927
12680.039
12748.808
13041.837
13139.047
15186.438
13085.248
13206.98
12693.548
13138.73
12655.997
12591.941
12435.788
12556.662
12626.056
12651.294
12898.008
13383.45
13605.009
12990.728
16213.001
14066.922
12418.927
12391.518
12196.45
12624.983
12200.675
12840.674
12405.449
12538.856
12374.47
12628.254
12781.039
12414.011
12312.345
15193.553
12825.164
12080.391
12149.217
12187.516
11890.33
12311.945
11643.662
11858.962
11732.073
11851.193
11819.166
12104.259
13007.309
12988.31
14860.302
12765.171
11712.808
11907.413
11499.717
11867.371
11290.69
11535.424
11462.337
11444.447
11529.465
11624.566
10755.598
11483.513
10529.254
14448.179
11653.703
10713.171
10259.494
11125.282
10170.465
10285.681
10386.313
10202.638
10574.494
10380.556
10783.889
11237.865
10967.984
11312.217
12996.475
10975.758
10275.047
9883.531
9595.3026
9757.9943
9817.1422
9729.2946
9694.8765
9656.0218
9721.2859
9714.483
10109.91
9945.2399
9208.034
12715.838
9613.4017
8752.347
9022.1449
9053.3926
8907.4806
8832.73
8789.4412
8781.1504
8678.2609
8618.1658
8591.494
8544.4356
9559.4152
8839.8645
10519.213
9255.5879
8793.2865
8913.8689
8477.5028
8649.4317
7782.9696
8352.3946
7966.3601
8889.2716
8279.2879
8314.1826
8225.2339
8006.3722
7882.6226
9292.7472
8404.8628
7759.0248
7626.6973
7662.8948
7588.7114
7699.7917
7616.7668
7696.4471
7387.2273
7463.5023
7413.5693
7586.9608
7538.2394
7573.2712
8600.8128
7491.964
7028.1589
7255.5984
7192.535
7323.0793
7083.9549
7326.6857
6970.703
7282.3858
7054.5124
7346.1732
7113.3994
7190.5407
7165.4464
7503.8871
6903.9022
6725.3841
6818.3671
6863.0459
6821.5167
6827.6656
6772.0031
6879.2241
6783.1729
6902.0997
6736.1482
6901.4191
6790.1638
6762.8412
6946.265
6542.8581
6408.6672
6627.7782
6827.7753
6645.4723
6602.1398
6738.5393
6643.7436
6741.5329
6729.831
6853.765
6821.129
6820.0665
6935.8617
7051.9933
6184.6992
6381.4691
6498.8138
6085.6849
6462.3007
6332.6574
6465.135
6313.9057
6662.4591
6118.8144
6626.194
6400.3718
6603.9039
6434.7933
6845.053
5968.0488
6024.4475
6460.0468
6306.4447
6521.3821
6145.5182
6478.9072
6184.3058
6382.7382
6698.9115
6423.9797
6608.387
6341.2657
6641.3314
6531.1348
6144.9517
6592.7534
6431.9274
6591.9708
6297.2222
6447.2338
6281.9663
6367.9013
6363.1733
6168.0592
6384.6551
6237.7451
6517.2601
6466.4063
6295.4833
6510.2537
6177.9045
6408.8687
6145.2756
6454.8729
6035.4039
6344.6243
6061.3932
6186.6255
6198.9239
6143.6393
6390.8785
6220.4658
6279.5613
6478.566
6133.1009
6243.2376
6103.1653
6282.9133
6021.0685
6040.9871
5973.6018
5886.0891
6025.8996
5817.2886
6059.1329
5915.5595
5953.1258
6105.5449
6210.1878
6257.5541
6031.999
6133.9499
5870.9449
6026.0558
5699.8507
5852.1275
5702.7561
5717.5136
5734.8967
5695.5265
5761.5342
5757.665
5800.151
6048.1328
5964.7448
5956.1605
5698.6234
5797.6176
5662.9523
5520.0413
5590.0932
5367.2965
5523.5469
5356.6228
5418.6225
5493.7801
5377.76
5501.6034
5919.8865
5978.2162
5689.6226
5687.0611
5508.161
5542.4556
5300.0094
5377.8852
5231.8498
5285.1265
5186.3845
5246.7311
5252.5182
5175.1281
5290.3686
5834.4249
5756.3919
5662.4956
5412.8252
5398.0282
5336.4539
5126.0198
5223.2054
5026.595
5094.2226
5027.7496
4989.1699
5099.6121
4985.9029
5069.8323
5910.2392
5899.7594
5554.8808
5458.7804
5339.823
5322.9851
5088.4354
5199.4479
4992.931
5100.8437
4962.5145
5001.8331
5077.6415
4977.8362
5034.9394
6180.1608
5954.976
5654.1297
5459.7572
5382.0035
5309.8604
5111.623
5185.8143
5029.8501
5051.6893
5021.8357
4982.4524
5110.4835
5054.2096
5023.7713
6634.3279
6304.9946
5788.0881
5653.3753
5510.4044
5500.1948
5239.2602
5376.832
5137.5797
5247.9958
5155.618
5140.7164
5289.7998
5261.2699
5156.1294
7223.8448
6645.4671
6015.0947
5841.2725
5735.0839
5614.5089
5392.3308
5447.6362
5295.4706
5330.2618
5298.8301
5271.993
5452.0768
5492.1993
5290.5823
7887.7684
7087.4744
6232.776
6111.5257
5890.5417
5850.1241
5563.6299
5710.8648
5479.5358
5558.6387
5504.6008
5484.2924
5664.915
5749.0501
5454.7582
8481.3842
7451.5889
6446.0047
6259.5167
6103.2418
5967.1801
5703.4237
5749.7175
5560.4323
5602.4453
5579.0764
5559.522
5751.7994
5906.3862
5524.2161
8930.9072
7733.101
6506.972
6403.8663
6127.2887
6039.4298
5726.1418
5860.3179
5641.2999
5706.3723
5659.5034
5641.1684
5813.5909
5981.7444
5540.6103
9115.0809
7788.4637
6507.7056
6336.3323
6108.0917
5985.3352
5710.9108
5761.5205
5542.2171
5575.5756
5538.0453
5527.7352
5683.49
5880.9178
5414.6066
9009.5636
7686.1842
6287.3572
6204.8225
5921.1545
5834.3033
5506.3527
5618.4191
5411.0028
5472.8943
5419.3801
5405.6253
5523.3606
5694.8082
5231.3806
8597.259
7314.7398
6005.5943
5919.1749
5668.1543
5568.3552
5306.1683
5393.1101
5176.5093