/*--------------------------------*- C++ -*----------------------------------*\
  =========                 |
  \\      /  F ield         | OpenFOAM: The Open Source CFD Toolbox
   \\    /   O peration     | Website:  https://openfoam.org
    \\  /    A nd           | Version:  6
     \\/     M anipulation  |
\*---------------------------------------------------------------------------*/
FoamFile
{
    version     2.0;
    format      ascii;
    class       pointScalarField;
    location    "1.18";
    object      p;
}
// * * * * * * * * * * * * * * * * * * * * * * * * * * * * * * * * * * * * * //

dimensions      [1 -1 -2 0 0 0 0];

internalField   nonuniform List<scalar> 
625
(
-515592.29
1078904.1
235.29503
-2372.2384
-1265985.5
1495873
-2593.4842
784.54643
-363862.43
109990.16
212826.26
1709.9369
-160.90685
-823.50458
-200265.29
-228676.34
-231706.13
-229957.89
-217877.94
-207911.62
-198642.67
-183670.71
-178990.09
-156524.17
-147115.4
-130944.18
-117656.33
-101934.7
-87951.922
-73324.245
-58699.68
-46691.818
-33126.369
-22644.589
-13248.059
-4793.0213
-1000.4309
330343.84
265228.66
308377.81
256639.59
243147.83
230832.67
203650.37
186814.39
171824.56
151998.86
135064.63
119486.63
104729.35
89499.529
75769.271
62409.448
49686.261
38531.545
27210.091
19281.672
10226.5
5002.6418
627.20302
-739648.12
-112470.45
156142.26
279641.53
379319.63
277535.97
261613.95
276826.17
232344.19
216748.8
213198.29
195902.97
182011.62
165513.54
149290.14
133589.7
115572.87
99811.902
82413.931
67065.151
51687.541
37860.084
25516.549
14923.1
6314.3826
-282.5437
-1143.9401
965.39433
1131.9743
-1123.5098
-5652.4915
-10878.657
-19502.263
-29562.914
-41065.356
-53765.15
-67887.139
-82542.179
-98445.771
-113807.39
-132943.29
-147641.78
-156959.64
-199926.2
-203711.51
-227804.68
-236859.32
-285563.39
-273593.96
-304642.98
-343301.76
-296774.07
-578920.18
-635262.25
-589380.66
1071044.1
1020515.7
985105.86
-2215.4457
-3046.0437
-3867.6502
1585.6179
1134.3901
939.75898
-109940.77
-126767.57
-134717.33
-128957.29
-119899.84
-125983.78
-112685.52
-110182.55
-98051.05
-93955.416
-86842.514
-78888.57
-69207.347
-60437.961
-51187.849
-41631.571
-33099.782
-24971.285
-16886.314
-11726.939
-5875.8489
-2924.3074
-899.44468
67955.548
56394.125
57207.473
37615.275
40829.471
30562.884
28725.424
20826.1
16730.317
13578.681
11365.398
9327.2404
7118.9464
5190.3965
3879.8876
2799.0928
1598.1665
889.30563
541.75186
-164.6776
157.4807
-1000.1408
-607.70085
224672.61
195110.02
181683.73
162469.45
165282.69
140671.24
132598.2
117035.14
107300.11
93559.57
83739.969
71104.265
61723.622
52165.419
43650.362
35454.508
28059.427
21112.027
15501.217
9083.9375
5952.7535
2958.0328
481.24154
-323912.05
-343784.32
-372898.92
69943.583
13672.308
22332.476
164806.1
176254.3
194384.17
439057.5
406896.58
413625.63
386873.42
348438.88
330295.88
294772.51
272499.61
286905.56
268445.03
255192.07
250902.87
254057.95
241762.82
253768
231492.97
217596.98
222550.73
218704.3
208541.5
215656.76
199983.45
185779.69
197721.03
180274.1
172369.54
181334.72
162764.12
155781.66
168161.39
145996.02
141921.76
150749.06
129898.45
125184.88
134989.45
112534.7
110423.51
118880.07
97059.872
94861.291
102891.47
81740.856
80434.435
87508.228
67283.144
66139.622
72131.561
53531.543
52423.263
57667.756
40814.897
40110.633
44067.008
29219.627
28080.621
31197.883
19213.858
18552.121
20641.619
9830.0823
9439.3264
10733.749
3987.7038
4514.1751
4805.4316
441.32697
-1024.0553
-139.59803
1868.9874
1587.9663
1720.7173
705.39943
757.91176
-44.534181
-1949.8593
-2548.9725
-3221.7098
-314142.49
-290112.74
-329779.18
-307539.74
-279629.98
-319730.08
-296030.84
-269678.16
-313086.26
-265657.19
-245833
-281351.77
-251735.2
-239298.8
-253042.36
-242008.66
-209365.36
-240157.04
-221661.19
-203100.72
-222111.88
-210515.47
-184055.43
-200037.53
-185853.34
-173530.87
-179032.26
-176017.91
-154689.15
-166138.04
-158756.16
-140318.95
-145402.94
-143803.05
-122987.84
-130624.39
-124691.07
-109396.89
-113605.44
-108879.08
-94635.909
-97374.646
-91852.829
-80414.193
-81828.414
-75325.235
-66865.106
-67193.405
-60198.176
-53888.126
-53080.201
-45511.668
-41508.825
-40260.427
-31764.184
-30258.763
-28313.119
-20789.484
-19977.383
-18584.658
-10936.533
-10227.894
-9401.775
-4151.3573
-4386.9796
-4121.1171
-617.47976
-453.92048
-763.11306
-216349.2
-193935.98
-157045.75
-167322.92
-154725.12
-141272.53
-131250.07
-119757.61
-101154.3
-93864.629
-87993.334
-72476.099
-63499.136
-54583.354
-45759.595
-37818.876
-30479.364
-23681.799
-17746.106
-12054.207
-7646.3052
-4018.2218
457.92185
-16320.134
-51328.548
-22535.919
-48602.576
-44786.634
-29399.703
-35117.041
-25390.309
-20346.338
-18140.993
-15172.483
-11538.82
-9674.0512
-7958.4733
-5923.5534
-5358.8028
-3912.0085
-3597.8185
-2376.4513
-2084.9281
-1530.08
-310.36152
322.043
82160.042
94735.42
147793.17
125951.14
140814.81
135238.53
126748.61
122199.54
113357.05
106492.11
99433.516
89841.516
81582.773
71965.167
62879.776
53080.371
43942.52
34917.159
26756.419
18920.894
12775.658
6732.3198
3943.9098
-195522.34
-240267.42
-229142.69
-162306.46
-202412.55
-207091.29
-134749.52
-155133.78
-195921.91
-116041.17
-167727.73
-151723.27
-135976.94
-129912.68
-152410.28
-103063.26
-136756.21
-143770.96
-106501.84
-123686.17
-121774.7
-97745.897
-111462.62
-113613.34
-96063.917
-99024.463
-107322.7
-82813.98
-94790.747
-89802.162
-76436.339
-81867.255
-80604.756
-65889.728
-73980.438
-71436.733
-59436.144
-64358.388
-60905.589
-51640.622
-54390.833
-52102.95
-43104.943
-45352.438
-43728.545
-35984.206
-37011.017
-35132.279
-28740.472
-28354.183
-27711.035
-21880.336
-21037.799
-20644.538
-15691.735
-14007.864
-14498.273
-11319.762
-8953.6919
-9475.2235
-5702.649
-4125.8385
-4511.5927
-3368.7351
-2208.5562
-3049.9112
339.17858
1213.6632
1387.659
61645.737
46676.099
6564.1549
28076.343
-19363.97
-11508.838
-3575.2083
-10099.265
-13436.731
400.97564
-13230.59
-1134.5282
-3119.263
-16772.749
-20792.084
-4297.3296
-21455.745
-3560.9686
-9525.4483
-16106.32
-3786.6832
-7413.8341
-17809.24
-5288.0906
-7929.3314
-17769.499
1601.9273
-10268.031
-13926.638
-535.94467
-9160.865
-13579.333
1631.846
-9762.2732
-13430.616
1674.4339
-10002.978
-11993.008
3492.9061
-8459.2866
-10197.891
2341.673
-7649.5468
-9933.3421
2771.7877
-6824.7234
-8449.8508
2387.2089
-5687.9392
-7094.744
1578.3537
-4294.0654
-6416.2754
1356.517
-4068.7316
-4527.1006
-12.884917
-3219.226
-3636.0846
655.16621
-2390.1889
-1004.9135
-764.10868
-777.85729
-1868.3293
-705.05754
-609.47599
-704.38248
-916.98032
202558.38
202792.35
212583.51
154054.44
131826.52
155550.54
144475.11
193912.97
159356.53
167084.13
143675.73
137374.68
132234.31
154573.99
139208.88
127994.61
142820.52
135812.03
118948.12
135662.97
122995.97
108338.08
123874.62
125109.23
95537.63
119942.27
112203.65
90846.824
106243.66
104982.97
79179.353
97038.213
96611.467
70913.935
87404.331
88769.494
62163.469
78607.724
78918.961
53885.019
68453.963
69796.153
45461.89
59132.295
60202.899
37975.787
49831.699
51140.077
30711
40933.915
41797.423
24166.806
31964.441
33263.79
17828.415
24465.424
25414.127
12835.47
16682.235
17336.914
9175.7611
10910.404
11636.749
3288.5495
4124.0296
3482.9391
2244.2275
3129.5196
4618.0852
)
;

boundaryField
{
    free
    {
        type            calculated;
    }
    fixed
    {
        type            calculated;
    }
    freeTop
    {
        type            calculated;
    }
}


// ************************************************************************* //
