/*--------------------------------*- C++ -*----------------------------------*\
  =========                 |
  \\      /  F ield         | OpenFOAM: The Open Source CFD Toolbox
   \\    /   O peration     | Website:  https://openfoam.org
    \\  /    A nd           | Version:  6
     \\/     M anipulation  |
\*---------------------------------------------------------------------------*/
FoamFile
{
    version     2.0;
    format      ascii;
    class       pointScalarField;
    location    "1.32";
    object      E;
}
// * * * * * * * * * * * * * * * * * * * * * * * * * * * * * * * * * * * * * //

dimensions      [1 -1 -2 0 0 0 0];

internalField   nonuniform List<scalar> 
625
(
38110.644
35295.416
15333.033
-1641.2686
35684.471
33763.276
-2238.721
11387.664
6821.9224
3534.7582
20257.422
-6771.3777
-12818.113
24168.753
42757.285
32274.119
29447.899
27310.398
23010.721
22621.932
20257.471
16933.471
15146.614
8307.4194
3030.8422
-4926.6978
-12709.808
-22558.713
-31147.526
-40981.396
-48526.868
-55512.098
-55514.672
-53817.97
-44602.112
-35493.214
-11919.804
52051.164
28483.413
35054.982
23427.053
12406.513
10395.848
-1536.6864
-3498.2081
-6119.0156
-6763.4697
-1300.014
4263.0361
15325.764
27699.462
43056.767
58105.432
73140.022
84147.435
91535.581
90836.05
82918.654
67805.742
38648.851
7142.6652
2850.8785
18867.569
66227.468
71151.986
32314.038
34829.692
26983.171
6275.28
4863.1284
356.75282
-4064.9817
-2404.74
-2659.1957
5727.1931
12900.389
25115.073
38820.968
51127.119
63916.145
71560.274
75141.985
72177.12
62982.247
47612.109
34011.031
16271.304
-11695.987
-7542.1981
-7392.9887
-16845.101
-24736.078
-31142.261
-33965.567
-33069.068
-30867.87
-26249.692
-21370.44
-15600.344
-10679.34
-4457.6871
435.09425
7432.4095
7239.455
11256.598
16947.764
18582.048
23391.054
21987.476
33315.747
35169.078
50385.506
26889.825
29152.101
28101.403
28603.747
26990.139
26791.097
-2709.2766
-1760.3116
-3091.6731
13675.639
14403.445
13254.256
16085.733
9392.7881
10130.088
6455.8369
2120.1246
72.583101
-5292.4522
-7505.8275
-9513.0302
-9934.4308
-7075.0121
-3054.6432
3937.0951
12858.815
23255.12
33780.49
43803.127
51381.829
56074.499
54664.396
51658.205
40460.404
23475.407
8090.8902
5566.9634
5921.5289
3201.7712
2877.5968
1476.4967
-723.48225
361.34915
-390.93143
1846.6207
3314.6611
6362.7586
9753.897
13182.41
16308.272
18688.001
20237.161
19850.441
19245.852
14470.107
11312.688
4240.7937
-503.53968
20401.363
18026.396
18053.227
16767.012
17826.349
15955.454
17990.239
15603.588
13892.935
11185.659
5153.1307
-319.13891
-9394.3814
-18818.479
-30330.113
-41618.556
-53470.699
-61991.977
-69030.004
-67042.664
-60092.858
-44820.888
-16717.843
3550.3782
4442.3827
4035.2635
2292.4266
1708.6775
3605.8014
11256.159
11884.683
12166.816
57889.901
59175.514
60414.275
58011.888
52472.586
52944.332
34397.197
28796.747
36187.689
28003.764
29206
25845.495
21677.7
14284.198
22370.818
10898.181
11674.469
9222.237
7522.9954
1331.4721
5969.4217
1878.1131
-5505.0767
111.49828
-1730.5862
-5398.6717
-3859.018
957.68372
-6816.2405
-1552.5104
1782.7986
-2706.0975
-368.48461
10815.381
3923.8764
8086.4224
19442.709
14851.119
18464.133
33613.443
28384.345
31211.312
47763.157
44142.119
47503.459
63086.789
60531.653
62510.444
76696.955
75060.962
76624.599
86434.277
85684.193
87009.78
91171.683
91127.011
91761.89
88591.202
88313.463
88848.852
78439.275
78629.916
79106.024
60678.155
61758.9
62287.423
38294.999
36954.709
38606.182
-7963.6163
-7438.4233
-7923.5793
-9601.071
-10483.149
-13974.601
23088.63
22706.849
20840.88
44652.505
39533.029
38276.862
40280.358
35181.6
36786.264
36970.452
34985.73
35792.001
28936.099
26081.832
25272.976
28354.39
26734.404
26976.987
23863.591
19748.216
22026.773
20827.196
21091.331
20422.03
18625.195
15889.024
17408.476
14130.196
13727.369
14072.751
8793.9222
6980.4305
10501.436
3089.5065
3349.6389
5031.1947
-2730.7627
-4440.72
-162.8234
-10910.543
-11162.491
-6924.0004
-18150.146
-19562.724
-14140.51
-26319.117
-27574.305
-21646.38
-34166.631
-35798.944
-29488.293
-40942.412
-42722.207
-36182.948
-45764.116
-47588.121
-41845.45
-47397.956
-50307.098
-43730.998
-44818.036
-50052.208
-42939.056
-35758.038
-41150.691
-36067.14
-28700.344
-29926.627
-28030.981
-9511.4103
-10064.335
-9442.0728
26556.453
20582.398
16710.621
13679.969
11353.693
4620.7104
3936.8394
-1315.3321
-2949.2654
-4327.8283
-2461.3602
761.18367
5792.3973
13055.749
22005.242
31156.055
39646.364
46288.326
49089.857
48598.862
43289.402
32102.269
27745.099
3766.1712
13277.705
3257.2078
9546.4746
6888.1755
8797.2797
8686.1832
9255.9193
10850.364
9892.3638
9617.8229
9241.1714
6126.5151
3774.633
-514.56513
-5737.2703
-11134.879
-17092.411
-22149.709
-25805.771
-26963.143
-27150.587
-13803.106
26594.187
13020.931
21355.931
13127.828
20252.28
17688.379
16443.72
18736.093
12411.015
10823.246
2210.5956
-5570.6359
-16793.253
-28809.525
-41665.48
-54117.546
-64633.922
-72134.629
-74068.51
-69706.07
-58168.079
-38565.493
-13361.224
21674.551
20198.429
19640.527
18121.57
18613.481
17273.815
15133.989
15792.458
15876.642
10755.104
11565.814
10372.175
7923.2101
8026.9187
9030.3595
3771.3101
3854.2304
3260.6526
-975.80493
-366.41255
515.52628
-2919.1652
-2641.777
-2686.943
-5338.5695
-6580.1637
-5451.305
-5436.1553
-5501.7968
-4686.2024
-2994.0964
-4333.3359
-4012.1686
752.0222
-176.23457
981.37562
8381.4203
6641.8042
7326.4937
17397.829
15359.752
16134.575
27927.803
25433.942
26300.384
38704.575
36289.877
36924.482
48457.536
45817.777
46551.581
55658.681
53864.85
53736.7
59259.89
56856.262
58058.601
54756.971
59376.571
56510.506
50979.561
53512.019
50788.063
40267.867
38933.352
38463.026
25637.386
26080.902
26316.284
5885.1755
5688.1804
4944.9801
8760.0064
12862.806
12960.658
4745.0116
2104.0974
3255.0537
4926.1063
6491.943
7926.3667
5340.6139
2222.5197
3525.8461
4064.0045
2178.2545
4703.9738
4443.649
2350.013
4388.2084
5654.1175
2530.7434
3898.3704
4847.8112
3139.338
5275.7489
6998.9163
4890.4523
6138.4738
7460.0865
5568.4936
6368.5416
8375.7496
7007.8831
7487.162
9330.1175
8384.5617
7447.7482
9189.7608
8393.0393
7013.5848
9233.3923
8517.8604
6388.8386
7898.6691
6847.1256
4515.8409
6368.1845
4954.1622
2275.5179
3399.9346
1187.3534
-872.04864
931.64963
-1924.3429
-4018.2241
-3505.9983
-5662.5904
-7876.9958
-10666.769
-672.00126
-8920.5299
-10673.612
-13646.195
-14445.185
-9106.4842
-10842.126
-10396.446
22662.139
23488.243
25250.754
15164.886
14776.111
18357.833
18044.57
23370.287
23041.195
18099.193
16491.605
16790.056
17018.69
20441.444
19706.831
17639.32
18998.412
18428.275
19021.107
19459.326
18331.09
15904.001
18418.98
17863.027
15663.414
15697.816
15583.417
11055.558
12390.842
11678.542
5379.9234
5185.0419
5812.9594
-1443.8242
-2381.3713
-1734.7098
-11087.921
-13362.706
-10942.137
-21264.161
-24636.891
-21785.962
-32839.853
-37691.578
-33364.833
-44518.475
-49802.164
-45096.147
-55048.855
-61059.162
-55693.781
-63522.79
-68658.161
-63645.546
-67511.512
-71791.539
-67699.866
-65291.855
-68715.602
-65410.052
-57356.276
-58780.973
-57445.983
-40389.809
-40425.078
-40000.949
-14504.97
-14735.739
-14001.257
)
;

boundaryField
{
    free
    {
        type            zeroGradient;
    }
    fixed
    {
        type            zeroGradient;
    }
    freeTop
    {
        type            zeroGradient;
    }
}


// ************************************************************************* //
