/*--------------------------------*- C++ -*----------------------------------*\
  =========                 |
  \\      /  F ield         | OpenFOAM: The Open Source CFD Toolbox
   \\    /   O peration     | Website:  https://openfoam.org
    \\  /    A nd           | Version:  6
     \\/     M anipulation  |
\*---------------------------------------------------------------------------*/
FoamFile
{
    version     2.0;
    format      ascii;
    class       pointScalarField;
    location    "1.04";
    object      E;
}
// * * * * * * * * * * * * * * * * * * * * * * * * * * * * * * * * * * * * * //

dimensions      [1 -1 -2 0 0 0 0];

internalField   nonuniform List<scalar> 
28033
(
160385.68
149726.11
-3252835.2
-1517899.8
185340.79
183327.26
-2275614.1
-4870195.5
108463.7
75922.843
51957.203
36279.144
22118.84
13743.385
8945.7509
7124.2094
10730.55
15758.857
27499.354
43069.707
63739.48
87968.859
137245.26
-1815446.8
-1804562.8
-1795493.4
-1788464
-1780985.5
-1773283.3
-1766664.9
-1759297.7
-1752226.8
-1745201
-1738221.1
-1731209.7
-1723906.8
-1717405
-1301841.3
134332.07
89569.951
86425.886
85444.274
87107.616
87420.41
87689.704
87294.268
86359.851
85074.338
83437.518
81545.868
79452.541
77217.504
74858.583
72451.544
70112.36
67556.815
65198.295
62633.168
60363.529
57934.237
55605.978
53292.822
51011.476
49001.142
46643.676
44686.528
42663.917
40645.191
38793.078
36998.5
35280.739
33332.206
31712.961
30143.516
28629.808
27195.798
25700.475
24416.517
23041.204
21759.073
20562.913
19391.153
18275.385
17208.955
16161.446
15178.255
14206.038
13301.536
12404.847
11571.135
10759.091
9990.6223
9263.7809
8568.3866
7916.4116
7298.4635
6722.3866
6185.3775
5671.2709
5226.3001
4786.7047
4468.1827
4029.0117
3784.2417
3575.705
3170.4026
3044.0685
2844.2836
2675.2011
2430.9319
2395.2045
2131.3224
2226.8664
1935.5186
2123.6437
1849.2626
2082.7077
1820.9097
2124.6982
1767.2872
2139.2068
1784.1291
2079.2984
1944.3095
2297.7498
2083.1826
2509.1291
2892.9666
2214.6071
3494.2453
2326.7598
690.69096
2227.865
112186.82
65436.952
75035.13
72377.095
73261.76
74495.367
73906.773
73996.434
73284.633
71817.363
70779.381
68728.235
67034.401
65125.019
63036.67
61092.615
58761.431
56710.18
54597.407
52566.461
50278.215
48452.495
46170.082
44393.76
42274.153
40594.216
38577.612
36787.6
34960.715
33100.917
31408.141
29755.185
28286.027
26830.217
25485.982
24089.232
22597.948
21298.247
20005.46
18910.076
17718.952
16655.883
15617.38
14621.572
13669.457
12768.318
11895.992
11072.063
10289.528
9533.6062
8833.7967
8155.5123
7523.6589
6924.4684
6364.8093
5831.4229
5341.6572
4882.017
4442.9642
4058.3946
3673.8186
3348.7314
3011.13
2753.3476
2454.0563
2281.0077
2062.5177
1990.5085
1828.0065
1555.29
1465.1159
1266.3358
1304.8908
1139.1637
1194.6741
1043.7009
1127.8095
1038.245
1068.0204
1073.9198
1086.2047
1126.2272
1134.1787
1239.128
1193.6719
1351.7193
1374.4655
1446.1695
1492.2146
1795.4337
1468.3055
1796.0444
1936.5374
2005.9575
1307.8161
121298.28
81928.813
58129.069
44540.299
25213.048
15664.358
11081.54
9649.8326
13409.849
23357.017
33333.983
52717.131
75655.273
108794.4
140698.82
232173.72
92763.566
63856.478
86025.982
77252.995
82688.94
80006.336
81427.581
78468.845
78281.481
76421.173
73407.509
72302.991
69120.214
68584.721
65604.772
64235.95
58729.932
59191.12
54063.364
52721.197
51147.119
48683.918
46626.893
44370.246
41795.647
41046.049
37515.305
37094.371
34484.267
32714.427
31139.089
29337.94
27833.017
25420.238
25730.781
23125.001
21967.6
20632.955
19333.43
18145.981
16984.638
15864.395
14807.49
13778.882
12801.738
11844.584
10938.6
10049.687
9210.9991
8399.1352
7632.258
6900.2831
6204.7346
5555.1859
4928.4326
4354.7795
3803.9287
3295.937
2818.2241
2378.6377
1964.0452
1594.0081
1243.1372
920.65958
673.41364
353.80626
-453.01466
1457.9411
-320.922
-345.05134
-537.21309
-670.95734
-768.15779
-862.22167
-953.79885
-1008.9209
-1067.1185
-1111.8098
-1127.6072
-1185.4004
-1161.7937
-1229.7958
-1174.1589
-1242.9597
-1148.457
-1200.457
-1092.1381
-1050.0875
-905.58842
-815.73547
-454.11418
-241.52522
563.99659
-2717.2021
-3651020.8
-3436970
-3066116.5
-3694723.3
-3091131.8
-3724924.7
-3116885.4
-3520222.9
-3770916.1
-3552343.8
-3169138.4
-3820281.4
-3196494.5
-3857335.8
-3640676.3
-3907.6337
152.60921
2719.2991
2616.0193
2277.622
2045.7439
1790.3964
1668.5983
1464.1198
1400.5734
1348.8981
1253.4902
1243.2092
1081.1567
1059.7723
966.89374
989.12639
958.99738
1002.7386
1037.2447
1093.8604
1174.5024
1284.6337
1404.775
1544.9544
2088.2642
2817.6945
1240.7432
2529.5862
2741.7453
3114.5044
3493.3157
3888.2364
4326.8851
4797.1841
5299.25
5838.2748
6409.2254
7024.0441
7665.2438
8357.147
9075.1202
9846.5456
10645.407
11498.106
12383.223
13321.201
14290.509
15321.359
16381.51
17498.022
18643.423
19886.041
21105.643
22420.103
23815.033
25543.768
27235.943
27854.629
30131.879
32024.229
32567.678
35157.573
37246.012
38958.172
41082.5
42774.951
44747.734
46963.59
49548.874
51739.425
53995.746
56192.805
59000.487
60866.919
63622.99
65820.076
68583.045
70842.07
73180.907
76524.201
78152.249
80285.898
82813.792
85330.515
85147.27
88165.365
88080.47
88557.529
86017.717
87357.568
88231.261
87117.717
80462.694
140693.04
121514.57
113063.13
109697.9
109611.18
111781.89
113003.6
112675.76
113468.68
113407.99
112667.55
109434.83
107438.81
109330.55
111740.51
123467.17
101523.42
105425.06
102756.88
108695.33
109025.06
108729.95
116187.78
123994.98
120429.85
119414.41
113641.14
109120.07
107657.54
104815.88
118519.82
-1707028.5
-1707747.4
-1707295
-1707452.2
-1707447.3
-1707430.7
-1707435.3
-1707387.1
-1707342.6
-1707374.4
-1707345.1
-1707362
-1707264.5
-1707474.9
-1707854.9
-3657953.9
-3658480.3
-3658676
-3658698.9
-3658267.8
-3658314.2
-3658284.2
-3658241.3
-3658241.7
-3658155.4
-3658184.6
-3658351
-3658135.9
-3659179.5
-3657748.1
101209.47
79431.669
73951.826
72381.141
72557.528
72626.952
72908.922
72650.71
72049.554
71306.37
69984.565
68628.334
66881.811
65253.486
63166.035
61373.32
59262.202
57311.409
55213.907
53304.944
51302.742
49290.401
47474.355
45466.449
43734.343
41865.649
40079.389
38422.657
36738.103
35108.336
33453.073
32028.254
30473.496
29141.068
27847.224
26456.42
25315.573
23962.974
22897.11
21761.647
20653.391
19533.971
18650.547
17581.147
16724.688
15766.468
14929.073
14083.033
13285.843
12515.318
11787.358
11077.37
10415.853
9773.788
9175.8714
8599.2341
8066.6718
7557.5407
7086.6266
6643.8849
6226.9696
5846.004
5473.4327
5162.8
4691.8102
4535.4379
4328.9197
4221.1095
4033.2956
3680.1055
3619.4262
3375.9677
3360.6369
3183.8422
3106.7775
3031.2352
2921.9911
2920.4056
2761.7057
2874.2706
2664.0966
2803.3447
2922.1369
2654.4165
2749.8456
2573.1371
2833.4581
2581.578
3199.101
2332.1111
3394.2585
2984.744
2887.6482
5456.2214
4690.8063
67497.219
58617.391
58456.113
56810.038
56851.363
56417.974
56183.349
55934.239
55387.265
54769.55
53638.695
52790.887
51446.257
50179.178
48603.599
47348.796
45712.295
44236.551
42664.085
41149.044
39608.651
38131.221
36703.444
35210.702
33838.982
32469.634
31166.252
29803.032
28569.926
27341.394
26152.371
25012.735
23909.205
22788.033
21728.712
20639.375
19788.445
18769.07
17926.793
17030.509
16273.156
15370.022
14685.374
13885.838
13216.562
12529.133
11870.09
11256.735
10646.659
10087.663
9530.7722
9018.1486
8523.0929
8053.6719
7614.515
7195.6567
6806.7164
6440.6064
6095.1
5783.9707
5476.7915
5216.9879
4960.1681
4726.0876
4433.5256
4564.8005
3957.5495
4045.332
3804.5113
3730.7861
3637.8495
3424.7799
3379.7875
3206.1609
3253.2638
3087.146
3155.7673
3013.3018
3146.1983
2938.1302
3215.1076
2860.271
3284.7498
2999.5359
3512.9826
3268.3364
3700.7397
3465.1019
3582.6103
3745.7067
3979.26
3348.3141
4823.6755
3748.0062
4060.0999
42935.127
38825.064
42350.67
42008.056
42564.386
41656.211
41590.533
41098.555
40618.464
39963.516
39303.52
38530.36
37517.592
36577.364
35554.101
34466.706
33299.73
32228.076
31095.181
30002.434
28952.529
27772.949
26807.198
25634.204
24728.303
23651.433
22698.794
21731.441
20876.166
19932.254
19083.768
18265.915
17455.383
16680.478
15993.951
15200.136
14518.488
13718.29
13188.33
12602.136
11883.966
11436.297
10883.239
10321.928
9859.6754
9344.5036
8884.3594
8461.2581
8025.705
7640.9712
7257.5476
6906.3644
6568.9056
6253.4513
5959.1906
5680.5562
5423.0328
5182.1055
4955.1993
4748.237
4553.3809
4372.6782
4207.8796
4030.121
3962.7336
3718.8163
4008.9021
3595.7703
3331.2001
3125.1762
3036.52
2883.2378
2847.7811
2746.5534
2731.3391
2615.5343
2634.6922
2579.6749
2553.5404
2565.4042
2538.4993
2587.2737
2517.3387
2610.2023
2740.7871
2906.3783
3052.3634
2725.4508
3469.0198
2785.1845
3384.3282
3409.6398
3677.7996
3678.8024
3834.5973
27667.432
24336.465
27317.84
28638.544
29173.163
29150.068
29015.053
28874.203
28272.196
28097.736
27358.574
27002.086
26164.047
25734.153
24769.662
24251.512
23363.392
22682.161
21836.367
21105.721
20307.638
19588.992
18882.32
18155.201
17504.758
16787.889
16201.553
15509.42
14894.765
14288.034
13715.414
13127.417
12592.731
12040.898
11599.929
10916.948
10704.155
10254.089
10033.884
9513.6413
9192.0987
8728.7738
8345.789
7991.3855
7703.2401
7353.4829
7076.1203
6778.691
6497.6787
6248.0214
5991.5723
5768.6324
5545.7463
5346.0102
5154.1508
4979.9257
4810.2977
4664.3114
4508.728
4391.7013
4247.9546
4141.7369
4021.1013
3938.8775
3776.7976
3782.3444
3548.6683
3634.3275
3491.5852
3434.8676
3474.0382
3412.2662
3219.3524
3102.4735
3123.2291
3010.6755
3198.9585
2916.4188
3249.5296
2915.5839
3309.9775
2898.7201
3495.1717
2883.6731
3242.8169
2943.5507
3250.6217
3219.8989
3547.8944
3030.5989
4283.821
2947.4638
4728.5361
3257.1916
4476.0057
17209.026
13637.398
16590.629
17336.241
18552.214
18446.069
18658.398
18237.887
18106.114
17780.504
17456.885
17115.328
16691.218
16291.1
15789.034
15410.134
14796.691
14440.49
13897.338
13464.62
13009.43
12528.075
12109.15
11619.794
11224.503
10767.233
10391.678
9947.4757
9650.5116
9222.9454
8901.5161
8545.1169
8211.4509
7914.6516
7573.4935
7182.7313
7297.1773
6467.7426
6734.8792
6568.4113
6245.394
5967.2616
5786.5482
5521.7863
5299.3319
5051.6977
4872.6701
4664.0714
4498.2273
4331.7288
4179.5381
4042.0582
3910.9541
3794.6417
3686.7757
3587.0858
3495.7124
3415.3858
3331.0004
3262.6698
3198.078
3116.2516
3060.6374
3018.6309
2926.2102
2870.752
2978.9776
2718.0513
2768.3557
2572.8873
2654.355
2534.1707
2676.267
2903.2627
2834.0715
2917.5069
2832.0095
2894.1732
2878.921
2898.9172
2850.2951
3077.1183
2763.6205
3124.9106
2948.9825
3079.5679
3297.1699
3041.328
3400.9342
3333.215
3667.2506
3295.5973
4252.5559
3170.5226
4638.6283
9947.318
6866.2416
8224.9297
8889.2354
9772.8101
10237.656
10218.496
10472.558
10246.215
10338.797
9979.142
10046.364
9623.143
9639.4909
9220.8607
9163.7006
8785.5409
8688.1914
8304.3732
8180.7701
7867.4564
7678.8964
7427.9308
7209.624
7016.3831
6792.6075
6602.1732
6390.6054
6186.8466
5967.0818
5814.9904
5592.742
5452.529
5264.6172
5084.671
5024.3358
4761.2341
5150.3582
4992.523
4582.5454
4515.8813
4310.366
4216.2091
4095.8674
3972.8228
3865.8053
3766.6487
3681.2232
3597.4975
3527.8889
3458.2358
3404.8542
3351.6567
3309.4383
3269.8231
3237.7393
3205.9936
3181.921
3152.3824
3137.0431
3089.2767
3094.9697
3040.8682
3010.5507
2985.9126
2966.5265
2888.3234
2871.5686
2884.5642
2841.8744
2722.5671
2737.8799
2521.7275
2365.5427
2581.3989
2464.059
2596.0256
2421.7115
2657.68
2342.1907
2818.817
2278.6517
2915.8864
2482.579
2877.5363
2842.3013
2993.8448
2933.0828
3453.0411
2900.2663
3903.3122
2918.6496
4607.8545
2958.1368
4872.4029
6418.7993
2385.7214
3331.5249
3197.5293
4044.3081
4181.2
4562.7195
4598.6327
4716.0166
4727.2332
4726.1084
4753.1008
4657.0576
4666.2898
4492.9765
4529.8919
4284.3849
4316.3058
4094.9664
4081.3606
3905.4197
3852.7217
3714.8889
3639.3539
3553.479
3435.4441
3388.6221
3276.6901
3243.179
3152.3919
3094.2645
3006.8309
2961.8227
2853.2499
2853.1847
2706.1713
2761.4897
2576.0653
2683.6975
2451.4733
2627.8568
2538.9676
2554.3538
2522.0105
2491.6142
2460.3648
2462.4633
2440.2326
2446.9106
2447.2387
2464.1763
2476.3113
2503.2218
2525.6882
2558.9786
2587.2801
2621.2544
2657.2096
2682.8346
2713.8869
2744.123
2762.2874
2767.0011
2802.3472
2794.1292
2790.4725
2805.0364
2801.3222
2816.9716
2733.9306
2888.017
2728.5024
2769.893
2782.6978
2747.7643
2846.996
2686.8534
2890.4065
2733.1185
2977.6828
2796.2455
3043.6438
2995.6282
3002.648
3196.0856
3017.2728
3234.8138
3165.8017
3408.2936
3185.7694
3889.4934
3245.9337
4433.2883
2909.0269
5275.8744
4668.3578
766.15987
667.84442
534.6125
803.81836
1243.6214
1410.2956
1737.3474
1838.6082
2113.6315
2077.8856
2351.8804
2243.7078
2461.0079
2376.1471
2534.5497
2425.068
2598.3647
2456.9738
2601.4229
2483.8909
2555.7417
2509.8929
2573.0756
2538.8135
2560.9472
2552.8215
2538.8571
2532.7241
2494.7077
2497.0286
2482.3672
2450.0817
2460.7154
2422.9985
2433.1647
2385.1585
2467.6568
2362.9649
2343.1748
2316.2827
2248.6764
2223.9001
2228.8453
2216.7312
2248.1773
2252.5081
2275.1251
2292.4987
2322.6554
2346.1615
2385.1268
2415.04
2457.0668
2494.7614
2531.2807
2573.1433
2607.9051
2631.2248
2677.2836
2682.8616
2703.4743
2718.0056
2724.7478
2696.8766
2712.4538
2687.5766
2659.8639
2594.1685
2647.1934
2491.7933
2518.4579
2498.4966
2415.7565
2453.1072
2372.2347
2441.3964
2384.2204
2461.1513
2328.3457
2570.012
2279.2952
2667.717
2328.1065
2749.9015
2553.0086
2879.3096
2901.3786
3077.1618
3030.6148
3625.5943
2686.5355
4336.8206
2867.7323
5310.2255
6025.7148
1306.6369
943.96666
331.90622
426.07601
672.31355
856.65197
1024.1797
1220.1788
1369.6796
1506.6931
1630.0818
1703.0059
1820.7485
1796.6684
1924.7371
1834.7399
1959.3963
1872.9283
1994.8947
2037.616
2183.7376
2070.2334
2076.4883
2021.6792
2019.2084
2005.5403
1974.6348
1994.8753
1947.5235
1971.7019
1903.8163
1908.2346
1879.7738
1840.7391
1828.8714
1796.3101
1795.5865
1754.9657
1731.6634
1718.6327
1725.7511
1733.3458
1728.7382
1735.8839
1718.6697
1739.6694
1744.596
1776.7459
1798.7581
1844.4711
1878.9136
1929.8487
1979.2142
2030.6254
2083.5276
2140.2368
2183.5234
2240.776
2283.7614
2313.7387
2364.4761
2382.8525
2404.9864
2421.4203
2452.7315
2436.8266
2438.9531
2503.4613
2428.9685
2484.5339
2508.5434
2366.7401
2496.486
2426.9919
2592.5661
2446.4356
2654.7973
2409.3941
2803.025
2485.4402
2816.9232
2801.2285
2697.7713
3169.6687
2675.5703
3248.441
2867.6795
3079.2359
3247.9175
3255.9356
3249.2003
4217.9312
2883.1107
5294.231
9970.2796
4678.0535
4126.5437
3466.9441
3647.8806
3789.4085
3967.4802
4096.8713
4322.9298
4603.9521
4606.0088
4902.2584
4905.309
5029.9956
5035.2613
5097.8838
5000.5247
5093.2834
4873.4548
4895.678
4848.768
4663.1474
4436.0338
4384.0316
4327.9371
4282.4496
4168.3674
4134.6361
4028.9302
3956.7889
3867.38
3784.6105
3715.5282
3607.5617
3560.3599
3465.3085
3385.5991
3328.4107
3219.3184
3189.8419
3100.6735
3061.8068
2956.4429
2928.7558
2862.3818
2839.1788
2805.25
2788.0285
2764.6195
2762.4798
2754.5787
2758.2847
2766.7838
2778.6381
2791.1875
2810.9004
2822.2054
2841.3054
2853.7064
2856.8041
2869.6994
2872.5118
2851.5789
2863.9783
2823.9686
2810.6877
2759.6624
2784.3079
2681.4614
2686.6322
2664.4195
2572.6439
2595.4605
2653.2041
2492.34
2410.8119
2482.493
2379.8561
2616.8042
2351.282
2630.555
2475.4645
2600.9562
2594.1441
2692.4961
2652.6342
2840.8366
2874.5904
3013.4108
2995.2404
3364.4616
3030.5599
3689.8945
2806.5384
5369.6506
11490.113
8512.8018
7463.5771
7430.1683
7379.5825
7590.9212
7456.3841
7563.8416
7749.0117
7865.5749
7821.7613
8045.6823
7912.119
7960.9673
7814.9993
7763.3791
7566.2079
7484.8062
7233.8369
7150.5862
7025.6602
7844.8901
7321.7955
7222.0999
7052.9394
6757.4299
6607.5384
6304.2544
6138.4501
5874.3465
5693.1513
5500.6227
5240.0128
5089.7568
4840.0114
4654.2779
4461.5491
4266.4181
4104.5347
3910.0689
3761.9323
3577.514
3460.8826
3303.8941
3193.9028
3057.532
2961.9655
2855.1057
2779.3577
2702.1697
2645.7205
2592.1125
2555.4423
2519.5825
2497.2064
2475.1487
2460.2409
2449.9401
2431.6478
2424.5058
2416.8253
2387.6599
2386.6881
2377.032
2342.4906
2347.994
2337.1303
2286.4194
2281.8513
2287.9587
2225.8805
2272.4981
2235.3894
2226.4174
2610.3123
2535.295
2493.0995
2606.5711
2447.75
2717.0263
2568.1191
2796.4248
2753.4505
2903.3681
2972.8692
3027.9963
3261.9042
3163.8766
3431.6679
3481.6431
3459.6935
3596.7301
3986.1833
3687.9098
4974.0129
27811.722
16608.394
17381.183
16725.799
16837.79
16314.797
16472.682
16442.505
16442.455
16479.427
16488.686
16393.61
16262.49
15996.143
15850.474
15396.316
15147.152
14708.172
14315.184
13931.105
13408.968
13027.921
13571.316
13420.613
12918.709
12582.324
12087.717
11699.568
11253.649
10814.816
10446.696
9995.4247
9613.7396
9234.9997
8857.5215
8518.0501
8136.4307
7829.0318
7452.0344
7178.1976
6822.0974
6568.199
6253.7471
6006.4538
5742.4817
5517.6038
5293.4048
5099.2229
4906.5051
4740.5712
4582.5157
4440.5911
4312.4024
4193.7859
4087.6891
3987.5123
3899.3883
3810.7754
3728.9223
3659.4177
3569.4144
3507.9801
3428.922
3365.5784
3267.7878
3222.6319
3114.6687
3080.8317
3018.111
2940.1326
2911.2826
2832.8734
2826.2172
2792.1974
2708.4755
2615.368
2633.3115
2553.5559
2635.113
2595.7608
2593.0712
2664.3396
2556.0639
2746.9857
2521.8341
2847.3385
2507.1244
2852.3615
2737.5673
2823.3457
2988.102
3095.1115
3310.868
3088.3207
5141.1042
42802.561
33493.256
32305.769
31149.051
30236.303
29748.598
29856.486
29217.256
29596.642
29211.434
29059.102
28739.518
28222.751
27677.304
27101.745
26191.554
25645.072
24623.234
23973.435
23031.085
22309.921
21474.941
20567.169
19703.888
18987.211
18016.442
17410.495
16537.378
15796.7
15114.839
14375.933
13774.305
13078.154
12512.567
11848.352
11219.147
10669.825
10074.241
9579.308
9012.6658
8561.9799
8052.9411
7622.4695
7170.0229
6767.5618
6364.9436
6000.7641
5647.3697
5324.1631
5019.4446
4738.8693
4475.8699
4236.944
4011.7137
3807.5556
3617.5148
3441.6188
3278.0056
3131.1344
2984.7462
2855.7342
2733.7292
2610.715
2511.4653
2410.2459
2346.8812
2269.6317
2195.4799
2090.561
2072.0593
1969.3798
2003.6499
1911.4163
1905.5196
1939.0288
1886.079
1898.9213
1943.5665
1923.5528
1992.1046
2046.6599
2094.7082
2190.5464
2266.5648
2373.2511
2502.0798
2528.4419
2947.022
2600.028
3282.3742
2884.5915
3395.5007
2790.4333
3839.1553
4837.0704
64098.313
50680.195
48038.735
45517.297
46071.711
45522.919
45440.103
45621.258
45820.325
45316.434
45090.885
44333.576
43606.902
42595.571
41535.745
40333.759
39147.688
37845.047
36552.773
35294.151
33931.904
32675.098
31363.288
30306.181
29028.219
27906.35
26814.657
25656.123
24586.081
23512.341
22481.949
21445.205
20417.915
19549.175
18560.328
17737.076
16862.775
16083.965
15227.936
14509.376
13739.472
13046.55
12357.073
11716.702
11091.591
10511.923
9946.5011
9423.5618
8920.2367
8449.7821
8007.5675
7588.3659
7200.8325
6831.3713
6493.6603
6168.7072
5871.2576
5593.5482
5324.2749
5087.2904
4848.8556
4645.8191
4425.3407
4261.1465
4040.3649
3903.9096
3729.6387
3609.2438
3497.8179
3354.3873
3316.2233
3158.9944
3143.2014
3037.6887
3057.4936
2930.7318
2984.9152
2910.0135
2916.9564
2953.5193
2898.0179
2984.3039
2913.498
3040.6723
2927.7519
3073.9691
2999.5061
3086.307
2895.5476
3370.7277
2697.9653
3427.8871
2941.6828
3023.8555
4304.1785
79051.536
62003.378
58938.357
57534.473
60119.11
58776.686
59946.09
60169.318
59980.96
59740.968
58732.486
58026.116
56731.879
55106.136
53890.349
51820.335
50656.989
48562.271
47069.583
45059.309
43728.483
41496.376
40452.887
38284.832
36963.17
35246.622
33687.722
32412.911
30794.775
29749.646
28175.552
26938.583
25546.582
24264.518
23069.663
21883.039
21038.705
19762.929
18872.313
17772.133
16879.16
15926.768
15061.336
14203.83
13398.328
12622.711
11884.329
11188.585
10518.249
9895.4037
9296.0112
8735.6341
8205.6174
7707.5813
7236.6669
6797.0516
6387.7001
5994.392
5640.6439
5298.0111
4989.6729
4693.2019
4432.6311
4180.6889
3934.6815
3708.2661
3452.9889
3307.855
3097.3261
3204.4763
2887.4856
2933.944
2753.6958
2739.223
2637.4501
2637.9518
2574.1426
2585.1651
2587.418
2560.6344
2590.748
2619.7474
2636.1586
2677.5448
2754.0039
2804.0445
2827.4354
3059.5454
3058.8734
3258.7403
3532.0942
4066.6933
3584.8805
4735.9927
4545.3451
67924.619
63167.811
53639.788
52179.953
51004.831
51237.16
50146.608
50883.601
51080.659
50989.702
50777.355
50486.738
54223.617
57910.416
71722.667
47187.642
37992.699
33225.758
32670.419
30580.251
30362.806
29414.822
29869.926
30234.737
29916.973
30318.691
31106.224
33486.566
38207.289
48107.405
31212.483
23841.938
17866.049
16707.731
15145.419
14727.901
14498.422
14166.748
14291.595
14422.881
15094.395
15764.314
18013.513
23151.096
30947.934
20310.889
15459.917
11997.679
10323.291
9725.458
9197.5895
9035.4504
8731.6851
9039.1812
9223.9338
9695.9348
10284.732
12805.214
15990.435
20668.168
12508.071
9268.3879
6345.9821
5458.394
4716.3497
4422.5407
4242.2498
4120.6494
4189.6334
4397.0783
4649.0518
5481.3368
6905.8533
9003.8273
13352.057
9069.5216
5796.0198
3910.3677
3298.496
2803.1471
2613.7052
2482.3249
2464.1661
2512.4772
2575.9537
2954.801
3255.8255
4187.1126
5973.9811
9130.681
5176.6005
3308.1002
2241.8905
1628.3827
1372.9111
1117.3248
1034.8013
970.42895
1005.2366
1100.8906
1285.1038
1690.2033
2304.8929
3666.1242
6259.0054
4721.8794
2762.9041
1692.6733
1294.3085
970.92491
829.30207
744.63768
738.64839
803.7939
882.24224
1147.1461
1474.3679
2101.6564
3341.4639
6011.7236
5451.1053
3405.8679
2238.0121
1661.7304
1297.1228
1090.539
984.99664
993.18399
1014.6051
1262.4676
1389.6781
1838.6203
2526.052
4144.2532
6362.0143
8619.1869
6102.1017
3742.0616
3054.0653
2363.5157
2159.4298
1966.5515
1956.3766
2017.4851
2149.9602
2775.6893
3016.8768
4614.6901
7079.1203
10934.63
12111.689
9255.2717
5814.1386
5062.4322
3964.7164
3765.85
3429.1068
3522.8233
3571.0487
3849.5473
4489.0381
5426.6162
7334.044
10419.971
14538.715
20716.31
14086.557
10510.538
8888.477
7651.1072
7002.2425
6765.6764
6630.5505
6872.8463
7163.5381
8198.9296
8278.9597
11794.439
16049.332
22484.667
27952.414
22914.255
16779.732
15067.919
12976.045
12857.021
12004.294
12492.982
12536.753
12427.235
13913.949
14784.848
18114.43
24520.626
28454.048
44522.015
36944.552
28830.394
27062.027
24579.605
23812.952
24094.477
24498.529
24059.669
24455.337
24826.282
26417.424
29978.254
34986.142
49103.96
60357.594
64283.704
49484.472
48243.024
44943.733
42113.19
44768.103
47231.05
43827.095
46753.329
45611.072
47445.551
51293.221
58341.841
72285.947
145810.68
120557.14
120066.25
124179.94
126093.17
125614.02
132946.19
140671.47
143103.67
141067.77
136779.45
129734.21
128503.23
132104.2
128105.13
105756.61
95035.48
89386.432
86407.469
82859.099
85173.515
84255.059
85062.663
90881.355
86203.546
87733.034
86321.022
92315.447
98440.077
113674.66
88721.956
91742.479
86954.079
84404.163
84350.179
77758.464
77607.705
78888.268
75210.838
81504.251
81479.857
88950.29
92449.157
93284.864
95978.084
84304.072
93450.033
92525.204
89434.896
88147.099
86710.509
86219.621
86658.921
86873.372
87910.286
90595.244
93800.052
94842.599
96753.85
89350.63
84663.973
90890.073
92994.133
94867.395
92452.931
91810.158
91901.204
91328.848
92454.261
94189.358
95125.72
97283.228
96976.492
93442.222
87285.667
82428.449
90938.217
91971.368
93076.967
93868.732
93336.844
92929.816
92957.69
93353.676
93864.003
95194.429
95881.574
94542.517
92305.06
85169.633
81981.258
87937.73
90750.925
93351.878
93353.039
93939.185
94280.621
94412.734
95029.241
95512.264
95140.094
95020.256
93166.707
88492.495
84921.243
81245.096
85778.627
89002.017
91035.68
92770.151
92760.967
93205.406
93728.105
93544.032
94039.4
93614.678
92390.672
90818.68
85785.744
80613.573
78650.245
82771.411
85943.059
88156.12
88800.576
90142.565
90520.147
90563.823
91183.736
90335.149
89882.883
88618.816
86397.209
83171.314
80467.341
77683.638
80340.044
83436.925
85159.845
86895.961
87463.15
88115.78
88415.696
87721.646
88379.692
87233.751
86383.462
84176.206
81373.347
78502.592
74851.749
77531.082
80254.182
82022.468
83260.386
84362.521
84965.954
85180.114
85712.635
84678.706
84706.804
82925.019
81539.753
78818.293
76498.998
73729.608
74750.979
77216.102
78786.95
80114.053
80795.363
81376.623
81555.607
81379.763
81214.121
80169.386
79345.926
77511.354
75592.114
74365.455
71034.089
72465.649
74224.33
75576.732
76798.474
77620.317
78267.846
78553.603
78991.212
78424.148
77973.115
77011.716
75416.587
73996.745
72079.799
68823.734
69551.956
71893.975
72579.651
73908.054
74400.992
74917.715
74905.147
74872.123
74441.075
73750.22
72990.993
71542.686
70314.471
69782.114
66595.729
67077.591
68714.208
69731.702
70831.865
71126.847
72197.155
71545.595
72357.379
72040.483
71768.674
71086.884
69568.481
68988.097
67572.255
64073.088
64593.053
66380.014
66835.189
67624.037
68372.134
69096.329
68660.862
68533.603
67987.922
67477.461
66880.138
65639.93
64967.212
64455.83
62342.784
62046.364
63586.793
63610.022
65258.041
65211.787
65851.343
65686.766
66316.042
65945.802
66014.736
65248.977
64900.394
63115.101
63567.365
59599.096
59903.472
61336.137
61623.848
62049.961
62704.049
62800.556
62947.09
62841.124
62410.203
61815.39
61224.452
60884.527
59795.64
59394.523
57708.439
57364.023
58740.828
59153.157
59823.799
59851.642
60408.15
60095.599
60563.485
60181.994
59733.211
59785.853
59165.709
59043.799
58607.433
55178.139
55214.431
56104.106
56381.898
56918.368
57322.468
57848.153
57666.492
57764.271
57347.978
57261.61
56678.562
56178.391
55306.641
54902.935
53116.98
53024.635
54195.755
54209.701
54725.048
54590.897
55220.799
55052.49
55275.453
54777.976
54898.031
54517.24
54624.671
53756.313
53725.128
50736.116
50731.016
51541.637
51884.905
52208.01
52661.216
52746.954
52741.693
52685.085
52966.006
52465.214
52136.792
51257.041
50515.044
51198.471
49038.617
48512.448
49695.386
49551.873
50202.537
50173.217
50551.013
50240.448
50576.577
50098.842
49842.338
49553.984
49296.675
48827.333
48875.759
46529.975
46668.435
47243.419
47584.641
47678.646
47776.093
48124.423
47964.418
48134.373
47902.127
47729.957
47538.473
47513.662
46493.41
46889.963
45243.357
44583.861
45164.617
45045.434
45748.704
45540.309
46196.55
45760.868
46079.298
45750.056
45792.385
45335.145
44650.647
44286.362
44704.191
42419.606
42245.252
43266.292
43060.509
43485.95
43629.421
43889.34
43535.106
43935.006
43437.994
43627.193
43571.266
43216.932
42679.676
42552.173
41144.184
40456.611
41100.338
40933.778
42018.335
41500.964
41908.172
41687.962
41877.712
41605.456
41502.734
40850.635
40814.61
40240.432
40781
38726.859
38340.776
39339.428
39115.878
39394.612
39411.232
39740.611
39535.265
39813.704
39474.238
39581.553
39328.413
39023.729
38760.233
38551.789
37392.115
36679.502
37350.835
37137.767
37708.77
37593.677
37880.659
37706.123
37850.664
37597.036
37520.167
37338.19
36808.976
36302.905
37025.338
35304.742
34519.193
35490.581
35323.293
35909.072
35807.796
35968.312
35730.702
35741.799
35563.768
35640.784
35233.732
35347.557
34734.026
35093.704
33760.446
33003.847
34024.492
33596.309
34115.702
33934.749
34223.37
33889.041
34266.583
33779.482
33994.368
33523.573
33555.224
32751.959
33322.198
32324.851
31131.063
32145.474
31770.631
32441.092
32088.656
32531.525
32169.135
32509.442
32058.098
32184.415
31801.358
31804.122
31192.473
31681.616
30537.38
29540.873
30572.802
30192.905
30734.564
30468.181
30939.299
30433.558
30824.542
30349.017
30631.79
30095.616
30219.863
29507.094
30049.456
29013.623
28001.906
28934.482
28502.765
29144.844
28825.88
29263.19
28873.381
29205.347
28800.175
28921.481
28528.73
28618.02
27969.781
28496.383
27385.439
26509.328
27510.477
27337.078
27547.236
27328.953
27702.665
27379.681
27679.746
27350.9
27478.126
27112.501
27171.066
26680.282
26807.495
26144.772
25271.899
25765.102
25587.092
25949.396
25847.106
26115.62
25897.537
26077.645
25514.363
25888.332
25503.357
25572.824
24919.09
25659.378
24382.61
23702.467
24458.317
24168.531
24663.86
24352.742
24764.114
24367.455
24654.791
24425.4
24475.855
24120.978
24136.973
23662.611
24092.674
23307.019
22440.508
23229.699
22978.274
23292.978
23109.519
23422.569
23078.36
23413.536
22941.713
23264.444
22670.67
23000.133
22218.385
22797.118
22252.971
21025.139
21990.834
21476.055
22138.058
21683.099
22214.662
21711.586
22098.468
21652.962
21847.962
21484.46
21638.167
20968.923
21582.657
20887.007
19826.273
20741.066
20351.862
20815.824
20487.229
20949.607
20457.706
20908.986
20364.943
20721.675
20150.434
20440.292
19739.968
20352.421
19802.769
18656.2
19611.18
19087.637
19701.696
19260.636
19766.54
19285.706
19665.145
19237.522
19495.5
19015.075
19292.57
18557.769
19203.238
18636.42
17555.805
18451.939
18024.82
18551.408
18137.49
18671.255
18107.905
18595.197
18063.375
18376.517
17879.388
18153.245
17443.981
18105.011
17607.254
16473.54
17413.588
16912.522
17460.718
17058.473
17528.27
17053.961
17461.742
16984.424
17295.345
16792.014
17080.171
16370.757
17028.029
16556.682
15473.645
16368.086
15879.493
16440.474
15999.382
16531.144
15994.868
16427.249
15958.783
16242.949
15769.465
16051.469
15349.698
16010.157
15594.765
14482.64
15386.781
14892.342
15411.705
15024.986
15506.159
14994.462
15423.06
14952.035
15238.929
14776.648
15048.809
14362.208
15021.173
14643.69
13548.212
14456.037
13912.727
14464.481
14053.45
14546.521
14037.035
14448.221
14001.264
14271.121
13829.788
14092.744
13421.507
14072.494
13740.664
12656.579
13531.429
13009.984
13536.117
13145.168
13637.488
13110.82
13528.669
13082.334
13340.893
12913.965
13164.912
12511.267
13153.834
12885.207
11783.469
12681.549
12126.848
12649.129
12270.809
12742.785
12222.826
12638.823
12198.102
12451.132
12036.646
12286.273
11644.022
12276.274
12044.398
10972.456
11840.673
11279.069
11812.261
11437.357
11909.926
11387.799
11799.228
11359.557
11602.53
11196.403
11437.639
10799.96
11429.103
11268.964
10183.152
11047.09
10492.628
11006.156
10628.856
11087.413
10560.03
10973.268
10538.66
10778.845
10382.104
10627.332
9996.6025
10624.866
10507.584
9430.6792
10295.3
9721.787
10228.69
9866.3682
10323.655
9804.6525
10218.893
9782.0072
10010.601
9623.5566
9857.7312
9227.7209
9852.6888
9793.1313
8726.8832
9568.8921
8995.7857
9504.9287
9133.9945
9573.5558
9050.0554
9457.4519
9021.2087
9255.667
8875.0204
9111.6316
8491.6551
9115.8894
9117.0981
8045.6195
8881.9604
8314.3685
8803.188
8432.982
8875.45
8361.7337
8770.2813
8342.5589
8563.8545
8188.2922
8419.573
7798.167
8417.6924
8469.2324
7404.876