/*--------------------------------*- C++ -*----------------------------------*\
  =========                 |
  \\      /  F ield         | OpenFOAM: The Open Source CFD Toolbox
   \\    /   O peration     | Website:  https://openfoam.org
    \\  /    A nd           | Version:  6
     \\/     M anipulation  |
\*---------------------------------------------------------------------------*/
FoamFile
{
    version     2.0;
    format      ascii;
    class       pointScalarField;
    location    "1.51";
    object      E;
}
// * * * * * * * * * * * * * * * * * * * * * * * * * * * * * * * * * * * * * //

dimensions      [1 -1 -2 0 0 0 0];

internalField   nonuniform List<scalar> 
625
(
26868.576
22991.934
16746.18
-957.2742
27433.802
21123.233
-1004.2923
13253.434
4271.2287
2704.1666
14129.79
-7494.8374
-13294.142
25824.195
32211.52
26429.982
26563.773
27090.12
24836.638
26397.526
25191.918
22564.955
21308.954
14529.897
8913.2153
128.61744
-8797.3866
-20232.574
-30653.148
-42366.04
-51692.958
-60021.575
-60820.264
-58902.469
-48969.143
-38640.019
-12915.189
40067.623
21218.543
30098.892
20236.828
10908.731
10118.456
-1100.6855
-2978.9158
-5347.1335
-6172.7579
-724.92194
4969.6265
16361.791
29507.108
45936.394
62326.234
78762.887
90881.02
99034.853
98167.589
89462.726
73054.077
41361.396
6036.7642
2011.8005
12989.989
46968.073
58635.96
27962.58
31589.95
28429.851
9932.9794
9352.6846
6426.5038
1608.6136
3651.526
2761.3084
11077.835
18003.842
30459.117
44474.891
57260.819
70500.056
78422.762
81947.961
78506.91
68430.673
51801.169
36994.491
18126.474
-11443.217
-7468.3884
-7311.677
-17638.634
-26700.627
-33705.401
-36731.814
-35524.968
-32591.087
-27031.022
-21156.238
-14538.357
-9009.3006
-2602.2808
2380.2233
8707.6096
8679.2869
11770.551
17042.624
17567.954
21517.076
18376.31
28539.342
27352.53
38860.801
19190.089
20334.265
18724.12
18044.466
15868.519
15038.386
-1953.0905
-739.8762
-1991.0013
15321.315
16076.237
15112.065
12021.038
6678.6866
8302.9773
5622.8339
2661.9765
1576.5878
-2743.2095
-4633.9527
-6295.0116
-7058.5985
-4351.6315
-689.1249
6316.589
15407.941
26282.164
37363.659
47818.232
55586.842
59974.437
58126.227
54511.98
42341.852
24430.902
5890.1512
3939.8837
4622.0642
2056.7652
2019.4429
815.53361
-1421.1314
-149.72175
-728.09483
1712.3906
3487.8495
6809.5091
10529.992
14232.248
17613.409
20140.203
21726.392
21218.426
20391.165
15202.976
11806.241
4369.543
-383.93679
15430.755
12548.035
13208.641
12963.303
15099.226
14024.14
16702.625
14579.325
13034.074
10424.076
4609.9612
-673.55429
-9508.1419
-18857.147
-30562.761
-42444.271
-55329.041
-65214.005
-73817.022
-72818.468
-65987.343
-49527.593
-18511.913
2248.0891
2784.5281
2782.2248
1556.8119
916.34082
2645.8624
7722.2024
7494.4517
8078.8232
42606.236
44560.738
44668.49
46441.523
41885.274
43587.927
28622.323
24061.581
31814.944
24087.763
26095.401
23481.306
20382.917
14286.057
23390.092
11023.098
12908.194
11601.319
8523.7791
3653.9252
9519.1307
3479.9016
-2716.012
4613.4121
27.095311
-2488.7646
503.59846
2692.9708
-3830.6761
2872.655
3440.2391
73.082163
3690.1757
12598.672
6755.8077
11987.304
21700.295
17895.18
22412
36627.2
31966.219
35529.881
51929.333
48543.181
52484.736
68564.851
65855.805
68337.067
83454.261
81360.879
83279.759
94183.204
92648.255
94296.674
99323.347
98430.604
99234.735
96461.776
95255.556
95922.905
85174.056
84737.133
85306.996
65833.509
66496.08
67152.123
41394.466
39839.173
41798.907
-8581.5634
-7856.7178
-8120.5944
-9840.3866
-10653.608
-13831.407
24735.495
24531.383
22731.085
34076.106
29566.63
29040.234
32720.317
27726.9
29370.031
33022.805
30432.682
31204.494
27495.66
23995.08
22611.349
29580.086
26849.591
25916.194
26352.748
20917.849
21697.618
24780.439
23425.388
21405.559
23232.899
18780.854
18714.993
19499.47
17190.241
15899.933
14284.292
10468.798
12678.845
8657.668
7174.1771
7477.1298
2338.4229
-941.38307
2019.2845
-6681.6674
-8252.155
-5080.8575
-15251.245
-17643.093
-13047.994
-25062.467
-26976.232
-21532.833
-34753.423
-36688.27
-30542.087
-43241.022
-45090.927
-38369.028
-49515.089
-51172.961
-44929.913
-51925.716
-54578.972
-47366.675
-49175.835
-54579.93
-46467.636
-39522.986
-44991.615
-38956.534
-31370.981
-32169.882
-29673.756
-10246.14
-10527.761
-9634.2027
20665.331
16114.581
12977.416
11470.747
9677.4616
4141.6074
4097.4543
-1110.2905
-2514.2955
-3979.447
-1944.2634
1318.0101
6998.2003
14946.556
24631.518
34362.685
43114.758
49628.947
52033.411
50977.124
45026.562
33523.009
29146.188
2213.3142
11026.229
1560.4413
7657.5614
4841.3151
7000.3228
7327.9929
8183.0108
10619.844
9947.9537
10063.522
9650.9439
6528.2882
4163.1786
-122.32329
-5310.7693
-10770.065
-16935.203
-22339.461
-26418.739
-27965.615
-28105.924
-14221.895
19337.287
9425.9735
17834.371
11913.689
20583.888
18992.15
18395.533
20954.081
14670.046
12987.415
4444.0475
-3307.4135
-14481.955
-26691.551
-40025.699
-53373.454
-65148.102
-74112.558
-77450.27
-73950.401
-62445.006
-41724.807
-14187.124
15833.066
14837.241
14777.416
13573.273
13618.264
12883.93
12373.139
12303.619
12825.687
9548.3012
9896.4002
8515.5699
8479.9563
7672.3664
8062.5218
5465.8886
4527.4636
3246.8071
1799.7183
1434.8163
1336.2318
384.97213
-464.35583
-1712.0008
-1815.087
-4084.8409
-4288.9328
-2024.2388
-3146.1134
-3695.8348
286.22423
-2000.831
-2909.277
3810.0984
2018.7181
2016.8342
11509.3
9036.0072
8720.4564
20709.053
18060.027
18035.621
31593.511
28610.887
28859.273
42671.111
39914.157
40087.495
52577.34
49701.836
50102.547
59606.96
57726.638
57403.625
62796.289
60457.614
61460.186
57491.288
62660.731
59472.607
53102.518
56035.207
53109.121
41907.835
40767.15
40350.612
26778.094
27401.84
27671.165
3779.7444
3776.3899
3275.1786
7027.333
10217.101
10456.787
3666.3596
897.69566
2306.4009
4185.7735
5486.877
7033.574
4743.3733
1533.4171
2825.265
3743.5444
1609.9537
3978.3543
4348.5863
2010.1501
4002.5882
5786.6861
2362.4078
3640.5403
5303.3573
3425.9574
5557.9195
7674.3434
5342.3704
6630.4961
8276.5621
6247.4556
7214.6901
9221.7134
7734.0516
8520.5421
10176.989
9170.7145
8569.291
10025.738
9195.4446
8227.9456
10089.282
9399.8984
7660.8051
8757.4986
7807.428
5787.4654
7184.7069
5889.4422
3435.29
4033.5265
1985.3658
45.211096
1304.9255
-1446.1433
-3458.6904
-3749.2124
-5431.3724
-7698.6623
-11096.832
-960.31891
-9035.1023
-11212.601
-13997.442
-14715.637
-9490.0551
-11155.111
-10664.528
16929.988
17322.785
18513.254
10390.913
9872.5752
12714.819
13970.397
19328.917
19334.879
15388.019
14227.469
14908.37
15281.879
19509.034
19515.582
16855.922
18851.224
19062.289
18797.514
20087.824
19828.544
15719.893
18933.935
19374.742
15791.271
16531.831
17341.56
11016.553
13024.32
13233.388
5463.8499
6028.2845
7427.8899
-1311.6433
-1495.2008
-161.59524
-10860.433
-12298.33
-9363.2473
-21103.516
-23670.788
-20417.786
-32943.784
-37037.192
-32433.001
-45285.764
-49906.621
-44999.705
-56791.262
-62296.789
-56768.878
-66565.415
-71322.981
-66123.77
-71833.955
-75781.326
-71504.686
-70359.322
-73676.467
-70121.693
-62591.718
-63691.746
-62127.873
-44448.473
-44246.292
-43526.726
-15990.143
-15975.568
-15117.509
)
;

boundaryField
{
    free
    {
        type            zeroGradient;
    }
    fixed
    {
        type            zeroGradient;
    }
    freeTop
    {
        type            zeroGradient;
    }
}


// ************************************************************************* //
