/*--------------------------------*- C++ -*----------------------------------*\
  =========                 |
  \\      /  F ield         | OpenFOAM: The Open Source CFD Toolbox
   \\    /   O peration     | Website:  https://openfoam.org
    \\  /    A nd           | Version:  6
     \\/     M anipulation  |
\*---------------------------------------------------------------------------*/
FoamFile
{
    version     2.0;
    format      ascii;
    class       pointVectorField;
    location    "1.51";
    object      u;
}
// * * * * * * * * * * * * * * * * * * * * * * * * * * * * * * * * * * * * * //

dimensions      [0 1 0 0 0 0 0];

internalField   nonuniform List<vector> 
625
(
(0 2.9833559e-19 0)
(0 2.6098061e-19 0)
(-1.7744787 -0.56394487 -0.10294202)
(-1.8684432 -0.14125298 -0.11251873)
(0 3.8858588e-19 0)
(0 2.0408763e-18 0)
(-1.8729128 -0.10938683 -0.11267642)
(-1.7791233 -0.53180335 -0.10363353)
(0 -4.5498875e-20 0)
(1.9784079e-19 -4.5954912e-19 0)
(0 9.3412942e-19 0)
(-1.7979325 -0.45815188 -0.10526934)
(-1.8211012 -0.3526105 -0.10774273)
(-1.8448106 -0.24713852 -0.11007187)
(-0.0024633605 -0.018261766 -0.018410318)
(-0.014802907 -0.035438598 -0.017676002)
(-0.036795654 -0.055955168 -0.017754736)
(-0.06850797 -0.075789254 -0.017058266)
(-0.10700924 -0.095822349 -0.016782126)
(-0.15462747 -0.11739793 -0.016641554)
(-0.20821528 -0.13908356 -0.017394003)
(-0.26911255 -0.16136856 -0.018336769)
(-0.33618968 -0.18517392 -0.020143857)
(-0.40863095 -0.20863816 -0.022240358)
(-0.48661311 -0.23380525 -0.025098936)
(-0.5692666 -0.25891445 -0.028569003)
(-0.65646432 -0.28486268 -0.032600485)
(-0.74741455 -0.31092447 -0.037213213)
(-0.84201968 -0.33731041 -0.042308627)
(-0.9394959 -0.36367399 -0.047907952)
(-1.0396677 -0.39002659 -0.053800051)
(-1.1418123 -0.41603862 -0.060192367)
(-1.2457839 -0.44189484 -0.066633903)
(-1.350577 -0.46717008 -0.0735399)
(-1.4564632 -0.49206199 -0.080616765)
(-1.5624137 -0.51648508 -0.0878339)
(-1.6686549 -0.54029106 -0.095384204)
(0.00013852721 0.014772531 0.020124501)
(-0.018673072 0.034326693 0.014855712)
(-0.044021725 0.050961432 0.016552702)
(-0.079140071 0.067069547 0.013235607)
(-0.1227884 0.078686314 0.01173372)
(-0.1760782 0.089908343 0.0085978151)
(-0.23551713 0.09620976 0.0058667068)
(-0.30312382 0.10089773 0.0019267963)
(-0.37672495 0.10208989 -0.0018727269)
(-0.45600395 0.10016869 -0.0067334986)
(-0.54089423 0.095684731 -0.011979802)
(-0.63006162 0.088308855 -0.017845227)
(-0.72346769 0.078197275 -0.0243291)
(-0.82016409 0.065797747 -0.031264179)
(-0.91985159 0.051024637 -0.038743121)
(-1.0217802 0.034339523 -0.046536731)
(-1.1256395 0.015849438 -0.054721932)
(-1.2307467 -0.0041511321 -0.063010602)
(-1.3368392 -0.025344504 -0.071550508)
(-1.4433027 -0.047611958 -0.079966895)
(-1.5500235 -0.070508649 -0.08842655)
(-1.6564951 -0.093875676 -0.096669178)
(-1.762772 -0.11757811 -0.10472692)
(0 2.7341465e-19 0)
(-3.5404215e-18 -7.6177948e-19 0)
(0 1.9130096e-18 0)
(-0.0043691385 0.0093225964 -0.013890541)
(-0.019703625 0.041558403 -0.017162838)
(-0.045477105 0.051065732 -0.014663073)
(-0.079319836 0.07125191 -0.015527133)
(-0.12478311 0.0848979 -0.016799001)
(-0.17689265 0.096806701 -0.016838362)
(-0.23710161 0.10528124 -0.019239088)
(-0.30501355 0.11227944 -0.020986574)
(-0.37895295 0.11482617 -0.023365563)
(-0.4590642 0.11581415 -0.026670439)
(-0.54380127 0.11291225 -0.030102031)
(-0.6336772 0.10796423 -0.034370895)
(-0.72703198 0.09983249 -0.038950926)
(-0.82408608 0.089424852 -0.044122687)
(-0.92388648 0.076496282 -0.049671848)
(-1.0259818 0.061396373 -0.055651552)
(-1.1299474 0.044300655 -0.061953601)
(-1.2351448 0.025464483 -0.068609341)
(-1.3412479 0.0051382091 -0.075506645)
(-1.4477538 -0.016425653 -0.082657712)
(-1.5544179 -0.038889425 -0.090010927)
(-1.6609095 -0.062077373 -0.097506503)
(-1.7670264 -0.085694467 -0.105116)
(-1.8492296 -0.21524966 -0.1103141)
(-1.8256272 -0.32042903 -0.1082945)
(-1.8026143 -0.4259761 -0.10601699)
(-1.6733202 -0.50818604 -0.095701452)
(-1.5670106 -0.48431736 -0.087596605)
(-1.460901 -0.46005296 -0.079386513)
(-1.3550027 -0.43544199 -0.071079833)
(-1.2497526 -0.41054511 -0.062819606)
(-1.145658 -0.38540961 -0.054681925)
(-1.0429772 -0.36021258 -0.046726262)
(-0.94234821 -0.33500989 -0.039071875)
(-0.84414368 -0.31000395 -0.03176098)
(-0.74887147 -0.28528463 -0.024893575)
(-0.65709978 -0.26098415 -0.018514088)
(-0.56921572 -0.23720004 -0.012665987)
(-0.48573814 -0.21419499 -0.0072752696)
(-0.40728517 -0.19145224 -0.0027549979)
(-0.33448258 -0.16965846 0.0015872521)
(-0.26689255 -0.14864471 0.0052823424)
(-0.20604547 -0.12877971 0.0085613134)
(-0.15218439 -0.10816299 0.010788479)
(-0.10517171 -0.089989113 0.013869474)
(-0.066069407 -0.069940844 0.014849401)
(-0.034892041 -0.053144127 0.017159828)
(-0.012784048 -0.03198263 0.017792623)
(-0.007281809 -0.0174183 0.01291938)
(0 -4.8693246e-19 0)
(0 -5.0653556e-19 -1.0447802e-18)
(0 -1.4930664e-18 0)
(0 8.495676e-19 0)
(0 -9.4003024e-20 2.9973182e-19)
(0 6.470799e-19 0)
(-1.8695621 -0.13316707 -0.11252311)
(-1.8707367 -0.12519957 -0.11263844)
(-1.871772 -0.11718617 -0.1126202)
(-1.775605 -0.55600118 -0.10316939)
(-1.7768066 -0.54801528 -0.10320547)
(-1.7779163 -0.53999186 -0.10346532)
(0.0012910376 -0.034353092 -0.0094939264)
(-0.011921485 -0.065846272 -0.0069961939)
(-0.031992557 -0.096257855 -0.0086200974)
(-0.061881208 -0.12198149 -0.0082571912)
(-0.097835992 -0.14359301 -0.0092379163)
(-0.14394261 -0.16020748 -0.01014312)
(-0.19652264 -0.17070959 -0.011629272)
(-0.25859704 -0.17693874 -0.013351102)
(-0.32781394 -0.1786086 -0.015837082)
(-0.4055005 -0.17704748 -0.018860522)
(-0.49009216 -0.17393517 -0.022526404)
(-0.58109569 -0.17011227 -0.026839066)
(-0.67732979 -0.16769077 -0.031792102)
(-0.7776986 -0.16781325 -0.037254903)
(-0.88095647 -0.17199976 -0.043288579)
(-0.98580286 -0.18127027 -0.049618672)
(-1.0913067 -0.19645287 -0.056309441)
(-1.196313 -0.21801873 -0.063152613)
(-1.3003492 -0.24606311 -0.070112841)
(-1.4027652 -0.28008407 -0.077216958)
(-1.5036695 -0.31959329 -0.084198381)
(-1.602859 -0.36333772 -0.091328608)
(-1.7009162 -0.41003868 -0.098355583)
(0.0085138217 -0.0018366744 -0.0012457874)
(-0.0075494429 -0.0020744937 -0.0010286318)
(-0.029982268 -0.0044295497 -0.0011648296)
(-0.063340191 -0.0064948522 -0.0023043731)
(-0.10559927 -0.01029002 -0.0031061494)
(-0.15571835 -0.015165548 -0.0045022825)
(-0.21344807 -0.022295446 -0.0060541422)
(-0.27857624 -0.030755205 -0.008533486)
(-0.3497025 -0.041356977 -0.011343714)
(-0.42701014 -0.053571794 -0.014695323)
(-0.50915881 -0.067925476 -0.018708452)
(-0.59616238 -0.083838873 -0.023351525)
(-0.68722759 -0.10158719 -0.028536691)
(-0.7818282 -0.12077619 -0.034296114)
(-0.87947939 -0.14135238 -0.040543115)
(-0.97963736 -0.16303849 -0.047184685)
(-1.0819035 -0.18568969 -0.05421997)
(-1.1856798 -0.2089949 -0.061497637)
(-1.290783 -0.23283477 -0.069036436)
(-1.3964609 -0.25682844 -0.076658926)
(-1.5028038 -0.28102875 -0.084450798)
(-1.6090402 -0.30506281 -0.092233616)
(-1.7154601 -0.32905401 -0.10001778)
(0.0090733834 0.033690224 0.0089572476)
(-0.010570032 0.067060833 0.0086187663)
(-0.03577193 0.096264461 0.0079628129)
(-0.075407429 0.11912731 0.0061752025)
(-0.1220772 0.13425704 0.0044600518)
(-0.17721913 0.13878979 0.002088418)
(-0.23887676 0.13526043 -0.00099237505)
(-0.30555467 0.12187577 -0.0042889953)
(-0.37649841 0.10055046 -0.0079051875)
(-0.45153516 0.072170561 -0.012054155)
(-0.5296432 0.038261741 -0.016522662)
(-0.61129188 0.00089203841 -0.02135203)
(-0.69596484 -0.038336625 -0.026531129)
(-0.78414795 -0.077460051 -0.032117197)
(-0.87586027 -0.11476254 -0.038132894)
(-0.97134291 -0.14887199 -0.044594142)
(-1.0706276 -0.17851215 -0.051564025)
(-1.1736885 -0.20298883 -0.059003111)
(-1.2801765 -0.2218981 -0.066852651)
(-1.3898148 -0.23517554 -0.075217756)
(-1.501787 -0.24345155 -0.083677182)
(-1.6154948 -0.24733114 -0.09250231)
(-1.7301988 -0.2480635 -0.10129829)
(0 -3.0564816e-19 0)
(0 5.0924135e-19 1.068155e-18)
(0 1.1070148e-18 0)
(-5.2589044e-19 1.0500511e-20 0)
(2.1965242e-19 -3.2545775e-19 -1.6210052e-20)
(-1.3842504e-18 -1.2449073e-18 0)
(0 4.6979193e-19 0)
(0 1.2625776e-18 -3.3579006e-20)
(0 1.3875055e-18 0)
(-0.0069204576 0.0063874479 0.0086293174)
(-0.0091713341 0.0084837465 0.0017862507)
(-0.008133641 0.0059299275 -0.0045666902)
(-0.027050947 0.038153952 0.0076038485)
(-0.0271702 0.038487502 -0.00011306834)
(-0.025959635 0.037157604 -0.0085926184)
(-0.049646444 0.049429383 0.008311029)
(-0.051846425 0.048333134 0.00068088237)
(-0.051387176 0.052138234 -0.0081055274)
(-0.085025009 0.067149122 0.0057500646)
(-0.086804849 0.069505666 -0.0012531919)
(-0.084925025 0.06890504 -0.0087856518)
(-0.12914657 0.079641073 0.00463813)
(-0.13047711 0.079923838 -0.001777063)
(-0.13004743 0.082708013 -0.0098105179)
(-0.18093305 0.090091997 0.0023467066)
(-0.1829941 0.092447196 -0.0044069305)
(-0.18166668 0.094121074 -0.010945244)
(-0.24111451 0.097707535 -0.0005120979)
(-0.2424395 0.099808702 -0.0057711938)
(-0.24205404 0.10231508 -0.013216024)
(-0.30829588 0.10267386 -0.0036316871)
(-0.30949709 0.10503693 -0.0088196621)
(-0.3093395 0.1080943 -0.015266332)
(-0.38132433 0.10385482 -0.0073722201)
(-0.38299132 0.10728943 -0.012121029)
(-0.38254282 0.11068049 -0.018182188)
(-0.46097816 0.1031847 -0.011643311)
(-0.46219746 0.10688971 -0.015960012)
(-0.46239872 0.11062011 -0.021614919)
(-0.5451041 0.099061591 -0.016529812)
(-0.54666485 0.10310005 -0.02050587)
(-0.54670829 0.1075292 -0.025627228)
(-0.63436378 0.092407464 -0.022097229)
(-0.63569314 0.097097268 -0.025503364)
(-0.63599177 0.10183171 -0.03020419)
(-0.72722059 0.08306101 -0.028079777)
(-0.72865893 0.08803862 -0.031104437)
(-0.72904042 0.093421323 -0.035367688)
(-0.82378348 0.071333113 -0.034642615)
(-0.82508612 0.076756273 -0.037292804)
(-0.82551372 0.082574785 -0.040984039)
(-0.92301766 0.057223237 -0.04164617)
(-0.92431338 0.063027922 -0.043836329)
(-0.92492442 0.06940491 -0.047036796)
(-1.0246977 0.041131083 -0.048979613)
(-1.025973 0.047326496 -0.050834348)
(-1.0265967 0.054083429 -0.053511373)
(-1.1281817 0.023126524 -0.056663687)
(-1.1293884 0.029670129 -0.058150988)
(-1.130142 0.036814301 -0.060266866)
(-1.2329692 0.0035449632 -0.064535716)
(-1.2341953 0.010411745 -0.0656696)
(-1.2350242 0.017859971 -0.067332638)
(-1.3387244 -0.017402909 -0.072571751)
(-1.3399157 -0.010216875 -0.073428502)
(-1.3408065 -0.0025581446 -0.074606803)
(-1.4449167 -0.039438567 -0.080675532)
(-1.4461043 -0.032020972 -0.081249698)
(-1.4470724 -0.02418575 -0.082057964)
(-1.5513376 -0.06226623 -0.088774356)
(-1.5525082 -0.054620076 -0.089161028)
(-1.5535295 -0.046718909 -0.089654048)
(-1.6576601 -0.085652925 -0.096818715)
(-1.6588495 -0.077880741 -0.097050499)
(-1.6599336 -0.069891076 -0.097314378)
(-1.7638127 -0.10942638 -0.10474586)
(-1.7649383 -0.10146736 -0.10484673)
(-1.7660146 -0.093551127 -0.10500963)
(-1.7990943 -0.45019869 -0.10545969)
(-1.8002857 -0.44220089 -0.10558867)
(-1.8013943 -0.43415351 -0.1058383)
(-1.8222353 -0.34456735 -0.10789189)
(-1.8234298 -0.33657593 -0.1079494)
(-1.8244493 -0.32854998 -0.10816654)
(-1.8460478 -0.23901271 -0.11011984)
(-1.8471639 -0.23105137 -0.11015209)
(-1.8481879 -0.22304295 -0.11026627)
(-0.011930523 -0.014778088 -0.0081341145)
(-0.01213035 -0.016719281 -0.0019907048)
(-0.01357713 -0.014628962 0.0051114862)
(-0.022612947 -0.034687924 -0.0070420889)
(-0.023604588 -0.034264178 0.0010033087)
(-0.021131642 -0.032326992 0.010521959)
(-0.044885023 -0.057156283 -0.0076532704)
(-0.044914143 -0.056091761 -0.00092183258)
(-0.043918244 -0.055445185 0.010117198)
(-0.074527939 -0.074706957 -0.0075638801)
(-0.075743187 -0.07361934 -0.00038960029)
(-0.073522317 -0.07197726 0.0086211086)
(-0.11313819 -0.096941175 -0.0083667886)
(-0.11399919 -0.095402366 -0.00109767)
(-0.11180053 -0.093188738 0.0073904006)
(-0.1596496 -0.11687094 -0.0087841806)
(-0.15999865 -0.11388256 -0.0030687786)
(-0.15872209 -0.11214305 0.0053426162)
(-0.21283057 -0.13816027 -0.010262586)
(-0.2135311 -0.13631655 -0.0042742615)
(-0.21196616 -0.13285144 0.0032966576)
(-0.27346937 -0.16050706 -0.011988237)
(-0.27380506 -0.15695965 -0.0065542804)
(-0.27245996 -0.15366596 0.00066339657)
(-0.33936714 -0.18303511 -0.014591464)
(-0.34049376 -0.17942053 -0.0085887838)
(-0.33886906 -0.17545822 -0.0030098133)
(-0.41221959 -0.20661486 -0.016965302)
(-0.4125756 -0.20200431 -0.012962342)
(-0.41186503 -0.19772383 -0.0064143148)
(-0.48978658 -0.23058706 -0.020520203)
(-0.49039937 -0.22593832 -0.015899183)
(-0.48946608 -0.22093866 -0.01079947)
(-0.57245321 -0.25542875 -0.02432909)
(-0.5729252 -0.2499143 -0.020496437)
(-0.57245813 -0.24466268 -0.015718981)
(-0.65937878 -0.28052099 -0.028880923)
(-0.66005669 -0.27473787 -0.02522705)
(-0.6596868 -0.2688725 -0.021215168)
(-0.75037646 -0.30615323 -0.033796759)
(-0.75100064 -0.29981058 -0.030745317)
(-0.75095247 -0.29353087 -0.027199294)
(-0.84476868 -0.33194179 -0.039352263)
(-0.84555447 -0.3252038 -0.036630103)
(-0.8456509 -0.3185372 -0.033714067)
(-0.94222483 -0.35783813 -0.045240546)
(-0.94301471 -0.35075329 -0.043050497)
(-0.94333355 -0.34371097 -0.040639995)
(-1.0421339 -0.38374919 -0.051626645)
(-1.043055 -0.37631168 -0.049825714)
(-1.0435314 -0.36899633 -0.047962804)
(-1.1442076 -0.40937196 -0.058299989)
(-1.1451434 -0.40176784 -0.056957743)
(-1.1456944 -0.39419821 -0.055567163)
(-1.2477162 -0.43487759 -0.065289431)
(-1.2487334 -0.4270029 -0.06438541)
(-1.2495081 -0.41926181 -0.063411515)
(-1.3524309 -0.45979622 -0.072665529)
(-1.353604 -0.45191659 -0.071938)
(-1.3543372 -0.44405025 -0.071418766)
(-1.457995 -0.4844652 -0.080038421)
(-1.4592027 -0.4764495 -0.079750264)
(-1.4600049 -0.46849793 -0.079498481)
(-1.5637775 -0.50863363 -0.087604176)
(-1.5649067 -0.50060016 -0.087593782)
(-1.5658596 -0.49262147 -0.087557649)
(-1.6698618 -0.53241422 -0.095428993)
(-1.6710273 -0.52437256 -0.095529865)
(-1.6721135 -0.51638682 -0.095591143)
(0.00062345744 -0.030317959 0.0074014981)
(-0.010272178 -0.069457573 0.00910578)
(-0.029061567 -0.091711295 0.0079439176)
(-0.060075614 -0.11830882 0.0073890455)
(-0.095889776 -0.13827343 0.0072145143)
(-0.14218667 -0.15157093 0.0046729814)
(-0.1953884 -0.16157258 0.0029105354)
(-0.25743194 -0.16472179 -0.00018106314)
(-0.32739251 -0.16457239 -0.0035206605)
(-0.4055355 -0.1604475 -0.0080075551)
(-0.49046174 -0.15508419 -0.012738615)
(-0.58214271 -0.14881331 -0.018665415)
(-0.67892886 -0.14424585 -0.024946333)
(-0.77981584 -0.1423574 -0.031867576)
(-0.8835646 -0.14476485 -0.039168154)
(-0.98884594 -0.15255205 -0.04672782)
(-1.0946433 -0.16653431 -0.054430407)
(-1.2000006 -0.18716744 -0.062130093)
(-1.3042248 -0.21447992 -0.069785309)
(-1.406967 -0.24812635 -0.077288266)
(-1.5080019 -0.28736434 -0.084669559)
(-1.60736 -0.33098627 -0.091840605)
(-1.705591 -0.37782385 -0.098979215)
(0.0064149811 -0.0027283176 0.0004810433)
(-0.0062982578 -0.002134702 0.0013647187)
(-0.031262313 -0.0005872553 -0.00079257536)
(-0.063595271 -0.0027809137 -0.00056213458)
(-0.10480478 -0.0054318357 -0.0019362943)
(-0.1557456 -0.0071161324 -0.0046856014)
(-0.21263524 -0.01395837 -0.006158576)
(-0.27798291 -0.019373563 -0.0091610777)
(-0.34939436 -0.028431043 -0.012129131)
(-0.42698192 -0.038068485 -0.015850724)
(-0.50969917 -0.050419803 -0.019680845)
(-0.59763209 -0.063904548 -0.024381987)
(-0.68924478 -0.079590957 -0.029294612)
(-0.78463568 -0.096699965 -0.034946281)
(-0.8828113 -0.11550299 -0.040954894)
(-0.98345055 -0.13555518 -0.047515842)
(-1.0860083 -0.15686832 -0.054439184)
(-1.1900501 -0.17905113 -0.061707782)
(-1.2951885 -0.202017 -0.069266341)
(-1.4010404 -0.2254414 -0.076968957)
(-1.5073276 -0.24918311 -0.084798401)
(-1.6135678 -0.2729895 -0.092679751)
(-1.7201372 -0.29702394 -0.10050726)
(0.0088480105 0.034305882 -0.0085633639)
(-0.01236093 0.066287633 -0.0084745595)
(-0.038573313 0.10266345 -0.010849746)
(-0.07628853 0.12227264 -0.0092626921)
(-0.12353586 0.1416685 -0.011598603)
(-0.17984668 0.14766493 -0.012410908)
(-0.24014138 0.14560978 -0.013813021)
(-0.30830239 0.13461967 -0.016314634)
(-0.37891475 0.1150009 -0.018707735)
(-0.45443827 0.088530885 -0.021733669)
(-0.53263984 0.056614781 -0.025251783)
(-0.61434121 0.021012431 -0.029239674)
(-0.69911496 -0.016384113 -0.033737307)
(-0.78731357 -0.053868683 -0.038673493)
(-0.879146 -0.089573772 -0.044090872)
(-0.97474621 -0.12216802 -0.049959648)
(-1.0742519 -0.15050319 -0.056267076)
(-1.1775004 -0.17376903 -0.063011147)
(-1.2843004 -0.19167478 -0.070181218)
(-1.3940909 -0.20419949 -0.077693961)
(-1.5062788 -0.21189049 -0.085611317)
(-1.6201074 -0.21545705 -0.093697094)
(-1.7347336 -0.21614425 -0.10206596)
(-0.003254398 -0.029367812 -0.0040145723)
(-0.0037855277 -0.030026841 -0.0013748653)
(-0.0050738423 -0.029316691 0.002621242)
(-0.017804419 -0.067040779 -0.0030261951)
(-0.020289908 -0.066545078 0.00062063774)
(-0.017147482 -0.066464509 0.006341871)
(-0.038622351 -0.095545218 -0.0042649617)
(-0.03796997 -0.094332223 -6.5875108e-05)
(-0.037135644 -0.094793013 0.0044792536)
(-0.066972564 -0.12271511 -0.0041460995)
(-0.069401459 -0.12182923 0.00021622342)
(-0.067030103 -0.12019696 0.0043276973)
(-0.10384026 -0.14377583 -0.0046388069)
(-0.10459688 -0.14198675 -0.0013419191)
(-0.10295031 -0.14094969 0.00381546)
(-0.14878288 -0.15972607 -0.0060960666)
(-0.1503131 -0.15799672 -0.0020459518)
(-0.14823634 -0.15634579 0.0020842837)
(-0.20148509 -0.17010887 -0.0074839686)
(-0.20249322 -0.16819804 -0.003673214)
(-0.20109409 -0.16540788 0.000105687)
(-0.26291212 -0.17602293 -0.0093856614)
(-0.26429383 -0.17275303 -0.0060133423)
(-0.2627682 -0.17008312 -0.0024808529)
(-0.33242503 -0.17658697 -0.012041147)
(-0.3332223 -0.17370112 -0.0089126811)
(-0.33201014 -0.17003601 -0.005532987)
(-0.40959234 -0.17484893 -0.015380992)
(-0.41032774 -0.17115481 -0.012305583)
(-0.40972444 -0.16670299 -0.0096615491)
(-0.49387721 -0.17086193 -0.019270271)
(-0.49467246 -0.1664031 -0.016462098)
(-0.49410112 -0.16157539 -0.014341466)
(-0.58459542 -0.16644838 -0.023862906)
(-0.5853321 -0.16155751 -0.021606787)
(-0.58518004 -0.15611396 -0.019710003)
(-0.68057993 -0.16338691 -0.029150621)
(-0.68132164 -0.15786442 -0.027119294)
(-0.6814106 -0.15178169 -0.025850484)
(-0.78069959 -0.1628898 -0.034953681)
(-0.78141192 -0.15684551 -0.033507297)
(-0.78180773 -0.15028702 -0.03246909)
(-0.88366153 -0.16648098 -0.041350303)
(-0.88444517 -0.15992862 -0.040209238)
(-0.88499389 -0.152957 -0.039560737)
(-0.98829078 -0.17521252 -0.048052036)
(-0.989084 -0.16827401 -0.047372934)
(-0.98980024 -0.16093289 -0.046931139)
(-1.0934757 -0.18992529 -0.055105318)
(-1.0943268 -0.18262423 -0.054698468)
(-1.0951411 -0.17504295 -0.054502262)
(-1.1982719 -0.21107784 -0.062255994)
(-1.1992205 -0.20354182 -0.062183864)
(-1.2000389 -0.1957215 -0.06209063)
(-1.3020269 -0.23877774 -0.069566911)
(-1.3029591 -0.2309597 -0.069626291)
(-1.3039582 -0.22305864 -0.069693141)
(-1.4042281 -0.2724204 -0.076843181)
(-1.405518 -0.26467212 -0.07709662)
(-1.4062867 -0.25661629 -0.077149065)
(-1.5049698 -0.31170975 -0.084056894)
(-1.5061826 -0.30398106 -0.084414946)
(-1.5070596 -0.29579294 -0.084495763)
(-1.6041331 -0.35534264 -0.091344519)
(-1.605216 -0.34738477 -0.091588293)
(-1.6062554 -0.33927556 -0.091683262)
(-1.7020928 -0.40205614 -0.09848414)
(-1.7032611 -0.39407477 -0.098656108)
(-1.7043587 -0.38603878 -0.098805055)
(0.0027398573 -0.0011944224 -0.00015320251)
(0.0014702301 -0.0023512736 0.00053705189)
(0.00025857774 -0.0019347917 0.0012184434)
(-0.013275571 -0.0023514229 0.00075173779)
(-0.014202696 -0.0029047045 0.0016408676)
(-0.011797731 -0.0024747765 0.0021030671)
(-0.036837646 -0.00478359 0.0001256452)
(-0.037410015 -0.0047012389 -0.0005346766)
(-0.036891295 -0.0035340813 0.00050553651)
(-0.069213713 -0.0059150596 -0.00042489882)
(-0.071141082 -0.0055468985 -0.00044460865)
(-0.069462629 -0.00303902 0.0002452483)
(-0.11143084 -0.010446735 -0.0016880178)
(-0.11218245 -0.0096523727 -0.0022535556)
(-0.1105723 -0.0079583963 -0.00088697452)
(-0.16075393 -0.014705145 -0.0031228975)
(-0.16196901 -0.013232076 -0.0030245483)
(-0.16061139 -0.010426905 -0.0030015235)
(-0.2183696 -0.021678568 -0.0045581053)
(-0.21921244 -0.019928613 -0.0055481839)
(-0.21823495 -0.016358553 -0.005069411)
(-0.28289537 -0.029481804 -0.0074106741)
(-0.28393165 -0.026883046 -0.0079751118)
(-0.28251705 -0.023577036 -0.0075526615)
(-0.35360226 -0.039613043 -0.010209073)
(-0.35460809 -0.036868686 -0.010698341)
(-0.35377224 -0.032383535 -0.010872359)
(-0.43048508 -0.051490939 -0.013673397)
(-0.43171759 -0.047538388 -0.014579602)
(-0.43077934 -0.043083762 -0.014591128)
(-0.51254856 -0.064917307 -0.017805682)
(-0.51383546 -0.06075675 -0.018767586)
(-0.51311083 -0.055485462 -0.018602753)
(-0.59930988 -0.080271842 -0.022563191)
(-0.60079402 -0.075366051 -0.023530474)
(-0.60010232 -0.069867084 -0.023382404)
(-0.69021144 -0.097303838 -0.027874094)
(-0.69179952 -0.091933983 -0.028843488)
(-0.6912729 -0.085776149 -0.028604176)
(-0.78458564 -0.11581354 -0.033710005)
(-0.78635694 -0.10980664 -0.034700207)
(-0.78587389 -0.10344379 -0.034329261)
(-0.88208268 -0.13576517 -0.040084377)
(-0.88384044 -0.12937309 -0.040956209)
(-0.88355419 -0.12257636 -0.040541518)
(-0.98201798 -0.15689287 -0.046786904)
(-0.98378634 -0.15002057 -0.047634193)
(-0.98366656 -0.14300977 -0.047182521)
(-1.0840613 -0.17902791 -0.053928351)
(-1.0857363 -0.17185482 -0.054638855)
(-1.0858504 -0.16453523 -0.054197797)
(-1.187632 -0.2019533 -0.06127534)
(-1.1892355 -0.19439523 -0.061899934)
(-1.1895578 -0.18697425 -0.061508362)
(-1.2925013 -0.2253742 -0.068899674)
(-1.293939 -0.21769693 -0.069380963)
(-1.2945065 -0.2100237 -0.069116792)
(-1.3979844 -0.24924664 -0.076577402)
(-1.3994756 -0.24117915 -0.07704399)
(-1.4001111 -0.23355187 -0.076781577)
(-1.5042517 -0.27320833 -0.084522437)
(-1.5052942 -0.26505376 -0.084473274)
(-1.5063661 -0.25737357 -0.084709192)
(-1.6103167 -0.29704318 -0.092277818)
(-1.6114673 -0.28912858 -0.092515715)
(-1.6125388 -0.28109147 -0.09253159)
(-1.7166367 -0.32106169 -0.10009751)
(-1.7178164 -0.31302546 -0.10027249)
(-1.7188929 -0.30508139 -0.10036381)
(0.0033423866 0.032099022 0.0044132089)
(0.0032405256 0.031406715 0.00053904594)
(0.0033195888 0.031343055 -0.0032682369)
(-0.018824145 0.065891888 0.0046944842)
(-0.020274327 0.063850772 6.4668503e-05)
(-0.01773801 0.065984276 -0.0038808774)
(-0.043507406 0.09658151 0.0038029643)
(-0.044619723 0.099366623 -0.0009815789)
(-0.044311071 0.1000036 -0.0053897589)
(-0.082916924 0.11996366 0.0024356247)
(-0.083966457 0.11978094 -0.0016744917)
(-0.082884773 0.12177288 -0.0052856127)
(-0.12881876 0.13423411 0.00066090642)
(-0.13005039 0.13702024 -0.0033757264)
(-0.12889987 0.13827623 -0.0069716247)
(-0.18385737 0.1402285 -0.0011694842)
(-0.18529393 0.14234241 -0.0050416252)
(-0.18429204 0.14491353 -0.0084259053)
(-0.24482969 0.13666744 -0.0041126795)
(-0.24582483 0.13961096 -0.0078484391)
(-0.24516327 0.14187895 -0.01072739)
(-0.31103915 0.12376526 -0.0071487886)
(-0.31265266 0.12722041 -0.010043746)
(-0.31171881 0.13034446 -0.012988076)
(-0.3819009 0.10302715 -0.010400878)
(-0.38296662 0.10690842 -0.01344626)
(-0.38267332 0.1102548 -0.01616549)
(-0.45637018 0.075193362 -0.014393089)
(-0.45779843 0.079364662 -0.016990951)
(-0.45737828 0.083397623 -0.019204906)
(-0.53419862 0.041869896 -0.018545235)
(-0.53545112 0.046663443 -0.020750196)
(-0.53549676 0.050947032 -0.022937337)
(-0.61544885 0.0050347054 -0.023100422)
(-0.61665259 0.010093153 -0.025137854)
(-0.61680684 0.01489156 -0.027000249)
(-0.69978462 -0.033651601 -0.028027704)
(-0.70086456 -0.028102427 -0.029794521)
(-0.70144663 -0.022866993 -0.031469005)
(-0.7876631 -0.072171176 -0.033388904)
(-0.78864763 -0.066340669 -0.034952956)
(-0.78934613 -0.060669812 -0.036469586)
(-0.87907716 -0.10896648 -0.039190111)
(-0.8799255 -0.10278849 -0.040564349)
(-0.8809226 -0.096695002 -0.041921133)
(-0.97425205 -0.14251785 -0.045477982)
(-0.97507222 -0.13604733 -0.046701951)
(-0.97617221 -0.12950403 -0.047886117)
(-1.0732818 -0.17169227 -0.052298738)
(-1.0740622 -0.16490893 -0.053322994)
(-1.0752894 -0.15801902 -0.054374292)
(-1.1760266 -0.19572905 -0.059572627)
(-1.1768787 -0.18867519 -0.060478122)
(-1.1781213 -0.18145859 -0.061352244)
(-1.2823233 -0.21424995 -0.067350651)
(-1.2832076 -0.20694227 -0.068094882)
(-1.2844361 -0.19945279 -0.068779395)
(-1.3916374 -0.22728432 -0.075552564)
(-1.3926142 -0.21977527 -0.076083638)
(-1.3938241 -0.21208807 -0.076637355)
(-1.5034005 -0.23534901 -0.083952766)
(-1.5044564 -0.22765277 -0.084468127)
(-1.5055826 -0.21984578 -0.084833416)
(-1.6169247 -0.23914864 -0.092703923)
(-1.6180585 -0.23134834 -0.093032703)
(-1.6191733 -0.22341062 -0.093299801)
(-1.7314446 -0.23992537 -0.10143852)
(-1.7325254 -0.23197474 -0.10162704)
(-1.7336688 -0.22399668 -0.10178075)
)
;

boundaryField
{
    free
    {
        type            calculated;
    }
    fixed
    {
        type            calculated;
    }
    freeTop
    {
        type            calculated;
    }
}


// ************************************************************************* //
