/*--------------------------------*- C++ -*----------------------------------*\
  =========                 |
  \\      /  F ield         | OpenFOAM: The Open Source CFD Toolbox
   \\    /   O peration     | Website:  https://openfoam.org
    \\  /    A nd           | Version:  6
     \\/     M anipulation  |
\*---------------------------------------------------------------------------*/
FoamFile
{
    version     2.0;
    format      ascii;
    class       pointVectorField;
    location    "1.1";
    object      lm;
}
// * * * * * * * * * * * * * * * * * * * * * * * * * * * * * * * * * * * * * //

dimensions      [1 -2 -1 0 0 0 0];

internalField   nonuniform List<vector> 
28033
(
(-1.780536e-14 4.8656612e-16 1.3104288e-15)
(-5.4375576e-15 3.3318594e-15 9.9433006e-16)
(-5060.7116 -1869.0285 -81.994565)
(-5440.3729 -755.4408 -43.109545)
(-1.338461e-14 3.0090723e-15 -2.870051e-16)
(-1.2587315e-14 4.9008913e-15 -4.4266115e-15)
(-5466.9105 -726.19891 -65.036143)
(-5085.1357 -1847.0239 -57.084447)
(-5.6329745e-15 1.0535579e-15 6.7193838e-16)
(-2.4534443e-15 3.0423504e-16 5.8836893e-16)
(-5.4923298e-15 2.4302826e-15 8.9528572e-16)
(-2.6209443e-15 -1.1537891e-15 -6.7979696e-16)
(-7.2548563e-15 1.5542294e-15 1.0013199e-15)
(-4.7613589e-15 -9.2108094e-16 -7.3952737e-16)
(-1.132389e-15 -2.2256662e-17 -6.4484848e-16)
(-7.4239857e-16 -2.4218299e-16 -3.6669977e-16)
(-1.1196198e-15 4.5550132e-16 8.383863e-16)
(-2.3465882e-16 2.2667819e-16 1.4996246e-15)
(-4.0583243e-15 -8.7236639e-16 -1.3429605e-15)
(-5.8237189e-15 8.4462789e-16 7.5519031e-16)
(-5.1611762e-15 1.0100276e-15 9.7613867e-16)
(-1.7679952e-15 -8.1010255e-16 4.5192313e-16)
(-4.4158752e-15 1.0299569e-15 -9.452958e-16)
(-5084.7986 -1795.7124 -76.983142)
(-5086.8439 -1716.3033 -72.242134)
(-5090.735 -1639.9767 -69.887083)
(-5098.701 -1567.254 -68.282189)
(-5113.6877 -1498.4931 -68.156002)
(-5136.8799 -1433.139 -68.943163)
(-5167.3481 -1370.7174 -69.687377)
(-5204.8898 -1309.762 -71.060614)
(-5245.688 -1249.165 -71.743208)
(-5287.2694 -1186.873 -72.006552)
(-5326.9756 -1122.649 -71.033226)
(-5361.0919 -1055.038 -67.879218)
(-5389.3009 -984.26088 -64.651271)
(-5410.3314 -909.58449 -58.794239)
(-5426.6519 -832.32841 -51.448034)
(-6.4129359 -17.764236 -21.9591)
(10.798119 -29.31485 -39.361014)
(27.14302 -47.94937 -53.125984)
(37.112701 -70.940898 -61.771927)
(43.194831 -96.49286 -67.977034)
(41.881333 -124.97508 -71.73486)
(34.230953 -155.00376 -73.193513)
(19.287345 -185.32664 -73.090371)
(-2.2266822 -216.22713 -71.539177)
(-30.621475 -246.18456 -68.85488)
(-64.718577 -274.86207 -65.047405)
(-104.11565 -301.96697 -60.899613)
(-147.87781 -326.70372 -56.482179)
(-195.68295 -349.06644 -51.659361)
(-245.90005 -368.42788 -47.09932)
(-297.99077 -385.22789 -42.919832)
(-351.52769 -399.63658 -39.01326)
(-406.12995 -411.52999 -35.029646)
(-460.56144 -421.30194 -31.708625)
(-515.31687 -429.51887 -28.352536)
(-570.0394 -436.60473 -25.041645)
(-624.66582 -442.99821 -21.630396)
(-679.54981 -449.29614 -17.87342)
(-734.65783 -455.90554 -13.839466)
(-790.47169 -463.20772 -9.3943679)
(-847.36731 -471.64143 -4.3576222)
(-905.56018 -481.40788 1.1241659)
(-965.33615 -492.77092 6.8871513)
(-1027.2484 -505.65425 13.196942)
(-1091.2685 -520.11146 19.455898)
(-1157.7219 -536.01985 25.850151)
(-1226.6289 -553.02615 32.093879)
(-1297.908 -571.18398 37.884584)
(-1371.3264 -589.47882 42.911097)
(-1447.122 -608.19341 47.349072)
(-1524.5171 -626.61315 50.804146)
(-1603.2863 -644.6248 53.084048)
(-1683.2113 -661.40186 54.390818)
(-1763.6587 -677.2557 54.612499)
(-1844.3338 -691.80067 53.684468)
(-1924.8511 -704.8254 51.920067)
(-2004.7525 -716.71574 49.389326)
(-2083.8709 -727.19159 46.392395)
(-2161.7711 -736.81242 43.010545)
(-2238.3076 -745.68757 39.601199)
(-2313.222 -754.33638 36.168833)
(-2386.3703 -763.08673 32.914095)
(-2457.6626 -772.45127 29.851583)
(-2526.9633 -782.80671 26.942042)
(-2594.31 -794.61485 24.101)
(-2659.6766 -808.18653 21.170052)
(-2723.2091 -823.83458 17.9698)
(-2785.0298 -841.737 14.295937)
(-2845.4004 -861.99618 9.9600841)
(-2904.5914 -884.61257 4.8017045)
(-2962.9642 -909.46522 -1.3001261)
(-3020.8894 -936.36082 -8.3910824)
(-3078.7668 -965.00154 -16.457219)
(-3136.9927 -995.0189 -25.41801)
(-3195.9181 -1026.0019 -35.098201)
(-3255.8478 -1057.5126 -45.29066)
(-3317.0405 -1089.0684 -55.699555)
(-3379.6159 -1120.2782 -66.009157)
(-3443.6291 -1150.7238 -75.969254)
(-3508.9488 -1180.1446 -84.920338)
(-3575.7611 -1208.1189 -93.122349)
(-3643.0582 -1234.6348 -99.786521)
(-3711.2099 -1259.6661 -105.13947)
(-3779.4681 -1283.2039 -108.14091)
(-3847.2457 -1305.2722 -109.78173)
(-3914.2739 -1326.2482 -109.57731)
(-3979.7608 -1346.4736 -107.73659)
(-4043.3473 -1366.2026 -104.59355)
(-4104.5032 -1385.7642 -100.41638)
(-4162.9114 -1405.5905 -95.535106)
(-4218.3326 -1425.993 -90.387707)
(-4270.6675 -1447.3485 -85.256585)
(-4319.9322 -1469.7531 -80.568198)
(-4366.4625 -1493.4925 -76.5474)
(-4410.3086 -1518.6019 -73.399604)
(-4452.1651 -1544.827 -71.275852)
(-4492.5233 -1572.207 -70.178231)
(-4531.611 -1600.4051 -70.136683)
(-4570.0669 -1629.026 -70.988995)
(-4608.7069 -1657.7788 -72.46346)
(-4647.505 -1685.9572 -74.510791)
(-4686.9159 -1713.1974 -76.758873)
(-4726.8855 -1738.8608 -79.079256)
(-4767.333 -1762.7278 -81.312515)
(-4808.4313 -1784.0123 -82.951629)
(-4849.0351 -1803.0891 -84.566152)
(-4889.5557 -1818.9505 -85.056967)
(-4929.3433 -1832.2351 -85.468225)
(-4966.4638 -1843.5253 -85.170368)
(-5009.1751 -1854.9323 -84.166743)
(1.328149 9.9586176 17.82182)
(23.950897 21.65654 41.737357)
(45.72663 34.686475 65.325174)
(56.482249 53.695639 82.696997)
(61.782978 74.669234 96.463645)
(58.538837 96.49386 106.36789)
(46.536583 118.62554 112.55181)
(26.233331 140.65844 114.52272)
(-2.9722726 162.20832 112.9489)
(-39.592887 182.06007 107.75272)
(-83.994972 200.95546 99.527124)
(-134.08081 217.34941 88.836066)
(-189.75663 232.25278 76.313253)
(-249.30962 244.79342 62.74905)
(-311.92535 255.29471 48.686141)
(-376.25299 263.92964 35.120863)
(-441.39962 270.41832 22.604265)
(-506.36535 275.64878 11.744555)
(-570.66844 279.26439 3.0353923)
(-633.79339 281.74375 -3.1271673)
(-695.23207 283.35472 -6.8181326)
(-755.29275 284.05458 -7.6221484)
(-813.97448 284.23355 -6.129141)
(-871.46006 283.69554 -2.3122092)
(-928.36274 282.64521 3.3460047)
(-985.4171 280.9993 10.065248)
(-1042.7897 278.50302 17.684181)
(-1101.5242 275.22004 25.212797)
(-1161.8227 270.83126 32.424943)
(-1224.4101 265.15195 38.437241)
(-1289.5591 258.13776 43.015745)
(-1357.4536 249.38214 45.707043)
(-1428.3154 238.94609 46.257981)
(-1502.0801 226.60111 44.483427)
(-1578.5654 212.38039 40.430856)
(-1657.3423 196.16002 34.286024)
(-1737.9826 178.05585 26.338102)
(-1820.0245 158.40134 16.924254)
(-1902.7709 137.01906 6.5191917)
(-1985.6709 114.39643 -4.3106303)
(-2067.9585 90.689116 -14.969112)
(-2149.0143 66.190831 -24.843412)
(-2228.2718 41.209486 -33.401421)
(-2305.2492 16.023822 -40.137759)
(-2379.5768 -9.0793515 -44.67841)
(-2451.058 -33.858117 -46.758825)
(-2519.6106 -58.088821 -46.265222)
(-2585.3611 -81.603197 -43.245949)
(-2648.5536 -104.26128 -37.891426)
(-2709.6036 -125.98256 -30.545681)
(-2769.0309 -146.71362 -21.6663)
(-2827.4569 -166.45247 -11.8063)
(-2885.5517 -185.22221 -1.5744366)
(-2944.0159 -203.07761 8.4010533)
(-3003.5211 -220.09382 17.511563)
(-3064.6962 -236.36488 25.204686)
(-3128.079 -251.98635 31.013527)
(-3194.0913 -267.07269 34.589686)
(-3263.0222 -281.71931 35.714754)
(-3335.0015 -296.03642 34.321179)
(-3409.9938 -310.10378 30.488972)
(-3487.7927 -324.00816 24.456494)
(-3568.0325 -337.79598 16.582826)
(-3650.1745 -351.51937 7.384355)
(-3733.583 -365.16729 -2.5918461)
(-3817.4449 -378.76096 -12.637742)
(-3901.0588 -392.26445 -22.131431)
(-3983.4215 -405.51785 -30.412971)
(-4063.6341 -418.69654 -36.729628)
(-4141.2618 -431.45492 -40.825424)
(-4215.4124 -443.93345 -42.166364)
(-4285.7743 -455.77095 -40.62157)
(-4351.9057 -467.21061 -36.079767)
(-4413.7787 -478.01403 -28.745519)
(-4471.5528 -488.28383 -19.003474)
(-4525.51 -497.95924 -7.3048126)
(-4576.1404 -507.14066 5.6843591)
(-4624.0608 -515.90195 19.258085)
(-4669.9879 -524.36015 32.599516)
(-4714.6214 -532.68036 45.014618)
(-4758.7069 -541.01058 55.738247)
(-4802.8409 -549.58412 64.218873)
(-4847.6041 -558.55768 69.916419)
(-4893.3069 -568.16889 72.575348)
(-4940.2117 -578.55041 71.993458)
(-4988.2503 -589.89843 68.276201)
(-5037.2892 -602.27855 61.590505)
(-5086.874 -615.79458 52.382954)
(-5136.5016 -630.41082 41.139157)
(-5185.4377 -646.1247 28.530306)
(-5232.9368 -662.76143 15.221968)
(-5278.2086 -680.2492 1.9341959)
(-5320.5234 -698.30789 -10.779873)
(-5359.4579 -716.61264 -22.441998)
(-5397.1942 -735.71868 -33.016295)
(3.2927448e-15 -1.3239155e-15 2.3845803e-16)
(2.4470133e-15 -9.6672015e-16 3.215493e-17)
(-9.0574249e-15 9.0550918e-16 6.4029168e-16)
(-1.2642219e-16 -5.721845e-16 4.4370095e-16)
(-7.6811722e-15 -4.9270561e-16 4.1193361e-16)
(-7.3893964e-15 2.7533729e-15 -1.0951501e-15)
(-3.2915852e-15 -8.1743692e-16 3.8364228e-16)
(-1.9032499e-15 5.3200654e-16 -8.2319016e-17)
(-4.7409759e-15 -4.8623412e-16 4.3918642e-16)
(-1.2869644e-14 1.1845665e-15 6.4228907e-16)
(-9.6157521e-15 1.4157374e-15 5.9836601e-16)
(-9.4077204e-15 4.9518432e-16 1.1192419e-15)
(-5.982767e-15 2.6210694e-16 3.0473736e-16)
(-1.1478475e-14 -5.3386198e-16 1.6580808e-15)
(-5.257323e-15 3.6289085e-16 2.8600704e-16)
(5.4508486 -1.537999 -0.39074453)
(30.614011 7.5771517 -16.980548)
(48.965431 18.736086 -26.633664)
(57.886514 43.423428 -33.185954)
(60.94796 61.138633 -35.810149)
(53.608368 89.324381 -38.177683)
(41.250293 112.73181 -38.896775)
(18.628689 140.30697 -39.083151)
(-9.3273517 164.06342 -38.109641)
(-45.437423 189.11686 -36.981655)
(-87.05644 209.04178 -35.49058)
(-133.66785 228.19594 -33.8299)
(-184.98942 243.44753 -32.163588)
(-239.66239 255.75149 -30.43686)
(-296.49561 264.21154 -29.223308)
(-355.45572 269.72781 -27.682853)
(-415.57158 273.06357 -26.838447)
(-475.24474 271.64522 -25.904683)
(-535.90872 270.04716 -24.888701)
(-595.27552 264.68481 -24.162264)
(-655.16698 259.53 -22.491333)
(-714.70615 252.58207 -21.066072)
(-773.7669 244.96133 -18.914651)
(-833.26705 237.90013 -16.139955)
(-893.40219 230.34803 -12.541081)
(-954.86416 223.766 -8.3027612)
(-1017.1721 216.14801 -3.135678)
(-1081.9681 210.66254 2.5604143)
(-1147.6318 203.47528 8.7308666)
(-1216.1134 198.03806 15.510736)
(-1286.5435 191.40028 22.121467)
(-1359.3951 184.43577 28.993758)
(-1434.186 176.54236 35.337524)
(-1510.7765 167.24278 41.404555)
(-1590.24 156.58876 46.755693)
(-1668.6127 144.08316 51.199728)
(-1747.5002 129.63381 54.912756)
(-1827.7416 112.53731 57.676699)
(-1907.4192 93.647733 59.593143)
(-1986.5653 72.408057 60.673395)
(-2064.6635 49.225505 61.0049)
(-2141.3888 24.218149 60.713988)
(-2216.5327 -2.2347153 59.914786)
(-2289.8825 -29.771241 58.724542)
(-2361.3846 -57.927343 57.247152)
(-2431.0334 -86.244102 55.569892)
(-2498.9374 -114.22612 53.737327)
(-2565.269 -141.41238 51.764629)
(-2630.28 -167.36345 49.615742)
(-2694.271 -191.71332 47.225587)
(-2757.5831 -214.15881 44.477021)
(-2820.577 -234.50404 41.244614)
(-2883.6164 -252.64094 37.36324)
(-2947.0493 -268.5869 32.692862)
(-3011.2024 -282.44868 27.088298)
(-3076.3582 -294.46078 20.462191)
(-3142.7562 -304.92489 12.762038)
(-3210.5812 -314.2428 4.0203684)
(-3279.9523 -322.85523 -5.6665503)
(-3350.9321 -331.23983 -16.119976)
(-3423.4975 -339.87616 -27.087519)
(-3497.5679 -349.21048 -38.264957)
(-3572.973 -359.63373 -49.302735)
(-3649.4558 -371.4572 -59.85705)
(-3726.7493 -384.86336 -69.540635)
(-3804.4103 -399.95377 -78.115208)
(-3881.8945 -416.77187 -85.072546)
(-3960.0323 -434.96041 -90.947055)
(-4037.494 -453.35314 -94.502715)
(-4110.3268 -473.88973 -97.01615)
(-4183.5593 -493.75387 -97.454231)
(-4254.6385 -513.5645 -96.782692)
(-4323.326 -532.50146 -94.664883)
(-4389.6809 -550.02491 -91.683627)
(-4453.5206 -565.77509 -88.026812)
(-4514.951 -579.37728 -84.006499)
(-4574.1573 -590.61996 -79.90918)
(-4631.3467 -599.41047 -76.013081)
(-4686.8105 -605.80098 -72.528458)
(-4740.8642 -610.00173 -69.637678)
(-4793.8067 -612.32437 -67.444828)
(-4845.9335 -613.23065 -66.008045)
(-4897.4569 -613.23371 -65.298827)
(-4948.5545 -612.93423 -65.25937)
(-4999.2653 -612.92372 -65.749882)
(-5049.5737 -613.80607 -66.627698)
(-5099.3074 -616.09255 -67.702503)
(-5148.2235 -620.25303 -68.804885)
(-5195.9518 -626.5726 -69.76245)
(-5242.0641 -635.27229 -70.440746)
(-5286.062 -646.31241 -70.744744)
(-5327.48 -659.59499 -70.606582)
(-5365.8017 -674.71427 -70.02782)
(-5400.9709 -691.30241 -68.910926)
(-5427.495 -707.77929 -67.301558)
(-5446.6522 -799.37863 -61.360764)
(-5439.1482 -874.52009 -58.015535)
(-5419.7292 -947.37004 -56.086829)
(-5394.1327 -1016.5344 -55.371161)
(-5358.6603 -1082.9247 -55.981182)
(-5323.3757 -1147.1224 -57.090759)
(-5276.62 -1207.8282 -59.415493)
(-5239.9164 -1270.3581 -61.838803)
(-5199.7168 -1331.2659 -63.763213)
(-5165.0363 -1393.7339 -66.075101)
(-5141.6664 -1460.8378 -67.172932)
(-5124.997 -1531.4199 -68.310359)
(-5117.9402 -1606.8271 -66.736271)
(-5109.0319 -1685.8654 -65.459138)
(-5109.9558 -1769.5638 -61.502473)
(-5024.1597 -1828.9797 -46.665576)
(-4991.1807 -1821.0705 -37.463895)
(-4948.2455 -1808.6934 -26.125655)
(-4902.8424 -1794.7692 -14.431586)
(-4854.9084 -1779.1055 -1.296091)
(-4805.8152 -1762.0652 11.799906)
(-4756.2995 -1743.9991 24.173188)
(-4707.0047 -1725.2327 35.261967)
(-4658.8253 -1706.1142 44.11769)
(-4612.243 -1686.9628 50.276047)
(-4567.6001 -1668.0216 53.234427)
(-4525.1837 -1649.4591 52.736871)
(-4484.8688 -1631.2942 48.760132)
(-4446.2677 -1613.5965 41.610735)
(-4408.7458 -1596.2022 31.473445)
(-4372.1362 -1578.9297 18.972861)
(-4335.4036 -1561.4785 4.8091411)
(-4297.8232 -1543.5768 -10.191306)
(-4258.5492 -1524.8954 -25.108075)
(-4216.8485 -1505.1124 -39.097714)
(-4172.0513 -1483.9487 -51.32501)
(-4123.6335 -1461.1786 -61.096111)
(-4071.2901 -1436.6287 -67.819826)
(-4014.7412 -1410.2994 -71.16465)
(-3954.4103 -1382.0444 -70.914982)
(-3889.779 -1352.2623 -67.19255)
(-3822.4224 -1321.0556 -59.537873)
(-3751.2988 -1289.242 -49.515965)
(-3678.8482 -1254.6667 -37.178867)
(-3604.2309 -1221.2504 -23.152913)
(-3529.2529 -1187.4541 -8.109916)
(-3454.5234 -1154.1815 6.9064936)
(-3380.7181 -1121.8279 21.035894)
(-3308.5024 -1090.7237 33.56977)
(-3238.456 -1061.1974 43.786936)
(-3170.9478 -1033.4823 51.171823)
(-3106.1949 -1007.7282 55.368109)
(-3044.2032 -984.00543 56.221477)
(-2984.8002 -962.28648 53.78496)
(-2927.6095 -942.48382 48.311706)
(-2872.1171 -924.43078 40.231784)
(-2817.6598 -907.92981 30.122535)
(-2763.5101 -892.73521 18.669264)
(-2708.8819 -878.60414 6.6128913)
(-2653.0128 -865.27887 -5.2886982)
(-2595.1747 -852.52744 -16.318426)
(-2534.7502 -840.13147 -25.825046)
(-2471.2121 -827.91203 -33.273299)
(-2404.2359 -815.71043 -38.265692)
(-2333.5956 -803.40764 -40.55013)
(-2259.2831 -790.95866 -40.013874)
(-2181.5139 -778.23019 -36.803755)
(-2100.4968 -765.27862 -31.039809)
(-2016.9573 -752.10001 -23.176263)
(-1931.2272 -738.67716 -13.689741)
(-1844.3947 -725.08519 -3.0984815)
(-1756.8168 -711.62898 7.7870383)
(-1672.6953 -698.45989 18.283504)
(-1585.672 -683.97552 28.319889)
(-1501.196 -670.09261 36.511302)
(-1422.6778 -657.08357 42.68139)
(-1344.2705 -642.31639 47.035808)
(-1270.5996 -629.61004 48.049638)
(-1201.8287 -616.10534 47.095963)
(-1137.9386 -602.82789 43.027812)
(-1076.4863 -589.62886 37.784691)
(-1019.5496 -576.96449 29.768468)
(-964.8031 -563.78052 21.545564)
(-913.10054 -550.80962 12.249495)
(-863.20044 -537.42912 3.2471385)
(-814.15814 -523.9129 -4.8319913)
(-764.93956 -510.39025 -10.838276)
(-715.0204 -497.02348 -15.070578)
(-664.31673 -481.4419 -16.510115)
(-611.67746 -466.4978 -13.969726)
(-556.90967 -451.29517 -9.2989332)
(-500.66223 -433.50637 -0.044486474)
(-442.53883 -416.78185 11.343009)
(-382.72748 -397.23205 26.50007)
(-323.44224 -377.63812 43.454869)
(-263.71331 -356.62962 62.234108)
(-205.28326 -335.04483 81.638529)
(-149.81847 -311.69297 100.64602)
(-99.270101 -287.11531 118.98142)
(-52.179301 -264.0825 135.21064)
(-12.789405 -237.72615 146.72367)
(18.552998 -211.22553 156.40292)
(43.085128 -187.24017 160.2517)
(57.640408 -161.41683 159.11979)
(63.604119 -135.57985 151.41244)
(60.400887 -109.65053 139.0713)
(48.640054 -87.224387 120.06167)
(31.019297 -66.962437 97.436418)
(6.3424155 -45.345272 63.814667)
(-25.142211 -25.82588 22.497713)
(-6.8708141e-15 1.5083581e-15 1.9262289e-16)
(-1.2504183e-14 5.7375616e-16 8.4327435e-16)
(-8.3449101e-15 1.4891922e-15 5.3018253e-16)
(-4.9731758e-15 1.4991158e-15 6.2376313e-16)
(-3.4146159e-15 1.5624416e-15 3.1576894e-17)
(2.0582335e-15 9.3962624e-16 -5.746342e-16)
(2.2101935e-15 3.7457559e-17 -1.1841335e-16)
(2.4553765e-15 -8.5141669e-16 -9.3419562e-16)
(1.2987427e-15 1.0081898e-16 1.7950851e-15)
(-4.5074861e-15 9.063971e-16 1.0710522e-15)
(-5.2682467e-15 2.1856155e-15 1.0652666e-15)
(-7.4917339e-15 1.915055e-15 2.2418828e-16)
(-9.400838e-15 1.3708275e-15 6.2833768e-16)
(-6.2048683e-15 1.3247981e-15 5.4317906e-16)
(-6.971104e-15 1.5128103e-15 7.5678131e-16)
(-1.2693866e-14 6.2923345e-15 -2.1364834e-15)
(-5.2452578e-15 2.6791924e-15 -5.3037742e-16)
(-1.0752404e-15 9.8318743e-16 -1.0111087e-16)
(-2.7353382e-15 1.7746034e-15 7.3085398e-17)
(1.0178949e-15 -1.5450237e-16 -4.119182e-16)
(-1.4303492e-15 4.136346e-16 -3.3264033e-16)
(-1.0059749e-14 4.7133437e-15 -1.6449855e-15)
(2.9801421e-15 -1.9180379e-15 -8.3172098e-16)
(-4.79756e-15 2.8035442e-15 1.1420498e-15)
(-5.4778068e-15 3.5047253e-15 -3.934403e-16)
(-1.8117877e-15 1.1581936e-15 -9.1309836e-16)
(-3.9812639e-16 4.7407236e-16 -2.2932148e-16)
(-1.5272242e-15 1.100363e-15 -2.2557932e-16)
(-4.1024849e-15 1.9838802e-15 2.8069696e-17)
(-5.3424143e-16 2.551799e-16 -1.9455919e-16)
(-5450.8445 -747.66203 -43.020714)
(-5460.5389 -740.45822 -42.087029)
(-5469.553 -734.48102 -41.326052)
(-5477.2542 -729.87451 -41.161415)
(-5483.7942 -726.56334 -41.813601)
(-5488.4878 -724.31561 -43.406916)
(-5491.3342 -723.09817 -45.702753)
(-5492.3128 -722.60612 -48.577206)
(-5491.5255 -722.71029 -51.808048)
(-5489.3155 -723.14475 -55.140864)
(-5486.0968 -723.7827 -58.329037)
(-5482.0494 -724.31549 -61.024702)
(-5478.0353 -724.90479 -63.131291)
(-5474.2072 -725.07492 -64.429603)
(-5470.8373 -725.57261 -65.011635)
(-5064.1315 -1871.7858 -81.688497)
(-5067.4112 -1873.5767 -80.752942)
(-5071.188 -1876.0925 -79.085173)
(-5075.1424 -1879.118 -76.415433)
(-5079.3281 -1882.6458 -73.200059)
(-5083.1168 -1886.0849 -69.529117)
(-5086.3535 -1889.0316 -65.826429)
(-5088.7572 -1891.0564 -62.278057)
(-5090.276 -1891.7619 -59.179548)
(-5090.8407 -1890.8426 -56.790959)
(-5090.6459 -1888.1578 -55.204219)
(-5089.7839 -1883.3532 -54.579918)
(-5088.5416 -1876.9131 -54.902908)
(-5087.4694 -1868.2585 -55.560858)
(-5086.0876 -1858.376 -56.945595)
(-0.4043609 -26.254538 -24.788601)
(18.416015 -41.777946 -37.356915)
(35.633138 -59.973044 -46.386446)
(47.031573 -78.503951 -52.121757)
(54.387867 -98.440145 -57.361854)
(53.611494 -120.11131 -59.666574)
(46.456706 -142.63931 -60.891406)
(31.081466 -166.38169 -60.683559)
(9.2177498 -190.2773 -59.35635)
(-19.950137 -214.07503 -57.333934)
(-55.453191 -237.33222 -54.364851)
(-96.504692 -260.03019 -51.355107)
(-142.1503 -280.90194 -47.883303)
(-191.64021 -300.65297 -44.490614)
(-244.01038 -318.39506 -41.044066)
(-298.43741 -334.741 -37.920977)
(-354.09911 -348.5446 -34.834497)
(-410.51105 -360.84672 -32.042841)
(-467.09384 -371.6056 -29.17194)
(-523.56276 -380.769 -26.478742)
(-579.94385 -388.91331 -23.556191)
(-635.99561 -396.26823 -20.414465)
(-692.15895 -403.23341 -16.898861)
(-748.47957 -410.30709 -12.954428)
(-805.31591 -417.64608 -8.5162284)
(-863.06433 -425.70125 -3.5441832)
(-922.19964 -434.7897 1.9080544)
(-982.92706 -444.97805 7.7414828)
(-1045.7668 -456.38073 13.860664)
(-1110.7454 -469.28338 20.142686)
(-1178.2996 -483.22001 26.306173)
(-1248.343 -498.43421 32.282686)
(-1320.8133 -514.5543 37.714053)
(-1395.5313 -531.31721 42.477202)
(-1472.4647 -548.4982 46.534884)
(-1551.0585 -565.87885 49.492256)
(-1630.9459 -582.97371 51.321811)
(-1711.7094 -599.48662 52.234233)
(-1792.906 -615.47506 51.940066)
(-1873.9067 -630.44253 50.657208)
(-1954.5208 -644.4068 48.525613)
(-2034.1154 -657.29839 45.778074)
(-2112.5554 -669.31334 42.541259)
(-2189.2604 -680.38358 39.069992)
(-2264.1379 -690.99371 35.550142)
(-2337.0141 -701.32808 32.104751)
(-2407.7234 -711.72051 28.907719)
(-2476.2055 -722.56985 25.936423)
(-2542.4363 -734.20056 23.218291)
(-2606.4828 -746.96088 20.639698)
(-2668.4532 -761.11962 18.085641)
(-2728.5561 -776.89393 15.367553)
(-2787.0403 -794.42951 12.311561)
(-2844.244 -813.78155 8.7184864)
(-2900.5374 -834.93688 4.4319758)
(-2956.3431 -857.78884 -0.68200568)
(-3012.0876 -882.18415 -6.6864764)
(-3068.2024 -907.87866 -13.605601)
(-3125.0755 -934.60787 -21.376183)
(-3183.0519 -962.06666 -29.873393)
(-3242.389 -989.92406 -38.919202)
(-3303.2761 -1017.8571 -48.279231)
(-3365.7588 -1045.5667 -57.648684)
(-3429.8251 -1072.8314 -66.746253)
(-3495.1687 -1099.2321 -75.220806)
(-3562.4334 -1124.9935 -82.871412)
(-3629.0369 -1149.5831 -89.16921)
(-3696.8683 -1172.9817 -94.335744)
(-3764.9662 -1195.9619 -97.765869)
(-3832.1414 -1217.6824 -99.826586)
(-3898.3258 -1238.8833 -100.09575)
(-3962.7592 -1259.6746 -98.974295)
(-4025.1554 -1280.217 -96.562795)
(-4085.0329 -1300.784 -93.099097)
(-4142.1842 -1321.6905 -88.915612)
(-4196.4399 -1343.078 -84.300315)
(-4247.8174 -1365.1899 -79.609484)
(-4296.4815 -1388.1269 -75.171944)
(-4342.6495 -1411.9687 -71.207421)
(-4386.7708 -1436.7509 -67.980841)
(-4429.2791 -1462.303 -65.644727)
(-4470.9235 -1488.6891 -64.241124)
(-4511.5 -1515.4892 -63.716094)
(-4551.0283 -1542.3138 -64.069145)
(-4593.4686 -1569.9282 -65.339566)
(-4635.3344 -1596.7616 -67.224708)
(-4677.8926 -1622.9379 -69.504019)
(-4721.1038 -1648.0163 -71.989421)
(-4764.8364 -1671.7757 -74.49068)
(-4809.1853 -1694.0004 -76.658094)
(-4852.8723 -1714.1142 -78.649216)
(-4896.5511 -1732.5947 -79.749335)
(-4938.9516 -1748.4959 -80.571826)
(-4978.8105 -1762.8543 -80.100987)
(-5025.5416 -1777.2323 -79.038992)
(10.453688 -25.197462 -24.888659)
(29.303278 -34.844148 -34.415722)
(43.742995 -54.311909 -39.221924)
(56.507606 -69.57114 -45.130568)
(62.813388 -88.180967 -47.888869)
(62.837768 -106.43362 -49.696002)
(55.145247 -126.50167 -50.386946)
(40.195346 -146.60225 -50.196548)
(17.373916 -167.35609 -49.268897)
(-12.624681 -188.0716 -47.656622)
(-49.340365 -208.62173 -45.770656)
(-91.916281 -228.66721 -43.350073)
(-139.49841 -247.85689 -41.094117)
(-191.3355 -265.91933 -38.497985)
(-246.29598 -282.68935 -36.242481)
(-303.5131 -297.87888 -33.703483)
(-361.98619 -311.54447 -31.691867)
(-421.50772 -323.64492 -29.292099)
(-481.06177 -334.18239 -27.189757)
(-540.65649 -343.36773 -24.721467)
(-599.78801 -351.46371 -22.121713)
(-658.77345 -358.73491 -19.100548)
(-717.45693 -365.55861 -15.693924)
(-776.26688 -372.21275 -11.728713)
(-835.41119 -379.0883 -7.2764113)
(-895.37732 -386.50862 -2.2435685)
(-956.48099 -394.71711 3.224363)
(-1019.0891 -403.96981 9.0695754)
(-1083.5835 -414.46141 15.194209)
(-1150.2792 -426.16168 21.285122)
(-1219.2184 -439.16543 27.329814)
(-1290.5992 -453.37647 33.009158)
(-1364.2575 -468.64081 38.093987)
(-1440.0871 -484.68553 42.510274)
(-1517.7848 -501.29123 45.984325)
(-1596.9503 -518.23457 48.419503)
(-1677.1042 -535.07375 49.836242)
(-1757.8618 -551.59635 50.139491)
(-1838.5783 -567.56196 49.410406)
(-1918.7116 -582.70611 47.780058)
(-1997.8917 -596.81856 45.2945)
(-2075.782 -610.12846 42.38949)
(-2151.7634 -622.3146 38.87983)
(-2225.6093 -633.65316 35.360378)
(-2297.0901 -644.44648 31.904143)
(-2366.0927 -654.8028 28.587868)
(-2432.4417 -665.09435 25.568511)
(-2496.1584 -675.65734 22.864277)
(-2557.278 -686.81629 20.469546)
(-2615.9345 -698.89369 18.270783)
(-2672.3341 -712.14881 16.156762)
(-2726.7629 -726.79387 13.93351)
(-2779.5614 -742.97234 11.431595)
(-2831.1477 -760.73702 8.44835)
(-2881.962 -780.08717 4.831844)
(-2932.4862 -800.92869 0.44453268)
(-2983.1891 -823.11623 -4.7850864)
(-3034.5287 -846.4363 -10.884697)
(-3086.9033 -870.65099 -17.797125)
(-3140.6593 -895.4731 -25.4234)
(-3196.0313 -920.61227 -33.592377)
(-3253.1931 -945.79177 -42.086145)
(-3312.1402 -970.72348 -50.610524)
(-3372.9013 -995.24344 -58.975823)
(-3434.8233 -1018.9048 -66.707715)
(-3499.6378 -1042.4985 -73.851679)
(-3560.0328 -1063.7279 -79.701214)
(-3638.8404 -1089.4706 -84.748373)
(-3709.4006 -1111.4806 -88.12839)
(-3775.5687 -1131.7653 -90.013938)
(-3840.0731 -1151.2503 -90.342861)
(-3902.9001 -1170.5769 -89.321289)
(-3963.7131 -1189.7761 -87.101613)
(-4022.3017 -1209.2242 -83.924309)
(-4078.3795 -1229.1331 -80.014611)
(-4131.9171 -1249.6635 -75.729464)
(-4182.9685 -1271.0798 -71.327213)
(-4231.7207 -1293.3912 -67.14279)
(-4278.5266 -1316.7517 -63.417784)
(-4323.7985 -1341.1283 -60.369416)
(-4367.9484 -1366.4258 -58.154546)
(-4411.6664 -1392.6644 -56.892292)
(-4456.1452 -1419.7427 -56.505041)
(-4490.4467 -1443.7259 -56.868433)
(-4525.0051 -1467.8099 -57.798982)
(-4569.7724 -1494.759 -59.780864)
(-4617.6693 -1521.8095 -62.211678)
(-4667.1011 -1548.309 -64.969594)
(-4717.3921 -1573.8488 -67.702927)
(-4768.943 -1598.0711 -70.334885)
(-4820.1194 -1620.9738 -72.594226)
(-4871.6356 -1642 -74.160324)
(-4922.7053 -1661.206 -75.391611)
(-4970.7214 -1678.9305 -74.998999)
(-5025.495 -1696.4033 -74.719609)
(18.136954 -21.24325 -24.211684)
(37.239733 -29.910957 -30.824375)
(53.673901 -46.456354 -34.861263)
(64.652934 -61.399317 -37.506264)
(71.131229 -77.145081 -38.58838)
(70.396911 -93.879341 -39.178464)
(62.866897 -110.76828 -39.275722)
(46.906669 -128.44011 -38.852138)
(23.605011 -146.12014 -37.915186)
(-7.5122497 -164.47896 -37.00036)
(-45.597429 -182.2802 -35.559516)
(-90.160658 -200.39806 -34.391268)
(-140.079 -217.379 -32.930427)
(-194.63857 -234.14146 -31.771968)
(-252.68244 -249.47991 -30.348191)
(-313.20367 -263.96192 -29.365658)
(-375.53865 -276.89845 -27.980602)
(-438.70237 -288.60695 -26.776817)
(-502.19181 -298.94915 -25.211354)
(-565.5431 -308.04859 -23.457498)
(-628.61033 -316.15156 -21.191622)
(-691.18086 -323.33677 -18.501552)
(-753.44478 -330.06616 -15.136898)
(-815.52565 -336.48169 -11.182243)
(-877.76965 -343.09973 -6.5444217)
(-940.52505 -350.02868 -1.3564831)
(-1004.2337 -357.72207 4.3675789)
(-1069.2048 -366.33756 10.464016)
(-1135.8994 -376.04351 16.696511)
(-1204.4049 -386.96446 22.967432)
(-1275.0765 -399.12774 28.990679)
(-1347.8241 -412.49768 34.522731)
(-1422.5849 -426.89908 39.42006)
(-1499.1531 -442.1874 43.432197)
(-1577.2292 -458.16611 46.456455)
(-1656.3419 -474.48027 48.405259)
(-1735.9867 -490.80627 49.111633)
(-1815.6865 -506.91093 48.734147)
(-1894.8797 -522.62243 47.365316)
(-1972.9948 -537.59274 45.071569)
(-2049.519 -551.73691 42.097336)
(-2124.0143 -564.90979 38.615419)
(-2195.9983 -577.20183 34.821272)
(-2265.2905 -588.52517 31.066825)
(-2331.6418 -599.26739 27.537065)
(-2394.8574 -609.50622 24.236996)
(-2454.9494 -619.53977 21.408231)
(-2511.9359 -629.6869 19.013104)
(-2565.9621 -640.22719 17.044681)
(-2617.2358 -651.44779 15.392943)
(-2666.0695 -663.59058 13.92512)
(-2712.8223 -676.84577 12.437121)
(-2757.9426 -691.34522 10.749213)
(-2801.9099 -707.1489 8.6389949)
(-2845.2448 -724.26478 5.9431632)
(-2888.4735 -742.6143 2.5001316)
(-2932.1115 -762.08881 -1.7770514)
(-2976.6348 -782.51186 -6.9314685)
(-3022.4619 -803.68403 -12.933445)
(-3069.9314 -825.36921 -19.698706)
(-3119.2887 -847.34256 -27.066731)
(-3170.6733 -869.34957 -34.841515)
(-3224.0841 -891.19173 -42.749908)
(-3279.5674 -912.68051 -50.607042)
(-3336.1579 -933.48412 -57.87949)
(-3398.7837 -954.98585 -64.882512)
(-3441.8421 -970.09064 -69.983213)
(-3531.1095 -996.51605 -75.400297)
(-3599.145 -1017.2975 -79.159824)
(-3662.0748 -1036.0348 -81.237868)
(-3723.2799 -1054.4299 -81.829738)
(-3782.468 -1072.4663 -81.078103)
(-3840.1681 -1090.5741 -79.138028)
(-3896.5963 -1109.1244 -76.149851)
(-3951.0753 -1128.2129 -72.419582)
(-4003.5969 -1147.9464 -68.159053)
(-4054.4012 -1168.5409 -63.750587)
(-4103.7196 -1190.0802 -59.448327)
(-4151.9282 -1212.6751 -55.524251)
(-4199.4741 -1236.3052 -52.23311)
(-4246.8521 -1261.0091 -49.764774)
(-4294.353 -1286.5992 -48.161355)
(-4343.875 -1313.4369 -47.701545)
(-4393.2085 -1340.1807 -47.998299)
(-4429.0472 -1363.3653 -49.360211)
(-4476.2374 -1389.6846 -51.315121)
(-4531.5869 -1417.8408 -54.11466)
(-4589.7796 -1445.9735 -57.133352)
(-4649.8219 -1473.6517 -60.548197)
(-4711.5367 -1500.7002 -63.593092)
(-4773.5849 -1526.4457 -66.728818)
(-4836.7258 -1551.3144 -68.906551)
(-4899.664 -1574.372 -70.815378)
(-4960.1582 -1596.5518 -71.301043)
(-5025.7865 -1618.0464 -71.261526)
(24.13042 -18.891781 -21.572451)
(45.11726 -24.747815 -26.12155)
(60.489997 -38.906109 -27.152894)
(72.080218 -51.263646 -28.868039)
(77.761597 -65.157107 -28.955102)
(77.218976 -79.496797 -28.886101)
(68.545965 -94.580737 -28.40467)
(52.424168 -109.69258 -27.730275)
(28.001923 -125.51098 -27.217175)
(-4.3610586 -141.3588 -26.392043)
(-44.244294 -157.33484 -26.011374)
(-90.802807 -173.15539 -25.354336)
(-143.3992 -188.62729 -25.239568)
(-200.98699 -203.61281 -24.72411)
(-262.33396 -217.61586 -24.880654)
(-326.80564 -230.87927 -24.430458)
(-393.03019 -242.8723 -24.35583)
(-460.48991 -253.78764 -23.764223)
(-528.25904 -263.44534 -23.049347)
(-596.06074 -272.0125 -21.668511)
(-663.27979 -279.56463 -19.870245)
(-730.05713 -286.36586 -17.26002)
(-796.18097 -292.62984 -13.986283)
(-862.00648 -298.69459 -9.902139)
(-927.68779 -304.81717 -5.1549628)
(-993.65557 -311.3156 0.28352127)
(-1060.2195 -318.533 6.2134985)
(-1127.8262 -326.60208 12.459849)
(-1196.7174 -335.80438 18.855629)
(-1267.2384 -346.21365 25.142079)
(-1339.4325 -357.89093 31.04368)
(-1413.3887 -370.77619 36.401438)
(-1488.9484 -384.79902 40.927246)
(-1565.8869 -399.78906 44.492079)
(-1643.8835 -415.42035 46.926183)
(-1722.3675 -431.55798 48.193762)
(-1800.9247 -447.76448 48.24147)
(-1878.7836 -463.93619 47.32463)
(-1955.563 -479.49846 45.271614)
(-2030.5276 -494.4229 42.312137)
(-2103.3187 -508.46886 38.774732)
(-2173.41 -521.54659 34.805963)
(-2240.3602 -533.6452 30.757592)
(-2303.9612 -544.81049 26.823667)
(-2363.9907 -555.24803 23.177296)