/*--------------------------------*- C++ -*----------------------------------*\
  =========                 |
  \\      /  F ield         | OpenFOAM: The Open Source CFD Toolbox
   \\    /   O peration     | Website:  https://openfoam.org
    \\  /    A nd           | Version:  6
     \\/     M anipulation  |
\*---------------------------------------------------------------------------*/
FoamFile
{
    version     2.0;
    format      ascii;
    class       pointScalarField;
    location    "0.97";
    object      E;
}
// * * * * * * * * * * * * * * * * * * * * * * * * * * * * * * * * * * * * * //

dimensions      [1 -1 -2 0 0 0 0];

internalField   nonuniform List<scalar> 
625
(
595.80724
-447.43141
26839.133
25064.715
2679.6354
630.66798
24401.877
25123.195
-140.86974
-206.23252
440.27666
26370.52
23653.167
25707.577
2507.4445
-98.711216
-786.58175
147.2794
-2319.6484
-524.35586
-1348.4513
-1279.0335
-60.732344
-248.4627
323.78776
1413.5914
2469.6186
3472.4914
5243.3746
6801.0029
8853.0825
11040.41
13822.784
16185.465
19623.069
21619.074
24937.363
6155.1406
-604.71172
8767.4369
5527.2229
2670.4825
8966.3886
2562.648
5575.4616
5388.3771
4433.7027
6009.2488
6073.9464
7014.4239
7879.1757
9227.9326
10543.753
12150.972
14062.579
16080.749
18069.766
20842.739
22340.682
25288.517
297.5412
-258.0683
-577.0263
5450.2113
13900.928
-2781.0021
3300.6696
11186.385
-1232.4529
5465.5949
3612.6416
3501.2455
5144.4514
3877.3179
6058.033
6592.3424
7636.0269
9516.4783
10418.082
12385.926
13923.986
15699.026
17527.197
19180.552
20979.821
23493.79
23389.459
20366.623
25310.794
24381.808
20530.738
18791.446
16285.514
14116.841
11928.609
9951.2808
8120.5976
6564.5438
5260.0984
3618.022
3296.7072
1524.5464
1570.5951
-48.944978
-38.044047
389.66666
32.189405
40.341048
-2182.9527
3609.3861
-693.81202
4811.7054
518.29366
606.50483
372.73355
-644.17754
-1359.1865
-2082.1192
24351.904
24640.671
23860.955
26099.069
26125.744
25518.495
2297.5328
448.34676
135.44479
571.7893
-952.53125
629.2052
-403.67579
405.79903
479.51898
694.49082
1913.0824
2345.3391
3340.2028
4404.2862
5750.6045
7181.3135
8987.944
10808.436
13071.66
15363.041
17915.416
20205.385
24880.449
772.58785
67.282139
713.14149
-684.05692
185.50574
62.228955
-954.80152
112.44492
-566.08405
460.31186
369.1456
1170.2168
2041.11
3252.3951
4522.8309
6237.1054
7952.0105
9984.5396
12402.121
14437.401
17448.907
19643.095
25374.874
1459.724
-1074.831
-1370.5691
-2031.8103
-1236.6729
-3722.86
-1392.745
-2489.1322
-1850.6605
-1010.0545
-747.43018
687.0477
1595.5014
2973.0899
4315.9052
6191.7099
7868.0713
10193.227
12230.661
15284.791
17668.349
21341.722
25162.095
-186.55423
-97.786205
-220.75724
-398.51355
-500.48198
-224.56455
3.525536
-525.16527
-764.66925
6792.9706
8366.4917
6489.6612
9666.9133
6608.6786
7972.6781
3893.0951
171.43049
5429.1157
5456.4264
6827.0015
1734.3868
9005.6566
4321.9304
8901.9182
4565.6404
5659.775
4472.2474
6569.1687
4547.9631
5777.0682
5263.5938
3270.8998
5762.6637
4780.321
6010.9184
4369.8035
6267.7953
4570.2699
6629.8153
5058.0316
6198.5361
5389.6765
6888.7301
5988.8789
6685.9933
6760.4743
7546.9034
7820.7646
8422.269
8269.8617
8299.9104
9390.6222
9684.4802
10031.167
10778.679
11051.35
11119.35
12413.772
12604.144
12573.873
14076.514
14318.04
14300.272
15991.906
16191.718
16010.517
17888.248
18158.395
17700.045
19855.995
19899.141
19467.978
21552.77
21756.213
21177.929
24064.261
23768.332
23258.724
26206.699
26146.716
25291.977
22835.641
22769.182
20968.576
25807.241
25636.269
24611.68
2037.3146
4054.6664
2766.6176
-762.04865
-675.59522
-98.815359
2298.5174
906.87811
3896.6387
-1185.2783
-1048.97
-481.76619
1100.3429
143.12786
1609.1258
312.2501
-2019.4697
1368.5718
29.067079
-83.973549
1218.6366
805.73344
-556.99041
1623.8751
1216.3219
243.36724
1042.2912
1761.0047
-91.480908
3067.3519
1791.3289
1463.4608
2254.3052
3452.8937
1804.6516
3723.6363
3709.5913
3145.2512
4351.8235
5389.8564
4276.2042
5533.289
6703.4343
5747.5884
7002.3251
8211.2344
7366.3183
8472.2653
10237.457
9299.5887
10288.342
12166.985
11395.954
12301.975
14746.782
13947.618
14462.333
16703.853
16358.71
16569.166
19813.713
19332.44
19122.196
21621.882
20986.609
20743.021
24954.43
24548.62
24318.394
1769.3865
976.93707
-2050.9176
502.68385
-2458.7538
-1535.9979
-1285.5269
-2140.3742
-1160.8588
-687.1126
-360.92125
841.40672
1614.7083
2779.1209
4214.0467
5726.4066
7427.7065
9377.1727
11466.22
13858.283
16888.466
19206.427
24531.676
235.4737
2248.3047
-610.74187
2550.1861
547.14656
2918.3691
2005.5766
2376.1462
3194.9185
2773.6119
3475.6151
4218.9861
4423.0032
5753.4089
6822.2241
8092.4663
9846.7046
11605.173
13644.459
15684.492
18227.636
19140.723
25888.176
1345.7815
-2846.4826
-445.99624
-5423.1245
-2424.0658
-1676.3723
-4885.3377
-370.24962
-3700.8225
-187.92095
-1195.9189
329.3873
1097.1674
2220.1232
3579.2391
5151.6862
6935.3307
8931.8208
11300.755
14035.669
16895.001
20403.886
23876.757
1090.9061
1426.9245
1502.1509
746.87088
1022.6716
1337.366
-222.89906
-1290.0003
-465.20708
93.283219
767.972
698.68603
522.27124
-1091.1908
121.27672
285.69353
489.51284
-206.79304
218.99788
-523.92022
290.19584
898.81123
719.30049
135.78947
1058.1626
-109.3969
216.65031
1410.9339
1471.1205
1168.8811
2476.8241
1701.3679
1102.9792
2571.1398
2304.4699
2435.4503
3953.1615
3486.9051
3196.4146
4853.1102
4477.9533
4265.7767
6170.8502
5632.7811
5539.8123
7587.8987
7249.9491
7078.9528
9295.7147
8791.2493
8603.2347
11044.771
10680.359
10398.2
13183.754
12602.416
12396.368
14789.457
15119.959
14315.873
17127.13
18228.669
16827.782
20261.715
19392.325
18566.099
24561.167
24361.855
24016.462
248.23052
310.01273
222.65785
1184.3453
1876.1227
1912.6137
465.66749
-1378.2286
-136.832
571.91782
1922.2552
1835.9129
2052.8353
25.06171
-128.40388
889.14924
641.80289
1180.6579
1238.289
713.64291
349.67116
2267.7187
875.12912
407.88006
1234.8884
728.59011
718.53373
2611.1321
1532.3317
986.73681
2668.659
1445.2531
1351.6126
3484.1445
2286.149
2231.6872
4357.5795
3331.5655
2887.6241
5299.3315
4068.8997
3811.0817
6610.3382
5591.4319
5266.7338
7972.3972
6891.7733
6524.0408
9641.7695
8716.4738
8225.9991
11428.921
10427.363
10041.973
13547.907
12770.699
12168.309
15811.169
14550.026
14131.706
19038.358
16401.067
17299.177
19923.115
19247.774
18394.688
25452.476
25295.028
25104.323
2507.0082
2506.1129
2179.0766
-1342.087
-3124.2698
-2479.9996
-832.8751
685.64642
1263.6833
477.66588
-3297.5185
-1993.0352
-1597.6443
-1911.0865
-707.4624
-422.75926
-2847.0018
-794.3299
718.4783
-2727.3693
-999.64133
-738.32482
-2411.5242
439.40392
1113.2039
-2294.6222
2.5782269
1152.5576
-1521.0421
1136.1405
1550.834
-1070.5812
1628.8383
2636.5777
78.895101
2304.4871
3271.1
703.57894
3285.6525
4554.9837
2155.1638
4336.2148
5778.7383
3336.9011
5552.5926
7365.5154
5128.5806
7113.8667
9066.341
6872.7066
8741.7018
11091.86
9119.99
10706.564
13211.352
11257.131
12669.963
15674.321
14454.825
15307.357
18282.605
16934.105
17415.185
21333.886
20953.081
21339.719
25007.068
24059.372
23912.475
)
;

boundaryField
{
    free
    {
        type            zeroGradient;
    }
    fixed
    {
        type            zeroGradient;
    }
    freeTop
    {
        type            zeroGradient;
    }
}


// ************************************************************************* //
