/*--------------------------------*- C++ -*----------------------------------*\
  =========                 |
  \\      /  F ield         | OpenFOAM: The Open Source CFD Toolbox
   \\    /   O peration     | Website:  https://openfoam.org
    \\  /    A nd           | Version:  6
     \\/     M anipulation  |
\*---------------------------------------------------------------------------*/
FoamFile
{
    version     2.0;
    format      ascii;
    class       pointScalarField;
    location    "0.49";
    object      p;
}
// * * * * * * * * * * * * * * * * * * * * * * * * * * * * * * * * * * * * * //

dimensions      [1 -1 -2 0 0 0 0];

internalField   nonuniform List<scalar> 
28033
(
1121161.8
-1577611.5
8593.7479
4716.5006
2085653.3
-2236832.2
5630.211
2747.7624
949383.18
849178.7
733459.98
597908.38
445912.24
306073.53
161737.57
1755.1528
-158624.95
-302476.79
-475911.49
-566684.08
-761671.09
-912894.76
-904334
-10958.021
-5937.7247
-6932.8751
-3739.4255
-3208.8986
-842.8887
1253.5927
3763.696
6023.4827
8431.4386
10939.261
12310.136
13898.466
14690.857
13096.082
291964.84
319545.84
294095.02
316641.95
311588.22
321775.46
323887.91
326640.47
327791.65
329825.26
328328.9
327495.62
327114.08
325626.52
323400.95
320644.29
319430.38
316708.39
313815.08
311214.45
308908.92
305594.44
303484.99
300467
297171.9
294667.74
291964.42
288670.56
285771.45
282881.13
280009.55
276702.28
274335.2
271883.98
268428.39
266236.43
263610.47
262065.8
258823
257164.34
254449.7
252087.83
249616.91
247556.29
244858.88
242518.53
239676.52
236963.45
233732.58
230593.69
226914.64
223217.26
219098.84
214818.06
210232.82
205434.72
200413.23
195186.28
189770.98
184253.41
178588.84
172826.12
166969.2
161290.32
155390.47
149864.47
144759.6
138765.14
132508.99
126916.26
121127.29
115787.56
110168.16
104915.81
99240.229
94266.659
88532.846
83813.952
78023.046
73522.384
67964.476
63416.449
58101.21
53219.006
48292.805
43599.007
39323.465
35090.023
30175.721
26677.721
23379.725
17959.835
18015.002
15853.773
13245.581
-278504.05
-238742.91
-283863.76
-258845.85
-296328.41
-293011.34
-302266.42
-300138.26
-307896.36
-303594.13
-307615.91
-304476.03
-304623.56
-303832.49
-301499.35
-300456.22
-297597.77
-295706.16
-293830.6
-291069.63
-288448.51
-287179.97
-282979.25
-282273.03
-279019.71
-275911.79
-274617.08
-270207.17
-269117.8
-264279.63
-262650.97
-258809.08
-256259.97
-253517.44
-250890.32
-248790.18
-245003.67
-243440.23
-240103.15
-238434.64
-235754.35
-233773.89
-231380.52
-229306.54
-226929.85
-224686.1
-222181.66
-219623.04
-216857.38
-213887.55
-210713.33
-207281.6
-203616.57
-199699.51
-195526.43
-191131.56
-186499.27
-181667.02
-176653.47
-171477.81
-166168.48
-160754.08
-155272.81
-149686.72
-144119.79
-138453.55
-132980.47
-127400.96
-122337.49
-116123.93
-111027.38
-105358.44
-100206.33
-94737.916
-89582.211
-84330.257
-79142.816
-74059.498
-68954.917
-63959.22
-59036.347
-54145.598
-49284.437
-44654.157
-39933.614
-35430.741
-31005.179
-26809.285
-22463.687
-18744.402
-15068.078
-11319.547
-8430.8321
-6729.2608
-3856.3536
1727604.6
1636885.3
1192052.5
1200278.4
836597.53
498987.69
312590.6
-21319.032
-279917.67
-601094.82
-834514.07
-1137321.2
-1437527.1
-1658036.4
-1757983.7
-464058.5
-354378.64
-166204.81
-350893.05
-286509.31
-314623.24
-303335.13
-324512.51
-306206.07
-322916.24
-324418.56
-312879.07
-324019.75
-310147.53
-320949.56
-312311.45
-308373.8
-307327.91
-301542.91
-304005.9
-297709.13
-291894.08
-294365.39
-291316.21
-288911.65
-287639.11
-277802.35
-282478.87
-271228.55
-274583.09
-271359.84
-268388.66
-265716.79
-263405.55
-261630.99
-253306.83
-255631.7
-253192.91
-250658.33
-248561.2
-246399.29
-244290.92
-242123.03
-239942.84
-237690.2
-235320.08
-232747.94
-230009.24
-227025.12
-223853.06
-220412.67
-216737.26
-212789.81
-208598.77
-204137.88
-199434.54
-194517.23
-189377.97
-184056.46
-178594.58
-172971.36
-167280.67
-161477.13
-155650.54
-149747.65
-143858.57
-138354.86
-132671.97
-124852.16
-120614.26
-115089.44
-109333.57
-103774.91
-98284.951
-92836.815
-87443.518
-82125.608
-76923.267
-71741.688
-66619.358
-61526.908
-56547.629
-51537.451
-46713.989
-41872.748
-37196.853
-32495.024
-28104.019
-23654.257
-19536.406
-15646.608
-11951.449
-9472.3604
-6725.0352
-5555.9975
15763.459
16621.718
13581.221
14406.986
9949.2539
10134.86
5710.8169
3850.8286
798.87283
-2089.2411
-1829.4006
-6434.9319
-4852.6691
-9991.8848
-7088.7733
21914.958
17524.449
17935.943
21103.337
23662.937
27620.832
31479.722
35793.922
39963.741
44763.87
49317.342
53857.066
58944.439
63970.42
69170.139
74277.162
79644.695
84851.964
90283.945
95686.112
101143.88
106707.04
112283.85
117825.5
123458.97
129024.88
133083.24
142677.53
146519.35
152880.3
158734.43
164824.87
170701.02
176647.19
182465.07
188209.52
193840.85
199292.73
204602.69
209691.89
214570.36
219195.66
223601.18
227699.94
231581.05
235179.77
238536.88
241660.36
244605.73
247315.51
249906.23
252434.08
254724.06
257332.03
259378.59
261977.08
263749.71
264139.61
271659.65
271502.46
272476.13
281203.13
280172.29
284133.55
283714.99
293296.81
288483.42
299378.02
299085.31
303303.47
305242.81
305416.46
314493.61
312936.51
313789.14
321438.61
318158.14
326253.85
322500.86
330304.39
334553.56
330472.52
331618.04
337729.41
336257.54
333533.62
338559.91
333774.71
330070.86
322504.57
317919.68
326468.86
316543.51
288716.15
355942.8
786745.82
858678.05
906666.09
946853.12
965161.11
994880.59
993894.66
1008091.9
995112.88
971540.94
988931.42
924599.35
891826.64
935690.13
744635.2
-1272253.3
-1596810.1
-1585365.6
-1713206.4
-1671947.7
-1599172.9
-1838835.3
-1959489.3
-1835621.3
-1839744.8
-1765110.6
-1701105.5
-1595741.3
-1580729.2
-1496434
4169.1401
4322.3918
5123.278
5721.9005
6846.0881
7609.3299
7834.911
7969.0804
7912.469
7527.3121
7013.3165
6152.4239
5477.3923
5058.8365
4928.1869
1726.7202
4322.8816
3593.7429
2840.4473
1866.1796
1641.9019
1065.9695
1150.085
1366.1516
1660.9192
2704.503
3430.2061
3883.0993
7217.859
2194.126
288251.15
295239.89
266000.65
271503.38
278112.67
282962.22
286885.04
290483.75
292585.57
293271.95
293102.42
294733.57
292662.66
291640.34
289396.67
289379.92
286274.6
284642.41
281829.89
280162.05
277611.76
275713.91
272857.9
270215.07
267517.22
265771.23
262493.59
259932.77
257476.02
255077.18
251689.43
249518.85
247783.37
244751.24
242714.32
240030.96
237925
235088.52
233147.16
231330.03
229442.52
227117.34
225057.76
222739.59
220368.88
218077.41
215420.77
212860.08
209917.12
206956.56
203667.63
200264.82
196579.96
192724.26
188632.61
184358.75
179887.45
175234.28
170451.98
165530.31
160494.3
155321.6
150214.18
145052.47
139576.37
134372.68
128312.48
123280.15
118324.8
113202.73
108289.43
103326.2
98348.851
93693.646
88774.253
84200.311
79446.061
75017.183
70235.242
66125.211
61442.774
57214.643
53016.384
48992.875
44701.031
40647.571
36676.574
32532.289
28894.346
25795.774
21387.505
18738.998
16112.526
10062.728
4805.0146
268567.94
246019.48
219742.2
230354.24
231701.92
235918.58
239297.94
242963.71
244778.09
246937.04
247216.32
247804.7
246836.5
247051.3
245398.95
244149.95
242193.75
241259.33
238880.05
237245.36
235043.08
232510.38
230738.49
228611.25
226677.47
224042.76
222217.82
220220.94
217863.38
215769.11
213911
211960.92
209551.09
207553.14
205731.56
203709.07
201847.46
200095.03
198352.67
196488.11
194540.65
193065.83
190624.58
188929.25
186778.78
184847.39
182542.85
180370.77
177819.24
175346.39
172515.4
169668.82
166546.53
163313.35
159881.78
156301.53
152552.14
148686.07
144673.29
140573.24
136361.96
132079.36
127886.48
123530.79
119235.41
115924.91
112475.67
108199.16
104655.5
100279.85
96128.02
92099.836
87689.753
83662.64
79038.926
75493.908
70694.452
67403.661
62634.902
59516.553
54935.161
51440.638
47682.566
43027.133
39087.473
35363.649
31448.324
28406.679
25065.042
21475.762
18364.452
15426.276
11246.82
7059.2896
175.84036
208729.53
210438.83
181441.89
192359.4
189398.37
195297.84
198859.52
202353.76
203162.1
205459.66
205560.43
206604.02
205803.48
205686.95
204241.82
203949.34
202075.07
201064.61
199082.22
197899.97
195932.16
194734.99
192789.82
191312.25
189017
187741.69
185800.71
183922.06
182204.46
180572.63
178697.71
176890.73
175399.88
173834.19
172357.32
170675.59
169512.34
168112.89
166626.59
164990.24
163346.3
161651.3
160420.53
158733.57
157144.86
155344.93
153487.97
151535.06
149461.5
147291.58
144943.64
142528.44
139905.17
137201.09
134321.25
131324.53
128199.51
124965.98
121604.43
118180.63
114652.58
111060.02
107498.13
103626.36
100188.24
97037.419
94182.873
90250.944
87209.095
84109.04
80789.355
77147.997
73434.808
69985.104
66602.563
63100.219
59924.044
56404.705
53353.664
49951.474
46741.6
43831.508
40186.349
37230.085
34158.36
30961.225
27532.291
25089.656
21906.823
19213.502
16571.662
12736.89
10188.674
4284.7417
1259.9239
168956.11
169203.48
140574.34
152142.06
146405.55
153447.93
155158.02
157465.75
158914.44
161450.16
161406.46
162625.73
161719.39
162498.34
161078.71
161033.8
159298.4
159170.13
157305.67
156520.21
154872.36
153633.29
152116.33
150702.96
149428.77
148050.75
146599.63
145448.95
144023.6
142700.13
141440.28
140182.63
138963.27
137552.08
136654.36
134978.52
133977.96
131819.51
130424.68
129201.31
128401.17
127203.92
125805.5
124382.23
123066.59
121631.45
120159.81
118636.46
116990.97
115286.24
113455.91
111557.63
109522.95
107418.83
105176.02
102872.51
100443.94
97950.158
95361.292
92719.238
90027.986
87271.424
84488.231
81708.653
79045.241
76066.124
73881.977
70876.436
67524.408
65015.776
62475.524
59592.421
57395.233
54736.703
52027.906
49401.53
46798.019
44322.788
41729.586
39270.267
36831.618
34453.489
31876.352
29230.506
26861.489
25184.671
22765.905
20506.236
18155.588
15956.207
13195.999
10818.875
7646.3115
4167.0391
-184.23476
136946.99
124850.52
102864.25
113175.3
110538.89
114718.93
116292.59
118608.88
119097.42
120833.43
120870.45
121449
121243.67
121475.16
120356.12
120505.52
119091.31
118933.13
117351.55
117150.28
115695.14
115242.4
113777.37
113311.5
111937.92
111143.4
110011.68
109073.82
107995.55
107187.99
106171.1
105312.89
104322.39
103624.9
102760.86
101886.5
102533.67
103361.26
102588.89
103776.81
102371.07
101527.33
100821.19
99889.108
98930.48
97802.812
96671.103
95419.972
94142.045
92770.496
91323.794
89819.187
88212.022
86538.339
84779.527
82954.63
81035.631
79072.426
77025.326
74932.355
72826.719
70547.374
68438.4
66231.683
63696.4
61879.01
59445.295
57172.341
54802.809
52576.199
50406.502
47635.822
44382.05
42143.566
39723.472
37644.531
35832.248
33890.14
32071.383
30331.336
28377.93
26855.486
24800.902
23444.955
21379.706
20115.552
17929.48
16566.001
14495.157
12697.992
10827.587
8750.0076
6868.5775
3480.4162
613.18289
85201.652
85700.7
66201.297
76533.931
71085.567
73548.8
75922.055
76827.301
76786.015
79168.833
78204.887
79536.32
78684.13
79412.799
78240.961
78865.239
77469.08
77895.368
76437.57
76491.674
75122.313
74855.693
73828.925
73470.246
72496.633
72113.464
71343.586
70903.162
70232.114
69685.022
69101.597
68524.603
68047.284
67513.214
66880.014
66633.729
66907.335
67257.696
68351.416
68648.433
69355.143
68679.431
68023.004
67399.982
66711.16
65937.556
65142.156
64314.336
63430.215
62505.689
61532.355
60518.397
59438.911
58328.474
57161.117
55944.597
54688.237
53390.546
52047.775
50679.023
49254.02
47880.13
46400.443
44883.616
43650.8
41880.544
40719.865
39216.713
37754.565
36392.993
34747.586
33021.329
31594.032
29402.884
27437.339
26218.746
24954.993
23722.225
22562.803
21536.095
20083.213
19391.718
17734.915
17144.065
15394.023
14941.911
13083.501
12596.063
10855.086
10234.662
8798.7234
7403.2113
5872.5415
3443.4792
2094.7573
46101.204
40702.64
33282.35
39260.158
34110.151
36942.772
37885.079
37589.218
37967.415
38382.723
38420.274
38308.651
38366.472
38499.467
37873.236
38288.533
37310.266
37782.881
36736.733
37313.263
36318.08
36801.725
35990.255
36196.479
35520.34
35638.929
35079.726
35068.173
34623.324
34639.422
34321.768
34276.919
34038.646
33896.868
33774.353
33687.87
33392.792
33690.785
32945.198
32267.015
32304.261
32104.377
31708.671
31568.784
31282.1
30960.35
30602.944
30250.298
29825.646
29412.764
28957.104
28486.264
27986.695
27476.543
26933.017
26378.353
25800.092
25217.332
24596.274
23982.438
23366.531
22711.558
22065.297
21485.829
20727.904
20211.569
19493.676
18837.9
18240.22
17591.378
17006.119
16348.237
15389.422
15397.151
14963.344
14509.703
13838.216
13314.399
12851.489
12229.212
11749.626
11319.108
10528.834
10412.471
9375.934
9427.7162
8324.6319
8435.7431
7346.0993
7148.6075
5989.1554
5347.0904
4881.5881
3789.1586
3422.3323
-3963.4144
-558.978
-5552.3029
-1574.7789
-3070.841
-2449.7538
-2587.6073
-2339.1081
-4006.2931
-2381.6941
-3955.3524
-3266.0436
-3851.4565
-3366.1007
-4173.5024
-3276.4562
-4223.2657
-3263.8998
-4135.8391
-3353.8045
-3960.5274
-3151.0876
-3940.2713
-3358.8772
-3633.1735
-3229.9656
-3324.8162
-3018.9204
-2959.0252
-2752.2579
-2662.6535
-2466.1851
-2351.0316
-2088.2687
-1938.1329
-1862.0633
-1424.162
-1314.8442
-1161.7746
-1325.902
-1077.0045
-872.95552
-935.95128
-850.15228
-800.62873
-809.99329
-750.10503
-713.17905
-671.43352
-623.92469
-568.61804
-502.43882
-431.72392
-354.67464
-256.43592
-166.70625
-58.255081
62.727465
157.8726
314.04234
407.37568
559.20614
703.78066
815.53279
1023.3345
1110.6566
1307.157
1478.1968
1605.3748
1812.4013
1858.0871
1948.7428
2027.2334
2356.1253
2597.0365
2788.9072
2855.7609
3097.0995
3177.3472
3379.311
3574.3479
3559.6907
3897.5062
3825.2422
3958.2672
4173.3027
3847.0421
4446.5154
3712.5419
4537.8912
4167.3612
4849.785
4884.3491
4388.445
5062.8332
-41713.137
-42715.1
-37187.097
-35158.739
-36759.664
-38797.669
-37954.328
-40790.602
-40592.99
-41931.564
-41982.161
-42823.031
-42559.435
-42801.904
-42906.339
-42427.997
-42878.153
-41944.191
-42665.101
-41524.423
-42029.627
-41371.05
-41558.795
-40422.888
-40577.321
-39635.055
-39630.555
-38701.407
-38525.502
-37752.926
-37380.333
-36702.5
-36239.889
-35609.195
-35212.121
-34505.835
-34175.263
-33562.561
-33103.798
-32518.961
-32079.962
-31602.789
-31243.364
-30740.842
-30327
-29916.654
-29500.491
-29054.198
-28625.192
-28160.562
-27666.526
-27149.905
-26612.927
-26031.712
-25421.302
-24796.385
-24118.917
-23425.886
-22708.806
-21957.114
-21192.752
-20399.829
-19621.497
-18766.973
-18020.388
-17145.52
-16325.492
-15497.803
-14644.267
-13802.356
-12973.781
-12027.727
-11291.002
-10403.463
-9854.7885
-9269.3456
-8312.0306
-7609.4975
-6698.7891
-6000.6391
-5144.7462
-4520.9452
-3648.0628
-3063.3843
-2366.7193
-1459.6729
-1230.7493
247.08761
42.199607
1742.892
1552.9367
2533.7271
2872.8115
4260.9705
6234.1237
-89570.432
-89006.086
-73540.056
-76156.173
-77943.627
-79121.486
-81240.818
-82146.392
-85012.992
-84947.782
-86332.118
-86607.073
-87021.868
-86693.277
-87084.982
-86037.751
-86279.378
-85169.728
-85013.633
-83912.192
-83779.862
-81086.398
-80354.359
-79198.387
-78824.29
-77743.59
-77043.13
-76040.415
-75260.394
-74293.015
-73528.77
-72550.389
-71823.088
-70895.75
-70029.22
-69235.525
-68371.848
-67610.19
-66772.199
-66092.458
-65354.701
-64617.935
-63877.748
-63187.987
-62412.132
-61684.797
-60869
-60035.775
-59168.906
-58240.715
-57248.22
-56216.559
-55108.074
-53937.515
-52706.168
-51421.204
-50064.073
-48660.439
-47225.859
-45708.147
-44196.747
-42636.062
-41043.286
-39459.074
-37849.565
-36221.526
-34614.427
-33026.514
-31427.45
-29865.475
-28263.562
-26728.228
-25196.274
-23060.329
-20339.243
-18762.14
-17427.642
-16028.949
-14506.744
-13513.6
-11687.637
-11070.492
-9131.023
-8548.4886
-6906.0155
-5902.1705
-4905.1534
-3114.3023
-2877.1575
-444.2808
-232.85089
1511.1354
3018.8536
4912.0158
7098.9553
-137920.34
-109828.5
-99804.888
-102505.22
-105848.47
-107791.2
-110681.77
-113190.28
-115902.31
-116779.29
-117907.49
-119053.69
-118910.79
-118868.5
-119021.96
-117771.43
-118234.55
-116476.37
-116579.21
-115638.65
-116071.09
-116576.94
-116579.84
-116206.56
-115915.87
-114204.7
-113654.99
-111884.23
-110964.26
-109474.1
-108377.29
-107030.98
-105959.4
-104605.08
-103468.83
-102228.76
-101155.53
-99935.669
-98887.027
-97757.102
-96718.035
-95581.481
-94568.992
-93438.214
-92350.923
-91205.441
-90047.02
-88817.365
-87547.734
-86195.76
-84775.388
-83278.224
-81692.277
-80028.225
-78273.597
-76449.981
-74529.376
-72557.208
-70498.94
-68386.112
-66224.546
-63993.769
-61770.92
-59460.658
-57235.518
-54910.727
-52627.248
-50288.429
-48003.549
-45661.64
-43382.529
-41212.394
-38830.722
-36456.51
-34306.818
-31568.141
-28744.553
-26610.387
-24444.931
-22426.137
-20583.065
-18509.748
-16780.927
-14851.919
-13039.219
-11411.451
-9440.0001
-8009.2166
-6031.2697
-4282.0374
-2632.4231
-200.5015
1912.8798
4564.0257
9293.9928
-163537.19
-156909.57
-141849.03
-140408.68
-144179.27
-146248.08
-151066.22
-153899.92
-155739.13
-158522.04
-159429.9
-159867.91
-160468.51
-160018.06
-159717.36
-159124.97
-158116.36
-156987.94
-156357.56
-154595.6
-154688.06
-152883.36
-154717.65
-154271.19
-153195.07
-151977.93
-150601.2
-148857.75
-147440.63
-145605.41
-144281.92
-142379.16
-141113.35
-139419.78
-137984.09
-136530.95
-135019.35
-133616.99
-132178.44
-130843.32
-129390.81
-128104.47
-126693.77
-125352.93
-123927.73
-122483.67
-120978.49
-119383.53
-117710.86
-115945.81
-114054.9
-112060.84
-109940.1
-107694.97
-105325.55
-102843.71
-100242.04
-97536.117
-94744.669
-91866.201
-88906.134
-85919.761
-82856.626
-79767.433
-76708.037
-73588.895
-70492.109
-67476.662
-64429.935
-61371.001
-58477.449
-55400.801
-52460.952
-49649.093
-46741.536
-44470.291
-41420.375
-38522.39
-35695.069
-33001.048
-30190.169
-27581.918
-24872.3
-22346.774
-19672.094
-17433.684
-14584.316
-12684.361
-9946.3149
-7667.9008
-5656.1282
-2094.8271
614.04895
5494.4782
10752.28
-230335.08
-208190.42
-175423.97
-187256.33
-185166.16
-194442.01
-195825.12
-200977.36
-202773.59
-205697.86
-206191.38
-207512.55
-206977.36
-207199.63
-205936.67
-205102.44
-204083.69
-202186.59
-201212.6
-199264.74
-197950.43
-196330.58
-193997.3
-191485.27
-189999.45
-187877.69
-186539.74
-184086.13
-182476.42
-180311.39
-178479.27
-176300.14
-174699.92
-172719.73
-170980.93
-169136.02
-167322.8
-165555.4
-163914.63
-162128.06
-160543.56
-158811.68
-157147.77
-155413.24
-153660.75
-151843.3
-149962.92
-147973.7
-145900.92
-143702.57
-141365.22
-138909.64
-136297.76
-133551.86
-130654.88
-127635.92
-124465.39
-121191.96
-117803.18
-114307.2
-110746.49
-107096.11
-103406.09
-99637.005
-95919.17
-92115.157
-88389.429
-84625.222
-80889.413
-77118.162
-73396.059
-69724.065
-66120.86
-62439.272
-58805.534
-55359.484
-51818.906
-48378.409
-44901.259
-41496.862
-38179.935
-34873.811
-31655.919
-28471.948
-25426.843
-22329.497
-19396.295
-16621.62
-13397.244
-11102.897
-7550.8354
-4685.8462
-1286.5597
3284.6398
8890.3172
-251262.7
-240976.78
-203266.98
-222284.9
-225440.84
-233193.61
-236183.56
-242516.03
-244841.67
-246362.88
-248782.68
-248276.76
-248563.63
-248103.89
-246309.2
-245708.47
-243834.35
-241767.84
-240564.73
-237956.47
-236284.88
-234170.38
-232020.74
-230478.54
-227850.04
-225739.69
-223631.9
-220857.91
-219299.71
-216393.93
-214504.01
-211717.9
-209579.67
-207135.68
-205043.89
-203083.69
-200799.5
-198980.6
-196757.83
-194951.41
-192953.88
-191059.74
-189157.65
-187218.53
-185257.35
-183202.65
-181063.72
-178807.32
-176410.34
-173859.09
-171131.08
-168225.48
-165124.51
-161830.97
-158344.07
-154675.17
-150825.13
-146821.05
-142666.07
-138398.13
-134016.37
-129567.26
-125049.13
-120469.47
-115878.08
-111204.39
-106561.92
-102118.4
-97703.272
-93083.072
-88819.753
-84367.709
-79946.123
-75688.663
-71318.047
-67061.927
-62820.967
-58635.923
-54501.957
-50463.101
-46431.219
-42492.379
-38583.697
-34830.445
-30991.508
-27453.995
-23810.562
-20367.238
-16878.781
-13938.41
-9819.249
-7563.2215
-3152.5292
1366.5471
8293.3789
-347564.61
-234924.36
-250650.43
-255624.18
-266881.32
-266440.35
-276103.62
-280110.21
-281370.02
-284337.93
-284959.12
-285957.04
-284489.95
-283937.13
-282033.71
-280967.66
-279365.17
-276586.75
-275185.75
-272414.08
-270004.44
-267634.34
-265685.73
-262854.58
-261009.99
-257812.89
-255728.19
-252458.12
-251076.03
-247931.85
-245754.54
-242683.44
-240214.62
-237082.33
-234435.56
-232631.22
-230382.1
-227964.72
-225680.44
-223563.21
-221283.5
-219171.37
-216958.68
-214762.27
-212494.89
-210147.62
-207700.96
-205121.73
-202367.1
-199456.64
-196321.04
-192997.85
-189439.38
-185666.76
-181675.59
-177474.57
-173071.3
-168493.34
-163751.88
-158867.47
-153874.83
-148798.25
-143643
-138454.53
-133232.79
-127859.38
-122472.12
-117131.74
-112265.23
-107231.71
-102289.49
-97067.417
-92184.839
-87205.701
-82268.464
-77416.324
-72692.316
-67847.664
-63199.525
-58487.626
-53884.972
-49310.276
-44898.789
-40405.52
-36169.344
-31981.47
-27796.364
-23951.624
-20128.013
-16565.781
-12899.187
-10623.285
-6537.6332
-3129.9999
3686.6863
631999.11
622404.2
602145.69
619663.57
622277.28
626938.38
649603.08
634205.27
629872.88
628939.86
623528.57
602994.48
597270.85
629798.86
537102.22
577242.39
594441.67
560699.61
579616.18
582987.32
595478.16
578032
599805.38
593620.71
597887.08
585020.28
582663.19
582022.73
588558.69
508051.57
435813.06
498330.6
439386.87
460884.76
459699.68
454755.98
461748.95
456631.3
460667.67
454070.36
452566.98
456891.18
427321.65
470927.39
438560.77
385770.14
387250.48
386516.24
380877.09
392963.42
389163.08
394840.51
395583.49
391209.41
392713.26
393535.2
379303.14
381501
408241.29
297827.12
274227.86
310723.42
269995.14
293361.6
283533.54
294114.58
290027.97
289537.96
291274.24
291062.04
286824.24
286702.96
283258.81
291703.71
263701.3
201832.25
210897.74
196296.6
202991.76
203038.1
204155.97
203144.27
203716.16
205343.12
204100.72
199259.17
206883.63
195031.6
207247.7
198465.06
109047.07
109488.93
111031.57
105834.07
111598.38
111265.27
111182.39
111261.58
108815.9
110538.08
109029.81
102038.13
111387.28
102187.15
107031.47
14913.355
14158.138
7231.7822
14207.011
10318.479
12013.204
11276.323
11692.591
9447.2044
15979.356
3362.016
14886.196
20637.864
-1390.7029
48486.422
-71760.553
-82153.063
-71376.211
-78348.884
-75969.327
-76680.133
-77141.368
-75798.495
-78853.698
-70968.611
-81392.002
-71615.042
-68998.136
-93329.674
-11263.333
-149273.52
-184286.32
-163531.3
-170149.93
-169984
-172741.27
-173984.91
-173360.1
-178631.3
-168260.23
-189466
-165541.41
-164069.24
-199586.28
-103250.13
-244030.69
-297583.13
-249408.84
-277875.9
-264461.67
-271394.6
-268736.41
-269037.85
-271690.45
-259807.72
-266508.43
-264861.58
-244224.85
-281704.27
-166011.74
-358606.99
-344544.81
-346302.64
-339570.37
-352510.94
-353848.38
-356157.45
-359759.72
-361454.65
-355370.15
-373724.39
-328915.68
-347284.89
-382863.1
-259002.47
-407775.46
-457546.05
-402759.62
-422207.6
-404533.61
-417928.15
-413575.06
-414309.82
-410063.66
-406876.75
-410720.35
-417003.48
-378736.33
-460093.56
-229291.9
-494049.58
-595369.84
-513617.42
-559443.47
-572590.47
-568014.12
-572130.89
-597982.59
-584978.32
-601077.64
-567233.88
-552914.65
-568069.65
-553501.5
-506293.45
-540713.12
-476196.97
-431697.36
-434637.1
-452942.71
-486064.62
-464222.77
-445894.37
-428209.62
-425823.97
-436508.18
-439800.37
-439134.47
-491908.55
-441401.89
-474786.18
-444346.44
-526283.22
-553505.18
-575466.69
-626512.65
-602850.06
-564392.82
-641560.3
-628152.61
-606603.87
-574297.23
-548836.29
-525235.94
-437777.66
-343872.57
-346279.82
-388390.81
-397978.61
-416705.72
-429257.87
-442002.77
-453902.89
-467156.74
-445630.82
-436382.56
-410064.15
-411660.61
-409170.4
-412212.74
-289057.26
-330087.66
-322531.92
-352476.83
-373204.01
-361660.07
-380048.72
-376263.59
-365394.88
-380835.45
-365855.52
-371316.47
-359873.22
-319647.68
-334529.15
-297904.94
-337584.76
-341365.59
-349925.3
-358776.19
-366906.85
-369638.17
-372766.73
-372131.86
-364084.95
-363911.04
-354532.83
-341055.57
-335872
-316392.59
-318863.32
-347586.57
-337632
-363497.66
-366159.67
-373433.98
-381704.16
-380112.26
-382667.17
-382642.23
-372433.04
-365423.7
-349891.75
-335843.77
-332423.48
-312333.36
-326293.09
-334323.79
-347296.85
-351656.09
-361468.52
-360585.18
-362432.53
-362493.78
-356536.63
-354737.77
-347406.73
-338055.95
-329651.88
-312237.03
-313482.79
-335229.73
-335699.15
-349254.14
-350065.04
-357640.88
-360180.61
-361224.99
-360954.39
-357770.77
-350574.83
-346658.28
-337645.85
-324127.08
-326383.58
-318402.84
-324791.26
-333455.48
-338807.55
-348217.28
-349897.96
-353474.58
-354859.97
-353378.28
-351548.98
-347503.22
-341489.3
-334940.63
-324568.43
-316865.38
-314601.19
-327486.01
-329736.06
-338908.04
-338361.69
-346155.02
-344157.38
-346979.82
-345254.65
-342248.95
-338991.82
-333764.87
-329490.24
-322304.85
-318817.83
-317217.46
-320679.54
-326693.42
-329138.71
-334503.98
-335740.6
-338699.16
-338610.79
-337674.58
-337646.98
-333320.25
-331225.13
-326461.14
-320364.92
-317934.6
-313503.91
-321485.94
-323243.98
-329616.82
-330555.1
-335399.89
-334619.38
-337146.04
-336435.11
-334619.12
-333465.72
-330630.81
-326125.5
-322650.56
-319806.37
-315212.12
-316236.55
-320517.7
-321992.79
-324702.45
-325265.95
-327603.7
-327760.68
-327984.57
-327216.36
-325533.6
-322874.34
-321276.12
-317207.8
-316471.33
-313372.16
-315433.47
-316264.05
-320551.2
-321260.6
-324755.27
-324204.7
-326130.55
-325815.03
-325241.37
-323089.48
-322858.62
-319112.26
-317953.57
-315303.62
-310510.17
-311924.99
-315390.08
-315413.42
-317949.87
-318039.31
-318850.51
-319871.72
-319759.37
-318753.52
-318256.54
-317089.86
-315348.42
-313249.06
-313578.79
-309409.76
-309691.55
-311310.29
-313564.36
-314384.1
-315364.08
-316619.13
-316114.18
-317124.41
-317150.84
-315967.28
-315594.3
-312612.92
-313119.14
-311442.18
-306034.86
-307403.16
-309860.95
-309494.31
-310771.19
-311160.07
-313369.73
-311576.99
-311308.69
-311070.89
-309905.88
-309826.06
-307340.41
-306899.88
-306070.5
-305317.02
-304495.49
-306696.35
-306102.33
-308394.27
-309115.48
-308997.76
-309594.94
-310008.41
-310014.1
-309238.68
-309486.89
-308842.1
-306081.13
-308770.19
-302955.32
-302841.12
-304149.85
-303894.41
-304945.47
-305273.88
-305915.79
-305088.12
-305188.75
-304849.72
-303961.32
-303640.11
-302456.46
-302070.29
-301486.4
-299498.19
-299822.16
-301422.65
-302226.28
-302327.46
-302585.76
-301946.65
-303429.38
-302986.83
-303367.4
-301656.82
-303007.33
-301457.81
-302510.09
-301706.79
-298096.01
-297468.98
-298737.86
-298020.63
-299408.9
-299380.79
-300594.16
-299208.25
-300149.97
-299231.18
-298173.18
-299507.89
-297480.27
-298204.49
-297021.48
-295830.32
-295240.71
-296577.93
-296260.48
-296451.12
-296161.66
-297103.98
-297562.13
-296886.46
-296964.79
-296738.49
-297070.32
-295804.93
-296215.32
-295408.43
-291632.19
-292711.98
-293197.53
-293473.29
-294127.48
-293719.87
-294578.45
-293823.23
-294403.98
-294023.64
-293474.73
-294366.82
-292956.83
-291622.85
-293763.87
-291091.76
-289444.97
-290896.05
-290830.89
-291214.32
-291315.61
-291808.76
-291572.84
-290697.03
-292128.63
-290432.76
-290788.41
-289367.74
-290935.41
-290458.01
-286929.78
-287292.55
-287873.87
-288581.73
-288218.42
-288739.41
-288442.89
-288130.8
-288701.98
-288104.78
-287227.25
-288651.29
-287796.44
-287037.95
-287400.65
-284533.13
-284911.09
-284916.85
-285336.62
-285277.22
-284811.11
-286041.51
-285584.41
-285532
-286038.45
-284367.7
-285731.88
-284566.58
-284414.76
-285025.12
-282742.24
-280999.23
-282467.52
-281587.25
-282291.5
-282677.25
-282941.44
-282427.99
-282724.69
-282575.11
-282846.16
-282492.84
-280916.05
-282453.36
-281199.83
-278464.2
-278529.94
-278508.61
-279786.75
-279126.69
-280295.74
-279662.53
-279989.71
-279522.74
-279841.38
-278743.25
-280400.64
-278023.63
-278230.87
-279756.99
-277025.46
-274936.27
-275896.74
-275811.38
-276786.61
-276584.59
-276422.18
-276500.48
-276791.7
-276418.79
-276253.7
-276029.64
-275446.57
-276942.47
-275039.5
-272328.94
-272806.05
-273505.01
-273122.65
-272927.23
-273564.9
-273405.69
-273694.82
-273509.23
-273695.89
-272907.33
-273931.53
-272239.44
-272104.35
-273719.05
-271512.9
-268414.17
-269805.53
-270132.82
-270568.5
-270014.97
-270466.33
-270464.6
-270424.33
-270126.78
-269540.64
-270390.17
-269122.11
-269952.7
-269923.02
-267252.89
-266317.35
-266899.33
-267082.75
-266749.96
-267946.22
-266934.5
-267224.63
-266452.72
-267425.24
-266644.44
-267329.52
-266188.1
-266361.16
-266995.67
-265158.71
-262666.41
-263994.82
-263862.2
-264014.07
-264365.14
-264081.32
-264175.99
-263967.73
-264296.94
-263426.42
-264369.5
-263100.82
-263726.87
-263952.74
-261760.66
-259916.94
-260770.65
-260865.44
-260946.51
-261407.61
-260971.23
-261241.83
-260976.95
-261264.2
-260561.49
-261292.59
-260175.64
-260691.04
-260810.93
-258834
-256802.95
-257842.9
-257769.44
-257947.85
-258238.39
-258150.08
-258252.25
-257983.93
-258266.95
-257528.18
-258347.64
-257348.39
-257867.95
-258262.58
-255427.34
-254206.62
-255054.93
-254846.87
-255041.32
-255680.46
-255169.06
-255593.86
-255175.52
-255751.4
-254821.89
-255771.42
-254338.56
-255469.14
-254744.86
-252191.46
-251841.68
-251743.91
-253115.26
-251918.1
-252756.81
-252559.29
-252613.45
-252643.82
-252913.15
-252156.8
-252902.09
-252280.64
-252453.57
-253686
-250957.28
-248333.33
-249548.14
-249403.06
-250210.06
-249878.31
-250306.76
-250114.23
-250182.05
-249939.11
-249662.91
-250627.85
-249417.22
-250242.12
-250195.25
-247674.3
-246448.55
-246945.88
-247659.73
-247037.45
-248027.56
-247470.43
-248036.75
-247597.21
-248043.28
-247295.27
-248194.76
-247251.34
-247677.51
-247955.17
-246034.59
-243653.82
-244915.14
-244968.87
-245238.19
-245546.54
-245556.48
-245698.77
-245504.06
-245900.88
-245168.48
-246200.24
-244933.2
-245715.04
-245773.45
-243222.55
-241661.97
-242575.67
-242965.72
-242933.64
-243581.95
-243388.65
-243640.44
-243500.75
-243811.72
-243101.26
-243899.63
-243011.85
-243552.41
-243656.79
-241316.76
-239373.42
-240592.84
-240780.34
-241049.42
-241431.08
-241450.41
-241667.58
-241513.07
-241916.6
-241127.88
-242122.59
-241026.7
-241541
-241645.35
-238965.42
-237425
-238482.11
-238898.32
-239041.22
-239597.43
-239611.04
-239764.54
-239724.03
-240000.76
-239368.15
-240200.92
-239169.14
-239595.82
-239744.31
-236967.03
-235331.18
-236570.89
-236897.51
-237169.55
-237721.86
-237721.93
-237952.68