/*--------------------------------*- C++ -*----------------------------------*\
  =========                 |
  \\      /  F ield         | OpenFOAM: The Open Source CFD Toolbox
   \\    /   O peration     | Website:  https://openfoam.org
    \\  /    A nd           | Version:  6
     \\/     M anipulation  |
\*---------------------------------------------------------------------------*/
FoamFile
{
    version     2.0;
    format      ascii;
    class       pointScalarField;
    location    "1.42";
    object      E;
}
// * * * * * * * * * * * * * * * * * * * * * * * * * * * * * * * * * * * * * //

dimensions      [1 -1 -2 0 0 0 0];

internalField   nonuniform List<scalar> 
625
(
31927.638
25806.249
12940.807
-5259.9331
30645.834
25357.754
-4858.608
9705.7411
5325.8865
2811.3177
15228.237
-10257.499
-16294.837
21557.916
37582.593
30688.758
30372.417
30102.433
27318.212
28074.436
26312.134
23243.607
21398.249
14209.849
8291.0091
-699.20635
-9655.7786
-20947.947
-31057.288
-42419.313
-51350.045
-59513.059
-60271.774
-58842.005
-49563.781
-40011.815
-15384.666
43776.176
23892.697
32910.65
22847.093
13268.097
12120.476
721.71352
-1230.6147
-3761.6511
-4654.5257
589.72198
6012.2989
17048.16
29537.9
45194.621
60548.318
75947.972
86986.062
94339.955
92951.081
84043.013
67775.184
36794.822
7262.134
2796.1165
15811.09
53946.437
64441.793
31630.502
35463.668
30472.653
11441.374
10106.673
6714.3241
1880.3847
3670.3112
2842.854
10915.179
17469.414
29246.962
42352.148
54143.412
66422.017
73608.538
76676.308
73140.277
63257.089
47024.513
32554.377
14715.532
-13902.618
-9949.3274
-9689.2495
-19324.67
-27621.243
-34141.042
-36870.165
-35533.23
-32673.643
-27128.282
-21184.034
-14275.14
-8257.4177
-1196.2845
4406.0174
11464.265
11703.015
15291.985
20625.743
21289.022
25288.268
21984.487
32121.435
31193.291
43494.644
22354.261
23250.619
21254.647
20732.3
18308.05
17604.958
-6225.5607
-4836.3594
-5963.5111
11452.435
12432.349
11472.785
14104.316
8486.2984
10214.119
7238.1077
4007.3887
2565.1478
-2181.5974
-4420.288
-6409.1971
-7328.3848
-4900.3502
-1415.9952
5257.975
13950.063
24288.942
34773.796
44709.222
52024.941
56263.652
54317.127
50851.273
38831.928
21178.731
6546.7395
4526.8622
5112.6056
2485.8218
2520.2667
1324.217
-806.0506
532.0235
-62.11025
2269.9627
3907.7823
6993.1059
10471.672
13936.924
17098.97
19428.571
20837.832
20071.047
18986.886
13442.454
9705.2957
1749.3112
-3437.2261
17007.585
14862.159
15779.881
15535.844
17558.295
16307.996
18651.7
16305.184
14522.621
11689.814
5640.6957
119.30246
-8968.7307
-18490.313
-30314.011
-42194.958
-54995.86
-64718.657
-73196.129
-72298.603
-65991.486
-50567.691
-21084.717
2760.7588
3399.6515
3389.1278
1773.6185
1141.9507
3347.2081
8733.5772
8711.6528
9644.9534
47492.539
49636.474
49964.672
50880.771
46211.194
47915.628
31976.089
27252.916
35308.06
27219.485
29049.011
26407.287
22836.474
16331.283
25325.741
13170.469
14685.667
13049.649
10338.68
5150.7038
10544.757
5243.0794
-1515.0799
5197.5647
1678.8135
-1372.6443
1052.4877
4314.3172
-2790.9506
3256.8677
4974.2606
980.18882
4050.8808
13859.727
7379.9494
12154.327
22451.047
17933.141
22144.445
36638.143
31204.107
34616.466
50912.626
46698.284
50655.173
66406.372
62917.438
65482.013
80120.141
77320.724
79399.332
89827.531
87766.163
89565.734
94186.162
92977.547
93924.666
90937.648
89641.403
90419.244
79674.487
79257.872
79909.988
60569.447
61479.633
62237.227
36567.616
35359.817
37343.457
-11190.27
-10367.778
-10607.389
-12769.722
-13361.392
-16516.618
20915.664
20771.94
19116.725
39419.982
33809.172
32496.968
37547.834
31835.099
33266.246
37125.839
34597.823
34985.63
31177.408
27525.94
26213.679
32407.242
30044.117
29269.809
28920.469
23743.407
25084.288
26641.694
25880.832
24477.661
24763.723
20982.745
21629.616
20315.471
18981.288
18395.249
14823.926
11969.123
14866.165
8625.2182
7989.4755
9046.1499
1896.1645
-520.84098
3100.3039
-7420.951
-8205.6148
-4494.0013
-16027.541
-17793.415
-12762.821
-25662.164
-27106.06
-21357.053
-34943.255
-36647.118
-30297.545
-43020.712
-44791.893
-37967.221
-48926.963
-50666.92
-44472.881
-51315.319
-54097.355
-46918.727
-48962.532
-54250.672
-46403.529
-39934.652
-45231.971
-39471.648
-32545.698
-33469.602
-31076.978
-12649.554
-12972.128
-12029.408
23077.415
18138.627
15027.971
13323.246
11862.361
6051.4933
6196.917
977.6462
-400.06291
-2007.9591
-70.862006
2903.1861
7993.9385
15197.855
24030.896
32930.51
40982.685
47053.392
49163.811
48048.481
42126.254
30573.51
26236.093
2835.1892
12091.809
1827.7515
8380.6438
5651.1904
7960.497
8378.1147
9326.4558
11511.241
10693.479
10475.007
9902.253
6646.3768
4209.3421
-95.944081
-5371.7226
-10961.508
-17323.69
-22967.937
-27295.674
-29075.145
-29672.982
-16222.131
23184.17
11845.601
20133.284
13270.626
21685.816
19179.756
18487.839
20529.228
14119.364
12241.013
3577.2764
-4263.2119
-15476.534
-27557.058
-40663.194
-53622.707
-64919.589
-73458.417
-76477.265
-73030.42
-62002.449
-42269.686
-16272.761
18615.489
16881.745
16531.389
16175.579
15973.722
14701.41
14714.153
14682.271
14668.609
11579.618
11754.911
10132.363
10050.778
9549.8436
9836.5521
6776.1412
6042.2681
4713.1227
2651.2715
2685.784
2737.1557
937.05784
525.84812
-392.28521
-1524.3285
-3298.8435
-3062.0315
-1966.408
-2600.0477
-2586.214
103.95898
-1695.1162
-1990.5816
3391.6549
2044.5034
2708.0329
10686.744
8586.608
8952.5776
19437.735
17055.24
17706.581
29769.605
26966.506
27843.375
40333.33
37632.297
38381.492
49782.333
46899.404
47793.219
56535.979
54562.952
54602.677
59550.416
57025.769
58418.615
54274.352
59203.596
56235.816
49915.182
52665.303
49912.413
38657.806
37424.433
37130.174
23548.501
24170.209
24612.758
4446.6819
4353.2801
3834.5773
7902.519
11402.381
11457.701
4150.2597
1181.9329
2317.7867
4808.5934
6109.1678
7555.1056
5322.1052
1991.6737
3103.3592
4406.6282
2194.7376
4482.5474
4954.5407
2614.4745
4447.2249
6445.0986
3018.8244
4234.5667
5776.0871
3939.5619
5932.6708
8030.7902
5732.742
6949.7298
8442.6399
6407.9211
7284.4906
9251.514
7776.1982
8408.2952
10129.652
9078.4488
8297.7566
9904.7814
9036.5193
7843.5887
9897.6909
9156.6825
7183.4652
8439.457
7416.5438
5215.7812
6661.4358
5299.1224
2724.8133
3234.928
1107.4637
-845.1833
184.13755
-2615.6579
-4571.8262
-5160.0858
-6998.4798
-9102.3615
-12937.211
-2745.1599
-10698.896
-13412.681
-16285.717
-16803.399
-12202.988
-13731.765
-13041.065
18941.188
19817.792
21536.877
12339.54
12004.102
15401.967
16189.738
21677.547
21613.363
17404.303
15952.385
16497.372
17121.861
20992
20871.584
18360.03
19926.681
19865.523
19993.211
20768.939
20263.96
16726.763
19438.84
19628.443
16490.036
16782.878
17275.191
11632.863
13147.522
13058.88
5865.0094
5994.0962
7102.8389
-987.60454
-1588.0719
-536.90602
-10662.969
-12472.826
-9768.1496
-20954.635
-23777.737
-20733.844
-32789.944
-37027.714
-32564.786
-45046.455
-49664.315
-44863.05
-56389.545
-61791.986
-56271.177
-66040.572
-70531.192
-65316.992
-71152.766
-74887.296
-70521.803
-69961.026
-72891.41
-69220.469
-62590.886
-63515.619
-61835.75
-45413.698
-45019.754
-44292.146
-18567.855
-18407.904
-17367.517
)
;

boundaryField
{
    free
    {
        type            zeroGradient;
    }
    fixed
    {
        type            zeroGradient;
    }
    freeTop
    {
        type            zeroGradient;
    }
}


// ************************************************************************* //
