/*--------------------------------*- C++ -*----------------------------------*\
  =========                 |
  \\      /  F ield         | OpenFOAM: The Open Source CFD Toolbox
   \\    /   O peration     | Website:  https://openfoam.org
    \\  /    A nd           | Version:  6
     \\/     M anipulation  |
\*---------------------------------------------------------------------------*/
FoamFile
{
    version     2.0;
    format      ascii;
    class       pointScalarField;
    location    "1.42";
    object      p;
}
// * * * * * * * * * * * * * * * * * * * * * * * * * * * * * * * * * * * * * //

dimensions      [1 -1 -2 0 0 0 0];

internalField   nonuniform List<scalar> 
625
(
-871981.27
1281947.8
-1932.395
-5227.3123
-1584491.8
2301141.1
-1721.9462
453.13345
-542655.03
-94404.256
165243.97
3267.2634
1569.3056
-1457.4502
-365464.14
-386341.69
-377274.07
-362483.52
-317151.43
-300030.37
-265509.86
-237971.74
-227800.22
-193960.96
-182333.67
-160967.31
-145261.89
-125447.79
-107806.86
-89352.53
-71367.47
-55236.84
-39508.18
-24954.271
-14574.39
-4456.0901
-976.77127
400931.4
277428.15
354566.42
280346.73
272843.71
260480.49
235504.15
222484.99
211346.46
194969.81
183533.27
166551.13
153794.86
136054.3
118448.87
100029.92
81084.793
64182.719
45403.668
33045.492
18171.917
8439.9688
1167.4644
-887583.3
-13909.096
411316.68
395491.5
536525.24
391570.96
375109.31
403766.43
338397.74
324940.84
320450.28
290033.05
275177.2
242605.04
217852.68
184220.15
155564.22
126778.14
98819.821
75779.803
54533.277
36739.329
22664.98
10732.634
1856.6038
-3019.4481
-2321.1455
1481.6995
2168.423
-1232.8924
-6142.4479
-15232.107
-27452.024
-41726.809
-59613.294
-78474.633
-99849.766
-121597.78
-144012.6
-166270.56
-188558.46
-208473.51
-213305.06
-267029.52
-266540.89
-292532.59
-292010.7
-350119.19
-322693.42
-364574.81
-394156.77
-343946.21
-903617.75
-870862.36
-726120.26
1366187.7
1346186.8
1290142.8
-5840.0612
-5222.0184
-6728.5369
435.69574
722.22209
105.21838
-144640.91
-183296.43
-197046.83
-179847.27
-182038.59
-183667.15
-168143.13
-163592.36
-150245.48
-138483.75
-128393.53
-112831.66
-96934.615
-80027.631
-65234.662
-49545.512
-36633.939
-25760.67
-15471.715
-10556.9
-4831.6235
-2567.1124
-1087.5604
24773.919
-14787.803
10252.483
-12273.654
-1234.1788
-1589.5796
5716.455
4889.2277
8470.9092
15984.753
17210.933
21084.72
21428.26
20146.193
17504.08
14657.008
10401.438
6439.4651
3873.7887
221.31572
603.77119
-1564.7885
-323.00469
248906.81
228457.12
220147.76
198719.99
215251.42
184739.26
181745.42
162429.29
152551.42
135623.46
118168.33
102886.78
87757.508
74134.521
62175.102
51452.606
41530.634
32140.034
25154.403
15819.27
10315.562
6337.6511
2519.5225
-434244.69
-396973.76
-448115.69
-37665.399
-71329.395
-40343.183
191861.31
253891.87
335624.58
520673.5
512103.45
525974.54
452744.49
427275.29
393156.31
386090.19
367311.06
383029.4
333785.28
325856.7
323059.41
335133.47
326837.72
348955.06
309512.48
295159.34
297624.12
294347.64
282707.68
300565.83
279306.83
260119.19
280211.08
256928.61
244851.97
261690.89
237284.11
227159.66
243707.24
213006.12
205969.56
221025.02
190231.01
185303.65
198157.15
163877.47
160841.61
170749.25
139166.76
136424.4
144400.71
114270
112460.28
119438.61
91875.723
90502.57
94771.754
71373.833
69033.124
72933.387
52640.945
51322.17
54075.711
37107.382
35025.07
37018.224
23464.008
21908.354
23550.052
11832.288
10969.1
12536.422
3113.5184
5001.4699
4576.6541
1554.3174
-1102.9209
1442.9984
3009.4797
2821.9928
3280.9623
1654.041
1861.4995
2068.7404
-1027.5362
-2414.7935
-2212.1598
-433270.54
-440586.82
-428947.76
-441654.58
-414420.36
-381252.49
-418101.67
-389882.08
-390644.27
-361206.86
-338686.58
-342604.6
-341870.69
-335172.35
-299349.2
-325123.69
-269426.87
-295146.34
-287641.3
-263889.12
-273168.56
-276187.68
-236698.74
-248668.57
-241847.91
-221233.91
-225985.83
-233726.82
-194041.95
-218646.49
-210174.81
-179231.19
-197524.19
-192037.27
-157368.82
-181284.45
-166280.4
-140830.28
-161615.2
-144942.28
-122390.61
-141161.49
-121020.07
-104594.95
-119548.57
-98632.466
-86533.695
-98246.956
-76712.72
-69601.028
-77352.672
-57482.794
-53125.091
-57910.859
-38316.85
-37949.702
-39993.844
-24055.993
-23880.911
-25072.531
-11392.702
-12242.346
-12097.921
-2865.5102
-3283.3242
-3138.1232
-642.91825
-757.03469
-129.73096
-249322.92
-257425.7
-224000.18
-228453.6
-244611.41
-210205.6
-201698.43
-184164.8
-163473.14
-142257.68
-129190.99
-103608.01
-85470.103
-68529.369
-53529.368
-41066.684
-30638.738
-22594.947
-15997.756
-10823.558
-6367.1238
-3861.2236
-1337.2413
36214.272
-23537.186
8286.0617
-19861.427
-24558.186
10624.499
-6588.2823
5870.2406
4255.5329
5098.8717
-4538.6719
-6886.7072
-14782.244
-20213.559
-24124.53
-26073.076
-25238.879
-23390.409
-18829.483
-14831.728
-9984.6965
-5293.5962
-1259.8618
230793.76
232263.38
264586.58
223368.78
219592.25
204955.46
165187.82
155815.5
132440.62
116688.22
103223.79
93143.1
85621.1
76608.896
70383.365
61940.725
53346.646
44266.074
35279.437
25615.079
17909.368
10681.175
5392.6879
-315502.12
-282913.42
-251255.13
-271559.09
-242846.99
-237875.95
-225440.69
-208148.37
-259940.4
-216494.42
-231610.84
-194493.17
-242681.31
-190350.43
-219091.73
-193103.41
-202504
-218078.52
-200543.62
-203759.63
-197560.59
-184620.79
-176505.36
-184356.91
-166706.87
-164351.18
-177346.96
-142080.98
-154556.83
-152696.64
-121361.48
-133365.38
-130473.4
-96022.195
-113354.36
-112331.27
-76602.753
-94888.232
-91177.894
-58560.782
-74961.008
-72762.955
-42308.207
-57331.826
-56022.021
-29750.72
-42547.547
-41844.26
-20777.619
-29465.293
-30112.243
-13542.595
-19414.455
-20402.352
-9123.735
-11274.215
-13689.433
-7473.81
-7323.0602
-8421.1677
-4558.9645
-2153.1638
-5020.5712
-3618.3809
-3095.2978
-3763.6106
-708.68401
607.40592
-485.43043
-9603.7193
32481.028
-19279.487
-12502.959
-53445.945
-61146.588
-42100.985
-37382.277
-44779.659
-27330.652
-29062.507
-30325.542
-12976.201
-23788.136
-47204.84
-7010.9154
-30957.178
-29148.603
-8678.5902
-14099.939
-11471.242
2389.174
-5040.1566
-13615.676
8559.604
-9183.1075
-2060.2155
1836.3455
-1722.2085
3354.3128
3942.035
-1423.2528
8668.9145
372.46429
-4808.2302
7957.544
-3037.6292
-8941.1944
11355.595
-6495.9654
-9973.5697
8668.0364
-7605.7177
-14281.338
6269.2327
-10004.414
-15952.259
3333.3929
-10681.427
-16196.399
-156.25189
-9589.9287
-16102.926
-2475.1896
-10049.481
-13838.192
-5477.0431
-7000.3152
-11602.92
-4348.4638
-6810.0212
-4102.4542
-5302.9936
-3588.2298
-4486.7371
-4638.1858
-709.88779
-1291.8197
-1820.5752
318990.04
337746.92
391483.54
208706.55
194051.31
267491.05
208524.84
267080.06
269294.68
243875.36
202829.52
235191.54
192510.4
195528.3
221484.98
191992.61
180557.47
219222.21
169708.9
164249.07
190159.34
156439.86
145211.26
173321.93
133278.09
128024.96
152560.75
119506.64
116532.66
134256.27
103007.47
103518.34
113890.46
88904.56
94009.761
99134.784
73945.39
88113.84
85594.698
63619.506
81105.475
73013.886
52997.707
73428.335
62134.82
44259.302
65055.633
53693.522
36198.149
56304.381
44502.507
29499.34
45742.073
36332.129
22963.62
35671.435
29133.094
15638.425
26223.57
20810.759
13803.478
16107.142
13450.27
5330.2496
7581.4494
3996.1555
3124.0283
4445.07
4972.1762
)
;

boundaryField
{
    free
    {
        type            calculated;
    }
    fixed
    {
        type            calculated;
    }
    freeTop
    {
        type            calculated;
    }
}


// ************************************************************************* //
