/*--------------------------------*- C++ -*----------------------------------*\
  =========                 |
  \\      /  F ield         | OpenFOAM: The Open Source CFD Toolbox
   \\    /   O peration     | Website:  https://openfoam.org
    \\  /    A nd           | Version:  6
     \\/     M anipulation  |
\*---------------------------------------------------------------------------*/
FoamFile
{
    version     2.0;
    format      ascii;
    class       pointScalarField;
    location    "1.67";
    object      p;
}
// * * * * * * * * * * * * * * * * * * * * * * * * * * * * * * * * * * * * * //

dimensions      [1 -1 -2 0 0 0 0];

internalField   nonuniform List<scalar> 
3969
(
-672055.57
867548.34
106.90419
-179.32368
-1155011.8
1926452.2
-117.07122
156.77927
-526556.32
-387575.38
-200770.11
-44753.143
95681.346
277531.85
315227.55
229.73749
531.57851
430.92841
-83.526019
-444.04276
-556.73184
-486.32464
-187348.05
-226798.43
-211193.49
-225860.76
-213779.8
-216832.92
-203316.04
-200734.66
-189680.01
-180947.68
-174150.72
-165315.02
-157704.15
-150748
-143224.85
-135154.55
-129371.71
-121124.23
-115319.35
-107350.38
-101287.22
-94124.029
-87401.153
-80855.617
-74297.382
-67897.299
-61754.984
-55757.325
-50277.637
-44417.903
-39210.549
-34008.187
-29213.816
-24628.372
-20393.167
-16593.351
-13149.496
-10161.753
-7394.9155
-5208.7557
-3439.2372
-2125.8479
-1066.2066
-374.08498
-49.16224
332.1544
50.721713
214628.62
174691.15
206448.85
177625.88
201143.67
177422.27
185564.95
171000.21
171038.59
160640.29
157502.19
151428.6
145032.1
140246.86
135159.7
129208.77
124539.69
118960.21
113535.45
109383.16
102447.99
99445.774
92742.133
88945.713
82754.377
78293.58
72324.72
67698.17
62264.08
57227.613
52702.375
47383.335
42854.818
37971.555
33481.096
29017.087
25016.887
20836.274
17191.384
13602.835
10586.061
7850.7563
5557.4163
3583.9757
1960.085
802.20906
110.73179
-823464.84
-595756.4
-208422.04
105345.52
379447.62
683613.14
572344.96
254807.73
302524.52
186307.9
255405.4
226676.72
227892.9
221561.32
209972.75
207559.02
188226.41
191937.68
178810.36
174378.67
170362.48
156387.36
155891.82
141262.23
138005.61
126579.78
120415.86
111495.42
105273.9
97001.723
90565.926
83333.645
77602.293
70066.709
62979.923
56591.841
50192.009
43756.231
38084.488
32574.135
27339.025
22965.165
18654.125
14123.955
11752.505
8500.628
6192.5967
4248.2256
2805.3932
1515.0193
790.77715
233.60159
-56.110524
-331.12783
-524.45266
-341.54133
-446.66484
273.78876
197.46686
492.32821
294.94977
-131.44247
-349.17708
-1406.1438
-2849.2837
-4739.2704
-6885.4985
-9571.0888
-12362.337
-15760.43
-19230.867
-23053.876
-28364.951
-32260.61
-37613.666
-42781.717
-47954.566
-53437.896
-58893.632
-64426.523
-69689.663
-75404.154
-80468.089
-86067.459
-91096.847
-97000.7
-101931.38
-107691.8
-112115.06
-118357.2
-122241.52
-129425.71
-131918.22
-135899.78
-144091.35
-155105.92
-151370.7
-164838.79
-163298.34
-168873.89
-186882.33
-194130.95
-186794.57
-203677.27
-193410.9
-186177.65
-205401.21
-212180.99
-548513.12
-602639.48
-618768.45
-604311.21
-573698.84
-559420.14
-397007.93
705672.99
895805.64
1038677.5
1118751.7
1073989
1101920
881444.16
-113.45989
92.61739
35.537017
180.83687
293.9451
478.66559
287.05556
-299.98504
-280.13205
-71.929443
145.28419
370.46881
463.74649
373.92031
-162326.8
-176489.34
-172033.53
-171961.88
-171638.58
-167880.06
-163301.78
-159578.05
-151629.1
-147827.38
-141675.13
-132507.68
-130446.28
-121353.23
-116818.93
-109897.29
-104904.18
-97938.299
-92464.052
-85998.742
-80819.963
-74236.15
-69003.445
-63175.796
-58038.083
-52036.115
-46941.45
-41981.236
-36773.822
-32079.682
-27600.634
-23292.676
-19579.726
-15910.78
-12916.644
-10153.547
-7801.8245
-5699.0044
-4242.7712
-2930.6187
-1931.0515
-1268.3297
-702.07681
-491.21254
-264.77973
-27.019058
115.18604
-106704.73
-119709.18
-108785.29
-116381.31
-116497.59
-118757.68
-112207.27
-110175.52
-105246.29
-102398.02
-96580.123
-93220.25
-87577.009
-82374.919
-78966.128
-73698.761
-69918.714
-64771.492
-60947.582
-56324.519
-51822.012
-47322.055
-43064.153
-38925.189
-34757.546
-31009.248
-27680.223
-23889.002
-20831.778
-17660.699
-14883.953
-12260.634
-9993.0341
-7885.7337
-6149.0955
-4589.4533
-3264.427
-2303.9236
-1668.7412
-1034.1284
-661.6151
-457.87026
-296.70333
-301.78847
-299.23088
30.3679
-130.7126
-52322.763
-68728.555
-53846.031
-61513.607
-59581.031
-60349.167
-57651.967
-57662.952
-55427.588
-51844.368
-51685.237
-47297.042
-45843.712
-41377.081
-39037.622
-35945.846
-34145.497
-30871.573
-29506.384
-26041.921
-24894.393
-22209.169
-20502.337
-17758.121
-16090.958
-13730.032
-11798.292
-9760.6188
-8144.3267
-6310.5708
-4843.6246
-3331.4504
-2217.2021
-1052.1968
-315.75358
410.55675
816.92314
1165.4295
1397.9444
1414.5663
1283.201
1046.3142
829.50562
419.35802
268.34728
133.72187
-203.25474
-3791.0004
-13980.671
-3093.3073
-11003.838
-5736.3568
-8402.0704
-1772.1833
-5223.4416
-1154.6005
-5486.5177
-738.79747
-3156.1181
-686.62447
-1002.9037
-843.79538
464.87369
779.36848
1943.6771
2431.5541
4028.0897
4229.8096
6095.2806
7520.0888
8531.4088
8853.2907
9664.2025
9720.5675
9963.7923
9994.1378
10021.361
9825.4815
9641.0321
9234.7008
8840.6414
8217.2246
7674.0104
6881.6074
6190.724
5036.3203
4029.3017
3271.1093
2517.3675
1817.603
1114.1458
704.0954
192.99808
-176.84712
55561.072
41479.734
50652.091
48995.717
52097.993
51363.3
50605.136
48506.724
47253.42
43636.597
44161.762
39802.035
41186.627
37870.757
37687.708
36759.582
34844.091
34931.918
32857.087
33062.496
30468.513
29111.102
27521.369
25861.712
25333.116
25385.539
23730.02
22897.684
21708.181
20639.725
19345.517
18232.098
16803.856
15525.408
14068.148
12638.814
11272.074
9825.7066
8875.96
7084.9676
5855.7862
4532.8479
3351.178
2270.5752
1338.3767
599.46292
-127.57181
111924.27
97127.643
103851.12
105336.71
106384.7
102204.39
102274.66
96301.066
96624.564
90188.915
90181.903
85198.916
83479.132
81268.93
77940.201
75495.388
72018.912
70239.248
66424.238
65080.825
60822.37
59693.754
54612.851
51820.908
48243.348
46175.767
43410.904
41074.698
38265.939
35743.467
33231.309
30510.322
27898.22
25179.604
22540.091
19939.813
17302.374
14839.208
12195.609
10067.63
8117.6571
6165.3573
4441.9414
2850.7848
1669.3184
674.41299
23.154952
188231.84
138396.44
163511.68
156996.86
160852.09
153806.63
153248.95
145896.07
145476.84
136945.65
135323.39
129822.23
126089.48
119297.76
115649.5
109717.9
105734.4
100301.93
96947.334
91133.056
88275.919
82373.266
78756.009
73870.453
69738.543
65560.557
61972.242
57319.849
52998.051
48884.975
44717.57
40630.868
36618.479
32568.959
28781.923
24993.096
21486.058
18176.68
15103.962
12117.168
9532.6944
7124.7971
5093.868
3315.9738
1934.3113
799.61588
188.9401
-366985.57
-352684.26
-362615.59
-351869.96
-351202.29
-334762.56
-301517.17
-255587.03
-302150.57
-266346.81
-274423.91
-261995.4
-242634.38
-229023.92
-136259.34
-155788.21
-117014.16
-123480.34
-103434.84
-95859.707
-109088.14
-41424.026
-27932.627
-8174.1463
-16339.897
275.885
30379.607
-16179.387
60496.473
69261.955
88494.186
90432.876
97740.763
109723.52
77076.984
228180.03
235394
247862.04
257095.83
273154.81
273484.8
260421.03
312630.35
282476.22
253434.38
264615.65
262380.02
244422.33
285656.07
312405.83
325298.79
369671.16
385833.72
393866.21
396525.64
316765.76
247046.18
280179.22
280958.05
287280.25
302017.35
298050.69
277612.25
209645.61
241046.82
254540.73
256516.5
257298.53
248285.4
255987.03
208609.59
222851.35
221537.59
234801.88
230013.66
232914.05
224750.55
204296.22
221079.2
232800
235617.46
237381.52
233937.82
234289.72
201076.79
197849.47
204822.2
210985.42
214548.78
213181.69
215292.75
189140.13
198077.23
203675.87
208665.65
212066.11
213688.12
216745.96
187465.04
186127.37
191441.71
194052.81
192307.35
198114.03
199288.11
176833.94
181246.92
183707.54
188468.54
192173.77
196508.15
199122.27
174336.02
172895.58
173272.01
177705.65
179041.67
181525.73
184316.83
166537.52
167247.72
167668.99
171378.9
174096.6
176580.41
182499.89
158972.67
159636.79
160070.9
165549.45
165638.88
167182.01
172307.09
154860.61
151051.32
154613.97
154999.19
159169.56
159338.11
167643.34
147199.12
145316.69
150282.79
151277.34
153874.4
154209.58
159010.43
141510.49
139596.72
143084.24
142106.49
144900.3
144878.87
151031.1
135979.28
133129.57
137649.33
137078.26
140735.09
140866.74
145596.9
129140.88
128375.13
131189.06
130464.59
133123.49
132057.33
136078.84
124049.35
122889.36
125507.83
124310.12
127865.87
126582.21
130546.94
117819.47
116902.45
119250.59
117701.08
120771.91
118528.96
122437.76
112187.43
111902.74
113806.94
112107.02
115228.17
113000.9
116507.12
106797.94
105510.86
107398.9
105084.19
108029.98
105196.58
108441.47
101232.28
100401.01
101775.31
99744.606
102268.93
99338.975
102372.21
95785.699
94154.643
95774.03
93142.902
95138.04
92172.358
94906.667
90259.549
89210.74
89873.718
87207.321
89185.294
86360.115
88629.632
84570.965
83655.6
83085.519
81474.024
82444.886
79642.934
81665.939
78678.839
78398.563
76401.965
76343.061
76051.46
74838.152
75748.493
74324.866
72729.78
71206.742
70626.114
69717.853
68022.865
68812.05
69048.152
67075.589
65882.233
64424.11
63393.457
62235.927
61843.803
63646.419
61650.973
60275.153
58495.449
57304.381
56094.403
55387.309
58496.133
55970.384
54861.038
52737.068
51680.185
50333.886
49373.706
52889.771
50845.5
49250.297
47107.246
45802.307
44318.574
43265.799
47977.1
45441.826
43986.901
41742.484
40370.423
38941.532
37857.878
42672.199
40346.874
38777.862
36529.252
35137.049
33703.995
32546.378
37867.97
35411.774
33852.543
31579.252
30186.534
28764.932
27549.946
32950.174
30604.028
29060.775
26882.367
25551.502
24190.132
23021.737
28380.852
26128.584
24558.869
22597.005
21209.999
19984.403
19077.552
24298.828
21875.121
20755.177
18509.494
17540.974
16490.451
14774.948
20055.814
17828.468
16284.354
14906.124
13425.344
12194.496
11649.558
16091.039
14298.007
13199.102
11613.306
10626.208
9751.3783
9117.598
12877.769
11063.313
10088.887
8652.2695
7783.6065
7052.5866
6361.6765
9724.3917
8203.8843
7301.0601
6099.9041
5457.1301
4787.0766
4348.0963
7149.6524
5726.0648
5075.1925
4135.8953
3525.785
3111.1285
2771.7045
4813.6715
3593.2827
3110.282
2320.8102
1873.6483
1680.4011
1363.276
3034.1058
2063.0209
1695.5018
1124.2121
792.16887
709.95874
410.26779
1492.466
679.97179
453.93877
85.710309
-169.47439
-74.147588
-276.69266
571.09303
120.09565
11.394661
-232.77593
-306.94973
-180.21843
-376.09842
-35.067938
-339.35238
-446.16061
-369.30454
-442.54981
-331.62172
-515.14594
-100.53157
-183.15105
-55.360798
194.50194
486.98387
627.34541
653.13522
725.3505
505.12695
574.10155
835.76703
1006.4698
1169.059
1007.9662
-23.37203
48.358252
62.764738
385.17525
595.99421
749.78143
540.96703
-321.65024
-308.43753
-187.72824
25.319949
172.94675
368.72693
163.99775
-924.76142
-883.30755
-1010.1842
-641.29917
-525.11577
-315.45165
-363.26627
-1080.2549
-998.6841
-822.27556
-629.0358
-488.92818
-251.87614
-536.40221
-713.9983
-936.4747
-802.86782
-613.84191
-401.21218
-350.96661
-544.77889
-235233.17
-233442.86
-265531.24
-250636.76
-258606.68
-238563.35
-232868.56
-255909.02
-262001.28
-273121.29
-270805.17
-265705.41
-244096.04
-230857.86
-240597.29
-242500.23
-244322.54
-243554.95
-237696.73
-222233.24
-216263.37
-223982.92
-235663.73
-235098.28
-237591.69
-230195.52
-217473.96
-212884.99
-225291
-224321.96
-222756.29
-222399.61
-216869.43
-209365.46
-196807.95
-209127.65
-213063.09
-211591.96
-207716.81
-202610.81
-191120.4
-188101.02
-208234.97
-204965.78
-202731.86
-199130.04
-199140.47
-189589.24
-191741.17
-193196.07
-193042.42
-192213.1
-181476.08
-184249.07
-176636.56
-172988.99
-190792.28
-189443.54
-186513.73
-180645.54
-182263.9
-173782.43
-175526.77
-181249.09
-176987.25
-173269.07
-168913.82
-169477.08
-161900.14
-163395.58
-174153.77
-170450.5
-172224.25
-165005.38
-166744.12
-158848.73
-160984.48
-164752.35
-164218.97
-160594.11
-154806.02
-155931.88
-149781.9
-152357.95
-160463.06
-155018.98
-154851.93
-150039.44
-150973.6
-145358.88
-142803.79
-151078.98
-149457.19
-146635.3
-143891.84
-142778.97
-138714.75
-139940.74
-144733.84
-142469.4
-139354.95
-138329.35
-137054.31
-134467.13
-135360.31
-138767.1
-134358.19
-133045.83
-130279.07
-131025.49
-127440.67
-127612.72
-130798.41
-128479.8
-127127.18
-125945.64
-125477.66
-122467.47
-123202.21
-123901.01
-121295.17
-120691.77
-118996.43
-118575.3
-116585.54
-116969.95
-116342.35
-115167.88
-114595.82
-112973.46
-113571.37
-111703.18
-112735.11
-110095.77
-108347.3
-108068.69
-107073.74
-107613.88
-105968.16
-106985.28
-103136.95
-101676.09
-102192.46
-101226.82
-102254.35
-100884.17
-102482.4
-96446.249
-95071.527
-95924.544
-95175.002
-96163.983
-95130.255
-97098.859
-89730.444
-88922.782
-90383.546
-89563.805
-91077.732
-90317.565
-92579.507
-83533.245
-82730.194
-84001.084
-83593.456
-85109.692
-84405.521
-87251.746
-76762.024
-76225.37
-78137.497
-77913.343
-79581.444
-79373.54
-82379.876
-70566.56
-70206.598
-72072.389
-72262.93
-73803.304
-73868.165
-77135.726
-64001.605
-64524.251
-66476.67
-66688.023
-68445.866
-68646.85
-72220.907
-58383.539
-58541.005
-60479.248
-60915.291
-62825.684
-63336.065
-66749.863
-51880.992
-52623.335
-54782.335
-55669.501
-57373.121
-58028.232
-61480.56
-46252.007
-47407.281
-49279.99
-50329.433
-51841.661
-52924.254
-56183.477
-40686.145
-41959.835
-43826.091
-45036.892
-46590.695
-47762.461
-50937.98
-35245.043
-36787.134
-38488.122
-39920.052
-41402.9
-42690.627
-45763.355
-30313.62
-31947.162
-33628.076
-35085.703
-36471.99
-37875.011
-40688.978
-25540.37
-27220.297
-28787.386
-30274.972
-31618.74
-32859.811
-35715.946
-21092.028
-22770.499
-24194.772
-25678.16
-26962.147
-29000.418
-31426.3
-17460.311
-19055.728
-20461.063
-21823.863
-23258.038
-24612.853
-26232.879
-13872.097
-15052.936
-16268.832
-17575.934
-18670.567
-19829.161
-22296.033
-10214.154
-11709.127
-12724.289
-13958.828
-15381.82
-16572.229
-18566.717
-7897.4854
-8912.9694
-9794.6884
-10951.364
-12102.856
-13012.666
-14944.86
-5513.7561
-6375.32
-7109.5772
-8113.2642
-9101.5695
-10021.475
-11652.112
-3561.3517
-4203.6631
-4904.8443
-5677.3945
-6668.6704
-7462.6654
-8859.0057
-2133.1857
-2641.0091
-3104.7411
-3770.1702
-4610.7591
-5210.3264
-6396.6775
-904.91974
-1168.2035
-1591.3117
-2081.906
-2823.5199
-3266.735
-4306.6174
-147.21152
-333.13608
-589.57792
-938.38941
-1505.284
-1801.9566
-2646.748
426.05106
361.6872
228.1126
-64.046088
-530.6933
-727.33372
-1387.7612
530.04093
397.26101
348.77259
198.3461
72.291423
11.222796
-398.39717
367.21297
296.41763
360.19383
358.78159
302.02132
204.28594
5.7338387
-229279.92
-153676.95
-156369.77
-150944.71
-157199.95
-160350.49
-149647.02
-148576.18
-144177.8
-141754.1
-134399.22
-129962.92
-125012.87
-119605.73
-114510.16
-110678.3
-105161.06
-100956.07
-96751.522
-92046.977
-87774.638
-82947.523
-78500.875
-73839.509
-69172.26
-64281.494
-59247.976
-54469.626
-49694.249
-44958.86
-40466.599
-36080.272
-31951.484
-27784.898
-24354.495
-20246.681
-17610.346
-14596.401
-11864.522
-9431.3527
-7236.7534
-5392.6269
-3713.6465
-2397.5457
-1234.666
-478.79593
72.292437
-126745.5
-114854.14
-88173.599
-97245.215
-118734.16
-103500.78
-112876.57
-99888.689
-106753.91
-93550.037
-97470.71
-89229.231
-87203.462
-83241.039
-81670.968
-77814.68
-75631.345
-70950.619
-69419.761
-65359.643
-62866.345
-59356.154
-56716.66
-53222.252
-50181.115
-46090.904
-44742.214
-41018.637
-38178.718
-35080.633
-32149.106
-29197.195
-26261.707
-23427.175
-20536.714
-17940.424
-15232.871
-12542.954
-10604.324
-8243.0764
-6356.8438
-4670.6276
-3156.0229
-1885.7483
-888.81694
-87.194341
211.73977
-44065.708
-55679.717
-27106.68
-45215.601
-42428.391
-35519.973
-43401.459
-36422.643
-39605.122
-33464.351
-39690.2
-34795.125
-38850.288
-35986.14
-37159.052
-36206.071
-35490.284
-33991.505
-33972.81
-31759.2
-31107.883
-29692.955
-28686.217
-27058.208
-26124.86
-24621.263
-23302.193
-21464.484
-20194.29
-18463.501
-17093.064
-15583.491
-14136.288
-12663.011
-11318.502
-9821.3475
-8558.6829
-7381.527
-6166.1839
-4967.0089
-3932.123
-3009.085
-2007.4179
-1379.7123
-647.94381
-271.21359
261.76454
34875.609
7445.85
20384.569
8892.9081
12692.362
11567.972
7907.09
16480.533
7685.9414
10616.257
7744.6021
8819.3711
4792.9092
4183.8551
876.15194
1997.2956
-257.59225
-356.30848
-1904.9146
-1657.2409
-3350.8916
-3710.1946
-4638.0771
-5223.1642
-5993.5419
-6057.418
-6666.3301
-7120.9802
-7454.2275
-7456.1427
-7849.9879
-7851.3128
-7784.5857
-7634.7022
-7235.5644
-6801.8147
-6193.8205
-5554.8462
-4773.6876
-3977.9639
-3256.069
-2360.4351
-1647.2717
-1019.2828
-413.27808
4.9682631
218.79802
123073.15
69530.974
71710.943
58326.293
63284.285
56049.279
61193.002
58173.722
49783.754
55794.398
44616.845
50258.199
42402.59
45914.224
39492.712
39635.12
35253.31
33986.234
30841.183
29040.522
25867.652
24206.713
21525.551
19596.484
17396.86
15762.49
13355.503
11482.684
9696.9727
8115.8309
6420.7965
5120.5511
3643.3973
2493.8326
1529.0825
708.39981
60.421529
-393.86121
-642.92784
-937.1451
-926.27108
-833.37016
-688.07392
-486.24731
-183.37233
-135.86343
203.35212
172478.16
133647.85
117440.93
114771.7
119881.68
115467.68
115981.27
105637.16
107392.22
103862.28
99757.043
100830.66
90755.776
92097.212
83368.455
81876.89
74714.129
71391.523
65780.695
62100.808
57543.207
53838.847
49187.739
44557.968
39395.44
34948.948
31566.501
27855.499
24340.302
21138.021
18078.277
15206.898
12497.379
10149.505
8016.4089
6115.828
4538.1776
3312.699
2112.9153
1450.9734
833.97397
491.18222
221.5433
225.03728
88.228618
215.87929
-57.245051
218203.55
186236.86
184184.12
179205.42
188165.13
177537.33
179258
170055.61
167684.44
158918.53
154706.3
145907.68
138528.28
132311.21
125303.75
119450.9
114124.21
107340.37
102269.62
95636.722
89974.959
83259.948
77740.268
71138.952
65748.464
57816.615
52647.611
47241.657
42293.498
37604.94
33020.459
28597.929
24638.607
20738.038
17235.164
14065.434
11766.831
8798.8233
6780.8401
5172.4321
3539.2308
2406.1776
1657.0548
942.19465
577.09326
211.199
81.114715
-318697.45
-335436.24
-326174.57
-332098.71
-321549.13
-293018.66
-267597
-210352.53
-240329.84
-232530.94
-232598.74
-222730.68
-208754.62
-180635.43
-200402.26
-217128.67
-227046.8
-221536.69
-216073.5
-206696.01
-189347.97
-191410.29
-190661.7
-193230.38
-194873.06
-182895.34
-179054.23
-157465.98
-183832.33
-185247.5
-192889.62
-184625.44
-177047
-171571.73
-151115.97
-177162.51
-178261.72
-172398.95
-174122.69
-168303.95
-161195.72
-158588.33
-173561.53
-169751.97
-169199.32
-167596.48
-155588.81
-159594.94
-148943.58
-164606.52
-167598.4
-161578.85
-160546.57
-156356.76
-149555.44
-143444.45
-162056.6
-158582.49
-148353.26
-156047.71
-144493.09
-144680.46
-138914.24
-153627.98
-148961.7
-151399.6
-149415.64
-141079.15
-140834.96
-136400.75
-145512.28
-148922.11
-139436.39
-140314.42
-132932.81
-134310.62
-128914.38
-143416.72
-137355.78
-134932.85
-134936.26
-131042.05
-128371.64
-125260.77
-134167.19
-134217.5
-129280.33
-131473.82
-123569.92
-124163.67
-120916.02
-128792.78
-124968.08
-125208.41
-122898.05
-119133.79
-118293.59
-116119.58
-122617.83
-120762.49
-118393.6
-117026.75
-113928.39
-113585.45
-110601.18
-116132.76
-113399.83
-114374.67
-112014.22
-109944.83
-107453.23
-107153.83
-108853.14
-108677.56
-107152.5
-106987.1
-103552.95
-103210.63
-102176.91
-103299.38
-102119.32
-102534.79
-100358.87
-99077.228
-98354.441
-98134.151
-96640.23
-97314.813
-95797.763
-96029.076
-94236.049
-93756.589
-92850.039
-90869.329
-90610.946
-90844.059
-90487.169
-89308.077
-88690.373
-89148.096
-83683.632
-85476.307
-84933.853
-85214.59
-83950.891
-84264.587
-84232.7
-77772.022
-79937.356
-79602.356
-79842.455
-79628.833
-79575.599
-80320.341
-71669.492
-74134.855
-73299.939
-74547.662
-74117.396
-74966.438
-75210.614
-65371.708
-68041.929
-67935.454
-69043.863
-69384.559
-70013.732
-70721.45
-59103.453
-62541.198
-62135.855
-63948.616
-64095.782
-65517.211
-66225.93
-53723.11
-56717.641
-57179.312
-58218.943
-59474.355
-60559.709
-61573.235
-48233.733
-50701.934
-51134.353
-52944.559
-54023.533
-55749.434
-56525
-42148.474
-44940.124
-46156.256
-47809.21
-49163.088
-50745.888
-52097.658
-37064.506
-40300.273
-40848.666
-42590.38
-44170.06
-46066.419
-47461.974
-32317.21
-34489.237
-36010.729
-37503.787
-39434.756
-41182.369
-42927.599
-27339.497
-29861.145
-31136.217
-32771.281
-34662.552
-36772.189
-38400.592
-23300.787
-25294.719
-26949.453
-28358.717
-30487.724
-32365.434
-34143.593
-19240.774
-21195.312
-22635.848
-24186.714
-26045.141
-28109.499
-29977.521
-15735.198
-17332.245
-19023.627
-20240.388
-22335.881
-24477.395
-26239.452
-12759.353
-14360.136
-15672.172
-16993.706
-18947.757
-20589.182
-22381.483
-9922.1838
-10968.683
-12470.531
-13654.766
-15420.828
-17608.777
-18978.507
-7589.8751
-8909.2507
-10068.849
-11029.049
-12820.633
-14016.113
-16492.275
-5799.7974
-6711.0383
-7732.6553
-8904.3101
-10168.359
-11884.871
-13129.442
-4287.2839
-4737.852
-5957.4579
-6552.4944
-7947.3606
-9161.1731
-10685.678
-2880.4559
-3423.696
-4309.4845
-4931.8117
-6070.4186
-7170.3459
-8541.965
-1970.5505
-2254.6682
-2959.1766
-3420.3378
-4447.3416
-5306.6495
-6471.7431
-1099.4407
-1352.147
-1813.9376
-2296.5406
-3029.8932
-3690.158
-4706.3512
-578.75731
-638.07886
-1045.098
-1307.8485
-1879.8564
-2435.1095
-3289.5165
-69.463148
-148.74341
-285.32507
-534.91544
-969.8729
-1435.8851
-2015.9748
92.268607
83.581929
-8.7679892
-167.7273
-413.11712
-607.29626
-1067.5929
234.80757
275.70399
307.15066
211.03192
187.31847
-88.537895
-286.34682
310.90824
201.38857
316.56739
343.5356
369.52326
317.13197
172.89811
-212046.33
-207168.3
-221075.63
-208931.93
-207283.21
-180600.38
-176186.87
-153958.19
-184272.91
-185372.36
-186750.18
-179007.58
-159022.12
-143943.98
-153588.86
-141008.97
-155283.14
-145026.3
-145412.82
-126625.92
-117623.87
-129081.42
-136011.24
-138926.58
-134007.61
-131633.51
-119666.55
-104950.97
-133029.2
-131735.4
-135061.89
-126795.65
-127977.75
-118745.85
-107511.44
-123402.97
-123280.58
-123643.06
-116693.1
-114395.42
-110571.93
-100950.51
-120865.42
-123310.94
-125076.13
-116923.87
-117014.88
-111697.55
-102601.26
-117766.8
-113291.1
-112271.65
-105044.4
-107027.52
-98814.084
-95905.508
-112304.42
-109820.43
-114208.61
-107580.6
-104549.54
-101408.24
-95903.117
-105971.98
-106202.23
-106311.14
-95591.501
-97736.355
-93030.143
-91424.099
-103566.19
-101973.77
-100017.23
-95095.894
-95988.992
-92474.659
-86529.246
-98708.436
-94206.151
-97938.738
-89752.017
-91994.622
-84295.248
-85705.477
-92457.681
-92256.758
-93743.37
-85703.096
-87080.306
-83118.647
-80949.96
-88578.977
-87305.693
-87447.249
-80939.721
-82955.947
-79081.916
-75131.563
-83766.581
-84637.885
-82916.541
-79254.588
-79964.097
-76557.428
-73558.705
-79461.936
-78659.518
-78026.902
-74738.213
-74177.761
-72394.759
-68882.785
-74670.719
-75776.528
-74780.234
-71423.406
-71716.345
-70741.14
-68366.92
-70358.955
-70688.95
-69605.063
-67649.146
-67768.02
-66476.501
-63805.865
-65983.445
-66696.43
-66091.657
-64707.83
-64635.456
-63828.422
-62281.543
-61253.254
-61854.444
-61868.596
-60532.779
-60508.306
-60099.16
-58922.166
-56977.455
-58361.261
-58065.881
-57313.414
-57654.254
-57650.217
-56911.258
-53269.461
-53597.222
-53603.105
-53359.072
-53866.337
-53952.58
-53487.339
-48808.583
-49395.393
-49862.543
-50169.175
-50765.971
-50944.324
-51150.828
-44765.992
-45198.851
-46243.696
-46458.763
-47234.562
-47607.46
-48290.079
-40522.599
-41538.858
-42310.869
-42982.282
-44273.447
-44427.72
-45613.963
-36628.559
-37598.238
-38382.138
-40005.039
-40196.077
-41147.222
-42851.681
-32482.055
-33926.091
-34581.897
-36089.009
-37431.296
-38032.543
-39286.038
-28606.761
-30335.728
-31673.088
-32574.369
-34116.877
-35040.376
-36197.435
-25142.894
-26887.761
-27945.38
-29555.72
-30959.587
-32030.026
-33145.05
-21467.293
-23660.304
-24565.281
-26374.061
-27662.955
-29069.189
-30093.588
-18358.575
-20827.277
-21602.82
-23563.623
-24853.33
-26379.915
-27166.814
-15394.991
-17879.185
-18525.045
-20655.384
-21842.09
-23365.473
-24225.523
-12638.838
-15179.287
-15849.904
-17946.309
-19121.471
-20903.487
-21635.744
-10291.497
-12918.125
-13456.783
-15538.605
-16738.562
-18281.15
-18836.293
-8195.5638
-10532.711
-11001.059
-13080.77
-14193.624
-15730.833
-16537.009
-6227.1735
-8452.9064
-9033.2281
-10954.132
-11942.803
-13428.815
-14310.724
-4762.4093
-6970.6252
-7416.1805
-9113.7332
-10084.625
-11496.276
-11985.507
-3539.0137
-5070.0779
-5363.8046
-7057.3797
-7877.7809
-9196.5405
-9974.279
-2231.2116
-3743.4035
-4111.7887
-5392.3861
-6225.7421
-7406.2522
-8081.9501
-1383.6323
-2788.5539
-2963.8111
-4103.4948
-4921.1832
-5834.6239
-6498.8533
-772.54384
-1668.6691
-1856.0312
-2759.3905
-3469.9167
-4188.4759
-4902.4057
-289.97372
-1065.1095
-1198.3212
-1885.4905
-2477.6153
-3029.1631
-3675.3364
105.54288
-349.90751
-387.26006
-867.76657
-1431.2768
-1870.9532
-2517.1861
186.42835
-155.56684
-141.87255
-460.2609
-910.45573
-1096.4379
-1566.3665
414.23919
206.80361
365.53168
124.07202
-201.22005
-292.28725
-818.10537
377.96731
271.82074
397.4109
301.97739
175.12072
134.16922
-247.63934
306.22
69.748862
318.68228
338.03569
311.7481
416.76782
241.38614
-127983.72
-115154.38
-104446.34
-107637.2
-93445.448
-80719.082
-76806.419
-85681.549
-115167.39
-102995.04
-105261.28
-84352.738
-84922.988
-62147.204
-86690.234
-76047.605
-81894.359
-74489.243
-67616.815
-56400.615
-48019.605
-69849.733
-75804.19
-75852.356
-75620.115
-62537.721
-62068.403
-47098.976
-76812.132
-66340.431
-70886.761
-62830.174
-57313.862
-50955.605
-40621.127
-64942.458
-68317.336
-62057.023
-58618.901
-58057.211
-46793.8
-43239.714
-70113.27
-66535.946
-57488.829
-58515.306
-54068.701
-48239.953
-43466.345
-63859.716
-63564.987
-55967.855
-54804.868
-50677.376
-43376.174
-41928.163
-63236.425
-65478.949
-53366.733
-55197.036
-49807.777
-46604.494
-42387.834
-62679.589
-58993.893
-49773.013
-49039.166
-48380.499
-41276.289
-40292.371
-58438.74
-59237.033
-47858.677
-52103.679
-46729.818
-43338.827
-38970.633
-54629.302
-54026.024
-45940.355
-46100.499
-44480.813
-37954.472
-39401.982
-50953.351
-55471.315
-42471.803
-46310.467
-41978.773
-39673.603
-37628.087
-49480.768
-48979.182
-42596.266
-42958.575
-43119.746
-35070.863
-38460.298
-45730.872
-46705.742
-39522.023
-42638.93
-39311.529
-34890.979
-36548.329
-43271.738
-42270.524
-39541.141
-38067.391
-38580.562
-33245.164
-36331.814
-38863.862
-41493.231
-36106.975
-37961.867
-36424.606
-33096.552
-33868.5
-37491
-36890.236
-34951.393
-34888.425
-34965.248
-30871.398
-33057.954
-33050.054
-35622.511
-32351.464
-33764.739
-32454.183
-30365.412
-31436.921
-31260.688
-32466.661
-30734.527
-31030.94
-31250.161
-28809.315
-30823.541
-27786.428
-30322.7
-27863.214
-29469.352
-28924.378
-27936.933
-28831.196
-25220.262
-27109.348
-26172.344
-27202.903
-27617.602
-26106.751
-27882.345
-22126.87
-25012.435
-23738.655
-25668.017
-25163.543
-25137.583
-26433.213
-19839.781
-22153.604
-21855.489
-23159.935
-23458.221
-23615.785
-25043.731
-17245.23
-19969.895
-19335.816
-21166.272
-21206.16
-22318.541
-23301.171
-15133.479
-16838.324
-17397.492
-18904.188
-19658.726
-20700.621
-22036.407
-12615.041
-15299.022
-15412.36
-17274.089
-17409.105
-19253.858
-20511.823
-10940.931
-12999.416
-13291.283
-14928.295
-16093.783
-17249.026
-19514.058
-8666.9512
-10829.519
-11106.571
-13073.571
-14354.746
-15659.683
-18295.99
-7135.8602
-8929.8085
-9694.6315
-11396.514
-12832.379
-14095.837
-17025.374
-5404.9654
-7276.5829
-7737.5127
-9761.7626
-11011.244
-12626.413
-15483.35
-4061.0515
-5501.3674
-6333.2416
-8149.9281
-9642.1362
-11183.866
-14279.877
-2754.7726
-4313.786
-4992.877
-6949.796
-8244.8755
-9928.951
-12858.555
-1782.4454
-2942.7691
-3813.4412
-5541.6275
-6984.7856
-8556.1406
-11551.475
-769.60044
-2020.1228
-2773.5898
-4532.8898
-5751.228
-7359.8468
-10253.989
-151.20767
-1199.8509
-2073.0054
-3551.3443
-4859.3672
-6472.3009
-9034.1171
407.98013
-576.31978
-1241.6624
-2637.1946
-3873.4313
-5189.6086
-7633.7254
757.94229
-23.607803
-747.81878
-1992.2592
-3085.4183
-4352.7577
-6559.8105
971.00332
281.00801
-447.46843
-1506.8582
-2438.4408
-3679.8542
-5380.7742
1035.8738
460.22638
-91.238064
-981.63734
-1899.2524
-2778.9554
-4389.4926
1008.6861
562.19933
87.46006
-660.50851
-1336.9399
-2122.9293
-3420.2577
1027.7858
551.81805
233.42983
-331.08923
-984.48087
-1563.4064
-2615.2626
852.84792
487.4583
324.11344
-168.12055
-596.90837
-982.51966
-1788.9156
692.83408
329.87175
266.05866
-88.187504
-385.29821
-695.86387
-1164.9797
631.74701
284.45537
424.29993
145.28005
-28.760648
-112.72545
-502.26354
237.55456
-65.953394
122.23351
-149.23414
-51.210108
-182.19433
-304.21453
215.84691
135.79299
264.11237
223.66018
393.63077
309.60305
332.12776
-20671.574
1342.7964
1895.2345
8154.3923
17269.025
23341.008
19519.888
-10875.501
-12535.847
-9271.2448
-7668.4836
3638.9698
5867.9896
17227.555
-22547.847
-302.16126
-1636.231
10187.284
9582.3157
17748.699
15798.523
-12415.354
-6385.2016
-10629.322
-4083.635
554.29226
569.81424
16211.501
-13312.532
-8614.4883
-9125.5778
4479.0141
-1494.9157
15319.39
11562.787
-11859.038
-6377.2757
-6149.4109
-3117.707
1082.898
3038.2084
9827.8847
-13824.584
-9391.5728
-12775.867
-176.54609
-1904.0193
4840.4371
9817.4669
-13556.091
-10004.159
-4747.45
-3725.5639
87.52104
2315.2405
8472.8536
-12858.238
-6087.1164
-9094.8656
-3103.7656
-1739.1071
2572.3083
10294.426
-8610.545
-8033.1983
-6336.2757
-1178.2713
390.65578
4624.7943
7686.6608
-9716.9817
-6933.5734
-5998.9392
-2131.5569
-165.07983
1778.4105
7408.4148
-7106.6601
-5844.6206
-3673.0472
-1063.7769
796.75834
3084.3547
6952.026
-8173.6146
-5371.4307
-4330.0908
-2568.5459
-351.02827
633.64248
7604.2997
-5652.3906
-2760.2838
-5270.2281
-1328.1896
1346.2293
2519.1048
7087.0329
-5052.5452
-5088.1858
-1622.9091
-2685.7667
2158.8005
831.51999
4890.193
-3644.5812
-2800.2808
-1364.6049
-1439.1385
2209.0719
1418.0674
4768.6056
-2884.2895
-2710.0742
-755.67568
-2808.8918
2170.6594
526.63648
3530.4448
-2005.2356
-892.40321
-781.43516
-1378.1702
2471.6048
1075.9331
3356.7494
-527.02177
-1957.66