/*--------------------------------*- C++ -*----------------------------------*\
  =========                 |
  \\      /  F ield         | OpenFOAM: The Open Source CFD Toolbox
   \\    /   O peration     | Website:  https://openfoam.org
    \\  /    A nd           | Version:  6
     \\/     M anipulation  |
\*---------------------------------------------------------------------------*/
FoamFile
{
    version     2.0;
    format      ascii;
    class       pointVectorField;
    location    "0.99";
    object      u;
}
// * * * * * * * * * * * * * * * * * * * * * * * * * * * * * * * * * * * * * //

dimensions      [0 1 0 0 0 0 0];

internalField   nonuniform List<vector> 
28033
(
(0 0 0)
(0 0 0)
(2.6588406 -0.36632112 0.01114627)
(2.4741888 -0.94452236 0.0088747953)
(0 0 0)
(0 0 0)
(2.4747581 -0.94737516 0.0085238175)
(2.659431 -0.36923485 0.010569826)
(0 0 0)
(0 0 0)
(0 0 0)
(0 0 0)
(0 0 0)
(0 0 0)
(0 0 0)
(0 0 0)
(0 0 0)
(0 0 0)
(0 0 0)
(0 0 0)
(0 0 0)
(0 0 0)
(0 0 0)
(2.6469593 -0.4028508 0.010774069)
(2.6351864 -0.43903233 0.010611887)
(2.6234819 -0.47511455 0.010425482)
(2.6118672 -0.5111564 0.01030559)
(2.6003105 -0.54713822 0.010201185)
(2.5887997 -0.5830935 0.010116125)
(2.5773433 -0.61903213 0.010050908)
(2.5659197 -0.65497958 0.0099932732)
(2.554523 -0.69094035 0.0099313234)
(2.5431337 -0.72694263 0.0098711109)
(2.5317551 -0.76298411 0.0097865887)
(2.5203475 -0.7990944 0.0096746937)
(2.5089425 -0.83527355 0.0095491232)
(2.4974508 -0.87153958 0.0093949039)
(2.4859469 -0.90793391 0.0091693475)
(0.0076391141 0.011034389 0.012254384)
(0.0096310461 0.017617898 0.016641753)
(0.012527044 0.024388392 0.01998015)
(0.016612179 0.031335503 0.022043649)
(0.021436947 0.03839802 0.023306249)
(0.027579303 0.045512922 0.024159285)
(0.034747598 0.052651017 0.024607998)
(0.043072425 0.059538127 0.024789531)
(0.052452065 0.066462319 0.024815448)
(0.062938597 0.073015736 0.0247132)
(0.074383297 0.079458429 0.024506353)
(0.086862747 0.085543953 0.024207333)
(0.1002639 0.091421912 0.023953014)
(0.11467402 0.096922582 0.023557289)
(0.12987326 0.10213519 0.023241386)
(0.14600575 0.10696645 0.022811567)
(0.16294017 0.11150018 0.022481122)
(0.18071758 0.11560325 0.022063482)
(0.19921307 0.11940021 0.021694728)
(0.21849819 0.12278225 0.021280234)
(0.2384598 0.12582349 0.020932646)
(0.25913906 0.12846273 0.020511848)
(0.28045738 0.13074289 0.020174235)
(0.30243935 0.13265712 0.019787103)
(0.3249912 0.13418014 0.01943067)
(0.34815819 0.13536454 0.019074802)
(0.37186012 0.1361578 0.018744281)
(0.39612944 0.13663565 0.018400029)
(0.42089116 0.1367158 0.018072716)
(0.44615784 0.13648239 0.017766588)
(0.47191041 0.13590898 0.017455872)
(0.4980958 0.13499206 0.017157065)
(0.52473442 0.13376739 0.016884579)
(0.55179608 0.132196 0.016610196)
(0.57926268 0.13034787 0.016345006)
(0.60712559 0.12816947 0.016096813)
(0.63534654 0.12570689 0.015869566)
(0.66395557 0.12295276 0.015649745)
(0.69288433 0.11991062 0.015428369)
(0.72216963 0.11660181 0.015238995)
(0.75176269 0.11301035 0.015050045)
(0.78167836 0.10917527 0.014883756)
(0.81189392 0.1050663 0.014717479)
(0.84240876 0.10071825 0.014574583)
(0.87319803 0.096114782 0.014434774)
(0.90427247 0.091279203 0.014309644)
(0.93560335 0.086205153 0.014193479)
(0.96720393 0.080901744 0.014085075)
(0.99904548 0.075374144 0.013985974)
(1.0311411 0.069623516 0.013892908)
(1.0634656 0.06365859 0.013806023)
(1.0960267 0.057477623 0.013724029)
(1.128807 0.051091457 0.013646114)
(1.1618064 0.044496081 0.013571371)
(1.195015 0.037703347 0.013498706)
(1.2284266 0.030709526 0.013428502)
(1.2620353 0.023524694 0.013358721)
(1.2958336 0.016147795 0.013290406)
(1.329815 0.0085866448 0.01322221)
(1.3639731 0.00084123885 0.013154733)
(1.398301 -0.0070804006 0.013087031)
(1.4327933 -0.015178522 0.013019596)
(1.4674401 -0.023443811 0.012953185)
(1.5022421 -0.031883093 0.012883807)
(1.5371832 -0.040472462 0.012820673)
(1.5722678 -0.049233236 0.01274999)
(1.6074777 -0.058145334 0.012686914)
(1.6428166 -0.067207789 0.01262173)
(1.6782734 -0.076419173 0.012549643)
(1.7138481 -0.085773493 0.012485264)
(1.7495264 -0.095269611 0.01241875)
(1.7853055 -0.10490541 0.012354093)
(1.8211858 -0.11466594 0.012284548)
(1.8571458 -0.12457291 0.012221499)
(1.8932034 -0.13458149 0.012148042)
(1.9293193 -0.14474798 0.012087424)
(1.9655253 -0.15498813 0.012011189)
(2.0017746 -0.16539663 0.011952043)
(2.0380998 -0.17585409 0.01187469)
(2.0744573 -0.18648092 0.011818966)
(2.1108766 -0.19714911 0.011739387)
(2.1473145 -0.20796131 0.011689144)
(2.1838016 -0.2188303 0.011613709)
(2.2202913 -0.22980606 0.01156705)
(2.2568225 -0.24084804 0.011501764)
(2.2933518 -0.25196998 0.011454189)
(2.3298949 -0.26317711 0.011402568)
(2.3664358 -0.27441988 0.011363964)
(2.4029766 -0.28575522 0.011319422)
(2.4395079 -0.29709869 0.011292383)
(2.476019 -0.30855778 0.011279195)
(2.5125514 -0.31994166 0.011237712)
(2.549021 -0.33149223 0.011280928)
(2.5855604 -0.34296808 0.01125254)
(2.622058 -0.35447279 0.01130803)
(0.0026873388 -0.013052586 -0.014578075)
(0.0047559635 -0.017368045 -0.017705799)
(0.0062799535 -0.023904879 -0.02276031)
(0.0079962497 -0.029129854 -0.024620178)
(0.011895798 -0.035849184 -0.026395957)
(0.016389697 -0.042748764 -0.027222087)
(0.02201411 -0.04919655 -0.027736612)
(0.02873102 -0.056443677 -0.027743845)
(0.036551827 -0.06351657 -0.027640698)
(0.045126861 -0.070690121 -0.027287835)
(0.054784012 -0.078060983 -0.026846705)
(0.065155467 -0.085376331 -0.026307064)
(0.076489659 -0.092881431 -0.025681415)
(0.088524555 -0.10038949 -0.025093141)
(0.10140307 -0.10793788 -0.024386555)
(0.11499173 -0.11563028 -0.023760182)
(0.12932277 -0.12323003 -0.023047325)
(0.14437475 -0.13105644 -0.022368862)
(0.16009917 -0.13881763 -0.021694312)
(0.17652692 -0.1467036 -0.021018505)
(0.19357538 -0.15460346 -0.020320504)
(0.21129073 -0.16263668 -0.019694905)
(0.22957153 -0.17060235 -0.019010614)
(0.24851952 -0.17879915 -0.018374684)
(0.26797566 -0.18690447 -0.017745406)
(0.2880857 -0.1952064 -0.017091321)
(0.30865761 -0.20348726 -0.016519794)
(0.32985324 -0.21189903 -0.015875253)
(0.35148693 -0.2203448 -0.0153294)
(0.37369622 -0.22887838 -0.014710615)
(0.39633218 -0.23749907 -0.014174594)
(0.41949595 -0.24617796 -0.013604136)
(0.44307774 -0.25494794 -0.01307834)
(0.46714332 -0.26378999 -0.012540865)
(0.49161483 -0.27271925 -0.01203372)
(0.51652635 -0.28171194 -0.011537911)
(0.5418327 -0.2907892 -0.01103393)
(0.56754111 -0.29996626 -0.010564921)
(0.5936292 -0.30920244 -0.010095749)
(0.62009773 -0.3185389 -0.0096425197)
(0.64692264 -0.32795181 -0.0091985922)
(0.67410383 -0.33745054 -0.0087668298)
(0.70162509 -0.34703645 -0.0083429514)
(0.72948186 -0.35670704 -0.0079307056)
(0.75766021 -0.36646525 -0.0075262813)
(0.78615857 -0.37631102 -0.0071297328)
(0.81496091 -0.38624397 -0.0067421627)
(0.84406789 -0.39626539 -0.0063596788)
(0.87346516 -0.40637512 -0.0059850449)
(0.90315097 -0.4165717 -0.0056149709)
(0.93311511 -0.42685725 -0.0052505767)
(0.96335309 -0.43722864 -0.004890696)
(0.99385699 -0.44768626 -0.004535097)
(1.0246218 -0.4582293 -0.0041835005)
(1.0556397 -0.46885517 -0.0038357524)
(1.086906 -0.47956293 -0.0034916966)
(1.1184131 -0.49035149 -0.0031510683)
(1.1501558 -0.50121698 -0.0028141514)
(1.1821272 -0.51215895 -0.0024807732)
(1.2143222 -0.52317464 -0.0021505471)
(1.2467334 -0.5342609 -0.0018241069)
(1.2793565 -0.54541647 -0.0015005314)
(1.3121842 -0.55663812 -0.0011802219)
(1.3452121 -0.56792385 -0.00086217913)
(1.3784333 -0.57927005 -0.00054724893)
(1.411844 -0.59067706 -0.00023275988)
(1.4454374 -0.60213821 7.8453355e-05)
(1.4792092 -0.61365616 0.00039152316)
(1.5131547 -0.62522086 0.00069974295)
(1.5472673 -0.63683124 0.0010169127)
(1.5815403 -0.64849708 0.0013279636)
(1.6159731 -0.66019272 0.001643097)
(1.650557 -0.6719393 0.001960148)
(1.685287 -0.68371023 0.0022770744)
(1.7201595 -0.69552309 0.0025996084)
(1.7551647 -0.70735551 0.0029185006)
(1.7903009 -0.7192194 0.0032445515)
(1.82556 -0.73109754 0.0035661508)
(1.8609348 -0.74299763 0.0038930164)
(1.8964216 -0.75490352 0.0042148047)
(1.9320108 -0.76682445 0.0045399861)
(1.9676988 -0.77874155 0.0048588471)
(2.0034758 -0.79066559 0.0051793715)
(2.039339 -0.80257934 0.0054922613)
(2.0752772 -0.81448908 0.0058039915)
(2.1112881 -0.8263845 0.0061081449)
(2.1473617 -0.8382658 0.0064085442)
(2.1834937 -0.85012648 0.006699031)
(2.2196745 -0.8619694 0.0069869827)
(2.2559027 -0.87378453 0.0072618933)
(2.2921644 -0.88557562 0.0075317688)
(2.3284639 -0.89734853 0.0077906025)
(2.364783 -0.90909944 0.0080509181)
(2.401158 -0.92083939 0.008285262)
(2.4375469 -0.93263551 0.0085588696)
(0 0 0)
(0 0 0)
(0 0 0)
(0 0 0)
(0 0 0)
(0 0 0)
(0 0 0)
(0 0 0)
(0 0 0)
(0 0 0)
(0 0 0)
(0 0 0)
(0 0 0)
(0 0 0)
(0 0 0)
(0.0068183359 -0.0053802592 0.010647183)
(0.0067199075 -0.020389302 0.017209035)
(0.0062438828 -0.021157224 0.020906786)
(0.0090337809 -0.030986461 0.024418509)
(0.012009336 -0.035730267 0.025919479)
(0.016973217 -0.043149231 0.02664958)
(0.022444641 -0.049600462 0.027088655)
(0.02950411 -0.057214018 0.027215705)
(0.037160454 -0.063912001 0.026994628)
(0.045880457 -0.07159946 0.026652738)
(0.055651215 -0.078922111 0.026362204)
(0.065891265 -0.086158671 0.025729974)
(0.077394027 -0.094098356 0.02534394)
(0.089250816 -0.10120181 0.024637125)
(0.10233269 -0.10948925 0.024193606)
(0.11575233 -0.11658772 0.023560613)
(0.13016746 -0.12481505 0.023061039)
(0.14514406 -0.13220916 0.022372439)
(0.16088833 -0.14043102 0.021905517)
(0.17730418 -0.14812346 0.021270392)
(0.19429397 -0.15622428 0.020819487)
(0.21203776 -0.16421727 0.020228986)
(0.23027662 -0.17235957 0.019773286)
(0.24922179 -0.18052331 0.019258278)
(0.26867042 -0.18870018 0.018786786)
(0.28874781 -0.19707673 0.018337906)
(0.30934086 -0.20531995 0.017866512)
(0.33047777 -0.21387974 0.017458008)
(0.35214903 -0.22226303 0.01701796)
(0.37429234 -0.2309319 0.016629821)
(0.3969634 -0.23953432 0.016238663)
(0.42008524 -0.24828013 0.015872321)
(0.44368116 -0.25706932 0.015512888)
(0.46772301 -0.26595726 0.015168068)
(0.49219451 -0.2749263 0.014854928)
(0.51710005 -0.28392443 0.014528973)
(0.542385 -0.29308812 0.014242407)
(0.56809664 -0.30227441 0.013964714)
(0.5941718 -0.31155753 0.01370725)
(0.62063221 -0.32092278 0.013457653)
(0.64744844 -0.33037204 0.013230003)
(0.67461836 -0.33990462 0.013014829)
(0.70213056 -0.34952155 0.012814905)
(0.72997565 -0.35922328 0.012629396)
(0.75814461 -0.36900974 0.012456919)
(0.78663044 -0.3788829 0.012297256)
(0.81542422 -0.38884022 0.012148205)
(0.84451956 -0.39888531 0.012009931)
(0.87390848 -0.40901471 0.011880587)
(0.90358491 -0.41923109 0.011759386)
(0.93354135 -0.42953188 0.011645648)
(0.96377276 -0.43991816 0.011536665)
(0.99427159 -0.45038842 0.011433905)
(1.0250327 -0.46094119 0.011333466)
(1.0560488 -0.47157743 0.01123766)
(1.0873152 -0.48229245 0.011142545)
(1.1188238 -0.49308832 0.011051008)
(1.1505702 -0.50396041 0.010959441)
(1.1825466 -0.51490847 0.010870116)
(1.2147481 -0.52593003 0.010781283)
(1.2471672 -0.5370227 0.010693701)
(1.2797989 -0.54818451 0.010606748)
(1.312636 -0.55941349 0.010521244)
(1.3456737 -0.57070595 0.010436225)
(1.3789051 -0.58206101 0.010352453)
(1.412325 -0.5934755 0.010269689)
(1.4459286 -0.60494521 0.010186849)
(1.4797081 -0.61647724 0.010108077)
(1.5136654 -0.62803591 0.010026135)
(1.5477748 -0.63967538 0.009945871)
(1.5820612 -0.65134012 0.0098677268)
(1.6164946 -0.66305016 0.0097903704)
(1.6510835 -0.67479916 0.009710561)
(1.6858159 -0.6865835 0.0096339028)
(1.7206889 -0.69839769 0.0095555845)
(1.7556966 -0.71024033 0.009478869)
(1.7908326 -0.72210526 0.0094016357)
(1.826092 -0.73399043 0.0093263917)
(1.8614673 -0.74588999 0.0092512822)
(1.896954 -0.75780081 0.0091789274)
(1.9325434 -0.76971835 0.0091071345)
(1.9682321 -0.78163941 0.0090394347)
(2.0040101 -0.79355823 0.0089728784)
(2.0398746 -0.80547396 0.0089114284)
(2.0758153 -0.81737902 0.0088522301)
(2.1118286 -0.82927461 0.0087996128)
(2.1479053 -0.8411511 0.0087496744)
(2.1840408 -0.85301408 0.0087086343)
(2.2202262 -0.86484947 0.0086709119)
(2.2564571 -0.87666948 0.008644573)
(2.2927238 -0.88845535 0.0086212588)
(2.3290256 -0.90023222 0.0086135969)
(2.3653487 -0.91197415 0.0086037249)
(2.4017256 -0.92373307 0.0086109359)
(2.438082 -0.93551296 0.008594553)
(2.4865514 -0.91080257 0.0085111253)
(2.4980398 -0.87443918 0.008549545)
(2.5095238 -0.83813397 0.0086586381)
(2.5209376 -0.80197176 0.0087762326)
(2.5323465 -0.76585961 0.0089517971)
(2.5437199 -0.72981395 0.0091215345)
(2.5551121 -0.69382511 0.0093327681)
(2.566507 -0.65784862 0.0095360408)
(2.5779422 -0.62192886 0.0097404044)
(2.5893852 -0.58596715 0.0099489168)
(2.6009027 -0.55003545 0.010128729)
(2.6124508 -0.51404181 0.010296867)
(2.6240762 -0.47803305 0.010441708)
(2.6357322 -0.44189644 0.010544643)
(2.647545 -0.40578854 0.010615097)
(2.6226943 -0.3574048 0.010174037)
(2.5861078 -0.34590346 0.0099431107)
(2.5496266 -0.33438223 0.0096840667)
(2.5131181 -0.32289437 0.0094393585)
(2.4766087 -0.31144279 0.0091641136)
(2.4400837 -0.30002911 0.008890089)
(2.4035477 -0.28866301 0.0086034432)
(2.367003 -0.27734496 0.0083069938)
(2.3304535 -0.26608949 0.0080067508)
(2.2939074 -0.25489251 0.0076950588)
(2.2573654 -0.24376791 0.0073815232)
(2.2208383 -0.23271579 0.0070611067)
(2.1843278 -0.22174334 0.0067368887)
(2.1478394 -0.21085182 0.0064048152)
(2.1113837 -0.20005405 0.0060723938)
(2.0749667 -0.18934963 0.0057377012)
(2.0385946 -0.17874621 0.0054036203)
(2.0022719 -0.16824783 0.0050681346)
(1.9660081 -0.15785775 0.0047328998)
(1.9298071 -0.14758379 0.0043986178)
(1.8936774 -0.13742596 0.0040650012)
(1.8576237 -0.12739292 0.003732475)
(1.8216541 -0.1174838 0.0034009859)
(1.7857718 -0.10770716 0.0030698752)
(1.7499874 -0.098062118 0.0027405502)
(1.7143023 -0.088552545 0.0024105088)
(1.6787162 -0.079186851 0.0020777902)
(1.6432709 -0.069990084 0.0017580735)
(1.6079165 -0.060902211 0.0014237362)
(1.5726988 -0.051987613 0.0010929022)
(1.5376105 -0.043223417 0.00075860791)
(1.5026611 -0.034619234 0.00042422057)
(1.4678538 -0.026177487 8.7203486e-05)
(1.4331966 -0.017902128 -0.00025276122)
(1.3986955 -0.0097969935 -0.00059520812)
(1.364357 -0.0018649281 -0.00094060827)
(1.3301878 0.0058891839 -0.0012892458)
(1.2961948 0.013462924 -0.0016406232)
(1.2623848 0.020851256 -0.0019951004)
(1.2287645 0.028051889 -0.0023525863)
(1.1953411 0.035059723 -0.0027130776)
(1.1621216 0.041872342 -0.0030763721)
(1.1291125 0.048484992 -0.0034432111)
(1.0963212 0.054894621 -0.0038128449)
(1.0637543 0.061096979 -0.0041863706)
(1.031419 0.067088218 -0.0045634396)
(0.99932219 0.072864379 -0.0049447715)
(0.9674711 0.078420895 -0.0053305221)
(0.93587288 0.083753525 -0.0057215478)
(0.90453531 0.088857886 -0.0061176273)
(0.87346585 0.093727066 -0.0065197305)
(0.84267252 0.098360998 -0.0069291788)
(0.81216484 0.10274387 -0.0073428116)
(0.78195069 0.10688472 -0.0077690586)
(0.75204073 0.11076115 -0.008195905)
(0.72244672 0.11438038 -0.0086364343)
(0.69316855 0.11774109 -0.0090854584)
(0.66422447 0.1208129 -0.0095423408)
(0.63566905 0.12356372 -0.0099872902)
(0.60741767 0.12611165 -0.010482016)
(0.57955477 0.12830958 -0.010963433)
(0.55214 0.13016673 -0.011435989)
(0.52505447 0.1317886 -0.011940263)
(0.49842494 0.1330707 -0.012459697)
(0.47220521 0.13401987 -0.012975587)
(0.44650995 0.13460491 -0.013504273)
(0.42119584 0.1349254 -0.014023297)
(0.39648551 0.13480895 -0.014562807)
(0.37219103 0.13443145 -0.015122233)
(0.34849259 0.13367533 -0.015681368)
(0.32532296 0.13254648 -0.016238564)
(0.30273344 0.13108748 -0.016816164)
(0.28082402 0.12914785 -0.01734967)
(0.25943702 0.12701263 -0.017960201)
(0.23877018 0.12440508 -0.018525566)
(0.21880822 0.12138698 -0.019071121)
(0.19949335 0.1181302 -0.019691044)
(0.18100644 0.11432785 -0.02019029)
(0.1631992 0.11037092 -0.020813622)
(0.14628799 0.10583097 -0.021297886)
(0.13019997 0.10107778 -0.021850501)
(0.11487272 0.095940515 -0.022322561)
(0.10051296 0.090582353 -0.022860661)
(0.087127171 0.084635588 -0.023200756)
(0.074612889 0.078777421 -0.023673445)
(0.06311873 0.072350511 -0.023919516)
(0.052712908 0.065793688 -0.024115532)
(0.043293108 0.059041241 -0.024168521)
(0.03495236 0.052166624 -0.024036774)
(0.027747328 0.045147791 -0.023641387)
(0.021699496 0.037985034 -0.022760828)
(0.016835358 0.030771837 -0.021422448)
(0.013174802 0.024227217 -0.019413607)
(0.0098498607 0.016968432 -0.015729673)
(0.010691423 0.010329119 -0.0094092401)
(0 0 0)
(0 0 0)
(0 0 0)
(0 0 0)
(0 0 0)
(0 0 0)
(0 0 0)
(0 0 0)
(0 0 0)
(0 0 0)
(0 0 0)
(0 0 0)
(0 0 0)
(0 0 0)
(0 0 0)
(0 0 0)
(0 0 0)
(0 0 0)
(0 0 0)
(0 0 0)
(0 0 0)
(0 0 0)
(0 0 0)
(0 0 0)
(0 0 0)
(0 0 0)
(0 0 0)
(0 0 0)
(0 0 0)
(0 0 0)
(2.4742211 -0.94486819 0.0088416566)
(2.4742421 -0.94514445 0.0088050808)
(2.4742695 -0.94538472 0.0087670561)
(2.4743048 -0.94562134 0.0087409694)
(2.474343 -0.94584486 0.008719186)
(2.4743843 -0.94605634 0.0087095811)
(2.4744227 -0.94625443 0.0087009329)
(2.4744607 -0.94644095 0.0086995089)
(2.4744961 -0.94661692 0.0086946004)
(2.4745274 -0.94677847 0.0086876272)
(2.4745629 -0.94693908 0.0086788773)
(2.4745939 -0.94706774 0.0086572069)
(2.4746313 -0.94720114 0.0086323693)
(2.4746725 -0.94730705 0.0085979308)
(2.4747228 -0.94741872 0.0085566748)
(2.6590883 -0.36641756 0.011111114)
(2.6591887 -0.36656913 0.01110634)
(2.6592847 -0.36671563 0.011071088)
(2.6593802 -0.36687671 0.011037929)
(2.6594498 -0.36704568 0.011001587)
(2.6595164 -0.36722144 0.010949968)
(2.659572 -0.36739633 0.010901509)
(2.6596139 -0.36757748 0.010845362)
(2.6596457 -0.36775837 0.010791969)
(2.6596641 -0.36794169 0.010742188)
(2.6596719 -0.36813184 0.01069518)
(2.6596669 -0.36832398 0.010656181)
(2.6596601 -0.36852224 0.010636233)
(2.6596229 -0.36875194 0.010591741)
(2.6596248 -0.36894574 0.010586734)
(0.0045052385 0.0084905487 0.01239496)
(0.006906042 0.014847757 0.014379805)
(0.0096095262 0.021288025 0.017712394)
(0.013699495 0.027559201 0.019026435)
(0.018267037 0.033767353 0.020431875)
(0.024394962 0.040002957 0.021059788)
(0.031340877 0.046085623 0.021497291)
(0.039677431 0.052222942 0.021661391)
(0.048836324 0.058067074 0.021707451)
(0.059233272 0.063870071 0.021641597)
(0.070554228 0.069313007 0.021413551)
(0.082942976 0.074678955 0.021271704)
(0.096220131 0.079584735 0.020938534)
(0.11046749 0.084390718 0.020700996)
(0.12555569 0.088701097 0.020350542)
(0.14158565 0.092866428 0.020078136)
(0.15839456 0.096536295 0.019702363)
(0.17598212 0.10000695 0.019422796)
(0.19438478 0.10301305 0.019059507)
(0.21352438 0.10575948 0.018751303)
(0.23334922 0.10808883 0.018420539)
(0.25389072 0.11008543 0.018113833)
(0.27507902 0.11174481 0.017780837)
(0.29687479 0.11302341 0.017490054)
(0.31931775 0.11397118 0.01717162)
(0.34231964 0.11456037 0.016892805)
(0.36589077 0.11482677 0.016590887)
(0.38998674 0.11472901 0.016321531)
(0.41461934 0.11430829 0.016046163)
(0.43973681 0.1135791 0.015785527)
(0.46532567 0.11249217 0.015526242)
(0.49138874 0.11111435 0.015285901)
(0.51788477 0.10941758 0.015054988)
(0.54479572 0.10742347 0.014828512)
(0.57212333 0.10513199 0.01461557)
(0.59983747 0.10253417 0.014413354)
(0.62793004 0.099681917 0.014222961)
(0.65637691 0.096528239 0.014037198)
(0.68519065 0.093119761 0.013867113)
(0.71432836 0.089439968 0.013713402)
(0.74380122 0.085504874 0.013568012)
(0.77357663 0.081306771 0.013428361)
(0.80366754 0.07688053 0.013308319)
(0.83404962 0.072191286 0.013190758)
(0.8647127 0.067282877 0.013086732)
(0.89565685 0.062136067 0.012992641)
(0.92686551 0.056763711 0.01290374)
(0.95833739 0.05116993 0.012826764)
(0.99005957 0.04535799 0.01275384)
(1.0220301 0.039331364 0.012688612)
(1.0542373 0.033096516 0.012627432)
(1.0866778 0.026653577 0.012572232)
(1.1193427 0.020010542 0.012518614)
(1.1522267 0.013166755 0.012469644)
(1.1853224 0.0061304428 0.012421376)
(1.2186233 -0.0010993222 0.012375786)
(1.2521235 -0.0085140612 0.01233025)
(1.2858154 -0.016114414 0.012286247)
(1.319693 -0.023892915 0.012242066)
(1.3537499 -0.03184849 0.012198503)
(1.3879791 -0.039975209 0.01215444)
(1.4223747 -0.048270374 0.012110976)
(1.4569286 -0.056730024 0.012067218)
(1.4916387 -0.065351828 0.012023931)
(1.5264907 -0.074122817 0.011978863)
(1.561491 -0.083062084 0.011937255)
(1.5966317 -0.092136854 0.011892869)
(1.6318841 -0.10136343 0.01185211)
(1.6672697 -0.11072996 0.011811002)
(1.7027633 -0.12023943 0.011769531)
(1.7383748 -0.12988042 0.011725413)
(1.7740869 -0.13965528 0.011683485)
(1.809904 -0.14955617 0.011637446)
(1.8458073 -0.1595847 0.011595245)
(1.8818051 -0.16972735 0.011549049)
(1.9178743 -0.17999979 0.01150811)
(1.9540277 -0.19036436 0.011459833)
(1.9902368 -0.20086479 0.011421765)
(2.0265193 -0.21143482 0.011371942)
(2.0628441 -0.22214208 0.011337129)
(2.0992255 -0.23290724 0.011288728)
(2.1356445 -0.24378957 0.011255429)
(2.1720982 -0.2547414 0.011211883)
(2.2085763 -0.26577639 0.011180907)
(2.2450831 -0.27688101 0.011140181)
(2.2816037 -0.28806508 0.011116509)
(2.3181413 -0.29930814 0.011087422)
(2.3546756 -0.31060443 0.0110636)
(2.391222 -0.32195644 0.011044585)
(2.4277398 -0.33336473 0.011041072)
(2.4642836 -0.34478704 0.011011528)
(2.5007788 -0.35626841 0.01102613)
(2.5372727 -0.36781809 0.011012456)
(2.5737897 -0.37932102 0.010984425)
(2.6102523 -0.39104266 0.010948586)
(0.0014854049 0.0075462454 0.011184445)
(0.0036169812 0.011494337 0.012997977)
(0.0071173554 0.01801237 0.0152674)
(0.010608688 0.023000053 0.016748934)
(0.015460168 0.028799901 0.017637396)
(0.021287824 0.034055143 0.018159395)
(0.028359647 0.039603663 0.018484949)
(0.036362603 0.04474687 0.01863321)
(0.045591252 0.049928613 0.018699559)
(0.055844982 0.054768374 0.018533988)
(0.067076354 0.059527569 0.018509717)
(0.079340201 0.063932053 0.018211666)
(0.092513513 0.068180129 0.018087238)
(0.10665428 0.072057323 0.017772831)
(0.12163412 0.075706639 0.017606376)
(0.13755516 0.079004051 0.017235209)
(0.15415742 0.082029745 0.01707177)
(0.1717191 0.084686214 0.016735025)
(0.18992641 0.087048999 0.016506579)
(0.20894298 0.089051173 0.016212526)
(0.2286117 0.090737717 0.015976108)
(0.24902293 0.092084869 0.015678141)
(0.27002619 0.093096901 0.015454577)
(0.2917235 0.093769999 0.015189498)
(0.31398456 0.094104011 0.014955881)
(0.33685372 0.094134548 0.014702694)
(0.36025893 0.093811862 0.014482005)
(0.38422336 0.09317948 0.014260473)
(0.40869345 0.092236363 0.014035063)
(0.43366069 0.090970782 0.013826494)
(0.45910667 0.089404293 0.013632092)
(0.48501559 0.087538301 0.01343424)
(0.51134876 0.085383569 0.013247492)
(0.53811939 0.082928825 0.013074163)
(0.56529591 0.080196876 0.012902877)
(0.59286556 0.077193581 0.012748714)
(0.62081905 0.07390939 0.012595702)
(0.64913488 0.070365999 0.012463076)
(0.67778797 0.066561243 0.012334297)
(0.70679261 0.062515253 0.012217711)
(0.73611114 0.058205701 0.012102775)
(0.76575519 0.053674657 0.012012414)
(0.79570692 0.048883205 0.0119098)
(0.82594459 0.043878782 0.011839037)
(0.85647827 0.038643025 0.011760227)
(0.88728791 0.033182186 0.01169866)
(0.9183657 0.027505858 0.011640397)
(0.94970787 0.021615282 0.011592895)
(0.98130367 0.015513896 0.011546324)
(1.0131476 0.0092073821 0.011510439)
(1.0452315 0.0026988491 0.011474962)
(1.07755 -0.0040099293 0.01144607)
(1.1100954 -0.010911099 0.01141811)
(1.1428614 -0.018006705 0.011394566)
(1.1758418 -0.025287202 0.011370903)
(1.2090296 -0.032754608 0.011350252)
(1.2424188 -0.040399839 0.011328775)
(1.276002 -0.04822481 0.011309538)
(1.3097739 -0.056219772 0.011288942)
(1.3437273 -0.064387014 0.011269597)
(1.3778555 -0.072717183 0.011249629)
(1.412153 -0.081210794 0.011229802)
(1.4466122 -0.089862752 0.011210633)
(1.4812285 -0.098666539 0.011189198)
(1.5159939 -0.10762068 0.011170135)
(1.5509117 -0.11672671 0.01115172)
(1.5859401 -0.12595845 0.01113272)
(1.6211158 -0.1353524 0.011118476)
(1.6564224 -0.14487712 0.011089562)
(1.6918476 -0.15453928 0.011071555)
(1.7273924 -0.1643217 0.011046214)
(1.7630368 -0.17423887 0.011030144)
(1.7987916 -0.1842676 0.01100519)
(1.8346329 -0.1944288 0.0109915)
(1.8705784 -0.20468837 0.010963748)
(1.90659 -0.21508093 0.01095346)
(1.9427002 -0.22555114 0.010921356)
(1.9788577 -0.23616002 0.010915855)
(2.0151066 -0.24682285 0.010879596)
(2.0513834 -0.25762903 0.010880195)
(2.0877449 -0.26847055 0.010841352)
(2.12412 -0.27944209 0.010842639)
(2.1605579 -0.29046232 0.010817025)
(2.1970088 -0.30157761 0.010801588)
(2.2335166 -0.31273941 0.010782241)
(2.2700101 -0.32398461 0.010783053)
(2.3065402 -0.33527516 0.010768886)
(2.3430578 -0.346617 0.010769955)
(2.3795932 -0.35803645 0.010772625)
(2.416114 -0.36944696 0.01075886)
(2.45264 -0.38095789 0.010772506)
(2.4891244 -0.39247146 0.010765935)
(2.5256399 -0.40403755 0.010754086)
(2.5621078 -0.41565099 0.010733978)
(2.5986203 -0.42734784 0.010696313)
(-0.00047074819 0.0059872227 0.0096897874)
(0.0015613655 0.009568245 0.011040744)
(0.0038975636 0.014542304 0.013420244)
(0.0077339949 0.019169866 0.014323584)
(0.012439477 0.023907592 0.014935995)
(0.01845932 0.028685431 0.015322765)
(0.02523777 0.033175611 0.01557252)
(0.033449565 0.037692489 0.015692941)
(0.042505034 0.041854485 0.015577058)
(0.052684221 0.046074764 0.015643917)
(0.063828057 0.049813504 0.015392883)
(0.076024855 0.053587137 0.015348174)
(0.089078115 0.056850917 0.015076561)
(0.10310301 0.060089349 0.014982598)
(0.11800384 0.062842137 0.014661632)
(0.13370935 0.065471807 0.0145761)
(0.1503086 0.067659335 0.01427456)
(0.16764695 0.069659626 0.014113654)
(0.18575925 0.071258297 0.013871992)
(0.20461615 0.072601778 0.01369493)
(0.22418112 0.073600703 0.013454908)
(0.24441245 0.074277743 0.013290179)
(0.2653169 0.074655509 0.013070531)
(0.28682692 0.074689935 0.01289304)
(0.30895813 0.074450047 0.012687822)
(0.33165658 0.073858499 0.012523212)
(0.354927 0.072983343 0.012341783)
(0.37872119 0.07180007 0.012167586)
(0.40304092 0.070314062 0.012004442)
(0.42785029 0.06853168 0.011855539)
(0.45314482 0.06646402 0.011695191)
(0.47888574 0.064111068 0.011553279)
(0.5050818 0.061473716 0.011419901)
(0.53169529 0.058564897 0.011288545)
(0.55871744 0.05539227 0.011169459)
(0.58613397 0.051951647 0.011054205)
(0.61391614 0.048262701 0.0109569)
(0.64205664 0.044320093 0.010862544)
(0.67058392 0.040127296 0.010773557)
(0.69943126 0.035683276 0.010685792)
(0.72861612 0.031022027 0.010623535)
(0.75811776 0.026117434 0.010544779)
(0.78792077 0.020992023 0.010504763)
(0.81802872 0.01564557 0.010452068)
(0.84842371 0.010076921 0.010410775)
(0.87909542 0.0042999607 0.010380253)
(0.91004057 -0.0016870527 0.010351957)
(0.94125025 -0.0078789315 0.010330773)
(0.97271542 -0.01427251 0.010315043)
(1.0044303 -0.020863141 0.01030478)
(1.0363886 -0.027648999 0.010295733)
(1.0685818 -0.034625274 0.010293457)
(1.1010053 -0.041788712 0.010290469)
(1.1336506 -0.049137394 0.010292199)
(1.1665133 -0.056664822 0.010293278)
(1.1995849 -0.064371398 0.010297027)
(1.2328607 -0.07224958 0.010300061)
(1.266333 -0.080299563 0.010304767)
(1.2999964 -0.088513997 0.010307839)
(1.3338434 -0.096893123 0.01031279)
(1.3678687 -0.10542943 0.010315629)
(1.4020656 -0.11412301 0.010319536)
(1.4364269 -0.12296705 0.010322612)
(1.4709484 -0.13195829 0.010323865)
(1.5056238 -0.14109794 0.010328712)
(1.5404372 -0.15037508 0.010327987)
(1.5754175 -0.15977592 0.01033672)
(1.6105083 -0.16933673 0.010328915)
(1.645732 -0.1790304 0.010341764)
(1.6810792 -0.18883159 0.010345531)
(1.7165422 -0.1987677 0.010349538)
(1.7521163 -0.20881636 0.010355718)
(1.7878019 -0.21898606 0.010356369)
(1.8235837 -0.22926393 0.010361368)
(1.859462 -0.23965504 0.01036261)
(1.8954238 -0.25014854 0.010369333)
(1.9314736 -0.26074222 0.010369323)
(1.9675887 -0.27143619 0.010378676)
(2.0037832 -0.28221454 0.010378304)
(2.0400276 -0.29308988 0.010390118)
(2.0763415 -0.30403203 0.010388049)
(2.112687 -0.31507848 0.010409364)
(2.1490912 -0.32616036 0.010401971)
(2.185523 -0.3373528 0.010425616)
(2.2219871 -0.34857188 0.010431342)
(2.258467 -0.35987301 0.010454739)
(2.2949747 -0.37120249 0.010456122)
(2.3314816 -0.38262074 0.010488636)
(2.3680137 -0.39403769 0.010484497)
(2.4045167 -0.40553467 0.010520157)
(2.44104 -0.41706218 0.010525409)
(2.4775345 -0.42860183 0.01053739)
(2.5140352 -0.44023271 0.010538979)
(2.5505193 -0.45183916 0.01052443)
(2.5870149 -0.46352741 0.010496566)
(-0.0016342845 0.0053196444 0.0080809522)
(-0.00052476263 0.0075075183 0.0094248842)
(0.0018551605 0.011685425 0.010854716)
(0.0054643537 0.015233038 0.01148835)
(0.010192549 0.019322464 0.012002396)
(0.015830491 0.023049526 0.012323327)
(0.0228676 0.026928365 0.012490923)
(0.030807035 0.030440034 0.012433859)
(0.039819599 0.034010541 0.012596352)
(0.049934963 0.037195527 0.012381049)
(0.061019304 0.040307203 0.012421097)
(0.073055947 0.043110241 0.012191151)
(0.086021613 0.04571578 0.012185357)
(0.099981051 0.048063557 0.011902199)
(0.11466253 0.050103058 0.01190621)
(0.13036766 0.051926686 0.011636473)
(0.14673562 0.053413089 0.011558544)
(0.1639991 0.054649437 0.01137156)
(0.18193774 0.055553251 0.011256938)
(0.20068855 0.056195453 0.011074557)
(0.22005007 0.056502931 0.010966668)
(0.24017456 0.056543745 0.010802801)
(0.26087659 0.056261233 0.01067878)
(0.28226513 0.055701191 0.010539002)
(0.30421286 0.054823249 0.010421352)
(0.32677338 0.053660858 0.010297073)
(0.34986498 0.052218649 0.010171534)
(0.37351283 0.050466923 0.010068089)
(0.3976607 0.048448816 0.0099586234)
(0.42231859 0.046145217 0.0098514229)
(0.44743648 0.043573083 0.0097560933)
(0.47303133 0.040722255 0.0096688002)
(0.49905524 0.037615882 0.0095767941)
(0.5255078 0.034250411 0.0095015959)
(0.55237403 0.030618659 0.0094235678)
(0.57962776 0.026757989 0.0093575025)
(0.60727679 0.022623428 0.0092933794)
(0.63532098 0.018273999 0.0092279169)
(0.66366503 0.013674881 0.0091821087)
(0.69236835 0.0088718755 0.0091534961)
(0.72139498 0.0038277456 0.0091114091)
(0.750745 -0.0014376264 0.0090960896)
(0.78040309 -0.0069098222 0.0090692806)
(0.8103591 -0.012598957 0.0090543627)
(0.84060638 -0.0184902 0.0090501808)
(0.87113498 -0.024587281 0.0090501353)
(0.90193968 -0.030883934 0.0090525768)
(0.93300903 -0.03737627 0.009064795)
(0.96433738 -0.044062133 0.0090781277)
(0.99591808 -0.05093684 0.0090959699)
(1.0277433 -0.057997865 0.0091170367)
(1.0598067 -0.065242147 0.0091413693)