/*--------------------------------*- C++ -*----------------------------------*\
  =========                 |
  \\      /  F ield         | OpenFOAM: The Open Source CFD Toolbox
   \\    /   O peration     | Website:  https://openfoam.org
    \\  /    A nd           | Version:  6
     \\/     M anipulation  |
\*---------------------------------------------------------------------------*/
FoamFile
{
    version     2.0;
    format      ascii;
    class       pointVectorField;
    location    "0.78";
    object      lm;
}
// * * * * * * * * * * * * * * * * * * * * * * * * * * * * * * * * * * * * * //

dimensions      [1 -2 -1 0 0 0 0];

internalField   nonuniform List<vector> 
28033
(
(-1.780536e-14 4.8656612e-16 1.3104288e-15)
(-5.4375576e-15 3.3318594e-15 9.9433006e-16)
(-5913.8114 264.08963 -13.146909)
(-5792.1686 1054.8407 24.591133)
(-1.338461e-14 3.0090723e-15 -2.870051e-16)
(-1.2587315e-14 4.9008913e-15 -4.4266115e-15)
(-5803.0164 1062.7057 12.629628)
(-5918.4694 290.65622 11.677364)
(-5.6329745e-15 1.0535579e-15 6.7193838e-16)
(-2.4534443e-15 3.0423504e-16 5.8836893e-16)
(-5.4923298e-15 2.4302826e-15 8.9528572e-16)
(-2.6209443e-15 -1.1537891e-15 -6.7979696e-16)
(-7.2548563e-15 1.5542294e-15 1.0013199e-15)
(-4.7613589e-15 -9.2108094e-16 -7.3952737e-16)
(-1.132389e-15 -2.2256662e-17 -6.4484848e-16)
(-7.4239857e-16 -2.4218299e-16 -3.6669977e-16)
(-1.1196198e-15 4.5550132e-16 8.383863e-16)
(-2.3465882e-16 2.2667819e-16 1.4996246e-15)
(-4.0583243e-15 -8.7236639e-16 -1.3429605e-15)
(-5.8237189e-15 8.4462789e-16 7.5519031e-16)
(-5.1611762e-15 1.0100276e-15 9.7613867e-16)
(-1.7679952e-15 -8.1010255e-16 4.5192313e-16)
(-4.4158752e-15 1.0299569e-15 -9.452958e-16)
(-5904.2257 326.36742 -4.3480329)
(-5892.0634 386.46242 4.5186285)
(-5879.6772 442.41066 10.42662)
(-5867.3867 494.46953 14.105828)
(-5856.0266 542.28282 16.035897)
(-5845.9727 586.95869 15.096591)
(-5837.0626 628.68743 13.644118)
(-5830.0215 669.40445 10.980566)
(-5824.5891 709.31122 7.897852)
(-5819.7733 750.5382 5.2511222)
(-5816.6194 793.67426 3.8741907)
(-5813.1817 839.94704 4.4766818)
(-5809.8882 889.24759 6.6662517)
(-5805.6984 942.5545 11.046444)
(-5799.8856 998.37614 17.613476)
(2.2637967 -12.545411 -22.877236)
(26.972831 -23.242202 -43.971301)
(50.228762 -40.483069 -65.684285)
(69.028856 -63.098408 -83.087303)
(81.10147 -89.165953 -96.418656)
(84.08414 -118.48574 -106.35824)
(77.070595 -148.91077 -111.34302)
(59.646282 -179.52677 -112.37179)
(31.46255 -209.50863 -109.16369)
(-6.6920692 -237.50994 -102.14092)
(-53.8643 -262.51564 -91.623781)
(-108.74941 -284.29411 -78.736511)
(-169.69603 -301.90476 -64.176672)
(-234.88797 -315.30071 -48.644646)
(-301.8545 -324.1997 -33.570014)
(-368.78085 -329.30556 -19.880219)
(-434.24 -331.21805 -8.2835265)
(-496.31394 -330.1993 0.60245785)
(-553.99197 -327.49925 5.5587361)
(-606.77932 -324.1083 6.9499339)
(-654.22422 -320.87529 4.2666268)
(-697.23168 -319.11543 -2.1804466)
(-736.17921 -319.16029 -11.834654)
(-772.69545 -322.23479 -24.371998)
(-808.74904 -328.6167 -38.841495)
(-846.05099 -338.13376 -53.937891)
(-886.94266 -351.15691 -69.038762)
(-933.40317 -367.30026 -82.947511)
(-987.92005 -385.55966 -94.411798)
(-1052.194 -405.33909 -102.82536)
(-1127.5082 -425.45182 -106.84344)
(-1215.0176 -444.58884 -106.41595)
(-1315.0827 -461.88232 -101.14077)
(-1427.5346 -475.18675 -91.367211)
(-1551.8413 -484.50539 -76.241569)
(-1685.5181 -487.58178 -56.960236)
(-1828.0724 -485.2364 -34.96721)
(-1976.0615 -475.42094 -10.098147)
(-2126.7881 -458.51902 16.114767)
(-2277.9677 -435.28915 41.879493)
(-2425.9079 -405.37951 66.635542)
(-2568.2017 -370.11557 88.703133)
(-2702.1763 -330.11411 107.23606)
(-2825.7263 -286.9936 121.18511)
(-2937.108 -242.03253 129.9703)
(-3035.4163 -196.90375 133.09825)
(-3120.2573 -153.06887 130.49858)
(-3192.023 -112.01117 122.38759)
(-3251.6389 -75.029925 109.23457)
(-3300.7311 -43.199845 91.805104)
(-3341.318 -17.302006 71.067759)
(-3375.8791 2.2088878 48.165913)
(-3407.0662 15.226821 24.341188)
(-3437.6538 22.000225 0.87233774)
(-3470.3169 23.096332 -20.999495)
(-3507.5098 19.379732 -40.146585)
(-3551.314 11.941246 -55.608991)
(-3603.3161 2.0308023 -66.655324)
(-3664.5284 -9.0000133 -72.83323)
(-3735.3288 -19.803105 -73.97146)
(-3815.436 -29.098804 -70.215925)
(-3903.9828 -35.717226 -61.972452)
(-3999.4998 -38.749948 -49.983763)
(-4100.0879 -37.453561 -35.082533)
(-4203.5802 -31.473618 -18.22423)
(-4307.4602 -20.49432 -1.0318645)
(-4409.1869 -4.9424303 15.865484)
(-4506.8043 14.88288 31.208945)
(-4597.7721 38.241161 44.437691)
(-4680.932 64.195284 53.71595)
(-4754.5989 91.788654 59.358623)
(-4818.4163 119.8347 61.010894)
(-4872.26 147.15437 58.357838)
(-4916.4746 172.93285 51.710575)
(-4952.0836 196.0809 41.521949)
(-4980.464 216.0081 28.414679)
(-5003.3378 232.03585 13.217189)
(-5022.659 244.07578 -3.2004413)
(-5040.5393 251.86389 -19.875691)
(-5058.8669 255.82009 -35.920824)
(-5079.7365 256.27258 -50.428679)
(-5104.6761 253.82204 -62.772204)
(-5134.9432 249.12626 -72.267041)
(-5171.6229 243.11633 -78.696752)
(-5214.9119 236.63079 -81.713275)
(-5264.9505 230.26604 -81.683764)
(-5321.3061 225.09498 -78.491191)
(-5382.8687 221.42018 -73.106095)
(-5448.7826 219.94672 -65.580672)
(-5517.2823 220.85384 -57.257354)
(-5586.741 223.71304 -48.263409)
(-5656.3953 229.89208 -39.79136)
(-5723.6034 236.52853 -32.134408)
(-5788.7091 245.0619 -25.717682)
(-5851.791 254.8339 -19.755237)
(17.367364 -13.46268 -10.722632)
(51.862858 -12.731566 6.458447)
(90.963727 -5.8695939 24.392617)
(117.70304 6.4497673 39.83233)
(136.95133 25.446087 52.218468)
(145.24317 46.495736 60.70295)
(142.25515 69.057346 66.393547)
(127.87951 93.596154 66.834162)
(100.93811 118.51905 64.315456)
(63.903956 142.30498 57.149314)
(16.08084 165.62727 47.329207)
(-39.487125 186.1665 34.484289)
(-102.11085 204.98817 19.911504)
(-168.90808 220.6803 4.8680781)
(-238.20454 233.4877 -10.35592)
(-307.50928 243.60643 -23.922802)
(-375.24696 250.70097 -35.311156)
(-438.92859 256.25338 -43.411175)
(-497.92652 259.87216 -47.731074)
(-551.42627 262.9798 -47.531983)
(-598.27373 266.30498 -42.816164)
(-639.56818 270.49136 -33.693357)
(-675.78129 276.86786 -20.057041)
(-707.83501 285.69756 -3.1944054)
(-737.75946 298.27336 16.652995)
(-767.87544 314.78608 38.051092)
(-799.93751 335.85491 60.025011)
(-836.91427 361.1284 81.054095)
(-880.725 391.25027 100.40973)
(-933.7092 424.74051 116.00635)
(-998.00521 462.16179 127.72768)
(-1073.943 501.57157 134.26089)
(-1163.2358 542.59566 135.18011)
(-1265.8248 583.85642 130.0139)
(-1381.2023 624.04995 118.90079)
(-1508.1318 661.73257 102.56549)
(-1645.1772 695.52044 80.733738)
(-1790.0009 725.40584 55.518462)
(-1939.6331 748.946 27.398838)
(-2091.7432 766.55585 -2.0652409)
(-2242.8279 777.41032 -31.477366)
(-2389.9042 781.49943 -59.261185)
(-2530.0609 779.05975 -84.035178)
(-2660.7455 770.62016 -104.49585)
(-2779.8362 756.99 -119.58125)
(-2885.8647 739.21509 -128.51293)
(-2977.9802 718.51759 -130.83723)
(-3056.1032 696.23469 -126.48264)
(-3120.8438 673.75521 -115.73703)
(-3173.5263 652.43017 -99.258756)
(-3216.0604 633.52422 -78.02253)
(-3250.8595 618.12539 -53.265847)
(-3280.6714 607.1087 -26.414818)
(-3308.4249 601.07581 1.0082437)
(-3337.0543 600.33532 27.471069)
(-3369.3261 604.88307 51.530632)
(-3407.683 614.41754 71.909399)
(-3454.1085 628.34945 87.57702)
(-3510.0204 645.86394 97.798719)
(-3576.2005 665.95165 102.1773)
(-3652.7613 687.50125 100.66763)
(-3739.1593 709.3444 93.572)
(-3834.2283 730.36125 81.511829)
(-3936.2775 749.51141 65.399992)
(-4043.1752 765.9409 46.341292)
(-4152.5176 778.99645 25.636019)
(-4261.8169 788.27522 4.5894926)
(-4368.3634 793.74198 -15.467757)
(-4470.0937 795.08417 -33.312487)
(-4564.5647 793.35561 -47.675882)
(-4650.1174 788.65543 -58.024196)
(-4726.0952 782.09058 -63.674476)
(-4791.5278 774.40128 -64.316392)
(-4846.4827 766.58755 -59.993368)
(-4891.5936 759.65244 -51.064776)
(-4927.9127 754.53235 -38.124453)
(-4956.9813 752.04399 -22.010499)
(-4980.6154 752.85459 -3.7128972)
(-5000.8653 757.45269 15.697588)
(-5019.8077 766.04206 35.147396)
(-5039.4775 778.67546 53.564038)
(-5061.6788 795.07206 70.069276)
(-5087.9558 814.83819 83.846286)
(-5119.4341 837.2927 94.401751)
(-5156.8381 861.71325 101.34509)
(-5200.4001 887.17105 104.64203)
(-5249.9339 912.81939 104.36694)
(-5304.7973 937.70795 100.89689)
(-5364.0112 961.08205 94.697352)
(-5426.323 982.21495 86.386099)
(-5490.2729 1000.663 76.669176)
(-5554.4091 1016.1349 66.142838)
(-5617.3651 1028.7384 55.47845)
(-5678.1244 1038.822 45.023256)
(-5736.2112 1047.1761 34.814522)
(3.2927448e-15 -1.3239155e-15 2.3845803e-16)
(2.4470133e-15 -9.6672015e-16 3.215493e-17)
(-9.0574249e-15 9.0550918e-16 6.4029168e-16)
(-1.2642219e-16 -5.721845e-16 4.4370095e-16)
(-7.6811722e-15 -4.9270561e-16 4.1193361e-16)
(-7.3893964e-15 2.7533729e-15 -1.0951501e-15)
(-3.2915852e-15 -8.1743692e-16 3.8364228e-16)
(-1.9032499e-15 5.3200654e-16 -8.2319016e-17)
(-4.7409759e-15 -4.8623412e-16 4.3918642e-16)
(-1.2869644e-14 1.1845665e-15 6.4228907e-16)
(-9.6157521e-15 1.4157374e-15 5.9836601e-16)
(-9.4077204e-15 4.9518432e-16 1.1192419e-15)
(-5.982767e-15 2.6210694e-16 3.0473736e-16)
(-1.1478475e-14 -5.3386198e-16 1.6580808e-15)
(-5.257323e-15 3.6289085e-16 2.8600704e-16)
(17.342784 -8.4083777 9.8015179)
(52.317636 -9.4714919 -12.420135)
(94.668712 -7.666183 -38.266308)
(123.31052 10.630397 -55.02202)
(144.56922 25.094854 -70.408541)
(151.11643 45.328724 -80.324857)
(149.81189 66.128081 -84.699883)
(131.42809 90.993449 -86.797269)
(104.91113 111.22944 -80.397247)
(64.396667 136.818 -72.073074)
(13.637049 158.0391 -59.751962)
(-43.623068 175.57775 -43.918139)
(-109.2413 196.37892 -26.9031)
(-178.12057 208.01589 -9.4205043)
(-248.89777 222.91221 7.6714973)
(-319.67331 230.67024 21.977233)
(-388.34468 238.42175 33.541638)
(-451.39754 241.86632 42.245873)
(-511.19525 246.31318 44.757307)
(-562.43595 246.82662 43.657555)
(-609.0954 250.823 37.860651)
(-649.2254 254.1812 26.903788)
(-684.50229 257.83333 12.538026)
(-715.5313 266.53311 -4.8005324)
(-745.55717 278.40558 -24.012928)
(-775.77381 293.6144 -43.529053)
(-808.06604 314.53931 -62.041961)
(-848.03664 339.3747 -79.525551)
(-892.40497 368.69064 -92.48156)
(-950.11735 404.37653 -102.31052)
(-1016.3655 442.20957 -106.71235)
(-1096.4937 483.17101 -105.20248)
(-1189.3736 526.12359 -98.251025)
(-1295.1809 569.11647 -85.413158)
(-1413.8985 612.33776 -67.992343)
(-1542.8666 649.9716 -45.640226)
(-1680.7617 689.4864 -19.724412)
(-1826.239 720.03719 7.8007225)
(-1974.8426 746.14014 36.552929)
(-2124.9724 765.37838 64.719189)
(-2272.8169 777.61776 91.03281)
(-2415.7569 782.64706 114.3135)
(-2551.0791 780.73731 133.45513)
(-2676.4344 772.41923 147.62955)
(-2790.0873 758.57386 156.26709)
(-2890.8418 740.3307 159.11181)
(-2978.2077 719.03728 156.21096)
(-3052.3654 696.17025 147.93398)
(-3114.1831 673.27147 134.92129)
(-3165.1433 651.84942 118.07669)
(-3207.2564 633.30914 98.473853)
(-3242.9379 618.86372 77.328549)
(-3274.8611 609.47495 55.886536)
(-3305.8006 605.79361 35.381158)
(-3338.4656 608.12972 16.93334)
(-3375.3526 616.43631 1.5059368)
(-3418.5924 630.31817 -10.164825)
(-3469.85 649.06451 -17.596977)
(-3530.2241 671.69308 -20.591568)
(-3600.2073 697.02589 -19.236072)
(-3679.6625 723.75313 -13.886185)
(-3767.8541 750.53246 -5.1456338)
(-3863.4954 776.05912 6.1880682)
(-3964.8361 799.14341 19.146331)
(-4069.8045 818.80769 32.735629)
(-4176.0285 834.31256 45.843997)
(-4281.2451 844.71823 57.548111)
(-4382.6633 851.61823 66.68026)
(-4479.8449 853.53634 72.387364)
(-4567.4757 849.44668 74.988252)
(-4648.2491 843.43736 73.228641)
(-4718.5491 834.34537 67.069785)
(-4779.1846 823.45553 57.224885)
(-4830.0965 812.2113 43.6453)
(-4872.013 801.42565 27.179925)
(-4906.1424 792.29883 8.5722025)
(-4934.0721 785.74422 -11.225126)
(-4957.6122 782.54675 -31.213458)
(-4978.7539 783.27469 -50.375628)
(-4999.496 788.25813 -67.76634)
(-5021.7165 797.57093 -82.538057)
(-5047.1005 811.03596 -94.025386)
(-5076.9784 828.24302 -101.74681)
(-5112.3313 848.57827 -105.47379)
(-5153.6561 871.26997 -105.18751)
(-5201.0472 895.43106 -101.13212)
(-5254.0999 920.14291 -93.734884)
(-5312.0658 944.45725 -83.625834)
(-5373.8034 967.55521 -71.539022)
(-5437.9791 988.65361 -58.302539)
(-5503.0782 1007.2704 -44.722419)
(-5567.6455 1022.9895 -31.537035)
(-5630.2973 1035.9071 -19.321998)
(-5690.384 1046.1445 -8.1842646)
(-5746.9643 1054.5573 1.6997764)
(-5811.3282 1006.2542 18.350534)
(-5816.7956 950.77198 23.383704)
(-5821.3572 897.17339 26.23856)
(-5823.3997 848.59243 26.90954)
(-5827.3228 802.4961 24.895947)
(-5828.784 760.75041 21.896253)
(-5833.806 720.41538 16.338392)
(-5838.2358 681.48512 11.19277)
(-5844.09 642.46544 5.6519687)
(-5852.506 602.86655 0.77099356)
(-5862.8559 560.50399 -2.5228913)
(-5872.3325 513.84572 -4.5534431)
(-5885.436 464.76117 -2.9457641)
(-5896.3816 409.23184 -0.77007875)
(-5909.1958 351.30215 5.8532463)
(-5858.258 281.53871 19.503813)
(-5796.6672 270.69306 25.739281)
(-5731.9311 260.61818 33.892494)
(-5665.0038 251.49736 42.098436)
(-5596.1006 244.03926 50.466288)
(-5526.5144 238.8495 58.911147)
(-5458.3046 236.28343 65.979317)
(-5392.6621 236.30201 71.459052)
(-5331.2716 238.81409 74.543252)
(-5275.2469 243.56853 74.645318)
(-5225.5736 249.7979 71.605858)
(-5182.6383 257.15975 65.08025)
(-5146.6215 264.60157 55.27236)
(-5116.8407 271.32276 42.48433)
(-5092.6478 276.58238 27.110439)
(-5072.58 279.48067 9.9163517)
(-5055.0292 279.3972 -8.1626681)
(-5038.0447 275.78112 -26.179858)
(-5019.4779 268.19453 -42.967527)
(-4997.1935 256.56494 -57.526484)
(-4969.1697 240.89111 -68.803512)
(-4933.5636 221.53688 -75.995517)
(-4888.9872 198.98704 -78.445351)
(-4834.2965 174.02106 -75.819366)
(-4769.2804 147.46212 -67.774543)
(-4693.5881 120.12571 -55.200431)
(-4609.031 94.205948 -37.435988)
(-4514.7743 67.547394 -16.592545)
(-4414.6578 46.285069 6.8850293)
(-4310.0299 26.194018 31.407114)
(-4203.2516 10.545862 56.118033)
(-4097.0808 -0.93688999 79.077362)
(-3993.9895 -8.0976223 99.059621)
(-3896.3426 -11.07589 114.78482)
(-3806.1508 -10.314509 125.22689)
(-3724.9278 -6.5203734 129.65035)
(-3653.6106 -0.60678939 127.66488)
(-3592.4747 6.3210539 119.24961)
(-3541.1189 13.061256 104.76076)
(-3498.4693 18.347341 84.915432)
(-3462.8508 20.9613 60.741278)
(-3432.0679 19.76317 33.524911)
(-3403.5451 13.808855 4.7271084)
(-3374.464 2.3600146 -24.097709)
(-3341.9389 -15.014229 -51.398116)
(-3303.1722 -38.456505 -75.711028)
(-3255.6321 -67.749033 -95.748335)
(-3197.1731 -102.38714 -110.4677)
(-3126.218 -141.49892 -119.13599)
(-3041.7291 -184.01217 -121.37192)
(-2943.5024 -228.66148 -117.07075)
(-2831.8245 -273.78502 -106.77771)
(-2707.8722 -318.26539 -90.790133)
(-2573.5112 -360.09437 -70.557567)
(-2430.4264 -398.35722 -46.79053)
(-2282.2227 -431.47304 -21.109712)
(-2131.0553 -459.34389 4.8994732)
(-1979.9416 -478.35019 29.810184)
(-1833.423 -492.59155 53.636928)
(-1690.9218 -499.5591 73.250497)
(-1557.2164 -498.90442 88.284084)
(-1436.047 -491.64496 99.642446)
(-1324.0729 -481.78652 104.41563)
(-1226.0709 -465.5297 104.9055)
(-1138.9705 -447.12535 99.641472)
(-1066.3075 -425.96981 91.031741)
(-1002.3282 -407.72816 77.690219)
(-949.62396 -386.66862 62.437683)
(-903.83204 -370.30107 45.450481)
(-863.46706 -355.01054 27.984559)
(-826.41347 -343.24963 11.19223)
(-790.50624 -335.96472 -3.5743296)
(-753.18076 -330.91098 -16.683029)
(-714.13939 -328.8287 -25.760926)
(-670.79744 -329.73255 -30.703419)
(-621.87345 -332.31137 -32.787206)
(-569.22927 -334.26741 -29.683903)
(-509.92828 -337.44389 -23.553107)
(-447.51676 -337.26918 -13.544357)
(-381.64355 -335.88231 -1.2862756)
(-313.86907 -330.77875 13.182835)
(-246.06625 -321.86351 28.385445)
(-180.80957 -308.00967 43.349644)
(-120.09788 -290.5023 58.179098)
(-64.158139 -269.00448 70.877441)
(-16.385034 -242.89528 80.615895)
(21.407068 -213.77264 88.27049)
(50.879728 -183.87404 91.956367)
(68.973735 -151.78829 91.826499)
(77.391645 -120.58812 88.086021)
(75.290622 -89.613486 80.446021)
(64.2824 -62.389993 69.247488)
(46.765201 -39.279392 55.204237)
(22.724577 -21.276491 36.423987)
(-1.7971922 -8.0320522 13.397023)
(-6.8708141e-15 1.5083581e-15 1.9262289e-16)
(-1.2504183e-14 5.7375616e-16 8.4327435e-16)
(-8.3449101e-15 1.4891922e-15 5.3018253e-16)
(-4.9731758e-15 1.4991158e-15 6.2376313e-16)
(-3.4146159e-15 1.5624416e-15 3.1576894e-17)
(2.0582335e-15 9.3962624e-16 -5.746342e-16)
(2.2101935e-15 3.7457559e-17 -1.1841335e-16)
(2.4553765e-15 -8.5141669e-16 -9.3419562e-16)
(1.2987427e-15 1.0081898e-16 1.7950851e-15)
(-4.5074861e-15 9.063971e-16 1.0710522e-15)
(-5.2682467e-15 2.1856155e-15 1.0652666e-15)
(-7.4917339e-15 1.915055e-15 2.2418828e-16)
(-9.400838e-15 1.3708275e-15 6.2833768e-16)
(-6.2048683e-15 1.3247981e-15 5.4317906e-16)
(-6.971104e-15 1.5128103e-15 7.5678131e-16)
(-1.2693866e-14 6.2923345e-15 -2.1364834e-15)
(-5.2452578e-15 2.6791924e-15 -5.3037742e-16)
(-1.0752404e-15 9.8318743e-16 -1.0111087e-16)
(-2.7353382e-15 1.7746034e-15 7.3085398e-17)
(1.0178949e-15 -1.5450237e-16 -4.119182e-16)
(-1.4303492e-15 4.136346e-16 -3.3264033e-16)
(-1.0059749e-14 4.7133437e-15 -1.6449855e-15)
(2.9801421e-15 -1.9180379e-15 -8.3172098e-16)
(-4.79756e-15 2.8035442e-15 1.1420498e-15)
(-5.4778068e-15 3.5047253e-15 -3.934403e-16)
(-1.8117877e-15 1.1581936e-15 -9.1309836e-16)
(-3.9812639e-16 4.7407236e-16 -2.2932148e-16)
(-1.5272242e-15 1.100363e-15 -2.2557932e-16)
(-4.1024849e-15 1.9838802e-15 2.8069696e-17)
(-5.3424143e-16 2.551799e-16 -1.9455919e-16)
(-5796.4579 1066.0492 25.166514)
(-5801.1467 1076.3434 25.940195)
(-5806.0041 1085.9209 25.990293)
(-5810.9714 1094.4619 25.31341)
(-5815.8283 1101.8385 23.82664)
(-5819.82 1107.8446 21.550083)
(-5822.7833 1112.1131 18.923749)
(-5824.3706 1114.5046 16.153028)
(-5824.5601 1114.805 13.618123)
(-5823.3846 1112.9862 11.517188)
(-5821.0843 1108.9659 10.296438)
(-5817.8198 1102.9139 9.7730931)
(-5814.1442 1095.0412 10.279127)
(-5810.5324 1085.406 11.048139)
(-5806.7008 1074.5318 12.538409)
(-5923.0194 259.03808 -13.17034)
(-5930.9572 254.71388 -13.503766)
(-5938.5674 251.58802 -13.52133)
(-5945.0454 249.56996 -12.709979)
(-5950.9036 248.70723 -10.931652)
(-5955.0233 248.89922 -8.2432199)
(-5957.4345 250.09159 -4.8668414)
(-5957.9577 252.11415 -1.0889122)
(-5956.6333 254.88709 2.7508429)
(-5953.6089 258.305 6.317834)
(-5949.2088 262.21392 9.1943324)
(-5943.7478 266.82954 11.279504)
(-5937.7393 271.67194 12.202467)
(-5931.5449 277.50285 12.40926)
(-5925.2649 283.61649 11.848485)
(6.5944831 -22.254978 -27.759145)
(32.018132 -38.704837 -43.073744)
(57.404212 -56.485353 -61.526603)
(77.153414 -75.11985 -74.067367)
(91.07144 -95.333144 -86.358395)
(94.705326 -116.74062 -93.861053)
(88.954828 -138.46034 -98.387598)
(71.729543 -160.44636 -99.006436)
(44.307454 -181.50521 -96.175537)
(6.3131777 -201.0987 -90.241073)
(-41.127764 -218.75489 -81.222946)
(-96.498541 -234.21702 -70.435258)
(-157.95757 -246.80643 -57.970701)
(-223.71132 -256.92561 -45.099938)
(-291.57768 -264.3838 -32.310938)
(-359.63351 -269.68892 -20.875108)
(-425.87811 -272.69831 -11.11281)
(-488.87473 -274.53948 -3.962698)
(-547.23273 -275.43859 0.38007561)
(-600.31848 -276.0559 1.3376689)
(-648.10365 -277.06019 -0.8932214)
(-690.68858 -278.84585 -6.2548953)
(-729.19711 -281.96262 -14.367543)
(-764.91974 -286.72384 -24.653405)
(-799.47437 -293.11328 -36.419456)
(-835.13722 -301.19442 -48.777059)
(-874.10987 -310.89759 -60.901593)
(-918.61768 -321.42097 -71.952416)
(-971.0124 -332.51095 -80.905086)
(-1032.9095 -343.48074 -86.93397)
(-1106.3518 -353.32009 -89.824498)
(-1192.2095 -361.50697 -88.590415)
(-1290.8039 -367.11004 -83.423144)
(-1402.1015 -369.48993 -74.215406)
(-1525.4817 -367.93421 -60.775941)
(-1659.7271 -362.08925 -44.354755)
(-1802.6712 -351.7921 -25.323409)
(-1951.686 -336.53119 -4.1785141)
(-2104.5361 -316.87016 17.665602)
(-2257.72 -293.24468 39.288557)
(-2408.3734 -265.56626 59.616986)
(-2553.1721 -234.89935 77.867714)
(-2690.2474 -202.28336 92.885451)
(-2816.5144 -168.25191 104.02473)
(-2930.4989 -134.13179 110.76896)
(-3031.066 -100.75807 112.75968)
(-3117.7395 -69.073734 110.02807)
(-3190.7892 -39.956177 102.7174)
(-3251.1121 -14.095594 91.304201)
(-3300.273 7.9808768 76.429139)
(-3340.3234 25.952456 58.926973)
(-3373.7627 39.730218 39.752934)
(-3403.3316 49.431468 19.945054)
(-3431.8992 55.394834 0.55471794)
(-3462.2716 58.127418 -17.403479)
(-3497.0454 58.291754 -33.015606)
(-3538.4511 56.641025 -45.510296)
(-3588.2253 53.991677 -54.315149)
(-3647.5168 51.160745 -59.0814)
(-3716.8172 48.926147 -59.6931)
(-3795.9435 47.983838 -56.297394)
(-3884.0696 48.931957 -49.266455)
(-3979.7566 52.16584 -39.18684)
(-4081.0895 58.026216 -26.772782)
(-4185.7984 66.622544 -13.020917)
(-4291.4735 77.788962 1.2283352)
(-4395.3905 91.304596 15.359385)
(-4495.0953 107.29774 27.626463)
(-4588.7314 124.92912 38.488885)
(-4673.8001 143.74097 45.659953)
(-4749.7031 163.16052 50.130153)
(-4815.4219 182.39859 51.1144)
(-4870.7558 200.89476 48.646554)
(-4916.0715 218.1566 42.909282)
(-4952.3069 233.67308 34.287472)
(-4980.8299 247.12326 23.315446)
(-5003.3934 258.24277 10.685193)
(-5021.9797 267.00458 -2.8962012)
(-5038.7153 273.40594 -16.618506)
(-5055.7324 277.70335 -29.771668)
(-5075.0058 280.15176 -41.626411)
(-5098.2853 281.10592 -51.584941)
(-5126.9096 280.93679 -59.238192)
(-5162.0119 280.37721 -64.213062)
(-5204.071 279.6232 -66.607171)
(-5252.898 279.21928 -66.385572)
(-5308.5732 279.39169 -63.779439)
(-5369.6148 280.46577 -59.198971)
(-5435.5345 282.55684 -53.112805)
(-5504.1939 285.81218 -45.97313)
(-5574.1949 290.12027 -38.639343)
(-5644.7465 295.66744 -31.113766)
(-5712.4395 301.89098 -24.242676)
(-5778.8428 309.18584 -17.673219)
(-5842.3607 317.90866 -11.177465)
(16.552118 -24.201363 -30.396011)
(41.083677 -37.631066 -42.970233)
(64.367031 -57.304143 -56.24277)
(85.402011 -72.564283 -68.070341)
(98.392021 -90.582197 -77.227724)
(103.04746 -107.33987 -83.606062)
(96.947387 -124.90018 -87.084761)
(80.462004 -141.52526 -87.614811)
(52.81761 -157.52135 -85.242251)
(14.858859 -172.19046 -80.023789)
(-32.529477 -185.43263 -72.724817)
(-87.880639 -196.93964 -63.395632)
(-149.46406 -206.64956 -53.132309)
(-215.38149 -214.4896 -42.201276)
(-283.42722 -220.59744 -31.714201)
(-351.63219 -225.15732 -21.922189)
(-417.92375 -228.54063 -13.885614)
(-480.96606 -230.93962 -7.7055684)
(-539.31575 -232.89808 -4.1493944)
(-592.44464 -234.694 -3.1131411)
(-639.8952 -236.69848 -4.8475859)
(-682.28154 -239.28444 -9.0600772)
(-720.29886 -242.60425 -15.55358)
(-755.42644 -246.79777 -23.763501)
(-789.40919 -251.85251 -33.184648)
(-824.35941 -257.63212 -43.025475)
(-862.51848 -263.8378 -52.648047)
(-906.17862 -270.17788 -61.199057)
(-957.57209 -276.13904 -67.982155)
(-1018.8648 -281.1805 -72.56649)
(-1091.3685 -284.79073 -74.136138)
(-1176.4102 -286.38542 -72.544604)
(-1274.5289 -285.52652 -67.669298)
(-1385.5745 -281.72044 -59.356097)
(-1509.0271 -274.51348 -48.100364)
(-1643.3564 -264.00194 -33.994299)
(-1786.4451 -249.9178 -17.778875)
(-1936.2038 -232.35836 -0.20145912)
(-2089.6838 -211.78658 18.027103)
(-2243.6248 -188.40041 36.043055)
(-2395.2602 -162.67896 52.738333)
(-2541.4748 -135.37422 67.929614)
(-2679.3543 -107.03674 79.831473)
(-2806.7942 -78.435326 88.74801)
(-2921.8322 -50.425798 94.001502)
(-3023.3565 -23.524349 95.327066)
(-3110.8198 1.5581571 92.708374)
(-3184.4575 24.296376 86.334889)
(-3245.1588 44.280497 76.615203)
(-3294.4527 61.236955 64.074187)
(-3334.4128 75.068888 49.435686)
(-3367.5369 85.830014 33.478266)
(-3396.5979 93.73393 17.072722)
(-3424.4936 99.131979 1.0749124)
(-3454.0761 102.48164 -13.679583)
(-3487.9856 104.32131 -26.451582)
(-3528.5047 105.23168 -36.618325)
(-3577.4228 105.79753 -43.727421)
(-3635.9339 106.57777 -47.498344)
(-3704.581 108.07145 -47.859354)
(-3783.216 110.70154 -44.941684)
(-3871.048 114.78267 -39.048297)
(-3966.6429 120.53839 -30.68143)
(-4068.156 128.05232 -20.433961)
(-4173.1789 137.36896 -9.1283663)
(-4279.4664 147.99899 2.7885513)
(-4383.8578 160.58741 13.607888)
(-4484.9621 174.40511 24.019912)
(-4579.7196 188.7603 32.542898)
(-4666.1787 203.40273 38.740153)
(-4743.1993 218.41793 42.382897)
(-4810.0283 232.89423 43.250614)
(-4866.2742 246.64755 41.278098)
(-4912.3737 259.47701 36.586169)
(-4949.1845 271.03097 29.536083)
(-4978.0451 281.25055 20.534077)
(-5000.7196 289.95957 10.185202)
(-5019.1765 297.29918 -0.98292144)
(-5035.6075 303.22655 -12.253055)
(-5052.0811 308.05519 -23.074249)
(-5070.7 311.84745 -32.796371)
(-5093.212 315.04871 -41.0789)
(-5121.0663 317.66923 -47.250677)
(-5155.4213 320.34918 -51.605981)
(-5196.4806 322.8512 -53.439017)
(-5244.6328 325.64804 -53.110279)
(-5299.5211 328.93074 -50.864158)
(-5360.146 332.74604 -46.996568)
(-5425.4437 337.3007 -41.737087)
(-5494.0837 342.45061 -35.801043)
(-5563.7507 348.11497 -29.261522)
(-5634.4988 354.9693 -22.753004)
(-5702.3609 361.87647 -16.320002)
(-5768.9551 369.60722 -9.7689267)
(-5832.7005 378.94097 -3.4995125)
(23.425378 -21.459034 -30.530553)
(47.761553 -34.892742 -40.492598)
(73.359188 -51.790196 -52.963874)
(92.442532 -66.815943 -61.668854)
(105.61166 -81.734031 -68.81785)
(109.35322 -96.411219 -73.607364)
(103.60101 -110.17871 -76.415987)
(86.727765 -123.42405 -76.658808)
(59.286774 -135.62833 -74.330482)
(21.423172 -146.97224 -70.237301)
(-25.784147 -156.83776 -63.880341)
(-81.043324 -165.62203 -56.438768)
(-142.4756 -172.81393 -47.814174)
(-208.19122 -178.89488 -39.093947)
(-276.10775 -183.57568 -30.294206)
(-344.06067 -187.40975 -22.553921)
(-410.35189 -190.22424 -15.818233)
(-473.19705 -192.65503 -10.966138)
(-531.47396 -194.64504 -7.9176366)
(-584.37408 -196.65273 -7.1009898)
(-631.78998 -198.78231 -8.3430225)
(-673.97988 -201.21962 -11.654724)
(-711.8684 -204.03573 -16.660789)
(-746.75662 -207.24751 -23.018175)
(-780.47712 -210.76897 -30.197479)
(-815.08569 -214.38593 -37.687764)
(-852.88121 -217.84299 -44.831751)
(-896.17669 -220.81783 -51.070072)
(-947.26594 -222.87402 -55.897305)
(-1007.9969 -223.63359 -58.711404)
(-1080.1675 -222.65542 -59.239182)
(-1164.8784 -219.60058 -57.232254)
(-1262.5876 -214.08214 -52.495955)
(-1373.3693 -205.87619 -45.228411)
(-1496.4535 -194.93461 -35.402987)
(-1630.4954 -181.13261 -23.568169)
(-1773.5644 -164.59174 -10.325586)
(-1923.1974 -145.47038 3.9900683)
(-2076.6941 -124.16527 18.751584)
(-2231.0534 -101.21302 33.007469)
(-2383.0895 -76.896956 46.417731)
(-2529.7535 -51.884129 58.008936)
(-2668.2722 -26.864965 67.353048)
(-2796.3209 -2.0921167 73.939356)
(-2912.0909 21.633676 77.698437)
(-3014.282 43.846613 78.218831)
(-3102.4016 64.186738 75.644787)
(-3176.6212 82.289773 70.122249)
(-3237.8143 97.967587 61.989988)
(-3287.489 111.12558 51.710914)
(-3327.7088 121.81669 39.859637)
(-3360.9572 130.1984 27.070682)
(-3390.0119 136.55385 14.03407)
(-3417.7731 141.24015 1.4231326)
(-3447.1034 144.68621 -10.112358)
(-3480.6587 147.34982 -20.00417)
(-3520.7424 149.69361 -27.78352)
(-3569.1659 152.15467 -33.110477)
(-3627.1534 155.11966 -35.791379)
(-3695.2772 158.91016 -35.793743)
(-3773.4254 163.75957 -33.231082)
(-3860.8334 169.82611 -28.375147)
(-3956.0993 177.15897 -21.612353)
(-4057.4484 185.74212 -13.478794)
(-4162.3047 195.48491 -4.3977486)
(-4268.9321 206.13871 4.6467768)
(-4373.6052 217.76796 13.685601)
(-4474.1784 229.87874 22.114448)
(-4569.8253 242.19001 27.940131)
(-4656.8831 254.58413 32.609636)
(-4734.7115 266.59419 35.039787)
(-4802.3069 278.14671 35.309414)
(-4859.3904 288.95483 33.354119)
(-4906.3254 298.98173 29.311086)
(-4943.9242 308.07115 23.498132)
(-4973.4546 316.20963 16.234433)
(-4996.6886 323.40666 7.9844592)
(-5015.5512 329.78501 -0.80813298)
(-5032.1919 335.40469 -9.5942775)
(-5048.7521 340.50572 -17.951294)
(-5067.2382 345.17592 -25.400831)
(-5089.4893 349.70623 -31.592131)
(-5116.9033 354.08299 -36.28445)
(-5150.4868 358.84272 -39.370638)
(-5191.2571 363.89439 -40.300635)
(-5238.7826 369.01412 -39.929216)
(-5293.1307 374.63098 -37.962295)
(-5352.9819 380.82083 -34.681728)
(-5417.9084 387.30549 -30.492586)
(-5485.8921 394.32251 -25.432379)
(-5555.3602 401.61283 -20.240672)
(-5625.9958 409.63741 -14.497244)
(-5693.5979 417.6689 -9.0999955)
(-5760.2648 426.10845 -3.0791197)
(-5823.557 435.73404 2.8318733)
(29.148086 -21.400339 -29.463243)
(56.010202 -31.390022 -38.865326)
(80.185762 -46.381859 -47.944065)
(99.134738 -58.724751 -54.851258)
(111.27253 -71.977153 -60.351172)
(115.08849 -84.105501 -64.184394)
(108.62502 -95.691923 -66.200659)
(91.820121 -106.26092 -65.963386)
(64.258816 -116.18718 -64.348521)
(26.446434 -124.84018 -60.61947)
(-20.656399 -132.5529 -55.764421)
(-75.662352 -139.09273 -49.559839)
(-136.80737 -144.5533 -42.938933)
(-202.28543 -148.94704 -35.751373)
(-269.75244 -152.41746 -29.08518)
(-337.54418 -155.11249 -22.743005)
(-403.3947 -157.19259 -17.636938)
(-466.03413 -158.88828 -13.660639)
(-524.00669 -160.31887 -11.320492)
(-576.80436 -161.74605 -10.51424)
(-623.9992 -163.18341 -11.395342)
(-666.12385 -164.82992 -13.707957)
(-703.87984 -166.58713 -17.321178)
(-738.78914 -168.50324 -21.847608)
(-772.49866 -170.32271 -26.974708)
(-807.14379 -171.93984 -32.179791)
(-844.97405 -173.04212 -37.06545)
(-888.31308 -173.34005 -41.15548)
(-939.33459 -172.46665 -44.03765)
(-1000.1204 -170.13471 -45.370999)
(-1072.1844 -165.97108 -44.906665)
(-1156.7218 -159.72735 -42.445676)
(-1254.294 -151.18991 -37.984999)
(-1364.8509 -140.28569 -31.553646)
(-1487.6885 -126.85577 -23.379829)
(-1621.4822 -111.15021 -13.81406)
(-1764.4408 -93.203149 -3.1062776)
(-1914.0473 -73.543038 8.4411513)
(-2067.2985 -52.331702 19.753449)
(-2221.3863 -29.742424 30.80414)
(-2373.1417 -6.5909242 40.723705)
(-2519.6652 16.777219 49.256199)
(-2658.0792 39.802085 55.905892)
(-2786.0668 62.02764 60.455726)
(-2901.861 82.948589 62.651956)
(-3004.2056 102.1973 62.405159)
(-3092.5584 119.51993 59.80438)
(-3167.087 134.67583 54.991852)
(-3228.6524 147.58887 48.278526)
(-3278.7423 158.26314 40.03243)
(-3319.3986 166.83165 30.712696)
(-3353.0831 173.51056 20.813762)
(-3382.5517 178.61399 10.862709)
(-3410.6782 182.50469 1.3609063)
(-3440.3051 185.59592 -7.2074668)
(-3474.0685 188.29931 -14.43875)
(-3514.2559 191.01854 -19.99608)
(-3562.6694 194.11258 -23.655991)