/*--------------------------------*- C++ -*----------------------------------*\
  =========                 |
  \\      /  F ield         | OpenFOAM: The Open Source CFD Toolbox
   \\    /   O peration     | Website:  https://openfoam.org
    \\  /    A nd           | Version:  6
     \\/     M anipulation  |
\*---------------------------------------------------------------------------*/
FoamFile
{
    version     2.0;
    format      ascii;
    class       pointVectorField;
    location    "1.18";
    object      u;
}
// * * * * * * * * * * * * * * * * * * * * * * * * * * * * * * * * * * * * * //

dimensions      [0 1 0 0 0 0 0];

internalField   nonuniform List<vector> 
3969
(
(0 0 0)
(0 0 0)
(2.15013 -0.18831378 0.041893012)
(2.0131118 -0.69274759 0.037345889)
(0 0 0)
(0 0 0)
(2.0114531 -0.70440102 0.036855599)
(2.1483943 -0.20016589 0.041387306)
(0 0 0)
(0 0 0)
(0 0 0)
(0 0 0)
(0 0 0)
(0 0 0)
(0 0 0)
(2.1325011 -0.25200321 0.040896221)
(2.1150854 -0.31482697 0.040428712)
(2.0979051 -0.37748825 0.039926434)
(2.0809434 -0.44007752 0.039598207)
(2.0641048 -0.50275997 0.039191312)
(2.047266 -0.56563915 0.038795516)
(2.0304598 -0.62890092 0.038162278)
(0.0044476993 0.010487992 0.01181663)
(0.0065657981 0.018918478 0.014667822)
(0.011982167 0.028476309 0.016807013)
(0.020476506 0.037818555 0.017531111)
(0.031355369 0.04759635 0.018195828)
(0.045396145 0.056840839 0.018368882)
(0.061613253 0.066024974 0.018768497)
(0.080920003 0.074644268 0.018878683)
(0.10243019 0.082889405 0.019245337)
(0.12671211 0.090347072 0.01933546)
(0.15328968 0.097403342 0.019733292)
(0.18236102 0.10360158 0.019932684)
(0.21370045 0.109135 0.020206312)
(0.24731924 0.11389396 0.020525091)
(0.28317688 0.11780573 0.020760913)
(0.32099834 0.1208699 0.021078394)
(0.36092439 0.12310502 0.021381207)
(0.40272409 0.12441662 0.021688785)
(0.44640856 0.1248571 0.022014666)
(0.49181392 0.12436525 0.022322942)
(0.53891287 0.12296154 0.022672615)
(0.58758037 0.12065382 0.022997551)
(0.63775106 0.11741852 0.023356732)
(0.6893395 0.1132989 0.023706463)
(0.74222425 0.10824268 0.024078521)
(0.79637552 0.10239014 0.024468552)
(0.85165278 0.095644752 0.024883682)
(0.9080191 0.088071732 0.025311574)
(0.96538252 0.079701137 0.025775553)
(1.0236217 0.070543433 0.026275628)
(1.082709 0.060653336 0.026807556)
(1.1425416 0.050035147 0.027384439)
(1.203046 0.038743533 0.028001289)
(1.264157 0.026796868 0.028660046)
(1.325812 0.014245354 0.029368022)
(1.387917 0.0010828835 0.030122767)
(1.4504582 -0.012541777 0.030899944)
(1.5132892 -0.02680711 0.031767216)
(1.576477 -0.041355189 0.032604233)
(1.6398112 -0.05655029 0.033577011)
(1.7034215 -0.071915335 0.034468524)
(1.7670736 -0.087786718 0.035509542)
(1.8308623 -0.10398707 0.036515128)
(1.8946869 -0.12023704 0.037538386)
(1.9584637 -0.13713236 0.038695777)
(2.0222737 -0.15379291 0.039769053)
(2.0859214 -0.17076098 0.041052562)
(-0.00015781721 -0.010161422 -0.013658091)
(0.0034633502 -0.01695658 -0.014361156)
(0.0067264413 -0.025264219 -0.018083525)
(0.013735737 -0.033906521 -0.017649678)
(0.023441839 -0.043226296 -0.018302064)
(0.035196864 -0.052806455 -0.017731038)
(0.049668442 -0.062543915 -0.017525566)
(0.066113726 -0.072652908 -0.016915493)
(0.084971555 -0.082840078 -0.016389652)
(0.1061635 -0.093634167 -0.015673275)
(0.12923514 -0.1042556 -0.015014706)
(0.15479425 -0.11566774 -0.014260657)
(0.18216772 -0.12702516 -0.013419759)
(0.21173108 -0.138874 -0.012552996)
(0.24322303 -0.15106586 -0.011622719)
(0.27670992 -0.16353967 -0.010648805)
(0.31213695 -0.17647718 -0.0096257185)
(0.34930675 -0.18959412 -0.0085707698)
(0.38839031 -0.20326516 -0.0074476766)
(0.42911131 -0.21711748 -0.0063279218)
(0.47150538 -0.23144643 -0.0051224746)
(0.51556161 -0.24602709 -0.0039400271)
(0.56107895 -0.2610162 -0.0026519851)
(0.60814952 -0.27633104 -0.0013815354)
(0.65654291 -0.29187732 -8.5319192e-05)
(0.70635142 -0.30778543 0.001261938)
(0.75732291 -0.32386425 0.0026436371)
(0.80963235 -0.34036214 0.0040699867)
(0.86307387 -0.35701045 0.0054904254)
(0.9175852 -0.37389303 0.0069843544)
(0.97313553 -0.39100845 0.0084978795)
(1.0296138 -0.40829098 0.010056908)
(1.087001 -0.42574985 0.011649742)
(1.1451938 -0.44334751 0.013274536)
(1.2041585 -0.46106164 0.014934156)
(1.2638079 -0.47888459 0.016613937)
(1.3241091 -0.49676967 0.018326683)
(1.384964 -0.51469222 0.020055732)
(1.4463406 -0.53268713 0.021806113)
(1.5081799 -0.55063817 0.023553235)
(1.5704075 -0.56862523 0.025326488)
(1.6329825 -0.586546 0.027075813)
(1.6958457 -0.60441718 0.028833683)
(1.7589473 -0.62222771 0.030567389)
(1.8222135 -0.63992935 0.032283015)
(1.8856641 -0.65753657 0.033944167)
(1.9491535 -0.67511078 0.035615348)
(0 0 0)
(0 0 0)
(0 0 0)
(0 0 0)
(0 0 0)
(0 0 0)
(0 0 0)
(0.0038514928 -0.0067570073 0.010504181)
(0.0050298697 -0.021347948 0.015256967)
(0.007742627 -0.02394866 0.016313373)
(0.015670613 -0.03706628 0.017412956)
(0.024870589 -0.044988163 0.018031965)
(0.037039337 -0.055259594 0.017542417)
(0.051515792 -0.065867511 0.018113575)
(0.068041306 -0.075523638 0.017479061)
(0.087032699 -0.087162544 0.0181005)
(0.10793542 -0.097030841 0.017433943)
(0.13113511 -0.10954995 0.018408105)
(0.15652979 -0.11986624 0.017849198)
(0.18395148 -0.13225119 0.018256705)
(0.2136406 -0.14423268 0.018191231)
(0.24502295 -0.15645663 0.0182974)
(0.27860599 -0.16955325 0.018431643)
(0.31392527 -0.18235695 0.018494967)
(0.35114624 -0.19603478 0.018635676)
(0.39012848 -0.20973437 0.018752106)
(0.43083224 -0.22396365 0.018882367)
(0.47319267 -0.23844611 0.019039373)
(0.51713947 -0.2533335 0.019212219)
(0.56263717 -0.26850869 0.01939218)
(0.60957146 -0.28400828 0.019606146)
(0.65795705 -0.29991528 0.019796243)
(0.70777823 -0.31605194 0.019955149)
(0.75859817 -0.33259201 0.020338581)
(0.81074278 -0.34923949 0.02065065)
(0.86400558 -0.36621149 0.021055577)
(0.9183672 -0.38337953 0.021475014)
(0.97373071 -0.40074582 0.021934658)
(1.0300422 -0.41829942 0.02245649)
(1.0872299 -0.43600788 0.023026001)
(1.1452469 -0.4538367 0.023645843)
(1.2040106 -0.47176671 0.024320826)
(1.2634792 -0.48981658 0.025051064)
(1.3236052 -0.50783373 0.02581719)
(1.3842476 -0.52598095 0.026667746)
(1.4454685 -0.54406767 0.027527741)
(1.5071432 -0.56217178 0.028460071)
(1.5692187 -0.5802183 0.029412766)
(1.6316785 -0.59823027 0.030416759)
(1.6944171 -0.61613761 0.031447512)
(1.7574387 -0.63397676 0.032514241)
(1.8206368 -0.65168035 0.033603166)
(1.8840362 -0.66928347 0.034736842)
(1.9474345 -0.68685495 0.035846127)
(2.0288654 -0.64065127 0.037210633)
(2.0455856 -0.57741019 0.037736424)
(2.0624404 -0.51456416 0.038430102)
(2.0792345 -0.45190587 0.039122825)
(2.0961524 -0.38933272 0.039933462)
(2.1133 -0.32665945 0.040547515)
(2.1308039 -0.26390678 0.041166803)
(2.0843459 -0.18265645 0.039503389)
(2.0204418 -0.16567715 0.037908458)
(1.9566976 -0.14879567 0.036201731)
(1.8928976 -0.13205549 0.034517465)
(1.8290958 -0.11554558 0.032762907)
(1.7653534 -0.099283482 0.031001128)
(1.7017116 -0.083325353 0.0292398)
(1.6382057 -0.067692448 0.027471842)
(1.5749039 -0.052437371 0.025706887)
(1.5118509 -0.03756938 0.023960445)
(1.449067 -0.023183297 0.02223013)
(1.386737 -0.009350421 0.020546794)
(1.324711 0.0040934753 0.018842584)
(1.2632149 0.016881462 0.017195202)
(1.2022564 0.029090595 0.015559945)
(1.1419088 0.040637797 0.013973367)
(1.0822362 0.051518498 0.012413617)
(1.0233182 0.061668174 0.010885934)
(0.9652183 0.071082905 0.0093973759)
(0.90802671 0.079693978 0.0079418347)
(0.85180886 0.087531205 0.0065068135)
(0.79665193 0.094493697 0.0051209769)
(0.7426402 0.10064271 0.0037495493)
(0.68983097 0.10588213 0.0024107281)
(0.63835192 0.11026641 0.0010865268)
(0.5882522 0.11371717 -0.00019313792)
(0.53963877 0.11630192 -0.0014769872)
(0.49259155 0.11793105 -0.0026953541)
(0.44720467 0.11869153 -0.003921788)
(0.40355704 0.1185169 -0.0050926616)
(0.36173694 0.11746599 -0.0062397304)
(0.32183528 0.11556362 -0.0073766774)
(0.28389354 0.11281944 -0.0084166795)
(0.24820725 0.10898309 -0.0093543282)
(0.2146448 0.10455194 -0.010442966)
(0.18314342 0.099428022 -0.011200547)
(0.15414954 0.093485988 -0.012187979)
(0.12737814 0.086800651 -0.012893461)
(0.10307271 0.07974432 -0.013795931)
(0.081461566 0.071576285 -0.014324989)
(0.062362148 0.063565389 -0.014969351)
(0.045534092 0.054632671 -0.015413492)
(0.031908011 0.045693062 -0.015847762)
(0.020505843 0.036261884 -0.015680728)
(0.012497114 0.027418709 -0.015226771)
(0.0066668557 0.017454811 -0.013643719)
(0.0078168232 0.0099372158 -0.0084411071)
(0 0 0)
(0 0 0)
(0 0 0)
(0 0 0)
(0 0 0)
(0 0 0)
(0 0 0)
(0 0 0)
(0 0 0)
(0 0 0)
(0 0 0)
(0 0 0)
(0 0 0)
(0 0 0)
(2.0128745 -0.69447345 0.037218632)
(2.0126834 -0.69608239 0.037149639)
(2.0124815 -0.69758454 0.037106306)
(2.0122777 -0.6990821 0.037081825)
(2.0120682 -0.70052423 0.037071161)
(2.011857 -0.70189533 0.037055437)
(2.0116378 -0.70330681 0.036934681)
(2.1502394 -0.18958334 0.041851763)
(2.1500824 -0.19105338 0.04182302)
(2.1499186 -0.1924909 0.041712084)
(2.1497398 -0.19395593 0.041618565)
(2.1495188 -0.19543198 0.041521853)
(2.1492395 -0.19695705 0.041443987)
(2.1490117 -0.19844825 0.04142923)
(0.00084190537 0.0083683011 0.01082319)
(0.0031205532 0.014936025 0.010964636)
(0.0080667104 0.022348992 0.012800695)
(0.01611848 0.029574894 0.013450318)
(0.02677917 0.036608509 0.013807323)
(0.040583541 0.043756123 0.014189754)
(0.056573905 0.05030698 0.014354827)
(0.075509382 0.056810042 0.014759479)
(0.096832094 0.062496823 0.014831486)
(0.12075215 0.067875119 0.015266621)
(0.14697 0.072602681 0.015518359)
(0.17562589 0.076590874 0.015794027)
(0.20657955 0.080105086 0.016156662)
(0.23974919 0.082718472 0.016462654)
(0.27507978 0.084629562 0.016845311)
(0.3124933 0.08575489 0.017192287)
(0.35190573 0.086098381 0.017589992)
(0.39321593 0.085564885 0.017992864)
(0.43638336 0.08424056 0.018394344)
(0.48130246 0.082041733 0.018817195)
(0.5278933 0.079007062 0.019250517)
(0.57606017 0.075122454 0.019688482)
(0.62575385 0.070401198 0.020148874)
(0.67681754 0.064839673 0.020617665)
(0.72927695 0.058482574 0.021120677)
(0.78296149 0.051283372 0.021599707)
(0.83780576 0.043332665 0.022134108)
(0.89376151 0.034622731 0.022689599)
(0.95071278 0.025156134 0.023273966)
(1.0085823 0.01500336 0.023890828)
(1.0673204 0.004171922 0.02454615)
(1.126822 -0.0073230193 0.025239869)
(1.187026 -0.019417189 0.025974166)
(1.2478726 -0.032107797 0.02675175)
(1.3092733 -0.045350332 0.027571834)
(1.3711621 -0.059096546 0.028432884)
(1.4335132 -0.073332507 0.029326749)
(1.4961878 -0.088032056 0.030290783)
(1.5592335 -0.10309828 0.031252915)
(1.622487 -0.11860557 0.032299946)
(1.6859874 -0.13434116 0.033315658)
(1.7495859 -0.15054829 0.034455702)
(1.8133845 -0.166828 0.035491195)
(1.8771296 -0.18346948 0.036690833)
(1.9409931 -0.20035828 0.037817602)
(2.004748 -0.217153 0.038960588)
(2.0684724 -0.2345569 0.040084503)
(-0.0023507798 0.0055602584 0.0075113724)
(-0.00011310281 0.009402123 0.0070545074)
(0.0050305044 0.01553157 0.0088095454)
(0.012830794 0.020059729 0.0088805363)
(0.023609119 0.025243214 0.0095052405)
(0.036700756 0.029980657 0.0095769588)
(0.052550487 0.034475071 0.010149067)
(0.071214432 0.038555092 0.010085392)
(0.092094705 0.042094815 0.010723138)
(0.11558555 0.045297042 0.010927075)
(0.1414865 0.047723573 0.01128925)
(0.16970023 0.049734819 0.011695077)
(0.20022177 0.051020523 0.012102188)
(0.23296866 0.051565624 0.012557892)
(0.26787337 0.051493053 0.013013694)
(0.30478504 0.050686306 0.013455526)
(0.34370959 0.049166957 0.013925032)
(0.3845093 0.046847753 0.014414676)
(0.42718204 0.043796945 0.014904524)
(0.47159963 0.039916635 0.01542719)
(0.51768882 0.035272971 0.015947871)
(0.56540227 0.029848731 0.016478622)
(0.61454441 0.02364222 0.017039734)
(0.66520399 0.016712519 0.017610024)
(0.71714949 0.0089781167 0.018181619)
(0.77035992 0.00057439103 0.018829527)
(0.82476448 -0.008576041 0.019475568)
(0.88027344 -0.018430767 0.020139523)
(0.93679174 -0.028908919 0.02086111)
(0.99428228 -0.040060641 0.021597233)
(1.0526415 -0.051809012 0.022370584)
(1.1117928 -0.064153535 0.023196264)
(1.171686 -0.077039269 0.024042997)
(1.2322299 -0.090461183 0.024945669)
(1.2933594 -0.10435882 0.025879641)
(1.355019 -0.11872832 0.026860828)
(1.4171509 -0.13350085 0.027869634)
(1.4796158 -0.1487098 0.028946649)
(1.5425424 -0.16418075 0.029991233)
(1.6055906 -0.18010687 0.03115679)
(1.6690556 -0.19618478 0.032253407)
(1.7325273 -0.2126388 0.033461264)
(1.7962918 -0.22921611 0.034612582)
(1.8599686 -0.24606927 0.035858946)
(1.9238341 -0.26307709 0.037039697)
(1.9875679 -0.28019126 0.038223342)
(2.0514394 -0.29761431 0.039375738)
(-0.0052630732 0.003174499 0.0047115763)
(-0.0026393302 0.0056704517 0.0044077149)
(0.0019201205 0.0087555278 0.0050061842)
(0.010081373 0.0116593 0.0050944963)
(0.02022999 0.014307201 0.0052845091)
(0.03371718 0.016981339 0.0055597106)
(0.049474101 0.018836219 0.0054644368)
(0.067799454 0.020772011 0.0060301595)
(0.088488899 0.021922897 0.0062582023)
(0.11186848 0.022792084 0.0065099551)
(0.13723728 0.023152361 0.0070331151)
(0.16511225 0.022891814 0.0074180803)
(0.19512692 0.02212899 0.0078919778)
(0.22736363 0.020679853 0.0084096502)
(0.26169908 0.018699043 0.0089724515)
(0.29813371 0.015971245 0.009447157)
(0.3365258 0.012586914 0.010047834)
(0.37683755 0.00849123 0.010578932)
(0.41899281 0.0036600148 0.011205325)
(0.46284353 -0.0018570638 0.011811716)
(0.5083931 -0.0080919652 0.012465486)
(0.55545835 -0.015048982 0.013136794)
(0.60415358 -0.022677325 0.013828778)
(0.65420612 -0.031066987 0.014512576)
(0.70563076 -0.040077549 0.015280808)
(0.75834917 -0.049783494 0.01600238)
(0.81230309 -0.060140533 0.016749145)
(0.8673437 -0.071108169 0.017559625)
(0.92346098 -0.08267304 0.018372523)
(0.98053533 -0.094829134 0.019219968)
(1.0384986 -0.10750695 0.020122249)
(1.0972985 -0.1207232 0.02104491)
(1.156841 -0.13441866 0.02201454)
(1.2170699 -0.14857469 0.023023604)
(1.2779105 -0.16317203 0.024072119)
(1.3393146 -0.17814068 0.025148424)
(1.4011686 -0.19352216 0.026282499)
(1.4635139 -0.20917146 0.027418837)
(1.5261763 -0.22518454 0.02860653)
(1.5891445 -0.24145349 0.029854126)
(1.6524184 -0.25787617 0.031035467)
(1.7157834 -0.27467966 0.032395059)
(1.7794507 -0.29145739 0.033573979)
(1.8430667 -0.3085748 0.034967473)
(1.9069339 -0.32574278 0.036165728)
(1.9706614 -0.34297202 0.037492095)
(2.0344886 -0.36040197 0.038743624)
(-0.0057299212 0.00060409516 0.00081806602)
(-0.0030919536 0.00089220813 -0.00038455302)
(0.0011647528 0.00193773 0.00013862205)
(0.0087469361 0.0025283414 0.00014708885)
(0.019196032 0.0027198174 0.00056248911)
(0.032084897 0.0032256352 0.00051346762)
(0.047445711 0.0026766221 0.0012819785)
(0.065314982 0.0024950895 0.0014252427)
(0.085712744 0.0013255454 0.0018977216)
(0.10835463 0.00018666358 0.0025318411)
(0.13338438 -0.0018584436 0.0029697013)
(0.16085464 -0.0041241153 0.0034448995)
(0.19039318 -0.0070311099 0.0039585292)
(0.22223585 -0.010595489 0.0045609153)
(0.25608663 -0.014532738 0.0050504551)
(0.2920821 -0.019284666 0.0057140617)
(0.32992525 -0.024450722 0.0062960066)
(0.36974707 -0.030426957 0.0069844618)
(0.41128867 -0.0369461 0.00767235)
(0.45465248 -0.044159344 0.0083713691)
(0.49965592 -0.052042808 0.0091000699)
(0.54637733 -0.060524341 0.0098247815)
(0.59445517 -0.069695569 0.010578486)
(0.64402149 -0.079432843 0.011393047)
(0.69495092 -0.089792365 0.012171488)
(0.74718754 -0.10073788 0.012998609)
(0.80059781 -0.1122425 0.013907377)
(0.85515451 -0.12432133 0.014825942)
(0.91078158 -0.1369109 0.015761152)
(0.96738525 -0.1500252 0.016773269)
(1.0249248 -0.16359931 0.017782751)
(1.0833046 -0.17765173 0.018856149)
(1.1424608 -0.19211248 0.019951214)
(1.2023334 -0.20698251 0.021096159)
(1.2628451 -0.22220844 0.022263832)
(1.3239214 -0.23779615 0.023489122)
(1.3855418 -0.25365442 0.024723332)
(1.4475675 -0.26982368 0.026010296)
(1.5099917 -0.28624561 0.027337929)
(1.5727551 -0.30282817 0.028634322)
(1.6358512 -0.31968286 0.03000334)
(1.6991035 -0.33665269 0.03136367)
(1.7626679 -0.35371882 0.032701086)
(1.8262175 -0.37099792 0.0341382)
(1.8900262 -0.38822803 0.035455332)
(1.9537136 -0.4055811 0.036900121)
(2.0175869 -0.42298546 0.038224909)
(-0.006330985 -0.0019341925 -0.0026302357)
(-0.0035316546 -0.0030040108 -0.0034922507)
(-2.5355144e-05 -0.00442046 -0.0034786938)
(0.008004129 -0.0061617432 -0.0037315729)
(0.017778945 -0.0080996137 -0.0036872492)
(0.030754782 -0.010121185 -0.003376332)
(0.045730801 -0.012859341 -0.0031060125)
(0.063709673 -0.015402584 -0.0029567139)
(0.08354827 -0.018885438 -0.0023342217)
(0.10614538 -0.022355555 -0.00202617)
(0.13080391 -0.02659866 -0.0016322717)
(0.15778365 -0.030834725 -0.0010340396)
(0.18687095 -0.036085039 -0.00039898317)
(0.21819052 -0.041393828 0.00020358612)
(0.25152464 -0.047554783 0.00092494087)
(0.28689052 -0.054099377 0.0016563987)
(0.32423406 -0.061278218 0.0023733708)
(0.36342303 -0.069003581 0.003153364)
(0.40447072 -0.077283284 0.0039308211)
(0.44721488 -0.086184482 0.0047478386)
(0.49169109 -0.09558564 0.0055908544)
(0.53761351 -0.1056253 0.0064943332)
(0.58513919 -0.11616799 0.0074147259)
(0.63409652 -0.12733565 0.0083277257)
(0.68448365 -0.13901711 0.0092820469)
(0.73612446 -0.15120777 0.010288549)
(0.78903452 -0.16393484 0.011303834)
(0.84309869 -0.17713012 0.012319248)
(0.89824439 -0.19078394 0.013396855)
(0.95439967 -0.20487092 0.014485316)
(1.0115018 -0.21937141 0.015619554)
(1.0694711 -0.23427029 0.016793342)
(1.1282439 -0.24952651 0.018000884)
(1.1877571 -0.26510928 0.019241025)
(1.2479199 -0.28102765 0.020533157)
(1.308716 -0.29718944 0.02183686)
(1.3700179 -0.31362267 0.0231852)
(1.4318248 -0.33030503 0.024576221)
(1.4940299 -0.34711649 0.025925962)
(1.5566856 -0.36414763 0.02737308)
(1.6195464 -0.38129752 0.028801353)
(1.6827145 -0.39854433 0.03026655)
(1.7460724 -0.41589629 0.031712363)
(1.8095583 -0.43332163 0.033227493)
(1.8732557 -0.45071654 0.034639288)
(1.9369469 -0.46819114 0.036173127)
(2.0007576 -0.4855861 0.037625898)
(-0.0053462628 -0.0043888808 -0.0066528035)
(-0.0019370638 -0.0078460752 -0.0075072512)
(0.0015150541 -0.011549911 -0.0086689624)
(0.0091320135 -0.015672325 -0.0088196636)
(0.018879201 -0.019841451 -0.0087378004)
(0.031327845 -0.02437855 -0.0084521428)
(0.046269724 -0.029361245 -0.0081914678)
(0.063588794 -0.034324758 -0.0076608959)
(0.083246141 -0.040073471 -0.0071603929)
(0.10526577 -0.045689633 -0.0066239027)
(0.12949739 -0.052127121 -0.0059676254)
(0.15593264 -0.05871724 -0.0053271237)
(0.18456231 -0.06592533 -0.0047101626)
(0.21530167 -0.073504921 -0.0039344366)
(0.24804522 -0.081576525 -0.0032232807)
(0.28285896 -0.090115144 -0.0023886149)
(0.31954618 -0.099164345 -0.0016171381)
(0.35817291 -0.10867183 -0.00071660143)
(0.39854556 -0.11875623 0.00014842683)
(0.44069188 -0.12926024 0.0010873952)
(0.48445035 -0.14038769 0.0020267999)
(0.52995673 -0.15180525 0.0030393726)
(0.57680501 -0.1638773 0.0040020336)
(0.62517998 -0.17653993 0.0050652961)
(0.67492712 -0.18951055 0.0061284672)
(0.72596362 -0.20299565 0.0071970109)
(0.77831329 -0.21684054 0.0083113892)
(0.83179768 -0.23111454 0.0094866565)
(0.88639732 -0.24574913 0.010666334)
(0.9420375 -0.2607887 0.011904681)
(0.99863663 -0.27616428 0.013170093)
(1.0561345 -0.29186239 0.014484213)
(1.114467 -0.30785886 0.015822542)
(1.1735522 -0.3241447 0.017211589)
(1.2333477 -0.34064616 0.018617555)
(1.2937605 -0.35739478 0.020068356)
(1.3547594 -0.37432627 0.021545911)
(1.4162464 -0.39139839 0.023037829)
(1.4782095 -0.40867585 0.02457795)
(1.5405265 -0.42599947 0.026110368)
(1.6032117 -0.44342049 0.027671106)
(1.6662 -0.46089575 0.029212594)
(1.7293686 -0.47846458 0.030804796)
(1.7927919 -0.49597008 0.032343243)
(1.8563174 -0.513495 0.033916064)
(1.9199679 -0.53098807 0.035513877)
(1.9837399 -0.54834342 0.037098459)
(-0.0032335067 -0.008074059 -0.0094482692)
(-0.00017086832 -0.01241653 -0.010970075)
(0.0029941391 -0.018604453 -0.012695457)
(0.010701386 -0.02462511 -0.01299269)
(0.019819865 -0.031089963 -0.013117257)
(0.032430564 -0.038116077 -0.012822635)
(0.046795556 -0.045332661 -0.012573909)
(0.063930034 -0.052781919 -0.012012045)
(0.083149554 -0.060837653 -0.011593696)
(0.1046947 -0.068658402 -0.010940835)
(0.12859722 -0.077650353 -0.010248584)
(0.15441649 -0.086095368 -0.00974826)
(0.18266521 -0.095749288 -0.0088010765)
(0.21269738 -0.1052293 -0.0081303092)
(0.24500308 -0.11543416 -0.0072152383)
(0.27911905 -0.1258876 -0.0063788705)
(0.3152738 -0.13684647 -0.005430731)
(0.35321638 -0.14822219 -0.0044779955)
(0.39297476 -0.16001687 -0.0034886528)
(0.43446548 -0.17226741 -0.0024579127)
(0.47762823 -0.18491236 -0.0014121187)
(0.5223185 -0.19801154 -0.00030033573)
(0.56867834 -0.21150609 0.00080158741)
(0.61638925 -0.22546751 0.0019697454)
(0.66551677 -0.23973483 0.003110805)
(0.71596427 -0.2544126 0.0043276954)
(0.76769004 -0.26943212 0.0056014721)
(0.82061918 -0.28478075 0.0068668201)
(0.87468371 -0.30046413 0.0081760066)
(0.9297938 -0.3164575 0.009532386)
(0.98589032 -0.33271364 0.010916324)
(1.0429185 -0.34923903 0.01234375)
(1.1007898 -0.36599698 0.013806446)
(1.1594641 -0.38295595 0.015300409)
(1.2188501 -0.40010711 0.016831554)
(1.2789115 -0.41741488 0.018389861)
(1.3395577 -0.43484836 0.01996896)
(1.4007688 -0.45242103 0.021592328)
(1.462429 -0.47004313 0.023194483)
(1.5245254 -0.48775247 0.024845985)
(1.5869884 -0.50547375 0.026486638)
(1.6497702 -0.52324755 0.028155996)
(1.7127868 -0.5409889 0.029805426)
(1.7760558 -0.5586849 0.031439189)
(1.8394148 -0.57636536 0.033105537)
(1.9029781 -0.59392768 0.034712747)
(1.966583 -0.61134422 0.036381442)
(0 0 0)
(0 0 0)
(0 0 0)
(0 0 0)
(0 0 0)
(0 0 0)
(0 0 0)
(0 0 0)
(0 0 0)
(0 0 0)
(0 0 0)
(0 0 0)
(0 0 0)
(0 0 0)
(0 0 0)
(0 0 0)
(0 0 0)
(0 0 0)
(0 0 0)
(0 0 0)
(0 0 0)
(0 0 0)
(0 0 0)
(0 0 0)
(0 0 0)
(0 0 0)
(0 0 0)
(0 0 0)
(0 0 0)
(0 0 0)
(0 0 0)
(0 0 0)
(0 0 0)
(0 0 0)
(0 0 0)
(0 0 0)
(0 0 0)
(0 0 0)
(0 0 0)
(0 0 0)
(0 0 0)
(0 0 0)
(0 0 0)
(0 0 0)
(0 0 0)
(0 0 0)
(0 0 0)
(0 0 0)
(0 0 0)
(0.0038977887 -0.0029038069 -0.0072247945)
(0.0050711552 -0.0038546961 -0.0051419744)
(0.0062987051 -0.0040917289 -0.0027325837)
(0.0067598456 -0.0043288174 -0.00079613162)
(0.006625737 -0.0040305849 0.0011736203)
(0.0062380004 -0.0042853402 0.003338364)
(0.0050165284 -0.0026849785 0.0055628433)
(0.0075706638 -0.016168864 -0.011941106)
(0.0099707928 -0.01820487 -0.0068171547)
(0.011090986 -0.017115469 -0.0033098453)
(0.011448183 -0.016646865 -0.00028496363)
(0.011545891 -0.017737939 0.0026735557)
(0.01024655 -0.017519385 0.0062101379)
(0.008841641 -0.017387755 0.010671408)
(0.010524278 -0.023028274 -0.01315756)
(0.013752723 -0.021979419 -0.0095485848)
(0.015865087 -0.02326881 -0.0043294641)
(0.016178456 -0.023292742 -0.00084306678)
(0.016113703 -0.022792304 0.0038000375)
(0.01456299 -0.023119396 0.0070410772)
(0.012419076 -0.024372609 0.012869415)
(0.018687575 -0.034441463 -0.013334609)
(0.021315779 -0.035357197 -0.0093618131)
(0.023114054 -0.035091486 -0.0044887292)
(0.023848653 -0.035208869 -0.00064672829)
(0.023574246 -0.035406351 0.0038243058)
(0.02205613 -0.036230847 0.0085736135)
(0.019336847 -0.035422425 0.012814932)
(0.027467385 -0.043616587 -0.013879762)
(0.030766666 -0.043673997 -0.0098075022)
(0.033104548 -0.044306083 -0.0048471345)
(0.033656238 -0.044279396 -0.00029414624)
(0.033502896 -0.044745805 0.0043320041)
(0.03192619 -0.044806121 0.0085860145)
(0.029418756 -0.045338105 0.013857744)
(0.039822974 -0.054001246 -0.013358071)
(0.042572658 -0.054211773 -0.0093996762)
(0.044580662 -0.054301851 -0.0044965243)
(0.045271151 -0.054950224 -0.0005565239)
(0.044985614 -0.054770049 0.0045282051)
(0.043289654 -0.05518611 0.00895884)
(0.040680365 -0.055032705 0.013399035)
(0.053779619 -0.063478635 -0.013245212)
(0.05679725 -0.064035494 -0.0089296373)
(0.058935024 -0.065050683 -0.0044436895)
(0.059728598 -0.065267009 -3.1308214e-05)
(0.059506632 -0.065873074 0.0047206295)
(0.05809885 -0.066463401 0.0089567086)
(0.055533129 -0.066292042 0.013939495)
(0.070384711 -0.074083926 -0.012641459)
(0.073333881 -0.074897471 -0.0087962325)
(0.075310742 -0.075177872 -0.0039722789)
(0.076009358 -0.075702141 0.00024753336)
(0.075606958 -0.075722299 0.0046833632)
(0.074224359 -0.075765558 0.0092135513)
(0.071510182 -0.075652757 0.013449006)
(0.089236131 -0.084457526 -0.01228027)
(0.092034918 -0.085034655 -0.007938674)
(0.094014938 -0.086114042 -0.0036709127)
(0.094735626 -0.08666868 0.00048529103)
(0.094568425 -0.08746037 0.0050308703)
(0.093183971 -0.087615751 0.0093405874)
(0.090752335 -0.087748974 0.014039188)
(0.11005817 -0.095029682 -0.011576823)
(0.11294151 -0.096184118 -0.0076930461)
(0.11483512 -0.096726026 -0.0034029058)
(0.11575237 -0.097677172 0.0010512512)
(0.11527659 -0.097620655 0.0052980587)
(0.11396033 -0.097717529 0.0095052201)
(0.11147025 -0.097581404 0.013704537)
(0.13339211 -0.10621329 -0.010960114)
(0.13605933 -0.10714117 -0.0069854236)
(0.13799631 -0.1081766 -0.0025259192)
(0.13854417 -0.10851442 0.0012868195)
(0.13840472 -0.10924211 0.005649962)
(0.13704755 -0.10954433 0.0096550012)
(0.13463575 -0.10967445 0.014321804)
(0.15855149 -0.11717537 -0.01041961)
(0.1613501 -0.11847225 -0.0062310791)
(0.16300375 -0.11939564 -0.0024873239)
(0.16393407 -0.12043309 0.0017915443)
(0.16359765 -0.12080906 0.0060149199)
(0.1621407 -0.12068686 0.0098795771)
(0.1601139 -0.12088162 0.014216878)
(0.18610531 -0.12914643 -0.0094612403)
(0.1885013 -0.13015412 -0.0056207467)
(0.19034987 -0.13133738 -0.0016567578)
(0.19101732 -0.13181654 0.0023264078)
(0.19072965 -0.13223545 0.0063844162)
(0.18943102 -0.132818 0.010159325)
(0.18725031 -0.13251892 0.014440421)
(0.21537077 -0.14071256 -0.0088542233)
(0.21786195 -0.14206996 -0.0049587681)
(0.21971222 -0.14326885 -0.0012632944)
(0.22031294 -0.14403079 0.0026981705)
(0.22017276 -0.14489773 0.0067183466)
(0.21883015 -0.14484471 0.010327195)
(0.2169048 -0.1449405 0.014609154)
(0.24681166 -0.15326337 -0.0079608396)
(0.24925062 -0.15453102 -0.0041547899)
(0.25089525 -0.15557294 -0.00058256254)
(0.25158177 -0.15643066 0.0033915908)
(0.25135479 -0.15681713 0.0070582434)
(0.25014167 -0.15711613 0.010784668)
(0.24816709 -0.15705986 0.014771644)
(0.28021019 -0.16567854 -0.0071155806)
(0.28248066 -0.16695457 -0.0034639394)
(0.28421588 -0.16834377 6.4528763e-05)
(0.28481299 -0.16912626 0.0037247833)
(0.28465816 -0.16987601 0.0075469404)
(0.28344935 -0.17013767 0.010967962)
(0.28159638 -0.17008435 0.014982051)
(0.3153886 -0.17863682 -0.006215289)
(0.31768979 -0.1801061 -0.0025918347)
(0.31928538 -0.18129835 0.00068114184)
(0.31988467 -0.18210686 0.0044686521)
(0.31974353 -0.18279881 0.007938734)
(0.31860295 -0.18296736 0.011380811)
(0.31681439 -0.18304052 0.01521051)
(0.3525576 -0.19192223 -0.0052265445)
(0.35469573 -0.19333541 -0.001876117)
(0.35630039 -0.19465671 0.0014784026)
(0.35685275 -0.19560486 0.0049455901)
(0.35672449 -0.19628569 0.0083928919)
(0.35561641 -0.1966166 0.011720769)
(0.35389076 -0.19657821 0.015417002)
(0.39140007 -0.20553267 -0.0042994382)
(0.39348724 -0.20698685 -0.00093749616)
(0.39502813 -0.20836017 0.0021831681)
(0.39552518 -0.20919849 0.0056066651)
(0.39545445 -0.20998189 0.0089108784)
(0.39437085 -0.21021511 0.01211659)
(0.3927543 -0.21035601 0.015656577)
(0.43201283 -0.21947535 -0.0032248269)
(0.43402839 -0.2210139 -8.2676256e-05)
(0.43548184 -0.22235546 0.0029608765)
(0.43598679 -0.22337495 0.0062415941)
(0.43590394 -0.2240926 0.0093876517)
(0.43487101 -0.22449271 0.012503446)
(0.43332864 -0.22452188 0.015898899)
(0.47429432 -0.23381068 -0.0022054752)
(0.47618341 -0.23530388 0.00084017273)
(0.47760274 -0.23675868 0.003768988)
(0.47806681 -0.23767749 0.0068975279)
(0.47800857 -0.238514 0.0099366407)
(0.47702472 -0.23883158 0.012925053)
(0.47556098 -0.23897824 0.016169654)
(0.5181486 -0.24841623 -0.0011071064)
(0.51997608 -0.25002132 0.0018012914)
(0.52132112 -0.2514139 0.0045928288)
(0.52176171 -0.25247347 0.0075874579)
(0.52171406 -0.25324736 0.010492382)
(0.52076098 -0.25368923 0.013353037)
(0.51938199 -0.25382471 0.016462683)
(0.56355912 -0.26343332 2.3765724e-05)
(0.56528854 -0.2649767 0.0027916393)
(0.56656134 -0.26645488 0.0054394546)
(0.56698988 -0.26746705 0.0082962902)
(0.56693262 -0.26835728 0.011068648)
(0.56604669 -0.2687937 0.013793661)
(0.56474842 -0.26897514 0.016764934)
(0.61044918 -0.27866351 0.0011945295)
(0.61208676 -0.28033956 0.003795201)
(0.61329171 -0.28174773 0.0063046248)
(0.61368429 -0.28289641 0.009043367)
(0.61365493 -0.2837182 0.011656094)
(0.61281259 -0.28419607 0.014273193)
(0.61156903 -0.28441243 0.017102643)
(0.6587054 -0.29428334 0.0023291453)
(0.66031966 -0.29593586 0.0048500499)
(0.66139089 -0.29734466 0.0071974619)
(0.66182315 -0.29852661 0.0098290232)
(0.66173658 -0.29936959 0.012262488)
(0.66093705 -0.29999265 0.014778223)
(0.65977745 -0.30027681 0.017403076)
(0.70831658 -0.31015207 0.0035535454)
(0.70987733 -0.31180805 0.0058967321)
(0.71082401 -0.31327933 0.0081234865)
(0.71126919 -0.3144799 0.010674366)
(0.71111749 -0.3153312 0.012861901)
(0.71048462 -0.31599527 0.015256192)
(0.70939577 -0.31628918 0.017670538)
(0.75922636 -0.32631761 0.004791678)
(0.76067445 -0.3279758 0.0069137128)
(0.76158866 -0.3295034 0.009182839)
(0.7620259 -0.33069531 0.011328994)
(0.76195463 -0.33162591 0.013634011)
(0.76127592 -0.33233304 0.015868775)
(0.76018617 -0.33267835 0.018184321)
(0.81141442 -0.34273034 0.006056279)
(0.81268256 -0.34440241 0.0080901171)
(0.8136105 -0.34596055 0.010189943)
(0.81393559 -0.34714254 0.01218398)
(0.81388105 -0.34813907 0.014422606)
(0.81324393 -0.34881157 0.016408503)
(0.81222356 -0.34932634 0.018662457)
(0.86469178 -0.3593563 0.0073440437)
(0.86591256 -0.36109873 0.0093076839)
(0.86669225 -0.3626334 0.011165689)
(0.86705139 -0.36386277 0.013163)
(0.86693223 -0.36489834 0.015148576)
(0.86636136 -0.36566213 0.017064305)
(0.86538452 -0.36619942 0.019177913)
(0.91909587 -0.37626056 0.0087348061)
(0.92016093 -0.37796523 0.010495928)
(0.92092665 -0.37954535 0.012302899)
(0.92121265 -0.38079797 0.01409099)
(0.92110543 -0.38189751 0.015981593)
(0.92057443 -0.38267174 0.017748422)
(0.91964641 -0.383301 0.019733272)
(0.97447431 -0.39332962 0.010095968)
(0.97547467 -0.395081 0.011776611)
(0.97614924 -0.39665646 0.013396464)
(0.97640499 -0.39794443 0.015104943)