/*--------------------------------*- C++ -*----------------------------------*\
  =========                 |
  \\      /  F ield         | OpenFOAM: The Open Source CFD Toolbox
   \\    /   O peration     | Website:  https://openfoam.org
    \\  /    A nd           | Version:  6
     \\/     M anipulation  |
\*---------------------------------------------------------------------------*/
FoamFile
{
    version     2.0;
    format      ascii;
    class       pointScalarField;
    location    "1.92";
    object      p;
}
// * * * * * * * * * * * * * * * * * * * * * * * * * * * * * * * * * * * * * //

dimensions      [1 -1 -2 0 0 0 0];

internalField   nonuniform List<scalar> 
625
(
22857.049
-216405.1
534.27961
1256.667
268729.74
-8691.8176
702.43591
-71.639379
22472.541
-77777.197
-67735.201
262.84966
226.81229
507.15489
11894.414
11928.726
18577.169
15272.393
20835.445
16404.473
20555.044
18693.946
19898.387
18408.93
18435.959
17269.031
15955.668
14950
13158.143
11637.196
10413.608
7939.2318
6813.8401
5543.2728
3763.56
2410.1832
1166.4904
-63827.644
-65094.323
-70538.156
-67581.367
-67097.048
-68109.189
-65434.821
-63480.36
-62932.791
-59672.801
-55976.601
-53002.16
-47862.33
-43129.198
-37592.148
-31700.05
-26127.16
-19883.329
-14556.682
-9280.7489
-5030.7635
-1702.8835
-44.574954
204964.1
123484.94
53279.493
-7555.6938
-14887.693
-16405.218
-8863.6164
-11455.65
-12122.944
-3373.8701
-8265.5049
-12842.192
-4859.4514
-10474.681
-4253.7551
-7167.1964
-3144.3833
-3639.9287
-1099.651
-1099.465
534.04035
861.29853
1484.3478
1445.6265
1047.2584
-28.597035
630.98893
19.391149
-814.54742
1672.5482
4509.7339
9680.2487
15953.059
22837.756
30135.283
36795.924
45171.953
50945.751
58466.206
63649.332
70195.685
71844.264
78149.789
81885.229
82943.149
82976.099
85892.569
87511.762
85673.076
88245.31
83470.799
75445.028
38455.845
104823.84
117380.62
-159204.39
-97342.292
-88545.974
833.63104
309.83353
832.93848
258.70737
-641.18493
-659.5342
46.767325
74.849278
1364.4919
3894.9591
1358.8303
4494.9125
4878.5803
5551.3767
3252.9824
5795.4296
4240.0604
4777.7717
3817.1712
4385.2288
3213.0578
3788.6553
3003.7914
2901.8122
3290.5244
3034.3447
2788.5971
2041.5509
1431.0219
-30292.065
-36362.36
-32187.026
-30575.811
-30825.632
-29031.39
-28686.692
-28294.915
-26860.336
-24515.218
-24142.375
-21421.141
-19699.751
-16957.926
-14745.292
-11783.646
-9373.6315
-6418.8754
-4199.7625
-1915.5569
52.479518
574.54988
1602.9506
-55303.347
-54256.683
-53040.047
-53126.539
-51666.466
-51216.21
-50799.155
-48983.487
-47150.892
-44134.013
-42769.719
-38337.848
-35563.799
-31004.356
-27230.607
-22535.504
-18021.155
-13768.847
-9485.7709
-5876.8581
-3035.9543
-525.26409
758.23876
35575.953
71562.915
84714.457
-37667.165
-442.20473
20540.711
-40100.506
-19002.287
19792.457
-74017.146
-52240.6
-39414.483
-70980.379
-44917.747
-29780.888
-53633.905
-34299.668
-26909.634
-59735.484
-38610.662
-25789.687
-56110.508
-34457.309
-24987.908
-55069.801
-37281.067
-25330.44
-55650.098
-36730.028
-24849.17
-54447.004
-32837.805
-23315.675
-52040.514
-33425.072
-23688.32
-49833.762
-30811.978
-22179.606
-46977.803
-30108.875
-20757.729
-43955.663
-26505.54
-18494.48
-39631.946
-24588.197
-16641.178
-35655.767
-21053.593
-14335.832
-30675.082
-18450.198
-11638.501
-26094.723
-14541.162
-8982.1629
-20851.497
-11712.081
-6613.4683
-16069.726
-8149.9106
-3997.9843
-11330.353
-5521.9116
-2043.4664
-7329.9947
-2894.5346
-17.964273
-3769.5062
-958.62246
1398.5135
-1020.9511
708.41794
2166.4763
306.31498
546.49675
1287.2224
-123.81077
-855.74848
-1470.1849
-156.80175
-532.27851
-1424.5999
1319.6454
307.18095
86.887224
38649.979
49650.808
62657.414
35499.557
44844.717
67178.577
34611.262
50324.204
71927.501
37171.06
47384.305
72070.739
34076.074
48217.453
70262.885
37304.87
48223.584
72086.27
37630.999
48558.577
70085.826
37622.857
47145.361
69472.224
33164.642
46010.808
66159.304
36282.011
46092.751
66276.188
33664.735
42172.216
61171.725
31394.135
40735.198
58603.083
29845.749
37208.773
53839.009
26765.078
34463.666
49532.471
24328.37
30241.549
43402.731
21243.438
26638.794
38254.691
18140.211
22162.902
31973.728
14742.29
18172.851
25906.628
11883.365
13599.114
19919.267
8399.3011
9268.236
14361.087
5414.258
5264.7649
9252.9694
2309.978
2264.9975
4633.1783
626.38648
812.02775
1294.0076
71501.101
68282.791
59344.104
59344.813
60644.474
57977.272
58258.586
58034.291
53978.551
52444.356
50948.783
47403.869
43894.294
39599.448
36146.158
30909.092
26515.159
21749.949
16996.394
12370.805
8394.3992
4612.9517
1855.643
43728.102
46549.123
33874.717
42378.12
38187.676
40221.554
37890.077
38863.457
35351.977
38039.049
33156.368
34138.164
29615.003
29510.074
25166.265
23049.77
19369.423
16280.936
12669.942
9282.2904
6162.1048
3409.2208
1369.6162
25518.471
29375.363
17419.895
19337.078
16604.379
15778.031
12049.172
14388.733
14443.195
12627.277
13005.048
11921.375
12035.558
10683.452
9980.8428
8857.2274
7840.1248
6455.4879
5234.5896
3634.3172
2653.3209
1719.8046
421.45497
15148.015
45428.867
59719.331
13453.954
43176.754
57516.173
12913.326
33541.906
52504.69
11962.89
36383.409
51687.75
12847.188
34370.726
52326.351
13814.017
34939.385
52509.632
11951.17
32238.308
50083.815
9163.1564
32694.671
49299.02
14156.738
33132.89
50475.436
10279.918
28929.713
44783.485
9605.3266
28466.138
44384.822
9666.8891
27182.093
41163.718
8862.7413
24667.27
38432.85
7880.0959
22114.239
34125.74
7298.5815
19915.839
30973.142
6562.3269
16798.995
26743.187
5331.9112
14528.075
22568.527
5201.5533
11620.85
18274.59
4016.0691
8880.5348
14381.853
2825.0264
7005.0982
10562.739
1995.2693
5639.9805
6900.2416
1907.2201
3479.8956
4308.4764
1254.6514
2038.1757
2168.3597
-24682.772
4925.89
25578.744
-21963.688
7572.3352
15431.734
-12750.045
4301.8461
20130.791
-17947.686
5961.4413
15275.678
-12371.133
5167.6391
21401.519
-13766.415
5606.0475
17440.6
-15056.569
3905.7124
19212.221
-12922.648
9264.9831
20061.158
-11277.797
4878.8436
16916.378
-12924.232
7146.9211
18927.915
-10215.048
6380.1678
18221.735
-10305.235
7434.6499
17281.117
-7974.3133
6156.9849
16717.875
-7760.1252
7170.2205
16041.841
-5324.958
6135.7697
15129.539
-4836.4274
6451.2687
13944.784
-2684.6932
5812.2363
12561.235
-1674.9126
5439.6081
11202.197
-485.73058
4607.0911
9396.3212
442.11418
4520.6295
7910.0019
735.43813
3417.9137
5186.5401
1498.0168
2025.7983
3353.9276
1411.3361
1806.8679
1979.7832
-34190.375
-12136.975
3119.7088
-33985.077
-15215.132
-1267.2271
-33564.262
-23604.566
-877.16197
-35861.608
-18481.625
58.855199
-35282.848
-20849.917
-1339.3928
-35656.668
-21417.18
-1274.5136
-34636.922
-19327.864
1280.9852
-32880.892
-20195.213
-4976.7297
-32609.133
-20795.425
-197.77492
-31580.728
-17851.865
-1956.7374
-28814.769
-17248.018
-1224.3419
-27002.441
-15910.381
-1606.9971
-24670.279
-14035.816
-548.98509
-21755.985
-12222.407
-397.25654
-19098.602
-10134.831
-82.183066
-15614.706
-8185.2078
348.10998
-12834.228
-6143.5674
599.38484
-9757.1973
-4299.2791
728.00896
-6909.4227
-2440.6353
1089.5702
-4404.8484
-842.3282
734.86373
-2352.8505
414.21172
482.80369
-793.48601
735.81863
539.50754
6.0869835
1320.5799
1255.8006
)
;

boundaryField
{
    free
    {
        type            calculated;
    }
    fixed
    {
        type            calculated;
    }
    freeTop
    {
        type            calculated;
    }
}


// ************************************************************************* //
