/*--------------------------------*- C++ -*----------------------------------*\
  =========                 |
  \\      /  F ield         | OpenFOAM: The Open Source CFD Toolbox
   \\    /   O peration     | Website:  https://openfoam.org
    \\  /    A nd           | Version:  6
     \\/     M anipulation  |
\*---------------------------------------------------------------------------*/
FoamFile
{
    version     2.0;
    format      ascii;
    class       pointScalarField;
    location    "0.18";
    object      p;
}
// * * * * * * * * * * * * * * * * * * * * * * * * * * * * * * * * * * * * * //

dimensions      [1 -1 -2 0 0 0 0];

internalField   nonuniform List<scalar> 
28033
(
-68882.594
106640.79
6345.89
1835.2103
-99333.219
157936.65
2834.529
-170.17908
-30665.858
-22454.057
-13193.843
-9359.3352
-4620.1715
-1726.5039
-512.00638
1683.5892
3665.8708
5310.1989
7396.8427
11571.519
13052.487
28746.594
15166.225
-15245.946
-9821.9919
-10650.214
-7287.9698
-6445.5839
-3997.5959
-1682.3044
973.01311
3217.582
6051.5802
8491.9693
10065.763
11734.637
12812.155
11084.631
-11051.159
-10118.421
-5200.1501
-3140.6918
445.68333
2614.4851
5583.334
8148.0342
11285.327
13824.902
16715.139
19754.119
22651.725
25618.69
28483.05
31424.029
34449.765
37444.06
40171.727
43269.563
46068.476
48877.472
51804.187
54555.326
57104.873
59877.433
62626.981
64974.428
67559.864
69974.278
72397.734
74775.029
77341.631
79781.058
82023.04
84341.612
86775.167
89223.682
91257.405
93684.123
95697.65
97583.757
99431.877
101319.83
102849.17
104406.49
105674.23
106879.97
107813.5
108670
109276.37
109777.8
110077.75
110249.69
110254.99
110123.08
109859.8
109451.9
108907.74
108266.26
107486.27
106580.33
105527.02
104512.03
103259.54
101998.28
100902.9
99038.298
96836.733
94985.046
92697.168
90501.037
87835.721
85208.354
82063.774
79239.105
75632.106
72694.712
68782.339
65779.254
61856.389
58752.865
54766.919
51199.099
47359.122
43577.217
39893.312
36134.32
31339.62
27795.096
24254.241
18139.009
17886.522
15024.752
11741.179
20974.959
10587.267
8698.1427
3209.4684
1737.2523
-1690.2647
-3400.7586
-6972.7834
-9001.9813
-12112.156
-14697.036
-17663.645
-20489.775
-23499.618
-26290.488
-29301.276
-32033.113
-35118.574
-37814.245
-40713.249
-43485.987
-46325.938
-48918.926
-51830.557
-54438.506
-56863.773
-59746.087
-61870.91
-64735.275
-66755.153
-69521.503
-71627.235
-74097.514
-76431.829
-78799.024
-81217.956
-83143.385
-85623.155
-87522.226
-89775.185
-91668.672
-93665.242
-95440.322
-97194.701
-98770.875
-100262.94
-101578.38
-102764.2
-103782.27
-104634.84
-105324.65
-105841.45
-106201.74
-106397.95
-106445.54
-106351.74
-106118.1
-105755.76
-105273.87
-104667.75
-103945.52
-103109.18
-102159.24
-101069.74
-99873.649
-98511.796
-97104.683
-95489.6
-93929.007
-91631.877
-89810.252
-87361.084
-85042.957
-82349.66
-79640.118
-76695.507
-73623.299
-70459.201
-67158.761
-63801.762
-60389.832
-56891.515
-53258.443
-49719.467
-45915.555
-42119.938
-38228.801
-34308.062
-30013.943
-26151.617
-22113.019
-17729.341
-14260.775
-11749.053
-8098.8417
-55128.805
-44212.466
-13848.369
-18785.991
-4052.0289
-678.56082
2323.211
7166.3145
8472.6214
15228.096
17470.421
26161.826
35570.872
55010.6
60125.25
30094.006
16321.838
3970.0966
4963.331
3098.2678
-2250.9882
-4134.6941
-6946.6467
-9386.4029
-12479.881
-15421.879
-17577.779
-21593.895
-23357.563
-27798.901
-30191.388
-32282.066
-36929.383
-38392.171
-43031.929
-45265.56
-47098.699
-51187.608
-53910.461
-56770.196
-59909.731
-60672.808
-65406.407
-65838.415
-70062.205
-72352.473
-74779.941
-77361.69
-79782.314
-82764.165
-82908.287
-87186.537
-89348.815
-91555.964
-93825.721
-95981.626
-98036.232
-99986.879
-101816.97
-103521.35
-105060.91
-106442.83
-107646.68
-108678.71
-109534.86
-110218.76
-110728.36
-111070.74
-111251.49
-111273.75
-111150.41
-110884.52
-110482.36
-109950.84
-109293.76
-108508.97
-107610.14
-106577.32
-105430.2
-104152.68
-102698.14
-101295.17
-100056.84
-95744.653
-95500.803
-93316.021
-90741.376
-88138.099
-85269.722
-82230.239
-79021.53
-75686.62
-72277.831
-68770.788
-65211.533
-61591.501
-57976.383
-54258.348
-50569.969
-46735.589
-42865.516
-38823.887
-34774.651
-30523.4
-26299.332
-22176.679
-17954.311
-15037.516
-11595.92
-9976.1982
14187.367
14878.916
11512.171
12502.148
7448.5026
7819.7581
2560.6832
959.96862
-2307.9555
-5676.841
-5118.395
-10037.002
-8863.1721
-14543.113
-11204.407
21103.964
16888.782
17794.633
21400.786
24678.787
28913.346
33011.193
37224.521
41188.898
45315.312
49168.398
52800.877
56637.898
60359.894
64088.101
67645.066
71277.543
74707.389
78137.908
81396.871
84521.959
87486.279
90263.663
92749.822
95040.367
97042.983
97765.366
102346.3
102308.52
104225.8
105536.05
106821.79
107884.2
108914.63
109787.68
110562.88
111230.82
111765.42
112186.36
112476.67
112627.21
112630.62
112489.85
112176.32
111704.15
111050.73
110223.34
109209.63
108026.32
106666.02
105097.1
103493.82
101506.18
99762.188
97584.587
95426.998
92977.685
90299.167
89290.665
85942.339
83251.618
82448.546
78840.871
76681.753
73750.184
72464.797
68294.809
67285.54
63885.906
61580.107
58569.187
55694.368
53593.373
50003.372
47313.485
44689.625
41237.334
38805.488
35186.987
32508.557
29611.212
26507.955
23406.325
20742.333
17276.147
14580.057
12018.018
8657.5539
6243.7708
3886.8757
1100.62
-3284.5417
-4156.217
-6635.856
-15788.852
-62086.696
-67911.64
-72430.833
-75897.574
-74936.742
-78094.376
-75550.473
-78188.144
-76086.036
-74850.948
-76910.726
-72072.455
-72744.767
-68354.842
-57134.957
104093.29
141705.22
138250.07
145468.18
140997.46
131244.23
148054.93
158659.94
149432.22
151370.45
149290.35
146612.45
141318.48
139252.68
117852.33
1470.546
1709.3562
2847.665
3801.5119
5288.1984
6284.9435
6707.75
6899.7883
6839.3203
6310.2438
5615.3163
4354.2833
3362.2773
2515.8978
2372.938
-1277.3745
1365.9028
277.17881
-906.79231
-2161.4429
-2630.9202
-3389.066
-3379.6445
-3145.9673
-2748.1066
-1497.1556
-423.84908
238.73795
4341.1799
-909.5938
-5745.2264
-7210.8727
-3468.4478
-1054.6205
1016.1439
3424.5915
5681.3651
8241.3147
10475.081
13108.793
15845.126
18329.311
21028.752
23668.024
26452.253
29097.173
31775.549
34380.423
37193.998
39642.918
42284.585
44877.069
47351.252
49758.312
52180.877
54661.974
56851.727
59176.125
61442.19
63733.164
65819.756
67935.766
70178.648
72095.223
74326.841
76378.559
78375.431
80224.674
82297.682
84165.552
86202.88
87848.272
89488.323
91011.03
92362.482
93689.527
94770.831
95799.826
96610.979
97324.431
97857.813
98268.077
98525.803
98654.457
98644.82
98514.635
98258.753
97874.901
97391.873
96797.31
96093.028
95238.559
94375.589
93404.392
92075.448
90871.251
89133.489
87598.425
86046.596
84151.173
82208.926
79986.998
77548.145
75208.45
72400.651
69781.35
66773.369
64043.815
60796.488
58105.986
54854.783
51929.917
48964.117
46173.898
42856.425
39568.786
36216.998
32482.376
29102.005
26034.398
21487.553
18518.014
15688.733
8537.8835
2654.5087
-4493.489
-5042.8863
-2417.5032
-691.04332
706.07868
2842.4933
5025.6906
6835.3291
9029.9431
11233.925
13319.271
15509.968
17809.069
20091.332
22335.915
24590.093
26808.752
29171.232
31261.1
33491.111
35692.48
37696.491
39822.147
41880.042
43964.912
45811.45
47845.911
49836.062
51644.12
53538.386
55368.833
57237.771
58970.954
60778.45
62657.735
64241.671
65968.969
67696.983
69319.456
70898.041
72398.755
73940.412
75085.46
76469.522
77584.036
78707.324
79615.114
80505.9
81188.116
81831.099
82291.264
82680.057
82925.666
83072.017
83103.922
83027.731
82845.161
82566.095
82183.476
81717.617
81140.095
80472.223
79813.19
78961.491
78019.443
77790.459
77015.233
76044.172
75044.576
73523.241
71895.616
70250.356
68180.486
66240.056
63638.322
61779.593
58793.978
56912.665
53679.432
51786.708
48514.513
46116.816
43298.493
39860.241
36909.546
33891.027
30452.025
27784.843
24606.689
21085.467
17864.437
14756.084
10205.241
5083.2761
-2365.3939
-1705.3351
-3068.0012
-263.24213
95.508015
1467.0736
3361.4869
4689.2956
6313.5393
8260.1469
9921.9041
11778.364
13665.811
15565.855
17391.121
19344.804
21161.042
23108.934
24879.204
26776.782
28593.485
30381.803
32170.335
33912.302
35661.179
37234.355
38946.236
40535.37
42063.71
43614.168
45147.797
46657.094
48096.379
49620.715
51096.918
52566.264
54006.713
55557.238
56920.022
58300.788
59529.504
60769.28
61891.799
63208.215
64190.652
65212.284
66063.308
66860.588
67536.73
68126.078
68613.124
68991.688
69288.998
69471.674
69573.698
69573.909
69482.417
69308.682
69043.65
68695.138
68272.711
67764.893
67182.663
66570.817
65698.107
65055.01
64484.723
64003.103
62767.114
62086.01
61056.743
59778.997
58113.942
56264.878
54502.18
52663.808
50653.949
48776.039
46627.331
44712.518
42524.183
40368.628
38428.987
35749.006
33804.656
31560.945
28909.9
26052.119
23880.373
20950.111
18360.106
15717.493
11686.456
8841.4713
2250.8599
-1113.2166
-623.96245
-1980.3026
190.06229
-36.73382
1575.2463
2512.9943
3821.5741
5122.7543
6557.2382
7818.8167
9309.0567
10742.856
12210.444
13694.235
15189.647
16693.565
18155.464
19667.448
21110.099
22514.079
23929.565
25264.335
26656.824
27917.06
29282.449
30533.574
31776.825
33065.642
34254.323
35455.697
36637.845
37796.363
38977.587
40037.607
41303.892
42252.875
43354.948
44258.314
45196.479
46175.727
47286.709
48235.891
49000.38
49763.361
50514.985
51167.591
51772.471
52302.846
52756.713
53138.555
53446.2
53683.198
53845.395
53939.286
53957.791
53912.268
53796.552
53613.226
53369.267
53062.533
52713.851
52292.101
51807.268
51316.852
50770.068
50080.518
49681.937
48520.246
47427.08
46503.289
45595.024
44305.504
43443.82
42202.856
40678.346
39258.791
37724.127
36283.716
34637.454
33124.078
31467.94
29892.669
28007.749
26102.38
24125.354
22779.867
20704.075
18648.814
16482.866
14399.836
11576.835
9116.6429
5814.6662
1663.681
-2872.9271
-189.18052
-882.39558
302.93667
925.9887
1339.027
2448.7123
3347.205
4146.7458
5331.7378
6299.9312
7383.0652
8521.6149
9611.7983
10686.852
11879.526
12916.455
14062.686
15123.604
16214.845
17287.953
18369.617
19428.637
20427.54
21463.279
22422.08
23364.7
24306.171
25188.533
26067.214
26943.095
27808.887
28649.774
29461.609
30351.94
31190.044
31956.669
33338.348
34516.158
35339.215
36802.029
37404.024
38140.329
38967.454
39648.787
40294.29
40815.5
41325.49
41730.188
42103.371
42400.13
42645.144
42831.05
42960.581
43029.554
43048.5
43007.507
42911.847
42762.999
42562.163
42306.181
42034.62
41616.397
41297.683
40841.712
40214.287
39862.141
39202.25
38439.41
37639.524
36769.594
35894.247
34482.115
33051.804
31818.256
30459.327
29298.656
28298.633
27110.617
26032.43
24948.291
23632.411
22665.777
21169.069
20237.895
18652.959
17762.979
15798.361
14626.176
12691.359
10922.175
9043.4212
6942.8161
4895.947
1024.8904
-1883.6084
514.87513
-407.12411
773.51758
572.65256
903.76023
1817.598
2144.7472
2701.6789
3644.8083
4041.9777
4881.9355
5549.2308
6244.6151
6963.8791
7712.0356
8389.6475
9127.6686
9835.6742
10535.949
11203.539
11890.434
12505.718
13184.17
13803.828
14437.096
15045.114
15636.598
16217.587
16770.779
17300.165
17839.275
18325.825
18880.594
19379.023
19861.356
20444.851
21235.099
21835.309
23350.244
24063.437
25049.278
25481.485
25939.161
26371.01
26765.986
27098.215
27408.371
27669.93
27900.531
28089.538
28245.883
28366.002
28450.002
28498.743
28512.069
28484.46
28423.738
28324.239
28192.165
28026.542
27820.287
27630.243
27358.067
27054.441
26874.419
26360.618
26164.208
25685.432
25178.802
24689.221
23932.821
23097.932
22545.376
21095.816
19952.222
19255.194
18536.708
17805.91
17127.359
16490.865
15518.621
15156.962
13868.299
13585.984
12129.359
11864.593
10263.556
10020.935
8439.0798
8023.3698
6690.9968
5268.7472
3761.7871
940.42605
-478.31228
10.174681
321.49257
609.50104
486.92465
905.55279
1185.6309
1352.7321
1736.7824
2069.2757
2375.1571
2688.1596
3099.72
3394.2065
3738.9021
4123.0731
4419.7684
4786.9438
5120.1988
5470.271
5810.7752
6174.4926
6500.8744
6862.7144
7177.2
7500.1885
7783.1896
8071.4802
8331.431
8580.0111
8829.0024
9063.7103
9295.8958
9509.1496
9717.4197
9967.0693
10190.194
10404.08
10769.743
10743.126
10952.572
11231.193
11472.803
11628.616
11869.889
12041.276
12190.796
12321.799
12429.608
12517.298
12590.196
12649.643
12691.971
12725.599
12738.345
12741.628
12718.772
12685.396
12626.478
12550.575
12450.549
12356.888
12215.963
12085.907
11967.325
11747.714
11646.674
11408.595
11181.096
10995.847
10712.534
10461.643
10175.614
9536.5427
9675.7728
9482.4754
9224.1269
8846.1596
8530.7869
8287.6472
7906.0228
7653.5952
7416.3498
6874.0784
6960.267
6122.8701
6387.2197
5455.3995
5695.4523
4717.095
4586.4353
3463.3587
2804.9789
2482.7147
1168.7084
815.60771
947.46227
216.64001
477.96418
293.66379
201.69422
246.60236
314.56454
26.385604
356.59281
21.433674
132.14899
66.983382
-18.426699
-76.575199
-80.314895
-187.46609
-215.90192
-256.29381
-315.70526
-373.45882
-359.76493
-378.00411
-414.651
-459.29742
-465.76041
-521.79125
-546.1554
-626.39184
-690.08554
-803.492
-890.54813
-1018.2732
-1122.4987
-1198.3982
-1303.5977
-1409.8006
-1390.1163
-1491.433
-1496.8376
-1643.7169
-1601.8314
-1607.301
-1676.6837
-1704.5493
-1748.9293
-1800.9155
-1831.7392
-1874.2058
-1904.2448
-1932.9107
-1952.3337
-1964.1923
-1966.6582
-1968.8065
-1955.7737
-1953.1507
-1938.8342
-1929.0371
-1924.9865
-1901.9756
-1896.3298
-1868.8365
-1823.8765
-1799.8649
-1699.7829
-1666.7268
-1562.8717
-1459.8117
-1394.0711
-1265.8189
-1253.2584
-1222.3395
-1195.1
-944.93884
-770.60367
-672.24161
-647.36482
-500.15445
-438.93729
-319.04124
-129.84887
-158.84847
192.77992
171.5512
343.30885
682.54635
398.31937
1179.3433
550.97813
1542.6203
1356.5275
2181.0082
2390.3664
1722.6466
2615.9241
-1.0612467
792.86372
395.05843
100.09686
-236.89099
-232.65
-836.60288
-914.1067
-1387.4214
-1683.7144
-2117.4655
-2417.9089
-2918.667
-3277.0826
-3697.1328
-4139.4648
-4546.1878
-4954.44
-5373.7697
-5763.991
-6058.7025
-6533.9399
-6867.244
-7228.6729
-7573.3361
-7952.5087
-8311.6315
-8684.3435
-9058.812
-9443.7585
-9823.7684
-10216.843
-10594.65
-10986.091
-11376.645
-11695.219
-12085.988
-12365.896
-12686.013
-12907.257
-13162.752
-13406.239
-13650.08
-13842.988
-14047.778
-14245.4
-14425.558
-14592.831
-14739.013
-14865.275
-14959.965
-15031.442
-15074.386
-15093.91
-15083.393
-15065.925
-15015.876
-14962.994
-14887.864
-14805.416
-14699.807
-14585.56
-14454.847
-14280.196
-14139.559
-13917.764
-13695.17
-13459.726
-13169.892
-12868.131
-12560.14
-12120.948
-11835.005
-11427.493
-11324.554
-11144.109
-10560.49
-10174.837
-9582.3961
-9115.9917
-8446.1898
-7978.5342
-7184.2683
-6641.6323
-5953.7421
-4979.6972
-4712.9592
-3096.2928
-3194.2616
-1427.485
-1383.7217
-435.76331
122.47335
1644.69
3791.9404
444.17901
1200.2156
310.52903
-158.39531
-509.3691
-1139.8422
-1700.7736
-2564.5949
-3073.5252
-3930.354
-4691.7361
-5461.4936
-6315.2054
-7140.7857
-7951.2039
-8784.8221
-9610.3136
-10409.495
-11182.044
-11984.955
-12657.958
-13225.504
-13911.662
-14696.771
-15349.966
-16074.78
-16701.027
-17422.528
-18080.006
-18808.821
-19505.97
-20216.918
-20952.891
-21640.918
-22304.959
-22989.007
-23603.635
-24242.306
-24792.495
-25385.519
-25915.764
-26420.887
-26890.702
-27352.035
-27766.477
-28166.138
-28513.032
-28831.518
-29107.206
-29338.145
-29518.863
-29656.599
-29741.485
-29783.353
-29778.295
-29741.429
-29658.74
-29549.853
-29411.784
-29232.004
-29028.314
-28790.936
-28494.686
-28181.856
-27803.927
-27375.935
-26904.177
-26382.923
-25794.184
-25189.439
-24493.742
-23804.437
-23042.738
-21937.1
-20276.053
-19296.077
-18525.572
-17694.425
-16712.19
-16109
-14770.17
-14385.898
-12787.416
-12314.112
-10845.138
-9832.9788
-8864.5458
-6941.4486
-6652.5568
-4072.3731
-3595.1649
-1896.6425
9.3051403
2186.8061
4344.4491
1573.168
1510.6408
292.58523
-490.63975
-739.49821
-1911.9784
-2615.8338
-3715.5256
-4446.882
-5643.1239
-6711.1531
-7714.1069
-8909.9339
-10047.258
-11146.058
-12320.747
-13467.465
-14565.348
-15661.774
-16864.319
-18171.343
-19228.263
-20289.194
-21592.268
-22635.622
-23686.506
-24694.841
-25718.579
-26697.064
-27718.058
-28700.835
-29717.46
-30719.657
-31689.706
-32659.02
-33603.999
-34527.533
-35380.713
-36237.053
-37031.368
-37798.497
-38508.749
-39205.018
-39838.247
-40441.676
-40996.989
-41504.34
-41960.169
-42354.375
-42684.812
-42946.167
-43140.209
-43260.437
-43317.629
-43305.4
-43241.435
-43112.125
-42946.249
-42719.901
-42458.396
-42145.143
-41781.822
-41385.368
-40909.002
-40428.018
-39841.452
-39203.454
-38485.973
-37732.538
-36866.303
-35954.529
-35052.157
-33933.21
-32774.994
-31585.814
-30418.489
-28503.002
-27264.747
-25904.615
-24579.278
-23327.715
-21771.514
-20451.717
-18850.506
-17261.745
-15802.169
-13877.728
-12505.641
-10400.817
-8620.0797
-6701.0897
-4059.021
-1531.6279
1468.035
6839.4534
2327.5446
2619.2117
1535.9445
159.50468
-492.754
-2199.2631
-3088.9295
-4483.7086
-5979.2124
-7222.6624
-8756.2034
-10193.418
-11711.257
-13220.614
-14762.993
-16287.963
-17821.137
-19257.218
-20804.099
-22221.84
-23811.151
-25361.779
-27308.94
-28919.138
-30217.586
-31686.248
-32987.523
-34349.144
-35636.477
-36952.998
-38307.851
-39555.981
-40942.885
-42215.841
-43503.878
-44765.513
-45951.231
-47143.494
-48258.588
-49361.035
-50366.982
-51373.757
-52288.118
-53173.748
-53980.943
-54732.862
-55411.517
-56014.203
-56535.718
-56974.568
-57321.355
-57581.374
-57749.582
-57833.365
-57831.905
-57756.702
-57608.325
-57393.546
-57119.389
-56785.894
-56380.588
-55935.584
-55393.252
-54788.448
-54118.047
-53344.595
-52476.594
-51561.923
-50475.813
-49287.644
-48083.062
-46669.841
-45242.088
-43785.307
-42230.998
-41138.277
-39368.416
-37700.129
-35914.194
-34221.1
-32294.626
-30480.173
-28434.086
-26437.55
-24165.366
-22217.756
-19482.121
-17654.862
-14814.5
-12432.599
-10096.212
-6355.124
-3017.8958
2364.6267
8250.9265
4131.2068
3680.4489
1978.6538
1000.1059
-722.69199
-2051.2408
-3933.2146
-5482.8809
-7431.9954
-9071.1499
-11099.175
-12950.167
-14956.739
-16907.625
-18894.151
-20917.448
-22937.532
-24836.921
-26829.502
-28739.014
-30609.203
-32646.88
-34190.421
-36021.795
-37587.035
-39394.23
-41034.916
-42698.25
-44324.172
-46003.353
-47598.592
-49167.874
-50857.548
-52425.538
-54008.466
-55560.4
-57028.746
-58476.109
-59878.74
-61189.666
-62482.598
-63680.927
-64825.228
-65892.791
-66887.176
-67807.195
-68637.772
-69378.606
-70021.605
-70560.777
-70988.274
-71308.433
-71512.551
-71611.295
-71599.354
-71496.543
-71291.255
-71009.133
-70644.301
-70198.4
-69688.261
-69091.238
-68416.309
-67649.505
-66796.526
-65858.24
-64796.396
-63633.307
-62351.156
-60930.34
-59397.724
-57772.115
-56067.056
-54217.507
-52273.565
-50475.209
-48460.346
-46416.26
-44251.533
-42030.988
-39789.594
-37432.656
-35018.472
-32492.291
-29980.762
-27251.81
-24552.541
-21947.148
-18649.981
-16385.506
-12481.313
-9509.7108
-5395.7165
-345.46116
5990.8322
7813.9995
5874.9853
3322.4852
1067.5461
-370.57842
-2531.6088
-4741.1746
-6586.2185
-8888.3418
-10983.388
-13331.97
-15532.796
-17886.347
-20289.726
-22594.725
-25052.896
-27398.126
-29666.362
-32038.168
-34263.231
-36459.942
-38698.86
-40739.982
-43080.49
-44994.23
-47185.276
-49162.717
-51093.214
-53218.986
-55098.477
-57123.734
-58935.471
-60930.439
-62757.377
-64723.329
-66646.062
-68383.974
-70220.831
-71851.677
-73549.311
-75109.573
-76621.971
-78048.712
-79385.633
-80634.715
-81771.829
-82801.389
-83712.915
-84498.015
-85153.823
-85675.198
-86063.537
-86317.002
-86441.157
-86441.707
-86324.338
-86095.632
-85768.289
-85339.395
-84826.609
-84218.086
-83529.781
-82738.201
-81853.317
-80818.178
-79719.176
-78353.426
-77100.763
-75622.458
-73877.68
-72146.83
-70150.626
-68008.948
-65841.245
-63460.85
-61065.41
-58546.888
-56025.745
-53419.919
-50825.358
-48113.769
-45368.648
-42500.675
-39623.569
-36473.645
-33436.571
-30104.939
-26760.317
-23207.089
-20099.64
-15462.675
-12942.951
-7688.2212
-2549.8777
5236.4942
13751.524
6341.0742
5696.3633
1428.4011
894.55652
-3032.8456
-4744.368
-7215.631
-9793.7824
-12357.504
-14968.47
-17513.136
-20268.452
-22915.604
-25729.493
-28575.374
-31207.598
-33913.965
-36652.434
-39254.322
-41717.87
-44374.83
-46679.658
-49311.115
-51704.814
-54122.487
-56454.595
-58708.897
-61200.607
-63416.778
-65718.457
-67904.531
-70134.505
-72180.858
-74406.728
-76737.153
-78789.998
-80807.257
-82747.203
-84698.367
-86482.628
-88231.955
-89853.392
-91392.039
-92805.511
-94103.554
-95274.328
-96309.401
-97197.497
-97942.214
-98530.078
-98970.334
-99253.434
-99395.047
-99391.104
-99254.516
-98990.403
-98611.036
-98116.232
-97517.532
-96817.411
-96017.41
-95105.156
-94090.615
-92929.33
-91601.631
-90036.408
-88468.167
-86883.74
-84940.814
-82909.493
-80516.093
-78199.805
-75611.551
-72916.942
-70158.351
-67362.15
-64394.906
-61454.578
-58386.646
-55263.158
-52053.279
-48821.396
-45339.126
-41902.255
-38325.842
-34486.524
-30836.039
-26988.235
-23200.139
-19171.843
-16559.264
-11697.409
-7714.2843
125.67192
-21955.174
-24884.823
-28190.4
-28581.959
-29683.013
-29898.47
-31033.29
-30319.571
-29313.161
-29963.118
-28993.699
-27186.444
-26967.967
-24272.554
-19074.149
-16203.147
-22150.776
-21609.469
-25552.059
-24953.194
-26300.242
-25379.999
-26530.339
-26092.513
-25974.181
-24806.04
-23978.551
-23016.852
-21587.243
-15304.857
-8708.9007
-9491.9699
-9977.6058
-10146.544
-12453.4
-11705.464
-12385.745
-12397.464
-12646.728
-11880.253
-11790.241
-10553.231
-9552.1083
-7934.2846
-4075.5031
-4362.0232
-7526.409
-8123.5513
-8998.4408
-9803.7771
-9952.6838
-10750.849
-10192.917
-9820.5257
-9750.0989
-9337.2013
-7448.8348
-7878.0978
-5445.0961
-1292.8384
-1716.5156
-2587.7396
-3109.1526
-3708.973
-3812.3338
-4627.814
-4306.6603
-4767.439
-4253.2091
-4005.5264
-3624.255
-2989.1921
-2479.2786
-1691.4035
-272.27043
-1631.3987
-1554.8088
-2022.5416
-2392.1259
-3095.6571
-3015.1386
-3246.5385
-2982.9092
-3360.444
-2689.3531
-2434.8787
-2470.544
-1191.9939
-1511.3845
-101.83943
-162.91025
-166.78689
-660.80342
-896.4734
-388.6087
-989.524
-528.09302
-782.76268
-296.73286
-543.4668
151.55996
23.195872
544.21065
1516.6917
848.68113
640.83156
922.4066
624.87857
917.98676
992.67977
1025.0796
1313.2408
1196.6522
1772.2782
831.43858
2462.632
963.837
1646.2961
2109.5375
538.81216
31.627243
1608.0116
1221.2178
2050.2392
2105.3162
2354.6872
2558.026
2661.3957
2575.8664
2855.2406
3150.0716
1938.8483
2776.3751
3164.6151
7.9400404
1266.3745
3045.2299
2825.1686
3839.8817
4127.7436
4747.0169
4984.2188
4837.2011
5724.5645
4450.2615
6245.7995
3607.079
4837.4604
4194.5886
-91.628665
1928.4635
5382.4589
4826.6542
6308.9894
6833.1281
7637.6416
7464.0837
8056.7504
7631.7428
7776.0141
7792.122
5813.2483
6520.7929
6210.4387
808.06578
5238.3704
6785.3916
9105.8051
9323.2
10874.677
10766.744
11618.617
11597.093
12059.2
11128.764
12602.034
9683.8852
10806.039
10350.547
1771.386
5199.9581
9685.5309
8126.3039
11070.949
10338.409
12172.571
12090.699
12039.889
11826.515
12814.37
11466.58
10451.268
9999.7831
9209.8798
2548.9347
18653.186
24143.631
27098.744
27830.624
30748.581
30385.24
30583.16
32545.458
32440.392
30601.338
30196.197
29356.856
28757.424
26495.909
17727.261
12675.349
11962.825
9009.1383
11401.403
13042.47
13043.686
14761.949
15149.641
11224.65
12772.372
11578.379
11230.786
11513.739
10397.93
6977.0701
39685.234
36525.998
46749.103
48308.927
48318.009
54190.56
49549.849
44903.759
52756.75
51673.881
50158.953
49755.209
47971.375
44697.558
38951.525
15992.728
18859.411
22128.894
22605.849
23482.647
23764.529
24373.033
26421.945
26972.371
25239.657
24550.668
22877.318
22792.59
20556.845
19174.679
9932.3765
14319.513
15261.053
17426.871
19553.924
19263.057
20645.72
20279.335
19492.392
20256.115
18874.45
18632.514
16231.798
13992.959
12257.572
3696.6591
5572.571
7075.0682
7660.5664
8928.4333
9404.8913
9651.7174
9740.3373
9307.6073
8866.3637
8466.8567
7802.1157
6082.4891
5265.443
3562.4219
2571.8123
5315.5169
6052.708
7863.2319
8495.4463
9413.7356
9780.9813
9995.2703
9726.7768
9255.4164
8281.1106
7505.1522
5830.4692
4916.8252
3610.8326
-637.92943
-55.944178
799.32049
1777.0409
2753.3918
3518.3953
3665.36
3879.1937
3735.8583
3246.3343
2693.2913
1734.4466
384.29863
-306.31811
-1572.55
-3636.6996
-2180.3949
-1422.6097
-449.81948
46.659905
832.28437
979.11859
1147.4509
790.71987
406.48921
-338.33664
-1115.355
-1881.3459
-2946.5156
-3344.4316
-6209.6369
-5535.3419
-4755.8121
-4060.4349
-3132.7153
-2619.6008
-2344.822
-2068.9774
-2515.8697
-2662.794
-3478.2698
-4065.7447
-5303.6119
-5575.7936
-6565.3817
-8904.8098
-8263.7964
-7568.0756
-6806.6446
-6252.071
-5471.8428
-5519.9297
-5348.9933
-5676.0193
-5973.0437
-6568.318
-7319.1629
-8199.3992
-8462.2108
-9762.5479
-11843.249
-11284.849
-10857.551
-10269.456
-9653.1092
-9165.0849
-8947.3059
-8811.3898
-9219.7122
-9295.6709
-10141.504
-10507.886
-11367.672
-11758.356
-12558.177
-14761.856
-14363.122
-13655.964
-12964.229
-12227.749
-11609.101
-11466.426
-11240.447
-11328.794
-11838.066
-12114.49
-12807.849
-13435.947
-14205.059
-14532.295
-17462.363
-17169.667
-16757.803
-16144.145
-15671.308
-15151.6
-14854.173
-14736.03
-14946.018
-15101.119
-15629.302
-16164.533
-16883.67
-17039.84
-17960.666
-20624.571
-20193.245
-19678.347
-19374.312
-18610.302
-18119.503
-17768.465
-17724.657
-17823.966
-18052.787
-18523.711
-19093.785
-19512.335
-20250.015
-20567.701
-23310.774
-23317.987
-22748.161
-22079.736
-21613.167
-21059.211
-20791.015
-20781.172
-20776.089
-20984.246
-21395.316
-21812.575
-22425.849
-22732.691
-23378.593
-26476.91
-26081.98
-25731.609
-25373.353
-24780.885
-24293.746
-23925.264
-23797.05
-24064.419
-24226.291
-24522.925
-25043.953
-25605.696
-25927.676
-26404.354
-29340.631
-29292.184
-28786.122
-28404.501
-27756.078
-27322.453
-27054.199
-26969.1
-27000.886
-27289.216
-27719.819
-28113.473
-28477.014
-29129.942
-29405.891
-32434.024
-32021.632
-31776.983
-31366.071
-30889.288
-30457.655
-30203.268
-29990.138
-30124.647
-30267.019
-30598.666
-31006.201
-31634.555
-31533.538
-32585.427
-35411.344
-35087.64
-34749.783
-34254.654
-33807.09
-33485.689
-33284.897
-33029.065
-33248.559
-33412.88
-33775.393
-34233.726
-34570.673
-35074.396
-35345.304
-38270.64
-38068.36
-37788.857
-37428.122
-36886.605
-36458.651
-36252.531
-36265.202
-36322.752
-36488.83
-36854.695
-37119.976
-37597.769
-37833.404
-38406.975
-41229.632
-40915.875
-40658.931
-40260.653
-39923.918
-39564.3
-39293.59
-39003.936
-39323.07
-39409.987
-39624.739
-40144.751
-40622.961
-40848.385
-41303.25
-44196.945
-43813.492
-43636.509
-43189.779
-42845.611
-42444.235
-42402.285
-42261.725
-42457.479
-42436.399
-42906.276
-43143.741
-43439.161
-43938.71
-44096.093
-46816.709
-46857.285
-46465.373
-46261.396
-45840.448
-45430.396
-45332.2
-45188.133
-45384.176
-45311.233
-45721.72
-46189.666
-46586.005
-46571.066
-47497.076
-49880.448
-49379.403
-49373.896
-48967.837
-48728.93
-48290.823
-48280.065
-48152.609
-48191.64
-48474.056
-48692.384
-48952.074
-49443.365
-49586.007
-50094.557
-52486.251
-52435.86
-52129.601
-52039.385
-51558.502
-51332.626
-51029.981
-50953.39
-51204.304
-51159.796
-51536.36
-51886.793
-52326.716
-52343.81
-52948.67
-55102.29
-55220.342
-54804.144
-54729.541
-54328.423
-53954.353
-54091.706
-53858.781
-54045.894
-54132.824
-54275.055
-54617.337
-55208.329
-55070.209
-55772.963
-58088.354
-57686.15
-57688.17
-57230.693
-57090.127
-56889.017
-56772.425
-56627.47
-56805.44
-56881.182
-57182.257
-57391.058
-57513.328
-58139.836
-58146.956
-60304.154
-60546.546
-60052.582
-60277.816
-59600.978
-59769.091
-59463.297
-59536.272
-59519.797
-59667.014
-59819.606
-60273.072
-60416.832
-60376.035
-61262.221
-63321.171
-62804.466
-62744.452
-62673.346
-62492.764
-62307.278
-62141.828
-62150.273
-62293.341
-62297.504
-62580.248
-62705.178
-62980.592
-63423.168
-63346.591
-65363.537
-65750.755
-65368.268
-65305.474
-64948.813
-65009.947
-64874.644
-64914.036
-64983.962
-65016.474
-65113.499
-65480.424
-65568.04
-65598.787
-66254.393
-68462.262
-67779.493
-67915.896
-67881.569
-67789.675
-67441.228
-67582.373
-67529.665
-67713.072
-67583.991
-67692.503
-67960.892
-68128.424
-68200.99
-68646.324
-70661.959
-70517.078
-70383.57
-70438.331
-70189.159
-70304.867
-70039.614
-70153.706
-70126.682
-70294.303
-70332.111
-70482.897
-70528.803
-70649.951
-71034.388
-73317.875
-72764.502
-72947.054
-72919.768
-72840.947
-72885.968
-72823.527
-72800.655
-72806.393
-72869.668
-72852.436
-73041.568
-73060.339
-73143.95
-73518.384
-75633.893
-75268.226
-75373.717
-75422.674
-75395.673
-75492.832
-75360.438
-75448.587
-75449.383
-75491.569
-75434.533
-75571.975
-75513.082
-75586.893
-75889.954
-78047.183
-77638.916
-77840.646
-77906.268
-77957.397
-78044.181
-78016.139
-78064.943
-78032.965
-78079.575
-77998.651
-78069.129
-78036.602
-77931.682
-78358.922
-80277.021
-80098.352
-80325.414
-80310.742
-80452.176
-80712.994
-80589.626
-80743.536
-80672.911
-80780.392
-80555.755
-80739.067
-80325.36
-80732.224
-80405.515
-82404.409
-82579.088
-82569.579
-83106.253
-82896.812
-83229.902
-83243.67
-83285.39
-83312.513
-83441.684
-83086.956
-83160.184
-83011.082
-82889.231
-83335.845
-85259.563
-84649.575
-85215.227
-85329.881
-85733.948
-85708.749
-85899.159
-85890.37
-85918.669
-85821.854
-85701.357
-85718.282
-85420.756
-85286.189
-85435.18
-87363.781
-87198.425
-87530.107
-87986.41
-87949.782
-88420.388
-88332.117
-88557.212
-88423.048
-88457.478
-88140.189
-88231.789
-87836.484
-87698.903
-87750.916
-89803.914
-89321.648
-89966.251
-90277.319
-90548.528
-90840.405
-90941.231
-91045.117
-90991.434
-90999.358
-90689.293
-90705.957
-90226.005
-90090.359
-90095.049
-91866.638
-91641.433
-92236.971
-92686.019
-92907.256
-93331.853
-93373.925
-93532.981
-93464.196
-93449.564
-93064.112
-93046.278
-92596.016
-92357.428
-92295.218
-94090.253
-93767.688
-94511.699
-94937.62
-95285.279
-95645.509
-95782.569
-95917.485
-95854.802
-95832.762
-95411.125
-95425.45
-94847.155
-94563.066
-94480.056
-96078.056
-95885.265
-96632.665
-97163.413
-97490.687
-97941.502
-98073.427
-98212.656
-98161.965
-98105.861
-97696.899
-97633.131
-97029.256
-96687.284
-96568.07
-98043.12
-97849.226
-98694.483
-99223.532
-99620.925
-100089.19
-100243.16
-100399.06
-100325.33
-100291.88
-99802.871
-99739.893
-99080.917
-98690.71
-98533.942