/*--------------------------------*- C++ -*----------------------------------*\
  =========                 |
  \\      /  F ield         | OpenFOAM: The Open Source CFD Toolbox
   \\    /   O peration     | Website:  https://openfoam.org
    \\  /    A nd           | Version:  6
     \\/     M anipulation  |
\*---------------------------------------------------------------------------*/
FoamFile
{
    version     2.0;
    format      ascii;
    class       pointScalarField;
    location    "0.24";
    object      p;
}
// * * * * * * * * * * * * * * * * * * * * * * * * * * * * * * * * * * * * * //

dimensions      [1 -1 -2 0 0 0 0];

internalField   nonuniform List<scalar> 
3969
(
620862.37
-948254.12
851.04497
637.95713
1264587.8
-1931977.4
1060.7016
-359.83025
558841.28
377206.88
190859.91
-8506.5479
-173382.94
-382768.95
-446978.59
-576.60678
-726.88991
-488.92885
-161.23609
575.54796
1030.6979
780.37269
217597.51
249115.57
250162.06
268441.49
270657.83
277899.14
278892.18
279921.88
279579.99
276515.95
274360.46
270536.43
265029.55
259990.02
254649.76
248169.24
242561.85
235736.02
229189.54
221091.79
212904.65
203223.95
192888.05
181841.32
169088.87
156255.87
143503.89
131455.84
120098.85
109236.31
99429.972
90400.957
81778.304
73487.398
65620.427
57812.487
49582.247
42357.308
34852.969
28561.117
22684.982
17500.095
13223.136
9545.6202
5722.1786
3758.4175
1137.6465
-219183.7
-201145.93
-245227.43
-230006.93
-258557.8
-247399.89
-259281.2
-252992.68
-256873.2
-252729.03
-251163.01
-248587.31
-242089.27
-239831.39
-233971.6
-228817.06
-224102.56
-217682.71
-212804.88
-206053.88
-198036.85
-191162.94
-180367.35
-170989.76
-158948.14
-147234.8
-135033.55
-122966.01
-112158.67
-101552.83
-92856.21
-83556.392
-75576.285
-67233.403
-59550.416
-51686.833
-44373.897
-36965.886
-30516.506
-24301.212
-19085.834
-15128.564
-11625.924
-8799.3546
-6095.7753
-3913.7014
-1386.3619
973011.68
722814.32
330207.43
-40013.215
-332770.71
-714857.21
-610117.49
-257645.84
-308367.51
-205155.94
-298258.23
-264321.41
-283963.12
-276640.86
-283780.23
-275905.6
-271755.7
-283250.56
-266355.6
-272400.24
-263182.56
-258575.85
-253060.06
-245485.28
-239204.48
-231094.47
-222512.01
-214037.95
-204177.28
-193637.62
-182082.74
-170542.2
-159673.53
-146210.88
-133120.02
-121971.26
-110966.12
-100454.89
-90954.27
-81651.502
-72837.034
-64300.999
-55541.217
-46624.756
-38852.14
-31602.401
-24790.172
-18908.414
-14326.761
-10311.774
-7080.4141
-4402.9898
-2045.8092
-223.38175
948.78417
139.18044
421.4333
-1460.1217
-1370.7352
-1295.4072
-1187.6142
1597.3462
4540.4242
7235.7704
10728.476
14271.445
18355.669
22957.298
28273.126
34724.013
41334.405
47829.328
60571.18
67059.867
75949.562
85466.503
94669.441
104206.71
114659.6
125493.17
137654.94
150649.6
163474.91
177339
190885.01
203387.97
215154.09
225398.76
233953.88
242007.27
248296.42
254993.81
258858.05
261253.11
270459.56
282766.82
277534.64
286491.35
284716.66
284940.26
293060.76
296280.74
281453.69
289633.86
270251.05
260669.52
262499.12
256471.82
544536.05
583696.31
617305.81
610835.9
604086
609450.45
479318.8
-718071.18
-915078.19
-1060870.3
-1132183.9
-1072206.2
-1072851.4
-800132.81
1125.3923
1737.9563
2339.3419
2642.9773
2527.8474
1966.6985
1632.2393
-235.56981
-1006.3374
-1326.2446
-1734.2231
-1151.8425
-760.35531
-547.11901
186966.85
193093.36
198912.16
206870.56
210522.06
215369.27
215220.49
219174.68
215780.51
218541.27
214989.24
211958.98
210932.93
207251.82
203004.15
198367.57
193598.09
187936.78
181724.09
175276.24
168281.79
160209.24
151821.36
142699.92
133622.89
123412.1
113355.09
103890.89
94491.303
85618.492
77581.78
69934.911
62815.404
56161.503
49803.387
43563.928
37458.945
31739.742
26345.466
21641.905
16782.156
13165.825
9539.0883
7007.8946
4541.2618
2989.7026
1407.1154
115547.47
119373.16
121121.67
129761.23
134835.88
142081.36
141840.58
143556.88
143590.98
144402.94
142814.68
142203.61
138910.73
136153.87
133815.61
130354.36
127132.89
122897.15
118808.53
114082.32
108679.86
103048.25
97161.924
91271.889
84781.947
78807.605
72897.575
65950.186
60334.484
54546.427
49419.058
44711.726
40391.061
36538.621
32846.672
29370.924
25829.525
22731.893
19192.824
16023.795
12607.545
10033.774
7132.2709
5360.687
3242.3169
2337.0451
743.19308
52063.599
61525.868
56566.575
63928.17
64503.774
69355.707
69147.341
71906.02
70770.406
71132.577
71302.751
70607.036
69395.459
66851.685
64338.367
63216.246
61559.996
59562.897
57769.3
55471.888
53854.898
51971.308
49461.806
46773.435
44371.595
41220.984
38021.594
35286.235
32445.302
29499.685
26872.822
24456.796
22233.921
20262.479
18441.221
16568.204
14689.379
12786.227
10364.935
8695.0037
6533.8404
5328.2565
3403.7288
2834.3015
1737.7263
1066.3771
335.29856
-6990.3993
-6494.8258
-9748.8973
-5456.9881
-9838.0737
-7242.2118
-10941.36
-8569.9426
-9318.3697
-5197.9256
-6952.5772
-4939.5915
-5762.7519
-4231.2519
-4282.7594
-3623.1062
-4101.6797
-3984.7344
-4312.5336
-4819.3576
-5001.1171
-6184.9391
-7541.3573
-6855.445
-6059.5518
-5428.3248
-4508.1766
-3804.7796
-3288.7281
-2705.9295
-2127.7916
-1409.8439
-797.04011
75.79658
844.52816
1668.3044
2053.3094
2387.2205
2658.2159
2702.1805
2252.556
1927.7563
1164.4331
1246.6024
551.8204
355.90223
285.65545
-76039.1
-65931.676
-70470.639
-73785.373
-78684.719
-79267.34
-81078.928
-80578.77
-80826.293
-76985.951
-78271.62
-74051.393
-74544.054
-70454.175
-69885.427
-66934.768
-65911.381
-63646.766
-62085.176
-60146.795
-56696.455
-51630.808
-48404.569
-43144.237
-40345.566
-38053.182
-34286.653
-31025.081
-28289.49
-25560.868
-22896.335
-20343.341
-17809.445
-15194.016
-12690.523
-10383.685
-8461.6792
-6345.8299
-6047.3255
-4976.5526
-4317.0828
-3289.0686
-2680.0469
-1736.1349
-1403.155
-1031.738
-217.45594
-135792.65
-129570.82
-135927.73
-146969.83
-151912.13
-153953.48
-156738.32
-155092.75
-157180.38
-152469.53
-153504.19
-148063.09
-147350.08
-144103.26
-141331.08
-137325.88
-134443.62
-130545.35
-126979.94
-122814.38
-116755.08
-112329.19
-102640.44
-94984.328
-87445.805
-80514.098
-74551.365
-67825.064
-61773.225
-56134.726
-51117.684
-46044.809
-41341.032
-36636.496
-32189.391
-27555.411
-23208.083
-19196.155
-15476.199
-12322.547
-9985.497
-7959.6021
-6250.1767
-4698.0314
-3484.3845
-2339.5837
-577.16494
-223046.26
-167510.8
-200996.9
-205462.64
-216415.59
-217675.25
-222185.71
-221020.63
-223587.93
-218174.5
-220012.22
-215093.31
-211929.52
-207426.43
-202463.65
-197342.26
-191691.37
-186894.11
-180567.08
-174231.28
-167479.25
-158859.61
-150757.51
-142023.58
-132584.2
-123432.59
-115562.09
-105274.97
-96348.89
-87910.575
-79958.421
-72257.744
-64825.024
-57670.387
-50674.53
-43668.788
-37148.66
-31093.167
-25744.587
-20092.963
-16075.553
-12509.683
-9807.3586
-7300.6679
-5306.7954
-3327.6681
-1794.89
412287.38
398788.82
416026.87
414861.01
417406.34
410036.48
382040.61
274544.79
304835.91
288588.92
294155.86
297770
291716.01
287876.11
140911.18
169086.08
142582.5
156290.48
148174.84
147197.14
156729.77
21361.295
3446.6744
-2452.2965
10962.768
4942.1274
-16873.116
41417.734
-100530.48
-97751.818
-105587.3
-94257.394
-98321.653
-99271.162
-59210.163
-280816.01
-293434.01
-289322.01
-294853.59
-301567.62
-298662.49
-275537.72
-367754.94
-331977.97
-288951.55
-295191.76
-283033.24
-259885.95
-295898.17
-337614.04
-349680.35
-396180.63
-410835.63
-417663.14
-414941.23
-318194.62
-285996.79
-324083.28
-325216
-331843.69
-345420.32
-334318.84
-306382.29
-249732.53
-277204.38
-291025.51
-292213.33
-292177.11
-274230.12
-287592.36
-261507.18
-282597.25
-277089.67
-292803.3
-282321.96
-281613.65
-265603.36
-266697.77
-278364.97
-286358.83
-288060.67
-288891.75
-278172.87
-280745.36
-270043.89
-266103.34
-270947.22
-275794.95
-276362.88
-270650.78
-268827.14
-266302.19
-273311.24
-275677.99
-280952.9
-278905.63
-277782.76
-278662.53
-271168.87
-267723.41
-268121.26
-272163.15
-269548.49
-271837.02
-270201.63
-267266.66
-270416.86
-270938.13
-273549.21
-274823.24
-274117.15
-276739.27
-268812.92
-265999.52
-264661.78
-268546.91
-267000.01
-265534.64
-267514.9
-265070.92
-265404.51
-262371.39
-266459.88
-264947.88
-262959.96
-270242.07
-259438.15
-259673.53
-257797.8
-262530.97
-260826.64
-255527.21
-262197.02
-256450.37
-251919.3
-255951.72
-254017.27
-256785.61
-252966.82
-258426.91
-249202.29
-247795.51
-251327.54
-249137.48
-252181.72
-246870.64
-251305.61
-245676.61
-241874
-246522.54
-242600.58
-246193.85
-241608.82
-246678.45
-239291.6
-235832.27
-241082.98
-237020.8
-241979.27
-236671.41
-241742.09
-233532.55
-231655.25
-236214.56
-231877.01
-237066.49
-230703.85
-235700.48
-228117.4
-226382.8
-231397.31
-226399.82
-232308.95
-224632.54
-230998.57
-222125.71
-221078.18
-225965.46
-220441.97
-226479.82
-218125.25
-225309.54
-215246.13
-214733.82
-219528.76
-213991.23
-220360.2
-211325.83
-218930.8
-208162.46
-207006.56
-211837.07
-206115.76
-212253.11
-203144.91
-210738.75
-198832.64
-198099.02
-202617.96
-197243.2
-203181
-194093.21
-201715.86
-188958.88
-187622.47
-192131.18
-186760.43
-191644.87
-183956.79
-190639.53
-177239.82
-176632.82
-179779.85
-174624.53
-180132.37
-173196.92
-179387.28
-164736.57
-164870.79
-165114.21
-163370.13
-166176.3
-161446.68
-166105.42
-151251.03
-152075.94
-150285.43
-151675.39
-152551.81
-150886.76
-153979.98
-140388.21
-139216.47
-138302.86
-138506.89
-138873.12
-137159.59
-140487.66
-128633.38
-126859.47
-126265.76
-126009.23
-125982.42
-125728.29
-126867.66
-116768.67
-115016.46
-114638.26
-113988.53
-113760.29
-114641.32
-114868.8
-106397.68
-104363.05
-104454.4
-103407.03
-103615.2
-104181.89
-104169.1
-96337.94
-95122.886
-94486.888
-93738.943
-93584.89
-94134.898
-94379.862
-87544.942
-85955.909
-85512.411
-84750.768
-84627.26
-85101.406
-85565.383
-78574.949
-77515.948
-76873.398
-76222.76
-76008.589
-76358.927
-76896.669
-70202.057
-69168.169
-68510.223
-67851.293
-67508.872
-67743.608
-68171.144
-61656.611
-60802.025
-60086.463
-59331.44
-58946.663
-59335.07
-59725.997
-53246.574
-52538.209
-51675.484
-51128.312
-50595.084
-50541.439
-51223.237
-45504.157
-44184.749
-43984.25
-42427.447
-42758.347
-42908.763
-42811.489
-37261.719
-36959.909
-35432.528
-35250.872
-34113.947
-35190.389
-34636.643
-30257.727
-29548.523
-28791.849
-28048.748
-27575.363
-28300.928
-27770.716
-24308.553
-23594.318
-22962.218
-22135.975
-21612.655
-22570.581
-22116.979
-18921.219
-18561.722
-17688.254
-16966.297
-16711.689
-17543.378
-17101.661
-14910.179
-14586.123
-13637.194
-13268.417
-12838.581
-13554.641
-13408.436
-11395.499
-10910.298
-10082.267
-9652.902
-9270.4894
-9936.6219
-10069.555
-8607.9775
-8010.1008
-7381.9826
-6917.6396
-6649.1803
-7077.6786
-7392.6843
-5808.3477
-4967.1878
-4339.2126
-3741.5941
-3609.8521
-3878.5275
-4290.1059
-3215.7985
-2269.8458
-1788.5228
-1282.0935
-1266.986
-1463.8335
-2089.3019
-903.42063
124.8234
527.29666
1051.0127
951.82429
550.06563
232.21909
-1533.1675
-1526.2719
-1769.4421
-2031.4604
-1913.7962
-2153.1175
-1834.1999
-1174.7376
-1024.4387
-1113.2595
-1720.5767
-1657.618
-1793.9469
-1501.8498
-1551.058
-1411.1938
-1713.9312
-1948.0784
-1980.7818
-1997.9319
-1853.9696
-500.8916
-287.0415
-495.04044
-549.10013
-378.53915
-710.65458
-521.21908
606.3291
738.9472
1006.772
1110.5894
1144.4814
862.7969
510.31072
1347.4237
1956.2331
1999.1053
2031.753
2012.8765
1528.0646
1297.9844
1943.2015
2156.5189
2577.8982
2757.2924
2756.0642
2289.0268
2110.8761
262720.13
258642.31
295255.09
287427.07
297817.36
285072.09
277621.68
281422.62
287655.76
301656.32
300412.55
305564
288003.27
282923.94
281829.28
285351.61
292980.38
294088.42
295140.77
281805.65
280128.57
274625.87
281285.51
288568.03
290474.9
289560.07
282749.11
285299.83
281955.63
283888.57
286500.76
288597.05
288296.2
285242.21
280191.63
278249.35
279180.18
284688.43
282039.64
284720.97
277287.31
280818.79
283277.86
283301.09
284979.98
283719.7
289329.13
283368.67
289053.68
279561.29
278671.49
283793.17
276572.43
282329.41
278291.53
281710.68
281481.01
282255.58
282869.07
281391.74
286303.98
280028.35
287596.85
280180.71
276810.36
279708.73
275394.06
281243.6
275272.55
282825.6
277354.83
274247.08
279802.03
273693.65
280412.36
274846.82
280808.05
271613.34
271852.84
273490.42
269143.03
273960.8
269645.92
276131.57
269579.21
265436.25
268210.8
264362.98
269342.23
264980.69
264875.83
263094.37
261420.7
262625.06
259554.1
263103.39
260348.41
265266.13
257548.94
255950.88
254997.85
255081.08
257212.26
254554.07
259140.5
253586.72
249360.53
250723.27
247843.71
252264.7
248071.8
252052.36
246305.21
243990.38
244344.89
243547.09
245472.13
242513.65
246429.69
240359.4
237292.24
239353.35
236832.51
239551.42
236683.49
240359.82
233044.09
231238.64
232621.1
230490.85
233370.1
230171.34
234306.04
226100.25
223484.37
225461.63
223438.86
226242.51
222770.91
227212.1
217739.81
214891.65
217538.52
215214.6
218180.16
214502.7
219146.36
208249.99
205360.4
208183.33
205791.93
208637.11
204590.04
209691.95
197659.86
194573.52
197817.92
195241.69
197897.49
194053.06
199026.71
185653.67
182896.38
185636
183111.86
185491.97
181742.61
186694.28
173355.75
169440.59
172811.39
170105.15
172287.71
168960.53
173809.11
160296.34
156207.71
159604.92
156712.48
158642.53
155882.68
160046.42
147065.29
143305.87
146055.35
143309.77
144860.93
142562.09
146718.07
134748.42
130741.35
133025.16
130658.66
132117.94
130423.85
134094.4
122360.23
118613.99
121102.43
118660.5
119627.93
118169.67
121679.89
111419.41
108383.4
109924.26
107789.93
108518.96
107526.12
110788.33
101331.55
98452.319
99886.63
97975.376
98480.035
97437.72
100568.35
91930.555
89528.274
90514.013
88740.232
89018.594
87925.194
91119.185
83041.18
80966.067
81775.433
80144.183
80132.45
79271.801
82394.791
74498.478
72745.379
73265.661
71662.36
71808.744
70746.241
73426.879
66107.715
64498.912
64686.241
63475.774
62976.348
62477.284
64429.245
57296.769
56044.359
56272.93
54788.766
54807.372
54044.555
55794.631
49339.541
48328.72
47497.333
46845.305
46351.422
45837.918
48251.988
41508.987
40443.716
39780.824
39094.242
38627.166
37841.65
40193.453
33592.85
33223.667
32081.382
31949.731
31220.321
31334.862
32786.501
27269.033
26822.769
25809.44
25750.387
24956.264
25260.019
26510.584
21249.551
21164.746
20117.424
20162.341
19470.668
20159.966
21063.087
16487.07
16452.502
15500.841
15594.331
15175.156
15793.617
16759.14
12515.594
12402.854
11528.234
11763.016
11498.852
12126.789
13063.394
9062.5846
8991.5961
8377.1445
8527.993
8607.7944
8978.867
9844.1455
5605.0816
5115.8232
4631.7254
4693.7728
4830.9283
5001.0145
6324.1346
3726.3623
3499.8894
3060.301
3242.9024
3469.1893
3793.7379
4701.4351
886.60487
50.286968
-352.69538
-125.4452
-75.321126
809.62638
1533.6788
272391.33
214815.01
212555.58
214671.05
227465.7
234383.4
230416.12
234812.09
235472.72
236417.18
232518.12
230940.75
226995.09
222458.88
218752.56
214525.41
208303.47
203071.53
196807.61
189865.01
181911.09
172996.78
163415.69
153307
142690.42
132442.97
121357.28
111277.2
101719.32
92508.831
83910.57
75695.279
67716.551
60060.695
53716.998
45318.78
39651.282
34540.68
28952.303
24297.562
20106.916
16098.31
12559.808
9211.7766
6360.1444
3614.7359
1138.9288
161030.88
161928.86
121367.45
144716.08
165575.35
158161.36
169287.8
163610.74
168975.03
164937.42
165931.9
163081.11
158126.08
156575.73
153538.6
151098.89
147025.71
142936.3
139560.35
134626.45
129690.74
124137.06
117861.9
110782.4
103437.44
94139.448
89230.386
80780.025
74094.276
67523.766
61527.259
55868.71
50531.037
45764.695
40389.98
35765.242
31413.045
26589.316
22615.039
18586.015
15201.37
11987.407
9414.428
7079.7118
4905.3771
3098.3859
1059.5188
80285.725
95954.519
52729.028
85551.133
73780.31
70590.065
75345.826
74035.676
74870.02
72897.879
76464.725
74621.798
78095.915
76678.727
77279.848
77351.945
75624.308
74240.825
72819.375
69615.833
67096.403
63787.77
60183.541
56432.39
52651.945
48823.239
45775.831
41353.711
38328.418
34967.934
31932.068
28815.935
25873.539
22690.24
19687.139
17108.39
14696.791
12597.194
10894.909
9774.9713
8558.771
7374.6069
6228.9926
4662.8424
3295.8744
1684.296
-238.91777
-8272.6868
17824.019
-6562.0813
12218.462
144.87624
8394.0459
4293.4778
-1869.8692
2740.0931
2878.5615
2009.2532
5256.4649
2993.1381
8940.2566
9997.9845
11149.471
11109.544
11777.63
12080.253
11936.369
12422.763
12359.665
12264.322
12023.514
11185.571
10552.463
9775.2119
9389.9296
8734.768
8361.9684
7892.7171
7556.4491
7027.31
6518.3767
6077.157
5638.3175
5102.5034
4776.7424
4554.252
4314.4487
3845.341
3387.0838
2832.9609
2021.0655
1494.4173
455.25657
-384.85313
-111000
-54455.685
-67151.857
-47615.786
-65234.746
-54023.16
-66343.59
-62878.565
-60221.362
-62480.527
-56997.478
-61127.139
-57307.953
-59999.151
-56989.539
-55829.856
-53625.394
-51542.907
-49196.464
-47165.985
-44952.084
-42939.153
-40861.669
-38800.477
-36118.425
-34499.7
-31370.179
-28842.488
-26389.124
-24045.323
-21819.314
-19766.486
-17702.705
-15781.172
-14085.433
-12365.363
-10532.468
-8661.8559
-6958.8293
-5132.9276
-3576.969
-2231.2873
-1342.9866
-644.12249
-482.48723
-253.92621
-836.41886
-172790.54
-133779.4
-119334.4
-123059.75
-135362.11
-132842.03
-141687.4
-133032.08
-144709.45
-143892.18
-147528.57
-144977.44
-142840.72
-141276.37
-136794.12
-133689.72
-128952.95
-124188.94
-119320.97
-114594.7
-109353.99
-103261.09
-97082.112
-88459.36
-81003.9
-73923.842
-68760.781
-62709.22
-57317.008
-51902.119
-47190.929
-42371.453
-37871.874
-33684.977
-29690.371
-25809.006
-21900.37
-18323.326
-14980.012
-11519.03
-8761.1352
-6268.5343
-4181.1167
-2849.651
-1679.8711
-1104.883
-663.76871
-223966.83
-182432.93
-188538.12
-189762.35
-212462.43
-208575.01
-218667.12
-215223.97
-222626.92
-218854.17
-218708.75
-219010.41
-215450.19
-211768.09
-206872.05
-201651.49
-196268.85
-189702.56
-183761.36
-176493.27
-169318.56
-161528.84
-153560.56
-144756.77
-137259.87
-123373.11
-114355.05
-105394.06
-96716.974
-88588.051
-80514.569
-72786.095
-65852.613
-58916.121
-52732.756
-46591.167
-40574.629
-35035.168
-28761.745
-23194.694
-18084.374
-13190.903
-9556.1336
-6364.3838
-4264.0972
-2250.7871
-1775.118
316909.99
348447.41
339025.02
351847.82
349462.88
331019.64
310546.06
232806.5
268500.38
263492.58
271396.49
264163.56
254098.32
232167.31
224763.79
244045.53
252382.62
256355.58
250236.27
247849.65
239018.59
222003.39
230567.18
232173.15
240266.06
229444.21
234093.46
213184.09
221669.16
228528.66
234998.54
232623.51
232050.38
228489.35
214144.98
222971.31
233049.44
225151.96
235641.8
227087.77
227913.91
226600.68
225811.77
226985.43
227515.33
229400.3
222047.55
227865.81
222199.76
224138.56
234332.65
225496.5
232537.43
229191.25
227790.09
225742.81
228497.1
228497.97
221585.09
230896.87
221498.11
227359.58
223589.36
224437.42
228169.77
225299.41
230574.41
222746.65
227975.4
223457.21
223246.6
228163.28
220359.01
226101.35
219919.48
224017.35
221247.9
224052.09
222533.25
219906.58
222300.92
220080.23
219866.26
217694.75
218870.05
220490.32
216061.32
220702.34
215099.29
217765.2
217691.72
215788.41
214566.8
213077.78
216343.69
211186.24
213467.44
211983.7
212174.81
210369.67
210437.24
209554.57
207279.64
209600.94
206977.05
205711.8
206173.03
205017.75
206447.42
202850.3
203701.91
203744.46
200812.98
200740.56
200006.76
201207.45
197932.98
200009.03
199096.29
194867.28
195769.88
195016.55
195102.95
193107.14
194336.11
193796.15
188639.52
189968.55
188543.26
189703.54
187621.27
188407.44
188148.46
181549.3
182992.53
182229.49
183006.22
181012.09
182035.17
182091.94
172800.68
176021.39
174547.76
175526.54
173602.84
174647.91
174732.04
164038.08
167653.75
165860.3
166815.46
165111.91
166288.23
166657.51
154110.48
158398.66
155899.76
157220.66
155505.82
157212.24
157165.1
143710.16
148076.48
145477.43
146535.79
145401.67
146733.54
146851.47
132369.41
138301.43
134478.75
136551.74
134736.74
136897.66
136708.74
122449.02
127277.2
124439.16
124761.82
124435.4
125624.06
125743.47
112743.83
116649.27
113684.83
114590.37
114347.57
115609.67
115606.84
102387.48
106068.53
104178.18
104400.05
104042.75
105088.4
104984.59
93265.744
97599.461
94665.506
94891.791
95088.935
96074.881
96079.965
85089.693
88179.818
86222.532
86251.308
86657.177
87367.008
87271.406
77149.377
79965.003
78079.926
78012.272
78520.667
79143.601
79099.849
69730.758
72057.304
70710.61
70499.272
71020.589
71678.384
71630.889
62767.855
64659.766
63501.892
63121.462
63872.829
64494.583
64362.937
56118.964
57473.925
56524.951
56120.944
56875.723
57369.116
56958.857
49606.443
50362.784
49763.351
49231.899
50104.354
50271.419
50539.581
43286.017
43832.143
43451.073
42769.996
43481.603
44249.42
44207.908
37563.273
37833.449
37007.741
36283.12
37766.051
37273.091
38535.577
32079.928
31320.099
31672.06
30806.808
31075.008
32505.357
31794.666
26882.911
25651.748
26087.661
25152.168
26479.35
26737.675
27067.946
21978.003
21233.432
21366.084
20726.157
21326.65
22025.92
22108.699
17665.149
16543.093
17040.397
16047.751
17304.249
17592.353
18205.751
13923.543
13271.978
13423.591
12808.886
13803.346
13948.241
14661.507
10436.847
9601.5174
9904.8156
9287.3659
10231.076
10375.299
11379.947
7715.6635
7256.7167
7335.3818
6798.9916
7518.715
7480.9986
8492.1978
4963.0799
4407.8938
4262.4717
4062.9796
4584.059
4779.224
5859.7629
3126.8275
2577.9134
2499.3041
2340.7483
2576.2858
2846.1583
3333.6917
1013.6195
279.49575
-62.273987
-250.84243
17.190358
237.85748
823.138
210006.51
216180.4
235516.02
231574.78
240686.04
220225.91
223066.43
163125.78
192933.26
200953.75
205735.98
206203.77
192388.79
184572.31
162138.29
150076.56
168731.91
161772.55
170506.02
153432.59
160168.87
144112.99
148461.92
157479.08
154585.96
157645.39
153608.78
140573.47
153081.77
151074.44
158694.63
152880.17
160433.86
150254.03
153358.76
149167.04
145896.85
149605.36
145923.47
145096.91
149944.02
147959.23
151477.21
150614.1
157814.96
149708.4
156258.95
155412.34
151587.51
151903.07
147490.64
149685.58
145753.82
150261.84
147323.05
150973.21
152431.85
147113.46
155469.97
149082.34
150570.38
152341
152320.64
149783.84
148066.9
152200.96
143522.45
149704.17
148789.96
151665.3
150916.67
146983.39
149495.67
144875.25
148648.68
148754.47
149029.18
148953.59
143417.08
150346.33
142531.1
148604.53
145164.51
151488.35
146088.28
142734.53
148413.58
139259.87
145850.21
142236.51
146239.75
143068.09
141055.89
145158.77
137160.96
142808.45
140669.84
141654.16
139839.96
140012.54
140246.1
134317.92
140189.21
137159.78
139031.98
137325.67
136413.78
136844.87
132889.68
136180.39
134627.28
135215.82
133477.79
133418.16
133521.1
129272.98
132530.8
132245.62
133659.49
129768.46
130152.28
129443.87
126706.21
129289.6
128625.5
129046.55
126114.53
125879.37
125768.44
123269.09
125647.37
125025.5
126270.41
121369
121692.2
121664.58
119528.5
121536.86
120901.95
122256.77
117124.51
116988.38
117069.36
115048.11
117131.28
116625.14
117819.06
112236.41
111759.2
111750.09
110139.48
112232.2
111539.12
112403.51
106884.33
105666.93
106192.35
104745.03
106959.25
105571.27
106685.08
100666.99
99578.722
100388.63
99166.54
100804.66
99536.875
100425.6
94096.282
93192.297
93772.251
92353.231
94458.601
92539.122
93522.321
87351.434
86714.878
85746.472
87382.184
86332.625
85767.119
87426.369
79406.924
80488.645
79316.388
78298.926
80784.425
78119.686
79295.473
73752.274
72510.15
73351.123
72329.442
73456.122
71889.15
73043.405
66997.618
66752.075
66762.435
65852.684
67341.924
65337.407
66573.048
61194.122
61057.703
60339.728
60154.9
60950.371
59370.884
60560.843
55639.169
55594.741
55166.749
55020.9
55627.882
54045.163
55128.947
50568.396
50854.674
50177.54
50159.021
50490.141
49109.213
49959.302
45996.761
46355.277
45617.254
45689.256
45991.032
44496.435
44733.492
41569.8
41998.927
41224.035
41472.317
41435.003
39745.342
40257.563
37183.762
37869.272
37198.341
37326.335
37236.871
36105.267
36046.408
32985.993
33913.731
32834.618
33162.228
33000.8
31342.962
31065.131
28723.531
29580.836
28648.78
29000.91
28537.09
27549.873
26775.461
24363.342
25829.381
24345.7
24908.058
24485.325
23484.887
23183.793
20198.056
21496.98
20311.968
20686.794
20501.548
19847.632
19157.516
16298.719
18076.698
16471.556
17022.526
16726.949
15969.711
15935.599
13087.157
14365.081
12940.399
13679.773
13356.433
13055.41
13140.244
9820.2982
11456.861
9837.0129
10824.776
10370.54
10163.875
10679.248
7728.1594
8715.0624
7406.3093
8434.7182
7882.4573
7963.1655
8486.5034
5391.7912
6371.0378
5205.2404
6232.7163
5801.8139
5938.8893
6585.5713
3891.185
4097.3019
3437.9764
4205.9034
3844.3094
4021.1051
4613.8885
2479.0702
2884.6485
2306.6139
2885.7415
2681.9429
2772.2387
3010.7013
840.21326
45.348398
-85.354658
115.75447
189.70973
215.56379
831.83535
120238.76
123844.1
118816.05
130026.39
123655.49
116656.78
111417.09
85676.105
126606.32
117431.14
127917.07
112663.35
117913.09
95798.898
82878.249
79026.454
83723.29
85183.787
82261.171
75566.206
75047.556
69242.895
85754.134
86485.29
94215.458
82114.836
89981.193
71646.534
78131.397
74969.739
77620.477
73272.668
73944.753
70486.937
69958.702
70062.084
81476.936
73386.44
77571.076
76556.877
75542.555
74467.092
74964.481
79607.925
69917.874
74585.098
74816.357
71872.12
73415.154
72836.406
81985.986
69648.223
75763.316
73015.896
70791.208
75218.023
75453.108
83141.529
69400.887
74378.902
72969.439
73038.214
75160.992
76259.718
81860.898
67928.914
72777.025
73604.319
71399.572
74386.151
75466.485
82067.949
67602.21
74910.285
72474.457
72607.469
73702.62
73683.386
80500.694
66601.295
72556.508
71142.015
70704.086
73187.749
71492.56
81914.108
65544.316
72090.592
70544.74
69925.147
71544.155
71516.001
78393.594
65954.73
71079.341
72052.594
65870.364
74182.958
71572.917
75637.333
64861.749
70275.071
69482.545
66029.289
71649.462
69022.77
72762.682
64939.178
67527.352
68680.696
64558.26
71442.457
66276.617
71334.147
63366.285
66849.597
66719.601
63808.103
69302.651
64623.506
68598.432
61950.098
65037.272
65158.65
62734.771
67418.288
61695.412
66556.188
60101.097
63310.087
63054.993
60875.552
65716.12
59386.74
63960.459
58012.364
61124.752
60610.26
59179.706
63846.751
56363.132
61141.575
55613.339
58531.378
58130.655
57130.581
60929.296
53263.901
57873.807
52853.598
55873.153
55508.444
53961.159
58311.478
50156.173
54490.975
50032.756
53272.923
51636.555
51363.916
55054.411
46790.46
50812.636
47180.876
48968.597
48073.297
47785.498
51268.542
43818.713
47556.344
43687.494
45684.47
44416.28
44846.77
47823.193
40720.482
43026.565
40935.35
41490.349
41113.392
41168.4
43611.53
37836.101
40730.555
37656.302
39353.404
37185.471
38391
39726.859
34977.982
38037.995
34281.246
36077.654
34619.34
35009.906
37211.517
32209.517
34737.504
31693.006
32940.323
31798.773
32155.615
34121.557
29822.478
31846.079
29111.106
30620.338
29330.121
29637.367
31440.979
27627.79
29095.599
26831.477
28246.286
26689.364
27233.087
28910.801
25464.392
26535.755
24550.939
25771.367
24399.443
24884.528
26334.236
23475.011
23852.302
22217.716
23297.746
22004.068
22238.783
24125.325
21357.881
21329.933
20035.164
20919.729
19658.455
20087.647
21907.702
19378.352
18848.261
17751.211
18233.841
17309.927
17279.549
19283.613
17197.588
16420.251
15389.028
15856.05
14873.165
15012.074
17154.482
15244.454
14066.027
13346.69
13364.298
12929.345
12534.832
15195.983
12966.808
12245.947
11226.381
11638.366
10750.442
10944.019
13057.102
11383.242
10119.137
9458.7783
9599.384
9106.8758
9302.4413
11115.734
9647.458
8936.0013
8017.7263
8566.9884
7777.7374
7968.7842
9515.5551
8026.9608
6719.5585
6612.1564
6718.2848
6427.9719
6844.7724
8280.2807
6514.2976
6304.0364
5917.5256
6270.0761
5850.8933
6099.6998
6962.4901
5219.5338
4205.3927
4391.8926
4554.5336
4382.5668
4802.613
5800.6036
3962.4086
3779.4031
3986.7713
4196.7536
3848.1124
4197.8939
4694.1017
2852.5016
2257.02
2634.8032
2525.724
2476.9441
2780.6344
3195.9601
1803.2692
1563.3075
1684.0755
1886.6004
1718.9655
1841.5782
2109.0201
541.50987
-96.044532
56.76992
-59.087826
-230.36619
-143.71306
342.76527
-244.7468
-6906.2936
-3857.7228
-2326.3124
-1928.566
-6099.0528
9248.0289
-2620.9564
-1350.4562
-1589.9745
2034.2358
-711.7633
-276.56364
419.14955
8670.7095
-12562.401
-8239.1846
-14690.659
-7994.2362
-15071.759
1864.1536
-2411.5922
-7169.1437
430.57086
-4168.3788
-3699.9253
1914.6585
-5845.0677
1966.9584
-2830.089
-1486.1786
-13393.71
507.49665
-16143.997
3063.1333
346.78058
-5839.7689
-6703.9774
-4603.3125
-5403.0061
-3550.5892
-2007.6163
1274.7461
-3782.6166
3034.798
-7688.4426
-540.95215
-6350.763
1616.8308
2182.7771
-3192.7465
-4908.148
-4517.5319
-4073.7216
-2483.568
16.184299
2312.7841
-5613.6911
787.2701
-6111.1732
-679.65926
-2882.916
-2415.11
-143.93389
-2471.6821
-1510.743
-6151.999
-2723.1092
-3147.8732
-373.39982
1284.804
-2937.9296
-1818.3729
-5622.4855
-2802.0006
-3233.6717
-207.25357
419.07977
-2279.0645
-3176.2528
-4066.5462
-3627.4298
-973.50565
-110.94193
2033.7291
-3084.9654
-2336.5759
-4442.2296
-1446.7165
-2809.5898
575.84684
1281.2776
-2627.6202
1624.3435
-2114.9527
-4477.241
-741.01391
-2359.5812
2648.6769
842.39707
-4802.5421
-1679.9733
-4426.2273
-843.30038
-534.3942
586.77851
218.955
-4373.0081
-202.24357
-5012.7424
-265.88259
-519.94537
1192.5343
-218.58333
-3649.2369
763.44124
-4775.9153
252.53134
664.61877
289.39431
24.761163
-3302.6691
810.6054
-4568.6224
700.92696
414.2629
326.26635
578.82673
-2981.6162
1102.9518
-4012.5933
969.70097
1160.4408
180.7385
730.57442
-2897.526
1270.8958
-3734.9869
1710.9148
1078.6737
398.90983
1077.8382
-2357.2781
1568.6663
-2620.8291
1919.8605
1384.9281
613.76576
1913.7268
-1793.0638
2331.3423
-2408.6519
2397.2193
1760.0375
703.76659
2309.7328
-516.25431
1740.0524
-1508.6396
2845.7618
2042.814
1739.9718
3107.7758
358.78384
2303.055
241.74779
3679.5214
2372.0132
1939.2755
3250.7114
1292.3366
2579.6338
1971.1487
3542.5989
2619.3708
2079.3157
4837.1073
1994.7304
3618.5849
2897.1136
3664.4843
3112.2059
3132.1174
4897.6108
2553.2646
3588.1121
3374.37
3958.2309
3133.0851
3278.5952
4718.9968
3006.7103
3869.2481
3360.0666
4264.9913
2939.7608
3479.355
4923.1342
3574.5971
4399.5997
4068.4836
4627.884
3318.9694
3545.2045
5155.2629
3690.1506
4467.2013
3879.4359
4658.8693
3190.9647
3752.736
5101.0577
4030.4777
4814.0443
4110.2092
4987.9777
3267.257
3780.5145
5087.8891
4227.6639