/*--------------------------------*- C++ -*----------------------------------*\
  =========                 |
  \\      /  F ield         | OpenFOAM: The Open Source CFD Toolbox
   \\    /   O peration     | Website:  https://openfoam.org
    \\  /    A nd           | Version:  6
     \\/     M anipulation  |
\*---------------------------------------------------------------------------*/
FoamFile
{
    version     2.0;
    format      ascii;
    class       pointVectorField;
    location    "1.09";
    object      u;
}
// * * * * * * * * * * * * * * * * * * * * * * * * * * * * * * * * * * * * * //

dimensions      [0 1 0 0 0 0 0];

internalField   nonuniform List<vector> 
28033
(
(0 0 0)
(0 0 0)
(2.4070396 -0.27726195 0.01089312)
(2.2468796 -0.81930238 0.010083571)
(0 0 0)
(0 0 0)
(2.2463891 -0.82144243 0.0096896494)
(2.4065507 -0.27944066 0.010421001)
(0 0 0)
(0 0 0)
(0 0 0)
(0 0 0)
(0 0 0)
(0 0 0)
(0 0 0)
(0 0 0)
(0 0 0)
(0 0 0)
(0 0 0)
(0 0 0)
(0 0 0)
(0 0 0)
(0 0 0)
(2.3967004 -0.31155543 0.010612434)
(2.3864583 -0.34548559 0.010548075)
(2.3762802 -0.37931471 0.010453998)
(2.3661919 -0.4130985 0.010428197)
(2.3561587 -0.44682073 0.010415156)
(2.3461704 -0.48051275 0.010421087)
(2.3362358 -0.51418669 0.010445842)
(2.3263349 -0.54786648 0.010478742)
(2.3164615 -0.5815591 0.010505836)
(2.3065979 -0.61529255 0.010535484)
(2.296747 -0.64906476 0.010540551)
(2.2868704 -0.68290711 0.01051865)
(2.2770003 -0.71681976 0.010483798)
(2.2670464 -0.75082218 0.010421122)
(2.257088 -0.7849569 0.010287076)
(0.0059776395 0.0090789251 0.010019944)
(0.0073544252 0.014319636 0.013637348)
(0.0094815276 0.019799133 0.016448572)
(0.012618194 0.025437896 0.018144676)
(0.016313524 0.031213645 0.01924586)
(0.021116888 0.03703463 0.019967096)
(0.026726909 0.042943316 0.020393514)
(0.033296602 0.048647049 0.020584385)
(0.040700797 0.054456524 0.020665497)
(0.049033262 0.059982673 0.020639626)
(0.058126322 0.065484936 0.020543112)
(0.068085023 0.070738163 0.020367753)
(0.078801489 0.075878472 0.020242295)
(0.090378373 0.080774536 0.019995515)
(0.10260442 0.085476637 0.019834038)
(0.11564452 0.08994514 0.019569517)
(0.12937614 0.094207071 0.019394308)
(0.14384674 0.098190991 0.019147224)
(0.15896098 0.10196294 0.018948453)
(0.17478483 0.10546518 0.018706238)
(0.19122797 0.10871829 0.018522262)
(0.2083418 0.11171018 0.018278687)
(0.22605313 0.11443194 0.018101053)
(0.24439821 0.1169072 0.017885089)
(0.26329846 0.11908892 0.017696249)
(0.28279907 0.12103013 0.017502791)
(0.30283751 0.12267271 0.017330697)
(0.32344195 0.12408121 0.017148635)
(0.34455626 0.12518227 0.016978725)
(0.3661927 0.1260374 0.01682237)
(0.38833884 0.12662131 0.016661509)
(0.4109514 0.12693104 0.016509131)
(0.43404912 0.12697971 0.016371582)
(0.45760971 0.12674354 0.016230793)
(0.4816145 0.12626499 0.016092966)
(0.50606131 0.12550621 0.015962953)
(0.5309153 0.12449011 0.015844419)
(0.55620167 0.12321449 0.015725685)
(0.58185954 0.12167509 0.015599587)
(0.60792109 0.11988857 0.015492378)
(0.63434113 0.11783688 0.015379551)
(0.66112856 0.11555266 0.01527897)
(0.68826443 0.1130073 0.015171205)
(0.7157431 0.11022944 0.015077882)
(0.7435396 0.10720363 0.014981644)
(0.77166202 0.10395019 0.014892667)
(0.80008093 0.10046223 0.014807224)
(0.82880576 0.096748598 0.014724519)
(0.85780885 0.092812939 0.014646434)
(0.88709922 0.088657608 0.014570861)
(0.91665305 0.084289325 0.014497704)
(0.94647536 0.079707938 0.014426659)
(0.97654983 0.074922275 0.014356438)
(1.0068749 0.069929375 0.01428658)
(1.0374415 0.064739164 0.014215544)
(1.0682433 0.05934847 0.014143621)
(1.0992747 0.053764973 0.014068246)
(1.1305283 0.047988083 0.013990171)
(1.161998 0.04202274 0.013907566)
(1.1936768 0.035869017 0.013820659)
(1.2255582 0.029532648 0.013728076)
(1.257635 0.023012355 0.01363048)
(1.2898978 0.016316272 0.01352789)
(1.3223446 0.0094366357 0.013417394)
(1.354958 0.0023957966 0.013307712)
(1.38774 -0.0048266116 0.013186421)
(1.4206699 -0.012212732 0.013067771)
(1.4537504 -0.019762236 0.012944226)
(1.4869648 -0.027470567 0.01281136)
(1.5203111 -0.035333524 0.012683102)
(1.5537735 -0.043347865 0.012555087)
(1.5873434 -0.051511173 0.012427895)
(1.6210209 -0.059807225 0.012297048)
(1.6547807 -0.068255488 0.012175526)
(1.6886375 -0.076810895 0.012046531)
(1.7225526 -0.085526603 0.011934508)
(1.7565521 -0.094318958 0.011810643)
(1.790593 -0.10327878 0.011709382)
(1.8247006 -0.11228797 0.011594159)
(1.8588374 -0.12146268 0.01150625)
(1.8930257 -0.13067622 0.011399585)
(1.9272273 -0.14002929 0.011327793)
(1.9614698 -0.14943176 0.01123574)
(1.9957087 -0.15893927 0.011177384)
(2.0299814 -0.16849941 0.011106575)
(2.0642462 -0.17813836 0.011056867)
(2.0985214 -0.18784886 0.011008799)
(2.1327874 -0.19759451 0.010977438)
(2.1670543 -0.20741738 0.010943471)
(2.2013052 -0.21724853 0.010931028)
(2.2355411 -0.22718421 0.010935278)
(2.2697928 -0.23703805 0.010911619)
(2.3039918 -0.24705765 0.010976532)
(2.3382603 -0.25699479 0.010966554)
(2.3724924 -0.2669585 0.011043868)
(0.0023390925 -0.010541742 -0.012023548)
(0.0042295232 -0.01420046 -0.014345655)
(0.0054602847 -0.019585959 -0.018521365)
(0.0069088969 -0.024050139 -0.020028419)
(0.010093905 -0.02957001 -0.021501382)
(0.013716036 -0.035352482 -0.022228032)
(0.018302553 -0.040697207 -0.022691464)
(0.023726572 -0.04672428 -0.022774498)
(0.030068984 -0.052569789 -0.022761791)
(0.037018439 -0.058526973 -0.022571133)
(0.044870381 -0.064615553 -0.022296189)
(0.053301683 -0.070676424 -0.021968597)
(0.062547314 -0.076878115 -0.021558602)
(0.072380204 -0.083095513 -0.021192734)
(0.082933261 -0.089339054 -0.020724815)
(0.094093441 -0.095713995 -0.020330224)
(0.10589939 -0.10200923 -0.019856208)
(0.11833242 -0.10850788 -0.019418322)
(0.13135998 -0.11494765 -0.018966532)
(0.14502416 -0.12152753 -0.018519569)
(0.15923116 -0.12809345 -0.018045155)
(0.1740634 -0.13481946 -0.017617322)
(0.18939508 -0.14146817 -0.017148054)
(0.20535957 -0.14835033 -0.016693566)
(0.22178335 -0.15515047 -0.016252322)
(0.23884413 -0.1621513 -0.015764759)
(0.25632832 -0.16913438 -0.01535212)
(0.27442659 -0.17625994 -0.014854365)
(0.29294083 -0.18342291 -0.01444228)
(0.31202732 -0.19068624 -0.013947791)
(0.33153376 -0.19803983 -0.01352022)
(0.35157055 -0.20546522 -0.013046431)
(0.37203034 -0.21298876 -0.012604584)
(0.3929848 -0.22059473 -0.012136852)
(0.41435937 -0.22829765 -0.011686736)
(0.43619045 -0.23607396 -0.011235281)
(0.45843904 -0.24394303 -0.010765441)
(0.48111279 -0.25192023 -0.010315491)
(0.50419041 -0.25996417 -0.0098574894)
(0.52767587 -0.26811314 -0.0094034031)
(0.55154512 -0.27634457 -0.00895119)
(0.57579858 -0.28466493 -0.0085027846)
(0.60042017 -0.29307415 -0.0080567317)
(0.62540485 -0.30156942 -0.0076171843)
(0.65073787 -0.31015068 -0.007182458)
(0.676417 -0.31881841 -0.006753783)
(0.70242475 -0.32756925 -0.006333578)
(0.72876119 -0.33640542 -0.0059193811)
(0.75541052 -0.34532434 -0.0055147667)
(0.78237059 -0.35432559 -0.0051174792)
(0.8096301 -0.36340982 -0.0047290805)
(0.83718476 -0.37257496 -0.0043488051)
(0.86502596 -0.38182075 -0.0039764722)
(0.89314968 -0.39114744 -0.0036115464)
(0.92154791 -0.40055257 -0.0032535321)
(0.95021726 -0.41003585 -0.0029015681)
(0.979151 -0.41959694 -0.0025546018)
(1.008345 -0.42923224 -0.0022121161)
(1.0377934 -0.43894189 -0.0018729026)
(1.0674925 -0.44872332 -0.0015357185)
(1.0974356 -0.4585734 -0.0012003237)
(1.1276191 -0.46849049 -0.00086516352)
(1.1580365 -0.47847134 -0.00052984386)
(1.1886831 -0.48851257 -0.00019329399)
(1.219552 -0.49861028 0.00014416819)
(1.2506385 -0.50876296 0.00048476416)
(1.2819347 -0.5189634 0.00082597079)
(1.3134349 -0.52921162 0.0011716776)
(1.3451316 -0.53949682 0.0015146694)
(1.3770177 -0.54981556 0.0018708258)
(1.4090837 -0.56017993 0.0022199897)
(1.4413241 -0.57055613 0.002574164)
(1.4737311 -0.5809706 0.0029299447)
(1.5062943 -0.59139231 0.0032848637)
(1.5390089 -0.60183943 0.0036435434)
(1.5718618 -0.61228858 0.0039963025)
(1.6048492 -0.62275192 0.0043541895)
(1.6379602 -0.63321213 0.0047038244)
(1.6711863 -0.64367726 0.0050562572)
(1.704521 -0.65413202 0.0053998312)
(1.7379541 -0.66458561 0.0057436885)
(1.7714797 -0.67502157 0.0060779524)
(1.8050874 -0.68544991 0.0064104005)
(1.8387732 -0.69585645 0.0067325061)
(1.872525 -0.7062473 0.0070500097)
(1.9063405 -0.71661501 0.0073578498)
(1.9402089 -0.72695992 0.0076588776)
(1.9741261 -0.73727832 0.0079480852)
(2.008083 -0.74757439 0.0082330418)
(2.0420787 -0.75783931 0.0085030596)
(2.0760996 -0.76807946 0.0087671098)
(2.1101524 -0.77830226 0.0090196085)
(2.1442196 -0.78850522 0.009273497)
(2.1783407 -0.79869999 0.0095009849)
(2.2124782 -0.80895722 0.0097699972)
(0 0 0)
(0 0 0)
(0 0 0)
(0 0 0)
(0 0 0)
(0 0 0)
(0 0 0)
(0 0 0)
(0 0 0)
(0 0 0)
(0 0 0)
(0 0 0)
(0 0 0)
(0 0 0)
(0 0 0)
(0.0056585186 -0.0043928649 0.0087824221)
(0.0057465585 -0.016696084 0.014106644)
(0.0054050223 -0.017405888 0.017064693)
(0.007768387 -0.025598613 0.019931853)
(0.010121664 -0.029515423 0.021220365)
(0.01417363 -0.035807047 0.021879343)
(0.018545359 -0.04107963 0.022357672)
(0.02425497 -0.047452575 0.022521361)
(0.030412208 -0.052996856 0.022515749)
(0.037471326 -0.059384937 0.022333323)
(0.045378776 -0.065408684 0.022245145)
(0.053675903 -0.07145747 0.021872092)
(0.063060419 -0.078005942 0.021714204)
(0.072693663 -0.083893054 0.021280845)
(0.083431966 -0.090784786 0.021098037)
(0.094397132 -0.09664915 0.020713033)
(0.10629294 -0.10352718 0.020488144)
(0.11861612 -0.10961674 0.02005987)
(0.1316725 -0.11652963 0.019852831)
(0.14529035 -0.1228834 0.019466032)
(0.15944484 -0.12969997 0.019251435)
(0.17428492 -0.1363729 0.018904019)
(0.18957264 -0.14321076 0.018682064)
(0.20551417 -0.15007932 0.018390583)
(0.22192166 -0.1569612 0.018139165)
(0.2389335 -0.16405002 0.017895603)
(0.25641626 -0.17101707 0.017642912)
(0.27444618 -0.17829265 0.017421374)
(0.29296806 -0.18541367 0.017187493)
(0.31197556 -0.19281495 0.016980288)
(0.33148816 -0.20016241 0.01676991)
(0.35146156 -0.20765853 0.016571964)
(0.37191109 -0.21520699 0.016376784)
(0.39281476 -0.22285664 0.016185531)
(0.41417122 -0.23059782 0.016009746)
(0.4359652 -0.23836499 0.015821595)
(0.45817726 -0.2463179 0.015654931)
(0.48082844 -0.25428416 0.015486755)
(0.50387568 -0.2623609 0.015327087)
(0.52733364 -0.27051583 0.015165655)
(0.55117864 -0.27876161 0.015014807)
(0.57540637 -0.28708624 0.014866193)
(0.6000067 -0.29549927 0.014723757)
(0.62496937 -0.30399182 0.014587231)
(0.65028467 -0.31256875 0.014456085)
(0.67594483 -0.32122711 0.014331358)
(0.70193942 -0.32996622 0.01421171)
(0.72826134 -0.33878717 0.014098094)
(0.75490113 -0.3476878 0.013989636)
(0.78185213 -0.35666922 0.013885854)
(0.8091057 -0.36573024 0.013786893)
(0.83665687 -0.37487128 0.013689669)
(0.86449735 -0.38409226 0.013596473)
(0.89262262 -0.39339145 0.01350227)
(0.92102546 -0.40277177 0.013409976)
(0.94970209 -0.41222802 0.013314289)
(0.97864482 -0.4217644 0.013218375)
(1.0078509 -0.43137597 0.013117246)
(1.0373127 -0.44106365 0.013013284)
(1.0670268 -0.45082512 0.012903824)
(1.0969862 -0.46065813 0.012789368)
(1.1271866 -0.47056055 0.012669315)
(1.1576209 -0.48052992 0.012544074)
(1.1882843 -0.49056195 0.01241336)
(1.2191694 -0.50065442 0.012277954)
(1.25027 -0.51080351 0.012138486)
(1.2815804 -0.52100203 0.011994612)
(1.3130908 -0.53126265 0.011852275)
(1.3448009 -0.54152515 0.011704576)
(1.3766833 -0.55188031 0.011554822)
(1.4087615 -0.5622368 0.01141045)
(1.4410002 -0.57262912 0.011266243)
(1.473408 -0.58304632 0.011122439)
(1.5059683 -0.59348335 0.010985087)
(1.5386767 -0.60393471 0.010849785)
(1.5715243 -0.6143974 0.010720892)
(1.6045028 -0.62486631 0.010596509)
(1.6376048 -0.63533764 0.010479713)
(1.670821 -0.64580762 0.010368588)
(1.7041452 -0.65627182 0.010266092)
(1.7375672 -0.66672795 0.010169791)
(1.7710821 -0.67717231 0.010083342)
(1.8046792 -0.68760125 0.010003457)
(1.8383543 -0.6980142 0.0099339627)
(1.872097 -0.70840555 0.0098718267)
(1.9059028 -0.71877733 0.0098208921)
(1.9397629 -0.72912183 0.0097769031)
(1.9736724 -0.73944591 0.0097459191)
(2.0076229 -0.74973726 0.0097212051)
(2.0416111 -0.76000994 0.0097108513)
(2.0756277 -0.77024642 0.0097051883)
(2.1096746 -0.7804747 0.0097162523)
(2.1437386 -0.79066911 0.0097249149)
(2.1778571 -0.80088398 0.0097498705)
(2.2119568 -0.81112549 0.0097481914)
(2.2566325 -0.78711536 0.009598849)
(2.2665756 -0.75301746 0.0095584057)
(2.2765171 -0.71897437 0.0095884945)
(2.2863972 -0.68508039 0.0096248779)
(2.2962716 -0.65123308 0.0097182946)
(2.3061175 -0.6174554 0.0098052011)
(2.3159812 -0.58373138 0.0099318282)
(2.3258507 -0.55002024 0.010051106)
(2.3357629 -0.51636396 0.010170289)
(2.3456803 -0.4826638 0.010294323)
(2.3556741 -0.44899073 0.010388996)
(2.3656979 -0.41525561 0.010472828)
(2.3757968 -0.38150017 0.010535356)
(2.3859213 -0.34761685 0.010555295)
(2.3962071 -0.31375922 0.010548103)
(2.3720509 -0.2691551 0.010030831)
(2.3377272 -0.25919558 0.0098121712)
(2.3035158 -0.24920798 0.0095659843)
(2.2692839 -0.23925113 0.0093370423)
(2.2350553 -0.22932387 0.0090769025)
(2.2008148 -0.21942975 0.0088190246)
(2.1665637 -0.20957534 0.008547959)
(2.1323037 -0.19976235 0.0082657308)
(2.098037 -0.19000482 0.0079793098)
(2.0637703 -0.18029683 0.0076783366)
(2.0295032 -0.17065528 0.0073746286)
(1.9952455 -0.16107707 0.0070603053)
(1.9609976 -0.15157273 0.0067400121)
(1.9267662 -0.14214335 0.0064089159)
(1.8925602 -0.13280233 0.0060749914)
(1.8583856 -0.12354981 0.0057352608)
(1.8242487 -0.1143954 0.0053935849)
(1.790155 -0.10534379 0.0050472504)
(1.7561142 -0.096400149 0.004699138)
(1.7221319 -0.087573724 0.004349683)
(1.6882176 -0.078866133 0.0039994389)
(1.654378 -0.070288053 0.0036492415)
(1.620623 -0.061839709 0.0032995723)
(1.5869585 -0.053532756 0.0029510535)
(1.5533968 -0.045365553 0.0026046675)
(1.5199449 -0.037345507 0.0022600998)
(1.4865962 -0.029482261 0.0019159349)
(1.4534164 -0.021803183 0.0015865328)
(1.4203304 -0.014240349 0.0012467677)
(1.3874072 -0.0068707444 0.00091374838)
(1.3546334 0.00033724896 0.0005813425)
(1.322024 0.007370715 0.00025308322)
(1.2895828 0.01422859 -7.3923365e-05)
(1.25732 0.020908327 -0.0004005794)
(1.2252425 0.027406763 -0.00072655707)
(1.1933582 0.033722906 -0.0010534528)
(1.161674 0.039853142 -0.0013819557)
(1.1301974 0.045796841 -0.0017127001)
(1.0989351 0.051550488 -0.0020467851)
(1.067894 0.057113376 -0.0023851046)
(1.0370807 0.062481769 -0.0027283187)
(1.0065022 0.067654639 -0.0030770717)
(0.97616512 0.072628131 -0.0034324628)
(0.9460767 0.077400385 -0.0037942301)
(0.91624395 0.081967565 -0.0041634431)
(0.88667467 0.086326856 -0.0045398028)
(0.85737655 0.090474418 -0.0049235218)
(0.82835814 0.094406642 -0.0053143778)
(0.79962802 0.09811951 -0.0057123035)
(0.77119575 0.10160963 -0.0061163021)
(0.74307069 0.10487096 -0.0065262071)
(0.71526293 0.10790424 -0.0069420325)
(0.68778414 0.11069651 -0.0073600694)
(0.66064364 0.11325644 -0.0077861328)
(0.63385509 0.11556653 -0.0082090862)
(0.60743077 0.11763524 -0.0086382904)
(0.58137121 0.11946178 -0.0090689802)
(0.55569691 0.12102699 -0.0095016128)
(0.53046062 0.12230228 -0.009911091)
(0.50557966 0.12339423 -0.010361277)
(0.48113631 0.12418293 -0.010789131)
(0.45718228 0.1246743 -0.011196765)
(0.43360808 0.12497075 -0.011628028)
(0.41052793 0.12497609 -0.012059072)
(0.38789769 0.12471519 -0.012480627)
(0.36581317 0.12415528 -0.012898384)
(0.34415455 0.12339068 -0.013306948)
(0.32309725 0.1222807 -0.013717347)
(0.30249333 0.12096772 -0.014138342)
(0.28247458 0.11937473 -0.014553984)
(0.26299698 0.11749016 -0.014954666)
(0.24408487 0.11538227 -0.01537439)
(0.2258231 0.11290093 -0.015740429)
(0.20807584 0.11030272 -0.016174052)
(0.19100712 0.10735793 -0.016560539)
(0.17457089 0.10412967 -0.0169297)
(0.15876314 0.10074192 -0.017353185)
(0.14365863 0.096972281 -0.017681778)
(0.12920553 0.093118015 -0.018104109)
(0.1154976 0.088851505 -0.018418045)
(0.10252552 0.084465254 -0.018784224)
(0.090206526 0.079807447 -0.019085074)
(0.078704256 0.075058131 -0.01945368)
(0.06800842 0.069848332 -0.019650545)
(0.058048105 0.064800524 -0.019970881)
(0.048932115 0.059306316 -0.020097292)
(0.040683414 0.053796908 -0.020205583)
(0.03327207 0.048123881 -0.020171312)
(0.026706164 0.042443525 -0.020024203)
(0.021090379 0.036651345 -0.019632629)
(0.016385347 0.03079578 -0.018865424)
(0.012684068 0.024895372 -0.017702205)
(0.0099187603 0.019623061 -0.016021484)
(0.0075142295 0.01374545 -0.012879977)
(0.0084660976 0.0084578228 -0.0076410886)
(0 0 0)
(0 0 0)
(0 0 0)
(0 0 0)
(0 0 0)
(0 0 0)
(0 0 0)
(0 0 0)
(0 0 0)
(0 0 0)
(0 0 0)
(0 0 0)
(0 0 0)
(0 0 0)
(0 0 0)
(0 0 0)
(0 0 0)
(0 0 0)
(0 0 0)
(0 0 0)
(0 0 0)
(0 0 0)
(0 0 0)
(0 0 0)
(0 0 0)
(0 0 0)
(0 0 0)
(0 0 0)
(0 0 0)
(0 0 0)
(2.2468518 -0.81959366 0.010052951)
(2.2468074 -0.81981523 0.010017696)
(2.2467672 -0.82000082 0.0099786041)
(2.2467346 -0.82018414 0.0099499084)
(2.2467044 -0.82035552 0.0099239714)
(2.2466776 -0.82051664 0.009908922)
(2.2466487 -0.82066634 0.0098938045)
(2.2466201 -0.82080677 0.0098857033)
(2.2465898 -0.82093878 0.0098741017)
(2.2465561 -0.82105874 0.009861036)
(2.2465278 -0.82117998 0.0098473253)
(2.2464942 -0.82127071 0.0098219367)
(2.2464677 -0.82136849 0.0097953883)
(2.2464433 -0.82144012 0.0097608986)
(2.2464282 -0.82151979 0.0097207401)
(2.4072045 -0.27730751 0.010860806)
(2.407222 -0.27741547 0.010859469)
(2.4072359 -0.27751611 0.010828814)
(2.4072527 -0.27763057 0.010802325)
(2.4072443 -0.27775346 0.010774471)
(2.4072362 -0.27788302 0.010732198)
(2.4072192 -0.27801199 0.010694137)
(2.4071917 -0.27814794 0.010648407)
(2.4071569 -0.2782838 0.010605229)
(2.4071119 -0.27842246 0.010565006)
(2.4070591 -0.27856804 0.010526248)
(2.4069966 -0.27871503 0.010494113)
(2.4069341 -0.27886744 0.010479801)
(2.4068452 -0.27905083 0.010438019)
(2.4067954 -0.27919404 0.010435685)
(0.002956015 0.0068543644 0.010118707)
(0.0041903674 0.011722484 0.011772041)
(0.0056890713 0.016768103 0.014576468)
(0.0083543738 0.021686226 0.015689716)
(0.011369312 0.026577057 0.016923597)
(0.01570604 0.03154984 0.017496178)
(0.020675725 0.036433323 0.017924268)
(0.026829473 0.041441099 0.018124046)
(0.033617427 0.046233303 0.018235925)
(0.04146863 0.051092563 0.018257682)
(0.050067531 0.055681991 0.01813979)
(0.059583725 0.06031391 0.018117259)
(0.069852184 0.064593556 0.017912651)
(0.08095806 0.068901316 0.017815349)
(0.092797401 0.072832262 0.01760553)
(0.10547342 0.07674477 0.017483)
(0.11885853 0.080286293 0.01725111)
(0.13294321 0.083750143 0.017125491)
(0.14779795 0.086881703 0.016907008)
(0.16333438 0.089862213 0.016752075)
(0.17954476 0.092551197 0.016565207)
(0.1964413 0.095019589 0.016406536)
(0.2139871 0.097251814 0.016218099)
(0.23214231 0.099216194 0.016069301)
(0.25095757 0.10094388 0.015891707)
(0.27035571 0.10240554 0.015749192)
(0.2903551 0.10362773 0.015584925)
(0.31091699 0.10457216 0.015447035)
(0.33205898 0.1052659 0.015300599)
(0.35373661 0.10571204 0.015167477)
(0.37594352 0.10587101 0.015031391)
(0.39868019 0.10578813 0.014907423)
(0.42191649 0.10543407 0.01478958)
(0.44563403 0.10482708 0.014670815)
(0.46983564 0.10395703 0.014560033)
(0.49449581 0.10281406 0.014451434)
(0.5196035 0.10143613 0.014348746)
(0.54513637 0.099781454 0.014244772)
(0.57110401 0.097884779 0.01414731)
(0.59746556 0.09572931 0.014057839)
(0.62422622 0.093326413 0.013969829)
(0.65135366 0.090666965 0.013880555)
(0.67885511 0.087780329 0.013803057)
(0.70670406 0.084633715 0.01372191)
(0.73488582 0.081265877 0.0136479)
(0.76339656 0.077659013 0.013578189)
(0.79221563 0.073824103 0.013509113)
(0.82133716 0.069765508 0.01344734)
(0.85074529 0.06548599 0.013386092)
(0.88043309 0.060989272 0.013329162)
(0.9103866 0.056281565 0.013273487)
(0.94059839 0.051363335 0.013221129)
(0.97105768 0.046242216 0.013167855)
(1.0017559 0.04091777 0.013116757)
(1.0326842 0.035397676 0.013063799)
(1.0638335 0.029680913 0.013010628)
(1.0951969 0.023775293 0.012954507)
(1.1267643 0.017679849 0.012896537)
(1.158529 0.011401033 0.012834715)
(1.1904821 0.0049400156 0.012769421)
(1.2226157 -0.0016986415 0.012699697)
(1.2549207 -0.0085122181 0.012626122)
(1.2873888 -0.015496905 0.012547998)
(1.3200123 -0.022651306 0.012466473)
(1.3527778 -0.029961474 0.012379116)
(1.3856864 -0.037446672 0.012291097)
(1.4187282 -0.045074133 0.012198769)
(1.4518702 -0.052858249 0.012107451)
(1.4851301 -0.060785299 0.012013603)
(1.518481 -0.068860368 0.011919729)
(1.5519288 -0.077067087 0.011823021)
(1.5854519 -0.085408414 0.011728986)
(1.619053 -0.093873981 0.01163344)
(1.6527102 -0.10246391 0.011543653)
(1.6864295 -0.1111635 0.011453401)
(1.7201868 -0.11998563 0.011371343)
(1.7539918 -0.12889346 0.011286763)
(1.7878177 -0.1379266 0.011215754)
(1.8216782 -0.14702058 0.011138217)
(1.8555468 -0.15623884 0.011079314)
(1.8894325 -0.16550496 0.011012697)
(1.9233228 -0.17487357 0.010964033)
(1.9572117 -0.18430026 0.010911065)
(1.9910945 -0.19379602 0.010874102)
(2.0249705 -0.20334647 0.010831644)
(2.0588361 -0.21296487 0.01080999)
(2.0926882 -0.22262823 0.010787373)
(2.1265171 -0.23233354 0.010772052)
(2.1603328 -0.24208198 0.010765934)
(2.1941062 -0.25187916 0.010777218)
(2.2278876 -0.26167716 0.010763701)
(2.261611 -0.27153183 0.010797006)
(2.2953286 -0.28144839 0.010801093)
(2.329063 -0.29131157 0.010790707)
(2.3627531 -0.30139613 0.010772259)
(4.1881154e-05 0.0058980102 0.009116634)
(0.00069649674 0.0086416074 0.010639401)
(0.0024858495 0.013665747 0.012580984)
(0.0042189071 0.017345904 0.013859894)
(0.0070949376 0.021816143 0.014684691)
(0.010766482 0.025834966 0.015175992)
(0.015481681 0.030206791 0.015531932)
(0.020944674 0.034262495 0.01572934)
(0.027453822 0.03846305 0.015878444)
(0.034824296 0.042416604 0.015807228)
(0.04302057 0.04641154 0.015891336)
(0.052111482 0.050166227 0.015709442)
(0.061991273 0.053890259 0.015709496)
(0.072733512 0.057370994 0.015521211)
(0.084223257 0.060748877 0.01548413)
(0.096582436 0.063911563 0.015244922)
(0.10956408 0.06691746 0.015210931)
(0.12346249 0.069697964 0.01500597)
(0.13797834 0.072291646 0.014904018)
(0.15328869 0.074659756 0.014740858)
(0.16925105 0.076818249 0.014625702)
(0.18596448 0.078754542 0.014456335)
(0.20329626 0.080458519 0.014347925)
(0.22135228 0.081929286 0.01420357)
(0.24001719 0.083151681 0.01408314)
(0.25933904 0.084157421 0.013946132)
(0.27925876 0.084895435 0.013833497)
(0.29980257 0.085397612 0.013718503)
(0.32092389 0.085651744 0.013599364)
(0.3426208 0.085652219 0.013492262)
(0.36487783 0.08539988 0.013392817)
(0.38768384 0.084898136 0.013290414)
(0.41100299 0.08414505 0.013193565)
(0.4348489 0.083130949 0.013104842)
(0.45919191 0.08186283 0.013013929)
(0.48401971 0.080347365 0.012932779)
(0.50932204 0.078569244 0.012848239)
(0.53507544 0.076542662 0.012776761)
(0.56125422 0.074263038 0.012703457)
(0.58786706 0.071744641 0.012635234)
(0.61487486 0.068965321 0.01256379)
(0.64228308 0.065960597 0.012508369)
(0.67006886 0.062693366 0.012436625)
(0.6982061 0.059206052 0.012389465)
(0.72669802 0.055481102 0.012330685)
(0.75551922 0.0515237 0.012283308)
(0.78465555 0.047342954 0.012236138)
(0.81409741 0.042940021 0.012195173)
(0.84382792 0.038318746 0.012152893)
(0.87383598 0.033484726 0.012117862)
(0.9041082 0.028441759 0.012081404)
(0.93463397 0.023191745 0.012048957)
(0.96540104 0.017742943 0.012015657)
(0.99639878 0.012093744 0.01198463)
(1.027617 0.0062534306 0.011951482)
(1.0590452 0.0002208447 0.011918966)
(1.0906739 -0.0059957906 0.011883492)
(1.1224926 -0.012397502 0.011847376)
(1.1544929 -0.018975273 0.0118072)
(1.1866644 -0.025730612 0.011765188)
(1.2189975 -0.032655014 0.011719625)
(1.2514835 -0.039747665 0.011670661)
(1.284112 -0.047003782 0.011619586)
(1.3168733 -0.05441655 0.01156307)
(1.3497594 -0.06198194 0.011506175)
(1.3827642 -0.069702592 0.011447777)
(1.4158461 -0.077549762 0.011389308)
(1.4490385 -0.085558525 0.011330956)
(1.4823199 -0.093699039 0.01125893)
(1.5156752 -0.10197175 0.011196761)
(1.5490997 -0.11035978 0.011128837)
(1.5825722 -0.11887534 0.011070669)
(1.6160993 -0.12749346 0.011006159)
(1.6496556 -0.13623345 0.010954406)
(1.6832547 -0.14505833 0.010891988)
(1.7168599 -0.15400289 0.010850067)
(1.7504988 -0.16300888 0.010790095)
(1.7841243 -0.17213735 0.010760144)
(1.8177751 -0.18130129 0.010703522)
(1.8513946 -0.19059107 0.010687641)
(1.8850336 -0.19989574 0.010636215)
(1.918631 -0.20931221 0.010628416)
(1.9522299 -0.21875649 0.010598246)
(1.9857882 -0.22827855 0.010581131)
(2.0193514 -0.23782486 0.010563037)
(2.0528537 -0.24744041 0.010569188)
(2.086346 -0.25708031 0.010562575)
(2.1197858 -0.26676033 0.010574705)
(2.1532087 -0.27649899 0.010590235)
(2.1865837 -0.28621893 0.010590488)
(2.2199409 -0.29602615 0.010620761)
(2.2532336 -0.30583012 0.010630701)
(2.2865458 -0.3156755 0.010636183)
(2.3198006 -0.32556649 0.010633489)
(2.3531011 -0.33553276 0.01061471)
(-0.0018098194 0.0044721823 0.0078762972)
(-0.0014888008 0.006874022 0.009029493)
(-0.0009763474 0.010447973 0.011079294)
(0.00082515658 0.013828875 0.011872614)
(0.0033072333 0.017298764 0.012471707)
(0.0069061875 0.020895595 0.012866037)
(0.011078149 0.024279134 0.013168928)
(0.016506969 0.027800703 0.013360568)
(0.022606457 0.031052201 0.013337201)
(0.029680657 0.034489789 0.013500554)
(0.037577221 0.037555323 0.013357158)
(0.046404104 0.040786867 0.013426367)
(0.055984075 0.04362939 0.013265361)
(0.066436785 0.046578863 0.013289908)
(0.077702639 0.049177176 0.013082212)
(0.089702912 0.051770168 0.013113952)
(0.10256861 0.054065942 0.012923711)
(0.11613547 0.056283045 0.012875847)
(0.13047707 0.058237505 0.012743075)
(0.14555692 0.060041482 0.012673142)
(0.16137221 0.061624922 0.012536392)
(0.17787576 0.06298893 0.01247222)
(0.19510113 0.064160604 0.012350567)
(0.21297939 0.065082561 0.012269212)
(0.23154227 0.065819258 0.012158001)
(0.25074329 0.066290608 0.012082368)
(0.27059407 0.066553383 0.011987566)
(0.29105289 0.066573681 0.011900707)
(0.31212822 0.066358505 0.011819518)
(0.33378976 0.065898258 0.01174797)
(0.35603374 0.065200281 0.011666602)
(0.37882892 0.064258638 0.011597752)
(0.40218178 0.063066293 0.011532952)
(0.42605875 0.061630796 0.011467549)
(0.45045057 0.059950094 0.011409265)
(0.4753419 0.05802184 0.011351118)
(0.50070358 0.055850097 0.011304717)
(0.52652497 0.053434517 0.011257483)
(0.55282999 0.050768503 0.011209324)
(0.57955058 0.047851132 0.011158267)
(0.60669629 0.044710793 0.011125722)
(0.63424272 0.041319762 0.011073875)
(0.66216872 0.03769883 0.011052982)
(0.69046962 0.033846271 0.011016806)
(0.71912112 0.0297607 0.010986984)
(0.7481057 0.025454352 0.010964414)
(0.77741302 0.020926695 0.010940328)
(0.80702618 0.016181994 0.010920646)
(0.8369297 0.01122484 0.010903521)
(0.86711016 0.0060594423 0.01088969)
(0.89755524 0.00068919446 0.010874959)
(0.9282494 -0.0048813843 0.010865168)
(0.95918284 -0.010647533 0.010852933)
(0.99034101 -0.016607516 0.010843733)
(1.0217149 -0.022753736 0.01083208)
(1.0532907 -0.029086404 0.010821429)
(1.0850596 -0.03559763 0.010808126)
(1.1170095 -0.042286705 0.01079431)
(1.1491313 -0.049146492 0.010776937)
(1.1814129 -0.056176145 0.01075907)
(1.2138458 -0.063368028 0.010736865)
(1.2464188 -0.070720909 0.010713277)
(1.2791213 -0.078227808 0.010687047)
(1.3119443 -0.085884067 0.010656418)
(1.3448787 -0.093688664 0.010628368)
(1.3779013 -0.10163249 0.010591965)
(1.4110437 -0.10969381 0.010566232)
(1.4442392 -0.11791073 0.010516847)
(1.4775044 -0.12625967 0.010496898)
(1.5108295 -0.13470718 0.010464256)
(1.5442032 -0.1432775 0.010433505)
(1.5776171 -0.1519491 0.010406076)
(1.6110687 -0.16072656 0.010375177)
(1.6445381 -0.16959557 0.010351257)
(1.678026 -0.17855973 0.010326687)
(1.7115166 -0.18760685 0.01030985)
(1.7450143 -0.19673332 0.010290175)
(1.7784964 -0.20593739 0.01028242)
(1.8119764 -0.21520425 0.010269016)
(1.8454277 -0.22454284 0.010270268)
(1.8788688 -0.23392575 0.010261518)
(1.9122689 -0.24338805 0.010278689)
(1.9456499 -0.25286307 0.010271065)
(1.9789951 -0.26242446 0.010295519)
(2.0123016 -0.27199092 0.010306694)
(2.0455681 -0.28161667 0.010336077)
(2.078799 -0.29125189 0.010348306)
(2.1119854 -0.30095663 0.01039149)
(2.1451437 -0.31064228 0.010400934)
(2.1782391 -0.32039495 0.010450934)
(2.2113179 -0.3301644 0.010472215)
(2.2443417 -0.33993538 0.01050004)
(2.2773542 -0.34979018 0.010518403)
(2.310334 -0.35961292 0.010520806)
(2.3433222 -0.36951359 0.010509642)
(-0.0028516098 0.0038750679 0.0065561415)
(-0.0033962543 0.0050822655 0.0077248415)
(-0.0029012354 0.0080146463 0.0089719313)
(-0.001395144 0.010455408 0.0095463278)
(0.0010383949 0.013380053 0.010083723)
(0.0041766533 0.016049235 0.010422059)
(0.0085335988 0.018950416 0.010661964)
(0.013608786 0.021571406 0.010677009)
(0.0196007 0.024360069 0.010927827)
(0.026540356 0.026876788 0.010800353)
(0.034321584 0.029438939 0.010941444)
(0.042931814 0.031811592 0.010803689)
(0.052373777 0.034112833 0.010898972)
(0.062723721 0.03628926 0.01071115)
(0.073729038 0.038271669 0.010810859)
(0.085704584 0.040179236 0.0106363)
(0.098314077 0.041861185 0.010646277)
(0.11179366 0.04342397 0.010552485)
(0.12595165 0.044765747 0.010518985)
(0.14092634 0.045963382 0.010424065)
(0.15654224 0.046933367 0.010392374)
(0.17295142 0.047738928 0.010310844)
(0.18999324 0.04831966 0.010258498)
(0.2077726 0.048710408 0.010195046)
(0.22618686 0.048872684 0.010144345)
(0.24528557 0.048824454 0.010089858)
(0.26500238 0.048564585 0.010031165)
(0.28536474 0.048064413 0.0099917475)
(0.30632578 0.047348313 0.0099428384)
(0.32789475 0.046399215 0.0098979981)
(0.35003164 0.045220881 0.0098602155)
(0.3727515 0.043803462 0.0098268708)
(0.39600998 0.042154854 0.0097895987)
(0.41980876 0.040272812 0.0097633445)
(0.44413061 0.038140468 0.0097336204)
(0.46894977 0.035789725 0.0097099303)
(0.49427325 0.033174012 0.0096861772)
(0.52009474 0.03034386 0.0096572263)
(0.54631919 0.027260493 0.0096434974)
(0.5729986 0.023970346 0.0096417048)
(0.6000935 0.020429697 0.0096234196)
(0.62759758 0.016659605 0.0096263897)
(0.65548808 0.012669436 0.0096156229)
(0.68374893 0.0084505867 0.0096119292)
(0.71236501 0.0040157794 0.0096159952)
(0.74131974 -0.00063833483 0.0096205854)
(0.77059921 -0.0055053171 0.0096252605)
(0.80018492 -0.010581364 0.0096367472)
(0.8300632 -0.015863268 0.0096473674)
(0.86022027 -0.021346051 0.0096601968)