/*--------------------------------*- C++ -*----------------------------------*\
  =========                 |
  \\      /  F ield         | OpenFOAM: The Open Source CFD Toolbox
   \\    /   O peration     | Website:  https://openfoam.org
    \\  /    A nd           | Version:  6
     \\/     M anipulation  |
\*---------------------------------------------------------------------------*/
FoamFile
{
    version     2.0;
    format      ascii;
    class       pointVectorField;
    location    "1.47";
    object      u;
}
// * * * * * * * * * * * * * * * * * * * * * * * * * * * * * * * * * * * * * //

dimensions      [0 1 0 0 0 0 0];

internalField   nonuniform List<vector> 
3969
(
(0 0 0)
(0 0 0)
(0.74207208 0.048911194 0.027424177)
(0.72036239 -0.15766734 0.028101823)
(0 0 0)
(0 0 0)
(0.71837006 -0.16310196 0.027959803)
(0.74009688 0.043296884 0.027155211)
(0 0 0)
(0 0 0)
(0 0 0)
(0 0 0)
(0 0 0)
(0 0 0)
(0 0 0)
(0.73906143 0.022275153 0.0270563)
(0.73601124 -0.0034209656 0.027268719)
(0.733122 -0.028874299 0.02739732)
(0.73042802 -0.054207191 0.02772262)
(0.72787086 -0.079588051 0.027945888)
(0.72535482 -0.10512635 0.028210642)
(0.72302084 -0.13099881 0.028246129)
(0.00065053939 0.0022292783 0.0025906132)
(0.00059210819 0.0039549905 0.0033854374)
(0.0011262301 0.0063569497 0.0041586182)
(0.0024590277 0.0085511468 0.0046408519)
(0.0041847267 0.011232777 0.0051449679)
(0.0068150046 0.013732036 0.0055689281)
(0.0098296786 0.016536438 0.0060655912)
(0.013818747 0.019243348 0.0065122596)
(0.018301864 0.022174384 0.007034614)
(0.023706636 0.02493161 0.0074772241)
(0.029751179 0.027941411 0.0080307913)
(0.036663608 0.030776434 0.0085172543)
(0.044333272 0.03375288 0.0090099509)
(0.052835895 0.036627965 0.0095416119)
(0.062199111 0.039544696 0.010010056)
(0.072332421 0.042346596 0.010521057)
(0.083346266 0.04516481 0.011016171)
(0.095168224 0.047848089 0.011509181)
(0.10784663 0.050495216 0.012008298)
(0.12133341 0.053002725 0.012494006)
(0.13565366 0.055409693 0.013003248)
(0.15076849 0.057676614 0.013494628)
(0.16668119 0.059798245 0.014009685)
(0.18336095 0.061759355 0.01452053)
(0.20079081 0.063528773 0.01504586)
(0.21894344 0.065148581 0.01558039)
(0.23779302 0.066556601 0.016130697)
(0.2573203 0.067760749 0.01668246)
(0.27749767 0.068771818 0.017251598)
(0.29827268 0.069550939 0.017829942)
(0.3196409 0.070131342 0.018413824)
(0.34155846 0.07048225 0.019005378)
(0.36399408 0.070621332 0.019598003)
(0.38691798 0.070535607 0.020191263)
(0.41030968 0.070250026 0.02077634)
(0.43411136 0.069712864 0.021368917)
(0.45832657 0.069046793 0.021924118)
(0.4828873 0.068041856 0.022505818)
(0.50779146 0.067029808 0.023017196)
(0.53299229 0.065593454 0.023600819)
(0.55846621 0.064218245 0.024061436)
(0.58416449 0.062473171 0.024619447)
(0.61008769 0.060594046 0.025107344)
(0.63614632 0.058712144 0.025565009)
(0.66236423 0.056333095 0.026141549)
(0.68866714 0.054175787 0.026590676)
(0.71493509 0.051763295 0.027246393)
(-0.00038570393 -0.0016601116 -0.0024934999)
(5.7139667e-05 -0.0030742828 -0.0025553389)
(0.00013512308 -0.004661346 -0.0035576262)
(0.0014254193 -0.0067734488 -0.0032865178)
(0.0032053707 -0.0087995229 -0.0035053256)
(0.0055474948 -0.01114842 -0.0032652193)
(0.0086902161 -0.013487096 -0.0031753589)
(0.012349629 -0.016077851 -0.0029240693)
(0.016748367 -0.018627257 -0.0027046403)
(0.021931115 -0.021516576 -0.0023942464)
(0.027661036 -0.024233848 -0.0021053899)
(0.034324823 -0.027346637 -0.0017728158)
(0.041602159 -0.030339233 -0.0013885937)
(0.04971065 -0.033533829 -0.0010035831)
(0.058571867 -0.036796915 -0.00056078444)
(0.068233239 -0.040136585 -0.00011032589)
(0.07870758 -0.043574061 0.00039717665)
(0.089942924 -0.047048162 0.00091625207)
(0.10201595 -0.05062386 0.0014961425)
(0.11487477 -0.054237635 0.0020898893)
(0.12849385 -0.057911727 0.0027454468)
(0.14295653 -0.061638661 0.0034164488)
(0.15812418 -0.065402229 0.00415729)
(0.17411854 -0.069236694 0.0049190106)
(0.19077235 -0.07304655 0.0057118353)
(0.20821458 -0.076936183 0.0065521197)
(0.22626144 -0.080785299 0.0074276937)
(0.24507658 -0.084728099 0.0083395217)
(0.26451454 -0.088632077 0.0092617767)
(0.28457647 -0.092556905 0.010224538)
(0.30524901 -0.096491117 0.011203511)
(0.32647513 -0.10042279 0.01220021)
(0.34825595 -0.10434608 0.013211296)
(0.37053752 -0.108264 0.014224886)
(0.39331017 -0.11215339 0.015248255)
(0.41652612 -0.11602888 0.016259257)
(0.44017714 -0.11986082 0.017273088)
(0.46420503 -0.12364335 0.018280288)
(0.48861771 -0.12740661 0.019277702)
(0.51335302 -0.13107258 0.02025983)
(0.53840263 -0.13470594 0.021243394)
(0.56373064 -0.13824732 0.022210657)
(0.58929762 -0.14169084 0.023169367)
(0.61510234 -0.14507094 0.024137185)
(0.64105396 -0.14831858 0.025089464)
(0.66722771 -0.15146195 0.026024399)
(0.69348446 -0.15460701 0.027011126)
(0 0 0)
(0 0 0)
(0 0 0)
(0 0 0)
(0 0 0)
(0 0 0)
(0 0 0)
(0.00069197134 -0.0013260716 0.0020992524)
(0.0006189279 -0.0046281037 0.0033995451)
(0.00059912512 -0.005233475 0.0040048176)
(0.0019153967 -0.0085865906 0.00465888)
(0.0034151933 -0.010470146 0.0052977737)
(0.0058161663 -0.013230452 0.0056207473)
(0.008769423 -0.01594366 0.0063376506)
(0.012346399 -0.018487185 0.0066023224)
(0.016717352 -0.021695085 0.0073909896)
(0.021658512 -0.024243492 0.0076212708)
(0.027424992 -0.02777724 0.0085123447)
(0.033883058 -0.030536547 0.008837769)
(0.041070416 -0.033911812 0.0095073432)
(0.049213837 -0.037270942 0.010002866)
(0.057885219 -0.040472502 0.010518399)
(0.067605563 -0.044193104 0.011090946)
(0.077914311 -0.047513088 0.011567189)
(0.089173316 -0.051320132 0.012115456)
(0.1011352 -0.054890811 0.012607992)
(0.11395538 -0.058734207 0.01312805)
(0.12752416 -0.062489277 0.013631182)
(0.1418979 -0.066402133 0.014154476)
(0.15702644 -0.070274436 0.014662367)
(0.17290587 -0.074232905 0.015195111)
(0.18954476 -0.078216395 0.015703914)
(0.20694986 -0.082210813 0.016197925)
(0.22495511 -0.086280418 0.016774726)
(0.2436552 -0.090295452 0.017328081)
(0.26300709 -0.094333681 0.017910474)
(0.28299153 -0.098354419 0.018490777)
(0.3035723 -0.10235727 0.019073732)
(0.32472894 -0.10634187 0.019666509)
(0.34643033 -0.11030354 0.020260283)
(0.3686529 -0.11422313 0.020850049)
(0.39136015 -0.11811173 0.021437737)
(0.4145462 -0.12197175 0.022019711)
(0.43814271 -0.12572813 0.022578833)
(0.46215369 -0.12952113 0.023150376)
(0.48653853 -0.13319379 0.023685483)
(0.51127675 -0.1368322 0.024219784)
(0.5363176 -0.14039535 0.02472837)
(0.56166477 -0.14389497 0.025232384)
(0.58723888 -0.14729975 0.025718612)
(0.6130612 -0.15063761 0.026202079)
(0.63903977 -0.15385765 0.026673167)
(0.66522397 -0.15699624 0.027166768)
(0.69144173 -0.16014928 0.027616649)
(0.7211384 -0.13646164 0.027635867)
(0.72340638 -0.11063797 0.027496058)
(0.72591369 -0.085068215 0.027520208)
(0.72849584 -0.059783402 0.027532956)
(0.73111429 -0.03440983 0.027683514)
(0.73398598 -0.0090093949 0.027633688)
(0.73714333 0.016649535 0.027609532)
(0.71315623 0.046155673 0.025934657)
(0.68665612 0.048472547 0.025054262)
(0.6603959 0.050799751 0.024085357)
(0.63420823 0.052964413 0.02317379)
(0.60814269 0.054956375 0.022210068)
(0.58224486 0.056774596 0.021248663)
(0.55655096 0.058407345 0.020287621)
(0.5310799 0.059859259 0.019311118)
(0.50587988 0.061122605 0.018325499)
(0.48097322 0.062210964 0.017332182)
(0.45638007 0.063093436 0.01632883)
(0.43222363 0.063758591 0.015340936)
(0.40836401 0.064288428 0.014314514)
(0.38498194 0.064579142 0.013307787)
(0.36204774 0.064697305 0.012293097)
(0.33961376 0.064599066 0.011296063)
(0.3177003 0.064316458 0.010308413)
(0.29635061 0.063820255 0.0093391623)
(0.27558582 0.063138412 0.0083932381)
(0.25544926 0.06224147 0.007477734)
(0.23595788 0.061172474 0.0065840414)
(0.21714966 0.059886033 0.005737029)
(0.19904958 0.058441997 0.0049157858)
(0.1816718 0.05678929 0.0041419661)
(0.16505495 0.054999668 0.0033925024)
(0.14920822 0.053013911 0.0027030198)
(0.13415142 0.050921262 0.0020258217)
(0.11990483 0.048646942 0.0014221624)
(0.10647334 0.046298178 0.00082128182)
(0.093870767 0.043799342 0.00029020076)
(0.082095364 0.041246465 -0.00022792422)
(0.071159131 0.038602077 -0.00070538231)
(0.061030007 0.035933037 -0.0011348754)
(0.051810486 0.033112625 -0.0015098198)
(0.043384713 0.030381486 -0.0019287951)
(0.035716399 0.027620203 -0.0021968885)
(0.028881543 0.024902716 -0.0025700974)
(0.02282006 0.022112773 -0.0027921526)
(0.017461774 0.019533122 -0.00310477)
(0.012976959 0.016739766 -0.0032685509)
(0.0091056623 0.014397145 -0.0034666078)
(0.0059367732 0.011761115 -0.0035489312)
(0.0034759209 0.0095488004 -0.0037012606)
(0.001639994 0.0071641072 -0.0035537058)
(0.00056718584 0.0052614593 -0.003447603)
(-4.545374e-05 0.0030801137 -0.0029943567)
(0.0010014254 0.0016854884 -0.00165096)
(0 0 0)
(0 0 0)
(0 0 0)
(0 0 0)
(0 0 0)
(0 0 0)
(0 0 0)
(0 0 0)
(0 0 0)
(0 0 0)
(0 0 0)
(0 0 0)
(0 0 0)
(0 0 0)
(0.72015918 -0.15859031 0.028016945)
(0.71996838 -0.15938047 0.02800555)
(0.71973834 -0.16009781 0.028010178)
(0.71950876 -0.16082759 0.028038972)
(0.71926427 -0.1615165 0.028064953)
(0.7189933 -0.16214049 0.028084496)
(0.71872792 -0.16279709 0.028002292)
(0.74207947 0.048507144 0.027412524)
(0.7418713 0.047812705 0.027432005)
(0.74164398 0.047142115 0.027351498)
(0.74141265 0.046449083 0.027293503)
(0.74115551 0.045745827 0.027224462)
(0.74086588 0.044988205 0.027166119)
(0.74064294 0.044317816 0.02716195)
(-0.00013638965 0.002050386 0.0024934104)
(-0.00023554202 0.0035607146 0.0026748938)
(0.00019160795 0.0053880441 0.0033320889)
(0.0013793308 0.0071978748 0.0037437783)
(0.0030816576 0.0090784581 0.0041355284)
(0.0056486324 0.011131813 0.0045525126)
(0.0086326399 0.013105307 0.0049674845)
(0.012547086 0.015302451 0.0054285145)
(0.017033218 0.01735289 0.0058230052)
(0.022374261 0.019530413 0.0063409911)
(0.028364505 0.021707092 0.0068017193)
(0.035232806 0.023811568 0.0072553743)
(0.042830068 0.026030563 0.00776434)
(0.051288288 0.02811673 0.0082308596)
(0.060541791 0.030219757 0.0087303277)
(0.070638197 0.032251173 0.009217558)
(0.081563219 0.034254976 0.0097129836)
(0.093322485 0.036141797 0.01021633)
(0.10591414 0.037982378 0.010712843)
(0.11934094 0.039699514 0.011224107)
(0.13357972 0.04131544 0.011739283)
(0.14862315 0.042809213 0.012261216)
(0.16446643 0.044169358 0.012797512)
(0.18105715 0.045373689 0.013345185)
(0.19843092 0.046447305 0.01390691)
(0.21651968 0.047330085 0.014468142)
(0.23530552 0.0480568 0.015053215)
(0.25477495 0.048613058 0.015653482)
(0.27488995 0.048971953 0.016261792)
(0.29561195 0.049153861 0.016883673)
(0.31693059 0.049152375 0.017513409)
(0.33879967 0.048948532 0.018151119)
(0.36118927 0.048564389 0.018792122)
(0.38408184 0.04799152 0.01943182)
(0.40743086 0.047222056 0.020072861)
(0.43119784 0.046279973 0.020704668)
(0.45539636 0.04516467 0.021319689)
(0.47992079 0.043842723 0.021950301)
(0.50482323 0.042409581 0.022535197)
(0.53001116 0.040738863 0.023145124)
(0.55546433 0.039023207 0.023693702)
(0.581181 0.036983163 0.024308839)
(0.60710515 0.035017166 0.024791532)
(0.63317744 0.032743646 0.025398377)
(0.65944186 0.030344633 0.025916498)
(0.68570285 0.028008481 0.026424956)
(0.71215133 0.025114906 0.026908256)
(-0.00091167018 0.0014271834 0.0018090296)
(-0.00093242605 0.0023085425 0.0018000647)
(-0.00044071287 0.0039438736 0.0024199135)
(0.00068470019 0.0050149127 0.0026834082)
(0.0024784009 0.0065103191 0.0031024383)
(0.0047703086 0.0078431648 0.0034226022)
(0.0078322431 0.0093494542 0.0038834691)
(0.011647511 0.010760901 0.0041642863)
(0.016070274 0.012222475 0.0047193168)
(0.021294868 0.013682735 0.005100321)
(0.027305726 0.015129586 0.0055389984)
(0.034049738 0.016542142 0.0060289959)
(0.041628823 0.017989216 0.0064879303)
(0.050022647 0.019295208 0.0069809982)
(0.059233967 0.020657439 0.0074761419)
(0.069257094 0.021909739 0.0079558231)
(0.08012121 0.023155204 0.0084527322)
(0.091797388 0.024275629 0.0089585725)
(0.10433153 0.025363684 0.0094647422)
(0.11768031 0.026312527 0.0099911626)
(0.13185483 0.027183077 0.010521101)
(0.14684637 0.027937259 0.011056324)
(0.16259369 0.028550485 0.011622641)
(0.17915341 0.029075134 0.012184152)
(0.19644504 0.029419591 0.01276599)
(0.21445089 0.029651003 0.013383524)
(0.23317497 0.029719933 0.014008211)
(0.25257686 0.029622839 0.014637739)
(0.27260875 0.029388175 0.015301258)
(0.29328038 0.028975761 0.015963556)
(0.31453316 0.028411606 0.016638312)
(0.33634286 0.027669397 0.017330229)
(0.35868687 0.026781466 0.018011747)
(0.38152594 0.025717318 0.018708566)
(0.40482265 0.024503441 0.019397346)
(0.42856678 0.023133521 0.02008161)
(0.45271392 0.021626936 0.020759027)
(0.47719681 0.019918545 0.02144642)
(0.50209809 0.018200574 0.022062272)
(0.52720508 0.016171133 0.022758204)
(0.55271058 0.014208291 0.02334519)
(0.57836526 0.011959098 0.024002297)
(0.60431757 0.0097485512 0.024580672)
(0.63036605 0.0072814269 0.025230116)
(0.65663412 0.0047939613 0.025787046)
(0.68297071 0.0021364725 0.0263461)
(0.70954939 -0.0006999925 0.026842003)
(-0.001706025 0.00088767354 0.0012846533)
(-0.0015389258 0.0015565306 0.0013165995)
(-0.0012180588 0.0023601155 0.0016432706)
(8.1340971e-05 0.0031639749 0.0018495471)
(0.0016253465 0.0039252305 0.0021413116)
(0.0041983651 0.0048434343 0.0024389831)
(0.0072085465 0.0055006465 0.0026764778)
(0.011021035 0.0064059049 0.0031317298)
(0.015427088 0.0070765137 0.0034872719)
(0.02077083 0.0078848774 0.0038190923)
(0.026610271 0.0086060105 0.0043190169)
(0.033397188 0.0092902631 0.0047256874)
(0.040872062 0.009989441 0.0051714827)
(0.049193215 0.010580693 0.0056583142)
(0.058302896 0.011204053 0.0061413697)
(0.068271965 0.01171056 0.0066032115)
(0.079048935 0.012186317 0.0071230878)
(0.090674629 0.012570264 0.0076067474)
(0.10313268 0.012874833 0.0081469888)
(0.11639171 0.013090403 0.0086763965)
(0.13048149 0.013220115 0.009235699)
(0.14533571 0.013221527 0.009817348)
(0.161035 0.013155192 0.010409668)
(0.17747549 0.012923937 0.011012275)
(0.19466642 0.012599472 0.01166633)
(0.21259996 0.012140325 0.012301266)
(0.23125944 0.011550086 0.012954007)
(0.25057355 0.010826441 0.013646668)
(0.27055751 0.0099741665 0.014336354)
(0.29115777 0.0089733003 0.015042102)
(0.31234076 0.0078445399 0.01577184)
(0.33409828 0.0065736179 0.016497304)
(0.35637764 0.0051691352 0.017235754)
(0.37915851 0.0036321288 0.017977593)
(0.4024104 0.0019582009 0.018716086)
(0.42610333 0.00018307825 0.019444739)
(0.45018545 -0.0017653053 0.020187286)
(0.47468322 -0.0037408364 0.020882832)
(0.49950027 -0.0059037239 0.021601279)
(0.52463227 -0.0081519644 0.022323117)
(0.55007236 -0.010397798 0.022953496)
(0.57571712 -0.012929978 0.023719672)
(0.60165065 -0.015312109 0.024296949)
(0.62771718 -0.017990459 0.025037584)
(0.65405849 -0.020625591 0.025601584)
(0.68042138 -0.023346235 0.026257292)
(0.70693131 -0.026193875 0.026869074)
(-0.0017678888 0.00032506324 0.00038578949)
(-0.0014878356 0.00040646984 0.00021315076)
(-0.0012469207 0.00079104109 0.00048144595)
(-0.0001111315 0.00098007141 0.00069357158)
(0.0016569797 0.0011889056 0.00096377141)
(0.0039849725 0.0014553928 0.0011800113)
(0.0070101861 0.0015297215 0.0016264658)
(0.010658255 0.0017753306 0.0018945304)
(0.015132399 0.0018055549 0.00226734)
(0.020199049 0.0019553559 0.0027493595)
(0.026105628 0.0018952341 0.0031372251)
(0.032813752 0.0019286716 0.0035285632)
(0.040245161 0.0018639087 0.0039803059)
(0.048557548 0.001685787 0.0044404966)
(0.057613964 0.0015871834 0.0048627293)
(0.067558286 0.0012841641 0.0053733289)
(0.078260289 0.0010564722 0.0058348387)
(0.08983901 0.00063944608 0.0063630179)
(0.10219662 0.00021205302 0.0068909369)
(0.11540871 -0.00032460634 0.0074282569)
(0.12942711 -0.00096618266 0.0080055149)
(0.1442937 -0.0016572227 0.0085717256)
(0.15989117 -0.0025003689 0.0091765783)
(0.17626522 -0.0034067538 0.0098133479)
(0.19339994 -0.0044240438 0.010448598)
(0.21126699 -0.0055453345 0.011109242)
(0.22981767 -0.006774852 0.011827428)
(0.2490525 -0.0081290314 0.012548854)
(0.26894043 -0.0095783914 0.013281429)
(0.28944515 -0.011161885 0.014056973)
(0.31055006 -0.012836861 0.014820418)
(0.33221951 -0.014641129 0.015611985)
(0.35441706 -0.016544812 0.01640165)
(0.37712569 -0.018556469 0.017200537)
(0.40030085 -0.020661429 0.017990549)
(0.42391534 -0.022886757 0.018796067)
(0.44795258 -0.025156456 0.019572012)
(0.47234922 -0.027552884 0.020359981)
(0.49710249 -0.030028503 0.021151026)
(0.52216472 -0.032516042 0.021877481)
(0.54756449 -0.035135299 0.02265454)
(0.57316694 -0.037788196 0.023393421)
(0.59908536 -0.040407251 0.024087185)
(0.62513426 -0.043224964 0.024875144)
(0.65141071 -0.045888395 0.025538653)
(0.67774388 -0.048716887 0.026332102)
(0.70428215 -0.051514793 0.026999975)
(-0.0018572509 -0.00024428393 -0.00035492988)
(-0.0015872001 -0.00050328796 -0.00036698374)
(-0.0015559702 -0.00071752467 -0.00023171376)
(-0.00016032735 -0.0010580185 -0.00017669973)
(0.0013202666 -0.0014436398 1.099672e-05)
(0.003857078 -0.0017434872 0.00024132932)
(0.00672349 -0.0023426803 0.00052722877)
(0.010616776 -0.0026792558 0.00071086373)
(0.014886349 -0.0034000842 0.0011536516)
(0.020132846 -0.0039240948 0.0014295363)
(0.025975397 -0.0046914812 0.0017510738)
(0.032637332 -0.0052923623 0.0021815956)
(0.040045534 -0.0062161943 0.0026125481)
(0.04827064 -0.0069663008 0.0030293257)
(0.057286742 -0.0079413148 0.0035176097)
(0.067121976 -0.0089111344 0.0039985438)
(0.077787242 -0.0099638497 0.0044946596)
(0.089265729 -0.011108792 0.0050178057)
(0.10157731 -0.012284133 0.0055527298)
(0.11469649 -0.013588811 0.0061188858)
(0.12864132 -0.01491364 0.0067081192)
(0.14333017 -0.016378566 0.0073319077)
(0.15883214 -0.01788921 0.0079922248)
(0.17510531 -0.019519593 0.0086501964)
(0.19214777 -0.021228786 0.0093509623)
(0.20989349 -0.02302279 0.010084782)
(0.22836842 -0.02492253 0.010836871)
(0.24751792 -0.026898676 0.011589493)
(0.26732068 -0.02896909 0.012385984)
(0.28774473 -0.031125105 0.013183144)
(0.30876786 -0.03336614 0.014002232)
(0.33035529 -0.03569846 0.014835131)
(0.35247933 -0.038111227 0.015675022)
(0.37510879 -0.040587567 0.016513126)
(0.39820853 -0.043168339 0.017369591)
(0.42176464 -0.045772828 0.018199987)
(0.44571116 -0.048466948 0.019041207)
(0.47007717 -0.051224585 0.019882824)
(0.49475099 -0.053981395 0.020666237)
(0.51982874 -0.056799817 0.021501164)
(0.54512448 -0.059659499 0.022298318)
(0.57072867 -0.062494467 0.023090778)
(0.59655951 -0.065387696 0.023877648)
(0.62257939 -0.068286135 0.024695282)
(0.64883026 -0.071110514 0.025438128)
(0.67522321 -0.074011456 0.026268879)
(0.70171547 -0.076813774 0.027059477)
(-0.0015742643 -0.00070519501 -0.0011943266)
(-0.0011452122 -0.0015748618 -0.0011892102)
(-0.0010445552 -0.0022206669 -0.0014878851)
(0.00020006262 -0.0032452524 -0.0013037528)
(0.0018328935 -0.0040293156 -0.0012574667)
(0.0042125814 -0.0051321421 -0.00098719506)
(0.0072536593 -0.0062136806 -0.00082091011)
(0.01093176 -0.0073248652 -0.00049633497)
(0.015343539 -0.0086591911 -0.000177835)
(0.02045698 -0.0098578081 0.00011717722)
(0.026318504 -0.011322618 0.00052680569)
(0.032913195 -0.012748853 0.00090262671)
(0.040304291 -0.014305824 0.0012829603)
(0.048489184 -0.0159242 0.0017366614)
(0.057436628 -0.017602591 0.0021625979)
(0.067235307 -0.019365735 0.0026565881)
(0.077811505 -0.021187841 0.0031268472)
(0.089236249 -0.02308017 0.0036657553)
(0.10145385 -0.025060132 0.0042074204)
(0.11449496 -0.027088907 0.0047849925)
(0.12832521 -0.029231321 0.0053910391)
(0.14299691 -0.031351028 0.0060387235)
(0.15838731 -0.03362553 0.0066865178)
(0.17458879 -0.036024975 0.0073890525)
(0.19150771 -0.038417708 0.0081238406)
(0.20915693 -0.040924237 0.0088629261)
(0.22752654 -0.043447492 0.0096434063)
(0.24655936 -0.046062931 0.010460203)
(0.26624444 -0.048721666 0.011288044)
(0.28656221 -0.051463048 0.012145812)
(0.30747259 -0.054260849 0.01301898)
(0.32894995 -0.057116026 0.013910095)
(0.3509685 -0.060022119 0.014804776)
(0.37349107 -0.062991873 0.015714364)
(0.39649514 -0.065978001 0.016613455)
(0.41993805 -0.069026707 0.017521303)
(0.4438125 -0.072093085 0.018423262)
(0.46804963 -0.07516349 0.019304715)
(0.49267812 -0.078295223 0.020205375)
(0.51760356 -0.08139236 0.021070036)
(0.54283583 -0.084481909 0.021939137)
(0.56837048 -0.087546853 0.022781543)
(0.59409493 -0.090654278 0.02366116)
(0.62009486 -0.093631092 0.024485288)
(0.6462333 -0.096615392 0.025355222)
(0.6725674 -0.099538896 0.026264327)
(0.69901599 -0.10230261 0.027186091)
(-0.00099571251 -0.0014998041 -0.0017460613)
(-0.00072272552 -0.002523886 -0.0019438315)
(-0.00067615006 -0.0037808947 -0.0022858833)
(0.00069740807 -0.0051295966 -0.0022788879)
(0.0021400459 -0.0065869904 -0.0022648567)
(0.0047351907 -0.0082439074 -0.0020532571)
(0.0075981127 -0.0099579476 -0.0019335077)
(0.01139938 -0.011740356 -0.0016186096)
(0.015740123 -0.013757803 -0.0014038853)
(0.020837785 -0.015605491 -0.001074141)
(0.026734142 -0.017924687 -0.00069647469)
(0.033233335 -0.0199115 -0.0004475757)
(0.040679423 -0.022359454 4.6458492e-05)
(0.048737542 -0.024642604 0.0003980343)
(0.057704223 -0.027139221 0.0008757234)
(0.067400001 -0.029644242 0.0013275627)
(0.077942899 -0.032250663 0.0018330039)
(0.089283395 -0.034930231 0.0023673973)
(0.10142017 -0.03766565 0.0029143242)
(0.11438398 -0.040480872 0.0035166348)
(0.12813312 -0.043343513 0.004129152)
(0.14265207 -0.046284983 0.0048015029)
(0.15800271 -0.049268011 0.0054841795)
(0.17407586 -0.052342557 0.0062226671)
(0.19089123 -0.05544119 0.0069666658)
(0.20842981 -0.058596598 0.0077574337)
(0.22667595 -0.061803425 0.0086048334)
(0.24559809 -0.065038109 0.0094480253)
(0.26518547 -0.068323569 0.010329002)
(0.28539099 -0.071653142 0.011235331)
(0.30619124 -0.075011771 0.012157692)
(0.32756567 -0.07840332 0.013097843)
(0.3494725 -0.081827438 0.014049815)
(0.37189374 -0.085256631 0.015003785)
(0.39478838 -0.088714762 0.015965942)
(0.41813922 -0.092170762 0.016923588)
(0.44189861 -0.095619229 0.017867954)
(0.46607247 -0.099077608 0.018827301)
(0.49058126 -0.10249609 0.01974657)
(0.51543403 -0.10590589 0.020679663)
(0.54058841 -0.10925514 0.021591425)
(0.56603175 -0.11258808 0.022511871)
(0.59169077 -0.11585411 0.023419006)
(0.61760792 -0.11901754 0.024300598)
(0.64364309 -0.12218098 0.025253592)
(0.66991304 -0.12516684 0.026139285)
(0.69625229 -0.12802914 0.027134153)
(0 0 0)
(0 0 0)
(0 0 0)
(0 0 0)
(0 0 0)
(0 0 0)
(0 0 0)
(0 0 0)
(0 0 0)
(0 0 0)
(0 0 0)
(0 0 0)
(0 0 0)
(0 0 0)
(0 0 0)
(0 0 0)
(0 0 0)
(0 0 0)
(0 0 0)
(0 0 0)
(0 0 0)
(0 0 0)
(0 0 0)
(0 0 0)
(0 0 0)
(0 0 0)
(0 0 0)
(0 0 0)
(0 0 0)
(0 0 0)
(0 0 0)
(0 0 0)
(0 0 0)
(0 0 0)
(0 0 0)
(0 0 0)
(0 0 0)
(0 0 0)
(0 0 0)
(0 0 0)
(0 0 0)
(0 0 0)
(0 0 0)
(0 0 0)
(0 0 0)
(0 0 0)
(0 0 0)
(0 0 0)
(0 0 0)
(0.0003692722 -0.00041884144 -0.0013513296)
(0.00065515682 -0.00061546618 -0.0010266437)
(0.00093645719 -0.00066173114 -0.00052516652)
(0.0010508416 -0.00071451552 -0.00015889653)
(0.0010656238 -0.00067775922 0.0002390572)
(0.0010287896 -0.00076190978 0.00067915855)
(0.00079772746 -0.0004420181 0.0010898694)
(0.00084801067 -0.0030054853 -0.0021299105)
(0.0013418717 -0.0034879066 -0.0011600168)
(0.0015914628 -0.0033195016 -0.00048654332)
(0.0017331339 -0.0032615708 0.00014440221)
(0.0017509851 -0.0035526202 0.0007518105)
(0.0015393688 -0.0035676834 0.0015073263)
(0.0012611252 -0.0035922082 0.0024015774)
(0.00096857424 -0.0042125951 -0.0024702599)
(0.0017054832 -0.0040224892 -0.0017746775)
(0.0021966476 -0.004428547 -0.00054042318)
(0.0022700899 -0.0045001403 8.7533166e-05)
(0.002307557 -0.0044476466 0.0011919322)
(0.0019808887 -0.0046186832 0.0018740629)
(0.001544361 -0.0050683023 0.003188254)
(0.0026112065 -0.0069699631 -0.0023335415)
(0.0031256443 -0.0072736636 -0.00145525)
(0.0035619784 -0.007321922 -0.00041938423)
(0.0037215812 -0.0074166603 0.0004386165)
(0.003682983 -0.0075439951 0.0014836564)
(0.0033030102 -0.0079176371 0.0025314287)
(0.0027468002 -0.007816271 0.003558348)
(0.0040650627 -0.0088158295 -0.0024412227)
(0.0048721983 -0.0089586203 -0.0015063837)
(0.0054231182 -0.0091778106 -0.00029533527)
(0.005530871 -0.0092960367 0.00078019007)
(0.0054972455 -0.0095777328 0.0018737362)
(0.0051269463 -0.0097497285 0.0029165168)
(0.0045025055 -0.010083913 0.00421717)
(0.0067684272 -0.011549558 -0.0021636924)
(0.0073840464 -0.011678149 -0.0012276682)
(0.0078832228 -0.011828978 2.3320189e-05)
(0.0079915689 -0.012131154 0.00092555912)
(0.0079379008 -0.01218353 0.0022740477)
(0.0073986373 -0.012502273 0.0033453086)
(0.0067800347 -0.012703004 0.0045124351)
(0.0096873467 -0.013689994 -0.0020498156)
(0.010420596 -0.013884206 -0.00088779873)
(0.010925486 -0.014297569 0.00023296486)
(0.011118554 -0.014457251 0.0014305396)
(0.011001084 -0.014836498 0.0026548705)
(0.010620515 -0.015231354 0.0037949269)
(0.0098865137 -0.015468749 0.0051704266)
(0.013498327 -0.01647547 -0.0017225057)
(0.014268101 -0.016835564 -0.00073476214)
(0.014770326 -0.017031847 0.00065503295)
(0.014850573 -0.017319088 0.001782741)
(0.014678446 -0.017474032 0.0029882711)
(0.014227872 -0.017757571 0.0042495878)
(0.013390304 -0.018004616 0.0054449121)
(0.017958283 -0.01910099 -0.0015207535)
(0.018651887 -0.019279421 -0.00021481632)
(0.019125931 -0.019684687 0.00098411969)
(0.019274231 -0.020057468 0.0021585076)
(0.019151627 -0.020499247 0.0034965408)
(0.018682621 -0.020838952 0.0047424238)
(0.017910174 -0.021239175 0.0061482566)
(0.023006524 -0.021839117 -0.0011391788)
(0.023813738 -0.022330119 7.0414747e-06)
(0.024291412 -0.022601016 0.0012734379)
(0.024492175 -0.023075474 0.0026426402)
(0.024244032 -0.02323751 0.0038992858)
(0.023718714 -0.023571513 0.0051764896)
(0.022876368 -0.023832196 0.0064671398)
(0.02894529 -0.024833673 -0.00080823908)
(0.029661182 -0.025156116 0.00044509705)
(0.030155814 -0.025575689 0.0018764281)
(0.030200433 -0.025835959 0.0030439408)
(0.0300411 -0.026303492 0.0044056939)
(0.029515083 -0.026703577 0.0056856106)
(0.028653883 -0.0271518 0.0071542684)
(0.035442691 -0.027689597 -0.00050633914)
(0.036271761 -0.028201097 0.00088047441)
(0.036713986 -0.028629653 0.0020794264)
(0.036922793 -0.029194751 0.0034801945)
(0.036702609 -0.029519889 0.0048911943)
(0.036069797 -0.02982213 0.0061370275)
(0.03527434 -0.03021715 0.0076144409)
(0.042892648 -0.030967144 -5.7630483e-06)
(0.043561727 -0.031355919 0.0013140782)
(0.044059434 -0.031835737 0.0026584427)
(0.044129595 -0.03213444 0.0040232367)
(0.043889778 -0.032500366 0.0053806899)
(0.04329548 -0.033028276 0.0066825047)
(0.042403254 -0.033334332 0.0081618911)
(0.050908549 -0.034024185 0.00033152094)
(0.051669989 -0.034560971 0.0017108148)
(0.052205055 -0.035079581 0.0030156649)
(0.05229839 -0.035567391 0.0044102871)
(0.052097326 -0.036097298 0.00585453)
(0.051467658 -0.036439776 0.0071292348)
(0.050604277 -0.036837757 0.0086910246)
(0.059822026 -0.037450412 0.00081223717)
(0.060564948 -0.037938171 0.0022287339)
(0.061023217 -0.038394358 0.0035378339)
(0.061092122 -0.038841216 0.0050024536)
(0.060855632 -0.039208529 0.0063426368)
(0.060206466 -0.03963957 0.0077089333)
(0.059305228 -0.040044523 0.0091969519)
(0.069486305 -0.040758985 0.001267968)
(0.070211225 -0.041279046 0.0026647367)
(0.070717784 -0.041864163 0.0040073936)
(0.070810587 -0.042366464 0.0053924623)
(0.07056302 -0.042868978 0.0068594685)
(0.069929834 -0.043345442 0.0081609065)
(0.069005486 -0.0436958 0.0097328666)
(0.079915445 -0.044240861 0.001766659)
(0.080654446 -0.044807688 0.0032112036)
(0.081139872 -0.045347476 0.0045003174)
(0.081169645 -0.045794596 0.0059973687)
(0.080948077 -0.046296482 0.00736613)
(0.080268305 -0.046673596 0.0087197728)
(0.079360756 -0.047140309 0.010251112)
(0.091184776 -0.047769436 0.0023126814)
(0.09191618 -0.048363842 0.003683983)
(0.092385634 -0.048924579 0.0050566012)
(0.09245583 -0.049498923 0.0064590655)
(0.092193221 -0.049977616 0.0078710932)
(0.091540806 -0.050491763 0.0092253647)
(0.090590269 -0.050854438 0.010766414)
(0.10321991 -0.05137466 0.0028456592)
(0.10391182 -0.051949835 0.0042757732)
(0.10440978 -0.052579142 0.0055927704)
(0.1044031 -0.05305977 0.0070291249)
(0.10418707 -0.053614025 0.0084278194)
(0.10348413 -0.054024286 0.0097716799)
(0.10257565 -0.054510305 0.011283249)
(0.11604363 -0.055018308 0.0034664541)
(0.11677019 -0.055680072 0.0048384031)
(0.11720489 -0.056268527 0.0061639723)
(0.11724929 -0.056877364 0.0075822433)
(0.11698447 -0.057375261 0.0089520033)
(0.1163154 -0.057911995 0.010300504)
(0.11537577 -0.0583084 0.011803242)
(0.12968106 -0.05875131 0.0040761767)
(0.13033202 -0.059367583 0.0054486787)
(0.13080424 -0.060046952 0.0067675757)
(0.13078736 -0.060576594 0.0081569552)
(0.1305558 -0.061162137 0.009524552)
(0.1298556 -0.061617242 0.010855385)
(0.12894101 -0.062093889 0.012327243)
(0.14405603 -0.062491183 0.004746488)
(0.14473734 -0.063202283 0.006095136)
(0.14515278 -0.063834246 0.0073841002)
(0.14516256 -0.064467143 0.0087590865)
(0.14489794 -0.064998359 0.010100755)
(0.14421624 -0.065541999 0.011411914)
(0.14329568 -0.065984203 0.012865819)
(0.15923436 -0.066326171 0.0054512654)
(0.15985458 -0.066992911 0.0067693829)
(0.1602781 -0.067697708 0.0080347931)
(0.16025041 -0.06828258 0.009377737)
(0.15999963 -0.068893484 0.010694882)
(0.15931123 -0.069404014 0.01197907)
(0.15840878 -0.069878387 0.013402761)
(0.17513414 -0.07013315 0.0061959601)
(0.17576353 -0.070893942 0.0074720682)
(0.17613294 -0.071557253 0.0087009673)
(0.176121 -0.072234908 0.010024915)
(0.17585095 -0.072797087 0.011302078)
(0.17517549 -0.073342633 0.012568872)
(0.17426866 -0.07381374 0.013961048)
(0.19178022 -0.074032261 0.0069465063)
(0.19238589 -0.074765167 0.008214004)
(0.19271899 -0.075466566 0.0093989972)
(0.19270935 -0.076133822 0.010700478)
(0.19241491 -0.076727556 0.011925581)
(0.19174901 -0.077316346 0.013171127)
(0.19086269 -0.077815234 0.014500383)
(0.20912267 -0.077918446 0.0077546584)
(0.20972921 -0.078674404 0.008966671)
(0.21000289 -0.079406545 0.010117213)
(0.21000677 -0.0800904 0.011420085)
(0.20966869 -0.080693007 0.01254529)
(0.2090704 -0.081291094 0.013769178)
(0.20819022 -0.081778366 0.01502186)
(0.22718751 -0.081847932 0.0085893738)
(0.22773495 -0.082602102 0.0097195402)
(0.22801668 -0.083376895 0.010918622)
(0.22800333 -0.084043378 0.012051723)
(0.22769829 -0.084678041 0.013252856)