/*--------------------------------*- C++ -*----------------------------------*\
  =========                 |
  \\      /  F ield         | OpenFOAM: The Open Source CFD Toolbox
   \\    /   O peration     | Website:  https://openfoam.org
    \\  /    A nd           | Version:  6
     \\/     M anipulation  |
\*---------------------------------------------------------------------------*/
FoamFile
{
    version     2.0;
    format      ascii;
    class       pointScalarField;
    location    "0.24";
    object      E;
}
// * * * * * * * * * * * * * * * * * * * * * * * * * * * * * * * * * * * * * //

dimensions      [1 -1 -2 0 0 0 0];

internalField   nonuniform List<scalar> 
3969
(
1422.6773
1292.2653
-349115.56
-166834.97
1826.9382
1442.1707
-252214.87
-523824.93
741.52894
422.00911
231.36475
221.74704
349.68389
637.84514
1144.9459
-191428.4
-190311.93
-189516.39
-188870.67
-188516.18
-188498.42
-142115.5
1577.7486
1250.083
1394.4513
1448.4855
1544.5142
1604.6065
1648.144
1725.0495
1751.0636
1841.9477
1890.8315
2026.1125
2124.5869
2269.0618
2437.9588
2623.1353
2845.348
3068.2665
3315.4391
3560.6054
3807.627
4049.1144
4268.3263
4456.4036
4627.4669
4758.7885
4827.797
4905.2029
4922.4341
4915.3615
4876.6535
4844.1816
4768.5911
4692.0042
4682.0576
4532.1444
4546.8963
4372.0358
4432.8194
4173.8311
4318.9029
4011.1338
4112.4558
3957.3197
3938.675
3599.6505
3226.8666
1753.7232
1013.5578
1672.675
1416.2821
1720.2714
1641.1213
1747.3441
1756.875
1822.3605
1857.5851
1929.2281
1984.2548
2109.8265
2205.9348
2333.7238
2488.0408
2668.7382
2844.9782
3080.4582
3261.6141
3509.5775
3716.6832
3879.4407
4062.3749
4198.8341
4389.7014
4343.7693
4487.4287
4500.6352
4516.3419
4537.6201
4509.3951
4471.3928
4429.3573
4394.5739
4320.6502
4332.6867
4202.995
4210.5775
4102.7225
4126.7366
4060.9454
3857.8791
3946.61
3782.8446
3745.3358
3816.3111
842.13217
531.38837
258.56782
258.25018
307.4302
561.98254
847.39526
1952.9675
2014.3757
721.77644
2224.0383
1672.3428
1963.6015
2017.2031
1983.3612
2110.7122
1989.3358
2104.3626
2244.3184
2298.2176
2402.1056
2654.3261
2807.2402
3076.571
3319.0196
3597.2056
3875.9524
4162.3467
4429.608
4690.7254
4897.5246
5073.9021
5284.4832
5130.0666
5148.1555
5131.1551
5046.3702
4931.2726
4827.9727
4701.5039
4600.1217
4488.6663
4269.6148
4724.8281
4071.5284
4078.6415
3939.9295
3710.118
3613.3608
3304.463
3182.1735
2968.7274
3024.0112
2008.9525
-405152.95
-337768.2
-406374.41
-382216.39
-384073.83
-343245.31
-415731.31
1294.7882
2713.4237
3674.8939
3668.5816
3800.1872
3822.9978
3943.329
3991.5974
4096.0492
4264.8368
4494.8021
3912.5152
4478.4358
4434.4422
4540.0486
4617.2542
4652.4318
4710.9085
4719.3451
4721.1504
4672.4301
4602.2698
4508.9774
4364.0975
4192.5151
3994.4102
3780.76
3552.004
3322.566
3096.0694
2881.075
2678.6862
2444.8449
2354.4228
2281.3986
2095.3116
1968.0973
1916.8228
1792.9386
1822.0773
1815.9049
1658.1025
1718.715
1548.1405
1479.9544
1242.8863
2130.1189
1107.6102
1080.5176
1061.9368
1076.863
1085.6039
1106.209
1174.4918
761.15187
797.13751
834.58598
900.21574
864.89006
985.66219
766.13849
-188121
-188243.18
-188255.1
-188290.98
-188312.45
-188373.07
-188295.58
-392890.32
-393019.54
-393144.98
-393204.22
-393237.36
-393545
-393635.76
1063.7243
738.69155
837.7749
858.15076
871.52742
942.20299
951.63887
999.341
1036.2075
1095.4183
1170.4128
1241.1201
1329.6158
1458.3729
1589.6172
1747.6866
1930.2314
2126.5728
2340.6797
2576.4046
2815.5082
3055.5143
3303.5204
3531.2734
3773.7271
4014.0741
4165.7865
4372.6435
4513.7354
4629.634
4722.9942
4790.544
4811.4251
4837.4781
4849.3178
4764.5183
4866.0135
4718.6602
4759.3884
4693.4916
4641.6186
4492.4084
4635.9947
4220.0782
4622.9306
4370.8578
4547.277
482.3641
313.93691
407.41792
352.33908
393.51603
405.8259
413.29581
448.08029
463.32913
507.76336
541.19832
609.46012
697.04534
790.53634
895.49513
1027.0648
1171.6713
1335.2697
1523.9258
1741.3664
1985.0153
2245.1833
2524.7049
2831.3366
3145.0233
3411.1211
3631.9621
3908.124
4055.0114
4228.0879
4353.3156
4434.5138
4496.5886
4556.3271
4553.443
4590.714
4627.6141
4460.3498
4676.6134
4383.4754
4658.0427
4369.741
4624.5182
4215.2934
4682.4468
4141.3329
4844.8682
233.14249
74.089557
124.30179
105.07297
115.6078
136.67833
172.11255
187.2576
233.72185
267.27336
316.09115
352.15693
402.35496
475.77397
552.45095
656.09491
764.57788
907.03887
1071.1607
1257.8195
1443.6142
1665.9912
1912.4796
2169.6879
2401.4005
2646.0467
2968.2223
3197.4038
3423.667
3644.6523
3788.9192
3940.8376
4047.7696
4118.8602
4207.7517
4261.3365
4293.8606
4421.6134
4471.0648
4500.4858
4527.4688
4491.9442
4553.7404
4423.6784
4911.4019
4443.0078
4980.5917
162.42596
16.521838
29.240116
1.6595318
14.239254
16.544612
16.048007
26.44173
36.725613
64.498284
84.960478
136.61471
190.64079
241.35947
316.80976
414.59108
532.71661
683.53984
852.89794
1052.7308
1294.4777
1594.8533
1931.4344
2268.4094
2588.4167
2940.5082
3204.9421
3480.267
3723.8999
3928.7264
4084.7125
4237.2802
4320.3241
4419.8788
4481.7025
4516.0556
4586.5719
4570.6096
4639.3227
4474.454
4662.101
4466.6935
4617.9292
4472.166
4622.867
4116.1662
4871.122
300.17953
171.85447
194.21708
168.10274
191.51983
192.39564
227.0055
246.89134
284.06121
314.06592
350.84014
398.28913
450.21808
531.51269
619.64104
719.37746
835.56256
968.36901
1127.5249
1298.8392
1544.2227
1670.3967
1920.8975
2177.4092
2486.6567
2729.5944
3022.2497
3290.2172
3515.7848
3712.3152
3877.5469
4006.3515
4121.8701
4166.1575
4246.116
4297.1736
4231.0893
4429.4423
4242.2458
4345.8145
4240.0932
4311.6867
4297.6321
4324.3688
4303.0363
4462.7008
5077.9612
616.9797
448.40283
509.20973
519.42906
562.81962
564.85687
600.86023
615.76689
640.44836
672.76481
729.49473
785.73537
859.77917
936.74234
1042.3087
1155.2565
1295.5679
1459.9009
1650.4297
1858.4348
2065.1037
2426.7798
2460.05
2712.9282
2944.2214
3215.7083
3446.3512
3674.7739
3861.0704
4035.0943
4159.0692
4273.5161
4334.3314
4420.18
4456.3925
4473.7799
4592.9542
4453.4604
4646.0073
4695.274
4706.5509
4747.8803
4651.3842
4660.3188
4499.6524
4463.1026
4771.6225
874.11819
725.83339
848.13465
862.58922
915.522
957.65727
1000.4466
1050.2616
1113.3826
1171.924
1274.6131
1363.766
1475.6663
1611.8126
1759.0082
1917.281
2092.9461
2272.9793
2471.1099
2663.8335
2919.9676
3079.3815
3412.9991
3558.8132
3841.8208
4057.0817
4272.7899
4440.5964
4619.3802
4737.0027
4818.4839
4890.6691
4916.6562
4918.7061
4893.6957
4879.6778
4770.0107
4840.9645
4649.7695
4631.4407
4486.7847
4448.9984
4365.2454
4333.3059
4196.4551
4487.5509
4098.1952
328.40712
332.62885
231.23942
236.92236
252.88032
295.25867
431.39061
244.3575
211.42093
174.27417
180.60155
185.70491
213.16686
292.72822
116.80673
72.667327
43.887056
38.337436
43.961181
56.948505
136.9363
125.19816
88.979033
74.624945
68.595022
79.879024
97.039683
160.36321
145.55154
89.428502
67.394188
49.746686
60.009104
76.736654
152.58072
305.88177
207.3477
170.00512
152.41683
167.89363
210.81049
320.03696
456.03908
423.81798
331.27295
298.38734
304.23795
325.67691
528.68065
1792.4083
1598.7849
1691.5469
1817.3357
1768.6092
1957.2442
1783.4314
1757.0229
1895.978
1553.4496
1450.7156
1782.895
1709.9451
1930.186
1322.4445
1234.1543
1487.8904
1429.066
1311.4245
1321.0688
1660.0403
1767.7758
1921.7908
1733.6842
1789.1551
1808.9637
1968.7028
1648.3708
1708.987
1645.8932
1782.1103
1730.4532
1732.745
1746.231
1918.7452
1844.1729
1751.6999
1660.1975
1779.8537
1686.403
1721.4275
1708.9264
1796.9032
1785.5099
1867.2495
1845.5232
1910.6753
1936.547
2025.874
1905.4303
1794.7001
1689.8601
1757.7353
1732.6998
1716.9676
1800.8841
1868.815
1861.2844
1938.0003
1858.5512
1904.6769
1937.9703
2052.7213
1992.725
1863.699
1818.3315
1904.5199
1798.0234
1828.7646
1930.2852
2046.3735
1987.4597
1998.6299
1934.6483
1965.0001
2001.7454
1960.5623
2135.48
2058.9762
1970.9681
2023.3482
1993.0957
1913.8234
2073.9794
2247.5804
2128.4598
2164.7562
2112.3582
2117.4223
2187.9144
2173.2063
2355.1121
2295.6989
2260.007
2207.186
2261.2451
2185.6508
2243.986
2510.0262
2428.9279
2409.6333
2424.51
2391.8744
2418.7263
2438.5768
2684.6267
2603.1519
2628.3242
2553.6702
2603.9942
2581.167
2615.6851
2870.6028
2834.6494
2820.777
2801.1953
2827.0755
2818.9148
2828.2728
3108.1553
3040.009
3088.2759
3021.3936
3078.2101
3041.2993
3086.9748
3334.2497
3313.9602
3329.3233
3280.0052
3328.8815
3304.8167
3353.8434
3608.0161
3540.9826
3603.4772
3525.1261
3608.736
3557.1423
3641.313
3851.2429
3811.5637
3850.9985
3784.8406
3870.9996
3813.3647
3914.7048
4111.1968
4028.2536
4107.4108
4008.3256
4106.7458
4029.5799
4180.2833
4320.6768
4255.5141
4306.4656
4225.4584
4337.2059
4277.2946
4440.8272
4509.1795
4427.5347
4480.8002
4379.9765
4496.1106
4423.0802
4617.7999
4679.5744
4580.7101
4597.5666
4596.6434
4643.4075
4569.3579
4775.7983
4780.1299
4684.1027
4692.4921
4640.5217
4710.371
4654.5835
5004.734
4917.344
4736.1926
4802.2913
4713.1499
4928.1344
4769.3614
5012.9092
5006.0285
4757.6563
4849.9064
4714.8276
4841.4996
4717.6334
5001.0379
4941.6393
4781.7278
4821.0353
4717.7642
4805.591
4772.315
4966.853
4968.0332
4726.9521
4836.5201
4668.0745
4818.0817
4720.2432
4905.6648
4899.7961
4725.4904
4791.4223
4628.2362
4750.8421
4646.122
4821.6155
4863.255
4673.6885
4743.665
4571.4823
4708.6651
4600.0287
4753.9258
4793.5225
4621.8999
4702.9185
4529.6689
4654.4889
4529.3923
4672.8679
4727.4818
4583.0054
4656.9237
4473.9218
4603.461
4481.7992
4602.4944
4673.5554
4547.5458
4606.082
4445.5669
4538.9037
4409.1818
4556.6598
4607.9583
4484.2606
4578.703
4376.5112
4521.7449
4472.9716
4475.5293
4554.5124
4479.7948
4486.8789
4359.2566
4493.6278
4173.6726
4479.2995
4405.924
4405.7066
4446.4235
4315.0869
4371.5269
4382.2157
4427.4456
4457.2128
4345.3324
4433.0241
4213.8407
4389.5275
4161.5194
4275.3709
4415.9296
4232.8804
4349.199
4158.8448
4266.4501
4048.4439
4262.6129
4270.0858
4107.6029
4283.0593
4003.8294
4184.6138
3959.4446
4125.7428
4237.2388
4085.3797
4181.8526
4009.0704
4108.5058
3882.3233
4024.2274
4057.5896
3784.7433
4022.7181
3753.9145
3922.6134
3676.2289
3865.252
3962.251
3833.8202
3936.6345
3772.8655
3845.0286
3644.8965
3739.4259
3919.4941
3724.0389
3897.9733
3670.9577
3829.0478
3583.7664
3693.4799
3899.1999
3716.7923
3860.7827
3731.0621
3791.5725
3633.6406
3736.2456
3378.9222
3326.1542
3392.6635
3257.4444
3315.8563
3180.4738
3215.6696
-234224.72
-257975.35
-258099.52
-258098.03
-258125.86
-258189.74
-257924.57
-256668.95
-256219.26
-256333.79
-256379.76
-256388.54
-276286.69
-256516.74
-274627.17
-254538.23
-254534.9
-254544.96
-254597.78
-230659.3
-254502.3
-253715.75
-253375.52
-253647.91
-253660.28
-253698.29
-253538.26
-253743.39
-252888.58
-229369.68
-252854.67
-252821.64
-252724.33
-252775.62
-252736
-229115.58
-271948.03
-252513.94
-252441.24
-272354.02
-252365.97
-252433.41
-271238.97
-251672.84
-251742.36
-251778.53
-228445
-251795.12
-251802.14
1615.674
1464.7226
1444.0199
1401.3877
1477.631
1550.41
1430.8874
1381.87
1237.1938
1277.1721
1314.136
1311.5782
1287.2041
1418.6322
1607.1845
1632.5363
1601.9367
1569.0444
1685.6587
1579.3659
1637.4554
1568.9945
1558.8358
1579.1602
1624.0305
1580.201
1595.9921
1610.705
1702.6434
1687.1618
1694.8441
1690.1926
1724.718
1620.6388
1695.9909
1642.3516
1672.8665
1665.3467
1693.908
1669.3908
1660.4721
1667.7943
1764.9449
1714.1778
1723.2737
1673.2309
1730.476
1740.0175
1731.3283
1718.929
1758.9255
1727.7552
1780.1958
1722.3002
1739.3144
1769.0163
1849.2274
1790.3056
1785.7218
1783.1019
1791.0805
1773.4553
1797.1371
1892.5223
1869.4647
1855.2436
1868.8628
1830.0349
1866.4868
1833.8361
1965.3798
1935.3082
1941.3518
1913.7861
1913.4355
1914.394
1910.5312
2016.4513
2041.042
1991.2009
2035.0581
1998.2923
2041.0494
2023.5357
2178.4714
2164.6719
2144.0852
2144.3345
2094.0414
2125.6435
2043.7026
2234.5973
2293.553
2304.3148
2291.4039
2267.3559
2266.2676
2304.3637
2458.0365
2454.3397
2409.9931
2433.9983
2435.7697
2499.0698
2370.5885
2691.5775
2684.6017
2658.0016
2662.3176
2590.3795
2605.2353
2566.4705
2876.0756
2882.3573
2872.6083
2868.6097
2838.8843
2853.4601
2773.1636
3120.6674
3118.1635
3116.0065
3094.1985
3067.7815
3075.6419
3004.5294
3369.5709
3375.9386
3364.0851
3335.3684
3322.2641
3309.5444
3239.4252
3636.946
3629.8024
3615.943
3585.7449
3573.1979
3548.2457
3489.2367
3898.5482
3879.1963
3873.6392
3818.3241
3814.6994
3780.6909
3729.0944
4153.0528
4118.9052
4109.4864
4042.3038
4055.0896
4002.5796
3957.3323
4380.2794
4325.9079
4321.2049
4253.8822
4264.5463
4196.6603
4165.0735
4576.7043
4516.2759
4517.0632
4431.2964
4456.5079
4377.62
4343.3592
4762.3359
4667.1049
4654.1087
4578.1433
4600.1533
4518.5745
4486.3935
4899.9636
4756.1467
4786.1856
4684.9039
4715.5871
4633.3711
4597.0478
4956.8896
4851.2772
4864.1207
4742.7405
4791.1837
4696.4323
4642.9052
5040.1767
4879.5367
4873.5998
4804.5424
4819.3795
4754.0121
4687.6244
5035.6437
4840.9625
4919.237
4798.5664
4812.7893
4761.423
4674.8394
4993.7319
4884.2199
4862.5815
4782.819
4798.3891
4765.5803
4651.9149
4983.0137
4788.8132
4833.0034
4766.1258
4753.9893
4721.7787
4605.6127
4889.1485
4762.6574
4783.4694
4716.2583
4685.0749
4695.2798
4543.3717
4832.2565
4696.1391
4717.7111
4669.5097
4631.213
4633.4513
4503.8494
4757.6282
4630.0648
4655.878
4627.1949
4574.2481
4626.6542
4412.2858
4701.9439
4565.8679
4610.811
4559.1164
4519.059
4448.7905
4397.9037
4570.3892
4487.628
4533.2138
4505.9647
4447.817
4630.5699
4415.0925
4649.126
4429.4316
4504.5614
4361.0849
4490.788
4179.634
4287.5473
4417.6573
4400.4452
4386.3564
4414.1011
4257.368
4415.9127
4270.3174
4378.0927
4358.4416
4381.4441
4336.4607
4317.4449
4288.1472
4196.7704
4345.0663
4230.8201
4197.4034
4277.7581
4152.8938
4184.1896
4162.127
4250.0651
4162.6801
4268.3477
4219.4773
4175.7788
4147.2102
4114.4749
4141.6744
4153.451
4067.1909
4116.0572
4033.4933
4022.1367
4070.2213
4214.9001
3988.1999
4055.7934
4127.445
4087.5034
4114.5042
4075.9343
3913.6595
3915.9086
3929.4919
3980.4976
3851.3354
3844.8237
3884.6634
4185.8637
3941.6262
4068.6124
4003.1267
3953.1884
4074.5457
3985.0148
3078.1727
3174.8871
3176.3283
3128.4899
3175.4828
3044.9428
3094.9031
2758.8098
2345.598
2375.2122
2378.5954
2287.9313
2375.7443
2305.4974
1626.8496
1074.1067
1056.9263
1133.8764
1175.6518
1277.0925
1278.507
1394.9076
1402.1997
1531.1124
1614.2733
1719.4349
1856.5819
1998.7571
2140.307
2379.399
2559.1052
2779.8137
3004.5196
3234.5884
3467.621
3701.2467
3928.1408
4134.4243
4347.065
4500.6619
4708.4735
4821.9617
4931.3873
5027.866
5075.3766
5115.4671
5108.0432
5095.7326
5071.457
5020.7539
4896.5535
4923.7453
4738.383
4632.1958
4511.605
4369.4459
4220.754
4108.7679
4180.6711
4324.651
4920.8212
724.31717
791.84173
527.36077
598.28387
666.00374
572.83197
654.44149
667.75052
657.30316
733.97081
712.84473
776.78038
817.11446
888.65751
969.73626
1068.6627
1188.0348
1334.7478
1513.4023
1714.5275
1944.8415
2200.6343
2464.002
2749.1635
3031.3634
3279.7589
3609.2958
3750.3973
3956.736
4087.1556
4193.4592
4267.5345
4303.7206
4347.4196
4357.4622
4393.198
4413.6151
4438.6224
4478.8608
4496.5269
4593.3879
4493.1621
4702.705
4423.499
4900.1751
3864.3051
5658.2359
300.32269
273.43554
97.50292
253.81771
154.03146
250.56037
254.10265
276.59204
337.23765
372.57404
418.83909
516.03964
528.1795
682.67468
766.1924
902.02564
1030.2959
1193.6864
1366.9052
1571.9308
1794.4088
2043.2386
2311.6224
2590.8098
2872.1682
3116.1535
3406.9593
3600.6677
3816.1622
3983.9838
4110.5188
4201.6498
4281.0259
4327.9735
4360.9886
4384.4725
4387.4817
4426.3636
4371.4101
4449.284
4280.1602
4433.7788
4187.8989
4359.8551
4153.5648
4264.0114
4940.1974
141.12145
107.31264
0.64355251
127.66868
10.871772
107.2005
-45.788576
103.90387
40.22633
72.2831
124.24779
121.03836
171.71483
253.27169
315.2415
396.42711
481.39695
609.30412
763.48863
951.2189
1170.7295
1428.4736
1703.6832
2014.9201
2316.4087
2666.7439
2979.1954
3256.8831
3517.677
3725.7546
3885.5196
4027.0818
4138.0343
4185.3698
4279.9134
4316.7505
4377.1642
4400.4819
4512.6223
4412.537
4660.1624
4424.599
4709.1097
4376.3034
4868.628
3988.0851
4972.1036
240.47137
77.879328
73.90266
97.047627
86.867488
115.04424
111.63814
205.60377
148.58117
272.81154
258.09537
329.67436
371.56783
458.26396
546.87863
635.398
749.03397
895.74652
1057.5138
1251.2386
1480.2466
1718.5625
2027.1183
2302.6613
2608.5077
2900.2416
3133.7775
3385.7426
3592.6623
3747.8551
3875.8452
3972.4639
4018.5395
4072.3367
4135.1223
4118.084
4174.1187
4250.1897
4127.671
4361.9284
4139.8779
4334.3842
4165.1423
4354.2624
4078.5007
4208.9957
4733.4301
507.34181
385.79928
215.19448
481.83835
283.86534
446.2529
439.79634
426.90123
543.11538
538.62164
597.72335
657.62366
723.12768
779.32775
896.07482
996.20368
1145.8886
1306.7868
1498.7074
1720.4751
1959.0545
2217.4825
2499.9076
2737.2661
2921.5694
3254.7613
3543.9215
3788.1649
4003.6242
4181.8339
4329.2909
4423.8984
4514.6059
4564.506
4634.6915
4614.5945
4753.6812
4612.7026
4844.257
4661.013
4790.3229
4665.0303
4751.8592
4566.1005
4650.5304
4772.3965
4484.4693
1344.2577
602.78524
982.28506
606.63614
925.67254
827.00974
889.37643
982.88327
1005.4894
1149.4335
1234.6193
1513.7175
1542.2102
1709.9749
1809.949
1993.8663
2135.2665
2327.1091
2510.5876
2715.1561
2925.5942
3137.6786
3384.6203
3552.8879
3955.8508
3917.3375
4060.9752
4237.3363
4358.8897
4469.0659
4535.2974
4561.4889
4571.6808
4537.5603
4520.6332
4360.4368
4475.4307
4413.3466
4314.8541
4295.1992
4241.6984
4207.9018
4146.0875
4156.9838
4097.2709
4324.5428
3372.3413
1083.4632
932.00284
882.94527
876.09805
888.11303
896.74881
979.12078
1004.1507
1025.0259
943.17204
949.7772
944.52677
952.22109
1029.5247
974.13631
1041.4865
1046.8275
1043.2467
1043.1487
1060.7815
1091.2804
1045.9583
1071.0534
1092.7416
1110.9045
1093.8755
1094.5803
1076.7582
1032.093
1049.8885
1102.2596
1075.0163
1107.1615
1083.661
1083.4079
1091.7576
1105.6003
1126.5702
1172.1563
1146.2917
1174.9414
1173.3586
1096.8962
1095.1235
1149.6525
1100.9965
1148.8948
1133.5119
1134.1044
1145.8839
1164.2043
1175.3136
1202.9018
1207.4005
1200.0985
1230.7007
1187.6356
1192.6759
1214.1479
1199.8782
1210.726
1232.2893
1242.7598
1238.1119
1258.0812
1268.3225
1265.3038
1284.4184
1302.4434
1319.1348
1313.9007
1328.5358
1336.4759
1325.8397
1365.0045
1370.47
1408.2757
1403.699
1408.8284
1424.8101
1428.5843
1434.9543
1459.6461
1497.9786
1526.2734
1539.63
1537.1213
1534.1618
1561.9218
1586.5922
1601.8882
1646.3583
1676.3773
1677.9569
1664.2699
1698.5761
1701.41
1727.6284
1789.7746
1832.5245
1809.3737
1827.2441
1831.6205
1883.8947
1902.1296
1967.1981
2023.1547
1993.3
2001.6542
2026.9785
2037.764
2070.2986
2157.3428
2201.2848
2195.9914
2178.1
2220.7126
2235.0929
2269.7951
2353.5999
2413.3984
2402.7613
2388.9897
2431.8971
2450.9856
2479.8522
2587.658
2636.4691
2634.8897
2615.3019
2667.1536
2667.4263
2705.1206
2826.4157
2870.9749
2870.9615
2855.0451
2896.0635
2897.8203
2944.7423
3082.1069
3097.6889
3124.035
3087.5871
3142.9776
3137.1278
3182.3911
3340.5872
3333.8253
3366.4648
3322.3109
3388.6696
3368.9713
3420.8184
3596.8296
3550.7311
3610.9981
3555.4311
3621.7628
3597.2692
3658.9139
3849.6577
3772.253
3859.522
3762.4148
3833.4397
3812.7397
3874.4679
4088.452
3980.8742
4035.6232
3980.7134
4030.3722
4007.7131
4088.4393
4255.0013
4133.3753
4273.7288
4145.3405
4213.6328
4202.4997
4251.6128
4469.39
4299.8657
4431.6358
4300.5997
4368.4351
4369.7343
4419.1811
4625.1241
4479.8918
4512.7292
4481.8913
4511.0585
4496.5571
4576.1954
4721.6315
4508.3764
4735.0543
4541.5775
4627.8784
4607.3888
4678.8309
4808.2128
4669.3348
4779.3856
4629.2501
4735.5983
4701.3994
4770.9682
4882.1805
4683.0566
4856.1948
4713.8884
4799.4122
4759.811
4829.6072
4894.0246
4751.2314
4912.8694
4745.1423
4832.7162
4809.8963
4869.1573
4915.5603
4779.8591
4917.7776
4775.2351
4871.8848
4842.3021
4902.5213
4909.8427
4770.64
4934.513
4792.0084
4875.264
4859.5777
4876.3516
4867.1605
4804.5323
4928.6998
4773.7949
4888.3404
4802.0998
4892.9311
4856.947
4772.3758
4851.5069
4793.0194
4809.8359
4818.6401
4847.9252
4777.9359
4700.4545
4936.4185
4678.6921
4887.507
4750.6728
4880.5645
4776.0268
4692.8255
4736.8331
4826.4228
4659.2904
4845.6661
4743.9301
4628.1248
4672.1898
4734.5953
4638.4816
4748.0234
4669.9666
4744.3
4681.6304
4641.2313
4627.7315
4660.0496
4582.4471
4660.808
4619.7474
4446.1647
4480.497
4531.9838
4509.9339
4550.3761
4559.473
4556.4176
4485.498
4506.4738
4436.8216
4497.8425
4397.8729
4484.6061
4447.3467
4460.9792
4363.4654
4379.8303
4438.416
4422.9122
4453.2497
4336.5975
4087.9951
4158.9908
4173.5915
4286.4961
4070.7514
4125.94
4168.8055
4474.946
4384.721
4443.9253
4432.1232
4360.0482
4596.8724
4330.1359
4280.1355
4523.6319
4394.6075
4528.0645
4516.3555
4456.0574
4483.7074
4780.8088
4331.0353
4661.7686
4607.3716
4586.8073
4595.7952
4721.3715
517.17118
402.74391
355.74723
342.89053
341.913
357.60722
412.29532
523.0631
566.8306
531.36951
554.16928
561.20037
581.15128
610.97581
533.75839
527.39476
550.0759
526.11536
558.80047
510.37516
571.19137
495.27096
518.48907
543.41969
556.26333
539.65671
565.36837
490.41948
551.3097
550.96995
586.99544
572.42492
601.42257
551.24388
574.95739
538.38926
534.26109
533.10458
540.1036
521.12314
539.87123
500.05493
562.97048
561.95983
565.45928
572.3427
573.18182
557.93067
529.70886
593.40094
589.57232
562.06053
593.40006
564.61981
580.61086
555.27872
619.36896
584.9323
580.5138
587.59653
581.24159
581.18489
555.86438
658.86101
637.98079
616.03116
649.45145
635.07537
647.09468
610.9285
695.11143
658.13594
650.35417
662.09111
647.37246
638.33723
621.28267
751.01408
729.07797
701.50362
727.08964
714.81462
718.69607
685.08521
807.94113
763.86793
776.6842
791.76132
771.86643
770.16331
734.10847
886.94181
843.51547
843.02799
872.68439
848.24115
853.95626
844.64293
988.70536
947.3103
950.03774
963.16419
958.61705
930.96297
915.64969
1105.9141
1053.938
1067.6801
1088.1787
1066.3415
1052.957
1034.4158
1241.902
1215.8255
1199.1332
1236.2013
1208.4386
1187.6226
1177.5991
1406.0544
1377.9102
1357.0036
1396.903
1368.7312
1341.6423
1332.6681
1599.2739
1582.6953
1552.9983
1588.8824
1563.8242
1526.6986
1515.614
1809.7258
1795.4384
1756.983
1793.1885
1765.9491
1723.5733
1720.9431
2037.7814
2037.615
1993.6595
2023.9638
1993.1048
1961.635
1942.4166
2285.3191
2299.0916
2246.5426
2262.2273
2247.0193
2191.6446
2182.9852
2559.8866
2564.2683
2506.6307
2528.3889
2491.0707
2449.7573
2435.7483
2819.1626
2837.9275
2784.3155
2765.819
2765.1664
2725.9606
2688.8376
3077.2694
3118.1427
3016.1979
3012.9403
3036.5834
2976.564
2937.781
3334.2613
3352.539
3261.8796
3346.7564
3224.3171
3292.0654
3228.0647
3507.0918
3697.3965
3484.7217
3444.012
3578.1371
3445.2576
3434.081
3784.7787
3737.2717
3778.7939
3687.0904
3702.9283
3701.293
3632.5826
3939.6166
3997.9605
3933.4357
3828.5007
3906.5711
3893.5088
3809.6163
4113.2705
4134.1323
4029.4826
3997.296
4045.8323
4035.5386
3954.7994
4217.4718
4212.9722
4162.0792
4106.4696
4147.4791
4154.0057
4078.1358
4291.4662
4318.808
4248.9928
4192.8971
4233.0775
4261.1031
4176.8814
4363.2339
4361.7519
4298.6673
4260.2142
4305.1901
4328.6414
4232.7732
4404.4507
4405.8856
4360.4349
4318.9424
4341.382
4358.2747
4291.8378
4435.8149
4440.6156
4368.9413
4358.51
4364.5849
4417.2727
4365.8592
4476.0097
4417.9735
4424.3746
4401.0401
4398.97
4480.9501
4374.4838
4489.1322
4563.9521
4421.7076
4447.3641
4412.0747
4475.7234
4388.873
4524.7589
4396.8873
4430.7583
4434.7514
4426.7268
4535.0387
4443.6109
4622.6774
4554.2518
4565.4797
4518.5214
4482.8359
4554.8547
4478.1662
4540.9501
4352.3759
4437.3885
4399.6433
4407.5205
4549.4322
4461.005
4670.5041
4569.6373
4658.3949
4607.9592
4619.3286
4635.2973
4558.3817
4549.0302
4332.7971
4431.5377
4334.2108
4316.4758
4439.6221
4422.2627
4628.8391
4572.6615
4663.2404
4665.803
4720.9217
4773.3246
4645.6209
4394.705
4154.6887
4330.479
4220.6519
4133.0981
4218.5414
4249.9054
4814.738
4792.3474
4839.7903
4742.401
4807.8495
5098.3841
4962.317
4156.698
3637.7133
3997.1702
3787.2396
3824.8024
3856.7426
3558.5301
5200.2712
5330.6211
5215.7422
5145.8876
5173.2031
5221.2362
5261.8467
213.0542
161.59171
131.50877
122.54813
121.36888
125.07983
160.01635
140.09378
144.59466
131.22266
134.6032
141.17964
142.07391
203.21799
171.54102
126.98351
111.38167
106.88128
112.04693
93.040264
156.31049
184.2346
176.81026
231.28155
252.2739
246.22999
251.93462
241.62749
211.28944
183.54066
184.71358
139.8525
165.66836
129.80972
193.1807
221.55507
164.71024
204.48339
219.69399
231.60279
223.23205
221.83327
244.50355
205.01458
249.50111
237.18607
240.27167
213.39477
238.74776
264.84933
216.20734
248.83401
223.44152
242.29455
230.56571
237.36004
281.724
262.41601
287.67612
289.05994
287.94974
275.11343
271.73634
319.84932
291.45386
322.30744
306.4784
291.34451
285.62768
291.44531
355.35758
343.0935
366.5774
350.13168
346.95643
340.60931
336.58475
409.72878
380.13786
413.96242
411.79085
403.20625
400.59414
402.35995
456.12516
436.70143
493.14959
456.11084
451.90817
462.17508
447.11414
502.82079
555.58417
570.70435
525.3786
547.20205
567.62848
514.74604
571.23165
620.33774
641.44347
624.02269
619.34018
649.77091
616.29182
657.10879
739.67625
750.14487
733.04142
735.55393
760.46044
731.5906
778.66012
843.59117
879.0868
856.36315
850.3674
890.55743
849.7819
915.88074
988.51252
1030.5327
991.49173
997.49602
1041.6527
996.54284
1085.8368
1154.0602
1201.1958
1164.3353
1181.0186
1206.9747
1173.2365
1279.0393
1337.3662
1388.6866
1351.2924
1365.7433
1397.1095
1372.0155
1506.1119
1551.938
1618.0672
1570.655
1604.5339
1620.0205
1604.7019
1766.3329
1790.928
1853.979
1803.1438
1842.4073
1856.7787
1848.9565
2033.7388
2042.8477
2115.3762
2044.7481
2118.9278
2117.2188
2134.8824
2341.2116
2305.7251
2389.7089
2311.8357
2395.4123
2379.0167
2400.1155
2639.2504
2565.8346
2663.2244
2603.4147
2687.4051
2623.1219
2727.1941
2922.8471
2843.7072
2984.627
2840.649
2972.1953
2887.7891
2968.4459
3270.9911
3098.7093
3181.425
3092.3571
3240.0496
3103.062
3264.4352
3457.5776
3316.3652
3445.4096
3364.3525
3471.3561
3362.2969
3487.9411
3708.4027
3549.5604
3692.7098
3528.341
3710.3185
3544.8513
3693.3901
3900.6141
3727.3139
3828.5884
3724.9814
3882.3403
3702.2379
3877.5258
4035.8682
3857.1985
4006.726
3883.0373
4036.6496
3865.363
4026.4577
4164.3734
3993.2872
4139.7995
3988.2422
4159.8551
3967.2484
4117.4183
4254.2215
4077.84
4225.243
4084.3615
4252.5035
4039.8353
4213.6284
4314.5388
4147.2345
4307.547
4162.9588
4310.9083
4139.5105
4295.9677
4377.0843
4191.6812
4384.9825
4206.1381
4386.7584
4197.0497
4303.6838
4397.6999
4271.4038
4431.2492
4248.3208
4429.0837
4212.3581
4374.4936
4441.5523
4247.5143
4447.2685
4282.2317
4456.4972
4259.9508
4400.9738
4479.9769
4296.4365
4540.7305
4312.3347
4511.822
4292.7647
4422.1267
4382.3654
4356.3929
4433.3449
4310.1549
4443.0703
4274.6347
4426.2298
4531.4078
4361.731
4555.737
4396.2869
4555.242
4399.0226
4463.7719
4332.5929
4361.4714
4380.5955
4290.5871
4362.6664
4201.0071
4354.2228
4479.7145
4394.861
4510.9024
4399.7645
4484.1362
4439.2921
4502.8437
4340.2937
4357.049
4287.1387
4282.5977
4330.5427
4238.9504
4270.8342
4392.9418
4367.73
4437.2973
4402.9509
4346.3556
4311.2396
4444.7427
4484.0774
4467.7757
4370.2078
4375.7915
4338.0786
4496.4024
4282.9022
4291.7703
4414.3398
4477.0212
4409.317
4585.9401
4421.8516
4293.6386
4825.6255
4676.9874
4646.896
4544.4666
4725.9532
4468.7018
4660.249
112.86725
88.052637
65.119886
65.713539
58.577488
63.894578
52.604629
24.248662
42.104743
57.747849
73.532519
61.44451
79.596673
87.084497
27.963358
4.0446403
14.594547
22.48797
25.72571
19.801738
4.4094649
49.06039
59.882969
96.964742
103.23648
97.599239
108.5448
88.284092
36.173356
12.961902
19.054981
15.62974
-12.191001
20.23947
2.2456438
65.758379
34.708117
58.218761
91.21562
101.63884
90.627734
96.311437
53.040435
37.927851
17.839564
19.709196
12.189387
26.217874
13.159919
85.179629
74.293676
74.066382
87.791395
96.728249
103.30929
63.546593
96.89843
62.308804
72.887122
52.327542
85.621781
75.744408
74.578874
114.95272
97.562183
99.568268
97.121341
133.16824
145.64755
78.743508
136.31745
108.91531
134.14913
117.15871
168.41226
164.46144
120.88115
179.40134
152.11231
159.73342
142.60883
190.14302
192.50996
150.75264
211.84117
199.73276
202.31916
195.86485
246.20556
222.41756
176.59471
284.34576
281.6996
228.09286
262.77793
264.34881
274.16283
228.11539
351.83787
353.93751
358.723
337.5352
356.06498
334.43226
316.61229
449.29826
439.59503
433.9762
423.37493
437.70646
430.23962
410.03744
557.17575
578.41902
545.47303
539.12173
561.38356
534.04007
530.44682
695.73886
724.9669
678.45398
678.20245
697.95299
666.74505
668.71615
855.83489
903.22149
844.65262
850.32565
877.68115
833.60381
843.78398
1050.3501
1109.5601
1034.7577
1044.1708
1064.7774
1012.8233
1038.8152
1283.3871
1340.3106
1262.5815
1281.9893
1292.4666
1250.4374
1273.1479
1552.9542
1597.0732
1512.7237
1512.5085
1539.2808
1483.4083
1517.1564
1857.5922
1864.9819
1765.7634
1811.5919
1814.0206
1757.5051
1789.1637
2146.9885
2128.0595
2078.6515
2097.5281
2096.8567
2047.1157
2091.9398
2458.768
2438.9132
2394.6796
2355.4266
2377.5825
2364.1154
2364.2066
2807.7546
2707.5179
2645.6432
2663.8316
2641.4166
2663.0919
2662.2777
3049.1886
2970.2603
2955.1793
2941.2052
2905.6128
2979.3964
2932.2446
3333.6884
3193.643
3230.1972
3181.2847
3178.1885
3227.1821
3186.2289
3567.2611
3444.7199
3444.3055
3406.3229
3364.4854
3450.8557
3422.1171
3747.0167
3612.78
3635.0551
3595.6601
3576.797
3681.9465
3622.5744
3900.281
3785.7832
3798.8148
3766.2239
3725.6116
3829.8511
3775.4476
4041.0845
3915.1869
3933.9605
3896.0883
3837.3146
3961.6776
3906.6718
4107.8066
4007.948
4023.2026
3986.3817
3948.1585
4103.6823
4036.551
4211.421
4099.4635
4126.0883
4092.8256
4042.4167
4169.0715
4088.4367
4246.3367
4164.9595
4187.1749
4141.0444
4095.4341
4242.4617
4186.0583
4296.9797
4228.5544
4216.597
4210.5022
4177.7074
4286.0303
4254.0653
4365.8718
4296.0365
4293.3509
4307.1341
4182.1737
4388.2897
4288.6778
4309.8108
4294.3864
4300.884
4232.0021
4237.0014
4357.6109
4337.697
4457.8052
4451.5307
4390.4679
4446.9219
4338.484
4513.7331
4432.4879
4324.1134
4260.6287
4313.0278
4240.502
4215.3311
4360.1306
4329.2917
4490.7553
4518.9801
4501.6387
4520.9689
4442.2621
4625.1907
4548.6481
4447.2839
4278.639
4351.7584
4240.1242
4261.0307
4394.6725
4332.9013
4461.8301
4485.8408
4504.1659
4540.7249
4522.2242
4654.6189
4583.6371
4497.1212
4245.3405
4407.4925
4269.941