/*--------------------------------*- C++ -*----------------------------------*\
  =========                 |
  \\      /  F ield         | OpenFOAM: The Open Source CFD Toolbox
   \\    /   O peration     | Website:  https://openfoam.org
    \\  /    A nd           | Version:  6
     \\/     M anipulation  |
\*---------------------------------------------------------------------------*/
FoamFile
{
    version     2.0;
    format      ascii;
    class       pointScalarField;
    location    "1.57";
    object      E;
}
// * * * * * * * * * * * * * * * * * * * * * * * * * * * * * * * * * * * * * //

dimensions      [1 -1 -2 0 0 0 0];

internalField   nonuniform List<scalar> 
625
(
307.2587
-2886.8193
-179556.35
-85545.743
1405.7362
-212.63572
-128902.02
-266826.99
-81.667414
-57.8532
-326.40442
-97417.739
-94991.707
-67298.205
2811.7388
-22.817655
-231.70105
1840.7449
-771.75833
1288.1345
824.21271
35.007918
1552.6866
765.59692
782.08926
1404.615
977.57586
1338.8152
1562.3391
1440.3663
2479.3971
2062.0985
3421.0031
3923.5308
4995.1974
5994.1129
8579.0559
3811.5609
-2763.0649
8069.7446
5450.2947
2338.5621
10547.958
2760.4766
6335.3211
5932.8693
4629.9947
5998.0447
4521.9069
5132.1513
4443.9752
4318.1228
4082.6814
3790.6843
3548.3922
3590.0513
2807.1896
4133.4808
2607.2121
3747.7985
841.94484
436.20228
-1230.2571
4813.6214
13847.862
-1786.0165
4890.7769
17777.721
1181.3728
10639.248
7365.0687
8472.5808
9185.1226
6598.7918
8437.0569
6516.3563
6411.0238
5762.2865
4688.5943
4119.5475
3174.1761
2163.7241
1506.8435
545.06094
210.67275
-1189.4077
-184899.87
-208648.78
-199425.14
7351.0736
4859.461
5771.2812
5448.3916
5103.9247
4775.6757
4534.6705
4100.4937
3986.1328
3735.1076
2944.1611
3396.2218
2280.9009
2691.8934
925.92181
1173.2738
719.29772
697.35096
893.92537
-2661.2342
4365.2153
-1553.8118
3462.7602
617.3481
284.86691
-134.96791
-2429.273
-2427.3849
-2876.9388
-97752.844
-96834.943
-98801.737
-200669.87
-201905.1
-199655.89
2435.1883
1059.3118
369.66467
1378.1346
-533.12948
1474.1547
249.44967
883.61566
1169.1239
877.0717
1697.3418
1486.0226
1758.0346
2170.7409
2202.6635
2779.6444
2937.8619
3122.9692
4335.4094
4068.8718
4575.8125
5788.3514
5544.1751
316.2094
-193.16414
578.85311
-540.45025
264.27874
537.12158
-921.61494
443.81648
-765.76291
101.34673
-514.72101
-90.236581
44.634547
242.81533
551.61231
963.35079
1224.6305
1919.7458
2409.1609
2383.5241
4617.2971
3413.6469
8978.6774
398.45343
-2129.6665
-2080.2459
-2897.3501
-1761.7286
-4261.4327
-1130.2441
-2847.8029
-1463.0152
-794.96767
-865.96233
654.32768
808.48001
1793.7936
2443.0469
3416.2498
3979.1628
5210.9461
5529.021
7489.255
7044.0279
9233.6294
10728.144
80.411078
-126.61186
-233.22925
-229.40783
-233.15246
238.19871
-487.6063
-932.32276
-1012.8655
5171.6916
6993.8988
5914.0369
6938.7545
4786.0296
7128.593
4079.7414
537.81528
6241.5284
5556.8681
7385.0786
2881.3665
11013.604
6558.3116
12376.197
6332.2014
7301.3426
7283.1981
9148.1469
7969.2389
9769.4169
8000.8525
5260.3808
9646.3857
7832.6331
8577.8153
7576.6314
9338.3035
6507.2605
10396.637
6921.4725
7524.847
7711.6271
8648.7802
6560.5477
8537.6848
6838.273
6417.4851
7836.8668
7008.3729
5913.9758
6780.5715
6403.2628
5479.2262
6585.6528
5643.0216
4915.0682
5488.097
5158.2747
4381.5619
4703.532
4361.2283
3795.1861
3917.6608
3700.9424
3318.2311
2907.3692
2895.9749
2625.431
1895.9276
2246.4909
2243.2729
1248.946
1701.1836
1950.9623
188.38927
505.59452
603.8014
684.4864
-130726.03
-129823.94
-129678.86
-116808.2
-129891.99
-130444.45
-133702.03
-121593.25
-121737.78
1691.2989
3467.2508
1758.0824
-775.46899
-1536.8072
-993.71046
2873.3181
1609.3713
3660.4884
-335.41985
-625.63232
151.18133
2604.0072
1615.9663
2227.2914
2309.4709
-657.31063
2658.6189
2140.1583
1274.0468
1904.5827
2735.9315
1013.32
3739.6374
4045.8916
348.68967
3070.3063
3837.9541
1274.7049
3202.3727
3547.9385
1496.4316
3380.222
4112.074
2109.1581
3997.805
3922.638
2035.0044
3859.1184
4317.1341
2355.6151
4133.8721
4350.8279
2632.5781
4471.0794
4284.0443
2853.0254
4456.9126
4889.0225
3300.0015
4716.6462
4421.5552
3499.1109
4966.7946
5298.7803
4237.3089
5180.5349
5085.3672
4937.6048
5382.2489
5991.3353
4786.1185
5753.806
3959.846
5078.4264
5473.0104
8684.1404
7348.1436
7442.1403
1020.5489
1159.177
-2337.794
1148.3214
-1924.3227
-295.10716
1050.3799
-1741.7386
1542.3601
644.04033
935.65297
1483.4935
1682.5058
2047.5974
2371.4349
2622.4392
2868.2219
3193.4502
3300.0735
3730.7846
4279.0661
4516.0613
5691.637
289.74105
1941.4523
-1512.9238
2014.1132
-185.66343
1816.8754
1390.306
939.59371
2141.6129
1162.4076
1690.0582
2185.4646
1683.9795
2577.8799
2751.6292
3054.1845
3838.5022
4196.0256
4917.7357
5442.1588
6646.705
4649.3767
11890.863
1049.8655
-3132.7105
-1065.2048
-5621.4658
-1870.6032
-1556.6776
-4040.0893
377.9327
-2993.1511
783.48866
-641.03074
1174.383
1192.5127
2432.6912
2789.9213
3710.4851
4424.6922
5237.8824
6136.3907
7401.861
7799.5032
10119.561
9861.0691
1054.3532
1434.2877
1041.6687
1235.4717
1230.1982
1281.2423
-66.839841
-1228.7251
-740.81108
1005.2247
1601.1323
1842.4048
1332.9474
106.27865
991.45766
1650.4162
1325.1248
142.26475
1436.1902
999.07699
2700.4981
2516.6893
2070.144
1053.099
2225.5086
1550.1494
1854.481
2543.7771
2561.8022
2310.5932
3662.6247
2656.1629
2421.0504
3038.225
2796.8855
2928.0469
4010.0755
3506.8586
3070.8512
4007.2438
3576.4344
3321.1227
4189.8763
3827.3175
3533.9824
4553.7697
4262.2317
3749.3937
4447.9049
4276.775
3832.4938
4682.6445
4621.2233
4019.8151
5200.8689
4877.4107
4253.1375
4084.5965
4783.3163
3915.5175
4489.633
6402.6126
4874.4415
5890.005
6265.3895
4509.0328
6895.4717
5678.4434
6126.0106
-82.207262
120.24818
194.91311
1211.8958
1996.0434
2110.0141
130.61213
-2150.2359
-431.9427
367.99846
2070.8751
1815.6865
2089.2435
-283.48964
-244.06229
742.60527
254.55383
946.125
923.0526
439.5981
378.95987
2244.8897
738.83479
-300.60629
910.60675
-412.68576
361.03185
2162.4361
971.68832
380.03868
1828.6294
-230.76741
-197.55593
2013.8809
530.54954
579.6297
2454.4421
701.73794
36.623999
2346.9781
497.60017
349.92143
2927.9797
1170.7795
683.14581
2975.5605
1163.9538
787.62953
3481.74
1796.3289
1169.3819
3900.4105
1963.8538
1682.4434
4301.1728
3002.885
2080.0258
4866.1891
2278.8947
2465.5331
7375.431
2734.6631
4866.6937
3832.638
3544.3613
1861.0204
10179.636
8871.4217
10188.757
1817.0204
1901.0431
1980.4066
-2192.2633
-3769.8223
-2925.5144
-1757.8438
26.295565
794.94644
164.25932
-3681.6731
-2175.7571
-2090.224
-2018.6652
-411.992
-970.05617
-3014.9838
-447.1852
758.25064
-2073.9293
-423.66998
-934.70135
-2570.8054
1301.288
1059.2092
-1822.2634
1028.914
903
-1051.1149
2030.091
1389.8245
-1123.0202
2402.7719
2294.9321
171.90853
3327.5827
2403.8541
295.10641
3687.469
3387.4892
1336.6108
4417.452
3659.8495
1767.1022
4964.3222
4393.0844
2814.3837
5507.615
4928.4155
3261.4202
6032.155
5630.6997
4583.9677
6783.1111
6080.3112
4716.2623
6943.6457
7063.4373
7146.3391
8500.817
6781.9038
6540.5622
7724.267
8647.2196
9409.9047
10892.381
8917.4235
9734.1861
8597.5196
)
;

boundaryField
{
    free
    {
        type            zeroGradient;
    }
    fixed
    {
        type            zeroGradient;
    }
    traction
    {
        type            zeroGradient;
    }
}


// ************************************************************************* //
