/*--------------------------------*- C++ -*----------------------------------*\
  =========                 |
  \\      /  F ield         | OpenFOAM: The Open Source CFD Toolbox
   \\    /   O peration     | Website:  https://openfoam.org
    \\  /    A nd           | Version:  6
     \\/     M anipulation  |
\*---------------------------------------------------------------------------*/
FoamFile
{
    version     2.0;
    format      ascii;
    class       pointVectorField;
    location    "1.36";
    object      lm;
}
// * * * * * * * * * * * * * * * * * * * * * * * * * * * * * * * * * * * * * //

dimensions      [1 -2 -1 0 0 0 0];

internalField   nonuniform List<vector> 
28033
(
(0 0 0)
(0 0 0)
(-4845.8566 516.58199 -41.546738)
(-4753.8826 1195.7326 -16.181097)
(0 0 0)
(0 0 0)
(-4774.9095 1224.6243 -15.395578)
(-4863.9203 542.80482 -40.722111)
(0 0 0)
(0 0 0)
(0 0 0)
(0 0 0)
(0 0 0)
(0 0 0)
(0 0 0)
(0 0 0)
(0 0 0)
(0 0 0)
(0 0 0)
(0 0 0)
(0 0 0)
(0 0 0)
(0 0 0)
(-4726.0228 544.81657 -39.087461)
(-4573.5897 567.24903 -36.462928)
(-4459.6367 592.34108 -34.120183)
(-4399.5839 623.34321 -32.38754)
(-4400.8437 662.75585 -31.005993)
(-4461.1525 711.7628 -30.117123)
(-4569.5335 770.20176 -29.44625)
(-4707.3742 835.9991 -28.882506)
(-4851.9554 905.75613 -28.280726)
(-4979.366 975.02818 -27.400593)
(-5068.6689 1039.0417 -26.259334)
(-5104.7207 1093.5048 -24.684892)
(-5080.5721 1135.477 -22.733805)
(-4998.6508 1163.66 -20.592364)
(-4875.8333 1180.681 -18.29275)
(-32.276868 -39.145931 -39.026902)
(-50.411217 -59.779524 -48.817072)
(-70.505002 -76.548745 -53.805263)
(-92.952884 -92.197108 -55.746233)
(-115.94691 -105.66954 -55.222429)
(-140.50948 -117.92208 -53.440139)
(-165.73453 -128.74895 -50.935062)
(-191.64365 -138.21929 -47.69727)
(-217.85963 -146.76206 -44.455041)
(-244.34132 -154.14069 -41.022054)
(-270.69364 -160.83161 -37.716879)
(-297.02035 -166.94554 -34.564823)
(-323.15197 -172.68943 -31.775605)
(-349.19028 -178.25238 -29.238882)
(-374.98568 -183.7827 -27.185563)
(-400.81105 -189.55572 -25.494794)
(-426.67494 -195.60242 -24.346478)
(-452.69784 -202.06096 -23.761076)
(-479.13928 -209.1308 -23.613364)
(-506.16626 -216.75126 -24.047439)
(-533.88744 -224.98815 -25.075151)
(-562.74436 -233.93926 -26.523219)
(-592.71072 -243.3666 -28.576528)
(-624.30846 -253.55714 -31.001882)
(-657.55567 -264.08771 -33.849707)
(-692.88434 -275.13317 -36.972255)
(-730.40532 -286.37321 -40.34561)
(-770.48502 -297.9486 -43.808888)
(-813.24477 -309.39213 -47.311946)
(-858.98549 -320.84383 -50.685078)
(-907.91302 -332.00285 -53.845057)
(-960.07267 -342.70086 -56.680785)
(-1015.7226 -352.84267 -59.096763)
(-1074.9174 -362.1462 -60.984956)
(-1137.7581 -370.71552 -62.246154)
(-1204.1932 -378.03114 -62.872725)
(-1274.2359 -384.28108 -62.826103)
(-1347.8996 -389.10902 -62.016307)
(-1424.9102 -392.45738 -60.474351)
(-1505.2942 -394.30135 -58.250833)
(-1588.7244 -394.38241 -55.339603)
(-1675.0094 -392.79041 -51.840879)
(-1763.9258 -389.33243 -47.774486)
(-1855.1237 -384.0072 -43.22913)
(-1948.2393 -376.80299 -38.332697)
(-2042.9876 -367.729 -33.118575)
(-2138.9277 -356.79471 -27.733985)
(-2235.7465 -344.0607 -22.237334)
(-2333.0035 -329.60184 -16.746342)
(-2430.3757 -313.51428 -11.336817)
(-2527.4487 -295.92448 -6.0993014)
(-2623.9112 -276.97087 -1.1077567)
(-2719.4098 -256.81695 3.5642817)
(-2813.6569 -235.62948 7.8572306)
(-2906.3812 -213.59425 11.716965)
(-2997.3431 -190.88958 15.09753)
(-3086.3484 -167.69657 17.96558)
(-3173.231 -144.19087 20.299784)
(-3257.8629 -120.52199 22.079328)
(-3340.1529 -96.838053 23.312464)
(-3420.0306 -73.246968 23.995502)
(-3497.4682 -49.858384 24.166892)
(-3572.4324 -26.71225 23.825114)
(-3644.9323 -3.8746707 23.043439)
(-3714.9647 18.608162 21.8486)
(-3782.5467 40.820674 20.278336)
(-3847.6706 62.668197 18.384234)
(-3910.3437 84.170872 16.246767)
(-3970.5506 105.49378 13.866077)
(-4028.2872 126.44707 11.326178)
(-4083.5558 147.20171 8.6792831)
(-4136.3066 167.67065 5.9516678)
(-4186.5043 187.86421 3.1364065)
(-4234.1688 207.79066 0.31508514)
(-4279.274 227.37075 -2.4881717)
(-4321.8093 246.60337 -5.2641445)
(-4361.8543 265.39651 -7.9773551)
(-4399.3592 283.73693 -10.60098)
(-4434.5105 301.52101 -13.122002)
(-4467.2309 318.76754 -15.538301)
(-4497.8113 335.35328 -17.794609)
(-4526.1555 351.27576 -19.944162)
(-4552.5789 366.54236 -21.940871)
(-4577.0396 381.04946 -23.831283)
(-4599.8537 394.96768 -25.55237)
(-4620.9997 408.0229 -27.205911)
(-4640.7001 420.54288 -28.736139)
(-4659.0693 432.27127 -30.245666)
(-4676.2496 443.50355 -31.670765)
(-4692.4173 454.06751 -33.137425)
(-4707.589 464.10868 -34.512929)
(-4722.2179 473.83014 -35.976496)
(-4736.0226 482.85418 -37.293125)
(-4749.6237 491.8837 -38.660961)
(-4763.7222 500.53436 -39.856999)
(-12.176519 40.683705 46.956248)
(-32.364279 54.558977 47.445398)
(-54.689516 72.831468 52.342588)
(-73.916045 84.757924 49.6041)
(-98.367104 98.553589 46.651701)
(-122.32767 111.39611 42.594284)
(-147.15622 122.69927 38.115499)
(-172.32223 133.83517 34.038067)
(-197.29401 143.80594 30.560315)
(-221.7876 153.05645 27.805238)
(-245.76937 161.76679 26.015488)
(-268.9804 169.63122 25.268205)
(-291.51425 177.32742 25.276711)
(-313.32733 184.46045 26.446424)
(-334.58448 191.47418 28.14183)
(-355.27465 198.44475 30.756978)
(-375.79348 205.35517 33.765928)
(-396.21543 212.69758 37.16035)
(-416.6912 220.20964 40.859097)
(-437.7698 228.40498 44.620125)
(-459.31068 237.07843 48.270823)
(-481.91616 246.70296 51.835227)
(-505.56287 256.94303 55.042496)
(-530.7097 268.4055 57.914958)
(-557.43897 280.66843 60.316996)
(-586.22807 294.30008 62.163061)
(-616.99138 308.93801 63.561238)
(-650.24396 324.86414 64.300341)
(-685.90905 341.95823 64.578901)
(-724.39223 360.2455 64.180542)
(-765.62288 379.72073 63.385908)
(-809.95142 400.28563 61.999051)
(-857.32458 421.89468 60.212727)
(-907.93974 444.46335 57.96132)
(-961.82381 467.88654 55.361221)
(-1019.0367 492.02447 52.388973)
(-1079.5246 516.69331 49.096272)
(-1143.3741 541.92357 45.566001)
(-1210.467 567.37591 41.750084)
(-1280.7955 593.04378 37.724713)
(-1354.1858 618.69686 33.506998)
(-1430.5515 644.21733 29.126759)
(-1509.6828 669.4568 24.612646)
(-1591.4088 694.27957 20.005682)
(-1675.4615 718.5527 15.346483)
(-1761.6113 742.16741 10.680708)
(-1849.5375 765.00843 6.0718144)
(-1938.9588 786.99213 1.5732049)
(-2029.5279 808.03681 -2.7399868)
(-2120.9288 828.08294 -6.8045468)
(-2212.8135 847.08834 -10.548034)
(-2304.8616 865.02446 -13.908124)
(-2396.7518 881.88473 -16.829053)
(-2488.1925 897.67963 -19.266992)
(-2578.9142 912.43479 -21.196808)
(-2668.6848 926.19514 -22.608686)
(-2757.3023 939.02086 -23.518332)
(-2844.611 950.97898 -23.95903)
(-2930.4852 962.15631 -23.986937)
(-3014.8399 972.63499 -23.675662)
(-3097.617 982.50974 -23.113059)
(-3178.7862 991.86664 -22.393964)
(-3258.3295 1000.7959 -21.6205)
(-3336.2409 1009.3668 -20.883974)
(-3412.511 1017.6557 -20.271333)
(-3487.1287 1025.711 -19.852708)
(-3560.0627 1033.5723 -19.67374)
(-3631.2675 1041.2787 -19.755595)
(-3700.7021 1048.8388 -20.146978)
(-3768.2438 1056.2519 -20.676761)
(-3833.7586 1063.4247 -21.472801)
(-3897.2682 1070.5599 -22.404106)
(-3958.5033 1077.4033 -23.372288)
(-4017.4171 1084.0745 -24.315541)
(-4073.8893 1090.5159 -25.171726)
(-4127.8236 1096.7055 -25.836963)
(-4179.1427 1102.6568 -26.28531)
(-4227.8001 1108.3374 -26.454392)
(-4273.7952 1113.7958 -26.341355)
(-4317.1181 1118.9848 -25.929941)
(-4357.8327 1123.9875 -25.267762)
(-4395.9882 1128.7568 -24.35057)
(-4431.691 1133.3777 -23.279022)
(-4465.0272 1137.8145 -22.054679)
(-4496.1414 1142.1525 -20.805092)
(-4525.1255 1146.3509 -19.524665)
(-4552.1476 1150.504 -18.34018)
(-4577.3038 1154.5703 -17.246701)
(-4600.7528 1158.6351 -16.332489)
(-4622.6123 1162.6788 -15.599797)
(-4643.0311 1166.7777 -15.105194)
(-4662.13 1170.9343 -14.842083)
(-4680.0615 1175.1902 -14.822434)
(-4696.9741 1179.6394 -15.069724)
(-4721.8723 1186.4718 -15.514996)
(0 0 0)
(0 0 0)
(0 0 0)
(0 0 0)
(0 0 0)
(0 0 0)
(0 0 0)
(0 0 0)
(0 0 0)
(0 0 0)
(0 0 0)
(0 0 0)
(0 0 0)
(0 0 0)
(0 0 0)
(-24.559492 18.991554 -37.637578)
(-35.796787 63.877466 -50.761405)
(-53.049218 67.733078 -51.740956)
(-74.418487 87.228788 -55.944394)
(-95.704136 97.140839 -53.707382)
(-119.78593 109.54337 -50.236249)
(-144.52477 119.16415 -46.634762)
(-168.99578 129.14712 -41.819633)
(-194.82562 137.54098 -37.60163)
(-219.38743 145.64332 -32.83769)
(-243.59196 153.27326 -28.878202)
(-268.61746 160.3223 -24.961862)
(-291.42501 167.80313 -21.67483)
(-315.45074 174.35845 -18.541745)
(-337.37804 182.43732 -16.323627)
(-359.55838 189.16868 -14.247444)
(-382.78027 198.39306 -13.063587)
(-403.43514 205.97673 -11.940141)
(-426.49193 216.61146 -11.863205)
(-447.83153 225.94571 -11.884502)
(-470.54286 237.61762 -12.741418)
(-494.42483 249.71718 -13.893175)
(-518.24201 262.85631 -15.657806)
(-543.66142 276.90489 -17.64826)
(-570.30422 292.08044 -20.11666)
(-598.86783 308.10841 -22.716757)
(-628.68383 325.21196 -25.606491)
(-661.79766 343.36847 -28.528391)
(-695.70347 362.02565 -31.403381)
(-733.65055 382.10636 -34.229251)
(-774.00722 402.68951 -36.750648)
(-817.3786 424.09006 -38.929307)
(-863.97612 446.21568 -40.68622)
(-913.9148 468.92369 -41.908364)
(-969.00197 492.92322 -42.641851)
(-1022.7148 515.01384 -42.397308)
(-1084.7579 540.09078 -41.866614)
(-1148.852 564.33715 -40.434294)
(-1216.367 588.86596 -38.36481)
(-1287.3351 613.42573 -35.565864)
(-1361.546 637.95249 -32.154707)
(-1438.8691 662.28684 -28.133567)
(-1519.08 686.3567 -23.593104)
(-1601.9506 710.02228 -18.597509)
(-1687.2035 733.1938 -13.23908)
(-1774.5539 755.76757 -7.6024117)
(-1863.6849 777.65381 -1.7851012)
(-1954.2714 798.78012 4.1199044)
(-2045.9734 819.07926 10.015495)
(-2138.4548 838.51154 15.81361)
(-2231.3739 857.04277 21.423234)
(-2324.407 874.66917 26.770343)
(-2417.2385 891.39586 31.776776)
(-2509.5798 907.25014 36.385625)
(-2601.1603 922.27614 40.540122)
(-2691.7514 936.52667 44.204069)
(-2781.1425 950.07039 47.343993)
(-2869.1699 962.9779 49.947515)
(-2955.6961 975.32431 52.007009)
(-3040.6161 987.18241 53.528704)
(-3123.8547 998.61764 54.529325)
(-3205.3589 1009.6861 55.033442)
(-3285.091 1020.4349 55.066987)
(-3363.0254 1030.8845 54.672915)
(-3439.1465 1041.0603 53.876907)
(-3513.4146 1050.9447 52.723087)
(-3585.8328 1060.521 51.266697)
(-3658.227 1070.2973 49.505741)
(-3723.9928 1078.63 47.522458)
(-3791.3385 1087.1776 45.263911)
(-3855.8465 1095.3639 42.887484)
(-3918.1208 1103.0217 40.286754)
(-3978.1418 1110.1871 37.581785)
(-4035.8642 1116.8881 34.778447)
(-4091.1868 1123.1206 31.88731)
(-4144.061 1128.8872 28.960376)
(-4194.4436 1134.2371 26.026922)
(-4242.3138 1139.2087 23.110744)
(-4287.6525 1143.8544 20.251925)
(-4330.4958 1148.2345 17.471819)
(-4370.8497 1152.4082 14.800213)
(-4408.7921 1156.4371 12.245152)
(-4444.3567 1160.3704 9.8270187)
(-4477.6477 1164.2638 7.5296449)
(-4508.7158 1168.1458 5.3605779)
(-4537.6863 1172.0534 3.2885937)
(-4564.6184 1176.0053 1.2980696)
(-4589.6503 1180.0068 -0.63730577)
(-4612.8646 1184.082 -2.5470792)
(-4634.402 1188.2073 -4.4447935)
(-4654.3899 1192.4214 -6.3482362)
(-4672.9751 1196.6837 -8.241316)
(-4690.3383 1201.0479 -10.128712)
(-4706.6252 1205.4869 -11.935187)
(-4711.8898 1207.3862 -13.593941)
(-4906.7772 1212.6586 -17.540078)
(-5040.4024 1198.5554 -19.868564)
(-5105.0873 1166.5632 -21.905588)
(-5123.0923 1123.094 -23.709855)
(-5083.5272 1067.5891 -25.239821)
(-4984.5454 1000.8976 -26.369297)
(-4859.9697 931.50501 -27.303627)
(-4729.7225 863.47004 -28.074456)
(-4571.4749 793.24617 -28.62644)
(-4458.3011 733.40823 -29.248404)
(-4415.5471 686.86221 -30.356952)
(-4420.5572 648.26258 -31.670915)
(-4483.2992 617.71293 -33.489016)
(-4607.1769 594.34271 -35.771562)
(-4779.9127 574.88204 -38.561161)
(-4793.4444 527.8966 -39.706442)
(-4790.402 520.18159 -39.365271)
(-4776.5696 511.14989 -39.08726)
(-4762.4303 501.71089 -39.101685)
(-4747.7406 491.9302 -39.447786)
(-4732.3032 481.70761 -39.964189)
(-4716.0145 471.08745 -40.767426)
(-4698.6459 460.00864 -41.731693)
(-4680.0548 448.45487 -42.835788)
(-4660.0563 436.41902 -44.035702)
(-4638.4804 423.8286 -45.231716)
(-4615.1428 410.69146 -46.376379)
(-4589.9119 396.93604 -47.385524)
(-4562.5363 382.51946 -48.188628)
(-4532.9332 367.45612 -48.735019)
(-4500.947 351.68203 -48.949988)
(-4466.4534 335.17668 -48.77549)
(-4429.3814 317.94102 -48.237826)
(-4389.6508 299.96066 -47.300227)
(-4347.2384 281.25588 -46.02277)
(-4302.1453 261.83978 -44.440185)
(-4254.3954 241.74462 -42.636035)
(-4204.0495 221.01264 -40.699509)
(-4151.156 199.669 -38.725796)
(-4095.843 177.78402 -36.81619)
(-4038.1137 155.38943 -35.069486)
(-3980.0882 132.67354 -33.632916)
(-3914.8968 109.1214 -32.256758)
(-3851.6576 85.667324 -31.62279)
(-3784.8969 61.59623 -31.063875)
(-3716.2686 37.397521 -31.006778)
(-3645.454 12.93358 -31.203478)
(-3572.4906 -11.692608 -31.671789)
(-3497.3358 -36.419109 -32.287778)
(-3419.9664 -61.167432 -32.960033)
(-3340.3522 -85.859803 -33.573689)
(-3258.4894 -110.38452 -34.011818)
(-3174.3945 -134.63823 -34.170726)
(-3088.1217 -158.48079 -33.954406)
(-2999.7572 -181.78327 -33.283797)
(-2909.4383 -204.38293 -32.105482)
(-2817.339 -226.13335 -30.384078)
(-2723.684 -246.86326 -28.110732)
(-2628.7338 -266.42222 -25.297023)
(-2532.7903 -284.64888 -21.975174)
(-2436.1818 -301.40655 -18.191001)
(-2339.264 -316.56205 -14.00567)
(-2242.4037 -330.00847 -9.485899)
(-2145.9802 -341.66247 -4.6969166)
(-2050.365 -351.45075 0.27708235)
(-1955.9336 -359.35756 5.390769)
(-1863.0264 -365.35777 10.555774)
(-1771.9893 -369.4823 15.739141)
(-1683.1287 -371.78363 20.876133)
(-1596.746 -372.28849 25.903936)
(-1513.0557 -371.22699 30.834995)
(-1432.2292 -368.5862 35.578863)
(-1358.4795 -365.61443 40.26899)
(-1279.3084 -358.84396 44.393321)
(-1209.0232 -352.94372 48.528416)
(-1144.349 -346.53296 52.357655)
(-1076.685 -337.19733 55.605167)
(-1016.8306 -329.02324 58.487558)
(-959.64667 -320.0469 61.111065)
(-907.56557 -311.35791 63.190823)
(-855.34762 -301.11404 64.669897)
(-809.74202 -292.5836 65.523811)
(-764.56416 -282.60002 65.876523)
(-723.87213 -274.00103 65.592998)
(-685.67243 -265.31417 64.751708)
(-650.10193 -257.05431 63.298109)
(-616.84097 -249.22523 61.207613)
(-585.60234 -241.5547 58.697551)
(-556.28652 -234.817 55.783382)
(-528.02081 -227.98004 52.401912)
(-501.88933 -221.86999 48.94358)
(-475.71261 -215.8223 45.25215)
(-451.40545 -210.38085 41.715604)
(-426.25016 -204.53221 38.24948)
(-402.23564 -199.31209 35.15007)
(-378.66487 -194.04482 32.476417)
(-353.97826 -188.17484 30.402644)
(-328.48293 -181.78798 29.05447)
(-304.36787 -175.92505 28.31804)
(-278.54791 -168.6043 28.604753)
(-251.90752 -160.26811 29.589274)
(-226.54377 -152.30347 31.429279)
(-199.85715 -142.19778 33.905723)
(-173.46143 -131.43193 36.905586)
(-146.85885 -119.01191 40.082993)
(-121.95459 -105.66095 42.957604)
(-97.374944 -90.719762 45.281263)
(-75.214951 -75.455391 45.785226)
(-51.363465 -56.319186 41.772308)
(-41.254076 -37.360077 30.661322)
(0 0 0)
(0 0 0)
(0 0 0)
(0 0 0)
(0 0 0)
(0 0 0)
(0 0 0)
(0 0 0)
(0 0 0)
(0 0 0)
(0 0 0)
(0 0 0)
(0 0 0)
(0 0 0)
(0 0 0)
(0 0 0)
(0 0 0)
(0 0 0)
(0 0 0)
(0 0 0)
(0 0 0)
(0 0 0)
(0 0 0)
(0 0 0)
(0 0 0)
(0 0 0)
(0 0 0)
(0 0 0)
(0 0 0)
(0 0 0)
(-4755.1939 1197.0198 -16.133696)
(-4756.6007 1198.3654 -16.176871)
(-4758.049 1199.9704 -16.220127)
(-4759.522 1201.7729 -16.302176)
(-4760.9886 1203.7275 -16.336074)
(-4762.4597 1205.7893 -16.366008)
(-4763.8855 1207.8859 -16.349429)
(-4765.2604 1209.946 -16.297807)
(-4766.5679 1211.9345 -16.195195)
(-4767.8127 1213.831 -16.077597)
(-4768.9779 1215.6179 -15.894039)
(-4770.1594 1217.3293 -15.744421)
(-4771.2682 1219.022 -15.565376)
(-4772.4518 1220.7487 -15.472597)
(-4773.5957 1222.5773 -15.398093)
(-4847.0957 518.34911 -41.545309)
(-4848.4272 519.96601 -41.586956)
(-4849.8004 521.564 -41.636821)
(-4851.1775 523.16445 -41.732062)
(-4852.5184 524.79883 -41.810916)
(-4853.7944 526.49872 -41.876057)
(-4854.98 528.26213 -41.895124)
(-4856.0533 530.08174 -41.868822)
(-4857.0332 531.9339 -41.792608)
(-4857.9362 533.78723 -41.667125)
(-4858.8077 535.59715 -41.510432)
(-4859.69 537.33218 -41.316043)
(-4860.6282 538.9467 -41.125584)
(-4861.671 540.37748 -40.921374)
(-4862.8194 541.72649 -40.770967)
(-20.017217 -23.5331 -37.270115)
(-39.887597 -40.059131 -39.944324)
(-59.499488 -55.462012 -46.620309)
(-81.051725 -69.177832 -47.973604)
(-103.05875 -81.425319 -48.354544)
(-126.58218 -92.554122 -47.293059)
(-150.83414 -102.5779 -45.377816)
(-175.90075 -111.74672 -43.045036)
(-201.31612 -119.89193 -40.375011)
(-227.01798 -127.4689 -37.582386)
(-252.89714 -134.27938 -34.696317)
(-278.73259 -140.79073 -32.070689)
(-304.60613 -146.76565 -29.382169)
(-330.32253 -152.78539 -27.109199)
(-356.05693 -158.55756 -25.007652)
(-381.783 -164.62785 -23.36029)
(-407.69547 -170.70816 -21.967766)
(-433.74393 -177.35445 -21.12659)
(-460.26462 -184.12113 -20.666889)
(-487.36282 -191.58644 -20.721634)
(-515.21085 -199.40058 -21.252076)
(-544.1176 -207.77206 -22.323147)
(-574.26449 -216.63778 -23.797347)
(-605.8682 -225.92078 -25.817511)
(-639.3139 -235.59256 -28.170317)
(-674.77076 -245.57171 -30.927182)
(-712.56103 -255.76252 -33.91717)
(-752.90131 -265.97138 -37.152442)
(-796.14069 -276.15316 -40.419641)
(-842.43008 -286.11869 -43.709937)
(-892.03129 -295.65578 -46.847546)
(-945.18942 -304.72529 -49.723322)
(-1002.0051 -313.04183 -52.295292)
(-1062.6177 -320.54119 -54.363709)
(-1127.1531 -327.02634 -55.944735)
(-1195.6438 -332.28417 -56.861552)
(-1268.0572 -336.3329 -57.134329)
(-1344.2837 -338.84902 -56.724969)
(-1424.3448 -339.90245 -55.567299)
(-1507.9541 -339.28133 -53.744703)
(-1594.9025 -336.91278 -51.26802)
(-1684.8859 -332.74384 -48.139707)
(-1777.7227 -326.80117 -44.45749)
(-1872.8642 -318.94071 -40.3365)
(-1970.0204 -309.30788 -35.797468)
(-2068.7174 -297.83129 -30.996366)
(-2168.5263 -284.61303 -25.98889)
(-2268.9919 -269.72418 -20.902165)
(-2369.6434 -253.2689 -15.815787)
(-2470.0446 -235.37329 -10.826494)
(-2569.7464 -216.1903 -6.01749)
(-2668.3488 -195.87553 -1.4663786)
(-2765.4669 -174.61047 2.7612864)
(-2860.7629 -152.57035 6.6066565)
(-2953.9405 -129.94294 10.021928)
(-3044.7441 -106.89985 12.970602)
(-3132.9778 -83.614582 15.428174)
(-3218.4805 -60.234408 17.377919)
(-3301.1449 -36.895422 18.815516)
(-3380.9072 -13.708875 19.7487)
(-3457.7279 9.2361971 20.193793)
(-3531.6199 31.870642 20.169156)
(-3602.5856 54.163619 19.707889)
(-3670.6784 76.058774 18.856447)
(-3735.9239 97.562023 17.636751)
(-3798.4513 118.72549 16.0684)
(-3857.8385 139.40224 14.300878)
(-3914.9756 159.81276 12.261641)
(-3969.339 179.77941 10.07655)
(-4020.9572 199.38014 7.6750478)
(-4069.9739 218.62928 5.2139903)
(-4116.301 237.46654 2.6407185)
(-4160.0034 255.93382 0.033666854)
(-4201.0803 273.95714 -2.5628167)
(-4239.5718 291.53898 -5.1519669)
(-4275.5044 308.62667 -7.6845872)
(-4308.9765 325.21035 -10.143181)
(-4340.0171 341.23372 -12.490564)
(-4368.8094 356.70194 -14.74447)
(-4395.3727 371.55895 -16.837626)
(-4419.9411 385.81033 -18.817388)
(-4442.593 399.43389 -20.634523)
(-4463.3638 412.42589 -22.33132)
(-4482.4234 424.80339 -23.855619)
(-4500.9369 436.60892 -25.299664)
(-4517.5795 447.80146 -26.645737)
(-4533.227 458.42931 -27.9158)
(-4547.8726 468.53286 -29.149702)
(-4561.8401 478.14158 -30.349354)
(-4575.1183 487.29991 -31.536204)
(-4588.0559 496.08627 -32.737672)
(-4600.6968 504.5236 -33.926305)
(-4613.1617 512.62262 -35.109755)
(-4625.8473 520.65289 -36.292953)
(-4649.3638 529.60059 -37.526811)
(-12.683161 -18.714371 -30.336111)
(-29.887535 -27.539104 -34.69072)
(-50.286095 -41.047894 -39.702554)
(-70.290404 -52.086865 -41.652081)
(-91.822144 -62.694644 -42.068891)
(-114.56164 -72.487315 -41.354319)
(-138.1685 -81.66592 -40.117141)
(-162.50062 -89.876211 -38.249337)
(-187.42407 -97.638933 -36.26961)
(-212.89648 -104.64637 -33.826025)
(-238.45859 -111.31583 -31.668565)
(-264.31413 -117.47143 -29.133958)
(-290.19896 -123.48297 -26.996304)
(-316.21972 -129.26439 -24.782913)
(-342.22939 -135.06373 -22.947724)
(-368.4708 -140.90926 -21.131342)
(-394.76208 -146.98454 -19.847126)
(-421.48914 -153.25897 -18.757015)
(-448.55411 -159.93639 -18.087994)
(-476.31013 -166.96786 -17.842719)
(-504.80935 -174.41641 -18.045281)
(-534.38853 -182.31152 -18.652776)
(-565.17729 -190.57271 -19.771579)
(-597.55572 -199.24941 -21.326335)
(-631.67083 -208.13218 -23.298511)
(-667.91575 -217.31935 -25.627723)
(-706.46952 -226.49981 -28.311548)
(-747.70838 -235.71775 -31.218297)
(-791.84989 -244.70268 -34.270136)
(-839.20892 -253.39078 -37.379742)
(-890.00497 -261.56664 -40.443194)
(-944.49017 -269.05613 -43.343565)
(-1002.7978 -275.76671 -45.934998)
(-1065.125 -281.4401 -48.179067)
(-1131.5789 -285.99761 -49.911737)
(-1202.1829 -289.22613 -51.114017)
(-1276.9553 -291.04964 -51.64147)
(-1355.775 -291.31764 -51.562509)
(-1438.5148 -289.94059 -50.773231)
(-1524.9738 -286.85067 -49.309479)
(-1614.8722 -281.95611 -47.188372)
(-1707.9646 -275.29672 -44.466245)
(-1803.7832 -266.68547 -41.165351)
(-1901.8844 -256.35586 -37.468071)
(-2001.8634 -244.2009 -33.350766)
(-2103.1781 -230.32236 -28.968502)
(-2205.3045 -214.81082 -24.394916)
(-2307.7101 -197.77365 -19.7526)
(-2409.8623 -179.33705 -15.104018)
(-2511.2398 -159.67074 -10.571664)
(-2611.352 -138.93133 -6.2086437)
(-2709.7375 -117.30916 -2.1052855)
(-2805.9883 -94.98974 1.6862097)
(-2899.7354 -72.162427 5.1086178)
(-2990.6841 -49.012467 8.1223542)
(-3078.582 -25.713371 10.697639)
(-3163.2567 -2.4224304 12.811433)
(-3244.5752 20.721211 14.456824)
(-3322.4803 43.603048 15.628906)
(-3396.9451 66.128481 16.344706)
(-3467.9948 88.232065 16.609137)
(-3535.6861 109.86462 16.455735)
(-3600.0829 131.00615 15.910824)
(-3661.2929 151.62355 15.014893)
(-3719.3877 171.76431 13.780751)
(-3774.3304 191.39029 12.294427)
(-3826.8699 210.5112 10.607057)
(-3885.5407 229.7101 8.6787199)
(-3935.0448 248.08991 6.5562784)
(-3980.2891 265.9883 4.3284677)
(-4022.7871 283.40627 2.0386539)
(-4062.6422 300.37488 -0.3185026)
(-4099.892 316.88327 -2.6678117)
(-4134.5897 332.8909 -5.0090566)
(-4166.8435 348.4332 -7.3222679)
(-4196.6915 363.43163 -9.5340015)
(-4224.3203 377.93091 -11.684643)
(-4249.7504 391.85325 -13.696733)
(-4273.2563 405.25931 -15.625392)
(-4294.8304 418.06127 -17.375479)
(-4314.8281 430.34564 -19.049726)
(-4333.2619 442.03372 -20.545802)
(-4350.7064 453.22252 -21.95508)
(-4352.1235 462.24229 -23.200839)
(-4356.4315 471.18536 -24.408652)
(-4370.1041 480.65007 -25.472714)
(-4384.0653 489.82344 -26.562534)
(-4397.7348 498.50468 -27.586619)
(-4411.2988 506.91992 -28.601712)
(-4424.9832 514.98479 -29.664896)
(-4438.8098 522.78819 -30.669779)
(-4453.1613 530.45701 -31.782414)
(-4467.9556 537.89703 -32.796224)
(-4483.6089 545.39492 -33.939752)
(-4508.9209 553.87563 -35.012783)
(-8.6920344 -14.497957 -25.351314)
(-24.262931 -21.386365 -29.051324)
(-42.063042 -31.175426 -34.460136)
(-61.717493 -40.186089 -36.13477)
(-82.947249 -48.865568 -36.568724)
(-105.55863 -57.591279 -36.353776)
(-128.84923 -65.341635 -35.369363)
(-153.35993 -72.846852 -34.109985)
(-178.43562 -79.652343 -32.277601)
(-203.97264 -86.239479 -30.62067)
(-229.95961 -92.172533 -28.459425)
(-256.25404 -98.086986 -26.568794)
(-282.71644 -103.51403 -24.442091)
(-309.28187 -109.09238 -22.584142)
(-336.12153 -114.40037 -20.583737)
(-362.95886 -120.01119 -19.077872)
(-390.21027 -125.54038 -17.49148)
(-417.63353 -131.51559 -16.366349)
(-445.63694 -137.58332 -15.429264)
(-474.15052 -144.12346 -14.972931)
(-503.54823 -150.88433 -14.751908)
(-533.88128 -158.05919 -15.107543)
(-565.54275 -165.50185 -15.767506)
(-598.59863 -173.20431 -16.955597)
(-633.52272 -181.12244 -18.458369)
(-670.43003 -189.09737 -20.465118)
(-709.75492 -197.05337 -22.729191)
(-751.67939 -204.86626 -25.308681)
(-796.59927 -212.35015 -28.071859)
(-844.69912 -219.37336 -30.971722)
(-896.31985 -225.75199 -33.838985)
(-951.62171 -231.36155 -36.615262)
(-1010.8742 -235.98033 -39.178352)
(-1074.1703 -239.49119 -41.424732)
(-1141.6495 -241.7287 -43.245474)
(-1213.3009 -242.58878 -44.564349)
(-1289.1152 -241.92885 -45.352425)
(-1368.991 -239.65561 -45.531444)
(-1452.8741 -235.66683 -45.033048)
(-1540.4592 -229.94592 -43.902498)
(-1631.4222 -222.4853 -42.180945)
(-1725.399 -213.2033 -39.837781)
(-1821.965 -202.2002 -37.060181)
(-1920.6472 -189.46871 -33.812501)
(-2020.8996 -175.06911 -30.219465)
(-2122.1603 -159.13596 -26.374399)
(-2223.8628 -141.76194 -22.364898)
(-2325.4208 -123.08714 -18.278041)
(-2426.2558 -103.26544 -14.214861)
(-2525.8153 -82.47477 -10.245975)
(-2623.5834 -60.886547 -6.4438792)
(-2719.0807 -38.701987 -2.8782416)
(-2811.8982 -16.099001 0.40414431)
(-2901.6755 6.7299713 3.356413)
(-2988.1381 29.615058 5.9448937)
(-3071.0649 52.396837 8.1467907)
(-3150.3231 74.936365 9.9431191)
(-3225.8323 97.117932 11.329706)
(-3297.5822 118.8482 12.305299)
(-3365.61 140.05942 12.876617)
(-3429.9965 160.70813 13.05749)
(-3490.854 180.76672 12.867757)
(-3548.306 200.22793 12.335432)
(-3602.5245 219.09716 11.472256)
(-3653.5555 237.38997 10.336355)
(-3702.7713 255.18004 8.9246645)
(-3739.2187 271.76432 7.3189429)
(-3805.731 290.29281 5.4347508)
(-3848.3904 306.68721 3.5782283)
(-3887.1131 322.54867 1.5283146)
(-3923.2718 337.94062 -0.57707961)
(-3956.9694 352.83441 -2.7347303)
(-3988.4314 367.27929 -4.8994637)
(-4017.7667 381.2504 -7.0265294)
(-4045.0165 394.74676 -9.0741348)
(-4070.349 407.73425 -11.051767)
(-4093.8857 420.27102 -12.921268)
(-4115.8213 432.30237 -14.672932)
(-4136.2854 443.87647 -16.296062)
(-4155.5112 454.9617 -17.793121)
(-4173.6439 465.61025 -19.157971)
(-4190.8894 475.79873 -20.402826)
(-4207.6351 485.58052 -21.540596)
(-4223.9121 494.99187 -22.597413)
(-4216.9807 501.36691 -23.355507)
(-4230.0657 509.68175 -24.277477)
(-4246.5083 518.06817 -25.176379)
(-4263.3398 526.22957 -26.044525)
(-4280.8156 534.19263 -26.960445)
(-4298.8865 541.98965 -27.861553)
(-4317.8479 549.66805 -28.802347)
(-4337.8686 557.36925 -29.789712)
(-4358.8825 564.94607 -30.787363)
(-4381.3758 572.72398 -31.831011)
(-4410.754 581.25981 -32.925734)
(-7.0780981 -12.263454 -20.708355)
(-20.865219 -16.655016 -24.468094)
(-37.887228 -24.243942 -28.641385)
(-57.020796 -31.000049 -30.246611)
(-78.1001 -38.303669 -31.098892)
(-100.54126 -45.25073 -31.0495)
(-124.45094 -51.990353 -30.497273)
(-149.33091 -58.25287 -29.293328)
(-174.85039 -64.318164 -28.30708)
(-201.2247 -69.783957 -26.504945)
(-227.95374 -75.141815 -25.078848)
(-255.05044 -80.129111 -23.11734)
(-282.3041 -85.008697 -21.52702)
(-309.95457 -89.784284 -19.460889)
(-337.48531 -94.515837 -17.999229)
(-365.47205 -99.367241 -16.117745)
(-393.45043 -104.29444 -14.758202)
(-421.9127 -109.47731 -13.399262)
(-450.64426 -114.82365 -12.419671)
(-480.08567 -120.50293 -11.625735)
(-510.14672 -126.38353 -11.27786)
(-541.2855 -132.59434 -11.242094)
(-573.51714 -138.93628 -11.627928)
(-607.29241 -145.5288 -12.417303)
(-642.74243 -152.09545 -13.632333)
(-680.25082 -158.6909 -15.229624)
(-720.04277 -165.10026 -17.143999)
(-762.47516 -171.21841 -19.410249)
(-807.7819 -176.86982 -21.853508)
(-856.29168 -181.9395 -24.453823)
(-908.21161 -186.23685 -27.09184)
(-963.82082 -189.59145 -29.690926)
(-1023.2501 -191.88769 -32.105027)
(-1086.6675 -192.97634 -34.279947)
(-1154.1627 -192.67049 -36.083322)
(-1225.6879 -191.00996 -37.462046)
(-1301.4126 -187.65982 -38.337686)
(-1381.0074 -182.82025 -38.60084)
(-1464.2679 -176.2961 -38.374674)
(-1550.97 -168.15054 -37.609202)
(-1640.8052 -158.28599 -36.241787)
(-1733.3884 -146.79583 -34.43431)
(-1828.2344 -133.70591 -32.122064)
(-1924.8239 -119.10655 -29.442803)
(-2022.6264 -103.09323 -26.47276)
(-2121.0572 -85.767156 -23.283813)
(-2219.5353 -67.268984 -19.941035)
(-2317.455 -47.751493 -16.553898)
(-2414.2464 -27.374197 -13.173386)
(-2509.3601 -6.3188864 -9.8778477)
(-2602.2948 15.242244 -6.7246661)
(-2692.5934 37.120116 -3.7668582)
(-2779.8797 59.146421 -1.0427565)
(-2863.8286 81.144715 1.4081979)
(-2944.211 102.96946 3.5630156)
(-3020.8543 124.47963 5.4003333)
(-3093.6803 145.56471 6.905268)
(-3162.6595 166.13173 8.0749428)
(-3227.8428 186.11555 8.8993803)
(-3289.318 205.47146 9.3888551)
(-3347.2212 224.18187 9.5433343)
(-3401.7122 242.23127 9.3841341)
(-3452.9828 259.65584 8.9117694)
(-3501.1981 276.44086 8.1715072)
(-3546.5777 292.6715 7.1523635)
(-3589.2093 308.30551 5.9345228)
(-3629.9918 323.51643 4.4698651)
(-3665.5216 337.9713 2.8970979)
(-3702.8134 352.28278 1.208395)
(-3736.5855 366.06645 -0.64905907)
(-3767.6294 379.39081 -2.5310507)
(-3797.3335 392.33436 -4.4447659)
(-3825.9866 404.96792 -6.3391303)
(-3853.2114 417.22643 -8.1863323)
(-3878.5634 429.0506 -9.9925568)
(-3902.7003 440.53898 -11.691358)
(-3925.7961 451.65845 -13.307876)
(-3948.0116 462.4316 -14.789498)
(-3969.5693 472.88226 -16.183702)
(-3990.5919 482.98818 -17.425292)
(-4011.3606 492.81566 -18.594288)
(-4031.9739 502.3209 -19.616652)
(-4052.7092 511.60671 -20.603302)
(-4073.6476 520.58749 -21.45324)
(-4096.2832 529.57508 -22.340493)
(-4117.4701 538.04 -23.109845)
(-4140.2074 546.57903 -23.920374)
(-4163.8952 554.93329 -24.701793)
(-4188.6407 563.29891 -25.535384)
(-4214.5714 571.58125 -26.374746)
(-4241.7934 579.9467 -27.280701)
(-4270.5275 588.3829 -28.240096)
(-4300.6472 596.86478 -29.202664)
(-4332.6928 605.65525 -30.270319)
(-4367.8244 614.7524 -31.312545)
(-5.4140793 -9.6054041 -16.919566)
(-18.713391 -13.100193 -19.782848)
(-34.990282 -18.937957 -23.734594)
(-54.037158 -24.494971 -25.559322)
(-75.398804 -29.916977 -26.184497)
(-98.964077 -35.726258 -26.285383)
(-123.61974 -40.934439 -25.632931)
(-149.48581 -46.150803 -25.204109)
(-176.29692 -50.703663 -23.818595)
(-203.80404 -55.290038 -22.764664)
(-231.61334 -59.295818 -21.156393)
(-259.87436 -63.360957 -19.769073)
(-288.40407 -67.029247 -17.857848)
(-316.86409 -70.861062 -16.410083)
(-345.64754 -74.468279 -14.487205)
(-374.37129 -78.36475 -12.94542)
(-403.34745 -82.174314 -11.318113)
(-432.44848 -86.353303 -9.98432)
(-462.0325 -90.568443 -8.6871387)
(-491.96024 -95.138667 -7.8621303)
(-522.73018 -99.812995 -7.144709)
(-554.26021 -104.71419 -6.9352246)
(-587.05394 -109.72626 -6.9560251)
(-621.12306 -114.77453 -7.5145604)
(-656.96557 -119.77781 -8.3308067)
(-694.66438 -124.63887 -9.6202837)