/*--------------------------------*- C++ -*----------------------------------*\
  =========                 |
  \\      /  F ield         | OpenFOAM: The Open Source CFD Toolbox
   \\    /   O peration     | Website:  https://openfoam.org
    \\  /    A nd           | Version:  6
     \\/     M anipulation  |
\*---------------------------------------------------------------------------*/
FoamFile
{
    version     2.0;
    format      ascii;
    class       pointScalarField;
    location    "1.54";
    object      p;
}
// * * * * * * * * * * * * * * * * * * * * * * * * * * * * * * * * * * * * * //

dimensions      [1 -1 -2 0 0 0 0];

internalField   nonuniform List<scalar> 
625
(
162316.86
-169173.11
2679.8917
8275.3928
254988.99
-438399.44
6657.0704
1224.5487
103106.11
45607.464
3056.3411
-12608.117
2769.3779
7526.8302
92068.953
93196.033
104068.48
108972.07
99037.879
102850.53
96638.729
94545.015
96937.811
92570.711
96495.968
98115.551
99325.894
99996.598
98742.284
96084.543
89848.698
84119.816
75066.454
64277.258
52130.807
33483.605
19779.058
-69340.759
-42082.296
-69533.769
-61146.452
-67930.326
-72630.324
-74641.363
-77328.877
-81882.504
-83865.97
-87171.276
-88499.145
-90772.945
-89421.013
-87284.725
-83123.862
-76018.649
-68189.864
-57053.262
-47654.797
-36128.584
-22591.163
-8440.004
194690.69
-30626.737
-111329.48
-83394.205
-119736.66
-106894.07
-104684.26
-134350.47
-118199.99
-125764.13
-133245.93
-134999.57
-139294.67
-133593.37
-137230.21
-126414.08
-123594.72
-112990.1
-102459.86
-91629.371
-77906.896
-65370.126
-52087.615
-37338.586
-23369.215
-9204.9352
5168.0028
2468.8421
-6935.9442
24289.895
32292.954
42266.106
57471.418
71721.945
82219.967
91939.898
100276.2
105470.96
108076.9
109467.65
107960.27
105695.23
102224.16
89096.969
102013.71
92730.881
83057.969
93986.608
75115.964
96151.606
64166.382
66496.559
175204.51
130342.95
105983.49
-196231.39
-192641.76
-175605.35
18150.016
17503.258
21127.119
-7168.7906
-1704.5224
-4738.3431
33720.299
44092.431
53170.644
50997.475
57835.879
65010.278
66841.537
73391.817
77188.874
80511.217
85115.956
85654.995
85868.774
83325.837
79851.266
72608.539
64851.613
56137.206
44233.812
36052.669
25454.836
13104.847
7982.7251
5018.3874
17862.316
10040.624
16630.588
13847.779
13088.967
10050.213
8812.7748
4699.8918
80.365715
-3554.4469
-7930.4912
-11629.44
-13895.818
-15761.058
-16161.18
-14932.014
-13030.867
-10781.404
-7690.0736
-6488.5568
637.31869
2957.6425
-40983.298
-40843.553
-47134.57
-42531.842
-57078
-51567.854
-57850.64
-56895.132
-57480.879
-56635.356
-53577.324
-51759.45
-47706.137
-44710.303
-40757.141
-37129.499
-33603.222
-29276.79
-26223.853
-20434.769
-15735.956
-12022.355
-3838.3593
100797.21
66233.249
82367.081
13450.886
15836.263
12044.716
-11869.42
-30183.857
-65262.799
-96183.46
-101517.19
-102588.71
-81821.731
-82703.989
-79219.125
-92762.566
-92390.628
-98361.057
-82277.047
-87676.524
-92713.714
-94676.492
-101115.09
-108707.45
-96987.586
-102221.98
-106203.17
-102075
-106439.68
-116150.29
-105504.22
-109628.82
-118569.47
-107590.32
-110807.28
-120683.43
-109624.15
-112557.86
-123996.79
-108487.3
-110673.53
-123130.32
-107441.84
-110568.46
-122439.5
-103216.47
-105606.3
-117907.95
-97765.648
-100481.73
-111530.29
-90509.604
-92505.811
-103738.58
-81485.484
-83817.739
-92564.659
-71929.915
-72502.419
-81415.092
-60684.029
-62456.445
-68972.587
-51059.675
-50571.363
-55751.603
-39760.76
-39104.897
-43528.538
-28353.923
-27810.457
-31397.522
-18787.204
-20586.327
-21365.08
-16021.914
-10747.534
-14735.368
-18255.157
-19785.358
-21673.046
1219.6247
915.52821
3143.0995
10161.19
11451.74
8576.3373
87911.009
93569.463
85446.061
95495.487
93255.827
78148.571
107360.35
93073.375
84318.988
98783.877
89734.984
84575.28
101441.73
97768.311
81300.824
108451.45
85524.639
86020.314
104499.51
87427.707
87531.435
110246.26
87204.466
83889.204
110114.37
87854.172
95992.451
116088.04
84250.149
96801.118
119167.65
88757.796
101325.21
121200.52
89287.087
105841.19
121913.97
91425.746
109279.82
121177.72
91643.2
110480.97
117744.93
91035.441
109670.68
111562.18
88171.583
105776.87
102990.27
84218.405
99885.66
93102.974
77984.178
90421.211
79000.039
69246.951
78770.648
66721.338
58291.751
67390.568
51587.17
46678.264
52658.972
33654.028
34582.07
34723.587
26574.475
27848.265
30089.122
41498.603
58082.866
49397.197
52904.135
63442.958
60120.721
64160.085
62008.721
64112.381
60393.774
59401.091
55336.403
50135.654
45670.224
39682.527
34868.899
29283.941
25805.264
21833.083
17253.113
15124.896
9443.7396
2541.996
-17536.722
-6503.8228
-9205.3523
-4785.0934
-3053.2168
-9133.714
-8408.9069
-9663.8674
-11158.038
-11746.6
-8010.4053
-7572.8881
-1737.9055
1652.3529
7871.8027
12006.258
15887.814
19538.83
18425.08
19889.632
17683.663
14425.501
7832.2476
-59228.345
-62734.575
-67884.302
-71406.971
-70252.637
-75261.495
-69259.068
-69198.349
-66070.704
-63966.091
-61304.134
-59160.492
-58496.352
-55897.901
-55730.622
-53639.019
-50762.862
-47879.422
-43213.19
-35924.352
-29923.072
-21439.402
-12779.377
58995.07
51209.269
38677.011
68541.814
46457.795
40518.749
54977.654
44186.473
52196.52
58571.035
57382.145
41641.382
75364.654
53042.595
52776.033
64558.261
61730.981
59936.389
75400.977
73191.98
61342.447
77596.107
68962.915
66534.27
74686.809
75896.578
70620.666
75576.139
79218.28
69449.586
70799.258
77634.382
68860.634
65702.337
77030.354
67258.889
59721.934
73179.422
62879.944
51694.128
68579.003
58076.778
43570.189
61700.546
51243.114
34937.538
54582.532
45138.208
28212.219
46850.326
37913.469
21586.981
38290.069
30319.449
15429.179
29141.496
25262.142
10893.125
25771.898
19710.92
5822.6058
16154.065
9857.4808
7651.1524
8712.6112
10862.726
1087.5765
-724.87568
-1326.3939
13983.329
-3172.5688
5710.7089
10490.864
8453.4441
10922.161
13899.461
6474.967
5992.0697
14309.48
4997.3914
4409.2025
10091.898
4302.9552
8194.3426
8054.7454
7106.7136
4759.0644
10906.211
2708.0924
767.65371
3906.4756
-127.30525
-868.81818
4337.9185
544.69668
-4754.1365
3973.3562
-3597.4571
-8684.9176
1533.6663
-3789.0683
-13466.728
2145.2506
-3749.7474
-16610.3
1827.6506
-2431.7322
-20147.343
3258.8792
-1440.1399
-22379.878
3216.8978
1305.9372
-22268.444
4994.5116
4221.2505
-21957.042
6402.2952
6150.1667
-19709.059
6026.8169
7382.5514
-16955.719
7266.1505
9187.0741
-10057.501
8805.7141
10338.529
-11518.141
8277.7388
-3712.4974
-2564.5505
7699.505
9608.9681
1770.4292
7735.8136
8330.7815
6722.9101
-65116.768
-71575.926
-95927.377
-38274.257
-41470.461
-63441.755
-44684.704
-58178.689
-68662.122
-57932.042
-52840.979
-68566.514
-52130.071
-52333.716
-67617.534
-55031.435
-55616.692
-73739.981
-54703.08
-52534.406
-70478.283
-54617.211
-54915.982
-71564.398
-52026.268
-52953.278
-68369.843
-51750.904
-53384
-67546.666
-48930.075
-53934.159
-64852.956
-46293.211
-54081.446
-61070.14
-43175.275
-56460.693
-59256.862
-40975.652
-57553.25
-55574.788
-38348.826
-58663.384
-52700.189
-36376.376
-58491.815
-50795.592
-34469.051
-57980.612
-47368.885
-32624.554
-53707.836
-42979.499
-29287.59
-48590.846
-40201.36
-25739.083
-43634.194
-33639.138
-21698.768
-33904.331
-24797.096
-13871.225
-21139.6
-11394.478
-5980.3425
-12525.234
-10392.754
)
;

boundaryField
{
    free
    {
        type            calculated;
    }
    fixed
    {
        type            calculated;
    }
    traction
    {
        type            calculated;
    }
}


// ************************************************************************* //
