/*--------------------------------*- C++ -*----------------------------------*\
  =========                 |
  \\      /  F ield         | OpenFOAM: The Open Source CFD Toolbox
   \\    /   O peration     | Website:  https://openfoam.org
    \\  /    A nd           | Version:  6
     \\/     M anipulation  |
\*---------------------------------------------------------------------------*/
FoamFile
{
    version     2.0;
    format      ascii;
    class       pointVectorField;
    location    "0.41";
    object      lm;
}
// * * * * * * * * * * * * * * * * * * * * * * * * * * * * * * * * * * * * * //

dimensions      [1 -2 -1 0 0 0 0];

internalField   nonuniform List<vector> 
3969
(
(-4.0340813e-15 -4.7705825e-17 1.3312818e-16)
(9.2297575e-16 -2.6090405e-16 -6.0252577e-16)
(1197.4491 -338.06513 -0.37626416)
(1093.5511 -569.20529 50.701594)
(-7.1783695e-15 2.6020842e-15 -1.0366567e-15)
(-4.622429e-15 2.1493156e-15 -1.5432914e-15)
(1090.7433 -594.32476 27.568292)
(1208.9198 -314.53751 23.286529)
(-6.09887e-15 1.0869625e-16 -2.0095736e-16)
(-3.193382e-15 6.5333688e-16 6.3735029e-17)
(-2.9260211e-15 2.9260844e-16 -4.8432863e-17)
(-1.7497804e-15 -1.5755452e-16 -2.074758e-16)
(-4.3254872e-15 8.6218995e-16 7.3228779e-16)
(-2.4697388e-15 -4.9707839e-16 4.8086129e-16)
(5.2680668e-16 -4.7467027e-16 -5.3018058e-16)
(1185.2383 -368.86218 3.4619511)
(1170.9843 -395.75082 8.985248)
(1158.0271 -419.16569 18.649525)
(1145.3972 -442.92463 29.441739)
(1133.3258 -468.29397 39.201602)
(1120.9176 -498.36017 45.955795)
(1107.5565 -532.93412 48.912868)
(27.115337 36.298409 33.719971)
(52.388895 64.395352 35.567991)
(92.25212 88.997565 35.661879)
(140.58631 107.03358 33.054906)
(196.97012 117.85168 29.341586)
(259.35161 118.19996 24.847767)
(322.14108 108.51187 20.386777)
(384.27934 88.619194 14.626074)
(439.19061 60.493553 9.73563)
(486.95666 26.830049 3.3232969)
(523.35631 -9.6925449 -2.3321875)
(548.88878 -46.368275 -8.2162495)
(562.63277 -79.848939 -13.036443)
(565.31476 -109.11513 -16.941715)
(558.09462 -131.9525 -18.749951)
(541.93415 -148.2882 -18.24316)
(517.98116 -157.91107 -14.722028)
(487.41219 -160.83157 -7.6746261)
(452.10176 -157.40981 2.6723254)
(414.16955 -148.25706 15.706037)
(376.41406 -133.98512 30.387318)
(342.26835 -115.67599 45.00369)
(315.33667 -94.634338 57.864988)
(299.15469 -72.62535 67.202868)
(296.40576 -51.547172 71.793711)
(308.38944 -33.932355 71.079206)
(334.96449 -21.623433 65.40554)
(373.91183 -16.03157 56.127874)
(421.69549 -18.07848 45.107255)
(474.0399 -27.549648 34.563877)
(526.4551 -43.418763 26.466704)
(575.2958 -63.929451 22.148842)
(618.38161 -86.860814 22.040163)
(655.24229 -110.12011 25.519651)
(687.10988 -131.8835 31.029416)
(716.82564 -151.16923 36.694629)
(747.60594 -167.29433 40.312773)
(782.17358 -181.21445 40.152947)
(822.49737 -193.9319 35.899827)
(868.80321 -206.31169 27.878711)
(919.49685 -219.69471 17.748338)
(972.0037 -234.8075 7.1547608)
(1023.0101 -251.52402 -1.4912202)
(1069.1423 -270.2515 -6.8007756)
(1109.0187 -288.28474 -7.4520465)
(1140.3905 -304.99538 -5.5380865)
(1168.9957 -323.87372 -0.0329544)
(5.7910296 -54.308126 -73.647779)
(37.829499 -76.661896 -64.075064)
(71.544119 -112.37099 -73.907491)
(117.47724 -134.06978 -54.834989)
(173.23065 -161.4205 -39.462113)
(237.60663 -185.45308 -12.003649)
(303.30046 -203.16895 14.239571)
(367.14612 -217.58419 41.533414)
(425.20069 -224.15232 64.961994)
(474.51062 -226.54235 82.163859)
(511.00616 -220.07647 93.112628)
(537.47212 -210.69792 96.666408)
(552.54677 -195.60974 94.352871)
(558.58786 -177.99846 87.730912)
(556.47291 -157.98497 79.152196)
(547.69169 -137.29214 69.998243)
(532.75137 -117.17902 61.455123)
(511.96887 -98.610954 53.888036)
(485.77541 -83.536352 46.891681)
(454.17913 -72.851623 39.661884)
(418.7871 -68.103496 31.270599)
(381.36969 -70.758499 21.512405)
(345.21868 -80.96204 10.287157)
(314.00992 -99.286754 -1.3757297)
(291.36668 -125.05076 -12.42093)
(281.05269 -156.77568 -20.361812)
(284.80047 -192.56715 -23.244197)
(303.82182 -230.48491 -20.435959)
(335.75957 -267.88265 -11.637516)
(377.64927 -302.61377 2.2871556)
(424.69809 -333.10064 19.268886)
(472.3267 -358.50782 36.640043)
(516.42361 -379.01738 51.631617)
(554.43306 -395.46864 61.876959)
(585.72355 -409.30376 65.972463)
(611.60561 -422.04847 63.84816)
(634.73414 -435.24727 56.695441)
(659.06305 -449.579 46.595974)
(687.98089 -465.14051 36.103052)
(723.37819 -481.60579 27.701679)
(766.39961 -497.72153 22.9559)
(815.94342 -512.75367 22.873121)
(869.37235 -525.55552 26.868258)
(923.39517 -535.93775 33.452427)
(974.2913 -544.03519 40.525906)
(1019.3712 -551.09897 46.048265)
(1058.8695 -558.33964 48.901478)
(-3.9179893e-16 -2.8384427e-17 -1.6191597e-16)
(6.8869455e-16 3.3255846e-16 -2.9305012e-16)
(-3.0379221e-16 -4.0639439e-16 3.7376104e-16)
(8.6048107e-16 -8.7588792e-17 1.0515471e-16)
(5.0258192e-16 -7.4376592e-16 6.4035694e-16)
(-2.9679417e-15 -3.4669267e-16 7.3060073e-16)
(8.9003905e-16 -2.834795e-16 1.0120244e-16)
(26.732006 -38.379621 51.918518)
(40.817503 -103.82448 68.686483)
(71.106167 -101.56534 66.288315)
(116.74024 -147.22406 59.356093)
(172.89287 -168.59291 50.591544)
(231.95114 -190.55955 35.130494)
(296.56778 -207.53791 25.468884)
(351.52579 -210.19587 15.530798)
(406.91039 -213.58429 9.9432418)
(447.59969 -196.4294 6.0754707)
(485.10558 -185.37754 3.6730702)
(511.39248 -162.45328 2.2269554)
(525.84171 -142.32186 5.3848586)
(535.84855 -118.93454 5.0234727)
(538.59785 -97.615756 5.5813381)
(535.37753 -78.493997 6.7153096)
(525.11216 -60.195613 9.856368)
(507.38503 -44.668527 16.735673)
(481.77265 -30.572081 28.047275)
(449.10747 -19.304358 43.684971)
(411.51391 -11.717633 62.381445)
(372.47383 -9.6639114 81.79767)
(336.46183 -14.82713 98.971161)
(308.29776 -28.932172 111.05714)
(292.24743 -52.76213 115.61217)
(292.414 -86.402851 111.46526)
(306.41706 -125.66886 100.60852)
(333.11873 -169.23049 86.054987)
(370.37101 -212.41636 69.380489)
(413.38839 -252.05671 54.282886)
(457.40911 -285.32819 43.402304)
(498.33938 -310.70167 38.376898)
(533.50167 -328.36045 39.409523)
(562.30938 -339.94814 45.141898)
(585.9275 -348.45805 53.063654)
(607.84389 -356.4578 60.246709)
(629.69216 -367.94629 62.910895)
(658.70321 -383.46056 62.169933)
(692.26844 -405.60371 54.143431)
(735.02346 -432.00953 42.110081)
(783.70357 -461.19285 27.708492)
(836.44402 -490.50872 14.0971)
(889.65678 -517.22607 4.2403043)
(939.84633 -539.578 0.1035962)
(984.81619 -556.7483 2.2635252)
(1023.7682 -569.71244 9.5058976)
(1057.5199 -580.41372 19.300631)
(1105.629 -560.70437 29.732082)
(1117.6979 -523.94603 30.404723)
(1130.6924 -488.43079 31.244975)
(1143.5825 -454.03027 30.382988)
(1156.1727 -419.78161 28.829842)
(1172.4457 -385.93187 27.36484)
(1192.583 -352.70107 24.378651)
(1171.961 -298.91897 22.162881)
(1134.5399 -276.26527 20.648871)
(1092.4732 -252.07595 13.642943)
(1047.3987 -224.96597 6.1938143)
(998.9577 -196.55971 -1.080239)
(948.86738 -170.30084 -5.8648817)
(900.02341 -148.35341 -6.0896893)
(854.88075 -131.94422 -0.97833661)
(814.50725 -121.00073 9.029294)
(780.09819 -113.86386 22.045478)
(750.1482 -107.40145 36.157715)
(722.05237 -99.309214 49.751929)
(693.84561 -89.320642 57.745401)
(661.58233 -72.604887 60.830406)
(624.0921 -51.205223 57.580292)
(580.3587 -26.346559 49.010339)
(531.51244 -0.95969204 36.907153)
(479.92231 21.314496 23.718572)
(429.43585 37.264906 11.679185)
(383.89479 43.951519 3.0144272)
(347.46953 40.778463 -1.5607903)
(322.80888 27.680679 -1.6739259)
(311.64388 7.0720439 1.7391985)
(313.61581 -18.222257 7.2951196)
(327.3001 -44.472079 13.107799)
(350.36425 -68.516119 18.242394)
(379.78708 -87.535149 21.861207)
(412.67597 -100.16945 24.194884)
(446.42018 -105.72448 25.934157)
(479.15745 -104.83226 28.374381)
(508.75571 -98.258406 32.505335)
(534.61072 -87.455518 38.531648)
(554.32769 -73.203044 46.95421)
(565.89825 -53.678253 55.254938)
(569.0975 -33.478205 64.974299)
(561.06487 -11.940466 70.383117)
(539.84392 12.347764 71.813725)
(505.31395 36.483633 68.163665)
(458.92418 60.13693 57.449984)
(401.44956 80.289359 43.457457)
(336.12979 95.871096 24.400641)
(267.18482 102.90948 5.7542177)
(202.24953 104.24582 -12.87646)
(139.7769 96.780683 -27.377312)
(90.602035 82.69223 -35.190024)
(51.370291 57.014959 -38.518658)
(33.113357 35.559523 -29.257369)
(-6.7652979e-16 3.5118239e-16 1.2802193e-16)
(-2.3129286e-15 2.7505878e-16 1.3239036e-16)
(-3.6393531e-15 -1.4253491e-16 -1.5464221e-16)
(-4.9195801e-15 -9.3657526e-16 4.6870719e-16)
(-4.0844143e-15 -8.2232132e-16 1.723462e-16)
(-2.0271537e-15 -1.8079967e-16 2.6438577e-16)
(-2.0670014e-15 8.6459225e-16 1.4474963e-15)
(-4.5036838e-15 1.2268482e-15 -2.065022e-16)
(-1.9919023e-15 1.1694967e-15 -1.6367101e-16)
(-2.9438013e-15 1.1112212e-15 -1.969436e-16)
(-2.4504202e-15 9.597151e-16 -1.1789697e-16)
(-5.2893259e-15 2.5926013e-15 -8.0820905e-16)
(-1.8775489e-15 1.1365606e-15 -5.8525306e-16)
(-7.4714327e-17 -2.094137e-16 9.7564992e-17)
(1090.0009 -570.822 48.155884)
(1087.3035 -571.08011 43.546696)
(1085.8963 -571.87231 38.565401)
(1086.0539 -573.53079 34.152288)
(1087.2836 -576.44209 30.722161)
(1089.5234 -580.23896 29.132307)
(1090.5424 -586.28398 27.033543)
(1193.257 -336.07355 -0.49228028)
(1190.9828 -332.07344 1.3689995)
(1193.4833 -326.2428 4.4543205)
(1198.6578 -320.41423 8.7660262)
(1204.8757 -315.19844 14.145598)
(1210.06 -312.93725 18.675917)
(1211.1157 -313.05942 23.100475)
(15.035789 19.873371 27.420154)
(43.029154 38.389457 19.657387)
(80.711778 53.977097 21.965811)
(129.5809 64.117885 18.960179)
(186.07481 66.563133 17.765596)
(249.86322 62.462386 16.320066)
(314.19908 49.652615 15.153545)
(378.00404 31.715888 14.293487)
(435.66115 7.6420983 12.512183)
(485.44822 -18.637405 10.74144)
(524.52053 -46.44887 7.9395723)
(552.36871 -72.730911 4.2057629)
(567.97465 -96.149323 0.5354179)
(572.82829 -115.54211 -3.3225234)
(567.00497 -129.7405 -5.6873784)
(551.86631 -138.81887 -6.4592871)
(528.80111 -142.12828 -4.601871)
(498.84448 -140.10822 0.23538738)
(463.59427 -133.11115 8.0252179)
(425.03166 -121.93212 18.287375)
(385.79793 -107.61907 29.836429)
(349.13259 -91.548229 41.29135)
(318.68226 -75.426037 51.031266)
(298.04148 -61.014099 57.702148)
(290.20083 -50.005125 60.286437)
(296.91935 -43.876308 58.803549)
(318.82579 -43.441516 53.65331)
(354.0787 -48.930849 46.10422)
(399.6142 -59.873159 37.882222)
(451.27744 -75.359334 30.841629)
(504.45436 -93.847453 26.296869)
(555.18997 -113.78172 25.138531)
(600.62074 -133.7484 27.226077)
(639.69979 -152.77459 31.729083)
(673.14759 -170.3423 37.14194)
(703.13186 -186.54105 41.682784)
(732.9978 -201.63943 44.004025)
(765.7179 -216.77774 42.542537)
(803.66118 -231.97728 37.522115)
(847.72574 -247.68021 29.677052)
(897.01949 -264.16447 20.542836)
(949.19116 -280.83397 11.557507)
(1001.1847 -297.38651 4.9350576)
(1050.0821 -313.14443 0.91112918)
(1091.5589 -327.57918 0.55441282)
(1127.1341 -340.67594 2.0085916)
(1158.0337 -356.13416 4.5073442)
(4.0721348 12.207664 16.784817)
(32.754046 20.284192 10.04454)
(72.528295 32.946854 12.628897)
(121.81915 35.695714 11.192498)
(181.86094 35.662585 12.0463)
(245.88776 28.841685 12.723389)
(311.97065 16.070323 15.024937)
(376.77882 -2.0060553 15.985885)
(434.94895 -24.072596 17.806558)
(485.23485 -47.76075 17.754118)
(524.73444 -71.780126 16.579086)
(552.72548 -93.594203 14.486137)
(569.1833 -112.10316 11.34844)
(574.18176 -126.23297 8.1431608)
(569.14632 -135.1219 5.4378263)
(554.99645 -138.97663 4.1109906)
(532.74785 -137.6735 4.9068717)
(503.34714 -131.94814 8.0107846)
(468.24633 -122.29095 13.518192)
(429.33834 -110.09262 20.877293)
(389.16895 -96.380132 29.140127)
(351.11031 -82.800818 37.184527)
(318.74093 -70.898038 43.844893)
(295.84394 -61.989132 48.019434)
(285.70402 -57.340477 49.214149)
(290.19989 -57.759452 47.400932)
(309.97013 -63.427257 43.295575)
(343.29006 -74.232429 37.858085)
(387.44493 -89.216587 32.509149)
(438.13314 -107.32016 28.560966)
(490.72423 -127.21093 26.852821)
(541.18328 -147.62183 27.76925)
(586.49554 -167.59286 30.99517)
(625.45947 -186.5335 35.635065)
(658.66314 -204.30289 40.380961)
(688.38812 -220.99138 43.858469)
(717.55936 -237.20446 45.042067)
(749.60329 -253.20272 43.013656)
(786.75317 -269.30657 38.233966)
(830.24442 -285.44152 31.391031)
(879.05322 -301.58108 23.734096)
(931.42369 -317.26046 16.669526)
(983.5708 -332.13397 11.443496)
(1033.4574 -346.07619 8.4541331)
(1076.6026 -358.86596 8.4041396)
(1113.4977 -370.77729 8.7789436)
(1146.9767 -385.79756 11.116656)
(0.0076189138 5.0241945 4.1362336)
(30.098175 9.9639065 -2.3965709)
(67.167765 14.388 -0.643347)
(119.7288 13.782492 -1.2522347)
(178.58016 9.691722 1.9436191)
(244.30707 0.24471522 6.0483291)
(311.3037 -14.382826 10.621465)
(376.25921 -32.138114 16.580085)
(435.03409 -53.132482 21.073912)
(485.67365 -74.636656 24.158502)
(524.96566 -95.39363 25.825164)
(553.27631 -113.60287 25.063982)
(569.4279 -128.06563 23.065684)
(575.01291 -137.79479 19.594293)
(570.35183 -142.57275 16.499816)
(556.44669 -142.71118 14.353785)
(534.3456 -138.31986 13.7703)
(505.0897 -130.20565 15.100349)
(470.07102 -119.43506 18.418551)
(431.01139 -107.1466 23.138532)
(390.56349 -94.679224 28.567177)
(351.65993 -83.458556 33.791228)
(318.26074 -74.679511 37.696601)
(294.15077 -69.758563 39.539992)
(282.3394 -69.499216 39.331081)
(285.096 -74.269069 37.051374)
(302.85885 -84.225565 33.518192)
(334.59629 -98.700192 29.574375)
(377.15201 -116.7736 26.510958)
(426.44411 -137.30878 25.227049)
(478.01388 -159.01958 26.141046)
(527.71619 -180.69363 29.279058)
(572.51216 -201.50987 34.048674)
(611.15062 -221.01943 39.412853)
(644.16378 -239.05494 44.122813)
(673.54483 -255.9753 47.034809)
(702.41235 -272.07736 47.323852)
(733.90014 -287.87755 44.794222)
(770.58762 -303.47815 39.853989)
(813.38664 -318.92057 33.134313)
(861.76336 -334.17628 26.362101)
(913.86362 -348.67924 20.172025)
(966.28102 -362.54895 16.384928)
(1016.8457 -375.22974 14.319643)
(1061.3956 -387.23869 14.976974)
(1100.007 -398.3174 16.390868)
(1135.563 -411.46887 18.700138)
(-3.5386241 -3.8674812 -7.8683231)
(24.444599 -3.8454014 -13.448021)
(63.942179 -3.5248847 -12.670189)
(114.64948 -7.2072344 -9.4205001)
(175.76434 -15.402032 -3.6387307)
(242.18997 -25.813427 3.5396306)
(309.64797 -42.377022 13.033481)
(375.16671 -60.24187 21.10157)
(434.47784 -81.02857 28.293678)
(485.05902 -100.85358 33.831613)
(524.56993 -119.62214 36.271023)
(552.50276 -134.48528 36.665489)
(568.539 -145.21006 34.82844)
(574.12895 -151.014 31.462498)
(569.3697 -151.62244 27.947845)
(555.84379 -148.25366 24.860733)
(534.07559 -140.75517 22.832758)
(505.38939 -130.75672 22.472776)
(470.63021 -119.08835 23.549154)
(431.85866 -107.05433 25.663525)
(391.1447 -96.022007 28.395197)
(351.93907 -86.947851 30.658629)
(317.85764 -81.350329 31.662423)
(292.77695 -79.473261 31.462197)
(280.05727 -82.471483 29.489374)
(281.63201 -90.290203 26.472509)
(298.29664 -102.93235 23.134268)
(328.72451 -119.89347 20.569147)
(370.04157 -140.20442 19.621467)
(418.14523 -162.85004 20.883078)
(468.56329 -186.54327 24.456284)
(517.13065 -210.18736 29.937663)
(560.89446 -232.8142 36.390471)
(598.60207 -253.86333 42.612755)
(630.7302 -273.08902 47.399013)
(659.37487 -290.55942 49.725996)
(687.6288 -306.62682 49.251813)
(718.60988 -321.68128 45.949564)
(754.70704 -336.02636 40.338988)
(797.04528 -350.01977 33.911016)
(845.12391 -363.5657 27.826198)
(897.14864 -376.88173 23.189737)
(949.66869 -389.64715 20.765057)
(1000.695 -401.79857 20.3219)
(1046.2448 -413.39778 21.869674)
(1085.8853 -423.99428 24.455013)
(1122.8364 -435.62335 27.002485)
(-6.9902686 -8.9572073 -18.844383)
(26.575751 -10.783939 -27.370332)
(62.42788 -15.738422 -24.53615)
(116.38068 -24.826694 -21.112761)
(177.02888 -35.275575 -12.87603)
(244.56283 -49.33901 -1.9624988)
(312.46269 -66.798518 9.9938918)
(379.1647 -85.427747 21.681374)
(438.03746 -105.69784 32.520437)
(488.16465 -124.62305 40.812106)
(526.26873 -141.8555 46.08443)
(553.23065 -154.10751 48.045869)
(568.23551 -162.28381 46.659679)
(572.76781 -164.24279 43.582276)
(567.69874 -161.73323 39.395582)
(554.14512 -154.74366 35.284274)
(532.95033 -144.77197 31.944175)
(504.8567 -132.88859 29.768467)
(470.97423 -120.55463 28.728892)
(432.64235 -109.05003 28.424449)
(392.22375 -99.282625 28.447218)
(352.71714 -92.17432 27.303947)
(317.73875 -88.584642 26.029405)
(291.41683 -90.362144 23.283466)
(276.7413 -96.80032 20.110735)
(276.69574 -107.95288 16.536359)
(291.87258 -123.56711 13.820029)
(321.1538 -142.94518 12.783196)
(361.66591 -165.36544 14.023036)
(409.32871 -189.75319 17.846519)
(459.48134 -214.98171 23.863426)
(507.77553 -239.99502 31.327252)
(551.13651 -263.79652 39.002403)
(588.10652 -285.89864 45.661352)
(619.20275 -305.81929 50.128925)
(646.51505 -323.66164 51.677227)
(673.35533 -339.6394 50.263561)
(702.8721 -354.21195 46.02675)
(737.65833 -368.24821 40.407275)
(778.93377 -381.26237 34.257605)
(826.67241 -393.72906 28.865353)
(878.87091 -405.84596 25.142703)
(932.12714 -417.65554 23.930895)
(983.95877 -428.94743 24.589697)
(1030.6526 -439.81993 27.206965)
(1071.3308 -449.79207 30.947541)
(1108.6638 -460.05429 34.099735)
(-4.5302988 -22.571123 -36.988791)
(27.054195 -30.172344 -38.93019)
(62.908236 -41.025443 -38.895519)
(114.95864 -52.614192 -31.013715)
(174.9695 -66.103773 -19.168676)
(241.43773 -81.59951 -3.4372153)
(310.04192 -99.444202 12.941711)
(376.03762 -117.93023 29.81637)
(435.5961 -136.93183 43.703779)
(485.42795 -153.32691 54.565716)
(524.0827 -166.55572 61.243509)
(550.24976 -174.30403 63.436918)
(564.98351 -176.95512 62.057568)
(569.54395 -174.14573 57.991726)
(564.80258 -166.87502 52.381781)
(552.21068 -156.08375 46.749398)
(532.11006 -143.29104 41.560987)
(505.52553 -129.86004 37.510766)
(472.95283 -117.29068 34.2908)
(435.85852 -106.60045 31.565669)
(395.95709 -98.730989 28.443262)
(357.05653 -94.78631 25.220124)
(321.87115 -95.095298 20.143548)
(294.10041 -100.33512 15.149155)
(278.06381 -110.71826 9.3988734)
(275.9819 -125.48395 4.3691747)
(289.0139 -144.51185 1.6584821)
(316.23029 -167.4703 1.6588382)
(354.96312 -193.1159 5.0594923)
(401.13972 -220.41602 11.787677)
(450.14642 -248.08273 21.086711)
(497.56281 -274.89342 31.617673)
(540.21512 -299.83268 41.707655)
(576.47037 -322.25237 49.79406)
(606.79605 -341.8433 54.551908)
(633.2576 -358.74826 55.433981)
(659.01458 -373.55237 52.601092)
(687.45066 -386.84305 47.059023)
(721.14243 -399.20946 40.061379)
(761.73441 -411.3295 32.765132)
(808.87283 -422.70738 27.764946)
(860.62806 -434.44562 25.440976)
(913.93873 -445.94958 25.769966)
(965.90326 -457.47194 28.580418)
(1013.3473 -468.29463 32.469106)
(1054.7422 -478.65192 37.039846)
(1092.2626 -488.61405 40.059476)
(-3.6768869 -35.20426 -46.660295)
(27.932631 -40.884932 -51.336447)
(63.398729 -58.993101 -52.156426)
(115.55606 -75.189291 -42.031099)
(175.06372 -91.685896 -27.216499)
(243.17743 -110.63365 -7.9869102)
(312.0295 -130.39621 12.753638)
(378.78595 -149.52477 33.295408)
(437.93978 -167.99154 51.173825)
(486.94343 -180.90961 64.933547)
(523.88513 -191.26654 74.193722)
(548.24454 -193.20208 76.924887)
(562.02297 -190.58658 76.093261)
(565.69308 -181.36455 71.335474)
(561.61889 -168.4011 65.161536)
(550.05464 -152.30656 58.229787)
(532.18504 -135.39357 51.72453)
(507.9765 -119.22208 45.902312)
(477.92032 -105.29029 40.646782)
(442.70631 -94.985788 35.448059)
(404.09084 -89.21938 29.888417)
(364.63152 -88.417687 23.169946)
(328.36958 -93.442002 15.536412)
(298.42588 -103.64881 7.5204853)
(279.75562 -119.07635 -0.15421141)
(274.70593 -138.61889 -5.960578)
(285.16924 -162.27983 -8.4831536)
(310.688 -188.95255 -7.0733612)
(348.49341 -217.72339 -1.2877745)
(394.43231 -247.50232 8.3214229)
(443.61587 -276.98211 20.518853)
(491.25137 -305.12098 33.431854)
(533.7976 -330.95249 45.04843)
(569.32336 -354.00796 53.59185)
(598.22083 -374.03563 57.853058)
(622.55354 -391.20443 57.439972)
(645.74874 -406.10748 53.141052)
(671.45179 -419.22195 46.223338)
(703.08915 -431.4038 38.366862)
(742.28549 -442.86846 31.446894)
(788.94328 -454.12486 26.997206)
(840.90893 -465.50502 25.5087)
(895.43924 -477.01753 27.164194)
(948.72676 -488.64591 31.106449)
(997.43789 -499.90722 35.735858)
(1039.5611 -511.20047 40.664986)
(1075.7788 -521.93024 43.847767)
(-1.8726199e-15 -1.0357256e-16 4.2324109e-16)
(-4.3693994e-15 5.8098526e-16 1.0825799e-16)
(-1.86708e-15 5.0203615e-16 5.7484399e-16)
(-1.1298519e-15 4.4303811e-16 -1.5186772e-16)
(-1.5283164e-15 1.7502349e-16 4.7144117e-17)
(-3.9278597e-15 -6.147074e-18 -1.0233878e-17)
(-3.270765e-15 8.5080195e-17 2.8271762e-17)
(-1.444637e-15 3.1767481e-17 -1.0328492e-16)
(-1.9600489e-15 -2.0641393e-16 2.5996682e-17)
(-1.0758982e-15 -5.0887233e-16 -1.6282415e-16)
(-1.1902312e-15 -6.3217422e-16 -1.0496995e-16)
(-2.2455722e-15 -1.0363924e-16 3.7607835e-16)
(-1.7254929e-15 1.2766475e-16 7.9907906e-17)
(-6.542485e-16 2.4659353e-16 4.7610311e-16)
(-1.0183069e-15 2.0413811e-16 3.0876606e-16)
(-1.2825224e-16 3.2154578e-16 2.6910031e-16)
(-2.4669526e-15 5.8726168e-16 -3.2350189e-17)
(-1.9694108e-15 5.8752001e-16 2.9593509e-16)
(-1.9972486e-15 5.0741204e-16 1.6376266e-16)
(-5.0142844e-16 5.9082617e-16 -1.5096731e-17)
(2.8672985e-17 2.0007103e-16 -2.079567e-16)
(-3.5598279e-15 1.6770216e-16 6.1584209e-17)
(1.5219227e-15 -3.8112137e-16 -3.4960392e-16)
(-8.8364966e-17 -1.5289127e-16 1.7491834e-16)
(2.7397895e-16 -2.6900304e-16 -2.0413732e-16)
(-5.1236454e-16 -3.7600259e-16 -4.411389e-17)
(-1.3114086e-15 -5.3747975e-16 1.2489795e-16)
(2.0041989e-16 -4.4379834e-16 -1.4360784e-16)
(-1.3448657e-15 3.3966264e-16 -2.7012678e-16)
(-2.2010094e-15 1.2158219e-16 1.1470551e-16)
(-1.2722141e-15 -2.3577892e-16 -7.7366055e-17)
(-2.6936153e-15 2.298542e-17 6.0151854e-16)
(-1.8084585e-15 2.5926424e-16 8.2177642e-17)
(-1.0121806e-15 3.7760621e-16 1.5728837e-17)
(-3.5076342e-15 -1.049112e-16 -1.8966684e-16)
(-1.2388067e-16 -2.746004e-16 -1.3203227e-16)
(-1.1077126e-15 -2.2449831e-16 5.9960705e-17)
(-7.9462407e-16 5.2806017e-17 1.8160622e-16)
(-1.481116e-15 2.6347307e-16 -6.003674e-17)
(5.3541372e-16 1.9494005e-16 5.7756958e-17)
(-2.5861876e-15 -7.0653702e-17 -1.8824779e-16)
(-1.6152529e-15 1.8241927e-16 3.8488004e-16)
(-1.0389662e-15 3.299921e-17 2.9700946e-16)
(-3.8817577e-15 -1.9427146e-16 -1.2145786e-15)
(-1.6161979e-15 2.8442108e-16 -1.856842e-16)
(8.1577518e-16 1.8112067e-17 2.0819295e-16)
(-2.485062e-15 2.8178417e-16 -5.4749215e-16)
(-1.8307085e-15 4.4562511e-16 -1.4619564e-16)
(-1.4586292e-15 4.0358521e-16 -4.0281137e-16)
(29.082312 -17.145577 -39.693062)
(32.879324 -22.362291 -26.813985)
(39.798083 -23.577754 -14.778795)
(42.131472 -24.611757 -4.2617385)
(40.819666 -23.055965 5.4335088)
(38.47393 -24.816037 15.579549)
(35.340106 -14.645838 27.024268)
(56.97148 -83.862955 -54.647723)
(66.175657 -96.098728 -31.292858)
(70.485036 -88.287702 -15.693227)
(71.422124 -84.729552 -1.7804944)
(72.750862 -90.948967 11.934626)
(66.129871 -88.462944 26.441382)
(62.315023 -86.995246 50.125629)
(86.402338 -111.73727 -54.832008)
(99.038241 -106.3421 -40.107943)
(107.07132 -114.49911 -17.24228)
(106.76679 -112.59098 -1.3222355)
(106.61856 -108.77462 16.473316)
(100.34182 -107.61481 28.337544)
(92.115815 -113.72202 55.311107)
(129.88843 -150.75132 -42.145833)
(137.49588 -156.09008 -29.672893)
(141.17133 -153.94552 -10.517985)
(143.31752 -153.32257 1.3598224)
(141.95839 -152.59528 15.78882)
(137.14477 -155.09999 33.130572)
(128.66943 -148.77942 45.627554)
(180.66773 -182.79344 -29.536522)
(186.58827 -185.64924 -18.403368)
(192.26565 -188.82239 -5.0894672)
(191.95072 -185.56051 7.8335653)
(191.98913 -185.37756 18.373166)
(187.84096 -182.58848 28.64285)
(183.2138 -185.74972 42.794264)
(238.21902 -207.12139 -4.9266141)
(239.2946 -209.07954 1.0172337)
(240.12235 -208.0126 9.7041731)
(240.76685 -207.7599 15.211046)
(238.89204 -203.90192 22.23228)
(238.23676 -204.04248 27.690152)
(233.9203 -201.68453 32.023616)
(297.46991 -223.96658 16.641812)
(295.48626 -226.71302 19.974568)
(294.89037 -229.14609 22.311122)
(293.41693 -224.54553 24.396654)
(293.11941 -223.34875 27.130494)
(292.80238 -219.4459 27.332415)
(292.27195 -221.68891 25.003253)
(355.19035 -234.65964 41.249583)
(350.37743 -236.53125 38.099649)
(346.80934 -233.24608 35.665704)
(344.67264 -230.24072 32.629442)
(345.02778 -225.75972 29.48997)
(344.37284 -220.46544 26.290651)
(346.32251 -219.18145 20.749023)
(409.90898 -237.22592 60.157223)
(401.69442 -235.8727 55.237178)
(395.7907 -232.83152 49.468219)
(393.03635 -228.26614 42.082369)
(391.52023 -224.46196 34.987192)
(394.73589 -219.34172 28.42157)
(395.62684 -218.80474 16.368409)
(455.19757 -230.27286 76.041284)
(445.92498 -229.89482 66.425756)
(439.31638 -225.64198 57.306369)
(435.8133 -218.91516 49.213826)
(434.96758 -211.29274 38.869005)
(436.58879 -204.96317 29.483734)
(440.43027 -201.21628 16.59896)
(493.1291 -221.30421 84.133876)
(482.44119 -216.35147 74.360457)
(474.56122 -210.26748 63.8231)
(470.58835 -202.24362 52.355291)
(468.87828 -195.11108 40.689234)
(471.13564 -189.9124 30.262954)
(474.28625 -183.65942 13.913974)
(519.49176 -203.763 87.036)
(509.50635 -198.55456 76.284614)
(501.84839 -191.63306 63.939275)
(497.92143 -183.86158 53.252364)
(496.98684 -175.88445 40.993029)
(498.02445 -167.2975 29.945873)
(502.63635 -161.11884 13.597328)
(537.48117 -186.90981 84.325369)
(527.90567 -179.75138 73.299012)
(520.73347 -171.63251 63.051504)
(516.95004 -162.29489 51.38579)
(515.9332 -152.61381 39.482358)
(516.96397 -146.35202 27.990562)
(521.65742 -137.56482 15.693442)
(546.08915 -165.56964 77.920014)
(537.42617 -158.47974 68.267556)
(531.09908 -149.7088 57.8766)
(528.04969 -140.05437 47.28896)
(527.54801 -131.40777 36.65842)
(528.28201 -123.41179 25.720755)
(532.43435 -116.3717 14.948877)
(546.88546 -145.6654 70.208194)
(539.38352 -137.91117 61.694065)
(534.21216 -127.99151 52.63541)
(531.9136 -118.40526 43.154205)
(531.72128 -108.18916 33.499547)
(532.29367 -101.44937 23.210663)
(536.10042 -95.015878 14.393193)
(540.32143 -124.94056 62.256901)
(533.9837 -116.86991 55.096207)
(530.16251 -107.15703 47.455977)
(528.70336 -96.93705 38.950865)
(528.86087 -87.433309 31.054898)
(529.88341 -80.504853 21.61131)
(533.04978 -76.220411 14.17475)
(526.98609 -105.6936 55.400454)
(522.11538 -97.741527 49.952076)
(519.3198 -87.056691 43.638303)
(518.79869 -76.738775 37.0152)
(519.22872 -66.83108 30.301736)
(520.81877 -59.855761 22.456564)
(522.92004 -57.514482 15.929431)
(507.72374 -88.221584 50.044753)
(504.00961 -79.796994 46.055945)
(502.33701 -69.100214 42.034687)
(502.62329 -58.499017 36.878248)
(503.12902 -48.409135 32.134253)
(505.1266 -41.226908 26.330394)
(505.94545 -40.136361 20.826882)
(482.57033 -73.595719 45.554931)
(480.29394 -64.978989 43.895161)
(479.55878 -54.185905 41.958707)
(480.46459 -42.888928 39.316574)
(480.99546 -32.512628 36.799715)
(482.99078 -24.501276 33.646547)
(482.3971 -24.105603 29.835775)
(452.75745 -63.160311 41.450779)
(451.92057 -54.531319 42.193181)
(452.04971 -43.555724 43.167491)
(453.50634 -31.890711 43.383474)
(453.84024 -20.947258 43.646455)
(455.31034 -12.155487 43.84773)
(453.08144 -10.924513 42.715656)
(419.45902 -58.62447 36.46897)
(420.19861 -49.886317 40.319397)
(421.32396 -39.11927 44.471258)
(423.04141 -26.783809 48.072945)
(423.24826 -15.400238 51.717546)
(423.59964 -5.3740555 55.658209)
(419.85564 -2.5443708 58.300884)
(384.90577 -61.196533 30.115287)
(387.42121 -52.876176 37.310889)
(389.51064 -42.198207 44.773652)
(391.51043 -29.721598 52.058125)
(391.65291 -17.790671 59.333327)
(390.56327 -6.7684999 67.168574)
(385.45312 -1.4070745 74.505469)
(351.96791 -72.19018 21.989222)
(356.22705 -64.468668 32.558636)
(359.45123 -54.275984 43.330305)
(361.72732 -41.705855 54.137246)
(361.99115 -29.367936 64.994773)
(359.30453 -17.457493 76.461518)
(353.34328 -9.4506815 88.654175)
(323.76508 -92.027984 12.687072)
(329.81014 -85.23837 26.248847)
(334.11866 -75.465886 39.780773)
(336.94449 -63.251322 53.441917)
(337.40423 -50.726813 67.354143)
(333.78132 -38.539564 81.622178)
(327.45438 -28.111158 98.2089)
(303.7499 -120.10316 3.2635918)
(311.1798 -114.41512 18.924745)
(316.77654 -105.35977 34.509984)
(320.1874 -93.594307 50.021704)
(321.06986 -81.347933 65.906506)
(317.17716 -69.234032 81.945935)
(310.94291 -57.428262 101.22855)
(294.56898 -155.10283 -4.4795783)
(302.95638 -150.78375 12.073655)
(309.44356 -142.23052 28.331763)
(313.18733 -131.00125 44.897729)
(315.06152 -119.10594 60.774876)
(312.36109 -107.68287 77.365569)
(307.49265 -95.792003 96.646921)
(297.95732 -194.4644 -8.5831699)
(306.66755 -191.24546 7.3814087)
(313.58754 -183.33871 22.854565)
(319.11678 -173.0158 38.340282)
(321.70234 -161.38901 53.749733)
(320.33932 -150.10184 69.334112)
(316.44838 -139.23259 86.699855)
(314.83051 -235.67029 -7.918965)
(322.47564 -233.22421 6.3170589)
(330.00803 -225.72519 19.533775)
(335.49716 -215.49661 33.021984)
(339.52995 -204.38499 46.26884)
(340.04297 -193.66526 59.235678)
(338.45363 -184.21791 74.159973)
(343.1562 -275.6341 -1.8543355)
(349.39563 -273.5066 9.4241527)
(356.32061 -266.04778 19.482756)
(362.45048 -255.94412 29.95104)
(367.02479 -245.21844 39.924161)
(370.01731 -234.65267 49.403938)
(370.23482 -227.36574 60.192188)
(380.34783 -311.64428 8.8239907)
(384.65445 -309.19971 16.524956)
(390.62152 -301.4768 22.813171)
(396.64576 -291.20758 29.852863)
(401.82024 -280.55137 36.02864)
(406.86098 -270.24388 41.944524)
(408.84788 -264.8077 48.105234)
(422.74465 -341.71943 22.856829)
(424.97133 -338.48351 26.64832)
(429.53624 -330.38771 29.496838)
(435.18723 -319.71105 32.95481)
(440.47007 -308.93963 35.573956)
(447.02857 -298.62901 38.275539)
(450.17949 -294.44517 39.99521)
(466.46339 -365.20424 37.763205)
(466.85377 -360.90419 38.281879)
(469.79232 -352.28003 38.150909)
(474.72652 -341.10255 38.695688)
(479.74031 -330.03364 38.433505)
(486.89523 -319.46468 38.772593)
(490.55856 -315.59294 37.10133)
(508.23284 -382.55168 51.165399)
(507.24156 -377.02361 49.254889)
(508.65734 -367.94886 47.243521)
(512.63138 -356.37222 45.775389)
(517.00135 -344.88237 43.761285)
(523.78048 -334.01217 42.814013)
(527.25967 -329.42489 39.361178)
(545.783 -395.1942 60.707081)
(544.13909 -388.66464 57.640062)