/*--------------------------------*- C++ -*----------------------------------*\
  =========                 |
  \\      /  F ield         | OpenFOAM: The Open Source CFD Toolbox
   \\    /   O peration     | Website:  https://openfoam.org
    \\  /    A nd           | Version:  6
     \\/     M anipulation  |
\*---------------------------------------------------------------------------*/
FoamFile
{
    version     2.0;
    format      ascii;
    class       pointVectorField;
    location    "1.64";
    object      lm;
}
// * * * * * * * * * * * * * * * * * * * * * * * * * * * * * * * * * * * * * //

dimensions      [1 -2 -1 0 0 0 0];

internalField   nonuniform List<vector> 
3969
(
(0 0 0)
(0 0 0)
(-2539.0568 -290.50454 -207.26188)
(-2502.9895 367.00846 -195.45216)
(0 0 0)
(0 0 0)
(-2509.7513 441.62998 -195.20663)
(-2546.2116 -217.43676 -207.06642)
(0 0 0)
(0 0 0)
(0 0 0)
(0 0 0)
(0 0 0)
(0 0 0)
(0 0 0)
(-2534.1926 -209.92965 -206.58682)
(-2530.7397 -128.15503 -205.55088)
(-2527.0726 -45.264444 -203.58632)
(-2523.0436 37.995983 -201.49935)
(-2518.627 121.49074 -199.33555)
(-2513.6117 204.20667 -197.53905)
(-2508.1746 286.0612 -196.31274)
(12.912064 18.363819 14.48449)
(25.562504 26.125752 13.815118)
(41.677981 32.806236 10.961963)
(58.031418 38.495468 7.7805948)
(75.639115 41.343382 4.2510651)
(92.530132 42.78885 1.3177923)
(109.14632 41.358725 -1.2937891)
(123.80504 37.826146 -3.0031258)
(136.56443 31.348925 -4.0496372)
(146.22369 22.848814 -4.0985814)
(152.69982 11.369627 -3.8174563)
(154.9672 -2.3831531 -2.5279099)
(152.64715 -18.751698 -0.6052308)
(145.33351 -37.627552 1.4838907)
(132.05783 -58.706435 4.0825993)
(113.21171 -81.73149 6.5994679)
(87.818787 -106.74686 8.9486898)
(55.85503 -133.27864 11.069246)
(16.851184 -161.11445 12.651972)
(-29.15992 -189.76149 13.647564)
(-82.477295 -218.85341 13.819946)
(-142.94132 -247.88749 13.160941)
(-210.63259 -276.29884 11.565729)
(-285.19974 -303.64787 9.0518958)
(-366.38079 -329.16284 5.5679317)
(-453.65474 -352.82741 1.2026077)
(-546.42965 -373.78916 -4.1370584)
(-644.16597 -391.66688 -10.156256)
(-745.96534 -406.25643 -16.951905)
(-850.81699 -417.25766 -24.376445)
(-957.97209 -424.60456 -32.335355)
(-1066.3641 -428.21124 -40.818447)
(-1175.0093 -428.31179 -49.637654)
(-1283.0968 -425.05653 -58.862188)
(-1389.6305 -418.81017 -68.410463)
(-1493.996 -410.10567 -78.177419)
(-1595.6258 -399.44455 -88.194784)
(-1693.9226 -387.21756 -98.682917)
(-1789.0447 -374.33511 -109.14956)
(-1880.3707 -361.10116 -120.05218)
(-1968.8538 -348.21464 -130.96903)
(-2053.8815 -336.28835 -142.25253)
(-2136.9771 -324.91115 -153.43547)
(-2218.0478 -315.76413 -164.69614)
(-2297.8235 -307.47675 -175.871)
(-2378.2546 -300.52252 -186.47466)
(-2458.176 -295.56019 -196.92818)
(4.2908327 -13.077749 -17.848853)
(20.200767 -18.474837 -11.747922)
(34.007178 -24.219074 -13.054025)
(49.634441 -23.448744 -8.6584633)
(67.161523 -24.094121 -5.2119378)
(84.18724 -20.324382 -0.56914899)
(100.82328 -15.049758 4.6266879)
(116.3307 -7.1811546 10.230834)
(130.1749 2.4953821 16.754714)
(141.28617 14.487037 23.528335)
(149.73576 27.914098 30.852039)
(154.07122 43.39023 38.852156)
(154.53624 59.816304 46.685351)
(150.03659 77.656835 54.575461)
(140.13877 96.597564 62.162698)
(124.43988 116.1932 69.281404)
(102.21655 136.51672 75.515967)
(73.425136 157.07011 80.783085)
(37.325945 177.95574 84.616071)
(-6.0337469 198.63368 86.948458)
(-56.943686 219.27284 87.411013)
(-115.50359 239.15004 86.021694)
(-181.55261 258.66046 82.364281)
(-255.03924 277.09777 76.683906)
(-335.30433 294.34757 68.960325)
(-422.11816 310.26922 59.09341)
(-514.54753 324.59333 47.454189)
(-612.55884 337.46018 34.133594)
(-714.74067 348.27048 19.490175)
(-820.14514 357.19516 3.7062006)
(-927.9677 364.25181 -12.75845)
(-1036.9792 369.30582 -29.593639)
(-1146.2685 372.53271 -46.407273)
(-1254.7928 374.01378 -62.849867)
(-1361.7386 373.89149 -78.628231)
(-1466.1929 372.56408 -93.396636)
(-1567.8278 370.06516 -107.14481)
(-1665.9258 367.0703 -119.46603)
(-1760.2816 363.55274 -130.54039)
(-1851.1544 360.21242 -140.28055)
(-1938.5447 357.27513 -148.95111)
(-2022.8036 354.96769 -156.40319)
(-2104.6746 353.7479 -163.19746)
(-2184.6782 353.64144 -169.37914)
(-2263.6912 354.94895 -175.49504)
(-2342.6077 357.50556 -181.6448)
(-2422.0654 361.62147 -188.37169)
(0 0 0)
(0 0 0)
(0 0 0)
(0 0 0)
(0 0 0)
(0 0 0)
(0 0 0)
(9.4483014 -9.0466518 12.18596)
(25.452814 -26.050868 8.7276744)
(40.71241 -22.533849 2.6463834)
(60.137428 -31.401002 -2.4582096)
(79.648152 -31.850146 -6.810443)
(97.547722 -31.467956 -11.268757)
(116.53814 -29.425377 -14.62877)
(132.11386 -24.756408 -16.416858)
(146.99619 -17.506451 -18.712972)
(157.66464 -8.6646929 -18.038584)
(165.79162 4.170549 -19.004934)
(170.32652 17.288055 -17.680641)
(169.41187 33.966951 -15.928968)
(163.17497 52.655074 -13.635301)
(152.07037 72.722677 -10.901149)
(134.15521 95.94293 -8.1735705)
(110.39882 119.81976 -5.3648909)
(79.54589 146.05313 -2.8229835)
(41.80221 173.01475 -0.65092538)
(-3.2025954 201.12839 1.0231476)
(-55.56864 229.62452 2.0029316)
(-115.24263 258.24405 2.2845536)
(-182.25726 286.46205 1.766481)
(-256.1695 313.77911 0.43058166)
(-337.1988 340.12092 -1.519474)
(-424.61239 364.39302 -4.1425189)
(-516.79073 387.42589 -8.2942431)
(-614.25162 407.16473 -12.67154)
(-715.9017 424.40713 -17.954015)
(-820.74782 438.55779 -23.768949)
(-927.90263 449.63526 -30.131965)
(-1036.3194 457.66567 -37.076271)
(-1145.0851 462.75556 -44.481507)
(-1253.2053 465.03646 -52.395776)
(-1359.8455 464.79713 -60.659531)
(-1464.2259 462.92529 -69.638111)
(-1566.4531 459.23566 -78.605607)
(-1664.362 454.01776 -88.453848)
(-1759.5341 448.79834 -98.308941)
(-1851.0723 443.31168 -108.82831)
(-1939.2056 438.34036 -119.52361)
(-2024.5212 434.19307 -130.42203)
(-2107.2988 431.42682 -141.52554)
(-2188.3537 430.11975 -152.59401)
(-2268.3836 430.57936 -163.57764)
(-2348.2017 432.7781 -174.33254)
(-2428.5749 436.52727 -184.70117)
(-2515.256 360.42143 -197.16939)
(-2520.3189 277.74394 -198.85285)
(-2525.7181 194.91631 -199.95409)
(-2529.9474 110.98606 -200.644)
(-2534.1548 27.529475 -201.52433)
(-2537.9556 -55.15834 -202.64182)
(-2541.2486 -136.86485 -204.53696)
(-2465.2199 -222.38696 -199.84208)
(-2385.3454 -227.43985 -192.64451)
(-2305.951 -233.36081 -186.16271)
(-2226.1505 -240.46785 -179.63291)
(-2145.4409 -248.51137 -172.96066)
(-2062.7599 -257.6759 -165.70419)
(-1977.4581 -267.636 -157.55139)
(-1888.9292 -278.18765 -148.32414)
(-1796.7523 -288.94148 -137.66018)
(-1700.6188 -299.62881 -125.67768)
(-1601.1559 -309.5145 -112.15457)
(-1497.0529 -319.2574 -97.179792)
(-1390.5376 -326.39462 -80.985806)
(-1281.0731 -332.67916 -63.709149)
(-1169.9455 -336.67874 -45.617434)
(-1057.8787 -338.47181 -27.032571)
(-945.94709 -337.80489 -8.3918813)
(-835.25936 -334.7027 10.018557)
(-726.84408 -328.90297 27.556878)
(-621.83386 -320.8331 44.208567)
(-521.19021 -310.21044 59.196188)
(-425.82455 -297.52457 72.492883)
(-336.50865 -282.79517 83.712189)
(-253.81178 -266.32977 92.803238)
(-178.41379 -248.41119 99.500987)
(-110.48884 -229.2735 103.85265)
(-50.331081 -209.25689 105.93323)
(2.0378048 -188.53313 105.71715)
(46.64726 -167.50601 103.54875)
(83.725333 -146.29188 99.48122)
(113.53641 -125.2884 93.915988)
(136.39488 -104.67794 87.099)
(152.97181 -84.741473 79.156987)
(163.16253 -65.157296 70.467135)
(167.66299 -47.356707 61.753199)
(167.65961 -30.883948 52.354176)
(163.13154 -15.655742 43.586511)
(154.75103 -2.1599009 34.692555)
(143.44256 9.0093851 26.524017)
(129.37418 18.365425 18.61411)
(113.37585 24.958801 11.314734)
(95.614661 29.808933 4.573456)
(78.240744 31.11725 -1.0847679)
(59.875687 31.629062 -6.8628405)
(42.517421 28.429288 -10.151917)
(27.272223 22.104425 -12.997004)
(16.774881 17.875202 -11.319723)
(0 0 0)
(0 0 0)
(0 0 0)
(0 0 0)
(0 0 0)
(0 0 0)
(0 0 0)
(0 0 0)
(0 0 0)
(0 0 0)
(0 0 0)
(0 0 0)
(0 0 0)
(0 0 0)
(-2503.3597 374.70938 -195.84051)
(-2503.5316 383.10067 -196.11173)
(-2504.0182 392.00406 -195.81563)
(-2504.795 401.30381 -195.51511)
(-2505.7118 410.84289 -195.12435)
(-2507.0002 420.84331 -194.64397)
(-2508.4192 430.84268 -195.08104)
(-2539.3566 -279.95146 -207.06619)
(-2539.7605 -270.22129 -207.00023)
(-2540.2537 -260.57373 -207.25819)
(-2540.9488 -251.15868 -207.49222)
(-2541.9369 -241.97377 -207.68129)
(-2543.0929 -233.23325 -207.63938)
(-2544.6798 -224.87463 -207.26078)
(8.2550508 8.0788426 12.629293)
(23.744739 11.809804 8.5485378)
(39.283306 17.931949 7.8438741)
(56.877892 22.067275 5.0048824)
(74.567338 24.925825 2.998474)
(92.583789 26.190245 0.85478475)
(110.02038 26.114781 -0.5914595)
(125.66737 23.786709 -1.3373123)
(139.41985 20.071704 -1.3614183)
(150.11266 14.291555 -0.84595171)
(157.6297 6.335322 0.51958747)
(160.92294 -3.1342077 2.5431623)
(159.66273 -15.09896 4.8604322)
(153.36739 -28.522103 7.6159961)
(141.25625 -43.804404 10.547919)
(123.15029 -60.908661 13.510272)
(98.614911 -79.480571 16.244678)
(67.293184 -99.274209 18.599618)
(28.867405 -120.12892 20.417842)
(-16.819239 -141.67892 21.513736)
(-69.906748 -163.59267 21.736471)
(-130.38573 -185.44948 21.03063)
(-198.22023 -206.94807 19.268445)
(-273.07313 -227.56582 16.470613)
(-354.78976 -247.0098 12.508531)
(-442.82457 -264.79147 7.6939587)
(-536.39424 -280.53868 1.7422556)
(-635.12706 -294.12604 -5.0524015)
(-737.89796 -305.07021 -12.679753)
(-843.83303 -313.43864 -20.955883)
(-952.07042 -318.9756 -29.892247)
(-1061.503 -321.7627 -39.247839)
(-1171.1567 -321.91165 -49.016143)
(-1280.1319 -319.47732 -59.125402)
(-1387.4432 -314.97844 -69.330914)
(-1492.4463 -308.39512 -79.863816)
(-1594.586 -300.48343 -90.333694)
(-1693.0907 -291.33521 -101.10004)
(-1788.2282 -281.55524 -111.72732)
(-1879.5629 -271.45414 -122.53148)
(-1967.708 -261.58179 -133.21084)
(-2052.3892 -251.84233 -144.04387)
(-2135.0876 -242.94312 -154.64079)
(-2215.3562 -234.77175 -165.25575)
(-2294.8421 -227.3038 -175.69806)
(-2374.4306 -220.71008 -185.90968)
(-2453.3478 -215.38249 -196.11205)
(5.6267836 5.5914151 8.6330388)
(20.148301 6.5435231 6.9561849)
(36.670093 12.595449 6.1447141)
(53.795698 15.110633 4.7928752)
(72.92623 18.094619 2.9507332)
(91.671979 19.977103 1.9089585)
(109.61085 20.69129 1.1860148)
(126.23632 20.03313 1.5747474)
(140.75611 18.326331 1.9210776)
(152.56356 14.886419 3.6029279)
(160.62751 10.402789 5.5904948)
(164.95265 4.2189525 8.1569636)
(164.49098 -3.3994565 11.143419)
(158.75025 -12.358464 14.411626)
(147.34818 -22.871982 17.714262)
(130.10059 -34.714525 21.018832)
(106.23006 -47.778017 23.964826)
(75.605672 -61.880333 26.464291)
(37.69304 -76.867675 28.307626)
(-7.5822101 -92.46344 29.306102)
(-60.435954 -108.36202 29.378069)
(-120.87712 -124.39404 28.404027)
(-188.57865 -140.08151 26.294739)
(-263.72535 -155.32316 22.98112)
(-345.6275 -169.49426 18.590825)
(-433.9349 -182.59611 12.929183)
(-528.10658 -194.11761 6.2924859)
(-627.29533 -203.8937 -1.3209583)
(-730.65529 -211.8521 -9.7996458)
(-837.28465 -217.71434 -18.939676)
(-946.2415 -221.50765 -28.693278)
(-1056.3184 -223.18812 -38.879292)
(-1166.6933 -222.78341 -49.449882)
(-1276.1917 -220.57254 -60.117813)
(-1384.0829 -216.61441 -71.000969)
(-1489.4815 -211.21935 -81.860278)
(-1591.8891 -204.74121 -92.662983)
(-1690.6291 -197.32597 -103.48085)
(-1785.9829 -189.45671 -114.07297)
(-1877.1712 -181.29748 -124.63263)
(-1965.3015 -173.17039 -135.05357)
(-2049.7593 -165.27857 -145.33197)
(-2132.1444 -157.67933 -155.51512)
(-2212.2001 -150.7755 -165.55342)
(-2291.3194 -144.23073 -175.49574)
(-2370.468 -138.20886 -185.38908)
(-2448.8928 -133.18836 -195.16284)
(5.9172039 3.1933604 4.7143782)
(20.354436 4.6578954 2.9294685)
(35.530185 7.8672836 2.8211893)
(53.949001 10.344418 1.4589403)
(73.036148 12.840606 1.0097482)
(91.626495 14.806302 0.93156925)
(110.30524 16.348083 1.4877614)
(126.94041 16.860001 2.556026)
(141.92594 17.114007 4.3303436)
(153.45729 16.230199 6.9631354)
(162.42398 14.442316 9.6639199)
(167.05371 11.936952 13.105158)
(167.17027 8.0933504 16.922591)
(162.28249 3.5315569 20.711059)
(151.78316 -2.2416292 24.532391)
(134.99537 -9.0247722 28.422583)
(111.70542 -16.740059 31.741456)
(81.425225 -25.331408 34.717974)
(43.852526 -34.568204 36.743986)
(-1.058514 -44.371381 37.971848)
(-53.596433 -54.5004 38.024215)
(-113.58824 -64.694456 36.929046)
(-181.4839 -74.937851 34.52796)
(-256.53596 -84.604609 30.952656)
(-338.6253 -93.888052 25.922659)
(-427.26274 -102.30612 19.831767)
(-521.85213 -109.74506 12.5751)
(-621.45143 -116.02347 4.1232687)
(-725.37294 -120.91117 -5.1590375)
(-832.5618 -124.39169 -15.186947)
(-941.94932 -126.41235 -25.893077)
(-1052.557 -126.87747 -37.043356)
(-1163.3073 -125.93768 -48.442728)
(-1273.2246 -123.64785 -60.020598)
(-1381.3814 -120.12133 -71.588118)
(-1487.0193 -115.59645 -83.06487)
(-1589.4439 -110.25172 -94.334792)
(-1688.3565 -104.2819 -105.44831)
(-1783.4057 -97.895165 -116.16846)
(-1874.6753 -91.237922 -126.78306)
(-1962.4842 -84.718132 -136.86062)
(-2046.8257 -78.084692 -146.941)
(-2128.953 -71.924078 -156.55384)
(-2208.7723 -65.905843 -166.11717)
(-2287.6226 -60.228565 -175.49057)
(-2366.4233 -54.890271 -184.77942)
(-2444.7285 -50.129287 -194.05563)
(4.7861428 0.62202899 2.0946909)
(17.627705 1.2780002 1.1564184)
(34.200773 3.9186776 0.66728412)
(51.432067 5.7597047 0.84293879)
(70.547099 8.1807649 1.2184312)
(89.815284 10.54778 1.9010608)
(108.09396 12.970007 3.3091009)
(125.57812 14.893542 5.3766978)
(140.51511 17.16557 7.7651132)
(153.44997 18.615575 10.601551)
(162.66998 20.338162 14.103387)
(167.73992 21.069393 18.340417)
(168.3813 21.384795 22.675504)
(163.78333 21.281253 27.069568)
(153.58718 20.091338 31.755826)
(137.16109 18.485719 35.928239)
(114.37276 15.927838 39.88245)
(84.451914 12.92866 42.982155)
(47.460055 9.2716731 45.294274)
(2.7982617 5.1862546 46.545276)
(-49.493693 0.69166887 46.636394)
(-109.92506 -4.1641968 45.439524)
(-177.37609 -8.801802 42.89606)
(-252.38395 -13.636368 38.775897)
(-334.40269 -18.124944 33.415682)
(-422.99226 -22.224041 26.567125)
(-517.40966 -25.744699 18.330615)
(-616.9939 -28.564362 9.019366)
(-720.86515 -30.558188 -1.26899)
(-828.04055 -31.733265 -12.397462)
(-937.51575 -31.90245 -24.162506)
(-1048.1955 -31.202809 -36.274207)
(-1159.0742 -29.521384 -48.673015)
(-1269.0584 -27.057931 -61.052663)
(-1377.341 -23.796214 -73.34839)
(-1483.024 -19.885698 -85.361567)
(-1585.6178 -15.51518 -97.012146)
(-1684.5444 -10.733458 -108.231)
(-1779.7759 -5.6643741 -119.04417)
(-1871.0036 -0.57421115 -129.24822)
(-1958.7784 4.5649847 -139.13185)
(-2043.1016 9.6141525 -148.53745)
(-2125.1111 14.584828 -157.68543)
(-2204.7928 19.376911 -166.53776)
(-2283.5839 24.106034 -175.37676)
(-2362.2417 28.743513 -184.00287)
(-2440.5255 33.304443 -192.76719)
(3.7637624 -0.31745411 -1.0913945)
(18.555657 1.842146 -3.543302)
(33.300375 2.5692578 -2.5320397)
(51.099028 4.33825 -2.2405444)
(70.776021 6.349326 -1.2885007)
(89.290402 8.5691924 0.64237537)
(108.35872 11.96791 2.743554)
(125.0754 14.831485 5.9212357)
(140.72043 19.115987 9.0760301)
(152.91178 22.887451 13.479794)
(162.1092 27.099208 18.404209)
(167.48715 30.673633 23.375726)
(168.3188 34.992788 28.437838)
(164.10859 38.381504 33.887031)
(154.29777 41.964765 38.930995)
(138.41494 44.935929 43.796229)
(115.85148 47.564957 48.144314)
(86.431935 49.782925 51.68602)
(49.612507 51.47418 54.336847)
(5.3739741 52.921914 55.703249)
(-46.774235 53.580219 55.983469)
(-106.19363 54.623255 54.38716)
(-173.56428 55.094173 51.524205)
(-248.27403 55.56108 47.146898)
(-330.26433 55.915716 41.108714)
(-418.70905 56.267965 33.552276)
(-513.25519 56.787531 24.678076)
(-613.00963 57.485987 14.585579)
(-717.0459 58.452306 3.3976096)
(-824.44473 59.717854 -8.6295675)
(-934.07072 61.387578 -21.315764)
(-1044.9898 63.387644 -34.386281)
(-1155.9656 65.851445 -47.684542)
(-1266.12 68.531923 -60.875422)
(-1374.4419 71.658136 -73.909047)
(-1480.2096 74.939484 -86.510636)
(-1582.6749 78.470663 -98.586679)
(-1681.6296 82.050457 -110.15774)
(-1776.4892 85.919069 -120.95585)
(-1867.5824 89.654547 -131.28122)
(-1955.0489 93.431009 -140.84595)
(-2039.2999 97.226629 -150.09098)
(-2120.8978 100.91941 -158.70083)
(-2200.5649 104.72249 -167.19626)
(-2279.2632 108.57732 -175.34813)
(-2357.7826 112.68771 -183.46035)
(-2436.329 117.02686 -191.52986)
(3.6031159 -3.3362443 -6.1404842)
(17.714595 -2.9651228 -5.6940162)
(32.591194 -3.7914224 -5.0643126)
(50.535593 -2.335606 -4.2157887)
(68.949369 -1.4463222 -1.4402866)
(87.552905 1.9465935 0.85294199)
(105.61478 5.6178033 4.3238996)
(122.47096 10.408236 8.1961746)
(137.33307 16.472957 12.49011)
(149.5855 22.674587 17.670139)
(158.83714 30.059644 22.878812)
(164.17104 37.723355 28.607413)
(164.92453 45.900288 34.730999)
(160.75319 54.220757 40.704716)
(151.08769 62.633026 46.673553)
(135.28549 71.004044 52.14824)
(113.03186 79.24843 57.150438)
(83.818434 87.21361 61.125294)
(47.364756 95.002231 64.1306)
(3.4404916 102.30832 65.758932)
(-48.173972 109.53465 66.060413)
(-107.65252 115.65136 64.307881)
(-174.43763 122.0266 61.633806)
(-249.14446 128.26371 56.452209)
(-330.61774 133.67284 49.956575)
(-418.57052 138.93525 41.776833)
(-512.64753 143.54614 31.980943)
(-611.85125 147.81113 20.792875)
(-715.37646 151.69084 8.4832213)
(-822.30302 155.34619 -4.7842112)
(-931.48379 158.70719 -18.710601)
(-1041.9465 161.78089 -33.029571)
(-1152.5317 164.67466 -47.469924)
(-1262.3216 167.26691 -61.712691)
(-1370.3542 169.75428 -75.651263)
(-1475.7905 171.99592 -88.937812)
(-1578.1227 174.12231 -101.56663)
(-1676.7743 176.10963 -113.25333)
(-1771.6826 177.99979 -124.37598)
(-1862.7906 179.87231 -134.15294)
(-1950.2988 182.13964 -143.57564)
(-2034.5045 184.33728 -152.03993)
(-2116.158 186.80099 -160.12578)
(-2195.9302 189.40766 -167.72832)
(-2274.6633 192.44837 -175.24577)
(-2353.2034 195.79061 -182.73609)
(-2432.0048 199.76968 -190.32616)
(2.6913045 -4.8469052 -9.3449595)
(17.991542 -5.329086 -9.1015201)
(32.551077 -7.9161388 -9.0155229)
(50.033125 -7.9763867 -6.4839099)
(68.172445 -6.809949 -3.5813088)
(86.027224 -3.7091728 -0.34697292)
(104.02834 0.67583357 4.2342451)
(120.14939 6.8178388 8.6728317)
(134.86202 14.529082 14.221236)
(146.89955 23.119206 20.072035)
(155.70425 33.634525 26.33676)
(161.01788 44.374314 33.482872)
(161.46238 56.738543 40.079544)
(157.54245 69.185192 47.212299)
(147.74772 82.457899 53.79146)
(132.22646 95.869338 60.127654)
(110.06713 109.54177 65.605849)
(81.146672 123.21307 70.189457)
(44.973926 136.78395 73.564079)
(1.3595879 150.12979 75.502793)
(-49.994615 163.06687 75.830696)
(-108.70843 175.59564 74.375267)
(-175.55978 187.46395 71.034468)
(-249.54319 199.0074 65.749057)
(-330.55673 209.50124 58.820348)
(-418.17229 219.38289 49.800512)
(-511.80401 228.3341 39.21571)
(-610.68279 236.31637 27.135879)
(-713.94295 243.51115 13.778917)
(-820.52205 249.77282 -0.61739625)
(-929.39389 255.0993 -15.673044)
(-1039.5494 259.55843 -31.124989)
(-1149.8171 263.13072 -46.605415)
(-1259.3396 265.87846 -61.85996)
(-1367.0211 267.95502 -76.609624)
(-1472.2234 269.27112 -90.600768)
(-1574.2599 270.18326 -103.68026)
(-1672.7312 270.63298 -115.76774)
(-1767.2702 270.86881 -126.75429)
(-1858.1778 271.0299 -136.75174)
(-1945.412 271.23377 -145.75461)
(-2029.5063 271.74729 -153.92783)
(-2110.987 272.50437 -161.42088)
(-2190.6767 273.8154 -168.52801)
(-2269.3239 275.68052 -175.4503)
(-2347.8055 278.14531 -182.40863)
(-2427.2629 281.51833 -189.51173)
(0 0 0)
(0 0 0)
(0 0 0)
(0 0 0)
(0 0 0)
(0 0 0)
(0 0 0)
(0 0 0)
(0 0 0)
(0 0 0)
(0 0 0)
(0 0 0)
(0 0 0)
(0 0 0)
(0 0 0)
(0 0 0)
(0 0 0)
(0 0 0)
(0 0 0)
(0 0 0)
(0 0 0)
(0 0 0)
(0 0 0)
(0 0 0)
(0 0 0)
(0 0 0)
(0 0 0)
(0 0 0)
(0 0 0)
(0 0 0)
(0 0 0)
(0 0 0)
(0 0 0)
(0 0 0)
(0 0 0)
(0 0 0)
(0 0 0)
(0 0 0)
(0 0 0)
(0 0 0)
(0 0 0)
(0 0 0)
(0 0 0)
(0 0 0)
(0 0 0)
(0 0 0)
(0 0 0)
(0 0 0)
(0 0 0)
(9.8393209 -4.8095809 -8.9677433)
(11.116398 -6.345115 -6.5984224)
(13.176909 -6.6410072 -4.6808094)
(13.961743 -7.2050825 -2.6400497)
(13.981769 -6.8761011 -0.93586273)
(13.977995 -7.4242116 1.1887829)
(12.656383 -6.017692 5.1042527)
(24.668893 -21.645889 -10.620426)
(26.881607 -24.5145 -7.2897445)
(28.084116 -22.731785 -5.6691813)
(28.539221 -22.16104 -3.8799976)
(30.036881 -24.71621 -2.1178877)
(29.04916 -25.124788 0.440154)
(28.932712 -25.949346 5.0728693)
(36.201603 -22.821432 -10.933712)
(39.211257 -21.891805 -9.6566451)
(41.501196 -24.450305 -7.2529945)
(42.247865 -25.112501 -5.2434889)
(42.765955 -25.031958 -3.9797355)
(43.442667 -25.758673 -2.7424337)
(43.208575 -28.802257 1.0917943)
(52.705972 -27.025575 -8.1953972)
(54.582698 -28.278843 -7.9221956)
(55.90118 -28.768521 -6.4454923)
(57.075625 -29.693949 -6.6245843)
(58.614048 -31.234535 -5.9625055)
(59.484724 -33.289243 -3.7322212)
(59.406848 -32.647079 -3.7903153)
(68.706832 -27.333775 -6.0774437)
(70.484923 -28.134306 -7.0990642)
(72.582754 -30.364255 -7.1193921)
(73.756858 -31.508272 -6.9982757)
(75.362735 -32.637086 -7.6946072)
(76.855815 -33.895555 -7.4853353)
(78.467979 -35.674131 -7.1576708)
(84.906484 -23.745287 -2.3738459)
(85.935187 -25.201074 -3.7876207)
(87.123445 -26.730884 -5.5067316)
(89.050306 -28.736704 -6.4215558)
(90.360058 -30.652967 -8.2107789)
(93.295603 -32.601161 -8.6697638)
(94.87379 -33.361067 -10.152959)
(100.98414 -19.607947 1.6875531)
(101.5519 -21.566827 -1.2915205)
(103.08793 -24.088488 -3.2980208)
(104.25859 -26.054386 -6.1329691)
(106.66056 -27.808275 -8.0459972)
(109.10965 -29.423271 -10.360828)
(112.507 -31.76881 -13.109111)
(115.45777 -11.753177 6.3045812)
(115.56937 -14.052939 2.9355128)
(116.19919 -16.446611 -0.97316955)
(118.10255 -18.921428 -4.2481279)
(120.53396 -21.448059 -7.4548088)
(123.47217 -23.402912 -10.537199)
(127.70965 -25.404255 -13.606728)
(128.31604 -2.6881 11.979103)
(127.86239 -5.6561598 7.0085999)
(128.46933 -8.1940796 2.9252557)
(129.89484 -10.55014 -1.5740182)
(132.52802 -13.07146 -6.1354017)
(136.06074 -15.212806 -10.18643)
(140.58064 -17.767199 -15.056882)
(138.77027 8.7594576 17.824692)
(137.75569 5.8400223 12.452792)
(137.82081 2.7019014 7.3714311)
(139.09688 0.53153869 1.8583406)
(141.93882 -2.4759077 -3.128213)
(145.9583 -4.9112839 -8.399432)
(151.36443 -7.9244148 -13.403862)
(146.09647 22.098603 24.447354)
(144.43363 18.881891 18.468344)
(144.10666 15.885885 11.941656)
(145.5075 12.972412 5.9636591)
(148.2337 10.421708 -0.42685798)
(152.55891 7.5801397 -6.1616632)
(157.89401 5.0878796 -13.011985)
(149.82029 36.779293 31.879354)
(147.37817 33.728543 24.598215)
(146.68932 30.572797 17.850919)
(147.53195 28.457426 10.743488)
(150.29813 25.328363 3.5909342)
(154.8853 22.622016 -2.8441991)
(161.03508 19.409878 -11.237002)
(148.83636 53.732869 38.757164)
(146.25996 50.356532 31.061297)
(145.02449 47.582928 23.593374)
(145.94368 44.510057 15.759343)
(148.74435 41.794664 7.841167)
(153.77545 39.085791 0.37846335)
(160.13623 36.061165 -8.3350126)
(143.62441 71.370175 46.340417)
(140.40307 68.373514 37.992968)
(138.38022 65.709062 29.925033)
(139.01412 63.38421 21.383284)
(141.64703 61.152444 12.624705)
(146.52088 58.406305 4.7755917)
(153.1397 55.443544 -5.2773015)
(132.7472 91.008477 53.437292)
(128.93363 88.070903 44.467469)
(126.61056 85.552656 35.941381)
(127.15715 83.256006 26.64141)
(129.60847 80.934557 17.572833)
(134.74495 78.359511 8.658811)
(141.64909 75.64756 -1.7810172)
(116.1714 111.03295 60.211498)
(111.90504 108.48779 50.919909)
(108.98404 106.61755 41.874281)
(109.13046 104.87334 32.303811)
(111.47496 103.21969 22.312206)
(116.49854 101.19341 13.133463)
(123.58913 98.620783 1.7412431)
(93.352238 132.25716 66.261889)
(88.538677 130.30658 56.541506)
(85.151233 128.83768 47.241756)
(85.250362 127.40773 36.94868)
(87.284616 126.26545 26.812659)
(92.409343 124.36699 16.937509)
(99.459187 122.56909 5.0795507)
(63.780283 153.95302 71.301865)
(58.549657 152.62611 61.537436)
(54.770919 151.8536 51.768762)
(54.532207 151.30649 41.397022)
(56.446352 150.67927 30.817171)
(61.426181 149.70715 20.525644)
(68.58539 148.2237 8.2056687)
(27.264668 176.10784 75.197308)
(21.733536 175.52276 65.160993)
(17.544392 175.61254 55.326533)
(17.264638 175.52476 44.676897)
(18.811769 175.80284 33.866517)
(23.820987 175.26409 23.321365)
(30.764186 174.77231 10.736387)
(-16.450021 198.36289 77.493254)
(-22.324366 198.75836 67.544747)
(-26.674836 199.63954 57.681295)
(-27.260127 200.6247 46.947106)
(-25.834584 201.54796 36.141962)
(-21.022826 202.05668 25.363624)
(-14.150212 202.15576 12.651523)
(-67.601334 220.57133 78.200183)
(-73.527958 221.90156 68.365115)
(-78.14401 223.89076 58.522379)
(-78.780265 225.53289 47.930274)
(-77.642222 227.52353 37.108251)
(-72.940855 228.70113 26.362415)
(-66.309947 229.86826 13.687695)
(-126.06595 242.36355 77.023731)
(-132.1258 244.92013 67.415355)
(-136.75641 247.76672 57.855878)
(-137.52096 250.53918 47.471297)
(-136.55425 253.28715 36.898573)
(-132.01848 255.57361 26.282989)
(-125.68408 257.64438 13.838777)
(-191.92265 263.66073 73.801446)
(-197.88009 267.1979 64.663021)
(-202.43966 271.1748 55.494502)
(-203.3093 274.82348 45.52908)
(-202.49374 278.74077 35.303615)
(-198.26922 281.91823 25.070424)
(-192.25298 285.01064 12.994271)
(-264.85439 283.78375 68.576153)
(-270.68552 288.74143 60.075497)
(-275.0425 293.56707 51.49293)
(-275.94819 298.48619 41.948337)
(-275.304 303.07077 32.417211)
(-271.27068 307.2301 22.52999)
(-265.61996 311.42193 11.132736)
(-344.44649 302.96159 61.611203)
(-350.22283 308.86574 53.579038)
(-353.93829 314.75371 45.771067)
(-355.18394 320.68893 36.79015)
(-354.3229 326.16628 28.18452)
(-350.83736 331.67594 18.836813)
(-345.72694 336.96196 8.5375444)
(-430.32517 320.52163 52.527183)
(-435.71156 327.4857 45.456001)
(-439.06716 334.67586 38.459512)
(-440.35406 341.28714 30.030289)
(-439.34346 347.7621 22.727198)
(-436.56954 353.97564 14.067215)
(-431.92547 360.25487 5.0835167)
(-521.90013 336.39956 41.809038)
(-526.85272 344.43595 35.931678)
(-529.8347 352.58205 29.181373)
(-531.10514 360.00786 22.711096)
(-530.59089 367.39152 15.441565)
(-527.8534 374.73426 7.8295286)
(-523.47659 382.0277 -0.17602227)
(-618.88347 350.38146 29.499922)
(-622.73316 359.50334 24.464836)
(-625.64391 368.53207 18.869044)
(-626.30689 376.56559 13.496957)
(-625.90514 384.96433 7.1260918)
(-623.50542 392.65318 1.0430403)
(-619.96837 401.30229 -5.9423012)
(-719.62132 362.22261 15.866595)
(-722.97041 372.28117 11.727947)
(-724.98668 381.9605 7.5915627)
(-725.78065 390.81552 2.9901256)
(-725.28258 399.96997 -1.8058023)
(-723.50915 408.49566 -6.8729744)
(-720.50635 417.83296 -12.498588)
(-823.86109 371.99893 1.0469149)
(-826.15123 382.70728 -1.7235885)
(-827.88617 393.07711 -4.9547181)
(-828.26773 402.53531 -8.1154975)
(-827.95798 412.33193 -11.809947)
(-826.54018 421.36856 -15.508331)
(-824.2477 431.4143 -19.743257)
(-930.19184 379.51268 -14.287035)
(-931.80314 390.81462 -16.047061)
(-932.82565 401.59593 -17.961233)
(-933.05296 411.60901 -19.996082)
(-932.80717 421.82744 -22.337935)
(-931.7992 431.41099 -24.772099)
(-930.22663 441.97047 -27.507691)
(-1037.9394 384.81279 -30.134871)
(-1038.6488 396.40477 -30.665198)
(-1039.1538 407.56859 -31.532735)
(-1039.1481 417.96988 -32.249973)
(-1038.9771 428.548 -33.401989)
(-1038.3911 438.60669 -34.503881)
(-1037.5269 449.51069 -35.815619)
(-1145.9037 387.91018 -45.927913)
(-1145.8798 399.72975 -45.424361)
(-1145.8401 411.14109 -45.147665)
(-1145.6369 421.83917 -44.72398)
(-1145.561 432.69135 -44.674436)
(-1145.3889 443.05466 -44.559339)
(-1145.2068 454.17334 -44.519331)
(-1253.3251 389.05552 -61.472318)
(-1252.5906 400.93299 -59.962681)
(-1252.0704 412.41855 -58.730753)
(-1251.7072 423.27673 -57.237813)
(-1251.7277 434.22833 -56.132841)
(-1251.9244 444.88065 -54.91041)
(-1252.3296 456.10114 -53.619984)
(-1359.2566 388.3933 -76.451054)
(-1357.9218 400.15142 -74.111036)
(-1356.9968 411.66976 -72.003715)
(-1356.4913 422.6349 -69.560888)
(-1356.5759 433.71587 -67.561995)
(-1357.0587 444.44935 -65.250872)
(-1358.0884 455.52757 -62.891728)
(-1462.9597 386.26388 -90.600381)
(-1461.1603 397.82057 -87.562516)
(-1459.9321 409.23409 -84.767403)
(-1459.3086 420.21738 -81.562128)
(-1459.581 431.09852 -78.866995)
(-1460.3712 441.99694 -75.561988)
(-1462.0404 453.16512 -72.656392)
(-1564.0105 382.99793 -103.73844)
(-1561.9088 394.2886 -100.19456)
(-1560.4053 405.59455 -96.912112)
(-1559.8057 416.43919 -93.119987)
(-1560.1667 427.43357 -89.912039)
(-1560.9872 438.00426 -86.229694)
(-1563.0179 449.30086 -82.110388)
(-1661.6809 378.68969 -115.98158)
(-1659.4492 389.96566 -111.96661)
(-1657.9274 400.94076 -108.45389)
(-1657.2989 411.75559 -104.34695)
(-1657.634 422.50206 -100.55174)
(-1659.0581 433.51172 -96.54162)
(-1661.1786 443.94819 -92.514159)
(-1756.2365 374.6576 -126.79146)
(-1753.9388 385.22153 -122.90201)
(-1752.3656 395.98947 -119.19095)
(-1751.7771 406.65122 -114.95024)
(-1752.2648 417.16639 -111.19714)
(-1753.5682 427.78874 -107.00357)
(-1755.8011 438.19931 -102.48715)
(-1847.2643 370.27407 -136.69602)
(-1845.0464 380.56927 -132.82096)
(-1843.5386 391.12108 -129.16764)
(-1843.1146 401.57344 -125.04859)
(-1843.6252 411.87614 -121.338)
(-1844.9734 422.48997 -117.00754)
(-1847.472 432.59311 -112.89211)
(-1935.0668 366.52242 -145.50021)
(-1933.0548 376.4657 -141.93399)
(-1931.8039 386.76515 -138.50932)
(-1931.4688 397.03261 -134.64348)
(-1932.0262 407.15895 -131.11678)
(-1933.4714 417.60663 -127.20163)
(-1935.8481 427.46721 -123.29743)
(-2019.9648 363.55163 -153.36551)
(-2018.3039 373.2055 -150.29425)
(-2017.3244 383.29669 -147.21705)
(-2017.0948 393.34706 -143.82259)
(-2017.8102 403.3047 -140.73266)
(-2019.1432 413.59983 -137.12277)
(-2021.4089 423.23558 -133.74093)
(-2102.5223 361.8485 -160.63984)
(-2101.2597 371.24668 -158.13668)
(-2100.5565 381.09291 -155.529)
(-2100.5335 390.98654 -152.67418)
(-2101.2997 400.78956 -149.99465)
(-2102.5187 410.9309 -146.97041)
(-2104.6732 420.40893 -144.23352)
(-2183.285 361.47859 -167.4678)
(-2182.4657 370.63833 -165.57854)
(-2182.1033 380.28275 -163.50579)
(-2182.2852 390.03029 -161.21739)
(-2183.077 399.72156 -159.14917)
(-2184.2628 409.73794 -156.6751)
(-2186.1922 419.19701 -154.61825)
(-2263.0286 362.67504 -174.18434)
(-2262.6499 371.69012 -172.8841)
(-2262.5937 381.14766 -171.35235)
(-2262.9383 390.7489 -169.69296)
(-2263.8262 400.3456 -168.10643)