/*--------------------------------*- C++ -*----------------------------------*\
  =========                 |
  \\      /  F ield         | OpenFOAM: The Open Source CFD Toolbox
   \\    /   O peration     | Website:  https://openfoam.org
    \\  /    A nd           | Version:  6
     \\/     M anipulation  |
\*---------------------------------------------------------------------------*/
FoamFile
{
    version     2.0;
    format      ascii;
    class       pointScalarField;
    location    "1.64";
    object      p;
}
// * * * * * * * * * * * * * * * * * * * * * * * * * * * * * * * * * * * * * //

dimensions      [1 -1 -2 0 0 0 0];

internalField   nonuniform List<scalar> 
3969
(
87622.926
-116277.69
6209.16
1180.0897
156737.37
-221945.68
1626.3412
233.71932
58764.221
43501.422
22183.86
5094.0334
-13564.002
-36161.255
-42946.657
-15821.151
-6709.1805
-5640.5955
-639.58344
3860.1811
8116.3507
8130.3611
23122.131
27559.017
23759.78
25440.986
22844.516
22799.527
19910.19
19644.5
16928.804
15713.515
14297.357
13789.557
11863.677
11959.405
11684.538
11212.705
12173.451
12505.389
13843.832
14673.894
16492.259
18120.151
20156.012
22401.141
24588.466
27024.677
29156.758
31413
33999.251
35662.426
37717.216
39214.35
40355.038
41291.262
41608.148
41967.909
40990.232
40768.396
38253.463
37615.795
33474.282
31301.783
28462.411
22646.588
21009.702
15668.338
10946.061
-25415.097
-19136.191
-21431.118
-16672.406
-17834.612
-14140.286
-13415.781
-10464.286
-9548.9128
-7153.365
-6217.0999
-5179.3859
-3988.4871
-3829.6789
-3187.7638
-3336.438
-3683.1466
-4379.9397
-5352.6501
-7032.8144
-8142.9178
-10914.215
-12259.722
-15575.952
-17711.363
-20899.946
-22795.592
-26273.326
-28931.5
-31686.719
-34602.687
-36691.587
-38923.024
-40343.011
-41627.31
-42115.313
-42392.267
-41149.705
-40584.247
-37997.656
-35444.265
-32119.594
-28599.431
-23605.448
-18994.435
-14808.81
-9056.3643
108480.77
83569.761
38927.62
5491.5076
-24574.372
-62576.254
-54722.974
-30377.681
-32792.254
-18812.459
-24968.534
-22028.915
-19891.495
-19508.283
-16345.801
-16255.621
-11354.147
-13377.173
-11578.161
-10905.09
-11407.641
-9318.9078
-12057.233
-9948.9805
-12609.762
-11970.512
-14105.234
-15120.235
-17400.12
-18962.155
-21434.739
-23587.365
-26095.818
-28637.829
-30520.817
-33023.382
-35292.972
-36880.255
-38738.47
-40173.371
-40963.359
-41839.847
-42862.464
-39468.723
-40852.853
-39244.708
-37390.052
-34700.363
-32041.589
-27841.14
-23702.37
-19583.765
-14742.66
-9910.5789
13317.343
6807.4717
3630.9955
2717.4582
-7502.4252
-7058.9056
-15968.113
23207.004
18796.024
21247.577
26623.922
31554.015
35429.488
39591.3
42336.254
45028.107
46316.521
46610.116
49057.842
47340.113
46665.046
45109.626
43325.963
40835.808
38306.247
35261.699
32139.663
29485.266
25896.639
23114.622
19778.016
17598.234
14784.024
12987.839
10270.444
9473.3657
7678.0629
7068.702
6474.1296
6162.9592
6757.8424
7232.9793
7970.4156
9321.5305
10862.646
11985.448
15412.741
17354.575
18101.502
21138.583
22223.069
22177.908
27554.687
29894.423
73921.323
81653.568
84065.238
82909.651
81962.417
84053.318
69312.278
-96555.425
-118733.59
-135917.11
-144973.11
-140783.01
-140745.01
-118333.81
3244.4983
4080.187
4547.3613
5391.0529
4786.8537
3074.8712
3135.989
-2751.1963
-501.88166
-1535.7279
-2253.3472
-1720.2703
2723.6262
-1797.0932
21291.46
20243.783
19960.399
19355
18537.116
17478.914
16641.019
15381.31
14334.549
13681.841
13249.233
11432.514
12143.906
11495.653
11481.363
11510.231
12287.072
12399.36
13399.56
14196.227
15637.916
16680.654
18307.545
19921.827
21778.799
23186.392
24920.374
26670.137
28000.863
29422.9
30621.472
31509.39
32304.853
32709.94
32960.787
32621.375
31804.198
31413.989
29894.414
28602.39
26067.833
24629.028
20416.651
17755.139
15316.921
8609.1928
3964.0124
13678.516
13307.834
12636.188
13657.137
13560.528
12878.296
12494.965
11712.508
11075.76
10845.384
9869.0779
9823.2206
9242.886
8878.3257
9172.5746
8969.235
9395.4766
9335.0025
10097.898
10495.111
11134.047
11794.85
12550.754
13488.233
14121.22
15142.242
15972.881
16475.586
17576.398
18048.04
18672.113
19150.643
19353.491
19623.995
19650.657
19493.851
19398.386
19168.865
17750.262
17671.565
15734.246
15016.122
12484.558
12166.517
9279.1051
5148.8176
178.83981
6434.5497
7106.0747
6717.0507
7766.7933
7185.9054
7400.6981
7228.4514
7175.44
6907.7048
6690.2105
6969.4866
6256.8595
6496.4183
6302.5886
6632.9541
6327.4546
6810.6711
6538.2076
7231.5204
6963.7288
7585.4538
7389.9522
7997.3297
7955.6635
8370.4875
8513.4228
8872.4891
9319.8431
9475.1525
9626.0273
9843.1649
9802.0116
9811.7748
9710.9785
9689.0484
9199.0588
9254.1947
8466.0375
8428.4721
8173.0646
7103.5801
7521.2284
5774.5037
5749.9509
3964.1646
1181.1347
535.35342
582.46458
2488.3653
1559.0749
2958.6817
3023.7413
3194.1483
3092.7935
3558.1906
3242.7886
4505.253
3430.355
4355.0186
4137.5443
4465.0549
4814.8631
4442.1471
4774.9878
4326.6125
4474.5615
3899.7391
3849.9331
3468.0895
3060.7499
2551.0929
2358.363
1544.7681
1033.0197
316.40754
-374.97361
-929.49141
-1548.945
-2085.57
-2634.3235
-2987.275
-3427.5034
-3353.5548
-3715.5494
-3450.3238
-3068.844
-3043.4986
-2352.8755
-1720.7028
-2111.3124
-77.639137
-155.49781
1122.0558
2402.6363
-6171.7852
-4552.909
-4411.2958
-3153.6685
-3638.809
-2402.538
-2184.0112
-1078.9371
-915.12314
95.148767
58.712611
1126.4817
853.07541
1587.5403
1133.545
1337.861
1245.0446
633.46759
687.33293
-376.26861
-65.047887
-1069.7593
-1424.2138
-1604.1788
-3055.0823
-4593.6734
-5225.9118
-6464.0612
-7373.8653
-8599.4183
-9371.7387
-10562.649
-11019.579
-12040.495
-12095.563
-12617.186
-12751.28
-12159.855
-12459.051
-11589.867
-10697.102
-10027.862
-8084.0898
-6423.4714
-4878.3943
-2338.44
809.97319
-13366.883
-10416.88
-9294.4501
-9116.859
-7888.697
-6639.988
-5794.5022
-4153.3872
-3731.1578
-2256.1126
-2171.4513
-1587.3775
-964.60796
-1107.1987
-801.1595
-1004.5016
-1228.6634
-1966.5067
-2348.271
-3700.204
-4069.0629
-5458.6891
-5887.3092
-7550.4962
-8635.0757
-10854.31
-12428.429
-14381.458
-16174.218
-17863.196
-19621.601
-20976.879
-22269.43
-23130.232
-23894.732
-24157.292
-24124.636
-23926.877
-22980.12
-22195.411
-20866.844
-18907.258
-15826.568
-13478.413
-9480.0719
-4954.7303
2306.49
-21334.913
-13986.093
-15462.835
-13832.198
-13591.171
-11055.844
-10802.927
-7920.3141
-7997.9707
-5148.0983
-5114.6605
-4184.089
-3269.4083
-2700.1699
-2756.481
-2649.9967
-3180.5617
-3519.3451
-5063.2912
-5820.9
-7866.7146
-9215.0007
-11566.086
-13633.623
-16178.812
-18951.803
-21420.73
-23997.624
-26357.733
-28623.534
-30853.519
-32718.193
-34195.371
-35495.895
-36042.689
-36427.469
-36464.138
-35434.717
-34552.315
-32205.682
-29524.932
-26542.387
-22780.397
-19761.195
-14827.64
-10263.719
-2360.3185
51430.225
46267.231
49095.768
48401.393
49412.172
47401.128
44621.926
33878.021
37831.45
35410.62
36492.526
35744.97
34220.774
32688.468
16618.432
18745.302
16666.259
16271.806
15886.683
16378.337
16075.009
6010.1784
5842.4541
3829.5436
4182.4442
3463.0514
477.02044
5511.5603
-7582.3028
-7353.4391
-8820.9164
-7742.6682
-8553.2884
-8378.1741
-5939.107
-26393.355
-28051.378
-27983.753
-29836.898
-31298.274
-30032.28
-29410.581
-37401.796
-33857.648
-31421.419
-32679.94
-30976.21
-28920.415
-29535.325
-39773.068
-41080.968
-46619.293
-49290.615
-50712.58
-49340.228
-40266.079
-30079.422
-34983.671
-35342.012
-35917.219
-38356.987
-36425.015
-33950.988
-20799.053
-23516.508
-25844.289
-26049.804
-25955.952
-24375.767
-26391.213
-19779.833
-21784.652
-21590.323
-23462.135
-23444.75
-23702.362
-22608.336
-18363.016
-19938.488
-21289.792
-21851.004
-21575.561
-21359.978
-21317.871
-15474.036
-15701.133
-16199.829
-17202.598
-17940.125
-17805.127
-18477.705
-13338.096
-14232.416
-14809.317
-15616.463
-15547.595
-16987.119
-16552.064
-11612.447
-11811.373
-12369.733
-12703.129
-13392.725
-13770.233
-14566.789
-9324.9303
-9948.5022
-10431.791
-11330.239
-11651.32
-13039.073
-13315.562
-8163.9945
-8329.8356
-8634.2616
-8777.7556
-9658.1433
-10453.821
-11484.737
-6338.2246
-7040.0195
-7352.5318
-8041.1071
-8693.6709
-10220.506
-10214.323
-4878.0945
-5613.7012
-5867.9192
-6711.787
-7200.6042
-8928.2416
-9167.7071
-4787.3369
-4515.3598
-4965.9318
-5980.7012
-6566.214
-8188.6766
-9291.9318
-3258.2962
-3729.6963
-4611.5069
-5697.9718
-6086.1697
-7941.9272
-8278.1843
-3337.1509
-3532.1693
-4210.9189
-4997.9342
-5630.1072
-7328.9487
-8169.2809
-3329.4082
-3455.0326
-4260.256
-5469.4319
-6020.5057
-8122.4901
-8526.1936
-3558.0601
-3811.0572
-4649.8715
-5680.7762
-6245.4295
-7942.7206
-8375.6623
-4334.5102
-4747.4942
-5627.1961
-6668.8361
-7323.6043
-9112.3881
-9661.1867
-5357.2681
-5803.1783
-6650.9887
-7489.0636
-8153.7295
-9712.1595
-10247.789
-6824.4154
-7437.7381
-8156.567
-9030.3662
-9836.8199
-11351.904
-11952.445
-8698.1332
-8938.4238
-9901.7258
-10559.541
-11449.59
-12639.8
-13233.567
-10718.37
-11350.613
-12015.09
-12837.74
-13588.344
-14658.312
-15422.716
-13274.266
-13334.812
-14536.61
-14910.447
-15690.831
-16554.644
-17225.033
-15610.036
-16476.052
-17165.223
-17449.67
-18358.208
-18948.848
-19758.386
-18684.413
-19149.207
-19774.498
-19976.432
-20920.706
-21202.166
-22039.091
-21268.841
-22374.116
-22396.699
-23179.813
-24048.777
-24129.317
-24641.858
-25227.181
-24944.354
-25780.32
-25908.092
-26464.268
-26943.854
-27015.891
-28064.074
-27816.693
-28531.449
-29055.619
-29414.337
-29745.898
-29596.192
-31316.406
-30863.766
-31825.92
-31676.351
-31894.506
-32212.181
-31970.869
-34183.01
-33739.464
-34518.923
-34390.892
-34731.666
-34763.257
-34477.413
-36859.644
-36487.059
-37120.894
-36891.99
-37029.07
-36785.479
-36496.105
-39341.916
-38762.236
-39463.245
-39065.092
-39135.585
-38699.726
-38383.458
-41373.232
-40884.325
-41397.133
-40871.849
-40900.23
-40225.417
-40016.397
-43070.889
-42435.081
-42974.785
-42376.177
-42237.359
-41466.936
-41051.875
-44011.055
-43450.378
-43859.433
-43105.816
-42975.96
-42007.371
-41600.79
-44628.48
-44288.511
-44458.132
-43954.181
-43455.52
-42601.47
-41805.967
-44486.027
-43844.362
-44270.937
-43266.954
-43073.234
-42191.371
-41426.372
-44244.536
-43610.203
-43559.575
-43064.985
-42402.897
-41131.608
-40912.231
-42426.421
-42059.232
-41959.511
-41404.11
-40831.723
-39674.652
-39252.879
-40748.859
-39910.112
-40468.652
-39439.832
-39036.078
-37959.971
-37500.257
-37616.466
-37401.747
-37442.15
-36674.161
-36264.046
-35147.924
-34591.822
-34395.964
-34145.843
-34102.596
-33681.793
-33071
-32129.567
-31560.559
-30148.159
-30477.244
-30316.31
-30231.085
-29236.12
-28486.798
-27820.938
-25583.015
-25436.995
-25566.25
-25175.203
-24435.149
-23973.446
-23010.496
-21496.257
-22438.16
-22188.618
-22242.896
-21462.25
-20476.582
-19345.111
-17863.214
-17873.809
-18084.379
-17906.231
-17099.203
-17052.76
-15777.234
-13713.872
-14312.037
-14140.449
-13455.256
-14349.899
-13548.09
-11888.958
-23804.106
-26517.7
-29828.284
-30062.682
-28994.514
-27640.874
-24828.686
-12768.162
-13949.354
-15083.229
-15707.557
-15312.791
-13575.481
-11555.233
-9293.0369
-10711.8
-11938.204
-11870.439
-11688.622
-9655.01
-8384.8478
629.71457
1267.9375
979.31825
936.73329
1472.6573
851.30486
2040.5201
6665.8468
7119.951
6710.272
7839.825
6470.8601
6270.565
5886.3129
11757.845
14832.332
15640.224
15613.226
16666.243
13445.461
12850.498
15798.504
16579.819
18409.493
18152.69
17079.776
15988.737
13827.428
31868.392
32581.211
36545.087
35774.771
36950.216
33154.121
31605.276
31447.758
32878.304
33906.512
33841.83
33718.818
30654.771
30383.435
27421.342
27293.1
28315.785
27760.12
28026.116
25731.055
26265.217
25533.099
27172.063
27364.343
27681.711
27208.978
25440.348
24244.777
23565.921
23069.986
22891.25
22974.154
22534.432
21275.233
21152.577
21516.345
21903.05
22031.137
21250.22
20446.446
19398.36
18532.271
20006.319
19074.217
18788.236
18332.898
18387.922
17123.108
17174.122
17446.871
17504.217
17144.131
15672.27
15940.864
15258.097
14254.741
16389.902
15761.041
15308.05
13812.649
14061.578
13178.462
13190.673
14979.832
14149.143
13051.948
12307.361
11918.695
11574.898
10584.253
13806.916
12381.236
12370.712
11145.204
11137.458
10181.087
9870.929
12015.153
11714.321
10284.89
9640.2648
9119.6901
8845.043
7893.4476
12009.858
10645.501
9820.6598
8984.2759
8479.3546
7859.2568
7433.2962
11434.845
10112.157
8696.1598
8508.474
7425.0542
7491.8527
6471.0922
10979.378
10057.638
8569.0438
8174.6899
7464.7802
6893.8664
6103.2931
11377.701
9810.9135
8653.7697
8116.8704
7175.6113
7536.0145
6052.8625
11783.264
10344.848
9177.3188
8719.445
7773.9164
7884.6761
6208.119
12459.646
10878.455
9689.8252
9423.1373
8202.4082
8426.219
6864.5788
13481.234
12212.495
11121.999
10607.096
9550.1041
9931.232
8380.5898
14889.447
13408.752
12283.057
11880.799
10813.501
11068.9
9489.9565
16754.583
15177.038
14269.654
13836.794
12834.212
13238.058
11674.266
18485.203
16966.839
16200.768
15770.705
14765.176
15026.163
13568.59
20796.669
19301.531
18665.824
18161.702
17269.897
17617.75
16438.947
23182.204
21533.072
21153.138
20515.035
19762.128
19979.253
18967.042
25688.567
23973.061
24036.209
23158.885
22790.949
22908.282
22115.774
28348.088
26311.05
26821.328
25819.526
25556.315
25728.638
24882.889
30702.941
29171.05
29617.497
28992.745
28664.703
28846.414
28252.178
33559.091
31755.118
32297.129
31709.359
31480.084
31519.466
31341.548
35621.449
34110.475
35290.651
34469.832
34430.685
34540.275
34387.771
37911.255
36733.971
37625.032
37055.242
37212.668
37241.954
37188.585
40035.55
38704.621
40036.8
39458.255
39724.03
39593.99
39909.932
41490.632
40575.536
41941.264
41510.95
41783.521
41834.957
42116.539
43047.09
42158.019
43718.292
43165.209
43742.645
43575.7
44200.857
43990.466
43295.272
44778.087
44599.108
45006.427
44974.149
45494.046
44403.56
43670.076
45566.067
45213.506
45759.109
45839.581
46433.588
44522.273
44498.515
45957.637
45692.202
46209.03
46148.101
46587.433
43608.707
43711.231
44980.88
45373.461
45503.245
45747.778
46340.995
43040.5
43582.644
44294.305
44578.367
45044.174
44614.469
45626.16
41241.173
41094.795
42664.495
42576.448
43546.614
42829.312
43945.495
39619.423
40047.078
41115.719
41034.527
41422.05
40452.839
41748.541
36021.486
35979.885
37205.723
37181.307
37851.278
37664.317
38541.679
33767.737
34034.7
35024.945
34841.96
35410.1
34160.614
35034.612
29751.798
30320.526
30978.416
31141.226
30924.564
29944.48
30249.589
24409.662
24894.257
25542.947
25455.679
25629.751
24466.402
25824.688
22573.956
24870.199
25582.442
25997.937
25420.292
23693.521
22508.228
18470.411
18996.803
18974.192
18735.546
19072.812
18872.472
17283.402
22445.275
25404.143
26518.26
27257.374
27348.807
27129.129
25244.452
29730.975
18771.288
18627.819
17153.985
16290.134
15839.729
13498.444
12115.35
10696.225
9411.9338
8238.8709
7441.9292
6555.699
6252.7352
5820.5314
5985.7462
6505.6128
7342.0811
8115.9088
9572.2824
11038.73
12778.258
14733.995
17093.775
19375.792
21723.23
24081.032
26715.649
29128.071
31418.65
33350.323
35211.187
36576.712
37706.184
38529.1
38317.458
38382.573
37691.117
36121.298
34047.38
31739.758
28565.281
25514.384
21104.817
16815.074
11075.229
2773.8139
18984.565
17054.623
11085.099
12510.022
12531.05
11078.338
10017.432
8702.018
7741.2978
6312.5407
5723.0744
4553.559
3956.459
3933.4673
3503.3033
3541.0541
4068.8945
3788.0681
5202.8654
5512.1768
6992.9204
7854.0116
9664.2814
10834.282
12746.517
14380.295
16284.451
17925.352
19880.346
21717.763
23302.23
24942.67
26088.162
27325.515
27622.021
28376.523
27981.357
27681.058
26939.473
25462.163
23863.301
21603.331
19096.882
15659.138
12578.088
7853.8796
1708.2537
10178.269
8145.9694
4018.7639
6350.7736
5550.1595
4221.4789
4195.7596
2747.7322
2611.2999
1460.4876
1835.8796
893.22196
1626.4852
858.52644
1663.8618
1778.8776
1912.7701
2401.8216
2842.2421
3318.4644
3859.1336
4715.3234
5433.3088
6370.9972
7345.54
8469.2282
9325.1265
10241.84
11379.108
12346.207
13207.85
14156.911
14725.918
15275.464
15432.976
15751.669
15360.818
15164.811
14427.03
13656.683
12713.876
11275.433
9638.9715
7923.9879
5849.9599
3897.3428
-2338.632
2016.0656
2627.198
-143.15783
1581.9255
-163.43819
-394.52069
-105.80635
-799.61863
-1034.4732
-933.79356
-947.74545
-1562.3648
-986.82308
-1559.4972
-629.93641
-1788.2068
-929.4894
-1453.2836
-864.92482
-1161.4885
-564.89157
-546.68896
-64.549473
56.957429
548.32446
795.95159
1307.6894
1861.6564
2369.2046
2806.8936
3284.2046
3967.121
4227.7071
4745.5882
4912.0547
5299.0312
5170.2989
5282.8198
4985.5301
4870.0238
4441.8451
4005.8295
3517.0943
2676.8506
2519.0079
1009.9841
-1291.6962
-8510.2841
-5328.7537
-5264.7682
-4927.2929
-4854.5349
-4702.857
-4623.8221
-4672.3968
-3857.0183
-4644.931
-3686.0448
-4521.4559
-3484.2626
-3482.3533
-3363.627
-3492.0719
-3594.248
-3686.7529
-3952.2712
-4053.1515
-4305.5135
-4526.2328
-4844.5936
-5287.4045
-5504.204
-5834.7438
-5960.8111
-6122.4704
-6436.0887
-6703.3156
-6890.7314
-6938.9015
-7115.9561
-7013.4556
-7092.8849
-6918.3954
-7041.3681
-6616.5421
-6690.1269
-6212.794
-6133.4943
-5353.5959
-5253.0533
-4278.7807
-3445.3939
-1989.4165
-404.51515
-15920.432
-12243.132
-10026.73
-11024.054
-9644.8835
-10168.925
-8895.2763
-8332.5992
-8135.0214
-7435.3602
-6347.7384
-6917.0818
-5491.3552
-6526.6055
-5419.5406
-6698.2103
-5873.8751
-7025.2939
-6916.6154
-8007.3674
-8567.3931
-9737.9568
-10472.576
-11704.7
-12238.774
-12960.125
-13501.996
-14530.766
-15253.821
-16036.904
-16770.947
-17209.053
-17707.122
-17911.888
-17946.932
-17947.709
-17539.259
-17298.216
-16536.337
-15718.726
-14707.551
-13228.666
-11792.07
-9620.4593
-7445.4311
-3490.5496
338.86053
-20336.458
-16868.847
-17655.272
-16175.581
-16684.667
-16191.465
-14648.902
-14280.453
-13042.467
-12039.786
-11360.372
-10273.842
-9815.0921
-9476.2111
-9220.678
-9243.8098
-10055.268
-10178.034
-11600.826
-12159.425
-13601.95
-14764.185
-16411.24
-17750.927
-19278.808
-20549.489
-22643.299
-24186.827
-25730.184
-27193.998
-28553.386
-29408.162
-30387.68
-30965.47
-30965.553
-31196.66
-31545.83
-29951.339
-29388.664
-27888.152
-26357.297
-23825.878
-21826.253
-18629.203
-14410.479
-10739.317
-4433.7337
37770.875
41006.51
40385.98
42297.409
41150.467
38796.113
35189.71
23568.554
28051.751
27851.224
27548.248
26982.589
25154.147
25202.589
22818.061
26016.079
26170.53
27208.127
25624.788
26065.68
22328.309
20436.659
20319.049
20815.638
20703.987
19797.49
18517.373
18292.238
19135.331
19779.927
20001.902
19838.553
17949.513
18325.429
16539.323
17620.33
17743.673
16782.531
16511.073
16371.521
15656.294
15294.346
16442.1
16663.943
15361.99
15457.956
14085.165
14236.749
13432.472
15197.319
15079.907
14007.288
13636.934
12874.686
11779.276
11452.081
14561.285
14423.578
11988.249
12992.124
11585.15
10977.754
10328.579
13369.342
11796.812
11829.111
10994.35
10433.307
9144.9232
9614.7176
12028.574
12433.926
10300.101
10199.238
8865.6638
8550.727
7337.1784
12210.038
10797.871
9848.0928
9160.5159
8521.3954
6899.2693
7239.6086
11780.379
10714.581
9176.626
9501.0806
7228.7673
7578.9876
6078.3344
11101.967
9329.6949
9727.6866
8091.096
7323.5465
6349.8546
5163.88
11271.61
10365.613
8575.5341
8484.4977
6735.4085
6811.3563
6187.8102
11751.568
9743.4825
9591.176
8614.2791
7261.7005
6539.4292
5414.7281
11585.862
10695.499
9324.0299
9002.7529
7476.1194
6696.0848
5945.7087
12610.492
11043.054
10657.463
9680.5541
8227.5492
7855.0315
6916.0566
13212.573
12281.473
10985.502
10434.555
9067.3726
8549.2576
7175.6913
14741.469
13190.974
12450.839
11911.544
10556.868
10018.876
8944.7666
15436.406
14638.874
13664.077
13123.762
11721.665
11273.283
9889.8062
17146.726
16397.782
15353.087
14876.79
13706.791
13170.352
12160.275
18525.14
18060.395
16879.156
16599.066
15320.643
15110.828
13534.526
20013.293
19948.274
18746.091
18746.285
17713.414
17362.941
15873.824
21305.737
22024.627
20694.062
20797.791
19622.098
19502.603
17858.688
23430.829
24306.06
22857.336
22879.795
22495.74
21648.958
20676.873
25158.339
26095.477
24646.077
24970.798
24374.403
23698.609
22809.359
26723.593
27588.529
27456.361
27065.881
26589.167
26688.252
25194.401
28186.821
30308.568
28437.651
29105.655
28887.845
28672.367
27448.417
30070.031
31304.477
30652.384
31259.295
30774.723
30762.431
29685.272
30962.464
33011.964
32108.982
32756.229
32459.916
32629.212
31753.77
32252.283
34268.712
33616.239
34324.041
34181.628
34450.546
33501.301
33078.213
35195.948
34612.281
35392.314
35387.221
35547.785
34922.756
33526.768
35715.787
35358.24
36254.14
36237.378
36648.546
36002.624
33883.62
36060.623
36043.096
36648.921
36920.512
37085.065
36793.247
33722.71
36061.631
35876.135
36702.427
37081.723
37557.714
36754.231
34134.908
35038.732
35758.346
35920.649
36883.625
36582.775
36913.891
32665.315
34455.331
35167.269
35506.628
35861.236
36332.956
36043.27
31706.171
33096.835
33364.79
34367.258
34317.23
35047.722
34537.153
29602.781
31562.446
31942.753
32675.439
32695.672
33197.122
33084.009
28306.473
29204.462
29848.127
30118.647
30362.767
30873.693
30424.599
25500.58
27091.705
27845.868
28177.962
28538.187
28156.208
27829.461
22276.932
22593.631
23328.905
23442.386
23541.828
24035.318
24290.569
20118.002
20729.95
22237.766
21848.659
22645.374
22475.446
21500.103
15402.426
15751.179
16186.096
16189.902
16451.516
16539.35
16219.423
10008.303
9699.6918
11381.397
10301.149
11143.965
11081.941
10054.652
3689.276
1563.0994
1755.8127
1858.399
2202.1944
1503.6564
3935.2192
24027.159
25336.49
28089.361
27004.364
27295.148
25245.51
23256.453
18788.247
24506.124
24573.628
25198.628
24968.584
22448.363
20409.463
17502.013
16245.223
17538.412
17415.782
17528.1
15694.43
14586.199
14961.465
15927.707
16523.796
15998.828
15463.052
14362.324
12219.216
13962.672
14471.778
14118.721
13487.578
13691.947
13385.385
11901.176
13288.972
13425.59
13188.662
12693.185
12155.466
11719.908
10268.081
12356.813
12160.762
12038.182
11172.621
10717.361
10221.34
9450.5873
11689.365
11526.835
10731.694
10321.326
9772.4752
9193.2099
8288.0905
11167.738
10000.23
9894.7547
9123.8902
8179.5265
7880.8081
7507.5752
9604.6982
9793.863
9044.9991
8124.7558
7210.9507
7244.492
6062.7082
9612.2089
9296.4056
7898.9636
7208.5557
6635.6971
5887.2777
5472.6959
9336.5766
8094.9765
7461.4835
6689.2249
5770.455
5321.6873
4956.196
8374.0761
7932.9519
7189.9084
5719.2577
5263.6376
4603.073
4058.1961
8498.5526
7773.0745
6315.0253
5269.6301
4750.8629
4358.9046
3351.2312
8360.7296
7636.1722
6609.5254
5354.0714
4673.1381
4324.5702
2718.023
8475.1108
7069.0368
6179.0354
5134.778
4196.7191
4142.5641
2394.4668
8760.8107
7799.8889
6969.8567
5603.7261
4653.8953
4774.4571
3213.1871
9077.628
7719.9747
6685.0575
5578.3042
4702.7899
4743.7514
3026.4329
9895.47
8462.5614
7591.5622
6578.0305
5595.6202
5788.9367
3992.6328
10237.841
8682.8057
8087.6551
6978.4374
6048.1205
6007.1898
4474.4934
11276.41
9852.3553
9185.2394
8214.8257
7159.8572
7459.5631
5908.0731
12274.348
10457
9988.9018
8982.4132
8103.1876
8283.6068
6692.734
13364.241
11595.593
11265.749
10487.075
9632.1948
9751.0634
8355.0797
14634.12
12582.423
12491.312
11572.133
10838.221
10704.433
9920.2615
15805.565
13960.371
13958.66
13255.621
12435.668
12605.659
11787.964
17078.542
15316.938
14873.383
14431.736
13811.717
13574.604
13217.148
17979.34
15989.62
16719.513
16362.705
15532.103
15630.696
15545.807
19593.745
17968.976
17617.534
17456.409
17251.533
16925.155
17185.661
20330.651
18636.197
19343.31
18924.998
19016.478
18415.977
18952.957
21250.022
19774.606
20490.344
20348.215
20157.253
20044.358
20506.82
22105.326
20863.356
21833.26
21482.168
21742.221
21564.585
22132.679
22710.954
21782.125
22549.358
22669.454
22815.127
22813.455
23220.043
23251.657
22326.467
23452.46
23486.817
23933.071
23732.042
24507.977
23474.665
22994.424
24031.425
24361.625
24560.768
24712.362
25259.982
23547.188
23323.423
24463.171
24568.43
25287.899
25120.548
26063.646
23425.302
23419.051
24304.824
24930.878
25315.613
25414.657
25851.852
22835.189
23292.016
24412.447
24685.494
25489.401
25022.276
26215.045
22139.451
23088.697
23732.033
24426.605
24715.28
24877.506
25396.316
21474.52
21738.077
23177.295
23174.142
24145.608
24032.136
24616.495
20398.587
21548.398
22273.923
22565.818
23022.271
22994.227
23236.614
19234.267
19533.268
20750.292
20706.653
21624.365
21366.337
21407.304
17321.418
18485.768
18945.119
19164.26
19651.776
19216.786
19647.847
15764.79
16065.718
16947.721
16889.574
17318.718
17176.854
17163.305
13773.636
14712.312
15106.506
14886.006
15546.104
14851.817
14618.934
9546.5944
10874.212
10758.733
10966.231
11102.633
10469.195
10092.681
6170.0648
6605.0319
6231.1675
6298.1515
6571.1465
6416.5467
5921.0869
928.85723
-1061.102
-2157.1152
-2112.5076
-1735.1139
-1527.7216
-438.78709
15127.375
15478.416
15099.769
16096.095
15613.093
13909.821
13208.219
9991.8298
13360.85
12760.019
13140.165
11750.563
10965.79
11168.759
10573.257
9449.0576
10144.543
10164.293
8995.5635
8442.45
7628.1199
7803.337
8348.1679
8645.6646
8510.67
7618.884
7181.0639
6359.2754
8662.0991
7951.1386
8074.03
7602.5947
7007.4714
6285.8099
5698.8278
7784.9734
7668.9046
6545.5888
6091.0199
5641.029
4785.9528
3853.1737
7938.6465
7440.6851
6236.4681
5926.5414
5557.2076
4768.2056
4518.4039
7570.6669
7028.7056
5665.7853
5337.7769
4323.4406
3834.6068
3025.3851
7533.6982
6941.7496
5503.8567
5117.0556
4144.342
3920.4642
2704.4096
7675.2383
6413.7832
5151.1107
4323.0189
4068.79
2860.5138
2188.2685
7599.3163
6534.2009
4679.3376
4608.4564
3351.578
3097.5817
1740.3453
6767.2926
5777.1852
4732.4583
3814.4175
3502.2991
1988.5212
1295.794
7383.3646
6468.0308
4186.444
4399.9267
2585.6143
2667.9778
937.6526
7258.1362
5424.5628
4763.505
4048.0248
3241.0758
2245.2686
618.87309
6743.0372
5882.3824
3887.3549
4327.4567
2753.5453
1989.8735
632.62316
7163.621
5681.5073
4961.7773
4084.5274
3202.1041
2298.0435
1003.2169
6648.5976
6316.3462
4338.1577
4338.8717
3007.2138
2408.2485
367.19169
7617.486
5933.6376
5105.4482
4537.7481
3691.9671
2737.3793
1120.0117
7062.2104
6603.1359
5171.632
5036.3134
3585.8331
3032.6031
887.62124
7881.4888
6795.4245
5885.5945
5246.0592
4364.4007
3572.7891
1995.1057
7822.7463
7387.0875
6064.1137
5813.8192
4546.6641
4184.3056
2020.4886
8406.5521
7581.9184
6891.5611
6195.8635
5530.0608
4752.6753
3034.7756
8581.2323
8297.8413
7219.7426
6905.3821
5830.6639
5355.3043
3639.1059
9046.902
8648.1414
8004.7909
7589.8954
6629.3288
6496.0986
4578.234
9267.2906
9105.1057
8444.4492
8051.5632
7299.1653
7131.4701
5187.216
9791.6604
9406.056
9304.085
8928.1897
8133.896
8181.0159
6418.8468
10045.173
10043.818
9621.0238
9754.5394
8536.0088
9313.3816
7181.5172
10225.96
10678.489
10301.153
10167.459
9560.1602
9891.3634
8403.3022
10275.972
10957.282
10528.983
11017.549
10171.947
10705.511
9404.4033
10714.862
11378.408
11398.405
11505.883
10928.341
11534.557
10455.195
10658.176
11722.91
11499.993
11929.253
11456.601
12236.392
11248.13
10817.587
11831.921
11846.873
12352.211
12051.064
12783.747
11943.954
10823.558
11978.988
12119.942
12711.062
12402.435
13161.007
12822.372
10825.6
12033.224
12251.989
12823.66
12649.673
13666.353
13224.863
10719.862
11890.185
12209.3
12782.056
12864.621
13550.148
13634.152
10544.24
11740.563
12086.111
12860.998
12787.411
13818.205
13736.689
10624.445
11470.956
12046.802
12465.246
12745.308
13274.638
13918.151
10031.384
11063.828
11366.167
12201.487
12208.076
13160.623
13588.985
9938.6814
10733.076
11163.599
11453.165
11998.036
12337.71
13163.603
9219.3488
10599.332
10244.992
11458.446
11279.12
11898.858
12300.295
8791.8848
8896.9342
9334.0666
9598.4697
10011.403
10402.156
11354.029
8129.9905
9384.1097
9207.8222
9999.0605
9982.924
10042.755
10452.256
7582.2789
6845.4512
7227.23
7226.8621
7626.9059
7692.283
8921.5197
6311.2965
6708.5175
7050.6829
7284.9504
7586.4667
7411.1607
7660.2549
4438.2869
3399.787
3650.1501
3156.8621
3688.4786
3348.4809
4387.4866
3033.9292
2426.0125
2095.5666
1908.1967
2543.5561
2298.3559
3663.2125
334.35785
-2944.9492
-2938.4231
-3422.0019
-3522.7417
-3664.4145
-2236.6424
2915.326
1556.7045
2088.4119
2165.7804
1753.8517
1338.4411
1925.55
2397.5443
3997.2364
4238.1118
3999.6136
2975.3579
3116.7861
1896.3581
2978.7497
1272.5772
1218.0742
308.4557
939.0009
516.53623
-27.906182
2609.4348
2428.6458
3349.8684
3104.7674
2391.7721
2122.5363
561.87185
2782.905
2891.43
2726.4926
1081.1
1344.841
364.91919
214.06294
2824.5932
2901.1211
2108.6305
2464.017
1425.8611
1233.4492
434.79491
3961.0131
2679.4123
3134.292
1907.336
1707.7918
1123.1564
262.30256
3522.6626
3660.1426
2631.4956
2139.8314
1500.8239
606.33394
-527.84309
4519.1372
3129.201
2462.6981
2106.8614
955.94046
623.39832
289.00733
3782.6595
3157.9001
2815.3579
1785.64
1146.7442
423.68574
-342.60144
3658.5221
3458.8395
2462.0541
1795.6296
856.54034
241.25438
-592.0913
4394.0759
3181.6568
2662.0005
1735.969
975.73016
106.57407
-403.30718
4331.8392
3452.9194
2714.4578
1922.0898
492.38558
644.57639
-1581.4889
4255.3842
2599.0023
3416.6601
909.89513
1038.538
-558.87479
-1284.7492
4087.4493
3754.4962
2544.2699
1706.2412
302.22791
-55.160351
-1014.8846
4290.1624
2813.8254
2561.9758
1101.5875
349.14339
-538.55288
-1164.2817
4351.0351
3313.5477
2464.027
1731.0582
372.59203
-158.33603
-949.39614
4196.3452
2610.0144
2607.597
1162.4247
185.92251
-751.42433
-1144.6108
4064.7597
3304.1229
2505.1521
1533.4226
230.75917
-193.25397
-837.73921
4263.9632
2575.125
2334.7714
946.32823
115.67087
-544.84636
-1215.0094
3845.0436
2952.9299
2205.651
1405.6296
336.70987
-210.72309
-944.57806
4244.6682
2528.6066
2042.5026
1006.9754
78.627963
-450.71486
-1052.4573
3825.8779
2677.5525
1917.3884
1290.7839
336.91072
10.702285
-792.65663
4008.5061
2020.8668
1829.8691
842.20576
286.24392
-313.56071
-742.98062
3528.6795
2250.7805
1795.6761
1053.1457
447.56316
14.044821
-504.72311
3471.8023
2192.2125
1550.8073
806.49619
486.87013
-169.91698
-241.03562
3287.7887
1676.4869
1526.2866
866.95942
500.30586
192.21613
-85.333141
2727.6235
1473.1901
1412.3027
557.93803
673.31025
279.20669
98.935709
2537.8078
1258.5237
1205.8659
750.4229
853.05085
480.77383
611.1015
1954.585
997.19531
1170.8855
611.27538
780.35973
671.73147
927.33277
1451.6908
755.45699
834.98112
495.75118
1052.0722
918.47457
1224.4116
1044.2698
572.06108
760.84928
728.81006
1060.9782
1123.1352
1443.1989
611.63948
377.97251
666.58248
585.71386
1191.1504
1361.1782
1896.0804