/*--------------------------------*- C++ -*----------------------------------*\
  =========                 |
  \\      /  F ield         | OpenFOAM: The Open Source CFD Toolbox
   \\    /   O peration     | Website:  https://openfoam.org
    \\  /    A nd           | Version:  6
     \\/     M anipulation  |
\*---------------------------------------------------------------------------*/
FoamFile
{
    version     2.0;
    format      ascii;
    class       pointScalarField;
    location    "0.8";
    object      E;
}
// * * * * * * * * * * * * * * * * * * * * * * * * * * * * * * * * * * * * * //

dimensions      [1 -1 -2 0 0 0 0];

internalField   nonuniform List<scalar> 
3969
(
79834.438
86423.989
-1761535.6
-883584.15
90390.775
94889.678
-1309286.3
-2667225.6
42283.494
18460.785
7466.1919
5951.0799
15254.202
38410.315
78184.403
-949353.76
-925097.07
-939068.3
-961974.93
-983088.34
-994621.73
-750453.81
85956.233
70657.67
70844.008
70763.329
69242.298
68363.431
65780.455
64451.137
62298.165
60848.506
59935.48
58951.945
58242.353
57435.027
56663.491
56037.113
54972.082
53538.125
51815.492
49351.305
46442.328
42807.387
38568.113
33554.931
28418.397
22231.082
15469.414
8726.3964
1383.1985
-5965.3164
-13086.435
-20062.13
-26490.583
-32261.873
-36690.802
-41142.078
-43123.496
-45707.192
-45345.646
-45581.678
-43356.978
-40700.185
-37783.926
-32293.731
-28289.482
-23417.876
-1965.728
82316.61
59600.999
68475.05
64241.363
62665.355
59164.03
55851.15
52262.406
48566.778
45444.061
41777.012
39450.414
36110.317
33587.92
31046.391
28979.265
27080.436
25274.824
23863.729
22392.446
21259.045
20875.982
19391.441
19386.457
19253.15
19952.49
19703.548
19981.491
21041.36
23089.578
25132.998
27280.992
29453.129
31556.649
33370.44
35110.022
35561.475
35820.377
35565.8
33802.684
31706.389
28912.789
24615.205
20166.193
15146.29
9476.8604
-1029.0913
45834.337
20540.905
7661.0793
9421.5898
13844.528
34030.072
65974.331
129377.05
83401.419
66273.52
80374.763
69116.346
67999.737
63943.149
57335.43
55926.721
48839.108
47565.994
45012.53
43283.279
40656.979
38699.255
37423.689
35455.268
34550.604
33067.643
31877.395
30870.924
30090.772
29515.243
29140.332
28513.026
28044.935
27253.893
26514.559
26580.744
25960.918
25583.808
25311.604
24794.365
24475.079
23743.649
21546.828
27180.672
20012.897
19034.518
16979.945
14375.784
11889.051
8196.6636
4634.1919
397.74689
-3381.3606
-5578.0953
-2113853.2
-1775070
-2083690.7
-1888747.1
-1846033.1
-1645962.4
-2063013.4
-3269.4795
-13089.365
-13511.101
-16834.938
-20497.569
-23788.592
-26233.989
-28488.023
-29885.283
-29061.778
-26921.243
-31784.778
-27991.434
-24746.305
-21411.934
-16739.124
-12072.438
-6329.9893
-557.35892
5518.7245
11425.837
17445.243
23241.811
28372.789
33128.863
37179.857
40924.461
44002.477
46767.043
48860.978
50908.562
51665.524
53835.166
56884.883
57096.875
57739.353
59781.304
61232.856
62999.066
64560.752
68828.509
68707.347
73154.368
72239.158
71282.068
74726.331
96795.322
63735.204
61995.59
61088.526
61074.087
60956.101
60630.409
65482.284
54458.421
57991.821
63294.703
65704.751
65665.113
69172.405
57838.714
-991365.57
-990836.46
-990892.73
-990917.85
-990891.72
-991024.46
-991241.02
-1987654.6
-1984797
-1985080.6
-1985156.4
-1985494.3
-1986303.9
-1989966.7
53580.637
46730.02
48368.252
48280.252
49190.805
48805.643
48486.224
47779.577
47002.645
46223.691
45379.697
44222.336
43116.939
41842.922
40313.551
38705.652
36830.434
34649.377
32322.628
29746.134
26913.697
23829.141
20680.081
17291.425
13861.61
10399.382
6990.5558
3891.4851
698.59118
-1926.2276
-4377.9547
-6591.3348
-8375.3933
-9945.4788
-10876.964
-11863.451
-12073.153
-12097.699
-11854.895
-10706.692
-9702.8099
-8339.1849
-6061.9523
-5277.534
-1939.4492
2475.9505
8560.7284
24829.209
23390.491
25879.217
26553.424
27381.075
27892.93
27677.71
27845.676
27405.99
26918.527
26171.848
25148.384
24520.699
23668.106
22599.085
21187.047
19563.374
17879.281
16021.498
14202.92
12431.625
10569.651
8782.1403
7081.4103
5501.481
3945.1652
2488.9537
1197.5261
-32.411401
-814.79177
-1419.5427
-1797.9884
-1912.3571
-1666.0038
-1202.9012
-749.62602
788.93143
840.1139
3036.3603
3089.4426
5152.4567
5781.1259
7407.8667
7957.4139
10302.412
8664.8489
1557.7755
9792.7147
6737.349
9597.3384
8898.6752
9905.403
9845.8457
9891.8363
9694.7405
9128.3552
9174.8004
8519.5589
7892.7835
7192.677
5757.3103
5477.1497
4474.4196
3756.4788
2726.6446
1984.5363
1049.7798
160.28235
-412.89426
-666.94772
-721.90024
-562.29474
-394.71013
354.92726
1266.5719
2214.0749
3346.2974
4552.8
5849.4059
7277.1115
8646.4112
10088.853
11674.027
12816.548
14750.84
15960.599
16930.474
18564.091
18138.845
19732.737
18947.908
20671.439
16736.401
-432.09172
5257.4023
1023.4894
1919.7831
1725.1726
1900.3072
1953.2589
1734.0328
2243.46
1591.0434
1605.4673
1385.8804
1180.6154
1053.5456
378.25464
83.255621
-175.3139
-255.92061
-239.14161
-266.43742
-200.32835
16.730419
590.71792
1462.0897
2025.3881
2469.7971
3200.8002
3708.2243
4526.231
5562.7321
6844.9903
8212.5716
9920.2962
11395.646
13213.958
14961.888
16132.142
18026.411
18988.113
20281.042
21346.128
21341.965
20905.243
20852.795
18821.724
18868.143
13579.232
738.63538
13736.701
7594.8557
8084.512
7047.6363
7393.9804
7738.4731
7191.5095
7542.5246
6740.0053
7035.8155
6814.1734
6439.942
5907.6821
5464.6876
5311.6445
4863.2112
4621.7234
4258.2672
3918.6932
3508.4094
3991.264
3610.5915
3254.7633
2613.3744
2040.4753
1425.5232
937.17718
436.75127
-124.95201
-709.96955
-1210.9216
-1689.5795
-2152.2638
-2450.0974
-2927.563
-2814.6367
-3324.8543
-2057.741
5758.3615
11475.421
10110.659
9785.7388
8285.0421
7063.3604
5169.8577
4765.2026
5612.7233
32985.304
26908.721
26671.477
26361.947
27061.552
26659.934
26075.475
25438.209
23946.775
23332.326
22594.193
21654.209
19999.381
19052.256
17996.21
17102.029
16105.588
15285.923
14370.46
13511.27
12305.37
12400.004
9115.2111
7145.3184
5754.1206
4522.5592
2734.5479
1695.3303
319.40215
-847.86698
-2118.0501
-3192.8471
-4344.5438
-5291.3522
-6288.8301
-6966.9974
-7554.2367
-8324.3959
-7668.1375
-5846.2223
-8255.0599
-7988.9434
-8681.9523
-8145.4441
-8145.7046
-8513.6393
1249.6894
51322.783
45289.07
44615.115
45257.931
45866.219
44204.439
42907.133
40404.112
39028.308
36315.11
35572.375
33405.22
31663.195
30110.556
28700.042
27291.836
25955.45
24535.434
23137.054
21522.931
20375.641
17867.059
16844.162
14011.442
13236.744
11660.677
9379.9961
7855.4927
6069.7894
4216.054
2109.5483
800.93494
-904.58036
-1907.5535
-3167.91
-3412.4781
-4163.8268
-3579.2778
-3921.7167
-8498.1866
-9595.8838
-8090.789
-6537.2357
-3956.715
-2639.6334
2064.9043
5877.0109
25802.563
26439.412
22240.096
22173.662
22527.012
23308.27
29853.752
11193.901
9591.8671
8506.5448
8337.9805
8688.9153
9491.6481
12945.414
4102.8404
2631.0695
1452.6864
1746.3693
1499.5073
2134.2453
4075.3976
2744.5996
1165.8043
668.10006
582.74356
1027.9572
2315.1812
4871.5811
5823.3893
3637.8281
2609.2253
2414.9342
2960.1048
4405.5245
7226.1146
20382.183
14897.244
13014.875
12403.99
13074.434
15510.325
22179.927
35740.776
36606.386
29947.576
31018.113
30438.149
33296.999
43974.039
96245.624
84398.824
90510.29
96901.213
97008.024
104026.15
102144.62
83646.781
84560.124
80227.311
79070.71
85462.869
87843.396
89419.571
76821.631
80212.052
81238.818
80905.397
81187.434
81737.515
82726.922
75099.374
81792.175
81275.75
83352.921
83497.39
82914.015
77343.212
70250.522
73225.082
77064.155
77217.115
76742.636
74315.735
72716.149
66752.416
68743.5
70458.722
71772.801
71004.859
69173.313
66848.92
61392.401
63152.106
66066.093
66376.657
66372.704
65360.237
64015.431
57576.585
58720.26
59664.763
60123.839
59686.493
58290.408
57107.903
53311.129
53866.584
55651
56230.216
56161.326
55747.177
55673.252
49625.328
50366.031
50943.758
51790.115
50452.087
49728.591
49808.309
46369.39
46669.575
47602.345
47467.661
48197.196
48137.958
46132.122
43291.602
43234.763
43904.172
44577.888
44223.706
42420.249
43829.387
40503.142
40249.615
41562.335
40809.139
41061.289
40609.409
41205.245
37328.402
37592.133
38664.195
38207.35
39193.834
37182.636
38558.441
35397.267
35358.783
36586.733
35868.668
36216.626
35185.754
36355.807
33115.408
32931.438
34639.882
33513.984
34646.953
33227.955
34593.867
31367.269
31435.811
32687.102
31823.341
32666.215
31147.208
32558.238
29800.205
29539.866
31244.465
30162.765
31242.551
29790.41
31270.398
28389.759
28253.441
30096.755
28644.395
29904.425
28175.987
29809.898
27297.169
26973.684
29027.975
27449.867
28879.364
27100.094
28900.224
26463.063
25926.173
28216.75
26402.421
27921.344
26041.904
27905.186
25821.427
25120.713
27594.243
25632.779
27206.026
25251.117
27312.071
25210.925
24551.4
26890.687
25091.155
26544.012
24957.372
26956.041
24997.187
24367.502
26667.228
24718.584
26131.965
24601.958
26494.558
24936.075
24394.548
26041.067
25278.42
25982.362
24574.288
26064.784
25248.926
24821.703
25805.273
25256.602
26164.498
24879.386
26325.247
26929.294
25603.18
26292.634
24965.62
26622.778
25116.69
26590.092
27949.285
26225.243
27276.639
25446.598
26849.884
25108.017
26643.765
28691.474
27434.668
27935.115
26309.318
27551.49
26378.572
27289.582
30418.17
28277.363
29624.315
26766.662
28680.447
26578.331
27880.166
31494.104
29920.788
30621.767
27828.256
29368.765
27318.324
28773.724
33165.572
31100.911
31937.516
28696.598
30481.961
28139.418
29750.722
34332.769
32494.408
33191.609
29871.834
31353.399
28864.916
30438.461
35365.39
33492.041
34188.771
30514.08
32112.85
29484.092
31229.536
36021.13
34503.901
34925.25
31413.921
32618.886
30105.832
31735.048
36744.938
34719.957
35616.65
31576.494
33391.784
31893.842
31747.226
36442.755
34837.154
35294.069
32139.394
33006.364
25970.707
28372.074
30960.035
31162.338
30501.846
28592.494
28440.057
31939.061
30889.915
33956.138
32589.32
33334.375
30071.158
31212.594
28761.248
29729.219
32134.955
30734.426
31467.388
28662.422
29525.791
27292.379
27918.389
28758.168
27714.847
28626.374
25965.085
27008.083
24986.708
25417.245
25292.71
24631.406
25350.887
23445.677
24063.082
22304.62
22264.904
20619.225
19871.03
20885.161
19167.01
19885.572
18498.911
18388.307
15927.907
15644.417
16358.69
15266.357
15714.955
14531.596
13907.841
10598.583
10311.992
10974.846
10207.773
10678.202
9849.2246
9162.3981
5262.9321
5203.1852
6015.0579
5561.2319
5964.0452
5263.323
4377.1204
-3194.6522
-2750.1688
-2840.3788
-2558.9842
-2816.8986
-3113.6589
-3044.1666
-1170562
-1283360.3
-1283554.7
-1283839.6
-1283648.2
-1283038.2
-1282737.1
-1236960.1
-1234257.4
-1234150.1
-1234444.3
-1234303.6
-1328667.4
-1234519.3
-1334983.7
-1240844.8
-1240989.8
-1240978.7
-1240721.9
-1130281.6
-1239728.9
-1273588.7
-1273725.1
-1274819.6
-1274079.5
-1275109.8
-1273315.1
-1273541.6
-1303599.1
-1177545.3
-1300668.1
-1301179.9
-1299480.4
-1300255.3
-1300166.6
-1202672.3
-1426500
-1326840.8
-1326454.5
-1432526.2
-1326454.2
-1326977.6
-1423292
-1320041.1
-1320421
-1320572.6
-1197206.7
-1320345.5
-1319439
83130.509
74656.822
70362.389
68104.167
69520.327
71855.777
73674.261
78255.19
72985.323
72276.901
71129.019
72122.318
73508.882
75625.654
76289.967
76575.588
75422.382
74645.786
75452.188
75052.359
74729.669
73945.04
74397.682
74245.542
74277.604
73829.513
72599.813
73177.011
72373.969
71906.962
72550.121
71989.602
71841.085
70781.901
70176.166
69029.579
68779.913
68702.916
68024.984
68478.315
67709.219
68209.306
67417.36
66371.305
66375.766
65183.274
66052.886
65556.079
66137.692
64505.248
63309.206
63533.385
62920.105
62756.319
62670.338
63365.453
63088.875
61998.042
61935.142
60888.185
61845.37
61100.928
62791.522
61253.536
59808.417
59808.745
58761.527
59593.056
59036.37
60461.375
60011.139
58667.447
59292.93
57707.956
59077.675
58006.24
59436.257
58685.626
57774.776
57454.169
56944.759
57114.068
57155.142
58227.556
57846.389
56530.508
56502.963
55680.24
56031.354
55876.32
56440.916
56981.886
55994.544
56236.565
54842.638
55684.518
55041.082
55700.104
55495.831
54991.641
55036.984
54378.658
54681.143
54119.95
54842.6
55239.815
53875.614
53698.349
53068.998
53445.843
53628.119
53857.939
54505.576
53156.842
52849.103
52259.444
52406.535
51703.497
52124.683
52906.533
51538.208
51662.529
50678.388
50810.948
50328.009
50407.734
50908.182
49869.175
49738.462
48964.178
48930.542
48443.587
48426.813
48566.758
47647.548
47427.074
46722.481
46457.834
46026.103
45900.691
45622.11
44971.651
44547.792
43859.348
43464.347
43073.826
42864.357
42047.674
41531.95
40922.591
40399.343
39955.362
39563.959
39203.08
37730.627
37457.092
36712.752
36363.322
35761.018
35348.231
35006.069
32801.073
33010.197
32043.315
31785.979
31303.912
30657.819
30233.152
27462.733
27966.923
26615.123
26796.315
25982.589
25359.187
24931.145
21509.088
22278.926
20953.887
21020.885
20400.054
19552.345
19322.391
14919.269
16113.925
14839.125
14815.485
14381.604
13370.693
13029.953
8475.267
9398.3386
8332.1877
8454.598
7934.7168
6926.9761
6693.7146
1538.9536
2866.7981
1582.8511
1971.3602
1335.7634
398.13419
314.85519
-5262.8896
-3729.4337
-5004.3909
-4673.0832
-5051.7524
-6026.7245
-5992.9573
-11681.804
-10500.588
-11533.281
-10905.638
-11434.047
-12496.172
-12047.997
-17983.769
-16642.386
-17429.918
-17106.919
-17500.49
-18281.753
-17661.075
-23488.886
-22336.952
-23091.947
-22536.225
-22834.992
-23795.035
-22566.035
-28314.041
-27481.686
-27820.17
-27347.144
-27617.729
-28313.364
-27019.84
-32264.971
-31573.782
-31814.973
-31474.173
-31947.108
-32754.467
-30665.204
-35534.481
-34987.654
-34808.587
-34726.423
-34746.708
-37657.902
-35987.367
-40030.378
-40824.846
-40409.228
-40738.197
-40499.843
-39117.008
-33240.839
-38417.222
-37893.01
-37808.404
-37771.583
-38052.74
-39001.993
-35993.619
-38874.798
-38331.094
-38241.781
-38079.673
-38633.916
-38900.818
-35897.086
-37661.966
-37830.358
-37639.472
-37514.104
-38056.364
-38499.965
-35198.59
-36198.347
-36075.728
-35894.812
-35832.1
-36361.784
-36858.32
-33384.822
-33057.53
-33065.12
-33079.693
-32781.47
-33559.271
-34100.103
-30944.158
-30459.196
-30898.441
-30558.075
-30530.852
-31076.151
-31229.725
-27871.482
-25946.027
-25589.659
-25722.906
-25445.684
-26245.744
-26567.359
-24120.793
-21209.325
-21877.945
-21503.884
-21530.687
-22060.944
-22316.951
-20154.078
-18830.242
-18054.534
-18554.59
-18007.3
-18347.345
-18440.774
-17697.647
1440.3873
-249.63602
360.02985
167.90645
-64.7035
561.0887
131.87647
84182.088
62892.501
57855.733
57102.223
57736.522
54992.399
55066.652
51959.825
50893.917
49413.427
47396.145
45797.138
44041.848
42635.154
41009.919
39614.499
37809.334
36248.556
34781.624
33226.273
31671.334
30272.046
28819.898
27416.217
26289.49
24718.131
24517.437
23011.365
22178.083
21297.4
20318.926
19467.638
18368.051
17385.213
15702.269
15093.156
15620.738
13560.668
11188.702
9924.899
8784.6747
7378.4867
6188.9531
4783.2781
4074.91
2953.9818
14502.461
36152.771
38154.154
31734.074
33625.157
34383.791
33456.224
34303.063
33917.815
34138.083
33224.159
33266.105
32162.356
31385.617
30057.969
28508.469
28114.922
26655.856
25243.468
24144.391
22414.966
20948.381
19367.138
17587.066
15974.573
14271.471
11273.101
9949.0928
9317.2537
7608.044
6135.9225
4797.8273
3735.824
2545.1504
1770.7441
882.6155
279.3565
-463.52353
-1347.6804
-1631.0826
-2133.0589
-2299.5932
-2871.5297
-3118.3706
-3622.4408
-3610.8421
-5114.6313
1048.2453
13302.333
14610.913
13065.214
15185.344
14373.182
11914.537
14940.196
12230.768
13707.012
12805.666
12564.591
12341.231
12783.726
15091.53
14482.89
14274.061
13588.235
12658.101
12213.011
10808.527
9843.6836
8449.906
6925.9744
5205.7087
3496.1006
1435.1418
-245.46058
-2846.6303
-4949.9158
-7207.9697
-9231.872
-11343.031
-12878.168
-14327.706
-15389.017
-15971.187
-15983.014
-15674.845
-15144.798
-13824.649
-12426.371
-10717.193
-8886.1305
-6317.7818
-4683.8892
-849.27294
-6005.6154
5200.6642
4818.0709
1408.6362
7391.3734
2194.9449
5313.738
1399.1455
2105.9443
4095.0004
1649.4347
4576.6309
2532.6589
5024.8927
6481.2545
6959.7155
7481.7009
6983.7126
6843.7242
6386.87
5574.632
4635.224
3635.6135
2064.8706
890.91832
-926.91617
-2118.873
-4128.8929
-5585.3277
-7228.8392
-8628.4732
-10023.053
-11142.768
-12026.737
-13047.345
-13322.935
-13677.692
-13588.88
-13335.011
-12328.816
-11432.867
-9613.233
-8143.275
-5203.8901
-3136.1316
599.87068
4432.0707
-2791.9022
12731.095
3347.8297
5382.0461
4489.9716
4858.6671
5348.9132
6534.8248
6156.6555
5519.5527
6816.7418
5365.9739
6907.9846
6262.2964
6317.8401
6718.6344
6012.3526
6044.8805
5378.7643
4980.1504
4090.7992
3334.7434
2228.6523
1227.209
-201.4887
-1580.5979
-2882.0295
-4499.3499
-5719.0074
-7144.013
-8372.363
-9422.5016
-10144.909
-10774.399
-11026.233
-10848.631
-10714.993
-9753.003
-9037.8645
-7782.225
-6104.8203
-4532.0749
-2384.6219
-324.40708
1948.7986
4251.2056
8616.0609
5861.3134
29905.012
23293.812
17226.292
23050.765
18530.252
22499.872
21165.977
19596.805
21684.027
19154.717
21689.413
19762.778
19577.558
18579.71
17414.048
16590.952
15352.965
14430.162
13288.856
12333.311
11228.237
10265.607
9266.5293
7915.7249
5109.7209
3903.5973
3362.799
2605.6113
1974.3678
1367.8034
963.39232
598.71164
346.97938
352.31874
479.16126
303.85255
900.57043
1285.1618
2548.7269
2928.6011
4088.8748
4948.794
5819.853
6760.5935
7547.866
8770.2061
6020.3605
77731.529
45708.467
51275.184
45796.405
49333.602
47122.919
45413.626
44862.342
41201.53
39607.811
36823.141
38363.085
35472.121
33467.02
31850.459
29534.923
27962.265
25920.102
24071.011
22035.016
19815.102
17311.002
14773.523
11351.778
9676.6282
6053.7213
4855.9616
3040.8165
1258.7151
-25.378864
-1228.2607
-2160.1365
-2759.1842
-3035.1816
-3093.7362
-1618.8553
-2075.6682
-1513.8261
-936.67565
136.04086
1423.2025
2571.7204
4020.9316
5613.3627
6775.0899
9123.2613
7615.2922
66296.287
55738.033
54186.889
53172.885
53695.992
53869.202
55369.468
59997.943
61092.925
57023.208
56541.445
55857.202
57195.753
57974.619
56153.603
58913.23
58641.507
57850.429
57645.284
57638.189
56715.323
55191.593
56311.675
56356.22
56511.011
55832.527
55470.194
53790.741
53963.865
55541.954
55735.831
55796.52
55344.531
55207.657
53687.374
52189.519
52466.784
52221.519
52589.39
51880.31
51833.158
51507.774
51586.227
51900.296
51500.291
51264.417
50800.932
51271.174
50964.896
49485.585
49216.887
48622.078
49179.168
48693.198
48723.073
48647.883
48687.387
48773.477
47527.049
47992.979
47257.119
48067.99
48212.342
46883.745
46388.99
45779.441
45952.86
45401.278
46226.293
46138.257
45706.673
45418.829
44511.805
44605.36
44431.395
44828.281
45239.271
44403.196
43588.019
43037.976
43274.668
42742.353
43561.804
43710.396
43052.143
42344.352
41735.271
41645.982
41580.692
42015.444
42130.763
41491.647
40657.411
40211.377
40103.976
40172.212
40632.856
40934.728
39823.93
39281.116
38583.776
38642.484
38353.455
39189.937
39058.209
37979.23
37418.68
36955.174
36870.104
37025.824
37602.593
37655.229
36272.619
35663.805
35111.445
34910.726
35205.361
35790.003
35977.247
34153.426
33649.629
33205.232
33010.214
33367
33981.637
33962.207
32114.009
31542.047
31217.275
31062.859
31504.103
32063.45
32262.482
30006.552
29399.322
29206.27
29011.963
29419.03
30080.776
30314.864
27910.973
27106.691
27118.092
26859.412
27438.787
28073.782
28359.282
25857.501
24867.106
25050.28
24825.069
25438.5
25996.374
26371.484
23788.186
22554.529
23128.627
22791.319
23348.773
23813.461
24441.338
21808.74
20430.445
21331.057
20693.094
21302.799
21822.354
22551.055
19798.485
18130.49
18976.613
18722.183
19070.221
19525.761
20658.103
17458.641
16181.723
17505.692
16649.506
16940.095
17616.316
18352.998
15947.469
14113.683
15085.783
14946.745
15082.34
15692.198
17194.422
14078.988
12640.515
13577.69
13301.98
13331.342
13857.735
15433.436
12283.898
10857.198
12313.054
11539.353
11729.804
12150.229
13933.302
10792.093
9545.7962
10802.573
10175.751
10332.68
10656.116
12589.687
9428.3977
8337.0915
9518.5471
9048.888
8981.4529
9282.3302
11317.703
8161.0276
7322.8195
8505.2341
7917.3331
7811.2627
8122.0434
10164.359
7079.3121
6588.1305
7405.0779
7071.6908
6917.9091
7125.2296
9354.3045
6180.6791
5769.7962
6688.0024
6366.0077
6174.2257
6470.3983
8320.9421
5425.239
5427.7309
5962.8627
5744.2766
5513.4866
5472.4825
7650.8172
4931.5954
4755.8127
5397.6732
5233.3614
4948.4996
5032.4225
5688.7744
3685.6788
4205.166
4480.3562
4425.2069
4523.7599
4497.0507
9694.5547
4334.707
6033.2777
6714.5729
6805.1082
6146.2631
6528.0966
6047.8433
3367.9679
3979.0716
4386.5422
4558.8148
4675.9951
4750.0576
6321.5726
4358.2788
4224.3172
4603.4995
4775.0751
4496.1382
4639.3362
5604.4265
3553.3735
3617.7951
4128.4288
4306.6773
4454.7092
4567.6293
5649.7455
4236.1279
4218.5637
4618.2288
4796.3149
4637.7673
4734.1302
5343.0247
4514.714
4295.5866
4847.0942
4951.6819
5150.3299
5007.6101
5314.3239
3734.6645
3782.2893
4224.8077
4599.3377
4445.4567
4395.4093
4663.8851
5373.586
4853.7474
5911.6249
5713.5292
5984.6339
5899.5395
5551.9389
6459.8953
7367.7226
7313.4529
7358.0411
7504.6722
7409.8833
6604.035
14342.887
14198.532
14925.305
14448.475
14862.044
14669.795
14749.296
29500.841
23231.086
21077.778
20358.667
20191.119
20730.248
22422.995
32100.31
33921.61
32026.647
32013.63
31987.224
32212.505
33099.548
31216.091
31769.067
32048.196
31362.392
31418.754
30429.155
30222.386
31798.616
32951.934
33512.851
33402.77
32892.857
32331.642
31054.008
31309.506
31500.346
32085.324
31501.727
31659.738
30860.135
30618.179
31483.718
31747.395
31067.379
30930.733
30720.035
30285.684
30297.312
30699.788
30842.122
30615.531
30350.634
30308.856
30166.208
30188.489
30655.605
30737.145
29880.418
29595.632
29572.65
29316.518
29881.019
30161.01
30307.706
29486.139
29161.944
29069.46
29221.268
29740.746
29669.13
29524.324
28578.769
28280.101
28514.965
28403.318
28848.976
28765.253
29148.734
28005.751
27957.306
27771.258
28008.779
28499.853
27867.303
28181.413
27124.989
26793.089
26803.796
26917.721
27204.399
26920.898
27338.883
26424.468
26164.784
26030.722
26280.725
26442.683
26086.254
25996.25
25443.181
24880.929
25042.224
24762.792
25500.417
25186.938
24857.506
24211.726
23821.765
23983.133
23518.798
24048.236
23827.634
23451.224
22856.623
22704.57
22570.596
22369.935
22823.487
22276.027
22289.341
21470.394
21318.957
21168.349
20948.414
21505.088
20841.192
20825.349
20063.282
20117.055
19811.877
19529.501
19762.142
19274.067
19418.972
18704.619
18618.918
18331.855
17980.717
18445.81
17679.272
17969.689
17236.257
17219.981
16822.267
16518.012
16833.023
16032.78
16467.247
15826.749
15700.589
15307.45
15008.479
15212.76
14444.799
15028.833
14415.549
14288.211
13890.118
13452.144
13741.352
13056.353
13480.36
12969.181
12772.103
12237.594
11991.252
12222.327
11697.422
12018.112
11659.016
11236.456
11045.901
10790.19
10949.701
10507.076
10727.028
10178.008
9976.1181
9875.0856
9354.9444
9540.4422
9423.7854
9649.157
9851.7737
9123.4767
8620.7675
8342.9565
8605.6847
8725.8097
8887.2567
8269.6165
8079.7114
8144.0357
7681.9172
8019.3687
8327.3845
7637.3534
6869.7482
7001.3594
7112.0896
6823.0983
6877.745
7282.8248
6654.3854
7217.9275
6485.9614
6548.159
6271.6977
6110.9116
7029.4336
6293.0015
6321.3416
6013.4164
6055.7655
5758.5378
5655.5901
6802.4848
5693.9366
6085.1973
5747.2572
5716.4805
5437.0253
5235.3452
6643.0224
5528.2515
5869.9155
5535.3214
5469.9977
5298.0481
5167.7688
6659.9569
5393.6775
5752.9403
5495.2233
5504.3269
5330.8498
4897.3557
6775.5418
5380.2828
5820.8495
5631.8999
5516.3561
5042.1546
4960.5407
6919.2372
5533.066
5894.5802
5777.0356
5422.4203
5449.8735
5086.902
6984.6681
5507.8797
6126.5574
5859.7597
5902.5008
5449.3362
5511.7358
7470.3475
6235.2494
6291.624
6413.8353
5718.8431
5713.9467
4941.4718
7337.4074
5477.5095
6270.1889
6066.2514
5980.3468
5751.723
5486.2326
7669.1732
6580.5235
6893.0583
6557.285
6360.7114
6051.818
5513.2695
7632.6559
5758.1995
6651.0626
6259.6335
6255.5155
5948.3645
5500.2404
7587.5024
6483.5467
6755.9537
6620.4823
6368.8503
6119.3452
5718.281
7748.715
5832.6779
6465.1139
6115.1771
6057.3162
5943.2047
5534.8491
7193.1007
6011.4871
6294.2289
6256
6231.977
6063.0581
5436.4301
6720.5608
5168.7971
5588.3157
5392.2768
5134.7036
5050.2321
4633.9692
7051.5278
5944.3656
6024.4186
5822.6169
5930.9098
6152.8029
5464.0618
4300.0739
2978.5945
3189.0215
3113.5435
2979.0163
3055.6681
2563.2473
3194.9325
1907.6814
1903.7543
1510.3345
1642.1814
1309.9603
1953.837
11805.974
9028.853
7751.4285
7388.2872
6951.8288
7431.3826
7641.4592
11046.983
12104.846
11408.265
11431.187
11304.788
10975.368
11387.552
13050.267
12878.91
12660.971
12759.97
12410.433
12155.321
11916.948
11967.179
12976.09
13929.332
14192.688
13741.534
13819.229
12507.018
13222.664
13501.967
13264.409
12945.646
12812.392
12118.493
12861.012
12431.577
11126.969
11080.375
12151.377
11335.471
11275.492
11350.715
13970.592
12334.126
12896.413
12826.879
12350.21
13304.346
12826.709
13544.077
11373.624
10854.373
10330.901
10437.041
10664.212
10667.449
13271.453
11023.967
11360.913
11308.173
11191.699
12007.476
11936.575
12974.332
10385.887
10485.548
9858.1936
9875.4377
10605.107
10882.088
12686.316
9925.2719
10256.135
9560.6357
9688.4134
10272.79
10459.329
12547.435
9014.206
9724.135
8933.8519
9653.0537
9827.2431
10834.272
11900.12
8507.0498
8695.7683
8894.7202
8826.069
9270.9743
9943.2568
10192.864
8561.5255
8307.9462
8043.456
8410.0637
9067.9692
9215.1223
8601.6333
8220.6484
8167.6676
7712.5703
7560.3864
8383.452
8858.2964
7815.0698
7476.9628
7498.7829
6931.3211
7160.0604
7698.5168
8135.3791
7270.9492
6910.0047
7064.3293
6478.3753
6516.8278
7191.3565
7792.1586
6470.808
6191.5152
6341.7409
5824.1137
5982.8751
6509.3944
6888.6953
5869.2012
5649.6432
5832.1816
5342.5996
5465.1889
5821.6472
6580.7589
5160.7439
4923.2331
5150.7286
4730.7188
4905.8202
5216.2989
5833.0309
4560.6287
4458.9541
4686.6019
4309.5745
4570.8452
4608.0249
5283.5993
3933.5973
3870.7602
4096.0104
3835.5799
4049.9877
3995.7263
4717.3517
3393.4157
3403.5149
3742.5633
3426.287
3693.2851
3546.0458
4253.2486
2991.4057
2977.2493
3277.4395
3060.9923
3345.2959
2937.1282
3431.3036
2636.8512
2396.4644
2913.2524
2801.0426
2864.6897
2366.6588
3237.3474
2189.5597
1824.7489
2665.9718
2154.1318
2426.1179
2099.6016
2332.7355
2127.385
1647.8771
2318.2749
2071.4403
2278.5984
1503.6462
2183.6317
1887.4851
1186.0262
1863.5453
1577.9308
1842.3661
982.55265
1757.767
1891.2353
919.63846
1771.552
1189.2268
1575.5582
614.25921
1445.3876
2040.8843
770.98921
1298.2032
1002.4131
1392.3351
197.90918
1289.1833
2231.0771
474.48434
1224.6039
814.86106
1140.0623
69.273557
1232.4966
2593.1972
497.80378
1174.6181
569.80311
1199.0579
-66.740594
1191.6801
3037.9777
536.27408
1104.5761
673.70507
1154.033
-165.88796
1283.2788
3476.8419
644.87321
1358.9127
776.39845
1387.8057
299.23138
1718.8405
4123.8087
1046.2299
1656.1306
1105.1276
1749.466
592.25343
1737.9465
4818.5718
1556.1087
2192.5556
1548.8729
2263.7087
1172.9797
2255.0214
5301.4637
2011.991
2621.2132
2195.1379
2952.5008
1919.5352
2897.43
6346.8576
2926.91
3802.9228
3022.7979
3968.9409
2763.7631
3335.1839
6511.9646
3934.2728
4011.2853
4007.9294
4472.3046
3645.7506
3955.6496
7687.1629
4425.2197
5259.3415
4866.3991
5671.6258
4727.7391
4644.0219
7904.1318
5927.6237
6017.5964
6041.5268
6364.3631
5600.6589
5181.898
8363.7899
5745.5955
6455.4248
6277.332
6824.6455
6507.6736
5851.2617
8764.5347
7268.3827
7468.9578
7472.9735
7787.5224
7350.1629
5994.8938
8926.5584
7249.2571
7426.7083
7461.6128
7609.2468
7391.1629
6693.9734
9417.1325
7879.5839
7872.1326
8018.8416
8037.1782
8388.852
6866.3342
7813.7896
6802.5184
6937.6644
7220.3057
7292.2722
7371.9804
7081.8615
-3854.7934
-5546.0859
-5592.9653
-5833.6739
-5449.6749
-5648.7005
-5206.0333
4586.8459
3585.1788
2840.1678
2718.2142
2443.5936
2425.2266
1695.3464
2977.4372
4931.2936
5026.9282
5470.0648
5250.9156
4776.8761
4355.8526
2870.7801
2892.2254
2320.2529
2530.3695
2350.5686
2128.3939
1392.1473
3116.5321
6013.5374
7496.955
8442.2854
8115.3652
7529.377
5996.2449
2774.5332
3068.647
1635.648
1316.0153
1014.9032
789.46434
1370.7207
2801.088
4458.289
4389.9161
5486.8215
5511.9814
5975.3817
4606.0189
3066.4767
2815.6701
2616.5534
2844.274
2613.5108
1685.0627
2966.1811
4114.503
3467.8178
2660.9894
3248.5727
2556.1073
3019.3112
2885.6632
4007.756
3685.0008
3544.1848
3483.0729
4041.5571
3454.2905
4382.6315
4575.5127
4191.1527
2462.3898
3013.7919
2416.5514
2118.8745
2328.6947
4666.2998
4062.1858
3952.6703
3904.0273
4565.1986
3948.5094
4836.8316
4798.3616
4897.492
3482.772
3369.2656
3654.8005
2965.0489
3280.7181
5105.7171
4732.0233
3103.1159
4375.2298
4611.8102
3605.1179
4798.9307
4818.8221
5589.0475
2887.9404
3815.7898
4402.365
3801.4966
4190.3222
3688.0457
5023.8754
4452.5307
3964.5186
4632.7033
3562.4437
4347.5015
3682.3288
4892.778
4500.5935
4146.4744
4672.3735
4028.0328
4530.2139
3654.2285
4794.6454
4678.4794
4260.3769
4877.0286
3878.1978
4479.2076
3708.7321
4715.8306
4632.8147
4292.0709
4738.0406
4044.1105
4368.0421
3634.6888
4445.4361
4662.7241
4229.4688
4732.9347
3895.6581
4245.773
3673.6062
4265.1355
4410.8247
4106.838
4468.2707
3796.4549
4023.3298
3715.461
3773.9731
4312.5762
3961.4439
4165.3934
3526.4153
3559.7196
3599.2192
3436.4337
3980.7638
3533.3628
3752.4181
3233.5356
3238.6379
3567.9887
2917.8086
3592.4246
3215.8708
3336.8951
2804.6418
2378.1293
3440.3247
2306.9956
3217.384
2659.9706
2920.3562
2431.9514
2103.1526
3163.1605
1947.5243
2779.8526
2162.0516
2369.3273
2089.4499
1409.5469
2828.1221
1593.467
2279.7478
1782.3079
2017.9828
1732.9788
975.17982
2352.0106
1064.9645
1793.0677
1287.2396
1598.0851
1371.0381
479.15334
2278.4334
348.91122
1564.0078
955.21973
1123.5359
1249.1527
12.903463
2121.0081
145.5608
1070.4462
860.46013
672.09208
1129.0407
-528.24018
1975.0522
-54.523165
829.46596
617.67421
490.11857
1054.9478
-891.57452
2037.2878
-147.22203
668.55118
651.472
303.38118
1108.2242
-1174.6305
2231.8514
-91.492549
617.93969
619.01477
94.975003
1089.5948
-1428.2677
2445.8137
-64.543834
585.21054
687.5421
192.84632
1424.7059
-1310.9643
2920.0552
199.88154
745.01294
833.77917
309.35
1372.7843
-1367.0159
3386.9912
545.48885
858.54893
1029.1308
361.27544
1667.5219
-1185.3367
3844.0309
723.79473
955.01306
1068.0785
669.87657
1629.7468
-745.51548
4744.2659
1426.6508
1334.7827
1621.3942
685.75533
2139.0738
-506.02823
4587.528
1556.6443
1499.8756
1357.2363
1097.5249
1956.3652