/*--------------------------------*- C++ -*----------------------------------*\
  =========                 |
  \\      /  F ield         | OpenFOAM: The Open Source CFD Toolbox
   \\    /   O peration     | Website:  https://openfoam.org
    \\  /    A nd           | Version:  6
     \\/     M anipulation  |
\*---------------------------------------------------------------------------*/
FoamFile
{
    version     2.0;
    format      ascii;
    class       pointVectorField;
    location    "0.8";
    object      u;
}
// * * * * * * * * * * * * * * * * * * * * * * * * * * * * * * * * * * * * * //

dimensions      [0 1 0 0 0 0 0];

internalField   nonuniform List<vector> 
3969
(
(0 0 0)
(0 0 0)
(2.8029664 -0.4473068 0.020107215)
(2.5822445 -1.0731967 0.014660138)
(0 0 0)
(0 0 0)
(2.5838739 -1.0797706 0.014090397)
(2.8045025 -0.45404834 0.019585007)
(0 0 0)
(0 0 0)
(0 0 0)
(0 0 0)
(0 0 0)
(0 0 0)
(0 0 0)
(2.7748338 -0.52605217 0.019051169)
(2.7470051 -0.60404753 0.018458812)
(2.7194168 -0.68193227 0.017822721)
(2.6920351 -0.75977462 0.017351932)
(2.6647506 -0.83770847 0.016806569)
(2.6374536 -0.9158088 0.016292892)
(2.6101282 -0.99426936 0.015553392)
(0.0069896649 0.015377687 0.016855219)
(0.011300445 0.027459366 0.020678031)
(0.020024589 0.04092054 0.023280917)
(0.033341178 0.053900211 0.023959576)
(0.049982861 0.067022773 0.024533518)
(0.071054603 0.07924887 0.024341108)
(0.095260593 0.090927933 0.024525184)
(0.12354063 0.10155051 0.024207989)
(0.15490961 0.1111887 0.024276631)
(0.18978952 0.11959966 0.023975857)
(0.22779241 0.12693743 0.023998462)
(0.26889203 0.13291987 0.023813935)
(0.31293228 0.13761458 0.023690011)
(0.35981832 0.14099854 0.02357954)
(0.40945976 0.14289171 0.023389946)
(0.46157132 0.14344421 0.023233645)
(0.51622372 0.14253136 0.023067423)
(0.57316251 0.14017202 0.022867769)
(0.63235379 0.13633549 0.022669243)
(0.69359025 0.13103142 0.022430123)
(0.75680877 0.1242399 0.022192325)
(0.82183699 0.11601785 0.021919594)
(0.88857281 0.10632501 0.021636843)
(0.95687932 0.095242766 0.021333708)
(1.0266034 0.08273295 0.021014773)
(1.0976692 0.068969111 0.020704013)
(1.1698938 0.053868539 0.020394116)
(1.2432115 0.037546098 0.020075654)
(1.3174919 0.020046245 0.019781528)
(1.3925855 0.0014397429 0.019505595)
(1.4684397 -0.018201262 0.019249332)
(1.54493 -0.038817151 0.019027449)
(1.6219703 -0.060330066 0.01883132)
(1.6994785 -0.082666767 0.018672072)
(1.7773959 -0.10576188 0.018546174)
(1.855603 -0.12957478 0.018469345)
(1.9341376 -0.15391272 0.018391657)
(2.0127772 -0.17897091 0.018416362)
(2.091694 -0.20430452 0.018392709)
(2.1705968 -0.23031179 0.018511093)
(2.2497035 -0.25646865 0.018544162)
(2.3287395 -0.28310033 0.018729396)
(2.4078389 -0.31002319 0.018877149)
(2.4869271 -0.33696116 0.01906472)
(2.5658938 -0.36446259 0.01937276)
(2.6448957 -0.39172757 0.01961732)
(2.7237143 -0.41922503 0.020067958)
(-9.1667077e-05 -0.015551301 -0.020363276)
(0.005188335 -0.025349984 -0.021607513)
(0.010750771 -0.037446426 -0.026637832)
(0.021024427 -0.049730302 -0.025923125)
(0.035310931 -0.063242672 -0.026546951)
(0.052294711 -0.077001629 -0.025662077)
(0.072843117 -0.091068137 -0.025186097)
(0.096031051 -0.10564659 -0.024330041)
(0.12230213 -0.12048125 -0.023579082)
(0.15148186 -0.1360532 -0.022696878)
(0.18316099 -0.15174222 -0.021934364)
(0.21779356 -0.16831225 -0.021078362)
(0.25475977 -0.18522391 -0.020281902)
(0.29447116 -0.20279231 -0.019378391)
(0.33652586 -0.22103817 -0.018543904)
(0.38106781 -0.23982348 -0.017628768)
(0.42795102 -0.25940286 -0.016721348)
(0.47703909 -0.2794809 -0.015783673)
(0.52837876 -0.30038772 -0.014811364)
(0.58177797 -0.32182064 -0.013840549)
(0.63717182 -0.34402642 -0.012813836)
(0.69458304 -0.36676088 -0.011809717)
(0.75375354 -0.39021868 -0.010709684)
(0.81476112 -0.41424097 -0.0096460401)
(0.87736262 -0.43876408 -0.0085670807)
(0.9415979 -0.46384271 -0.0074608813)
(1.0072165 -0.48932893 -0.0063322777)
(1.0743551 -0.51541093 -0.0051788151)
(1.1427874 -0.541818 -0.0040674798)
(1.2124131 -0.5685884 -0.0029037173)
(1.2831728 -0.59570904 -0.0017678174)
(1.3549375 -0.62310269 -0.00061295115)
(1.4276567 -0.6507388 0.00051720008)
(1.5012162 -0.67858313 0.0016449051)
(1.5755553 -0.70658044 0.0027451508)
(1.650578 -0.73472946 0.0038311435)
(1.7262327 -0.76294114 0.0048793765)
(1.8024227 -0.79122993 0.0059209728)
(1.8790942 -0.8195771 0.0069147886)
(1.9562047 -0.8478974 0.0078852647)
(2.0336527 -0.87623683 0.0088287009)
(2.111424 -0.90454984 0.0097382495)
(2.1894485 -0.93277623 0.010611432)
(2.26769 -0.96098229 0.01146663)
(2.3460753 -0.98906686 0.012277059)
(2.4246435 -1.017086 0.013046023)
(2.5032323 -1.045076 0.013823107)
(0 0 0)
(0 0 0)
(0 0 0)
(0 0 0)
(0 0 0)
(0 0 0)
(0 0 0)
(0.0056213954 -0.010189911 0.015624083)
(0.0072895801 -0.031198294 0.022471515)
(0.011938993 -0.034787523 0.023756947)
(0.023253308 -0.052986791 0.024926141)
(0.03720282 -0.064545107 0.025249685)
(0.054497649 -0.078710976 0.024192438)
(0.075230133 -0.093882656 0.024318352)
(0.09852982 -0.10762045 0.023170417)
(0.12492731 -0.12390413 0.023232829)
(0.15393665 -0.13853148 0.022200968)
(0.18564043 -0.15571926 0.02258693)
(0.22022902 -0.17133494 0.021678315)
(0.25742257 -0.18898477 0.021448164)
(0.29719858 -0.20663924 0.020968194)
(0.33936637 -0.22484302 0.020537173)
(0.38394783 -0.24404304 0.020156473)
(0.43089222 -0.26349642 0.019694763)
(0.48001726 -0.28390676 0.019278953)
(0.53137424 -0.30482449 0.018819844)
(0.58479347 -0.3264711 0.018350468)
(0.64023791 -0.3487484 0.017880406)
(0.69759838 -0.37167587 0.017399394)
(0.75682298 -0.3952111 0.016904632)
(0.81777632 -0.41929978 0.016413326)
(0.88043318 -0.44409655 0.015868342)
(0.94481872 -0.46934957 0.015252266)
(1.0102949 -0.49514489 0.014908697)
(1.0773397 -0.52124414 0.014449923)
(1.1456327 -0.54781869 0.014086655)
(1.2151721 -0.5747211 0.013714596)
(1.2858126 -0.60193203 0.013378219)
(1.3574788 -0.62942508 0.013097958)
(1.430081 -0.65714324 0.012856012)
(1.5035483 -0.68504184 0.012659557)
(1.5777855 -0.71309136 0.012505031)
(1.6527057 -0.74130207 0.012420212)
(1.7283151 -0.76950428 0.012333437)
(1.8043693 -0.79786648 0.012352722)
(1.8809963 -0.82618971 0.012362119)
(1.95803 -0.85455798 0.012443366)
(2.0354247 -0.88288511 0.012545214)
(2.1131581 -0.91120002 0.012693714)
(2.1911321 -0.9394392 0.012873851)
(2.2693516 -0.96762846 0.01308826)
(2.3477202 -0.99571348 0.013331883)
(2.4262634 -1.0237265 0.013625231)
(2.5047878 -1.0516987 0.013905115)
(2.6118147 -1.0009157 0.014579961)
(2.6390549 -0.92248364 0.015237111)
(2.6663767 -0.84437793 0.016037691)
(2.6936123 -0.76647794 0.016840631)
(2.7209672 -0.68863661 0.01774605)
(2.7485216 -0.6107439 0.018468296)
(2.7764105 -0.53283051 0.019210308)
(2.7253916 -0.4260347 0.018614672)
(2.6463538 -0.39849998 0.017920111)
(2.5674377 -0.3710731 0.017130787)
(2.4884324 -0.34375084 0.016354101)
(2.4093744 -0.31663538 0.015505507)
(2.330305 -0.2897338 0.014629586)
(2.2512461 -0.26312238 0.013734844)
(2.1722219 -0.23681974 0.012801855)
(2.0932791 -0.21089851 0.011835079)
(2.0144702 -0.18537621 0.010847693)
(1.9357642 -0.16036074 0.0098360125)
(1.8574012 -0.13600718 0.0088240753)
(1.7791584 -0.11204563 0.0077265371)
(1.7013213 -0.0888987 0.0066565639)
(1.6238658 -0.066448259 0.0055384873)
(1.5468899 -0.044841122 0.0044268724)
(1.4704614 -0.024105717 0.0033010728)
(1.3946831 -0.0043501961 0.0021644778)
(1.3196393 0.014387481 0.0010363209)
(1.24544 0.031998185 -9.1838639e-05)
(1.1721917 0.048471543 -0.0012212086)
(1.1000052 0.063679031 -0.0023267963)
(1.0290051 0.077635564 -0.0034307909)
(0.95928365 0.090241662 -0.0045235263)
(0.89101155 0.10148091 -0.0056096417)
(0.82428272 0.11130412 -0.0066667566)
(0.75924167 0.11970247 -0.0077307639)
(0.69600914 0.12663168 -0.0087548002)
(0.63472996 0.132105 -0.0097851357)
(0.57550414 0.13609898 -0.010784522)
(0.51850289 0.13863655 -0.011782808)
(0.46377833 0.13974398 -0.012774429)
(0.41154164 0.13941625 -0.013742109)
(0.3619345 0.13747908 -0.014582764)
(0.31507918 0.13428755 -0.015620412)
(0.27081799 0.12986415 -0.016372757)
(0.22976168 0.12399866 -0.017369432)
(0.19147972 0.11689931 -0.018138665)
(0.15655679 0.10878097 -0.019197752)
(0.12498227 0.099113229 -0.019788367)
(0.096897489 0.088916574 -0.020637399)
(0.071987299 0.077384427 -0.021238633)
(0.051306259 0.065433552 -0.021864294)
(0.033950202 0.052430352 -0.021774092)
(0.021273628 0.040040913 -0.021215131)
(0.01171028 0.025771413 -0.019241132)
(0.012116093 0.01467149 -0.012271736)
(0 0 0)
(0 0 0)
(0 0 0)
(0 0 0)
(0 0 0)
(0 0 0)
(0 0 0)
(0 0 0)
(0 0 0)
(0 0 0)
(0 0 0)
(0 0 0)
(0 0 0)
(0 0 0)
(2.5823773 -1.0742455 0.014533552)
(2.5825736 -1.0751961 0.014464894)
(2.5827745 -1.0760741 0.014405045)
(2.5829735 -1.0769362 0.014377285)
(2.5831783 -1.0777551 0.014341537)
(2.5833923 -1.0785018 0.014311572)
(2.5835942 -1.0792785 0.014178841)
(2.8034729 -0.44800713 0.020063509)
(2.8037188 -0.44884707 0.020026472)
(2.8039601 -0.44965886 0.019925467)
(2.8041832 -0.45049439 0.019831524)
(2.8043663 -0.45133366 0.019740722)
(2.8044944 -0.45220767 0.019657523)
(2.8046845 -0.45305398 0.019630945)
(0.00018863178 0.0081485476 0.015100852)
(0.0029617851 0.014358099 0.015092929)
(0.0089852473 0.021737432 0.017630372)
(0.019651098 0.0288834 0.018389829)
(0.033739236 0.035849219 0.018725572)
(0.052427168 0.0430337 0.01905236)
(0.074205787 0.049512517 0.018947284)
(0.10011089 0.05595683 0.019211986)
(0.12942738 0.061501953 0.01895244)
(0.16237319 0.066665463 0.019133016)
(0.19868765 0.070999138 0.019033244)
(0.23836928 0.074560241 0.018970091)
(0.28139655 0.077366088 0.018953417)
(0.32753225 0.07913372 0.01886202)
(0.37677973 0.079938059 0.018824498)
(0.42897743 0.079668592 0.018729023)
(0.48404427 0.078259665 0.018637149)
(0.54174469 0.075633139 0.018540588)
(0.60206385 0.071764142 0.018403776)
(0.66475311 0.066572769 0.018257946)
(0.72970581 0.060043745 0.018100092)
(0.79670573 0.052138 0.017913215)
(0.86562448 0.042840275 0.017730639)
(0.93620688 0.032148806 0.017530107)
(1.0083707 0.02007221 0.017349279)
(1.0818488 0.0065929151 0.017123555)
(1.1564743 -0.0082089068 0.016941263)
(1.2321063 -0.02431032 0.016769454)
(1.3085329 -0.041705219 0.016616885)
(1.3855955 -0.060270571 0.016486979)
(1.4631673 -0.079991823 0.016392822)
(1.5410799 -0.10080157 0.016326018)
(1.6192212 -0.12261038 0.016296612)
(1.6974787 -0.14537707 0.016301646)
(1.7757542 -0.16901515 0.016341612)
(1.8539403 -0.19344221 0.01641534)
(1.9320305 -0.21861412 0.01651027)
(2.0098637 -0.24447005 0.016674736)
(2.0875406 -0.27086984 0.016818061)
(2.1648885 -0.2978807 0.017050575)
(2.2420144 -0.3252445 0.017241396)
(2.3187951 -0.35317934 0.017545619)
(2.3953874 -0.38128562 0.017760531)
(2.4716113 -0.40979924 0.018117261)
(2.5476712 -0.43860145 0.018408213)
(2.6234598 -0.46735444 0.018724359)
(2.6990457 -0.49666342 0.019012762)
(-0.005002412 0.0031654822 0.010430789)
(-0.0035073024 0.0040442426 0.010039687)
(0.0020895474 0.0084532162 0.012251008)
(0.011335984 0.010776393 0.012335277)
(0.024803718 0.014300656 0.012965287)
(0.041647697 0.017410665 0.012858788)
(0.062348166 0.020429976 0.01338303)
(0.08701164 0.023236787 0.013073164)
(0.11501266 0.025541961 0.013532987)
(0.14676585 0.027662827 0.013490414)
(0.18200131 0.029057211 0.013594232)
(0.22070979 0.030111604 0.013696425)
(0.26279574 0.030372985 0.013795864)
(0.30823239 0.029935436 0.013875697)
(0.35688888 0.028686619 0.013949984)
(0.40862961 0.02659757 0.013938111)
(0.4633093 0.023544975 0.013966901)
(0.52085202 0.019448071 0.013960877)
(0.58109943 0.014221572 0.013940281)
(0.64389495 0.0078053347 0.013921521)
(0.70905054 0.00013944091 0.013874646)
(0.77640569 -0.0087927059 0.013821292)
(0.84567909 -0.019038781 0.01377446)
(0.91680881 -0.030582726 0.013724262)
(0.98946548 -0.043500588 0.013654815)
(1.0634946 -0.0576743 0.013656337)
(1.1386883 -0.073195404 0.013644819)
(1.2148537 -0.089987472 0.013639041)
(1.2917695 -0.10797689 0.013689712)
(1.369294 -0.1271715 0.013742922)
(1.4472321 -0.14748988 0.013828531)
(1.5254207 -0.16888069 0.013953486)
(1.6037346 -0.19127608 0.014094613)
(1.6820391 -0.21462278 0.014273791)
(1.7602216 -0.23882628 0.014471959)
(1.8381974 -0.26387004 0.014706301)
(1.9159207 -0.28961574 0.014944247)
(1.9932222 -0.31609891 0.015248041)
(2.0703035 -0.34308711 0.015488327)
(2.1467877 -0.37076478 0.015853733)
(2.2231011 -0.39878395 0.016117025)
(2.298805 -0.42734311 0.016501741)
(2.3743162 -0.45617396 0.016810137)
(2.4493113 -0.48536817 0.017206422)
(2.52411 -0.51480887 0.017551779)
(2.5985545 -0.54440772 0.017891495)
(2.6729041 -0.57432305 0.018213798)
(-0.0081616159 0.0010627477 0.0063449796)
(-0.0055942956 0.001486534 0.0059351864)
(-0.00016263852 0.0029454013 0.0066311254)
(0.010351524 0.0042568118 0.0067241839)
(0.023742001 0.005337007 0.0068171574)
(0.041705998 0.0065177842 0.0071095165)
(0.062897442 0.0068339753 0.0068058462)
(0.087717637 0.0072357868 0.0072930307)
(0.11594096 0.0068257954 0.0073566621)
(0.14773559 0.006082667 0.0074608142)
(0.18263885 0.0047822553 0.0077484398)
(0.22089616 0.0027450715 0.007918132)
(0.26231876 9.9958166e-05 0.0081014312)
(0.30683038 -0.0033839613 0.0083298412)
(0.35441143 -0.0076160645 0.0085757173)
(0.40488284 -0.012801482 0.008713471)
(0.45819163 -0.018943309 0.0089125712)
(0.514165 -0.026120781 0.009033638)
(0.57271445 -0.034396732 0.009213449)
(0.63361978 -0.043762643 0.0093550594)
(0.6967869 -0.0542827 0.0095231384)
(0.76198679 -0.06597851 0.0096859353)
(0.82922309 -0.078844259 0.0098489582)
(0.89813809 -0.092951439 0.0099841228)
(0.96865366 -0.10818806 0.010191616)
(1.0405828 -0.12462263 0.01033515)
(1.1137839 -0.14220572 0.010484982)
(1.1880092 -0.16087022 0.010690293)
(1.2631513 -0.1806017 0.010887176)
(1.3390145 -0.201353 0.011098277)
(1.4154559 -0.22303713 0.011353376)
(1.4923447 -0.24564244 0.011614386)
(1.5695501 -0.26907626 0.01190396)
(1.6469536 -0.29328924 0.012213406)
(1.724459 -0.31824008 0.012548937)
(1.801991 -0.34381937 0.012888112)
(1.8794286 -0.37004141 0.013268848)
(1.9568204 -0.39674544 0.013630784)
(2.0339988 -0.42399038 0.014025994)
(2.1109797 -0.4516415 0.01446525)
(2.1878159 -0.47959038 0.014827855)
(2.2642762 -0.50802132 0.015357074)
(2.3407196 -0.53653233 0.01569216)
(2.4167357 -0.56544017 0.016243277)
(2.492769 -0.59447596 0.016595697)
(2.5684853 -0.62359851 0.017066848)
(2.6441266 -0.6529254 0.01747977)
(-0.0075487653 0.00079449573 0.00094640825)
(-0.0034829713 0.0012721126 -0.00065412057)
(0.0036501353 0.0029139421 -0.00021658681)
(0.01525912 0.0035313108 -0.00028704241)
(0.031050712 0.0037115868 6.7252216e-05)
(0.050186363 0.0038654455 -0.00010466559)
(0.072754965 0.0025338487 0.00063199066)
(0.098669277 0.001291351 0.00066980667)
(0.12782568 -0.0013990136 0.0010607415)
(0.16000334 -0.0044252671 0.0015246477)
(0.19518798 -0.0087432954 0.0018135075)
(0.23340171 -0.01377224 0.0021079496)
(0.27427161 -0.019795769 0.0023876922)
(0.31793818 -0.026948719 0.0027651828)
(0.36413403 -0.034933171 0.0030099271)
(0.41294683 -0.044117199 0.0033545233)
(0.46403871 -0.054258414 0.0036470098)
(0.51750886 -0.065581471 0.0039935593)
(0.57308346 -0.077965837 0.0043389041)
(0.63080635 -0.091455788 0.0046718413)
(0.6904995 -0.10606772 0.00500574)
(0.75219635 -0.12171659 0.005326414)
(0.81548387 -0.13843563 0.0056521205)
(0.88048151 -0.15613024 0.006032313)
(0.94703005 -0.17481505 0.0063450497)
(1.0150361 -0.1944274 0.0066966333)
(1.0843326 -0.21492612 0.0071123177)
(1.1548542 -0.23627472 0.0075188947)
(1.2265019 -0.25840652 0.0079210908)
(1.2991514 -0.28128239 0.0083753053)
(1.3727336 -0.30482354 0.0088091463)
(1.4471329 -0.32901255 0.0092781101)
(1.5222637 -0.35373892 0.0097402274)
(1.5980523 -0.37900469 0.010231566)
(1.6744082 -0.40469277 0.010707709)
(1.751242 -0.43082176 0.011224623)
(1.8285488 -0.45725188 0.011706647)
(1.9061573 -0.48402939 0.012232305)
(1.9840855 -0.51104965 0.012760238)
(2.0622788 -0.53824987 0.013246679)
(2.1407142 -0.56570737 0.013780911)
(2.219251 -0.5932573 0.014291602)
(2.2980448 -0.62089915 0.014768844)
(2.376757 -0.64871473 0.015344723)
(2.4557233 -0.6764782 0.01578656)
(2.5345211 -0.70432295 0.01637425)
(2.6134862 -0.7322251 0.01683661)
(-0.0069944688 0.00013953667 -0.0041336727)
(-0.00055346327 0.0018815992 -0.0057064711)
(0.0075513529 0.0024804464 -0.0059446095)
(0.021705975 0.0025303013 -0.006344373)
(0.038731994 0.0017078376 -0.0064780612)
(0.059760003 0.00021193654 -0.0061223102)
(0.083699198 -0.002628277 -0.0059725213)
(0.11108874 -0.0059864588 -0.0058145097)
(0.14101806 -0.010962587 -0.0052755063)
(0.17400863 -0.016650314 -0.0050287184)
(0.20945995 -0.023811542 -0.0047109575)
(0.2474406 -0.031742469 -0.0042256795)
(0.28774023 -0.041285619 -0.0037200782)
(0.33039284 -0.051704306 -0.0032392209)
(0.37517594 -0.063522858 -0.0027151078)
(0.42204925 -0.076451675 -0.0021481401)
(0.47094893 -0.090566197 -0.0016491043)
(0.52173743 -0.10581551 -0.001089712)
(0.57441126 -0.12215256 -0.00055856926)
(0.62883657 -0.13957709 -1.7658799e-06)
(0.68505549 -0.15796843 0.00054866139)
(0.74276478 -0.17737103 0.0011704766)
(0.80218668 -0.197626 0.0017572963)
(0.86315616 -0.21882713 0.0023267969)
(0.92571404 -0.24079827 0.0029155528)
(0.98969684 -0.26349781 0.0035315113)
(1.0551514 -0.28689997 0.0041299409)
(1.1219937 -0.31089429 0.0046964654)
(1.1901751 -0.33542986 0.005296034)
(1.2596473 -0.36043383 0.0058775959)
(1.3303773 -0.38585959 0.0064698801)
(1.4022926 -0.41164739 0.0070687481)
(1.4753645 -0.43773468 0.0076683992)
(1.549527 -0.46406011 0.0082650004)
(1.6247046 -0.49060298 0.0088812179)
(1.7008901 -0.51726452 0.0094730096)
(1.7779487 -0.5440474 0.010081938)
(1.8558675 -0.57092742 0.010705846)
(1.9345533 -0.59776986 0.011251048)
(2.014014 -0.62467282 0.011883846)
(2.0940014 -0.65153075 0.012474796)
(2.1745908 -0.67834282 0.013086027)
(2.2556249 -0.70512027 0.01367971)
(2.3370192 -0.73184522 0.014316613)
(2.4188153 -0.75844899 0.014868323)
(2.5007506 -0.78505129 0.015528019)
(2.5829244 -0.81152804 0.016111022)
(-0.0051543928 -0.0022548721 -0.010086678)
(0.0028910476 -0.0028939003 -0.011664125)
(0.011542807 -0.0044861682 -0.013204564)
(0.025996018 -0.0068216652 -0.013643517)
(0.043634576 -0.010164765 -0.013459697)
(0.064783307 -0.014263424 -0.013228467)
(0.089129209 -0.019799984 -0.012886703)
(0.11640456 -0.025972311 -0.012315458)
(0.14635542 -0.033738523 -0.011822402)
(0.1789911 -0.04220109 -0.011250567)
(0.21397955 -0.052242435 -0.010652496)
(0.25128226 -0.063265969 -0.010036019)
(0.2907796 -0.075667629 -0.0094839516)
(0.33236571 -0.08912759 -0.0088214884)
(0.37590223 -0.10386421 -0.0081844213)
(0.4214027 -0.11969966 -0.007504888)
(0.46868914 -0.13671921 -0.0068637119)
(0.51780236 -0.15475732 -0.0061432754)
(0.56857583 -0.17392474 -0.0054543724)
(0.62104957 -0.19399749 -0.0047206267)
(0.67508068 -0.21511048 -0.0040009576)
(0.73090702 -0.23691163 -0.0032099614)
(0.78807215 -0.25965095 -0.0025402583)
(0.84682667 -0.28326532 -0.0017231206)
(0.90712491 -0.30739456 -0.00097959701)
(0.96889414 -0.33215518 -0.00022886303)
(1.0322434 -0.35739862 0.0005388027)
(1.0970287 -0.38310376 0.0013329348)
(1.1632844 -0.40916562 0.0021018557)
(1.2309834 -0.43559871 0.0028922201)
(1.3000828 -0.46227626 0.0036727527)
(1.3705689 -0.4891701 0.0044678883)
(1.4424032 -0.51620194 0.0052417881)
(1.5155244 -0.54336574 0.0060361709)
(1.5899223 -0.57052436 0.0067931787)
(1.6654958 -0.59774459 0.0075745104)
(1.7422228 -0.62490131 0.0083283226)
(1.8200025 -0.65198025 0.0090727416)
(1.8987943 -0.67902796 0.0098267334)
(1.978467 -0.70591064 0.010551879)
(2.0589971 -0.73263707 0.011265752)
(2.1402676 -0.75925126 0.011966895)
(2.222122 -0.78574545 0.012680645)
(2.3045773 -0.8120467 0.013351097)
(2.3874288 -0.83821165 0.014039183)
(2.4706242 -0.86426232 0.014757979)
(2.5541051 -0.89009891 0.015464473)
(-0.0029719349 -0.0091229551 -0.014317737)
(0.0038379598 -0.012274701 -0.016675956)
(0.011161384 -0.018627702 -0.019216239)
(0.024777021 -0.024900439 -0.019603276)
(0.040712402 -0.032414364 -0.019624307)
(0.060915804 -0.040861206 -0.01929776)
(0.083681026 -0.050225961 -0.018815142)
(0.10962495 -0.06024198 -0.018198793)
(0.13819352 -0.071470396 -0.017635356)
(0.16942349 -0.083112577 -0.016896252)
(0.20324279 -0.096331196 -0.016217586)
(0.23926692 -0.10983032 -0.015592813)
(0.27778124 -0.12485518 -0.014751298)
(0.31830821 -0.140492 -0.01404414)
(0.36112542 -0.15727356 -0.013241128)
(0.40587074 -0.17491762 -0.012469143)
(0.45269687 -0.19354838 -0.011638172)
(0.50136879 -0.21307768 -0.010818231)
(0.55192173 -0.23350112 -0.0099627015)
(0.60425668 -0.25477019 -0.0091053623)
(0.65837281 -0.27682423 -0.0082311609)
(0.71409201 -0.29966419 -0.0073200732)
(0.77164117 -0.32320857 -0.0064354234)
(0.83066167 -0.34745836 -0.0054999332)
(0.89130784 -0.37222956 -0.0046235446)
(0.95346383 -0.39756701 -0.0036760272)
(1.0171637 -0.42338235 -0.0027142558)
(1.0823477 -0.44962212 -0.0017831026)
(1.1489616 -0.4762396 -0.00084601592)
(1.2169455 -0.50319732 0.00011171796)
(1.2862637 -0.53038444 0.0010537387)
(1.3568787 -0.55780186 0.0020049573)
(1.4287189 -0.58536631 0.0029460335)
(1.5017521 -0.61303465 0.003878452)
(1.5759053 -0.64076146 0.0047996045)
(1.6511253 -0.66852016 0.0057135)
(1.7273385 -0.69623054 0.0065955575)
(1.8045031 -0.72393924 0.0074932469)
(1.8825001 -0.75152246 0.0083263164)
(1.9612854 -0.77903427 0.0091804318)
(2.0407851 -0.80639382 0.0099947047)
(2.120908 -0.83366661 0.010816177)
(2.2015503 -0.86077443 0.011601695)
(2.2826872 -0.88772067 0.012359611)
(2.3641196 -0.91455261 0.013146123)
(2.4459158 -0.94120711 0.013872362)
(2.5278758 -0.96766514 0.014658138)
(0 0 0)
(0 0 0)
(0 0 0)
(0 0 0)
(0 0 0)
(0 0 0)
(0 0 0)
(0 0 0)
(0 0 0)
(0 0 0)
(0 0 0)
(0 0 0)
(0 0 0)
(0 0 0)
(0 0 0)
(0 0 0)
(0 0 0)
(0 0 0)
(0 0 0)
(0 0 0)
(0 0 0)
(0 0 0)
(0 0 0)
(0 0 0)
(0 0 0)
(0 0 0)
(0 0 0)
(0 0 0)
(0 0 0)
(0 0 0)
(0 0 0)
(0 0 0)
(0 0 0)
(0 0 0)
(0 0 0)
(0 0 0)
(0 0 0)
(0 0 0)
(0 0 0)
(0 0 0)
(0 0 0)
(0 0 0)
(0 0 0)
(0 0 0)
(0 0 0)
(0 0 0)
(0 0 0)
(0 0 0)
(0 0 0)
(0.006055076 -0.004447109 -0.010790903)
(0.0077175918 -0.0058892703 -0.0075625364)
(0.0094664832 -0.0062609679 -0.0040009984)
(0.010168456 -0.0065963106 -0.0010974326)
(0.0098797919 -0.0061465069 0.0018537259)
(0.009275194 -0.0064742708 0.0050557189)
(0.0075131356 -0.0040437443 0.0083879677)
(0.011407922 -0.024100745 -0.018027493)
(0.014983955 -0.027108045 -0.010264269)
(0.016652247 -0.025504886 -0.0049394237)
(0.017077862 -0.024828854 -0.00047019556)
(0.017235717 -0.026268714 0.0039251142)
(0.015282444 -0.025865146 0.0091402835)
(0.013198184 -0.025544102 0.015743798)
(0.01651316 -0.034408221 -0.019528597)
(0.021262975 -0.032975455 -0.013969191)
(0.024249431 -0.034691673 -0.0065485359)
(0.024711365 -0.034682445 -0.0011581394)
(0.024529485 -0.033861023 0.0055047211)
(0.022188795 -0.034125985 0.010347928)
(0.018963785 -0.035640894 0.018909225)
(0.027954555 -0.050648005 -0.019695645)
(0.031817541 -0.051858906 -0.013923905)
(0.034417713 -0.051411887 -0.0067158691)
(0.035415822 -0.051484166 -0.0011024271)
(0.034986442 -0.051637889 0.0053834521)
(0.032746036 -0.0525501 0.012297087)
(0.028741497 -0.051365257 0.018389298)
(0.041191157 -0.06429277 -0.02035678)
(0.045837203 -0.064362917 -0.014378095)
(0.049118693 -0.065221159 -0.0073650274)
(0.049917981 -0.065109583 -0.00077943383)
(0.049600663 -0.065482709 0.0059003471)
(0.047298687 -0.06527662 0.011996076)
(0.043647098 -0.065704272 0.019465127)
(0.058500096 -0.078705846 -0.019540633)
(0.062504257 -0.07917085 -0.013841406)
(0.065300285 -0.079230626 -0.0068881385)
(0.066275157 -0.079901986 -0.0010948527)
(0.065787138 -0.079605694 0.0059144569)
(0.063512169 -0.079877708 0.01233716)
(0.059673199 -0.079274314 0.018486276)
(0.078548728 -0.092843452 -0.019305178)
(0.082703826 -0.093636907 -0.013275433)
(0.085629344 -0.094831432 -0.0068948928)
(0.086618922 -0.095066745 -0.00082811015)
(0.086327114 -0.095539415 0.0059134156)
(0.084195934 -0.095897347 0.011801571)
(0.080692359 -0.095328654 0.018623758)
(0.10166464 -0.10770522 -0.018494913)
(0.10570746 -0.10891621 -0.013054482)
(0.10841497 -0.10937446 -0.0064327368)
(0.10941894 -0.1098412 -0.00053170359)
(0.10886921 -0.10972504 0.0056488475)
(0.10697967 -0.10940002 0.011927033)
(0.10328765 -0.10871586 0.017728453)
(0.12786682 -0.122875 -0.018002784)
(0.131686 -0.12382365 -0.012147401)
(0.13434945 -0.12501688 -0.0062201518)
(0.13525489 -0.12554685 -0.00048237228)
(0.13498442 -0.12616506 0.0056897805)
(0.13307613 -0.12593604 0.011543192)
(0.12975445 -0.12555579 0.017803545)
(0.15659426 -0.13817577 -0.017206271)
(0.16041209 -0.13969717 -0.011873624)
(0.16294893 -0.14049911 -0.0059866887)
(0.16409383 -0.14140595 -1.2768056e-05)
(0.16354206 -0.14115566 0.0057690902)
(0.16180821 -0.14083298 0.011545686)
(0.1584805 -0.14006967 0.017157282)
(0.18839193 -0.1543572 -0.016516848)
(0.19195205 -0.15570158 -0.011232637)
(0.19453308 -0.15692269 -0.0052285778)
(0.19531726 -0.1572099 -5.4222786e-05)
(0.19511351 -0.15771804 0.0058573483)
(0.19329894 -0.15752709 0.011189173)
(0.19014427 -0.15704216 0.017291334)
(0.2226517 -0.17065622 -0.015972593)
(0.22627127 -0.17226186 -0.010478535)
(0.22848895 -0.17337454 -0.0052952928)
(0.22957661 -0.17433282 0.00031883214)
(0.22920576 -0.17446025 0.0059159895)
(0.2273952 -0.173892 0.011137021)
(0.22469732 -0.17343339 0.016862328)
(0.25971693 -0.18797317 -0.015134893)
(0.26292116 -0.18937661 -0.0099953201)
(0.26530452 -0.19077514 -0.004713713)
(0.2662484 -0.19117198 0.00057598126)
(0.26594305 -0.19142634 0.0059772316)
(0.26424412 -0.19137463 0.011037244)
(0.2615098 -0.1904814 0.016526473)
(0.29911338 -0.20540362 -0.01452856)
(0.30226908 -0.20704877 -0.0093974619)
(0.30469989 -0.20841648 -0.004451031)
(0.30543789 -0.20907033 0.00074984081)
(0.30529169 -0.20961996 0.0060068336)
(0.3036357 -0.20908109 0.010818489)
(0.30119804 -0.20849246 0.016311725)
(0.34101269 -0.22385628 -0.013795616)
(0.34416452 -0.22546872 -0.0087885406)
(0.34634593 -0.22674592 -0.0040657022)
(0.34721806 -0.22746643 0.0011308213)
(0.34706078 -0.22766696 0.0059721149)
(0.34555157 -0.227365 0.010870437)
(0.34314189 -0.22662123 0.015997133)
(0.38542539 -0.24266362 -0.013041149)
(0.38835115 -0.24425722 -0.0082474936)
(0.39055685 -0.2457406 -0.0036309891)
(0.39136614 -0.24640951 0.0012176649)
(0.39123957 -0.24684814 0.006101877)
(0.38978368 -0.24651568 0.010664592)
(0.38754483 -0.245786 0.015740921)
(0.43201928 -0.26221352 -0.012311658)
(0.43493413 -0.26394582 -0.0076115832)
(0.43701226 -0.26533352 -0.0032789899)
(0.43782361 -0.26600201 0.0015811811)
(0.43773967 -0.2664075 0.0061212268)
(0.43640557 -0.26600954 0.010618181)
(0.4342711 -0.26533036 0.015482624)
(0.48100234 -0.28241963 -0.011489197)
(0.4837377 -0.28410973 -0.0070894294)
(0.48578464 -0.2855624 -0.002789496)
(0.48655509 -0.28630887 0.001771244)
(0.48649561 -0.28670646 0.0061782546)
(0.48522307 -0.28639146 0.010520154)
(0.48321778 -0.28566233 0.015190019)
(0.53208263 -0.30328192 -0.01073644)
(0.53472626 -0.30498586 -0.0064376418)
(0.5367013 -0.3064573 -0.0023652699)
(0.53742751 -0.30714226 0.0020447429)
(0.53742245 -0.30758661 0.0062672787)
(0.53623455 -0.3072405 0.010428847)
(0.53435714 -0.30661667 0.014896813)
(0.58529126 -0.32476817 -0.0098853657)
(0.58782856 -0.32649189 -0.0058217149)
(0.5897043 -0.3279553 -0.0019196707)
(0.59041647 -0.32873834 0.0023056212)
(0.59044348 -0.32915895 0.006319378)
(0.58931519 -0.32890409 0.010327163)
(0.5875901 -0.32821728 0.014593204)
(0.64052302 -0.34693778 -0.0090711857)
(0.64291859 -0.34864537 -0.0051882432)
(0.64472079 -0.35013932 -0.0014477892)
(0.64542622 -0.35086476 0.0025682886)
(0.64546425 -0.35133728 0.0064041639)
(0.64444651 -0.35105044 0.010222515)
(0.64283074 -0.35044671 0.014287487)
(0.69767553 -0.36969908 -0.0082093215)
(0.69995919 -0.37142216 -0.0045210819)
(0.7016912 -0.37287572 -0.00097267615)
(0.70234975 -0.37367608 0.0028310767)
(0.70243885 -0.37412292 0.0064840958)
(0.70146595 -0.3739185 0.010113528)
(0.69999654 -0.3733258 0.013981416)
(0.75667275 -0.393105 -0.0073208991)
(0.7588513 -0.39478588 -0.0038400978)
(0.7604754 -0.39625694 -0.00049839287)
(0.7611442 -0.39703494 0.0031083407)
(0.76121493 -0.39754946 0.0065708776)
(0.76035828 -0.39736555 0.0099874897)
(0.75901671 -0.3968104 0.013664698)
(0.817464 -0.41703548 -0.0064063676)
(0.81950199 -0.41877212 -0.0031583098)
(0.82105672 -0.42016062 -1.0759123e-05)
(0.8216672 -0.42102658 0.0033975448)
(0.82181471 -0.42148231 0.0066317338)
(0.82103057 -0.42132516 0.0098843539)
(0.81979152 -0.42081714 0.013354322)
(0.87986276 -0.44154185 -0.0055504153)
(0.88186954 -0.44325555 -0.0024476669)
(0.88326628 -0.44457733 0.00047326715)
(0.88394158 -0.44550725 0.0037150483)
(0.88401994 -0.44593287 0.0067157264)
(0.88329737 -0.44595296 0.0097932663)
(0.88217914 -0.44552449 0.012975358)
(0.94386719 -0.46655789 -0.0046216332)
(0.94579211 -0.46822531 -0.0017578249)
(0.94705141 -0.46958053 0.00098676227)
(0.94771621 -0.47047407 0.0040973669)
(0.94775936 -0.47088817 0.0067337333)
(0.94725697 -0.47098985 0.0096378098)
(0.94628104 -0.47057566 0.012518585)
(1.0093677 -0.49204506 -0.0037011919)
(1.011177 -0.49369742 -0.0011224337)
(1.0123634 -0.49503411 0.0016148208)
(1.0130713 -0.49598235 0.0042041316)
(1.0131945 -0.49645823 0.0069546068)
(1.012681 -0.49657792 0.0096397819)
(1.0117036 -0.4961849 0.012366892)
(1.0763701 -0.51799726 -0.0027685754)
(1.0779405 -0.51958643 -0.00032645289)
(1.0791591 -0.52096975 0.0021604823)
(1.0797224 -0.52180377 0.0045434288)
(1.0799044 -0.52234506 0.0071796953)
(1.0794462 -0.52242469 0.0095228688)
(1.0785773 -0.52225033 0.012137748)
(1.1445989 -0.54429312 -0.0018435986)
(1.1461102 -0.54592901 0.0004747915)
(1.1471533 -0.54721088 0.0026533169)
(1.1477796 -0.54810543 0.0049999006)
(1.1478745 -0.54867033 0.0072967249)
(1.147524 -0.5488578 0.0095222172)
(1.1467284 -0.54869823 0.011943009)
(1.21409 -0.57102178 -0.00083612366)
(1.2154208 -0.57254594 0.0012199789)
(1.2164548 -0.57386468 0.0032993642)
(1.2169883 -0.57473825 0.005363939)
(1.2171227 -0.57536327 0.0075152272)
(1.2168393 -0.57554886 0.0095403524)
(1.2161173 -0.57550026 0.011766297)
(1.2846564 -0.59801629 9.7549404e-05)
(1.2859148 -0.59955547 0.0020282)
(1.2868413 -0.60081743 0.0038598685)
(1.2873588 -0.60170997 0.0058001037)
(1.287503 -0.60232333 0.0077317037)