/*--------------------------------*- C++ -*----------------------------------*\
  =========                 |
  \\      /  F ield         | OpenFOAM: The Open Source CFD Toolbox
   \\    /   O peration     | Website:  https://openfoam.org
    \\  /    A nd           | Version:  6
     \\/     M anipulation  |
\*---------------------------------------------------------------------------*/
FoamFile
{
    version     2.0;
    format      ascii;
    class       pointScalarField;
    location    "1.32";
    object      E;
}
// * * * * * * * * * * * * * * * * * * * * * * * * * * * * * * * * * * * * * //

dimensions      [1 -1 -2 0 0 0 0];

internalField   nonuniform List<scalar> 
625
(
21710.964
17693.44
-539245.88
-246563.42
19531.439
21374.517
-378641.31
-812539.07
6612.7893
2082.6273
10870.418
-287119.18
-282095.57
-205966.85
30543.504
25290.474
23170.903
22340.054
17427.812
16345.921
13475.644
10541.673
9587.8101
7295.089
5916.7676
5037.1428
3896.5284
3580.8061
3474.8225
3410.274
4598.1115
4986.5767
6704.7493
7984.3475
9806.2109
11464.143
15200.804
25123.372
13037.063
21668.737
17033.839
13196.718
16713.02
9240.5969
10139.336
8548.8507
6277.4434
6473.2954
4662.1562
4534.5232
3904.5658
3820.9218
3796.8822
4203.0775
4674.9556
5834.1663
6155.3662
8879.5445
9010.0892
11737.288
5426.5658
2006.0497
10667.294
41280.428
46646.58
25175.817
31316.929
35476.864
17439.649
23275.162
16668.152
16256.241
14525.489
10815.293
10715.852
8115.3425
7244.7341
6211.0875
5265.0493
4854.4402
4583.4327
4277.9813
4647.351
4916.667
5670.3447
3953.7377
-566779.93
-624430.76
-598748.01
11203.8
8754.4086
8911.7385
7285.9088
5886.2515
4655.7281
3534.049
2882.0217
2448.2217
2531.8203
2261.5746
3554.9173
3672.9901
5941.9702
6230.1165
7334.0481
10499.702
12084.982
15767.489
15275.426
24171.567
20593.184
28249.987
18800.871
17652.755
16929.052
14169.408
14752.085
15544.722
-280505.69
-280273.06
-282153.28
-606501.56
-608428.69
-608144.17
13823.491
10582.243
10252.692
9569.7679
7255.1305
7488.5609
5587.8082
4878.4897
4494.5668
3282.6553
3251.3395
2628.3875
2459.1602
2760.3946
2751.3257
3612.1835
4183.1636
5155.0089
7188.2574
8231.8431
10294.612
13077.549
16198.663
3859.9908
2621.1322
3878.4519
2526.3838
3016.0633
3402.2522
1835.2464
3040.6355
1919.4
2391.5459
2202.2552
2420.545
2698.8358
3059.8142
3569.7152
4364.8019
5164.7211
6518.7457
7785.3937
8910.6828
12223.366
12364.975
19294.518
7643.68
5373.2498
5287.1092
3569.979
4390.2834
2083.3632
3175.2827
1911.4697
1913.5016
2167.695
1512.0091
2249.614
2258.5798
2888.0756
3464.1173
4633.7745
5470.3738
7258.5895
8335.0743
11228.5
11854.048
15612.697
18570.638
4321.2297
4051.3389
3394.5217
1155.9066
1019.7344
2160.7173
4941.5002
5743.9894
6311.1169
30456.153
33098.596
36629.468
33983.755
32903.326
35331.27
23405.934
20798.97
27305.328
22836.768
26591.009
25387.368
23621.123
19875.544
26484.564
18127.875
18540.069
20187.533
17674.16
16749.275
20742.771
15100.527
11801.895
17014.242
13508.214
12602.001
14218.364
13388.205
9168.9279
13829.789
10442.295
8671.3243
10904.622
10576.829
7032.9596
10147.716
8728.4574
6128.5064
8854.0378
8341.6783
5309.7964
7556.76
7653.893
4789.7565
7059.765
7187.7672
4506.9037
6357.719
7004.9692
4450.1661
5969.5933
6960.1444
4635.9919
5923.5318
7118.797
5108.4379
5910.4076
7228.0246
5461.7856
5933.6804
8000.9336
6654.7619
6750.0449
8772.7977
7852.1253
7197.1109
8109.6199
7526.1166
8315.1465
-391167.7
-390194.47
-390956
-348058.96
-385127.81
-385739.44
-404582.57
-372202.2
-372907.08
29522.222
26286.575
24080.459
27115.279
23898.331
23718.077
26610.322
22718.438
22293.705
21649.321
18551.816
17898.432
20056.911
17937.007
16712.145
17256.928
13361.675
13954.757
14555.666
12709.376
11736.338
12786.119
10235.718
10956.233
11462.417
7880.3536
8391.934
9131.1262
7242.9945
6845.8194
7946.5748
6092.9904
5935.2683
6947.1331
5097.6822
5229.753
5919.8212
4375.2101
4612.5578
5719.9161
4082.5176
4376.4962
5375.8475
3981.3047
4555.2057
5490.9316
4312.5696
4764.8792
6240.1424
4927.9026
5476.9412
6664.4737
5832.4438
6366.6825
8075.3017
7256.9488
7506.8676
9096.2627
8856.1025
8825.8345
10765.65
9751.3577
10240.935
9199.681
9976.9145
10470.819
13100.477
11752.86
11788.407
16548.159
15258.064
12260.087
12240.034
10225.749
8665.4474
9527.7392
6074.9959
6834.3184
6104.8664
5378.479
4888.6721
4650.3029
4602.2256
4679.2035
5030.5782
5468.418
6375.236
7165.8602
8555.7245
10306.188
12299.278
16485.642
2288.0897
8363.9265
693.46207
5646.0543
2696.1389
3269.1919
3454.5235
2231.5544
3345.5102
2225.8309
2767.8458
2905.4358
2955.6513
3759.6262
4313.6827
5165.0432
6448.3584
7726.1031
9368.317
11213.123
13681.796
13674.33
21364.395
14711.966
5249.6769
8315.0197
6321.9422
6307.0865
6478.5907
3938.0275
5674.5471
2342.314
3808.6532
2378.6612
2777.9022
2573.1083
3087.4858
3437.4114
4334.827
5391.8862
6746.5825
8409.3157
10662.895
12117.648
16098.49
16834.198
16309.973
14124.548
13242.392
15096.088
14404.946
12973.353
12856.133
11677.069
10324.119
12041.537
11178.808
10486.655
11040.527
10019.715
9396.4385
9988.3186
8663.7606
7074.5812
8815.9017
8028.3377
8201.7643
8237.9083
7422.5803
5814.5342
7019.5554
6212.7007
5777.2044
6479.0646
5800.3934
5183.2871
6479.8167
5445.1752
4870.6226
5477.4336
4960.4209
4562.3467
5677.5446
5057.8524
4473.0551
5526.0747
4900.6129
4501.8261
5554.0135
5069.6765
4780.2087
6122.9257
5613.1418
5177.5291
6325.0861
5995.2062
5770.8945
7324.8455
6992.904
6569.1613
8361.2855
7841.3368
7666.0026
8693.1227
8845.3569
8562.5222
10857.251
11348.091
10743.023
13368.241
13984.76
12741.511
17667.603
16235.408
16909.012
3416.378
3180.5367
2483.4906
6260.9754
8685.6158
8540.4592
3188.3938
990.98333
1676.1169
3888.4795
5567.2365
5627.7292
4259.8006
2505.1528
2717.7782
3612.0969
2548.5917
3055.2853
2955.3027
2521.7241
2889.5726
3925.9139
2063.1699
1610.1538
2854.4573
1338.083
2389.1709
3458.0952
2013.4714
1968.3723
3290.5643
1291.1013
1776.4315
3382.0767
1767.1965
2199.9096
3862.4918
2007.1949
2046.5459
4074.4849
2193.0468
2553.7246
4822.4664
2979.3281
3119.4967
5453.2065
3662.8358
3795.6769
6495.938
4733.5461
4702.1483
7719.1496
5901.8352
6027.5233
9035.6803
7696.2436
7324.8977
10550.826
8742.526
8952.8239
13968.295
10742.082
12310.137
12760.625
12348.993
11051.619
19860.32
18633.519
19451.022
9728.8298
11132.39
12945.177
5097.6802
5215.8006
8311.9866
5253.8701
9094.3401
10085.69
6150.5205
5387.6653
7583.8985
3675.7793
6020.0905
7509.9677
3354.8254
4731.9037
6919.0869
3837.7911
4085.5131
5402.5461
1729.0732
3302.7845
6155.4098
2376.484
3139.9734
4890.9621
1718.0696
2858.1882
4767.9153
1630.261
2339.8112
4345.7181
1975.3929
2671.6733
4368.5257
1892.9486
2566.5989
4373.6737
2608.8541
3145.4172
4657.6597
3050.0447
3525.1068
5183.8043
4069.844
4640.5784
5868.3345
5067.8335
5319.4941
6770.7319
6541.8334
7228.105
8263.1447
7885.6543
8034.6706
9218.4649
10138.981
11380.356
11987.768
10948.159
11591.46
12251.11
14474.89
16070.052
17051.671
16625.982
17262.617
16280.474
)
;

boundaryField
{
    free
    {
        type            zeroGradient;
    }
    fixed
    {
        type            zeroGradient;
    }
    traction
    {
        type            zeroGradient;
    }
}


// ************************************************************************* //
