/*--------------------------------*- C++ -*----------------------------------*\
  =========                 |
  \\      /  F ield         | OpenFOAM: The Open Source CFD Toolbox
   \\    /   O peration     | Website:  https://openfoam.org
    \\  /    A nd           | Version:  6
     \\/     M anipulation  |
\*---------------------------------------------------------------------------*/
FoamFile
{
    version     2.0;
    format      ascii;
    class       pointVectorField;
    location    "0.29";
    object      u;
}
// * * * * * * * * * * * * * * * * * * * * * * * * * * * * * * * * * * * * * //

dimensions      [0 1 0 0 0 0 0];

internalField   nonuniform List<vector> 
28033
(
(0 1.2875808e-19 0)
(0 8.7809641e-19 0)
(1.6895008 -0.077934519 0.0017302806)
(1.6080559 -0.47307899 0.00077346545)
(0 7.9699178e-19 0)
(0 1.2916076e-18 0)
(1.6087334 -0.47408587 0.00066846275)
(1.6900957 -0.079016089 0.001830504)
(0 2.811149e-19 0)
(0 8.1791947e-20 0)
(0 6.5609243e-19 0)
(0 -3.1161097e-19 0)
(0 4.1833004e-19 0)
(0 -2.4627483e-19 0)
(0 -5.8991899e-21 0)
(-1.9493289e-19 -6.3590412e-20 0)
(0 1.1857172e-19 0)
(0 5.8615251e-20 0)
(0 -2.2473356e-19 0)
(0 2.175079e-19 0)
(0 2.6090152e-19 0)
(0 -2.1054088e-19 0)
(0 2.6970207e-19 0)
(1.6843827 -0.10269264 0.001639989)
(1.6792442 -0.12742918 0.0015491771)
(1.6741065 -0.1521493 0.0014734077)
(1.6689743 -0.17683431 0.0014062026)
(1.6638573 -0.20150658 0.0013517495)
(1.6587512 -0.22616354 0.001303912)
(1.6536609 -0.25080581 0.0012637129)
(1.6485878 -0.27545157 0.001226035)
(1.6435235 -0.30009843 0.0011913856)
(1.6384694 -0.32475638 0.0011544237)
(1.6334198 -0.34943083 0.0011124138)
(1.6283674 -0.37412346 0.0010614604)
(1.6233134 -0.39883828 0.0010068236)
(1.618246 -0.42357707 0.00093652587)
(1.6131613 -0.4483326 0.00085755887)
(0.0035934386 0.0058154114 0.00645715)
(0.0042237891 0.00917972 0.0089976564)
(0.005381609 0.012663223 0.010833815)
(0.0072183615 0.016309949 0.012032333)
(0.0094462622 0.020011433 0.012776629)
(0.012389347 0.023810945 0.01328986)
(0.015876751 0.027647941 0.013585004)
(0.019970962 0.031432515 0.013740702)
(0.024628687 0.035266072 0.013812395)
(0.029869129 0.039003862 0.013814028)
(0.035631241 0.042725037 0.013766355)
(0.041961064 0.046361965 0.013671391)
(0.048800972 0.049945026 0.013592666)
(0.056209001 0.053430071 0.013449809)
(0.064090867 0.056829393 0.01333358)
(0.072530983 0.06012151 0.013159545)
(0.081456402 0.063322505 0.013021842)
(0.090910947 0.066381766 0.012840302)
(0.10084014 0.069342341 0.012658803)
(0.11127753 0.072152034 0.012454388)
(0.12217964 0.074844544 0.012263988)
(0.13355925 0.077374522 0.012031031)
(0.14538321 0.079772067 0.011824087)
(0.15766031 0.082019389 0.011590887)
(0.17034773 0.084102564 0.011359207)
(0.1834623 0.086053228 0.011127541)
(0.19695482 0.087828736 0.010904932)
(0.2108457 0.089478394 0.010679212)
(0.22509705 0.090955798 0.010458093)
(0.23970407 0.092301498 0.010255499)
(0.25466737 0.093504364 0.010052966)
(0.26995089 0.094559218 0.0098636048)
(0.28557617 0.095490513 0.0096898896)
(0.30151473 0.096269497 0.0095226639)
(0.31777523 0.096940992 0.0093628352)
(0.33435274 0.097466291 0.0092120043)
(0.3512266 0.097873614 0.0090769374)
(0.36841952 0.098151371 0.0089441916)
(0.38590384 0.098301049 0.0088066927)
(0.4036954 0.098330446 0.0086837206)
(0.42177602 0.098221691 0.0085551816)
(0.44015452 0.097999366 0.0084320815)
(0.45882229 0.097634906 0.0083008734)
(0.47777698 0.097145523 0.0081735137)
(0.49700659 0.096517928 0.0080396717)
(0.51651458 0.095758843 0.0079034569)
(0.53628354 0.094861404 0.0077636636)
(0.55631674 0.093828147 0.0076191685)
(0.57659557 0.092656656 0.0074718624)
(0.59712061 0.091348583 0.0073209207)
(0.61787485 0.089903828 0.0071678511)
(0.63885505 0.088324624 0.0070132247)
(0.66004707 0.086612893 0.0068584506)
(0.68144441 0.084771556 0.0067047546)
(0.70303595 0.082804283 0.0065535833)
(0.72481356 0.080714735 0.0064065362)
(0.74676854 0.07850735 0.0062650262)
(0.76889331 0.076186662 0.0061302145)
(0.79118079 0.073757159 0.0060032923)
(0.81362554 0.07122273 0.0058848785)
(0.83622188 0.068587826 0.0057753672)
(0.85896745 0.06585596 0.0056737606)
(0.88185548 0.063030485 0.0055813147)
(0.90489234 0.060108898 0.0054919791)
(0.92806105 0.05710421 0.0054161232)
(0.9513789 0.054003625 0.0053309497)
(0.97482918 0.050809432 0.0052563904)
(0.99841797 0.047527865 0.0051790006)
(1.0221434 0.044156091 0.00509255)
(1.0460008 0.040688443 0.0050044329)
(1.0699879 0.037125567 0.004910169)
(1.0941022 0.033465527 0.0048052938)
(1.1183371 0.029708435 0.0046890911)
(1.1426879 0.025850509 0.0045622485)
(1.1671473 0.021896011 0.0044226216)
(1.1917067 0.017838038 0.0042721891)
(1.2163576 0.01368689 0.0041100742)
(1.2410909 0.0094341562 0.0039391231)
(1.2658946 0.0050949694 0.0037589017)
(1.2907598 0.00065858699 0.0035757142)
(1.3156767 -0.0038557158 0.0033841498)
(1.3406292 -0.0084550823 0.003198652)
(1.3656157 -0.013127137 0.0030089991)
(1.3906148 -0.017868267 0.0028292632)
(1.4156285 -0.022669456 0.0026555361)
(1.4406386 -0.027526992 0.0024939266)
(1.4656451 -0.032441174 0.0023451606)
(1.4906334 -0.037388358 0.0022105312)
(1.5156031 -0.042388985 0.0020942326)
(1.5405426 -0.047402588 0.0019934936)
(1.5654556 -0.052464941 0.001912873)
(1.5903277 -0.057525751 0.0018501503)
(1.6151723 -0.062621851 0.0018031542)
(1.6399702 -0.067713751 0.0017772602)
(1.6647414 -0.072818273 0.0017612236)
(0.0018349105 -0.0069675006 -0.0081757438)
(0.0032681533 -0.0095825636 -0.0095748165)
(0.0042447829 -0.013316064 -0.012361692)
(0.0052443896 -0.016403863 -0.013409681)
(0.0074000731 -0.020245921 -0.014432562)
(0.0098118282 -0.024118978 -0.014970945)
(0.012843287 -0.027872745 -0.015355051)
(0.016428704 -0.031927034 -0.015503279)
(0.020591166 -0.035930637 -0.015590514)
(0.025181042 -0.03997531 -0.015573743)
(0.030352061 -0.044109205 -0.015511041)
(0.035945196 -0.048218978 -0.015411633)
(0.042069445 -0.052404637 -0.015273871)
(0.048638308 -0.056598384 -0.015142698)
(0.055700682 -0.060811057 -0.014964427)
(0.063223608 -0.065075666 -0.014799951)
(0.071221457 -0.069324257 -0.014595297)
(0.079687363 -0.073626865 -0.014384702)
(0.088611253 -0.077943289 -0.014166081)
(0.098001115 -0.082261646 -0.013922971)
(0.10783284 -0.086616055 -0.013663295)
(0.11811358 -0.090985321 -0.013410714)
(0.12881014 -0.095343796 -0.013128106)
(0.13994025 -0.099749536 -0.012854794)
(0.15146269 -0.10413654 -0.012578197)
(0.16338873 -0.10855045 -0.012291478)
(0.17568054 -0.11297073 -0.012037732)
(0.1883494 -0.11739675 -0.011763917)
(0.20136307 -0.12184412 -0.011530156)
(0.214726 -0.12629 -0.011283826)
(0.2284152 -0.13077125 -0.011072998)
(0.24243477 -0.13525625 -0.010868302)
(0.25676947 -0.13977398 -0.010684202)
(0.27142105 -0.14430957 -0.010510588)
(0.28637727 -0.148881 -0.010352095)
(0.30164324 -0.15347741 -0.010208411)
(0.31720981 -0.15810737 -0.010055722)
(0.33307976 -0.16278671 -0.0099235295)
(0.34924762 -0.16749437 -0.0097854473)
(0.36571992 -0.17225228 -0.0096487688)
(0.38248692 -0.17705089 -0.0095067679)
(0.39955345 -0.18189481 -0.0093594374)
(0.41691317 -0.18678423 -0.0092027435)
(0.43456619 -0.19171819 -0.0090374147)
(0.45250639 -0.19669633 -0.0088610475)
(0.47073197 -0.20171721 -0.0086740053)
(0.48923488 -0.20677919 -0.0084768943)
(0.50801111 -0.21187958 -0.008269905)
(0.52705195 -0.21701687 -0.0080551702)
(0.54635027 -0.22218714 -0.0078340433)
(0.56589735 -0.22738891 -0.0076088452)
(0.58568402 -0.23261843 -0.0073820136)
(0.60570114 -0.23787374 -0.0071558237)
(0.6259392 -0.24315222 -0.0069328925)
(0.64638895 -0.24845205 -0.0067152307)
(0.66704138 -0.25377137 -0.0065050884)
(0.68788819 -0.25910972 -0.0063036284)
(0.70892163 -0.26446578 -0.006112265)
(0.73013497 -0.26984031 -0.0059312178)
(0.75152251 -0.27523321 -0.0057604814)
(0.77307952 -0.28064591 -0.005599088)
(0.79480247 -0.28607903 -0.005446109)
(0.81668871 -0.2915348 -0.0052990569)
(0.83873694 -0.29701392 -0.0051561173)
(0.86094563 -0.30251844 -0.0050144542)
(0.88331558 -0.30804889 -0.0048713266)
(0.90584462 -0.31360661 -0.0047245258)
(0.92853644 -0.31919093 -0.0045697704)
(0.95138335 -0.32479909 -0.0044112705)
(0.97439137 -0.33042841 -0.0042334112)
(0.99755885 -0.33609348 -0.0040520127)
(1.020877 -0.34176092 -0.0038549678)
(1.0443493 -0.34745699 -0.0036472062)
(1.0679681 -0.35315665 -0.0034274569)
(1.0917279 -0.35886682 -0.0031980158)
(1.115623 -0.36457662 -0.0029600928)
(1.1396454 -0.37028233 -0.0027157442)
(1.1637882 -0.3759796 -0.0024666632)
(1.1880399 -0.38166092 -0.0022159144)
(1.2123939 -0.3873234 -0.0019658312)
(1.2368382 -0.39296118 -0.0017181664)
(1.2613637 -0.39856944 -0.0014762334)
(1.2859601 -0.40414634 -0.0012403204)
(1.3106168 -0.4096862 -0.0010146414)
(1.3353244 -0.41518888 -0.00079799791)
(1.3600731 -0.42065023 -0.00059418239)
(1.3848537 -0.42607112 -0.00040161324)
(1.4096576 -0.43144872 -0.00022283094)
(1.4344762 -0.43678497 -5.6486108e-05)
(1.4593024 -0.44207869 9.6288075e-05)
(1.484128 -0.44733241 0.00023657889)
(1.5089474 -0.45254654 0.00036364865)
(1.5337536 -0.45772433 0.00047901649)
(1.5585412 -0.46287262 0.00058397641)
(1.5833132 -0.46798728 0.00067959339)
(0 -3.5299837e-19 0)
(0 -2.5991934e-19 0)
(0 2.4443496e-19 0)
(0 -1.5457383e-19 0)
(0 -1.3260346e-19 0)
(0 7.3645253e-19 0)
(0 -2.1663286e-19 0)
(-4.9994443e-19 1.3974713e-19 0)
(0 -1.2655705e-19 0)
(0 3.0637794e-19 0)
(0 3.6479862e-19 0)
(0 1.2748974e-19 0)
(0 6.7710361e-20 0)
(0 -1.3870063e-19 0)
(0 9.5114855e-20 0)
(0.0039399573 -0.0029229407 0.0059224358)
(0.0041734468 -0.011067783 0.0094654165)
(0.0041453017 -0.011729889 0.011204985)
(0.0058509411 -0.017222662 0.013196366)
(0.0074837253 -0.019932117 0.01393607)
(0.010163537 -0.024166258 0.014455705)
(0.013129398 -0.027819048 0.014758059)
(0.016850258 -0.031997273 0.014924101)
(0.020959077 -0.035846599 0.014921549)
(0.025611951 -0.040073247 0.014895786)
(0.030824303 -0.044133736 0.014830641)
(0.036361374 -0.048233977 0.014688306)
(0.042553264 -0.052525568 0.014578977)
(0.049051935 -0.056600036 0.014392588)
(0.056179892 -0.061002448 0.014246119)
(0.063654717 -0.065090254 0.014048951)
(0.071655717 -0.069508006 0.013863068)
(0.080125184 -0.073708086 0.013617425)
(0.089035339 -0.078106663 0.013404172)
(0.098444881 -0.082414047 0.013132521)
(0.10826352 -0.086772379 0.012894951)
(0.11854713 -0.091153623 0.012596002)
(0.12925062 -0.095553498 0.01232455)
(0.1403887 -0.099950723 0.012029026)
(0.1519182 -0.10434898 0.011735197)
(0.16385886 -0.10878989 0.011447105)
(0.17615507 -0.11318648 0.011153996)
(0.18883506 -0.1176747 0.010880383)
(0.20186447 -0.12208733 0.010607148)
(0.2152265 -0.12659389 0.010357573)
(0.22894247 -0.13106654 0.010115717)
(0.24296743 -0.13558038 0.0098946995)
(0.25731868 -0.14010872 0.0096817048)
(0.27197938 -0.14467346 0.0094886555)
(0.28695331 -0.14926629 0.0093055052)
(0.30222607 -0.15386625 0.0091311211)
(0.31780101 -0.15855382 0.008970466)
(0.33368497 -0.16324564 0.0088167043)
(0.34985903 -0.16798766 0.0086681238)
(0.36633655 -0.17277336 0.0085207666)
(0.38310732 -0.17760301 0.0083769982)
(0.40017324 -0.18247776 0.0082318898)
(0.41753121 -0.18739674 0.008085479)
(0.43517867 -0.19236012 0.0079361481)
(0.45311185 -0.19736569 0.0077835068)
(0.4713272 -0.20241273 0.0076264462)
(0.48981922 -0.20749822 0.0074652088)
(0.50858268 -0.21262079 0.0072997718)
(0.52761029 -0.21777675 0.0071309753)
(0.54689544 -0.22296461 0.0069591483)
(0.56642954 -0.22818075 0.0067859889)
(0.58620475 -0.23342332 0.0066117798)
(0.60621183 -0.23868985 0.0064388919)
(0.62644212 -0.2439782 0.006267667)
(0.64688634 -0.24928739 0.0061005714)
(0.66753606 -0.25461554 0.0059379105)
(0.68838247 -0.25996285 0.0057818785)
(0.70941828 -0.26532847 0.0056325811)
(0.73063599 -0.27071319 0.0054912879)
(0.75202995 -0.27611738 0.0053580077)
(0.77359445 -0.28154224 0.0052328134)
(0.79532606 -0.28698855 0.0051149712)
(0.81722082 -0.2924583 0.0050041035)
(0.83927728 -0.29795134 0.0048981484)
(0.86149309 -0.3034697 0.0047964168)
(0.88386858 -0.30901427 0.0046961548)
(0.90640194 -0.31458225 0.0045950069)
(0.92909733 -0.32018496 0.004494357)
(0.95193578 -0.32577654 0.0043885791)
(0.9749482 -0.33144482 0.0042732534)
(0.99810836 -0.33709482 0.0041580181)
(1.0214203 -0.34277162 0.0040296479)
(1.0448858 -0.34846104 0.0038926697)
(1.0684949 -0.35415889 0.0037472817)
(1.0922465 -0.35986102 0.0035912669)
(1.1161337 -0.36556269 0.0034262612)
(1.1401498 -0.37125924 0.0032523318)
(1.1642874 -0.37694611 0.003071273)
(1.1885378 -0.38261783 0.0028836845)
(1.2128924 -0.38827086 0.0026917171)
(1.2373409 -0.39390045 0.0024969898)
(1.2618742 -0.39950325 0.0023017279)
(1.286481 -0.40507562 0.0021079254)
(1.3111521 -0.41061496 0.0019183656)
(1.3358757 -0.41611854 0.0017349546)
(1.3606432 -0.42158448 0.0015605179)
(1.3854428 -0.42701138 0.0013971933)
(1.4102666 -0.43239743 0.0012472101)
(1.4351036 -0.43774308 0.0011128831)
(1.4599468 -0.4430462 0.00099552796)
(1.4847863 -0.44830942 0.00089736418)
(1.5096157 -0.45353046 0.00081840504)
(1.5344274 -0.4587154 0.00076030943)
(1.5592183 -0.46386175 0.00071925802)
(1.5839841 -0.46898091 0.00069341279)
(1.6138401 -0.44932996 0.00071127363)
(1.6189203 -0.42457454 0.00075440596)
(1.6239849 -0.39983004 0.00081395733)
(1.629028 -0.37511813 0.00088715578)
(1.6340768 -0.35043054 0.00097200085)
(1.6391079 -0.32576112 0.0010659001)
(1.6441614 -0.30111861 0.001165892)
(1.6492106 -0.2764745 0.0012704773)
(1.6542814 -0.2518475 0.0013664833)
(1.6593605 -0.22720704 0.0014650796)
(1.6644617 -0.20256838 0.0015555789)
(1.6695708 -0.17789827 0.0016320543)
(1.6747052 -0.15322642 0.0016989395)
(1.6798343 -0.12850234 0.001753028)
(1.6849801 -0.10377608 0.0017909814)
(1.665341 -0.073902959 0.0017185033)
(1.6405615 -0.068789962 0.0016101489)
(1.6157614 -0.063677237 0.001492461)
(1.5909141 -0.058571946 0.0013586593)
(1.5660345 -0.053483083 0.0012100491)
(1.5411176 -0.048415135 0.001049394)
(1.5161702 -0.043376374 0.00087315776)
(1.4911968 -0.03837244 0.00068549321)
(1.4662022 -0.033410834 0.00048600738)
(1.4411951 -0.028496603 0.00027516662)
(1.4161791 -0.023635991 5.4948967e-05)
(1.3911659 -0.018835385 -0.00017349813)
(1.3661591 -0.014098362 -0.00041043916)
(1.3411712 -0.0094325549 -0.00065429432)
(1.3162138 -0.0048428115 -0.00089996428)
(1.2912954 -0.00033228833 -0.001147718)
(1.2664273 0.0040932547 -0.0013933526)
(1.2416188 0.008430968 -0.0016370519)
(1.2168817 0.012678899 -0.0018759459)
(1.192225 0.016832406 -0.0021079194)
(1.167659 0.020892517 -0.0023318809)
(1.1431925 0.02485543 -0.002546443)
(1.1188331 0.028723883 -0.0027508632)
(1.0945888 0.03249334 -0.0029445579)
(1.0704639 0.036170632 -0.0031271711)
(1.046468 0.039751473 -0.0033004316)
(1.022586 0.043244828 -0.0034648179)
(0.99889223 0.046589984 -0.003599276)
(0.9752731 0.049923521 -0.0037593994)
(0.95182388 0.053115302 -0.0038972302)
(0.92850573 0.056229014 -0.0040395906)
(0.90533156 0.059248575 -0.0041774116)
(0.88229812 0.062174338 -0.0043191409)
(0.85940915 0.065006042 -0.0044650041)
(0.83666567 0.067741578 -0.0046171474)
(0.81407048 0.070379219 -0.0047771312)
(0.79162744 0.072915176 -0.0049460866)
(0.76934089 0.075347275 -0.0051240511)
(0.74721671 0.077670856 -0.0053111615)
(0.72526124 0.079883025 -0.0055066299)
(0.70348234 0.081979061 -0.005709362)
(0.68188806 0.083955905 -0.0059177359)
(0.66048766 0.085809232 -0.006130164)
(0.63929035 0.087536418 -0.0063444462)
(0.61830608 0.089133959 -0.0065587585)
(0.59754446 0.090600152 -0.0067710337)
(0.57701543 0.091932443 -0.0069794104)
(0.55672821 0.093130407 -0.0071821949)
(0.53669226 0.094192278 -0.0073782477)
(0.5169154 0.095119482 -0.0075660873)
(0.49740661 0.095909311 -0.0077452576)
(0.478171 0.096568005 -0.0079162456)
(0.45921798 0.097086904 -0.0080767674)
(0.44054827 0.09748132 -0.0082329347)
(0.42217254 0.097735169 -0.0083772398)
(0.40409163 0.097865233 -0.0085188484)
(0.38630284 0.097869809 -0.0086584768)
(0.3688112 0.097733311 -0.0087967981)
(0.35164914 0.097466417 -0.0089256108)
(0.33475975 0.097100262 -0.0090766219)
(0.31818297 0.096572474 -0.0092262247)
(0.30194875 0.095925101 -0.0093714075)
(0.28599864 0.095153801 -0.0095406381)
(0.27037193 0.0942451 -0.0097191528)
(0.25506967 0.093189947 -0.0099139359)
(0.24012798 0.092004597 -0.010110687)
(0.22549451 0.090674582 -0.010321154)
(0.21125507 0.08919058 -0.010539039)
(0.1973488 0.087574632 -0.010776327)
(0.18384226 0.085798933 -0.011009917)
(0.17072123 0.083877255 -0.011247977)
(0.15800858 0.08179383 -0.011491119)
(0.14575279 0.079551681 -0.011710843)
(0.13389504 0.07719866 -0.011948665)
(0.12251051 0.074655745 -0.012166932)
(0.1116111 0.071988771 -0.012359924)
(0.10115815 0.069193206 -0.012572866)
(0.091235106 0.06624149 -0.012725908)
(0.081771955 0.063209455 -0.012917328)
(0.072851506 0.05999893 -0.013044618)
(0.064444557 0.056730345 -0.013188398)
(0.056518354 0.05333652 -0.013296259)
(0.049133979 0.049884521 -0.013431051)
(0.04230418 0.046260222 -0.01347854)
(0.035971529 0.042702821 -0.013582612)
(0.030188154 0.038948494 -0.013595532)
(0.024975874 0.035208331 -0.013585741)
(0.020309269 0.031409862 -0.013504387)
(0.016190085 0.027619108 -0.013344314)
(0.012678141 0.023800464 -0.013046161)
(0.0097628445 0.019956067 -0.012498286)
(0.0075049945 0.016131562 -0.011713164)
(0.0058597405 0.012730435 -0.010569947)
(0.0045025254 0.0088963054 -0.0084320252)
(0.005338996 0.0055872697 -0.0049385731)
(0 3.9970716e-19 0)
(0 1.5196675e-19 0)
(0 3.9443185e-19 0)
(0 3.9706023e-19 0)
(0 4.138329e-19 0)
(0 2.4887218e-19 0)
(0 9.9211197e-21 0)
(0 -2.2550874e-19 -2.4743381e-19)
(0 2.6703212e-20 0)
(0 2.4007101e-19 0)
(0 5.7888857e-19 0)
(0 5.0722713e-19 0)
(0 3.6308141e-19 0)
(0 3.5088993e-19 0)
(0 4.0068739e-19 0)
(0 1.6583161e-18 0)
(0 7.0608897e-19 0)
(0 2.5911458e-19 0)
(0 4.6768865e-19 0)
(0 -4.0718398e-20 0)
(0 1.0901152e-19 0)
(0 1.2421803e-18 0)
(0 -5.0549018e-19 -2.1919628e-19)
(0 7.3886132e-19 0)
(0 9.2365442e-19 0)
(0 3.0523666e-19 0)
(0 1.2493961e-19 0)
(0 2.8999565e-19 0)
(0 5.228426e-19 0)
(0 6.7251502e-20 0)
(1.608087 -0.47319734 0.00076414191)
(1.6081236 -0.4733069 0.00075329846)
(1.6081617 -0.47340996 0.00074484023)
(1.6082031 -0.47350719 0.00074028151)
(1.608247 -0.47359977 0.00073737617)
(1.6082907 -0.47368592 0.00073836373)
(1.6083337 -0.4737664 0.00073916113)
(1.6083761 -0.47383932 0.00074028501)
(1.6084173 -0.47390517 0.00073940062)
(1.608458 -0.47396192 0.00073629221)
(1.6084991 -0.47400911 0.0007304792)
(1.6085393 -0.47404532 0.000719871)
(1.6085823 -0.47407087 0.00070628958)
(1.6086304 -0.47408341 0.00069244316)
(1.6086787 -0.47409176 0.00067191146)
(1.6895883 -0.077944212 0.0017382128)
(1.6896641 -0.077970541 0.0017478967)
(1.6897357 -0.078001855 0.0017575867)
(1.6897994 -0.078043116 0.001765561)
(1.6898582 -0.078091875 0.0017730092)
(1.6899079 -0.078148338 0.0017766324)
(1.6899507 -0.078210421 0.0017797448)
(1.6899862 -0.078278253 0.001780816)
(1.6900161 -0.078350374 0.0017821192)
(1.6900404 -0.078426936 0.0017842272)
(1.6900608 -0.078508222 0.0017874447)
(1.6900756 -0.078595042 0.0017941042)
(1.690088 -0.0786871 0.0018035419)
(1.690098 -0.078789065 0.0018116036)
(1.6901007 -0.078895849 0.0018277796)
(0.0018010689 0.0030766394 0.0064827276)
(0.0025780545 0.0045723329 0.0076027891)
(0.0034860747 0.0063063341 0.0094517101)
(0.0051603237 0.0079228751 0.010237496)
(0.0070440658 0.0095736695 0.011062133)
(0.0097602282 0.011320086 0.011466643)
(0.01287619 0.013084572 0.011779581)
(0.016719942 0.014974327 0.011931204)
(0.020987611 0.016841715 0.012022977)
(0.025899137 0.01880642 0.012048673)
(0.03130178 0.020733848 0.012002662)
(0.037281005 0.022753884 0.011972053)
(0.043749777 0.024707653 0.01186762)
(0.050771199 0.026747018 0.011789021)
(0.058290202 0.028716365 0.011662504)
(0.066364825 0.030749497 0.011553314)
(0.074930941 0.032719413 0.011401551)
(0.084008213 0.034726577 0.011273409)
(0.093609679 0.036678171 0.011108476)
(0.10371873 0.038643518 0.010945998)
(0.11431208 0.040564614 0.010773013)
(0.12540637 0.042460801 0.010592579)
(0.1369816 0.044341776 0.010396233)
(0.14901092 0.046172375 0.010209258)
(0.16151654 0.047977125 0.010003038)
(0.17445634 0.049741076 0.0098072288)
(0.18783025 0.051472067 0.0096024188)
(0.20161649 0.053156277 0.0094094724)
(0.21581805 0.054799152 0.0092141864)
(0.23041008 0.056411578 0.009028438)
(0.24537939 0.057964674 0.0088476075)
(0.26073141 0.05948532 0.0086766233)
(0.27644556 0.060957545 0.0085173696)
(0.29251172 0.062381981 0.0083629294)
(0.30893718 0.063758256 0.0082203307)
(0.32570644 0.065070202 0.0080838605)
(0.34281799 0.066342003 0.00795304)
(0.36026223 0.067536354 0.0078290799)
(0.37805347 0.068672841 0.0077069867)
(0.39616552 0.069730723 0.0075927226)
(0.41461111 0.070708835 0.0074795608)
(0.43337335 0.071593168 0.0073618416)
(0.45245655 0.072391399 0.0072492533)
(0.47185144 0.073077126 0.0071308566)
(0.49154598 0.073658617 0.007010825)
(0.51153856 0.074119802 0.0068893282)
(0.53181534 0.074455474 0.0067625191)
(0.55236967 0.074660292 0.0066344903)
(0.57318727 0.074726374 0.0065022692)
(0.59425933 0.074649651 0.0063683967)
(0.61557079 0.074424847 0.006232319)
(0.63711078 0.074048109 0.0060960687)
(0.65886476 0.073516377 0.0059597541)
(0.68082057 0.072826917 0.0058255683)
(0.70296462 0.071977941 0.0056940927)
(0.72528471 0.070967704 0.005567282)
(0.74776885 0.069795404 0.0054457903)
(0.77040595 0.068459655 0.0053309171)
(0.79318607 0.06695984 0.0052234056)
(0.81610031 0.065294561 0.0051235417)
(0.83914073 0.063462912 0.0050310296)
(0.86230143 0.061463841 0.0049457481)
(0.88557594 0.059294054 0.0048667051)
(0.90896196 0.05695147 0.0047939642)
(0.93244985 0.054440375 0.0047210548)
(0.95605063 0.051741332 0.004652367)
(0.97975164 0.048873865 0.0045862005)
(1.0035386 0.045823282 0.0045165362)
(1.0274249 0.042585618 0.0044454851)
(1.0514013 0.039161665 0.0043667657)
(1.0754641 0.035553858 0.0042821686)
(1.0996093 0.03175597 0.0041887744)
(1.1238309 0.027772553 0.0040861458)
(1.1481222 0.023602505 0.0039758688)
(1.1724762 0.019248028 0.0038555312)
(1.1968848 0.014711454 0.0037278977)
(1.2213396 0.0099998553 0.0035912694)
(1.2458309 0.0051133161 0.0034491113)
(1.2703507 6.5112914e-05 0.0033004067)
(1.294888 -0.0051470826 0.0031497304)
(1.3194358 -0.01050469 0.0029951698)
(1.3439819 -0.016008864 0.0028440167)
(1.3685213 -0.02164629 0.0026923396)
(1.3930412 -0.027404984 0.0025480641)
(1.4175383 -0.033281775 0.0024077455)
(1.4420095 -0.039263273 0.0022786005)
(1.4664452 -0.04534064 0.0021589252)
(1.490839 -0.05150301 0.002051666)
(1.5151944 -0.057740179 0.0019571112)
(1.5394958 -0.064041158 0.0018776672)
(1.5637611 -0.070400818 0.0018113235)
(1.5879635 -0.076797936 0.001760473)
(1.6121343 -0.083242262 0.0017211929)
(1.6362451 -0.089698052 0.0016944893)
(1.6603265 -0.096191351 0.0016725091)
(9.8788452e-05 0.0012001802 0.0056410349)
(0.00061437619 -1.067087e-05 0.0068411085)
(0.001883769 0.00044509502 0.0080331653)
(0.0030834444 3.3432372e-05 0.0089248208)
(0.004986664 0.00015476929 0.0094525608)
(0.0073418278 0.00010220482 0.0098178586)
(0.010337402 0.00030209119 0.010050861)
(0.013792595 0.00046340808 0.010202295)
(0.017868755 0.00077376827 0.010293617)
(0.022462884 0.0011192021 0.010281341)
(0.027580586 0.0015818031 0.01030837)
(0.03324068 0.0020960794 0.010222035)
(0.039409673 0.0027207964 0.010195244)
(0.046120103 0.0033987843 0.010085781)
(0.053328411 0.0041774706 0.010026318)
(0.061091542 0.0050222138 0.0098855929)
(0.069327218 0.0059598796 0.0098086646)
(0.078136032 0.0069605267 0.0096659426)
(0.087421774 0.0080486329 0.0095494954)
(0.097253502 0.0091997035 0.0094030117)
(0.10757544 0.010431091 0.0092651268)
(0.11842617 0.011729595 0.0091003535)
(0.1297591 0.013093681 0.0089500607)
(0.14160127 0.014523812 0.0087801811)
(0.15391403 0.016007608 0.0086149306)
(0.16670831 0.017564188 0.0084380209)
(0.17995432 0.019162237 0.0082707177)
(0.19365479 0.020821489 0.0081006103)
(0.20778876 0.022527806 0.0079318944)
(0.22234842 0.02428049 0.0077680615)
(0.23732322 0.026075116 0.0076147297)
(0.25270443 0.027907166 0.0074634289)
(0.26847633 0.029774978 0.0073190626)
(0.28463873 0.031662053 0.0071856891)
(0.30118544 0.033575353 0.0070547032)
(0.31810517 0.035498945 0.0069340608)
(0.33540482 0.037423185 0.0068186631)
(0.35306743 0.039342445 0.0067099737)
(0.3710834 0.041242158 0.0066053496)
(0.38946494 0.043121401 0.0065037793)
(0.40819443 0.044951096 0.0063984994)
(0.42727134 0.046740281 0.0063033967)
(0.44669469 0.048452646 0.0061955047)
(0.46644437 0.050097109 0.006098103)
(0.48652231 0.051648303 0.0059918146)
(0.50691434 0.053097408 0.0058871332)
(0.52760834 0.054431239 0.0057780545)
(0.54859367 0.055639702 0.0056685385)
(0.56985532 0.056709445 0.0055547743)
(0.59137976 0.057632612 0.0054412579)
(0.6131506 0.058397696 0.0053251936)
(0.63515316 0.05899725 0.0052099001)
(0.65737019 0.059422771 0.0050947735)
(0.67978626 0.059667173 0.0049819551)
(0.70238495 0.059723864 0.0048719699)
(0.72515104 0.059586856 0.0047663139)
(0.74806971 0.059250362 0.0046656634)
(0.77112741 0.058708842 0.0045712799)
(0.79431146 0.057957325 0.0044832571)
(0.81761086 0.056989998 0.0044020016)
(0.84101556 0.055802219 0.0043275481)
(0.86451766 0.054388609 0.0042586771)
(0.88810849 0.052741492 0.0041969155)
(0.9117837 0.050861736 0.004136294)
(0.93553676 0.04873789 0.004080439)
(0.9593687 0.046368599 0.0040290244)
(0.98324979 0.043753281 0.003974758)
(1.0072079 0.040870762 0.0039211177)
(1.0312309 0.037733167 0.0038547628)
(1.0553069 0.034334934 0.0037918628)
(1.0794352 0.030677897 0.0037187641)
(1.1036047 0.026755603 0.0036426543)
(1.1278132 0.022575869 0.003558028)
(1.152052 0.018134311 0.0034673771)
(1.1763153 0.013439457 0.0033679105)
(1.2005922 0.0084927243 0.0032631231)
(1.2248775 0.0033038803 0.003149828)
(1.2491597 -0.0021242601 0.0030336809)
(1.2734338 -0.0077763594 0.0029103511)
(1.2976867 -0.013652595 0.0027883767)
(1.3219179 -0.019729634 0.0026603367)
(1.3461097 -0.02601053 0.0025384935)
(1.3702684 -0.032473446 0.0024155747)
(1.3943743 -0.03911093 0.0022923437)
(1.4184445 -0.04590232 0.0021794672)
(1.4424442 -0.052847503 0.0020767609)
(1.4663911 -0.059926678 0.0019823129)
(1.4902737 -0.067120735 0.0018966509)
(1.5140994 -0.074429907 0.0018237255)
(1.5378566 -0.081821618 0.0017591512)
(1.5615623 -0.089305646 0.0017083738)
(1.5851951 -0.0968423 0.0016653799)
(1.6087867 -0.10444677 0.0016340385)
(1.6323084 -0.11207734 0.0016081298)
(1.6558002 -0.11975332 0.0015857555)
(-0.00089442758 -0.00063585279 0.0049127934)
(-0.00052579607 -0.0028430317 0.0056988214)
(3.0430036e-05 -0.0041122989 0.0069424113)
(0.0013504267 -0.0056006999 0.0075188079)
(0.0030489083 -0.0069113215 0.007909055)
(0.0054107772 -0.0080890496 0.0081708102)
(0.0081323321 -0.0092588339 0.0083742933)
(0.011546452 -0.010267995 0.0084909102)
(0.01538912 -0.011250195 0.0085085258)
(0.019803265 -0.01201992 0.0085726893)
(0.024715851 -0.012784664 0.008517023)
(0.03017974 -0.013320216 0.0085200157)
(0.036130284 -0.013830538 0.008434792)
(0.042616871 -0.014120259 0.0084054288)
(0.049621618 -0.014351523 0.0082918693)
(0.057133932 -0.014392762 0.008249328)
(0.065190729 -0.014341277 0.008127969)
(0.073750323 -0.014117866 0.0080476928)
(0.082845826 -0.013783072 0.0079313861)
(0.09246149 -0.013294528 0.0078288496)
(0.10260415 -0.012677601 0.0077010138)
(0.11326044 -0.011929324 0.0075858478)
(0.12443614 -0.011041449 0.0074489431)
(0.13611051 -0.010032769 0.0073183534)
(0.14829062 -0.0088855821 0.0071744474)
(0.16095493 -0.0076254467 0.0070374474)
(0.17410231 -0.0062382 0.0068942378)
(0.18771258 -0.0047346563 0.0067510642)
(0.20178376 -0.0031214283 0.0066118175)
(0.21629789 -0.0014013085 0.0064774286)
(0.23124916 0.00042015588 0.0063428608)
(0.2466221 0.0023368921 0.006214555)
(0.26241535 0.0043365291 0.0060951488)
(0.2786158 0.0064171933 0.0059778911)
(0.29521764 0.0085648211 0.0058682098)
(0.3122147 0.010768929 0.0057649839)
(0.3295938 0.013023079 0.0056674752)
(0.34735246 0.015307046 0.0055752904)
(0.3655144 0.01761173 0.005483595)
(0.38404214 0.019911299 0.0053887184)
(0.40294106 0.022214959 0.0053077067)
(0.42220586 0.024482806 0.0052134593)
(0.44182604 0.02671241 0.0051343623)
(0.46179508 0.028884157 0.0050460893)
(0.48210343 0.030979427 0.0049582283)
(0.50273701 0.032987197 0.0048703833)
(0.52368607 0.034888266 0.0047797157)
(0.54493566 0.03667007 0.0046879349)
(0.56647051 0.038316447 0.0045946563)
(0.58827411 0.039815601 0.0045008807)
(0.61032975 0.041153243 0.0044056071)
(0.63261894 0.042318988 0.0043116861)
(0.65512389 0.043300464 0.0042177453)
(0.67782612 0.044088234 0.004126443)
(0.70070784 0.044671986 0.00403748)
(0.72375135 0.045042838 0.0039524198)
(0.74694054 0.04519163 0.0038718202)
(0.77025953 0.045110089 0.0037963342)
(0.79369452 0.044789724 0.0037261505)
(0.81723277 0.044222296 0.0036619283)
(0.84086299 0.043399966 0.0036026189)
(0.86457533 0.04231397 0.0035490662)
(0.88836143 0.040957792 0.0034993902)
(0.91221371 0.039324801 0.0034515888)
(0.93612833 0.037402825 0.0034102888)
(0.96008711 0.035194376 0.0033642318)
(0.98411744 0.032694828 0.0033287291)
(1.0081697 0.029882352 0.00327085)
(1.0322632 0.026752412 0.0032375546)
(1.0563906 0.023333795 0.0031858701)
(1.0805426 0.019596882 0.0031339041)
(1.1047136 0.015556153 0.0030769656)
(1.128902 0.011207815 0.0030114328)
(1.1530938 0.0065550705 0.0029422912)
(1.1772835 0.0016020124 0.0028659898)
(1.2014635 -0.0036445383 0.0027855935)
(1.2256248 -0.0091762258 0.002699181)
(1.2497592 -0.014987077 0.0026096339)
(1.2738598 -0.021063322 0.0025162182)
(1.2979171 -0.027397886 0.0024212938)
(1.3219275 -0.033974839 0.002324391)
(1.3458804 -0.040787582 0.0022310914)
(1.3697728 -0.047812575 0.0021343911)
(1.3936032 -0.055049964 0.0020453978)
(1.4173617 -0.062469101 0.0019620944)
(1.4410445 -0.070067262 0.0018855463)
(1.4646597 -0.077817997 0.0018100902)
(1.4881991 -0.085719153 0.0017476554)
(1.5116691 -0.093743345 0.0016893063)
(1.5350603 -0.10188087 0.0016433385)
(1.5583932 -0.11011612 0.0016023968)
(1.581643 -0.11842462 0.0015728443)
(1.604849 -0.12680817 0.001546651)
(1.6279796 -0.13522553 0.0015254772)
(1.6510739 -0.14369072 0.0015043971)
(-0.0015028484 -0.001338061 0.0039819399)
(-0.0016201657 -0.0045082843 0.0047733784)
(-0.0010377025 -0.0065333854 0.0055344022)
(8.0145745e-05 -0.0088926316 0.0059961794)
(0.0017942855 -0.010863956 0.0062814733)