/*--------------------------------*- C++ -*----------------------------------*\
  =========                 |
  \\      /  F ield         | OpenFOAM: The Open Source CFD Toolbox
   \\    /   O peration     | Website:  https://openfoam.org
    \\  /    A nd           | Version:  6
     \\/     M anipulation  |
\*---------------------------------------------------------------------------*/
FoamFile
{
    version     2.0;
    format      ascii;
    class       pointScalarField;
    location    "1.4";
    object      E;
}
// * * * * * * * * * * * * * * * * * * * * * * * * * * * * * * * * * * * * * //

dimensions      [1 -1 -2 0 0 0 0];

internalField   nonuniform List<scalar> 
28033
(
17054.333
17554.704
-1189299
-629053.05
20407.141
24013.345
-930176.56
-1813289.9
9273.5446
4733.7719
2679.0677
2396.5245
1733.1417
1646.712
1330.5269
1123.8501
1789.8276
2651.6258
5310.9159
8679.175
12201.221
14482.056
17294.934
-638867.65
-606423.08
-592149.77
-590859.41
-601191.47
-620210.93
-645540.42
-671814.22
-696595.12
-717550.1
-732425.87
-741554.52
-741173.75
-729332.99
-539560.8
15216.782
9595.4449
9750.194
9927.8099
10551.933
11015.05
11421.535
11583.529
11908.02
12192.467
12239.437
12408.401
12383.207
12628.004
12551.026
12505.91
12348.337
12524.815
12260.683
12186.394
12047.437
11950.409
11653.058
11594.301
11266.826
11178.288
10861.756
10645.649
10452.979
10125.26
9825.4278
9615.8742
9224.4372
9004.2168
8317.4777
8332.9985
8027.7442
7233.9873
7165.4187
6727.249
6218.0099
5851.8992
5384.1646
4972.4508
4496.5697
4099.6153
3579.6197
3205.9673
2656.6419
2266.2433
1723.0849
1286.0104
767.13622
272.92219
-236.11135
-757.69959
-1292.506
-1828.7193
-2376.9999
-2928.5664
-3506.259
-4044.6615
-4615.4369
-5085.0622
-5783.2431
-6311.5506
-6965.2524
-7435.7691
-8005.3755
-8170.0755
-8593.5759
-8910.1246
-9170.3817
-9510.3531
-9440.3324
-9914.3912
-9530.6446
-9986.959
-9412.0088
-9852.7044
-9046.2702
-9417.3786
-8449.0994
-8718.5762
-7841.6975
-7481.8557
-6791.9848
-6216.4969
-5447.5307
-4204.2357
-5076.5631
-2279.1587
-3708.1284
-2142.6904
14282.6
17129.158
7392.5651
12614.62
9510.4464
11206.895
11879.477
11550.139
11920.221
12201.568
11776.805
11926.07
11399.733
11494.817
10736.052
10562.877
9865.2689
9514.292
9033.8083
8442.2636
7917.6492
7155.736
6754.818
5898.9288
5727.5314
4999.4641
4749.5828
4070.7638
3731.5388
3230.5263
2916.0794
2336.9436
2206.2839
1750.0831
1657.9727
1272.3153
1466.7674
1001.8061
1152.6517
992.72823
1151.6972
1173.1129
1362.6578
1529.1739
1827.5994
2092.484
2512.2818
2899.4813
3415.2496
3942.0891
4545.6941
5200.8939
5906.4576
6656.549
7470.0478
8302.1639
9189.6901
10101.172
11038.656
11988.72
12970.474
13919.16
14908.713
15828.364
16803.322
17664.28
18582.348
19361.525
20281.859
20838.346
21500.11
21843.78
22385.627
22777.712
22954.808
23173.222
23171.301
23101.908
22958.727
22605.058
22267.197
21681.179
21108.857
20315.244
19543.649
18546.298
17590.903
16450.625
15365.971
14043.591
12963.855
11579.291
10389.773
8993.3669
8075.5531
918.66181
12089.111
7034.1281
3861.6379
4024.5933
2113.8979
1644.4673
1416.3834
1298.8838
1916.7944
3518.969
5244.4045
8454.0817
11397.611
15153.674
17206.128
30892.078
15284.776
4839.4558
12338.749
12089.873
11161.089
12993.799
13275.258
13191.54
12543.098
13859.647
11461.354
13216.136
10277.359
12371.266
10612.838
11246.044
8777.7841
10252.642
8101.0909
8604.9709
7365.7349
7024.4502
6677.0594
5767.0505
5671.3217
4679.5516
4733.259
3682.7808
4160.8576
3386.7689
3199.0282
2877.7921
2921.2235
1995.3386
1962.6931
2933.2316
2480.4281
2508.6778
2611.7746
2809.8039
3022.6865
3312.261
3634.7163
4027.6254
4456.9319
4935.373
5462.3445
6021.4102
6625.8223
7253.0257
7917.4476
8599.6505
9289.4882
10003.263
10705.802
11410.004
12106.166
12774.535
13433.308
14047.121
14640.255
15182.337
15687.893
16133.922
16621.67
16914.719
16361.435
19080.408
17035.664
17875.372
17603.129
17556.927
17442.718
17218.997
16892.169
16542.441
16078.653
15507.082
14928.096
14170.757
13466.157
12558.548
11734.266
10655.629
9731.7769
8547.3561
7458.3512
6273.1393
5105.7192
3876.0783
2756.6119
1457.65
306.81485
863.61929
-1518792.2
-1478401.8
-1326307.5
-1594932.1
-1307632.9
-1531431.6
-1229384.7
-1341356
-1359608
-1221780.2
-1063258.7
-1267127.3
-1063582.6
-1325659.7
-1324150.4
14994.853
6458.1264
8564.7026
8083.5615
7628.925
6970.2427
6394.2535
5765.4696
5054.5174
4555.8337
3855.8761
3237.426
2711.3243
1979.8507
1426.344
817.45066
241.16574
-345.9372
-874.70416
-1429.3453
-1918.8048
-2436.0372
-2828.5075
-3299.8672
-3513.1553
-3814.7769
-2406.691
-4802.0155
-4377.4963
-4915.0789
-4761.0536
-4833.4625
-4800.8812
-4710.6542
-4578.7518
-4400.411
-4178.0413
-3911.6579
-3608.2705
-3270.7109
-2895.6682
-2499.8522
-2069.7205
-1626.6175
-1154.0798
-680.63004
-172.79535
315.28981
843.20587
1345.0119
1877.6352
2391.3657
2931.5167
3402.4488
3943.3256
4466.466
4217.6469
6669.7073
6687.2071
5214.3078
8032.9592
7683.9357
7623.0499
7747.447
9156.6675
9171.1142
9392.5777
10014.948
9939.6423
10720.74
10658.195
11162.74
11374.347
11958.615
11660.166
12198.954
12253.166
12415.969
12698.917
12159.674
12961.296
12794.438
12450.172
12204.15
13622.35
11501.271
12159.628
11562.905
11972.81
10298.831
10292.129
10123.269
10926.754
7636.387
18097.278
12751.99
11870.012
11267.312
11199.772
11327.389
11552.758
11292.051
11508.772
11444.831
11502.754
10850.509
10599.311
10795.331
11054.117
11839.308
11472.257
11581.311
10375.183
11294.149
11248.592
10626.411
11887.335
12967.606
12072.622
12570.693
11953.684
11396.754
11508.147
11591.836
13201.666
-705483.3
-705723.79
-705215.67
-705603.01
-705057.89
-704834.97
-704882.04
-704806.66
-704720.06
-704703.35
-704434.49
-704691.89
-704768.62
-704568.97
-704441.17
-1343235.8
-1341694.9
-1341480.2
-1340489
-1341788.2
-1341538.5
-1341511.2
-1341438
-1341322.7
-1341160.4
-1341047.8
-1340984.2
-1340375.9
-1341467.5
-1343595.9
10510.254
6533.6543
6886.354
7099.384
7299.0727
7783.5782
7925.0765
8463.0599
8527.171
9147.6473
9056.897
9636.9522
9506.1549
10081.422
9782.857
10317.263
10201.143
10408.461
10318.498
10505.666
10435.777
10431.765
10461.385
10287.402
10239.178
10076.803
9940.9947
9701.6318
9460.945
9228.4726
8818.138
8598.6195
8278.4701
7878.4166
7520.4988
6954.5003
6641.1878
6048.404
5624.8345
5113.4694
4623.9024
4013.8529
3523.053
3018.2326
2450.1564
1941.7707
1390.5468
899.3462
371.86094
-80.758828
-561.77369
-983.84653
-1395.8017
-1777.0984
-2116.8444
-2445.0399
-2711.184
-2961.9145
-3167.7964
-3328.1489
-3457.2634
-3526.9521
-3586.4039
-3554.6791
-3636.2287
-3138.8727
-2441.308
-1735.3565
-1277.8135
-1457.2286
-1070.9579
-917.4199
-543.26308
-264.40199
64.749882
383.46406
796.94301
1070.6927
1551.5847
1912.4153
2282.3315
2857.8687
3487.5275
3730.7447
4174.3123
4627.0182
5149.2526
5611.3342
6515.3672
6183.194
7918.8316
7990.4521
8631.5216
13450.112
19670.411
6049.5465
3211.211
4434.0881
4111.5248
4745.3608
4795.6899
5178.3557
5388.6122
5711.1224
5974.4221
6272.8059
6603.8728
6877.1905
7169.0028
7439.1981
7861.7849
7873.1055
8333.1053
8460.9231
8781.0307
8839.0646
9117.5927
9123.9373
9355.3885
9405.4167
9521.7911
9461.5406
9530.5448
9487.1361
9428.7736
9351.2517
9228.0327
8954.6877
8717.6936
8457.2613
8188.6339
7893.6883
7585.907
7137.0615
6741.3189
6262.494
5816.5891
5336.3453
4782.5122
4273.9625
3773.221
3219.0096
2703.3239
2173.2224
1656.8114
1136.1266
641.57856
158.04542
-314.7977
-753.57305
-1175.9272
-1562.9615
-1930.5239
-2248.6135
-2536.4868
-2797.408
-2994.5315
-3173.7933
-3275.0012
-3448.4599
-3187.3512
-1409.4242
3464.9425
4763.3246
5389.4624
6056.6796
6470.6053
7020.4354
7377.9024
8020.7176
8195.565
8951.8125
8927.1348
9795.186
9521.5613
10501.705
10145.948
10810.23
7288.5717
4780.0996
4955.331
5895.8325
6139.8289
6321.1428
7210.2031
7293.0325
7414.9819
9540.943
11314.415
17985.918
3772.8337
1508.2948
2581.1013
2285.5553
2749.9036
2788.4682
2930.5316
3285.5408
3416.3271
3772.7339
3894.1986
4354.6358
4455.0776
4919.528
5086.2089
5435.0765
5729.5824
6062.4442
6267.7594
6575.0065
6843.0386
7116.5558
7401.6328
7617.3439
7794.9395
7970.3138
8145.6918
8260.9907
8319.998
8391.4543
8398.6293
8352.2421
8334.1566
8277.8969
8109.5046
7972.1866
7602.4492
7204.9815
6949.4246
6599.9394
6178.8004
5844.273
5300.6814
4863.6066
4388.3551
3869.9773
3323.8654
2819.1053
2272.9025
1744.1557
1240.979
729.3767
268.82418
-201.20633
-597.25984
-999.59861
-1332.4843
-1641.2572
-1890.7468
-2108.5252
-2262.808
-2363.543
-2430.1938
-2414.2943
-2425.6302
-1993.3059
-5478.5381
1138.152
2287.2556
2617.9246
2914.5346
3017.0168
3377.708
3606.53
3931.9909
4247.1079
4564.142
4906.9319
5169.4968
5510.7176
5868.1667
6008.6175
6534.3901
6472.3051
4051.468
5018.1881
5523.5049
5761.7113
6910.8379
6959.3516
7516.5038
8597.7359
8869.5103
11055.913
13502.633
2379.9829
935.88334
1392.0544
1310.0956
1551.9225
1508.3748
1729.5591
1835.6644
1911.3782
2070.675
2287.0744
2475.7118
2603.7437
2961.2296
3001.9412
3473.0841
3467.2624
3927.3736
4011.9663
4449.7892
4551.4761
4938.2582
5029.0551
5359.185
5513.6638
5805.3524
5932.0624
6164.3818
6312.4147
6489.0862
6563.1868
6690.1162
6741.8946
6734.664
6718.8096
6674.6775
6615.7342
6836.6586
6431.1723
6202.742
6013.1021
5754.7044
5500.1466
5212.8675
4879.9433
4536.1242
4198.0934
3846.1781
3466.2331
3112.8064
2745.7195
2385.7501
2049.7482
1713.1788
1423.1421
1130.5575
897.17901
676.98399
505.59409
371.03256
275.14583
233.77943
205.46774
281.84611
332.45079
571.64668
885.28811
-1553.1443
-1601.2255
-1214.3336
-473.98488
-63.175471
-273.58623
-215.93378
282.51148
542.4219
1165.0464
1363.5464
2141.2546
2317.5812
3187.4768
3318.2594
4485.0902
4377.0742
7413.8248
8079.7435
8800.402
9315.9217
9877.5734
9800.8695
11035.608
10076.21
11004.168
9858.6425
8285.7769
1673.8535
359.44323
904.77288
538.40372
852.24249
699.48612
854.97807
817.10341
910.2211
1051.3488
1059.7317
1219.0041
1302.3856
1476.6026
1562.0477
1789.4376
1878.1579
2140.1034
2219.7652
2482.5376
2602.6151
2886.8735
3033.4664
3356.912
3492.1164
3762.1615
3958.2607
4164.066
4341.1765
4520.8504
4693.0729
4869.5881
4962.7134
5137.2627
5141.6002
5237.9535
5581.4503
5756.3088
5120.3638
4520.6429
4566.8544
4459.9957
4442.531
4393.0115
4358.2502
4293.7746
4256.2591
4177.6785
4138.2322
4090.9333
4065.4605
4038.9794
4059.3102
4063.8139
4128.398
4182.5528
4293.4905
4405.7104
4560.6083
4731.4992
4942.3489
5148.9012
5406.9536
5695.0605
5956.5345
6276.8871
6679.4685
6692.6765
7236.6706
7623.4015
7954.5646
7812.3583
7795.081
5705.9479
5628.5981
6062.0384
6330.7548
6862.802
7148.7374
7625.0569
7978.8717
8496.6972
8718.6194
9267.3672
9736.2113
9958.9324
10734.172
10745.924
11384.559
11806.243
12000.291
11517.29
11074.073
9081.8863
3173.2737
950.79424
311.52338
503.80796
325.79633
356.65884
364.87514
270.54296
286.80959
254.4862
256.83467
213.64124
364.81555
223.86133
485.57311
323.16834
634.1081
477.66793
859.4222
752.17322
1134.993
1084.2321
1440.2994
1448.1586
1770.1288
1794.1824
2159.9992
2196.4588
2532.4692
2660.9932
2940.6551
3105.1558
3298.2594
3505.0673
3663.6592
3801.2933
4063.1484
3737.9438
5859.8199
5723.1122
5562.0852
5552.0441
5571.7712
5505.9028
5492.8793
5374.0256
5251.5701
5085.8339
4920.4694
4718.496
4511.1547
4279.4578
4048.2292
3805.9991
3562.5529
3329.7325
3099.0289
2886.8354
2684.6408
2520.8279
2361.503
2233.1601
2171.4299
2069.1278
2077.7287
2073.6493
2141.5753
2182.6183
2289.1599
2517.7951
2661.6537
2958.8882
2551.0478
2636.1312
5998.3999
6479.3382
6624.3304
7151.7779
7464.6776
8022.1568
8238.2918
9007.5562
8912.1926
9935.258
9808.5401
10700.107
10892.16
11694.081
11839.068
12944.598
12526.474
13249.165
12141.732
12503.022
8934.8768
826.78015
830.19486
-50.621762
405.68034
-98.812591
163.86145
-99.976687
-30.492846
-194.27173
-180.0086
-278.43124
-295.59558
-344.62147
-371.87118
-330.23541
-417.13061
-270.12475
-363.90796
-201.78686
-303.06029
-56.493973
-140.81235
187.54856
98.089955
428.70123
479.39199
732.84405
853.50637
1127.0534
1242.1819
1534.356
1668.4785
1969.9185
2160.1116
2372.5173
2642.9529
2766.7283
3073.0899
2936.5949
3772.8084
3763.6689
3885.637
4014.511
4096.2262
4183.7734
4224.4647
4258.3323
4304.5754
4297.4501
4305.189
4278.7833
4271.264
4231.1586
4217.8706
4183.946
4178.4218
4157.5708
4175.2443
4187.7955
4236.0511
4278.4098
4391.5851
4474.8962
4616.1936
4798.2566
4966.6131
5210.9943
5428.3049
5738.806
6011.0814
6298.644
6713.0143
6960.4325
7329.4934
9502.7039
10426.07
10720.765
10961.044
11410.578
11617.292
12095.833
12215.065
12603.166
12952.461
12831.485
13588.993
13107.291
13836.707
13422.491
13849.782
13407.504
14062.191
13322.726
13356.337
10255.194
1997.3909
685.97918
29.512958
129.53833
-34.624047
-80.47061
-146.84831
-229.14673
-347.86296
-434.76497
-507.56607
-664.32219
-637.01133
-820.37517
-752.6784
-918.86131
-785.14463
-952.10988
-731.9896
-843.09389
-626.40086
-766.73154
-511.27483
-597.11676
-171.25355
-334.96943
123.30639
84.927912
468.58356
542.60868
891.86387
1032.3756
1360.2908
1509.6119
1841.9622
2032.7645
2306.977
2530.7978
2820.9383
3029.8067
3323.8969
3487.2389
3718.4605
3878.5692
4062.8168
4179.5819
4360.271
4471.4542
4616.2279
4727.4653
4860.6706
4965.3712
5091.5842
5205.5427
5331.1312
5459.1655
5595.9618
5751.0653
5905.587
6080.9818
6280.3397
6482.7534
6698.4376
6953.6776
7208.5228
7468.7657
7761.6298
8058.5043
8387.5521
8650.5579
9067.5536
9276.1247
9647.9417
10063.844
10206.94
10568.306
10793.586
11164.542
11395.545
11742.554
11860.796
12207.838
12258.34
12500.568
12450.917
12780.181
12403.68
12995.677
12407.779
13064.072
12493.258
13041.613
11553.786
12768.545
11132.881
4511.395
1064.8389
118.08516
410.65612
-47.460544
3.1960912
-229.64589
-216.66005
-526.65562
-565.06483
-799.33262
-926.03184
-1084.378
-1221.0114
-1299.7266
-1463.4244
-1450.8431
-1593.1275
-1549.2781
-1658.5084
-1525.8445
-1518.1769
-1140.6454
-1130.6151
-1011.6785
-942.90555
-703.53476
-661.76084
-359.76327
-277.39404
39.4605
186.81989
478.39189
703.02854
1000.9377
1206.8482
1544.6759
1754.1199
2068.6923
2305.4205
2581.9554
2864.2627
3115.0838
3424.2029
3676.5567
3987.1138
4235.8204
4520.369
4766.8646
5041.7341
5286.2203
5555.7751
5803.3596
6068.2804
6324.2492
6586.7856
6854.2521
7127.2742
7387.1162
7693.7375
7957.6965
8257.3335
8561.1706
8868.7415
9168.3478
9492.2776
9839.4925
10152.695
10479.599
10867.473
11146.782
11520.408
11915.442
12146.374
12610.011
12409.586
11943.906
12173.833
12427.375
12517.212
12861.111
12786.824
13087.803
13034.726
13053.572
13217.383
12710.347
13141.561
12097.925
12449.731
11414.773
11423.837
11107.282
12564.927
11371.648
7876.2167
1892.1575
857.32706
1084.1832
631.03567
763.84966
612.74157
561.7492
313.05956
218.56906
108.47872
-163.14506
-223.17503
-427.72875
-554.8653
-677.90345
-768.6626
-896.01902
-887.91693
-974.84767
-1014.5572
-1117.5454
-1141.7844
-1433.9871
-1243.129
-1280.1051
-1005.073
-1033.0888
-664.35563
-675.2169
-280.35739
-239.01626
137.61277
279.68163
576.22856
836.5948
1102.5419
1370.4084
1682.3034
1914.1091
2260.3708
2503.8032
2822.2764
3060.7764
3367.1175
3595.1873
3890.7374
4142.0554
4425.5126
4681.6805
4963.034
5224.4538
5494.5471
5767.3691
6036.71
6307.9084
6589.4643
6855.58
7143.8006
7428.4314
7693.6145
8002.8684
8281.3675
8557.8486
8860.5154
9159.9851
9432.5312
9698.5989
10033.913
10238.39
10551.125
10821.213
11010.43
11339.818
11954.666
8512.8831
3647.7434
3461.8763
3490.191
3679.824
3497.3245
3797.0095
3747.7669
3811.5853
4074.1627
3934.5516
4191.722
4297.9825
4128.1707
4816.0141
4039.0255
5377.5345
4817.1594
6304.0653
6502.4873
10542.938
1831.7968
1701.7138
1764.9509
1337.9036
1622.5539
1226.1399
1263.9737
940.03175
952.5651
662.63834
471.20334
328.60735
125.33433
-92.749464
-116.40944
-473.15203
-284.23119
-722.75699
-424.07878
-841.94247
-472.42459
-693.75945
-1142.8037
-1442.9491
-1335.469
-1402.5695
-1222.6959
-1196.5086
-1054.3587
-894.95563
-788.90924
-508.76849
-416.68822
-97.337244
41.988172
326.2486
560.97769
807.27972
1103.598
1335.162
1654.2844
1882.0142
2223.5523
2484.9861
2816.0729
3099.7347
3429.3638
3711.9249
4041.469
4341.9364
4660.0634
4970.6861
5294.2041
5603.8839
5926.8678
6241.8576
6560.0083
6878.5083
7188.6181
7502.7418
7823.9515
8105.8114
8425.9518
8731.4882
8994.6973
9294.1844
9592.8772
9821.6471
10118.541
10379.44
10575.336
10887.276
11082.325
11076.825
15719.549
7783.1334
7976.0381
8240.2963
8208.8704
8541.0698
8507.2972
8734.2471
8803.9026
8956.5288
8993.7988
9188.1381
9197.7215
9175.5098
9394.725
8997.2475
9315.238
8486.7572
9526.3677
9707.8293
14525.908
4972.2363
3043.3519
3572.4631
3285.9794
3475.1606
3153.8679
3172.3248
2892.4053
2778.9839
2494.5044
2237.1001
1946.1132
1740.9394
1270.1696
1149.4843
722.27359
562.13245
172.84271
98.460422
-290.06256
-255.46933
-545.2911
-376.02949
-869.31678
-974.17495
-1021.8351
-1062.0305
-970.75058
-1005.5253
-850.87999
-823.63074
-649.44412
-564.73419
-360.72979
-214.64609
37.020981
204.5641
490.53469
677.34185
989.42329
1203.5151
1532.8641
1770.2184
2093.0341
2353.4506
2666.8702
2957.4381
3259.703
3565.9825
3865.3991
4167.9735
4464.2885
4761.1856
5045.4777
5329.5235
5601.814
5869.7296
6119.5234
6369.0317
6606.7001
6817.9935
7038.2366
7237.6814
7414.776
7554.848
7784.1964
7861.3896
8073.9772
8204.2335
8278.3724
8455.3971
8518.3499
8614.632
8812.8032
8066.1993
10917.626
11887.119
11977.72
12104.189
12050.312
12043.823
12039.161
11837.382
11863.066
11466.649
11599.825
10872.616
11118.065
10461.307
10073.354
10013.759
8917.846
9135.4236
6981.4893
11711.291
7060.55
6182.1042
6311.1424
5854.3507
5933.8808
5570.8794
5772.2275
5267.4834
5349.6397
4935.4812
4654.5773
4358.8309
3872.8764
3478.5013
3149.0295
2551.3441
2344.3722
1706.7111
1552.153
887.85714
916.33316
139.32947
624.32409
22.601201
227.35387
-369.94512
-162.90748
-510.54267
-455.56851
-539.33183
-573.4898
-513.79859
-511.39848
-415.30435
-351.04575
-255.9883
-114.22764
-15.778725
189.09436
291.03013
529.88114
667.12707
896.89433
1079.4512
1305.1077
1501.7053
1738.4164
1933.756
2168.3156
2373.9249
2596.2412
2804.1436
3020.1193
3222.7381
3425.9134
3627.3104
3815.5693
4002.8469
4187.7717
4354.023
4520.8055
4689.471
4822.4822
4996.2619
5105.892
5321.6963
5343.565
5541.4914
5570.4604
5740.4215
5794.353
5986.361
6005.4281
6146.8932
6297.2823
6362.057
6465.2882
6644.6301
6631.0362
6804.7507
6870.9215
6947.7651
7083.6432
7146.5944
7311.0985
7398.1899
7495.6809
8036.3158
7576.8118
8740.281
8355.9834
8619.0141
7840.8233
4922.43
8865.7356
9831.7457
7848.2414
8179.6645
7656.8276
8229.9847
8149.2019
8295.1744
8311.0065
8335.4809
8121.4867
7901.2725
7575.3568
7308.3295
6818.9304
6549.0583
5912.7535
5677.539
5025.7928
4844.6504
4200.8442
4044.5356
3354.6968
3227.9156
2562.7626
2521.86
2035.8944
2000.5167
1628.7087
1559.9646
1351.6829
1277.9737
1171.1168
1121.397
1112.2124
1071.663
1091.3376
1119.1676
1199.9402
1231.3157
1366.4872
1442.2262
1581.1143
1691.3841
1837.2832
1969.0643
2111.564
2259.4611
2389.9752
2536.7195
2658.1537
2784.8347
2885.9816
2990.4054
3058.4645
3128.7264
3166.8335
3189.8018
3195.1724
3174.763
3142.8033
3081.6848
3022.8259
2914.6742
2842.5284
2664.92
2657.2
2404.9474
2498.6982
2244.052
2144.535
2150.4057
1982.1137
1995.7466
1936.553
1944.3034
1902.1802
1991.3121
2045.5293
2121.5938
2314.4653
2349.9162
2652.4466
2724.9738
3097.5748
3208.917
3648.736
3928.0829
4342.1652
4659.8321
5738.5503
5372.9429
7004.0155
6698.9764
4386.315
8702.1661
11883.964
8076.1808
9290.5148
7971.0412
9389.855
8579.7752
9342.7504
9303.4651
9351.6866
9317.4653
8979.8557
8888.307
8561.6553
8110.6346
8012.2461
7123.9532
7213.2257
6218.2163
6410.964
5371.1871
5694.1271
4484.9998
4828.7359
3648.5231
3959.3869
3045.9651
3209.0419
2535.6249
2576.5533
2201.0972
2104.5648
1834.9264
1743.2968
1548.2565
1390.9882
1276.4583
1276.8047
1113.7758
1125.6676
1025.8822
1019.1619
962.61611
959.31011
923.12329
923.62206
895.35121
900.41081
876.39201
877.81614
866.3002
855.61096
853.17081
846.46672
843.05092
845.63085
853.25089
865.61189
890.41327
923.64387
969.40172
1031.874
1112.7914
1208.937
1324.9589
1446.3924
1638.5041
1658.6236
2017.6955
2075.9541
2698.3434
2698.9048
3270.7516
3409.8399
3893.8289
4211.4483
4683.1899
5043.2403
5545.0837
6001.0115
6474.1392
6984.3888
7514.8814
8024.8548
8601.0746
9139.2396
9790.4246
10277.576
11043.145
11643.989
12309.909
13019.28
14230.743
14039.858
15683.055
15341.367
5103.0196
4845.4346
3698.2913
3394.2572
3325.102
3281.1991
3157.7167
3238.1341
3297.0776
3443.9455
3231.0684
3204.7081
3667.159
3863.7
5016.2174
2939.296
2236.2435
1686.9721
1710.6014
1404.484
1349.0765
1267.2395
1239.9931
1384.3039
1260.3013
1325.6991
1431.8796
1503.1942
1891.8223
2613.6824
1449.4002
673.51572
140.74548
42.036214
-145.87156
-166.30372
-178.83539
-258.98344
-236.30534
-214.89292
-123.77653
-139.71845
-20.883986
359.09342
1284.4881
1124.5975
798.38049
474.96014
265.14761
206.49983
138.57876
120.37005
71.710289
139.83927
137.26655
183.13255
200.39286
427.13672
564.76795
1065.0444
930.87959
590.10393
240.47161
138.84885
18.583903
-13.187017
-46.461133
-27.498143
-81.052706
-58.108158
-40.224987
40.155001
133.45302
245.13807
780.00588
1072.2512
716.63338
461.21939
418.28355
320.05059
283.53468
252.3241
250.73724
253.53288
265.36613
315.79411
323.63592
417.39866
571.20903
906.54099
740.59028
524.22801
349.28984
244.10758
210.83863
158.24492
142.18047
113.37607
115.02377
134.279
142.23748
217.49718
290.13623
479.52655
682.79072
787.30161
502.02701
315.97368
276.97954
206.75511
189.99135
170.63758
161.22344
191.61119
177.12204
229.55509
258.45054
342.84835
487.96692
786.82287
761.42453
534.59986
301.69749
226.45327
152.5949
107.03406
92.323683
102.22566
89.445517
150.34491
152.45167
261.79109
341.65934
652.44674
910.66785
1463.3371
1061.5471
639.35926
549.7371
408.07547
385.21952
367.38338
353.58929
377.21325
374.13872
541.43652
512.07008
840.49797
1341.5217
1637.7347
2056.2298
1705.0773
1032.0456
921.24884
673.16433
685.0161
587.36103
640.12844
610.74707
685.89641
825.74044
1021.262
1403.8539
2176.2976
2491.8177
4135.8814
2824.6317
2190.8274
1727.1225
1613.6816
1409.7245
1416.2396
1358.1726
1418.9188
1519.3984
1708.348
1695.0617
2517.5547
3540.1235
4197.6401
5199.8765
4661.9455
3236.7075
3067.023
2565.8937
2640.9758
2381.7967
2527.8141
2571.2696
2544.609
2844.1842
2988.8915
3676.3444
5206.0494
5459.646
7869.1794
6258.8139
4982.9847
4661.0723
4364.0773
4315.2235
4387.3697
4426.4022
4374.2523
4263.3891
4358.142
4523.3083
5021.2038
6268.3235
7090.3833
7925.8941
8033.624
6046.1791
5743.625
5257.95
5084.7579
5286.2048
5549.3391
5060.9497
5375.3207
5296.2698
5631.3301
6353.4263
7515.851
9330.9076
20024.102
18678.153
17601.299
18919.914
19459.141
19188.165
20372.179
21398.389
21155.957
21339.773
20898.529
19855.687
19782.711
20515.099
19159.383
14718.201
11280.849
12299.122
11237.652
11078.624
11589.682
11494.692
11909.813
12719.443
11433.77
11823.548
11146.735
11952.583
13724.067
14724.863
12585.552
13452.318
12428.499
12624.982
13443.357
11598
11653.997
11883.051
10595.831
12598.089
11919.917
14047.459
13658.855
12485.782
13667.103
10575.294
11845.673
11834.045
10434.209
10716.163
10735.048
10179.84
10534.372
10588.149
10266.319
11180.379
11315.22
11670.618
12683.818
10534.915
13963.182
14474.021
14287.988
15508.896
14268.133
14547.36
14985.395
14718.066
15179.441
15812.913
15248.251
15620.583
14921.104
14358.681
15139.469
11667.214
12688.58
12466.941
12419.131
12932.967
12808.468
12470.602
12472.623
12484.396
12231.433
13011.204
12988.164
12796.055
13491.984
11670.644
12921.282
13964.424
14189.711
14578.382
14327.464
14759.532
14755.114
14771.062
14888.323
14982.149
14531.185
14822.098
14611.592
13684.553
14525.865
12990.803
12949.41
13175.214
13574.677
13917.512
13591.163
13764.641
13964.003
13593.908
14240.381
14052.146
13960.962
13927.485
13002.02
13113.244
12675.957
13464.498
13864.068
14533.424
14255.458
14733.844
14681.411
14731.301
15099.96
14508.333
14648.744
14266.053
14169.335
13772.017
13528.801
12907.562
12582.185
12844.304
12937.418
13146.75
13053.927
13219.872
13318.464
12839.974
13755.449
12849.898
13429.773
12855.074
12808.489
12925.791
12273.054
12796.133
12952.675
13514.126
13682.957
14071.733
14066.866
14095.409
14291.729
13738.973
14418.258
13792.2
13863.234
13462.599
13619.116
12083.956
11907.561
12564.458
12525.092
12569.686
12613.509
12582.798
12590.023
12273.014
12604.036
12183.004
12308.207
12072.919
11883.341
12294.575
11856.019
11972.301
11617.31
12347.511
12393.745
12628.754
12870.495
12737.976
13060.715
12906.694
13076.926
12763.975
12762.553
12625.795
12566.473
11175.775
11342.904
11520.628
11496.698
11690.452
11915.405
11565.444
11864.525
11325.674
11326.589
11013.635
11134.191
10945.351
10763.185
11363.952
11050.545
10848.801
10990.571
11410.57
11507.789
11275.413
11321.814
11527.774
11941.447
11890.991
12249.064
11974.232
12092.182
12047.074
11948.654
10159.933
10460.473
10290.543
10867.439
10231.541
10980.015
10805.734
10602.099
10200.533
10307.913
9830.3803
9909.5452
9348.5525
9597.8976
10287.986
9847.3493
9658.2168
9908.8862
9883.7562
10500.212
10086.61
10311.903
10137.99
10586.559
10458.142
10899.913
10670.018
11216.587
10654.712
11123.728
9358.3956
9352.9558
9086.822
9095.456
9186.3514
9629.3826
9671.8447
9703.9333
9290.4892
9451.0763
9018.5745
9045.9774
8854.3833
8576.5412
9024.7735
8877.8221
8675.2421
8886.8792
9122.5859
9006.3156
8789.0803
8833.9366
8867.0221
9100.3112
8993.6372
9373.4363
9199.6528
9414.9499
9606.8678
9975.4971
7865.4808
8064.243
7937.1185
8209.6446
8171.9829
8690.2505
8170.5877
8407.3155
8337.5857
8436.1475
7921.8495
8304.2916
8033.088
7919.7392
8122.7263
8092.0622
7535.9066
7701.8974
7556.8042
7792.8257
7454.679
8002.4545
7768.8645
7803.3674
7597.9739
7852.9203
7714.73
8115.7575
8105.4218
8611.5709
6688.1992
7065.9445
6772.536
7217.094
6916.3106
7379.0361
6872.6001
7338.1581
7044.8446
7392.0978
7199.5256
7405.6787
7298.593
6776.3496
7470.8741
6993.3988
6261.3801
6560.5113
6365.4197
6695.3234
6384.037
6750.8396
6514.7007
6681.1534
6572.008
6700.0252
6407.3694
6387.2671
6620.7793
6821.8232
5812.6789
5972.9899
5737.9181
6146.1345
5864.4531
6163.2132
5871.8101
6022.1945
5953.8081
6075.8937
5896.1001
6245.4797
6277.3551
6040.6003
6464.6497
5747.71
5424.9333
5326.3648
5350.5567
5602.1801
5220.2338
5664.1719
5484.7327
5557.0914
5486.5942
5390.5319
5421.6447
5406.8008
5342.9858
5680.5339
4823.085
4962.3115
4886.3902
4894.1316
4766.0188
5067.6276
4800.9166
4982.0987
4872.0612
4951.8809
5221.0194
5062.1615
5148.0639
5187.955
5416.3807
4533.5519
4438.2052
4451.9121
4472.2499
4628.8338
4455.8349
4614.0101
4554.8752
4539.7662
4566.8067
4538.7771
4565.9865
4547.4427
4288.9237
4830.261
4000.0578
4035.131
3712.2443
4009.8279
4101.6221
3995.7555
4004.0686
3999.5562
4111.0171
4031.3348
4149.2705
3837.651
4196.8931
4255.1574
4386.699
3564.9421
3643.0862
3915.5749
3544.3019
3585.752
3547.8274
3676.4935
3643.4375
3762.5436
3670.7927
3754.9092
3804.7595
3683.9765
3441.7027
4008.7414
3399.7117
3094.3994
3050.6359
3277.8588
3241.3815
3253.1591
3298.2633
3230.385
3204.4698
3170.2873
3225.9085
3176.9714
3047.0224
3288.9526
3481.9129
2844.5121
2918.1837
2959.0848
2946.775
2880.8218
3136.7253
2943.4244
2845.9174
2692.0337
2901.5492
2981.3699
2903.2097
3072.0545
2792.9513
3180.7865
2681.4251
2604.6596
2571.7074
2588.4356
2625.6
2491.5223
2568.9719
2616.0006
2688.872
2619.0001
2527.0313
2622.3928
2585.3592
2590.1774
2940.7408
2438.2033
2310.417
2349.6896
2387.7993
2403.9383
2317.2939
2406.4363
2283.9019
2419.4066
2330.5069
2441.9358
2345.712
2414.4321
2302.2257
2645.0483
2262.7874
2117.7363
2131.0271
2046.2527
2148.5107
2160.134
2124.832
2180.6414
2110.5039
2156.6158
2088.8726
2178.8402
2118.3712
2123.2657
2463.5446
1959.9642
1949.3945
2116.9116
2232.4439
2095.9943
1971.6357
2052.838
1989.4761
2049.7555
2124.4346
2123.4895
2040.4902
2113.6154
2062.8212
2352.0482
2133.5497
1962.5296
1831.9968
2148.5568
1798.9939
1837.8604
1906.5726
1815.2982
2027.7921
1539.384
1912.1682
1818.9963
1951.6036
1708.9516
2236.5197
2252.637
1574.8329
1765.1039
1520.3255
1898.1894
1652.1319
1856.1444
1668.6431
1763.9547
1452.9916
1670.0683
1839.5268
1717.508
1816.1036
2026.8255
1712.6777
1802.7006
1866.8433
1902.6381
1781.7512
1847.6657
1773.4512
1811.9168
1794.8965
1944.3975
1858.027
1716.5683
1853.9685
1648.5658
2091.8195
2107.6516
1716.705
1908.5149
1758.6181
1954.7625
1742.0262
1911.6878
1760.1522
1843.4131
1814.1491
1803.8792
1889.1127
1807.972
1748.0581
2199.6818
2080.1213
1879.8681
1955.2084
1975.7464
1947.6387
1915.3518
1946.1016
1861.1323
1960.9923
1850.6449
1933.5206
1869.9205
1893.5815
1837.9118
2236.2242
2333.1395
1968.5221
2185.4125
2022.2352
2174.6269
1999.075
2117.9454
2019.7269
2069.642
2043.4816
2044.0243
2046.2336
2072.5506
1949.9973
2412.8166
2499.0428
2204.5694
2320.2814
2279.097
2336.2503
2216.8704
2329.9087
2177.2205
2298.6883
2207.0867
2232.4481
2261.4173
2226.4137
2155.8613
2628.7719
2837.0496
2396.8744
2658.8061
2498.4578
2623.4182
2472.847
2569.0856
2460.2444
2541.2795
2464.1725
2511.0464
2486.7538
2494.182
2401.5542
2896.2937
3119.7952
2742.416
2934.4663
2797.7706
2911.6171
2743.1615
2883.1613
2738.6016
2827.4188
2780.7023
2770.2524
2806.6804
2782.5348
2696.186
3217.593
3563.5107
3064.7961
3343.9568
3165.7546
3286.2085
3132.2344
3266.2352
3106.2036
3220.6366
3130.5756
3152.8142
3169.9268
3140.6061
3055.953
3601.9964
3975.607
3487.7807
3761.2011
3545.8309
3680.7241
3514.9719
3653.2141
3505.3691
3592.066
3547.6714
3535.3182
3576.8689
3538.6551
3462.6245
4033.8072
4498.064
3942.5503
4245.6194
4021.656
4176.6474
4001.961
4169.4471
3973.5508
4097.9381
4022.5225
4005.3394
4052.5331
3999.1152
3919.765
4514.3856
5050.1393
4456.3625
4785.0908
4528.5408
4668.2318
4493.9623
4643.3922
4465.2039
4579.1043
4515.4624
4496.1928
4561.0144
4496.8644
4434.0756
5056.9785
5647.1047
5016.7345
5366.228
5078.4737
5260.5442
5076.7178
5269.9492
5057.2602
5183.0414
5106.7773
5079.2368
5134.5678
5061.249
4991.7711
5636.2915
6313.4103
5638.1266
5997.3541
5705.08
5872.3035
5677.5128
5847.2156
5621.3136
5755.7136
5683.0273
5654.0176
5725.8508
5655.1064
5589.2144
6271.1837
7004.4807
6282.1786
6680.7534
6346.1062
6539.6152
6339.8727
6547.2946
6316.8381
6463.6165
6371.2401
6338.5561
6399.7603
6313.2967
6241.8994
6943.0882
7748.806
7003.3966
7395.7189
7053.2959
7256.3908