/*--------------------------------*- C++ -*----------------------------------*\
  =========                 |
  \\      /  F ield         | OpenFOAM: The Open Source CFD Toolbox
   \\    /   O peration     | Website:  https://openfoam.org
    \\  /    A nd           | Version:  6
     \\/     M anipulation  |
\*---------------------------------------------------------------------------*/
FoamFile
{
    version     2.0;
    format      ascii;
    class       pointVectorField;
    location    "1.4";
    object      u;
}
// * * * * * * * * * * * * * * * * * * * * * * * * * * * * * * * * * * * * * //

dimensions      [0 1 0 0 0 0 0];

internalField   nonuniform List<vector> 
28033
(
(0 0 0)
(0 0 0)
(0.95919493 0.035078896 0.0093537477)
(0.92998843 -0.20413008 0.0096762406)
(0 0 0)
(0 0 0)
(0.92906464 -0.20561403 0.0096626262)
(0.95829342 0.033539041 0.0089756501)
(0 0 0)
(0 0 0)
(0 0 0)
(0 0 0)
(0 0 0)
(0 0 0)
(0 0 0)
(0 0 0)
(0 0 0)
(0 0 0)
(0 0 0)
(0 0 0)
(0 0 0)
(0 0 0)
(0 0 0)
(0.957169 0.01957257 0.0091149618)
(0.95512083 0.0044886127 0.0091245695)
(0.95310176 -0.010461899 0.0090973523)
(0.9511711 -0.025337233 0.0091497967)
(0.94927387 -0.040136304 0.0092091439)
(0.94740983 -0.054885394 0.0092946538)
(0.94559381 -0.069604926 0.0093927982)
(0.94380994 -0.084315976 0.0095045406)
(0.94205771 -0.099030883 0.009607214)
(0.94032743 -0.11378226 0.0097165116)
(0.93862379 -0.12856344 0.0097988838)
(0.93692127 -0.14342557 0.0098540025)
(0.93524949 -0.15835385 0.0098939215)
(0.93352744 -0.17340747 0.0099041442)
(0.93185227 -0.18860273 0.0098318292)
(0.0021869618 0.0037201849 0.0038569592)
(0.0026139976 0.005520516 0.0053386991)
(0.0032900289 0.0076026292 0.0064410945)
(0.0043902038 0.0096714104 0.0071237101)
(0.0056346664 0.011875111 0.0075769147)
(0.0073268602 0.014048101 0.007875845)
(0.009285306 0.016344365 0.0080690128)
(0.011597384 0.018508197 0.0081700554)
(0.014207712 0.020817964 0.0082357206)
(0.017156173 0.022973314 0.0082559893)
(0.020354218 0.025202653 0.0082706047)
(0.023891821 0.02733109 0.0082295339)
(0.027665891 0.029480359 0.0082501508)
(0.031795956 0.031548176 0.0081840639)
(0.036095519 0.033587799 0.0082101545)
(0.040758319 0.035571736 0.008135023)
(0.045615654 0.037528427 0.0081634424)
(0.05079091 0.039405502 0.0081113541)
(0.056157701 0.041251429 0.0081299921)
(0.061829944 0.043033701 0.0080907829)
(0.067699847 0.044770503 0.0081156819)
(0.073845465 0.046440322 0.0080873675)
(0.080201988 0.048068813 0.0081116683)
(0.086807789 0.049631418 0.0081065146)
(0.093620868 0.051139094 0.0081260243)
(0.10067531 0.052598142 0.0081329003)
(0.10792809 0.05398947 0.0081588566)
(0.11540945 0.055337603 0.008178987)
(0.12309252 0.056616409 0.008203563)
(0.13098428 0.057850256 0.0082332961)
(0.13907767 0.059020339 0.0082648887)
(0.14736696 0.060137329 0.0082960277)
(0.15585392 0.061200028 0.0083339982)
(0.16453237 0.062200981 0.0083693083)
(0.17339403 0.063152654 0.0084072394)
(0.18244922 0.064044586 0.0084401996)
(0.19167715 0.064881214 0.008480561)
(0.20109129 0.065663081 0.0085182706)
(0.21066894 0.066382956 0.008547891)
(0.22042752 0.067057273 0.0085820884)
(0.23034327 0.06766447 0.0086124458)
(0.24042609 0.068229185 0.0086426856)
(0.25066737 0.068729582 0.0086669722)
(0.26106611 0.069183887 0.0086932535)
(0.27161058 0.069577985 0.0087153303)
(0.28230728 0.069925979 0.0087367789)
(0.29314092 0.070219768 0.0087572432)
(0.30411918 0.070465514 0.0087760852)
(0.31522671 0.070662871 0.0087953108)
(0.32647125 0.070813632 0.0088142361)
(0.33783938 0.070920173 0.0088334817)
(0.3493366 0.070982234 0.0088541365)
(0.36095355 0.071005196 0.0088756526)
(0.37269285 0.070985364 0.0088993411)
(0.38454909 0.070930982 0.0089245511)
(0.39652253 0.070836857 0.0089528429)
(0.40861096 0.07071028 0.008982866)
(0.42081369 0.070548127 0.0090163505)
(0.43312962 0.070354904 0.0090519699)
(0.44555852 0.070127745 0.0090913084)
(0.45809999 0.06987221 0.0091321611)
(0.47075435 0.069582713 0.0091770775)
(0.48351913 0.069266522 0.0092235229)
(0.49640077 0.06891356 0.009271562)
(0.50938958 0.06853684 0.0093247085)
(0.52249317 0.068124069 0.0093751099)
(0.53571225 0.067676647 0.0094273732)
(0.54904028 0.06719747 0.0094814555)
(0.56248181 0.066683303 0.0095342346)
(0.57603145 0.066133877 0.0095866638)
(0.58969809 0.065545178 0.0096380745)
(0.6034658 0.064914687 0.0096904861)
(0.61735382 0.064250316 0.0097321115)
(0.63133707 0.063529463 0.0097801249)
(0.64543707 0.062787699 0.0098115137)
(0.65963212 0.061964546 0.0098538482)
(0.67393211 0.061140688 0.0098706844)
(0.68833128 0.060210827 0.0099044754)
(0.70281834 0.05929336 0.0099071533)
(0.7174065 0.058260898 0.0099284517)
(0.73207094 0.057234153 0.0099157179)
(0.74682406 0.05610337 0.0099251668)
(0.76165356 0.054959203 0.0098976573)
(0.77654925 0.053726395 0.0098911917)
(0.79151786 0.052465124 0.0098586162)
(0.80653731 0.051137949 0.0098327106)
(0.82162432 0.049743944 0.0097951175)
(0.8367381 0.048316925 0.0097634504)
(0.85191446 0.046817848 0.0097113768)
(0.86709703 0.045289915 0.0096796861)
(0.88232978 0.043664836 0.0096468967)
(0.89756662 0.042107665 0.0095836783)
(0.9128266 0.040367172 0.0096051383)
(0.92814162 0.038724063 0.0095487629)
(0.94343739 0.037026165 0.0095767973)
(0.00095845476 -0.0036573455 -0.004432218)
(0.0018736985 -0.0050899954 -0.005002848)
(0.0023509393 -0.0070566012 -0.0065782532)
(0.0030725083 -0.0088362124 -0.0069920576)
(0.004324813 -0.010822982 -0.0075578581)
(0.0058026634 -0.013012797 -0.007728582)
(0.0076214228 -0.014939472 -0.0079170238)
(0.0097563435 -0.017164695 -0.0078786072)
(0.012241606 -0.019236614 -0.0078720619)
(0.014958063 -0.021394382 -0.0077525074)
(0.018033807 -0.023521616 -0.0076323015)
(0.021322014 -0.025661796 -0.0074675659)
(0.02493762 -0.02779264 -0.0072882866)
(0.028778165 -0.029933099 -0.0071058847)
(0.032908763 -0.032038459 -0.0068985238)
(0.037271173 -0.034182059 -0.0066997706)
(0.041899934 -0.036258075 -0.0064823125)
(0.046762892 -0.038387649 -0.0062652452)
(0.051871041 -0.040459992 -0.0060487775)
(0.057232517 -0.04256975 -0.0058210682)
(0.06280522 -0.044627194 -0.0055944432)
(0.06863299 -0.046731354 -0.0053686692)
(0.074654188 -0.048763978 -0.0051379137)
(0.080931109 -0.050857159 -0.0049030273)
(0.087386552 -0.052881154 -0.0046746733)
(0.09410774 -0.054963333 -0.0044268018)
(0.10099039 -0.056990571 -0.0042072181)
(0.10812772 -0.059053729 -0.003955146)
(0.1154296 -0.061087234 -0.0037317002)
(0.12296715 -0.06313313 -0.0034809076)
(0.13067252 -0.065175524 -0.003251081)
(0.13859985 -0.067212909 -0.0030070168)
(0.14669555 -0.069258036 -0.0027717325)
(0.15500038 -0.071294287 -0.0025293763)
(0.16347697 -0.073343058 -0.0022915867)
(0.17214624 -0.075379006 -0.0020539317)
(0.18098895 -0.077425076 -0.0018092501)
(0.19001206 -0.079469013 -0.0015734544)
(0.19920595 -0.081515731 -0.0013334916)
(0.20857256 -0.083561387 -0.0010973146)
(0.21810471 -0.085610547 -0.00086115465)
(0.22779907 -0.0876575 -0.0006288743)
(0.23765376 -0.089707688 -0.00039784125)
(0.24766255 -0.091756438 -0.00017208668)
(0.25782242 -0.093806431 5.040184e-05)
(0.26813071 -0.095856783 0.00026753139)
(0.27857996 -0.097906699 0.00047838763)
(0.28917092 -0.099958058 0.00068364452)
(0.29989522 -0.10200956 0.00088101623)
(0.31075304 -0.10406214 0.0010715357)
(0.32173827 -0.10611677 0.0012537812)
(0.33284993 -0.10817338 0.0014281538)
(0.3440832 -0.11023271 0.0015942616)
(0.3554382 -0.11229661 0.0017525824)
(0.36690997 -0.11436472 0.0019028885)
(0.37849937 -0.11643851 0.0020462293)
(0.39020364 -0.11852002 0.002182898)
(0.40202223 -0.12060848 0.002313744)
(0.41395422 -0.12270649 0.0024396706)
(0.42600028 -0.12481481 0.0025620319)
(0.43815859 -0.12693378 0.0026813192)
(0.45043093 -0.129065 0.0027993732)
(0.46281672 -0.13120933 0.0029169311)
(0.4753166 -0.13336697 0.0030354943)
(0.48793073 -0.13553861 0.0031557258)
(0.50066079 -0.13772582 0.0032798626)
(0.51350521 -0.13992623 0.0034068641)
(0.52646588 -0.14214212 0.0035400913)
(0.53954014 -0.14437056 0.0036745823)
(0.5527298 -0.14661021 0.0038245368)
(0.56604125 -0.14887525 0.0039743372)
(0.57945856 -0.15113543 0.0041330397)
(0.59299831 -0.15342147 0.0043000951)
(0.60664512 -0.15570612 0.0044730573)
(0.62040984 -0.15800707 0.0046566462)
(0.63427913 -0.16030744 0.0048432509)
(0.64826162 -0.1626171 0.0050422918)
(0.66234811 -0.16492439 0.0052437144)
(0.6765395 -0.1672348 0.0054562919)
(0.69083101 -0.16953835 0.0056717099)
(0.70522152 -0.17184017 0.0058963828)
(0.71970537 -0.17412934 0.0061243798)
(0.73427947 -0.17641059 0.0063598212)
(0.74894073 -0.17867463 0.0065987303)
(0.76368034 -0.18092247 0.006841838)
(0.77849887 -0.18315046 0.0070896054)
(0.79338424 -0.18535335 0.0073387443)
(0.80833585 -0.1875312 0.0075891491)
(0.82334241 -0.18968272 0.0078428837)
(0.83840361 -0.19180134 0.0080931459)
(0.85350251 -0.19388978 0.0083425492)
(0.86865141 -0.19595388 0.0085887002)
(0.88382485 -0.19799563 0.0088425974)
(0.89907036 -0.20000317 0.0090691012)
(0.91436335 -0.20207107 0.0093476672)
(0 0 0)
(0 0 0)
(0 0 0)
(0 0 0)
(0 0 0)
(0 0 0)
(0 0 0)
(0 0 0)
(0 0 0)
(0 0 0)
(0 0 0)
(0 0 0)
(0 0 0)
(0 0 0)
(0 0 0)
(0.0021518778 -0.0016020317 0.0032913282)
(0.0024822987 -0.0061565354 0.0051067125)
(0.0024769994 -0.0064475198 0.0061289959)
(0.0035147019 -0.0096674769 0.0071347232)
(0.0045199738 -0.011053904 0.0076068937)
(0.0061137588 -0.013571684 0.0078530157)
(0.0078760994 -0.015457274 0.008081293)
(0.010058004 -0.017888937 0.0081589108)
(0.012513376 -0.019911688 0.0082305246)
(0.015212363 -0.022271269 0.0082157295)
(0.018316082 -0.024403348 0.0082478444)
(0.021538472 -0.026630615 0.0081802887)
(0.025186256 -0.028893323 0.0082022417)
(0.028949995 -0.031001587 0.0081183962)
(0.033116231 -0.033343952 0.0081389187)
(0.037407084 -0.035355287 0.0080777004)
(0.042043717 -0.037703444 0.0080889867)
(0.046864138 -0.03968919 0.0080141919)
(0.051957698 -0.042011662 0.008039896)
(0.057287818 -0.044013818 0.0079874029)
(0.062829856 -0.046236724 0.0080010276)
(0.068637425 -0.048326168 0.0079765812)
(0.074638269 -0.050450389 0.0079964323)
(0.080887004 -0.052558045 0.0079889729)
(0.087332799 -0.054629001 0.0079972904)
(0.094015591 -0.056756094 0.0080119118)
(0.1008896 -0.058795354 0.0080252989)
(0.10798283 -0.060914246 0.0080494428)
(0.11527923 -0.062944298 0.0080701609)
(0.12276606 -0.065042314 0.0081059982)
(0.13046789 -0.067073188 0.0081307212)
(0.13835 -0.069148721 0.0081709617)
(0.14643455 -0.071182777 0.0082042217)
(0.15469931 -0.073242471 0.0082445863)
(0.16316092 -0.075276627 0.0082839169)
(0.17179378 -0.07731632 0.008321815)
(0.1806138 -0.079362217 0.0083648954)
(0.18961169 -0.081392667 0.0084038318)
(0.19878148 -0.083425776 0.0084439898)
(0.20812389 -0.085454358 0.0084803926)
(0.21763407 -0.087483088 0.0085169181)
(0.22730717 -0.089506903 0.0085514369)
(0.23714225 -0.091531411 0.008583654)
(0.24713318 -0.093551728 0.0086154947)
(0.25727693 -0.095572059 0.0086445073)
(0.2675701 -0.097590909 0.0086740055)
(0.27800761 -0.099608821 0.0087012014)
(0.28858666 -0.10162741 0.0087293527)
(0.29930271 -0.10364641 0.0087566015)
(0.31015241 -0.10566726 0.0087853443)
(0.3211318 -0.10769078 0.0088148993)
(0.33223874 -0.10971806 0.0088454777)
(0.34346913 -0.11175066 0.0088790702)
(0.35482112 -0.11378847 0.0089134724)
(0.36629228 -0.11583576 0.008951902)
(0.37788071 -0.11788943 0.008991377)
(0.38958436 -0.11995568 0.0090354168)
(0.40140322 -0.12203169 0.0090807522)
(0.41333456 -0.12412113 0.0091301772)
(0.42537978 -0.12622405 0.0091816607)
(0.43753666 -0.12834167 0.0092361506)
(0.4498067 -0.13047445 0.009292776)
(0.46218854 -0.13262368 0.0093519275)
(0.4746836 -0.13478872 0.0094124088)
(0.48729126 -0.13697042 0.009474513)
(0.50001243 -0.13916913 0.0095376685)
(0.51284807 -0.14138414 0.0096001908)
(0.52580122 -0.14361758 0.0096645353)
(0.53884873 -0.14584276 0.0097261459)
(0.55204058 -0.1481239 0.009786429)
(0.56532698 -0.15038583 0.009849439)
(0.57873239 -0.15266891 0.0099051103)
(0.59225238 -0.15496127 0.0099585613)
(0.60588353 -0.1572615 0.010009957)
(0.61962695 -0.15956719 0.01005452)
(0.63348187 -0.16187796 0.010095502)
(0.64744478 -0.16419015 0.010129681)
(0.66151602 -0.16650254 0.010158361)
(0.67569148 -0.16881263 0.010179794)
(0.6899695 -0.17111708 0.010194657)
(0.70434691 -0.17341509 0.010201226)
(0.71882036 -0.17570276 0.010201717)
(0.73338509 -0.17797749 0.010193377)
(0.74803846 -0.18023797 0.01017912)
(0.76277358 -0.18247911 0.010157183)
(0.77758644 -0.18470149 0.010130977)
(0.79247038 -0.18689771 0.010097178)
(0.80742024 -0.18907262 0.010063127)
(0.82242645 -0.19121405 0.010022766)
(0.83748779 -0.19333367 0.0099857915)
(0.8525883 -0.19541421 0.0099442625)
(0.86773785 -0.19748027 0.0099124451)
(0.88291052 -0.19950809 0.0098709443)
(0.89816414 -0.20153679 0.0098447398)
(0.91341593 -0.20359952 0.0097867153)
(0.93097234 -0.19008802 0.0094638021)
(0.93264688 -0.17494688 0.0093208403)
(0.93433517 -0.15984646 0.0092665528)
(0.93602767 -0.14494551 0.0092125913)
(0.93772062 -0.13007201 0.0092297711)
(0.93942299 -0.11529872 0.0092311676)
(0.94115323 -0.10055004 0.0092810322)
(0.9428994 -0.085827968 0.0093157696)
(0.94469825 -0.071128681 0.0093541658)
(0.94649885 -0.056399992 0.0093927598)
(0.94837258 -0.04165396 0.0094043151)
(0.95025771 -0.026856496 0.0094012091)
(0.95221096 -0.011997827 0.0093823764)
(0.9541491 0.0029786478 0.0093118278)
(0.95627204 0.018002108 0.0092150036)
(0.94259316 0.035487139 0.0085653223)
(0.92720833 0.037137707 0.0083426055)
(0.91193284 0.038852853 0.0080977304)
(0.89666583 0.040518091 0.0078712938)
(0.88142759 0.042146808 0.0076205559)
(0.86620916 0.043730152 0.0073752842)
(0.85101797 0.045264724 0.0071273017)
(0.83585651 0.046751285 0.0068751284)
(0.82073719 0.048179395 0.0066291789)
(0.8056617 0.049560453 0.0063794006)
(0.79064 0.05088086 0.006137371)
(0.77567704 0.052151993 0.0058949754)
(0.76077757 0.053365418 0.0056592293)
(0.74595169 0.054527403 0.0054252143)
(0.73120153 0.055635762 0.0051989287)
(0.71653397 0.056693387 0.0049770011)
(0.70195386 0.057699157 0.0047642023)
(0.68746373 0.058655311 0.0045559683)
(0.67306894 0.059564462 0.0043563573)
(0.65877322 0.060424022 0.0041638332)
(0.64457814 0.06124093 0.0039791909)
(0.63048886 0.062009884 0.0038026215)
(0.61650454 0.062740082 0.0036333753)
(0.60263154 0.063423342 0.0034728511)
(0.58886472 0.064071993 0.0033196502)
(0.57521603 0.064677778 0.0031733572)
(0.56166082 0.065254558 0.0030352983)
(0.54827677 0.065749441 0.0029213357)
(0.53493797 0.066274043 0.0027825172)
(0.52175393 0.066718351 0.0026706229)
(0.50866967 0.067144131 0.0025527939)
(0.49570371 0.067531537 0.0024439042)
(0.48285045 0.067884355 0.002335854)
(0.47011106 0.068203155 0.002229093)
(0.45748445 0.068487651 0.0021226149)
(0.44497035 0.068737785 0.0020148095)
(0.43256864 0.068953031 0.00190429)
(0.42027926 0.069132992 0.001790563)
(0.40810231 0.069277017 0.0016719511)
(0.39603832 0.069384029 0.0015478734)
(0.38408799 0.069453419 0.0014172758)
(0.37225267 0.069483725 0.0012800086)
(0.36053354 0.069474102 0.0011347423)
(0.34893289 0.069423016 0.0009821738)
(0.33745266 0.069329557 0.00082126527)
(0.32609586 0.069191967 0.00065272682)
(0.31486513 0.069009668 0.00047621978)
(0.30376423 0.068780642 0.00029254211)
(0.29279632 0.068504662 0.00010155483)
(0.28196571 0.068180046 -9.5531516e-05)
(0.27127618 0.067805947 -0.0002985981)
(0.26073138 0.067382648 -0.00050716108)
(0.25033725 0.066906774 -0.00071927962)
(0.24009535 0.066382163 -0.00093715115)
(0.23001248 0.065803365 -0.0011563089)
(0.22009299 0.065174059 -0.0013784528)
(0.21033489 0.064496437 -0.0016040405)
(0.20074818 0.063756333 -0.001830795)
(0.19134716 0.06296986 -0.0020538755)
(0.1821062 0.062138258 -0.0022858087)
(0.17305143 0.061240439 -0.0025153961)
(0.16419537 0.060297899 -0.0027426041)
(0.15551209 0.059303859 -0.0029682232)
(0.14702343 0.0582611 -0.0032032119)
(0.13872666 0.057149312 -0.0034295719)
(0.13064408 0.056006254 -0.0036631413)
(0.12274409 0.054790332 -0.0038829888)
(0.11507142 0.053544603 -0.0041177051)
(0.10758614 0.052216424 -0.004337973)
(0.10033328 0.050875995 -0.0045752131)
(0.093282533 0.049438706 -0.0047902593)
(0.086462665 0.047981309 -0.0050230427)
(0.079873172 0.046439194 -0.0052364828)
(0.0735067 0.044893021 -0.0054634611)
(0.067371088 0.043238494 -0.0056818835)
(0.061493267 0.041575241 -0.0058866853)
(0.055833082 0.039836357 -0.0061184178)
(0.050450745 0.038050383 -0.0062972393)
(0.045293005 0.036240421 -0.0065366147)
(0.040423123 0.034325771 -0.0066998866)
(0.035809634 0.032448042 -0.0069205105)
(0.031439751 0.030414694 -0.0070591584)
(0.027364657 0.028480033 -0.0072842942)
(0.023571951 0.026328737 -0.0073859281)
(0.020061991 0.024373526 -0.0075847853)
(0.016835987 0.022148154 -0.0076475547)
(0.013929539 0.020091902 -0.0077549307)
(0.011323672 0.017857519 -0.0077482716)
(0.0090167163 0.015774411 -0.0077468226)
(0.0070633408 0.013568109 -0.0075976493)
(0.0054341484 0.01143077 -0.0073229886)
(0.0041868804 0.0092225847 -0.0068835242)
(0.0032802136 0.0073873001 -0.0062409393)
(0.0025359703 0.0051560404 -0.004940942)
(0.0031170634 0.0033434434 -0.0028726568)
(0 0 0)
(0 0 0)
(0 0 0)
(0 0 0)
(0 0 0)
(0 0 0)
(0 0 0)
(0 0 0)
(0 0 0)
(0 0 0)
(0 0 0)
(0 0 0)
(0 0 0)
(0 0 0)
(0 0 0)
(0 0 0)
(0 0 0)
(0 0 0)
(0 0 0)
(0 0 0)
(0 0 0)
(0 0 0)
(0 0 0)
(0 0 0)
(0 0 0)
(0 0 0)
(0 0 0)
(0 0 0)
(0 0 0)
(0 0 0)
(0.92999729 -0.20440262 0.0096569867)
(0.92996877 -0.20460022 0.0096379678)
(0.92992721 -0.20475368 0.0096202953)
(0.92989363 -0.2049019 0.0096164831)
(0.92985673 -0.20503527 0.0096179616)
(0.92981744 -0.20515635 0.0096342221)
(0.92977039 -0.20526645 0.009649093)
(0.92971797 -0.20536548 0.0096750433)
(0.92965861 -0.20545784 0.0096934016)
(0.92958932 -0.20553676 0.0097126431)
(0.92952578 -0.20561753 0.0097268001)
(0.92944198 -0.20566413 0.0097290379)
(0.92936805 -0.20571817 0.0097237627)
(0.92928783 -0.2057387 0.0097097364)
(0.92921579 -0.20576159 0.009681546)
(0.95932541 0.035158121 0.0093377769)
(0.95931991 0.035109526 0.0093529512)
(0.95930604 0.035065496 0.0093303103)
(0.95929855 0.035006261 0.0093099087)
(0.95926502 0.034928857 0.0092847726)
(0.9592335 0.034845605 0.0092428656)
(0.95919089 0.034760288 0.0092035405)
(0.95913831 0.034665155 0.0091558858)
(0.95907622 0.034568289 0.0091106023)
(0.95900326 0.034465951 0.0090692396)
(0.95892256 0.034354259 0.0090312492)
(0.9588312 0.03423764 0.0090013044)
(0.95874032 0.034115945 0.0089947698)
(0.95863141 0.033949726 0.0089604696)
(0.9585489 0.03383915 0.0089740332)
(0.00083624359 0.00053150024 0.0038890015)
(0.0010960315 2.2005236e-05 0.0045127822)
(0.0013410167 -0.00028161573 0.0056375996)
(0.0020985105 -0.00064043362 0.0060738136)
(0.0028351223 -0.00099674871 0.0066128848)
(0.0041499744 -0.0012344967 0.0068573618)
(0.0055890579 -0.0014507411 0.0070667505)
(0.0075324145 -0.0015067854 0.0071826994)
(0.0095986545 -0.0015811045 0.0072691059)
(0.012138431 -0.0014680065 0.0073172325)
(0.014857344 -0.0013921457 0.0073199446)
(0.017979109 -0.0011088876 0.0073587218)
(0.02130951 -0.00088250461 0.0073251489)
(0.025002166 -0.00043348138 0.0073450792)
(0.028904626 -2.9865503e-05 0.0073194971)
(0.033184845 0.00058086905 0.0073343212)
(0.037686371 0.0011780225 0.0073022591)
(0.042477376 0.0019440066 0.0073270115)
(0.047564931 0.0027564113 0.007307883)
(0.052927099 0.0036937084 0.0073223098)
(0.058551905 0.0047080789 0.0073244819)
(0.064460007 0.0058268814 0.0073439071)
(0.070643351 0.0070482043 0.0073455259)
(0.077071312 0.0083591401 0.0073745733)
(0.083789583 0.0097756232 0.0073881491)
(0.090753462 0.011280218 0.0074178178)
(0.097986847 0.012887187 0.0074426063)
(0.10546424 0.014578241 0.0074771346)
(0.11320627 0.016363948 0.007510167)
(0.12119022 0.018232758 0.0075490447)
(0.12942159 0.02018259 0.0075879577)
(0.13789771 0.022210961 0.0076301677)
(0.14661217 0.024311044 0.0076753997)
(0.15555529 0.026474149 0.0077209497)
(0.16473846 0.028704568 0.0077657445)
(0.17414017 0.030977451 0.0078151843)
(0.18376957 0.033308132 0.0078605825)
(0.19360904 0.035671786 0.0079043012)
(0.20366716 0.038070572 0.0079505994)
(0.2139288 0.040493441 0.0079934769)
(0.22439236 0.04293165 0.0080364881)
(0.23504599 0.045372228 0.0080744126)
(0.24589137 0.047823986 0.0081133323)
(0.25691768 0.050255184 0.0081476699)
(0.2681138 0.052677858 0.0081812273)
(0.27947992 0.055072501 0.0082138368)
(0.29100328 0.057433642 0.0082427071)
(0.30267931 0.059754441 0.008273682)
(0.31449955 0.06202566 0.0083013262)
(0.32645822 0.06423915 0.0083306613)
(0.33854668 0.066389156 0.0083587107)
(0.35076011 0.068465021 0.008389127)
(0.36309074 0.070462861 0.0084186322)
(0.37553407 0.07237163 0.0084514387)
(0.38808323 0.074188094 0.0084844268)
(0.40073432 0.07590075 0.0085206755)
(0.41348198 0.077507599 0.0085580089)
(0.42632234 0.078997114 0.0085986)
(0.43925111 0.080366277 0.0086410231)
(0.45226538 0.081606431 0.0086862097)
(0.46536183 0.082712859 0.0087332926)
(0.47853661 0.083677874 0.0087833069)
(0.49178894 0.084497513 0.0088344377)
(0.50511539 0.085162743 0.0088890651)
(0.51851079 0.085676885 0.0089419943)
(0.53198189 0.086020012 0.0089984187)
(0.54552124 0.086203568 0.0090561497)
(0.55911821 0.086215563 0.0091148168)
(0.57278139 0.086051318 0.0091743544)
(0.58650676 0.085709482 0.0092300568)
(0.60029226 0.085191273 0.0092851564)
(0.61413217 0.084487801 0.0093379761)
(0.62803209 0.083607531 0.0093870943)
(0.64197832 0.082536146 0.0094361641)
(0.65598271 0.08129278 0.0094781794)
(0.67002852 0.079849872 0.0095204448)
(0.68412498 0.078250177 0.0095521385)
(0.69826269 0.076438607 0.0095880632)
(0.71243919 0.074491212 0.0096060286)
(0.72665852 0.072327403 0.00963354)
(0.74090492 0.070033269 0.0096409115)
(0.75519212 0.067548362 0.0096543568)
(0.76950098 0.064919653 0.0096528309)
(0.78383673 0.062129815 0.0096563798)
(0.79819163 0.059206145 0.0096415233)
(0.81257306 0.05612845 0.0096347897)
(0.82696759 0.052929606 0.0096194458)
(0.84137 0.049612768 0.0095957878)
(0.85578761 0.046181211 0.0095778816)
(0.8701975 0.04262859 0.009565484)
(0.88462373 0.039032757 0.0095189776)
(0.89903285 0.035303706 0.0095174198)
(0.91346338 0.031482744 0.0094769258)
(0.92790568 0.027684207 0.0094164005)
(0.94239424 0.023622079 0.0093407411)
(-0.00041313971 -0.0016680444 0.0034279882)
(-0.00056557727 -0.0049941426 0.0040667216)
(-0.00022124465 -0.0070713947 0.0048233246)
(-9.5831439e-05 -0.0098754246 0.0053790594)
(0.00051617826 -0.012125885 0.0057197399)
(0.001324809 -0.014545196 0.0059431363)
(0.0025242538 -0.016651552 0.0061247299)
(0.0039249152 -0.018782232 0.0062418708)
(0.0057484357 -0.020651869 0.0063427242)
(0.0078282267 -0.022482758 0.0063551217)
(0.010210479 -0.02406065 0.0064469386)
(0.012927059 -0.025543888 0.0063996709)
(0.015915622 -0.026788163 0.0064764503)
(0.019230361 -0.027902882 0.0064311726)
(0.02282239 -0.028785289 0.0064957997)
(0.026768051 -0.029487404 0.006429815)
(0.030917274 -0.029980483 0.0065108521)
(0.035480563 -0.030255595 0.0064657073)
(0.04025895 -0.030319992 0.0065125267)
(0.045384884 -0.03016705 0.0065051911)
(0.050779128 -0.029779364 0.0065445684)
(0.056510087 -0.029174108 0.0065405309)
(0.062499664 -0.028334225 0.006586907)
(0.068824596 -0.02727371 0.0066035223)
(0.075422531 -0.025983923 0.0066416435)
(0.082331535 -0.024467888 0.0066696547)
(0.089520467 -0.022731597 0.0067137546)
(0.097011825 -0.02077993 0.0067527861)
(0.10478658 -0.018612245 0.0067966191)
(0.11284821 -0.016242469 0.0068437932)
(0.12119377 -0.013671992 0.0068948571)
(0.12981976 -0.010913264 0.0069455207)
(0.13871587 -0.0079733996 0.0070003218)
(0.14789138 -0.0048618527 0.007054725)
(0.15732673 -0.0015949184 0.0071123573)
(0.1670278 0.0018225644 0.0071689344)
(0.17698836 0.0053717627 0.0072227946)
(0.18719599 0.0090422973 0.0072834899)
(0.19764327 0.012816627 0.0073376813)
(0.2083331 0.01668978 0.0073919199)
(0.21924407 0.020630687 0.0074438325)
(0.23038182 0.024644011 0.007498278)
(0.24173447 0.028691756 0.0075392523)
(0.25328141 0.032777521 0.0075921209)
(0.26502849 0.036876698 0.0076331694)
(0.27695789 0.040970988 0.0076772808)
(0.28905868 0.045049978 0.007718501)
(0.30132522 0.049093665 0.007759286)
(0.31374323 0.05308812 0.0077975182)
(0.32630486 0.057016056 0.007837538)
(0.33899859 0.060864557 0.0078754956)
(0.35181663 0.064613502 0.0079153346)
(0.36474745 0.068254184 0.0079544796)
(0.37778443 0.071764444 0.0079962029)
(0.39091695 0.075136533 0.0080378999)
(0.40413929 0.078350065 0.0080825503)
(0.41744203 0.081396859 0.0081278361)
(0.43081972 0.084257105 0.0081766818)
(0.44426485 0.086924687 0.0082261361)
(0.45777283 0.089380245 0.0082790196)
(0.47133569 0.091617412 0.0083334672)
(0.48495117 0.093620369 0.0083902939)
(0.49861252 0.095381314 0.0084494178)
(0.51231416 0.096889127 0.0085091958)
(0.52605618 0.098136929 0.0085709779)
(0.53983121 0.099108999 0.0086369378)
(0.55362666 0.099813592 0.0086998091)
(0.56745261 0.1002202 0.0087677205)
(0.58130605 0.1003397 0.0088268843)
(0.59517678 0.1001657 0.0088903691)
(0.60906453 0.099698015 0.0089505513)
(0.62296127 0.098922053 0.0090138691)
(0.63687135 0.097857331 0.0090692143)
(0.65078481 0.096473552 0.0091305583)
(0.66470636 0.094815385 0.0091753667)
(0.67862463 0.09282811 0.0092345473)
(0.69254676 0.090587691 0.0092670448)
(0.70646162 0.088011449 0.0093219297)
(0.72037382 0.085209992 0.0093402752)
(0.73427744 0.082068897 0.0093916732)
(0.74817333 0.078730329 0.0093956876)
(0.76205699 0.075074388 0.0094355305)
(0.77593109 0.071213718 0.0094409649)
(0.78978876 0.067087372 0.0094526371)
(0.80364158 0.06277126 0.009449485)
(0.81746435 0.0582154 0.0094650824)
(0.83128099 0.053488663 0.0094538666)
(0.84506446 0.048567238 0.0094583223)
(0.85885217 0.043463311 0.0094554608)
(0.87259294 0.038254377 0.0094286827)
(0.88634924 0.032860651 0.0094261479)
(0.90005317 0.027358431 0.0094006223)
(0.91379156 0.021773981 0.0093551672)
(0.92750433 0.016059162 0.0093098965)
(0.94129081 0.010263422 0.0092368158)
(-0.0011412903 -0.0035598247 0.0029423554)
(-0.0014551808 -0.0080973348 0.0033944863)
(-0.0018737042 -0.012130656 0.0042730629)
(-0.0017158052 -0.016146566 0.0045847699)
(-0.001421522 -0.020041743 0.0048643347)
(-0.00071402642 -0.023758566 0.0050485319)
(9.6664085e-05 -0.027421563 0.00521679)
(0.0014363502 -0.030811814 0.0053172535)
(0.0029010996 -0.034176145 0.005360729)
(0.0047636097 -0.037162343 0.0054675938)
(0.006888435 -0.040119452 0.0054470144)
(0.0093741043 -0.042677091 0.0055326894)
(0.012094757 -0.045167437 0.0055095433)
(0.015187972 -0.047241029 0.0055743729)
(0.01856166 -0.049183043 0.0055364158)
(0.02222767 -0.050761451 0.0056208315)
(0.026247578 -0.052116503 0.0055910269)
(0.030555002 -0.053133242 0.005638207)
(0.035172514 -0.053887027 0.0056520882)
(0.040121389 -0.054312393 0.0056930144)
(0.045388964 -0.054435093 0.0057039776)
(0.050957394 -0.054256036 0.0057593479)
(0.056864709 -0.053743431 0.0057821361)
(0.063074795 -0.05293851 0.0058294648)
(0.069612306 -0.051794039 0.0058652191)
(0.076458455 -0.050364459 0.0059199679)
(0.083631879 -0.048606177 0.0059636279)
(0.091110856 -0.04656132 0.0060173352)
(0.098907223 -0.0442091 0.0060729299)
(0.10701199 -0.041582729 0.0061332134)
(0.11542752 -0.038667418 0.0061903696)
(0.1241391 -0.035495821 0.0062568118)
(0.13316261 -0.032062314 0.0063199183)
(0.14247014 -0.0283955 0.0063879049)
(0.15207584 -0.024498141 0.006455301)
(0.16196386 -0.020390291 0.0065230435)
(0.17212771 -0.016092602 0.0065964575)
(0.18255833 -0.011615117 0.0066658235)
(0.19327251 -0.0069823036 0.0067333133)
(0.20423255 -0.002216191 0.0067981309)
(0.2154459 0.0026781645 0.0068663367)
(0.2268966 0.0076643456 0.0069225471)
(0.23857351 0.012730687 0.0069922296)
(0.25047182 0.01785564 0.0070492285)
(0.26257771 0.023013105 0.0071050755)
(0.27487435 0.02818716 0.0071633743)
(0.28735732 0.033355322 0.0072146443)
(0.30000988 0.038494189 0.0072675471)
(0.31282125 0.043585184 0.0073174788)
(0.3257786 0.048604963 0.0073683215)
(0.33887147 0.053534556 0.0074157353)
(0.35208588 0.05835082 0.0074663431)
(0.36541271 0.063036947 0.0075135547)
(0.37883941 0.067567891 0.0075644219)
(0.39235682 0.071930003 0.0076132646)
(0.40595438 0.076097983 0.0076653413)
(0.41962301 0.080058491 0.0077170595)
(0.43335421 0.083789075 0.0077716857)
(0.44713989 0.087276487 0.0078262081)
(0.46097146 0.090499324 0.0078845971)
(0.47484331 0.093446718 0.0079426152)
(0.48874766 0.096099012 0.0080039931)
(0.50267781 0.098446119 0.0080660754)
(0.51662869 0.10047275 0.0081290508)
(0.53059693 0.10216639 0.0081962987)
(0.54456439 0.10351824 0.0082595423)
(0.5585558 0.1045296 0.0083316824)
(0.57253409 0.10516636 0.0083917262)
(0.58650531 0.10543428 0.008466919)
(0.60046964 0.10533629 0.008535318)
(0.61441696 0.10485995 0.0086035586)
(0.62834848 0.10400834 0.0086721825)
(0.64226333 0.10277714 0.0087344341)
(0.65614529 0.10117051 0.0087989836)
(0.67000909 0.099187643 0.0088578918)
(0.68383348 0.096830243 0.0089181704)
(0.69763663 0.094113895 0.0089686408)
(0.71139338 0.091027716 0.0090249802)
(0.72512769 0.08760343 0.0090667725)
(0.73881149 0.083823311 0.0091166213)
(0.75246933 0.079734743 0.0091472834)
(0.76608 0.075295025 0.0091968704)
(0.77965225 0.070595629 0.0092124997)
(0.79319513 0.065560684 0.0092531071)
(0.8066868 0.060290621 0.0092734298)
(0.82014815 0.054738655 0.0092994314)
(0.83356182 0.048973863 0.0093061667)
(0.84695155 0.042950531 0.0093337429)
(0.86029766 0.036778231 0.0093215283)
(0.87360882 0.030377366 0.0093426605)
(0.88690194 0.023828932 0.0093337428)
(0.90015358 0.017160285 0.0093190537)
(0.91341659 0.010325051 0.0092960703)
(0.92665081 0.0034442698 0.0092551993)
(0.9399114 -0.0035442542 0.0091978423)
(-0.0015079499 -0.0041901725 0.0024344852)
(-0.0022440706 -0.009642525 0.00296047)
(-0.0025965045 -0.014282535 0.0034581274)
(-0.0026405624 -0.019086327 0.0037092928)
(-0.0023693395 -0.023608802 0.0039781703)
(-0.0019313898 -0.02809208 0.0041379961)
(-0.00099547404 -0.032276364 0.0042587946)
(8.7944346e-05 -0.036444343 0.0043093346)
(0.0015231662 -0.040280252 0.0044541997)
(0.00329 -0.044007875 0.0044193742)
(0.0053464931 -0.04744564 0.0045439532)
(0.0076866048 -0.05067991 0.0045091391)
(0.010361744 -0.053628973 0.0046120226)
(0.013362274 -0.056292897 0.0045600501)
(0.016609818 -0.058720827 0.0046820481)
(0.020255375 -0.060776111 0.00463504)
(0.024151662 -0.062581237 0.0047149833)