/*--------------------------------*- C++ -*----------------------------------*\
  =========                 |
  \\      /  F ield         | OpenFOAM: The Open Source CFD Toolbox
   \\    /   O peration     | Website:  https://openfoam.org
    \\  /    A nd           | Version:  6
     \\/     M anipulation  |
\*---------------------------------------------------------------------------*/
FoamFile
{
    version     2.0;
    format      ascii;
    class       pointScalarField;
    location    "1.21";
    object      E;
}
// * * * * * * * * * * * * * * * * * * * * * * * * * * * * * * * * * * * * * //

dimensions      [1 -1 -2 0 0 0 0];

internalField   nonuniform List<scalar> 
3969
(
53774.136
51834.571
2873.686
2477.2055
59276.822
53211.325
2765.5509
2744.2074
24176.788
9378.5198
2701.5306
2135.4052
7126.0208
18156.78
39285.669
4592.5626
2943.8368
2614.836
2153.2168
1611.1255
2015.096
3491.205
48563.022
36525.336
35107.226
33830.619
31618.202
29660.657
26542.077
24558.505
21149.706
19093.745
16853.479
14649.658
12908.252
10865.25
9633.8932
7617.0187
6803.2218
5289.5412
4556.7731
3402.8272
2681.8621
2021.0589
1503.4616
1346.4981
934.07022
1094.3221
850.5539
822.17217
1002.8488
964.40497
998.15642
1159.0096
1168.3997
1290.8577
1507.4837
1801.1762
2058.9046
2378.4253
2700.046
2652.2077
3371.7132
2936.9205
3995.9403
3237.0136
4360.43
3248.9009
3866.3397
53916.8
35597.267
45320.619
38909.286
40955.784
36264.796
35688.863
32034.987
29661.83
27325.044
23587.174
22291.261
19316.516
17501.122
15179.118
13372.636
12145.558
9794.5865
9299.7192
7584.0739
6843.9079
6139.6386
5273.8424
5252.4799
4726.7751
5208.4818
4087.744
4766.0223
4606.0799
4126.5758
4636.3111
4176.3278
4529.9527
4416.979
4703.3852
5035.1524
5322.7747
5273.4048
5670.8605
5674.42
6132.5904
5650.8388
5929.3951
5399.1417
5582.3328
5111.6681
4722.7471
28491.038
12172.567
3314.9263
3859.3753
6050.3302
15359.639
34284.366
75758.092
56565.499
32869.668
49663.481
39720.046
39243.806
37743.446
31065.951
33306.808
23998.439
28118.073
21495.336
21093.665
18785.455
15406.666
15283.961
11745.823
11336.585
9505.8111
8380.2182
7572.9819
6586.0826
6197.7189
5326.5128
5527.7827
4944.2512
4651.1567
4091.5333
4292.9368
4086.843
3985.0353
4174.3417
4172.7092
4345.226
4112.3722
4078.8647
5274.2406
4411.3717
4442.0017
4469.7119
4088.7464
4306.3863
3884.0344
3892.263
3626.045
3142.0978
3720.5498
4578.96
1073.6837
4031.42
386.11333
3163.701
1723.1812
4829.9473
4812.7072
3201.6411
4270.8172
3802.4401
3679.5129
3537.9609
3369.3896
3175.4721
3154.061
2969.1658
3002.3793
1807.3237
2054.7361
1676.4045
1455.5514
1198.9396
1000.2708
962.34671
830.87903
1004.0992
946.99947
1253.7358
1250.42
1475.5294
1754.8281
2230.1081
2836.1632
3585.5131
4759.9615
5687.5575
7533.3932
8918.144
11355.336
11812.753
14648.943
17011.631
20140.993
22134.508
25130.225
27136.477
30945.044
32401.153
37391.389
36514.478
38774.068
38384.079
63100.051
34528.345
37137.125
36482.73
37132.622
37009.011
36798.858
37964.476
36197.724
37928.074
40590.864
41934.047
41576.757
43396.853
37532.577
2571.132
2939
2826.9353
2940.8375
2894.6683
2884.5572
2870.7109
3114.4444
3116.5693
3105.3928
3175.8943
3171.6136
3239.0689
3258.2094
29217.005
20022.871
20987.822
19635.938
18851.307
18265.76
16182.003
15400.394
13428.007
12645.966
11014.046
9794.466
8800.1417
7683.3579
6736.5925
6090.8304
5622.3286
4961.156
4633.3347
4197.8987
3906.3819
3600.8744
3491.1078
3040.7251
2889.2831
2763.2453
2463.1885
2542.3359
2710.7165
2743.4014
3006.7124
3132.6367
3087.2174
3194.2273
3132.4342
3057.097
3144.6992
2861.6132
3027.9639
2891.8054
3149.4115
3092.199
3500.5301
2902.2234
3859.0804
2723.6542
4928.1524
11646.494
7322.7225
8742.5497
7730.8929
7853.7085
7709.13
6672.5787
6676.9307
5556.5356
5129.4295
4437.7469
3958.0427
3487.0488
2827.4202
2670.8703
2270.1634
2116.5467
1775.1098
1730.419
1657.9584
1656.6043
1879.8001
1691.6323
1973.087
2031.3435
2009.9563
2001.2092
2158.8404
1971.4497
2128.3776
2225.6921
2147.6954
2214.2933
2169.0942
2110.6591
2091.1784
2153.2066
1871.6242
2294.8297
1895.4373
2774.0941
2088.2859
3454.013
2490.9534
4508.6116
2516.3241
5955.4564
4344.387
478.29795
2640.8011
1524.4937
2120.3446
2227.657
2360.0457
2526.4437
2236.1698
2897.4907
2406.5062
2689.7937
2277.274
2468.1892
2035.1275
2092.732
2076.8192
2063.7523
2305.9435
2041.8867
2014.9386
1507.1154
1674.8898
1621.7517
1564.8401
1535.4438
1965.3003
1822.9739
2219.7196
2475.205
2506.7735
2734.9169
2767.4029
2854.663
2964.1606
3121.6858
3280.135
3710.1639
4159.6413
4341.109
4415.9213
4534.5031
4741.8196
4098.8599
4681.84
2544.6156
6524.9005
3349.369
831.76052
2177.8874
2146.9835
2239.4768
2604.9904
2138.3031
2241.1172
2061.8998
1482.7591
1374.1
1458.5279
965.2204
1332.6434
753.44014
1421.527
839.0227
1454.1015
1006.0565
1317.7594
1538.1608
2242.9086
2673.9144
2836.9378
2970.8192
3440.4338
3271.7133
3408.0893
3497.3551
3458.0466
3493.2115
3523.1131
3427.2297
3446.726
3333.9657
3249.9841
3281.8573
2896.8318
2598.3973
1889.6615
2583.9436
1878.7686
2740.2271
1892.1981
3522.6631
2384.3019
6661.4269
8841.496
5815.016
7532.4433
6365.5088
6402.2181
6138.7808
5241.8266
5281.8802
4585.7851
4144.0671
4312.6435
3370.9583
3224.6595
2561.3703
2350.0057
1807.034
1584.5384
1342.4815
1140.4638
1119.6073
1222.7001
921.81326
638.85167
544.42731
818.08417
537.01524
544.46611
755.75101
819.82543
975.26731
1057.8703
1282.0851
1318.3227
1523.2581
1581.3268
1832.181
1919.3275
2315.4366
2161.0843
3340.7268
3242.4498
3773.7641
3895.3673
4245.0053
4758.5249
3668.9806
6566.7318
20564.231
17240.03
18714.96
18068.383
17990.065
17167.838
16289.752
14957.304
14222.722
12367.878
11796.121
10399.009
9631.9008
8662.1455
7626.4409
7144.0994
6177.5046
5803.3404
5214.6057
4655.2864
4569.5267
4258.2391
4013.7785
4247.9284
4105.1411
4197.9845
4306.4685
4317.9575
4237.0354
4340.2688
4351.2606
4246.2318
4287.9474
4305.5943
4188.1497
4334.7586
4284.9289
4039.7073
4547.595
3674.3477
3641.6882
3237.8243
3370.2047
3034.6437
3032.9907
3019.5019
5291.3476
30532.607
27628.695
28510.721
27542.422
26716.493
25105.734
23302.932
20929.571
20272.59
16622.936
17162.335
13343.614
12868.378
10338.222
9553.5856
7910.3578
7089.5301
6166.1394
5246.0626
4778.9674
3975.2677
3394.5333
3132.7391
2313.34
1443.5956
1217.0054
1047.4621
906.91666
1024.2026
1211.1398
1251.5834
1470.2225
1403.6258
1485.3819
1246.1508
1286.7887
1014.1728
1494.7934
1118.601
1605.0358
1801.6148
2590.6962
2857.9785
3522.5435
3819.1122
4690.0978
5064.349
12612.329
13766.075
11084.051
11046.441
11406.84
12111.455
15898.904
5260.1342
5429.12
4155.0061
4494.3632
4597.1604
5260.7323
6770.198
1189.8268
519.22879
-172.89947
76.281034
-50.925169
260.38507
1198.2851
678.32789
237.67789
111.44711
99.718124
291.88269
827.84981
1769.9688
2803.0595
1897.236
1580.0087
1475.0878
1693.9039
2248.1115
3441.585
10487.567
7805.9934
7268.3711
6841.7946
7263.1542
8165.7246
11085.306
20151.397
19950.452
17129.552
17526.694
17124.25
18098.481
23324.764
63007.121
57546.477
61654.308
65276.859
65003.997
68159.063
65483.943
51932.886
53027.499
47290.128
45209.665
51536.59
51460.633
54433.321
41883.644
42743.963
45576.374
44106.261
42940.684
42705.964
46572.461
45057.551
48210.972
45311.548
46171.955
46321.003
47723.416
43306.886
41362.591
41301.308
43526.995
42354.477
42042.205
41021.793
42954.608
41367.031
39328.241
38596.953
39367.336
38271.766
38255.494
37663.613
36866.092
36281.492
37937.676
36954.002
37160.784
37754.682
38205.538
35549.079
33603.814
33129.027
32576.622
31146.707
31028.734
31287.543
32357.241
30518.076
30770.746
30256.275
31597.801
31332.534
33167.062
28995.282
27624.741
26623.021
28294.14
25763.059
25527.34
26127.351
27722.215
25548.352
26558.258
23688.519
25400.934
24492.068
25976.941
23607.204
23371.863
21540.616
23300.175
22594.557
19869.889
23163.656
23315.462
20020.128
21348.611
19037.674
19252.95
20038.583
20327.745
19178.941
18270.741
18884.214
17275.914
19619.313
16526.495
19821.579
18408.495
16846.855
16167.485
15916.203
15229.521
14680.221
16012.019
16022.382
13520.875
15389.684
13189.783
15077.794
13438.872
15709.358
13664.626
13030.415
12994.719
11653.093
12731.908
11050.187
12930.621
12695.606
10534.259
11898.111
10360.134
11551.244
10158.325
11714.303
10803.353
9409.8582
10649.882
8584.8453
10196.806
8423.7161
10514.041
9629.3531
8306.2315
9252.8513
7983.1278
9091.0688
7755.6333
9233.2599
8720.7751
7108.6039
8572.9472
6663.8605
8068.5891
6461.1241
8355.3891
7546.2206
6527.9557
7469.346
6035.1806
7165.8985
5793.7285
7608.4665
7135.6759
5826.6368
6851.4845
5460.035
6624.9807
5407.7856
7313.1619
6370.2423
5694.498
6246.761
5258.9526
5997.9794
4701.4419
6600.5104
6084.3503
5837.0602
5344.3527
5377.2597
5482.5695
4873.3376
7004.4509
5958.9693
5620.5365
5103.2951
5387.3714
4936.3224
4694.6976
6665.3067
6169.3447
5273.9372
5576.9014
4621.5617
6193.7958
4754.2073
6866.2851
6554.4814
4980.7544
5734.8497
4574.326
5260.1061
3527.6914
6380.4769
5382.5566
5268.1281
4681.4556
4722.1446
4794.4006
4351.4375
5788.136
5967.4962
4332.3497
5241.0851
4360.0754
5010.3694
3895.68
5574.9099
5059.7838
4810.2381
4755.4835
4434.4105
4632.8739
3997.9128
5218.3837
5452.1842
4538.8501
4886.6952
4381.7625
4739.1954
4068.5295
5215.6919
5127.3699
4639.7277
4833.5702
4517.9654
4711.1462
4160.5666
5310.9405
5357.4788
4834.0411
5025.1879
4586.1067
4708.3602
4310.1571
5431.4144
5378.7516
4920.0256
4888.3334
4691.8721
4728.7719
4425.2445
5428.7567
5693.4789
5155.1051
5195.6594
4836.6003
4770.782
5249.6835
5909.1229
5672.8078
5147.6594
5051.6223
4888.0384
5357.9983
3889.7685
5945.8707
5640.4886
4674.1714
4833.2819
4528.807
4533.469
4950.3142
5819.2315
5884.5931
5396.8657
5368.4881
4879.5962
5082.4444
4463.9257
6053.1916
6118.5196
5262.5338
5096.1273
5025.5477
4817.9538
4605.8714
6139.5456
5804.3749
5049.1242
5133.7388
4713.5227
4804.6037
4521.0686
5699.0366
5752.3281
4862.6
4829.6142
4732.1414
4655.0171
4461.3392
5556.6164
5327.9912
4622.694
4814.8893
4510.0775
4475.397
4367.1542
5267.4662
4864.497
4528.9359
4386.1749
4370.0689
4210.4851
4373.1919
4891.2588
4613.0728
4236.1297
4251.5914
4152.046
4135.0824
4219.0814
4576.3391
4026.0778
4095.168
3818.7549
3985.7375
3753.0887
4004.1669
4087.5562
3778.5449
3808.0585
3764.1268
3724.7844
3870.9068
3838.5817
4106.3605
5127.904
5094.838
5018.6709
5145.9893
5060.813
5033.2693
4963.7673
626.21438
2103.1394
1793.079
1876.4358
1657.5818
1941.9889
917.29836
2852.8424
3294.7588
3601.1846
3659.9053
3620.4023
3493.0547
2339.8363
442.74808
938.61275
775.55939
1001.3018
508.92141
1137.1875
-436.31822
1646.3631
3409.3244
3658.8661
3343.8607
3894.5166
3505.3321
2192.9537
2413.3258
2567.7109
2099.4607
2395.9672
1788.1016
2272.9441
964.07289
3999.9465
4423.1559
4407.3243
4454.431
4307.5564
4422.6139
4194.9919
47597.828
43479.686
41605.585
40729.919
41628.877
43444.4
42286.518
43232.498
39989.555
40708.335
40721.073
41101.896
41507.884
43167.915
42167.918
44118.317
43444.143
43030.266
45037.337
43604.539
43620.071
38271.194
39552.807
40189.249
41384.031
40579.385
39282.752
39157.432
36856.596
37775.338
39272.506
39105.474
39760.575
38189.103
37394.257
31741.72
33088.724
33595.572
33881.83
34033.111
32707.936
33113.274
30610.987
30748.953
31797.761
31867.532
32121.145
31811.562
31462.067
25884.227
26449.747
26762.846
27279.9
26944.792
26585.9
27393.566
24252.044
24305.157
25144.994
24792.284
25686.055
24184.072
25865.987
21143.918
20778.172
21372.558
21348.931
21550.057
21203.76
22199.06
18665.903
18617.211
19417.143
19095.642
19650.007
18674.558
19865.945
16807.961
16250.228
16328.545
16924.528
16835.695
16810.191
17719.741
14532.55
14168.784
14855.69
14260.789
14965.703
13871.239
15753.029
12926.889
12185.799
12314.481
12461.003
12783.521
13416.45
13971.743
11239.856
10530.542
10865.468
11016.451
11642.918
9799.4751
12185.701
9363.9834
8777.0279
9375.6077
8432.8289
9509.1908
8953.5727
9891.9994
8130.8825
7778.8927
7856.5895
7850.2942
8226.1428
7278.2618
8895.0929
6996.8057
6104.0247
6813.3816
6152.0681
6630.5406
5958.2437
7076.3959
5714.24
5324.3875
5616.8047
5028.5656
5831.8886
4852.5246
6112.6701
4860.17
4246.7306
4547.4006
4219.7987
4589.294
3768.2795
4906.9348
3905.8506
3314.149
3824.9156
3139.0127
3785.8616
3012.9865
4084.712
3241.2773
2754.8717
2967.1495
2519.8256
3072.2243
2180.5409
3327.9815
2683.6764
1907.5453
2344.167
1859.2564
2352.5321
1634.74
2929.1139
2423.2261
1735.1893
2024.3851
1549.8334
2039.7935
1425.9251
2714.1078
2293.9076
1495.4621
1747.7997
1365.6726
1828.9792
1181.443
2626.4941
2595.9405
1354.9453
1883.004
1330.3152
1870.1499
1254.9095
2808.2685
2477.0994
1394.5967
1790.2368
1308.8045
1829.021
1179.1228
2736.7007
2621.886
1411.2469
1780.8693
1431.2918
2001.3492
1312.7826
2885.3151
2499.7585
1226.8579
1935.5582
1308.2995
1909.7184
1219.2619
2613.8053
2305.4613
1494.1478
1720.3449
1329.3947
1970.7105
1287.8398
2558.2193
2399.4049
1293.5747
1778.5986
1399.184
2014.9919
1284.4231
2463.3641
2296.4355
1494.1549
1846.0644
1493.1397
1977.2673
1405.1316
2420.903
2397.226
1595.2337
1912.6235
1564.9669
2094.3446
1521.3533
2483.5628
2533.141
1804.9974
1992.7721
1829.7915
2137.0128
1817.3918
2656.2619
2764.2343
1952.853
2229.2578
1994.6889
2236.0748
1999.3456
2684.2249
2932.4526
2329.4821
2468.9316
2170.179
2515.8595
2494.1007
3075.4514
3416.1657
2467.1318
2392.169
2416.3145
2906.6511
1867.6449
3809.8475
3313.7558
2754.7504
2850.3036
2688.6816
2880.4832
3234.6561
3609.5467
3907.3732
3420.9756
3236.7699
3236.6357
3382.3335
3011.5615
4151.5893
4166.6308
3391.9488
3246.982
3573.2967
3296.4972
3473.795
4273.361
4386.8991
3758.8481
3811.8469
3789.6414
3746.0815
3678.6872
4192.6698
4025.3472
3574.9474
3373.0071
3526.0376
3430.9916
3539.9067
4200.1353
4619.5961
4243.2259
4033.9145
4316.4927
4081.8028
4202.3944
4180.1419
3753.2822
3269.6573
3271.5957
3319.802
3107.1547
3302.2648
3717.0236
4507.5357
4455.7848
4279.8837
4391.4457
4204.0787
4711.4214
4454.4394
3111.6883
2874.8118
2884.6772
2769.3252
2903.7849
2905.9009
2853.5719
4256.5124
4331.9213
4214.8297
4311.3703
4286.4497
4328.4178
4326.7458
52299.98
33087.599
29262.485
27938.165
27808.108
26082.513
24096.564
22495.114
20251.199
18881.078
17119.956
14477.33
13186.603
10888.286
9361.2275
9014.1829
7193.9179
6788.9592
5601.6427
5404.9459
4625.4843
4412.6921
3847.6616
3352.4341
2671.7627
2250.2246
1814.5492
1747.2295
1722.1559
1892.5946
2152.4715
2423.5803
2589.9143
2651.4421
2890.4906
2095.9008
2608.9023
2174.9778
2306.4306
2100.2804
2517.6364
2762.4074
3246.8501
3664.0057
4282.0151
3913.2412
5832.187
21023.652
19781.481
12961.339
12962.491
14884.472
11408.282
13016.648
11696.631
11012.59
10571.511
9160.4732
8664.4902
7945.8936
7150.2218
6688.9734
6022.9941
5605.7406
4901.1533
4807.0829
4345.1817
4148.6647
3923.0018
3644.5593
3549.7067
3410.8348
3332.3791
3637.5563
3896.6222
4087.2345
4218.9076
4278.5549
4329.7955
4263.4388
4403.0948
4263.1902
4166.812
4264.4558
4397.1107
4654.5311
4532.9498
4815.3716
4626.5592
4927.2192
4170.49
5136.6328
2171.1408
7384.5859
6347.7146
5651.6143
3344.3845
4489.3661
4127.7097
3399.4204
4536.4229
3292.1209
3998.9883
3370.1898
3002.1174
3733.478
2230.9962
2468.4396
2048.2319
1843.9832
1741.4375
1706.983
1454.8805
1500.7666
1368.8495
1359.8755
1374.8662
1238.4208
1418.2538
1179.7612
1671.5194
1397.311
1732.7767
1734.4838
1886.2111
1825.7373
2032.022
2009.3583
2091.8742
2285.3453
2346.7604
2559.3016
2755.4233
3038.2145
3118.4367
3653.1477
3566.5623
4234.0689
4456.6783
4104.9852
8284.0706
2178.9385
2487.9911
-65.029552
3711.5398
542.24137
3484.0568
-210.32316
2681.4281
854.99835
1340.8102
1884.5433
614.47694
1286.82
2849.0082
2058.6367
2595.1043
2411.5131
2336.1758
2515.7979
2574.8575
2682.6937
2790.9466
2843.1802
3247.5602
3461.7718
3945.4183
3950.343
4236.8393
4345.0773
4404.7039
4441.8894
4517.3725
4585.8248
4504.9722
4697.4405
4668.2799
4697.1155
4718.8294
4916.9943
4649.0826
5027.3722
4567.1728
5084.8194
4120.5432
5448.6531
2365.0819
8414.2361
6953.5698
3161.6855
4898.059
4150.5015
4492.8934
3691.9444
3964.4264
4522.1187
2118.3682
4790.6298
1570.8292
3767.0617
2446.826
2631.3412
2181.6423
2366.2718
2154.3796
2404.8571
2290.2044
2429.2697
2427.6549
2394.5209
2681.4891
2379.9189
2109.8258
1807.1701
1766.2452
1829.073
1956.0777
1964.2367
2089.9353
2082.6088
2094.9574
2231.8509
2388.2635
2303.5224
2549.7881
2761.9373
2609.7339
3272.9762
2980.5768
3757.5286
3433.2223
4336.1631
4178.6756
4514.9422
7090.943
16146.379
15265.746
11237.51
15809.882
10901.927
13368.632
12423.337
9667.7105
12276.547
9559.4497
9543.4888
9889.0217
6907.1107
8297.2716
6462.9968
6493.7191
5753.0132
5398.8507
5035.5586
4631.6175
4371.5643
4079.1048
4147.8059
3694.8587
4820.4184
5140.2083
5760.9292
5695.3243
5824.9062
5732.1708
5798.1758
5567.6065
5465.1933
5461.5484
5335.5063
5230.1863
5497.1919
5007.5212
5628.8144
5079.1514
5364.4162
4914.1081
5176.1198
4285.6982
5127.6639
3120.735
6552.5878
41084.821
24025.711
30388.696
23229.307
26936.866
22815.044
22217.447
19677.188
19136.064
15955.257
13711.528
14227.863
10122.111
11113.116
7786.976
8517.7865
6775.4703
6511.3569
5635.0032
5093.3091
4382.3457
3722.5569
3113.6198
2206.0661
2103.7544
1522.203
832.9204
1113.7224
1014.4968
1400.5759
1430.4243
1357.9526
1365.1946
1292.4035
988.9961
894.76707
998.24866
1344.0853
1173.7346
1956.0346
2309.4039
3019.2273
3398.7759
4121.9391
4475.5624
4971.8166
5119.0603
37083.267
31562.626
31112.938
30619.415
31012.172
30551.393
31260.782
30763.074
32740.272
30458.744
30530.223
30203.802
30642.438
31243.631
27529.928
30728.795
31463.7
31111.044
31312.435
31137.754
30843.621
26066.528
27874.875
28715.011
29350.972
28980.002
28721.933
26934.105
23858.141
25941.48
27851.622
27352.801
28093.248
27186
26228.544
22089.547
23513.096
24020.235
25394.608
24802.749
24755.727
24553.162
20315.942
21007.066
22778.526
22011.463
22506.92
22395.807
21937.675
18239.506
19405.92
19662.027
20476.566
20699.688
20052.302
20603.777
16718.513
17333.097
17928.465
18439.827
18096.743
18586.288
18455.743
14830.965
15538.465
15950.62
15947.591
16293.344
16285.168
16531.775
13177.356
14137.315
14211.167
14785.742
14874.014
15003.799
15470.834
12071.409
12188.608
12891.582
12506.889
12853.076
12875.569
13198.492
10556.043
11169.79
10999.9
11350.776
11810.906
11468.54
12082.481
9488.7985
9648.1374
10225.204
9965.4444
10483.153
9598.1091
10830.895
8223.782
8739.2698
8187.7729
8768.9899
8470.5823
9219.2095
8952.5854
7700.1698
7814.527
7761.6916
8097.3771
7995.8615
7746.3958
8020.0495
6432.6712
6604.0247
6521.1402
6869.9777
6618.365
6735.3692
7018.3483
5865.9397
6041.6318
5986.9117
6161.347
6096.6142
6351.1509
6323.9749
5272.0056
5281.441
5176.4432
5377.5103
5418.4998
5261.1334
5329.2906
4751.7342
4868.7467
4714.8537
5032.4176
4790.0652
4925.4994
5012.0076
4516.1644
4400.746
4409.2265
4456.3209
4415.7159
4410.6672
4363.5159
4171.8554
4041.7908
4087.1681
4211.6671
4118.1792
4171.3247
4114.2506
4099.7038
3841.6097
4061.0504
3955.6504
3901.4781
3721.3336
3815.0625
3789.6071
3376.5824
3808.0466
3711.0016
3634.4136
3625.7691
3662.143
3760.7656
3180.6739
3585.9098
3507.2686
3387.3393
3156.292
3308.2078
3321.4933
2744.8748
3410.6091
3118.2119
3137.6914
2901.783
3207.9314
3274.6614
2556.9494
3186.9136
2904.3904
2853.0439
2808.0132
2840.8332
3202.562
2513.4365
2809.4304
2799.4375
2785.0034
2411.0611
2738.9776
3011.6636
2023.9675
3158.2657
2702.3091
2668.529
2457.9504
2727.108
3017.1597
2612.8882
2956.7102
2649.133
2780.006
2486.5799
2718.7122
3169.1034
2348.1339
3007.5388
2886.7799
2867.9714
2507.456
2779.5639
3024.182
2594.391
3175.5788
2915.5565
2821.9676
2633.4991
2872.8042
3158.2683
2751.1367
3195.7882
3044.3718
3034.3663
2820.911
3026.9354
3186.0877
2790.6083
3227.7655
3135.4179
3027.8993
2937.1419
2962.5993
3136.1574
2925.9416
3295.7365
3232.1449
3230.2644
2882.2941
3086.1793
3276.4015
2951.9032
3162.6834
3255.715
2985.1988
3061.5914
3280.1156
3124.2417
2744.0678
3186.9317
3097.462
3299.004
2784.7099
3535.9586
3179.1509
2791.6828
2988.0865
3466.6484
2748.3731
3366.1227
2625.2076
2969.5874
3013.6476
2967.6112
3246.568
2977.3693
2664.9766
3118.5402
3077.3063
2736.3463
2531.1957
3208.0369
2503.1046
3033.2514
2814.4384
3051.6801
2875.0902
2798.5967
3273.5464
2787.0642
2986.8281
2849.4138
3229.4918
2961.9533
2727.2022
3283.0667
2682.2958
3130.4455
2953.3357
3438.4613
3371.0105
3099.3386
3749.6559
3194.7089
3592.7913
3073.869
3327.896
3036.6312
3001.2342
3444.1308
2852.7639
3269.669
3189.4917
4281.4472
4319.686
4146.9722
4557.1323
4092.5357
4932.4219
4034.346
3664.942
3472.9222
3549.515
3768.3886
3592.7588
3676.5094
3071.9352
5444.069
5351.4377
5282.5054
5377.1268
5234.2169
5271.1478
5350.2054
14985.015
11738.674
10824.656
10580.58
10260.283
10525.964
10913.376
13812.125
16512.928
15557.076
16200.926
16288.981
16446.887
16531.827
12531.077
13760.825
14326.356
14146.983
14559.266
13598.719
13746.558
11440.092
13264.022
14186.762
14748.179
14246.927
14345.886
12055.107
11301.852
12046.009
13522.933
13192.525
14078.408
12812.111
12888.096
10333.878
11188.264
10789.54
11634.309
10840.448
11224.735
10670.708
9825.1361
10002.78
11190.4
11021.149
11422.57
11393.837
10439.564
9114.1626
9640.1837
9083.6715
9718.8542
9590.1831
9574.2581
9640.5184
8624.044
8229.5459
8780.5493
8973.0677
8546.7116
9241.9074
8591.1535
7916.0648
7753.3338
7926.442
7951.937
8448.2136
8424.0261
8502.4927
7487.5227
6969.3983
7086.3585
7511.9152
6949.2148
7572.7094
6984.1862
6762.4119
6301.4974
6328.2001
6440.4956
6653.7526
6849.1308
6935.8029
6361.6711
5665.4949
5757.5835
6557.9783
5898.3043
6718.0435
5912.1858
5661.7978
4787.8461
5315.819
5189.4179
5092.3831
5601.8601
5609.7568
5293.401
4728.2008
4933.3936
5036.8999
5261.656
5198.3225
5313.8726
4936.4401
3731.6261
4537.8906
4201.1108
4491.8916
4471.8096
4557.2893
4376.029
3973.9201
4114.2495
4073.0101
4321.3406
4256.8781
4512.8985
4356.7829
3454.7646
3789.8159
3758.3254
3836.1241
3912.4088
3849.6767
3887.256
3309.3191
3583.4652
3465.5315
3712.0536
3595.367
3696.5856
3862.7915
3208.3457
3341.797
3408.9283
3396.0553
3377.3717
3512.4617
3423.0906
2911.5191
3199.9592
3092.1719
3227.1445
3353.1185
3267.8193
3333.4429
3185.8446
3129.4588
3113.1417
3269.7047
3082.5016
3215.9518
3121.408
2833.3689
2851.6315
2988.1789
2823.2805
3176.5621
3158.1355
3175.6528
2958.5196
3000.786
2786.4311
2956.0666
3416.577
3233.7536
3062.0176
2895.5389
2987.9334
2617.1119
2971.8448
3111.8409
2883.4542
3303.0702
3023.9471
2814.7268
3128.1328
2665.1477
3459.418
3421.019
3080.7892
3178.6947
3159.8882
2513.0738
3396.2742
3350.2382
3384.2421
3582.7688
2430.2997
3217.9779
3072.6548
3094.0347
3558.9162
3331.3039
3294.6826
3305.429
3538.0841
2848.6432
3156.7887
3750.1306
3272.394
3552.5376
3287.3264
3279.9119
2977.3572
3401.9247
3758.3109
3303.7851
3471.495
3087.6239
3356.432
3168.8389
3266.7793
3737.9981
3400.0697
3406.6158
3367.9328
3586.7725
3255.9114
3374.2592
4017.4687
3507.8339
3559.2532
3338.2698
3464.2728
3187.0918
3461.1741
3956.3192
3429.6349
3501.8882
3384.153
3564.7992
3473.9026
3497.5854
3951.2372
3550.2337
3633.5864
3421.3839
3621.4827
3406.5861
3390.476
4111.0982
3787.5925
3648.3389
3405.6347
3616.5617
3570.0952
3537.8727
4215.3096
3541.8015
3938.0864
3685.6705
3679.4063
3762.2131
3271.0754
4427.9111
3557.726
4063.3143
3227.8179
3738.3196
3589.0193
3664.0015
4255.5638
3751.2539
4380.2286
3736.0589
4099.6353
3917.476
3682.5589
4326.7289
3806.8481
4314.8271
3091.7883
3963.5666
3541.2136
3707.874
4371.5125
3957.8308
4689.1411
3891.0352
4568.5016
4253.3844
4169.8219
4596.8227
3945.9408
4303.0155
3132.9071
3998.4009
3459.8927
3576.8674
4048.8403
3905.6522
4881.4634
4226.1357
4807.9184
4620.0637
4632.0632
4943.387
4322.4427
4047.318
3122.5148
3795.7213
3399.2795
3252.3543
3390.2419
3505.1359
5286.749
4983.8398
5305.9405
5122.4792
5127.4819
5645.42
5132.4136
3007.4663
2269.4148
2692.1614
2287.9179
2451.85
2002.5035
1582.1156
6143.8301
6512.921
5975.2111
6005.9427
5959.3607
6112.0031
6451.2426
5291.3401
4520.7175
3970.6271
3863.0385
3564.7633
3633.0178
3292.9967
2865.6208
4236.7906
4044.7217
4400.2146
4416.9356
4043.474
4258.6117
4446.6797
4505.9788
4654.6271
4663.0954
4514.2912
4165.9982
4067.665
2918.3635
3908.4138
5152.0841
5704.3855
5531.1132
5574.8688
4345.4049
4227.6792
4458.1711
4844.0027
4005.9616
4372.1507
3316.0958
4296.6159
3228.8274
2514.2818
3171.2515
3684.6462
3616.8186
3825.5305
3463.0149
3496.8947
3242.6216
4348.5751
4203.1692
4524.617
4146.5009
4261.496
3215.4775
2464.7462
2619.2446
2391.2107
2570.0799
2728.7924
2863.7547
2590.9638
2368.5088
3096.3513
3325.0748
3876.0328
3570.7918
3682.2349
2941.0953
2357.0397
2459.0641
2363.5943
2360.3049
2453.1183
2705.5566
2164.3369
1827.8259
2285.8898
2129.936
2719.7652
2317.2504
2788.7483
2577.3264
1900.9008
2105.6186
2228.2039
2523.7664
2565.9549
2856.6287
2134.6422
1208.7618
2318.9837
1410.3928
2244.2427
1471.3757
2566.1748
2222.5528
1689.2492
2367.7113
1721.8788
2471.5891
1814.5557
2633.4255
2571.0195
1619.6405
1824.3367
1754.3941
1627.1623
1687.9756
2189.4895
2432.6901
1780.6242
1948.093
1861.5128
1931.1991
1593.4032
2483.8417
2674.0727
1515.5698
1804.2804
1900.0508
1496.7794
1552.3707
2147.8227
2503.6548
1346.9373
1956.7713
1647.5784
1606.3411
1549.9279
2257.3005
2684.0054
1563.7867
1840.9196
1723.2718
1558.9314
1444.8666
2071.8224
2576.8634
1278.8092
1843.2003
1652.8761
1489.7812
1547.3935
2133.8099
2809.9938
1601.3732
1995.4627
1727.6775
1690.0224
1478.1926
2084.9227
2927.9106
1403.693
1933.822
1800.4576
1513.765
1578.019
2158.8689
3093.8887
1604.7148
2332.2009
1566.2089
1938.8603
1642.2072
2243.2177
3267.7178
1687.7593
2284.4737
1918.0988
2230.569
1464.8599
1989.8863
3423.3458
1642.4693
2512.4105
2170.0298
2325.7729
1526.0079
2494.4011
3463.9032
1772.2653
2909.8379
1817.2949
2548.3747
1650.1327
1962.4798
4008.0163
1857.7612
2806.3089
1929.0221
2994.5915
1503.4146
2545.9226
3708.5372
1941.4663
2827.296
2484.3563
2680.3251
1757.1542
2419.5621
4014.553
2462.3702
3325.4749
2164.8382
3235.0958
1886.631
2682.5618
4126.6997
2200.181
2845.4317
2399.4837
3148.9962
1762.3885
2675.3363
4035.8234
2361.6343
3338.2424
2721.3646
3360.1811
2121.8978
2921.2563
4198.2454
2509.2235
3298.6679
2519.0601
3251.9076
2091.0777
2744.8391
4173.9619
2582.8936
3250.0077
2796.2814
3417.7025
2178.9864
2920.6598
4247.9131
2607.2647
3413.1555
2825.6749
3266.892
2386.2348
3006.9275
4248.2788
2787.4173
3474.1691
2876.4963
3444.3593
2513.9279
2793.0367
4394.9142
2920.6264
3598.1553
2936.185
3450.2655
2550.8522
3027.0871
4362.3944
2924.5602
3590.0624
3034.8922
3642.1579
2659.1331
3089.483
4404.7277
3060.0665
3809.6797
3194.9873
3540.999
2864.83
2901.4538
4143.7784
3436.7915
3689.1659
3368.6071
3530.6913
2942.5311
3164.16
4299.0909
3644.667
3647.5569
3697.7548
3607.3789
3489.1993
3150.893
4054.7533
3961.5286
3644.3513
3855.0963
3545.1293
3277.5372
3026.4897
4302.4004
3944.5409
3659.6199
3968.5617
3483.6999
3912.7679
3411.0862
4078.0859
4365.2972
3858.5984
4293.887
3823.9958
4125.4601
3122.2522
4027.2355
3988.8268
3543.8839
4077.6734
3264.3136
3903.0326
3382.047
4363.3388
4670.4033
4215.2614
4745.2109
3973.2317
5406.8768
3862.6743
3333.3731
3408.3235
3251.0782
3605.342
3121.0615
3688.7567
2131.1744
6155.2986
6442.1423
6065.6348
6282.2755
6025.4702
6614.3598
6355.7684
2644.9577
2540.1935
2176.3024
2147.7303
1897.3434
1796.7414
890.4835
1315.8454
2855.4868
3201.0334
3715.871
3604.9862
3385.414
2999.1515
1978.4736
1928.5406
1699.2702
1795.1351
1649.7938
1436.4109
714.5119
2033.7823
3463.318
4485.4501
4995.5839
5059.5662
4749.2382
4003.975
1985.3377
1742.9246
1098.4113
559.18553
379.23521
385.06249
752.33259
2466.7672
2825.8539
2932.9429
3482.478
3804.6464
3729.4466
3244.6114
1948.9237
1608.4211
1078.4376
1061.7984
770.46903
398.50124
1404.9638
2340.8528
2360.8585
2080.0532
2350.0793
2189.8377
2790.2397
2544.715
2293.6474
1820.7842
1927.7394
1052.4116
2074.1134
957.32507
2094.7316
1873.5989
2232.0424
1324.8415
1622.6689
1335.7566
1844.5101
2037.0318
2133.3499
1345.3019
2535.2041
1218.0051
2561.0719
1940.8981
2082.6748
1682.8439
2134.8669
1674.2889
809.86986
1789.0222
1265.9651
2320.2009
1880.4366
1367.0645
1876.9272
1268.4779
2322.9095
1620.3265
1449.3031
1548.4419
1907.7737
1265.0894
1286.1188
1195.8176
1952.6465
1743.5464
1433.3778
1068.6113
1981.3085
952.60196
1888.892
1649.4601
1471.6902
1442.5705
1205.4142
1737.0267
1328.5815
1349.4777
1933.666
1513.0904
1329.2297
964.54947
1921.5522
1167.1423
1574.8685
1987.8335
1557.9702
1539.9578
1432.1814
2017.211
1368.4002
1541.6034
2044.0765
1635.5705
1336.5069
1189.9836
2027.8693
1301.9639
1740.9942
2229.5649
1688.4955
1656.7774
1604.9151
2165.4762
1556.256
1905.1202
2097.4818
1818.0259
1632.6595
1369.1853
2207.4724
1652.4072
1809.6472
2370.6016
1932.807
1922.9402
1764.7564
2461.7364
1607.2246
2117.099
2438.2141
2015.2292
2094.8617
1913.4788
2033.6762
2152.1402
2130.9362
2513.5069
2000.2134
2301.6434
1786.5492
2365.1553
2381.9744
1911.5348
2712.2671
2566.6093
2474.5567
1874.4102
2867.925
1902.2292
1796.1813
3024.688
2213.8384
2866.6671
2223.2387
2497.1027
2364.2421
2153.3538
3003.8259
2875.4136
2623.6001
2082.0943
2806.0139
2678.1462
2024.8809
3209.339
2645.2292
2904.3206
2305.8691
3234.9783
2471.6275
2616.1444
3273.0436
3003.6654
3148.4767
2383.0164
2956.008
2802.7409
2179.9129
3297.3978
2950.9871
2972.9736
2307.8091
3185.4345
2852.8635
2676.2727
3616.0501
3163.5171
3086.4459
2595.0651
3278.925
2958.5895
2590.6929
3419.3437
3156.3281
3155.0266
2602.5301
3280.6899
3005.4594
2634.5832
3577.5775
3248.1996
3120.5716
2561.0701
3349.838
2987.2705
2787.8475
3710.9414
3370.634
3152.4399
2687.6966
3429.2365
3150.1926
2837.5895
3689.4405
3191.902
3145.1079
2700.823
3425.8018
3039.8579
2850.5317
3668.0964
3406.9218
3077.9505
2723.5046
3290.6883
3174.3675
3000.3838
3692.4511
3383.0534
3151.7451
2808.7658
3397.0108
3314.3248
2773.6236
3771.2608
3316.932
3015.6988
2749.484
3426.3155
3072.9501
2990.7705
3670.3121
3486.1564
3288.4029
3044.8201
3518.0355
3310.3891
3167.7164
3849.927
3578.253
3203.8034
2510.6281
3387.5873
2976.8648
2985.4163
3557.3411
3387.5998
3674.6302
2962.6514
3883.0436
3457.0625
3390.7059
3960.0789
3759.4444
3419.4388
2417.8285
3444.6089
2744.0856
2994.827
3486.1427
3382.4904
3912.5669
3233.8224
4109.0575
3663.1071
3977.8712
4104.8331
3946.53
3563.7567
2377.1437
3326.3948
2582.4043
2842.4355
2895.7352
3161.6081