/*--------------------------------*- C++ -*----------------------------------*\
  =========                 |
  \\      /  F ield         | OpenFOAM: The Open Source CFD Toolbox
   \\    /   O peration     | Website:  https://openfoam.org
    \\  /    A nd           | Version:  6
     \\/     M anipulation  |
\*---------------------------------------------------------------------------*/
FoamFile
{
    version     2.0;
    format      ascii;
    class       pointVectorField;
    location    "1.83";
    object      lm;
}
// * * * * * * * * * * * * * * * * * * * * * * * * * * * * * * * * * * * * * //

dimensions      [1 -2 -1 0 0 0 0];

internalField   nonuniform List<vector> 
28033
(
(-1.780536e-14 4.8656612e-16 1.3104288e-15)
(-5.4375576e-15 3.3318594e-15 9.9433006e-16)
(8534.2194 1002.8658 57.583553)
(8482.3065 -1639.5075 49.315898)
(-1.338461e-14 3.0090723e-15 -2.870051e-16)
(-1.2587315e-14 4.9008913e-15 -4.4266115e-15)
(8482.0171 -1623.7748 67.687573)
(8535.3938 1005.746 39.298567)
(-5.6329745e-15 1.0535579e-15 6.7193838e-16)
(-2.4534443e-15 3.0423504e-16 5.8836893e-16)
(-5.4923298e-15 2.4302826e-15 8.9528572e-16)
(-2.6209443e-15 -1.1537891e-15 -6.7979696e-16)
(-7.2548563e-15 1.5542294e-15 1.0013199e-15)
(-4.7613589e-15 -9.2108094e-16 -7.3952737e-16)
(-1.132389e-15 -2.2256662e-17 -6.4484848e-16)
(-7.4239857e-16 -2.4218299e-16 -3.6669977e-16)
(-1.1196198e-15 4.5550132e-16 8.383863e-16)
(-2.3465882e-16 2.2667819e-16 1.4996246e-15)
(-4.0583243e-15 -8.7236639e-16 -1.3429605e-15)
(-5.8237189e-15 8.4462789e-16 7.5519031e-16)
(-5.1611762e-15 1.0100276e-15 9.7613867e-16)
(-1.7679952e-15 -8.1010255e-16 4.5192313e-16)
(-4.4158752e-15 1.0299569e-15 -9.452958e-16)
(8463.8496 836.87429 59.335588)
(8380.267 671.91581 61.239083)
(8319.1378 510.06706 63.09591)
(8288.5289 350.55354 64.343266)
(8292.1099 191.18709 65.656172)
(8328.4687 30.174375 65.966387)
(8390.9875 -133.98966 65.982138)
(8469.4682 -302.29696 65.454434)
(8550.6424 -474.59809 64.158329)
(8621.6408 -649.60197 62.495786)
(8670.4785 -825.15188 60.488158)
(8688.8148 -998.42784 58.133534)
(8673.4078 -1167.3663 56.454977)
(8625.1248 -1330.027 54.128791)
(8553.5007 -1486.4079 52.044184)
(6.9502456 15.773339 19.622557)
(7.5298363 26.011594 26.834028)
(11.327833 39.129597 29.206292)
(18.904191 51.815812 29.295406)
(28.462968 66.491943 27.50471)
(41.128333 80.867534 25.499009)
(55.533007 95.986767 23.592066)
(71.993943 110.41324 22.112967)
(90.022997 124.93093 21.649001)
(109.48515 138.26761 22.018361)
(130.22826 150.94137 23.414868)
(152.16901 162.26998 25.394719)
(175.27543 172.49617 28.258453)
(199.72067 181.05398 30.995555)
(225.1574 188.27463 33.927799)
(251.83013 193.81749 36.078249)
(279.77048 198.3624 37.741922)
(308.85546 201.14862 37.972489)
(338.90328 203.21968 37.166298)
(369.89758 204.12647 34.730884)
(401.74888 204.71601 30.975794)
(433.96615 204.80771 25.779697)
(466.57544 205.09273 19.508793)
(499.10234 205.70409 12.318593)
(531.41862 207.07668 4.7389182)
(563.10948 209.49945 -2.9359452)
(594.04429 213.22528 -10.085184)
(623.94343 218.66755 -16.295824)
(652.94539 225.99446 -21.17178)
(680.51966 235.06824 -24.078708)
(707.66509 246.8422 -24.992935)
(733.78412 260.53113 -23.570186)
(759.779 276.40086 -19.643591)
(785.69083 294.64958 -13.518006)
(812.51182 314.87636 -4.7303299)
(840.89946 337.28294 5.4711053)
(871.40341 361.35089 17.218448)
(904.96892 387.09809 30.117169)
(942.51118 414.19727 43.310511)
(984.60248 442.4298 56.324502)
(1032.1345 471.46756 68.633472)
(1085.6643 501.24239 79.676127)
(1145.7357 531.38526 88.93081)
(1212.7048 561.8063 96.104963)
(1286.8334 592.21794 100.93075)
(1368.1596 622.52713 103.35993)
(1456.5423 652.53766 103.39829)
(1551.761 682.2015 101.27263)
(1653.3449 711.36725 97.292309)
(1760.8329 740.01024 91.896452)
(1873.5655 768.01768 85.592064)
(1990.9347 795.36047 78.93949)
(2112.2313 821.94401 72.502251)
(2236.8427 847.71492 66.823222)
(2364.1469 872.5737 62.371621)
(2493.6592 896.43181 59.529941)
(2624.9552 919.16843 58.547839)
(2757.7679 940.66409 59.536497)
(2891.9281 960.77603 62.457221)
(3027.4126 979.36484 67.106805)
(3164.2939 996.28924 73.163779)
(3302.7452 1011.4141 80.155979)
(3443.0033 1024.6212 87.526404)
(3585.3727 1035.8271 94.737352)
(3729.9639 1045.0352 101.06679)
(3877.4251 1052.0442 105.97144)
(4027.2848 1057.1212 108.9384)
(4180.0484 1060.1117 109.76155)
(4335.7905 1061.4278 107.52795)
(4493.9574 1060.9247 102.59402)
(4654.4344 1059.0661 95.078292)
(4816.8963 1056.0861 84.916388)
(4980.6898 1052.1657 72.666199)
(5145.3012 1047.6459 58.727245)
(5310.0724 1042.826 43.750728)
(5474.3864 1037.9608 28.404646)
(5637.6173 1033.3468 13.40428)
(5799.2197 1029.1527 -0.52296105)
(5958.7731 1025.5521 -12.768406)
(6115.9383 1022.7661 -22.713487)
(6270.4763 1020.6897 -30.018015)
(6422.5124 1019.451 -34.296023)
(6572.0622 1019.0294 -35.518461)
(6719.4368 1019.1339 -33.596377)
(6865.0398 1019.8115 -28.990663)
(7009.4561 1020.6624 -21.861202)
(7153.3336 1021.6244 -12.972666)
(7297.2377 1022.3463 -2.8127544)
(7441.8487 1022.6365 7.9317733)
(7587.774 1022.2724 18.403315)
(7735.4067 1020.9719 28.309243)
(7884.9465 1018.8689 36.752554)
(8036.8164 1015.2138 43.671498)
(8190.0251 1010.8558 49.335933)
(8343.1658 1005.3237 53.251111)
(16.524659 -37.121093 -46.513859)
(23.898391 -53.94756 -56.710051)
(29.825281 -72.6581 -75.749591)
(33.814057 -87.759344 -86.649908)
(42.85145 -104.43101 -96.006901)
(53.344941 -120.48078 -101.84324)
(66.591508 -135.52454 -105.18212)
(83.062753 -150.86556 -105.5549)
(102.17008 -165.66684 -103.64063)
(123.78321 -180.23441 -99.32956)
(148.21022 -194.94585 -93.042201)
(174.30164 -209.3403 -85.181117)
(202.68567 -224.08155 -76.127644)
(232.3184 -238.74922 -66.470334)
(263.3843 -253.56195 -56.438264)
(295.08372 -268.4074 -46.877294)
(327.30106 -283.13177 -38.015095)
(359.49354 -297.85769 -30.475162)
(391.40508 -312.23809 -24.635859)
(422.73688 -326.15931 -20.774013)
(453.01351 -339.77312 -19.021667)
(482.18828 -352.52645 -19.872376)
(510.10648 -364.7973 -22.789805)
(536.31885 -376.22331 -28.232019)
(561.22574 -386.93913 -35.687158)
(584.67325 -397.20015 -44.958365)
(606.72703 -406.74409 -55.755116)
(627.80181 -416.23142 -67.600792)
(647.96908 -425.56808 -80.096692)
(667.77892 -435.28595 -92.809211)
(687.53114 -445.59629 -105.24235)
(707.79503 -456.88968 -117.10881)
(729.08195 -469.55976 -127.93637)
(751.91789 -483.93904 -137.50061)
(776.95516 -500.24003 -145.6117)
(804.65972 -518.95187 -152.00105)
(835.61221 -539.91315 -156.80152)
(870.40458 -563.60869 -160.02972)
(909.33186 -589.63069 -161.69057)
(952.9805 -618.28274 -161.99937)
(1001.564 -649.15584 -161.14752)
(1055.4122 -682.11637 -159.4011)
(1114.6818 -716.76782 -156.96423)
(1179.5314 -752.78594 -154.09017)
(1249.9767 -789.69971 -150.96084)
(1326.0363 -827.11266 -147.74282)
(1407.6076 -864.55521 -144.54149)
(1494.596 -901.63962 -141.40222)
(1586.8233 -937.97617 -138.31716)
(1684.1172 -973.27082 -135.21347)
(1786.2695 -1007.2679 -131.97117)
(1893.0807 -1039.8247 -128.42807)
(2004.3423 -1070.8492 -124.39438)
(2119.8726 -1100.3609 -119.67013)
(2239.4867 -1128.4259 -114.06156)
(2363.0356 -1155.1958 -107.39978)
(2490.372 -1180.8488 -99.556163)
(2621.3719 -1205.608 -90.460497)
(2755.9115 -1229.6917 -80.107277)
(2893.8754 -1253.3157 -68.56851)
(3035.1316 -1276.6603 -55.990789)
(3179.5406 -1299.8619 -42.599852)
(3326.9348 -1322.9967 -28.679125)
(3477.1173 -1346.0734 -14.581557)
(3629.8605 -1369.0366 -0.67432648)
(3784.8821 -1391.7516 12.632379)
(3941.9312 -1414.0269 24.940991)
(4100.62 -1435.6854 35.955464)
(4260.5208 -1456.2668 45.158243)
(4421.3362 -1475.7493 52.587082)
(4582.6078 -1493.6419 57.726796)
(4744.0146 -1509.8772 60.768729)
(4905.1331 -1524.1196 61.571847)
(5065.5829 -1536.2815 60.271233)
(5225.1401 -1546.2857 57.086666)
(5383.5122 -1554.1737 52.27531)
(5540.555 -1560.0315 46.192323)
(5696.2049 -1564.0732 39.256236)
(5850.437 -1566.5533 31.90389)
(6003.3712 -1567.8296 24.576862)
(6155.1603 -1568.2643 17.711875)
(6306.0512 -1568.2739 11.702402)
(6456.346 -1568.2601 6.8920623)
(6606.3695 -1568.6115 3.5352332)
(6756.4854 -1569.6666 1.813608)
(6907.033 -1571.7021 1.7865983)
(7058.3396 -1574.9117 3.4350247)
(7210.6735 -1579.3866 6.6062274)
(7364.2409 -1585.1259 11.083902)
(7519.1644 -1592.0054 16.549065)
(7675.4617 -1599.7831 22.617822)
(7833.0504 -1608.1288 28.890381)
(7991.7252 -1616.5897 34.963025)
(8151.1617 -1624.6229 40.475405)
(8315.5851 -1632.49 45.273793)
(3.2927448e-15 -1.3239155e-15 2.3845803e-16)
(2.4470133e-15 -9.6672015e-16 3.215493e-17)
(-9.0574249e-15 9.0550918e-16 6.4029168e-16)
(-1.2642219e-16 -5.721845e-16 4.4370095e-16)
(-7.6811722e-15 -4.9270561e-16 4.1193361e-16)
(-7.3893964e-15 2.7533729e-15 -1.0951501e-15)
(-3.2915852e-15 -8.1743692e-16 3.8364228e-16)
(-1.9032499e-15 5.3200654e-16 -8.2319016e-17)
(-4.7409759e-15 -4.8623412e-16 4.3918642e-16)
(-1.2869644e-14 1.1845665e-15 6.4228907e-16)
(-9.6157521e-15 1.4157374e-15 5.9836601e-16)
(-9.4077204e-15 4.9518432e-16 1.1192419e-15)
(-5.982767e-15 2.6210694e-16 3.0473736e-16)
(-1.1478475e-14 -5.3386198e-16 1.6580808e-15)
(-5.257323e-15 3.6289085e-16 2.8600704e-16)
(13.003002 -9.3249258 19.977621)
(15.387328 -35.089097 27.992572)
(20.266714 -41.357244 28.063534)
(30.694875 -60.99286 28.735048)
(41.17288 -72.823891 25.903678)
(55.262093 -90.201994 22.463976)
(69.906103 -104.7897 20.894427)
(86.242689 -121.22889 18.796666)
(103.76448 -136.02436 19.04511)
(121.94064 -151.10569 19.892769)
(141.04412 -163.80022 22.150563)
(161.1711 -177.34511 25.525054)
(181.9428 -187.6914 29.719874)
(203.96712 -198.28263 33.859984)
(226.82602 -206.00631 38.606504)
(251.15441 -213.16943 42.1147)
(276.64027 -219.34822 45.160269)
(303.28043 -222.90842 47.224979)
(331.42571 -226.83362 46.994963)
(360.6818 -229.03695 45.958017)
(391.21568 -231.07769 42.522089)
(422.55674 -232.96335 37.622667)
(454.27727 -234.67 31.649131)
(486.33815 -237.19553 24.324729)
(518.66495 -240.14895 16.309505)
(550.4482 -244.73884 8.2180751)
(581.83978 -249.75341 0.34180996)
(612.10912 -257.36281 -6.8104972)
(641.4115 -266.12251 -12.277529)
(669.62193 -277.309 -16.350483)
(696.91124 -290.69767 -18.131438)
(723.25511 -306.26626 -17.669099)
(749.106 -324.10599 -14.691409)
(774.88956 -344.30001 -9.2914388)
(801.3091 -366.04239 -2.1161824)
(827.75626 -390.88649 7.7484127)
(857.50214 -416.68794 18.857682)
(889.22639 -444.6094 30.970818)
(924.54503 -474.05641 43.489855)
(964.0003 -504.8726 56.028286)
(1008.4395 -536.85711 67.883592)
(1058.4694 -569.80229 78.555756)
(1114.6545 -603.58437 87.607664)
(1177.3793 -637.96395 94.660548)
(1246.915 -672.85647 99.507925)
(1323.36 -708.05015 102.02432)
(1406.6601 -743.48295 102.27969)
(1496.6194 -778.97636 100.42693)
(1592.904 -814.47541 96.79101)
(1695.0812 -849.83238 91.75352)
(1802.635 -884.98787 85.813408)
(1915.0034 -919.80504 79.47186)
(2031.614 -954.21472 73.277873)
(2151.9028 -988.07614 67.716773)
(2275.3677 -1021.3006 63.247143)
(2401.5592 -1053.7395 60.210635)
(2530.1366 -1085.281 58.859702)
(2660.8444 -1115.7751 59.301921)
(2793.54 -1145.0918 61.520604)
(2928.1785 -1173.0939 65.361236)
(3064.7983 -1199.6538 70.545114)
(3203.515 -1224.6599 76.691033)
(3344.4841 -1248.0191 83.336699)
(3487.877 -1269.657 89.969241)
(3633.8765 -1289.546 96.066012)
(3782.6121 -1307.6654 101.11827)
(3934.0832 -1324.0407 104.57531)
(4089.3653 -1338.8563 106.38708)
(4244.7267 -1351.9005 105.57244)
(4405.0144 -1363.9118 103.31634)
(4566.6978 -1374.4964 98.141533)
(4730.1488 -1384.119 91.244151)
(4894.8489 -1392.9614 82.420251)
(5060.2741 -1401.3052 72.286279)
(5225.8327 -1409.3731 61.30446)
(5390.9236 -1417.3998 50.041697)
(5555.0222 -1425.6093 39.089552)
(5717.6296 -1434.1904 29.037648)
(5878.3582 -1443.2875 20.40285)
(6036.9417 -1453.0079 13.627871)
(6193.2431 -1463.4051 9.0355419)
(6347.2759 -1474.4769 6.8096588)
(6499.1929 -1486.1761 6.9871988)
(6649.2846 -1498.3956 9.450372)
(6797.9503 -1510.9979 13.937712)
(6945.6793 -1523.7931 20.060856)
(7093.0082 -1536.5866 27.333353)
(7240.4884 -1549.1416 35.196886)
(7388.6387 -1561.2501 43.076295)
(7537.9017 -1572.6743 50.400137)
(7688.5992 -1583.2373 56.687591)
(7840.8807 -1592.7564 61.550364)
(7994.6784 -1601.1141 64.810115)
(8149.6258 -1608.2473 66.487038)
(8300.4701 -1613.4922 67.016689)
(8560.0897 -1476.2869 67.777279)
(8636.6809 -1325.7128 67.885308)
(8674.4702 -1166.4205 67.933423)
(8686.4829 -1001.6529 67.53093)
(8666.2327 -832.71835 66.460703)
(8610.8945 -660.27265 64.83357)
(8542.3474 -488.91386 62.410523)
(8468.4576 -318.84043 59.803244)
(8378.8369 -151.42358 56.380596)
(8313.8789 12.669494 53.363114)
(8288.295 174.70729 50.346163)
(8288.9653 336.07478 47.867743)
(8322.3213 498.91348 45.377082)
(8390.4844 665.16039 43.555888)
(8486.1942 836.1712 41.897891)
(8347.9726 1009.1645 35.657876)
(8192.1407 1014.133 31.430738)
(8032.5099 1018.5488 26.343955)
(7873.4557 1022.738 20.077843)
(7715.2493 1027.3314 12.932466)
(7558.4548 1032.6438 5.6673806)
(7403.1415 1038.9948 -1.4115025)
(7249.434 1046.5354 -7.7823836)
(7097.3339 1055.3171 -13.014386)
(6946.754 1065.3333 -16.80309)
(6797.435 1076.4323 -18.89788)
(6649.2152 1088.379 -19.126589)
(6501.6945 1100.896 -17.540634)
(6354.5936 1113.5867 -14.236135)
(6207.5795 1126.1817 -9.37485)
(6060.2253 1138.2178 -3.214113)
(5912.237 1149.2779 3.7778753)
(5763.3302 1159.0267 11.200884)
(5613.2856 1167.1703 18.533845)
(5461.9739 1173.4254 25.312771)
(5309.3261 1177.6605 31.050695)
(5155.3769 1179.7411 35.352101)
(5000.2232 1179.7064 37.824506)
(4844.0382 1177.5929 38.291295)
(4687.2457 1173.5201 36.523096)
(4529.6909 1167.7602 32.624757)
(4373.0186 1160.5833 26.003981)
(4214.8271 1152.1824 17.774793)
(4058.7238 1142.0134 8.0204186)
(3903.4476 1131.8236 -3.3835359)
(3749.3746 1120.9025 -15.95323)
(3597.1883 1109.4951 -29.098834)
(3446.9982 1097.783 -42.478803)
(3299.1122 1085.7279 -55.685424)
(3153.7434 1073.3055 -68.353017)
(3011.0762 1060.4013 -80.174847)
(2871.276 1046.8566 -90.907206)
(2734.4874 1032.4744 -100.38548)
(2600.8506 1017.0223 -108.52219)
(2470.5057 1000.2772 -115.31479)
(2343.6018 982.01185 -120.82555)
(2220.3046 962.0503 -125.19235)
(2100.7939 940.24368 -128.58829)
(1985.276 916.53364 -131.23647)
(1873.9661 890.90642 -133.35465)
(1767.1052 863.46574 -135.1794)
(1664.928 834.3573 -136.89717)
(1567.6827 803.85678 -138.6865)
(1475.5927 772.24797 -140.63715)
(1388.8635 739.96149 -142.82314)
(1307.6717 707.34601 -145.19303)
(1232.1192 674.94703 -147.70638)
(1162.3012 643.07097 -150.16592)
(1098.1499 612.31821 -152.50358)
(1039.6919 582.95386 -154.29366)
(986.68876 555.37939 -155.38679)
(938.76191 529.87775 -155.65646)
(896.53661 507.10402 -154.68817)
(857.2989 484.73106 -152.18148)
(823.28212 466.77515 -148.35876)
(792.74825 450.72501 -143.08674)
(764.38071 435.11304 -136.06557)
(739.22855 423.43349 -127.3293)
(715.77653 412.07868 -117.75698)
(693.71548 402.54897 -106.90524)
(671.7757 393.15754 -95.295579)
(651.14824 385.33642 -83.216666)
(629.2058 376.9414 -71.229963)
(607.66636 368.90613 -59.644716)
(584.85548 360.29267 -48.947678)
(561.03993 351.33571 -39.375518)
(535.92337 341.85783 -31.794296)
(509.53048 332.0318 -25.471475)
(481.78971 320.52111 -21.430594)
(453.01982 309.07017 -20.081873)
(422.88896 297.4133 -19.998068)
(392.17329 284.21319 -22.886861)
(360.70149 271.77292 -26.879689)
(328.85794 258.22022 -33.067353)
(297.38647 245.11799 -40.259019)
(266.07811 231.83905 -48.274079)
(235.33341 218.28216 -56.446717)
(205.80639 205.42957 -64.980652)
(178.08485 191.82432 -72.783073)
(151.41393 179.57803 -79.721447)
(127.29198 165.72128 -84.743527)
(105.344 152.83245 -89.074525)
(85.773616 139.18 -90.53079)
(68.895972 125.82176 -90.4393)
(54.794507 110.98832 -87.311295)
(43.703757 96.091752 -82.243593)
(35.272962 80.603931 -74.387143)
(29.955485 65.643411 -63.531296)
(26.021683 48.52132 -47.820994)
(30.018222 30.94787 -26.18984)
(-6.8708141e-15 1.5083581e-15 1.9262289e-16)
(-1.2504183e-14 5.7375616e-16 8.4327435e-16)
(-8.3449101e-15 1.4891922e-15 5.3018253e-16)
(-4.9731758e-15 1.4991158e-15 6.2376313e-16)
(-3.4146159e-15 1.5624416e-15 3.1576894e-17)
(2.0582335e-15 9.3962624e-16 -5.746342e-16)
(2.2101935e-15 3.7457559e-17 -1.1841335e-16)
(2.4553765e-15 -8.5141669e-16 -9.3419562e-16)
(1.2987427e-15 1.0081898e-16 1.7950851e-15)
(-4.5074861e-15 9.063971e-16 1.0710522e-15)
(-5.2682467e-15 2.1856155e-15 1.0652666e-15)
(-7.4917339e-15 1.915055e-15 2.2418828e-16)
(-9.400838e-15 1.3708275e-15 6.2833768e-16)
(-6.2048683e-15 1.3247981e-15 5.4317906e-16)
(-6.971104e-15 1.5128103e-15 7.5678131e-16)
(-1.2693866e-14 6.2923345e-15 -2.1364834e-15)
(-5.2452578e-15 2.6791924e-15 -5.3037742e-16)
(-1.0752404e-15 9.8318743e-16 -1.0111087e-16)
(-2.7353382e-15 1.7746034e-15 7.3085398e-17)
(1.0178949e-15 -1.5450237e-16 -4.119182e-16)
(-1.4303492e-15 4.136346e-16 -3.3264033e-16)
(-1.0059749e-14 4.7133437e-15 -1.6449855e-15)
(2.9801421e-15 -1.9180379e-15 -8.3172098e-16)
(-4.79756e-15 2.8035442e-15 1.1420498e-15)
(-5.4778068e-15 3.5047253e-15 -3.934403e-16)
(-1.8117877e-15 1.1581936e-15 -9.1309836e-16)
(-3.9812639e-16 4.7407236e-16 -2.2932148e-16)
(-1.5272242e-15 1.100363e-15 -2.2557932e-16)
(-4.1024849e-15 1.9838802e-15 2.8069696e-17)
(-5.3424143e-16 2.551799e-16 -1.9455919e-16)
(8485.6176 -1643.3787 49.294044)
(8488.466 -1646.6277 48.98282)
(8490.6001 -1648.2809 48.599093)
(8491.6996 -1648.2234 48.331631)
(8492.018 -1646.7454 48.394447)
(8491.4811 -1643.9219 48.878469)
(8490.293 -1640.2082 49.870512)
(8488.693 -1635.9913 51.388486)
(8486.8341 -1631.71 53.423121)
(8485.0122 -1627.7967 55.884632)
(8483.4038 -1624.6848 58.70024)
(8482.1135 -1622.6283 61.542513)
(8481.4274 -1621.7403 64.22802)
(8481.2099 -1622.1895 66.208733)
(8481.6814 -1623.2023 67.681104)
(8532.3708 998.79385 57.280692)
(8530.8213 994.36914 55.747974)
(8529.8994 991.22391 53.218539)
(8529.9053 989.67969 50.078169)
(8530.5271 989.82157 46.851292)
(8531.9211 991.48967 43.781864)
(8533.7943 994.38977 41.110186)
(8535.9107 998.09353 38.966033)
(8538.0188 1002.131 37.450232)
(8539.8205 1006.0197 36.594777)
(8541.1213 1009.2857 36.317971)
(8541.5765 1011.4204 36.621804)
(8541.2064 1012.3195 37.305342)
(8539.8907 1011.3489 38.089893)
(8537.5404 1009.1133 39.265222)
(2.2462727 13.61739 17.31705)
(2.767148 22.459897 20.355719)
(5.9383582 32.883442 21.535224)
(12.851231 43.38061 20.762548)
(21.71142 54.964975 19.041171)
(33.915885 67.091239 17.092043)
(47.780539 79.422753 15.134379)
(64.245417 92.313985 13.841077)
(81.82488 104.33468 13.376792)
(101.41253 116.53159 13.708766)
(122.12394 127.27065 14.9359)
(144.40061 137.72991 16.998283)
(167.65944 146.22067 19.490803)
(192.35926 154.13964 22.348689)
(218.05211 160.02474 25.099912)
(245.21161 165.15889 27.579174)
(273.33567 168.43021 29.19643)
(302.5868 170.88894 30.069946)
(332.98187 172.3166 29.60679)
(364.08468 172.92863 27.928581)
(396.03578 173.24344 24.860438)
(428.32163 173.28989 20.524639)
(460.99144 173.72104 15.025417)
(493.47597 174.57671 8.6687428)
(525.70794 176.43509 1.7497443)
(557.2261 179.31627 -5.308865)
(588.0786 183.86999 -12.119233)
(617.79126 189.92179 -18.213382)
(646.49714 197.82602 -23.064803)
(674.0695 207.84328 -26.442462)
(700.69823 219.58854 -27.919893)
(726.55537 233.36308 -27.317451)
(752.13125 249.0974 -24.52412)
(777.7314 266.68058 -19.579405)
(804.15542 285.65392 -12.305336)
(832.18785 306.16486 -3.4684377)
(862.34951 327.86041 6.729723)
(895.59755 350.40027 18.159569)
(932.89923 373.76416 29.95722)
(974.82714 397.57351 41.744547)
(1022.3395 421.79439 52.978742)
(1076.0922 446.14947 63.201886)
(1136.4205 470.57233 71.812519)
(1203.9162 494.9595 78.610963)
(1278.7408 519.26266 83.344215)
(1360.9697 543.43648 85.918151)
(1450.4502 567.4711 86.357961)
(1546.9162 591.38819 84.855709)
(1649.9185 615.1701 81.690626)
(1758.9232 638.82981 77.269886)
(1873.2797 662.33324 72.054015)
(1992.3148 685.63848 66.559884)
(2115.3165 708.66396 61.301922)
(2241.6215 731.29599 56.771946)
(2370.6025 753.38428 53.39505)
(2501.7412 774.74612 51.50725)
(2634.6081 795.17387 51.322622)
(2768.92 814.43721 52.926856)
(2904.4979 832.30327 56.260335)
(3041.3148 848.54344 61.127209)
(3179.4198 862.94078 67.197876)
(3318.9937 875.33986 74.054757)
(3460.2275 885.55004 81.155241)
(3603.3978 893.60623 88.014259)
(3748.6629 899.3463 93.939469)
(3896.5091 902.85484 98.514624)
(4046.609 904.53883 101.30871)
(4199.1579 904.20014 101.92454)
(4354.2695 902.3871 100.12494)
(4511.4365 899.04879 95.723916)
(4670.5665 894.88288 88.837904)
(4831.0929 889.97806 79.771329)
(4992.5565 884.72316 68.768704)
(5154.3437 879.44044 56.340794)
(5315.8776 874.42849 43.004056)
(5476.5544 869.92439 29.391211)
(5635.8027 866.12006 16.126734)
(5793.1839 863.13412 3.8447969)
(5948.2589 861.05305 -6.922049)
(6100.8467 859.85473 -15.646102)
(6250.7819 859.46434 -22.008721)
(6398.1913 859.74546 -25.667695)
(6543.1952 860.58946 -26.755002)
(6686.2463 861.77737 -25.131335)
(6827.6497 863.01274 -21.035608)
(6968.1123 863.95865 -14.895342)
(7108.1881 864.51637 -7.0641688)
(7248.5589 864.37612 1.8880232)
(7389.743 863.48161 11.387158)
(7532.5183 861.6155 20.875367)
(7677.0055 858.76503 29.863305)
(7823.6484 855.08901 37.853504)
(7972.7849 850.35241 44.759717)
(8123.0739 845.29475 50.411838)
(8280.0255 840.0735 55.012805)
(-2.8587769 9.7595738 13.31482)
(-2.5745675 14.794636 15.045042)
(1.5034781 24.544707 14.330448)
(7.4587816 32.482605 13.537886)
(16.305361 42.860717 11.094542)
(27.81538 52.794635 8.9455341)
(41.686764 63.83573 6.970373)
(57.310766 74.59888 5.6103801)
(75.200286 85.441258 5.2363693)
(94.473779 95.755854 5.3542336)
(115.44545 105.4693 6.8518321)
(137.64425 114.21411 8.4776738)
(161.3479 122.04058 11.292993)
(186.18962 128.39786 13.819345)
(212.39985 133.70949 16.954672)
(239.78645 137.51218 19.111321)
(268.18817 140.28768 21.421548)
(297.90536 141.78398 22.248151)
(328.36469 142.52181 22.47126)
(359.75508 142.43247 21.144691)
(391.74388 142.12536 18.790469)
(424.14837 141.65756 14.975821)
(456.68848 141.52979 10.228116)
(489.11462 141.98744 4.3931866)
(521.19211 143.38506 -1.9171248)
(552.59222 146.0372 -8.6240632)
(583.18041 150.09208 -15.132107)
(612.69118 155.82844 -21.0983)
(641.15279 163.42716 -26.155899)
(668.43562 172.75676 -29.833117)
(694.81843 184.01137 -31.881514)
(720.50576 197.0709 -32.036286)
(745.84785 211.78155 -30.190722)
(771.36997 227.8592 -26.208809)
(797.70492 245.28741 -20.379521)
(825.44082 263.70685 -12.739634)
(855.72276 282.86655 -3.7223524)
(889.05157 302.65101 6.3798194)
(926.32335 322.61351 17.028837)
(968.53572 342.83018 27.824976)
(1016.2865 362.87315 38.035037)
(1070.3132 382.91242 47.675494)
(1131.2337 402.63203 55.65371)
(1199.2916 422.17783 62.136676)
(1274.8174 441.50177 66.771708)
(1357.83 460.67125 69.48393)
(1448.1864 479.75779 70.254876)
(1545.5984 498.85489 69.280863)
(1649.613 518.00575 66.79912)
(1759.671 537.28042 63.206505)
(1875.1145 556.66927 58.908072)
(1995.2532 576.15755 54.405717)
(2119.3639 595.65127 50.15522)
(2246.775 615.02566 46.627332)
(2376.8512 634.09056 44.197164)
(2509.0679 652.62533 43.176996)
(2642.9926 670.36345 43.746179)
(2778.3313 687.02574 45.976005)
(2914.8999 702.3286 49.787888)
(3052.6516 715.99311 54.985367)
(3191.6215 727.78236 61.25519)
(3331.9565 737.50228 68.178188)
(3473.8098 744.99525 75.261943)
(3617.424 750.27051 82.072384)
(3762.9089 753.26008 87.826064)
(3910.5588 754.11543 92.645868)
(4060.3036 753.30043 95.282605)
(4212.5046 750.6373 96.102156)
(4366.7227 746.18849 94.517817)
(4522.7586 740.73015 90.613917)
(4680.2119 734.55772 84.416167)
(4838.6278 728.05665 76.183836)
(4997.5285 721.55205 66.230461)
(5156.3684 715.42149 54.978911)
(5314.5684 709.93502 42.918943)
(5471.6034 705.29386 30.644605)
(5626.9832 701.67508 18.694112)
(5780.2842 699.13157 7.652174)
(5931.2322 697.68301 -2.0106644)
(6079.6466 697.20989 -9.8047158)
(6225.485 697.63563 -15.520287)
(6368.8736 698.66737 -18.785486)
(6510.037 700.20952 -19.764807)
(6644.5792 701.22749 -18.097506)
(6779.7158 702.19864 -14.651179)
(6916.7126 703.23831 -8.9470189)
(7053.5802 703.62378 -1.9542871)
(7190.9739 703.2051 6.1703109)
(7329.4124 701.90079 14.786986)
(7469.5738 699.52909 23.486563)
(7611.7173 696.25425 31.80352)
(7755.9356 692.14096 39.372148)
(7903.1027 687.09791 46.094504)
(8051.2312 681.87646 51.759454)
(8206.1915 676.51994 56.614663)
(-5.9066876 6.3975699 9.782354)
(-6.1939373 10.029393 9.5480108)
(-3.3819302 17.016015 8.3272976)
(2.7051316 23.665099 6.3359694)
(11.291085 32.000297 3.1991385)
(22.929155 40.519325 0.86696436)
(36.014919 49.321656 -1.324805)
(52.274156 58.762975 -2.6800125)
(69.647981 67.37192 -3.3073005)
(89.222009 76.532735 -2.8526221)
(110.12344 84.170896 -1.719116)
(132.82691 91.982217 0.38953924)
(156.59574 97.841071 2.8527391)
(181.96062 103.4396 5.9277053)
(208.48413 107.24175 8.7043036)
(236.17658 110.20547 11.711158)
(265.12961 111.81955 13.784638)
(294.97118 112.50641 15.32804)
(325.79094 112.37675 15.767131)
(357.335 111.54067 15.093557)
(389.4501 110.56654 13.164304)
(421.83148 109.34332 10.013744)
(454.36552 108.67566 5.7311788)
(486.63393 108.40876 0.4512142)
(518.49399 109.28633 -5.4791355)
(549.59322 111.16732 -11.861871)
(579.86888 114.62942 -18.170666)
(609.00055 119.61581 -24.218119)
(637.09776 126.30991 -29.375559)
(664.03476 134.72694 -33.469387)
(690.11086 144.82307 -36.055749)
(715.43095 156.50824 -36.996154)
(740.50802 169.56393 -35.992006)
(765.76303 183.90428 -33.182802)
(791.87022 199.16831 -28.445263)
(819.57026 215.15275 -22.050415)
(849.62543 231.61532 -14.263467)
(882.80101 248.23986 -5.4053167)
(920.29352 264.94546 4.0889647)
(962.54101 281.23614 13.65043)
(1010.4444 297.43661 23.134104)
(1064.6799 313.11543 31.74263)
(1125.7909 328.40301 39.358512)
(1194.1411 343.35614 45.42335)
(1269.942 358.03045 49.933431)
(1353.2193 372.51657 52.706705)
(1443.862 386.96313 53.763541)
(1541.5506 401.50223 53.245081)
(1645.8435 416.23683 51.397933)
(1756.1708 431.2547 48.55396)
(1871.8882 446.58814 45.113278)
(1992.2976 462.21942 41.517364)
(2116.6938 478.06795 38.200779)
(2244.4044 493.99268 35.586545)
(2374.8067 509.79444 34.024927)
(2507.3796 525.2241 33.792845)
(2641.6954 539.9949 35.056774)
(2777.457 553.80313 37.864786)
(2914.4757 566.3405 42.140101)
(3052.6884 577.31371 47.693876)
(3192.1119 586.48063 54.212866)
(3332.857 593.62758 61.312763)
(3475.0553 598.64699 68.544717)
(3618.8797 601.47887 75.408756)
(3764.4686 602.16045 81.395945)
(3911.8916 600.74331 86.302523)
(4061.3958 597.8663 89.006461)
(4214.9078 592.87257 90.533743)
(4367.6077 586.7729 89.487228)
(4522.1567 580.10606 86.331715)
(4677.9123 573.00148 80.970759)
(4834.202 565.86297 73.71435)
(4990.7138 558.98834 64.8354)
(5146.8544 552.68026 54.717214)
(5302.1429 547.18981 43.818313)
(5456.0892 542.71374 32.67813)
(5608.2519 539.35446 21.816609)
(5758.321 537.12282 11.73829)
(5906.0349 536.00232 2.9113616)
(6051.3038 535.83623 -4.2791288)
(6194.1603 536.51028 -9.5404457)
(6334.7678 537.69045 -12.638767)
(6473.394 539.28469 -13.60554)
(6610.4321 540.71141 -12.397367)
(6739.3909 541.90696 -8.9538769)
(6874.6944 542.86924 -3.9337829)
(7010.1609 543.22218 2.3559152)
(7146.3263 542.61271 9.7650256)
(7283.722 541.15331 17.623077)
(7423.0222 538.62107 25.694294)
(7564.2951 535.21502 33.48018)
(7707.9275 531.04783 40.771472)
(7854.5358 526.06676 47.232813)
(8002.3059 520.95122 53.069151)
(8156.2 515.63322 57.983647)
(-7.8875029 3.5685303 5.3171226)
(-8.9856432 5.0593006 4.122834)
(-6.188687 10.267981 1.3025586)
(-0.54585707 14.904898 -1.3831744)
(8.2436728 21.788198 -4.8543813)
(19.072483 27.969032 -7.3246406)
(33.044066 35.625399 -9.7891173)
(48.651577 42.791867 -11.269276)
(66.451844 50.208261 -11.558377)
(86.047518 57.183314 -11.453757)
(107.48699 63.733889 -9.8041209)
(130.17788 69.441869 -8.0399859)
(154.60698 74.313145 -4.960322)
(180.32037 78.187304 -2.304313)
(207.23585 80.779336 1.2860602)
(235.51424 82.439237 3.8966138)
(264.72455 82.932894 6.6467868)
(295.03897 82.479387 8.2435903)
(326.09372 81.278974 9.1973698)
(357.86172 79.484878 8.7442026)
(389.97206 77.45473 7.3383911)
(422.38335 75.417228 4.49774)
(454.65442 73.730413 0.68092296)
(486.67524 72.665817 -4.262674)
(518.11038 72.52969 -9.8497649)
(548.78018 73.551579 -15.980304)
(578.45761 75.976904 -22.180951)
(607.06459 79.867594 -28.146392)
(634.52287 85.377013 -33.465918)
(660.89778 92.466989 -37.830518)
(686.35625 101.09203 -40.884778)
(711.17637 111.09226 -42.388045)
(735.79203 122.33495 -42.221776)
(760.66761 134.53741 -40.267831)
(786.55756 147.40008 -36.56156)
(814.00346 160.80229 -31.321649)
(844.07808 174.21908 -24.741811)
(877.48798 187.63346 -17.015077)
(914.79974 200.5918 -8.7124349)
(957.02182 213.51863 0.065681862)
(1004.9577 225.72458 8.4532801)
(1059.1544 237.41083 16.390532)
(1120.1472 248.58603 23.323843)
(1188.339 259.27358 29.057399)
(1263.8827 269.65277 33.388683)
(1346.8139 279.81785 36.204695)
(1437.0108 289.96962 37.508912)
(1534.1618 300.26197 37.440899)
(1637.8405 310.83968 36.196478)
(1747.498 321.81094 34.098275)
(1862.5104 333.23031 31.492769)
(1982.2109 345.09344 28.792436)
(2105.9232 357.3283 26.384137)
(2233.0012 369.79938 24.660985)
(2362.8512 382.30373 23.931481)
(2494.9699 394.59225 24.4567)
(2628.9441 406.37266 26.372703)
(2764.4825 417.33607 29.727902)
(2901.392 427.16768 34.443276)
(3039.5953 435.58086 40.333498)
(3179.0876 442.31364 47.115192)
(3319.9463 447.18763 54.418706)
(3462.2795 450.05706 61.836988)
(3606.1794 450.91168 68.86243)
(3751.8618 449.74102 75.215224)
(3899.1039 446.83507 80.119324)
(4048.2942 442.01805 83.788881)
(4199.1536 436.31646 85.425975)
(4351.4725 429.26399 84.945778)
(4504.901 421.59033 82.400619)
(4659.3286 413.54244 77.98308)
(4814.2072 405.6794 71.667197)
(4969.0802 398.17804 63.824135)
(5123.5355 391.39533 54.737052)
(5277.0718 385.64159 44.966041)
(5429.2467 380.99787 34.896777)
(5579.7069 377.60425 25.0162)
(5728.1559 375.44827 15.812446)
(5874.4162 374.46227 7.6856897)
(6018.4351 374.52231 1.0307505)
(6160.2626 375.40843 -3.8986558)
(6300.0813 376.87809 -6.9004257)
(6438.2318 378.69304 -7.9018681)
(6575.0814 380.51396 -6.9183061)
(6711.0924 382.09868 -4.0804538)
(6846.8712 383.06953 0.38227594)
(6982.9855 383.41909 6.0951794)
(7119.9592 382.85443 12.888143)
(7258.3053 381.45167 20.14449)