/*--------------------------------*- C++ -*----------------------------------*\
  =========                 |
  \\      /  F ield         | OpenFOAM: The Open Source CFD Toolbox
   \\    /   O peration     | Website:  https://openfoam.org
    \\  /    A nd           | Version:  6
     \\/     M anipulation  |
\*---------------------------------------------------------------------------*/
FoamFile
{
    version     2.0;
    format      ascii;
    class       pointVectorField;
    location    "1.59";
    object      u;
}
// * * * * * * * * * * * * * * * * * * * * * * * * * * * * * * * * * * * * * //

dimensions      [0 1 0 0 0 0 0];

internalField   nonuniform List<vector> 
28033
(
(0 7.0326498e-19 0)
(0 4.8157485e-18 0)
(-1.2539296 -0.27170166 -0.014038666)
(-1.2879488 -0.013175933 -0.013408656)
(0 4.3492037e-18 0)
(0 7.0835701e-18 0)
(-1.2889313 -0.011271645 -0.013511756)
(-1.2549846 -0.26974218 -0.01394203)
(0 1.5227743e-18 0)
(0 4.3973027e-19 0)
(0 3.5126422e-18 0)
(0 -1.6676447e-18 0)
(0 2.2464267e-18 0)
(0 -1.3312969e-18 0)
(0 -3.216897e-20 0)
(-1.0730359e-18 -3.5004248e-19 0)
(0 6.5836505e-19 0)
(0 3.2763241e-19 0)
(0 -1.2608867e-18 0)
(0 1.2207944e-18 0)
(0 1.4598571e-18 0)
(0 -1.1708928e-18 0)
(0 1.4886623e-18 0)
(-1.2560482 -0.25557008 -0.01401597)
(-1.2581787 -0.23943844 -0.013994634)
(-1.260317 -0.22329799 -0.01396388)
(-1.2624628 -0.20714466 -0.013926735)
(-1.2646102 -0.19097844 -0.013883674)
(-1.266758 -0.1747999 -0.013831189)
(-1.2689052 -0.15861185 -0.013778649)
(-1.2710444 -0.14241813 -0.013719777)
(-1.2731787 -0.12622386 -0.013663345)
(-1.2753053 -0.11003545 -0.013607411)
(-1.2774219 -0.093855806 -0.013558148)
(-1.2795338 -0.077690057 -0.013516879)
(-1.2816372 -0.061539244 -0.013479942)
(-1.2837386 -0.045405494 -0.013451525)
(-1.2858405 -0.029287217 -0.013430266)
(-0.0035881013 -0.0072246048 -0.0071940055)
(-0.0041375851 -0.010373676 -0.010360517)
(-0.0052459711 -0.014032982 -0.012203175)
(-0.0072724635 -0.017614519 -0.013594589)
(-0.0095387019 -0.02135502 -0.014276809)
(-0.01266545 -0.025137893 -0.014791125)
(-0.016211341 -0.029051008 -0.01499502)
(-0.020432135 -0.03283183 -0.015091583)
(-0.02507506 -0.036805859 -0.015058)
(-0.030329657 -0.04061106 -0.015000248)
(-0.035970456 -0.044507953 -0.014842069)
(-0.042138511 -0.048310838 -0.014679956)
(-0.048693673 -0.052161292 -0.014523904)
(-0.055764023 -0.055926926 -0.014313493)
(-0.063175658 -0.059703459 -0.014130673)
(-0.071063072 -0.063405351 -0.013898939)
(-0.079305758 -0.067157088 -0.013716852)
(-0.087994189 -0.070781793 -0.013489807)
(-0.0970275 -0.074471636 -0.013266863)
(-0.10646537 -0.078058893 -0.013031367)
(-0.116249 -0.081684328 -0.012815838)
(-0.12640478 -0.085213725 -0.012557249)
(-0.1368926 -0.088779112 -0.012338318)
(-0.14771835 -0.092267853 -0.012088568)
(-0.15886554 -0.095758329 -0.011849516)
(-0.17031349 -0.099201824 -0.011615088)
(-0.1820611 -0.10262168 -0.011394645)
(-0.19408341 -0.10601214 -0.011167726)
(-0.20638943 -0.10936583 -0.010957901)
(-0.21893924 -0.11268821 -0.010761536)
(-0.23174938 -0.11598983 -0.010574816)
(-0.24478163 -0.11923455 -0.010396155)
(-0.25804786 -0.12247298 -0.010241211)
(-0.27153776 -0.12564885 -0.01008831)
(-0.28523553 -0.12882322 -0.0099429948)
(-0.29913946 -0.13193692 -0.0098114043)
(-0.31323178 -0.13503172 -0.0096901107)
(-0.3275218 -0.13808703 -0.0095691452)
(-0.34198527 -0.14110307 -0.0094459128)
(-0.35662249 -0.14409253 -0.0093319239)
(-0.37142647 -0.14703466 -0.009214471)
(-0.38637998 -0.14995063 -0.009099377)
(-0.40148756 -0.15282198 -0.0089803016)
(-0.41672769 -0.1556596 -0.0088648344)
(-0.4320953 -0.15845208 -0.0087486223)
(-0.44757717 -0.1612099 -0.0086363208)
(-0.46316053 -0.1639222 -0.0085296674)
(-0.4788388 -0.16659741 -0.008429568)
(-0.49459268 -0.16922833 -0.0083411338)
(-0.51041989 -0.1718212 -0.0082648849)
(-0.52630089 -0.17437262 -0.0082048313)
(-0.54223373 -0.17688611 -0.0081624624)
(-0.55820295 -0.17936303 -0.0081401112)
(-0.57420609 -0.1818041 -0.0081386861)
(-0.59023302 -0.18421408 -0.0081588969)
(-0.60628151 -0.18659287 -0.0082009685)
(-0.62234627 -0.18894585 -0.0082634207)
(-0.63842653 -0.19127404 -0.008345408)
(-0.65452031 -0.19358137 -0.0084443994)
(-0.67062896 -0.19586996 -0.0085578741)
(-0.68675232 -0.19814275 -0.0086827144)
(-0.70289353 -0.20040158 -0.0088156806)
(-0.71905247 -0.2026478 -0.0089539542)
(-0.73523482 -0.20488305 -0.0090928032)
(-0.75143571 -0.20710951 -0.0092322933)
(-0.76766502 -0.20932338 -0.0093662157)
(-0.78391561 -0.21152848 -0.0094964574)
(-0.8001902 -0.21372319 -0.0096198564)
(-0.81648803 -0.21590338 -0.0097350141)
(-0.83280452 -0.21807518 -0.0098440903)
(-0.84913773 -0.22022938 -0.0099479854)
(-0.86548214 -0.22237047 -0.010047545)
(-0.88183338 -0.2244956 -0.010145296)
(-0.89818573 -0.22660215 -0.010244042)
(-0.91453332 -0.2286948 -0.010344414)
(-0.93087087 -0.23076595 -0.010452574)
(-0.94719186 -0.23282594 -0.010566462)
(-0.96349378 -0.23486498 -0.01069299)
(-0.97976947 -0.23689649 -0.01082858)
(-0.99602018 -0.23891032 -0.010980237)
(-1.0122408 -0.24092077 -0.011141278)
(-1.0284322 -0.24292191 -0.011318913)
(-1.0445977 -0.24492212 -0.011504858)
(-1.060734 -0.24692188 -0.0117047)
(-1.0768517 -0.24892411 -0.011909735)
(-1.0929458 -0.25093664 -0.01212251)
(-1.1090324 -0.25295295 -0.012336541)
(-1.1251045 -0.25498842 -0.012550605)
(-1.1411808 -0.25702852 -0.012761588)
(-1.1572536 -0.25909253 -0.012966546)
(-1.1733394 -0.26116191 -0.013163751)
(-1.1894324 -0.26325483 -0.013351902)
(-1.2055411 -0.2653529 -0.013530324)
(-1.2216643 -0.26746503 -0.013701639)
(-1.2377981 -0.26958265 -0.013865014)
(-0.0026006655 0.006648148 0.008888352)
(-0.0055540146 0.0099816591 0.0090439275)
(-0.007226389 0.014030095 0.011892017)
(-0.0094185686 0.017481109 0.012389278)
(-0.012528244 0.021382214 0.013177556)
(-0.016020877 0.025402832 0.013362674)
(-0.020131635 0.029079261 0.013463636)
(-0.024798014 0.033005901 0.013307621)
(-0.030095203 0.036719577 0.013097839)
(-0.035810822 0.040385848 0.012789466)
(-0.042158604 0.043971994 0.012426307)
(-0.048889514 0.047413939 0.01204546)
(-0.056204746 0.050784128 0.011607372)
(-0.063908477 0.05400303 0.011206648)
(-0.072121009 0.057103464 0.01074593)
(-0.080729225 0.060072366 0.010331905)
(-0.089792422 0.062888848 0.0098749318)
(-0.099247216 0.065575507 0.0094448989)
(-0.10912279 0.068117016 0.0090051321)
(-0.11935309 0.070488696 0.0085796254)
(-0.12998721 0.072733497 0.0081296053)
(-0.14096325 0.074814732 0.0077198831)
(-0.1522794 0.076731222 0.0072766685)
(-0.16394589 0.078513763 0.0068554366)
(-0.17590866 0.080125633 0.00643226)
(-0.18818768 0.081584131 0.0059992636)
(-0.20074984 0.08290264 0.0055890008)
(-0.21358476 0.084049027 0.0051554573)
(-0.2266904 0.085072708 0.0047428517)
(-0.24002755 0.08592208 0.0043128686)
(-0.25362374 0.086663974 0.003894071)
(-0.26742364 0.087237564 0.0034710643)
(-0.28145914 0.087698864 0.0030487857)
(-0.29567705 0.088012703 0.0026270297)
(-0.31011141 0.088211855 0.0022008691)
(-0.32470216 0.088272833 0.0017842537)
(-0.33948788 0.088219967 0.001349236)
(-0.35442378 0.088050618 0.00093265349)
(-0.3695212 0.087759847 0.00050325139)
(-0.38475785 0.087360314 8.2506156e-05)
(-0.40013496 0.086847783 -0.00034289703)
(-0.41562834 0.086228476 -0.00076076168)
(-0.4312432 0.085503405 -0.0011806733)
(-0.44695411 0.084676876 -0.001591503)
(-0.46276214 0.083751071 -0.0020003797)
(-0.47864778 0.082730592 -0.0023996558)
(-0.49460602 0.081618902 -0.0027920165)
(-0.51062229 0.080420898 -0.0031734165)
(-0.52669001 0.079141402 -0.0035443794)
(-0.542796 0.077785543 -0.0039020564)
(-0.55893582 0.07635928 -0.0042471266)
(-0.5750979 0.074868155 -0.0045771745)
(-0.59127901 0.073317896 -0.0048934395)
(-0.60747192 0.071714859 -0.0051944643)
(-0.62367391 0.070064029 -0.0054818045)
(-0.63988131 0.068371062 -0.0057551214)
(-0.65609416 0.066640946 -0.006016601)
(-0.67231029 0.064877503 -0.0062665652)
(-0.68853194 0.063084994 -0.0065076927)
(-0.70475935 0.061265976 -0.0067410444)
(-0.72099479 0.059423122 -0.0069693301)
(-0.73723964 0.057557591 -0.0071936215)
(-0.75349687 0.055671257 -0.0074169633)
(-0.76976659 0.053763354 -0.0076397237)
(-0.7860514 0.051835405 -0.0078645665)
(-0.80235058 0.049885699 -0.0080915381)
(-0.81866453 0.047915307 -0.0083220028)
(-0.83499201 0.045922448 -0.0085562234)
(-0.8513303 0.043907374 -0.0087937033)
(-0.86767525 0.041869708 -0.0090338962)
(-0.88402556 0.039811527 -0.0092759577)
(-0.90037511 0.037730706 -0.0095184799)
(-0.91672126 0.035631819 -0.0097604282)
(-0.93305523 0.033512958 -0.0099986217)
(-0.94937711 0.031380171 -0.010233642)
(-0.96567751 0.029232974 -0.010460449)
(-0.98195669 0.027076912 -0.010680917)
(-0.99820806 0.02491294 -0.010890242)
(-1.0144324 0.022746945 -0.011090391)
(-1.0306253 0.020579232 -0.011277386)
(-1.0467907 0.018416554 -0.011454421)
(-1.0629248 0.016257525 -0.011617371)
(-1.0790357 0.014108849 -0.011771624)
(-1.0951204 0.01196783 -0.011912824)
(-1.1111893 0.0098400096 -0.012047791)
(-1.1272408 0.007721322 -0.012172692)
(-1.1432864 0.005615972 -0.012294737)
(-1.1593253 0.0035185376 -0.01241084)
(-1.1753681 0.0014315899 -0.012527671)
(-1.1914147 -0.00065084279 -0.012643134)
(-1.2074732 -0.0027282871 -0.01276216)
(-1.2235433 -0.0048063517 -0.0128837)
(-1.2396288 -0.0068863833 -0.013010156)
(-1.2557275 -0.0089736068 -0.013140675)
(-1.2718359 -0.011068947 -0.013274858)
(0 -1.9135393e-18 0)
(0 -1.3972622e-18 0)
(0 1.30879e-18 0)
(0 -8.2701467e-19 0)
(0 -7.1213877e-19 0)
(0 3.979625e-18 0)
(0 -1.1814936e-18 0)
(-2.7508882e-18 7.689429e-19 0)
(0 -7.0278511e-19 0)
(0 1.7121293e-18 0)
(0 2.0462553e-18 0)
(0 7.1572141e-19 0)
(0 3.7883984e-19 0)
(0 -7.7162469e-19 0)
(0 5.2450923e-19 0)
(-0.0047781246 0.0031265799 -0.0067029649)
(-0.0065092464 0.012011482 -0.0098587208)
(-0.0073830072 0.012989175 -0.011263383)
(-0.010414052 0.019016534 -0.013096261)
(-0.012825519 0.021861003 -0.0137502)
(-0.016685675 0.026456227 -0.014207763)
(-0.020490554 0.029989981 -0.014475943)
(-0.025405388 0.034274909 -0.014643068)
(-0.030422562 0.037802929 -0.014643248)
(-0.036327148 0.041843976 -0.014653838)
(-0.04249109 0.045286118 -0.014603161)
(-0.049250628 0.048898 -0.014501096)
(-0.056495873 0.052297891 -0.014411982)
(-0.064165998 0.05554399 -0.014269595)
(-0.072356485 0.058736723 -0.014160065)
(-0.080939491 0.061670467 -0.013985101)
(-0.089948956 0.064558127 -0.013876037)
(-0.099440068 0.067248637 -0.013671532)
(-0.10923643 0.069767614 -0.013521681)
(-0.11957404 0.072222544 -0.013324242)
(-0.13011452 0.074396495 -0.013152169)
(-0.14118279 0.076527404 -0.012951839)
(-0.152452 0.078403977 -0.012729143)
(-0.16422671 0.080268413 -0.012552744)
(-0.17614062 0.081785093 -0.012309223)
(-0.18852876 0.083359949 -0.012128067)
(-0.20107036 0.084585035 -0.011897598)
(-0.21399156 0.085846211 -0.011714053)
(-0.22709292 0.086803268 -0.011505213)
(-0.24049541 0.087744431 -0.011329479)
(-0.25409399 0.088454465 -0.011145035)
(-0.26794529 0.089086582 -0.010985066)
(-0.28197535 0.089544091 -0.010826274)
(-0.2962321 0.089897935 -0.010681274)
(-0.3106557 0.090110908 -0.010549144)
(-0.32526957 0.090186931 -0.010417838)
(-0.34003988 0.090164067 -0.010299615)
(-0.35498871 0.090004792 -0.010184778)
(-0.37007005 0.089725134 -0.010074377)
(-0.38530867 0.089335935 -0.0099647674)
(-0.40067164 0.088826134 -0.0098556035)
(-0.41616532 0.088212337 -0.0097482086)
(-0.43176955 0.0874853 -0.0096378423)
(-0.44748253 0.086658813 -0.0095293454)
(-0.46328707 0.085728925 -0.0094192474)
(-0.47917912 0.084706457 -0.009312042)
(-0.49514267 0.083590866 -0.0092066896)
(-0.51117183 0.082391579 -0.0091069257)
(-0.52725285 0.081111221 -0.0090143462)
(-0.54337863 0.079757348 -0.008931301)
(-0.55953819 0.078335136 -0.0088608655)
(-0.57572505 0.076850528 -0.0088035042)
(-0.59193125 0.075309991 -0.0087633075)
(-0.60815115 0.073717954 -0.0087389219)
(-0.62438082 0.072081725 -0.0087338526)
(-0.6406161 0.070403444 -0.0087454328)
(-0.65685597 0.068690442 -0.0087760562)
(-0.67309901 0.066943686 -0.0088219398)
(-0.68934567 0.065168256 -0.0088836624)
(-0.70559715 0.063365302 -0.0089576108)
(-0.72185452 0.06153726 -0.0090423494)
(-0.73812028 0.059684836 -0.0091345602)
(-0.75439588 0.05780928 -0.0092323281)
(-0.77068298 0.055909928 -0.0093324257)
(-0.78698309 0.053987886 -0.0094331333)
(-0.80329648 0.052042022 -0.0095325209)
(-0.81962244 0.050071831 -0.0096284719)
(-0.83596058 0.048078911 -0.0097224402)
(-0.85231148 0.046060479 -0.0098099091)
(-0.8686621 0.044022069 -0.0098967305)
(-0.88502145 0.041957599 -0.0099791428)
(-0.90137635 0.039873111 -0.010062224)
(-0.91772623 0.037768078 -0.010144509)
(-0.93406459 0.035645426 -0.0102305)
(-0.95038662 0.033507425 -0.010320792)
(-0.96668821 0.031356614 -0.010418284)
(-0.98296484 0.029196304 -0.010524132)
(-0.99921422 0.027029264 -0.010640519)
(-1.0154331 0.02485899 -0.010767834)
(-1.0316218 0.022687956 -0.010907108)
(-1.0477791 0.02051948 -0.011057537)
(-1.0639084 0.018355519 -0.011219179)
(-1.0800098 0.016198205 -0.011389709)
(-1.09609 0.014049048 -0.011568232)
(-1.1121504 0.011908785 -0.011751506)
(-1.1281991 0.0097779349 -0.01193782)
(-1.1442388 0.0076561419 -0.012123536)
(-1.1602777 0.0055426513 -0.012306896)
(-1.1763186 0.0034365599 -0.012484597)
(-1.1923683 0.0013353784 -0.012655147)
(-1.208429 -0.0007613866 -0.012816777)
(-1.2245045 -0.002857986 -0.012968904)
(-1.2405951 -0.0049542028 -0.013111627)
(-1.2566997 -0.00705539 -0.013246896)
(-1.2728158 -0.0091585705 -0.013377362)
(-1.2868208 -0.027386284 -0.013549405)
(-1.2847115 -0.043507689 -0.013590143)
(-1.282621 -0.059633114 -0.013624793)
(-1.2805127 -0.075784478 -0.013654319)
(-1.278418 -0.09193752 -0.013678383)
(-1.276301 -0.1081164 -0.013697523)
(-1.2741891 -0.12429182 -0.013712311)
(-1.2720605 -0.14048078 -0.013725334)
(-1.2699341 -0.15666496 -0.01373967)
(-1.2677907 -0.1728496 -0.01375412)
(-1.2656525 -0.18902245 -0.01377296)
(-1.2635113 -0.20518695 -0.013795145)
(-1.2613679 -0.22133933 -0.013827812)
(-1.2592368 -0.23747739 -0.013860602)
(-1.2571031 -0.25361034 -0.013903822)
(-1.2388513 -0.26762369 -0.013833353)
(-1.2227248 -0.26550104 -0.013718833)
(-1.2066069 -0.26338145 -0.013609421)
(-1.1905008 -0.26126955 -0.013499602)
(-1.1744081 -0.25916762 -0.013394274)
(-1.1583222 -0.25707872 -0.013290454)
(-1.1422433 -0.25500251 -0.013187466)
(-1.1261636 -0.25294116 -0.01308407)
(-1.110081 -0.25089244 -0.012978314)
(-1.0939888 -0.24885651 -0.012868709)
(-1.0778833 -0.24683121 -0.012753151)
(-1.0617598 -0.2448135 -0.012630711)
(-1.0456155 -0.24280208 -0.012499266)
(-1.0294461 -0.24079221 -0.012358079)
(-1.0132521 -0.23878144 -0.012206065)
(-0.99703004 -0.2367667 -0.012042367)
(-0.98078134 -0.23474428 -0.011866637)
(-0.96450701 -0.23271126 -0.011679351)
(-0.9482094 -0.23066561 -0.011480752)
(-0.9318917 -0.22860483 -0.011271812)
(-0.91555809 -0.22652763 -0.011053871)
(-0.89921261 -0.22443331 -0.010827847)
(-0.88286099 -0.22232109 -0.010595922)
(-0.86650615 -0.22019188 -0.010358357)
(-0.85015679 -0.21804622 -0.010119186)
(-0.83381177 -0.21588496 -0.0098781234)
(-0.81748137 -0.21370757 -0.0096346186)
(-0.80116625 -0.2115211 -0.0093916729)
(-0.78486633 -0.20931994 -0.0091553776)
(-0.7685859 -0.20711227 -0.0089156936)
(-0.75232677 -0.20489363 -0.0086795562)
(-0.73608826 -0.20266812 -0.0084443568)
(-0.71987043 -0.20043379 -0.0082102953)
(-0.7036722 -0.19819119 -0.0079755688)
(-0.68749359 -0.19593852 -0.0077393588)
(-0.67133285 -0.19367481 -0.0075001629)
(-0.65519034 -0.19139703 -0.0072561209)
(-0.6390651 -0.18910321 -0.0070060588)
(-0.62295883 -0.18678956 -0.0067480727)
(-0.60687176 -0.18445333 -0.0064809761)
(-0.59080771 -0.18209049 -0.0062032303)
(-0.57476907 -0.17969799 -0.0059143217)
(-0.55876162 -0.17727237 -0.0056126205)
(-0.54279034 -0.17481046 -0.0052987831)
(-0.52686299 -0.17231021 -0.0049713516)
(-0.5109868 -0.16976865 -0.0046317191)
(-0.49517123 -0.16718548 -0.0042789138)
(-0.47942506 -0.16455817 -0.0039150335)
(-0.46375916 -0.1618883 -0.003538962)
(-0.4481827 -0.15917396 -0.0031540838)
(-0.43270782 -0.15641792 -0.0027585213)
(-0.41734239 -0.15361933 -0.0023563644)
(-0.40210096 -0.15078083 -0.0019459111)
(-0.3869884 -0.1479035 -0.0015296046)
(-0.37202139 -0.14498935 -0.0011098667)
(-0.35719919 -0.14203968 -0.00068232634)
(-0.34253541 -0.13906121 -0.0002521321)
(-0.32804123 -0.13603538 0.00017986423)
(-0.31375541 -0.13298684 0.00061141899)
(-0.29959734 -0.12991365 0.0010550576)
(-0.28566472 -0.12679566 0.0015006359)
(-0.27196423 -0.12364948 0.001936171)
(-0.25842361 -0.12048648 0.0023851572)
(-0.24512242 -0.1172806 0.0028322636)
(-0.23204898 -0.114037 0.0032893208)
(-0.21924863 -0.11076567 0.0037435465)
(-0.20664044 -0.10746746 0.0041947851)
(-0.1943726 -0.10411698 0.0046449538)
(-0.18229926 -0.10076491 0.0051225873)
(-0.17055401 -0.097353815 0.0055717389)
(-0.15909128 -0.09392997 0.0060430356)
(-0.14792806 -0.090445015 0.0065026621)
(-0.13714866 -0.086937828 0.0069627375)
(-0.12660575 -0.083418786 0.0074343616)
(-0.11644493 -0.079858722 0.0079069106)
(-0.10668988 -0.076235338 0.0083529397)
(-0.097181476 -0.072661545 0.0088617443)
(-0.08818915 -0.068961714 0.0092864329)
(-0.079427798 -0.065357193 0.0097984137)
(-0.071203377 -0.061594985 0.010246029)
(-0.063287148 -0.057936527 0.010741095)
(-0.055799137 -0.054156143 0.011168972)
(-0.048677619 -0.050472064 0.011690386)
(-0.042150739 -0.046576177 0.012080121)
(-0.035864625 -0.042947699 0.012577454)
(-0.030171846 -0.039073389 0.012933733)
(-0.024913701 -0.035308995 0.013305633)
(-0.020209377 -0.031509701 0.013529885)
(-0.015921535 -0.027780233 0.013710366)
(-0.012315259 -0.024047465 0.013686907)
(-0.0092325203 -0.020260055 0.013343029)
(-0.0070667111 -0.016519025 0.01269446)
(-0.0051182559 -0.013445536 0.01172925)
(-0.0042952782 -0.0095003961 0.009066427)
(-0.0054364464 -0.00654859 0.0050946731)
(0 2.1801259e-18 0)
(0 8.2928629e-19 0)
(0 2.1524243e-18 0)
(0 2.1667674e-18 0)
(0 2.2582963e-18 0)
(0 1.3581016e-18 0)
(0 5.4139794e-20 0)
(0 -1.2306067e-18 -1.3502524e-18)
(0 1.4572008e-19 0)
(0 1.3100734e-18 0)
(0 3.1590091e-18 0)
(0 2.7679509e-18 0)
(0 1.9813441e-18 0)
(0 1.914815e-18 0)
(0 2.1865609e-18 0)
(0 9.0947114e-18 0)
(0 3.8724072e-18 0)
(0 1.4210634e-18 0)
(0 2.5649472e-18 0)
(0 -2.2331211e-19 0)
(0 5.9785241e-19 0)
(0 6.8124956e-18 0)
(0 -2.7722623e-18 -1.2021393e-18)
(0 4.0521408e-18 0)
(0 5.0656025e-18 0)
(0 1.6740109e-18 0)
(0 6.8520694e-19 0)
(0 1.5904246e-18 0)
(0 2.8674283e-18 0)
(0 3.6882774e-19 0)
(-1.2880062 -0.013056291 -0.013409544)
(-1.2880657 -0.01293813 -0.013415148)
(-1.288124 -0.012820545 -0.013422384)
(-1.2881812 -0.012704201 -0.013430347)
(-1.2882366 -0.012587476 -0.013437167)
(-1.2882923 -0.012472481 -0.013444143)
(-1.2883475 -0.012356421 -0.013451056)
(-1.2884047 -0.012240723 -0.013457671)
(-1.2884631 -0.012124268 -0.013464896)
(-1.2885243 -0.012006249 -0.013473092)
(-1.2885865 -0.011886549 -0.013481153)
(-1.2886537 -0.011765282 -0.01348978)
(-1.2887209 -0.011641833 -0.013498767)
(-1.2887909 -0.011517017 -0.013505068)
(-1.2888608 -0.011391698 -0.013511006)
(-1.2539978 -0.2715432 -0.014037115)
(-1.2540678 -0.2713893 -0.014031955)
(-1.254137 -0.27123848 -0.014022646)
(-1.2542052 -0.27109324 -0.014012403)
(-1.2542712 -0.27095379 -0.014002056)
(-1.2543372 -0.27082092 -0.013992626)
(-1.2544028 -0.27069472 -0.013984395)
(-1.2544685 -0.27057411 -0.013977119)
(-1.2545343 -0.27045901 -0.013971199)
(-1.2546 -0.27034816 -0.013965654)
(-1.2546656 -0.27024121 -0.013960815)
(-1.2547305 -0.27013706 -0.013955784)
(-1.2547949 -0.27003571 -0.013950404)
(-1.2548574 -0.26993583 -0.01394697)
(-1.2549201 -0.26983721 -0.013942681)
(-0.0017433811 -0.0060636095 -0.0072950291)
(-0.0027144695 -0.008549905 -0.0087808543)
(-0.0036861286 -0.012155841 -0.010740302)
(-0.0058439928 -0.015188181 -0.011606871)
(-0.0079563086 -0.018390524 -0.01244694)
(-0.011200631 -0.02157626 -0.012831984)
(-0.014704983 -0.02481142 -0.013083826)
(-0.019054849 -0.028164282 -0.013170993)
(-0.023691234 -0.03144034 -0.013210606)
(-0.029024696 -0.0348338 -0.013150082)
(-0.034734002 -0.03813403 -0.01304687)
(-0.04099097 -0.041560591 -0.012950933)
(-0.047637107 -0.044837531 -0.012798765)
(-0.054763369 -0.048234638 -0.012659611)
(-0.062283974 -0.051494629 -0.012494914)
(-0.070262572 -0.05486525 -0.012343971)
(-0.078619823 -0.058108996 -0.012162952)
(-0.087362818 -0.061409606 -0.01200287)
(-0.096526605 -0.064649975 -0.011813908)
(-0.10605067 -0.067914394 -0.011635382)
(-0.11593547 -0.071126583 -0.011447083)
(-0.12619358 -0.074341029 -0.011259912)
(-0.1367791 -0.077556193 -0.011059063)
(-0.14769628 -0.08072091 -0.010874348)
(-0.15894896 -0.083905197 -0.01067399)
(-0.17048757 -0.087049932 -0.010492456)
(-0.18232686 -0.090198723 -0.010302733)
(-0.19444255 -0.093307323 -0.010132588)
(-0.20683981 -0.096413447 -0.0099628248)
(-0.21947217 -0.099500104 -0.0098057396)
(-0.23236754 -0.10255054 -0.0096570707)
(-0.24549149 -0.10559706 -0.0095225909)
(-0.25884655 -0.10861111 -0.0094003191)
(-0.27241156 -0.1116015 -0.0092846727)
(-0.28619159 -0.11457187 -0.0091775262)
(-0.30017117 -0.11750751 -0.0090808767)
(-0.31434152 -0.12042947 -0.0089883236)
(-0.32869928 -0.12331317 -0.0088985608)
(-0.34323987 -0.12618389 -0.0088122069)
(-0.35794453 -0.12901884 -0.0087317739)
(-0.37281829 -0.13183143 -0.0086492225)
(-0.38783927 -0.13460688 -0.0085647826)
(-0.40300559 -0.13736772 -0.0084831643)
(-0.41830939 -0.14008865 -0.0084004074)
(-0.43372919 -0.14278677 -0.0083193412)
(-0.44926338 -0.14545364 -0.0082421349)
(-0.46489601 -0.14808943 -0.0081676133)
(-0.4806163 -0.15069632 -0.0081023544)
(-0.49641241 -0.15327074 -0.0080443233)
(-0.51227421 -0.1558153 -0.007999042)
(-0.52818924 -0.15832844 -0.0079663081)
(-0.54414978 -0.16081066 -0.0079505239)
(-0.56014554 -0.16326356 -0.0079504053)
(-0.57617062 -0.16568634 -0.0079699405)
(-0.5922178 -0.16808196 -0.0080072275)
(-0.60828367 -0.17045 -0.0080640086)
(-0.62436433 -0.17279398 -0.0081381077)
(-0.64045874 -0.17511381 -0.00822959)
(-0.65656587 -0.17741289 -0.0083354325)
(-0.67268686 -0.17969237 -0.0084542837)
(-0.68882257 -0.1819544 -0.0085827314)
(-0.70497538 -0.18420108 -0.0087189739)
(-0.72114676 -0.18643283 -0.0088592867)
(-0.73734026 -0.18865345 -0.009001391)
(-0.75355368 -0.1908624 -0.0091425415)
(-0.76979577 -0.19305816 -0.0092823644)
(-0.78605847 -0.19525055 -0.0094149086)
(-0.80234477 -0.1974269 -0.0095451155)
(-0.81865367 -0.19959814 -0.0096680295)
(-0.83497945 -0.2017559 -0.0097863899)
(-0.8513215 -0.20390559 -0.0098993067)
(-0.86767331 -0.20604355 -0.010009944)
(-0.88403114 -0.20817057 -0.010117889)
(-0.90038735 -0.21028485 -0.010226883)
(-0.91673773 -0.21238816 -0.01033815)
(-0.93307556 -0.21447631 -0.010455197)
(-0.94939555 -0.21655501 -0.010577676)
(-0.96569384 -0.21861776 -0.010710682)
(-0.98196566 -0.22067352 -0.010851454)
(-0.99820969 -0.22271372 -0.011005901)
(-1.0144233 -0.22475071 -0.011168143)
(-1.0306068 -0.2267763 -0.011344619)
(-1.046763 -0.22880018 -0.011528611)
(-1.062892 -0.23081933 -0.011722895)
(-1.0790007 -0.23284077 -0.011921707)
(-1.0950887 -0.23486129 -0.012126447)
(-1.1111673 -0.23688904 -0.012332067)
(-1.1272355 -0.23892067 -0.012538355)
(-1.1433061 -0.24096361 -0.012741446)
(-1.159377 -0.24301491 -0.012940144)
(-1.1754599 -0.24507842 -0.013132651)
(-1.1915522 -0.24715447 -0.013318192)
(-1.2076607 -0.24924273 -0.013497152)
(-1.2237833 -0.25134143 -0.013671313)
(-1.2399148 -0.25345412 -0.013841666)
(3.9836554e-05 -0.0053582481 -0.0061543407)
(-0.0008071485 -0.0061980832 -0.0080647811)
(-0.0025730088 -0.010234057 -0.0090384074)
(-0.0042885843 -0.01222546 -0.010283732)
(-0.0068097983 -0.015351595 -0.010672815)
(-0.0098854608 -0.017878856 -0.011103887)
(-0.013604903 -0.02087228 -0.011226326)
(-0.017793531 -0.023592269 -0.011391038)
(-0.022623268 -0.026521962 -0.01139719)
(-0.027942623 -0.029333385 -0.0113659)
(-0.033754681 -0.032262418 -0.011338054)
(-0.040045985 -0.035111588 -0.011216054)
(-0.046785654 -0.038039029 -0.011160093)
(-0.053981382 -0.040885238 -0.011019913)
(-0.06159707 -0.043810375 -0.010947051)
(-0.069662676 -0.046659544 -0.010769101)
(-0.078063579 -0.049566693 -0.010699192)
(-0.086952981 -0.052408186 -0.010530323)
(-0.096164776 -0.055313211 -0.010419644)
(-0.1057914 -0.058143101 -0.010258836)
(-0.11576078 -0.061036066 -0.010136591)
(-0.12610696 -0.063879998 -0.0099617487)
(-0.13677112 -0.066757112 -0.0098375318)
(-0.14779103 -0.069598853 -0.0096734264)
(-0.15911449 -0.072466936 -0.0095375691)
(-0.17074501 -0.075317346 -0.0093782059)
(-0.18267018 -0.078169694 -0.0092523306)
(-0.19487361 -0.081005422 -0.0091120908)
(-0.20734279 -0.08385538 -0.0089885429)
(-0.22006935 -0.086675966 -0.0088671309)
(-0.23304232 -0.089501944 -0.008769946)
(-0.24624782 -0.092308 -0.0086637971)
(-0.25967264 -0.095107447 -0.0085810059)
(-0.27331954 -0.097886311 -0.0084973755)
(-0.28717342 -0.10065847 -0.008428431)
(-0.30122436 -0.10341147 -0.0083629759)
(-0.31547459 -0.10615022 -0.0083060293)
(-0.32990488 -0.10886982 -0.0082507229)
(-0.34450874 -0.11156996 -0.0082012761)
(-0.3592803 -0.11425856 -0.0081498119)
(-0.37421323 -0.11691928 -0.0080995146)
(-0.3892925 -0.11957298 -0.0080523164)
(-0.40452214 -0.12219922 -0.0079983556)
(-0.4198703 -0.12480857 -0.0079545825)
(-0.43534427 -0.12740104 -0.0079039781)
(-0.45092507 -0.1299704 -0.0078602379)
(-0.46660101 -0.13251914 -0.0078189862)
(-0.482362 -0.13504677 -0.0077846423)
(-0.49819609 -0.13755107 -0.0077565501)
(-0.51409165 -0.14003297 -0.0077400353)
(-0.53003835 -0.14249104 -0.0077339205)
(-0.54602777 -0.14492506 -0.0077420037)
(-0.56204961 -0.14733588 -0.0077642547)
(-0.57809894 -0.14972162 -0.0078029764)
(-0.59416809 -0.15208515 -0.0078571322)
(-0.61025458 -0.15442474 -0.0079281906)
(-0.62635405 -0.15674324 -0.0080142633)
(-0.64246646 -0.15904004 -0.0081154719)
(-0.65859012 -0.16131822 -0.0082291023)
(-0.67472732 -0.1635776 -0.0083541971)
(-0.6908779 -0.16582101 -0.0084880029)
(-0.70704528 -0.16804926 -0.0086284642)
(-0.72323089 -0.17026402 -0.0087727749)
(-0.7394365 -0.172468 -0.0089186939)
(-0.75566403 -0.17466031 -0.0090647328)
(-0.77191743 -0.1768435 -0.0092088623)
(-0.78818764 -0.1790188 -0.0093473206)
(-0.80448636 -0.18118432 -0.0094855951)
(-0.82080307 -0.18334413 -0.0096146933)
(-0.8371394 -0.18549409 -0.0097420207)
(-0.85348857 -0.18764018 -0.0098624395)
(-0.86984716 -0.1897749 -0.0099829115)
(-0.88620873 -0.19190356 -0.010099579)
(-0.90256801 -0.19402105 -0.010218922)
(-0.91892007 -0.19613117 -0.010338578)
(-0.93525799 -0.19822812 -0.010463863)
(-0.95157736 -0.20031898 -0.010592573)
(-0.96787337 -0.20239467 -0.010731235)
(-0.98414273 -0.20446532 -0.010875165)
(-1.0003825 -0.20652064 -0.011031413)
(-1.0165928 -0.20857367 -0.011192848)
(-1.0327715 -0.21061255 -0.011367642)
(-1.0489239 -0.21265065 -0.011547103)
(-1.0650477 -0.2146813 -0.011736919)
(-1.0811523 -0.21670968 -0.011931043)
(-1.0972371 -0.21873906 -0.012129292)
(-1.1133121 -0.22076944 -0.012328745)
(-1.1293766 -0.22280657 -0.012527961)
(-1.1454449 -0.22484713 -0.01272533)
(-1.1615119 -0.22689924 -0.012918423)
(-1.1775932 -0.22895821 -0.013107439)
(-1.1936819 -0.2310326 -0.013290148)
(-1.2097878 -0.23311625 -0.013468857)
(-1.2259088 -0.23521284 -0.013643989)
(-1.242038 -0.23732404 -0.013814696)
(0.00093784125 -0.0039661434 -0.0054843705)
(-1.4377155e-05 -0.0050849863 -0.0066505058)
(-0.00095593629 -0.0079128531 -0.0078258748)
(-0.0030910408 -0.0099148886 -0.0086604897)
(-0.0055296006 -0.012304765 -0.0089660798)
(-0.0088572988 -0.014642405 -0.0092747766)
(-0.012436866 -0.016953293 -0.0094617417)
(-0.01691052 -0.019356372 -0.0095667676)
(-0.021695978 -0.021638221 -0.009568909)
(-0.027120069 -0.024138529 -0.0096063609)
(-0.03296337 -0.026438814 -0.0095422488)
(-0.039360329 -0.028964884 -0.0095289154)
(-0.046141788 -0.031293321 -0.0094459005)
(-0.053426022 -0.033826057 -0.009406822)
(-0.061117022 -0.036211785 -0.0092892824)
(-0.069218729 -0.038711228 -0.0092637343)
(-0.077762546 -0.041147315 -0.0091420353)
(-0.086683771 -0.043640063 -0.0090730878)
(-0.095991903 -0.0461096 -0.0089668057)
(-0.10569383 -0.048601759 -0.0088864981)
(-0.1157497 -0.051114324 -0.0087676367)
(-0.12616928 -0.053604372 -0.0086844499)
(-0.13692729 -0.056146725 -0.0085672905)
(-0.14801747 -0.058654346 -0.0084715264)
(-0.15942283 -0.061220583 -0.0083562276)
(-0.17113376 -0.063749549 -0.0082662299)
(-0.18313824 -0.066320629 -0.0081654557)
(-0.19541328 -0.06887952 -0.0080725028)
(-0.20796744 -0.071454623 -0.0079894512)
(-0.22076405 -0.074021428 -0.0079169306)
(-0.23381398 -0.076601725 -0.0078436367)
(-0.24708639 -0.079173699 -0.0077857068)
(-0.26059545 -0.081749185 -0.0077363616)
(-0.27431007 -0.084317471 -0.007692884)
(-0.28823576 -0.086884796 -0.0076588389)
(-0.30235535 -0.089443937 -0.0076291227)
(-0.31666281 -0.091994368 -0.0076074055)
(-0.33114534 -0.094536822 -0.0075881687)
(-0.34582117 -0.097079671 -0.0075702724)
(-0.36065397 -0.099603448 -0.0075506594)
(-0.37564542 -0.10212929 -0.0075390846)
(-0.39078465 -0.10464035 -0.0075165069)
(-0.40605944 -0.10714026 -0.0075093342)
(-0.4214628 -0.10963396 -0.0074910792)
(-0.43698531 -0.11211372 -0.0074770027)
(-0.45260798 -0.11458227 -0.0074666296)
(-0.46832656 -0.11703822 -0.0074570734)
(-0.48412542 -0.11948124 -0.0074534114)
(-0.49999518 -0.12190864 -0.0074560615)
(-0.51592291 -0.12432115 -0.0074675621)
(-0.53190108 -0.12671701 -0.0074873019)
(-0.54791744 -0.12909525 -0.0075203634)
(-0.56396621 -0.13145599 -0.0075639716)
(-0.58003904 -0.13379748 -0.0076224462)
(-0.59613116 -0.1361213 -0.0076934219)
(-0.61223824 -0.13842529 -0.0077792009)
(-0.62835777 -0.140712 -0.0078773931)
(-0.64448838 -0.14298019 -0.0079888201)
(-0.66062993 -0.14523207 -0.0081104838)
(-0.67678341 -0.14746769 -0.0082426453)
(-0.69295008 -0.14968897 -0.0083815963)
(-0.70913249 -0.15189701 -0.0085267502)
(-0.72533199 -0.15409303 -0.0086751603)
(-0.74155109 -0.15627941 -0.0088253531)
(-0.7577924 -0.15845531 -0.0089756322)
(-0.7740533 -0.16062359 -0.009124134)
(-0.79033813 -0.16278998 -0.0092695207)
(-0.80664309 -0.16493815 -0.009413873)
(-0.82297063 -0.16708789 -0.0095501935)
(-0.83930923 -0.16923321 -0.00968554)
(-0.85566479 -0.17137118 -0.00981628)
(-0.87202348 -0.17350392 -0.0099460724)
(-0.88838749 -0.17563163 -0.010073333)
(-0.90474798 -0.17775165 -0.010201816)
(-0.9211007 -0.17986535 -0.010330132)