/*--------------------------------*- C++ -*----------------------------------*\
  =========                 |
  \\      /  F ield         | OpenFOAM: The Open Source CFD Toolbox
   \\    /   O peration     | Website:  https://openfoam.org
    \\  /    A nd           | Version:  6
     \\/     M anipulation  |
\*---------------------------------------------------------------------------*/
FoamFile
{
    version     2.0;
    format      ascii;
    class       pointVectorField;
    location    "0.68";
    object      lm;
}
// * * * * * * * * * * * * * * * * * * * * * * * * * * * * * * * * * * * * * //

dimensions      [1 -2 -1 0 0 0 0];

internalField   nonuniform List<vector> 
3969
(
(0 0 0)
(0 0 0)
(3824.8634 -1505.369 -4.0666419)
(3189.0124 -2494.9361 5.1612375)
(0 0 0)
(0 0 0)
(3195.5555 -2466.1542 3.0309277)
(3830.0391 -1477.3337 -4.3855476)
(0 0 0)
(0 0 0)
(0 0 0)
(0 0 0)
(0 0 0)
(0 0 0)
(0 0 0)
(3743.4347 -1630.1776 -3.7483547)
(3662.6538 -1753.7433 -3.671158)
(3583.2649 -1876.3396 -2.0462777)
(3504.7372 -1998.8652 -0.25011317)
(3426.827 -2121.63 1.8489517)
(3348.7362 -2245.4347 3.4531075)
(3269.8614 -2370.3376 4.5923398)
(12.369225 13.638624 12.883598)
(27.455148 28.899593 7.7304259)
(50.075282 42.11668 2.7525504)
(78.517161 52.434912 -5.6165521)
(109.54985 62.095243 -11.229568)
(144.80944 68.722932 -17.266002)
(180.83058 74.676659 -20.055017)
(220.06398 78.854114 -21.633601)
(260.11377 82.39811 -19.939121)
(302.83256 84.344751 -16.786859)
(347.57507 85.651699 -10.780298)
(395.43678 85.407926 -3.5372281)
(446.58171 83.282831 5.2886353)
(501.56622 78.731436 14.708718)
(560.68727 71.099515 24.04758)
(623.67868 60.021888 33.223841)
(690.71256 44.917558 41.388081)
(761.12527 25.649722 48.524883)
(834.51844 2.2292696 54.368361)
(910.0862 -25.209235 58.88685)
(987.24603 -56.134071 62.284106)
(1065.3024 -90.021408 64.644343)
(1143.8184 -126.1134 66.308706)
(1222.5536 -163.70739 67.424754)
(1301.3629 -202.14196 68.329773)
(1380.527 -241.01337 69.105264)
(1460.3647 -279.80229 69.85942)
(1541.3635 -318.37347 70.70147)
(1624.212 -356.74205 71.599941)
(1709.5517 -395.14285 72.491643)
(1798.0358 -433.88568 73.288359)
(1890.2102 -473.46634 73.866523)
(1986.5838 -514.43723 74.148025)
(2087.4687 -557.40172 73.899248)
(2193.0814 -602.91354 72.996842)
(2303.4673 -651.60519 71.37113)
(2418.5465 -703.96152 68.686073)
(2537.8885 -760.18289 64.772733)
(2661.2739 -820.71196 60.046714)
(2787.9658 -885.29646 53.919884)
(2917.2944 -954.09432 47.056248)
(3048.4875 -1026.8188 39.163448)
(3180.3948 -1102.1129 31.071288)
(3312.4888 -1181.1994 22.70884)
(3443.4127 -1260.9504 14.863565)
(3572.7783 -1342.2122 7.6882284)
(3700.2174 -1424.0447 1.544906)
(10.278628 -38.787831 -43.273817)
(23.250234 -56.556417 -49.250388)
(41.167778 -74.85239 -56.119789)
(63.305239 -95.850623 -54.407283)
(87.675904 -114.04973 -54.868721)
(111.94702 -133.49859 -54.025645)
(138.56185 -152.15109 -53.669365)
(165.00157 -170.98536 -53.571312)
(192.67432 -190.30953 -52.909839)
(222.4398 -211.95191 -51.786738)
(252.83184 -233.8281 -50.117239)
(287.11577 -259.7423 -46.494981)
(323.30435 -287.37157 -41.879998)
(363.59231 -318.48592 -35.540933)
(407.24883 -352.86728 -27.936031)
(455.0209 -389.99068 -18.977801)
(506.61909 -430.27596 -9.2663593)
(561.62382 -472.25458 0.97647998)
(620.03599 -516.71913 11.199089)
(680.85402 -562.00944 20.885529)
(743.67335 -608.45193 29.691758)
(808.00079 -655.43645 37.130078)
(872.8906 -702.66157 42.955058)
(938.3117 -750.50028 47.013468)
(1003.6964 -798.47823 49.223757)
(1069.1056 -847.41597 49.645454)
(1134.5212 -897.35018 48.596323)
(1200.343 -948.91362 46.264671)
(1266.9189 -1002.6394 42.873119)
(1334.9422 -1058.9564 38.90944)
(1404.881 -1118.4065 34.635655)
(1477.4522 -1181.2233 30.361278)
(1553.3028 -1247.8145 26.355135)
(1632.9705 -1318.1742 22.767192)
(1716.9793 -1392.42 19.738428)
(1805.8055 -1470.2545 17.358166)
(1899.4491 -1551.4215 15.359264)
(1998.4869 -1635.3198 14.205058)
(2102.5816 -1721.8124 13.233373)
(2211.5747 -1809.6621 12.681824)
(2325.2386 -1898.5104 12.244872)
(2442.9663 -1987.5722 12.093183)
(2564.0881 -2076.0863 11.754738)
(2687.7373 -2163.4959 11.339216)
(2813.1367 -2249.2277 10.520328)
(2939.0789 -2333.0665 9.263465)
(3064.9226 -2414.6352 7.4773954)
(0 0 0)
(0 0 0)
(0 0 0)
(0 0 0)
(0 0 0)
(0 0 0)
(0 0 0)
(14.473283 -20.831972 30.085229)
(18.909235 -52.422453 37.430853)
(32.617584 -61.396876 34.069889)
(54.714923 -88.557929 30.370738)
(78.654247 -106.23617 24.199305)
(103.22249 -130.21678 18.002676)
(130.31559 -155.79222 15.663044)
(156.18732 -178.0089 11.514203)
(184.20858 -208.3311 13.859538)
(212.26002 -232.27666 13.501206)
(241.27529 -266.07181 20.30344)
(274.13616 -293.61096 23.622903)
(307.95821 -328.09389 31.045985)
(346.18939 -362.14781 37.524356)
(387.61359 -397.64197 44.403069)
(433.50215 -435.82367 50.972974)
(483.51381 -473.81809 56.78036)
(537.41646 -513.82428 61.950368)
(595.02212 -553.93871 66.30682)
(655.56382 -594.75035 69.94675)
(718.50266 -635.7466 73.044458)
(783.10928 -677.00283 75.71413)
(848.79476 -718.51129 78.110276)
(915.1245 -760.49626 80.333707)
(981.58724 -803.31756 82.533394)
(1048.4303 -847.46894 84.517393)
(1115.5594 -893.29305 86.327186)
(1183.0559 -941.36646 88.040527)
(1251.3537 -992.29158 89.528243)
(1321.0217 -1046.3944 90.697212)
(1392.5704 -1104.0355 91.480615)
(1466.6452 -1165.4903 91.79041)
(1543.859 -1230.8193 91.533559)
(1624.8318 -1300.0983 90.575321)
(1710.0418 -1373.1414 88.851652)
(1800.3034 -1450.0094 86.051836)
(1895.0865 -1528.9702 82.468098)
(1995.5229 -1612.6289 77.481023)
(2101.1573 -1697.2737 71.669029)
(2211.6976 -1784.0388 64.585309)
(2327.0405 -1871.823 56.701207)
(2446.1255 -1960.0379 48.249233)
(2568.6007 -2047.8802 39.464003)
(2693.1959 -2134.8809 30.815255)
(2819.2272 -2220.3278 22.63144)
(2945.4813 -2303.9829 15.234585)
(3071.0606 -2385.3517 8.9872195)
(3276.1487 -2341.2579 1.34196)
(3355.2692 -2216.2959 0.057879568)
(3432.9423 -2092.2442 -0.61180085)
(3510.9247 -1969.7606 -0.52450615)
(3589.3001 -1847.3436 -0.79627195)
(3668.6203 -1724.7813 -1.094947)
(3749.0788 -1601.6631 -2.6303966)
(3705.956 -1396.5291 -1.7033868)
(3579.2589 -1314.7036 1.0060144)
(3450.2186 -1233.7687 2.7109887)
(3319.4628 -1154.3569 3.9676552)
(3187.5195 -1076.8887 4.8449744)
(3055.1251 -1002.2717 5.3149477)
(2923.2675 -931.01614 5.6745059)
(2792.7925 -863.48459 5.924087)
(2664.6785 -799.95478 6.3230499)
(2539.7658 -740.48153 6.9630881)
(2418.2713 -684.74918 7.9382387)
(2302.157 -634.20659 9.820796)
(2190.0162 -585.49935 11.833076)
(2083.2053 -541.04146 14.785731)
(1981.3314 -499.03593 18.286827)
(1884.3043 -459.50071 22.497041)
(1791.7613 -421.81547 27.104418)
(1703.0805 -385.61701 32.009623)
(1617.7854 -350.36934 36.785729)
(1534.9695 -315.98736 41.349027)
(1454.0625 -281.88535 45.05998)
(1374.273 -248.40934 47.881204)
(1295.0513 -215.15014 49.277523)
(1215.9021 -182.6514 49.193708)
(1136.6106 -150.94036 47.29691)
(1057.1361 -120.57168 43.65928)
(977.73693 -91.822032 38.236333)
(898.84105 -65.21426 31.246992)
(821.10296 -40.96408 22.913544)
(745.25555 -19.401526 13.62249)
(672.03293 -0.54432169 3.7530627)
(602.24221 15.776828 -6.3722277)
(536.44434 29.708853 -15.798098)
(475.00766 40.311414 -24.60809)
(417.99448 49.954073 -32.777705)
(365.37167 58.53094 -38.937351)
(317.10553 64.886188 -44.10406)
(272.10838 70.376553 -47.524309)
(230.914 74.372212 -49.616498)
(192.21063 75.982544 -49.921272)
(156.80108 77.568439 -49.573839)
(123.22814 74.569606 -47.254367)
(93.371342 71.023306 -45.201009)
(65.970157 62.283045 -40.791918)
(44.465643 51.946486 -36.667164)
(24.70213 37.600751 -30.460721)
(21.694663 20.232848 -17.915638)
(0 0 0)
(0 0 0)
(0 0 0)
(0 0 0)
(0 0 0)
(0 0 0)
(0 0 0)
(0 0 0)
(0 0 0)
(0 0 0)
(0 0 0)
(0 0 0)
(0 0 0)
(0 0 0)
(3188.9348 -2492.7317 4.6332659)
(3189.5312 -2490.5302 4.2253248)
(3190.3097 -2487.9726 4.253205)
(3191.1016 -2484.9618 4.2787192)
(3191.9115 -2481.3659 4.2579694)
(3192.8695 -2476.9252 4.0863839)
(3193.6582 -2471.8542 3.368324)
(3827.4349 -1501.2361 -3.8420724)
(3829.1932 -1497.2637 -3.6095179)
(3830.5093 -1493.6376 -3.6683714)
(3831.2097 -1490.2016 -3.9058379)
(3831.4057 -1486.8374 -4.2157247)
(3831.2082 -1483.6025 -4.4305571)
(3830.7489 -1480.5717 -4.3898449)
(6.7263164 7.2286616 9.1843138)
(21.036759 16.480777 2.3823395)
(43.174499 24.863205 -2.7701062)
(70.298833 32.461606 -8.819007)
(100.93967 38.228222 -15.003756)
(135.38535 43.589278 -19.394027)
(170.65821 46.930846 -22.657892)
(208.55572 49.817435 -23.206931)
(247.6058 50.804793 -22.739967)
(288.87197 50.975616 -19.238513)
(332.00609 49.620827 -14.40708)
(377.97356 46.147358 -7.9525628)
(427.30168 40.85191 -0.11172509)
(480.14056 32.40852 8.2148164)
(536.94713 20.860844 17.136566)
(597.81749 5.7092895 25.6455)
(662.60221 -13.253621 33.816538)
(730.90423 -36.113183 41.16292)
(802.3528 -62.641173 47.443941)
(876.20853 -92.602377 52.716604)
(951.82954 -125.46049 56.888438)
(1028.5639 -160.6251 60.100953)
(1105.9109 -197.54763 62.496616)
(1183.466 -235.60094 64.241754)
(1261.1034 -274.3962 65.521493)
(1338.9025 -313.48999 66.451118)
(1417.2304 -352.70395 67.115566)
(1496.4234 -392.11276 67.661797)
(1577.1403 -431.74067 68.060949)
(1660.0607 -471.96752 68.343221)
(1745.8031 -513.09763 68.444451)
(1834.9803 -555.65525 68.368983)
(1928.1558 -600.13653 67.990032)
(2025.7238 -647.03881 67.173607)
(2127.9488 -696.92718 65.960759)
(2235.0229 -750.1396 63.976911)
(2346.8095 -807.13199 61.373703)
(2463.337 -868.03409 57.780247)
(2584.0671 -932.84856 53.424718)
(2708.5368 -1001.4955 48.099058)
(2836.0577 -1073.7878 42.144826)
(2966.0287 -1148.9873 35.348141)
(3097.1351 -1226.8688 28.485604)
(3229.2174 -1306.5732 21.24577)
(3360.2598 -1387.0795 14.439317)
(3490.498 -1468.2111 8.0087895)
(3618.2676 -1549.5256 2.0598316)
(3.8500738 1.1776983 1.24772)
(16.990707 4.984396 -6.4609046)
(38.2689 10.027502 -9.5526985)
(64.413169 12.817611 -16.394186)
(94.456915 16.425617 -19.974564)
(126.62888 18.300743 -24.310042)
(160.83289 19.233969 -25.567267)
(197.56791 19.234336 -27.181662)
(234.96225 17.758192 -25.174904)
(274.59921 15.586418 -22.498632)
(316.27026 11.126895 -17.955626)
(360.76011 5.4308418 -11.816491)
(408.34422 -3.1135555 -4.5473393)
(459.45154 -14.637977 3.637534)
(514.63972 -29.310778 12.052444)
(573.7407 -47.543679 20.425936)
(636.82885 -69.451704 28.478128)
(703.42383 -95.149308 35.857549)
(773.16714 -124.27737 42.386735)
(845.30689 -156.67021 48.00011)
(919.1981 -191.567 52.570432)
(994.26721 -228.60631 56.228138)
(1069.7998 -267.11859 59.042189)
(1145.6268 -306.63619 61.07761)
(1221.4667 -346.74258 62.520019)
(1297.4634 -387.25013 63.393148)
(1373.8338 -427.89424 63.911355)
(1450.999 -468.92575 64.146409)
(1529.5827 -510.42099 64.090851)
(1610.2213 -552.77335 63.859029)
(1693.5205 -596.34699 63.428164)
(1780.1907 -641.67994 62.80617)
(1870.7615 -689.16549 61.891168)
(1965.6708 -739.43892 60.757782)
(2065.2773 -792.80852 59.170523)
(2169.7505 -849.68037 57.135063)
(2279.0857 -910.34404 54.552362)
(2393.246 -974.73501 51.25007)
(2511.7558 -1043.0628 47.381759)
(2634.3658 -1114.7872 42.729072)
(2760.1266 -1189.8138 37.535851)
(2888.7709 -1267.4817 31.818991)
(3018.7877 -1347.0616 25.830672)
(3149.8982 -1428.2236 19.662541)
(3280.5028 -1509.8427 13.754413)
(3410.1896 -1591.6505 7.8576278)
(3538.1052 -1673.8595 2.4539836)
(-2.7622705 -2.674612 -3.0204507)
(11.798796 -1.8723114 -9.436465)
(32.202396 -1.4065442 -14.786212)
(58.449474 -1.2338448 -19.768008)
(86.78553 -1.8937511 -24.110739)
(119.40648 -3.6130774 -27.163172)
(153.0446 -6.5573547 -30.11406)
(188.32616 -9.8529663 -29.907591)
(224.57649 -14.744846 -29.180191)
(263.19734 -20.495672 -26.93623)
(303.04708 -27.572504 -22.483083)
(345.96714 -36.815162 -17.127186)
(391.66743 -48.347561 -10.298592)
(441.23316 -62.789736 -2.8178978)
(494.69557 -80.275823 5.3475122)
(552.17252 -101.47096 13.414675)
(613.56006 -126.20135 21.574054)
(678.45767 -154.54899 29.169146)
(746.44078 -186.26585 36.22361)
(816.71776 -220.80326 42.407763)
(888.85828 -257.79597 47.665855)
(961.92315 -296.71623 52.003009)
(1035.6373 -336.95655 55.345791)
(1109.547 -378.12967 57.805739)
(1183.4364 -419.9149 59.466211)
(1257.4116 -462.03294 60.460033)
(1331.6338 -504.56407 60.916279)
(1406.5796 -547.53234 60.814994)
(1482.8911 -591.14857 60.360243)
(1561.0949 -635.82872 59.648245)
(1641.96 -681.99484 58.673438)
(1726.112 -730.08847 57.491028)
(1814.1087 -780.60112 56.148579)
(1906.4718 -834.03856 54.590367)
(2003.5307 -890.62448 52.769452)
(2105.5306 -950.85381 50.652366)
(2212.52 -1014.7192 48.160653)
(2324.427 -1082.3942 45.157641)
(2440.9578 -1153.5524 41.732767)
(2561.6288 -1227.9654 37.670666)
(2685.8616 -1305.4364 33.408525)
(2812.951 -1384.9111 28.390128)
(2941.8113 -1466.4367 23.531595)
(3072.0099 -1548.7677 18.13565)
(3201.9347 -1631.7014 13.129605)
(3331.365 -1714.3719 7.9249698)
(3459.2466 -1796.8747 3.1495516)
(-1.4446032 -6.9031548 -12.100406)
(13.678241 -9.9862942 -20.460766)
(31.767968 -12.741515 -23.922887)
(56.755894 -16.855359 -28.729449)
(85.076221 -22.224415 -31.033915)
(115.68211 -27.172632 -34.227914)
(147.30317 -34.409797 -34.141605)
(180.60286 -40.579733 -34.633314)
(215.06072 -49.051064 -33.397864)
(251.18315 -57.238396 -30.152868)
(289.17879 -68.071235 -26.486049)
(330.43871 -80.056933 -21.257182)
(374.40491 -94.59269 -15.050148)
(422.42446 -112.16664 -7.7863804)
(474.06835 -132.47633 -0.097773714)
(530.07478 -156.65687 8.1670163)
(589.72181 -183.89263 16.32125)
(653.08298 -214.93086 24.285519)
(719.26518 -248.90513 31.71102)
(787.99755 -285.68996 38.297909)
(858.29126 -324.92574 44.041137)
(929.74801 -365.74318 48.790147)
(1001.6733 -407.82288 52.475825)
(1073.6513 -450.82593 55.206129)
(1145.6136 -494.29895 56.99894)
(1217.594 -538.2421 57.904083)
(1289.8442 -582.52676 58.045967)
(1362.8035 -627.39831 57.579352)
(1437.009 -673.07821 56.638391)
(1513.0639 -720.02361 55.333086)
(1591.738 -768.59524 53.727816)
(1673.5875 -819.34771 52.000094)
(1759.2895 -872.6661 50.108653)
(1849.3047 -929.05402 48.153334)
(1944.022 -988.74966 46.057937)
(2043.7143 -1052.0226 43.842211)
(2148.4291 -1119.0068 41.430591)
(2258.1205 -1189.5192 38.750523)
(2372.4131 -1263.4298 35.74019)
(2491.2549 -1340.615 32.501506)
(2613.5879 -1420.2582 28.821926)
(2739.1888 -1502.0277 24.962704)
(2866.6997 -1585.1633 20.869638)
(2995.7331 -1669.0856 16.576656)
(3124.8737 -1753.0826 12.368113)
(3253.5536 -1836.496 8.082363)
(3381.2062 -1919.4058 4.0481406)
(-3.7563256 -12.869954 -17.978265)
(10.381635 -18.185171 -23.618204)
(28.512493 -24.445228 -28.688707)
(54.075961 -32.36555 -32.61832)
(80.557103 -40.73684 -35.228217)
(110.77845 -49.755657 -36.881127)
(140.88939 -60.066315 -37.789154)
(173.72508 -69.866905 -38.502044)
(206.32766 -81.686421 -36.987826)
(241.54959 -93.412413 -35.297251)
(278.04733 -107.36743 -32.242173)
(317.68389 -121.80213 -27.357677)
(360.00622 -139.98628 -21.483437)
(406.47391 -159.88686 -14.55456)
(456.54932 -183.69116 -6.8093974)
(510.75072 -210.48459 1.5133732)
(568.8328 -240.92785 9.8938884)
(630.37477 -274.55103 18.229495)
(694.96537 -311.21766 26.155041)
(761.82117 -350.48584 33.283332)
(830.33071 -391.95087 39.820486)
(899.73961 -434.72143 45.046412)
(969.47626 -478.59675 49.297745)
(1039.4853 -523.44875 52.373517)
(1109.3549 -568.75574 54.304402)
(1179.2728 -614.51584 55.184581)
(1249.3568 -660.73602 55.176822)
(1320.0533 -707.64532 54.404499)
(1391.9443 -755.5462 53.01618)
(1465.6728 -804.84106 51.183646)
(1541.9576 -855.99982 49.072875)
(1621.3793 -909.51645 46.833289)
(1704.6733 -965.74178 44.48718)
(1792.2288 -1025.2308 42.232006)
(1884.5528 -1087.9924 39.910463)
(1981.8664 -1154.4816 37.669691)
(2084.3537 -1224.4973 35.389297)
(2191.7255 -1298.0914 32.963376)
(2304.3479 -1374.8684 30.469859)
(2421.3017 -1454.5962 27.760924)
(2541.983 -1536.4283 25.002013)
(2665.8998 -1620.039 21.797048)
(2792.1158 -1704.7711 18.680911)
(2919.9136 -1789.8329 15.145374)
(3048.0888 -1874.7549 11.874307)
(3176.1491 -1958.8521 8.2832127)
(3303.3811 -2041.8636 5.0254032)
(-3.0121258 -16.580456 -26.39887)
(13.882368 -25.962441 -33.238358)
(31.771989 -36.339431 -39.106997)
(56.251035 -49.151095 -41.667533)
(82.610288 -61.812571 -43.21397)
(110.82398 -75.449517 -44.029177)
(139.95331 -89.829568 -44.770597)
(170.22904 -103.47019 -44.21847)
(201.12163 -118.78129 -43.21841)
(233.93526 -133.47937 -41.123686)
(268.50059 -150.47419 -37.840492)
(305.91578 -168.47947 -33.40364)
(346.425 -189.42312 -27.880784)
(390.65932 -212.72418 -20.940755)
(438.71447 -239.22242 -13.339134)
(491.06857 -268.84899 -4.7735014)
(547.11791 -301.8736 3.9017728)
(606.97166 -337.88135 12.883143)
(669.59703 -376.88855 21.367149)
(734.76055 -418.11924 29.369062)
(801.39882 -461.41454 36.469363)
(869.3007 -506.072 42.264337)
(937.60305 -551.74756 47.019917)
(1005.5941 -598.20984 50.319914)
(1073.8177 -645.09807 52.308352)
(1141.8907 -692.37045 53.021775)
(1210.2108 -740.24552 52.695707)
(1279.0553 -789.03906 51.415009)
(1349.0254 -839.00246 49.393731)
(1420.7218 -890.64281 46.900224)
(1494.8518 -944.40718 44.095511)
(1572.0477 -1000.7215 41.19218)
(1652.9865 -1060.0382 38.313853)
(1738.0828 -1122.6452 35.6251)
(1827.9337 -1188.7115 33.039779)
(1922.7043 -1258.4438 30.770008)
(2022.5674 -1331.6207 28.584834)
(2127.6391 -1408.1874 26.660256)
(2237.4832 -1487.7902 24.543996)
(2351.8917 -1569.7927 22.8555)
(2470.6473 -1653.7471 20.638755)
(2592.8057 -1739.2042 18.58951)
(2717.4641 -1825.2598 16.281116)
(2843.9142 -1911.5835 13.906131)
(2971.1756 -1997.2053 11.333491)
(3098.3429 -2081.9096 8.5441386)
(3225.0246 -2165.0033 5.9331423)
(1.4151408 -28.259007 -32.315088)
(17.136929 -38.686573 -40.022552)
(34.255643 -53.979264 -45.517443)
(59.225658 -69.339582 -47.450713)
(83.512484 -85.68153 -48.059546)
(111.12121 -102.41377 -48.576774)
(138.20543 -119.21554 -48.771312)
(166.9249 -135.64962 -48.254872)
(196.05571 -153.494 -47.824032)
(226.86152 -170.43595 -45.883999)
(259.82682 -191.11323 -43.291907)
(295.18076 -211.06593 -39.553885)
(334.18087 -235.95189 -33.878586)
(376.26944 -261.91189 -27.705461)
(422.90384 -292.03817 -19.851918)
(473.1229 -324.97245 -11.422925)
(527.54973 -361.32624 -2.2080267)
(585.27774 -400.595 7.1337214)
(646.0711 -442.35665 16.3439)
(709.22413 -486.32274 25.028212)
(773.97817 -531.70232 32.731735)
(839.79933 -578.44555 39.428389)
(906.1744 -625.80305 44.480029)
(972.52619 -673.61069 48.129682)
(1038.835 -721.93174 50.326708)
(1105.0214 -770.65096 50.985166)
(1171.4052 -820.0342 50.485368)
(1238.2841 -870.54693 48.766967)
(1306.235 -922.381 46.23215)
(1375.8287 -976.23698 43.096)
(1447.78 -1032.4628 39.666988)
(1522.6895 -1091.5999 36.166642)
(1601.218 -1153.9609 32.794038)
(1683.8537 -1219.8405 29.689561)
(1771.1695 -1289.3117 26.896801)
(1863.2733 -1362.5557 24.562707)
(1960.6267 -1439.1105 22.492003)
(2063.0535 -1519.0213 20.784405)
(2170.6174 -1601.6266 19.312248)
(2282.719 -1686.3343 17.945394)
(2399.343 -1772.8137 16.701727)
(2519.5422 -1860.1117 15.410648)
(2642.6221 -1947.791 14.069266)
(2767.7711 -2035.0764 12.500803)
(2893.9285 -2121.344 10.730314)
(3020.316 -2206.3375 8.7127346)
(3145.9986 -2289.2499 6.508148)
(0 0 0)
(0 0 0)
(0 0 0)
(0 0 0)
(0 0 0)
(0 0 0)
(0 0 0)
(0 0 0)
(0 0 0)
(0 0 0)
(0 0 0)
(0 0 0)
(0 0 0)
(0 0 0)
(0 0 0)
(0 0 0)
(0 0 0)
(0 0 0)
(0 0 0)
(0 0 0)
(0 0 0)
(0 0 0)
(0 0 0)
(0 0 0)
(0 0 0)
(0 0 0)
(0 0 0)
(0 0 0)
(0 0 0)
(0 0 0)
(0 0 0)
(0 0 0)
(0 0 0)
(0 0 0)
(0 0 0)
(0 0 0)
(0 0 0)
(0 0 0)
(0 0 0)
(0 0 0)
(0 0 0)
(0 0 0)
(0 0 0)
(0 0 0)
(0 0 0)
(0 0 0)
(0 0 0)
(0 0 0)
(0 0 0)
(22.194862 -12.388068 -22.868042)
(24.682874 -14.399944 -15.586545)
(26.326623 -15.249858 -8.5697342)
(27.001666 -15.504401 -3.2850523)
(25.698764 -14.352674 2.8643097)
(23.402167 -14.327988 9.2842633)
(19.232808 -10.345476 16.775051)
(35.161525 -47.888825 -42.99548)
(40.178938 -51.384191 -25.256012)
(41.854417 -49.133944 -14.417613)
(41.468519 -47.671746 -5.7153452)
(40.14423 -48.694512 2.7450638)
(36.236128 -47.278265 13.048856)
(31.343216 -45.933293 25.365467)
(50.325828 -70.733096 -43.781223)
(55.730381 -67.577626 -32.60098)
(59.170443 -67.957854 -19.816937)
(58.490331 -67.272387 -10.420552)
(57.183203 -65.652196 2.4163724)
(51.330054 -65.441099 11.426644)
(44.931693 -65.348195 25.959076)
(71.364892 -96.460968 -45.306909)
(74.913048 -97.122341 -35.641665)
(77.734492 -95.454871 -24.255097)
(77.645305 -95.073973 -13.539621)
(75.39523 -94.626637 -2.1937756)
(70.533018 -94.755305 8.5928058)
(63.941032 -91.761337 20.038758)
(92.23055 -115.9165 -46.409691)
(96.800579 -115.86275 -38.128276)
(99.451845 -116.55364 -26.863967)
(99.337626 -115.87668 -16.839756)
(97.33077 -116.38035 -5.6098149)
(92.679151 -115.07202 3.9087943)
(86.484443 -114.12242 15.306013)
(116.73847 -137.1165 -46.592725)
(119.94133 -137.06611 -39.613468)
(122.03318 -136.99957 -29.321794)
(121.26849 -138.1043 -20.895519)
(119.5293 -137.03701 -9.491013)
(115.22477 -137.23233 -0.31383684)
(109.52815 -134.83887 9.3457121)
(142.37607 -155.08182 -46.956905)
(145.03912 -156.71973 -39.548928)
(146.5885 -159.87753 -30.774061)
(146.64532 -160.75708 -21.94104)
(144.54949 -162.15556 -12.258292)
(140.79911 -163.21642 -3.4905199)
(135.77473 -161.03271 6.5707761)
(168.25329 -175.42293 -46.986836)
(171.24173 -178.33264 -40.902898)
(173.113 -180.25156 -31.580481)
(172.1868 -181.78114 -23.171562)
(170.25823 -182.13851 -14.257916)
(166.79951 -181.94567 -4.8499551)
(161.47747 -180.7335 3.2669989)
(196.90193 -196.15901 -46.636813)
(199.17266 -198.67366 -39.438325)
(199.99127 -203.30964 -31.137234)
(199.83711 -206.12156 -23.400372)
(197.75575 -209.28289 -13.974073)
(194.5228 -210.34693 -5.21899)
(189.39224 -210.27965 4.5688282)
(225.27905 -217.57069 -45.302468)
(228.1 -222.63885 -38.675045)
(229.65472 -226.45187 -30.103646)
(229.33381 -230.61365 -20.918981)
(226.71733 -231.69386 -12.067451)
(223.58104 -232.76739 -3.3737787)
(218.54163 -233.03234 5.2430481)
(257.24305 -242.24552 -42.932392)
(259.48572 -247.15873 -35.560446)
(260.72245 -253.09467 -25.903877)
(259.5799 -255.95431 -18.33502)
(257.77336 -260.07452 -8.5637721)
(253.96009 -262.49172 -0.31001466)
(248.24269 -263.83607 10.529611)
(290.50554 -268.36276 -39.413886)
(293.00572 -274.83033 -30.803859)
(293.45316 -280.75149 -22.879854)
(293.33862 -286.09987 -13.260716)
(290.62195 -289.42749 -3.7044858)
(286.54125 -290.5638 4.9863922)
(281.58972 -293.47265 14.977035)
(327.29826 -298.69717 -33.696281)
(328.80053 -304.77623 -25.482839)
(329.90801 -312.05678 -16.304179)
(328.82995 -316.01191 -7.1410923)
(326.32015 -319.95836 2.3376253)
(321.94246 -323.67742 11.141145)
(316.16571 -325.06407 21.592382)
(366.64657 -330.10583 -27.530596)
(368.37106 -337.63786 -18.543098)
(369.14986 -345.08816 -9.7279793)
(367.67386 -349.96764 -0.37152664)
(365.21098 -355.22513 9.3792712)
(360.44174 -357.08305 18.076781)
(354.81239 -360.25463 28.702549)
(409.7621 -366.06656 -19.40863)
(411.25674 -373.54047 -10.37972)
(411.41348 -380.57886 -1.6639347)
(410.01627 -385.93926 7.9838658)
(407.19674 -389.84812 16.806425)
(402.46309 -393.08819 26.053682)
(396.30507 -395.6969 35.823846)
(456.83829 -403.40481 -10.467425)
(457.70074 -410.82191 -1.7643095)
(457.76103 -418.72123 7.0585057)
(455.85066 -423.62866 15.724463)
(453.02229 -428.42143 24.999162)
(447.97731 -431.36749 33.346018)
(441.92776 -434.02316 42.884408)
(507.22419 -443.48563 -0.91047886)
(507.96247 -451.32221 7.7747584)
(507.34048 -458.26697 15.714686)
(505.435 -463.17722 24.613928)
(502.38312 -467.47727 32.694481)
(497.48479 -470.20506 40.906323)
(491.43514 -472.83078 49.502003)
(561.63848 -485.43313 9.1514629)
(561.65126 -492.58387 16.889594)
(560.7993 -499.43943 24.85665)
(558.53116 -504.20685 32.555741)
(555.41031 -508.14551 40.238601)
(550.52914 -510.92471 47.780461)
(544.67109 -513.00611 55.359823)
(618.93578 -528.65275 18.725649)
(618.63983 -535.39709 26.229424)
(617.3175 -541.68822 33.206447)
(614.91267 -545.78404 40.417599)
(611.78954 -549.42701 47.272968)
(607.05943 -551.72115 54.040198)
(601.49917 -553.68873 60.546559)
(679.17463 -572.82183 28.045824)
(678.43699 -579.01586 34.616139)
(676.74925 -584.47682 41.050491)
(674.23355 -588.36349 47.442852)
(671.0543 -591.34474 53.464159)
(666.48805 -593.50945 59.523911)
(661.33298 -594.74438 64.993183)
(741.57301 -617.76593 36.148676)
(740.44446 -623.03728 42.181161)
(738.5202 -627.90208 47.946874)
(735.94855 -631.00312 53.607972)
(732.75698 -633.54028 58.943775)
(728.48122 -635.11536 64.246444)
(723.65942 -635.95273 68.792337)
(805.57087 -662.94888 43.114721)
(804.23588 -667.55615 48.547328)
(802.15792 -671.48543 53.702754)
(799.50543 -674.18911 58.786832)
(796.40596 -676.02738 63.494238)
(792.29286 -677.23371 68.176428)
(787.83504 -677.4062 72.04768)
(870.64594 -708.58565 48.489823)
(869.21246 -712.31779 53.527263)
(867.02451 -715.61264 58.252682)
(864.48757 -717.57641 62.903861)
(861.40062 -718.8319 67.19924)
(857.47624 -719.46212 71.43948)
(853.32057 -719.06989 74.839377)
(936.39455 -754.65572 52.273729)
(934.92556 -757.69265 57.080598)
(932.90386 -760.12186 61.495127)
(930.36101 -761.57088 65.99599)
(927.34752 -762.23609 70.045279)
(923.60394 -762.37134 73.978014)
(919.62006 -761.30985 77.258304)
(1002.365 -801.29222 54.41239)
(1001.1673 -803.7302 59.130605)
(999.29122 -805.47821 63.603484)
(996.82066 -806.40296 68.036077)
(993.97981 -806.54343 72.026801)
(990.18316 -806.08844 76.001868)
(986.36884 -804.3824 79.439502)
(1068.5806 -849.08431 54.912937)
(1067.7218 -850.92214 59.870644)
(1065.9974 -852.0308 64.485711)
(1063.7431 -852.62056 69.034286)
(1060.973 -852.18349 73.312068)
(1057.3139 -851.25825 77.399734)
(1053.4687 -848.99204 81.177047)
(1134.9599 -898.26757 54.098621)
(1134.4914 -899.66117 59.382709)
(1133.159 -900.4044 64.289461)
(1131.1207 -900.44522 69.191857)
(1128.4865 -899.54578 73.921486)
(1124.664 -898.06957 78.251395)
(1120.8913 -895.3446 82.521054)
(1201.7672 -949.33437 52.083573)
(1201.8951 -950.27056 57.920924)
(1200.8718 -950.74517 63.252284)
(1199.1555 -950.41576 68.70551)
(1196.5174 -949.17069 73.87322)
(1192.8465 -947.28029 78.783877)
(1188.8235 -943.95986 83.701379)
(1269.4488 -1002.7752 49.253818)
(1269.978 -1003.6468 55.599422)
(1269.5361 -1003.7703 61.568161)
(1267.9306 -1003.2507 67.609837)
(1265.5 -1001.611 73.410655)
(1261.7043 -999.25074 78.916427)
(1257.5317 -995.44308 84.51692)
(1338.2856 -1059.2331 45.809948)
(1339.4731 -1059.832 52.849678)
(1339.3716 -1059.9156 59.373042)
(1338.1064 -1059.0623 66.093263)
(1335.7222 -1057.1424 72.511912)
(1331.948 -1054.3416 78.670136)
(1327.5642 -1050.1925 85.014689)
(1409.0375 -1118.8175 42.115692)
(1410.7145 -1119.4926 49.750459)
(1411.0846 -1119.3917 56.906476)
(1410.0433 -1118.3662 64.280193)
(1407.7849 -1116.1871 71.302948)
(1404.0031 -1113.0328 78.133036)
(1399.4136 -1108.4988 85.14252)
(1482.214 -1182.1028 38.37597)
(1484.3929 -1182.7289 46.601508)
(1485.1244 -1182.5699 54.295016)
(1484.3538 -1181.3631 62.239575)
(1482.1964 -1178.9723 69.820098)
(1478.4485 -1175.4362 77.239086)
(1473.688 -1170.5986 84.859781)
(1558.4976 -1249.1053 34.82408)
(1561.0648 -1249.762 43.50945)
(1562.1415 -1249.5231 51.643982)
(1561.6034 -1248.1512 60.077566)
(1559.5682 -1245.5436 68.111692)
(1555.8729 -1241.6991 76.028745)
(1550.9876 -1236.5869 84.135826)
(1638.4005 -1319.9351 31.584709)
(1641.2884 -1320.5947 40.591085)
(1642.6306 -1320.2928 49.04626)
(1642.3169 -1318.7519 57.784667)
(1640.3959 -1315.9653 66.125106)
(1636.8269 -1311.8356 74.398674)
(1631.912 -1306.4798 82.853123)
(1722.4967 -1394.5203 28.730859)
(1725.5929 -1395.1673 37.871079)
(1727.1722 -1394.7237 46.477716)
(1727.044 -1393.0081 55.375028)
(1725.275 -1390.0748 63.904966)
(1721.8287 -1385.7575 72.420433)
(1716.8863 -1380.1273 80.965657)
(1811.1761 -1472.6291 26.338409)
(1814.37 -1473.1964 35.440329)
(1816.0709 -1472.6226 44.021199)
(1816.1161 -1470.7663 52.861096)
(1814.3964 -1467.7234 61.282679)
(1811.2722 -1462.9329 69.858664)
(1806.5282 -1457.1548 78.069165)
(1904.6438 -1553.6929 24.222263)
(1907.9089 -1554.2638 33.036573)
(1909.7627 -1553.4675 41.250071)
(1909.893 -1551.4943 49.974908)
(1908.491 -1548.1393 58.097619)
(1905.5492 -1543.8588 66.352575)
(1901.1559 -1537.6218 75.088509)
(2003.2609 -1638.1965 22.416423)
(2006.4383 -1638.0053 30.889071)
(2008.257 -1637.1046 38.773175)
(2008.5734 -1634.9325 46.861956)
(2007.3602 -1631.5621 54.799792)
(2004.7162 -1626.4955 62.687105)
(2000.4559 -1620.703 70.31631)
(2106.9034 -1723.9297 20.991793)
(2109.9046 -1723.874 28.692662)
(2111.6879 -1722.6862 35.949704)
(2112.094 -1720.2963 43.500252)
(2111.0401 -1716.8636 50.641344)
(2108.7504 -1712.0893 57.840992)
(2105.2485 -1706.2141 65.174355)
(2215.3208 -1811.6175 19.53032)
(2218.1494 -1811.1416 26.485341)
(2219.8687 -1809.6582 32.969105)
(2220.3362 -1807.1444 39.638958)
(2219.5425 -1803.641 46.053978)
(2217.7736 -1798.8419 52.594147)
(2214.6544 -1792.9901 58.848369)
(2328.3453 -1899.941 18.230046)
(2330.908 -1899.0996 24.14179)
(2332.4981 -1897.2974 29.721348)
(2333.0943 -1894.6401 35.514382)
(2332.5616 -1891.0869 41.020059)
(2331.2009 -1886.3555 46.534908)
(2328.8008 -1880.6753 51.887162)
(2445.3598 -1988.4253 16.942699)
(2447.5571 -1987.1651 21.71783)
(2449.041 -1985.0869 26.340909)
(2449.7077 -1982.3075 31.039349)
(2449.3875 -1978.6944 35.565309)
(2448.5796 -1974.0825 40.134009)
(2446.8363 -1968.6117 44.383178)
(2565.8087 -2076.2404 15.481424)
(2567.7 -2074.5942 19.142137)
(2569.0062 -2072.2364 22.71451)
(2569.7484 -2069.3193 26.415686)
(2569.6733 -2065.681 29.983557)
(2569.3727 -2061.2019 33.469426)
(2568.2471 -2055.9858 36.611778)
(2688.8583 -2162.9514 13.865738)
(2690.3247 -2160.948 16.406129)
(2691.4655 -2158.3962 19.023574)
(2692.2209 -2155.3456 21.726385)
(2692.3996 -2151.6841 24.295042)
(2692.5135 -2147.3336 26.845416)
(2692.0528 -2142.2845 28.935557)
(2813.6464 -2248.0013 11.995894)
(2814.7942 -2245.7109 13.562826)
(2815.7712 -2242.9829 15.267762)
(2816.563 -2239.8522 17.055508)
(2816.9042 -2236.2129 18.829661)
(2817.4233 -2231.8888 20.495813)
(2817.4786 -2227.0308 21.631058)
(2939.217 -2331.2563 9.8213552)
(2940.0556 -2328.7742 10.504551)
(2940.8921 -2326.0213 11.443178)
(2941.6015 -2322.866 12.524459)
(2942.2057 -2319.1987 13.557222)
(2942.8963 -2314.9166 14.512057)
(2943.5113 -2310.0583 14.970388)