/*--------------------------------*- C++ -*----------------------------------*\
  =========                 |
  \\      /  F ield         | OpenFOAM: The Open Source CFD Toolbox
   \\    /   O peration     | Website:  https://openfoam.org
    \\  /    A nd           | Version:  6
     \\/     M anipulation  |
\*---------------------------------------------------------------------------*/
FoamFile
{
    version     2.0;
    format      ascii;
    class       pointVectorField;
    location    "1.88";
    object      u;
}
// * * * * * * * * * * * * * * * * * * * * * * * * * * * * * * * * * * * * * //

dimensions      [0 1 0 0 0 0 0];

internalField   nonuniform List<vector> 
3969
(
(0 -8.1529255e-20 0)
(0 -4.4588503e-19 0)
(0.41612343 0.035926395 -0.055370223)
(0.40948808 -0.07929558 -0.054312393)
(0 4.4469619e-18 0)
(0 3.6731804e-18 0)
(0.41019657 -0.064246896 -0.054459536)
(0.41682596 0.050953596 -0.055455888)
(0 1.8576189e-19 0)
(0 1.1165527e-18 0)
(0 5.0006782e-19 0)
(-2.9903747e-18 -2.6926067e-19 0)
(0 1.4734826e-18 0)
(0 -8.4950697e-19 0)
(0 -8.112115e-19 0)
(0.41527715 0.021468705 -0.055266247)
(0.41440664 0.0070547551 -0.05516307)
(0.41355369 -0.0073184791 -0.055018405)
(0.41271998 -0.021673741 -0.054869684)
(0.4119065 -0.036024022 -0.054710002)
(0.41110977 -0.050408535 -0.054561272)
(0.41031498 -0.064828148 -0.054428721)
(0.00023586782 0.0010100987 0.0014363153)
(7.3432013e-05 0.0020155754 0.0018415991)
(0.00060190358 0.0027430795 0.0020712737)
(0.0012639353 0.0040780967 0.0018962546)
(0.0024985639 0.0049659284 0.0017794474)
(0.0038702951 0.0063593023 0.0013791904)
(0.0057881266 0.0074208129 0.0010660003)
(0.0078492062 0.0088467765 0.00055646953)
(0.010434761 0.010034438 8.8093991e-05)
(0.013243111 0.011526815 -0.0005037165)
(0.016514803 0.012811768 -0.0010858973)
(0.0200988 0.014387861 -0.0017619723)
(0.024132824 0.01578122 -0.0024440918)
(0.028536483 0.017410037 -0.0031961785)
(0.033385298 0.018923375 -0.0039645904)
(0.038668044 0.020585624 -0.0047875767)
(0.044391414 0.022178313 -0.005627381)
(0.050593842 0.023866676 -0.0065133821)
(0.057260802 0.025500505 -0.0074324512)
(0.064431492 0.027172433 -0.0083896808)
(0.072083577 0.028795626 -0.0093874981)
(0.08025199 0.030411089 -0.010427587)
(0.088914197 0.031964142 -0.011513297)
(0.09809459 0.033462012 -0.012648876)
(0.10775963 0.034894234 -0.013837318)
(0.11793311 0.036224763 -0.015083603)
(0.1285701 0.037458948 -0.016386922)
(0.13968216 0.038589115 -0.017755477)
(0.15123267 0.039582356 -0.019190269)
(0.16320881 0.040459955 -0.020689774)
(0.17557775 0.041190088 -0.02226057)
(0.18831439 0.041790091 -0.023898506)
(0.20138907 0.04224032 -0.025603246)
(0.21476942 0.042555984 -0.027374166)
(0.2284158 0.042733819 -0.029207565)
(0.24231078 0.042769733 -0.031090452)
(0.25639874 0.042681748 -0.033036485)
(0.27066364 0.04247297 -0.035027248)
(0.28505369 0.042149204 -0.037040106)
(0.29956195 0.041726444 -0.039094514)
(0.31413013 0.041212087 -0.04115852)
(0.32875881 0.040605816 -0.043241284)
(0.34338977 0.039947847 -0.045312756)
(0.35802678 0.039204876 -0.047381598)
(0.37262786 0.038436032 -0.049422976)
(0.38717571 0.037620574 -0.051431408)
(0.4016738 0.03677605 -0.053407743)
(0.00015982242 -0.001299498 -0.001572198)
(0.0005012774 -0.0023253337 -0.0019161123)
(0.00094849932 -0.0036623738 -0.002313452)
(0.0016269033 -0.0048681998 -0.0028079917)
(0.0027681284 -0.0063718896 -0.0031440521)
(0.0041331352 -0.0076866973 -0.0036909177)
(0.0058912333 -0.009246958 -0.0041632906)
(0.0079365313 -0.010636538 -0.0047996015)
(0.010349118 -0.012236447 -0.0054231091)
(0.013074563 -0.013698771 -0.0061517506)
(0.0162029 -0.015374774 -0.0069118028)
(0.019656875 -0.016918105 -0.0077309495)
(0.023529463 -0.018653633 -0.0086028345)
(0.027773287 -0.020330773 -0.0094782328)
(0.032460582 -0.022134052 -0.010416724)
(0.037535748 -0.02391768 -0.011360209)
(0.043120386 -0.025834105 -0.012335437)
(0.049073887 -0.02770165 -0.013320226)
(0.055620046 -0.029740377 -0.014311114)
(0.062501909 -0.031690963 -0.015325378)
(0.07002934 -0.033835187 -0.01632245)
(0.077910713 -0.035875325 -0.017349159)
(0.086418246 -0.038079917 -0.01835184)
(0.095325219 -0.040219664 -0.019381925)
(0.10480374 -0.042444174 -0.020407337)
(0.11469342 -0.044622346 -0.021463653)
(0.12511025 -0.046853531 -0.022516416)
(0.13596242 -0.049037006 -0.023596334)
(0.14728306 -0.051222601 -0.024711303)
(0.15901719 -0.053366769 -0.025847421)
(0.17114518 -0.055470839 -0.027029452)
(0.18364918 -0.057528049 -0.028245595)
(0.19649025 -0.059521241 -0.029514676)
(0.20964505 -0.061443846 -0.030830071)
(0.22307876 -0.063290512 -0.032203804)
(0.236764 -0.06504955 -0.033624414)
(0.25065533 -0.066715043 -0.035117473)
(0.26473973 -0.068286187 -0.03664579)
(0.27897091 -0.069762279 -0.03824506)
(0.2933265 -0.071142024 -0.039885013)
(0.30777327 -0.072419908 -0.041578204)
(0.32229158 -0.073616739 -0.043306773)
(0.33684195 -0.074715438 -0.045081454)
(0.35141561 -0.075744822 -0.046881961)
(0.36597964 -0.076697967 -0.048715876)
(0.38052277 -0.077597777 -0.050566856)
(0.39502754 -0.078451825 -0.052438412)
(0 -4.8508985e-20 0)
(0 5.6834241e-19 0)
(0 -6.9452802e-19 0)
(1.4705622e-18 -1.4968924e-19 0)
(0 -1.2710959e-18 0)
(0 -5.9249778e-19 0)
(0 -4.8446647e-19 0)
(-4.248126e-05 -0.00040474281 0.0009417255)
(-0.00016207447 -0.0014545125 0.001389283)
(0.00014151934 -0.0019647191 0.0013662614)
(0.00099250737 -0.0028782845 0.0012878917)
(0.0020873796 -0.0037580041 0.0010056279)
(0.0035803151 -0.0046221114 0.00066112623)
(0.0053940047 -0.00566635 0.000240423)
(0.0075433322 -0.0066253422 -0.00024097684)
(0.01001705 -0.0077314853 -0.00076634964)
(0.012825841 -0.008841268 -0.0013555127)
(0.016085241 -0.010140706 -0.0019210084)
(0.019465862 -0.011221413 -0.0026127586)
(0.023588472 -0.012781005 -0.0032756945)
(0.027748263 -0.013898001 -0.0040658831)
(0.032639377 -0.015660524 -0.0047686312)
(0.037672905 -0.016904375 -0.0056371675)
(0.043371627 -0.018760423 -0.0064084914)
(0.049335995 -0.020214711 -0.007315911)
(0.055905319 -0.022100112 -0.0081762927)
(0.062838111 -0.023748866 -0.009126303)
(0.070333213 -0.025657014 -0.010074209)
(0.078258557 -0.027441762 -0.011087587)
(0.086715454 -0.029365216 -0.012125322)
(0.095639645 -0.031222635 -0.013223702)
(0.10507976 -0.033150964 -0.01437241)
(0.1150352 -0.035035258 -0.015602009)
(0.1254187 -0.0369381 -0.016858832)
(0.13625558 -0.038801423 -0.018165841)
(0.14754642 -0.040629532 -0.019539584)
(0.15925722 -0.042405705 -0.020981845)
(0.17137529 -0.044139566 -0.022487286)
(0.18386827 -0.045812083 -0.024059688)
(0.1967085 -0.047418695 -0.025697682)
(0.20987017 -0.048966281 -0.027397661)
(0.22331747 -0.050437333 -0.029157582)
(0.23703123 -0.051854065 -0.030973765)
(0.25094745 -0.053154613 -0.032839623)
(0.2650661 -0.054457003 -0.034750142)
(0.27934467 -0.055643371 -0.03669577)
(0.2937418 -0.056782214 -0.038673196)
(0.30824221 -0.057858873 -0.040670428)
(0.32280214 -0.05888349 -0.04267667)
(0.33740485 -0.059856919 -0.044686773)
(0.3520169 -0.060789002 -0.046687511)
(0.36661979 -0.061684252 -0.048670647)
(0.38118854 -0.062550883 -0.050628237)
(0.39570886 -0.063399208 -0.052548851)
(0.41101722 -0.049764575 -0.054610557)
(0.41182171 -0.035329489 -0.054749299)
(0.41261543 -0.020933493 -0.054872651)
(0.41343449 -0.0065780866 -0.054969224)
(0.41427629 0.0077693219 -0.055073872)
(0.41512468 0.022140179 -0.055179736)
(0.41599039 0.036533879 -0.055312662)
(0.40241616 0.051801643 -0.053625757)
(0.38796137 0.052626421 -0.051779427)
(0.37346423 0.053401364 -0.049942763)
(0.35893527 0.054098123 -0.048115852)
(0.3443794 0.054715545 -0.046307446)
(0.32982393 0.0552293 -0.04452244)
(0.31528574 0.055635231 -0.042764509)
(0.30078911 0.055919664 -0.041042353)
(0.28636336 0.056075861 -0.039358778)
(0.27203269 0.056103286 -0.037715814)
(0.25781651 0.055976968 -0.036128314)
(0.2438067 0.055715805 -0.034566357)
(0.22992432 0.055299703 -0.033093566)
(0.21630726 0.054743099 -0.031646131)
(0.20293428 0.054042515 -0.030263181)
(0.18986133 0.053200011 -0.028927393)
(0.17711103 0.052218683 -0.027639063)
(0.16472148 0.051108181 -0.026396739)
(0.15271667 0.04987487 -0.025194602)
(0.14112887 0.048526097 -0.024029674)
(0.12997753 0.047072605 -0.022893085)
(0.11929553 0.045528472 -0.021787632)
(0.10908813 0.043893836 -0.020692397)
(0.099372506 0.042206876 -0.019630193)
(0.090155838 0.040430855 -0.018565442)
(0.08145589 0.038647532 -0.017531646)
(0.073260075 0.03677744 -0.016478689)
(0.065574186 0.034941207 -0.015472963)
(0.058394861 0.033020579 -0.014431282)
(0.05170126 0.031163254 -0.013451292)
(0.04550807 0.029233801 -0.012433426)
(0.039762593 0.027375093 -0.011483248)
(0.03448319 0.025485994 -0.010525217)
(0.02966294 0.02362562 -0.0095795194)
(0.025295189 0.02172039 -0.0086951147)
(0.021253178 0.019973543 -0.0078478706)
(0.017701589 0.018068964 -0.0070136638)
(0.014420883 0.016346521 -0.0062988368)
(0.011602753 0.014519833 -0.0055859541)
(0.0090534806 0.012847277 -0.0049382786)
(0.0069857599 0.01094801 -0.0043501475)
(0.0050672629 0.0094078821 -0.0038816645)
(0.0036810363 0.007570149 -0.0033855673)
(0.0024750223 0.0060389325 -0.0029862821)
(0.0016668008 0.0044358505 -0.0025809718)
(0.0011523873 0.0028847182 -0.0020577326)
(0.0014152234 0.0016400308 -0.0012085665)
(0 6.001707e-19 0)
(0 4.7007546e-19 0)
(0 -2.4359216e-19 0)
(0 -1.6006071e-18 8.0102059e-19)
(0 -1.4053471e-18 0)
(0 -3.0898663e-19 0)
(0 1.4775882e-18 0)
(0 2.0966837e-18 0)
(0 1.9986698e-18 0)
(0 1.899077e-18 0)
(0 1.6401531e-18 -2.0148592e-19)
(0 4.4307556e-18 0)
(0 1.942382e-18 0)
(0 -3.5788801e-19 0)
(0.40958007 -0.077419128 -0.054329149)
(0.40967964 -0.075553369 -0.054347545)
(0.40978552 -0.073690869 -0.054353804)
(0.40988214 -0.071827588 -0.05436834)
(0.40997474 -0.06995621 -0.054382049)
(0.41005428 -0.068068151 -0.054403877)
(0.41012429 -0.066166598 -0.054437976)
(0.41624673 0.037883083 -0.055372263)
(0.41635506 0.039803838 -0.055369133)
(0.41645288 0.041699187 -0.055374646)
(0.4165356 0.043570439 -0.055385987)
(0.41661036 0.045427479 -0.055406677)
(0.4166788 0.047272808 -0.055425283)
(0.41675131 0.049118215 -0.055443966)
(-0.00015656535 0.00096895252 0.0012023414)
(-0.00024460824 0.0015391187 0.001299185)
(0.0002096466 0.0022460696 0.0013764823)
(0.00085458855 0.0030317084 0.0012644782)
(0.0020298855 0.0037757728 0.0010432297)
(0.0033852848 0.0046720884 0.00072424791)
(0.0052794794 0.0055521435 0.00030190779)
(0.0072925894 0.0064838609 -0.00013819528)
(0.0098637989 0.0074669545 -0.00067737373)
(0.012622573 0.0084696874 -0.0012492611)
(0.015882014 0.0095112078 -0.0018835028)
(0.019409279 0.010595095 -0.0025441436)
(0.023434377 0.011677609 -0.0032717413)
(0.027778545 0.012836677 -0.0040240953)
(0.032606371 0.013963624 -0.0048103149)
(0.037849026 0.015164708 -0.005650194)
(0.043542181 0.016331293 -0.0065060888)
(0.049700053 0.017544668 -0.0074049287)
(0.056343688 0.018716337 -0.0083340854)
(0.063471919 0.019901604 -0.0092987616)
(0.071101676 0.021047279 -0.010302329)
(0.079236152 0.022162746 -0.011340562)
(0.087877819 0.023226594 -0.012423043)
(0.097029879 0.024238125 -0.013548808)
(0.10667944 0.025172898 -0.014723837)
(0.11683262 0.02603033 -0.015945867)
(0.12746365 0.026801293 -0.017226606)
(0.13856173 0.027473896 -0.018564936)
(0.15010955 0.028048317 -0.019959293)
(0.16208351 0.028510857 -0.021420197)
(0.17445175 0.028863384 -0.022940721)
(0.18719449 0.029105057 -0.024527095)
(0.20027636 0.029231543 -0.026175383)
(0.21366437 0.029254451 -0.027889263)
(0.22732745 0.029160628 -0.029655276)
(0.24123151 0.028974931 -0.031484307)
(0.25533581 0.028687764 -0.033359999)
(0.26961941 0.028313323 -0.035283519)
(0.28403454 0.027858969 -0.03723849)
(0.29856058 0.027333146 -0.039230049)
(0.31315225 0.026739628 -0.041238939)
(0.32780067 0.02609551 -0.043264487)
(0.34245327 0.025402519 -0.045291815)
(0.35711291 0.024669748 -0.047316996)
(0.37173229 0.023910401 -0.049327062)
(0.38630553 0.02312442 -0.051319214)
(0.4008246 0.02230233 -0.053295323)
(-0.00052143505 0.00054870862 0.00080194286)
(-0.00056892837 0.00093797639 0.00074323768)
(-0.00010712598 0.0013220673 0.00083123755)
(0.00054149582 0.0019101371 0.00055175571)
(0.0016642922 0.002284391 0.00038878961)
(0.0030852508 0.0029460529 -6.8090746e-05)
(0.0048382676 0.0033866058 -0.00038436874)
(0.0069309769 0.004084501 -0.00092601025)
(0.009410691 0.0046201275 -0.0014395567)
(0.012203353 0.0053442981 -0.0020430547)
(0.015382774 0.0059270758 -0.0026577687)
(0.018940452 0.0066975984 -0.003372175)
(0.022885665 0.0073364528 -0.0040823785)
(0.027232271 0.0081297273 -0.0048468408)
(0.032022292 0.0088220929 -0.0056598908)
(0.037229393 0.0096184274 -0.0064964498)
(0.042888099 0.010341343 -0.0073710882)
(0.049026619 0.011123787 -0.0082793337)
(0.055627219 0.011839454 -0.0092148328)
(0.062738311 0.012577924 -0.010185318)
(0.070334598 0.013258882 -0.011191071)
(0.078455114 0.01391772 -0.012223703)
(0.087068813 0.014527955 -0.013304703)
(0.096202643 0.015078117 -0.014411392)
(0.10583213 0.015571974 -0.015570379)
(0.11597143 0.015994568 -0.016771705)
(0.12658062 0.016336308 -0.018022017)
(0.1376677 0.01660319 -0.019323482)
(0.14920805 0.016773547 -0.020685792)
(0.16116662 0.016864313 -0.022096931)
(0.1735321 0.016858699 -0.023572523)
(0.18627016 0.016768244 -0.025108076)
(0.19934676 0.016589241 -0.026703902)
(0.21273629 0.016323612 -0.028356822)
(0.22639884 0.015979384 -0.03007004)
(0.24030552 0.01556437 -0.031837846)
(0.25441472 0.015069713 -0.033652613)
(0.26870353 0.014526196 -0.035518576)
(0.28311885 0.013916107 -0.037417888)
(0.29765269 0.013267135 -0.039354552)
(0.31224942 0.012573376 -0.041313596)
(0.32690634 0.011847135 -0.043291403)
(0.34156672 0.011098683 -0.045279737)
(0.35623294 0.010319988 -0.047265786)
(0.37086346 0.0095331903 -0.049251191)
(0.3854444 0.008727001 -0.051224016)
(0.3999826 0.0078900434 -0.053185076)
(-0.00075803223 0.00025246359 0.0003983095)
(-0.0007835148 0.00033242333 0.00035242422)
(-0.000324487 0.00050007878 0.00021871716)
(0.00033114495 0.00072026254 2.0896578e-05)
(0.0015245097 0.00088480732 -0.00030933543)
(0.0028180063 0.0011018316 -0.0006222362)
(0.0046786541 0.0013434833 -0.0010995883)
(0.0066695142 0.0015564213 -0.0015969104)
(0.009205593 0.0018632089 -0.0021541542)
(0.011895374 0.0020872772 -0.0027405839)
(0.015136198 0.0024128272 -0.0034298914)
(0.018599158 0.0027104019 -0.0041237573)
(0.022555033 0.003008463 -0.0048606246)
(0.026853979 0.003352986 -0.0056662187)
(0.031625824 0.0036578243 -0.0064743225)
(0.036793364 0.0040115232 -0.0073333305)
(0.042444264 0.0043150746 -0.0082288403)
(0.048538781 0.0046496568 -0.0091402806)
(0.0551285 0.0049272472 -0.010092896)
(0.062198117 0.0052153806 -0.011062739)
(0.069774241 0.0054461011 -0.012068479)
(0.077848952 0.0056590355 -0.013096949)
(0.086441338 0.0058074761 -0.014161394)
(0.095543493 0.0059235089 -0.01525898)
(0.10515334 0.0059699144 -0.01639909)
(0.1152658 0.0059612254 -0.017575686)
(0.12585888 0.0058832826 -0.018796011)
(0.13693983 0.0057407013 -0.020073438)
(0.14845293 0.0055281564 -0.021387815)
(0.16040291 0.0052451702 -0.022760077)
(0.17275385 0.0048938002 -0.024190709)
(0.18547795 0.0044767991 -0.025673646)
(0.19854379 0.0039944178 -0.027214399)
(0.21192309 0.0034522918 -0.028813854)
(0.22557488 0.002859571 -0.030469185)
(0.23947223 0.0022118595 -0.032176628)
(0.25357631 0.0015263172 -0.033935622)
(0.26785382 0.00080237512 -0.035742918)
(0.28227296 4.8971195e-05 -0.037588118)
(0.29679682 -0.0007240736 -0.039472847)
(0.31139605 -0.0015237752 -0.041379513)
(0.326044 -0.0023276773 -0.043315176)
(0.34070764 -0.0031474617 -0.04525756)
(0.35537319 -0.0039709338 -0.047213801)
(0.37000963 -0.0047965599 -0.049168609)
(0.38460094 -0.0056314836 -0.051118242)
(0.39914748 -0.0064794131 -0.053065433)
(-0.00077868418 -8.9761601e-05 -1.427921e-05)
(-0.00081940613 -0.00019281144 -0.00026469919)
(-0.0003560936 -0.00039146293 -0.00031709278)
(0.00033142936 -0.00039892897 -0.00069785036)
(0.0014303046 -0.00067245188 -0.00086730483)
(0.0028270447 -0.00064923358 -0.0013893314)
(0.0045675065 -0.00086692051 -0.0017420253)
(0.0066640338 -0.00088949539 -0.0023244541)
(0.009051355 -0.0010426274 -0.0028262549)
(0.011843879 -0.0010982583 -0.0034976064)
(0.014959951 -0.0012002758 -0.0041475589)
(0.018467516 -0.0012739545 -0.0048607127)
(0.022379564 -0.001383933 -0.0056479247)
(0.026678814 -0.001428037 -0.0064493535)
(0.031406374 -0.0015599176 -0.0072805127)
(0.036564878 -0.0016047162 -0.0081629667)
(0.042179131 -0.0017475163 -0.009061298)
(0.048260998 -0.0018405154 -0.0099944584)
(0.054813291 -0.0020061036 -0.010951589)
(0.06187331 -0.0021719939 -0.011927629)
(0.06942276 -0.002375066 -0.01294818)
(0.077510324 -0.0026268649 -0.013962112)
(0.086069233 -0.002915175 -0.015038101)
(0.095160557 -0.0032419906 -0.016119654)
(0.10475082 -0.0036270489 -0.017251649)
(0.11483591 -0.0040519117 -0.018397162)
(0.12540932 -0.0045411292 -0.019598542)
(0.13644931 -0.005073828 -0.020824979)
(0.1479408 -0.0056690255 -0.022104432)
(0.15986198 -0.0063102467 -0.023433304)
(0.17218469 -0.0070003936 -0.024812007)
(0.18488201 -0.0077413145 -0.02623981)
(0.19792203 -0.0085160872 -0.027729968)
(0.21127506 -0.0093332994 -0.029269027)
(0.22490254 -0.010177323 -0.030866384)
(0.23877741 -0.011046461 -0.03251532)
(0.25285571 -0.011936088 -0.034216405)
(0.2671127 -0.012834538 -0.03596365)
(0.28150141 -0.013743892 -0.037755448)
(0.29601413 -0.014656562 -0.039583032)
(0.31059608 -0.015561748 -0.041449127)
(0.32523519 -0.016464181 -0.043331667)
(0.33989056 -0.017351792 -0.04524542)
(0.35455017 -0.018237608 -0.047159049)
(0.36918484 -0.019103071 -0.049091301)
(0.38377342 -0.019969002 -0.051012439)
(0.39832389 -0.020827296 -0.05294096)
(-0.00079829367 -0.00042153745 -0.00046438883)
(-0.00073101435 -0.0007577532 -0.00064954902)
(-0.00028128846 -0.0012314103 -0.00089504777)
(0.00036215599 -0.0016341443 -0.001137963)
(0.0015554207 -0.0021045424 -0.0015213614)
(0.0028396461 -0.0025456326 -0.0019075796)
(0.0046911834 -0.0029646643 -0.0024017857)
(0.0066257919 -0.0034696721 -0.0029001927)
(0.0091416024 -0.0038574722 -0.0035266857)
(0.011824132 -0.0043702119 -0.0041573154)
(0.015008765 -0.0047946073 -0.0048598041)
(0.018454582 -0.0052918397 -0.0056166636)
(0.022367822 -0.0057350739 -0.006402499)
(0.026631198 -0.0062343829 -0.0072130986)
(0.031350077 -0.0067403045 -0.0080801325)
(0.036479972 -0.0072333791 -0.0089633047)
(0.042084717 -0.0077971261 -0.009891014)
(0.048127899 -0.0083198669 -0.010822974)
(0.054680674 -0.0089392746 -0.01179502)
(0.061691698 -0.0095263822 -0.012775684)
(0.069239139 -0.010188548 -0.013787634)
(0.077230314 -0.010885801 -0.014793757)
(0.085767253 -0.011593163 -0.015855857)
(0.094820492 -0.012375425 -0.016919896)
(0.10436988 -0.013182426 -0.018013034)
(0.11443041 -0.014045248 -0.019138705)
(0.12497418 -0.01493989 -0.020304129)
(0.13599194 -0.015875919 -0.021499266)
(0.14745757 -0.016852548 -0.022745122)
(0.15935132 -0.017855711 -0.024027602)
(0.17164973 -0.018894315 -0.025360462)
(0.18431878 -0.019955562 -0.026742115)
(0.19733505 -0.021030832 -0.028180365)
(0.21066117 -0.022128606 -0.029664299)
(0.22426486 -0.02322054 -0.031210811)
(0.23811344 -0.024321384 -0.032805137)
(0.25217367 -0.025410986 -0.034453078)
(0.26640505 -0.026490642 -0.03615242)
(0.28078877 -0.027554402 -0.037897932)
(0.29528239 -0.028590958 -0.039681496)
(0.3098482 -0.029612162 -0.04149335)
(0.32446535 -0.030598415 -0.043347541)
(0.33910944 -0.031564584 -0.04521509)
(0.35375262 -0.032501254 -0.047104968)
(0.36837665 -0.033410575 -0.049005865)
(0.38296186 -0.034301346 -0.050906172)
(0.39750487 -0.035168727 -0.052812837)
(-0.00059505938 -0.00071012403 -0.00085107774)
(-0.00042111923 -0.0012802747 -0.001200546)
(-6.9828382e-06 -0.0021372459 -0.0013602879)
(0.00071741315 -0.0027258096 -0.0018302044)
(0.001813767 -0.0036453158 -0.0020619332)
(0.0031940375 -0.0042641532 -0.002610322)
(0.0049298746 -0.0051716751 -0.003002627)
(0.0069913952 -0.0058854615 -0.003619741)
(0.0093979371 -0.0067332027 -0.0042013891)
(0.012142349 -0.0075414215 -0.0048534178)
(0.015247283 -0.0083807259 -0.0055792963)
(0.018725344 -0.0092256807 -0.0063413458)
(0.022605705 -0.010124436 -0.0071459722)
(0.026860617 -0.010995745 -0.0079932447)
(0.031564705 -0.011943419 -0.0088712295)
(0.036673041 -0.012860391 -0.0097811085)
(0.042257046 -0.013862304 -0.010713238)
(0.04828823 -0.014838847 -0.011665862)
(0.054806021 -0.015902302 -0.012650619)
(0.061808127 -0.016946815 -0.013628542)
(0.069308959 -0.018089568 -0.014654049)
(0.077324961 -0.019181315 -0.01564671)
(0.08584949 -0.020373719 -0.016735783)
(0.094860016 -0.02161804 -0.017748227)
(0.10439665 -0.022898496 -0.018857005)
(0.11441085 -0.024173297 -0.019953432)
(0.12491946 -0.02549718 -0.02108474)
(0.13589 -0.026832746 -0.022241552)
(0.1473086 -0.028189728 -0.023442751)
(0.15915587 -0.029561287 -0.024675909)
(0.17140368 -0.030940203 -0.025959689)
(0.18402587 -0.032323627 -0.027284051)
(0.19699116 -0.033697019 -0.028665123)
(0.21026711 -0.035063719 -0.030090365)
(0.22382112 -0.036402187 -0.031580433)
(0.2376244 -0.037722823 -0.033112393)
(0.25163125 -0.039004873 -0.034706152)
(0.26582429 -0.040256064 -0.036342938)
(0.28015608 -0.041459497 -0.038034565)
(0.29460294 -0.042627179 -0.039757535)
(0.30913646 -0.043733213 -0.041541648)
(0.3237277 -0.044806628 -0.043342505)
(0.33834569 -0.045828538 -0.045182378)
(0.35296879 -0.046816234 -0.047036053)
(0.36757904 -0.047755519 -0.048915402)
(0.38215203 -0.048670184 -0.050794449)
(0.39668317 -0.049545671 -0.052683973)
(-0.00030710854 -0.0010753701 -0.0012062834)
(-5.116697e-05 -0.0019046286 -0.0014922971)
(0.00034459716 -0.0029178633 -0.0018969555)
(0.0010632916 -0.0039382402 -0.002231757)
(0.0021874797 -0.005000718 -0.0026296398)
(0.003511977 -0.0060937253 -0.0031006529)
(0.0053160764 -0.0072137584 -0.0035790602)
(0.0073017533 -0.0083662749 -0.0041882819)
(0.0097545077 -0.00950495 -0.0047862653)
(0.012448324 -0.010736057 -0.0054828247)
(0.015577114 -0.011884435 -0.0062371635)
(0.019043145 -0.013189035 -0.0070055244)
(0.02290655 -0.014421806 -0.0078505065)
(0.027154443 -0.015741665 -0.0087172399)
(0.031845756 -0.017075092 -0.0096040696)
(0.036931816 -0.018445102 -0.010547584)
(0.042511345 -0.019856477 -0.011479715)
(0.048504096 -0.021301396 -0.012469487)
(0.055020633 -0.022786172 -0.013433487)
(0.061982977 -0.024322645 -0.014444456)
(0.069471206 -0.025872658 -0.015444426)
(0.077432795 -0.027495282 -0.016465159)
(0.085940667 -0.029123978 -0.017496351)
(0.09491856 -0.030810045 -0.018538134)
(0.10441459 -0.03251162 -0.019604733)
(0.11438271 -0.034239357 -0.020669373)
(0.1248401 -0.035981883 -0.021768555)
(0.13577612 -0.037725592 -0.022894192)
(0.1471489 -0.039473609 -0.02405382)
(0.15895585 -0.041219652 -0.02524678)
(0.17115817 -0.042954514 -0.026477759)
(0.18373275 -0.044666618 -0.027755464)
(0.1966522 -0.04634942 -0.029080815)
(0.20987821 -0.047996681 -0.030456018)
(0.22338928 -0.049589837 -0.031889834)
(0.23714034 -0.05114299 -0.033368776)
(0.25110699 -0.052625512 -0.034910787)
(0.26525424 -0.054050576 -0.036502939)
(0.27954853 -0.055407107 -0.038143729)
(0.29395368 -0.056692743 -0.039836152)
(0.30845705 -0.057913113 -0.04156616)
(0.32301424 -0.059061159 -0.043337463)
(0.33760747 -0.06015169 -0.045139555)
(0.35220719 -0.061176998 -0.046971491)
(0.36679736 -0.062151057 -0.048823982)
(0.38135333 -0.063080562 -0.050688157)
(0.3958628 -0.063965967 -0.052565023)
(0 -1.770055e-19 0)
(0 9.929038e-19 0)
(0 8.5797979e-19 0)
(0 7.5715212e-19 -2.5954194e-19)
(0 2.9911514e-19 0)
(0 -1.0505349e-20 0)
(0 1.4540205e-19 0)
(0 5.4290625e-20 0)
(0 -3.527614e-19 0)
(0 -8.6966281e-19 0)
(0 -1.0803857e-18 -1.7939364e-19)
(0 -1.7711946e-19 0)
(0 2.1817905e-19 0)
(0 4.2142834e-19 0)
(0 3.4887203e-19 0)
(0 5.4952174e-19 0)
(0 1.0036302e-18 0)
(0 1.0040717e-18 5.0575306e-19)
(0 8.6716718e-19 0)
(0 1.0097219e-18 0)
(0 3.4192139e-19 0)
(-6.0837459e-18 2.8660298e-19 0)
(2.6009659e-18 -6.5133642e-19 0)
(-1.5101573e-19 -2.6129118e-19 0)
(4.6823003e-19 -4.597262e-19 -3.4887067e-19)
(-8.7563101e-19 -6.4258842e-19 0)
(-2.2411974e-18 -9.185529e-19 0)
(3.4251759e-19 -7.5845136e-19 0)
(0 5.8048345e-19 0)
(0 2.0778396e-19 0)
(0 -4.0294618e-19 0)
(0 3.9282083e-20 1.0279952e-18)
(0 4.4308259e-19 0)
(0 6.4532901e-19 0)
(0 -1.7929324e-19 0)
(0 -4.6929208e-19 0)
(0 -3.8366761e-19 0)
(0 9.0245483e-20 0)
(0 4.5027548e-19 -1.0260279e-19)
(0 3.3315255e-19 0)
(0 -1.2074718e-19 0)
(0 3.1175453e-19 0)
(0 5.639565e-20 0)
(0 -3.3200992e-19 0)
(0 4.8607563e-19 0)
(0 3.0953522e-20 3.5580175e-19)
(0 4.8156915e-19 0)
(0 7.6157332e-19 0)
(0 6.8972712e-19 0)
(0.00054959755 -0.00040737038 -0.00076296861)
(0.00058572028 -0.00045810628 -0.00042343509)
(0.00063643073 -0.00044040454 -0.00015976472)
(0.00059680594 -0.00043911247 5.9372457e-05)
(0.00050758426 -0.00035823154 0.00025283654)
(0.00038024727 -0.00031910856 0.00044037617)
(0.00017327146 -0.00015466634 0.00061051064)
(0.00087677451 -0.0020627184 -0.0014549414)
(0.0010959634 -0.0020106329 -0.00083641911)
(0.0011229661 -0.0017766344 -0.00035685072)
(0.001035632 -0.0016080285 -5.2140496e-05)
(0.00095040441 -0.0015557653 0.00027858784)
(0.0006768186 -0.0013999272 0.00060564424)
(0.00040283819 -0.0012392832 0.00099714404)
(0.0012491625 -0.0031694378 -0.001689916)
(0.0014579694 -0.0029260502 -0.0011715874)
(0.0015870651 -0.0027766407 -0.00066572356)
(0.0015271887 -0.0025988722 -0.0001941394)
(0.0013937306 -0.002391291 0.0002228879)
(0.0011016461 -0.0022596567 0.00056919725)
(0.0007624943 -0.0020627926 0.0010451282)
(0.0020809704 -0.0045413082 -0.002169084)
(0.0023848957 -0.0042955249 -0.0015969862)
(0.0024667921 -0.0039960285 -0.0010004462)
(0.0024598481 -0.0037446928 -0.00051732303)
(0.002282695 -0.0035336262 -4.7256325e-05)
(0.0020303016 -0.0032677765 0.000426234)
(0.0015623706 -0.0030443738 0.00086278666)
(0.0032255557 -0.0059496422 -0.0025003439)
(0.0034778499 -0.0055640697 -0.0019122339)
(0.0036358718 -0.0052854828 -0.0013567579)
(0.0036107197 -0.004970394 -0.00083398335)
(0.0034798491 -0.0046516595 -0.00030715761)
(0.0031551378 -0.0043773406 0.00011704059)
(0.0027570079 -0.0040448932 0.00062777943)
(0.0046090655 -0.0072199691 -0.0030321674)
(0.0049007582 -0.0068131131 -0.0024134838)
(0.005036589 -0.0064070357 -0.0018209586)
(0.0050526789 -0.0060403059 -0.0012584982)
(0.0048819358 -0.0057034009 -0.00074189686)
(0.0046208864 -0.0053019436 -0.00021421695)
(0.0041483625 -0.0049686886 0.00023574236)
(0.0064116814 -0.0087300663 -0.0034952448)
(0.0067274839 -0.0083100134 -0.0028966578)
(0.0069297013 -0.0078528547 -0.002285483)
(0.006918168 -0.007482401 -0.0017565532)
(0.0068075978 -0.0070235695 -0.0011958103)
(0.0064920444 -0.0066334929 -0.00070529519)
(0.0060508745 -0.0061179995 -0.00017752153)
(0.0084586023 -0.010046629 -0.0041323571)
(0.0087677602 -0.0094929377 -0.0034697424)
(0.0089206828 -0.0089725766 -0.0028786171)
(0.0089922197 -0.008496642 -0.002277416)
(0.0088189231 -0.0080482699 -0.00171376)
(0.0085578871 -0.0075417567 -0.0011947266)
(0.0081125552 -0.0070921863 -0.00070190074)
(0.01089842 -0.011585776 -0.004722724)
(0.011270163 -0.011073081 -0.00411145)
(0.011526994 -0.01060189 -0.0034899063)
(0.011529683 -0.010010612 -0.0028812638)
(0.011443041 -0.0094771114 -0.0023237449)
(0.011122562 -0.0089187461 -0.001769465)
(0.010683447 -0.0083058784 -0.0012118892)
(0.01367286 -0.013043141 -0.0054618992)
(0.014015091 -0.01234526 -0.0047897201)
(0.014210461 -0.011733288 -0.0041255596)
(0.014280585 -0.011167435 -0.0035571174)
(0.014123283 -0.010581248 -0.002929885)
(0.01386908 -0.0099880471 -0.0023881299)
(0.01341084 -0.0094419003 -0.0018544481)
(0.01678283 -0.014592993 -0.0061986466)
(0.017199507 -0.013986247 -0.0055313112)
(0.017486993 -0.013394691 -0.0049112084)
(0.017539107 -0.01277609 -0.004248048)
(0.017478869 -0.012130003 -0.0036272878)
(0.01717287 -0.011495645 -0.0030837697)
(0.016749281 -0.01078426 -0.0024331304)
(0.020326099 -0.016200439 -0.0070001188)
(0.020719492 -0.015458975 -0.0063002428)
(0.020934697 -0.014719806 -0.0056218365)
(0.021012527 -0.013986586 -0.0049546471)
(0.020881272 -0.013306117 -0.0043643453)
(0.020588639 -0.012592559 -0.0037475087)
(0.020169965 -0.011936184 -0.0031349775)
(0.024200373 -0.017809983 -0.0078560092)
(0.024636077 -0.017080543 -0.0071510022)
(0.024955055 -0.016412041 -0.0064637735)
(0.025048775 -0.01573305 -0.0058019305)
(0.024959386 -0.015007245 -0.0051009537)
(0.024700635 -0.014307182 -0.0045254803)
(0.024238063 -0.013487094 -0.0038422811)
(0.028489431 -0.019511725 -0.0087209688)
(0.028912534 -0.01870292 -0.0079744737)
(0.029217203 -0.017915818 -0.0072852029)
(0.029254517 -0.017060131 -0.0065584527)
(0.029207485 -0.016307768 -0.005932129)
(0.028869337 -0.015464605 -0.0052905034)
(0.028466542 -0.014728572 -0.0046228997)
(0.033190432 -0.021247743 -0.0096292817)
(0.033665754 -0.020442751 -0.0089064469)
(0.033983468 -0.019640081 -0.0081648018)
(0.034127833 -0.01890518 -0.0074783136)
(0.034022189 -0.018077422 -0.0067536909)
(0.033786772 -0.017321331 -0.0061119064)
(0.033316298 -0.016413472 -0.0053867423)
(0.038318806 -0.023048349 -0.010576383)
(0.03875914 -0.022155629 -0.0097879819)
(0.039147366 -0.021348805 -0.009069172)
(0.039172065 -0.02040475 -0.0083040099)
(0.039163926 -0.019585346 -0.0076138307)
(0.038817446 -0.018638319 -0.0069457842)
(0.038404825 -0.017825086 -0.0062337472)
(0.043877475 -0.024892931 -0.011510515)
(0.044413238 -0.024045027 -0.010756745)
(0.044722335 -0.023125162 -0.0099863805)
(0.044892074 -0.022310754 -0.0092464061)
(0.044789809 -0.021388753 -0.0085154883)
(0.044547218 -0.020569246 -0.0078262239)
(0.044073119 -0.01958348 -0.0070620879)
(0.04992876 -0.026817793 -0.01250435)
(0.050372404 -0.025841233 -0.011694637)
(0.050807675 -0.024987379 -0.010926931)
(0.050846142 -0.023990324 -0.010151308)
(0.050846606 -0.023106291 -0.0094074028)
(0.050508035 -0.022088836 -0.008708219)
(0.050083545 -0.021191075 -0.0079527167)
(0.056386012 -0.028755519 -0.013467143)
(0.056956828 -0.027857356 -0.01266927)
(0.05727978 -0.026869959 -0.011896014)
(0.057450009 -0.025968721 -0.011105051)
(0.057365333 -0.024966109 -0.010360055)
(0.057103798 -0.024059301 -0.009641017)
(0.056633308 -0.023018705 -0.0088509543)
(0.063395671 -0.030792581 -0.014475256)
(0.063861108 -0.029768072 -0.01366171)