/*--------------------------------*- C++ -*----------------------------------*\
  =========                 |
  \\      /  F ield         | OpenFOAM: The Open Source CFD Toolbox
   \\    /   O peration     | Website:  https://openfoam.org
    \\  /    A nd           | Version:  6
     \\/     M anipulation  |
\*---------------------------------------------------------------------------*/
FoamFile
{
    version     2.0;
    format      ascii;
    class       pointVectorField;
    location    "1.73";
    object      u;
}
// * * * * * * * * * * * * * * * * * * * * * * * * * * * * * * * * * * * * * //

dimensions      [0 1 0 0 0 0 0];

internalField   nonuniform List<vector> 
28033
(
(0 0 0)
(0 0 0)
(0.040441965 0.014548533 -0.0016304547)
(0.039879381 -0.018798794 -0.0012791224)
(0 0 0)
(0 0 0)
(0.039372039 -0.017633627 -0.0011559977)
(0.039976868 0.015660787 -0.0018113427)
(0 0 0)
(0 0 0)
(0 0 0)
(0 0 0)
(0 0 0)
(0 0 0)
(0 0 0)
(0 0 0)
(0 0 0)
(0 0 0)
(0 0 0)
(0 0 0)
(0 0 0)
(0 0 0)
(0 0 0)
(0.040326434 0.01189499 -0.0018559171)
(0.040114137 0.0096569954 -0.0018257536)
(0.039901445 0.0075505139 -0.0018458829)
(0.039766319 0.0055186335 -0.0017871679)
(0.039641818 0.0035596235 -0.0017326098)
(0.03953833 0.0016497399 -0.0016546629)
(0.039473116 -0.00023165933 -0.0015683567)
(0.039428748 -0.0020970848 -0.0014690726)
(0.039412904 -0.0039605934 -0.0013801982)
(0.039420449 -0.0058505009 -0.0012823931)
(0.039454903 -0.0077553795 -0.0012076314)
(0.039506325 -0.0097310994 -0.0011533115)
(0.039598959 -0.011752566 -0.0011127649)
(0.039669588 -0.01389525 -0.0010895716)
(0.039828128 -0.016159388 -0.0011457588)
(-0.00033538496 -0.00057085809 -0.00056942683)
(-0.00043148367 -0.00084281845 -0.00078120304)
(-0.00059625072 -0.0010753452 -0.00091167411)
(-0.00078614334 -0.0013818628 -0.00099100638)
(-0.0010411942 -0.0016121126 -0.0010249234)
(-0.0013144421 -0.0019088394 -0.0010340886)
(-0.0016532342 -0.002137955 -0.0010247453)
(-0.0020134839 -0.0024203446 -0.00099499377)
(-0.002427053 -0.0026347368 -0.00096260025)
(-0.0028625744 -0.0028920247 -0.00091056031)
(-0.0033484053 -0.0030908509 -0.00085983117)
(-0.0038525615 -0.0033151928 -0.00079613742)
(-0.0043989806 -0.0034899309 -0.0007304)
(-0.0049586824 -0.0036761111 -0.00065784688)
(-0.0055622958 -0.0038238306 -0.00057594722)
(-0.0061711198 -0.0039717041 -0.00049739163)
(-0.0068136151 -0.0040805223 -0.00040413552)
(-0.0074662373 -0.0041920683 -0.00031286153)
(-0.0081401507 -0.004262074 -0.00020990921)
(-0.0088177038 -0.0043282948 -0.00010996479)
(-0.00951303 -0.0043607956 3.0690957e-06)
(-0.010205059 -0.0043840082 0.00011157818)
(-0.010903973 -0.0043744374 0.00023070058)
(-0.011599493 -0.0043566076 0.00034871371)
(-0.012287254 -0.0043042575 0.00047086004)
(-0.012967302 -0.0042456271 0.00059268308)
(-0.013632866 -0.0041556595 0.00071627706)
(-0.014283779 -0.0040557404 0.00084003472)
(-0.014909547 -0.0039296604 0.00096063015)
(-0.015516512 -0.0037939214 0.0010815309)
(-0.016090845 -0.0036342249 0.0011972324)
(-0.016637895 -0.0034650913 0.0013097269)
(-0.017150851 -0.0032788238 0.0014184689)
(-0.017628087 -0.0030830138 0.0015208436)
(-0.018067474 -0.0028718888 0.0016182999)
(-0.018467109 -0.0026530816 0.001706273)
(-0.018825202 -0.0024250537 0.0017893868)
(-0.01913965 -0.0021873912 0.00186437)
(-0.019411486 -0.0019476193 0.0019300001)
(-0.01963719 -0.0016979453 0.0019871346)
(-0.01981918 -0.0014469149 0.0020372462)
(-0.019956603 -0.001191954 0.0020774971)
(-0.02004816 -0.00093388799 0.0021094478)
(-0.020095201 -0.00067376029 0.0021327629)
(-0.020099407 -0.00041326357 0.0021486282)
(-0.020059167 -0.00015086586 0.0021559444)
(-0.019978053 0.00011252708 0.0021568094)
(-0.019854335 0.00037600693 0.0021503042)
(-0.019691751 0.00064179136 0.0021381782)
(-0.019488294 0.00090767894 0.0021205285)
(-0.019247879 0.0011768796 0.0020980215)
(-0.018968355 0.0014465792 0.0020719222)
(-0.018653002 0.001721635 0.002042138)
(-0.018299917 0.0019975135 0.0020102643)
(-0.017911183 0.0022807733 0.0019758418)
(-0.017485487 0.002566216 0.0019408875)
(-0.017023252 0.0028596964 0.0019040826)
(-0.016523702 0.0031578742 0.0018677702)
(-0.015986014 0.003464088 0.0018304469)
(-0.015409566 0.0037763626 0.0017940588)
(-0.014792449 0.0040979568 0.0017566379)
(-0.014134037 0.004425323 0.0017208314)
(-0.01343251 0.0047627614 0.0016836591)
(-0.012685639 0.0051053853 0.0016476301)
(-0.011892738 0.0054587605 0.0016100202)
(-0.011051858 0.005816317 0.0015734494)
(-0.010159281 0.0061823558 0.0015331896)
(-0.0092180382 0.0065530044 0.0014946412)
(-0.0082200752 0.0069292732 0.0014518001)
(-0.0071725002 0.007310041 0.0014092232)
(-0.0060625323 0.0076948958 0.0013609598)
(-0.0049025308 0.0080771636 0.0013145488)
(-0.0036766047 0.0084707451 0.0012565932)
(-0.0023974076 0.0088464542 0.0012044951)
(-0.0010555164 0.0092478608 0.0011353789)
(0.00034968678 0.0096085361 0.0010771103)
(0.0018067364 0.010013736 0.00099394329)
(0.0033410486 0.010354896 0.00092746891)
(0.0049134953 0.010753201 0.00083095004)
(0.0065734164 0.011078394 0.00075252072)
(0.008266385 0.011452765 0.00064287618)
(0.010040085 0.0117646 0.00055223364)
(0.011857778 0.012105111 0.00042843418)
(0.013737709 0.012395292 0.0003234315)
(0.015670991 0.012696498 0.00019088665)
(0.017653971 0.012967117 6.5686166e-05)
(0.01969779 0.013213114 -7.4681226e-05)
(0.021774208 0.013449083 -0.00021052308)
(0.02391319 0.013657522 -0.00037006658)
(0.026076229 0.013849239 -0.000513546)
(0.028300731 0.013987801 -0.00066430526)
(0.030538583 0.014198408 -0.00084987856)
(0.032836587 0.014260662 -0.00095823076)
(0.035196359 0.014435072 -0.0011527262)
(0.037553808 0.014568401 -0.0012626413)
(-0.00017557725 0.00051547308 0.00065267384)
(-0.00039488461 0.00073431391 0.00067853369)
(-0.00056272161 0.0010496926 0.00085846342)
(-0.00072699368 0.0012446249 0.00091227277)
(-0.0010003375 0.0015463541 0.00094403263)
(-0.0012770922 0.0017809172 0.00096981487)
(-0.0016111207 0.0020440433 0.00095936957)
(-0.0019793068 0.0022735914 0.00095730089)
(-0.0023980655 0.0025202546 0.00092641646)
(-0.0028424306 0.0027281287 0.00090860856)
(-0.0033296082 0.0029485565 0.00086993149)
(-0.0038466546 0.0031345376 0.00084067099)
(-0.0043924808 0.0033208396 0.00080046472)
(-0.0049688107 0.0034789139 0.00076427433)
(-0.0055671026 0.0036315063 0.00072310735)
(-0.0061915976 0.0037542162 0.00068395411)
(-0.0068320624 0.0038708888 0.00064290528)
(-0.007491383 0.0039546388 0.00060375917)
(-0.008164333 0.0040314848 0.00056398018)
(-0.0088432431 0.0040731909 0.00052689349)
(-0.009534435 0.0041074533 0.00049056021)
(-0.010222839 0.0041052632 0.00045665568)
(-0.010918643 0.0040961671 0.00042448204)
(-0.011602349 0.0040499891 0.00039582783)
(-0.012289269 0.0039946489 0.00036954558)
(-0.012950578 0.0039034199 0.00034881897)
(-0.013610227 0.0038006344 0.00032783995)
(-0.014239747 0.0036683652 0.00031489644)
(-0.014856532 0.0035190367 0.00030185482)
(-0.015440911 0.0033476331 0.00029636565)
(-0.016002305 0.0031550228 0.00029194311)
(-0.016528962 0.0029474839 0.00029319664)
(-0.01702417 0.0027162191 0.00029719007)
(-0.017483404 0.0024750327 0.00030508728)
(-0.017902257 0.0022113434 0.0003161781)
(-0.018286895 0.0019409431 0.00032898415)
(-0.018623583 0.0016503011 0.00034678062)
(-0.018923775 0.0013550203 0.00036287329)
(-0.019177101 0.0010448395 0.00038278243)
(-0.019391674 0.0007300731 0.00040114806)
(-0.01955795 0.0004047721 0.00042086735)
(-0.019686578 7.6439631e-05 0.00043788325)
(-0.019767219 -0.00025900649 0.00045465358)
(-0.019810413 -0.00059624969 0.00046720776)
(-0.019808552 -0.00093742531 0.00047761744)
(-0.019768866 -0.0012797993 0.00048290685)
(-0.019687949 -0.0016233725 0.00048388198)
(-0.019569616 -0.0019677889 0.00047902871)
(-0.019412781 -0.0023122515 0.00046836235)
(-0.019220071 -0.0026565983 0.00045103562)
(-0.018990535 -0.0030011522 0.00042714925)
(-0.018726282 -0.0033454924 0.00039609254)
(-0.018426647 -0.0036899324 0.0003581985)
(-0.018092182 -0.0040351418 0.0003133477)
(-0.017722936 -0.0043810638 0.00026173551)
(-0.017318514 -0.0047282485 0.00020387709)
(-0.016877899 -0.0050777606 0.00014011279)
(-0.016401129 -0.0054293983 7.1059094e-05)
(-0.015886563 -0.0057841274 -2.7665227e-06)
(-0.015332711 -0.0061428718 -8.0172626e-05)
(-0.014739156 -0.0065051775 -0.00016124663)
(-0.014103191 -0.0068725785 -0.00024410199)
(-0.013423887 -0.0072446023 -0.000329065)
(-0.012699069 -0.0076223517 -0.00041425452)
(-0.011927595 -0.0080047448 -0.00050012811)
(-0.011106327 -0.0083940664 -0.00058444497)
(-0.010235236 -0.0087872144 -0.00066837051)
(-0.0093117841 -0.0091869928 -0.00074949422)
(-0.0083352979 -0.0095907723 -0.00083075304)
(-0.0073035686 -0.0099982085 -0.00090410139)
(-0.006212363 -0.010413639 -0.00097811366)
(-0.0050685189 -0.01082751 -0.0010475935)
(-0.0038613846 -0.011247957 -0.0011131543)
(-0.0025992539 -0.011666988 -0.00117557)
(-0.0012724085 -0.012089633 -0.0012318124)
(0.00011010768 -0.012508894 -0.0012869709)
(0.0015571381 -0.012929436 -0.0013340569)
(0.0030623543 -0.013344356 -0.0013802199)
(0.0046295974 -0.013757529 -0.0014191599)
(0.0062560815 -0.014162445 -0.0014553653)
(0.0079426409 -0.014562305 -0.0014858549)
(0.0096885509 -0.014951528 -0.0015118854)
(0.011490046 -0.01533119 -0.0015337179)
(0.01335199 -0.015698536 -0.0015490413)
(0.01526289 -0.016050421 -0.0015628837)
(0.017233745 -0.016390135 -0.0015673205)
(0.019248279 -0.016707569 -0.0015718576)
(0.021317615 -0.017010648 -0.0015689321)
(0.023427631 -0.017292163 -0.0015619186)
(0.025587557 -0.017552556 -0.0015514016)
(0.027780135 -0.017790564 -0.0015381163)
(0.030027452 -0.018014304 -0.001519991)
(0.032305026 -0.018223553 -0.0014885984)
(0.034662912 -0.018398573 -0.0014773591)
(0.037096701 -0.018636094 -0.0014058615)
(0 0 0)
(0 0 0)
(0 0 0)
(0 0 0)
(0 0 0)
(0 0 0)
(0 0 0)
(0 0 0)
(0 0 0)
(0 0 0)
(0 0 0)
(0 0 0)
(0 0 0)
(0 0 0)
(0 0 0)
(-0.00029536475 0.0002149547 -0.00046000601)
(-0.00041947508 0.00080993277 -0.00065909803)
(-0.00052352536 0.00086360226 -0.00072689949)
(-0.00076316276 0.0012310795 -0.00081732974)
(-0.0010025406 0.0014289611 -0.00081888241)
(-0.0013038792 0.0016610208 -0.00080757282)
(-0.0016503141 0.0019111036 -0.00077146784)
(-0.0020372787 0.0021173333 -0.00073888219)
(-0.0024613716 0.0023391891 -0.00067103678)
(-0.0029233992 0.0025295668 -0.00062080146)
(-0.00342032 0.0027252094 -0.00054600598)
(-0.0039469479 0.0028854415 -0.0004782504)
(-0.0045050221 0.0030474378 -0.00039160787)
(-0.0050918415 0.003182201 -0.00031558547)
(-0.0056982687 0.0032995864 -0.00021585369)
(-0.0063390464 0.0034070034 -0.00012948896)
(-0.0069838241 0.0034791853 -2.2157003e-05)
(-0.0076618152 0.0035547075 7.5485922e-05)
(-0.0083445233 0.0035831594 0.00019238441)
(-0.0090412387 0.0036144162 0.00030097192)
(-0.0097517554 0.003612987 0.00042406011)
(-0.010452589 0.0035887932 0.00054202028)
(-0.011169246 0.0035592761 0.00067131054)
(-0.011869965 0.0034821083 0.00080073535)
(-0.012579453 0.0034231127 0.00092801184)
(-0.013262212 0.0032987035 0.0010612952)
(-0.013947006 0.0032009302 0.001192837)
(-0.014598235 0.0030444216 0.001324831)
(-0.01524313 0.0029070078 0.0014540482)
(-0.015849986 0.0027193928 0.0015849266)
(-0.016440497 0.002551357 0.0017051255)
(-0.016991036 0.0023343006 0.0018277612)
(-0.017514607 0.0021355004 0.0019401225)
(-0.017996883 0.0018969372 0.0020509078)
(-0.018444479 0.001675942 0.0021514424)
(-0.018852091 0.0014214838 0.0022461508)
(-0.019213915 0.001173921 0.0023339571)
(-0.019535007 0.00091140604 0.002413498)
(-0.01981224 0.00065161578 0.0024820689)
(-0.020043743 0.00037919298 0.0025444431)
(-0.020231282 0.0001102884 0.0025954373)
(-0.020373315 -0.00016656988 0.0026395497)
(-0.020470761 -0.00044104234 0.0026725519)
(-0.020523718 -0.00072021003 0.0026991829)
(-0.02053366 -0.00099700782 0.0027150668)
(-0.020499877 -0.001277435 0.0027252691)
(-0.020425278 -0.0015553606 0.0027261291)
(-0.020309052 -0.0018362475 0.0027218197)
(-0.020153345 -0.0021159107 0.0027099376)
(-0.019958585 -0.0023979055 0.0026938832)
(-0.019726105 -0.002680338 0.0026721579)
(-0.019455876 -0.0029656093 0.0026469138)
(-0.019149463 -0.0032528976 0.0026183248)
(-0.018806537 -0.003543705 0.0025868607)
(-0.018427411 -0.0038389031 0.002553731)
(-0.018012267 -0.0041381123 0.002518616)
(-0.017560535 -0.0044436273 0.0024830166)
(-0.017071513 -0.0047546555 0.0024461102)
(-0.016544936 -0.0050727031 0.002409331)
(-0.015979057 -0.0053978496 0.0023718535)
(-0.015373268 -0.0057306557 0.0023344476)
(-0.014725751 -0.0060713139 0.0022967049)
(-0.014035371 -0.0064199426 0.0022587141)
(-0.013300081 -0.0067768406 0.0022202419)
(-0.012518627 -0.0071412102 0.0021809375)
(-0.011689314 -0.0075138613 0.0021409603)
(-0.01080924 -0.0078940808 0.0020990194)
(-0.0098772496 -0.0082813181 0.0020562546)
(-0.0089016532 -0.0086669126 0.0020106246)
(-0.0078554434 -0.009072965 0.001962516)
(-0.0067651734 -0.009471961 0.001912965)
(-0.0056144141 -0.0098792231 0.0018587518)
(-0.0044058906 -0.010287695 0.0018008105)
(-0.0031389763 -0.010698807 0.0017398696)
(-0.0018124955 -0.011109608 0.0016731987)
(-0.00042548896 -0.011520303 0.0016024798)
(0.0010216109 -0.011929007 0.0015260508)
(0.0025293443 -0.0123341 0.0014443103)
(0.0040981004 -0.012735664 0.0013565352)
(0.0057260604 -0.013129914 0.0012629674)
(0.0074150897 -0.013518324 0.0011623556)
(0.0091619732 -0.013896711 0.0010561713)
(0.010967622 -0.014265533 0.00094245301)
(0.012829324 -0.014622137 0.00082282247)
(0.014747023 -0.014965221 0.00069585239)
(0.016716755 -0.01529418 0.0005639061)
(0.018738495 -0.015604584 0.00042346972)
(0.020809085 -0.015901019 0.00028052665)
(0.02292413 -0.016173022 0.00012860224)
(0.025086652 -0.016432854 -2.3557148e-05)
(0.027284375 -0.016663311 -0.0001857587)
(0.029534784 -0.016889002 -0.00034282811)
(0.031811816 -0.017084725 -0.00051741832)
(0.034185094 -0.017282103 -0.00068149835)
(0.036577713 -0.01751938 -0.00088491285)
(0.039365803 -0.014986195 -0.0013415584)
(0.03922246 -0.012778651 -0.0014662137)
(0.039104974 -0.010594944 -0.0015106333)
(0.039041958 -0.008595437 -0.0015608656)
(0.038974236 -0.0066071078 -0.0015471229)
(0.038946315 -0.0047104512 -0.0015517498)
(0.038933552 -0.002817994 -0.0015134943)
(0.038947603 -0.00095405523 -0.0014900839)
(0.039002438 0.000907836 -0.0014610963)
(0.039058725 0.002787035 -0.0014326173)
(0.039165964 0.0047006794 -0.0014261117)
(0.039286277 0.0066478228 -0.0014303422)
(0.039439518 0.0086710603 -0.0014429574)
(0.039572718 0.010782455 -0.0015036153)
(0.039871771 0.012976986 -0.0015831647)
(0.037142599 0.015691407 -0.0020159755)
(0.034701765 0.015495725 -0.0020267565)
(0.032368821 0.015398272 -0.0020584956)
(0.030074469 0.015266411 -0.0020613421)
(0.027825991 0.015119597 -0.0020818623)
(0.025617032 0.014949789 -0.0020913195)
(0.023449364 0.014756687 -0.0020968513)
(0.021321184 0.014542525 -0.0021024591)
(0.019241955 0.014301507 -0.0020987257)
(0.017206357 0.014044482 -0.0020956855)
(0.015223675 0.013761542 -0.0020834268)
(0.013290422 0.013465128 -0.0020708682)
(0.011411282 0.013147286 -0.0020509323)
(0.0095878146 0.012817315 -0.0020297991)
(0.0078210701 0.012472039 -0.0020018784)
(0.0061132285 0.012115926 -0.0019711263)
(0.0044649207 0.011749395 -0.0019341718)
(0.0028762232 0.01137387 -0.0018942408)
(0.0013477071 0.010992517 -0.0018494742)
(-0.00011922618 0.010603868 -0.0018006652)
(-0.0015267745 0.010213576 -0.0017478876)
(-0.0028720615 0.0098177853 -0.0016907082)
(-0.0041589682 0.0094238202 -0.0016301885)
(-0.005384031 0.009026104 -0.0015650964)
(-0.0065527176 0.0086328002 -0.0014970297)
(-0.007660072 0.0082383505 -0.0014251431)
(-0.0087182907 0.0078513766 -0.0013498345)
(-0.0096995467 0.0074543644 -0.0012664079)
(-0.010649368 0.0070793401 -0.0011883135)
(-0.01153287 0.0066959609 -0.0011032314)
(-0.012369783 0.0063226628 -0.0010183325)
(-0.013155343 0.0059525932 -0.00093132612)
(-0.013892981 0.0055878307 -0.00084393242)
(-0.014584138 0.0052277063 -0.00075699493)
(-0.015230817 0.0048725907 -0.00067090752)
(-0.0158344 0.0045215844 -0.00058672514)
(-0.016396865 0.0041750115 -0.00050526716)
(-0.016919239 0.0038317291 -0.00042716192)
(-0.017403275 0.0034920738 -0.00035336795)
(-0.017849654 0.0031546423 -0.00028443965)
(-0.018259635 0.002819901 -0.00022120074)
(-0.018633384 0.0024863873 -0.00016374971)
(-0.018971801 0.0021546591 -0.00011319363)
(-0.019274427 0.0018232687 -6.8895036e-05)
(-0.019541675 0.0014932121 -3.1995499e-05)
(-0.019772599 0.0011627673 -1.3987284e-06)
(-0.019967277 0.00083378089 2.1846852e-05)
(-0.02012421 0.00050411689 3.9396672e-05)
(-0.020243425 0.00017660621 5.0065319e-05)
(-0.020322952 -0.00015119168 5.6218778e-05)
(-0.020362839 -0.00047574417 5.6556733e-05)
(-0.02036137 -0.0007992063 5.34706e-05)
(-0.020318015 -0.0011180439 4.6475217e-05)
(-0.020231941 -0.0014339485 3.7261555e-05)
(-0.020102902 -0.0017425545 2.5113276e-05)
(-0.01992908 -0.0020466747 1.4228837e-05)
(-0.019712687 -0.0023403368 5.4566042e-07)
(-0.019453118 -0.0026256764 -1.071365e-05)
(-0.019146683 -0.0029026341 -2.092968e-05)
(-0.018801012 -0.003164156 -2.9686207e-05)
(-0.01841588 -0.0034100506 -3.6826608e-05)
(-0.017983412 -0.0036500557 -3.8965553e-05)
(-0.017519319 -0.0038615837 -3.8724172e-05)
(-0.017015842 -0.0040637881 -3.5754112e-05)
(-0.016481153 -0.004242055 -2.6833029e-05)
(-0.015911214 -0.0044079923 -1.5703455e-05)
(-0.015315844 -0.0045414586 3.2754448e-06)
(-0.014693388 -0.0046643716 2.211299e-05)
(-0.014048681 -0.004758278 4.9427966e-05)
(-0.013386888 -0.0048299091 7.6982712e-05)
(-0.012708723 -0.0048819102 0.00011082026)
(-0.012019386 -0.0049057475 0.000150022)
(-0.011324027 -0.0049121204 0.00018935581)
(-0.010618815 -0.0048912856 0.00023576396)
(-0.0099201711 -0.0048447103 0.00028110859)
(-0.0092204628 -0.0047876388 0.0003333854)
(-0.0085279584 -0.0046897118 0.00038247665)
(-0.0078469025 -0.0045945813 0.00044021895)
(-0.0071763752 -0.004452725 0.00049023698)
(-0.0065253955 -0.0043187139 0.00055053084)
(-0.0058929413 -0.0041324571 0.00060127378)
(-0.0052781944 -0.0039728021 0.00066606171)
(-0.0046951186 -0.0037504573 0.00071211204)
(-0.0041367178 -0.0035565393 0.00077351447)
(-0.0036055986 -0.0033019132 0.00081402681)
(-0.0031074707 -0.0030818758 0.00087147113)
(-0.0026486341 -0.0028019905 0.0009066225)
(-0.0022199408 -0.0025640253 0.00095091947)
(-0.0018335123 -0.0022719905 0.00096749562)
(-0.0014826625 -0.0020068837 0.00098899725)
(-0.001182069 -0.001702559 0.00097681869)
(-0.00092975922 -0.0014250052 0.00094515061)
(-0.00070536665 -0.0011476694 0.00088635468)
(-0.00054064584 -0.00083076771 0.00071772818)
(-0.00052539346 -0.00057472595 0.00044491162)
(0 0 0)
(0 0 0)
(0 0 0)
(0 0 0)
(0 0 0)
(0 0 0)
(0 0 0)
(0 0 0)
(0 0 0)
(0 0 0)
(0 0 0)
(0 0 0)
(0 0 0)
(0 0 0)
(0 0 0)
(0 0 0)
(0 0 0)
(0 0 0)
(0 0 0)
(0 0 0)
(0 0 0)
(0 0 0)
(0 0 0)
(0 0 0)
(0 0 0)
(0 0 0)
(0 0 0)
(0 0 0)
(0 0 0)
(0 0 0)
(0.039933823 -0.018858485 -0.0012886732)
(0.039938213 -0.018851218 -0.0012943306)
(0.03992103 -0.018809112 -0.0012981779)
(0.0399114 -0.018766014 -0.0012908684)
(0.039897083 -0.018712521 -0.0012808135)
(0.039880258 -0.018653802 -0.0012582851)
(0.039857733 -0.018589456 -0.0012396827)
(0.039830897 -0.018520224 -0.0012100305)
(0.039799832 -0.018450089 -0.0011889031)
(0.039759611 -0.018372922 -0.0011657292)
(0.03972933 -0.018300832 -0.0011463507)
(0.039673955 -0.018203639 -0.0011360709)
(0.039632324 -0.018116489 -0.0011313317)
(0.039577592 -0.018002319 -0.0011330971)
(0.039532456 -0.017892457 -0.0011479216)
(0.040543834 0.014798148 -0.0016384353)
(0.040540314 0.0148971 -0.0016147891)
(0.040526576 0.015002181 -0.0016298951)
(0.040524374 0.01509962 -0.0016387817)
(0.040500768 0.01517682 -0.0016510793)
(0.040483763 0.015253549 -0.0016771235)
(0.040459314 0.015329751 -0.0016996052)
(0.040431325 0.015398471 -0.0017291559)
(0.040398106 0.015467265 -0.0017566903)
(0.040359564 0.01553262 -0.0017811671)
(0.040318621 0.01559154 -0.0018039014)
(0.04027201 0.01564839 -0.0018214675)
(0.040228421 0.015705051 -0.0018169975)
(0.040178266 0.015719909 -0.001844375)
(0.040143831 0.015801093 -0.0018231936)
(-0.00025549081 -0.0018203978 -0.00057384069)
(-0.0004974605 -0.0034471049 -0.00064369544)
(-0.00072570822 -0.0050821608 -0.00079858593)
(-0.00099951213 -0.0066901817 -0.00084242407)
(-0.0013202011 -0.008255777 -0.00088683651)
(-0.0016661138 -0.0098003046 -0.00089092455)
(-0.002065854 -0.011294592 -0.00089166154)
(-0.002493986 -0.012754086 -0.00086430451)
(-0.0029726397 -0.014152781 -0.00083765261)
(-0.0034603609 -0.015492743 -0.00079933949)
(-0.0040106088 -0.016774382 -0.00075052966)
(-0.0045584815 -0.017971941 -0.00069935755)
(-0.0051572065 -0.019105496 -0.00064230351)
(-0.0057621418 -0.020143872 -0.00057779057)
(-0.0064108139 -0.02110925 -0.00050930802)
(-0.0070526775 -0.021965655 -0.00043614107)
(-0.0077349679 -0.022743381 -0.00035753665)
(-0.0084186649 -0.02341132 -0.00027291595)
(-0.0091189197 -0.023980783 -0.00018647524)
(-0.0098232089 -0.024446562 -9.2229375e-05)
(-0.010540723 -0.024805491 4.510052e-06)
(-0.0112507 -0.025056549 0.00010700156)
(-0.011964429 -0.025196702 0.00021057669)
(-0.012671874 -0.025232176 0.00031998437)
(-0.013368932 -0.025151446 0.00042975884)
(-0.014053573 -0.024969446 0.00054296889)
(-0.01472075 -0.024670764 0.00065612123)
(-0.015367895 -0.024274305 0.00077066145)
(-0.01598933 -0.023765168 0.00088376739)
(-0.016583739 -0.023160323 0.00099612066)
(-0.017146615 -0.022452353 0.0011060652)
(-0.017673261 -0.021650177 0.001212314)
(-0.018164054 -0.020755548 0.0013154113)
(-0.018613855 -0.019772499 0.0014134476)
(-0.019020549 -0.018705673 0.0015060572)
(-0.019382857 -0.017561963 0.0015934808)
(-0.019697035 -0.016342501 0.0016725434)
(-0.019966077 -0.015056667 0.0017454482)
(-0.02018436 -0.013709443 0.0018109897)
(-0.020353148 -0.012302275 0.0018675393)
(-0.020473116 -0.010848293 0.0019167995)
(-0.020543622 -0.0093489976 0.0019578159)
(-0.020564731 -0.0078092548 0.0019895655)
(-0.020537182 -0.0062402735 0.0020139714)
(-0.020463284 -0.0046434592 0.0020297581)
(-0.020342168 -0.0030272327 0.0020385735)
(-0.020176598 -0.0013974997 0.0020389976)
(-0.019967781 0.00024024249 0.0020340607)
(-0.01971657 0.0018802141 0.0020216926)
(-0.019425032 0.0035155615 0.0020047256)
(-0.019094364 0.005142516 0.0019820605)
(-0.018725603 0.0067531243 0.0019561685)
(-0.018320284 0.0083445895 0.0019256602)
(-0.017878659 0.0099089546 0.0018933991)
(-0.017402077 0.011443912 0.0018579418)
(-0.016890196 0.01294114 0.0018216481)
(-0.01634364 0.014399521 0.0017833359)
(-0.015761793 0.015810531 0.0017449947)
(-0.015144605 0.017172507 0.0017055668)
(-0.014491058 0.018479219 0.0016661995)
(-0.013800001 0.01972749 0.0016263377)
(-0.013071495 0.020911868 0.001586962)
(-0.012302285 0.022029915 0.0015465692)
(-0.011493101 0.02307653 0.0015065797)
(-0.010641436 0.024049858 0.0014655214)
(-0.0097453997 0.024943736 0.0014242345)
(-0.0088032008 0.025757934 0.0013825182)
(-0.0078164493 0.026488195 0.0013389625)
(-0.0067808591 0.027132719 0.00129518)
(-0.0056969642 0.02768763 0.0012469925)
(-0.0045603412 0.028155425 0.0011964582)
(-0.0033771173 0.028527098 0.0011438085)
(-0.00213702 0.028813456 0.0010865399)
(-0.00084954841 0.028994373 0.0010286217)
(0.00049529349 0.029097341 0.0009627629)
(0.0018913609 0.029084406 0.00089762346)
(0.0033392094 0.029004823 0.00082110111)
(0.0048466799 0.028797195 0.0007494018)
(0.0063956134 0.028537487 0.00065940162)
(0.0080130845 0.028143936 0.00057941776)
(0.0096641782 0.027697005 0.00047896342)
(0.011384292 0.027137225 0.0003842399)
(0.013141355 0.026505666 0.00027509426)
(0.01495324 0.02578127 0.00016826259)
(0.01680621 0.024990546 4.5087725e-05)
(0.018712685 0.024107405 -7.1798878e-05)
(0.020660396 0.023159904 -0.00020026948)
(0.022645431 0.02214694 -0.00033648348)
(0.024675 0.021066008 -0.00047197104)
(0.026737556 0.019905587 -0.00060418203)
(0.028832987 0.018741107 -0.00077433974)
(0.030964375 0.017470376 -0.00090284186)
(0.033143782 0.016142571 -0.001075935)
(0.0353614 0.014857518 -0.0012711893)
(0.037688642 0.013336474 -0.0014850372)
(-0.00021259243 -0.0029650719 -0.00047477791)
(-0.0004913627 -0.0056640559 -0.00058532562)
(-0.00082057089 -0.0084644861 -0.00068853179)
(-0.0011599576 -0.01120325 -0.00073216876)
(-0.0015459632 -0.013865958 -0.0007699446)
(-0.0019494303 -0.016506236 -0.00077491605)
(-0.0024172772 -0.019050913 -0.00076785626)
(-0.0029010351 -0.021539322 -0.00074857499)
(-0.0034174867 -0.023902871 -0.00073141776)
(-0.0039766847 -0.026210347 -0.00068433681)
(-0.0045551584 -0.028360832 -0.00065366326)
(-0.0051582977 -0.030424565 -0.00060666655)
(-0.005793621 -0.032333461 -0.0005539986)
(-0.0064474501 -0.034125205 -0.0004984791)
(-0.0071149882 -0.035748553 -0.00043884414)
(-0.0078022896 -0.037235759 -0.00037769407)
(-0.0085130842 -0.038552017 -0.00030115852)
(-0.0092188815 -0.039708122 -0.00023466666)
(-0.0099447474 -0.040685282 -0.00015237566)
(-0.010674486 -0.041499951 -7.1431582e-05)
(-0.011403666 -0.042119565 1.7361299e-05)
(-0.012131546 -0.042572545 0.00010434183)
(-0.01285949 -0.042829737 0.00020245376)
(-0.01357449 -0.042913742 0.00029848825)
(-0.014277788 -0.042801345 0.00039935345)
(-0.014966794 -0.042516488 0.00050185946)
(-0.015634517 -0.042038047 0.00060603633)
(-0.016279455 -0.041388684 0.00071131756)
(-0.016894237 -0.040552626 0.00081506264)
(-0.017481884 -0.039551839 0.00092071954)
(-0.018029004 -0.03837289 0.0010219826)
(-0.018541989 -0.037037533 0.0011223203)
(-0.019012068 -0.035539167 0.0012202436)
(-0.019436786 -0.03389141 0.0013116198)
(-0.019816696 -0.032100303 0.0014021958)
(-0.020146531 -0.030172675 0.0014834822)
(-0.02042524 -0.028116796 0.0015601995)
(-0.020653484 -0.02594405 0.0016309922)
(-0.0208274 -0.023660925 0.0016939616)
(-0.020947827 -0.021278089 0.0017482889)
(-0.021017099 -0.018808196 0.0017980599)
(-0.021030202 -0.016256681 0.0018371154)
(-0.020990847 -0.013639534 0.0018676984)
(-0.020902165 -0.010964333 0.0018925444)
(-0.020761257 -0.0082418983 0.0019080018)
(-0.020571508 -0.005485964 0.0019160421)
(-0.020335961 -0.0027042495 0.001917645)
(-0.02005348 8.9488924e-05 0.001911574)
(-0.019728713 0.0028865832 0.0018995157)
(-0.019361663 0.0056734649 0.0018819078)
(-0.018955542 0.0084430056 0.0018589363)
(-0.018510442 0.011179657 0.0018319375)
(-0.018029738 0.013878803 0.0018005758)
(-0.017512524 0.016524079 0.0017668808)
(-0.016961984 0.019110975 0.0017298359)
(-0.016376657 0.021624837 0.0016916539)
(-0.01575868 0.0240607 0.0016510699)
(-0.015106965 0.026404321 0.0016105985)
(-0.01442199 0.028652232 0.0015680888)
(-0.013702519 0.030790805 0.0015261763)
(-0.012949181 0.032815691 0.0014833628)
(-0.012159484 0.034716329 0.0014406439)
(-0.01133336 0.036488248 0.0013971916)
(-0.010470466 0.038121181 0.0013541723)
(-0.0095672004 0.039613769 0.001309768)
(-0.0086248958 0.04095304 0.001266662)
(-0.0076447609 0.042143678 0.0012200085)
(-0.0066232864 0.043170771 0.0011752958)
(-0.0055527424 0.044035334 0.0011254534)
(-0.0044399997 0.04473428 0.0010757976)
(-0.0032808892 0.04526757 0.0010229062)
(-0.0020779148 0.045622787 0.00097152408)
(-0.00082663975 0.045817895 0.00091080774)
(0.00047082396 0.045821417 0.00085688856)
(0.0018144223 0.045680547 0.00078419863)
(0.0032072163 0.045331748 0.00072849476)
(0.0046426477 0.044857559 0.00064345427)
(0.0061318822 0.044163833 0.00058369008)
(0.0076571308 0.043365367 0.00048497764)
(0.0092414421 0.042339468 0.00042157021)
(0.010856625 0.041225249 0.00031012729)
(0.012529998 0.039900212 0.00023423748)
(0.014235281 0.038470548 0.00012438786)
(0.015992995 0.036871881 2.3729779e-05)
(0.017788243 0.035167524 -9.3882751e-05)
(0.019619962 0.033308065 -0.00019792957)
(0.021491844 0.031357759 -0.00032743542)
(0.023391058 0.029275439 -0.00044393232)
(0.025345767 0.027083268 -0.00057066121)
(0.027302293 0.024830635 -0.00072080683)
(0.029326204 0.022453842 -0.00085245617)
(0.031352833 0.01999698 -0.0010062529)
(0.033443264 0.017507743 -0.0011866725)
(0.035573161 0.014904472 -0.0013655982)
(0.037803586 0.012261875 -0.0015774807)
(-0.00019598299 -0.0036701441 -0.00041302787)
(-0.00051469749 -0.0071482475 -0.00048847091)
(-0.00086652231 -0.010689872 -0.00057918677)
(-0.0012498837 -0.014155023 -0.00061849448)
(-0.0016730872 -0.017556717 -0.00064868996)
(-0.0021369394 -0.02091334 -0.00063762638)
(-0.0026391069 -0.02415887 -0.00063947053)
(-0.0031460664 -0.027299933 -0.00062886216)
(-0.003726375 -0.030349403 -0.00059397753)
(-0.004300453 -0.0332384 -0.00057288266)
(-0.0049197799 -0.03600801 -0.00054012891)
(-0.0055509786 -0.038608524 -0.00049576274)
(-0.0062226577 -0.041061822 -0.00045317866)
(-0.0068866622 -0.043314233 -0.0004091233)
(-0.0075936781 -0.045404003 -0.000356076)
(-0.0083020438 -0.047284566 -0.00029610769)
(-0.0090272293 -0.048968773 -0.00023977071)
(-0.0097534977 -0.050436613 -0.00017554076)
(-0.010503558 -0.051695132 -0.0001038962)
(-0.011237517 -0.052725292 -3.2486164e-05)
(-0.011985302 -0.053528978 4.231509e-05)
(-0.012724171 -0.054109443 0.0001266633)
(-0.013459739 -0.054446655 0.00020884114)
(-0.014179288 -0.054561653 0.00029684814)
(-0.014892299 -0.054430305 0.00038630281)
(-0.015581676 -0.054078277 0.00048080522)
(-0.016251829 -0.053481178 0.00057356723)
(-0.016893342 -0.052666682 0.00066952696)
(-0.017509785 -0.051617127 0.00076603901)
(-0.0180868 -0.050354236 0.00086173653)
(-0.018630844 -0.048869545 0.00095530444)
(-0.019133229 -0.047182873 0.0010507877)
(-0.019589552 -0.045288273 0.0011386969)
(-0.020001631 -0.043206719 0.001227576)
(-0.020363586 -0.040937986 0.0013100294)
(-0.020672966 -0.038495643 0.0013880645)
(-0.020929672 -0.035891908 0.0014621025)
(-0.021133227 -0.033134625 0.0015299737)
(-0.021277041 -0.030238147 0.0015894376)
(-0.021368336 -0.027215136 0.0016448881)
(-0.021400707 -0.024075962 0.0016905179)
(-0.021378813 -0.02083598 0.0017287359)
(-0.021302196 -0.017508984 0.0017621422)
(-0.021170961 -0.014106955 0.0017855426)
(-0.020986615 -0.010646269 0.001800892)
(-0.020753593 -0.0071403033 0.0018111319)
(-0.020470287 -0.0036021732 0.0018115294)
(-0.020141284 -4.8700112e-05 0.0018070298)
(-0.019767633 0.0035082751 0.0017949437)
(-0.01935204 0.0070519995 0.0017782831)
(-0.018895822 0.010570782 0.0017547697)
(-0.018401864 0.014047525 0.0017284536)
(-0.017870986 0.017472232 0.0016960755)
(-0.017305218 0.020826416 0.0016622673)