/*--------------------------------*- C++ -*----------------------------------*\
  =========                 |
  \\      /  F ield         | OpenFOAM: The Open Source CFD Toolbox
   \\    /   O peration     | Website:  https://openfoam.org
    \\  /    A nd           | Version:  6
     \\/     M anipulation  |
\*---------------------------------------------------------------------------*/
FoamFile
{
    version     2.0;
    format      ascii;
    class       pointScalarField;
    location    "1.72";
    object      p;
}
// * * * * * * * * * * * * * * * * * * * * * * * * * * * * * * * * * * * * * //

dimensions      [1 -1 -2 0 0 0 0];

internalField   nonuniform List<scalar> 
28033
(
-307125.91
400869.01
282.68242
100.05929
-492308.04
628770.81
6.369282
93.342119
-256961.06
-226771.94
-199282.17
-167694.67
-119713.85
-81725.068
-42460.363
-2992.1663
41538.224
75512.138
117892.67
137431.88
188236.45
225833.93
217145.7
-11.830405
-287.86368
-305.70429
-400.53285
-202.12801
-312.68257
-153.26191
-79.492637
-122.48537
148.53605
-10.834939
84.734517
63.728047
251.45507
251.89242
-66879.804
-84423.418
-74542.247
-85735.044
-77998.301
-85429.279
-84411.454
-88041.297
-87668.7
-92405.704
-91141.443
-93686.344
-95190.835
-97914.344
-97575.055
-100029.1
-101910.79
-102408.46
-104037.96
-105162.03
-106351.73
-106872.24
-108618.78
-108310.5
-109537.45
-110029.26
-110949.78
-110684.75
-111627.46
-111595.74
-112548.65
-112579.88
-113612.59
-113694.16
-114291.4
-114751.37
-115442.33
-116099.1
-116226.51
-116628.39
-116620.19
-116302
-116046.32
-115534.42
-114647.31
-113646.98
-112233.42
-110663.53
-108676.71
-106600.41
-104109.92
-101537.81
-98710.229
-95735.039
-92660.742
-89457.359
-86224.329
-82919.753
-79606.102
-76294.205
-72985.415
-69653.484
-66299.425
-63118.549
-59776.566
-56506.595
-53655.55
-50152.157
-46511.855
-42968.878
-39307.244
-35764.174
-32136.287
-28581.636
-25016.403
-21570.45
-18218.215
-15100.405
-12016.847
-9382.7027
-6817.6461
-4580.7947
-2680.4072
-983.21058
174.66788
1118.0882
1647.0142
2025.5984
2129.7435
2031.3519
1833.0382
1423.2626
1121.1493
656.90772
358.36198
80999.394
67292.5
79413.642
70842.514
82020.969
78743.405
86346.49
83868.709
90214.466
89058.656
94262.247
94289.569
97937.59
99726.641
102371.67
103749.99
106204.5
107555.48
109409.09
110533.49
111409.77
112500.13
112838.59
113709.09
114053.87
114024.77
114700.77
114325.14
115105.78
114750.42
115493.18
115523.97
116589.89
116809.12
118332.78
118824.45
119821.24
120795.56
121647.22
122211.09
122963.36
122891.23
123090.11
122436.09
121810.75
120445.7
118974.83
116819.69
114553.68
111688.34
108734.92
105332.04
101880.35
98164.74
94446.011
90621.607
86881.266
83128.745
79515.823
75979.18
72571.831
69274.404
66081.305
62962.434
59897.19
56845.049
53845.315
50789.69
47816.881
44257.794
41059.152
37547.98
34100.252
30482.265
26921.817
23320.382
19808.059
16429.795
13184.121
10223.556
7497.9669
5111.9766
3052.6025
1396.7118
70.162525
-840.69775
-1451.4423
-1712.206
-1730.0228
-1536.6463
-1184.5627
-744.7492
-368.59741
-7.9616541
91.532273
-403685.98
-390972.66
-263370.41
-273868.49
-169272.8
-83020.664
-27631.105
61425.792
129603.86
210755.92
271715.66
341509.74
416349.55
457584.81
483113.18
123540.53
105346.55
53400.017
97890.891
87595.782
91736.645
92080.834
95826.219
98230.433
101791.31
105129.41
102246.92
109258.49
105649.42
112817.7
110201.81
113243.11
113317.57
114825.59
116517.71
118468.18
116819.03
117085.28
122799.69
116965.24
123181.58
119463.01
123985.47
121640.65
124469.48
122851.05
125237.2
124178.14
125969.45
126229.29
124905.31
126457.16
127648.34
127214.23
127973.29
127507.74
127718.29
127042.87
126682.15
125586.74
124684.45
123085.04
121528.86
119453.35
117323.04
114806.35
112178.69
109297.32
106300.01
103154.57
99874.931
96584.684
93168.925
89754.556
86317.385
82845.436
79382.084
75885.3
72385.278
68826.297
65224.628
61707.228
58042.169
53683.446
50261.009
46628.82
42609.476
38703.296
34779.249
30877.531
27049.121
23350.352
19840.142
16482.45
13393.732
10556.09
8040.5668
5810.0396
3965.0448
2406.2591
1205.4825
277.399
-326.31935
-741.11671
-886.81418
-914.11346
-794.57114
-592.30145
-393.68927
-163.5014
460.89415
455.76717
383.83099
577.75012
195.89348
344.76896
-266.73364
-48.367284
-220.21668
-226.71484
-163.67466
-345.20554
-443.94494
-527.94057
-173.67002
141.65373
554.20113
999.50402
1563.1471
2313.568
2867.7658
3369.0483
3679.4904
3802.7381
3516.7509
3014.4719
2131.0075
789.24216
-861.71013
-2954.0876
-5396.4621
-8228.074
-11258.958
-14624.996
-18058.021
-21693.584
-25358.052
-29027.054
-32594.059
-36219.955
-39211.501
-41505.391
-47429.402
-49082.223
-52409.287
-55468.741
-58580.857
-61573.537
-64716.591
-67949.928
-71270.202
-74770.605
-78338.842
-82101.73
-85876.824
-89783.753
-93603.395
-97481.65
-101105.24
-104686.69
-107871.08
-110897.71
-113390.32
-115660.37
-117302.85
-118668.71
-119430.47
-119924.19
-119945.91
-119504.3
-118867.22
-117770.17
-115416.38
-117027.89
-114434.21
-112160.09
-113640.46
-111784
-110558.05
-108734.87
-110735.69
-107661.09
-110151.44
-109131.38
-108813.67
-109322.64
-106667.48
-109342.88
-106955.41
-105008.03
-106033.09
-103487.33
-102613.19
-100530.67
-101364.43
-98936.927
-92340.208
-91033.73
-90247.645
-91392.831
-88267.072
-83780.588
-81375.226
-79639.5
-77958.403
-71644.236
-80982.447
-69984.172
-61533.777
-77437.3
-193984.5
-216034.09
-225918.91
-243069.73
-235976.89
-252570.45
-240629.91
-250127.95
-237303.93
-225114.55
-235203.17
-210336.74
-196169.14
-210340.25
-134463.81
320283.75
403092.06
403840.38
432340.23
428177.72
404883.52
468357.8
506076.97
475782.67
483306.48
468096.63
456473.97
433817.95
437056.02
418046.17
425.26207
591.96625
786.85675
1080.5832
1117.2805
1237.2843
1173.6637
1093.632
919.07297
735.84331
454.60795
265.42181
51.184363
-51.260376
75.34664
388.01827
304.75663
239.99604
-47.512169
-244.09807
-539.26434
-776.8097
-983.24724
-1119.8673
-1149.6238
-1121.7824
-915.19362
-727.99211
-330.86347
24.071449
-62146.606
-78711.516
-67499.041
-69096.67
-72184.774
-76436.009
-77081.567
-79460.296
-81033.363
-81816.447
-83129.784
-85588.87
-86073.64
-87043.374
-88422.341
-90410.767
-90719.374
-92025.441
-93868.54
-93939.921
-95763.429
-96246.84
-97503.689
-97938.485
-99388.347
-99247.61
-100418.14
-100712.05
-101806.05
-101777.68
-102527.78
-102398.51
-103516.02
-103338.21
-104091.81
-104195.84
-104483.54
-104344.46
-104710.36
-104612.5
-104658.76
-104238.75
-103938.64
-103213.78
-102404.63
-101448.54
-100157.68
-98826.618
-97124.541
-95354.171
-93276.607
-91114.869
-88705.675
-86197.743
-83533.615
-80764.375
-77895.509
-74945.909
-71939.694
-68880.198
-65775.645
-62598.628
-59496.395
-56321.583
-52898.305
-49795.147
-46244.312
-43074.877
-39764.067
-36652.685
-33488.21
-30320.176
-27131.664
-24111.226
-21036.056
-18226.017
-15447.014
-12895.54
-10422.805
-8368.0467
-6231.3116
-4511.7401
-2982.6047
-1696.7207
-568.35973
296.83851
941.82729
1428.649
1680.7557
1779.5029
1777.1594
1548.9142
1408.181
797.41358
446.61567
-62491.98
-68102.246
-56688.983
-60986.051
-62480.471
-64303.936
-63947.687
-66678.106
-67567.804
-69861.009
-69997.53
-72090.919
-72248.927
-74576.265
-74586.59
-75951.58
-76348.274
-77950.472
-78405.567
-79206.185
-80455.666
-80618.401
-81957.092
-82347.59
-83575.659
-83694.839
-85021.633
-85145.568
-86003.911
-86277.524
-87135.346
-87291.784
-87763.735
-87833.625
-88287.104
-88121.074
-88407.693
-88257.487
-88298.226
-87973.814
-87718.612
-87402.1
-86629.711
-86169.55
-85314.807
-84502.309
-83429.065
-82343.598
-80979.04
-79596.31
-77963.733
-76266.989
-74377.464
-72382.424
-70259.86
-68004.383
-65655.091
-63204.841
-60663.368
-58053.04
-55370.085
-52636.799
-49939.643
-47096.553
-44335.418
-41987.179
-39493.207
-36703.289
-34320.681
-31480.618
-28751.263
-26104.639
-23419.231
-20823.179
-18304.719
-16001.827
-13626.904
-11579.212
-9505.3555
-7742.9542
-5949.6308
-4460.6898
-3263.8091
-1727.5683
-624.52081
131.41653
791.72001
1232.4258
1490.4001
1695.2528
1672.7122
1524.465
1431.3032
676.06819
544.64235
-51247.326
-59639.437
-46038.49
-51862.115
-51170.072
-53272.615
-53528.384
-56573.957
-56863.201
-57687.869
-58673.469
-60027.021
-60468.986
-61155.858
-61938.682
-62810.288
-63712.889
-63908.449
-65143.21
-65408.953
-66821.437
-66763.948
-68488.69
-68391.478
-69793.33
-69789.564
-71217.373
-71064.483
-72387.37
-72128.533
-73145.16
-72890.227
-73721.413
-73502.846
-74046.228
-73789.176
-74116.521
-73814.877
-73948.046
-73374.211
-73176.601
-72606.742
-72432.398
-71753.85
-71273.42
-70457.039
-69716.345
-68767.041
-67780.081
-66638.696
-65392.707
-64026.012
-62518.831
-60897.72
-59146.571
-57260.419
-55280.948
-53175.034
-50976.707
-48696.552
-46343.311
-43926.233
-41498.418
-38920.321
-36582.12
-34309.823
-32099.636
-29548.987
-27404.759
-25210.463
-23006.614
-20706.281
-18412.784
-16374.683
-14331.259
-12447.811
-10701.712
-9016.8921
-7502.3869
-6089.4885
-4763.2713
-3693.6051
-2543.9829
-1505.9739
-447.56655
232.26325
899.4478
1266.6331
1559.9528
1763.8119
1738.4744
1667.8058
1431.292
891.65518
562.98131
-38658.143
-50477.852
-35764.09
-42939.506
-40372.3
-42252.124
-42454.64
-44548.587
-44075.657
-45927.851
-46195.15
-47627.392
-46920.726
-48868.91
-48244.688
-49749.518
-49143.16
-50628.83
-50817.207
-51459.874
-51949.731
-52555.861
-53369.63
-53520.034
-54766.944
-54888.118
-55929.37
-56146.11
-56985.341
-57155.724
-57970.769
-57891.488
-58403.088
-58233.375
-58620.87
-57936.137
-58291.148
-57350.721
-57083.801
-56530.124
-56478.135
-55819.161
-55340.614
-54684.309
-54180.4
-53545.698
-52953.858
-52287.573
-51603.872
-50833.863
-50013.062
-49106.341
-48107.955
-47009.955
-45803.248
-44488.672
-43059.693
-41520.945
-39880.25
-38146.774
-36338.362
-34451.268
-32509.85
-30567.061
-28616.837
-26602.808
-24810.349
-22793.93
-20563.937
-18951.422
-17192.989
-15318.131
-13748.601
-12110.187
-10635.854
-9213.0218
-7882.5982
-6672.9781
-5488.6646
-4422.0942
-3441.4432
-2534.4189
-1672.4676
-869.18638
-316.59722
106.84576
567.61124
924.92063
1192.3345
1422.9437
1427.4953
1372.9973
1281.7088
575.65973
510.55193
-33175.088
-37282.068
-28334.714
-32264.809
-30821.158
-32261.126
-32428.492
-33855.096
-33504.927
-34392.446
-34905.362
-34913.657
-35476.678
-35732.164
-36187.275
-36271.792
-36684.877
-36938.919
-37336.754
-37246.236
-38456.629
-38231.19
-39378.69
-39362.418
-40714.077
-40377.175
-41866.143
-41510.971
-42766.766
-42467.903
-43386.275
-42974.333
-43713.269
-43295.126
-43632.439
-43120.834
-44103.697
-43907.264
-44090.902
-44685.721
-43917.002
-43506.013
-43311.618
-42758.409
-42463.575
-41959.917
-41579.856
-41112.729
-40709.892
-40197.45
-39700.997
-39116.9
-38462.614
-37708.47
-36868.98
-35899.117
-34828.25
-33633.246
-32339.911
-30925.783
-29467.843
-27843.169
-26303.161
-24642.815
-22855.715
-21414.126
-19653.432
-18130.566
-16494.712
-15044.382
-13613.017
-12191.341
-10232.062
-8767.9776
-7639.2989
-6533.917
-5642.7548
-4738.1563
-3908.5207
-3159.987
-2408.8047
-1790.1424
-1102.4411
-627.07829
-8.0699745
367.00501
765.92433
1020.8945
1265.7525
1413.6666
1376.4515
1406.5437
1164.1228
651.90202
563.524
-18959.898
-26493.88
-17807.319
-22394.886
-20728.56
-21536.508
-21023.661
-22691.099
-21434.332
-22941.681
-22122.243
-23135.84
-22026.738
-23380.037
-22106.281
-23017.032
-22473.545
-23317.94
-22868.313
-23652.348
-23773.022
-23979.086
-24698.311
-24783.611
-25600.236
-25684.495
-26608.813
-26581.731
-27460.61
-27281.335
-27989.365
-27723.571
-28183.685
-27735.536
-27884.758
-27537.762
-27830.936
-27561.943
-28346.821
-28085.504
-28478.05
-27792.742
-27501.469
-27040.164
-26783.397
-26424.75
-26220.295
-25983.05
-25840.362
-25638.826
-25506.93
-25288.905
-25068.036
-24754.077
-24395.306
-23897.729
-23347.416
-22648.805
-21872.586
-20974.226
-19992.304
-18948.877
-17812.601
-16613.041
-15535.634
-14176.594
-13139.862
-11961.074
-10843.621
-9845.0081
-8741.6406
-7763.3005
-6834.0507
-5827.2965
-4939.1927
-4389.6889
-3767.4233
-3269.4787
-2747.1446
-2322.2046
-1818.5889
-1444.4324
-990.52874
-640.43067
-208.56922
29.451264
469.18053
740.03096
1023.1859
1218.3543
1284.7269
1264.5983
1182.2229
636.14962
446.05036
-9836.8696
-13168.887
-8816.1571
-12449.578
-10378.34
-10759.789
-10456.584
-11361.891
-10312.198
-10270.514
-10696.423
-9541.798
-10054.827
-9539.8389
-9337.1812
-9393.7797
-9314.6583
-9027.2091
-9283.8761
-9192.8634
-9608.0809
-9572.4601
-10409.619
-10120.336
-11385.353
-10932.411
-12203.116
-11770.044
-12834.674
-12324.272
-13254.61
-12598.428
-13204.474
-12481.037
-12877.883
-12068.84
-12272.198
-11618.864
-11155.252
-10385.331
-10418.251
-9930.0146
-9759.1167
-9502.4767
-9520.5217
-9412.753
-9505.9736
-9590.8276
-9787.4287
-9957.0021
-10213.705
-10401.363
-10616.785
-10750.124
-10847.75
-10835.206
-10764.779
-10566.149
-10286.178
-9889.2353
-9431.6977
-8853.1939
-8239.6678
-7587.1558
-6846.8318
-6195.0228
-5441.6689
-4778.9184
-4118.9658
-3527.2783
-3014.4856
-2539.3272
-2032.5071
-1848.5257
-1625.2224
-1389.9713
-1140.6486
-991.92797
-813.52988
-668.13939
-471.19336
-348.3148
-82.041002
45.036698
343.74726
467.69518
781.8256
829.89396
1074.3003
1090.8132
1154.4443
1103.7172
988.5251
595.40207
446.85122
4853.0541
-3029.0101
1468.9282
-2256.9786
-99.915405
-928.98212
365.50786
-594.43682
1827.5836
688.22304
2271.9247
2081.4256
3276.819
3089.0942
4157.7868
3927.9374
4980.3251
4438.3966
5046.1501
4838.4734
4848.445
4672.1599
4525.2267
4371.4777
3817.6728
3948.3213
3077.3505
3394.8866
2633.3453
3022.899
2445.8025
3057.3984
2677.1678
3303.0685
3227.8021
3988.6838
3884.4137
4738.9002
4772.6933
5555.1551
5636.4883
5986.1267
6149.6156
6336.7296
6187.7871
6169.3828
5868.0172
5552.9829
5093.5973
4639.0075
4057.5584
3514.3371
2924.8977
2391.1207
1855.4357
1426.8348
1022.0637
732.96069
518.44893
388.50267
345.79223
387.6621
464.56617
625.56151
773.66554
1000.3197
1158.775
1338.0208
1483.7943
1561.0829
1632.4503
1656.2172
1669.0194
1572.3546
1420.8458
1213.1709
1050.5946
846.88953
672.17226
512.32202
385.48087
304.31281
266.5908
266.46377
343.09711
410.09245
572.42005
668.96466
881.69858
926.77538
1067.9325
1011.0799
951.07377
587.77477
500.04903
12642.672
9923.9437
10288.071
9097.136
10296.34
10638.318
11729.509
12094.578
13220.117
14386.277
14264.362
16155.912
16363.017
17086.407
17796.744
18533.189
18659.832
19131.876
19567.013
19568.87
19514.966
19711.774
19139.983
19412.711
18606.733
18966.535
18055.977
18624.118
17665.986
18421.835
17656.794
18535.281
17965.928
18920.55
18685.748
19495.702
19521.631
20264.416
20269.489
20854.906
20830.436
21174.341
21096.156
21110.657
20764.519
20554.476
20001.091
19460.881
18725.073
17994.464
17082.237
16219.793
15273.142
14364.178
13441.339
12616.211
11792.321
11094.93
10451.585
9912.5346
9447.4927
9084.603
8771.6183
8529.753
8349.6259
8149.5703
7985.0842
7787.555
7584.1389
7304.5494
7026.2572
6615.3864
6204.95
5628.4005
5224.5238
4739.0738
4170.2516
3554.9439
3020.8373
2479.3036
2033.8972
1603.026
1312.9632
1036.6068
920.64708
780.33351
835.53259
761.71313
959.11936
846.68289
1033.3703
898.56307
849.91771
665.75197
434.71621
24758.922
21250.08
20129.058
18432.236
20844.384
20936.551
22890.684
22747.823
25739.42
25487.994
27305.635
28555.343
29380.709
30189.986
31754.471
31895.536
32900.372
33338.307
33829.059
33929.919
34340.687
33795.77
33881.978
33900.803
33610.06
33803.552
33306.909
33572.887
33080.98
33661.707
33237.634
34013.533
33805.862
34680.928
34545.646
35522.906
35494.161
36331.129
36379.624
36992.202
37032.205
37283.155
37115.311
37073.068
36615.713
36207.694
35485.162
34707.313
33743.505
32718.898
31525.565
30340.928
29054.13
27778.791
26482.897
25246.721
24009.12
22870.782
21778.184
20764.735
19822.663
18966.919
18142.453
17407.318
16669.141
15983.344
15278.142
14606.347
13863.035
13121.08
12276.4
11442.067
10520.18
9315.8576
8066.0624
7418.2666
6381.7874
5510.4611
4574.4355
3773.2539
2982.8348
2360.1898
1776.8283
1367.6488
1016.386
820.56684
697.97072
638.21114
724.69869
607.35486
866.80166
636.18488
696.06696
553.57033
193.85735
35860.429
30252.088
27169.687
28112.683
30191.513
30548.93
32358.435
33874.964
35369.095
36974.1
38164.642
39923.4
40761.356
42295.132
43195.379
43990.352
45053.305
45428.984
46131.509
46684.038
47026.131
48001.194
48497.746
49131.153
48976.426
49298.164
48781.626
49286.867
48687.965
49420.43
48881.037
49868.179
49546.551
50498.045
50382.415
51317.021
51294.174
52109.632
52066.33
52637.993
52505.386
52682.922
52360.946
52175.227
51511.65
50936.92
49987.756
49010.674
47770.014
46494.109
45001.835
43511.359
41882.355
40267.503
38594.651
36979.617
35344.287
33806.51
32295.15
30876.872
29516.579
28249.19
27031.774
25886.879
24792.464
23721.349
22639.942
21545.991
20454.313
19274.538
18093.123
16893.292
15517.15
14117.308
12762.625
10973.777
9456.279
7985.6474
6665.8268
5431.9443
4309.9957
3271.1818
2407.6798
1652.1955
1091.7554
641.70639
371.9014
198.46741
148.84408
152.70782
230.76993
264.60831
334.91678
276.02375
302.47455
45093.742
40798.472
39105.542
37538.153
40317.473
40343.347
43440.606
44410.725
46920.223
48230.029
50451.191
51733.643
53705.425
54577.253
56408.682
57373.203
58328.922
59197.485
60143.72
60292.388
61463.755
61536.582
62706.112
63421.462
63536.836
63699.704
63772.664
63923.035
63806.208
64250.268
64226.606
64888.962
65014.809
65903.875
66046.625
66969.45
67124.171
67899.941
68043.019
68544.894
68489.158
68640.266
68312.787
68010.512
67310.581
66535.636
65449.839
64215.514
62741.698
61164.296
59367.704
57519.128
55540.531
53531.068
51470.665
49438.055
47393.98
45423.455
43486.211
41630.517
39823.094
38114.519
36417.094
34807.252
33201.666
31634.071
30031.443
28492.935
26839.595
25169.163
23470.112
21638.925
19803.454
17969.972
16091.409
14276.869
12347.716
10417.248
8667.0697
7035.7129
5509.3092
4172.7055
3014.3588
2059.8174
1300.7391
734.49308
357.71541
136.4828
36.293991
30.87274
114.54051
73.592103
211.8757
140.26586
213.60058
61220.006
54702.103
50372.48
52429.919
54006.164
56154.989
57804.185
60652.919
62080.88
64542.595
66120.368
68796.201
69608.979
72015.944
72853.157
74656.769
75451.795
76802.579
77283.618
78163.389
78736.448
79257.013
78976.549
79220.509
78897.941
79451.219
79303.997
79712.75
79457.661
80106.302
79901.873
80611.66
80734.866
81655.916
81786.856
82762.11
82821.737
83681.483
83724.886
84211.542
84106.8
84173.552
83691.716
83282.653
82383.422
81446.812
80124.291
78676.884
76934.722
75087.108
72976.596
70814.597
68480.138
66111.276
63660.898
61228.097
58766.601
56367.16
53990.237
51687.212
49438.827
47267.998
45138.79
43080.81
41053.448
39050.976
37051.56
35029.337
33003.871
30901.458
28750.838
26574.755
24357.075
22020.096
19741.964
17389.37
15145.98
12905.222
10774.589
8761.548
6909.0232
5244.3599
3796.3191
2570.0037
1575.6127
809.24106
274.87978
-88.950659
-263.28132
-325.09273
-281.97665
-236.63982
-63.426636
3.6451309
42.850942
67577.15
63880.888
57009.944
60459.073
62445.183
64799.039
67357.558
69803.315
72003.168
74305.661
77321.023
78803.715
81446.166
83378.125
84710.364
86706.084
88005.009
88898.353
90421.491
90966.82
91695.756
92278.233
92726.66
93369.616
93305.055
93571.789
93644.292
93768.182
94218.005
94453.379
94822.353
95285.841
95727.166
96357.019
97154.386
98027.352
98509.662
99365.492
99733.003
100296.52
100417.45
100487.73
100196.98
99712.211
98853.346
97752.462
96285.214
94575.497
92542.307
90305.826
87803.637
85169.476
82360.828
79479.45
76518.91
73563.791
70595.351
67690.221
64826.648
62057.305
59345.366
56734.846
54168.881
51672.197
49181.305
46705.516
44177.483
41754.096
39231.126
36579.179
33952.154
31211.449
28340.133
25535.993
22610.01
19730.231
16918.439
14198.173
11603.366
9209.7375
7012.0907
5069.533
3397.1439
2014.1123
916.97599
117.87063
-423.78049
-715.689
-810.69849
-756.28042
-563.85685
-404.05585
-150.48816
-44.180414
34.671836
91113.563
65665.031
72099.101
69826.32
75521.953
75427.942
79377.735
80865.874
83898.737
86394.245
88509.461
91874.039
93322.753
96089.463
97261.084
100027.96
100474.53
102381.61
103465.93
104638.77
105117.9
106202.42
106213.57
106985.49
106963.36
107122.17
107138.47
107433.26
107618.83
108477.08
108567.02
109341.64
109635.2
110395.76
110998.18
112531.48
112649.97
113737.21
114155.66
114808.36
114948.44
115090.15
114736.85
114194.14
113223.24
111950.64
110289.98
108320.94
105986.74
103403.48
100520.45
97461.018
94210.66
90850.573
87420.854
83965.646
80515.453
77117.196
73792.67
70539.687
67395.396
64331.721
61360.696
58428.92
55551.75
52603.754
49640.584
46662.052
43880.238
40812.161
37794.088
34500.784
31304.921
27984.752
24673.582
21394.642
18234.901
15124.785
12223.76
9513.1918
7070.0138
4912.628
3087.6878
1576.4346
423.8097
-428.76956
-949.36349
-1228.7046
-1272.0554
-1127.973
-889.2777
-614.04289
-252.07294
-64.479303
167.1344
-130512.29
-146793.47
-135260.92
-139210.52
-137732.52
-138888.49
-142155.13
-138701.58
-132111.97
-138192.71
-130404.1
-123739.97
-124059.75
-135134.65
-97184.583
-139574.54
-149809.25
-137549.59
-145396.56
-137132.97
-144661.6
-136650.82
-142431.03
-139177.97
-137492.67
-135290.51
-133225.09
-131786.43
-137142.92
-108282.67
-109150.9
-129939.11
-102235.78
-109313.66
-109676.43
-102648.75
-105832.4
-102108.16
-102471.25
-99962.243
-99497.314
-99053.212
-90500.877
-103349.84
-88736.685
-93469.991
-99949.159
-97600.151
-91428.468
-95974.272
-91561.524
-93270.424
-90992.556
-90265.137
-87629.556
-88412.364
-81827.173
-84844.609
-89882.231
-52445.367
-65287.349
-77172.85
-60650.8
-70340.716
-57784.79
-67694.069
-59293.42
-61963.453
-57561.153
-58336.355
-55813.563
-55821.936
-56448.975
-57620.392
-49220.088
-52934.06
-56805.45
-47795.494
-50248.696
-48563.125
-48083.621
-44913.008
-44069.132
-44565.112
-42776.893
-38376.061
-40975.717
-35336.326
-37143.771
-34638.531
-24480.013
-23351.11
-24655.204
-19100.07
-18894.175
-17911.508
-16601.201
-13221.231
-13741.304
-11366.406
-10811.018
-9246.5472
-11761.278
-7204.9195
-12328.022
-711.99292
-3378.1267
2932.8779
-191.70159
4355.2414
3062.1271
6733.6162
6602.2838
8243.3366
8486.1336
14235.992
10404.958
10369.147
20723.001
5970.3758
18642.308
22978.899
19692.43
25963.139
24593.714
27731.694
27897.316
31678.435
30485.963
33894.615
36809.707
33242.344
36628.446
43949.417
17982.674
40215.441
47590.226
46028.836
46595.91
49673.18
49583.447
53451.68
52714.63
56116.976
53967.486
61923.905
55307.229
56541.41
71948.099
42888.717
64226.817
78075.465
67593.112
77727.951
73273.811
79576.829
77924.409
81941.717
80576.529
82782.856
84063.052
82787.212
83269.788
91246.235
62862.967
91511.208
82005.457
89272.397
81433.629
90496.171
88875.827
92474.488
92572.53
94975.992
95958.841
101851.86
92323.237
98081.662
113359.79
82872.08
108193.33
120459
105395.32
114509.77
108520.45
114807.21
113140.83
114595.31
115437.46
116777.38
119131.85
120177
112794.1
133838.98
81331.79
132331.59
143353.1
134859.84
137214.88
145827
144442.13
146679.2
155066.77
152741.82
156680.29
148296.69
148174.25
152540.24
155838.16
137157.91
149415.08
127085.45
114453.33
114890.66
119523.93
130619.05
125254.21
123435.37
118288.65
118779.58
121066.36
123242.78
127407.4
141754.35
132668.86
118116.26
115412.63
132800.23
142202.79
144800.05
159418.25
154369.5
144228.64
165014.26
162360.85
157972.67
151246.42
148323.4
140262.44
127769.64
88943.411
88075.632
95491.94
97099.582
99522.112
103777.34
106372.96
111818.78
115496.21
110284.35
109030.87
102863.02
107234.28
107876.24
113955.63
79980.822
90548.701
91352.418
97829.583
105633.54
102021.94
106482.4
106781.62
102249.6
108134.48
104623.38
106924.38
104421.79
95112.68
97124.256
78534.131
86250.881
87676.477
87463.79
90062.696
91237.59
91626.852
92255.854
92672.755
90558.817
92416.452
92227.56
88762.854
89646.483
86711.542
85959.632
94889.619
95010.642
99111.889
100762.69
102663.17
103987.81
104326.6
104933.04
106082.7
103097.56
102343.3
98028.211
97850.003
95356.939
86376.398
88074.826
88272.898
92155.293
93834.593
95552.594
95309.438
96178.662
97223.904
96064.065
96552.051
95192.643
93124.622
92963.309
90317.655
87116.801
93296.98
93211.495
95105.207
97406.565
99568.109
100048.84
100654.49
101490.37
100762.16
99609.198
99909.661
98043.901
96754.629
98108.476
90521.561
90440.686
93130.861
92569.757
95680.246
95264.47
96298.499
96943.846
96801.396
96549.422
96093.312
96075.414
94877.083
94832.014
93620.41
90313.291
95538.219
95101.84
97964.64
98365.66
100796
100215.87
101227.85
102506.21
100367.19
101287.68
100259.58
99702.066
99262.405
97045.993
94590.841
94039.157
95514.819
94842.933
96617.375
96309.803
97597.512
97615.564
96925.367
98794.791
97685.395
98681.822
97903.505
98198.696
97971.537
94848.908
97999.515
97135.38
99612.087
99962.788
101476.43
101041.89
102763.45
102882.88
102312.18
103686.43
103381.32
103122.21
103566.34
103812.76
98849.794
98149.447
99172.738
99037.115
100223.47
99403.867
100909.27
101482.25
101823.34
102292.74
102781.68
102808.32
103204.73
103135.26
103485.72
100652.93
101022.89
100628.66
102241.84
102039.98
103566.41
103423.94
104499.37
104822.9
105337.39
105592.54
106285.91
105886.57
106415.96
106801.14
102843.52
102382.45
103324.01
102791.07
104044.42
103481.08
104346.71
104357.24
105012.24
104852.4
105722.49
106002.19
106186.04
106703.25
107523.16
104736.09
104798.23
105439.8
105457
106579.44
106188.43
105645.99
108467.69
107903.52
108613.6
109170.75
109473.42
109614.83
110134.84
110352.85
106980.89
106384.86
107646.71
106695.07
107483.04
106726.03
108746.02
107518.5
108286.89
108173.56
108382.89
108987.96
108569.65
109043.31
109135.89
108764.48
108438.79
109070.32
108906.63
109769.95
109847.82
109581.01
110691.33
110423.04
111065.68
111754.8
112280.53
112471.02
112817.81
113595.41
110674.66
110463.87
110662.54
110417.66
111319.86
110924.72
111679.38
111675.85
111849.45
112074.23
112095.09
112536.78
111414.98
113068.61
112450.81
111567.03
111678.01
112344.85
112157.77
112711.43
112194.22
112518.49
113099.89
112921.59
113419.03
114465.64
114331.98
114199.94
114590.07
115385.37
113172.65
113143.49
113455.21
113202.39
113859.12
113735.91
114394.68
114380.88
114820.74
115067.14
114300.96
115784.98
114477.7
115554.07
115393.45
114406.72
114151.6
114612.88
114115.72
115123.25
114522.68
115534.57
115417.7
115284.92
115535.28
115163.66
116376.55
115171.31
117179.96
117047.3
114553.99
115168.23
115122.17
115338.81
115484.93
115512.97
116131.95
115965.48
116182.44
117189.78
117049.15
117720.78
117120.32
117213.36
117925.38
115826.96
115498.08
115976.87
115741.81
116434.31
115850.07
116405.89
116561.79
116889.77
116398.09
117325.5
117154.26
118283.18
117888.93
118632.27
115869.4
116028.89
116293.25
116295.61
116733.48
116632.99
117206.22
117200.13
117458.44
118135.13
116971.3
119246.92
118454.11
119484.7
118881.1
116065.02
116224.48
116379.55
116640.51
117058.86
116769.54
117685.54
117221.91
117801.17
117607.16
117467.84
118150.64
118881.07
118188.91
119770.2
116846.6
116140.86
116898.53
116322.64
117299.8
116965.85
117519.42
117514.27
117808.45
118337.9
118756.13
119840.65
118270.67
120889.21
119878.43
116153.02
116426.18
116662.29
116980.92
116790.29
117363
117452.9
117895.65
117833.15
118229.64
118383.67
118857.51
118718.94
119112.06
120132.11
117073.71
116296.54
116797.15
116756.67
117578.76
117382.05
117889.07
117857.7
118444.38
118602.96
118973.93
119308.18
119404.03
120970.6
120552.06
116294.17
117021.17
117010.31
116938.91
117326.78
117557.41
117806.05
118055.83
118190.55
118573.59
118598.58
119240.51
119546.38
120079.07
120782.55
117626.85
116690.15
117397.25
117526.44
117944.39
117869.99
118290.34
118375.86
118797.64
119097.31
119115.92
120139.48
119522
121280.24
121349.23
117627.13
117167.27
117680.44
117572.05
118080.84
117952.83
118668.71
118421.58
119141.88
119235.51
119523.4
120033.87
120042.03
121012.02
121558.25
118558.04
117617.45
118283.2
118347.94
118629.87
119038.93
119065.92
119461.51
119444.62
119970.82
119964.13
120879.04
120609.6
122104.21
122020.81
118804.24
118287
118781.89
118758.54
119307.74
119203.74
119702.53
119639.45
120127.09
120254.63
120562.4
121065.44
121193.86
122023.65
122549.41
119964.03
119059.38
119717.3
119807.27
120164.5
120321.08
120636.39
120752.48
121029.12
121337.58
121383.17
122135.39
121965.32
123035.52
123252.4
120255.37
120035.47
120396.32
120303.28
120761.11
121183.49
121146.21
121566.15
121567.07
121984.38
121962.45
122631.97
122390.35
123436.65
123375.12
121318.6
121276.7
121405.13
122300.17
121968.12
122426.03
122530.3
122696.43
122845.14
123183.12
123019.34
123715.94
123527.84
124237.62
124763.22
122813.85
121808.7
122670.96
122512.23
123269.22
122944.69
123556.23
123320.32
123812.53
123769.15
123864.34
124361.68
124164.28
124622.77
125045.09
123518.28
123110.61
123543.24
123919.09
123972.38
124421.89
124408.19
124741.16
124750.05
124965.62
124863.01
125418.53
125093.98
125525.07
125667.43
124473.77
123794.69
124500.63
124611.86
124989.99
125045.36
125341.24
125346.45
125455.88
125640.52
125487
125927.25
125610.19
125768.33
126108.59
125271.6
124685.59
125369.08
125620.93
125834.92
126139.76
126265.68
126345.13
126456.17
126591.8
126363.97
126780.2
126340.43
126391.88
126562.75
125691.25
125202.64
125896.5
126053.42
126362.77
126502.03
126678.74
126729.82
126798.42
126908.83
126654.69
126971.5
126552.87
126372.78
126700.36
126126.52
125528.86
126301.37
126523.47
126806.52
127011.98
127205.74
127198.5
127278.56
127352.01
127039.1
127340.72
126811.56
126533.88
126709.31
125972.8
125501.91
126276.84
126451.26
126730.41
126950.9
127066.39
127076.74
127128.55
127166.14
126841.92
127068.44
126551.02
126090.84
126406
125683.91
125116.17
125969.15
126121.03
126490.92
126673.04
126835.56
126812.68
126877.78
126890.07
126548.92
126756.82
126159.43
125688.67
125870.06
124797.74
124343.3
125170.06
125349.9
125652.1
125888.04
125996.64
125975.27
126029.41
126001.25
125669.3
125801
125264.31
124668.93
124934.35
123669.48
123106.76
124055.97
124153.04
124545.76
124765.52
124905.98
124883.91
124956.61
124911.91
124596.15
124725.63
124155.93
123576.93
123785.02
121929.72
121514.75
122402.54
122539.67
122890.51
123148.37
123265.99
123243.77
123300.9
123254.22
122966.51
123034.92
122549.84
121937.54
122227.77
119955.82
119424.56
120403.18
120483.55
120900.21