/*--------------------------------*- C++ -*----------------------------------*\
  =========                 |
  \\      /  F ield         | OpenFOAM: The Open Source CFD Toolbox
   \\    /   O peration     | Website:  https://openfoam.org
    \\  /    A nd           | Version:  6
     \\/     M anipulation  |
\*---------------------------------------------------------------------------*/
FoamFile
{
    version     2.0;
    format      ascii;
    class       pointScalarField;
    location    "1.23";
    object      E;
}
// * * * * * * * * * * * * * * * * * * * * * * * * * * * * * * * * * * * * * //

dimensions      [1 -1 -2 0 0 0 0];

internalField   nonuniform List<scalar> 
28033
(
99909.161
99707.209
2407.2504
2067.5421
116626.27
114649.72
2899.9919
3151.1814
58306.609
40082.711
26638.498
18480.897
10378.838
6335.8565
4152.1718
4006.3959
6540.187
10550.2
17506.769
27619.979
40475.406
55587.108
84354.52
4167.7557
3429.1651
3417.4752
3079.2984
2631.2771
2716.0631
1812.111
2225.218
2073.6007
1800.761
2307.2602
2134.4882
2389.2548
2813.2747
3414.7301
74697.165
45001.866
43193.488
42612.767
43589.088
43453.186
43429.66
42684.057
42117.614
40906.318
39859.334
38562.668
37057.916
35561.044
33816.671
32090.106
30289.118
28749.569
26953.439
25357.877
23864.955
22337.972
20873.412
19619.182
17970.387
16982.148
15334.07
14324.183
12802.674
11766.201
10681.413
9485.4661
8389.208
7504.4005
6598.8216
6098.24
5033.7071
4583.7774
3804.9563
3096.4252
2398.0503
1784.7901
1180.4925
720.39448
318.91471
108.74357
-170.17736
-163.80817
-345.84313
-286.97944
-431.59027
-437.22647
-587.3238
-684.68211
-831.10861
-948.18795
-1059.1969
-1123.575
-1166.9364
-1159.5737
-1148.7438
-1078.0835
-1074.001
-923.65469
-874.25914
-790.63346
-626.77836
-559.1906
-364.1307
2.66685
139.80351
451.74144
643.58607
945.54267
1177.937
1395.9196
1580.4625
1806.8424
1891.2975
2012.2322
2211.4884
2233.2611
2495.5094
2304.5582
2603.7374
2502.9056
2810.2099
2704.5038
3107.5069
2876.4034
3440.0119
2999.8344
3727.85
3264.3618
3396.7106
81774.332
49092.633
56017.739
49799.657
51693.788
51160.448
50472.227
50130.149
49593.931
48163.743
47557.326
45731.385
44799.358
42907.186
41417.933
39571.825
37771.819
35832.638
33965.741
32230.076
30053.228
28747.354
26639.328
26029.349
23913.105
23310.931
21296.063
20352.593
18474.624
17348.19
15406.381
14276.492
12806.462
11675.585
10525.631
9617.0472
8689.6576
7837.0435
7012.5651
6545.6206
5814.6027
5314.0914
4748.1239
4313.1039
3819.1814
3509.825
3145.5593
2933.7669
2707.3508
2539.9921
2365.4379
2182.4529
1943.1665
1693.6608
1361.4905
1028.1457
679.82523
348.73705
73.755311
-122.12013
-238.11596
-252.28392
-177.71877
-34.747743
166.68217
390.21596
670.95561
946.27929
1309.3353
1430.5662
1743.2149
1877.7484
2302.3206
2375.1146
2712.8939
2843.0351
2982.4515
3156.5865
3168.091
3246.9437
3286.2115
3227.6163
3334.9883
3284.7611
3422.8795
3451.0936
3639.2483
3719.2755
3918.1006
4014.3364
4140.4465
4148.0218
4118.2823
3964.7338
3651.2584
74019.329
49047.101
32729.046
25753.748
13585.859
8229.4641
5814.3855
5315.935
7780.4189
13648.128
19390.805
29815.839
42697.337
61305.642
81325.377
145162.45
69593.325
40034.215
58424.073
51084.483
53124.729
52547.545
52518.752
51879.089
51535.963
50495.445
48064.575
48264.513
44394.155
44717.22
40588.943
41274.504
35583.779
37191.804
32280.759
32027.264
30742.457
28542.719
27499.065
24592.173
23921.248
22247.71
19895.448
19485.404
15753.979
14686.54
13297.32
11987.047
11239.821
10030.046
11219.004
8444.9168
8815.1183
7924.0553
7217.1235
6491.6229
5717.1121
4996.9817
4352.5934
3859.8299
3458.5859
3193.4755
2979.9033
2786.942
2547.0524
2225.4515
1798.2985
1285.82
694.92639
132.62046
-388.95782
-775.34441
-993.93668
-1049.1615
-914.99433
-684.24747
-344.50554
-15.144903
308.80575
567.39025
758.83998
973.09088
581.17802
1714.114
1188.75
1431.5947
1481.5296
1708.3639
1907.8213
2060.4765
2174.0311
2231.6729
2259.2226
2198.2907
2192.8
2133.5723
2193.1931
2218.4513
2402.1332
2514.7932
2771.179
2906.0376
3121.4936
3176.8793
3264.5475
3198.7429
3142.653
3046.2242
2808.2399
3114.3309
3696.0496
3837.2656
2857.4735
2631.3714
2722.4201
2115.4793
2242.6959
1812.8658
3151.6377
1612.1349
2900.8954
1710.2722
4243.4576
2207.3858
4411.9584
4227.8283
3065.3657
4104.1889
3653.5352
3750.0273
3526.7566
3404.7448
3238.7606
3022.2751
2891.1297
2716.9918
2608.9809
2569.9717
2422.8387
2408.584
2339.3742
2297.6897
2223.9725
2130.1495
2007.4693
1858.8888
1680.5532
1503.6074
1249.3075
1201.9701
882.76516
982.61837
-792.95714
466.08874
-195.9541
-293.28655
-588.98576
-823.4856
-1015.8914
-1158.2681
-1226.9316
-1218.2853
-1133.3415
-981.07711
-779.9294
-552.62125
-315.47293
-93.294866
112.22247
292.9395
461.7824
632.33036
809.2302
1040.9511
1297.8887
1603.8578
2002.8026
2390.8563
2882.5303
3306.2638
3918.0097
4228.6785
5499.4108
5027.5875
6155.5309
7829.5493
7149.9706
8912.1997
9960.1781
11512.381
12419.281
13430.055
14555.422
15736.729
17621.68
19092.064
20228.288
20440.226
23547.034
24020.601
25461.672
27592.245
28971.451
31233.424
32422.931
34648.089
36287.111
38368.591
38982.632
42419.111
41593.652
43454.636
44525.433
45595.272
43492.94
44487.439
46466.912
46546.407
34430.409
89132.542
58887.997
59545.541
56963.998
57568.384
58766.189
60088.552
59706.343
60514.588
60584.842
60319.141
58064.564
56383.011
57784.937
59498.503
64547.124
74066.225
75210.099
72671.094
76204.962
75881.47
75089.901
79056.309
83110.928
81442.736
81073.039
77424.606
75031.508
73706.987
73067.263
81053.243
2828.6024
2797.8631
2822.0156
2761.4866
2728.1838
2702.4576
2681.9581
2677.8547
2717.6111
2745.1555
2821.7084
2805.2256
2882.2277
2618.6405
3324.3324
3282.7674
2933.3972
3229.393
2968.1701
3174.934
3124.0433
3143.1454
3138.2757
3175.6151
3164.4706
3248.5294
3159.9801
3223.3434
3057.5261
3535.8208
54509.643
36864.554
34102.431
33198.997
33010.218
33277.55
33308.745
33404.714
32810.97
32664.284
31395.539
30858.762
29269.833
28667.197
26905.176
26303.577
24888.277
23977.253
22670.354
21762.8
20413.359
19191.567
17982.686
16436.026
15250.607
13857.946
12663.825
11532.157
10699.364
9926.7143
9180.8966
8805.198
8458.849
8107.0056
7870.7888
7269.2091
6915.2888
6337.9425
6008.1511
5456.2954
5160.6596
4706.2792
4425.1214
4127.015
3695.0876
3332.7829
2834.1854
2348.0195
1759.4753
1236.589
695.7442
292.97082
-6.9463322
-125.49149
-81.571619
118.04624
442.71945
834.59328
1250.3273
1639.4271
1954.1973
2208.3696
2321.6954
2436.5953
2352.0197
2298.0259
2395.2018
2252.9742
2351.1919
1976.2365
1984.0209
1818.9381
1752.2966
1646.9081
1550.0114
1478.2051
1485.5284
1460.8924
1631.6216
1704.4356
2027.6767
2203.1063
2543.4276
2730.2774
2980.8887
3207.5799
3386.6822
3404.29
3599.745
3390.1403
3686.5292
3370.2945
3794.178
3458.3584
3953.0082
34358.207
24529.455
25524.863
23228.152
23709.025
23018.863
23210.942
23012.021
22914.987
22547.577
22102.745
21634.423
20920.907
20240.276
19414.682
18927.777
17755.323
17329.339
16339.115
15737.221
14723.684
14063.889
12998.446
12259.053
11268.913
10505.473
9585.6392
8888.928
8159.8272
7590.0995
7057.2767
6694.9992
6133.8455
5730.6718
5386.2644
4972.7828
4762.6611
4480.9862
4067.9373
3702.0019
3402.1857
3101.9721
2884.7107
2549.9859
2307.0199
2123.9898
1857.1205
1639.3384
1395.1178
1155.5361
914.08013
723.75422
557.97442
465.37405
434.23786
477.52829
570.65063
716.56696
881.00072
1046.5833
1196.2525
1326.024
1415.259
1479.4682
1547.4091
1641.076
1563.9409
2110.2624
1982.2105
2070.5518
2237.2099
2228.2671
2220.699
2226.5424
2240.9102
2254.9422
2318.5262
2361.8332
2533.6139
2534.5059
2875.2535
2782.7317
3231.6706
2953.2552
3610.0706
3626.574
3947.5465
3756.9156
4186.1286
3831.7005
4259.0498
3859.7391
4351.5322
3304.7785
4745.5143
21727.581
14469.044
16739.7
15169.805
15600.741
14858.223
14992.685
14982.909
14840.188
14817.272
14485.522
14403.739
13783.593
13635.017
13036.803
12688.475
12194.512
11884.462
11251.488
10950.966
10368.273
9906.7742
9330.5148
8754.127
8120.0006
7527.0816
6963.6287
6412.3156
6000.3205
5567.0765
5264.5482
4899.4558
4754.2349
4523.6625
4340.5883
4075.917
3714.3964
3237.6792
3122.5774
2863.0353
2671.62
2496.8907
2224.1487
2163.3791
2076.9664
1928.4611
1773.4381
1624.07
1427.0032
1213.7402
1040.6063
857.48606
757.78442
695.36525
732.35591
811.01535
968.0711
1145.7904
1341.9424
1521.0856
1682.4803
1809.7113
1875.9954
1952.2005
1983.9027
1937.2769
2142.1627
1888.2616
2056.5086
1919.5863
2026.3965
1913.3213
2031.9723
2062.1474
2134.2871
2151.8782
2224.2185
2311.0665
2382.4411
2487.5956
2657.3939
2746.7893
2851.3833
3271.2631
3326.1081
3148.7298
3214.2577
3304.4752
3439.4587
3244.0832
3611.7001
3188.7899
3661.3917
2875.0958
5129.9468
13326.757
8196.6855
9060.5111
8969.7374
8963.3023
8844.1197
8958.17
8980.5449
8860.5099
8982.3232
8851.3526
8820.4132
8522.4185
8599.6352
8036.9159
8205.8201
7605.8622
7674.5438
7157.3894
7187.2586
6585.6502
6547.2587
5931.9291
5785.6802
5223.5668
5013.7919
4499.9903
4293.7595
3869.0262
3710.7169
3387.6521
3292.565
3097.39
2890.8056
2837.222
2550.743
2569.569
2807.2326
2651.1818
2466.7741
2287.2393
2187.4453
2064.4943
1955.3496
1809.8289
1707.4854
1629.5074
1553.3649
1464.1646
1400.8596
1324.2564
1252.3517
1199.9135
1150.3661
1130.5489
1128.4618
1156.5831
1198.5472
1265.2878
1337.0039
1416.8082
1487.4699
1537.4701
1630.9978
1625.0891
1725.3537
1722.2417
1796.9732
1965.6376
1805.2756
2115.3104
2168.9809
2055.6746
1960.2558
2052.5765
2065.4264
2144.4113
2137.8417
2272.4345
2276.3834
2468.4445
2424.9529
2821.067
2610.9662
3028.0036
2907.5472
3595.6869
3305.4774
3876.0703
3460.6311
4112.6419
3416.0971
4431.0729
2806.1252
5856.3404
8142.6086
3322.8316
4654.5001
3878.7448
4509.6416
4264.0694
4640.4387
4500.2232
4740.395
4813.316
4803.3801
4845.7152
4806.2259
4774.8021
4661.2116
4722.1848
4500.1219
4638.0706
4371.7078
4461.5817
4188.2492
4256.5592
3896.4195
3908.2234
3500.8122
3398.9238
3103.3047
2919.4191
2744.8812
2601.4629
2512.3968
2438.4299
2343.6168
2333.6869
2239.3339
2079.7357
2243.4763
1520.4894
1411.2245
1277.2802
1358.3718
1186.2598
1173.8787
1167.5714
1171.7099
1157.3616
1151.2559
1090.5684
1051.1792
985.37144
934.4309
872.98781
864.40343
840.15951
882.23306
919.70789
997.82494
1074.4036
1163.885
1245.5542
1319.5481
1377.0405
1437.8186
1515.5284
1484.1077
1632.4858
1702.5185
1600.4285
1786.0668
1791.0117
2039.5783
1921.8154
2287.6117
2793.3197
2760.9152
2850.863
2844.0917
2942.7155
2982.6054
3055.0696
3152.1625
3271.5883
3308.9255
3527.1925
3535.6074
3704.5766
3583.456
3622.9119
3649.051
3535.0381
3710.6175
3515.6864
4053.0554
2757.7959
6336.6289
4533.2933
1141.6279
1603.1844
1271.7726
1518.5776
1734.6139
1806.5786
2071.2516
2148.6077
2362.5954
2371.6027
2618.3869
2481.685
2752.1291
2554.3472
2792.0279
2587.0383
2851.3265
2607.9872
2899.8753
2622.1041
2840.7826
2522.8889
2678.9712
2315.6778
2485.8899
2092.7247
2223.4009
1936.1746
1991.9623
1822.7396
1799.0537
1751.9631
1708.5787
1628.7983
1683.9627
1547.2308
1963.38
1749.5234
1710.41
1538.5473
1566.5138
1456.1363
1496.6811
1448.1211
1434.8549
1377.6838
1369.865
1322.9993
1302.0696
1267.5157
1256.2805
1242.2337
1254.1598
1270.0609
1304.4557
1341.9275
1381.1992
1432.4407
1461.1054
1480.5521
1550.9317
1532.0674
1531.9425
1668.3273
1588.2409
1673.4344
1722.5
1838.0376
1851.1965
1875.3905
2002.3575
1962.4882
1591.926
1611.2966
1616.7651
1716.2342
1742.0898
1842.621
1868.6212
2059.5515
1977.0225
2355.8637
2143.8865
2635.4103
2410.9675
3011.1321
2772.2553
3470.0031
3065.3967
3932.8404
3254.8094
4316.4395
2915.8003
6600.0925
3072.3689
-202.74886
529.74474
-157.64847
437.58441
408.94415
869.42141
874.05077
1227.6299
1267.9784
1467.4903
1462.1088
1569.7754
1587.1301
1566.6388
1693.4383
1631.3362
1786.1977
1703.7885
1920.16
1753.1158
2007.4872
1733.7387
1928.4366
1687.9195
1723.9099
1522.3821
1549.3777
1364.1754
1425.4501
1301.9184
1384.9795
1346.362
1323.2869
1358.2808
1280.3287
1221.0403
1101.1778
1030.3294
1010.7711
927.38517
942.05044
927.00859
962.85831
1003.0017
1030.3444
1132.4611
1138.2752
1197.02
1175.5805
1200.1705
1153.0196
1169.2991
1139.737
1173.3535
1184.3699
1252.5124
1302.8826
1386.7723
1434.0038
1546.2057
1562.7497
1619.6968
1736.791
1700.0791
1834.5046
1878.2325
1987.5682
2079.0631
2127.0667
2421.3663
2296.6522
2564.721
2676.4532
2894.2786
2982.8064
3063.1816
3094.1295
3190.3922
3242.6374
3311.2435
3463.4088
3481.2207
3667.1932
3706.6676
3809.0434
3839.2267
3852.3406
3900.4236
3712.1026
3879.6276
3487.0144
4335.2366
2810.9883
6924.6178
2978.1839
478.96141
891.69878
750.05829
1027.91
1325.9616
1491.7476
1661.154
1845.7016
1967.7762
2025.5019
2189.1207
2178.7948
2285.1911
2274.2219
2370.2032
2312.4721
2454.8096
2379.429
2507.3635
2339.6011
2451.817
2270.9979
2512.8665
2146.9431
2397.6994
2075.4676
2215.2423
1967.8791
2047.9322
1861.1236
1912.1584
1743.8275
1787.7612
1712.0802
1620.534
1653.3022
1569.3942
1526.9821
1497.9223
1385.3853
1384.0904
1341.6648
1349.5524
1291.205
1345.516
1302.3702
1329.8575
1300.6831
1308.8001
1263.9912
1252.9858
1212.8995
1185.0783
1163.9686
1146.721
1151.0505
1150.2997
1166.6355
1203.2409
1211.0821
1233.9851
1299.6913
1267.0522
1339.0115
1345.8522
1405.8357
1438.7165
1484.2642
1601.7983
1550.384
1679.7832
1770.7965
1640.1536
1560.9709
1534.832
1585.8084
1596.9943
1682.0082
1646.7313
1836.4865
1719.2945
2018.9411
1856.2872
2240.3332
2081.6286
2552.0951
2386.846
2937.0856
2757.885
3508.6095
3252.4332
4215.9429
3031.017
6722.2785
4271.6228
1750.7912
2588.0932
2334.3732
2884.1254
2961.4423
3360.6072
3292.451
3584.0385
3450.858
3572.6348
3396.3209
3352.6003
3171.861
3055.2501
2922.2555
2824.0676
2753.5254
2688.8237
2730.4896
2723.3886
2935.9264
2780.2595
2714.2493
2521.0385
2511.3979
2204.8587
2204.6015
1939.8446
1944.2408
1772.1126
1765.6033
1671.3795
1688.4805
1488.0421
1577.6029
1323.5413
1327.5205
1123.1696
1017.5074
919.52697
827.14221
820.75139
759.73333
850.25631
843.18906
938.48897
947.42553
1016.7331
997.12037
1022.5125
978.24788
970.57606
931.67313
934.88002
927.30537
968.52522
988.01828
1074.9197
1103.7854
1172.7923
1243.8859
1258.6885
1336.1259
1369.3322
1460.5897
1500.2888
1598.5086
1738.8405
1801.6234
2000.1127
2116.4217
2255.0039
2373.0535
2730.7463
2758.1631
2877.8878
2941.9859
2991.2784
3107.8782
3105.8091
3290.6875
3283.5202
3487.1404
3521.1301
3669.57
3723.6794
3813.3764
3859.4261
3861.5504
3937.4573
3665.723
4268.6977
3052.3607
6610.1839
7953.4776
5561.179
6634.8322
6643.849
7282.6543
7404.3666
7630.0631
7476.2468
7581.6978
7536.6261
7410.3544
7353.9273
7227.8144
7035.3127
6922.1465
6661.7453
6531.8071
6281.3563
6146.5238
5895.7571
5737.3824
5423.4251
5059.4577
4991.1452
4730.3311
4623.1705
4296.1218
4258.7657
3895.0837
3860.2825
3523.1401
3471.9965
3237.7955
3070.6047
3016.584
2784.9472
2692.4581
2554.3094
2377.5319
2333.6266
2167.0866
2130.6709
1982.3138
1987.6435
1857.8499
1867.6267
1786.0419
1778.2364
1705.0178
1677.1736
1598.5694
1541.0609
1470.8582
1410.4244
1352.9074
1318.1485
1287.2784
1283.9517
1293.462
1295.2143
1351.4707
1360.5531
1408.7471
1448.3417
1504.5369
1515.5641
1594.2754
1668.2094
1700.9795
1779.6885
1834.7467
1865.7402
1909.0849
1898.4728
2029.5428
1833.3163
2015.7931
1902.6426
2105.503
2000.8456
2254.5741
2148.4085
2440.2154
2332.9903
2656.566
2525.4612
2920.2778
2741.1571
3204.3202
3027.0257
3506.8655
3436.7015
4059.6715
3543.8353
6545.5366
9199.7654
8560.1033
9532.4666
9957.2758
10648.205
10715.583
10802.051
10614.585
10664.511
10356.435
10084.567
9773.2262
9410.5803
8937.5449
8665.3896
8083.7332
8007.714
7356.4036
7377.5467
6773.0375
6895.4929
6472.265
6480.7494
6201.1078
5835.7957
5398.6844
5041.8538
4585.4542
4186.5206
3840.2903
3480.6793
3295.1725
2903.2859
2889.9743
2473.3362
2415.9439
2140.7321
1972.0217
1782.2205
1542.4475
1410.6809
1177.7143
1128.4839
973.73764
969.96003
893.97086
905.68149
832.24158
819.34306
720.96587
642.9194
512.39673
404.77799
268.59885
180.63961
101.66639
74.739865
79.747294
123.60366
199.17618
293.93326
396.71094
501.6888
641.61147
717.43636
882.85838
1001.8185
1114.6971
1253.8316
1407.591
1544.995
1687.3285
1807.456
2008.3741
2206.131
2390.7103
2338.0137
2482.3919
2457.4736
2586.9745
2625.0557
2768.297
2859.242
3040.9296
3156.1836
3383.1867
3484.2337
3723.567
3820.2907
3983.1663
4164.5052
4092.9333
4487.7016
3902.4089
5748.4327
20295.287
14676.201
16840.393
17216.492
17919.254
17659.501
17854.657
17507.514
17402.129
17033.733
16680.885
16199.025
15795.455
15110.192
14663.106
14022.593
13500.826
12893.334
12426.761
11868.52
11302.83
10925.673
10941.187
10428.626
9951.9881
9460.2983
8943.2057
8512.2962
8036.8944
7649.3982
7273.6936
6856.432
6592.8777
6224.3404
5972.2154
5709.6743
5336.7244
5106.3728
4679.6804
4462.9985
4035.6537
3845.0557
3470.9975
3311.9853
3034.6356
2904.7184
2723.1417
2615.4347
2487.3323
2387.1451
2274.5008
2180.1121
2085.3379
2007.4539
1950.7775
1917.8138
1909.3225
1923.2866
1960.0769
1999.0216
2046.01
2083.1452
2116.7327
2122.6879
2126.7675
2123.1454
2104.0895
2113.0327
2135.8086
2151.4094
2168.2374
2165.5277
2267.9573
2146.2132
2199.3713
2135.4601
2133.6914
2164.971
2218.3602
2243.4063
2345.2954
2365.0298
2469.9306
2499.2451
2606.549
2605.249
2717.1654
2689.958
2785.6867
2809.7266
2932.4191
3023.4818
3599.7683
3439.4749
5690.7124
31369.157
26779.325
27513.18
27024.178
26727.569
26255.357
26152.189
25394.937
25219.473
24458.507
23826.713
23113.454
22100.423
21263.894
20269.945
19213.515
18391.054
17276.633
16622.001
15500.1
14935.019
13886.626
13277.338
12229.577
11747.329
10526.381
9943.94
8867.5605
8132.6529
7367.3005
6624.3256
6135.5994
5481.0215
5161.7765
4624.0239
4262.1417
3907.6895
3515.2945
3236.8637
2809.038
2582.6355
2215.6927
2009.7159
1750.69
1571.7523
1366.5034
1207.903
984.95399
790.04643
525.67423
269.08796
-24.380677
-292.88892
-552.89028
-750.08019
-890.99443
-955.7882
-938.67138
-859.65028
-717.06847
-546.52425
-333.28297
-152.13244
82.520973
238.90907
466.02217
586.16243
772.59169
891.14743
1026.9648
1092.3747
1292.8354
1207.5475
1403.4142
1336.7975
1459.8181
1395.762
1427.0176
1393.6142
1500.8828
1543.1804
1717.249
1872.1491
2139.0244
2349.7731
2686.4199
2921.1491
3267.6269
3514.2889
3795.7118
4048.7323
4187.5734
4443.0476
4176.667
5024.101
45740.453
37704.194
37334.39
35380.708
36155.014
35500.031
35473.282
35160.946
34910.609
34230.123
33572.698
32536.429
31641.32
30341.656
29189.04
27792.705
26645.464
25197.801
24342.531
22885.739
22141.144
20784.466
19856.886
18670.229
17667.985
16529.009
15645.027
14431.578
13584.781
12461.718
11732.162
10805.89
10164.909
9580.4341
8882.6625
8423.5414
7850.0506
7396.7329
6759.8355
6347.6649
5728.5605
5311.1942
4788.7563
4424.4603
4030.5571
3750.5594
3470.3756
3240.808
3009.3507
2778.6239
2530.5667
2267.5751
2002.829
1737.0533
1505.9531
1312.3287
1181.2318
1108.9057
1106.2346
1149.7438
1236.4288
1344.3952
1457.9676
1567.2362
1660.6441
1762.5284
1838.3629
1955.0829
1988.1702
2040.9842
2183.2615
2154.2733
2312.5875
2287.8086
2357.4487
2317.3823
2360.2987
2319.298
2340.9567
2336.7364
2364.649
2409.1058
2506.3141
2573.2548
2730.7529
2806.4903
2973.6038
3026.7773
3136.6355
3170.0661
3183.542
3222.8118
3283.6901
3502.6651
4277.1427
55841.966
47415.647
44674.867
42960.847
44224.673
43212.402
43658.711
43143.279
42517.121
41617.657
40144.044
38949.936
37415.361
35753.508
34535.694
32658.846
31710.73
29775.401
28894.083
26807.893
26048.766
23471.502
22722.428
20168.157
19209.829
17415.237
16419.063
15348.437
14596.13
14086.462
13421.958
13002.353
12430.401
11880.406
11128.473
10548.611
9878.3022
9054.9771
8423.8235
7615.1059
7019.1863
6359.6932
5796.2748
5207.588
4631.9228
4007.6591
3384.9526
2724.5588
2113.4043
1550.1697
1100.2262
800.14134
671.72203
708.50789
911.5493
1226.0225
1597.2044
1991.6163
2329.4898
2595.8869
2755.7889
2827.7595
2782.128
2703.9324
2543.9086
2398.0402
2137.1309
2012.2992
1707.7169
1752.485
1385.6241
1380.4796
1059.8106
1055.9222
873.31701
949.89359
960.45266
1153.1512
1386.9747
1721.0552
2027.5411
2464.1508
2720.8638
3116.6165
3267.0096
3534.3339
3572.2643
3717.6515
3737.4295
3815.6406
3908.8441
4082.9025
4162.8357
4519.7857
4418.7926
29907.695
30322.92
23852.3
23033.272
21919.312
22032.035
21401.698
21709.512
21831.248
22461.463
22085.302
22204.279
25156.938
27016.862
34017.292
21814.044
18788.479
15165.936
15480.58
13867.34
13933.234
13251.573
13596.776
14011.049
13802.823
14157.836
14971.104
16168.449
19155.975
23683.45
14116.638
11072.63
6986.3136
6676.8008
5548.7298
5275.4873
5209.2267
4900.0505
5030.0624
5244.237
5683.9452
6117.7955
7356.5402
10469.356
14676.072
9286.9814
7277.0763
5341.4236
4353.6764
4101.7621
3720.4169
3684.6159
3501.4332
3781.8038
3850.4287
4269.5158
4581.36
6056.2552
8012.3309
10121.137
5480.7982
3950.7423
2219.8552
1856.9153
1338.0767
1239.9357
1104.1385
1095.0764
1092.4945
1234.6931
1433.4802
1894.368
2735.2465
3888.4711
6573.2523
4247.4353
2557.0688
1559.8358
1278.858
987.08665
912.05833
796.39515
826.65459
845.40433
916.2307
1119.9812
1297.5824
1792.2485
2818.9436
4666.0696
2262.0862
1237.1227
672.66629
361.63563
219.5507
75.354922
45.235629
-0.23436051
25.030242
86.02508
199.48196
455.27808
789.80247
1619.8029
3040.6873
2388.2901
1383.6894
782.50003
574.98995
389.54725
327.70503
265.79893
274.65734
291.91067
346.85129
452.79276
611.8183
919.43768
1635.3093
2969.5291
2918.6022
1811.2098
1035.779
762.04018
533.08412
430.39027
376.56525
391.90512
389.93912
508.98476
620.42418
862.44432
1303.4141
2274.3988
3352.7543
5530.2386
4014.1954
2609.4692
2207.2864
1800.0616
1695.8297
1589.5298
1576.6319
1594.4959
1610.1568
1963.2326
2017.8245
2893.0752
4342.2741
6147.3083
7849.6074
6035.8926
4002.9965
3579.8112
2909.5484
2831.3592
2636.1782
2723.8518
2697.7613
2826.054
3161.0907
3753.6436
4824.2063
6849.8686
8990.947
13931.889
9692.7448
7604.7498
6588.5905
5926.4168
5536.6209
5451.6503
5346.9656
5465.8675
5564.9862
6125.8142
6155.8829
8139.1921
10715.014
14450.768
19995.898
16040.64
12849.82
11598.882
10611.36
10488.757
10065.305
10390.444
10397.25
10156.268
10932.064
11312.774
13203.438
17021.46
20609.005
32777.562
25857.96
22604.798
20987.793
20055.216
19618.771
20124.456
20280.013
20135.267
19881.755
20116.589
20746.096
22633.645
26021.55
34183.441
44048.753
44588.85
36162.052
35230.172
33726.546
31874.135
34076.107
35515.91
33136.06
34688.533
33671.272
34543.036
36590.087
40830.736
49324.519
103207.52
89396.11
90540.523
92028.109
93877.211
93145.994
96983.001
99978.247
102620.33
101906.2
98966.971
94450.122
93950.885
95364.221
94364.025
74180.145
63112.563
63110.598
61063.773
57744.803
61128.833
59548.135
59747.986
63734.729
59861.574
61304.369
59577.034
64361.784
69152.938
76999.189
55093.879
57583.714
54550.88
52692.47
55087.763
49138.693
48786.121
49019.61
45668.243
51193.259
50647.078
56787.723
56613.441
55831.689
58253.637
53512.889
58805.256
57754.648
54721.832
53829.971
53696.203
52686.55
53285.917
53497.83
53092.962
55211.565
56122.496
57650.535
58946.959
55517.079
55328.808
56858.868
55547.539
58280.788
55874.326
55607.895
56058.724
55284.176
56071.459
58437.903
56960.327
58639.783
57051.299
56707.206
55587.667
51995.925
55448.897
55569.624
55895.732
55823.778
55649.338
54980.727
54890.967
55365.762
54500.866
56208.023
55855.597
55994.179
55725.848
52829.603
52433.178
54600.763
55167.87
55314.718
55440.397
55701.288
55971.952
55843.521
56185.434
56568.474
55841.024
56318.628
55308.298
53942.921
53721.857
51941.309
52677.346
53837.884
54721.939
55193.392
54884.072
54968.58
55243.064
54800.705
55374.382
55167.496
54835.296
54270.766
52613.244
52196.542
50520.869
52198.155
52747.677
53472.071
52992.937
53778.828
53605.996
53866.196
53988.225
53689.089
53559.098
52983.654
52683.729
51925.711
51256.67
50525.679
50229.826
51338.139
51501.913
52154.918
52021.581
52355.175
52263.809
51690.575
52728.997
51754.173
52453.904
51407.945
50917.724
51254.026
48738.363
49510.592
49875.794
50510.15
50354.815
50970.061
50795.386
50982.338
51473.258
50690.353
51504.491
50620.248
50680.389
50237.71
50196.334
48532.508
47574.773
48266.216
48322.891
48697.17
48674.371
48806.348
48711.035
48406.875
48772.511
48192.018
48409.721
47969.822
47682.434
48812.253
46576.618
46377.856
46100.915
46878.79
46657.104
46970.739
47028.989
47021.119
47529.107
47343.083
47604.724
47457.591
47405.409
47518.46
47578.464
44994.633
44236.371
45036.775
44351.641
44799.324
44999.405
44895.695
44660.968
44408.653
44396.888
44033.387
44272.228
43975.493
43730.802
45493.649
43246.687
42150.39
42274.227
42934.704
43017.895
42634.427
42860.24
42615.566
43216.403
43227.696
43734.668
43657.218
43705.527
44068.875
44363.369
40876.71
40421.203
40952.215
40580.872
40178.387
40819.592
40842.211
40432.354
40125.076
40073.49
39530.626
39824.174
39716.011
39628.346
41107.255
39001.048
37807.524
38124.722
37982.492
38754.262
38414.721
38426.546
38161.38
38840.678
38667.949
39346.068
39259.993
39376.963
39061.904
40901.063
36673.155
36383.771
36433.296
36456.879
35931.4
36431.546
36036.503
36462.322
36092.489
36169.348
35679.311
35615.07
35528.059
35728.221
36228.503
35068.129
34198.732
34851.114
34417.47
34732.544
34215.776
34851.757
34168.866
34607.973
34457.289
34385.221
34884.719
35209.336
35262.707
36818.883
32852.617
32406.365
32309.143
32479.813
32378.391
32698.435
32617.464
32573.204
32584.607
32534.102
32863.935
32695.475
32440.172
32278.922
33002.544
31816.08
30938.454
31580.616
30954.967
31136.355
30607.257
31216.086
30846.75
31133.314
30564.994
30973.539
30883.105
31964.523
31394.826
32770.015
29773.687
29589.916
29363.233
29682.804
29257.306
29874.027
29206.798
29578.637
28960.201
30169.163
29565.833
29917.704
29202.323
28733.488
31373.859
29412.349
27709.615
28549.819
27755.949
28159.955
27904.075
28045.029
27603.94
28029.583
27673.618
27325.827
27465.329
27649.947
27857.877
29890.493
27148.968
27075.521
26606.774
26868.568
26325.708
26186.864
26039.03
26065.419
26150.782
26042.555
26324.015
26674.311
27119.757
26284.993
29467.886
27059.929
25179.697
25099.565
24616.059
25124.924
24462.16
25221.532
24638.589
24835.255
24621.076
25016.123
24956.577
24540.215
24512.908
27394.527
24595.43
23476.029
23744.471
23455.709
23256.575
23530.487
23035.481
22953.162
23041.153
22891.609
23016.322
23293.593
24004.94
23947.86
25738.408
23575.818
22121.993
22328.423
21655.141
22284.777
21463.418
21725.172
21524.559
21552.114
21546.221
21604.725
20772.174
21444.742
20591.643
24324.547
21383.899
20045.992
19928.161
20273.295
19510.119
19504.209
19577.45
19358.821
19671.738
19444.997
19816.32
20158.997
19984.621
20303.301
21821.214
19893.19
18681.833
18455.276
17945.334
18120.334
18038.583
18000.729
17852.24
17861.138
17842.057
17835.835
18217.734
17849.176
17219.081
20616.232
17576.325
16283.174
16672.1
16482.065
16444.33
16315.86
16203.919
16114.515
15937.243
15878.497
15873.788
15778.139
16788.02
15991.765
17687.259
16391.442
15448.232
15781.341
15091.688
15303.06
14408.847
14911.031
14484.398
15333.93
14686.753
14788.995
14583.451
14536.205
14142.786
15743.927
14847.063
13635.502
13809.407
13469.65
13629.544
13440.305
13560.035
13375.383
13300.784
13145.455
13209.59
13225.009
13263.101
13103.648
14239.669
13180.366
12227.047
12658.51
12348.414
12541.112
12215.997
12488.983
12030.794
12366.628
12024.832
12375.505
12011.409
12218.335
11938.731
12525.518
11932.445
11221.75
11618.918
11276.621
11493.066
11227.811
11380.546
11212.915
11305.75
11202.895
11166.854
11160.762
11166.993
10914.402
11346.34
10858.537
10320.326
10752.808
10790.581
10606.699
10459.802
10637.009
10433.545
10583.009
10467.049
10620.536
10484.262
10524.88
10513.376
10688.925
10026.078
9729.1391
9982.4731
9433.0952
9803.2049
9639.4388
9775.9408
9572.1011
9881.7428
9232.0342
9783.4894
9495.0991
9734.774
9354.1102
9958.66
9053.1086
8804.5257
9343.3328
9044.1768
9329.3082
8886.6735
9240.1261
8860.4823
9075.565
9294.6681
9083.6061
9115.5209
8934.7879
9031.046
9095.935
8740.4423
8746.9855
8887.9081
8800.8437
8659.2559
8639.158
8608.2034
8504.938
8613.866
8280.7668
8576.6297
8230.1968
8648.0736
8285.5397
8390.4325
8550.2301
7858.4374
8313.7986
7866.1533
8274.9062
7767.5949
8139.8042
7729.9243
7930.0056
7788.1876
7791.2212
7886.3396
7808.8234
7622.8527
8013.9811
7695.9458
7384.4845
7580.3772
7490.026
7430.888
7271.0801
7358.0036
7077.2914
7334.4711
6948.5369
7282.399
6948.2544
7111.4077
6975.7188
7264.384
7265.0147
6729.861
7073.7086
6657.1929
6921.3651
6503.9683
6738.5942
6450.772
6547.6487
6415.5574
6449.2608
6341.5477
6438.0343
6206.552
6623.7458
6524.4402
6158.0114
6239.1818
6107.0186
6156.9158
5864.6702
6076.1863
5674.7884
5948.6316
5607.2174
5760.0586
5639.9404
5632.918
5491.418
6015.3912
6019.9563
5469.0968
5723.8728
5402.4802
5556.7514
5231.3075
5393.5867
5115.6607
5253.0416
5003.9098
5138.0861
4964.5728
4984.3243
4837.5517
5458.8021
5364
4971.3804
5047.8218
4839.7129
4955.7321
4619.1564
4845.3957
4488.2211
4662.8576
4431.5643
4483.1404
4399.5141
4380.9894
4218.4305
5066.5417
5014.0748
4451.6089
4620.4502
4370.1277
4478.369
4174.0362
4369.85
4036.241
4226.3496
3948.5924
4053.5869
3953.8407
3933.9747
3756.3235
4867.1734
4643.8322
4105.7293
4220.2117
3971.8239
4070.9519
3770.8792
3959.4041
3657.31
3785.1257
3593.4755
3640.6579
3583.4287
3597.7121
3357.5834
4854.8953
4527.7283
3841.1576
3965.2426
3704.2534
3819.2482
3500.4961
3721.1337
3366.5134
3553.3514
3326.54
3380.4428
3351.9202
3386.0497
3082.4442
4989.3043
4460.6035
3653.715
3766.5149
3510.7171
3551.4688
3255.8006
3416.9131
3125.4316
3263.6578
3079.124
3132.2396
3129.7209
3224.8341
2843.0866
5213.2686
4478.2792
3505.9138
3625.5379
3300.2055
3386.1384
3058.7403
3276.7853
2939.7904
3098.6871
2908.9174
2959.2617
2963.1782
3098.4066
2630.3636
5399.2497
4474.7972
3350.37
3421.4778
3137.4859
3149.1393
2829.6282
2973.9191
2660.4146
2800.167
2630.7773
2688.8617
2701.869
2903.7969
2359.1652
5472.3962
4391.4544
3095.3271
3208.6085
2841.2358
2871.5552
2533.9139
2731.6752
2412.0641
2560.2832
2380.2454
2432.8409
2433.2204
2650.3316
2046.083
5327.4211
4139.7437
2787.8597
2840.6108
2503.1233
2513.1874
2194.3541
2329.5499
2002.6559
2130.7361
1953.6353
2020.3199
2004.5355
2252.2704
1625.0557
4931.1008
3744.4959
2311.9237
2413.2961
2050.7128
2068.4943
1723.9497
1897.2637
1594.5958
1737.797
1556.3592
1614.0504
1567.1795
1795.6261
1164.7142
4276.9669
3134.0372