/*--------------------------------*- C++ -*----------------------------------*\
  =========                 |
  \\      /  F ield         | OpenFOAM: The Open Source CFD Toolbox
   \\    /   O peration     | Website:  https://openfoam.org
    \\  /    A nd           | Version:  6
     \\/     M anipulation  |
\*---------------------------------------------------------------------------*/
FoamFile
{
    version     2.0;
    format      ascii;
    class       pointVectorField;
    location    "0.24";
    object      lm;
}
// * * * * * * * * * * * * * * * * * * * * * * * * * * * * * * * * * * * * * //

dimensions      [1 -2 -1 0 0 0 0];

internalField   nonuniform List<vector> 
3969
(
(-4.0340813e-15 -4.7705825e-17 1.3312818e-16)
(9.2297575e-16 -2.6090405e-16 -6.0252577e-16)
(5119.8782 -1046.9533 34.007447)
(4736.7097 -2086.0912 4.8455992)
(-7.1783695e-15 2.6020842e-15 -1.0366567e-15)
(-4.622429e-15 2.1493156e-15 -1.5432914e-15)
(4727.1469 -2128.4531 7.2300121)
(5087.8534 -1116.3044 25.412952)
(-6.09887e-15 1.0869625e-16 -2.0095736e-16)
(-3.193382e-15 6.5333688e-16 6.3735029e-17)
(-2.9260211e-15 2.9260844e-16 -4.8432863e-17)
(-1.7497804e-15 -1.5755452e-16 -2.074758e-16)
(-4.3254872e-15 8.6218995e-16 7.3228779e-16)
(-2.4697388e-15 -4.9707839e-16 4.8086129e-16)
(5.2680668e-16 -4.7467027e-16 -5.3018058e-16)
(5063.1187 -1191.0228 22.881116)
(5007.6036 -1326.0904 14.216606)
(4956.2199 -1451.8934 10.32555)
(4911.2886 -1570.13 10.583634)
(4870.5389 -1689.429 12.272503)
(4830.1782 -1812.6972 13.012381)
(4787.7511 -1943.781 10.732239)
(19.95738 36.147037 35.400016)
(39.504956 63.161549 42.057344)
(69.372542 87.773529 42.434927)
(112.75418 109.86951 39.084097)
(167.63896 128.46141 29.482365)
(235.16929 142.41091 16.374994)
(311.39636 151.39358 -0.065115603)
(393.99148 154.06579 -16.750644)
(477.25358 150.32099 -32.170243)
(558.46869 140.52833 -43.769849)
(632.6846 125.47728 -49.990845)
(698.87158 106.28015 -50.694386)
(755.9765 85.346702 -47.104462)
(804.96923 64.891672 -39.266038)
(848.68671 46.742544 -29.442018)
(889.78279 33.403986 -19.191331)
(932.28454 25.896647 -9.2551495)
(979.11516 24.933902 -0.21426439)
(1033.7964 30.385503 8.0433214)
(1098.5555 41.092928 15.931792)
(1175.2604 55.192305 24.215845)
(1264.6743 70.313915 33.370362)
(1367.2596 83.530714 43.608192)
(1483.104 92.16314 54.391785)
(1611.9005 93.573696 64.592764)
(1753.5701 86.019372 72.952895)
(1907.3232 67.995027 77.664376)
(2072.623 38.691327 77.232643)
(2247.8324 -1.7000631 70.92512)
(2430.3599 -52.363441 59.102338)
(2617.0304 -111.87392 42.90347)
(2803.5376 -178.17838 24.797473)
(2985.1677 -248.77153 7.8082848)
(3157.4194 -320.74197 -4.8662472)
(3316.9475 -391.2766 -10.302478)
(3461.7811 -457.77464 -7.0444096)
(3592.4573 -518.06614 4.6492955)
(3712.6682 -571.73966 24.116096)
(3827.3121 -618.97086 46.328555)
(3942.286 -661.36847 68.091254)
(4064.0629 -701.05692 84.658022)
(4197.0452 -740.85356 93.756047)
(4341.9435 -783.59539 92.701796)
(4498.4758 -829.9874 85.760605)
(4659.4853 -880.39288 70.267017)
(4822.0261 -938.79669 58.756431)
(4976.5209 -993.70219 44.644713)
(-1.2772668 -29.639612 -34.618037)
(24.264679 -47.217257 -25.885365)
(52.603462 -73.639952 -23.549699)
(85.740932 -95.487549 -19.994774)
(131.66746 -118.23481 -21.061465)
(187.16393 -137.85518 -21.021427)
(253.68127 -153.11949 -21.761788)
(329.50266 -163.05905 -18.360116)
(411.80201 -168.11551 -13.354952)
(496.81076 -168.19633 -4.3313431)
(579.72565 -165.37934 6.0231419)
(655.57704 -160.26645 15.200649)
(722.33004 -154.05042 22.227326)
(777.93629 -150.08283 23.572169)
(823.16298 -149.551 18.376812)
(859.49778 -153.92929 6.1860778)
(890.95604 -164.99468 -12.045932)
(921.53085 -183.41761 -34.309297)
(956.57447 -210.47437 -57.754607)
(999.97827 -245.94135 -79.535089)
(1055.2485 -290.58585 -96.841761)
(1124.7568 -343.26608 -108.12282)
(1208.8178 -404.45793 -112.36389)
(1307.6621 -472.92615 -109.73716)
(1419.5953 -547.32434 -102.14302)
(1544.1456 -626.98847 -91.098584)
(1680.2385 -710.29962 -78.431101)
(1827.7187 -796.01199 -66.165411)
(1984.4483 -881.23632 -54.660248)
(2149.4453 -964.5077 -44.089117)
(2321.1024 -1044.1302 -34.554797)
(2496.6845 -1118.1968 -25.580589)
(2672.7582 -1185.8417 -17.10202)
(2845.0261 -1246.6653 -9.3285654)
(3009.2305 -1301.3518 -3.0105761)
(3161.5395 -1351.6385 0.87961938)
(3300.4805 -1399.8017 1.2235947)
(3425.8249 -1448.7254 -3.4236022)
(3540.5643 -1500.8207 -11.354651)
(3649.9385 -1558.5132 -22.439167)
(3759.4533 -1622.5109 -34.095467)
(3874.9714 -1691.9531 -44.195225)
(4000.7796 -1765.1928 -50.177964)
(4138.0993 -1838.8369 -50.268544)
(4285.598 -1909.7005 -44.052523)
(4439.0665 -1975.1805 -31.573532)
(4591.8564 -2034.0705 -14.194341)
(-3.9179893e-16 -2.8384427e-17 -1.6191597e-16)
(6.8869455e-16 3.3255846e-16 -2.9305012e-16)
(-3.0379221e-16 -4.0639439e-16 3.7376104e-16)
(8.6048107e-16 -8.7588792e-17 1.0515471e-16)
(5.0258192e-16 -7.4376592e-16 6.4035694e-16)
(-2.9679417e-15 -3.4669267e-16 7.3060073e-16)
(8.9003905e-16 -2.834795e-16 1.0120244e-16)
(8.0017088 -22.958327 38.6078)
(25.557716 -66.577641 47.179554)
(46.792499 -68.031209 43.976942)
(86.146818 -100.96789 42.384744)
(133.33318 -117.31965 32.288948)
(196.87989 -141.79194 17.362801)
(271.0542 -156.3038 -1.2627636)
(354.37536 -178.51764 -24.485599)
(441.97746 -187.87257 -42.545497)
(526.37394 -201.32984 -60.359357)
(605.66425 -207.75203 -67.008712)
(677.22838 -207.8023 -70.496815)
(734.69489 -208.19161 -64.27383)
(779.39368 -207.00862 -49.901917)
(812.82391 -206.40261 -30.896508)
(840.68557 -211.60335 -9.879108)
(866.89499 -223.15521 10.006529)
(897.22071 -245.12141 26.357515)
(935.88919 -277.85468 37.945799)
(986.15838 -322.3487 44.549575)
(1049.7375 -377.61927 47.138531)
(1126.9831 -442.30372 47.165438)
(1217.3223 -514.23204 46.268806)
(1319.5767 -591.11879 45.782695)
(1433.2281 -671.69222 45.875962)
(1556.3954 -752.40152 47.770437)
(1684.9093 -833.50881 52.018568)
(1825.1929 -913.3851 53.69645)
(1975.9413 -992.45125 51.705718)
(2136.848 -1070.3853 45.349043)
(2305.9983 -1146.1405 34.882971)
(2480.4831 -1218.6418 21.782764)
(2655.9307 -1286.449 8.5102011)
(2827.2106 -1348.4176 -1.9170265)
(2989.7118 -1403.5962 -6.5867057)
(3137.5022 -1453.0628 -3.5607748)
(3274.5431 -1499.1245 7.120923)
(3395.4537 -1541.4264 23.752392)
(3508.7568 -1585.6129 43.754752)
(3617.8817 -1634.1433 62.431401)
(3730.2696 -1688.9522 75.806751)
(3851.1491 -1750.5664 80.926356)
(3983.507 -1817.8213 76.900193)
(4127.3562 -1887.6462 65.027134)
(4278.9976 -1956.4406 48.813781)
(4432.8662 -2020.3797 32.083442)
(4583.1127 -2077.1394 19.606371)
(4777.5193 -1982.4075 -1.0837096)
(4821.3017 -1848.582 -2.2816091)
(4856.7087 -1725.5009 3.2807688)
(4897.2584 -1611.523 13.644119)
(4937.8102 -1499.0759 26.662022)
(4987.7429 -1384.8741 33.377055)
(5036.2396 -1253.5361 33.451107)
(4952.0099 -1063.694 10.195784)
(4810.5153 -1002.6474 0.36118831)
(4662.5816 -944.52728 -5.9169675)
(4510.1387 -894.76446 -9.7878551)
(4361.2258 -853.99486 -7.9522273)
(4218.6373 -819.185 -2.495742)
(4083.5695 -787.11967 5.1438573)
(3955.2684 -753.19291 13.116788)
(3831.2433 -713.18361 19.94523)
(3706.7195 -664.6631 24.309436)
(3578.5878 -607.20967 26.288356)
(3441.2898 -540.22654 26.05242)
(3296.4342 -468.89631 24.20401)
(3139.9866 -395.99112 22.191451)
(2974.3513 -325.61044 20.390999)
(2801.1697 -260.94688 18.689205)
(2623.0867 -204.02145 16.484591)
(2443.1245 -155.58929 12.561383)
(2263.6302 -115.59381 6.0969609)
(2087.4861 -82.651806 -3.9908383)
(1916.8382 -56.146823 -17.31035)
(1753.8266 -35.081567 -32.968709)
(1601.0838 -18.997098 -49.522955)
(1460.4198 -7.6969692 -64.282996)
(1334.2607 -1.4266396 -75.023328)
(1224.1004 -0.21725615 -79.591446)
(1130.9334 -3.4266524 -77.143795)
(1054.5543 -9.939783 -67.621351)
(993.47285 -17.710854 -52.56125)
(944.85856 -24.334634 -34.155897)
(904.83059 -27.256078 -15.404825)
(868.91572 -24.195953 1.4035996)
(831.84097 -12.445406 12.558813)
(790.29254 6.2591408 19.527778)
(741.36831 30.283543 21.765669)
(683.13199 58.14798 15.90281)
(614.20676 89.456984 8.5818296)
(538.96674 116.74048 0.26860176)
(458.29722 135.50384 -6.6841722)
(376.99694 148.29111 -13.313207)
(298.82875 152.59141 -17.305192)
(224.89408 142.41762 -19.047395)
(163.92213 128.0368 -19.270011)
(109.9806 104.12379 -21.056489)
(69.719043 79.085855 -22.792252)
(36.689197 52.589224 -25.972593)
(21.014828 29.294536 -23.869239)
(-6.7652979e-16 3.5118239e-16 1.2802193e-16)
(-2.3129286e-15 2.7505878e-16 1.3239036e-16)
(-3.6393531e-15 -1.4253491e-16 -1.5464221e-16)
(-4.9195801e-15 -9.3657526e-16 4.6870719e-16)
(-4.0844143e-15 -8.2232132e-16 1.723462e-16)
(-2.0271537e-15 -1.8079967e-16 2.6438577e-16)
(-2.0670014e-15 8.6459225e-16 1.4474963e-15)
(-4.5036838e-15 1.2268482e-15 -2.065022e-16)
(-1.9919023e-15 1.1694967e-15 -1.6367101e-16)
(-2.9438013e-15 1.1112212e-15 -1.969436e-16)
(-2.4504202e-15 9.597151e-16 -1.1789697e-16)
(-5.2893259e-15 2.5926013e-15 -8.0820905e-16)
(-1.8775489e-15 1.1365606e-15 -5.8525306e-16)
(-7.4714327e-17 -2.094137e-16 9.7564992e-17)
(4736.1252 -2104.8663 0.85399495)
(4741.3542 -2123.3213 1.7951987)
(4744.4814 -2140.36 6.7899503)
(4745.2917 -2152.7808 11.505742)
(4741.8205 -2157.7536 14.499164)
(4736.2307 -2154.0569 13.690173)
(4729.1646 -2144.07 9.8730469)
(5136.2059 -1041.0107 38.441348)
(5149.2437 -1041.866 41.533956)
(5152.9706 -1049.6683 41.018559)
(5147.2052 -1062.1275 36.938292)
(5133.1292 -1076.956 30.838741)
(5115.0136 -1091.4707 26.732728)
(5099.644 -1104.1021 24.178703)
(8.8027068 21.873467 32.648296)
(28.727958 38.640915 32.676398)
(58.751055 55.452744 36.596934)
(100.90283 68.799715 33.644597)
(156.05363 79.477248 26.257707)
(223.03904 86.954262 15.764089)
(299.66799 89.94796 1.9440686)
(382.517 89.739121 -12.091077)
(467.37532 84.520889 -25.064106)
(549.92085 76.043384 -34.5043)
(626.15752 64.159025 -39.605002)
(693.77278 50.050627 -40.360782)
(751.96014 35.177107 -36.378541)
(801.49397 20.663915 -29.595826)
(844.20837 7.8556954 -21.528211)
(883.19153 -1.9338811 -13.274886)
(922.45617 -7.9142687 -6.2620504)
(965.37096 -10.133352 -0.56909545)
(1015.3249 -8.972044 3.8625473)
(1075.1134 -5.6051179 7.6819386)
(1146.5889 -1.4556324 11.875131)
(1230.905 1.3889489 17.136582)
(1328.7068 1.0304024 24.00877)
(1439.9211 -4.6445344 32.178856)
(1564.7858 -17.221251 40.972944)
(1702.9476 -38.317426 48.964758)
(1853.568 -68.442679 54.379353)
(2016.4718 -107.92091 56.132658)
(2189.8197 -156.22085 53.212884)
(2371.4397 -212.10022 45.337558)
(2558.2175 -273.91904 33.669679)
(2745.8525 -339.54961 19.930946)
(2929.7058 -406.38941 6.6820815)
(3105.0835 -472.08538 -3.3223057)
(3268.0238 -534.37498 -7.9583647)
(3416.3766 -591.86745 -5.5854465)
(3550.1931 -644.04667 3.3135023)
(3671.6561 -691.16137 18.058016)
(3785.989 -735.14217 35.131236)
(3899.2549 -777.78622 51.577725)
(4017.9205 -821.25082 64.274073)
(4146.5941 -867.45163 70.764553)
(4288.799 -917.29124 70.261716)
(4440.7741 -970.56247 64.165171)
(4602.6119 -1026.1526 53.918451)
(4766.0064 -1084.4552 44.424464)
(4919.5706 -1139.3729 33.793735)
(2.766118 15.575161 24.084892)
(22.101756 23.97998 25.826002)
(52.952296 34.485973 28.064434)
(95.431321 41.660254 24.990627)
(149.51145 45.959345 20.064044)
(216.17491 48.099972 11.079497)
(292.676 47.843056 0.90567164)
(375.99864 45.597699 -10.529181)
(461.27528 40.919384 -19.779919)
(544.55705 34.574778 -27.026617)
(621.86485 25.36552 -30.468926)
(690.48555 15.000748 -30.242001)
(748.90406 3.0538373 -27.078554)
(797.96008 -9.3821454 -22.039922)
(839.33571 -20.967625 -16.213953)
(876.15751 -30.884775 -10.941695)
(912.57047 -38.79888 -6.8740445)
(952.14268 -44.251517 -4.0635476)
(998.78957 -47.662592 -2.4379165)
(1055.3569 -49.795104 -0.95710567)
(1123.9354 -52.082003 1.0094855)
(1205.8596 -56.202296 4.2894871)
(1301.2838 -64.054116 9.2163245)
(1410.8063 -77.458956 15.758349)
(1533.6495 -98.303029 22.996041)
(1669.879 -127.44187 30.193489)
(1818.7995 -165.68888 35.114516)
(1979.4875 -212.97526 37.688601)
(2150.7977 -267.9949 36.26019)
(2330.6636 -329.47232 31.016313)
(2515.957 -395.18126 22.752678)
(2702.6116 -462.77847 12.948545)
(2886.0989 -529.74307 3.5002998)
(3061.624 -593.86372 -3.5483895)
(3225.2932 -653.54134 -6.4567262)
(3374.4745 -708.1681 -4.3476966)
(3509.1705 -757.78328 2.5383463)
(3631.272 -803.80662 13.360963)
(3745.8606 -848.02746 25.757321)
(3858.4587 -892.73277 37.432894)
(3976.0554 -939.61869 46.225311)
(4102.7272 -989.98411 50.534858)
(4242.692 -1044.2096 49.986751)
(4393.3394 -1101.0545 46.108538)
(4552.5587 -1159.5525 38.53107)
(4715.7807 -1219.8789 32.768005)
(4867.3192 -1275.1312 23.954575)
(-1.7993788 9.0185734 16.559775)
(16.261852 13.752983 18.910616)
(46.555394 19.912618 21.385195)
(87.321408 22.783183 20.806391)
(142.1034 23.803638 16.5659)
(209.17184 23.868989 9.670042)
(285.80655 22.08073 0.81965386)
(369.40685 19.67569 -7.7200429)
(455.55799 15.490548 -15.499043)
(540.33581 10.069398 -20.773346)
(618.61275 3.6024219 -22.731576)
(688.00727 -4.7143195 -21.809827)
(747.41072 -13.883748 -18.864513)
(796.35818 -24.423745 -14.540953)
(837.01948 -34.979129 -10.450468)
(872.93214 -45.005576 -7.7249077)
(907.5226 -54.050991 -6.4483311)
(945.07237 -61.980482 -7.1481916)
(989.30226 -69.097193 -8.8701225)
(1043.2297 -76.039732 -10.928739)
(1109.1755 -84.033253 -12.188951)
(1188.4354 -94.806034 -11.663505)
(1282.0715 -109.70117 -8.7544652)
(1389.5473 -130.78312 -3.9164348)
(1510.9449 -158.97233 2.720968)
(1645.6696 -195.49527 9.4667605)
(1793.3663 -240.5431 15.422889)
(1952.7652 -293.65172 19.328879)
(2122.796 -353.93855 20.291255)
(2301.2537 -419.66063 17.992481)
(2485.1044 -488.48788 13.133135)
(2670.4424 -558.36291 6.6627665)
(2852.7342 -626.80291 0.19864182)
(3027.2987 -691.88562 -4.6981104)
(3190.1835 -752.46491 -6.6372192)
(3338.9281 -807.89065 -5.0128179)
(3473.2701 -858.9097 0.25281862)
(3595.3584 -906.58924 8.1422755)
(3709.5691 -953.09444 16.944666)
(3821.787 -1000.5114 25.177491)
(3938.3917 -1050.3756 31.090629)
(4064.0012 -1103.9655 33.794253)
(4202.2375 -1161 33.170671)
(4351.1752 -1220.6055 29.72921)
(4508.5951 -1281.6188 25.570368)
(4670.3029 -1342.4846 20.878186)
(4820.1827 -1399.8431 17.179419)
(-3.627495 5.0462873 8.6557044)
(14.500333 6.9311131 10.398274)
(42.773029 8.5396732 12.753593)
(84.798194 7.9508904 11.912995)
(139.42627 6.2351745 9.1593275)
(205.65508 4.3220788 3.6184137)
(281.89689 1.5858331 -2.4860619)
(365.17353 -0.39603936 -9.1087826)
(451.45358 -3.7200919 -13.435779)
(535.69071 -7.0923366 -15.709822)
(614.35871 -12.58758 -15.532174)
(685.03284 -19.340719 -13.558775)
(744.91211 -27.598833 -10.326279)
(794.43154 -37.472629 -6.6011456)
(835.52695 -47.654935 -4.9401946)
(870.85554 -58.167088 -4.5986397)
(904.19523 -68.220667 -6.8453128)
(940.06276 -78.016638 -10.797261)
(982.0667 -87.652368 -16.091077)
(1033.8635 -98.026384 -21.197738)
(1097.9149 -110.17113 -25.240506)
(1176.5785 -126.16113 -26.846774)
(1268.5698 -147.33485 -26.12025)
(1374.742 -174.86048 -22.239206)
(1494.7611 -210.03881 -16.546834)
(1628.3097 -253.56706 -9.7232757)
(1774.5021 -305.28186 -3.0163523)
(1932.5105 -364.54638 2.2272999)
(2100.9816 -429.94796 5.0125271)
(2277.8906 -499.67729 5.3404789)
(2460.2971 -571.65918 3.296477)
(2644.275 -643.77957 -0.072746189)
(2825.3052 -713.98735 -3.6792192)
(2998.6965 -780.73494 -6.2377927)
(3160.5115 -843.07312 -6.8185505)
(3308.25 -900.79796 -4.9756959)
(3441.6732 -954.49773 -0.92685555)
(3562.6858 -1005.4365 4.2603518)
(3676.0611 -1055.4495 9.7518649)
(3787.4039 -1105.937 14.410835)
(3903.187 -1158.9351 17.159502)
(4027.6507 -1214.8093 17.387586)
(4164.477 -1273.8391 16.212277)
(4312.185 -1334.91 13.407357)
(4467.8791 -1397.151 12.126863)
(4628.0878 -1458.3609 10.505391)
(4777.6962 -1517.409 12.399679)
(-4.018051 -0.37906682 -0.098375972)
(12.453465 -1.4074661 1.5310727)
(40.108053 -3.5837927 4.0528837)
(80.18187 -8.3563246 5.5067568)
(132.9458 -13.486326 4.0046622)
(198.15428 -17.728349 0.92761085)
(273.27949 -21.583101 -3.5227163)
(356.63302 -23.478085 -7.6161566)
(442.57832 -25.556218 -10.157979)
(528.74666 -27.050628 -11.05531)
(609.88302 -29.625774 -10.186057)
(681.88709 -33.325076 -7.6003614)
(743.17054 -39.880812 -4.1567072)
(793.76485 -47.734425 -2.1435013)
(834.69275 -57.55598 -1.6220323)
(869.1214 -68.217902 -3.8747846)
(901.07573 -79.663759 -8.9757869)
(934.77629 -91.575277 -16.186826)
(974.80109 -104.28821 -24.781085)
(1024.407 -118.74872 -32.864128)
(1087.2738 -135.33735 -39.949905)
(1162.9106 -157.70965 -43.422536)
(1253.9809 -184.51796 -43.929816)
(1359.5336 -218.77222 -41.466184)
(1479.0436 -261.16935 -36.280046)
(1611.6222 -311.57358 -29.154288)
(1756.9899 -369.95216 -21.655628)
(1913.8139 -435.29668 -15.081519)
(2080.7924 -505.85447 -10.030511)
(2256.0003 -579.9221 -7.0871227)
(2436.6249 -655.31982 -5.9381313)
(2619.0457 -730.02522 -6.1102654)
(2798.7795 -802.32503 -6.736643)
(2971.2931 -870.77935 -7.0814336)
(3132.4867 -934.9274 -6.4890248)
(3279.8116 -994.61975 -4.9084918)
(3412.6434 -1050.7003 -2.4799135)
(3532.8978 -1104.4227 0.036933228)
(3644.9689 -1156.7555 2.7525404)
(3755.2934 -1210.4379 3.9082187)
(3868.9952 -1266.1268 4.0828964)
(3991.5998 -1324.7338 2.9924825)
(4126.0983 -1386.1226 1.5076339)
(4272.2652 -1449.4042 -0.14494367)
(4426.539 -1513.2384 0.86051901)
(4585.3024 -1575.1636 1.6691306)
(4736.3818 -1635.5819 8.2558767)
(-6.624753 -8.0516871 -10.325212)
(10.50608 -9.855385 -5.8734002)
(38.564574 -16.788916 -4.3078845)
(78.403878 -25.827475 -2.9980379)
(130.89952 -33.375659 -4.3511477)
(194.57034 -40.369134 -6.7578943)
(268.8538 -44.787602 -9.6935358)
(351.00217 -47.223403 -11.830464)
(436.89511 -48.570629 -11.789012)
(523.36945 -49.16969 -9.8112383)
(604.67398 -50.725795 -5.9139353)
(677.93235 -53.265485 -0.58978238)
(740.76986 -58.113181 3.3531492)
(792.41911 -64.924097 5.6485699)
(834.12861 -73.91831 4.3743392)
(868.80718 -84.621324 -0.6823024)
(900.17698 -97.07846 -9.6215249)
(932.86069 -111.04087 -21.155094)
(971.23273 -127.32478 -34.141051)
(1019.1146 -146.21553 -46.384996)
(1079.304 -169.43106 -56.697105)
(1154.5584 -196.82997 -62.235936)
(1243.5678 -231.64824 -65.319015)
(1347.9526 -274.88594 -62.518713)
(1465.4581 -325.26727 -56.771389)
(1595.9762 -383.57494 -48.54277)
(1739.3869 -448.71767 -39.658521)
(1893.9562 -519.59098 -30.830886)
(2058.701 -594.77641 -23.583191)
(2231.7034 -672.26801 -18.059461)
(2410.3562 -750.02073 -14.290464)
(2591.13 -826.29849 -11.722383)
(2769.6458 -899.6519 -9.7590251)
(2941.3615 -969.04836 -7.8698299)
(3102.1201 -1034.0516 -5.7998359)
(3249.1058 -1094.9161 -3.635525)
(3381.6046 -1152.3677 -1.854131)
(3501.4243 -1207.5505 -1.0900876)
(3612.7954 -1262.4236 -2.0605916)
(3721.5269 -1317.9153 -3.9818436)
(3834.1693 -1376.3998 -7.3211024)
(3955.4171 -1437.463 -11.280362)
(4088.3699 -1501.6742 -14.175768)
(4233.0948 -1567.3317 -15.744552)
(4385.5788 -1633.3712 -13.155369)
(4541.9237 -1696.7581 -8.6629424)
(4693.5402 -1757.8227 3.1574228)
(-7.0006961 -13.28314 -16.959219)
(13.535708 -18.870921 -16.725423)
(41.490834 -38.094336 -14.783178)
(79.437935 -54.556415 -12.488726)
(128.21394 -69.442181 -12.456398)
(188.755 -81.267804 -12.713097)
(259.65602 -87.965686 -14.216134)
(340.04853 -91.552281 -13.176757)
(425.50642 -91.652213 -10.972013)
(512.83758 -90.72299 -6.3036859)
(596.33696 -90.459455 -0.272713)
(671.63425 -90.647134 5.4692754)
(736.4792 -94.18679 10.347835)
(789.29712 -100.04388 11.470998)
(831.40763 -108.99703 8.3392499)
(864.90202 -120.41824 0.24916574)
(894.24196 -134.37235 -12.072923)
(924.05524 -150.77609 -27.577734)
(959.45714 -170.2688 -44.221584)
(1004.6889 -193.63247 -60.055234)
(1063.0595 -222.13696 -72.870572)
(1135.9813 -257.35889 -81.402878)
(1224.6663 -300.24279 -84.886649)
(1327.7902 -352.22192 -83.297782)
(1444.521 -412.02444 -77.854379)
(1573.6267 -479.91476 -69.163068)
(1714.9602 -554.7113 -59.209189)
(1866.793 -634.09011 -49.190855)
(2028.1965 -716.14061 -39.82465)
(2197.7293 -798.31198 -31.473107)
(2373.3732 -878.49261 -24.313963)
(2552.0779 -955.1131 -18.097782)
(2729.6714 -1027.0646 -12.631513)
(2901.691 -1094.0334 -7.8362719)
(3063.5756 -1156.3092 -4.0121849)
(3212.1607 -1214.8907 -1.5678375)
(3345.8941 -1271.262 -1.0894572)
(3466.2753 -1326.5758 -3.1735766)
(3577.263 -1382.7234 -7.4580053)
(3684.3809 -1441.0857 -13.278649)
(3794.279 -1502.4455 -20.206239)
(3912.7062 -1566.6509 -26.031093)
(4042.8319 -1632.8871 -29.727526)
(4185.3619 -1699.8273 -29.93476)
(4337.0498 -1765.6421 -25.571061)
(4493.244 -1828.6618 -17.583068)
(4646.7974 -1888.3682 -4.8312309)
(-1.8726199e-15 -1.0357256e-16 4.2324109e-16)
(-4.3693994e-15 5.8098526e-16 1.0825799e-16)
(-1.86708e-15 5.0203615e-16 5.7484399e-16)
(-1.1298519e-15 4.4303811e-16 -1.5186772e-16)
(-1.5283164e-15 1.7502349e-16 4.7144117e-17)
(-3.9278597e-15 -6.147074e-18 -1.0233878e-17)
(-3.270765e-15 8.5080195e-17 2.8271762e-17)
(-1.444637e-15 3.1767481e-17 -1.0328492e-16)
(-1.9600489e-15 -2.0641393e-16 2.5996682e-17)
(-1.0758982e-15 -5.0887233e-16 -1.6282415e-16)
(-1.1902312e-15 -6.3217422e-16 -1.0496995e-16)
(-2.2455722e-15 -1.0363924e-16 3.7607835e-16)
(-1.7254929e-15 1.2766475e-16 7.9907906e-17)
(-6.542485e-16 2.4659353e-16 4.7610311e-16)
(-1.0183069e-15 2.0413811e-16 3.0876606e-16)
(-1.2825224e-16 3.2154578e-16 2.6910031e-16)
(-2.4669526e-15 5.8726168e-16 -3.2350189e-17)
(-1.9694108e-15 5.8752001e-16 2.9593509e-16)
(-1.9972486e-15 5.0741204e-16 1.6376266e-16)
(-5.0142844e-16 5.9082617e-16 -1.5096731e-17)
(2.8672985e-17 2.0007103e-16 -2.079567e-16)
(-3.5598279e-15 1.6770216e-16 6.1584209e-17)
(1.5219227e-15 -3.8112137e-16 -3.4960392e-16)
(-8.8364966e-17 -1.5289127e-16 1.7491834e-16)
(2.7397895e-16 -2.6900304e-16 -2.0413732e-16)
(-5.1236454e-16 -3.7600259e-16 -4.411389e-17)
(-1.3114086e-15 -5.3747975e-16 1.2489795e-16)
(2.0041989e-16 -4.4379834e-16 -1.4360784e-16)
(-1.3448657e-15 3.3966264e-16 -2.7012678e-16)
(-2.2010094e-15 1.2158219e-16 1.1470551e-16)
(-1.2722141e-15 -2.3577892e-16 -7.7366055e-17)
(-2.6936153e-15 2.298542e-17 6.0151854e-16)
(-1.8084585e-15 2.5926424e-16 8.2177642e-17)
(-1.0121806e-15 3.7760621e-16 1.5728837e-17)
(-3.5076342e-15 -1.049112e-16 -1.8966684e-16)
(-1.2388067e-16 -2.746004e-16 -1.3203227e-16)
(-1.1077126e-15 -2.2449831e-16 5.9960705e-17)
(-7.9462407e-16 5.2806017e-17 1.8160622e-16)
(-1.481116e-15 2.6347307e-16 -6.003674e-17)
(5.3541372e-16 1.9494005e-16 5.7756958e-17)
(-2.5861876e-15 -7.0653702e-17 -1.8824779e-16)
(-1.6152529e-15 1.8241927e-16 3.8488004e-16)
(-1.0389662e-15 3.299921e-17 2.9700946e-16)
(-3.8817577e-15 -1.9427146e-16 -1.2145786e-15)
(-1.6161979e-15 2.8442108e-16 -1.856842e-16)
(8.1577518e-16 1.8112067e-17 2.0819295e-16)
(-2.485062e-15 2.8178417e-16 -5.4749215e-16)
(-1.8307085e-15 4.4562511e-16 -1.4619564e-16)
(-1.4586292e-15 4.0358521e-16 -4.0281137e-16)
(12.345669 -10.638788 -14.612535)
(15.475574 -14.465425 -7.8724739)
(18.633199 -14.757306 -1.2896998)
(20.295559 -15.673439 3.4624217)
(19.114914 -14.607854 9.4341198)
(18.075244 -14.983178 14.617982)
(14.499142 -10.944188 21.924761)
(35.397213 -52.193634 -18.966416)
(40.848516 -59.109405 -5.0853828)
(41.963881 -56.084395 3.0457427)
(41.120635 -54.958811 8.7219771)
(42.385157 -58.025087 14.891559)
(39.0977 -56.931748 22.299965)
(36.009438 -59.598248 35.216263)
(57.299638 -73.015686 -9.4554607)
(62.437311 -72.57132 -4.2861912)
(65.384269 -74.634455 3.3914173)
(65.910172 -75.984905 10.540594)
(64.475528 -75.576007 18.509646)
(62.348239 -75.301095 25.029049)
(58.111078 -77.967651 35.411498)
(92.044071 -97.192396 -11.483073)
(98.573859 -99.779663 -5.9333845)
(99.452706 -101.69457 2.7748344)
(100.85537 -103.44605 7.9075889)
(99.353247 -104.62317 14.119126)
(99.805486 -104.19857 22.483746)
(91.847342 -102.52083 31.054546)
(139.14016 -119.42161 -12.630512)
(143.18983 -122.37369 -6.8153491)
(145.24483 -125.01086 -1.622592)
(146.27476 -126.96209 2.275877)
(146.17848 -129.36258 8.7198151)
(145.44735 -129.80404 15.054029)
(142.09972 -125.43612 23.322299)
(194.86421 -140.5976 -15.703484)
(198.93903 -143.60884 -11.776596)
(200.66558 -146.91041 -7.6427722)
(202.00582 -150.05105 -6.2579614)
(202.90654 -153.10142 -2.5088671)
(202.75388 -151.43219 2.7136067)
(201.38023 -149.19992 9.5715563)
(261.36592 -155.68283 -19.117227)
(264.45787 -161.20785 -16.124878)
(266.25073 -164.8503 -15.326874)
(268.44645 -169.29635 -15.585297)
(270.33435 -173.72787 -14.792546)
(272.7786 -176.87376 -13.443603)
(273.55446 -170.88313 -6.4279462)
(335.44602 -170.65675 -19.228856)
(337.38565 -174.69577 -20.022752)
(339.54066 -178.15805 -21.69317)
(341.3384 -183.97548 -24.555719)
(344.05733 -187.45848 -26.771958)
(348.32659 -191.08413 -27.947693)
(351.95853 -188.01687 -26.612002)
(415.26614 -176.32202 -17.367988)
(415.20491 -181.9852 -19.664713)
(415.86008 -188.1049 -25.465649)
(418.96603 -192.89228 -32.273588)
(423.24752 -198.75634 -37.625488)
(428.16399 -203.08208 -43.148576)
(435.4933 -203.36115 -42.669371)
(495.51037 -179.92755 -10.573138)
(493.81062 -183.60914 -18.085328)
(494.65265 -186.90233 -26.387617)
(496.63893 -195.27274 -34.783996)
(500.17339 -200.976 -43.422568)
(507.99143 -206.04964 -51.338939)
(515.13004 -209.42601 -56.617147)
(574.63292 -175.75361 -2.3813904)
(570.87526 -179.85936 -12.044947)
(569.9413 -185.24169 -22.294804)
(571.22562 -191.81533 -34.121649)
(575.16201 -199.61025 -44.515656)
(583.31733 -205.72207 -55.7601)
(592.14052 -213.61878 -61.918454)
(647.17416 -168.39255 5.5502156)
(642.25108 -171.96364 -5.115212)
(639.57019 -177.1273 -17.918045)
(640.75259 -185.72488 -30.283083)
(643.21798 -192.71873 -42.228655)
(651.78104 -199.60713 -54.111887)
(660.25899 -211.04358 -64.390016)
(711.73433 -159.41998 13.087365)
(705.87858 -161.39704 1.2463438)
(702.58103 -167.98319 -11.116247)
(702.37072 -175.05206 -23.670766)
(703.66115 -183.51738 -35.515325)
(711.72636 -191.26158 -45.629218)
(717.97422 -203.99386 -58.391447)
(767.36073 -150.34257 15.514743)
(761.85047 -152.41241 4.971091)
(757.8942 -159.20936 -5.8393673)
(756.51832 -167.38133 -16.348839)
(756.54037 -177.03026 -26.549511)
(762.61246 -184.99884 -34.994399)
(766.6277 -197.16187 -45.8881)
(814.76271 -145.17437 12.712198)
(810.10612 -147.00569 5.1360145)
(805.65062 -154.67403 -3.0159125)
(803.36619 -163.30305 -10.049325)
(801.81932 -173.0892 -17.576281)
(804.97031 -181.69446 -21.925126)
(806.31704 -192.17492 -29.559074)
(855.66977 -145.32088 3.9178118)
(852.24236 -147.98801 0.28392741)
(848.67905 -156.98148 -3.6811191)
(845.4631 -166.44578 -6.8310088)
(842.83194 -177.43559 -9.4764896)
(842.63178 -186.94696 -10.422122)
(841.0234 -194.88295 -12.106782)
(892.71773 -154.15812 -10.574452)
(891.52071 -158.39766 -8.9811896)
(889.2367 -168.43369 -8.6252485)
(885.35863 -179.06385 -6.4254561)
(882.14669 -191.00306 -4.5731333)
(878.35089 -201.00861 -0.99195638)
(874.46071 -207.02713 4.0133575)
(930.03732 -172.91747 -28.65445)
(931.17644 -178.93213 -22.14706)
(930.80772 -190.40202 -16.662538)
(926.83126 -202.84865 -9.8857972)
(923.35491 -215.67397 -2.797521)
(916.54377 -226.98426 4.7865519)
(910.689 -231.40738 16.619508)
(971.05034 -202.50104 -48.385062)
(974.67831 -210.60488 -36.727412)
(976.47782 -223.49626 -26.967645)
(972.73709 -237.55796 -15.638735)
(969.47577 -251.72126 -3.9489594)
(960.49121 -263.92869 7.1296994)
(953.32499 -268.4689 24.913276)
(1019.2905 -242.85858 -66.583939)
(1025.4167 -253.01653 -51.070686)
(1029.2134 -267.36701 -37.555767)
(1026.2577 -283.62125 -22.586209)
(1023.3473 -298.8689 -7.2339238)
(1013.3423 -312.38354 6.751137)
(1005.2696 -317.80604 28.926597)
(1077.725 -293.35458 -81.289597)
(1085.7241 -305.35663 -62.828193)
(1091.3051 -321.1801 -46.490276)
(1089.3056 -338.95855 -28.975608)
(1086.8774 -355.57323 -10.995187)
(1076.9473 -369.84994 5.0948136)
(1068.3169 -377.63781 29.703663)
(1147.914 -352.61792 -90.470423)
(1157.5822 -366.15818 -70.416043)
(1164.3719 -383.1061 -52.297802)
(1163.384 -402.59959 -33.284804)
(1161.3872 -420.14362 -13.875637)
(1152.2746 -435.42297 3.6374793)
(1143.3744 -445.8376 28.733232)
(1231.0681 -419.44453 -93.35259)
(1241.8782 -433.90468 -73.026793)
(1249.0122 -451.96556 -54.026627)
(1249.0387 -472.39006 -34.491347)
(1247.1272 -490.99527 -14.7136)
(1239.5694 -506.73268 3.5791579)
(1230.559 -519.7537 27.508995)
(1327.57 -491.9294 -90.382531)
(1338.8144 -507.17454 -70.760418)
(1345.7499 -525.86007 -51.651049)
(1346.4483 -547.04282 -32.247289)
(1344.646 -565.92586 -12.935622)
(1338.6559 -581.81464 5.7606402)
(1329.4761 -596.8826 27.302459)
(1436.7437 -568.91558 -83.30493)
(1448.2135 -584.3848 -64.393631)
(1454.2173 -603.58463 -45.745865)
(1455.3661 -624.74571 -26.730026)
(1452.9937 -643.78329 -8.6086948)
(1448.2471 -660.01949 9.975426)
(1439.5801 -676.27822 27.98671)
(1558.2848 -649.23864 -73.105185)
(1569.374 -664.58322 -55.576367)
(1574.3528 -684.57241 -37.527222)
(1575.6188 -705.35152 -19.541818)
(1572.3925 -724.11792 -2.22239)
(1568.5643 -739.3088 15.318078)
(1560.382 -754.58977 30.624399)
(1691.922 -732.01754 -61.686344)
(1701.9701 -747.23727 -45.711443)
(1706.0897 -767.41127 -28.381718)
(1706.8291 -787.46354 -12.336094)
(1703.9974 -805.86739 4.7872481)
(1699.0484 -820.62832 21.533652)
(1690.4002 -833.57415 36.121854)
(1837.465 -815.73965 -51.160499)
(1845.3011 -830.97853 -36.284565)
(1848.1939 -850.69796 -20.668827)
(1847.6421 -870.09361 -5.7922015)
(1843.9288 -888.42456 10.174108)
(1838.9573 -902.34757 25.529663)
(1830.7034 -913.74689 39.414186)
(1992.3907 -898.92391 -41.642584)
(1998.6811 -914.31222 -28.136683)
(2000.0007 -933.4974 -14.799047)
(1998.5387 -952.58029 -0.98479451)
(1994.1317 -970.55892 12.903857)
(1988.7566 -984.50724 26.951804)
(1981.0796 -993.61483 39.553731)
(2155.876 -980.61474 -33.547597)
(2160.271 -995.73878 -22.316694)
(2160.5065 -1014.3736 -10.568898)
(2157.9677 -1033.2306 0.91966935)
(2153.3142 -1051.0357 13.030779)
(2147.4757 -1064.925 24.764298)
(2140.8525 -1072.5183 35.749956)
(2325.6994 -1058.6548 -27.022242)
(2328.2946 -1073.6418 -17.951273)
(2327.4643 -1091.5524 -8.7430391)
(2324.1597 -1110.3341 0.57553177)
(2319.394 -1127.9133 10.292171)
(2313.3841 -1142.2144 19.308851)
(2308.2209 -1149.1453 28.208217)
(2499.2746 -1131.7006 -21.070042)
(2499.9618 -1146.1656 -14.749868)
(2498.33 -1163.4522 -7.9368532)
(2494.4722 -1182.0709 -1.239662)
(2489.72 -1199.6763 5.9940063)
(2483.983 -1214.3821 11.895194)