/*--------------------------------*- C++ -*----------------------------------*\
  =========                 |
  \\      /  F ield         | OpenFOAM: The Open Source CFD Toolbox
   \\    /   O peration     | Website:  https://openfoam.org
    \\  /    A nd           | Version:  6
     \\/     M anipulation  |
\*---------------------------------------------------------------------------*/
FoamFile
{
    version     2.0;
    format      ascii;
    class       pointScalarField;
    location    "0.96";
    object      E;
}
// * * * * * * * * * * * * * * * * * * * * * * * * * * * * * * * * * * * * * //

dimensions      [1 -1 -2 0 0 0 0];

internalField   nonuniform List<scalar> 
28033
(
4757.4401
5824.2286
33235.397
32360.688
5354.8695
9770.8048
33003.557
33424.878
2861.57
1604.9522
1036.2861
832.96862
299.16768
282.99991
144.41954
232.81429
303.15568
657.62147
776.5255
1585.6055
2270.7863
3119.2388
4362.5032
34032.517
33445.366
33130.91
32854.563
32392.485
32325.34
31771.823
31933.499
31903.89
31706.745
32078.608
32069.67
32226.683
32611.47
33079.913
4562.6981
2307.1304
2302.6106
2030.0227
2153.9246
2065.7243
2149.8983
1868.0652
2085.3111
1866.3603
1989.5611
1898.4893
1841.4916
1766.3976
1559.4497
1390.4319
1046.2316
1130.7382
780.37829
786.6795
622.20079
617.28974
484.41668
617.14663
300.65018
464.44935
150.45282
235.44277
-173.38655
-129.70917
-257.53311
-491.19325
-734.79761
-730.2956
-841.986
-628.75943
-940.07073
-777.69037
-841.65018
-942.7922
-1021.1018
-1018.4917
-1074.132
-1000.3066
-899.78242
-652.50797
-446.80274
-41.033801
239.92751
678.03955
972.89103
1344.8863
1609.6638
1891.5381
2133.3956
2387.6524
2644.8904
2938.0291
3252.4477
3606.0851
3974.3743
4380.7819
4757.702
5197.4646
5638.1267
6041.7742
6479.3042
6903.125
7405.7005
8048.2225
8507.023
9156.8209
9717.45
10385.458
11049.065
11718.796
12432.578
13196.029
13945.4
14749.126
15677.316
16574.87
17640.711
18547.045
19790.442
20921.525
22213.625
23528.672
24887.925
26236.224
27674.429
28920.066
30546.127
31565.853
33048.583
9909.6335
526.60768
6349.5149
2592.194
4390.6074
4176.6004
3580.3041
3821.7509
3933.0079
3661.9929
4091.7283
3861.7295
4324.3053
4053.4152
4221.1329
4026.425
4006.0084
3731.0003
3510.4076
3442.3318
2903.2153
3018.6847
2568.2902
3109.8429
2588.7205
3048.1466
2453.1985
2650.3138
2015.631
2067.1384
1222.9277
1154.0584
639.65634
445.80892
103.27017
83.108343
-0.25906788
-86.593469
-136.80663
43.663852
-5.0621461
128.41037
162.46669
310.55867
381.28693
591.53536
755.10834
1023.0705
1283.153
1577.472
1864.0759
2130.6982
2351.8743
2543.6979
2670.7935
2783.0785
2877.3291
2985.4035
3137.8145
3353.892
3640.9421
4017.4709
4460.5831
4976.6423
5525.5354
6102.3832
6706.8666
7300.1877
7981.0288
8530.558
9114.1947
9710.9584
10398.951
10965.63
11654.174
12291.155
12928.142
13652.723
14294.372
15058.064
15810.969
16624.642
17546.512
18513.501
19603.024
20762.492
22024.683
23330.624
24711.267
26097.245
27490.901
28853.205
30153.115
31442.095
32433.488
3414.2864
1871.0676
1058.8977
1209.3526
313.96926
267.17832
239.09113
261.56291
464.77391
853.76052
1190.1337
1758.8281
2270.5045
3106.1336
4891.1267
12123.253
10917.175
-3741.1083
5561.0777
2843.405
2083.2006
3939.0769
3093.7246
4223.3043
3729.5003
4359.1997
3525.1056
4923.9053
2997.349
4530.3857
2799.3071
4758.3307
1609.4897
4341.353
1802.7503
3224.9149
3270.7906
2978.0092
3059.4851
2231.8308
2851.1249
2435.2901
1829.2779
2341.6564
55.875761
307.47942
-149.73495
-259.80088
-155.96182
-70.3641
1227.4595
-278.45314
778.99016
643.04888
675.4803
641.7139
545.78218
479.62773
466.8451
563.09939
737.28472
1015.2473
1332.6727
1654.4873
1932.7151
2121.641
2218.0463
2221.2675
2162.2551
2105.2302
2097.4416
2188.5076
2433.1031
2814.4061
3353.3569
3977.9954
4682.5035
5373.5321
6045.3594
6650.0032
7169.3034
7732.8217
7926.755
8587.207
8896.0687
9442.1127
9803.3779
10377.841
10918.989
11472.749
12036.087
12606.042
13204.434
13810.889
14521.02
15283.573
16204.93
17202.331
18378.295
19594.77
20963.325
22298.77
23721.541
25031.098
26375.595
27554.299
28752.534
29811.156
30781.244
32147.683
33271.436
32994.025
32482.674
31756.723
32145.452
31237.614
31663.3
31282.923
31876.649
31361.714
32220.736
31583.148
33380.641
32281.655
33970.648
33260.844
31002.782
30496.037
29039.327
27864.182
26514.76
25221.329
23907.867
22606.612
21371.861
20180.322
19059.129
18083.593
17086.778
16248.604
15433.902
14680.586
13970.15
13285.551
12624.655
11990.588
11361.507
10778.361
10132.869
9738.1057
8981.7196
8397.7007
7201.1045
7666.1572
6815.1927
6374.0572
5808.4187
5283.2813
4797.7604
4350.6382
3969.7054
3645.5219
3387.7593
3176.1304
3005.2264
2844.4777
2688.188
2508.171
2306.5685
2074.984
1821.4271
1562.2153
1292.9023
1061.7369
833.15068
639.0082
503.3899
341.79946
244.67657
88.396275
53.238859
-336.59323
-113.27471
-545.58639
-501.33085
13.056174
-556.32627
-168.17684
-115.75066
336.42716
460.77088
423.25687
737.46821
647.66994
1210.2454
1285.3651
1255.4532
515.29609
1801.6391
1149.9223
1121.2652
1679.6944
1472.3515
2095.4562
1852.7483
2027.6907
2025.6224
2800.5903
1652.0194
3194.2223
2130.0098
1973.2835
2245.436
2849.8452
2119.7192
2001.3012
2405.6335
3815.8126
256.12285
6711.169
2755.1874
3056.9351
2694.3359
2774.1232
2772.1459
2972.8479
2696.3273
2993.5835
2933.9256
3108.8027
2652.5846
2583.4891
2580.5425
2454.2068
2090.5064
3160.7494
3701.0112
2627.339
3593.2798
3419.8417
2595.1205
3457.126
4002.7586
3163.2882
3813.7287
3487.9095
3181.2559
3099.7076
2762.5426
2924.9196
32866.118
32857.373
32853.379
32806.626
32760.15
32725.813
32732.144
32731.397
32776.735
32829.521
32878.296
32923.515
32971.755
32856.722
33350.813
33928.443
33690.068
33893.933
33675.093
33793.08
33721.775
33694.285
33653.109
33635.75
33598.68
33617.678
33529.593
33555.975
33451.671
33830.382
4182.3976
1543.8051
1661.2002
1674.52
1564.9152
1860.3269
1631.6491
1939.3601
1626.3241
1942
1343.0419
1617.5655
1028.8344
1347.8119
736.34549
1151.5682
928.05906
1132.8658
957.54095
1163.122
989.16286
915.5874
787.32939
424.86136
233.06232
-70.508182
-255.41646
-489.19062
-467.25998
-405.31095
-394.25602
-105.08551
213.46836
475.61301
760.77051
777.64195
946.6658
946.26109
1089.5514
1055.8509
1239.1158
1250.2186
1406.9552
1536.4572
1555.2627
1634.3252
1579.806
1539.9346
1403.3678
1314.2899
1204.3867
1205.0448
1287.1808
1522.1582
1892.0878
2399.5189
3012.5057
3690.5965
4390.6122
5072.4229
5695.586
6269.1663
6724.0729
7163.5163
7514.0968
7741.8052
8179.2295
8418.6364
8847.6218
8933.7894
9315.5042
9579.0892
9901.6985
10260.288
10638.168
11081.889
11641.618
12230.51
13038.841
13833.318
14899.401
15930.386
17125.733
18414.731
19703.302
21041.174
22337.417
23622.775
24953.214
26163.68
27524.978
28757.848
30120.183
31340.468
32941.515
2843.6587
722.00687
1518.3729
861.62621
1399.8807
1113.5147
1367.9439
1241.0323
1298.1743
1172.642
1154.1192
1054.4593
919.07268
852.65891
722.35247
859.94978
490.08031
782.8939
574.37111
765.32189
527.52556
653.34039
359.19034
416.09645
159.84318
139.34504
-91.456697
-78.99038
-182.30969
-141.44762
-95.954987
60.835438
31.200302
121.74445
228.00358
318.74988
465.11342
609.11526
595.74409
657.04945
691.76487
815.28373
901.5818
958.98
1051.5741
1195.4224
1275.8091
1379.7493
1469.7034
1552.4214
1643.7702
1769.1924
1928.0172
2148.2407
2430.4246
2783.0518
3188.1444
3645.1039
4130.4119
4619.765
5111.4265
5581.2796
6019.7478
6459.1101
6900.9855
7251.3544
7757.4936
8505.789
8805.6431
9189.106
9697.3274
10055.745
10452.245
10871.582
11327.096
11828.418
12410.488
13032.525
13812.352
14531.132
15557.964
16405.377
17557.786
18446.151
19938.674
21127.084
22431.071
23638.675
25032.208
26245.844
27600.834
28903.775
30242.31
31145.361
33365.124
2002.6005
277.89934
1065.432
521.00078
807.35256
701.26379
767.08564
916.31144
824.81245
939.90942
720.14428
839.95299
547.6195
688.2287
437.35183
523.99999
451.37166
590.85797
441.66363
598.51804
503.04717
593.05667
482.48143
473.8228
305.50655
255.47601
151.71904
103.68678
76.408443
110.70431
166.8846
204.70539
368.75121
499.34361
607.92009
709.91612
664.20671
576.28371
689.66864
693.27996
818.23368
882.75779
899.054
1100.6056
1245.2644
1373.5788
1471.5682
1580.9182
1651.859
1710.4552
1802.4023
1896.7326
2062.016
2273.8971
2573.6846
2928.3992
3354.0778
3815.975
4301.1556
4785.9918
5258.8769
5709.2064
6118.0958
6539.6255
6879.0373
7238.4413
7675.1697
7889.9295
8397.1914
8722.852
9150.1913
9499.1667
9988.1543
10451.26
10964.593
11490.296
12085.257
12752.669
13461.658
14272.422
15181.248
16087.891
17148.497
18350.996
19444.998
20506.015
21747.067
23069.237
24380.324
25647.236
27040.379
28331.132
29622.652
30725.159
33338.6
1147.2017
248.95534
550.88954
402.7778
480.2451
410.14014
528.38276
483.08022
435.70251
433.14101
407.17829
354.68008
212.32268
310.03569
22.604689
269.42245
-66.995386
210.98946
-40.496182
249.32386
-32.047249
198.46123
-96.686516
67.784429
-174.02394
-74.139864
-278.58845
-179.29687
-301.5433
-191.55125
-233.6364
-85.359204
-34.349268
31.043722
135.83627
184.90921
276.24557
695.04081
656.50717
761.54704
781.17759
892.32284
991.73755
1080.6494
1138.9476
1245.2467
1360.8181
1488.4075
1610.1273
1751.7644
1898.6791
2053.7085
2239.4789
2442.744
2684.831
2960.5696
3277.7653
3625.0061
4010.1995
4412.2803
4834.1879
5264.2559
5684.6651
6117.5008
6535.4676
6958.6593
7361.117
7758.243
8297.0893
8547.0936
9128.4988
9569.5901
9944.0922
10340.11
10858.3
11361.997
11946.937
12554.853
13288.397
14030.827
14931.839
15804.434
16954.424
17921.33
19278.22
20395.924
21920.125
23050.324
24557.267
25713.648
27212.221
28399.681
29885.64
30618.066
33605.799
873.43189
-165.28919
366.49642
-102.25444
244.54875
71.261836
279.60729
195.83915
287.59952
306.26877
213.28672
208.99859
126.6522
113.5519
13.102485
92.20669
-8.6728166
157.73169
28.226502
217.89165
80.401358
286.77095
111.25213
284.2552
69.040479
160.5077
41.463717
66.442016
31.34764
100.18124
142.6769
252.71229
311.54178
440.07283
512.28136
592.47689
718.81367
504.13245
488.24938
530.69166
708.9583
771.88896
880.21054
1035.0795
1194.0867
1344.3003
1489.1225
1602.4797
1731.412
1844.5572
1984.0331
2122.6208
2322.3251
2527.8222
2803.1408
3099.12
3444.7038
3808.0547
4199.8057
4596.5107
4996.014
5406.6478
5792.3178
6227.2874
6572.9215
7028.3397
7446.5322
7730.775
8205.9595
8599.3045
9134.1973
9448.0175
9992.0995
10739.762
11131.981
11693.34
12233.833
12901.251
13580.105
14365.847
15222.637
16160.948
17149.322
18263.183
19357.804
20569.594
21712.738
22977.658
24247.621
25534.572
26836.99
28261.472
29533.786
30479.599
33772.916
488.86785
-71.993139
230.252
19.573054
89.969085
65.124379
53.066015
68.266167
64.381327
39.955018
17.954834
40.009614
-89.336353
0.21387827
-186.38046
-49.940056
-244.20751
-47.344826
-234.36947
17.74184
-184.54137
56.261055
-168.79154
26.243234
-213.9503
5.7620288
-250.03933
-52.980868
-197.1946
-62.48682
-113.62213
-23.296614
13.022299
93.751561
135.96429
242.24724
246.6366
562.85119
544.50505
718.40101
714.27713
846.5033
883.77047
1036.9955
1123.7322
1239.1485
1331.1256
1456.2622
1568.6054
1703.307
1844.055
2014.6274
2202.2784
2427.2898
2677.567
2962.9648
3270.6351
3602.604
3957.9238
4315.9916
4686.1532
5082.3133
5457.1571
5826.9428
6290.1668
6634.6763
7066.2379
7488.1443
7975.2279
8372.8071
8805.8653
9300.8184
9757.0836
9916.2684
10417.049
10957.686
11573.997
12217.02
12951.224
13718.94
14635.027
15486.414
16635.04
17565.87
18898.226
19941.638
21428.437
22569.849
24142.597
25311.182
26901.014
28142.906
29619.657
30553.995
33795.675
288.54194
-339.59011
155.44848
-296.20227
3.4615171
-163.71149
21.603485
-50.49319
64.517371
8.9986593
46.128424
-52.784332
-58.254655
-125.07327
-185.19519
-155.5304
-208.13093
-121.82791
-170.70516
-2.6652501
-104.71383
116.21191
-72.312869
127.52022
-26.884149
52.383993
-65.006204
23.339619
-83.759004
44.056918
12.572113
162.42345
204.41575
299.98913
373
449.35021
459.95352
474.62281
465.92221
623.61524
594.78915
734.42557
805.89107
959.08347
1094.4211
1250.9283
1436.6203
1583.4645
1752.8352
1887.2554
2054.8166
2195.7569
2390.6174
2585.2307
2838.1352
3110.5364
3437.806
3781.8798
4164.811
4541.6743
4963.5703
5347.5492
5743.6801
6190.1158
6540.4469
6997.1434
7391.536
7840.613
8251.7114
8667.0371
9225.2939
9558.5508
10113.45
10629.281
11206.003
11761.895
12343.3
12955.717
13665.538
14411.842
15240.905
16176.199
17130.449
18212.923
19316.975
20488.246
21692.504
22937.369
24205.172
25473.38
26751.678
28128.846
29496.51
30382.885
33847.757
337.80787
-28.403817
236.47026
43.150426
122.71825
68.112812
98.040847
35.981294
112.75326
40.28862
77.859314
62.181462
43.216456
41.356767
3.7087902
26.969645
-29.018348
40.903453
-11.162933
72.054537
-45.602546
51.025032
-66.102627
149.54408
-122.61005
126.22564
-95.094932
63.98287
-73.649761
47.892965
-35.171067
64.341037
23.54488
109.90291
154.53213
160.90205
268.71599
294.10469
369.9174
442.68426
467.58851
572.75026
653.29039
758.46442
833.7136
976.00973
1069.9535
1211.1921
1326.5621
1474.4135
1603.3057
1765.1445
1932.4034
2124.131
2346.4914
2596.4252
2882.3945
3191.8605
3533.7896
3899.243
4275.9389
4657.6839
5082.5625
5449.4942
5882.7106
6275.1063
6702.3417
7116.363
7542.7972
8009.3247
8389.2685
8877.5275
9370.8675
9748.8706
10187.573
10695.27
11298.57
11949.433
12679.627
13426.059
14348.113
15195.369
16307.035
17275.704
18559.248
19652.593
21076.564
22269.698
23770.2
25053.203
26586.673
28006.536
29467.731
30492.556
33720.262
242.95435
-281.25172
163.46019
-221.36437
-11.941346
-148.02074
39.921452
-39.25597
122.62742
16.340858
105.19529
-35.615323
-53.332405
-181.15679
-230.98127
-315.00777
-309.4858
-342.25195
-289.88898
-222.98849
-164.42872
49.886684
48.788481
48.202574
13.185431
66.271525
-89.084371
-3.3028164
-133.82629
-30.35536
-78.947407
40.162633
57.675728
198.23637
156.32432
331.86323
268.84809
366.88272
332.02678
377.49298
407.93359
465.24625
574.27113
665.94666
855.07014
998.98709
1200.5846
1359.6969
1554.4543
1702.8513
1882.922
2036.2627
2223.8944
2416.8633
2656.3448
2919.2917
3232.9422
3563.6452
3947.7365
4320.9249
4722.9542
5134.8848
5517.7552
5937.6373
6330.228
6762.0229
7157.5518
7595.8252
8047.8676
8479.0828
8986.1347
9463.5625
9978.7053
10483.742
11161.77
11655.905
12302.813
12911.303
13606.337
14376.221
15166.682
16108.688
17038.654
18129.386
19210.842
20405.75
21598.744
22892.432
24131.36
25519.969
26733.705
28171.433
29487.42
30455
33608.298
854.40493
259.09594
726.34795
355.91919
595.95613
476.7303
591.42174
462.71706
575.35387
553.40129
580.67342
571.03214
612.88928
552.72768
595.47843
506.01692
560.09337
459.99365
552.62424
461.57788
477.12443
395.24667
267.07576
374.97997
271.95453
321.95238
203.24626
286.28217
145.41415
231.73877
122.96282
190.36245
169.85699
165.67505
267.699
238.47511
313.70879
345.61506
377.79315
471.4192
507.55068
614.42674
664.71812
801.05753
862.24268
1009.5631
1103.2712
1249.9914
1359.7461
1504.9474
1631.2761
1780.7429
1942.0938
2126.6912
2337.6958
2584.8154
2859.4964
3172.2112
3517.4146
3870.352
4274.2762
4658.0582
5072.262
5483.3072
5910.5549
6305.7069
6738.6426
7175.6611
7587.3648
8033.8831
8457.5668
8898.5796
9356.6756
9763.5863
10483.328
10962.126
11597.725
12178.904
12953.479
13678.725
14603.826
15476.701
16556.259
17566.13
18790.388
19911.123
21270.368
22473.145
23909.732
25212.762
26616.864
28090.063
29475.037
30737.667
33690.038
680.6117
135.84192
503.47395
82.608601
451.6029
212.17499
448.87296
315.51113
551.23736
396.11497
445.29575
326.57271
313.08499
120.78117
202.9876
-63.235759
202.01089
-120.28209
232.25038
-54.339911
313.89103
-183.7692
159.90051
102.8729
68.730139
-36.731151
-108.32091
-224.39173
-343.02365
-377.04591
-463.76471
-389.19686
-464.29111
-278.28734
-357.4369
-206.72165
-197.40307
-123.02581
-68.773963
-45.980402
44.206189
71.210726
219.23342
306.56539
493.2388
637.3499
839.04502
984.40463
1168.1975
1298.7656
1442.4671
1562.6748
1705.2689
1850.3977
2044.3843
2271.8398
2554.6198
2889.0105
3264.0928
3681.2978
4124.6547
4577.5619
5038.5945
5520.5139
5961.5239
6453.9686
6921.4254
7384.9897
7855.3274
8340.1019
8822.9386
9327.4991
9803.4174
10384.824
10976.446
11492.49
12013.044
12718.101
13352.017
14142.017
14956.219
15883.218
16866.211
17952.359
19079.894
20309.797
21538.95
22873.928
24167.573
25561.615
26897.478
28298.436
29704.162
30855.5
33176.985
1787.5169
456.08845
963.01748
808.54747
1113.0351
1019.1159
1244.8248
1194.9662
1318.4083
1346.8044
1333.5359
1305.749
1360.2672
1198.0232
1214.0182
1163.9248
1117.2129
1079.6748
1106.4454
1066.453
1030.2154
1163.4496
1038.689
909.42945
898.20533
819.86065
765.31945
725.06772
684.26964
670.36411
686.82925
645.02707
749.48642
733.63628
833.23363
886.44122
893.6305
956.83557
907.74141
970.39537
903.71122
980.10675
940.21194
1038.1088
1059.1693
1181.4033
1271.7438
1412.9758
1549.0738
1703.3835
1862.0588
2038.2497
2229.8044
2446.9162
2697.2686
2980.8734
3304.6357
3657.2073
4042.035
4442.2305
4850.6374
5258.1751
5662.4137
6043.7522
6417.1801
6793.8157
7134.2773
7501.9286
7876.5233
8263.1617
8657.0987
9040.9418
9530.972
9877.3679
10426.922
10899.153
11493.29
12145.171
12866.279
13659.884
14548.603
15484.898
16516.933
17601.689
18763.193
19952.375
21222.094
22484.031
23807.298
25162.464
26484.226
27936.49
29450.098
30685.325
33296.33
2470.1521
1216.4381
1575.9979
1275.1095
1262.5164
1151.6779
1294.1769
1101.4812
1268.6909
1149.537
1118.039
1106.0755
896.0241
858.88892
712.77562
573.08635
578.55809
380.12802
539.18803
284.22756
497.00575
234.07122
410.60901
126.18223
286.57018
-130.82118
-144.81302
-483.70781
-616.69195
-777.47407
-929.10819
-915.29922
-996.37494
-874.47354
-868.21119
-764.79074
-651.07433
-599.20406
-451.0724
-437.47033
-274.40307
-228.53949
-64.379457
50.016084
225.24065
368.22156
543.20521
661.69928
793.38926
870.91245
948.82584
1004.7162
1081.3427
1179.9608
1334.4491
1554.5453
1845.1587
2215.9047
2649.9588
3139.2549
3659.9931
4212.3784
4746.2594
5303.8059
5813.5842
6355.2081
6816.5056
7342.9914
7814.436
8289.1701
8725.0106
9255.5374
9623.539
10187.752
10608.931
11176.466
11683.43
12293.58
12931.009
13714.723
14529.752
15497.682
16524.953
17687.689
18879.643
20198.365
21506.945
22906.165
24289.544
25697.009
27098.514
28495.948
29888.081
31072.446
33086.494
3715.2353
1427.9797
1992.9666
1446.5094
1953.0067
1883.6711
2054.323
2169.1085
2358.0859
2360.9899
2482.9444
2361.1611
2457.8922
2254.3658
2223.2174
2001.4349
2007.873
1739.7053
1993.2669
1695.7519
1983.7472
1743.0042
1796.788
1566.7805
1511.4914
1281.1679
1235.808
886.40089
831.74514
499.91744
492.71792
302.47134
354.24374
379.04622
357.58598
450.16957
477.77313
547.35032
503.95025
574.5586
503.16834
553.97891
528.29758
606.95747
664.8919
798.46262
936.43612
1101.094
1268.5773
1426.2828
1572.3596
1703.6692
1835.4909
1971.1146
2140.9859
2350.202
2617.5433
2945.2141
3332.2975
3766.9887
4235.3787
4722.6451
5210.187
5689.1903
6151.774
6611.0995
7038.1734
7496.6245
7887.5052
8299.1138
8771.998
9169.5347
9673.6656
10111.658
10615.036
11118.82
11687.98
12288.656
12967.472
13724.704
14552.249
15501.424
16521.757
17645.833
18844.99
20109.485
21428.1
22769.812
24130.665
25488.642
26830.182
28182.937
29505.267
30958.66
32728
5429.2002
942.66616
2524.8445
1595.1912
2519.18
2123.2585
2594.4954
2531.878
2491.911
2379.0398
2007.513
1886.5498
1670.7311
1451.2986
1591.5203
1288.4388
1710.8321
1303.812
1858.6778
1251.8997
1744.6318
773.44719
1060.6793
52.827255
192.76707
-379.08563
-265.07012
-399.8759
-105.71493
141.36058
458.57922
823.65488
1132.3363
1372.8341
1424.1974
1562.8808
1534.3971
1470.5313
1480.0547
1362.5345
1392.7223
1354.7702
1394.518
1388.3541
1389.3851
1330.4814
1260.2266
1149.2374
1065.7439
1018.9112
1062.4957
1232.9033
1545.7763
2005.6899
2601.5834
3292.903
4030.1483
4775.6426
5467.6814
6084.9612
6601.4884
7027.347
7354.538
7625.388
7860.2054
8068.6042
8239.7578
8461.469
8598.7258
8930.2536
9101.7657
9433.3586
9662.1942
10086.651
10472.269
11054.164
11676.95
12465.266
13363.04
14379.165
15458.641
16653.669
17811.918
19068.955
20235.12
21472.499
22615.353
23826.343
24982.657
26194.789
27435.054
28720.31
30010.932
31529.008
32842.236
1306.2157
1432.8493
938.74929
737.85146
769.19251
733.80419
731.95827
746.14292
780.82412
962.22325
766.78533
795.35183
1072.8045
1042.3165
1005.0643
1026.4146
827.5085
499.04602
556.66663
398.61621
375.06087
340.84371
295.91911
434.0384
327.81067
354.80522
460.27627
410.42395
640.2142
566.9337
577.02362
159.88191
-110.00338
-119.11864
-232.87044
-257.30582
-230.24318
-302.41679
-279.54833
-260.57715
-195.24729
-262.52745
-189.50237
66.893187
68.04168
309.36437
238.00823
77.725091
-57.835587
-50.125589
-100.0811
-100.47361
-137.33195
-71.274791
-95.402732
-48.016036
-50.4242
72.466408
286.03373
-46.94243
87.615933
-18.217094
-213.03328
-246.54005
-319.54767
-321.95496
-345.68137
-330.59121
-364.12806
-353.81168
-341.0435
-292.81229
-231.14541
-195.71103
4.8961163
230.62084
74.656128
-28.03236
-38.54186
-76.724939
-83.025135
-117.35492
-101.55155
-110.57259
-104.81594
-78.06547
-104.10816
-65.486361
14.149028
53.408583
-7.1086283
-94.947902
-167.02143
-215.5779
-223.36117
-254.36606
-254.42762
-276.65837
-271.62992
-254.48026
-253.92981
-188.78402
-161.41231
-52.563372
2.9769555
140.2013
70.995231
-15.129949
-16.450965
-52.52259
-57.737554
-72.657952
-75.042093
-65.379122
-89.815274
-67.460515
-63.649918
-68.590345
-5.3773803
58.471628
-38.874484
-97.643151
-229.44677
-235.22886
-275.04523
-289.82634
-295.1994
-277.07761
-290.73311
-234.47324
-236.9743
-171.79822
-146.06867
26.201379
56.800419
418.31591
272.5223
122.9854
119.61315
51.42372
48.067762
42.983415
33.033411
34.32081
-2.5713066
68.183781
22.773625
74.815382
223.08228
214.34509
46.562796
-27.534229
-256.89217
-270.10162
-353.34724
-303.77062
-360.99667
-301.96986
-336.99321
-231.80169
-226.84114
-171.14916
-49.413725
214.46867
226.67756
527.51413
276.48582
127.60826
-22.426435
-30.344474
-146.57764
-113.96939
-158.57058
-128.3475
-115.03726
-63.293472
-10.170366
103.74084
349.00463
477.593
392.29962
595.62276
-38.587818
10.489683
-176.61672
-120.63946
-265.19105
-136.8975
-105.04127
-83.009697
11.301804
-16.265096
135.67097
635.95468
730.40703
1467.7712
989.62048
607.71771
487.67467
328.5083
265.99722
415.77033
475.40692
429.53772
255.83754
339.79572
284.87465
388.8519
695.2515
860.67183
1371.278
1333.926
406.25047
310.692
111.09294
103.17884
207.87007
366.48429
64.205166
218.9949
76.222231
243.56933
537.47834
1251.4808
1512.1797
7919.8722
10001.886
7816.6997
9076.3727
9670.8425
8871.427
9581.6968
10646.13
9308.8978
9843.1383
9660.599
9320.9945
9212.4351
9871.3875
7618.3036
8871.0981
5091.6149
6541.1326
6603.8674
5611.032
7325.0499
6878.4417
6725.0339
7450.8955
5856.2027
6337.3179
5387.5662
6027.8632
7313.1251
7952.3249
3738.7429
3751.3933
2768.3282
3013.0368
4667.4116
2475.0704
2388.7144
2393.5223
937.34365
3201.2808
2397.4508
4654.7132
3395.9647
2195.9927
3723.837
2714.4856
3834.9486
3755.1284
2088.5635
2210.9775
2530.6267
2071.476
2569.7527
2710.7744
1737.8345
2664.2456
2244.5666
3233.3117
3670.8328
2767.8355
5132.1946
4247.5101
2778.8881
4622.1973
3414.7747
3679.6891
4065.2796
3677.9243
3939.326
5167.742
3749.3932
4464.588
3275.98
3742.9344
4923.5487
1893.139
2893.0321
3078.9909
2756.047
2709.6328
2689.0083
2287.2102
2270.8233
2385.7183
1649.7532
2579.9632
2204.749
2533.6349
3200.7455
2316.8541
3369.0692
3858.2543
3575.8407
3309.3753
3263.2936
3533.483
3639.9052
3526.7348
3637.7977
3781.8709
3247.8804
3654.8289
3330.3835
3138.4305
3933.7941
3163.641
2933.6743
3162.1311
3490.3504
3625.3521
3252.7045
3309.551
3443.1936
3038.3842
3565.8194
3454.2256
3429.1396
3400.3338
2995.1962
4110.1705
3352.1304
3991.4591
3869.8874
4194.5425
3613.8276
4006.2443
3839.9155
3987.5275
3871.702
3817.1718
3801.9302
3576.959
3674.6683
3768.2034
3472.8756
3973.165
3465.6491
3722.296
3621.009
3766.9158
3513.8013
3638.0418
3526.2813
3309.0503
3923.2529
3216.6528
4002.4248
3483.478
3566.2245
4373.3138
4050.3336
4371.6414
4204.4961
4575.2151
4333.4482
4683.0336
4471.0585
4552.8175
4790.6275
4217.5947
4938.3514
4352.6591
4575.959
4598.4731
4743.2308
4764.5448
4060.8111
4281.354
4141.2145
4128.1051
3979.0464
3879.9913
3766.1595
3413.7101
3770.8952
3304.0841
3625.6095
3453.3584
3422.4367
4419.214
4581.559
4553.4408
4171.3654
4628.2119
4359.332
4526.4139
4569.3151
4453.3048
4757.8714
4594.7805
4855.8685
4628.5488
4779.3721
4858.7665
5038.905
4699.1406
4280.5926
4391.0227
4030.6452
4105.3554
4234.585
3954.1266
3754.5023
3320.3892
3374.9013
3018.2688
3255.3068
3075.8065
2882.73
4251.7911
4588.8947
3944.8403
3931.8187
4434.3542
4376.3707
4055.7976
4128.6522
4093.5948
4425.9838
4401.4395
4805.5309
4585.2454
4779.1809
4861.121
5129.1705
4106.9702
3989.8992
4039.7738
3957.0242
3401.1397
4053.088
3557.7066
3536.9636
2979.6496
3051.6352
2469.1169
2684.284
2530.8672
2471.958
3602.6496
3754.8149
3183.3791
3266.5734
3516.3062
3845.8793
3507.8784
3544.5153
3339.7314
3852.4246
3704.739
4180.6158
4021.8698
3953.4359
3731.6869
4777.8233
3316.5587
3424.672
3185.1906
3361.9718
2915.3518
3313.717
2944.9364
3254.3434
2766.8049
2898.9587
2350.5045
2289.2195
2264.0616
2141.1152
2537.0002
3386.4937
3033.3526
3348.2494
3084.7875
3356.4659
2972.9474
3599.945
2961.5131
3264.7914
3143.7211
3090.7211
3340.8803
3464.8273
3307.0596
4339.2936
2785.6195
2859.4962
2653.7904
3102.9096
2821.2362
3183.5851
2767.2328
2949.5411
2788.7075
2763.7006
3059.5749
2704.9455
2475.5831
2229.3237
2737.6875
3366.7364
3014.5378
3298.6578
3020.882
3106.312
2887.299
3194.4133
3016.0098
3078.4401
2821.6621
2880.0575
2853.0927
3549.3827
3006.5676
3897.3281
3011.8698
3190.6049
2864.6823
3289.3272
2934.7642
3450.5428
2806.5463
3188.3887
2549.0503
3508.1132
2883.947
3211.3683
2444.9814
2142.1656
3968.7288
3890.5098
2944.3661
3355.5017
2980.9781
3191.2671
3061.1322
3183.734
2853.5146
3248.7966
2873.4184
2617.3426
2695.946
2809.584
2871.6272
4322.1003
3379.1847
3501.7014
3056.7343
3360.0978
3002.6007
2903.9561
2709.2166
2816.4903
2723.8993
2693.4789
2900.7322
3102.3054
3136.0505
2625.3932
5061.073
4250.6389
3042.8015
2975.3638
2796.237
3064.0167
2752.4144
3126.842
2808.2146
2853.3016
2747.7526
2958.4909
2989.8349
2680.746
2652.2577
4735.9301
3516.6497
2958.1287
2911.9848
2974.9724
2693.9561
2962.2889
2398.6876
2584.9984
2355.1274
2476.8184
2259.0886
2429.9944
3109.8172
2930.5495
4411.8916
3549.7674
2743.6134
2821.577
2488.2695
2684.2648
2237.4447
2405.5553
2280.8198
2288.9979
2278.9042
2374.3271
1723.8215
2177.7148
1567.4002
4465.0371
2822.1119
2123.9831
1700.1324
2367.9593
1529.2657
1689.8432
1630.1463
1562.3358
1680.1845
1590.1033
1732.0841
2127.3638
1821.3252
2004.6243
3294.5004
2379.5569
1807.9525
1451.081
1241.5137
1322.2272
1342.946
1256.5757
1190.5246
1131.7585
1180.4204
1147.9664
1440.7862
1222.006
742.0207
3376.4655
1365.9277
849.06902
928.91011
989.55364
778.23811
802.51787
644.73443
692.03545
493.23282
490.36931
356.96162
323.57707
1098.9256
417.8664
1671.9618
1226.2874
941.16165
909.30764
620.11057
702.82916
5.2305586
419.25548
159.12575
826.98502
330.54925
265.72482
236.81685
-3.5890788
-68.553619
996.70649
625.28332
294.04136
78.010762
164.22844
-1.9724353
160.84165
13.850541
113.58424
-224.23724
-128.29667
-214.91206
-101.47179
-193.65202
-196.03653
513.9894
69.874008
-140.06663
-74.97719
-79.857928
-36.16773
-169.81057
-77.405266
-281.60466
-139.2102
-267.62006
-146.75761
-289.49278
-287.95701
-298.86169
-103.98026
-253.87475
-194.89829
-221.15625
-119.01
-233.32335
-186.32828
-292.60979
-178.93058
-309.05335
-203.82644
-367.39105
-250.02588
-384.54965
-413.57582
-347.81405
-324.0673
-271.4307
-193.51568
-6.2121621
-167.39649
-178.13453
-121.41115
-170.84383
-152.12482
-156.66949
-105.24286
-140.08852
-180.54724
-83.397153
-65.721843
-443.8459
-160.02419
-50.288855
-380.47592
-91.954586
-152.67547
-115.69742
-185.62693
14.068204
-345.29495
-44.48159
-186.41742
-72.121159
-220.35379
-25.217952
-405.97886
-133.19614
99.389
86.536269
139.51015
-53.05901
93.151932
-47.430073
-21.475893
339.17392
-3.0525815
144.55555
-98.636074
117.11852
-41.507988
-66.940596
443.95088
273.23176
416.24289
171.95936
301.29391
142.68361
213.10543
185.6852
42.614795
146.12022
84.295556
235.74373
216.16029
-30.851377
323.47855
349.89055
399.67993
317.45496
424.04756
234.6708
321.16275
234.52745
204.06451
281.47138
174.79699
372.57192
187.06675
242.4771
289.92048
235.57207
534.09908
347.04289
524.80362
294.86544
338.34573
238.5566
221.67137
240.1094
158.06348
249.89721
197.22217
148.9339
308.13566
243.85218
440.73879
539.36885
477.692
418.80532
402.88951
285.98233
271.76987
256.88046
174.08297
245.93511
142.51619
236.08344
152.25983
224.7234
278.99564
365.40296
582.93495
307.45793
434.46163
281.24605
236.36357
207.63751
128.48533
147.31052
99.951322
68.780478
179.12807
-2.7027428
166.67232
312.06259
457.28337
519.99171
368.86564
376.90997
289.79079
222.22193
174.34644
160.91719
104.7596
108.34424
70.298141
133.80284
-24.074716
145.83542
378.90858
419.78591
580.36122
303.53871
377.04518
264.04503
190.16594
178.97271
123.35953
91.7488
112.35957
16.249648
158.12286
-31.544912
136.45265
571.72585
605.81467
634.77543
418.68384
472.08365
362.71249
300.8411
281.67806
238.42221
221.04495
205.17912
154.41574
281.91312
89.947269
253.32309
920.31913
793.66614
811.20812
561.87325
615.34402
497.09434
433.83467
415.52669
389.4832
336.49085
381.03061
293.93531
453.90612
296.26206
416.13719
1417.4758
1166.5442
1059.2746
821.88496
866.57219
761.51753
685.67721
686.27881
630.49539
619.61353
636.83759
559.91979
743.5704
605.23531
672.46617
2033.5326
1597.183
1370.315
1128.9773
1168.4045
1021.4138
942.9837
915.91955
898.72868
855.61305
901.7059
833.31398
1032.1931
945.92048
953.9182
2715.4214
2080.4621
1705.4175
1471.6663
1469.7397
1340.9217
1247.1139
1256.1533
1206.0726
1177.8959
1223.2393
1152.5738
1355.3927
1310.5592
1246.6267
3349.4145
2549.8194
2028.5497
1775.6761
1777.7271
1613.9646
1513.8382
1475.8795
1438.8853
1403.1311
1454.0048
1395.7274
1602.7701
1611.11
1480.3972
3875.0835
2928.9313
2266.9599
2034.8507
1990.615
1833.532
1717.819
1714.9922
1675.7087
1637.3402
1682.9547
1625.1743
1814.2022
1841.49
1662.9498
4194.4082
3169.6635
2435.1644
2184.9363
2143.2228
1977.6976
1871.2433
1835.5576
1780.4093
1736.5508
1780.1831