/*--------------------------------*- C++ -*----------------------------------*\
  =========                 |
  \\      /  F ield         | OpenFOAM: The Open Source CFD Toolbox
   \\    /   O peration     | Website:  https://openfoam.org
    \\  /    A nd           | Version:  6
     \\/     M anipulation  |
\*---------------------------------------------------------------------------*/
FoamFile
{
    version     2.0;
    format      ascii;
    class       pointScalarField;
    location    "0.06";
    object      E;
}
// * * * * * * * * * * * * * * * * * * * * * * * * * * * * * * * * * * * * * //

dimensions      [1 -1 -2 0 0 0 0];

internalField   nonuniform List<scalar> 
625
(
0.099970564
0.13713816
-22776.876
-9450.4058
0.063647804
0.10963491
-15349.976
-34521.093
0.2185896
0.22646578
0.11901511
-10960.456
-11299.325
-8070.4446
0.20874268
0.47699623
1.1336232
2.502712
5.4775953
10.529964
18.240227
30.207285
46.01609
66.920731
108.901
171.27612
263.9467
379.68607
504.39619
623.36589
719.24096
806.37917
852.08976
891.34446
995.55209
1118.6521
1226.0039
0.18079264
0.42878556
1.1881473
2.8397137
5.9777243
11.468958
20.151308
30.828398
52.332862
80.734732
129.95573
202.64025
303.24502
428.51222
567.47126
707.88255
829.95558
956.81566
1033.3198
1154.3941
1254.8688
1376.96
1455.2447
0.1849566
0.18891929
0.10706693
0.18580841
0.32577422
1.1291352
3.3112477
8.4044617
17.81646
22.143235
43.02014
51.437381
60.782531
83.915151
147.39871
278.67868
482.95958
733.9006
985.51227
1193.9451
1341.0648
1420.2449
1457.4225
1455.831
1400.8277
1030.038
-23870.458
-26392.406
-24884.222
997.91023
844.35942
980.66328
905.14023
874.58617
831.44377
778.05024
700.59714
589.86939
453.50698
314.25415
195.45588
114.08923
67.18717
44.011319
24.881892
16.629809
9.5904381
5.9844506
2.9226435
1.1814448
0.55401245
0.2233229
0.085517906
0.095712783
0.073529634
0.14147217
0.13129596
0.12775918
-11134.34
-10946.343
-11018.986
-25897.485
-25979.427
-26002.584
0.34957095
0.6766291
1.1598754
1.6430494
2.1620069
4.1272698
11.044758
27.481158
56.360515
98.312415
142.57068
181.1414
210.14817
232.45683
258.56166
297.13626
356.22043
441.53392
575.2887
749.16234
1012.4179
1217.8807
1890.0341
0.3680529
0.69456068
1.0533618
1.1274475
1.28995
3.9130922
13.920597
36.909871
73.480119
112.91786
139.61583
141.84574
121.52868
98.332136
97.575049
140.4689
228.92789
371.4391
571.07806
762.10759
1068.0834
1288.0753
2031.3998
0.261518
0.64492813
1.3481002
2.2306117
3.0134571
4.1479658
8.4395834
21.478011
47.23766
89.770782
142.38846
193.73247
231.82902
253.1547
263.5319
277.50836
306.66548
368.95316
448.37137
593.96804
808.7753
1131.0809
1483.3742
0.18006919
0.15807887
0.16922837
0.18632305
0.17353787
0.17488443
0.10865052
0.094160295
0.097414189
0.1839613
0.18077958
0.16697119
0.3433645
0.32095703
0.37751043
0.98423865
0.98097412
1.0201022
2.6177081
2.8333524
2.9488937
6.3965738
7.0636667
7.1777692
13.823506
14.38145
14.809086
24.3893
29.68905
25.820164
45.518952
35.274349
39.51086
59.167094
52.850475
54.180122
79.028959
64.944341
64.327948
105.76185
91.762356
88.863453
160.81855
156.95443
148.86471
267.00205
277.8545
266.83408
431.98823
453.57225
448.02282
641.79169
658.59946
670.39762
862.35252
856.33109
897.19105
1055.9871
1012.1591
1092.0176
1215.4932
1129.9219
1240.3286
1317.9633
1193.7511
1340.3489
1402.4319
1246.5025
1408.9238
1514.8588
1335.1702
1499.4362
1544.8117
1363.2988
1565.7558
1572.591
1325.1698
1478.1149
-15714.084
-15621.919
-15716.878
-14490.295
-15940.652
-16158.821
-16707.684
-15202.051
-15397.428
0.2315388
0.21238915
0.20501042
0.37366128
0.36514084
0.42047978
0.95499813
0.99065836
1.0147246
2.2342063
2.2405169
2.1334173
5.1734735
5.2837399
4.844576
11.671661
10.626268
9.9970969
20.742619
19.522575
18.40332
33.897366
30.137077
27.883574
46.497653
40.48968
41.968009
66.424047
65.971577
55.593883
100.98832
103.76335
93.999215
162.80432
172.02196
153.63604
259.74443
273.84739
253.18882
391.96748
400.75879
381.75148
541.69149
531.81818
521.79655
689.65806
652.31193
649.68357
816.25639
743.48227
753.80168
909.00899
823.9118
838.08269
979.8438
896.48853
909.86504
1001.2926
942.81007
974.20769
1118.278
1095.7363
1102.2231
973.45679
928.54866
992.5535
1319.436
1107.701
1181.7987
0.25111329
0.57622306
1.290894
2.385797
3.7885558
5.7375321
10.365289
21.083767
42.802571
81.53059
133.61351
194.56396
261.25082
330.21327
400.13535
472.47704
550.69159
639.53597
738.54811
874.77229
1041.7425
1236.259
1877.816
0.28302929
0.72492557
1.3279204
1.7190342
1.578116
1.9129283
7.4203958
27.149611
64.221426
111.77664
149.81615
156.81936
128.14386
84.377942
60.480093
85.427932
169.16304
311.26939
502.92613
751.26739
1101.6704
1364.1847
2596.118
0.17736053
0.60903904
1.5736971
3.0865859
4.4487106
4.6281228
6.0181834
12.160413
33.783443
76.781031
135.80179
197.16599
240.54368
257.5817
253.25484
243.66684
247.62949
276.77457
342.09876
466.92463
606.61946
958.47459
1006.2692
0.23957411
0.25012024
0.26602932
0.51819723
0.47584986
0.53562282
0.94338121
0.91328854
1.0006353
1.5349966
1.5383894
1.6306084
2.345189
2.4311184
2.4641798
4.7582526
4.6257749
4.6356394
11.09547
9.8525597
10.429459
24.191197
20.401228
23.129705
47.980444
40.795673
43.205767
80.737942
69.44183
71.268641
117.7375
106.55356
106.96742
156.32918
151.19635
146.53866
196.71326
201.76365
191.70499
241.5298
256.87931
244.42506
297.00375
316.53487
306.50678
366.39138
381.00065
378.37322
453.36618
452.33751
463.36794
554.24668
538.40231
560.67867
688.33171
629.0579
691.89488
808.49238
788.99026
822.85377
1008.2114
1003.0086
1001.55
1298.9876
1260.6085
1263.0627
1794.3373
1618.3138
1733.7442
0.28921974
0.26699795
0.26939699
0.58290473
0.5557396
0.58850269
0.89683819
0.86300264
0.95845343
1.0128936
1.0051033
1.1146726
1.137201
1.0988145
1.1007453
3.0610167
2.9296018
2.471812
10.99638
10.680974
9.658781
30.463757
28.986657
26.525463
61.519103
57.374512
54.818948
97.079175
88.757714
84.621931
121.97272
109.33216
102.53235
124.07408
108.22331
99.890022
104.36628
89.284721
78.817795
80.981
69.503338
58.84025
78.172993
72.69485
62.345057
116.70412
117.26058
105.38179
201.96216
207.07709
190.12635
338.66752
344.65409
320.48027
518.15584
532.39615
493.78456
719.22679
768.70545
694.71208
1095.9788
1033.7469
1064.4308
1280.0664
1250.0664
1122.6402
1968.1756
2211.0884
2111.1062
0.19727319
0.15707372
0.16560816
0.53136044
0.48156828
0.53597448
1.1493065
1.1210876
1.294631
1.9544187
2.0703637
2.415932
2.7615229
2.9945286
3.4208856
3.8818953
3.9534461
4.3302453
7.3870273
6.5709895
6.1667171
17.727422
13.95947
15.522175
39.740397
32.215266
35.746567
75.900603
64.022842
73.791574
120.02335
106.93209
123.14635
161.89917
151.92895
172.13952
191.01462
189.57146
207.48984
205.46616
214.08764
225.41305
212.82912
228.58574
233.51166
226.4155
242.08042
248.16389
257.78609
266.16408
281.4678
318.55045
310.78801
351.08346
412.79313
398.23351
444.44722
563.09361
513.61739
612.17739
723.35783
667.14734
767.32181
1027.1327
992.31637
1211.2205
1421.2011
1069.9366
1297.5558
)
;

boundaryField
{
    free
    {
        type            zeroGradient;
    }
    fixed
    {
        type            zeroGradient;
    }
    traction
    {
        type            zeroGradient;
    }
}


// ************************************************************************* //
