/*--------------------------------*- C++ -*----------------------------------*\
  =========                 |
  \\      /  F ield         | OpenFOAM: The Open Source CFD Toolbox
   \\    /   O peration     | Website:  https://openfoam.org
    \\  /    A nd           | Version:  6
     \\/     M anipulation  |
\*---------------------------------------------------------------------------*/
FoamFile
{
    version     2.0;
    format      ascii;
    class       pointScalarField;
    location    "0.36";
    object      p;
}
// * * * * * * * * * * * * * * * * * * * * * * * * * * * * * * * * * * * * * //

dimensions      [1 -1 -2 0 0 0 0];

internalField   nonuniform List<scalar> 
28033
(
1557946.7
-2340012
191.83292
-174.61325
2938957.6
-3319530.7
-79.645942
232.34585
1357774.6
1173364.6
1004604.5
816751.56
608128.75
414615.44
216503.92
-4522.6415
-228239.81
-427299.69
-674247.5
-805728.93
-1085829.1
-1313009.1
-1298587.6
515.4943
1196.9327
1621.2329
1585.9254
1708.3225
1336.3444
1001.026
440.81364
-69.100612
-644.56914
-1170.625
-1445.0019
-1517.8533
-1260.576
-836.08091
438675.62
452833.09
413065.08
438056.4
427106.73
437809.21
437416.03
438153.39
436740.48
436767.01
432227.01
428267.68
425116.71
420276.14
414296.63
407319.03
402186.77
394633.55
386729.62
378398.67
370563.77
360719.2
352371.77
342628.25
332330.4
323051.31
313239.62
303259.02
293586.69
284176.22
275156.55
265714.88
257548.85
249596.85
240796.01
233903.69
226178.5
220033.27
212110.67
205570.85
197975.35
190924.84
183376.18
176041.11
168077.35
160268.92
151932.74
143749.35
135123.01
126811.78
118225.47
110040.64
101912.27
94205.543
86840.043
79972.136
73592.411
67747.656
62440.379
57662.114
53354.805
49451.562
45942.068
42767.195
39671.877
36918.655
34492.853
31517.609
28420.258
25579.555
22375.39
19414.165
16409.089
13549.1
10742.226
8251.455
5927.6777
4045.6892
2353.0015
1237.4089
291.26746
-176.14076
-404.50923
-107.60225
282.50251
885.2007
1480.7913
2056.4385
2485.1902
2950.7348
2854.293
3121.1296
2104.3133
1770.8186
728.18172
-399164.98
-328433
-395377.83
-351867.14
-404057.04
-396338.73
-405880.75
-400155.43
-408498.06
-399822.12
-403118.19
-396246.1
-394112.13
-390371.71
-384434.97
-380062.7
-372836.11
-366359.4
-360120.2
-351724.08
-343366.46
-336587.18
-325328.41
-318610.86
-308497.58
-298818.07
-290784.08
-279893
-272302.14
-261394.54
-253465.44
-244202.6
-236278.42
-228474.02
-221085.08
-214377.32
-206251.33
-200175.09
-192654.29
-186558.27
-179419.7
-172807.78
-165623.24
-158578.1
-151040.28
-143522.44
-135648.13
-127721.32
-119667.29
-111590.26
-103592.91
-95727.175
-88112.116
-80817.722
-73905.739
-67466.731
-61503.568
-56066.364
-51140.967
-46722.833
-42740.939
-39199.874
-35969.415
-33018.566
-30257.427
-27622.61
-25053.318
-22555.577
-20106.309
-17301.809
-14683.668
-12015.149
-9431.3616
-6858.9971
-4469.4097
-2248.9022
-285.82797
1321.2953
2631.4118
3502.1669
4054.9923
4170.4731
4009.4823
3478.4762
2811.3689
1891.8636
988.79198
6.0822833
-818.83153
-1545.9188
-2054.1415
-2241.5953
-2170.148
-1717.8731
-1044.735
2415497.9
2269586.9
1647270.3
1656307.6
1154978.6
689525.76
434614.74
-29063.189
-385125.83
-838450.72
-1164903.7
-1600386.7
-2034272.2
-2384202.8
-2533204.1
-692105.28
-501040.91
-219800.5
-484828.15
-389249.79
-422936.45
-406053.79
-432021
-404616.48
-424039.35
-424369
-405672.68
-418589.32
-396708.48
-409052.02
-393743.85
-385775.16
-379992.83
-368560.65
-366852.4
-353642.98
-342026.4
-338415.59
-328660.1
-319845.37
-311134.26
-296287.45
-292164.35
-276551.09
-271248.6
-262689.65
-253808.19
-245236.05
-237546.8
-230193.46
-218931.01
-214060.64
-207704.56
-200365.69
-193435.05
-186356.51
-179311.68
-171974.84
-164514.53
-156840.54
-148976.55
-140847.27
-132592.27
-124200.61
-115848.35
-107528.68
-99392.043
-91497.186
-83934.627
-76776.937
-70066.027
-63886.459
-58201.747
-53069.533
-48443.555
-44278.279
-40556.271
-37171.785
-34073.058
-31188.348
-28393.5
-25816.362
-23307.327
-20194.955
-17688.949
-14990.632
-12283.443
-9565.1997
-6970.5432
-4521.5097
-2288.4403
-329.57194
1258.1565
2531.5208
3414.2779
3964.2221
4119.9172
4016.4405
3566.5879
2993.728
2214.0126
1455.5264
636.10215
-38.265764
-613.87525
-991.19695
-1146.7054
-1129.6868
-881.7029
-593.2957
-752.34947
-1819.6257
-2013.4352
-2348.2374
-1939.4487
-1559.9201
-749.71298
-92.325776
633.72172
859.6096
1331.7707
2183.4729
1507.8547
1863.1177
515.83504
536.19681
1869.8748
2634.4704
3101.0773
3390.3846
3345.0711
3091.181
2638.2381
2003.9259
1382.1162
756.90618
81.303271
-170.61493
-203.81612
60.934112
717.64534
1793.8149
3240.4307
5139.8419
7360.1481
9902.2244
12708.955
15723.191
18758.345
21980.83
24984.004
27594.01
31953.105
34361.747
37521.43
40587.464
43801.822
47130.712
50728.63
54626.595
58905.462
63690.165
68914.883
74744.824
81076.26
87986.582
95350.633
103224.22
111402.95
119931.53
128605.46
137411.83
146186.81
154937.53
163435.93
171871.03
179861.29
187931.61
195611.15
202723.35
210268.81
216700.8
221679.76
233787.43
238488.75
244502.02
257759.38
262538.39
271752.69
276903.36
293054.02
294379.88
312707.05
319376.81
330761.19
339943
345654.31
364296.11
368595.2
374285.64
390938.15
390772.51
406862.6
405603.33
420244.24
429567.4
426846.88
431582.38
442417.02
443608.81
442486.78
451729.5
448274.65
446249.98
439452.06
436842.36
450651.83
442832.04
412090.98
514213.32
1193153.6
1265064
1326779.1
1381470.6
1408624.8
1447358.5
1446698
1465142.7
1448595.5
1417926.1
1440657.2
1354111.8
1311738.5
1368479.4
1114234.6
-1896474.1
-2401767.7
-2384178.7
-2575163.5
-2515322
-2403539
-2758738.5
-2943830.5
-2755639.2
-2760810.9
-2650703.2
-2553102.8
-2398805.6
-2368856.5
-2227356.9
86.034579
435.35036
1091.7197
1529.4332
2004.5523
2243.6324
2529.3227
2669.7231
2690.8357
2601.6007
2501.266
2022.3476
1588.5142
941.90413
489.43398
-171.76875
-679.40813
-1464.85
-1927.4889
-2220.1727
-2396.4966
-2473.7675
-2432.0732
-2282.9052
-2075.1539
-1815.9333
-1415.6759
-1082.2648
-671.62101
-163.49074
406144.76
415079.65
373328.12
375106.88
381642.65
385238.02
387432.75
389619.8
389853.39
388196.18
385258.25
384940.57
379484.1
375378.48
369438.78
366453.65
359051.56
353318.57
345563.1
339634.46
331833.89
324793.35
316377.42
307854.85
299270.28
291850.74
282407.36
273846.6
265465.38
257349.02
248074.29
240605.96
233944.76
225740.46
218929.18
211349.55
204840.35
197421.54
191053.31
184906.21
178442.2
171659.86
165168.99
158159.01
151210.69
144203.83
136866.16
129685.59
122202.76
114910.12
107513.74
100349.55
93279.587
86512.137
80014.539
73888.54
68132.284
62792.104
57875.354
53353.205
49216.222
45412.917
41969.678
38735.631
35577.007
32853.252
29631.947
27104.979
24402.549
22038.289
19550.581
17199.502
14765.104
12514.477
10317.444
8367.9908
6548.8539
4995.5741
3626.2564
2675.5417
1722.6325
1280.7785
824.94727
619.87766
735.15236
901.8017
1144.659
1395.6024
1668.0439
1828.3729
1930.9699
1947.2423
1588.6436
1596.7081
1387.4535
370488.37
346634.32
307249.32
318599.78
318473.43
321609.19
323661.93
326283.59
326465.84
326888.73
325129.3
323561.72
319959.81
317811.96
313155.53
308913.83
303536.95
299362.4
293204.77
287708.71
281221.86
274334.64
268070.13
261339.77
254611.78
247090.19
240366.64
233470.35
226263.59
219298.92
212847.73
206360.46
199346.71
193012.45
186834.33
180847.51
174979.7
169276.86
163701.11
157939.44
152162.38
146919.8
140623.27
135026.17
129030.53
123197.51
117080.05
111131.07
104905.55
98924.454
92773.032
86872.74
80996.746
75368.943
69929.336
64764.122
59874.852
55309.515
51040.085
47098.179
43447.813
40094.125
37029.548
34135.297
31448.323
29237.266
26810.029
24383.174
22617.337
20139.477
18030.114
15912.035
13762.142
11784.782
9903.121
8254.5609
6521.0449
5279.5149
3923.5719
3044.3104
2097.507
1577.1096
1103.3748
1153.7676
699.11806
952.2941
964.30373
1206.348
1277.8255
1530.5453
1505.3848
1742.8554
1413.7524
1694.7346
1413.2542
294583.82
292535.06
252542.29
265249.49
259784.29
265781.09
268560.04
271365.17
270495.01
271673.75
269829.26
269300.45
266259.65
264110.75
260111.38
257586.17
252815.48
249165.68
243915.34
239743.27
234307.28
229732.14
224066.55
218821.95
212514.97
207373.87
201345.02
195410.41
189655.95
184033.37
178166.77
172416.92
167209.45
161854.49
156871.04
151573.04
146951.92
142272.04
137474.07
132692.28
127792.05
122949.96
118399.89
113683.03
108904.18
103949.48
98967.116
93939.024
88865.621
83817.49
78736.151
73788.848
68864.996
64132.516
59530.719
55146.861
50985.124
47068.398
43396.138
39996.215
36837.724
33919.741
31241.243
28679.226
26460.711
24456.682
22511.327
20621.43
18742.424
17205.714
15473.049
13779.556
12144.131
10609.915
9112.4096
7771.9594
6555.1005
5391.5913
4443.5475
3602.9503
2823.0088
2392.7651
1813.506
1457.9595
838.04056
901.73548
725.79522
874.01716
917.88972
1049.0225
1121.0177
1292.3072
1176.1931
1506.4443
1443.5152
233302.61
233466.91
195201.65
209276.18
200697.7
208861.49
209562.7
211154.59
211664.35
213374.14
211791.95
211871.25
209081.7
208501.08
205001.59
203272.38
199219.04
197232.06
192829.74
189869.55
185484.08
181751.58
177352.21
173162.57
168927.18
164576.34
160028.74
155817.7
151259.82
146815.21
142480.03
138198.85
133942.95
129640.37
125849.4
121280.45
117722.07
112767.15
108816.24
104929.48
101550.98
97775.213
93947.604
90050.301
86280.505
82441.697
78608.218
74782.633
70897.886
67048.906
63191.314
59403.987
55647.667
52008.454
48451.538
45052.663
41781.521
38688.287
35759.326
33020.231
30460.564
28066.083
25846.568
23792.451
21925.979
20023.617
18611.523
17182.582
15366.223
14151.742
12718.638
11219.744
9909.4372
8580.8096
7482.6583
6387.253
5410.5688
4523.7259
3719.699
3031.2569
2456.3818
1953.8151
1585.6345
1284.5656
1116.8665
1032.5324
849.52962
856.18386
780.48836
842.68988
814.16687
989.28314
895.77641
1292.5979
1277.9933
188547.21
171716.76
141647.45
155233.99
151089.65
155738.6
156640.6
158729.2
158217.39
159273.41
158218.59
157815.4
156364.5
155506.34
152858.66
151865.62
148712.43
147277.51
143814.66
142127.42
138696.4
136516.72
132902.28
130535.73
126892.23
123949.67
120506.18
117274.69
113838.27
110724.24
107343.03
104151.09
100907.29
97913.717
94842.139
91805.613
90283.966
88985.982
86209.223
85277.624
81847.689
79042.719
76338.421
73476.561
70615.477
67629.223
64649.184
61605.752
58563.79
55501.757
52432.541
49399.355
46377.838
43423.141
40535.785
37747.599
35053.631
32501.262
30067.258
27789.771
25653.271
23635.521
21806.855
20146.272
18338.603
17195.67
15537.544
14412.316
13001.236
11895.115
10793.299
9651.3648
8121.6358
7042.6006
6140.3781
5279.8579
4576.4048
3901.6231
3289.891
2804.9686
2294.9304
1982.8428
1592.9588
1443.268
1140.4784
1097.1153
926.51205
933.90625
802.70474
844.07183
797.34036
872.89514
887.79421
1165.7241
1227.9835
116897.39
117327.4
91320.067
104870.44
96963.272
99771.141
102226.9
102690.33
101795.74
104181.69
102101.63
103094.1
101177.87
101407.76
99146.459
99233.361
96662.27
96566.467
93792.186
93206.691
90512.984
89390.819
87069.448
85688.205
83323.358
81775.65
79587.915
77819.465
75706.002
73711.528
71638.28
69593.993
67605.018
65577.314
63486.853
61801.151
60531.587
59702.392
58541.633
57367.205
56524.196
54505.443
52496.042
50607.549
48676.112
46692.449
44719.659
42755.863
40764.281
38780.22
36785.16
34809.353
32826.596
30888.094
28972.339
27102.801
25292.624
23547.467
21870.3
20278.487
18762.597
17364.012
16018.615
14747.477
13691.079
12488.048
11593.802
10713.651
9840.9581
9086.0049
8290.5129
7494.8732
6648.8813
6143.0624
5313.1591
4822.3737
4244.6817
3771.1675
3291.249
2893.9322
2465.7416
2149.0398
1792.6919
1562.8539
1270.6662
1146.0056
843.59754
737.90351
565.42618
552.33779
495.24999
597.48545
591.11854
880.99615
930.83266
62317.681
54207.64
45330.31
53121.708
46204.984
49816.222
50642.094
49683.956
49894.638
49931.158
49599.232
49088.526
48824.79
48747.588
47631.836
47977.404
46482.705
46900.607
45314.068
45900.077
44293.715
44717.6
43284.088
43235.745
41925.958
41643.811
40373.489
39808.152
38588.475
37936.119
36824.117
36010.388
34976.297
34054.312
33131.11
32268.215
31258.876
30701.943
29509.646
28084.77
27573.28
26771.116
25853.818
25196.071
24415.92
23607.668
22768.884
21951.588
21046.189
20167.301
19237.8
18305.354
17351.825
16404.282
15453.829
14514.099
13602.648
12715.047
11857.463
11046.365
10291.862
9562.992
8895.7829
8317.8344
7688.2811
7233.4227
6723.0697
6247.4841
5838.8533
5448.7191
5086.9611
4711.8599
4439.0182
4258.0814
3922.9122
3675.3418
3325.6986
3063.5596
2760.7425
2493.9111
2182.2718
1973.6334
1644.1217
1489.5343
1161.3678
1069.5276
776.99088
759.13374
571.13496
514.70409
460.83511
381.34566
496.12689
494.85279
580.28478
-6719.8396
-2303.0018
-7816.3838
-2413.7248
-4401.4945
-3434.6905
-3901.3431
-3543.8671
-5912.6813
-3854.2753
-6001.3729
-5073.0791
-5779.2307
-5059.9886
-5936.7263
-4484.9899
-5505.8138
-3815.2732
-4641.3747
-3124.9666
-3553.3917
-1989.3616
-2648.9931
-1372.1676
-1455.7848
-533.4778
-431.92541
228.26286
456.13512
870.15588
1029.6757
1307.9339
1449.4439
1664.7627
1810.8414
1839.077
2230.6226
2329.9018
2546.6506
2446.5283
2707.5148
3020.1912
3088.5391
3328.8543
3582.9515
3752.2553
4013.1722
4233.167
4424.1504
4597.9467
4732.3692
4828.125
4879.4019
4885.1838
4857.4849
4774.9427
4673.9003
4535.7548
4368.1922
4211.5487
4014.0865
3852.7575
3686.8413
3523.7048
3424.3917
3291.4847
3214.0269
3193.0897
3130.0422
3141.4449
3076.5878
3075.6449
2997.6656
2998.7933
2950.2773
2918.5044
2830.5249
2734.8257
2609.3735
2445.7596
2278.9742
2051.8906
1842.2443
1583.1133
1333.8374
1102.066
815.86131
640.23017
386.73645
267.56028
172.43067
127.18965
219.03878
150.96732
143.79827
-59087.332
-61016.782
-51578.604
-48572.19
-50375.766
-53023.844
-51607.972
-55343.345
-54838.882
-56375.017
-56151.07
-56793.3
-56031.99
-55731.887
-55192.671
-53848.496
-53602.802
-51457.913
-51512.664
-48966.912
-48755.478
-46825.085
-46081.652
-43578.919
-42827.23
-40583.946
-39712.274
-37615.275
-36637.078
-34899.875
-33780.448
-32280.048
-31155.241
-29798.338
-28749.807
-27408.8
-26427.756
-25186.971
-24033.665
-22841.844
-21707.076
-20481.789
-19378.558
-18093.843
-16890.04
-15698.438
-14508.181
-13316.374
-12197.837
-11088.012
-10032.991
-9033.9312
-8103.8133
-7230.3583
-6426.9004
-5707.3204
-5032.5726
-4441.5787
-3895.9321
-3413.947
-2958.3767
-2554.6952
-2173.564
-1793.1092
-1474.7765
-1116.2983
-756.42323
-439.98906
-92.788041
243.36101
567.80286
883.85177
1175.24
1459.7758
1592.4988
1803.3639
1956.0951
2046.5308
2098.2864
2089.4063
2009.4019
1923.8652
1719.1248
1590.699
1290.1044
1152.6324
809.89115
687.56772
383.03702
262.91665
159.94541
-101.42009
83.759331
-288.41226
-120.8447
-124721.51
-124546.3
-101191.48
-104470.61
-106433.64
-107397.73
-109682.25
-110514.57
-113679.25
-113096.25
-114158.68
-113849.07
-113498.08
-112111
-111591.42
-109030.87
-108059.55
-105200.33
-103511.84
-100462.83
-98685.192
-93505.024
-90901.385
-87382.537
-85231.503
-81978.377
-79461.795
-76451.739
-73918.604
-71108.732
-68702.156
-66100.661
-63854.136
-61457.876
-59212.337
-57077.159
-54860.512
-52795.293
-50641.171
-48606.752
-46484.154
-44340.338
-42156.38
-40007.952
-37735.296
-35533.193
-33251.566
-30997.317
-28783.514
-26593.995
-24462.163
-22426.706
-20472.535
-18626.448
-16900.76
-15306.755
-13821.547
-12475.09
-11252.223
-10117.471
-9104.2744
-8166.4888
-7289.9032
-6493.6475
-5717.5543
-4960.7863
-4250.7213
-3550.3278
-2855.1732
-2166.0944
-1537.2801
-888.37641
-312.56998
348.66623
1044.1779
1235.4216
1487.8036
1672.584
1854.7509
1809.1073
1892.6642
1667.7995
1635.9655
1331.0666
1166.254
879.30581
628.81755
395.79803
134.31082
15.916775
-217.73327
-344.45137
-370.47503
-471.93593
-565.26463
-192984.09
-152033.1
-136761.09
-139619.22
-143984.31
-145536.02
-149239.27
-151654.23
-154814.82
-154984.77
-155611.87
-156139.03
-154698.71
-153343
-152136.49
-148806.07
-147747.66
-143496.38
-141686.75
-138251.61
-136227.55
-135114.35
-132522.55
-129507.79
-126785.97
-122138.91
-119175.19
-114553.39
-111229.63
-107149.48
-103768.78
-100066.83
-96816.556
-93285.149
-90075.034
-86754.747
-83684.083
-80478.244
-77408.127
-74274.488
-71203.459
-68002.563
-64914.287
-61685.96
-58496.487
-55272.81
-52070.679
-48856.308
-45704.552
-42578.605
-39536.58
-36590.166
-33746.478
-31035.273
-28465.172
-26051.477
-23776.627
-21688.136
-19722.127
-17923.567
-16244.837
-14687.262
-13252.202
-11880.15
-10618.414
-9402.5579
-8229.1756
-7088.3257
-5984.3628
-4927.3353
-3906.937
-2967.0343
-2032.9787
-1182.1002
-628.64883
456.55154
1015.3014
1447.8455
1800.2755
2043.5096
2105.2798
2157.7322
2027.066
1868.6464
1615.9134
1309.4042
991.55957
615.45146
355.01204
-90.907419
-149.83075
-591.88532
-404.90583
-957.15128
-924.15965
-228182.45
-217932.95
-195461.48
-192123.73
-196274.18
-198135.33
-203474.64
-206526.45
-207536.07
-210318.02
-210200.27
-209333.1
-208713.53
-206412.75
-204255.73
-201477.5
-198053.84
-194236
-190951.61
-185959.98
-183191.21
-177599.73
-176516.04
-172674.32
-168130.87
-163218.69
-158288.02
-152829.09
-148028.78
-142702.57
-138155.4
-133043.08
-128780.92
-124151.18
-119930.53
-115777.5
-111617.83
-107603.21
-103579.69
-99638.175
-95559.833
-91603.975
-87474.512
-83373.056
-79151.464
-74905.588
-70615.725
-66291.033
-61990.841
-57732.131
-53539.176
-49469.679
-45537.257
-41784.327
-38233.386
-34902.781
-31809.11
-28951.231
-26331.012
-23936.879
-21732.667
-19744.854
-17879.286
-16157.507
-14563.464
-13007.502
-11514.391
-10110.001
-8702.9092
-7322.8412
-6018.9929
-4711.7679
-3462.8977
-2385.6295
-1348.12
-478.85162
435.16783
1145.3696
1685.8339
2029.3006
2275.8568
2315.08
2253.7454
2038.6899
1754.8832
1369.4269
959.0773
528.82773
94.337191
-279.15592
-558.82975
-943.05623
-790.24552
-1271.678
-1202.4826
-321716.64
-289970.63
-240349.82
-256471.17
-251673.88
-263226.56
-263473.33
-268893.38
-269808.07
-271989.67
-270862.84
-270765.67
-268001.96
-266186.72
-262200.16
-258533.77
-254524.05
-249201.19
-244850.81
-239075.55
-233969.85
-228098.09
-221693.82
-214595.26
-209067.83
-202386.34
-196965.29
-190092.84
-184411.97
-178033.29
-172279.86
-166249.03
-160959.86
-155323.13
-150116.5
-144839.47
-139705.94
-134667.52
-129738.77
-124696.54
-119804.33
-114742.1
-109709.16
-104579.13
-99413.954
-94196.347
-88959.458
-83691.245
-78468.011
-73288.78
-68189.449
-63236.021
-58431.926
-53836.01
-49457.298
-45343.813
-41477.063
-37898.33
-34580.192
-31520.778
-28706.659
-26109.058
-23688.073
-21437.512
-19330.417
-17299.485
-15409.552
-13555.408
-11729.511
-9962.7742
-8278.9703
-6637.6698
-5114.4526
-3663.985
-2350.8924
-1133.9652
-111.4485
752.82002
1399.6721
1895.7149
2174.1968
2304.6686
2266.0426
2084.3909
1808.1916
1432.7481
1022.8774
568.67306
178.58367
-268.46395
-509.41997
-947.4349
-749.07148
-1358.543
-1364.813
-352866.17
-334923.93
-277612.66
-304059.79
-305960.5
-315381.99
-316798.9
-324370.36
-325176.68
-325416.36
-326701.4
-323981
-322198.82
-319185.36
-314315.55
-310587.29
-305155.98
-299114.56
-293900.13
-286628.79
-280360.6
-273174.96
-266019.86
-259164.93
-251088.71
-243384.57
-235910.72
-227760.14
-221094.46
-213022.03
-206333.39
-198985.13
-192339.47
-185634.44
-179481.68
-173616.31
-167593.6
-161997.7
-156150.83
-150571.85
-144798.68
-139032.79
-133162.69
-127146.1
-121021.35
-114743.2
-108362.58
-101903.32
-95411.825
-88942.033
-82549.485
-76310.472
-70271.38
-64496.228
-59036.771
-53927.463
-49189.732
-44849.549
-40881.191
-37297.561
-34032.707
-31093.188
-28375.1
-25887.679
-23514.769
-21262.519
-19059.959
-16966.579
-14853.87
-12751.923
-10698.738
-8657.3326
-6634.5644
-4781.1538
-2972.9165
-1384.8953
12.59446
1156.9787
2076.9231
2677.1045
3059.5031
3138.5279
3020.6868
2665.1001
2190.4882
1569.1238
906.43775
246.67575
-390.49529
-937.88239
-1303.907
-1621.0538
-1500.2957
-1714.5489
-1495.8429
-497140.02
-320379.23
-343971.73
-348057.64
-362400.97
-357968.49
-369956.51
-373399.07
-372446.15
-374463.72
-372994.02
-372064.15
-367490.42
-364154.38
-358566.12
-353821.83
-348553.62
-340899.71
-334910.59
-327060.43
-319323.88
-311260.43
-304173.46
-294753.73
-287074.89
-277341.21
-269271.73
-259780.94
-252805.36
-243843.73
-236441.57
-228033.1
-220595.74
-212637.91
-205287.86
-199191.05
-192501.21
-185984.31
-179464.65
-173037.4
-166452.81
-159892.38
-153114.08
-146224.65
-139166.65
-131952.53
-124622.67
-117209.42
-109740.5
-102327.05
-94980.97
-87828.809
-80897.56
-74282.889
-68029.59
-62180.848
-56769.993
-51810.514
-47295.123
-43199.26
-39503.814
-36144.692
-33074.517
-30240.299
-27561.983
-24968.336
-22409.912
-19859.564
-17520.292
-15126.624
-12757.796
-10298.297
-7993.1994
-5762.9523
-3688.2106
-1813.8695
-229.77058
1165.0524
2188.6257
2949.2345
3346.1489
3482.443
3310.3588
2947.5991
2368.5852
1704.2279
950.2317
239.06393
-461.88158
-1005.1275
-1407.8418
-1696.854
-1664.4584
-1679.6124
-1621.8167
873623.27
889627.16
869379.57
892723.46
897849.74
903503.06
935298.86
914255.46
908408.34
905799.94
899892.32
871439.14
863304.49
904740.06
783480.41
817686.76
833148.66
798426.32
821692.62
829916.69
845034.54
821816.34
851827.3
843544.41
849698.94
832041.04
828018.56
827005.11
832461.93
721407.05
611202.18
695660.82
618364.58
648230.82
646682.97
641284.76
650407.22
644140.33
649820.64
640400.09
638967
643779.52
603862.06
660139.85
616340.89
535217.25
537948.76
539351.56
532960.26
550099.19
545254.91
553216.92
554249.89
548522.75
550686.21
551465.95
532446.81
533984.56
568431.67
418148.14
379566.55
429268.93
376828.03
408623.19
396712.22
410575.72
406097.22
404653.25
408373.02
407072.78
402156.17
401027.63
395653.39
406471.52
367556.87
277155.86
290204.28
272761.82
281677.04
282735.5
284243.17
283371.13
284121.25
286459.73
284561.32
278325.05
288527.79
272818.79
288399.4
276494.91
149845.82
150701.61
153578.87
148106.7
155455.58
156160.49
155385.21
156683.88
152661.29
156111.48
152917.75
144767.72
155687.33
143331.12
150034.22
19091.91
18053.244
10660.478
19734.876
14817.225
17422.437
16078.645
17392.078
13323.835
23719.174
5028.5319
22522.375
29725.561
118.43491
70242.338
-100421.48
-114749.2
-99357.418
-108338.23
-105224.99
-105529.54
-106702.45
-103712.28
-108688.78
-96343.362
-111990.6
-96435.257
-93609.587
-127298.07
-12309.223
-207117.93
-257158.93
-226328.07
-236268.96
-235813.69
-239937.1
-241646.81
-240401.42
-248545.18
-232752.08
-264212.97
-227951.8
-228042.17
-274862.81
-138634.17
-339235.28
-417650.81
-347826.99
-388528.63
-369998.23
-379562.76
-375842.51
-375577.7
-379776.7
-361238.86
-372010.31
-366599.04
-338647.63
-389907.17
-224738.72
-501630.33
-484255.39
-486243.32
-477988.78
-495971.78
-498117.63
-501345.95
-506741.37
-509086.94
-499220.28
-527159.67
-461285.14
-488192.12
-537380.52
-354324.53
-565087.41
-643696.98
-562219.32
-592559.28
-567186.55
-586848.39
-580456.52
-581468.41
-574479.69
-570555.1
-575058.29
-581351.73
-528340.79
-641293.49
-307032.92
-701825.19
-859482.07
-739376.42
-810196.05
-827926.76
-820909.85
-826602.7
-865708.12
-845994.62
-866166.05
-818805.43
-797300.62
-817538.17
-793144.93
-722002.82
-745686.25
-668562.28
-601631.24
-607903.11
-634680.93
-681574.77
-651780.01
-628073.73
-598863.36
-596719.63
-609544.03
-613803.91
-611622.72
-687741.45
-608561.7
-719006.49
-669947.33
-801680.47
-844005.16
-878306.88
-957579.62
-917062.14
-857714.7
-975855.8
-955199.92
-922738.34
-875400.28
-834103.01
-797092.89
-656869.95
-493399.77
-501163.3
-566875.45
-583560.84
-609762.96
-628868.5
-647446.66
-665995.95
-687373.21
-652575.72
-638531.51
-598737.95
-599714.77
-592765.43
-593537.66
-403490.49
-468369.77
-454467.3
-501518.2
-531496.48
-515003.71
-542729.96
-536586.17
-521042.06
-543822.82
-520900.08
-528847.94
-510079.13
-449564.43
-471822.36
-407436.72
-466903.46
-472620.94
-486165.3
-499741.54
-511173.67
-515760.61
-520885.73
-519612.48
-507589.16
-507017.01
-493048.74
-472489.69
-464062.17
-434454.12
-436492.01
-480348.03
-464546.42
-503617.16
-507310.56
-518162.08
-530189.78
-527709.2
-531387.93
-530364.28
-516005.49
-505625.8
-482909.05
-460879.39
-456732.07
-421567.17
-442037.77
-454078
-472222.46
-478735.31
-492867.35
-491702.26
-494213.17
-493981.78
-485718.8
-482637.74
-472394.76
-457689.89
-446043.43
-420400.84
-420661.23
-452842.41
-452458.94
-473141.84
-473472.95
-484351.66
-487772.3
-489312.16
-488742.87
-484008.27
-473856.19
-467689.2
-454945.34
-434869.59
-438700.21
-424645.38
-433797.91
-445604.63
-453010.94
-466596.83
-468507.05
-473707.14
-475704.92
-473440.01
-471062.47
-465182.03
-456503.9
-447270.64
-432676.06
-421624.79
-417009.58
-434793.23
-437718.96
-450853.14
-449456.59
-460479.01
-457385.16
-461349.31
-458621.85
-454554.76
-449885.33
-442763.71
-436378.9
-426995.5
-421506.43
-417926.5
-422751.29
-430479.4
-433494.42
-440766.89
-442143.14
-446043.39
-446000.81
-444319.57
-444644.82
-438566.58
-435685.25
-429216.5
-420946.61
-417646.68
-410506.96
-421324.57
-423586.47
-432289.85
-433417.68
-439995.84
-438564.48
-442027.07
-440770.55
-438408.12
-436821.56
-433033.79
-426859.18
-422305.32
-418172.7
-410916.64
-411882.61
-417200.89
-418973.59
-422178.46
-422640.92
-425585.87
-425640.65
-425828.25
-424942.19
-422667.89
-419280.96
-417209.03
-411849.15
-411110.41
-405681.64
-408549.33
-409374.01
-414737.53
-415647.71
-420181.18
-419060.14
-421666.93
-421004.98
-420407.41
-417430.59
-417382.48
-412318.76
-411038.66
-407275.13
-399473.96
-400965.15
-405532.64
-405336.23
-408319.46
-408113.01
-408979.23
-410108.29
-409929.01
-408736.36
-408188.21
-406807.35
-404710.61
-401683.06
-402755.72
-395177.17
-395599.3
-397467.45
-400189.59
-401043.04
-402054.96
-403565.02
-402588.18
-403864.59
-404116.47
-402505.18
-402407.46
-398207.44
-399351.16
-396931.2
-387383.68
-389283.89
-392421.89
-391707.86
-393155.8
-393262.17
-395873.54
-393263.99
-392795.45
-392556.82
-391119.43
-391264.02
-388163.98
-387250.59
-386854.5
-382941.4
-382090.51
-384646.5
-383673.12
-386533.6
-387074.54
-386791.75
-387476.39
-387877.43
-388119.98
-387039.6
-387636.52
-386955.3
-382892.97
-386981.77
-375935.6
-376047.02
-377509.49
-376882.12
-377934.74
-378000.07
-378408.72
-377227.87
-377217.15
-376874.15
-375840.27
-375515.41
-374054.64
-373462.81
-373294.7
-366894.34
-367721.15
-369392.39
-370321.48
-370166.77
-370054.61
-369004.78
-370755.76
-370134.23
-370802.76
-368449
-370600.53
-368586.19
-369945.77
-369265.13
-360145.07
-359695.27
-360858.07
-359801.17
-361319.88
-360863.75
-362313.09
-360265.08
-361208.21
-360120.37
-358823.26
-360793.83
-358042.11
-359377.85
-357824.49
-352055.48
-351511.06
-352839.29
-352102.62
-351812.75
-351339.63
-352031.3
-352605
-351533.73
-352072.54
-351678.02
-352749.51
-351054.01
-351353.1
-351263.14
-340989.77
-342738.69
-342683.94
-342801.76
-343268.84
-342340.94
-342906.27
-341840.69
-342322.49
-342077.52
-341321.37
-342933.88
-341162.04
-339859.29
-343072.27
-334401.08
-332342.07
-333422.49
-332907.55
-333000.59
-332820.44
-333159.43
-332568.55
-331789.39
-333438.19
-331630.28
-332475.07
-330425.51
-333099.7
-332466.81
-323206.55
-323224.73
-323344.01
-323701.43
-323066.34
-322873.65
-322613.03
-321703.83
-322440.73
-321886.27
-320861.24
-323019.8
-321885.64
-321623.17
-322308.9
-314081.03
-313681.22
-313182.24
-312710.49
-312480.8
-311596.6
-312436.81
-311891.1
-311682.6
-312599.63
-310512.57
-313049.16
-311152.75
-312724.66
-313113.63
-304869.67
-302232.22
-303288.17
-301654.88
-301971.46
-301890.51
-301948.79
-301146.2
-301442.44
-301649.36
-302196.06
-302177.75
-300911.51
-302789.5
-302328.32
-293867.07
-292947.05
-292363.69
-292519.18
-291710.38
-292308.33
-291218.77
-291358.05
-290901.58
-291320.23
-290705.92
-293075.03
-290812.31
-292838.84
-294312.42
-285290.22
-282095.04
-282477.15
-281711.77
-281857.78
-281472.59
-280883.61
-280692.86
-281144.65
-280905.18
-281025.37
-281733.85
-280989.69
-283804.98
-282574.77
-274127.83
-273663.9
-273398
-272245.74
-271548.36
-271430.91
-271028.08
-271075.93
-270891.92
-271555.8
-270982.63
-272752.65
-271520.39
-273198.21
-275051.65
-266810.34
-262775.74
-263292.11
-262403.14
-262556.37
-261582
-261555.74
-261351.27
-261244.31
-261428.83
-261293.27
-262925.06
-261896.52
-264678.76
-264886.72
-256724.44
-254441.35
-254321.15
-253402.7
-252737.82
-253287.09
-252195.24
-252115.04
-251424.86
-252614.29
-252256.63
-253980.64
-252958.02
-255329.05
-255758.89
-248951.94
-245212.66
-245794.96
-244557.03
-244078.62
-244076.99
-243217.65
-243392.83
-243005.51
-243836.84
-243415.98
-245269.73
-244387.39
-247040.87
-247337.32
-240212.16
-237170.94
-237331.64
-236296.47
-235942.86
-235736.43
-235117.83
-235144.33
-234963.28
-235623.81
-235428.76
-237069.84
-236454.01
-238956.48
-239005.15
-232390.06
-229171.36
-229614.42
-228478.57
-228028.41
-227757.13
-227358.78
-227373.55
-227137.8
-227851.63
-227497.3
-229362.79
-228714.67
-231353.34
-231604.51
-224282.39
-222021.8
-222236.48
-221065.52
-220830.6
-220689.29
-220056.94
-220220.15
-219931.87
-220698.42
-220372.97
-221942.16
-221446.55
-223598.84
-223547.63
-216768.1
-215387.57
-214966.23
-215093.05
-213639.04
-213753.58
-213203.68
-213167.94
-213078.05
-213574.78
-213471.23
-214954.1
-214875.93
-216379.19
-217930.22
-211119.27
-208078.87
-208430.75
-207511.46
-207506.46
-206825.28
-206854.32
-206586.78
-206695.41
-206749.39
-206839.37
-208551.81
-207827.75
-209955.47
-210230.32
-203592.59
-201691.29
-201857.94
-201379.59
-200622.86
-200824.82
-200083.24
-200416.94
-200051.45
-200591.37
-200424.89
-201886.34
-201545.37
-202977.55
-203637.16
-197549.85
-194929.85
-195712.71
-194735.08
-194703.69
-194342.1
-194110.96
-194082.1
-193831.6
-194492.36
-194098.28
-195719.85
-194998.98
-196417.57
-196994.24
-190442.32
-188668.22
-189194.47
-188566.2
-188298.38
-188234.8
-187848.35
-187828.72
-187700.49
-188185.61
-187847.5
-189144.02
-188611.44
-189774.01
-190462.29
-183987.21
-182006.93
-182827.76
-182034.92
-182036.54
-181740.59
-181501.39
-181477.84
-181265.56
-181821.18
-181326.54
-182679.97
-182053.45
-182992.23
-183636.54
-176927.48
-175421.2
-176060.63
-175524.88
-175420.63
-175259.43
-175037.02
-174892.32
-174790.47
-175171.7
-174778.13
-176001.98
-175322.29
-176066.11
-176786.5
-169972.91
-168395.11
-169190.74
-168590.78
-168587.97
-168425.05
-168153.69
-168072.33
-167886.74
-168308.99
-167837.88
-168969.96
-168249.81
-168916.04
-169610.34
-162534.53