/*--------------------------------*- C++ -*----------------------------------*\
  =========                 |
  \\      /  F ield         | OpenFOAM: The Open Source CFD Toolbox
   \\    /   O peration     | Website:  https://openfoam.org
    \\  /    A nd           | Version:  6
     \\/     M anipulation  |
\*---------------------------------------------------------------------------*/
FoamFile
{
    version     2.0;
    format      ascii;
    class       pointVectorField;
    location    "0.36";
    object      u;
}
// * * * * * * * * * * * * * * * * * * * * * * * * * * * * * * * * * * * * * //

dimensions      [0 1 0 0 0 0 0];

internalField   nonuniform List<vector> 
28033
(
(0 1.5919559e-19 0)
(0 1.0901238e-18 0)
(1.8092909 -0.10759342 0.0025640936)
(1.7349358 -0.48612346 0.0014222454)
(0 9.8451375e-19 0)
(0 1.6034825e-18 0)
(1.7354388 -0.48663689 0.0017591788)
(1.8097914 -0.10831518 0.0022506258)
(0 3.44705e-19 0)
(0 9.9540174e-20 0)
(0 7.951443e-19 0)
(0 -3.774988e-19 0)
(0 5.0851562e-19 0)
(0 -3.0136094e-19 0)
(0 -7.2819753e-21 0)
(-2.4289931e-19 -7.923787e-20 0)
(0 1.4903175e-19 0)
(0 7.4164981e-20 0)
(0 -2.8542242e-19 0)
(0 2.7634689e-19 0)
(0 3.3046266e-19 0)
(0 -2.6505083e-19 0)
(0 3.3698319e-19 0)
(1.8046555 -0.13121796 0.0024976522)
(1.8000275 -0.15485261 0.0024350421)
(1.7954016 -0.17849668 0.0023699074)
(1.7907732 -0.20215396 0.0022972346)
(1.7861399 -0.22581961 0.0022263868)
(1.7814999 -0.24949744 0.0021455394)
(1.7768536 -0.27318037 0.0020681119)
(1.7721987 -0.29686683 0.0019838598)
(1.7675391 -0.32055089 0.0019033883)
(1.7628759 -0.34423034 0.0018227907)
(1.75821 -0.36790062 0.0017471982)
(1.7535464 -0.39156084 0.0016761186)
(1.7488847 -0.415209 0.0016084444)
(1.7442293 -0.43884979 0.0015458092)
(1.7395805 -0.46248216 0.0014863995)
(0.0050820279 0.0076538627 0.0084949432)
(0.006216631 0.012170658 0.011683351)
(0.0080381772 0.016753393 0.01399559)
(0.010655894 0.02150937 0.015502077)
(0.013771989 0.02630426 0.016399246)
(0.017768941 0.031213491 0.017036013)
(0.022442656 0.036131323 0.017376145)
(0.027881643 0.040962878 0.017555345)
(0.034019591 0.045826088 0.017619405)
(0.040893022 0.050535545 0.017606143)
(0.048417414 0.05519428 0.017516628)
(0.05664419 0.059705848 0.017377936)
(0.065515753 0.064115425 0.017247024)
(0.075083972 0.068359895 0.01703795)
(0.085246643 0.072459582 0.016845783)
(0.096076326 0.076375423 0.016589614)
(0.1075151 0.080138931 0.016360865)
(0.1195872 0.083675051 0.016078278)
(0.1322346 0.087049111 0.015780442)
(0.14548119 0.090185138 0.015456119)
(0.15928333 0.093131786 0.015136102)
(0.17364325 0.095832308 0.014758394)
(0.1885243 0.098319255 0.014409361)
(0.20392689 0.10057891 0.014015809)
(0.21979409 0.10259139 0.013622497)
(0.23613639 0.10438893 0.013226133)
(0.25290598 0.10593303 0.012837769)
(0.27010356 0.10727713 0.012436527)
(0.28768142 0.10836315 0.012049943)
(0.30563342 0.10924876 0.011682648)
(0.32394497 0.1099219 0.011318724)
(0.34256965 0.11037274 0.01097345)
(0.36152305 0.11063988 0.010656221)
(0.38078183 0.11068515 0.010347465)
(0.40033367 0.11056988 0.01005218)
(0.42017097 0.11024514 0.0097796133)
(0.44027291 0.1097525 0.0095227715)
(0.46066125 0.10907765 0.0092693198)
(0.48129705 0.10822548 0.0090143212)
(0.50220032 0.10720505 0.0087711516)
(0.52335106 0.10600086 0.0085164696)
(0.54475072 0.10463684 0.0082615731)
(0.56639114 0.10308798 0.0079895006)
(0.58826439 0.10137127 0.0077110521)
(0.61035378 0.099475205 0.0074163611)
(0.63265591 0.097410023 0.0071096488)
(0.65514632 0.095170334 0.0067916364)
(0.67782065 0.092762706 0.0064629695)
(0.70065012 0.090189023 0.0061291291)
(0.72362793 0.087455326 0.0057923494)
(0.74672583 0.08456792 0.0054582332)
(0.76993349 0.081534071 0.0051309425)
(0.79322733 0.078363496 0.0048156499)
(0.81659471 0.075064343 0.0045165164)
(0.84001853 0.071648251 0.004237391)
(0.86348688 0.068123932 0.0039815952)
(0.88698888 0.064502706 0.0037507555)
(0.91051648 0.060793496 0.0035460743)
(0.93406383 0.057005599 0.0033672595)
(0.95762808 0.053146552 0.0032128679)
(0.98120722 0.049223515 0.0030807948)
(1.0048033 0.045242019 0.0029670266)
(1.0284152 0.041206307 0.0028697363)
(1.0520506 0.037117574 0.0027810569)
(1.0757046 0.032984164 0.0027030134)
(1.099388 0.028798365 0.0026235315)
(1.1230938 0.024565799 0.0025493638)
(1.1468292 0.020290421 0.0024695186)
(1.1705879 0.015963045 0.0023838372)
(1.1943725 0.011596218 0.0022962029)
(1.2181724 0.0071805574 0.0022046488)
(1.2419867 0.0027258117 0.0021108617)
(1.265806 -0.0017676147 0.0020181671)
(1.289623 -0.006298653 0.0019299809)
(1.3134313 -0.010856704 0.0018481746)
(1.3372202 -0.015445134 0.0017796729)
(1.3609868 -0.020047612 0.001724352)
(1.3847221 -0.024671028 0.0016885667)
(1.408425 -0.029294871 0.0016705284)
(1.4320912 -0.033930834 0.0016767624)
(1.4557243 -0.038557982 0.0016988807)
(1.4793215 -0.043184203 0.0017461602)
(1.5028945 -0.047802607 0.0018050289)
(1.5264378 -0.052410476 0.0018837421)
(1.5499716 -0.057012548 0.0019663075)
(1.573491 -0.061600299 0.0020575669)
(1.5970137 -0.066192254 0.0021473698)
(1.6205384 -0.070764458 0.0022337283)
(1.6440771 -0.075354453 0.00231272)
(1.6676312 -0.079925721 0.0023799497)
(1.6912032 -0.08452229 0.0024368123)
(1.714798 -0.089108173 0.0024777764)
(1.7384048 -0.093718191 0.0025102641)
(1.762033 -0.098333058 0.0025296377)
(1.7856651 -0.10296015 0.0025396725)
(0.0020894561 -0.0087694098 -0.010211147)
(0.0039215485 -0.011930479 -0.011921674)
(0.0051600091 -0.016623832 -0.015381351)
(0.0065456034 -0.020332114 -0.016580522)
(0.0093574749 -0.025083218 -0.017791488)
(0.012532921 -0.029870011 -0.018388444)
(0.016468562 -0.034447121 -0.018792064)
(0.021109404 -0.039445118 -0.01890833)
(0.026485724 -0.044369008 -0.018946951)
(0.032376395 -0.049327908 -0.018862364)
(0.039000196 -0.054410909 -0.018721)
(0.046132231 -0.059448067 -0.018536339)
(0.053938433 -0.064596126 -0.01829729)
(0.062269729 -0.069740014 -0.018080685)
(0.071213834 -0.07491169 -0.017789237)
(0.080712578 -0.080148005 -0.017532873)
(0.090775026 -0.085352402 -0.017214338)
(0.10141777 -0.090645043 -0.016890692)
(0.11259452 -0.09593231 -0.016560795)
(0.12432647 -0.10123077 -0.016196924)
(0.13659166 -0.10657156 -0.015803252)
(0.14938195 -0.1119288 -0.015427278)
(0.1626575 -0.11725858 -0.014995474)
(0.17646129 -0.12266436 -0.01457246)
(0.19069942 -0.12801574 -0.014140575)
(0.20542879 -0.13340383 -0.013677609)
(0.22056338 -0.13878645 -0.013255712)
(0.23614144 -0.14415626 -0.012788267)
(0.252094 -0.14954177 -0.012372938)
(0.26844235 -0.15489818 -0.011924385)
(0.28513669 -0.16028602 -0.011524287)
(0.30218906 -0.16564129 -0.011119338)
(0.3195646 -0.17101646 -0.010744458)
(0.33726724 -0.17638259 -0.01037926)
(0.35527403 -0.18176105 -0.010037953)
(0.37358478 -0.1871342 -0.0097153498)
(0.39218719 -0.1925191 -0.0093925119)
(0.41108333 -0.19792878 -0.0090956719)
(0.43026539 -0.20333656 -0.0087960364)
(0.44973738 -0.20877179 -0.0085024382)
(0.46948884 -0.21421696 -0.0082054614)
(0.48952345 -0.21967831 -0.0079039322)
(0.50983423 -0.22515349 -0.0075912308)
(0.53041862 -0.23063846 -0.0072678236)
(0.55126791 -0.23613017 -0.0069296111)
(0.57237635 -0.24162313 -0.0065768927)
(0.59373009 -0.24711208 -0.0062105905)
(0.61531933 -0.25259 -0.0058314956)
(0.63712706 -0.2580516 -0.0054435039)
(0.65913813 -0.26348876 -0.0050496614)
(0.68133444 -0.26889727 -0.0046547132)
(0.70369754 -0.27427012 -0.0042635266)
(0.72620906 -0.27960397 -0.0038807708)
(0.74885068 -0.28489503 -0.0035114482)
(0.77160515 -0.29014153 -0.0031594)
(0.79445662 -0.29534248 -0.002828503)
(0.81739109 -0.30049934 -0.0025207967)
(0.84039654 -0.30561287 -0.0022382861)
(0.86346337 -0.31068714 -0.0019809935)
(0.8865844 -0.31572486 -0.0017484954)
(0.90975434 -0.32073101 -0.0015388542)
(0.93297056 -0.32570912 -0.0013499465)
(0.9562316 -0.33066458 -0.0011778837)
(0.97953786 -0.33559994 -0.0010196361)
(1.0028901 -0.34051997 -0.00087072616)
(1.0262902 -0.34542567 -0.00072752123)
(1.0497386 -0.35031993 -0.00058692391)
(1.0732375 -0.35520313 -0.00044438303)
(1.0967847 -0.36007255 -0.00030081836)
(1.1203784 -0.3649285 -0.00015028294)
(1.1440151 -0.36977103 1.8651154e-06)
(1.167691 -0.37459343 0.00015855534)
(1.1913978 -0.37939768 0.00031583223)
(1.2151281 -0.38417561 0.00047161088)
(1.2388735 -0.38893059 0.00062340448)
(1.2626238 -0.39365698 0.00076576018)
(1.2863709 -0.39835622 0.0008973382)
(1.3101066 -0.40302813 0.0010135666)
(1.3338231 -0.40767449 0.001113329)
(1.3575161 -0.41229711 0.001193776)
(1.3811819 -0.41690202 0.001256662)
(1.4048188 -0.42148968 0.0012994536)
(1.428429 -0.42607023 0.0013281051)
(1.4520137 -0.43064297 0.0013401679)
(1.4755789 -0.43521884 0.0013441686)
(1.4991287 -0.43979632 0.0013382666)
(1.5226706 -0.44438524 0.0013313515)
(1.5462102 -0.44898233 0.0013218391)
(1.5697539 -0.45359485 0.0013170515)
(1.593307 -0.45821845 0.0013157344)
(1.6168737 -0.4628557 0.0013214882)
(1.6404564 -0.46750206 0.0013335826)
(1.6640558 -0.47215713 0.0013523718)
(1.6876723 -0.47681123 0.0013749336)
(1.7112972 -0.48146833 0.0014011618)
(0 -4.3316108e-19 0)
(0 -3.1629326e-19 0)
(0 2.9626614e-19 0)
(0 -1.8720836e-19 0)
(0 -1.6120432e-19 0)
(0 9.0085354e-19 0)
(0 -2.674505e-19 0)
(-6.2270877e-19 1.7406287e-19 0)
(0 -1.5908696e-19 0)
(0 3.8756862e-19 0)
(0 4.6320353e-19 0)
(0 1.6201531e-19 0)
(0 8.5756626e-20 0)
(0 -1.7466993e-19 0)
(0 1.1873129e-19 0)
(0.0047709735 -0.0036612471 0.0074379912)
(0.0050224279 -0.013901541 0.011820517)
(0.0049867901 -0.014625929 0.014091978)
(0.0071745293 -0.021405495 0.016490714)
(0.0092971147 -0.024760477 0.017455532)
(0.012812628 -0.029910832 0.018017184)
(0.016618498 -0.034399195 0.018349958)
(0.02149479 -0.039575988 0.018526599)
(0.026741177 -0.044231572 0.018457463)
(0.032771662 -0.049457253 0.018362745)
(0.039448284 -0.054431823 0.018248785)
(0.046521823 -0.059410206 0.017979345)
(0.054455131 -0.064721148 0.017797566)
(0.062691201 -0.069641659 0.017472328)
(0.071791955 -0.075105921 0.017227671)
(0.081213902 -0.080050587 0.016895582)
(0.091341031 -0.085470012 0.016594004)
(0.10198608 -0.090605962 0.016190927)
(0.11318134 -0.095975214 0.015849547)
(0.12496683 -0.10127418 0.015414946)
(0.13720912 -0.10658817 0.015046131)
(0.15003418 -0.11193503 0.014576137)
(0.16331983 -0.11733416 0.014148889)
(0.17713664 -0.12270903 0.013683286)
(0.1913872 -0.12807282 0.01322062)
(0.20612307 -0.13350485 0.012762421)
(0.22126586 -0.13882151 0.012288577)
(0.23683483 -0.14430359 0.01184429)
(0.25280049 -0.14961211 0.011394048)
(0.2691237 -0.15506472 0.010973868)
(0.28583502 -0.1604234 0.010567285)
(0.30286924 -0.1658149 0.010187063)
(0.32024527 -0.17119391 0.0098228632)
(0.3379385 -0.17657933 0.009482892)
(0.35594175 -0.18197599 0.0091683095)
(0.37424943 -0.18734575 0.0088604073)
(0.39284288 -0.19277623 0.0085764085)
(0.41175004 -0.19818367 0.0082985961)
(0.43093208 -0.20361356 0.0080287136)
(0.45041233 -0.20905978 0.0077536671)
(0.47017434 -0.21452218 0.0074783801)
(0.4902214 -0.22000076 0.0071931354)
(0.51054731 -0.22549238 0.0068969915)
(0.53114747 -0.23099626 0.0065877937)
(0.55201335 -0.23650619 0.0062652091)
(0.57313667 -0.24201903 0.005929495)
(0.59450468 -0.24752699 0.0055830804)
(0.61610453 -0.25302531 0.0052291441)
(0.63791966 -0.25850529 0.0048722612)
(0.65993387 -0.26396192 0.0045169967)
(0.68212839 -0.26938733 0.0041693538)
(0.70448549 -0.27477686 0.0038335827)
(0.72698627 -0.28012547 0.0035158913)
(0.74961344 -0.28542963 0.0032192869)
(0.77235007 -0.29068799 0.0029485015)
(0.79518168 -0.29589897 0.0027045765)
(0.81809468 -0.30106445 0.002489988)
(0.84107876 -0.30618563 0.002303531)
(0.86412486 -0.31126618 0.0021448041)
(0.88722707 -0.31630989 0.0020110999)
(0.91038072 -0.32132114 0.0018993893)
(0.93358406 -0.32630466 0.001805644)
(0.95683569 -0.33126523 0.0017259356)
(0.9801365 -0.33620619 0.0016552914)
(1.003487 -0.34113196 0.0015898655)
(1.0268887 -0.34604468 0.0015256644)
(1.0503424 -0.3509447 0.0014582693)
(1.0738476 -0.35583598 0.0013900181)
(1.0974064 -0.36071386 0.0013100855)
(1.1210049 -0.36557922 0.0012294442)
(1.1446537 -0.37042989 0.0011414705)
(1.1683369 -0.37526135 0.0010529009)
(1.1920517 -0.38007223 0.00096249595)
(1.2157875 -0.38485947 0.00087737828)
(1.2395359 -0.38962052 0.00079982418)
(1.2632872 -0.39435332 0.00073478971)
(1.2870323 -0.39905748 0.0006853779)
(1.3107635 -0.40373317 0.00065559905)
(1.334473 -0.40838136 0.00064692638)
(1.358157 -0.413005 0.00066101161)
(1.381811 -0.41760717 0.00069710745)
(1.4054361 -0.42219264 0.00075441537)
(1.4290318 -0.42676555 0.00082940875)
(1.4526033 -0.43133178 0.00091951255)
(1.4761534 -0.43589547 0.0010192557)
(1.4996906 -0.44046181 0.0011248439)
(1.523219 -0.44503461 0.0012305756)
(1.5467482 -0.4496165 0.001332522)
(1.5702817 -0.4542108 0.0014262338)
(1.5938281 -0.4588164 0.0015087521)
(1.6173885 -0.4634362 0.0015781919)
(1.6409682 -0.46806483 0.0016335275)
(1.6645655 -0.47270502 0.0016758424)
(1.6881799 -0.47734759 0.0017070865)
(1.7118056 -0.48199672 0.0017337551)
(1.7400805 -0.46300772 0.0017879736)
(1.7447291 -0.43937698 0.0018194042)
(1.7493912 -0.41575776 0.0018520824)
(1.754052 -0.39211372 0.0018805705)
(1.7587269 -0.36848018 0.0019104147)
(1.7633922 -0.34481601 0.0019356858)
(1.7680628 -0.3211637 0.0019633039)
(1.7727228 -0.29748857 0.001986886)
(1.7773828 -0.2738266 0.002014466)
(1.7820218 -0.25014883 0.0020444694)
(1.7866669 -0.22649443 0.0020728109)
(1.7912919 -0.20283349 0.0021078554)
(1.7959185 -0.17919203 0.0021444048)
(1.8005394 -0.15556022 0.0021806813)
(1.8051586 -0.13193089 0.0022195315)
(1.7861746 -0.10368207 0.0022093845)
(1.7625566 -0.099067984 0.0021636866)
(1.7389432 -0.094463293 0.0021264939)
(1.7153412 -0.089870564 0.0020926424)
(1.6917586 -0.085290282 0.0020682232)
(1.6681906 -0.080714406 0.0020515682)
(1.6446414 -0.076144877 0.0020414394)
(1.6211051 -0.071573159 0.002036907)
(1.5975786 -0.066999225 0.002034848)
(1.5740564 -0.0624177 0.0020322243)
(1.5505312 -0.057826306 0.0020254344)
(1.5269959 -0.053224409 0.0020117167)
(1.5034449 -0.048609584 0.001986412)
(1.4798685 -0.043983034 0.0019469017)
(1.4562656 -0.039348545 0.001891259)
(1.4326294 -0.034705683 0.0018170791)
(1.4089582 -0.030060676 0.0017239043)
(1.3852516 -0.025418274 0.0016119946)
(1.3615123 -0.020783235 0.0014826106)
(1.3377435 -0.016163222 0.00133836)
(1.3139511 -0.011563168 0.0011819126)
(1.2901415 -0.0069898606 0.0010163486)
(1.2663228 -0.0024487261 0.00084563603)
(1.2425013 0.0020564358 0.0006716091)
(1.2186882 0.0065193556 0.00050007245)
(1.1948843 0.010941633 0.00032972651)
(1.1711004 0.015312576 0.00016212589)
(1.1473452 0.019638976 -1.077737e-06)
(1.1236067 0.023919124 -0.00015730303)
(1.0999001 0.028153062 -0.00031638373)
(1.0762195 0.032336821 -0.00047465696)
(1.0525653 0.036474519 -0.00063783859)
(1.028934 0.040563122 -0.0008082696)
(1.0053235 0.044601857 -0.00099090314)
(0.98173153 0.048587556 -0.0011885749)
(0.95815628 0.052517041 -0.0014046633)
(0.93459747 0.056384027 -0.0016418997)
(0.91105622 0.060182977 -0.0019015043)
(0.8875361 0.063904793 -0.0021843369)
(0.8640424 0.067541594 -0.0024898222)
(0.84058348 0.071082317 -0.0028165336)
(0.81716944 0.074517579 -0.0031618206)
(0.79381316 0.077835717 -0.0035227776)
(0.77052897 0.081027048 -0.0038951354)
(0.74733324 0.084080846 -0.0042751181)
(0.72424298 0.086988549 -0.0046581343)
(0.70127638 0.08974151 -0.0050402571)
(0.67845098 0.092333519 -0.0054175826)
(0.65578499 0.094758665 -0.005787388)
(0.63329442 0.097013692 -0.0061464717)
(0.61099583 0.099094849 -0.0064946254)
(0.58890175 0.10100336 -0.006830032)
(0.56702693 0.10273352 -0.0071536701)
(0.5453797 0.10429349 -0.0074682307)
(0.52397304 0.10567412 -0.0077700969)
(0.50280962 0.10688628 -0.0080710373)
(0.48189465 0.10793205 -0.0083685058)
(0.46123654 0.10879486 -0.0086632381)
(0.44087659 0.10945343 -0.0089491903)
(0.42073452 0.11000105 -0.0092690145)
(0.40088977 0.11032745 -0.0095823616)
(0.38137 0.1104427 -0.0098893385)
(0.36209039 0.11042624 -0.010229917)
(0.34313656 0.11019124 -0.010577529)
(0.32449175 0.10975182 -0.010936374)
(0.30622671 0.10907867 -0.011300615)
(0.2882464 0.10824274 -0.011664522)
(0.27072128 0.10711254 -0.012035729)
(0.25351155 0.10583507 -0.012431124)
(0.23675838 0.10428564 -0.012803273)
(0.22042414 0.10251628 -0.013183382)
(0.20453904 0.10051042 -0.013554032)
(0.18920352 0.098215076 -0.013895281)
(0.17427538 0.095790418 -0.014267175)
(0.15991724 0.093077869 -0.014600294)
(0.14613415 0.090104844 -0.014905994)
(0.13283804 0.08701861 -0.015246046)
(0.12021396 0.083592072 -0.015500053)
(0.10808663 0.080114651 -0.015816576)
(0.096660009 0.076297442 -0.016046304)
(0.085831934 0.072381201 -0.016300939)
(0.075576633 0.068294915 -0.016520414)
(0.06599612 0.064088199 -0.016760133)
(0.05713028 0.059585141 -0.016891825)
(0.048840939 0.055169984 -0.017094934)
(0.041267215 0.050480636 -0.01718149)
(0.034419484 0.045716124 -0.017218548)
(0.028239606 0.040923773 -0.017186257)
(0.022761594 0.036057128 -0.017022809)
(0.018050571 0.031171174 -0.016701671)
(0.014092706 0.026193082 -0.016036656)
(0.010971447 0.021230299 -0.015068272)
(0.0085768011 0.016772787 -0.013645616)
(0.0065509084 0.011768019 -0.010968138)
(0.0072864525 0.0073440851 -0.0065016065)
(0 4.9350734e-19 0)
(0 1.8772258e-19 0)
(0 4.8723662e-19 0)
(0 4.9048343e-19 0)
(0 5.1120249e-19 0)
(0 3.0742862e-19 0)
(0 1.2255432e-20 0)
(0 -2.7856806e-19 -3.0565182e-19)
(0 3.2986136e-20 0)
(0 2.9655665e-19 0)
(0 7.1509364e-19 0)
(0 6.2657119e-19 0)
(0 4.4850982e-19 0)
(0 4.3344984e-19 0)
(0 4.9496401e-19 0)
(0 2.0587374e-18 0)
(0 8.7658303e-19 0)
(0 3.2168105e-19 0)
(0 5.8061796e-19 0)
(0 -5.0550368e-20 0)
(0 1.3533372e-19 0)
(0 1.5421204e-18 0)
(0 -6.2754714e-19 -2.7212398e-19)
(0 9.1726868e-19 0)
(0 1.1466824e-18 0)
(0 3.7893989e-19 0)
(0 1.5510786e-19 0)
(0 3.6001875e-19 0)
(0 6.4908952e-19 0)
(0 8.3490223e-20 0)
(1.7349899 -0.48616396 0.0014283374)
(1.7350422 -0.48620759 0.0014377415)
(1.7350957 -0.48624874 0.0014526552)
(1.7351467 -0.48628605 0.0014725269)
(1.7351931 -0.4863211 0.0014958277)
(1.7352363 -0.48635129 0.0015232023)
(1.7352731 -0.48637899 0.0015525599)
(1.7353054 -0.48640385 0.001584449)
(1.7353321 -0.48642744 0.0016160993)
(1.7353545 -0.48645071 0.0016484002)
(1.7353711 -0.48647502 0.0016776357)
(1.7353871 -0.4865022 0.0017050192)
(1.7353994 -0.48653225 0.0017283423)
(1.7354106 -0.4865671 0.0017429995)
(1.7354239 -0.48660179 0.001758547)
(1.8093454 -0.1076402 0.0025591679)
(1.8094005 -0.10768621 0.0025492792)
(1.8094546 -0.10773469 0.0025326521)
(1.8095056 -0.1077835 0.0025091657)
(1.8095531 -0.1078304 0.0024822386)
(1.8095964 -0.10787629 0.0024523695)
(1.8096348 -0.10792053 0.0024218469)
(1.8096673 -0.10796399 0.0023908872)
(1.8096942 -0.10800659 0.0023616755)
(1.8097151 -0.10804899 0.0023340188)
(1.8097318 -0.1080911 0.0023097459)
(1.8097442 -0.1081337 0.0022888794)
(1.8097566 -0.10817609 0.0022709038)
(1.8097646 -0.10822031 0.002261722)
(1.8097773 -0.10826588 0.0022515725)
(0.0028987313 0.0060832056 0.0086149781)
(0.0043612315 0.010255586 0.010047815)
(0.0060415402 0.014680974 0.012405879)
(0.0086863761 0.018899668 0.013361407)
(0.011629905 0.023137068 0.014361967)
(0.015630913 0.027408827 0.014831002)
(0.020168555 0.031620681 0.01517513)
(0.025623211 0.035900578 0.01532657)
(0.031641953 0.040050371 0.015402)
(0.03846559 0.044199083 0.015398124)
(0.045931945 0.04818952 0.01530066)
(0.054111885 0.052154864 0.015232054)
(0.062921402 0.055904866 0.015062488)
(0.072403456 0.059608508 0.014923974)
(0.082514303 0.063071273 0.01472028)
(0.093290503 0.066460389 0.014536336)
(0.10466609 0.069598018 0.014293346)
(0.11663902 0.072624327 0.01407131)
(0.12923736 0.075397337 0.013797734)
(0.14241417 0.078029052 0.013525976)
(0.15614221 0.080416736 0.013230236)
(0.17043921 0.082608286 0.012924311)
(0.18525318 0.084604239 0.012593001)
(0.20056521 0.086360013 0.012268354)
(0.21638416 0.087916906 0.011917623)
(0.232653 0.089249966 0.01158207)
(0.24936163 0.090383545 0.011227825)
(0.26648199 0.091287794 0.010892853)
(0.28400899 0.091991165 0.010555332)
(0.30189794 0.092506964 0.010231237)
(0.32013727 0.092796387 0.0099153779)
(0.33872213 0.092913174 0.0096194856)
(0.35762009 0.092832644 0.0093402362)
(0.3768173 0.09257158 0.0090707326)
(0.39631274 0.092130863 0.0088192096)
(0.41608928 0.091502778 0.0085797369)
(0.43614051 0.090720946 0.0083500833)
(0.45645656 0.089748706 0.0081270338)
(0.47704803 0.088621261 0.007906017)
(0.49788713 0.087317721 0.0076927078)
(0.51898767 0.085847765 0.0074731861)
(0.54032823 0.084204102 0.007244642)
(0.56191653 0.082403128 0.0070121676)
(0.58373701 0.080424328 0.0067671835)
(0.60577778 0.078288991 0.0065112731)
(0.62803239 0.075987363 0.0062465237)
(0.65048339 0.07352585 0.0059698152)
(0.6731188 0.0709092 0.0056878109)
(0.69591887 0.068141036 0.0053996633)
(0.71886907 0.065228434 0.0051110047)
(0.74194815 0.062178491 0.0048242805)
(0.76513987 0.058998552 0.0045448063)
(0.78842476 0.055698164 0.0042751213)
(0.81178668 0.052285197 0.0040203173)
(0.83520955 0.048769735 0.0037824311)
(0.85867989 0.045159619 0.0035648698)
(0.88218637 0.04146436 0.0033684608)
(0.90571972 0.037690662 0.0031945936)
(0.9292737 0.033846364 0.0030425561)
(0.95284426 0.029936737 0.0029114592)
(0.97642916 0.025967143 0.0027988572)
(1.0000296 0.021941837 0.0027025357)
(1.0236448 0.0178624 0.0026192093)
(1.0472812 0.013732652 0.0025452336)
(1.070935 0.0095559156 0.0024766858)
(1.0946176 0.0053245457 0.0024134005)
(1.1183275 0.0010559089 0.0023466727)
(1.1420563 -0.0032656821 0.0022820279)
(1.1658189 -0.0076276655 0.0022123185)
(1.1895987 -0.01203418 0.0021412564)
(1.2134021 -0.016479211 0.0020661233)
(1.2372191 -0.020960288 0.0019912264)
(1.2610455 -0.02547456 0.0019157057)
(1.2848712 -0.03001655 0.0018451657)
(1.3086902 -0.0345815 0.0017809457)
(1.3324932 -0.039166066 0.0017276784)
(1.3562741 -0.043761592 0.0016859726)
(1.3800253 -0.048368571 0.0016610325)
(1.403745 -0.052975484 0.0016510599)
(1.4274267 -0.057587984 0.0016613391)
(1.4510748 -0.062192318 0.0016857749)
(1.4746852 -0.066795625 0.00173054)
(1.4982678 -0.071393072 0.0017864461)
(1.5218213 -0.075983626 0.0018560592)
(1.5453597 -0.08057105 0.0019301749)
(1.5688817 -0.085154333 0.0020120627)
(1.5924055 -0.089737228 0.0020912374)
(1.6159252 -0.094320662 0.0021695076)
(1.6394629 -0.098907874 0.002239961)
(1.6630079 -0.10349951 0.0023028832)
(1.6865777 -0.10810056 0.0023546844)
(1.7101636 -0.11270656 0.0023967673)
(1.7337705 -0.1173252 0.0024292001)
(1.757394 -0.12195114 0.0024545619)
(1.7810264 -0.12658214 0.0024735191)
(0.00075139516 0.0054204284 0.0076287875)
(0.0020921898 0.0078937534 0.0091625186)
(0.004337385 0.012395247 0.010659824)
(0.0065957835 0.01573612 0.011770953)
(0.0097513825 0.019694094 0.012387688)
(0.013559745 0.023295819 0.012801843)
(0.01819088 0.027118765 0.013041052)
(0.023456493 0.030732564 0.013184986)
(0.029517721 0.034383796 0.013251652)
(0.03626949 0.03788801 0.013195328)
(0.043693643 0.041355246 0.013186651)
(0.051807879 0.044669069 0.013042402)
(0.06056706 0.047903224 0.012965249)
(0.070003078 0.05096473 0.012791534)
(0.080055629 0.053911435 0.012670434)
(0.090774996 0.056681589 0.01244788)
(0.10205281 0.059311186 0.012298917)
(0.11401145 0.061740343 0.01206458)
(0.12651255 0.064013837 0.011857163)
(0.1396271 0.066082251 0.011606425)
(0.15328269 0.06797012 0.011365863)
(0.16750872 0.069664188 0.011082504)
(0.18223914 0.071154769 0.010821132)
(0.19750234 0.072447713 0.010528317)
(0.21323556 0.073532329 0.010243547)
(0.22943851 0.074436907 0.0099396991)
(0.2460748 0.075121883 0.0096529215)
(0.26313653 0.075621303 0.0093634341)
(0.28058757 0.075931241 0.0090743025)
(0.298412 0.076046397 0.0087977681)
(0.31659265 0.07597951 0.0085389246)
(0.3351084 0.07573302 0.0082824046)
(0.35393408 0.07531465 0.0080417884)
(0.3730718 0.074714494 0.0078154027)
(0.39250506 0.07395166 0.0075987403)
(0.41221982 0.073022272 0.0073960087)
(0.43221666 0.071923279 0.0072001974)
(0.45248183 0.070663141 0.0070119103)
(0.47300251 0.069239742 0.0068276162)
(0.49378845 0.067661595 0.0066432767)
(0.51482517 0.065912848 0.006451745)
(0.53611302 0.06401753 0.0062637533)
(0.5576477 0.061948716 0.006058068)
(0.57941111 0.059733645 0.0058548096)
(0.60140491 0.05736098 0.0056352364)
(0.62361302 0.054835485 0.005411274)
(0.64602125 0.052161773 0.0051773888)
(0.66861702 0.049345262 0.0049399051)
(0.69138231 0.046389502 0.0046962524)
(0.71430052 0.043303526 0.0044545003)
(0.73735235 0.040092654 0.0042134043)
(0.76052055 0.036765722 0.0039794838)
(0.78378579 0.033330986 0.0037539118)
(0.80713155 0.029796066 0.0035413091)
(0.83054158 0.026170176 0.0033430022)
(0.85400195 0.022460352 0.0031620453)
(0.87750071 0.018674598 0.0029988819)
(0.90102849 0.014818788 0.0028549245)
(0.92457822 0.010899557 0.0027290708)
(0.9481455 0.0069206405 0.0026209346)
(0.97172801 0.0028870323 0.0025285299)
(0.9953259 -0.0011986674 0.0024495012)
(1.0189393 -0.0053356324 0.0023822053)
(1.0425724 -0.0095174485 0.0023211195)
(1.0662251 -0.013748598 0.0022674779)
(1.0899075 -0.018024032 0.0022156055)
(1.1136027 -0.022340883 0.0021640959)
(1.1373353 -0.02670706 0.0021133439)
(1.1610926 -0.031109504 0.0020556721)
(1.184875 -0.035554146 0.0019997878)
(1.2086802 -0.040028767 0.0019387217)
(1.2324994 -0.044538103 0.0018804189)
(1.2563284 -0.049071827 0.0018212065)
(1.2801582 -0.053629918 0.0017682215)
(1.3039836 -0.0582043 0.0017189653)
(1.3277928 -0.062793981 0.0016802926)
(1.3515828 -0.067389177 0.0016498933)
(1.3753427 -0.071992513 0.0016349914)
(1.3990729 -0.07659242 0.0016308289)
(1.4227633 -0.081196297 0.0016454314)
(1.4464231 -0.08579016 0.0016689963)
(1.4700401 -0.090385836 0.0017122477)
(1.4936336 -0.094974466 0.001762122)
(1.5171905 -0.099560996 0.0018246231)
(1.5407355 -0.10414508 0.0018927785)
(1.5642615 -0.10872825 0.001966114)
(1.5877859 -0.11331472 0.0020386641)
(1.6113082 -0.11789823 0.0021083788)
(1.6348428 -0.12249631 0.0021743981)
(1.6583875 -0.127091 0.0022306736)
(1.681953 -0.13170382 0.002282564)
(1.7055366 -0.13631527 0.0023218536)
(1.7291398 -0.14094289 0.0023581033)
(1.7527613 -0.1455743 0.0023848194)
(1.7763943 -0.15021017 0.002406726)
(-0.00050639171 0.004249668 0.0067086596)
(0.00072297049 0.0065109809 0.0077393374)
(0.0021937119 0.0099830548 0.0093072793)
(0.0047032111 0.013051742 0.010037953)
(0.0077563766 0.016281389 0.010467304)
(0.011712744 0.019528717 0.010765557)
(0.016181708 0.022643344 0.010962817)
(0.021568867 0.025777642 0.01106947)
(0.027544644 0.028752018 0.011037194)
(0.034265978 0.03176883 0.011081239)
(0.041641794 0.03455548 0.01096473)
(0.049725233 0.037369418 0.010933001)
(0.058430857 0.039937857 0.010786241)
(0.06780411 0.042495723 0.010711676)
(0.077815639 0.044815328 0.010524877)
(0.088436758 0.04706837 0.010430009)
(0.099707646 0.049096281 0.010228561)
(0.11155674 0.051019592 0.010077409)
(0.12401181 0.052727918 0.0098734856)
(0.13704776 0.054291454 0.0096878021)
(0.15064657 0.055662209 0.0094620752)
(0.1647919 0.056845949 0.0092549398)
(0.1794673 0.057855402 0.0090144351)
(0.1946425 0.058663414 0.0087841973)
(0.21030831 0.059305221 0.0085323131)
(0.22643369 0.059741387 0.0082961704)
(0.24300313 0.060004301 0.0080506066)
(0.25998298 0.060087436 0.0078065185)
(0.27736468 0.059986305 0.0075713958)
(0.29511611 0.059713534 0.007348523)
(0.31322429 0.059268879 0.007124103)
(0.33166411 0.058659968 0.0069154257)
(0.35042973 0.05788088 0.0067198947)
(0.36950062 0.056944242 0.0065318017)
(0.388864 0.055850067 0.0063557126)
(0.40851223 0.054596771 0.0061878188)
(0.4284293 0.053194151 0.0060295988)
(0.44861212 0.051634766 0.0058770654)
(0.46908345 0.049924247 0.0057228173)
(0.48980551 0.048053447 0.0055649928)
(0.51078653 0.046044022 0.0054153665)
(0.5320194 0.043876551 0.005247975)
(0.55349448 0.041563183 0.0050911613)
(0.57520952 0.039103016 0.0049175608)
(0.59715314 0.036495952 0.004738741)
(0.61931153 0.03375 0.0045547253)
(0.64167496 0.03086602 0.0043632653)
(0.66422798 0.027851027 0.0041676963)
(0.68695396 0.024709026 0.0039698724)
(0.70983549 0.021448543 0.0037724845)
(0.73285513 0.018075011 0.0035765716)
(0.75599332 0.014597748 0.0033875099)
(0.77923276 0.011023419 0.0032052418)
(0.80255547 0.0073606035 0.0030344658)
(0.8259459 0.0036168737 0.0028756029)
(0.84938919 -0.00020089844 0.0027313999)
(0.87287391 -0.0040857348 0.0026020783)
(0.89638968 -0.0080322438 0.002488592)
(0.91992958 -0.012035185 0.0023899624)
(0.94348888 -0.016090863 0.0023062205)
(0.96706478 -0.020195771 0.0022347227)
(0.990657 -0.024348059 0.0021749233)
(1.014266 -0.028545291 0.0021234148)
(1.037895 -0.032785293 0.002078011)
(1.0615458 -0.037070461 0.0020381879)
(1.0852177 -0.041395253 0.001999677)
(1.1089242 -0.045753775 0.0019614606)
(1.1326444 -0.050166158 0.001924706)
(1.1564035 -0.054612711 0.0018849391)
(1.1801805 -0.059081159 0.0018433735)
(1.2039827 -0.063589477 0.0018005586)
(1.2277963 -0.068119322 0.0017587381)
(1.2516247 -0.072673409 0.0017166153)
(1.2754544 -0.07724643 0.0016784923)
(1.2992802 -0.081833957 0.001643841)
(1.3230922 -0.086429929 0.0016184325)
(1.3468845 -0.091031585 0.0016003843)
(1.3706491 -0.095636424 0.0015946663)
(1.3943829 -0.10023794 0.0015992056)
(1.4180805 -0.10483845 0.0016170796)
(1.4417447 -0.10943218 0.001645354)
(1.4653706 -0.11402548 0.0016881106)
(1.4889683 -0.11860786 0.0017340715)
(1.512536 -0.12319309 0.0017964124)
(1.5360867 -0.12776793 0.0018554717)
(1.559614 -0.13235269 0.0019256333)
(1.5831445 -0.13693167 0.0019865473)
(1.6066675 -0.14152407 0.0020537834)
(1.6302057 -0.14611563 0.0021093844)
(1.6537499 -0.15072018 0.0021654058)
(1.6773171 -0.1553297 0.0022095524)
(1.7008995 -0.15994803 0.0022508674)
(1.7245032 -0.16457597 0.0022838635)
(1.7481256 -0.16921015 0.0023133604)
(1.7717588 -0.17384713 0.0023386857)
(-0.0013330404 0.0037611181 0.0055172002)
(-0.00069940784 0.005122284 0.0065690326)
(0.00083565814 0.0079984904 0.007523963)
(0.0031636667 0.010312787 0.0080974548)
(0.0062730024 0.013082345 0.0084047416)
(0.010010061 0.015621553 0.0086846577)
(0.014626386 0.01827287 0.0088006124)
(0.019877169 0.020734141 0.0088101248)
(0.025842053 0.023248311 0.0088986483)
(0.032527378 0.025571628 0.0088073857)
(0.039879232 0.027869993 0.0088174566)
(0.047889385 0.030020665 0.0086962189)
(0.056548649 0.032083519 0.0086688022)