/*--------------------------------*- C++ -*----------------------------------*\
  =========                 |
  \\      /  F ield         | OpenFOAM: The Open Source CFD Toolbox
   \\    /   O peration     | Website:  https://openfoam.org
    \\  /    A nd           | Version:  6
     \\/     M anipulation  |
\*---------------------------------------------------------------------------*/
FoamFile
{
    version     2.0;
    format      ascii;
    class       pointScalarField;
    location    "0.11";
    object      E;
}
// * * * * * * * * * * * * * * * * * * * * * * * * * * * * * * * * * * * * * //

dimensions      [1 -1 -2 0 0 0 0];

internalField   nonuniform List<scalar> 
625
(
294.64572
539.10654
-57337.485
-25162.591
317.57491
458.32841
-39792.12
-86623.889
86.981278
89.347896
162.86602
-28837.973
-29183.85
-21174.904
259.14351
117.66384
63.499572
91.355925
136.58592
223.73788
326.88841
417.58282
558.152
711.95233
859.84239
997.2676
1135.0963
1255.0093
1359.9293
1440.9903
1539.0215
1596.3011
1711.4194
1704.1795
1882.7946
2026.1046
2195.4995
434.26156
174.64337
218.29613
168.29767
217.15745
292.52352
385.30106
520.41503
615.62535
767.80156
914.00295
1063.8348
1201.3262
1332.8787
1446.4852
1550.7857
1636.727
1739.216
1836.7035
1920.3513
2153.112
2279.6588
2471.596
73.575811
70.168483
164.70591
682.83247
576.67703
47.694163
123.21115
73.884884
180.68143
393.70476
416.49978
677.29623
922.75183
1189.9089
1470.6628
1729.8675
1961.7773
2141.0408
2267.9604
2327.4057
2338.804
2273.1929
2208.1767
2100.5581
2064.8256
1276.2918
-60490.544
-66488.968
-63173.895
1639.3913
1476.2416
1752.7875
1612.7328
1576.677
1533.0579
1483.2701
1452.2646
1396.4918
1322.5767
1229.3982
1104.2443
976.13555
828.94141
643.16279
524.50672
428.49572
286.02112
146.9063
92.349531
92.416219
95.99987
301.94162
319.78934
319.39841
303.97659
509.66246
491.79257
468.89763
-29037.025
-28869.203
-29053.426
-64838.689
-65014.627
-65175.879
185.90591
152.17937
162.72726
208.90811
251.17942
303.27432
335.07394
384.23161
417.49175
436.46091
471.88417
516.78453
569.74178
635.49867
722.56275
820.68819
981.00663
1123.5936
1413.1772
1642.279
2144.6191
2402.1895
3447.7165
166.24093
203.30289
228.27951
228.56825
233.32787
216.86323
201.11382
159.66193
126.43796
128.3993
141.11938
181.97697
253.34923
366.26168
509.15696
710.02522
938.30479
1196.9118
1590.1559
1804.2493
2358.8901
2544.2655
3677.8798
114.73273
127.28698
142.71888
204.14958
252.75969
301.54321
328.23727
358.21481
392.21432
410.1921
436.1779
470.64262
515.11231
568.562
642.91541
750.90311
853.42351
1085.6584
1203.2631
1557.4784
1858.8631
2340.0092
2889.8095
85.827941
78.385868
83.415816
102.93332
102.06865
95.833504
112.62337
137.09076
114.10415
611.83113
620.32044
591.26694
541.2051
463.34953
455.59857
152.91313
78.044893
157.53847
137.50123
134.72137
82.69203
155.02875
95.42743
112.72377
197.6171
155.20539
171.75235
290.99837
289.16508
286.38232
402.01253
482.05595
428.92218
609.2114
619.42928
583.5754
798.02845
802.87992
811.39122
1011.7641
1010.8374
1036.0418
1239.3408
1212.6477
1283.3012
1466.8155
1406.6836
1516.8323
1678.8379
1578.3821
1735.9414
1868.5739
1716.9505
1918.4453
2026.2685
1824.1636
2066.6372
2144.1516
1889.8594
2169.0152
2245.8809
1943.9945
2233.0479
2303.3224
1954.4682
2260.6674
2312.8458
1951.563
2262.0863
2470.8383
2056.8002
2315.5565
2464.1823
2164.1014
2469.2736
2365.4931
1937.3125
2192.5375
-40496.766
-40354.486
-40529.307
-36784.79
-40506.688
-40876.566
-42567.109
-39078.849
-39302.706
300.44378
310.17717
273.74453
148.13271
129.71194
136.99897
113.0265
76.635107
55.010417
80.602415
82.441412
67.773359
148.31394
111.76822
113.68698
193.58693
253.82584
192.07818
303.73558
331.39032
275.17257
408.80671
474.58757
436.84832
601.75506
594.48173
548.8137
721.06728
739.7973
674.50695
895.02999
896.57634
841.91006
1071.8128
1040.6408
990.68467
1239.6614
1175.951
1139.5725
1390.6523
1301.2875
1274.2539
1520.6296
1406.6263
1392.7652
1631.0163
1506.7846
1490.6576
1735.2123
1583.3106
1582.5366
1802.3678
1676.9171
1657.2633
1898.1904
1786.4603
1755.7599
1858.4601
1830.1915
1813.38
2111.3605
2096.1711
2045.1256
1735.5791
1672.399
1751.6617
2123.825
1813.9392
1933.7626
240.54961
133.41402
134.84845
188.05852
230.10765
308.56671
385.0917
457.80188
532.21258
625.79896
719.13048
817.9076
921.27473
1029.4596
1144.2573
1266.2692
1393.7111
1558.49
1699.1959
1930.9794
2201.0545
2466.1811
3491.2334
125.09463
230.56143
232.04276
256.24614
240.42829
225.9838
186.61016
139.81671
98.646351
61.820975
50.537923
68.829632
120.71882
218.14792
364.26492
558.52265
809.16708
1112.0659
1476.7353
1860.8584
2437.3108
2613.6498
4514.0067
132.52094
68.054251
146.82003
167.19191
241.85707
256.4778
318.10983
359.22946
380.28456
403.27245
422.94816
443.78737
466.09818
502.12639
556.96721
633.74822
755.17486
908.48629
1111.242
1414.7093
1602.766
2301.7823
2176.7065
212.60153
201.5535
213.7444
161.78936
146.17984
147.87871
142.57187
118.57622
115.07523
165.41884
143.79592
147.00908
203.31195
203.80663
186.41039
258.18579
262.08178
227.23856
300.70962
326.16764
297.29256
356.94148
385.48883
322.18696
384.73024
441.56162
398.32702
460.70383
499.36603
456.28471
534.0422
575.94884
532.6317
610.04375
651.62435
618.3392
706.27754
734.69112
714.31183
810.79972
824.07665
821.78096
931.47392
924.68305
940.81304
1067.6932
1038.3561
1072.2943
1220.1329
1172.7073
1227.2479
1394.8046
1337.0199
1375.7349
1608.3753
1465.7389
1612.8964
1749.4669
1756.2036
1784.6698
2145.0968
2133.2293
2081.8385
2522.0797
2475.354
2469.313
3379.3716
3106.2752
3334.77
161.27056
160.07391
150.40367
206.51611
213.26655
200.25577
211.77773
172.49004
171.73916
211.67599
184.89056
169.46557
214.89895
168.61833
150.70971
194.22216
157.67086
144.69673
166.76242
137.18068
106.44328
128.66326
99.135059
94.984115
112.82143
78.312234
61.242846
87.000458
64.033494
53.004081
95.431465
69.865521
65.798898
127.43299
98.646848
100.28233
192.96404
166.3882
164.86482
294.64708
266.14353
263.1459
433.60745
403.00455
399.59136
619.82797
588.12445
578.07868
843.43394
812.34309
786.64454
1114.7023
1068.1914
1055.8364
1440.9602
1440.6087
1382.16
1733.9443
1805.6432
1676.1571
2386.1418
2218.3259
2339.5842
2471.4814
2387.2114
2212.5479
3595.1921
3933.3762
3782.7647
129.54207
132.98919
143.46515
120.66594
85.172464
107.72828
134.08641
130.38665
158.13918
168.8025
134.23468
169.04435
198.64849
194.19976
215.31353
237.67505
222.20829
262.12996
269.28909
256.08315
288.98775
281.97185
298.67437
311.16136
300.16859
327.85333
341.64283
314.65203
359.28144
358.80312
335.71113
393.13066
385.96477
364.0945
427.29028
422.3471
403.7193
470.348
475.39468
459.2747
523.70575
543.65564
538.66436
594.54077
638.85085
643.10305
697.6446
762.9027
781.05847
811.57657
907.87753
964.81414
1004.7741
1143.9489
1167.7533
1199.3307
1300.2068
1492.4933
1511.0783
1712.0186
1657.7726
1660.9018
1783.9195
2217.6212
2362.0605
2644.588
2729.0073
2275.72
2597.5875
)
;

boundaryField
{
    free
    {
        type            zeroGradient;
    }
    fixed
    {
        type            zeroGradient;
    }
    traction
    {
        type            zeroGradient;
    }
}


// ************************************************************************* //
