/*--------------------------------*- C++ -*----------------------------------*\
  =========                 |
  \\      /  F ield         | OpenFOAM: The Open Source CFD Toolbox
   \\    /   O peration     | Website:  https://openfoam.org
    \\  /    A nd           | Version:  6
     \\/     M anipulation  |
\*---------------------------------------------------------------------------*/
FoamFile
{
    version     2.0;
    format      ascii;
    class       pointVectorField;
    location    "0.11";
    object      lm;
}
// * * * * * * * * * * * * * * * * * * * * * * * * * * * * * * * * * * * * * //

dimensions      [1 -2 -1 0 0 0 0];

internalField   nonuniform List<vector> 
28033
(
(0 0 0)
(0 0 0)
(2678.7091 274.18685 12.397637)
(2612.0532 -541.81498 -6.490575)
(0 0 0)
(0 0 0)
(2612.0833 -544.22056 9.7327348)
(2681.4982 273.02734 -6.3418747)
(0 0 0)
(0 0 0)
(0 0 0)
(0 0 0)
(0 0 0)
(0 0 0)
(0 0 0)
(0 0 0)
(0 0 0)
(0 0 0)
(0 0 0)
(0 0 0)
(0 0 0)
(0 0 0)
(0 0 0)
(2674.0034 223.01298 10.735389)
(2669.8322 171.98695 9.1638782)
(2665.8163 121.13437 7.6404938)
(2662.0142 70.362695 6.2474866)
(2658.4057 19.638468 5.082669)
(2654.8416 -31.171721 4.085097)
(2651.2047 -81.954222 3.1748917)
(2647.4896 -132.83841 2.4640902)
(2643.5155 -183.68891 1.7358987)
(2639.2944 -234.57594 1.0248474)
(2635.0084 -285.42038 0.26008644)
(2630.4862 -336.33353 -0.83617539)
(2626.0192 -387.377 -1.9676399)
(2621.5083 -438.65461 -3.2831747)
(2616.8769 -490.25191 -4.8386835)
(-10.783136 -35.424231 -40.129111)
(-18.200939 -49.331992 -52.964492)
(-31.22973 -62.645375 -58.742833)
(-48.263049 -75.774827 -59.651235)
(-70.529649 -86.449909 -54.408008)
(-95.929499 -96.473033 -46.713295)
(-122.74502 -104.72735 -37.023859)
(-148.43902 -111.80042 -28.474021)
(-171.07408 -117.68766 -22.317354)
(-189.37479 -122.82838 -20.374204)
(-203.31633 -127.69382 -22.449731)
(-213.52343 -132.23286 -28.302186)
(-222.02583 -136.67235 -36.667311)
(-231.78316 -140.77499 -45.054263)
(-245.12223 -143.82851 -51.082799)
(-264.15359 -145.31818 -53.524377)
(-290.73127 -144.46347 -50.501152)
(-324.79387 -140.331 -40.725865)
(-364.13512 -131.47027 -25.659062)
(-407.41975 -118.35713 -5.6433856)
(-451.0987 -100.55235 17.145212)
(-491.43504 -78.263829 40.692982)
(-525.42431 -52.210656 63.369321)
(-550.22205 -23.333154 82.82157)
(-563.88472 7.1348349 98.218452)
(-565.89587 38.137186 109.19618)
(-556.4002 68.373602 115.58686)
(-536.6606 97.048546 117.77227)
(-508.21941 123.17951 116.74911)
(-472.85076 146.74009 113.18234)
(-432.84634 167.08553 107.75482)
(-389.17137 184.55964 101.01758)
(-343.32013 199.62318 93.3338)
(-296.19606 212.02692 84.842226)
(-248.53728 222.69339 75.744826)
(-200.82076 231.50102 66.13301)
(-153.48249 239.18247 56.449407)
(-106.86272 245.87338 46.870294)
(-61.408968 251.71859 37.674469)
(-17.287779 257.209 29.422763)
(25.110169 262.33861 22.357201)
(65.723358 267.34794 16.878147)
(104.59516 272.36192 13.063178)
(141.86473 277.50342 10.963061)
(177.79929 282.84408 10.438153)
(212.87211 288.46693 11.250388)
(247.54334 294.35906 13.062015)
(282.38137 300.52586 15.48464)
(317.86696 306.90317 18.138272)
(354.48026 313.42726 20.667286)
(392.56473 319.99389 22.791416)
(432.39215 326.49593 24.306137)
(474.08926 332.80357 25.10485)
(517.68432 338.78664 25.165103)
(563.08621 344.31349 24.542065)
(610.11889 349.25832 23.350694)
(658.53517 353.51661 21.74134)
(708.04335 357.01196 19.879842)
(758.33839 359.70075 17.93147)
(809.12673 361.58463 16.039484)
(860.14397 362.70485 14.324991)
(911.19053 363.14333 12.869182)
(962.10279 363.00041 11.741993)
(1012.8276 362.3825 10.9481)
(1063.2875 361.44096 10.534538)
(1113.5479 360.23161 10.437207)
(1163.6096 358.83537 10.698293)
(1213.5431 357.38057 11.266756)
(1263.4037 355.79225 12.049393)
(1313.2633 354.24664 13.091988)
(1363.227 352.62117 14.249052)
(1413.313 351.00298 15.494001)
(1463.6826 349.39945 16.704235)
(1514.3857 347.74493 17.818889)
(1565.5753 346.16913 18.701122)
(1617.306 344.41884 19.340114)
(1669.6452 342.79908 19.60822)
(1722.6263 340.794 19.594736)
(1776.1246 338.93131 19.205584)
(1830.132 336.50974 18.650018)
(1884.38 334.14991 17.845744)
(1938.7917 331.25808 17.072435)
(1993.1781 328.32306 16.212727)
(2047.3825 324.9947 15.531001)
(2101.4621 321.58869 14.802419)
(2155.246 317.96689 14.243264)
(2208.9005 314.15499 13.690421)
(2262.2385 310.36255 13.230114)
(2315.467 306.23856 12.868653)
(2368.3059 302.18931 12.591837)
(2420.8969 297.7785 12.515752)
(2473.0356 293.3859 12.564894)
(2524.7447 288.63934 12.8052)
(2576.2126 283.91166 12.931871)
(2627.5044 279.17838 12.812985)
(-6.2577448 31.164961 46.855852)
(-21.607088 45.279846 42.888855)
(-32.131684 65.340264 58.08512)
(-43.987067 74.415099 57.523456)
(-64.133527 88.468776 56.973437)
(-88.035826 99.429977 49.736525)
(-114.40262 108.26662 41.511887)
(-142.15916 116.8014 31.66349)
(-168.3537 123.67038 24.016052)
(-191.01752 129.63803 19.787356)
(-209.85274 134.86929 19.374494)
(-224.72861 139.82213 23.111345)
(-237.55973 144.11513 29.899728)
(-250.03103 148.01353 36.900265)
(-265.3002 150.65123 42.996919)
(-284.98705 151.86765 45.069425)
(-310.31525 150.36414 42.324163)
(-342.15468 145.78757 33.538558)
(-379.15852 137.48005 19.066186)
(-419.24758 124.77119 -0.037089125)
(-459.48462 107.97349 -22.366148)
(-497.18092 86.905214 -45.393194)
(-528.88676 62.719207 -67.676991)
(-551.77208 35.429187 -87.065059)
(-565.26364 6.4973278 -102.64993)
(-567.63223 -22.728749 -113.65732)
(-558.96295 -52.036959 -120.17073)
(-540.62386 -79.517623 -122.04757)
(-513.26362 -105.40856 -120.62299)
(-479.14813 -128.41676 -115.95136)
(-439.37401 -149.01039 -109.41343)
(-395.9845 -166.63441 -101.38728)
(-349.96295 -181.63666 -92.443919)
(-302.44638 -194.20701 -82.912305)
(-254.23778 -204.71256 -73.027759)
(-205.95967 -213.41634 -63.062391)
(-158.22903 -220.85709 -53.03114)
(-111.48987 -227.3358 -43.61383)
(-66.150683 -233.02827 -34.862998)
(-22.50639 -238.30561 -27.178364)
(19.161353 -243.37748 -20.8605)
(58.712573 -248.44475 -16.186325)
(96.14559 -253.66218 -13.300781)
(131.65367 -259.15046 -12.202531)
(165.58043 -264.99735 -12.728498)
(198.42589 -271.2585 -14.579823)
(230.77409 -277.95783 -17.349505)
(263.26095 -285.09031 -20.577238)
(296.49252 -292.62555 -23.807411)
(331.00032 -300.50653 -26.639894)
(367.19416 -308.6565 -28.774936)
(405.33346 -316.97728 -30.03535)
(445.52654 -325.35505 -30.370809)
(487.73782 -333.66458 -29.841586)
(531.82016 -341.77654 -28.588684)
(577.54542 -349.56614 -26.797789)
(624.64281 -356.9267 -24.662982)
(672.82892 -363.77559 -22.361051)
(721.82783 -370.06886 -20.038854)
(771.38948 -375.79992 -17.805384)
(821.28469 -381.00251 -15.750624)
(871.32423 -385.74244 -13.940578)
(921.3372 -390.10536 -12.443704)
(971.1993 -394.18869 -11.313708)
(1020.8142 -398.07988 -10.604397)
(1070.1365 -401.863 -10.334344)
(1119.165 -405.59208 -10.510688)
(1167.9478 -409.33433 -11.072156)
(1216.5595 -413.09399 -11.938866)
(1265.1151 -416.95103 -12.965498)
(1313.7894 -420.92027 -14.049236)
(1362.6631 -425.06243 -15.02771)
(1411.8971 -429.41634 -15.822798)
(1461.5799 -434.00417 -16.339702)
(1511.8347 -438.8674 -16.533632)
(1562.6942 -443.98058 -16.419634)
(1614.2138 -449.3233 -15.994522)
(1666.3528 -454.81653 -15.329232)
(1719.0584 -460.40476 -14.463163)
(1772.2056 -465.97223 -13.485507)
(1825.6504 -471.4816 -12.44918)
(1879.2256 -476.83859 -11.438985)
(1932.7718 -482.0561 -10.492384)
(1986.1924 -487.11085 -9.6559822)
(2039.3898 -492.03708 -8.9389147)
(2092.388 -496.88622 -8.3337379)
(2145.1702 -501.65165 -7.8372035)
(2197.81 -506.40037 -7.4254438)
(2250.2882 -511.07756 -7.1054643)
(2302.6351 -515.69523 -6.8878368)
(2354.7764 -520.18771 -6.7798845)
(2406.6833 -524.55225 -6.7910851)
(2458.2862 -528.76579 -6.8792085)
(2509.6483 -532.91366 -6.9547524)
(2560.8206 -537.10551 -6.862342)
(0 0 0)
(0 0 0)
(0 0 0)
(0 0 0)
(0 0 0)
(0 0 0)
(0 0 0)
(0 0 0)
(0 0 0)
(0 0 0)
(0 0 0)
(0 0 0)
(0 0 0)
(0 0 0)
(0 0 0)
(-12.409694 14.092918 -36.54917)
(-23.630936 54.310725 -47.915539)
(-28.001199 55.495066 -57.924568)
(-44.769429 76.646059 -61.824202)
(-63.322609 87.612114 -61.576586)
(-87.998787 98.35549 -54.267052)
(-115.52785 107.79486 -46.612588)
(-143.04631 116.73644 -37.814558)
(-169.43673 122.46727 -31.286056)
(-191.21043 129.00213 -28.070843)
(-208.88549 133.32181 -28.731374)
(-223.03938 139.30866 -33.848898)
(-234.79931 142.38185 -41.148947)
(-246.30416 148.01749 -48.679941)
(-261.22705 149.41805 -55.082934)
(-280.74768 151.15356 -57.214186)
(-305.71335 150.39418 -53.128703)
(-338.39894 145.77786 -44.811817)
(-375.1464 136.19868 -28.425395)
(-415.87238 124.50023 -8.8138978)
(-457.29931 107.1028 15.116828)
(-495.00972 84.177899 38.726224)
(-526.08083 59.481078 62.955264)
(-549.70665 32.063324 83.470073)
(-563.11271 2.6780621 100.10995)
(-564.6231 -26.667668 112.50111)
(-557.7142 -56.236842 119.00094)
(-537.53408 -84.790604 122.71412)
(-511.81288 -109.61377 120.99341)
(-477.21181 -133.51915 117.48298)
(-438.36861 -153.6051 110.9957)
(-395.52775 -171.16157 103.08132)
(-350.1756 -185.98628 93.771321)
(-303.28856 -198.42636 83.812306)
(-255.82503 -209.51511 73.411766)
(-207.91097 -216.81888 62.847195)
(-161.08262 -225.09943 52.200314)
(-114.53546 -231.29191 41.980211)
(-69.511263 -237.00648 32.608636)
(-25.922458 -242.22611 24.26994)
(15.798559 -247.24242 17.346618)
(55.571929 -252.25993 12.074361)
(93.366021 -257.432 8.6221033)
(129.33087 -262.8806 7.0077383)
(163.78419 -268.68892 7.1090317)
(197.17966 -274.89357 8.6519548)
(230.08759 -281.50226 11.247722)
(263.12323 -288.48421 14.430583)
(296.89367 -295.7943 17.720641)
(331.92723 -303.36784 20.68472)
(368.62865 -311.13457 22.987857)
(407.2438 -319.01828 24.429308)
(447.85859 -326.93819 24.949426)
(490.41165 -334.80731 24.615382)
(534.73257 -342.53278 23.582464)
(580.58087 -350.01794 22.050431)
(627.68851 -357.16854 20.219433)
(675.78823 -363.90263 18.25967)
(724.6335 -370.1607 16.297617)
(774.00141 -375.91575 14.421256)
(823.69219 -381.17854 12.693402)
(873.52574 -385.99468 11.169323)
(923.33917 -390.44367 9.9120717)
(972.9955 -394.61481 8.9871884)
(1022.3904 -398.60987 8.4606419)
(1071.4679 -402.52072 8.3777459)
(1120.2247 -406.39713 8.7394463)
(1168.6762 -410.30775 9.5264724)
(1216.9856 -414.51003 10.680745)
(1265.1943 -418.45804 12.033176)
(1313.5385 -422.7668 13.451804)
(1362.0823 -427.19463 14.849484)
(1411.0076 -431.81021 16.047933)
(1460.4245 -436.65151 17.007613)
(1510.4329 -441.70404 17.648205)
(1561.1012 -446.96386 17.957713)
(1612.4654 -452.38811 17.934362)
(1664.511 -457.91786 17.612886)
(1717.173 -463.47843 17.034471)
(1770.3393 -468.9904 16.264571)
(1823.861 -474.4019 15.362971)
(1877.574 -479.66166 14.404682)
(1931.3223 -484.7786 13.436384)
(1984.988 -489.75384 12.511589)
(2038.4943 -494.63888 11.645707)
(2091.8134 -499.4565 10.867357)
(2144.941 -504.2402 10.174462)
(2197.8918 -508.99549 9.6053921)
(2250.634 -513.68842 9.1804064)
(2303.1459 -518.30764 8.9507137)
(2355.3572 -522.78624 8.9335358)
(2407.2129 -527.12737 9.1489838)
(2458.6911 -531.29321 9.498103)
(2509.8735 -535.47441 9.8684922)
(2560.8667 -539.48151 10.068196)
(2616.887 -492.87536 8.6163505)
(2621.6155 -441.40682 7.3538301)
(2626.0913 -390.11417 6.3939627)
(2630.536 -339.17541 5.4010278)
(2635.0177 -288.32049 4.5791638)
(2639.4135 -237.50682 3.6811856)
(2643.6798 -186.78821 3.0253763)
(2647.9406 -135.88252 2.2162461)
(2652.1078 -85.118556 1.3634276)
(2655.9374 -34.237778 0.62424357)
(2660.0698 16.560118 -0.30202293)
(2663.9995 67.543842 -1.2694194)
(2668.2769 118.52345 -2.3226082)
(2672.4753 169.922 -3.5706669)
(2676.6796 221.34366 -4.8527662)
(2629.7891 277.89585 -7.6224537)
(2577.9231 283.01416 -7.9589908)
(2526.1182 287.61518 -8.3292971)
(2474.0713 292.20812 -8.3692646)
(2421.8341 296.53913 -8.4158306)
(2369.2552 300.74381 -8.5749868)
(2316.4895 304.72298 -8.8236515)
(2263.4403 308.62716 -9.2514377)
(2210.179 312.39463 -9.7847649)
(2156.6882 316.10012 -10.43462)
(2102.9747 319.68355 -11.120112)
(2049.0629 323.13438 -11.837727)
(1994.9925 326.36532 -12.529437)
(1940.8252 329.34947 -13.206683)
(1886.6656 332.0185 -13.824504)
(1832.6457 334.37032 -14.390797)
(1778.8973 336.42781 -14.863281)
(1725.5156 338.25144 -15.235575)
(1672.5794 339.92906 -15.483007)
(1620.1294 341.52466 -15.568781)
(1568.1679 343.12677 -15.467931)
(1516.6736 344.7583 -15.159135)
(1465.5997 346.45075 -14.637314)
(1414.885 348.18531 -13.93418)
(1364.4745 349.93042 -13.098356)
(1314.2396 351.70781 -12.242874)
(1264.16 353.46914 -11.486352)
(1214.1141 355.1334 -10.805658)
(1163.968 356.69075 -10.567178)
(1113.6103 358.24567 -10.723887)
(1063.0405 359.60983 -11.291485)
(1012.2146 360.74036 -12.280709)
(961.15557 361.52548 -13.628648)
(909.94839 361.82729 -15.266915)
(858.72491 361.51591 -17.09529)
(807.66383 360.46831 -19.025633)
(756.97819 358.59414 -20.971068)
(706.9047 355.84777 -22.849361)
(657.69219 352.22893 -24.576588)
(609.58935 347.78609 -26.059911)
(562.83687 342.60258 -27.191232)
(517.64724 336.79297 -27.857139)
(474.19247 330.48369 -27.950956)
(432.57465 323.81484 -27.399526)
(392.80869 316.92355 -26.187826)
(354.79617 309.95063 -24.385309)
(318.31429 303.02563 -22.153972)
(283.02059 296.27872 -19.752619)
(248.46147 289.80577 -17.505629)
(214.10406 283.70079 -15.786672)
(179.42172 278.01033 -14.963867)
(143.8405 272.69435 -15.317431)
(106.95535 267.79595 -17.164686)
(68.394688 263.10291 -20.511663)
(28.006558 258.57367 -25.432766)
(-14.259675 253.94368 -31.707717)
(-58.431111 249.07653 -39.267651)
(-103.96742 243.05651 -47.715733)
(-151.0857 237.65501 -56.889642)
(-199.11986 229.64869 -66.091983)
(-247.70336 220.23542 -75.577901)
(-296.43176 210.43325 -85.218236)
(-344.62732 196.96113 -93.721605)
(-391.20724 181.5184 -101.89733)
(-435.89497 162.75636 -108.83272)
(-475.69787 142.2398 -115.17793)
(-511.89858 117.7973 -118.0696)
(-538.22316 90.748372 -119.54625)
(-557.79929 62.2492 -116.88966)
(-566.05265 32.312335 -110.72105)
(-563.33598 1.9822308 -100.28272)
(-549.5321 -26.574911 -85.503618)
(-523.48031 -57.494748 -66.498794)
(-490.1882 -79.968983 -46.558124)
(-450.46247 -100.23615 -25.009429)
(-407.72564 -119.64682 -2.7882573)
(-364.35833 -129.35584 14.166892)
(-326.92949 -138.91745 29.619562)
(-291.89434 -143.06443 37.424575)
(-267.21251 -144.00489 41.97149)
(-247.09128 -142.35894 40.676057)
(-232.38889 -142.02561 36.828402)
(-221.66429 -140.11554 31.199078)
(-211.90495 -134.91764 24.236119)
(-200.55686 -133.05958 21.375516)
(-186.2598 -128.41888 20.291292)
(-167.11228 -123.75987 22.181291)
(-144.88446 -117.49346 28.156698)
(-120.03833 -108.61565 34.848443)
(-94.203443 -98.396874 42.78354)
(-69.930521 -87.735795 49.22649)
(-49.512302 -73.948798 52.730701)
(-33.073786 -59.28374 51.921574)
(-23.387326 -45.154722 43.861173)
(-17.997153 -31.007372 31.376378)
(0 0 0)
(0 0 0)
(0 0 0)
(0 0 0)
(0 0 0)
(0 0 0)
(0 0 0)
(0 0 0)
(0 0 0)
(0 0 0)
(0 0 0)
(0 0 0)
(0 0 0)
(0 0 0)
(0 0 0)
(0 0 0)
(0 0 0)
(0 0 0)
(0 0 0)
(0 0 0)
(0 0 0)
(0 0 0)
(0 0 0)
(0 0 0)
(0 0 0)
(0 0 0)
(0 0 0)
(0 0 0)
(0 0 0)
(0 0 0)
(2613.3711 -542.65117 -6.2280954)
(2614.6619 -543.7105 -5.6504522)
(2616.0995 -545.03344 -4.8098008)
(2617.3401 -546.28971 -3.6933783)
(2618.3171 -547.3964 -2.374909)
(2618.9922 -548.29961 -0.9117472)
(2619.3518 -548.93236 0.59242649)
(2619.4138 -549.27705 2.1459505)
(2619.1914 -549.3463 3.6469192)
(2618.672 -549.08303 5.1187442)
(2617.8464 -548.49918 6.4614261)
(2616.7107 -547.60401 7.6717361)
(2615.4281 -546.57565 8.6326065)
(2614.0781 -545.57274 9.3532233)
(2612.9537 -544.72969 9.7695243)
(2680.4899 274.52976 12.073957)
(2682.3504 275.31468 11.361542)
(2684.3403 276.29252 10.294766)
(2686.1063 277.22478 8.9044052)
(2687.6154 278.10956 7.3433562)
(2688.799 278.8351 5.6493393)
(2689.6559 279.40919 3.9605389)
(2690.1934 279.75683 2.2755084)
(2690.3947 279.8503 0.66210715)
(2690.1848 279.59815 -0.89121996)
(2689.5191 278.9779 -2.3311098)
(2688.3303 277.96105 -3.6404727)
(2686.7735 276.67254 -4.7385551)
(2684.9373 275.30729 -5.6193531)
(2683.2474 274.0038 -6.2561029)
(-2.7943753 -22.112277 -37.378356)
(-14.901804 -31.669057 -40.619713)
(-26.399056 -43.970317 -49.596034)
(-44.654985 -53.755611 -49.127365)
(-66.214409 -62.832721 -47.009866)
(-92.011534 -71.953392 -40.817838)
(-118.52281 -80.836985 -33.991637)
(-144.55082 -89.797111 -27.314681)
(-167.40059 -98.541716 -22.323041)
(-186.2266 -106.64886 -20.171387)
(-200.688 -113.71111 -20.929774)
(-211.80579 -119.38104 -24.454743)
(-221.39356 -123.06188 -29.703112)
(-232.18526 -124.25999 -35.245187)
(-246.90664 -123.10443 -39.333269)
(-267.47987 -119.44528 -40.493167)
(-295.0257 -112.85795 -37.563394)
(-330.04894 -103.79208 -30.203968)
(-370.74308 -92.78168 -18.204747)
(-415.0812 -79.248997 -2.7254618)
(-459.74662 -64.200055 15.175679)
(-500.84037 -47.126254 33.995709)
(-535.6247 -28.708245 51.978041)
(-560.85094 -9.4017224 68.174544)
(-574.63097 11.013473 81.17912)
(-576.68003 31.752223 90.808358)
(-567.05999 52.55132 96.841385)
(-546.84587 72.942394 99.744762)
(-517.73242 92.511882 99.626104)
(-481.72113 110.93662 97.367745)
(-440.62355 127.81578 93.302405)
(-396.04494 143.06094 87.922059)
(-349.36609 156.56714 81.512345)
(-301.48105 168.31893 74.291912)
(-253.20461 178.75812 66.473276)
(-205.03246 187.66801 58.168905)
(-157.31703 195.85966 49.751369)
(-110.49749 203.2577 41.439317)
(-64.876277 210.10461 33.552945)
(-20.692331 216.73441 26.434593)
(21.759577 223.13228 20.375129)
(62.359224 229.37375 15.582252)
(101.20647 235.68647 12.218182)
(138.43367 241.84173 10.254651)
(174.31674 247.96306 9.6303861)
(209.31205 253.97148 10.125782)
(243.90859 259.85708 11.458911)
(278.64969 265.60415 13.329216)
(314.03869 271.18576 15.410615)
(350.54126 276.58961 17.418113)
(388.52211 281.79456 19.109583)
(428.24998 286.77278 20.316269)
(469.87003 291.48841 20.941931)
(513.41487 295.89307 20.96475)
(558.80543 299.93002 20.427843)
(605.86906 303.53541 19.424678)
(654.35821 306.6511 18.078281)
(703.97767 309.22301 16.527638)
(754.41113 311.21982 14.909874)
(805.34995 312.62965 13.344236)
(856.51619 313.46912 11.931039)
(907.69203 313.78331 10.74223)
(958.70989 313.62294 9.8322217)
(1009.4907 313.06578 9.2198807)
(1059.9737 312.20634 8.9175182)
(1110.2284 311.06649 8.9299057)
(1160.2671 309.78042 9.2160066)
(1210.0967 308.29325 9.7833049)
(1259.8998 306.72428 10.58865)
(1309.6498 305.05367 11.557863)
(1359.4983 303.30221 12.641363)
(1409.4688 301.48445 13.776225)
(1459.7224 299.60178 14.864652)
(1510.2895 297.61696 15.851245)
(1561.3462 295.58797 16.640582)
(1612.9394 293.41205 17.195439)
(1665.153 291.2135 17.458647)
(1718.0114 288.78194 17.464048)
(1771.4241 286.38173 17.177431)
(1825.3592 283.66122 16.746673)
(1879.5551 280.97118 16.129712)
(1933.9671 278.00943 15.495579)
(1988.3225 274.95172 14.831587)
(2042.5597 271.72191 14.19406)
(2096.6346 268.40106 13.580785)
(2150.4504 264.8676 13.070654)
(2204.1114 261.27956 12.548462)
(2257.4829 257.5257 12.119451)
(2310.7363 253.68959 11.756863)
(2363.6256 249.74393 11.471131)
(2416.3053 245.67709 11.359266)
(2468.5248 241.51275 11.325405)
(2520.325 237.07783 11.392045)
(2571.8139 232.63588 11.367256)
(2622.969 227.93828 11.126185)
(1.8712274 -19.95657 -30.106922)
(-9.0865254 -24.198739 -36.393906)
(-23.445927 -36.568798 -41.512365)
(-40.165231 -42.389402 -42.167174)
(-62.761209 -50.20241 -39.68794)
(-87.424061 -57.316876 -35.109758)
(-113.92423 -65.421708 -29.51628)
(-139.2936 -73.731273 -24.259478)
(-162.35144 -82.463017 -20.211494)
(-181.73184 -90.934304 -18.281427)
(-197.41546 -98.474513 -18.628427)
(-210.25174 -104.35072 -21.103804)
(-222.01769 -107.87285 -24.899292)
(-235.08172 -108.69197 -28.766977)
(-251.79559 -106.40765 -31.605928)
(-274.0834 -101.20238 -32.161867)
(-303.13306 -93.367497 -29.678322)
(-338.69152 -83.370996 -23.500912)
(-379.72194 -71.503132 -13.996316)
(-423.80737 -58.596025 -1.4393254)
(-467.70269 -44.828741 13.008585)
(-508.32823 -30.641334 28.170805)
(-542.24862 -16.250791 42.983249)
(-566.9133 -1.6561272 56.221061)
(-580.54035 13.038441 67.176641)
(-582.41463 27.97061 75.420535)
(-572.76176 42.91934 80.927435)
(-552.64118 57.771695 83.72809)
(-523.55023 72.381796 84.198157)
(-487.47679 86.498366 82.683088)
(-446.16494 99.861966 79.670042)
(-401.2945 112.28916 75.361734)
(-354.23679 123.6826 70.10465)
(-305.9635 133.99171 64.046293)
(-257.37893 143.32384 57.438206)
(-208.88041 151.80388 50.339848)
(-161.0071 159.64231 43.188641)
(-114.12265 166.97068 36.09186)
(-68.549753 173.97126 29.33533)
(-24.504078 180.81304 23.230361)
(17.81172 187.51719 17.983701)
(58.290681 194.11105 13.853769)
(97.062017 200.62368 10.848688)
(134.21566 206.94507 9.1292938)
(170.11589 213.03363 8.4748871)
(205.16477 218.8461 8.7577628)
(239.8528 224.34101 9.7495997)
(274.69325 229.50153 11.197482)
(310.184 234.30948 12.826189)
(346.7738 238.78614 14.40493)
(384.82487 242.93536 15.726283)
(424.60471 246.77779 16.655585)
(466.26254 250.31903 17.11078)
(509.83836 253.55807 17.078787)
(555.26065 256.48086 16.597274)
(602.36304 259.06384 15.744789)
(650.90313 261.27554 14.625776)
(700.58693 263.08418 13.355998)
(751.09434 264.4661 12.043987)
(802.11303 265.40579 10.788799)
(853.35847 265.90808 9.66988)
(904.60368 265.99584 8.7419779)
(955.67366 265.68408 8.0581995)
(1006.4794 265.05365 7.6111303)
(1056.9838 264.12236 7.4537109)
(1107.2074 262.95244 7.5367311)
(1157.1871 261.58739 7.8838093)
(1207.0549 260.06466 8.4639865)
(1256.7527 258.37196 9.1843816)
(1306.4283 256.55452 10.079497)
(1356.1892 254.6244 11.043777)
(1406.0822 252.5649 12.047784)
(1456.2289 250.40521 12.997817)
(1506.703 248.07822 13.871615)
(1557.6644 245.71391 14.529094)
(1609.146 243.11931 15.044178)
(1661.2701 240.57367 15.244237)
(1714.0112 237.7426 15.314774)
(1767.3411 235.06383 15.060979)
(1821.1518 232.02957 14.797789)
(1875.2891 229.22713 14.246155)
(1929.5981 226.0727 13.819355)
(1983.9219 223.01665 13.231987)
(2038.0794 219.74587 12.7308)
(2092.1269 216.47652 12.239842)
(2145.9262 212.99026 11.754648)
(2199.5944 209.44973 11.292918)
(2252.9825 205.78852 10.886436)
(2306.2543 201.97569 10.523099)
(2359.202 198.18593 10.230841)
(2411.9037 194.15451 10.112373)
(2464.1737 190.11488 9.9749025)
(2516.112 185.78658 10.012911)
(2567.5586 181.40079 9.85717)
(2618.9031 176.70197 9.5877655)
(3.0676023 -13.505452 -24.690787)
(-8.086305 -18.283006 -28.4616)
(-19.244005 -25.576999 -34.386126)
(-37.477458 -31.423465 -34.544992)
(-59.077177 -37.289888 -33.414652)
(-83.716926 -43.947012 -29.476495)
(-109.47644 -50.932354 -25.327138)
(-134.67077 -58.677408 -20.894555)
(-157.68855 -66.714637 -17.396071)
(-177.68837 -74.608967 -15.474346)
(-194.50711 -81.494932 -15.268429)
(-209.04312 -86.797945 -16.718637)
(-222.84737 -89.723429 -19.183637)
(-238.11087 -89.917375 -21.975132)
(-256.86498 -87.221602 -24.029423)
(-280.84232 -81.832741 -24.50766)
(-310.89395 -74.046034 -22.601846)
(-347.01587 -64.457804 -18.071156)
(-387.85865 -53.72531 -10.77223)
(-431.25678 -42.346335 -1.207469)
(-474.34661 -30.891783 9.9746013)
(-513.88426 -19.578988 21.888499)
(-546.90722 -8.5230789 33.606988)
(-570.86479 2.2281529 44.344777)
(-584.07212 12.923733 53.422232)
(-585.82313 23.569355 60.517445)
(-576.27885 34.310741 65.445951)
(-556.40411 45.172375 68.268959)
(-527.66497 56.046796 69.164167)
(-491.80047 66.816616 68.452496)
(-450.61894 77.294786 66.317738)
(-405.78122 87.306329 63.06091)
(-358.58578 96.710078 58.893306)
(-310.17516 105.46951 53.964953)
(-261.38744 113.61374 48.47992)
(-212.76831 121.14336 42.627673)
(-164.9098 128.31034 36.598017)
(-118.09121 135.10202 30.589938)
(-72.568918 141.71248 24.90347)
(-28.656965 148.16038 19.764971)
(13.539529 154.53878 15.352153)
(53.938984 160.78274 11.814734)
(92.645832 166.88019 9.3058459)
(129.82905 172.75353 7.7807643)
(165.80593 178.30924 7.144953)
(200.98086 183.52486 7.2813648)
(235.82985 188.34994 8.0061065)
(270.84472 192.76132 9.0994751)
(306.51354 196.76136 10.350022)
(343.26364 200.37059 11.559074)
(381.45726 203.61358 12.561598)
(421.35118 206.52592 13.247217)
(463.10032 209.13186 13.550782)
(506.74497 211.45174 13.465881)
(552.21999 213.49255 13.025112)
(599.36412 215.24796 12.297095)
(647.94031 216.70472 11.3709)
(697.65662 217.84219 10.338444)
(748.1962 218.64467 9.2903699)
(799.24621 219.09709 8.3055069)
(850.52088 219.2018 7.441451)
(901.78632 218.96238 6.7492085)
(952.87034 218.4038 6.2540332)
(1003.6785 217.56605 5.9658996)
(1054.1726 216.45436 5.9164137)
(1104.3226 215.11911 6.0682873)
(1154.3286 213.64255 6.4732902)
(1203.9261 211.86615 6.978482)
(1253.6188 210.0221 7.767901)
(1303.2122 208.05041 8.5940708)
(1352.901 205.90794 9.4934754)
(1402.7084 203.64803 10.404465)
(1452.7973 201.24881 11.253029)
(1503.2106 198.73111 11.980622)
(1554.109 196.07225 12.550566)
(1605.5128 193.31308 12.938742)
(1657.5615 190.45591 13.111043)
(1710.1807 187.49703 13.12558)
(1763.3994 184.49935 12.951446)
(1817.0706 181.41442 12.683802)
(1871.0782 178.34814 12.301354)
(1925.2741 175.10864 11.939593)
(1979.4773 171.99151 11.468254)
(2033.6358 168.58979 11.099544)
(2087.6605 165.28301 10.576547)
(2141.4546 161.75824 10.1982)
(2195.1118 158.25873 9.7660179)
(2248.5284 154.51041 9.3946926)
(2301.8247 150.85584 9.055314)
(2354.7987 146.96368 8.7985703)
(2407.5119 143.03145 8.6498744)
(2459.9327 139.01997 8.5073281)
(2511.8823 134.67314 8.5021921)
(2563.5059 130.36522 8.3109131)
(2614.9629 125.70331 8.0245879)
(3.5382655 -11.380212 -18.865648)
(-4.7356598 -13.555034 -23.955998)
(-16.705231 -19.101855 -27.880565)
(-34.181953 -23.042964 -28.480319)
(-55.651786 -27.609831 -27.323324)
(-79.608321 -33.071118 -24.411081)
(-105.11284 -39.041915 -21.059837)
(-129.99892 -45.628608 -17.433085)
(-153.32383 -52.679305 -14.491733)
(-174.01445 -59.462727 -12.685238)
(-192.13261 -65.402756 -12.130842)
(-208.38619 -69.830288 -12.827445)
(-224.22991 -72.161017 -14.402308)
(-241.4898 -72.058224 -16.218598)
(-262.04714 -69.412142 -17.629557)
(-287.39539 -64.40736 -17.918078)
(-318.32305 -57.408771 -16.591781)
(-354.6153 -49.008603 -13.285399)
(-395.09824 -39.736227 -8.0005982)
(-437.6877 -30.229991 -0.94259355)
(-479.6472 -20.872411 7.371475)
(-518.02737 -11.93036 16.34115)
(-549.95625 -3.511449 25.309358)
(-573.10311 4.4778736 33.631268)
(-585.84884 12.155214 40.837302)
(-587.45811 19.75818 46.613525)
(-578.07159 27.43063 50.784658)
(-558.52135 35.225481 53.392826)
(-530.15729 43.173099 54.507994)
(-494.68149 51.18491 54.28116)
(-453.80055 59.142721 52.910224)
(-409.09435 66.877146 50.57304)
(-361.99186 74.322899 47.403062)
(-313.59967 81.383364 43.567942)
(-264.77479 88.047184 39.224446)
(-216.18946 94.389784 34.521705)
(-168.31469 100.47221 29.608774)
(-121.48949 106.34826 24.789182)
(-76.13927 112.08925 20.237167)
(-32.351606 117.74814 16.010927)
(9.6971778 123.33669 12.434545)
(50.025533 128.78543 9.5691901)
(88.671904 134.0811 7.4803993)
(125.86166 139.12793 6.1729734)
(161.91004 143.8742 5.5951987)
(197.2172 148.2592 5.6273552)
(232.23172 152.24862 6.1252073)
(267.4356 155.82085 6.9162949)
(303.29352 158.98048 7.8336452)
(340.22464 161.74925 8.7162376)
(378.57861 164.15644 9.4386517)
(418.60803 166.24 9.9124499)
(460.46591 168.03077 10.091401)
(504.19225 169.55851 9.973406)
(549.72535 170.83687 9.5893267)
(596.90724 171.87142 8.9993935)
(645.5037 172.65784 8.2735281)
(695.22799 173.18383 7.4879604)
(745.76565 173.4388 6.7120372)
(796.80589 173.4122 6.0016681)
(848.06243 173.09825 5.4035144)
(899.30479 172.51157 4.9446351)
(950.3555 171.65613 4.6440704)
(1001.1265 170.55504 4.5184225)
(1051.5475 169.22953 4.5651519)
(1101.6786 167.72116 4.7929808)
(1151.5094 166.01224 5.1532221)
(1201.161 164.15984 5.7145232)
(1250.7322 162.1455 6.3679192)
(1300.2377 159.99106 7.0652287)
(1349.8458 157.64961 7.8443732)
(1399.6019 155.20052 8.5679504)
(1449.6105 152.61278 9.2249309)
(1499.9725 149.89367 9.8059275)
(1550.8268 147.03667 10.235371)
(1602.1764 144.05478 10.534474)
(1654.1617 141.00584 10.653769)
(1706.6775 137.83869 10.679433)
(1759.8191 134.69945 10.522078)
(1813.3292 131.4189 10.371522)
(1867.2499 128.22359 10.07798)
(1921.2718 124.85711 9.8407018)
(1975.4273 121.62691 9.4972561)
(2029.4532 118.09403 9.2460345)
(2083.4519 114.72172 8.8485662)
(2137.2004 111.12425 8.5552502)
(2190.9005 107.49106 8.1800372)
(2244.3059 103.82917 7.8473714)
(2297.6468 100.00128 7.5588088)
(2350.6364 96.151809 7.2741939)
(2403.4761 92.21156 7.125998)
(2455.9036 88.120911 6.9674474)
(2508.0364 83.840543 6.9326724)
(2559.6428 79.523937 6.7501382)
(2611.282 74.902676 6.5511894)
(3.5666991 -7.5577621 -14.259963)
(-4.001665 -9.5091745 -17.292124)
(-14.824717 -12.800625 -20.912486)
(-31.887244 -15.924193 -21.086127)
(-52.639461 -19.239928 -20.831857)
(-76.308301 -23.479695 -18.453596)
(-101.35874 -28.114571 -16.063655)
(-126.25582 -33.435105 -13.199368)
(-149.82029 -39.008792 -10.854486)
(-171.26306 -44.452164 -9.2418667)
(-190.54985 -49.112855 -8.5261772)
(-208.35123 -52.626513 -8.7846301)
(-225.92409 -54.371243 -9.6791984)
(-244.93242 -54.197314 -10.912061)
(-267.02784 -51.948971 -11.927504)
(-293.51733 -47.838619 -12.307083)
(-325.05073 -42.148876 -11.568804)
(-361.39572 -35.380145 -9.5149564)
(-401.41445 -28.002256 -6.0089481)
(-443.13993 -20.517301 -1.2420215)
(-484.01975 -13.253473 4.5411843)
(-521.25231 -6.4676606 10.894275)
(-552.18883 -0.19006362 17.372389)
(-574.58851 5.5969251 23.520403)
(-586.90123 11.092753 28.996956)
(-588.41454 16.442671 33.507037)
(-579.16519 21.800457 36.95861)
(-559.94013 27.280491 39.259217)
(-531.9998 32.899985 40.463016)
(-496.93023 38.634576 40.650728)
(-456.3651 44.374513 39.928051)
(-411.91398 50.061082 38.38196)
(-364.95968 55.590269 36.15078)
(-316.62263 60.888185 33.341634)
(-267.85862 65.993571 30.073743)
(-219.29332 70.875485 26.492549)
(-171.47186 75.626234 22.735839)
(-124.83184 80.17662 19.186975)
(-79.617162 84.692479 15.520276)
(-36.019788 89.205442 12.301128)
(5.9301775 93.646873 9.4772234)
(46.121379 97.995766 7.2040264)
(84.726027 102.17783 5.53416)
(121.93163 106.13447 4.4673887)
(158.04872 109.81759 3.9466669)
(193.46926 113.17248 3.8954421)
(228.63086 116.17771 4.20809)
(264.00417 118.80618 4.7541712)
(300.03814 121.0688 5.4089314)
(337.1413 122.97866 6.0489291)
(375.65302 124.5652 6.5788454)
(415.82026 125.86079 6.9295453)