/*--------------------------------*- C++ -*----------------------------------*\
  =========                 |
  \\      /  F ield         | OpenFOAM: The Open Source CFD Toolbox
   \\    /   O peration     | Website:  https://openfoam.org
    \\  /    A nd           | Version:  6
     \\/     M anipulation  |
\*---------------------------------------------------------------------------*/
FoamFile
{
    version     2.0;
    format      ascii;
    class       pointVectorField;
    location    "0.93";
    object      lm;
}
// * * * * * * * * * * * * * * * * * * * * * * * * * * * * * * * * * * * * * //

dimensions      [1 -2 -1 0 0 0 0];

internalField   nonuniform List<vector> 
3969
(
(0 0 0)
(0 0 0)
(-1611.7396 891.76474 -5.5645012)
(-1139.7781 1524.4314 64.638514)
(0 0 0)
(0 0 0)
(-1184.3856 1570.4868 65.724679)
(-1655.5745 937.9186 -3.8604265)
(0 0 0)
(0 0 0)
(0 0 0)
(0 0 0)
(0 0 0)
(0 0 0)
(0 0 0)
(-1555.1074 972.50436 3.5757363)
(-1485.7175 1044.17 12.858165)
(-1420.0768 1116.8014 21.377853)
(-1360.9992 1193.6489 29.900681)
(-1306.6383 1274.9306 38.23016)
(-1253.3033 1358.7267 46.817134)
(-1197.9198 1442.5784 55.64722)
(23.63523 22.432499 18.198385)
(43.576271 38.279715 15.706683)
(66.725083 50.089232 10.775496)
(92.530048 59.18695 4.1768797)
(119.50006 64.850682 -2.800068)
(147.25129 67.481662 -9.3849039)
(174.67223 66.862766 -15.83335)
(201.3768 63.46573 -21.267214)
(226.33224 57.424452 -26.206766)
(249.31817 48.947067 -30.085345)
(269.48993 38.682022 -33.084037)
(286.8166 26.852525 -35.127126)
(300.18748 13.891966 -35.911301)
(309.80313 0.16502246 -35.72745)
(314.80343 -13.723492 -34.278201)
(315.04016 -27.510996 -31.609012)
(310.16339 -40.677064 -28.01936)
(299.80993 -52.826063 -23.254264)
(283.64373 -63.464513 -17.587652)
(261.59353 -72.173675 -11.178376)
(233.38234 -78.552813 -4.1517837)
(199.11303 -82.190035 3.0916209)
(158.71709 -82.744595 10.391599)
(112.53497 -79.832363 17.368435)
(60.74384 -73.28595 23.74832)
(3.6794879 -63.103702 29.198895)
(-58.139367 -48.929661 33.457579)
(-124.33087 -30.815436 36.397326)
(-194.25015 -8.7529355 37.694786)
(-267.33548 17.059827 37.45873)
(-343.01457 46.596443 35.537064)
(-420.76321 79.672763 32.141746)
(-499.98706 116.17287 27.391752)
(-580.29382 155.81939 21.711146)
(-661.11102 198.60932 15.240237)
(-742.18099 244.20767 8.7489293)
(-823.14978 292.36511 2.2799102)
(-903.41026 343.17804 -3.3518067)
(-983.09079 395.74217 -7.9065852)
(-1061.3294 450.30674 -11.345102)
(-1138.3031 506.01151 -13.281433)
(-1213.0827 562.36942 -13.969075)
(-1285.6554 619.43644 -13.274222)
(-1355.5322 675.25565 -12.01561)
(-1422.0955 730.92871 -9.9711341)
(-1485.3621 784.50153 -8.2267502)
(-1548.7335 838.48021 -6.4649375)
(4.7348444 -20.550885 -24.822096)
(19.463663 -30.007938 -23.542199)
(39.449995 -40.104974 -21.994388)
(62.676757 -47.322071 -17.079186)
(86.700333 -53.003641 -12.258289)
(111.94022 -57.48882 -7.1744403)
(137.53017 -60.562937 -2.0292891)
(162.81041 -61.46243 3.0987855)
(187.73307 -61.197616 8.4498645)
(212.1731 -59.429009 13.906068)
(235.14517 -55.525196 19.813885)
(256.85819 -50.411942 25.960386)
(277.42285 -43.008107 32.844888)
(295.85277 -33.95784 39.866901)
(312.09318 -22.713302 47.51838)
(325.64958 -9.3448706 55.503417)
(336.24818 6.3628041 63.82287)
(343.18047 24.774652 72.355564)
(346.51537 45.467222 80.987453)
(345.36256 69.146876 89.492493)
(339.86093 95.615611 97.722778)
(329.2339 124.83833 105.51318)
(313.74625 157.48622 112.34851)
(292.94942 192.71668 118.56442)
(267.06043 231.34795 123.66211)
(235.85432 272.75192 127.64243)
(199.84927 317.12712 130.23785)
(158.80994 364.94301 131.43733)
(113.06986 415.51416 131.46117)
(63.265949 468.81037 130.13696)
(9.5243609 524.76837 127.67792)
(-47.63618 583.30463 124.11005)
(-107.91899 644.11806 119.6765)
(-170.903 706.96413 114.50019)
(-236.21706 771.49842 108.95797)
(-303.55179 837.45736 103.06467)
(-372.44647 904.00294 97.358033)
(-442.68267 970.93031 91.839438)
(-513.90664 1037.3545 86.873296)
(-585.91979 1102.8542 82.412638)
(-657.88996 1166.0827 78.616677)
(-730.02205 1227.4038 75.506039)
(-801.55413 1285.2221 72.957561)
(-872.11523 1339.6394 70.889651)
(-941.22276 1390.0308 69.173684)
(-1008.4176 1436.4597 67.561615)
(-1073.8909 1479.7383 66.077871)
(0 0 0)
(0 0 0)
(0 0 0)
(0 0 0)
(0 0 0)
(0 0 0)
(0 0 0)
(6.7918184 -11.820073 18.79425)
(14.660014 -29.210973 19.584331)
(31.996053 -33.399183 14.39887)
(54.155701 -42.739273 8.4586376)
(76.218258 -48.006347 2.6689828)
(100.23353 -55.039545 -3.8946834)
(124.02094 -58.885819 -8.0743686)
(146.82766 -62.779955 -13.349916)
(170.15342 -65.243129 -15.635208)
(191.04127 -64.779866 -18.91423)
(212.61818 -65.983704 -19.900619)
(232.20664 -62.227101 -21.600894)
(248.61298 -58.628739 -20.125545)
(263.97905 -51.84428 -18.854298)
(276.20322 -42.691374 -15.772684)
(286.29838 -31.144134 -11.849537)
(292.94646 -15.820635 -6.6437037)
(296.62897 2.2244854 -0.48827439)
(296.62231 24.338731 6.6854712)
(292.94758 49.955077 14.543915)
(285.34018 79.602611 22.954127)
(273.67066 113.11977 31.61371)
(257.7583 150.56712 40.238505)
(237.71329 191.73231 48.465347)
(213.325 236.79548 56.23306)
(184.01974 285.46558 63.298128)
(151.67144 336.90323 68.576706)
(114.76376 391.41048 72.66523)
(73.72169 448.53045 75.334306)
(28.581038 508.00321 76.610305)
(-20.49559 569.5063 76.52005)
(-73.350247 632.73949 75.073545)
(-129.83077 697.30384 72.546896)
(-189.88144 762.93843 69.202591)
(-253.20079 829.13093 65.442591)
(-319.82787 895.88007 61.50167)
(-388.95951 962.51389 58.210136)
(-460.56364 1028.5703 54.859568)
(-534.61501 1093.7712 53.143057)
(-610.01825 1157.833 52.240885)
(-686.35249 1219.9527 52.655058)
(-762.95811 1279.9279 54.112384)
(-838.90447 1337.0587 56.379646)
(-913.5347 1390.9422 59.096495)
(-985.88558 1441.2453 61.777163)
(-1055.3773 1487.6321 63.936674)
(-1119.5292 1527.733 65.041748)
(-1241.1791 1485.4914 57.393765)
(-1298.5502 1403.1371 48.836957)
(-1354.1125 1321.5388 40.095297)
(-1406.1874 1237.8714 30.759942)
(-1465.3901 1162.2166 21.775565)
(-1530.5437 1089.4309 12.950164)
(-1596.5895 1016.4406 4.5131815)
(-1589.366 883.08419 -3.2088747)
(-1534.6288 834.58447 -2.3687356)
(-1471.4414 782.70853 -1.1619244)
(-1403.8599 729.47531 0.87134745)
(-1332.0766 675.55004 3.7938105)
(-1256.5673 621.25935 7.6191725)
(-1177.7292 566.88854 12.53504)
(-1096.2506 512.76309 18.442054)
(-1012.7935 459.10844 25.392222)
(-928.06178 406.05741 33.092063)
(-843.00254 353.9241 41.337206)
(-757.07772 303.7049 49.638817)
(-673.3284 254.17753 58.073372)
(-589.96123 206.6202 66.097779)
(-508.53169 161.12939 73.469054)
(-429.3769 118.19753 79.769041)
(-352.81196 78.074105 84.838059)
(-279.3556 41.284441 88.537268)
(-209.24184 8.1288452 90.627312)
(-142.95686 -21.037464 91.247561)
(-80.749655 -45.86791 90.153602)
(-22.979674 -66.301101 87.636088)
(30.048213 -81.937151 83.575189)
(78.142867 -93.137042 78.396213)
(121.0354 -99.656343 72.025169)
(158.58403 -101.8749 64.792477)
(190.71872 -100.00721 56.914818)
(217.44041 -94.50377 48.617243)
(238.74953 -85.771342 40.16396)
(254.80885 -74.376817 31.729318)
(265.64892 -60.859187 23.546851)
(271.82131 -45.716017 15.73329)
(273.32831 -29.787555 8.6463313)
(270.42687 -13.721491 1.8169234)
(262.82354 2.9681696 -4.3571548)
(251.89984 18.501871 -9.6778657)
(237.56239 33.071887 -14.402069)
(220.38647 45.900968 -18.546446)
(200.18265 56.475861 -21.701656)
(178.44124 64.048553 -24.72697)
(155.37676 69.470396 -27.002937)
(130.6057 71.364002 -28.923803)
(107 69.060165 -29.927536)
(83.386581 64.248697 -30.760648)
(61.445139 54.451159 -29.787278)
(41.758064 41.447635 -27.434199)
(30.932571 25.644539 -19.49109)
(0 0 0)
(0 0 0)
(0 0 0)
(0 0 0)
(0 0 0)
(0 0 0)
(0 0 0)
(0 0 0)
(0 0 0)
(0 0 0)
(0 0 0)
(0 0 0)
(0 0 0)
(0 0 0)
(-1144.9043 1530.5203 64.819225)
(-1150.3235 1536.9257 64.754067)
(-1155.8076 1543.6545 64.518533)
(-1161.2571 1550.1437 64.43257)
(-1166.7408 1556.2678 64.464304)
(-1172.3563 1561.7361 64.798579)
(-1177.9712 1566.4038 65.452035)
(-1618.5256 897.43354 -5.578227)
(-1624.9046 902.99885 -5.48274)
(-1630.7542 908.78132 -5.4082098)
(-1636.0991 914.67524 -4.997223)
(-1641.1547 920.5043 -4.5792269)
(-1645.901 926.32779 -4.2914657)
(-1650.7154 932.2333 -3.9346033)
(16.372152 11.534086 16.49363)
(36.946043 23.268868 12.38441)
(60.7685 33.635776 8.4162509)
(87.002865 41.631031 2.9292536)
(115.51828 47.180601 -2.9952535)
(144.6149 49.734818 -8.777916)
(174.24947 49.768357 -14.136372)
(202.93757 47.060971 -18.865287)
(230.39253 41.779887 -22.96609)
(255.84352 34.601124 -26.055908)
(278.39643 25.591691 -28.332617)
(297.83727 15.201032 -29.615564)
(313.36388 4.0471436 -29.812202)
(324.83694 -7.630199 -28.909785)
(331.42879 -19.281211 -26.813838)
(332.9747 -30.429951 -23.628326)
(329.09988 -40.531471 -19.304507)
(319.67923 -49.276937 -14.010509)
(304.33741 -56.046159 -7.8822556)
(283.20468 -60.564636 -1.0643112)
(256.10923 -62.43416 6.1483575)
(223.28564 -61.312334 13.520774)
(184.835 -56.970254 20.790126)
(141.07958 -49.206615 27.617383)
(92.280526 -37.870569 33.720891)
(38.879374 -22.891638 39.020999)
(-18.627964 -4.2911626 43.011128)
(-79.932684 17.915891 45.710007)
(-144.50415 43.689188 47.040088)
(-211.80905 72.799274 46.865412)
(-281.51023 105.22823 45.24293)
(-353.15135 140.82429 42.283812)
(-426.40988 179.42489 38.189905)
(-500.9031 220.96447 33.169429)
(-576.45068 265.2835 27.576702)
(-652.72978 312.11917 21.787245)
(-729.58321 361.51547 16.037139)
(-806.8893 413.19242 10.882243)
(-884.52197 466.69625 6.5373769)
(-961.9742 521.92655 2.9790313)
(-1039.3872 578.25059 0.76589356)
(-1115.998 635.36923 -0.57275261)
(-1192.1026 692.77479 -0.75136721)
(-1266.4579 749.63902 -0.31907822)
(-1339.5278 806.04696 0.72748963)
(-1410.3481 860.93688 1.7332025)
(-1481.3705 915.92842 2.9990814)
(12.226502 7.3410783 11.5639)
(31.906408 14.456817 7.9735074)
(56.90157 22.747116 4.8227069)
(85.067479 29.388927 0.39705377)
(115.79715 33.841882 -4.2253017)
(148.15032 36.20915 -8.8236459)
(180.89484 36.229349 -13.056457)
(213.655 33.430107 -16.861021)
(244.88048 28.866084 -19.839579)
(273.95573 22.342969 -22.041555)
(300.08105 14.172688 -23.410032)
(322.67211 5.232591 -23.630151)
(340.82756 -4.4401114 -22.810954)
(353.78758 -14.285068 -20.660936)
(361.323 -23.598828 -17.421487)
(363.1702 -31.841561 -13.049058)
(359.12366 -38.732153 -7.7887703)
(348.84036 -43.725146 -1.601945)
(332.53575 -46.371915 5.1959272)
(310.2077 -46.485872 12.460314)
(282.12176 -43.647461 19.873152)
(248.68924 -37.817875 27.188304)
(210.23155 -28.81889 34.070764)
(167.25777 -16.596046 40.270086)
(120.26701 -1.1676859 45.703011)
(69.740862 17.235444 49.870999)
(16.32382 38.890913 52.88441)
(-39.869726 63.343634 54.696604)
(-98.204903 90.690079 55.052453)
(-158.40111 120.69325 54.19308)
(-220.25372 153.37267 52.083967)
(-283.56668 188.59069 48.933903)
(-348.13995 226.34507 44.872452)
(-414.08347 266.66467 40.169627)
(-481.27206 309.39113 35.115467)
(-549.87712 354.80873 29.873816)
(-620.00909 402.6583 24.928366)
(-691.60341 453.06747 20.298206)
(-765.10787 505.79483 16.491213)
(-840.04921 560.83068 13.366691)
(-917.20685 617.90694 11.293711)
(-995.51781 676.62175 9.9694692)
(-1075.8409 737.04324 9.6076157)
(-1157.0207 797.93694 9.8396192)
(-1239.3037 859.96711 10.43603)
(-1321.9135 921.67513 11.319216)
(-1404.2559 983.54166 12.097569)
(8.0511159 5.1227389 7.6917389)
(27.629884 9.2873066 4.8229114)
(53.149375 15.175427 2.1436458)
(82.908493 19.389747 -1.5009708)
(115.9026 22.473255 -5.2089952)
(150.96907 23.512929 -8.7276122)
(187.49181 22.333563 -12.028028)
(223.51851 19.487476 -14.312967)
(258.25369 14.749875 -16.246827)
(291.05146 8.7238332 -17.19829)
(320.31145 1.7344153 -17.210553)
(345.61745 -5.7027405 -16.202575)
(366.005 -13.304527 -14.0743)
(380.84598 -20.53773 -10.915748)
(389.39248 -26.796458 -6.7919329)
(391.8963 -31.738681 -1.7636602)
(387.70143 -34.887173 4.2771744)
(377.00966 -35.855459 10.920692)
(359.87105 -34.473183 18.027419)
(336.60708 -30.317927 25.292955)
(307.73891 -23.495062 32.429815)
(273.6781 -13.791503 39.219983)
(234.9842 -1.1656947 45.38075)
(192.55634 14.273915 50.807262)
(146.82214 32.278692 55.100843)
(98.350967 53.064006 58.422403)
(47.636021 76.256136 60.705092)
(-4.8589675 101.68957 61.656432)
(-58.561816 129.33036 61.453028)
(-113.39965 159.07877 60.211818)
(-169.23867 190.87519 57.958752)
(-225.91306 224.8473 54.833873)
(-283.65197 260.9859 51.03807)
(-342.51922 299.44988 46.777556)
(-402.8101 340.44361 42.198328)
(-464.82868 384.08455 37.622071)
(-528.88053 430.56484 33.190221)
(-595.48588 480.0815 29.144821)
(-664.82722 532.70656 25.72177)
(-737.31743 588.43022 22.831978)
(-813.1475 647.24688 20.877479)
(-892.23975 709.11534 19.442264)
(-975.25329 773.66339 19.057906)
(-1060.9695 840.61292 18.876733)
(-1150.1983 909.75194 19.448503)
(-1241.7667 980.526 20.010121)
(-1332.8631 1050.6617 20.845976)
(7.4109458 2.3320092 1.8537599)
(25.865447 4.0308407 -1.1700368)
(50.403048 7.2020019 -3.1056262)
(80.671442 9.1649865 -5.3978925)
(114.06118 9.4707246 -7.2627437)
(150.56794 8.8837964 -9.2722365)
(187.11492 6.4434178 -9.9889653)
(224.33712 3.1874967 -10.841599)
(260.01406 -1.4000646 -10.750196)
(293.64345 -6.2020277 -9.7688124)
(323.85572 -11.792983 -8.2363176)
(350.54587 -16.839327 -5.6267089)
(372.04408 -21.778617 -2.215532)
(388.27695 -25.592706 2.1784383)
(398.34077 -28.090088 7.2612417)
(402.1317 -29.126571 13.371167)
(399.32993 -27.910513 19.907939)
(389.9629 -24.714214 26.943514)
(374.16816 -18.938215 34.125745)
(352.33283 -10.608602 41.205775)
(324.71697 0.14722968 48.140769)
(291.96741 13.699337 54.468556)
(255.08669 29.701726 59.996247)
(214.13731 47.920758 64.658642)
(169.94053 68.52501 68.370435)
(123.27059 91.066264 70.907383)
(74.708036 115.67176 72.054592)
(24.681563 142.09095 72.116573)
(-26.508696 170.42879 71.090471)
(-78.67382 200.56588 69.070869)
(-131.63998 232.56626 66.171381)
(-185.42555 266.65417 62.522897)
(-240.17023 302.72671 58.406305)
(-296.10257 341.34704 53.853008)
(-353.48991 382.41117 49.226922)
(-412.71752 426.44437 44.586679)
(-474.28314 473.54374 40.256512)
(-538.49258 524.05296 36.332337)
(-605.57057 577.74798 32.98428)
(-676.34045 635.34001 30.367586)
(-750.947 696.58624 28.509105)
(-829.36287 761.20357 27.436104)
(-911.96198 829.33732 27.032118)
(-998.07071 900.18504 27.211857)
(-1088.2567 973.99416 27.836684)
(-1181.2003 1049.6701 28.629094)
(-1273.458 1124.1938 29.376428)
(5.092802 -0.58603759 -2.3352555)
(22.081863 -0.66288595 -5.2531693)
(46.15991 0.8556434 -6.5314335)
(75.261011 -0.27994255 -7.577604)
(107.57018 -1.4950253 -8.1277741)
(142.3261 -3.9650524 -7.9324986)
(177.30838 -7.181874 -7.5861579)
(213.07243 -10.600721 -6.5193956)
(246.92581 -14.659413 -4.9144457)
(279.31289 -18.126056 -2.6463081)
(308.50478 -21.707162 0.31702929)
(334.95218 -23.861602 4.1610013)
(356.80197 -25.873601 8.6709036)
(374.0445 -25.724553 13.813883)
(385.91539 -24.741532 19.771107)
(392.1344 -21.557509 26.158844)
(392.52719 -16.708988 33.005108)
(386.87627 -9.5638781 40.055577)
(375.32637 -0.30994452 47.199254)
(357.85072 11.338702 54.057488)
(334.7605 25.042616 60.855938)
(307.25598 41.402585 66.548634)
(274.30207 60.017692 71.973103)
(236.71157 80.753192 76.218087)
(195.41531 103.61232 79.304479)
(151.19211 128.57402 81.297039)
(104.37499 155.57656 82.258292)
(55.464161 184.48471 82.267533)
(4.818649 215.34759 81.185706)
(-47.237797 248.14904 79.192082)
(-100.6418 283.05069 76.354873)
(-155.15721 320.14948 72.824599)
(-211.01486 359.55091 68.791557)
(-268.13812 401.57348 64.34558)
(-326.80116 446.22645 59.769232)
(-387.27479 493.87878 55.210209)
(-449.77544 544.59523 50.865601)
(-515.0776 599.13341 46.994517)
(-587.51374 661.85948 44.033092)
(-658.86824 723.1103 41.302914)
(-731.84653 786.17888 39.242851)
(-808.09885 852.31501 37.840906)
(-887.14559 920.71521 37.208751)
(-968.87533 991.19646 37.055101)
(-1053.1841 1063.2365 37.345596)
(-1139.1435 1136.2952 37.71616)
(-1224.621 1207.7205 38.153542)
(3.4363277 -5.111058 -9.2695844)
(19.890623 -6.6413868 -11.163462)
(42.600196 -8.1620446 -12.128735)
(69.885769 -11.68484 -11.096386)
(99.582465 -14.758648 -9.9484919)
(130.82507 -18.799814 -7.8722447)
(162.3337 -22.485832 -5.7038325)
(193.75927 -25.635448 -2.8999102)
(224.00553 -28.843415 0.29141913)
(252.86878 -30.439294 3.9190086)
(279.18129 -31.891841 8.1271679)
(303.76041 -31.622192 12.852549)
(324.81086 -30.228546 18.188369)
(342.40034 -27.321918 24.124281)
(355.8115 -22.680872 30.444762)
(364.99607 -16.174193 37.347183)
(369.34951 -7.6794667 44.486144)
(368.81256 2.9467892 51.949809)
(363.01864 15.788228 59.356435)
(351.96844 31.031782 66.695582)
(335.83152 48.673243 73.739179)
(313.38745 68.470281 79.866696)
(288.20357 91.557992 86.180821)
(256.21195 116.75977 90.664739)
(220.00591 144.06337 94.51353)
(179.59297 173.89378 97.110936)
(135.47933 206.08062 98.534949)
(88.198556 240.51766 98.890392)
(37.963488 277.18731 98.088467)
(-14.888515 316.32994 96.218955)
(-69.976893 357.76696 93.378407)
(-127.11839 401.6201 89.662363)
(-186.17308 447.80582 85.325146)
(-246.86854 496.57161 80.420845)
(-309.34012 547.56993 75.382424)
(-373.41707 601.27627 70.159307)
(-439.10726 657.24709 65.224172)
(-506.54688 715.72664 60.625485)
(-576.77985 777.8703 56.734159)
(-656.69249 852.25151 54.063171)
(-727.06689 912.76108 51.282815)
(-801.03315 977.79201 49.38575)
(-875.87655 1042.804 48.254545)
(-951.39108 1107.9458 47.603783)
(-1027.4136 1172.466 47.369722)
(-1103.3868 1236.2251 47.322622)
(-1179.0245 1298.5036 47.225204)
(1.677008 -11.159276 -13.79786)
(17.723392 -12.546439 -16.563507)
(39.602752 -17.695575 -15.922455)
(65.363208 -22.956389 -13.592453)
(92.408031 -27.767918 -10.751951)
(120.90741 -32.491455 -6.9858583)
(149.12192 -35.951538 -3.6854442)
(177.38837 -38.694789 0.59531157)
(204.60881 -40.531932 4.5186788)
(230.86997 -40.279529 9.1880219)
(255.40166 -40.138704 14.193076)
(278.06026 -36.818575 19.440936)
(298.78676 -33.348557 25.605224)
(316.61797 -27.131118 31.737913)
(331.72752 -19.629562 38.763204)
(343.33105 -9.8988527 45.980227)
(351.2832 1.8353844 53.661077)
(355.06867 15.782767 61.529774)
(354.41897 32.267089 69.421629)
(349.13599 51.069057 77.320458)
(338.69065 72.657775 84.82453)
(323.46558 96.741935 91.950277)
(302.43966 123.85758 98.339303)
(276.82302 153.83832 103.84849)
(245.72592 186.43859 108.60453)
(209.80862 222.1531 111.98388)
(169.23275 260.53077 114.40051)
(123.94404 301.72677 115.54737)
(74.678895 345.79654 115.37478)
(21.751831 392.65771 113.93863)
(-34.40618 442.05994 111.40263)
(-93.452815 493.99801 107.8331)
(-155.02368 548.3192 103.4714)
(-218.67131 604.92236 98.437965)
(-284.29739 663.48547 93.077517)
(-351.39894 723.99025 87.499739)
(-419.85698 785.8904 82.064273)
(-489.50171 849.05016 76.91072)
(-560.12655 912.96852 72.407853)
(-632.11762 978.15324 68.490547)
(-702.65722 1039.8232 65.114888)
(-774.77799 1102.7731 62.562868)
(-846.65086 1163.8939 60.687123)
(-918.02236 1223.1081 59.257889)
(-988.65221 1279.8495 58.288171)
(-1057.9472 1334.1554 57.371119)
(-1127.2294 1387.3784 56.591584)
(0 0 0)
(0 0 0)
(0 0 0)
(0 0 0)
(0 0 0)
(0 0 0)
(0 0 0)
(0 0 0)
(0 0 0)
(0 0 0)
(0 0 0)
(0 0 0)
(0 0 0)
(0 0 0)
(0 0 0)
(0 0 0)
(0 0 0)
(0 0 0)
(0 0 0)
(0 0 0)
(0 0 0)
(0 0 0)
(0 0 0)
(0 0 0)
(0 0 0)
(0 0 0)
(0 0 0)
(0 0 0)
(0 0 0)
(0 0 0)
(0 0 0)
(0 0 0)
(0 0 0)
(0 0 0)
(0 0 0)
(0 0 0)
(0 0 0)
(0 0 0)
(0 0 0)
(0 0 0)
(0 0 0)
(0 0 0)
(0 0 0)
(0 0 0)
(0 0 0)
(0 0 0)
(0 0 0)
(0 0 0)
(0 0 0)
(13.558195 -8.2328888 -12.761396)
(15.344287 -9.6213434 -7.8282493)
(16.831859 -10.170888 -4.0079244)
(17.39835 -10.454997 -1.0667481)
(16.431548 -9.5820383 2.4444872)
(14.816757 -9.3790962 5.6897213)
(11.971718 -7.0866511 10.631054)
(27.51557 -29.678842 -19.240985)
(30.860994 -31.900634 -10.932492)
(31.37976 -30.467772 -5.6363658)
(30.656959 -29.285821 -1.9240864)
(30.154073 -29.837444 2.0612292)
(27.212247 -28.609754 6.4675897)
(24.381588 -27.336735 13.542056)
(45.166781 -42.387607 -16.475162)
(47.234614 -42.018711 -11.691926)
(48.948831 -42.19518 -7.0245205)
(48.282167 -41.593312 -3.0245283)
(46.946724 -40.401723 1.6081358)
(43.638598 -39.84802 4.9117411)
(39.596359 -38.592833 10.690894)
(65.801584 -51.537497 -14.258478)
(67.556061 -51.875752 -10.983614)
(67.968008 -51.340952 -7.5768236)
(67.366562 -51.005866 -4.1064922)
(65.541265 -50.396056 -1.0922587)
(63.177238 -49.255579 2.2174755)
(59.043018 -46.713767 5.7696605)
(87.479587 -57.920534 -10.740684)
(87.910245 -58.851414 -9.4327219)
(87.945649 -59.206948 -7.1138259)
(87.029697 -58.414871 -5.2911877)
(85.531526 -57.954167 -3.0715845)
(82.770029 -56.923105 -1.2929645)
(79.826752 -55.186187 1.157743)
(111.37407 -63.490653 -7.155748)
(110.53983 -63.593439 -7.0722788)
(109.6599 -63.585964 -6.43454)
(108.227 -63.445037 -6.1096149)
(106.48978 -62.539222 -5.1016693)
(104.61177 -61.282036 -4.8211606)
(102.12894 -59.6071 -4.0965562)
(134.9588 -64.862313 -3.2866944)
(133.01867 -66.094496 -4.4978917)
(131.37865 -67.14315 -5.3920434)
(129.81326 -66.748427 -5.9238464)
(127.88941 -66.721011 -6.6124256)
(126.37419 -66.232722 -7.0955699)
(124.41091 -64.294154 -7.6946344)
(158.79025 -66.897699 0.62724428)
(155.8777 -67.69104 -1.8361187)
(153.56303 -67.637791 -4.0083809)
(151.08819 -68.044603 -6.0390237)
(149.49379 -67.514708 -7.8702047)
(147.79054 -66.913574 -9.6336437)
(146.80993 -66.02585 -11.63236)
(182.57942 -65.848978 4.7822501)
(178.42876 -66.595435 1.4708307)
(175.05993 -68.037306 -1.893658)
(172.87194 -68.144179 -5.2475256)
(170.70099 -68.979462 -8.1956707)
(169.74463 -68.89316 -10.921185)
(168.8084 -68.360821 -13.504851)
(205.09329 -63.711289 9.4253194)
(200.23663 -64.817257 4.6762961)
(196.60134 -65.104523 0.49151416)
(193.62105 -66.127054 -3.4974143)
(191.40107 -66.153471 -7.5174942)
(190.42822 -66.634441 -11.618248)
(189.94875 -66.805778 -15.339958)
(227.47565 -60.144071 14.331405)
(221.60231 -60.592548 9.2226891)
(216.8867 -61.944703 3.9214497)
(213.40547 -62.284514 -1.515924)
(210.99877 -63.55084 -6.511365)
(209.88005 -64.946128 -11.409083)
(210.07735 -65.860837 -15.973521)
(247.80791 -53.831297 19.662513)
(241.24264 -54.959858 13.709502)
(235.91025 -55.927934 7.0764756)
(232.50537 -57.219287 1.3398045)
(229.7802 -58.523063 -4.4706954)
(228.6348 -59.610732 -10.339463)
(228.998 -61.916569 -16.80493)
(267.12798 -47.088709 25.979532)
(259.58428 -47.278557 18.904481)
(253.92901 -48.645089 11.992422)
(249.59647 -49.632898 5.1557944)
(246.71274 -51.111112 -1.7958506)
(245.92702 -53.900568 -8.4070273)
(245.96965 -55.892369 -14.814494)
(284.38029 -36.978394 32.207615)
(276.41643 -37.667222 24.650722)
(269.83144 -38.974503 16.947676)
(265.3895 -40.203283 9.4664815)
(262.33567 -42.611755 2.0164709)
(261.09478 -44.681245 -5.123093)
(261.24171 -48.218909 -12.713586)
(299.7924 -25.883708 39.500977)
(290.92192 -26.137908 31.316246)
(283.7716 -27.090902 23.172431)
(278.91976 -28.685966 15.07778)
(275.26103 -30.488411 6.8708597)
(274.02045 -33.772831 -0.884465)
(273.83725 -37.650771 -9.1240653)
(312.50917 -11.685154 47.076759)
(302.97498 -11.681246 38.388752)
(295.47058 -13.08914 29.938612)
(289.95754 -14.321313 21.08638)
(286.27467 -16.910592 12.677457)
(284.58604 -20.288724 4.2255989)
(284.26358 -24.807601 -4.5512577)
(322.29624 4.6014684 55.183859)
(312.29852 4.5431671 46.312325)
(304.11424 3.8559898 37.332711)
(298.29287 2.4418195 28.397543)
(294.16242 -0.015387975 19.267044)
(292.21352 -3.5881595 10.562538)
(291.531 -8.6489292 1.1837445)
(328.90843 23.469782 63.676206)
(318.3336 23.987302 54.407155)
(309.83185 23.300086 45.509887)
(303.48934 21.928003 35.955014)
(299.16019 19.550493 26.713225)
(296.77626 15.664329 17.638164)
(295.77056 10.444397 7.8188063)
(331.69171 45.177211 72.210939)
(320.87298 45.959204 63.127176)
(311.84346 45.646569 53.906001)
(305.22877 44.653973 44.325303)
(300.58851 42.301513 34.834932)
(297.81761 38.545992 25.564557)
(296.49798 33.049518 15.381984)
(330.51883 69.669184 80.95678)
(319.41939 70.821479 71.764638)
(310.13746 71.090195 62.650431)
(303.2449 70.143878 52.93408)
(298.30349 68.178188 43.3601)
(295.19915 64.378591 33.969282)
(293.477 59.085372 23.582683)
(324.93267 97.044578 89.375462)
(313.77349 98.858736 80.390623)
(304.25774 99.498344 71.359184)
(297.12769 99.05773 61.677117)
(292.00562 97.376734 52.131104)
(288.51202 93.921614 42.756231)
(286.50486 88.777059 32.223502)
(314.69646 127.58864 97.403719)
(303.5908 129.78898 88.681334)
(293.94848 131.15746 79.825821)
(286.73929 130.99604 70.346739)
(281.36778 129.88567 60.874269)
(277.67454 126.694 51.539606)
(275.38107 122.06559 41.039657)
(299.60119 161.05574 104.70492)
(288.65285 163.91331 96.381409)
(279.01002 165.80906 87.819917)
(271.80919 166.3002 78.564718)
(266.45397 165.80486 69.209131)
(262.50595 163.15995 60.186583)
(259.96333 159.06339 49.71861)
(279.44086 197.54103 111.18789)
(268.86176 201.19165 103.32896)
(259.4251 203.7875 95.049453)
(252.38237 204.90402 86.184244)
(246.66102 204.88671 77.16505)
(242.66607 202.72116 68.219084)
(239.97554 199.38799 57.931365)
(254.34215 237.23264 116.83988)
(244.04297 241.54366 109.15827)
(234.90988 244.53194 101.50338)
(227.74574 246.62865 92.824036)
(222.56692 247.07863 84.017787)
(218.56443 246.00082 75.460584)
(216.0827 243.58899 65.601006)
(224.19554 279.77499 121.06417)
(214.30245 284.72551 113.90021)
(205.63863 288.71215 106.7938)
(199.00681 291.20487 97.761286)
(193.82799 292.27978 90.497194)
(189.67733 292.23972 81.748017)
(186.89352 290.49435 72.564656)
(189.16924 325.21183 124.08119)
(179.69112 331.0244 117.74883)
(171.75154 335.55968 110.33813)
(164.92592 339.32237 102.71217)
(160.29962 341.23711 94.841473)
(156.15878 341.82221 86.172108)
(154.09042 340.71168 77.607941)
(149.06793 373.93994 125.7395)
(140.7177 380.41487 119.73207)
(132.70884 385.93147 112.5834)
(126.98587 389.84935 105.62487)
(121.97754 392.53015 97.527938)
(118.62337 393.84206 89.96098)
(116.68878 394.0387 81.288393)
(104.65793 425.22692 126.11638)
(96.634474 432.48333 120.12608)
(89.754448 438.43756 113.83692)
(83.980815 443.21877 106.64424)
(79.957248 446.71212 99.447017)
(76.663018 448.85781 91.948798)
(75.119458 450.09981 83.597416)
(55.779953 479.25936 124.88042)
(48.680112 487.04076 119.4307)
(42.177565 493.86191 113.18048)
(37.166179 499.2095 106.50811)
(33.373991 503.44039 99.577605)
(30.456165 506.349 92.366829)
(29.382921 508.47258 84.415066)
(3.1035594 535.82028 122.61221)
(-3.4377894 544.29636 117.22079)
(-9.1865879 551.55361 111.34785)
(-13.800588 557.51422 104.85071)
(-17.120551 562.34235 98.331817)
(-19.601409 565.87961 91.411133)
(-20.28823 568.9328 83.888064)
(-53.220026 594.86207 119.06095)
(-59.135613 603.64383 113.88608)
(-64.337564 611.49423 108.19261)
(-68.466778 617.89903 101.98144)
(-71.360592 623.28962 95.75988)
(-73.455475 627.46881 89.123972)
(-73.767954 631.23916 81.980214)
(-112.79615 655.92254 114.65648)
(-118.18869 665.15466 109.52799)
(-122.85278 673.32513 104.02221)
(-126.52696 680.13701 98.025249)
(-129.0542 685.98723 92.089214)
(-130.7997 690.6379 85.768985)
(-130.76554 695.02952 78.963093)
(-175.23065 718.97492 109.47499)
(-180.21088 728.35257 104.37725)
(-184.39763 736.84619 99.089542)
(-187.74434 743.93637 93.260644)
(-189.9826 750.12078 87.646408)
(-191.39798 755.1704 81.55782)
(-191.11483 760.04938 75.116213)
(-240.21986 783.48119 103.89986)
(-244.84645 793.0511 98.835478)
(-248.70699 801.66407 93.675473)
(-251.76424 808.96142 88.067418)
(-253.77178 815.38539 82.690636)
(-254.96667 820.8009 76.784258)
(-254.59744 825.84474 70.836741)
(-307.35539 849.29724 98.010762)
(-311.80961 858.73888 92.932353)
(-315.40189 867.41719 88.011441)
(-318.3202 874.74556 82.629421)
(-320.15417 881.39395 77.484117)
(-321.21134 886.81073 72.025867)
(-320.89215 892.04037 66.654531)
(-376.26555 915.42307 92.322254)
(-380.63451 924.88074 87.616592)
(-384.19543 933.54473 82.733682)
(-386.83977 940.93484 77.754435)
(-388.88123 947.60151 72.755331)
(-390.03998 953.1912 67.826474)
(-389.7802 958.61374 62.547869)
(-446.94418 982.23596 87.051642)
(-451.10463 991.15208 82.301188)
(-454.63069 999.64743 77.767053)
(-457.50916 1006.9954 72.969285)
(-459.39128 1013.6693 68.538383)
(-460.75898 1019.0705 63.579336)
(-460.8415 1024.4787 58.682093)
(-518.4402 1047.9829 82.282261)
(-522.70751 1056.8661 77.685611)
(-526.33736 1065.2058 73.467251)
(-529.21157 1072.3095 69.091953)
(-531.51373 1079.0276 64.854335)
(-532.97724 1084.5765 60.630662)
(-533.5217 1089.8014 56.447942)
(-590.6443 1112.9236 78.192505)
(-595.18382 1121.3767 73.950849)
(-598.96046 1129.3376 70.269438)
(-602.1446 1136.4356 66.187799)
(-604.64465 1143.0331 62.628851)
(-606.60148 1148.5499 58.816834)
(-607.86651 1153.6594 55.02071)
(-663.29589 1175.8638 74.900342)
(-667.98627 1184.0162 71.247486)
(-672.00205 1191.7331 67.815877)
(-675.40607 1198.6187 64.426881)
(-678.36963 1205.1366 61.204655)
(-680.84772 1210.6388 57.948318)
(-682.70782 1215.6396 54.852165)
(-735.80862 1236.5141 72.364563)
(-740.70625 1244.1949 69.22107)
(-745.01573 1251.5839 66.365981)
(-748.78798 1258.3343 63.475622)
(-752.20065 1264.7649 60.836921)
(-755.17056 1270.2498 58.251342)
(-757.86762 1275.2074 55.769467)
(-807.76117 1293.9722 70.548707)
(-812.77987 1301.3201 67.998485)
(-817.3752 1308.4899 65.649808)
(-821.49519 1315.0786 63.451344)
(-825.36906 1321.4105 61.312056)
(-828.96941 1326.9114 59.322537)
(-832.41728 1331.8766 57.492657)
(-878.60123 1348.033 69.190605)
(-883.83489 1355.0097 67.196235)
(-888.69721 1361.8889 65.554815)
(-893.17857 1368.3402 63.835103)
(-897.49773 1374.6019 62.242866)
(-901.65585 1380.1142 60.878179)
(-905.82355 1385.0993 59.720119)
(-947.92285 1398.1713 68.168486)
(-953.19497 1404.9042 66.843138)
(-958.26108 1411.5725 65.688638)
(-963.04163 1417.9583 64.517019)
(-967.76389 1424.1334 63.459143)
(-972.45633 1429.6445 62.581744)
(-977.26282 1434.6484 61.950282)
(-1015.1071 1444.4494 67.181355)
(-1020.4706 1450.9083 66.394516)
(-1025.7022 1457.4545 65.803724)
(-1030.7471 1463.8101 65.09787)
(-1035.7928 1469.9211 64.421271)
(-1040.8795 1475.4005 63.95407)
(-1046.2057 1480.3792 63.80086)
(-1079.8835 1486.659 66.151656)
(-1085.2248 1493.0771 65.93375)
(-1090.5403 1499.5852 65.752699)
(-1095.7751 1505.9844 65.352206)
(-1101.0447 1512.0486 65.033079)