/*--------------------------------*- C++ -*----------------------------------*\
  =========                 |
  \\      /  F ield         | OpenFOAM: The Open Source CFD Toolbox
   \\    /   O peration     | Website:  https://openfoam.org
    \\  /    A nd           | Version:  6
     \\/     M anipulation  |
\*---------------------------------------------------------------------------*/
FoamFile
{
    version     2.0;
    format      ascii;
    class       pointScalarField;
    location    "0.47";
    object      E;
}
// * * * * * * * * * * * * * * * * * * * * * * * * * * * * * * * * * * * * * //

dimensions      [1 -1 -2 0 0 0 0];

internalField   nonuniform List<scalar> 
625
(
44056.328
45672.154
4162.9388
-1324.7029
39770.897
42456.32
-1666.91
2725.0224
8747.4852
5091.1597
25929.427
-1723.2517
-4720.8679
5075.324
51095.394
42003.723
37742.735
33037.56
28265.035
24751.462
21110.146
17401.537
13956.218
9363.4992
5303.5341
197.41464
-4290.7291
-9089.4548
-13080.747
-16708.136
-19162.021
-20891.734
-20098.782
-18940.744
-15522.49
-11632.844
-3793.887
51724.737
33768.293
31935.636
23614.696
16468.393
10941.121
4997.0798
2227.3912
-449.98198
-1744.344
-965.62405
183.95152
3152.4172
6478.612
10602.204
14515.397
18402.896
21128.068
23285.195
22970.252
21387.19
17553.925
9279.5348
8809.9675
3952.2355
24223.736
73666.794
71119.096
39162.038
37279.108
27819.598
12380.924
13163.909
6091.0973
4318.1274
3094.368
2444.8258
3681.0048
4487.14
6468.0419
8603.1044
10646.66
13152.088
15145.618
16505.29
16694.737
15292.222
11995.33
8070.3949
3484.6064
-4318.2006
-1917.9676
-2166.2635
-6049.6254
-9040.6643
-11707.754
-13359.523
-13880.259
-13994.919
-12939.429
-11335.742
-8745.7541
-5745.9788
-1780.0734
2850.6065
7859.789
10101.173
14708.732
21094.677
23558.497
30271.614
33744.46
39563.789
48246.106
56720.749
31664.056
33839.32
34105.988
35884.863
32921.55
33396.289
-1876.5928
-1333.6488
-1858.4829
3520.9168
3898.7327
3510.6206
19943.405
15816.215
16298.182
12823.788
10238.941
7119.6221
4152.4897
1252.8384
-270.32978
-1569.2344
-1464.3364
-783.96994
1044.8353
3508.844
6539.6303
9546.4343
12540.414
14746.827
16259.289
15954.672
15562.162
12008.793
6929.1815
7579.4801
5475.9605
5499.8844
3345.1928
3454.3065
3533.4734
2668.5483
3633.061
3141.431
3320.1964
3721.7815
3975.6233
4738.5261
5537.9084
6426.5058
7218.1912
7786.9378
7471.4369
7183.2945
4777.23
3556.265
292.52358
-978.22578
19722.791
19563.431
18912.179
16702.232
15194.742
13808.884
11858.332
10225.028
8036.1808
6340.8853
3634.8344
1037.6777
-2055.2029
-5230.054
-8628.3128
-11885.427
-15213.863
-17606.71
-19969.197
-19748.536
-18232.25
-14302.575
-5548.2501
5359.1822
6283.3777
6254.6714
3321.0104
2876.4968
5019.1004
13492.153
14459.505
14917.414
63196.39
62777.734
65274.258
64398.203
60230.36
57443.469
38509.834
34400.541
36426.506
31574.433
33808.37
31752.834
23321.324
20184.209
22006.386
15569.705
15682.233
14241.176
11117.352
9137.4795
11708.238
6824.2809
4684.3885
5204.8034
4022.3741
3165.1288
3196.5531
3511.1501
1093.9795
1937.3976
2874.6104
1365.2892
1750.8166
4395.9823
2171.6976
3154.9463
6144.6246
3919.1817
5109.5288
9182.6328
6391.6641
7798.252
12231.003
9232.7046
11069.387
15643.52
12573.584
14310.875
18734.281
15705.594
17431.662
21200.354
18540.526
20149.219
22611.12
20484.187
21706.762
22392.077
20725.179
21700.155
20086.643
19114.536
19828.779
15836.029
15552.789
16070.04
9388.2372
8821.3776
9612.1984
-2224.6176
-1771.5228
-1873.7059
-4307.5582
-4178.9585
-5155.0367
5003.3183
5204.0034
4721.0817
51152.095
45386.933
45926.167
48135.053
44228.392
45756.158
41644.549
40348.887
40114.731
35188.768
31829.772
33355.939
30682.508
30283.403
30520.249
26430.27
23351.172
24603.974
21918.885
21505.763
21879.734
18876.045
16926.916
17613.775
14085.725
13963.473
13860.712
9153.1894
9141.9943
9311.8673
4930.2695
5090.1187
5089.8051
236.76277
163.89408
781.6779
-4571.4555
-3983.8238
-3417.4967
-8522.1838
-8232.8552
-7247.6793
-12215.866
-11869.905
-10464.699
-14978.397
-14817.347
-13106.722
-17001.179
-16927.087
-14887.629
-17825.393
-17930.072
-16022.595
-17634.86
-18172.947
-15796.436
-16022.395
-17185.77
-14920.84
-12490.26
-13784.635
-12224.724
-9655.5964
-9828.0888
-9314.6092
-2869.1967
-3005.5449
-2867.8951
32695.96
28470.735
24354.685
19258.475
18335.092
10763.961
9452.9756
5935.2224
3781.374
2182.1978
3012.5783
2999.3995
4167.6153
5731.4161
7673.441
9650.9341
11480.106
12903.436
13456.09
13314.979
11965.98
9176.4792
8068.9134
4212.8819
14945.86
5857.8472
11766.348
11389.001
11063.827
12728.02
11270.145
11043.953
9021.8523
7582.1799
5926.4216
4167.2938
2814.0491
1115.7509
-747.16745
-2717.0693
-4809.7694
-6683.163
-8150.3527
-8826.9443
-9140.5098
-4571.2988
28260.448
13944.677
18232.161
14819.298
12191.773
9537.4488
7835.1003
6299.3882
3659.3779
2029.5862
-360.19643
-3104.606
-5988.0839
-8977.3822
-12034.681
-14879.025
-17369.324
-19322.881
-20114.397
-19363.763
-16798.269
-11741.999
-4694.0471
26774.184
24307.483
24244.185
23818.632
23561.102
22550.452
20924.122
21882.678
21247.636
16473.71
15708.1
14783.883
13032.244
13947.273
14120.929
9326.8063
9288.9883
8603.7314
6138.0724
6452.9026
5844.5842
3263.0948
3560.5713
3389.9539
1725.2604
1593.3604
1310.6993
761.12973
630.01715
469.4937
1021.3294
511.34081
373.47988
1755.9382
1355.5281
1480.4267
3623.3831
3020.0177
3109.3379
5947.2393
5295.9372
5454.1464
8734.1382
8083.403
8250.8578
11571.111
11062.912
11112.073
14230.133
13826.281
13785.187
16226.652
16040.192
15705.924
17163.596
16880.246
16992.658
15897.622
17841.702
16508.13
14925.054
15861.907
14874.929
11766.78
11570.69
11517.816
7475.0269
7588.578
7769.581
6289.6422
5684.9838
4471.2552
10097.491
13796.113
13424.718
5795.5439
4010.1692
3618.2648
5980.9299
7822.5957
7847.9157
6704.4919
6189.7811
6585.511
6855.767
6322.1723
6522.705
6613.94
6803.2029
7412.1878
7256.2458
6383.6867
6724.3011
6344.0099
6150.3169
6780.1201
6311.4702
5669.2988
6073.0033
5668.931
5046.7877
5219.154
5189.2868
4745.7577
4727.289
4959.0623
4545.5386
3964.7572
4516.5868
4205.4919
3497.0706
4184.1761
3954.583
2972.4962
3587.4988
3264.7193
2267.8306
2774.5179
2411.4479
1314.863
1599.76
906.58572
119.29479
409.36798
-373.35402
-1152.4285
-1539.5607
-1726.0108
-2793.7197
-3683.1656
-1357.6451
-3195.4617
-4220.9066
-5055.4241
-5275.6768
-3387.5549
-3866.9189
-4037.7534
21860.163
23435.188
25731.138
17972.395
18826.055
22329.818
17442.589
21365.49
21576.616
15645.713
15506.928
16543.758
13118.631
13770.306
14620.251
10850.689
11233.471
11624.326
9867.3467
8981.5308
9167.0941
7267.4407
7311.3531
8087.7952
5975.4132
5728.1979
6080.2183
3849.337
3751.7544
3929.8013
1527.056
1443.9664
1911.5407
-772.95142
-1062.7775
-549.03718
-3673.0273
-3985.5072
-3180.2596
-6584.312
-6983.9896
-6089.7461
-9615.5533
-10100.432
-9019.4032
-12660.551
-13147.553
-12048.258
-15387.252
-16012.427
-14784.952
-17751.16
-18259.362
-17026.788
-19077.962
-19495.331
-18433.198
-18696.392
-19436.518
-18391.384
-17248.147
-17215.885
-16638.193
-12752.057
-12603.76
-12145.428
-5087.3741
-5274.7674
-4885.2944
)
;

boundaryField
{
    free
    {
        type            zeroGradient;
    }
    fixed
    {
        type            zeroGradient;
    }
    freeTop
    {
        type            zeroGradient;
    }
}


// ************************************************************************* //
