/*--------------------------------*- C++ -*----------------------------------*\
  =========                 |
  \\      /  F ield         | OpenFOAM: The Open Source CFD Toolbox
   \\    /   O peration     | Website:  https://openfoam.org
    \\  /    A nd           | Version:  6
     \\/     M anipulation  |
\*---------------------------------------------------------------------------*/
FoamFile
{
    version     2.0;
    format      ascii;
    class       pointVectorField;
    location    "1.09";
    object      u;
}
// * * * * * * * * * * * * * * * * * * * * * * * * * * * * * * * * * * * * * //

dimensions      [0 1 0 0 0 0 0];

internalField   nonuniform List<vector> 
625
(
(0 2.0933551e-19 0)
(0 1.8838517e-19 0)
(-0.96926457 -0.20973246 0.070560775)
(-0.99918069 0.033040603 0.069363791)
(0 2.7143692e-19 0)
(0 1.4731778e-18 0)
(-0.99431709 0.0181174 0.069453878)
(-0.96442098 -0.22447171 0.070351163)
(0 -3.182101e-20 0)
(1.4630763e-19 -3.3984672e-19 0)
(0 6.9525521e-19 0)
(-0.97675338 -0.14885522 0.070347893)
(-0.98403693 -0.088281209 0.070039866)
(-0.99161659 -0.027763882 0.069668456)
(-0.0004472513 -0.0069601197 -0.0070432668)
(-0.0054253052 -0.014331165 -0.0070665068)
(-0.015399946 -0.022255626 -0.0063260339)
(-0.029977582 -0.0305529 -0.0047363566)
(-0.048415421 -0.038379894 -0.0030429665)
(-0.071255274 -0.047108362 -0.00059624509)
(-0.097870673 -0.055396737 0.0017427834)
(-0.12835078 -0.064312537 0.0046732843)
(-0.16268735 -0.073246075 0.0077070662)
(-0.20038338 -0.082481826 0.011283129)
(-0.24159484 -0.091956903 0.014871822)
(-0.28592594 -0.10162008 0.018776932)
(-0.33330757 -0.11141346 0.022847136)
(-0.38339794 -0.12130666 0.027076597)
(-0.43597158 -0.13118675 0.031413679)
(-0.49073524 -0.14102272 0.035849503)
(-0.54737176 -0.15065336 0.040315071)
(-0.60556812 -0.16012201 0.044829772)
(-0.66497497 -0.16922817 0.049318742)
(-0.72525608 -0.17799635 0.053775536)
(-0.78617932 -0.18643347 0.058166317)
(-0.84720361 -0.19453333 0.062425477)
(-0.9084219 -0.20217254 0.066546509)
(8.7150438e-05 0.0074814836 0.0097724394)
(-0.0076942672 0.016605398 0.008247724)
(-0.018737252 0.026301592 0.0096469981)
(-0.033816889 0.035284148 0.010400942)
(-0.053697415 0.043730368 0.011526735)
(-0.078077728 0.051875408 0.013111794)
(-0.10604618 0.059037951 0.015110747)
(-0.13844081 0.06538839 0.017160612)
(-0.17458374 0.071041732 0.019763312)
(-0.21433664 0.075516698 0.022395989)
(-0.25750788 0.079087739 0.02534585)
(-0.30400272 0.081555859 0.028360045)
(-0.35330821 0.082887348 0.031575399)
(-0.40535839 0.083060966 0.034805801)
(-0.45969941 0.082118388 0.038138976)
(-0.51608081 0.08001463 0.041468966)
(-0.57410586 0.076862554 0.044844941)
(-0.63345413 0.072670167 0.04822111)
(-0.69375784 0.067597538 0.051611665)
(-0.75470359 0.061682106 0.055042165)
(-0.81596978 0.055144859 0.058496975)
(-0.87726566 0.048082117 0.06203224)
(-0.93842646 0.04061627 0.065653296)
(0 1.900688e-19 0)
(-2.5973799e-18 -5.588687e-19 0)
(0 1.4164369e-18 0)
(-0.00095488311 0.003910919 -0.0066608393)
(-0.0066547532 0.017046544 -0.0081486074)
(-0.016887495 0.02162373 -0.0063197204)
(-0.03184468 0.030558617 -0.0050589196)
(-0.051717268 0.03805176 -0.003756188)
(-0.075244447 0.044343174 -0.0013024445)
(-0.10307279 0.05042033 0.00085638999)
(-0.13524064 0.056011434 0.0036650493)
(-0.1711244 0.060499101 0.006682518)
(-0.21055834 0.064136597 0.010065583)
(-0.25369195 0.067008567 0.013652838)
(-0.299814 0.068682305 0.017556112)
(-0.34912661 0.069594508 0.021577378)
(-0.40095124 0.069225716 0.025841077)
(-0.45525965 0.067991063 0.030174756)
(-0.51152289 0.065591741 0.034626571)
(-0.56950028 0.062256114 0.039114888)
(-0.62878745 0.05793418 0.043624064)
(-0.68904562 0.052760278 0.048120765)
(-0.74993859 0.046809855 0.052563784)
(-0.81115578 0.040236081 0.056940986)
(-0.87241501 0.033131203 0.061208622)
(-0.93351492 0.025712156 0.06535053)
(-0.98673096 -0.042682912 0.069691152)
(-0.97909755 -0.10310727 0.069851543)
(-0.9719296 -0.16362559 0.070037281)
(-0.9036172 -0.21695131 0.066569023)
(-0.84246316 -0.2093022 0.062822602)
(-0.78139878 -0.20124395 0.059209433)
(-0.72060235 -0.19283354 0.055669107)
(-0.66037792 -0.18402232 0.052204725)
(-0.6010579 -0.17485014 0.048774432)
(-0.54299986 -0.16531805 0.045382208)
(-0.48652032 -0.15553009 0.042028312)
(-0.43195158 -0.1454892 0.038701738)
(-0.37963126 -0.13532679 0.035416719)
(-0.32980833 -0.12502222 0.032187109)
(-0.28276822 -0.11478519 0.02907196)
(-0.23878098 -0.10447226 0.025988186)
(-0.19776055 -0.094344111 0.023183704)
(-0.16095568 -0.084016577 0.020224476)
(-0.12673277 -0.074245289 0.01791389)
(-0.096844441 -0.064384357 0.015564273)
(-0.070280728 -0.054661519 0.013638091)
(-0.048573153 -0.044933371 0.011807064)
(-0.030038718 -0.03535346 0.010294325)
(-0.015653988 -0.026420914 0.0095670961)
(-0.0066169673 -0.016110641 0.0082086395)
(-0.0035551663 -0.007975263 0.0054712353)
(0 -3.3938343e-19 0)
(0 -3.5390588e-19 -7.2996624e-19)
(0 -1.0430443e-18 0)
(0 6.1324838e-19 0)
(0 -6.7854756e-20 2.1635718e-19)
(0 4.6708549e-19 0)
(-0.99797343 0.029445762 0.069426593)
(-0.99681901 0.025732546 0.069398527)
(-0.99554592 0.022021298 0.069427009)
(-0.96806888 -0.21354456 0.070477896)
(-0.96689181 -0.21722714 0.070447622)
(-0.96563491 -0.22087008 0.070400788)
(0.0024813438 -0.0037115724 -0.0043281372)
(-0.0028548877 -0.0068063733 -0.0029841198)
(-0.012889051 -0.010201656 -0.0023537137)
(-0.027729094 -0.013857565 -0.00087001537)
(-0.046504573 -0.017682558 0.00079916005)
(-0.069892504 -0.02204477 0.0028465416)
(-0.097038595 -0.026372736 0.0052218638)
(-0.12806468 -0.031417798 0.0079007506)
(-0.16290052 -0.036573902 0.010878585)
(-0.20140532 -0.042367485 0.014136473)
(-0.24329019 -0.048491612 0.017584739)
(-0.28836627 -0.055049527 0.021270261)
(-0.33645186 -0.061998675 0.025118029)
(-0.38725719 -0.069339574 0.029103427)
(-0.44051885 -0.076968498 0.033198849)
(-0.49592938 -0.084853592 0.037353948)
(-0.55315129 -0.092914585 0.041563329)
(-0.61185654 -0.1010903 0.045786566)
(-0.67170017 -0.10927532 0.049979204)
(-0.73233192 -0.11744451 0.054168567)
(-0.79345213 -0.12551448 0.058310749)
(-0.85466606 -0.13344624 0.062341553)
(-0.91596068 -0.1412289 0.066358831)
(0.0033782107 0.00019893427 0.0006546892)
(-0.0031662963 0.0013952817 0.0014189674)
(-0.013320211 0.0020495043 0.0021766566)
(-0.028195797 0.002550536 0.0031352997)
(-0.047640423 0.0030019846 0.0047223433)
(-0.071091673 0.0027402108 0.0065828455)
(-0.098631697 0.0022346221 0.0087556653)
(-0.13020802 0.00099618089 0.011272854)
(-0.16556211 -0.00057131943 0.014014712)
(-0.20447863 -0.0029707381 0.017064461)
(-0.24687026 -0.0058467994 0.020325263)
(-0.29244331 -0.0094885041 0.023760604)
(-0.34102506 -0.013711872 0.027352891)
(-0.39231521 -0.018597819 0.031055752)
(-0.44602254 -0.02404566 0.034855457)
(-0.50183727 -0.030062169 0.038710629)
(-0.55941899 -0.036525215 0.042613935)
(-0.61843422 -0.04340732 0.046526447)
(-0.67852113 -0.050577206 0.050452618)
(-0.73934211 -0.057997734 0.054404877)
(-0.80059692 -0.065535638 0.058283446)
(-0.86195749 -0.073154719 0.062222445)
(-0.92334173 -0.080790842 0.066115602)
(0.0031238691 0.0040659631 0.0039783458)
(-0.0042262541 0.008550363 0.0046712938)
(-0.014219982 0.013462907 0.0054199853)
(-0.029674572 0.018237207 0.0065077367)
(-0.049199538 0.022849408 0.0079870609)
(-0.072989005 0.026570957 0.009673626)
(-0.1010459 0.029988752 0.011791607)
(-0.13295497 0.0326111 0.014087027)
(-0.168714 0.034545341 0.016757827)
(-0.2080903 0.035624455 0.01963887)
(-0.25100269 0.035939612 0.022701274)
(-0.29702654 0.035293979 0.025966349)
(-0.34611359 0.033847299 0.029346678)
(-0.39781802 0.031460637 0.032852576)
(-0.4519579 0.02823152 0.036422491)
(-0.5081412 0.024176919 0.040047794)
(-0.56606162 0.0193603 0.04370121)
(-0.62535433 0.013863828 0.04737349)
(-0.68566525 0.0077653548 0.051069391)
(-0.74669447 0.0012165022 0.05473684)
(-0.80804201 -0.0057610056 0.058484681)
(-0.86952517 -0.012927041 0.062179955)
(-0.93080822 -0.020301863 0.065957532)
(0 -2.1504292e-19 0)
(0 3.5529745e-19 7.4525126e-19)
(0 7.7409685e-19 0)
(-3.8787535e-19 7.7447486e-21 0)
(1.6200667e-19 -2.4004437e-19 -1.1955873e-20)
(-1.0209561e-18 -9.1818335e-19 0)
(0 3.4927174e-19 0)
(0 9.3867652e-19 -2.4964664e-20)
(0 1.0336958e-18 0)
(-0.0032768637 0.003248638 0.0039041571)
(-0.0039309789 0.0039475522 0.00029003139)
(-0.003097518 0.002542885 -0.0025614409)
(-0.011805509 0.017723871 0.0039041507)
(-0.011162112 0.016964168 0.00022222707)
(-0.010235115 0.015435255 -0.0042553665)
(-0.020934835 0.024655539 0.0051041439)
(-0.021258112 0.023037126 0.0012817081)
(-0.020617949 0.023161206 -0.0031094917)
(-0.036575209 0.034013708 0.0058526502)
(-0.036937827 0.033150363 0.0020483315)
(-0.035352281 0.031180156 -0.0018162169)
(-0.056411031 0.042360598 0.0072677895)
(-0.056196738 0.04038328 0.0037415504)
(-0.055202465 0.03916122 -0.00033428623)
(-0.080046507 0.049829417 0.0090556641)
(-0.080199612 0.047807762 0.0051506837)
(-0.07866953 0.045824573 0.0017496129)
(-0.10820132 0.056680796 0.010982636)
(-0.10823012 0.054647252 0.0077855671)
(-0.10685005 0.052364541 0.0037808999)
(-0.14047577 0.062975525 0.013407643)
(-0.14001736 0.060106127 0.0099702877)
(-0.13863431 0.057904173 0.0065844161)
(-0.17630183 0.068104114 0.016023043)
(-0.17599917 0.065478177 0.012909204)
(-0.17455549 0.06284443 0.0094670993)
(-0.21583984 0.072494403 0.018975631)
(-0.21545988 0.069469403 0.015889826)
(-0.21393868 0.066671121 0.012724792)
(-0.25894802 0.075891644 0.022062046)
(-0.25844441 0.072715961 0.019191993)
(-0.25689246 0.069729146 0.016181695)
(-0.30507781 0.07812925 0.025346015)
(-0.30449595 0.074756085 0.022688461)
(-0.30297659 0.071664757 0.019885368)
(-0.35427038 0.079391902 0.028784307)
(-0.35363971 0.075949105 0.026322089)
(-0.35208927 0.072680645 0.023753884)
(-0.40603371 0.079471799 0.032308752)
(-0.40530641 0.07585701 0.030098242)
(-0.40379824 0.072545225 0.02777896)
(-0.46017309 0.078480716 0.035922147)
(-0.45939869 0.074838689 0.033950847)
(-0.45788826 0.071397081 0.031911104)
(-0.51629818 0.076366132 0.039565461)
(-0.51544056 0.072621059 0.037871334)
(-0.51398269 0.069155388 0.036109729)
(-0.57408755 0.073198077 0.043252967)
(-0.57317788 0.069447718 0.041825917)
(-0.57174109 0.065904278 0.040360786)
(-0.63319048 0.06903455 0.046935709)
(-0.6322161 0.065239212 0.045791223)
(-0.6308275 0.061674982 0.044616729)
(-0.69326775 0.063962193 0.050642546)
(-0.69223465 0.06017487 0.04976442)
(-0.69088004 0.056563548 0.048871178)
(-0.75398022 0.058077887 0.054338436)
(-0.75289565 0.054280588 0.053711735)
(-0.75158372 0.050654898 0.053089559)
(-0.81504273 0.051540633 0.058054671)
(-0.81392165 0.04777654 0.057669017)
(-0.81263354 0.044110364 0.057259487)
(-0.87620081 0.044469743 0.061800405)
(-0.87502672 0.04069889 0.061578969)
(-0.87377241 0.037011064 0.061364962)
(-0.93723512 0.037005735 0.065594111)
(-0.93603818 0.033294289 0.065518158)
(-0.93480459 0.029562147 0.065408917)
(-0.97558126 -0.15264668 0.070239976)
(-0.97441014 -0.15634945 0.070161061)
(-0.97313743 -0.16000645 0.070106779)
(-0.98282454 -0.092023811 0.06996347)
(-0.9816548 -0.095706091 0.069917614)
(-0.98037071 -0.0994274 0.069898013)
(-0.99044292 -0.031355591 0.069666932)
(-0.98928484 -0.035066211 0.069689931)
(-0.98800063 -0.038807761 0.06967821)
(-0.0044114275 -0.0058107788 -0.0036733232)
(-0.0048397485 -0.0068791885 -0.0012750821)
(-0.0057084281 -0.0067461957 0.0017282751)
(-0.0092868674 -0.01429231 -0.0034523631)
(-0.0099861614 -0.015522051 0.00047931297)
(-0.0096266727 -0.015438402 0.0044765656)
(-0.019163959 -0.023909571 -0.0027100682)
(-0.019793616 -0.024365526 0.00075566503)
(-0.019673828 -0.025575117 0.0057353523)
(-0.033367937 -0.031544679 -0.0011098085)
(-0.033901292 -0.033312489 0.0023283085)
(-0.03345328 -0.034255086 0.0067234006)
(-0.051544807 -0.04077778 0.00033281799)
(-0.052348617 -0.04233125 0.0041642048)
(-0.051642674 -0.043820122 0.0080978505)
(-0.074282396 -0.04934587 0.0027618506)
(-0.074442076 -0.051272541 0.0058184564)
(-0.073967719 -0.053073976 0.0102153)
(-0.10063166 -0.058053381 0.0049955503)
(-0.10099953 -0.060414274 0.008281351)
(-0.10022488 -0.062536293 0.012190666)
(-0.1309791 -0.067231231 0.0078089599)
(-0.1309813 -0.069909918 0.010885551)
(-0.13019371 -0.072169079 0.014768879)
(-0.16465099 -0.076629157 0.010655095)
(-0.16502282 -0.079363095 0.01389463)
(-0.16388633 -0.081972133 0.017130246)
(-0.20245744 -0.086108453 0.014120433)
(-0.20221096 -0.089118654 0.016683418)
(-0.2013293 -0.09187245 0.020378444)
(-0.24333528 -0.095662442 0.017540505)
(-0.24309262 -0.098890296 0.020221232)
(-0.24197215 -0.10185248 0.023352172)
(-0.28741992 -0.10554859 0.021276857)
(-0.28700283 -0.10893473 0.023679212)
(-0.28589337 -0.1120389 0.026640124)
(-0.33449435 -0.11547077 0.025131059)
(-0.33396761 -0.11896977 0.02735443)
(-0.33279062 -0.12220797 0.030005507)
(-0.38429071 -0.1254413 0.029133058)
(-0.38367061 -0.129052 0.031108561)
(-0.38245081 -0.13236487 0.033475105)
(-0.43658548 -0.13539282 0.033244824)
(-0.43584106 -0.13904349 0.034965333)
(-0.43459495 -0.1424548 0.037031306)
(-0.4910424 -0.14522154 0.037402213)
(-0.4902264 -0.14893107 0.038872213)
(-0.48895679 -0.15240252 0.040615939)
(-0.54740922 -0.15487677 0.041627301)
(-0.5464967 -0.15859468 0.042829054)
(-0.54522103 -0.16211461 0.044248398)
(-0.60530545 -0.16428097 0.045858036)
(-0.60434363 -0.16799773 0.046784117)
(-0.6030676 -0.17155278 0.04789683)
(-0.66447189 -0.17334317 0.050067574)
(-0.66345388 -0.17706116 0.050773491)
(-0.66215587 -0.18065964 0.051580656)
(-0.72453078 -0.18204934 0.054246416)
(-0.7234554 -0.1857761 0.054742611)
(-0.72219249 -0.18937961 0.055265005)
(-0.78519315 -0.1903887 0.058454401)
(-0.78409018 -0.19408523 0.058709465)
(-0.78282198 -0.19770946 0.058999913)
(-0.84613815 -0.19838353 0.062517762)
(-0.84496332 -0.20206541 0.062638374)
(-0.84373385 -0.20571294 0.062748091)
(-0.90723267 -0.20599982 0.066540401)
(-0.90605218 -0.20968935 0.066574599)
(-0.90482903 -0.21333257 0.066575693)
(0.001177864 -0.00278089 0.0038095612)
(-0.0036008785 -0.011043996 0.0050051477)
(-0.012505728 -0.013829264 0.0051382037)
(-0.027394136 -0.019365853 0.0066124377)
(-0.045791187 -0.024613963 0.008121254)
(-0.068564917 -0.029919931 0.0098562265)
(-0.095398749 -0.035597073 0.011907757)
(-0.12599362 -0.041552248 0.014348811)
(-0.1605697 -0.047815771 0.016946976)
(-0.19853425 -0.05435685 0.019781413)
(-0.24005554 -0.061186247 0.022895069)
(-0.28483308 -0.068386573 0.026101229)
(-0.33261601 -0.075767822 0.029452536)
(-0.38319953 -0.083487003 0.032917404)
(-0.43624251 -0.091381491 0.036468721)
(-0.491501 -0.099431904 0.040062328)
(-0.54859694 -0.10761376 0.043712262)
(-0.60720995 -0.1158375 0.047393361)
(-0.66698551 -0.12404972 0.051103076)
(-0.72758195 -0.13222014 0.054838589)
(-0.78865288 -0.1402879 0.058608183)
(-0.84989767 -0.14818808 0.06242804)
(-0.91115712 -0.15602932 0.066205909)
(0.0034639652 -0.0012417799 -0.00020824891)
(-0.0023334065 -0.0022026279 0.00084951524)
(-0.012674646 -0.0014428916 0.0012923948)
(-0.027557925 -0.0028637249 0.0029530487)
(-0.046214971 -0.0037278236 0.004490311)
(-0.069506153 -0.0048787784 0.0062227976)
(-0.096667468 -0.0067494182 0.0084612132)
(-0.12782026 -0.0090659018 0.011035733)
(-0.16291751 -0.011526324 0.013631317)
(-0.20136532 -0.014922102 0.016811713)
(-0.24357005 -0.018499886 0.019943539)
(-0.28882861 -0.022837626 0.023434091)
(-0.33722681 -0.027497909 0.026994251)
(-0.38829728 -0.032882255 0.030730991)
(-0.44184859 -0.03857928 0.034514155)
(-0.49752537 -0.044848117 0.0383939)
(-0.55499907 -0.051444688 0.042304971)
(-0.61392025 -0.058406546 0.046242653)
(-0.67394134 -0.065615624 0.050193531)
(-0.73470099 -0.073023805 0.054133288)
(-0.79589531 -0.080537498 0.058093655)
(-0.85717655 -0.088119553 0.061996752)
(-0.91853917 -0.095689492 0.065949107)
(0.0037276575 0.0030274986 -0.0029735985)
(-0.0038851205 0.0053628909 -0.0027052724)
(-0.013705109 0.010807978 -0.0030026467)
(-0.028305326 0.01242354 -0.00091372196)
(-0.047575414 0.016576551 6.9353947e-05)
(-0.07115915 0.018837263 0.0021732268)
(-0.098651757 0.021098849 0.0045211007)
(-0.13029586 0.022642775 0.0069988921)
(-0.16574615 0.023567523 0.0099798314)
(-0.20486169 0.023780813 0.013147603)
(-0.24748264 0.023338209 0.016548897)
(-0.29327311 0.022075169 0.020224265)
(-0.34215425 0.020065049 0.024023057)
(-0.3936994 0.017297556 0.027993604)
(-0.44768894 0.013743118 0.032072793)
(-0.50376999 0.0094805837 0.036235592)
(-0.56158569 0.0045199198 0.040449156)
(-0.62081195 -0.0010481219 0.044691854)
(-0.68106153 -0.0071697642 0.048931087)
(-0.74201523 -0.013732518 0.053171739)
(-0.80332881 -0.020667628 0.057344288)
(-0.86472864 -0.027824586 0.061542406)
(-0.92596565 -0.035162542 0.065569467)
(-0.00017561202 -0.0019023451 -0.0020673767)
(-0.00035356691 -0.0023066421 -0.00060327704)
(-0.0011473534 -0.0023398024 0.0012688524)
(-0.0062281445 -0.0076552678 -0.0011895766)
(-0.0071801722 -0.0083595008 0.00064319366)
(-0.0064962395 -0.0088393081 0.0032730628)
(-0.016405599 -0.011057683 -0.00044639721)
(-0.016477816 -0.012016436 0.0016239052)
(-0.016229723 -0.013252572 0.0034086299)
(-0.030765957 -0.015530934 0.00096375966)
(-0.031443679 -0.017091947 0.0029126133)
(-0.030727169 -0.017948502 0.0048221989)
(-0.049720488 -0.019816218 0.0027102338)
(-0.050006555 -0.02138673 0.0043644544)
(-0.049384879 -0.022950388 0.0064281108)
(-0.07262566 -0.024292278 0.004630583)
(-0.072904123 -0.026534491 0.006377716)
(-0.072024224 -0.02820457 0.0082057057)
(-0.099596666 -0.029221662 0.0069461524)
(-0.099791594 -0.031576762 0.0086337949)
(-0.098861356 -0.033556893 0.010348296)
(-0.13037279 -0.034483853 0.0096109376)
(-0.1304466 -0.037082716 0.011118221)
(-0.12942265 -0.039339315 0.012819855)
(-0.16506326 -0.039925983 0.012462538)
(-0.16499136 -0.042830499 0.013925436)
(-0.16390145 -0.045374694 0.015592921)
(-0.20324575 -0.045930619 0.015655673)
(-0.20303381 -0.049138413 0.01702579)
(-0.20189878 -0.051670878 0.018511086)
(-0.24484302 -0.052291394 0.019008706)
(-0.24454977 -0.055512874 0.020317549)
(-0.24329248 -0.058448993 0.021660195)
(-0.28963115 -0.059000683 0.022606961)
(-0.28922351 -0.06248259 0.023764462)
(-0.28795738 -0.065488718 0.025048912)
(-0.33745259 -0.066105267 0.02632536)
(-0.33693374 -0.069628893 0.02738143)
(-0.33561629 -0.072818795 0.028499725)
(-0.38796398 -0.07350979 0.030205652)
(-0.38736541 -0.07714867 0.031117821)
(-0.3860185 -0.080405011 0.03210052)
(-0.44096575 -0.081194472 0.034149176)
(-0.4402499 -0.084873656 0.034913639)
(-0.4388921 -0.088256463 0.035765212)
(-0.49608113 -0.089087185 0.038171871)
(-0.49529958 -0.092808043 0.038804979)
(-0.49393409 -0.096240755 0.039500147)
(-0.55305296 -0.097140593 0.042229498)
(-0.55218322 -0.10085813 0.042707996)
(-0.55082124 -0.10436414 0.043260356)
(-0.6114948 -0.10525539 0.046304772)
(-0.61056746 -0.10897785 0.046645819)
(-0.60921818 -0.11253072 0.047062691)
(-0.67111812 -0.11339372 0.05036106)
(-0.67012869 -0.11708092 0.050592289)
(-0.66877852 -0.12069834 0.05086977)
(-0.73151889 -0.12146493 0.054424326)
(-0.73051088 -0.12518978 0.054525106)
(-0.72917763 -0.12879257 0.054705123)
(-0.79243943 -0.1294361 0.058453148)
(-0.79140018 -0.13317536 0.05844007)
(-0.79008567 -0.13680788 0.05855231)
(-0.85360023 -0.13729429 0.062403567)
(-0.85245556 -0.1409775 0.062390375)
(-0.85117537 -0.14464616 0.06241633)
(-0.91478028 -0.14505958 0.066341974)
(-0.91361394 -0.14872956 0.066301784)
(-0.91236432 -0.15241895 0.066265067)
(0.0014949452 -0.00010896123 0.00044340052)
(0.00084042092 -0.0006289616 0.00014680439)
(0.00041532669 -0.00082901685 -4.7850268e-06)
(-0.0058718592 0.00061423323 0.0014610245)
(-0.0063875184 -0.00052130591 0.0010804142)
(-0.0052447217 -0.0010174858 0.0010920145)
(-0.01618109 0.00073580192 0.0020873463)
(-0.016588345 -0.00012978619 0.0013966378)
(-0.015917255 -0.0011663509 0.0015836863)
(-0.030945041 0.0012981022 0.0033050266)
(-0.031885393 -0.00022487315 0.00275443)
(-0.030596859 -0.0011607501 0.0028860521)
(-0.050191013 0.00095160012 0.0047094937)
(-0.050708919 -0.00061919475 0.0040471802)
(-0.049451906 -0.0023383181 0.0045291433)
(-0.073483138 0.00056008216 0.0066269332)
(-0.073983673 -0.0014565493 0.0061623394)
(-0.072616407 -0.0032196028 0.0063375723)
(-0.10089507 -0.00041398352 0.0088028745)
(-0.10125021 -0.0025635445 0.0081831532)
(-0.099850815 -0.0046688077 0.0084632503)
(-0.13224584 -0.0018023407 0.011306227)
(-0.13240346 -0.0044434788 0.0107782)
(-0.13094436 -0.0067527855 0.011111928)
(-0.16731773 -0.0038005389 0.014045882)
(-0.16748165 -0.0065091824 0.013584863)
(-0.16597099 -0.0090705696 0.013746619)
(-0.20606938 -0.0063660762 0.017102447)
(-0.20600562 -0.0093683511 0.016645122)
(-0.20445676 -0.012144488 0.016808811)
(-0.24823201 -0.0094926133 0.020356027)
(-0.24809175 -0.012645451 0.019874435)
(-0.24651282 -0.015582257 0.020076631)
(-0.29360522 -0.013246733 0.023785996)
(-0.29329572 -0.01663976 0.02334382)
(-0.29173429 -0.019676705 0.023508285)
(-0.34193019 -0.017629632 0.027384228)
(-0.34155733 -0.021062116 0.026978771)
(-0.33996491 -0.024259525 0.027115868)
(-0.39299876 -0.022567856 0.031074468)
(-0.39247881 -0.026165958 0.030686602)
(-0.39091292 -0.029444031 0.030810005)
(-0.44644806 -0.028093069 0.034877641)
(-0.44584327 -0.03170939 0.034529761)
(-0.44429306 -0.035090854 0.034634641)
(-0.50202945 -0.034112515 0.038719459)
(-0.50131496 -0.037800458 0.038400754)
(-0.49979673 -0.041226691 0.038486118)
(-0.55937075 -0.040579255 0.042618174)
(-0.55856363 -0.044261235 0.042337564)
(-0.55708795 -0.047774079 0.042406334)
(-0.61814781 -0.047421731 0.04652384)
(-0.61725997 -0.051130927 0.046272628)
(-0.61581969 -0.054668785 0.046334402)
(-0.67802938 -0.054564777 0.050439755)
(-0.67705784 -0.058246633 0.050244204)
(-0.67566478 -0.061845325 0.050278324)
(-0.73864682 -0.061947983 0.054382565)
(-0.73758997 -0.065592353 0.054187361)
(-0.73625748 -0.069222905 0.054214413)
(-0.79976045 -0.069412967 0.05824271)
(-0.79857001 -0.073047816 0.058154975)
(-0.79732791 -0.076714379 0.058162634)
(-0.86094441 -0.076963285 0.062178101)
(-0.85976809 -0.08065162 0.062070822)
(-0.85849635 -0.084320436 0.062080121)
(-0.92218682 -0.08453833 0.066100066)
(-0.92101563 -0.088216761 0.066031142)
(-0.91976385 -0.091942449 0.065998271)
(0.00063279891 0.0026736332 0.0015257372)
(0.0009322534 0.0021878111 1.2131057e-05)
(0.0011484142 0.0019190418 -0.0015297366)
(-0.0076816585 0.00753696 0.0025023954)
(-0.0080598234 0.0059319939 0.00033609675)
(-0.0068386768 0.0058808821 -0.0013410365)
(-0.017403522 0.01239303 0.0031014143)
(-0.017634716 0.012025653 0.0011072102)
(-0.016917686 0.011107705 -0.00099695629)
(-0.032907457 0.01705538 0.004288737)
(-0.032862118 0.015093291 0.0022336497)
(-0.032000474 0.014062528 0.00050514616)
(-0.052095861 0.020845967 0.005716169)
(-0.052105496 0.019358631 0.0038445236)
(-0.051115061 0.017912033 0.0020838364)
(-0.075790918 0.024561119 0.0075860595)
(-0.075724767 0.022516133 0.0056598604)
(-0.074560289 0.02075211 0.0039423859)
(-0.10358483 0.027562579 0.009728144)
(-0.10334461 0.025157172 0.0077587683)
(-0.10220149 0.023073966 0.006293004)
(-0.1352911 0.02981157 0.012106997)
(-0.13494266 0.027279594 0.010450229)
(-0.13379157 0.025069681 0.0087675671)
(-0.17084988 0.031510009 0.01488469)
(-0.17049401 0.028746942 0.013103471)
(-0.16914467 0.026081202 0.011601082)
(-0.21004418 0.032388318 0.017854118)
(-0.20947495 0.029317961 0.016217259)
(-0.2082 0.026605224 0.014788108)
(-0.25265803 0.032468068 0.021025768)
(-0.25212805 0.029311135 0.019476622)
(-0.25073145 0.026313778 0.01810223)
(-0.29848274 0.031701451 0.024433956)
(-0.29778738 0.02840128 0.02299704)
(-0.29643106 0.025252262 0.021695143)
(-0.34729646 0.030131173 0.027938783)
(-0.34657591 0.026704724 0.026599057)
(-0.34515825 0.02338257 0.025418437)
(-0.39876056 0.027677338 0.031596675)
(-0.39793683 0.024185018 0.030390176)
(-0.39656243 0.020748293 0.029292488)
(-0.45263252 0.024417812 0.035312797)
(-0.45177146 0.020848101 0.03422835)
(-0.45036689 0.017310959 0.033258238)
(-0.50855783 0.020357154 0.039095695)
(-0.5076176 0.016765204 0.038152484)
(-0.50625787 0.013136198 0.037294866)
(-0.56620862 0.015564443 0.042905033)
(-0.56523144 0.011935437 0.042100915)
(-0.56387153 0.0082493322 0.041377575)
(-0.62524095 0.010098257 0.046733365)
(-0.62420431 0.0064654929 0.046073811)
(-0.62288392 0.0027249412 0.045476828)
(-0.68530924 0.0040562174 0.050566412)
(-0.68423603 0.0004104467 0.050045499)
(-0.68293399 -0.0033495097 0.049572393)
(-0.7460734 -0.0024659334 0.054387583)
(-0.74496178 -0.0061138533 0.054006479)
(-0.74368446 -0.009914062 0.053662491)
(-0.80724162 -0.0093885544 0.058236112)
(-0.80608309 -0.013038429 0.057941318)
(-0.80484092 -0.016838429 0.057710638)
(-0.86851706 -0.016552748 0.062036899)
(-0.86735769 -0.020220952 0.061864112)
(-0.86610596 -0.024019748 0.061738405)
(-0.92967662 -0.023900216 0.065900903)
(-0.92847562 -0.027570374 0.065794809)
(-0.92723696 -0.031367492 0.065718012)
)
;

boundaryField
{
    free
    {
        type            calculated;
    }
    fixed
    {
        type            calculated;
    }
    freeTop
    {
        type            calculated;
    }
}


// ************************************************************************* //
