/*--------------------------------*- C++ -*----------------------------------*\
  =========                 |
  \\      /  F ield         | OpenFOAM: The Open Source CFD Toolbox
   \\    /   O peration     | Website:  https://openfoam.org
    \\  /    A nd           | Version:  6
     \\/     M anipulation  |
\*---------------------------------------------------------------------------*/
FoamFile
{
    version     2.0;
    format      ascii;
    class       pointVectorField;
    location    "1.97";
    object      u;
}
// * * * * * * * * * * * * * * * * * * * * * * * * * * * * * * * * * * * * * //

dimensions      [0 1 0 0 0 0 0];

internalField   nonuniform List<vector> 
28033
(
(0 8.7135146e-19 0)
(0 5.9667545e-18 0)
(1.0424884 0.015063556 -0.011273608)
(1.0147291 -0.21901355 -0.010505791)
(0 5.3887014e-18 0)
(0 8.7766053e-18 0)
(1.0142369 -0.21787329 -0.010546614)
(1.0420419 0.016193965 -0.011221691)
(0 1.8867307e-18 0)
(0 5.4482964e-19 0)
(0 4.3521944e-18 0)
(0 -2.0662264e-18 0)
(0 2.7833424e-18 0)
(0 -1.6494885e-18 0)
(0 -3.9857636e-20 0)
(-1.3295009e-18 -4.337057e-19 0)
(0 8.1572005e-19 0)
(0 4.0593942e-19 0)
(0 -1.5622496e-18 0)
(0 1.512575e-18 0)
(0 1.8087758e-18 0)
(0 -1.4507464e-18 0)
(0 1.8444656e-18 0)
(1.0407561 0.00044814569 -0.011217621)
(1.0390196 -0.014166543 -0.011163187)
(1.0372846 -0.028784002 -0.011106993)
(1.0355471 -0.043400199 -0.011055229)
(1.0338105 -0.058016723 -0.010998978)
(1.0320734 -0.072636605 -0.010949211)
(1.0303372 -0.087255768 -0.010896094)
(1.0286032 -0.10188044 -0.010846918)
(1.0268684 -0.11650748 -0.010799549)
(1.0251364 -0.13113962 -0.010753629)
(1.0234042 -0.14577662 -0.010710392)
(1.0216724 -0.16041714 -0.01066908)
(1.0199421 -0.17506295 -0.010624508)
(1.0182092 -0.18971269 -0.010584435)
(1.0164722 -0.20436449 -0.010543293)
(0.001976325 0.0034100542 0.0038950074)
(0.0020628222 0.0054539918 0.0055225473)
(0.0026044502 0.0074725071 0.0066773723)
(0.003476816 0.009831249 0.0073863835)
(0.004739809 0.012022852 0.0078396459)
(0.0063429553 0.014526432 0.0080850058)
(0.0084058122 0.016880487 0.0082251856)
(0.010777451 0.01942433 0.0082275918)
(0.013587291 0.021842577 0.0082132377)
(0.016712149 0.024398461 0.0081075337)
(0.020246975 0.026825099 0.0079966414)
(0.024100683 0.029352935 0.0078334672)
(0.028344662 0.031753729 0.0076872754)
(0.032911645 0.034219502 0.007495117)
(0.037858326 0.03657169 0.0073089998)
(0.043125424 0.038948891 0.0070949812)
(0.048763676 0.041217951 0.0068868135)
(0.054729657 0.043484434 0.006657862)
(0.061055962 0.045651046 0.0064056873)
(0.067699206 0.04778614 0.0061486706)
(0.074691706 0.049822616 0.0058804593)
(0.081999384 0.051812552 0.0055818852)
(0.089631972 0.053688958 0.0052886846)
(0.097578158 0.055527306 0.0049671802)
(0.10581962 0.057233858 0.0046355645)
(0.11435605 0.058895984 0.0042974769)
(0.12317127 0.060426624 0.0039551185)
(0.1322619 0.061911557 0.0035973049)
(0.14160372 0.063262535 0.0032407879)
(0.15119637 0.064552649 0.0028895841)
(0.16102648 0.065741708 0.002531048)
(0.17107511 0.066842997 0.0021813132)
(0.18134112 0.067858914 0.0018406241)
(0.19182117 0.068783088 0.0015044326)
(0.20249379 0.069631648 0.0011714409)
(0.21336508 0.070392225 0.00085248047)
(0.22441225 0.071073691 0.00054210106)
(0.23565243 0.071678839 0.00023691662)
(0.24705908 0.072201447 -6.8625876e-05)
(0.25864326 0.072655357 -0.00036115011)
(0.27039334 0.073024239 -0.00065939578)
(0.28231141 0.073330416 -0.0009502525)
(0.29439082 0.073553896 -0.0012490338)
(0.30663267 0.073709737 -0.0015454904)
(0.31902572 0.073787899 -0.0018487526)
(0.33157335 0.073797191 -0.0021542415)
(0.34426226 0.073730598 -0.0024650409)
(0.35709471 0.073595078 -0.0027784113)
(0.37005622 0.073385172 -0.0030950046)
(0.38314646 0.073107358 -0.0034114816)
(0.39635158 0.072757472 -0.0037272398)
(0.40966834 0.072341996 -0.004038758)
(0.42308413 0.071857797 -0.0043445753)
(0.43659395 0.071311575 -0.0046412263)
(0.45018687 0.070701422 -0.0049274188)
(0.46385741 0.070033673 -0.0052003317)
(0.47759688 0.069307762 -0.0054590607)
(0.49140049 0.06852959 -0.0057024319)
(0.50526199 0.067699338 -0.0059302534)
(0.51917845 0.066822387 -0.0061429978)
(0.53314569 0.065898908 -0.0063414826)
(0.5471634 0.064934785 -0.0065283407)
(0.5612284 0.063928874 -0.0067040741)
(0.57534457 0.06288557 -0.0068743783)
(0.58950594 0.061807405 -0.0070369585)
(0.60372184 0.060693707 -0.0072027006)
(0.61798463 0.059544534 -0.0073649852)
(0.63230082 0.058366586 -0.0075333967)
(0.64666912 0.057153993 -0.0077095195)
(0.66109081 0.055913287 -0.0078914624)
(0.67556253 0.054638642 -0.0080813014)
(0.69008521 0.053335827 -0.0082799589)
(0.70465425 0.052002157 -0.0084853736)
(0.71926772 0.050637771 -0.0086970119)
(0.73392015 0.049245046 -0.0089124953)
(0.74860672 0.047821016 -0.0091289057)
(0.76332117 0.046370538 -0.0093433872)
(0.77805831 0.044889452 -0.009552931)
(0.7928096 0.043384726 -0.0097543514)
(0.80757156 0.041849848 -0.0099434921)
(0.82233604 0.040294785 -0.010121555)
(0.83709731 0.038713039 -0.010280376)
(0.85185382 0.037111605 -0.010425424)
(0.86659494 0.035489674 -0.01054936)
(0.88132744 0.033850251 -0.010658646)
(0.89604046 0.032193938 -0.010749648)
(0.91074069 0.030519099 -0.010826392)
(0.92542063 0.028837967 -0.010890969)
(0.94008909 0.027135262 -0.010944465)
(0.95473951 0.025434383 -0.010993533)
(0.96938315 0.023710764 -0.011035184)
(0.9840115 0.021995781 -0.011080817)
(0.9986387 0.020258781 -0.01112233)
(1.0132566 0.018530864 -0.011172311)
(1.0278717 0.016798587 -0.01122046)
(0.0012569793 -0.0042301328 -0.0050847015)
(0.0020870372 -0.0059985372 -0.0060021757)
(0.002612839 -0.0084390253 -0.0077962641)
(0.0031030051 -0.01045896 -0.0086500691)
(0.0043393296 -0.012997351 -0.0094019787)
(0.0056992855 -0.015479006 -0.0099589671)
(0.0074994748 -0.017997707 -0.010344038)
(0.0096406927 -0.020606247 -0.010662645)
(0.012179216 -0.023253713 -0.010881944)
(0.015010567 -0.025880223 -0.01107861)
(0.018234785 -0.028589189 -0.011212272)
(0.021762484 -0.031261769 -0.011341144)
(0.025651715 -0.033984668 -0.01142055)
(0.02986321 -0.036707614 -0.011514425)
(0.034402747 -0.039429587 -0.011562253)
(0.0392866 -0.042182907 -0.011622407)
(0.044476022 -0.044910418 -0.011649841)
(0.050022109 -0.047669304 -0.011668739)
(0.055868087 -0.050419385 -0.011685193)
(0.062048569 -0.053156582 -0.011680077)
(0.068544462 -0.055906468 -0.011660844)
(0.075354525 -0.058646148 -0.01164605)
(0.082460093 -0.061359642 -0.011604371)
(0.089885483 -0.064092494 -0.011562221)
(0.097581427 -0.066781177 -0.011516562)
(0.1055774 -0.069469821 -0.011450317)
(0.11383902 -0.072136513 -0.011401102)
(0.12237376 -0.07478066 -0.011324699)
(0.13115773 -0.077407191 -0.011269773)
(0.14019646 -0.080011238 -0.011191492)
(0.14946472 -0.082596148 -0.011132553)
(0.15896959 -0.085163105 -0.01106637)
(0.16868383 -0.087699891 -0.011008771)
(0.17862609 -0.09023491 -0.010951195)
(0.18875471 -0.092734188 -0.010902769)
(0.19910128 -0.095233141 -0.010858873)
(0.20961642 -0.097695756 -0.010816241)
(0.22034008 -0.10017325 -0.010782132)
(0.23122848 -0.10261413 -0.01075351)
(0.24231302 -0.10506201 -0.0107264)
(0.25355685 -0.10748766 -0.010706226)
(0.2649872 -0.10991186 -0.010685387)
(0.27657365 -0.11231907 -0.010669429)
(0.2883372 -0.11472192 -0.010651022)
(0.30025358 -0.11710832 -0.010635171)
(0.31233689 -0.11948642 -0.010615221)
(0.32456788 -0.12184766 -0.0105955)
(0.33695456 -0.1241961 -0.010570687)
(0.34948073 -0.12652567 -0.01054438)
(0.36214977 -0.12883903 -0.010512714)
(0.37494711 -0.131131 -0.010478835)
(0.38787272 -0.13340403 -0.010440278)
(0.40091328 -0.13565451 -0.010399901)
(0.4140662 -0.13788429 -0.010356506)
(0.42731956 -0.14009173 -0.010312689)
(0.44066956 -0.14227876 -0.01026826)
(0.45410547 -0.1444449 -0.010225637)
(0.46762369 -0.14659249 -0.010185081)
(0.48121518 -0.14872225 -0.010148916)
(0.49487686 -0.15083618 -0.010117445)
(0.50860204 -0.15293599 -0.010092592)
(0.52238879 -0.1550234 -0.01007457)
(0.53623244 -0.15709998 -0.010064618)
(0.55013255 -0.15916713 -0.010062508)
(0.56408632 -0.16122614 -0.010068876)
(0.57809448 -0.16327732 -0.010082639)
(0.5921555 -0.16532141 -0.010104212)
(0.60627117 -0.16735859 -0.0101309)
(0.62043984 -0.16938638 -0.010164192)
(0.6346629 -0.1714052 -0.010198076)
(0.64893991 -0.17341585 -0.010236356)
(0.66327122 -0.17541266 -0.010272876)
(0.67765506 -0.17739819 -0.010308759)
(0.69209023 -0.17936732 -0.01034076)
(0.7065743 -0.18132075 -0.010368351)
(0.72110444 -0.18325653 -0.010389932)
(0.73567637 -0.18517251 -0.01040518)
(0.75028704 -0.18707007 -0.010412812)
(0.76492973 -0.18894635 -0.010413757)
(0.77960116 -0.19080379 -0.01040766)
(0.7942944 -0.19264138 -0.010395497)
(0.80900473 -0.19446083 -0.010378734)
(0.82372674 -0.19626364 -0.010357897)
(0.83845521 -0.19805114 -0.01033594)
(0.85318574 -0.19982585 -0.010313215)
(0.86791444 -0.20158938 -0.010293177)
(0.88263772 -0.20334464 -0.010276247)
(0.89735351 -0.20509287 -0.010265665)
(0.91205934 -0.20683698 -0.010261942)
(0.92675487 -0.20857786 -0.010267436)
(0.94143891 -0.21031741 -0.010282587)
(0.95611257 -0.21205611 -0.010308753)
(0.9707759 -0.21379506 -0.01034522)
(0.98543117 -0.21553395 -0.010391962)
(1.000082 -0.2172731 -0.010446768)
(0 -2.3708919e-18 0)
(0 -1.73122e-18 0)
(0 1.6216023e-18 0)
(0 -1.0246784e-18 0)
(0 -8.8234616e-19 0)
(0 4.9307902e-18 0)
(0 -1.4638809e-18 0)
(-3.4083745e-18 9.5272698e-19 0)
(0 -8.707569e-19 0)
(0 2.1213432e-18 0)
(0 2.5353283e-18 0)
(0 8.8678509e-19 0)
(0 4.6938588e-19 0)
(0 -9.5604974e-19 0)
(0 6.4987152e-19 0)
(0.002156651 -0.0015998369 0.0034148479)
(0.0020702915 -0.0061784038 0.0055885646)
(0.0019802257 -0.0067915921 0.0065509907)
(0.0029346019 -0.0099526434 0.0077386325)
(0.0037959993 -0.01171124 0.0081085609)
(0.0054026012 -0.014272199 0.0084117821)
(0.0071592051 -0.016581405 0.0085086351)
(0.0094556096 -0.019141316 0.008572533)
(0.011972373 -0.021578854 0.00847166)
(0.014919879 -0.024209388 0.0083935705)
(0.018206406 -0.026798961 0.0082540617)
(0.02172124 -0.029339576 0.0080966683)
(0.025721557 -0.032083368 0.0079085897)
(0.029883291 -0.034618861 0.0077229706)
(0.034545591 -0.03741813 0.0074961329)
(0.039380361 -0.039974036 0.0072964074)
(0.044636747 -0.042735543 0.0070486534)
(0.050178678 -0.045379638 0.0067932932)
(0.056067073 -0.048108968 0.0065298733)
(0.062267364 -0.05078353 0.0062361054)
(0.068793557 -0.053495118 0.0059528254)
(0.075598781 -0.056147462 0.0056230501)
(0.082775199 -0.058910984 0.0053141949)
(0.090184889 -0.061500091 0.0049435715)
(0.097954682 -0.064261033 0.0046151704)
(0.10594726 -0.066834651 0.0042356459)
(0.11425157 -0.069516306 0.0038748127)
(0.12279764 -0.072124448 0.0034965398)
(0.13161444 -0.074738622 0.0031290431)
(0.14065414 -0.077325767 0.0027526852)
(0.14996015 -0.079928861 0.0023994384)
(0.15945303 -0.082449326 0.0020390129)
(0.16919126 -0.085020848 0.0016985552)
(0.17911434 -0.087513386 0.0013610207)
(0.18925769 -0.090050428 0.0010411751)
(0.19957544 -0.092503141 0.00072783037)
(0.21009578 -0.095013124 0.00043067174)
(0.2207973 -0.097453497 0.00013478928)
(0.23168224 -0.099919302 -0.0001447841)
(0.24274331 -0.10234586 -0.00042970015)
(0.2539848 -0.10478755 -0.00070247427)
(0.26539636 -0.10719887 -0.00098259182)
(0.27698305 -0.1096197 -0.0012573243)
(0.28873563 -0.11201654 -0.0015416108)
(0.30065634 -0.11441867 -0.0018239463)
(0.31273637 -0.11679955 -0.0021167279)
(0.32497526 -0.1191809 -0.002409697)
(0.33736414 -0.1215428 -0.0027104825)
(0.34989892 -0.12389881 -0.003010999)
(0.36257101 -0.12623583 -0.0033149271)
(0.37537393 -0.12856118 -0.0036155803)
(0.38829838 -0.13086627 -0.0039137299)
(0.401337 -0.13315487 -0.0042047078)
(0.41448064 -0.13542216 -0.0044869269)
(0.42772141 -0.13766895 -0.0047579707)
(0.44105143 -0.13989425 -0.0050153952)
(0.45446357 -0.14209715 -0.0052588762)
(0.46795142 -0.1442791 -0.0054862325)
(0.48150976 -0.14643918 -0.0056991653)
(0.49513411 -0.14858016 -0.0058964928)
(0.50882123 -0.15070163 -0.0060814184)
(0.52256897 -0.15280705 -0.0062542851)
(0.53637588 -0.15489682 -0.0064189033)
(0.55024157 -0.15697407 -0.0065770788)
(0.56416613 -0.15903998 -0.0067325301)
(0.57815002 -0.16109735 -0.0068876663)
(0.59219404 -0.16314656 -0.0070461016)
(0.60629996 -0.16519162 -0.0072083204)
(0.62046494 -0.16722595 -0.0073804366)
(0.63469079 -0.16926497 -0.0075568132)
(0.64897812 -0.17129347 -0.0077443557)
(0.66332251 -0.17331854 -0.0079387943)
(0.67772371 -0.1753382 -0.0081412888)
(0.69217676 -0.17735079 -0.0083484337)
(0.70667842 -0.1793553 -0.0085585103)
(0.72122303 -0.18134908 -0.0087682805)
(0.73580558 -0.18333101 -0.0089746397)
(0.75041974 -0.18529847 -0.0091740001)
(0.76505949 -0.18724995 -0.0093631296)
(0.77971864 -0.18918338 -0.0095391372)
(0.79439126 -0.19109797 -0.0096992845)
(0.80907213 -0.19299196 -0.0098419491)
(0.82375636 -0.19486586 -0.0099658475)
(0.83844022 -0.19671846 -0.010070672)
(0.85312031 -0.19855162 -0.010157)
(0.86779504 -0.20036464 -0.010226197)
(0.88246247 -0.20216101 -0.010280035)
(0.89712301 -0.20393987 -0.010321619)
(0.91177611 -0.20570639 -0.010353366)
(0.92642348 -0.20745936 -0.010379247)
(0.94106551 -0.2092049 -0.010401758)
(0.9557041 -0.21094155 -0.010424715)
(0.97034011 -0.21267588 -0.010449659)
(0.98497411 -0.21440628 -0.010478953)
(0.99960801 -0.21613905 -0.010512626)
(1.0159735 -0.20324675 -0.010584658)
(1.0177125 -0.18861407 -0.010626522)
(1.0194457 -0.1739834 -0.010665818)
(1.0211812 -0.15935288 -0.010706671)
(1.0229142 -0.14472616 -0.010746578)
(1.0246487 -0.13009589 -0.010787103)
(1.0263819 -0.11547304 -0.01082803)
(1.0281172 -0.10084252 -0.010869367)
(1.0298593 -0.086221302 -0.010913318)
(1.0315912 -0.071588524 -0.010954809)
(1.0333346 -0.056966223 -0.010999944)
(1.0350752 -0.04233313 -0.011043733)
(1.0368215 -0.027706824 -0.011089853)
(1.0385615 -0.013069562 -0.011134267)
(1.0403043 0.0015607516 -0.011177741)
(1.0274087 0.017931066 -0.011182927)
(1.0127753 0.01966188 -0.011143848)
(0.99814078 0.02139245 -0.011109545)
(0.98349342 0.02312565 -0.011084637)
(0.96883934 0.024858548 -0.011070628)
(0.95417356 0.026594342 -0.011063712)
(0.93949721 0.028329833 -0.011066321)
(0.92480909 0.030065803 -0.011075609)
(0.91010918 0.03179859 -0.011090164)
(0.89539952 0.033527327 -0.011109414)
(0.88067908 0.035247935 -0.011129946)
(0.86595223 0.036957697 -0.011150827)
(0.8512194 0.038652936 -0.011170122)
(0.83648344 0.040330125 -0.011187405)
(0.82175002 0.041984772 -0.011199271)
(0.80702222 0.043614505 -0.011204973)
(0.79230461 0.045215005 -0.011202925)
(0.77760149 0.046783847 -0.011193207)
(0.76291787 0.048319196 -0.011175399)
(0.74825811 0.049818198 -0.011149418)
(0.73362667 0.051281096 -0.011116129)
(0.71902748 0.052706137 -0.011076374)
(0.7044641 0.054094424 -0.011031281)
(0.68993919 0.055445881 -0.010982837)
(0.67545653 0.056761199 -0.010931177)
(0.66101506 0.058043842 -0.010880308)
(0.64661745 0.059290284 -0.010832018)
(0.63227421 0.060502318 -0.010782646)
(0.61796601 0.061687854 -0.010740234)
(0.60370907 0.062840955 -0.010703798)
(0.58949788 0.06396363 -0.010674212)
(0.57533439 0.065055928 -0.010651863)
(0.56121775 0.066116357 -0.010637253)
(0.54714999 0.067143452 -0.010630888)
(0.53313187 0.068134977 -0.010631839)
(0.51916616 0.069088476 -0.010640074)
(0.5052551 0.069999953 -0.010654172)
(0.4914031 0.070866827 -0.010673751)
(0.47761379 0.071683836 -0.010696575)
(0.46389338 0.072448584 -0.01072265)
(0.4502466 0.073155175 -0.010749072)
(0.4366813 0.073802087 -0.010776432)
(0.42320292 0.074383127 -0.010801394)
(0.40982038 0.074898377 -0.010825561)
(0.39653925 0.075341529 -0.010845115)
(0.38336897 0.075714818 -0.010863039)
(0.37031455 0.076011734 -0.010875007)
(0.35738545 0.076236956 -0.010885425)
(0.34458553 0.076383529 -0.010889624)
(0.33192384 0.076458399 -0.010893183)
(0.31940293 0.07645373 -0.010891175)
(0.30703097 0.076379065 -0.01089022)
(0.29480976 0.076223157 -0.0108844)
(0.28274636 0.07600063 -0.010883499)
(0.27084257 0.075694808 -0.010875648)
(0.25910508 0.075322897 -0.010877606)
(0.2475284 0.074873917 -0.010875773)
(0.23612729 0.074347362 -0.010881242)
(0.2249226 0.073724719 -0.010877077)
(0.21386646 0.073062834 -0.010898727)
(0.20300713 0.072289277 -0.010909891)
(0.19237128 0.07142896 -0.01092178)
(0.18189472 0.070502245 -0.010941733)
(0.17164302 0.069486173 -0.010972592)
(0.16159543 0.068366549 -0.010996535)
(0.15180772 0.067155029 -0.011029372)
(0.14220545 0.065865344 -0.011048174)
(0.13290739 0.064455622 -0.011078771)
(0.12381366 0.06297905 -0.011109186)
(0.11501318 0.061403133 -0.011136649)
(0.10648192 0.059723054 -0.011153183)
(0.098229542 0.057969802 -0.011175147)
(0.090322581 0.056077851 -0.01116934)
(0.082660427 0.054182693 -0.011190189)
(0.075344115 0.052144336 -0.011174089)
(0.068372095 0.050040129 -0.011159465)
(0.061684184 0.04788555 -0.011137974)
(0.055389844 0.045633411 -0.011097673)
(0.049378581 0.04335535 -0.011057779)
(0.043763004 0.040989066 -0.010995634)
(0.038494855 0.038552365 -0.010920913)
(0.033533406 0.036155077 -0.010856916)
(0.028954356 0.033641569 -0.01075473)
(0.024755355 0.031108357 -0.010637749)
(0.020879247 0.028564775 -0.010511264)
(0.017366048 0.026007153 -0.010360488)
(0.014266291 0.023362934 -0.010155984)
(0.011487796 0.020830699 -0.0099366313)
(0.009101105 0.018208176 -0.0096277284)
(0.0070806839 0.015672184 -0.0092584923)
(0.0054689998 0.013069923 -0.0087128339)
(0.0042709216 0.010573817 -0.0080161518)
(0.0034254623 0.0082882599 -0.0071135012)
(0.0028189009 0.0058168359 -0.0055573518)
(0.0034710842 0.0036616675 -0.0031526591)
(0 2.7011951e-18 0)
(0 1.027493e-18 0)
(0 2.6668725e-18 0)
(0 2.6846438e-18 0)
(0 2.7980488e-18 0)
(0 1.6826998e-18 0)
(0 6.7079678e-20 0)
(0 -1.5247325e-18 -1.6729745e-18)
(0 1.8054846e-19 0)
(0 1.6231924e-18 0)
(0 3.9140399e-18 0)
(0 3.4295154e-18 0)
(0 2.4549027e-18 0)
(0 2.3724725e-18 0)
(0 2.7091681e-18 0)
(0 1.1268427e-17 0)
(0 4.7979464e-18 0)
(0 1.7607099e-18 0)
(0 3.177992e-18 0)
(0 -2.7668566e-19 0)
(0 7.4074437e-19 0)
(0 8.4407417e-18 0)
(0 -3.4348572e-18 -1.489461e-18)
(0 5.0206379e-18 0)
(0 6.2763258e-18 0)
(0 2.0741142e-18 0)
(0 8.4897739e-19 0)
(0 1.97055e-18 0)
(0 3.5527687e-18 0)
(0 4.569808e-19 0)
(1.0147068 -0.21894904 -0.010503305)
(1.0146775 -0.21888714 -0.010508207)
(1.0146477 -0.21881824 -0.01051896)
(1.0146153 -0.21874253 -0.010530639)
(1.0145814 -0.21866134 -0.010543479)
(1.0145466 -0.2185739 -0.010554609)
(1.014511 -0.21848413 -0.010564506)
(1.0144759 -0.21839332 -0.010570618)
(1.0144413 -0.21830496 -0.010574544)
(1.0144081 -0.21822031 -0.010574757)
(1.0143763 -0.2181426 -0.01057179)
(1.014346 -0.21807229 -0.01056689)
(1.0143179 -0.21801078 -0.010560056)
(1.0142896 -0.21795893 -0.010554684)
(1.0142658 -0.21791406 -0.01054687)
(1.0424436 0.015127623 -0.011275345)
(1.0423982 0.015192314 -0.011279639)
(1.0423575 0.015262168 -0.011283944)
(1.0423223 0.015336051 -0.011288919)
(1.0422923 0.015415006 -0.01129175)
(1.0422675 0.015496939 -0.011293305)
(1.0422471 0.015581447 -0.011291562)
(1.0422297 0.015666223 -0.011287615)
(1.0422143 0.015749965 -0.011280587)
(1.0421986 0.015830616 -0.011271341)
(1.042182 0.015906394 -0.011260631)
(1.0421616 0.015976234 -0.011248718)
(1.042138 0.01603899 -0.011237561)
(1.0421087 0.016094185 -0.011228691)
(1.0420756 0.016145313 -0.011221896)
(0.00097683674 0.0029338735 0.0039338056)
(0.0012301888 0.0047668227 0.0047209396)
(0.0016924824 0.0067651269 0.0058143182)
(0.0025650103 0.0087477685 0.0062803601)
(0.003728122 0.010694359 0.0067398155)
(0.0053350803 0.012793409 0.0069034754)
(0.0073208763 0.014829946 0.007035802)
(0.0096928545 0.016991825 0.0070277752)
(0.01245907 0.019104786 0.0069956569)
(0.015556963 0.021273817 0.0069056868)
(0.019075499 0.023402691 0.0067833617)
(0.022903306 0.025554578 0.0066463445)
(0.027127169 0.027656225 0.0064840297)
(0.031664084 0.029761337 0.0063137083)
(0.036597247 0.031800324 0.0061276333)
(0.041844651 0.033827579 0.0059313337)
(0.047467642 0.03578476 0.0057258614)
(0.053403916 0.037717504 0.0055058659)
(0.059714395 0.039557305 0.0052781026)
(0.066341336 0.041375243 0.0050300605)
(0.073312011 0.043097549 0.0047790263)
(0.080605467 0.044762602 0.0045052113)
(0.088221235 0.04636008 0.004224914)
(0.096138469 0.047873609 0.0039313928)
(0.10437278 0.049311208 0.0036253847)
(0.11289022 0.050674103 0.0033138251)
(0.1216897 0.051956576 0.0029909778)
(0.13075615 0.053154697 0.0026673299)
(0.14009093 0.054268338 0.0023402583)
(0.14966528 0.055317903 0.0020100122)
(0.15947684 0.056263138 0.0016836173)
(0.16952041 0.057145698 0.0013600207)
(0.17977667 0.057941619 0.0010453411)
(0.19023752 0.058662624 0.00073064192)
(0.20089934 0.059305526 0.00042766964)
(0.21175583 0.059867835 0.00012815834)
(0.22279359 0.060366585 -0.00016341901)
(0.23401204 0.060777372 -0.00044976656)
(0.24541256 0.061128494 -0.00073352417)
(0.25697962 0.061399041 -0.0010098146)
(0.26871958 0.061601694 -0.0012850793)
(0.28062282 0.061728834 -0.0015633506)
(0.29269001 0.061791237 -0.0018393092)
(0.30491759 0.061778614 -0.0021192842)
(0.31729841 0.061701151 -0.0024021947)
(0.32983157 0.061553046 -0.0026877361)
(0.34250964 0.061338707 -0.0029769718)
(0.35532944 0.061057266 -0.0032689169)
(0.36828155 0.060711075 -0.003562008)
(0.38136167 0.060300617 -0.0038556661)
(0.3945595 0.059828264 -0.0041470354)
(0.40786902 0.059295002 -0.0044353028)
(0.42127987 0.058703325 -0.0047167835)
(0.43478529 0.058054942 -0.0049910106)
(0.44837558 0.057351991 -0.005254516)
(0.46204407 0.056596861 -0.0055068328)
(0.47578265 0.055791495 -0.0057458623)
(0.48958575 0.054938306 -0.0059716735)
(0.50344737 0.054039265 -0.0061832902)
(0.5173638 0.053096414 -0.0063819602)
(0.53133104 0.052111524 -0.0065681773)
(0.54534833 0.051087346 -0.0067440561)
(0.5594127 0.050023206 -0.0069108714)
(0.57352642 0.048923222 -0.0070716112)
(0.58768557 0.04778821 -0.0072292894)
(0.60189865 0.046615342 -0.0073849348)
(0.61616165 0.045414493 -0.0075423425)
(0.63047044 0.044177465 -0.007702475)
(0.64483604 0.04291117 -0.0078675542)
(0.65925034 0.041612743 -0.0080400268)
(0.67371802 0.04028596 -0.0082197477)
(0.68823527 0.038931035 -0.0084059244)
(0.70280136 0.037547943 -0.0085992168)
(0.71741149 0.036138848 -0.0087966196)
(0.73206204 0.034703602 -0.0089971112)
(0.74674845 0.033243741 -0.0091977813)
(0.76146383 0.031760585 -0.0093963914)
(0.77620299 0.030253858 -0.0095895825)
(0.7909592 0.028727172 -0.0097752552)
(0.80572593 0.027177647 -0.009949872)
(0.82049741 0.025611303 -0.010112871)
(0.8352672 0.024024688 -0.010259598)
(0.85003139 0.022420332 -0.0103929)
(0.86478337 0.020801919 -0.010508701)
(0.87952398 0.019165621 -0.010610456)
(0.89424868 0.017515504 -0.010695672)
(0.90895829 0.015851216 -0.010769553)
(0.92364799 0.014174194 -0.010831296)
(0.93832552 0.012485811 -0.010885582)
(0.95298368 0.010786699 -0.010932704)
(0.96763456 0.0090769695 -0.010978237)
(0.98226809 0.0073628574 -0.01102167)
(0.99690133 0.0056358137 -0.011066842)
(1.0115197 0.003912786 -0.011115315)
(1.0261393 0.0021812603 -0.011165052)
(-2.0570912e-05 0.0025517701 0.0034334443)
(0.00018906642 0.0036568602 0.0042226988)
(0.00087043351 0.005645518 0.0049280883)
(0.0016105005 0.0072801828 0.0054030809)
(0.0028456373 0.009025644 0.0056952999)
(0.0043773619 0.010834679 0.0058070929)
(0.0063840918 0.012600284 0.0058992879)
(0.0087062428 0.014473182 0.0058529637)
(0.011454395 0.016247732 0.0058377307)
(0.014549014 0.018135176 0.0056996635)
(0.018027583 0.019914052 0.0056168203)
(0.02184755 0.021769126 0.0054464691)
(0.026038591 0.023530663 0.005316165)
(0.030584348 0.02532648 0.0051296819)
(0.035474427 0.027032886 0.0049699955)
(0.040718837 0.028753188 0.0047703828)
(0.046307735 0.030386309 0.004582946)
(0.052246207 0.032003809 0.0043721564)
(0.05852039 0.033535619 0.0041602617)
(0.065139283 0.035047355 0.0039278468)
(0.072085179 0.036454333 0.0036927504)
(0.079359553 0.037845966 0.0034380559)
(0.086952356 0.039123487 0.0031814145)
(0.094860188 0.040375279 0.0029072945)
(0.10306826 0.041513385 0.0026296737)
(0.1115672 0.042626358 0.0023375287)
(0.12034764 0.04362241 0.0020458204)
(0.1294028 0.04457886 0.00174974)
(0.13871202 0.045439031 0.001445253)
(0.14827196 0.046243877 0.0011449237)
(0.15806741 0.046958205 0.00084750202)
(0.16809209 0.04761648 0.00055102058)
(0.17832578 0.048192379 0.00025559602)
(0.18877274 0.048701115 -2.8412101e-05)
(0.1994195 0.049136363 -0.00031318583)
(0.21025812 0.049507909 -0.00058685033)
(0.22128382 0.049801472 -0.00085818922)
(0.2324934 0.050032783 -0.0011215739)
(0.24387212 0.050191043 -0.0013848877)
(0.25542628 0.05028692 -0.0016396633)
(0.26714931 0.050309951 -0.0019024759)
(0.2790371 0.05027287 -0.0021546559)
(0.2910904 0.050163447 -0.0024175761)
(0.30330136 0.049993769 -0.0026745648)
(0.31566781 0.049758089 -0.002939856)
(0.32818727 0.04946014 -0.0032030295)
(0.34085216 0.049098795 -0.0034732654)
(0.35365835 0.048677983 -0.0037411421)
(0.36659855 0.048196318 -0.0040139208)
(0.37966655 0.047658343 -0.0042829671)
(0.39285381 0.047062745 -0.0045530843)
(0.40615282 0.046414309 -0.0048167813)
(0.41955495 0.045712146 -0.0050770378)
(0.43305173 0.044960667 -0.0053280864)
(0.44663508 0.044159482 -0.0055712417)
(0.46029692 0.043312754 -0.005802895)
(0.47403023 0.04242005 -0.0060237471)
(0.48782837 0.041485253 -0.0062317705)
(0.50168612 0.040508057 -0.0064281935)
(0.51559855 0.039491613 -0.0066124768)
(0.52956308 0.038436023 -0.0067863118)
(0.54357696 0.03734419 -0.0069510126)
(0.55763857 0.036214019 -0.0071072413)
(0.57174871 0.035052667 -0.0072600632)
(0.58590602 0.033854243 -0.0074081832)
(0.60011638 0.032626007 -0.0075556995)
(0.61436493 0.031365594 -0.0077043022)
(0.62867349 0.030071621 -0.0078557966)
(0.64303311 0.028748819 -0.0080154122)
(0.65744514 0.027396618 -0.0081779203)
(0.67190951 0.026019604 -0.0083482157)
(0.6864231 0.024615468 -0.0085230847)
(0.70098484 0.023187294 -0.0087034353)
(0.71559158 0.021735357 -0.0088868697)
(0.73023981 0.020261632 -0.0090732236)
(0.74492358 0.018766671 -0.009258641)
(0.75963834 0.017252652 -0.0094423805)
(0.77437744 0.015719329 -0.0096203463)
(0.78913519 0.014170393 -0.0097920966)
(0.80390363 0.012602005 -0.0099521351)
(0.81867988 0.011022142 -0.010103523)
(0.83345277 0.0094232652 -0.010238559)
(0.84822457 0.0078119018 -0.010362044)
(0.86298205 0.0061851883 -0.010472371)
(0.87773441 0.0045481256 -0.010567198)
(0.89246479 0.0028948317 -0.01064746)
(0.90718212 0.001229552 -0.010716665)
(0.92187942 -0.00044467911 -0.010776882)
(0.93656385 -0.0021349211 -0.010827904)
(0.95122879 -0.0038297322 -0.010876822)
(0.96588568 -0.0055405294 -0.010919337)
(0.98052378 -0.0072517164 -0.010965919)
(0.99516172 -0.008978851 -0.011008756)
(1.0097812 -0.010701594 -0.011059383)
(1.0244052 -0.012433601 -0.011108803)
(-0.00063240855 0.0019973694 0.0030060529)
(-0.00049551414 0.0029573159 0.003544277)
(-8.2762585e-05 0.0045319091 0.0041839306)
(0.0007641025 0.0059610912 0.0044898882)
(0.0019538539 0.0073980969 0.0046650156)
(0.0035471884 0.0089627164 0.0047200297)
(0.00551455 0.01042732 0.0047566419)
(0.0078414101 0.011972213 0.0047133443)
(0.010586285 0.013468747 0.0046288896)
(0.013650222 0.015008607 0.0045357316)
(0.017125414 0.016494425 0.004406754)
(0.020914918 0.018006661 0.0042729045)
(0.025113732 0.019465797 0.0041140679)
(0.029607256 0.020922414 0.0039628437)
(0.034504159 0.022327811 0.0037876528)
(0.039712789 0.023716735 0.0036127011)
(0.045302391 0.02504081 0.0034258466)
(0.051198974 0.026342503 0.0032344517)
(0.057474851 0.027572883 0.003030297)
(0.064058527 0.028768797 0.0028159742)
(0.0709939 0.029892291 0.0026000274)
(0.078244848 0.03097028 0.0023639481)
(0.085823449 0.031973921 0.0021281103)
(0.093703011 0.032927294 0.0018753425)
(0.10189268 0.033805215 0.0016222648)
(0.11036963 0.034629591 0.0013542907)
(0.11913273 0.035372674 0.0010924823)
(0.12815907 0.036069053 0.00081321937)
(0.13745189 0.036680101 0.00054362771)
(0.14698913 0.037240345 0.00026807426)
(0.15676468 0.037721695 -3.4870725e-06)
(0.16676683 0.038150418 -0.00027939571)
(0.17698536 0.038501235 -0.00054127314)
(0.1874154 0.038796328 -0.00080749583)
(0.19804093 0.039024163 -0.001064073)
(0.20886025 0.039185553 -0.0013175848)
(0.21986042 0.039289711 -0.0015643214)
(0.23104136 0.039323599 -0.0018087884)
(0.2424078 0.03930138 -0.002049345)
(0.25394651 0.039207407 -0.0022927109)
(0.26565197 0.039061957 -0.0025280367)
(0.27752613 0.038847298 -0.002770074)
(0.28956214 0.038577295 -0.0030065199)
(0.30175845 0.03824299 -0.0032476409)
(0.31411058 0.037852485 -0.0034906039)
(0.32661459 0.037402177 -0.0037359131)
(0.33926426 0.036896434 -0.0039824531)
(0.35205613 0.036334615 -0.0042314323)
(0.36498208 0.035719704 -0.0044799754)
(0.37803662 0.035052173 -0.0047287172)
(0.39121053 0.034334593 -0.0049743238)
(0.40449774 0.033568491 -0.0052171766)
(0.41788783 0.03275546 -0.0054537098)
(0.43137437 0.031897817 -0.0056840529)
(0.44494754 0.030996715 -0.0059053042)
(0.45860077 0.03005444 -0.0061176755)
(0.47232575 0.029071828 -0.0063188908)
(0.486117 0.028051066 -0.006510107)
(0.49996789 0.026992674 -0.0066898956)
(0.51387513 0.025898628 -0.0068599325)
(0.5278342 0.02476927 -0.007020551)
(0.54184334 0.023605793 -0.0071730068)
(0.55590086 0.022409256 -0.0073194083)
(0.57000668 0.021181338 -0.0074623469)
(0.5841613 0.019920311 -0.0076009885)
(0.59836161 0.018629531 -0.0077411162)
(0.61261851 0.017316527 -0.0078807499)
(0.62691988 0.015962211 -0.0080259305)
(0.64127661 0.014580966 -0.0081711491)
(0.65568137 0.013183517 -0.0083247375)
(0.67014004 0.011755066 -0.0084827738)
(0.68464608 0.010306945 -0.0086458562)
(0.69920343 0.0088364267 -0.0088140077)
(0.71380491 0.0073459326 -0.0089852573)
(0.72844813 0.0058355391 -0.0091580254)
(0.74312835 0.0043084385 -0.0093300028)
(0.75783953 0.002764955 -0.0094993979)
(0.77257637 0.0012056293 -0.0096637306)
(0.78733213 -0.00036707861 -0.0098204228)
(0.80210074 -0.00195366 -0.0099685212)
(0.81687678 -0.0035520839 -0.010105525)
(0.83165296 -0.0051648434 -0.010229378)
(0.8464255 -0.0067860451 -0.010343104)
(0.86119102 -0.0084226663 -0.010441137)
(0.87594367 -0.010064482 -0.010526588)
(0.89067769 -0.011722811 -0.01059953)
(0.90540079 -0.013387233 -0.010666682)
(0.92010409 -0.015067734 -0.010721018)
(0.93479486 -0.016754247 -0.010773209)
(0.94946577 -0.018453531 -0.010817754)
(0.96412883 -0.020160495 -0.0108634)