/*--------------------------------*- C++ -*----------------------------------*\
  =========                 |
  \\      /  F ield         | OpenFOAM: The Open Source CFD Toolbox
   \\    /   O peration     | Website:  https://openfoam.org
    \\  /    A nd           | Version:  6
     \\/     M anipulation  |
\*---------------------------------------------------------------------------*/
FoamFile
{
    version     2.0;
    format      ascii;
    class       pointScalarField;
    location    "0.69";
    object      E;
}
// * * * * * * * * * * * * * * * * * * * * * * * * * * * * * * * * * * * * * //

dimensions      [1 -1 -2 0 0 0 0];

internalField   nonuniform List<scalar> 
28033
(
59839.188
53960.782
20003.562
10325.621
63791.781
65076.797
12122.884
19929.725
34427.138
24038.83
15992.942
10960.322
6285.2655
3784.1822
2287.9051
1980.2125
3157.0221
5339.2777
9146.7926
14873.184
22149.219
30812.934
48041.181
17632.925
14657.92
14146.83
14203.105
14610.576
15539.68
16137.65
17413.799
18375.146
19147.552
19898.127
19865.403
19652.857
19015.931
17227.371
46345.383
29018.412
27627.069
26940.761
27263.402
27050.905
26846.12
26314.867
25786.326
24943.565
24183.978
23197.568
22288.258
21219.461
20233.538
19100.351
18107.684
17121.179
16155.237
15135.325
14355.557
13420.206
12723.67
11973.994
11235.004
10694.816
9923.6944
9392.1422
8600.2851
8027.6721
7322.4136
6531.5921
5774.9808
5074.5175
4384.6288
3901.0669
3203.4982
2733.176
2214.8738
1678.6874
1181.5644
748.07744
293.67132
-68.157789
-376.04781
-556.8531
-699.63666
-686.95333
-676.74082
-558.87322
-482.28633
-374.63989
-321.1473
-280.09511
-271.76492
-265.96191
-260.98286
-237.70267
-200.4959
-145.0483
-98.601194
-37.17831
-37.146391
29.764361
77.024397
104.45141
225.75936
348.8136
633.21435
1012.4621
1351.819
1854.3683
2293.4238
2819.6212
3277.8335
3753.6039
4150.0458
4604.6093
4931.6485
5313.3501
5705.7465
6033.5516
6461.8284
6736.9155
7172.255
7468.4412
8004.9411
8318.2808
9029.0734
9346.5668
10314.146
10608.714
11808.689
12456.464
16422.368
43507.386
23359.363
28447.89
25479.757
26152.272
25869.167
25158.793
24801.495
24146.176
23215.39
22468.179
21342.234
20375.1
19232.232
18113.138
16982.469
15858.149
14695.399
13703.347
12858.296
11808.455
11159.265
10276.798
9713.3426
8967.9845
8376.41
7675.505
7004.1771
6271.7538
5583.1053
4738.9975
4116.6987
3457.4061
2834.8947
2253.5031
1750.4302
1332.3982
803.88168
488.35205
232.46954
-15.169395
-154.2511
-251.40818
-267.43443
-236.90836
-119.54277
47.836767
286.60286
582.5471
916.3525
1290.0677
1665.6298
2036.0845
2383.0925
2692.7722
2970.4983
3229.8339
3484.4691
3767.4114
4103.6476
4512.3686
5008.6869
5586.04
6251.6364
6960.2691
7698.1397
8496.8009
9266.2706
10047.707
10816.178
11534.229
12245.564
13073.977
13712.811
14453.541
15085.194
15631.987
16179.406
16518.177
16875.264
17066.913
17227.27
17315.197
17377.68
17389.984
17413.394
17393.82
17378.497
17331.791
17286.237
17190.969
17083.395
16964.194
16813.427
15187.222
40212.826
26487.435
17962.586
13829.077
7450.0879
4604.6328
3114.7452
2788.8639
4126.0407
7707.0487
11287.168
18022.89
26036.397
37112.038
48067.17
82729.729
36985.286
18892.347
30430.822
26118.985
27104.736
26784.111
25885.956
25730.52
24535.441
23980.03
22403.448
21968.606
20139.115
19515.858
17888.394
17515.161
14709.27
15073.333
12724.258
12283.013
12003.799
11287.595
10468.586
9365.8474
8796.1762
8337.9774
7110.2395
7066.0923
5254.8248
4626.2596
3900.1172
3235.0017
2832.8575
1941.9677
2858.1185
1417.1287
1636.3125
1265.7196
992.42957
725.93133
465.30945
262.85556
141.05496
121.04901
212.71306
401.66764
670.10652
968.55575
1269.432
1519.1854
1712.5968
1833.7747
1909.2276
1982.5923
2094.0831
2296.7498
2631.3497
3098.6672
3708.4815
4413.4835
5181.651
5963.0127
6706.2561
7409.2802
8032.5313
8639.0108
8844.5425
10159.531
10177.682
10909.865
11383.896
11945.497
12515.964
12975.217
13365.431
13675.675
13910.454
14054.71
14198.282
14287.638
14405.585
14496.854
14619.089
14696.307
14788.636
14798.394
14807.066
14716.36
14625.908
14457.544
14307.058
14142.101
13882.146
16118.545
18467.118
18419.741
19300.387
20026.249
20108.873
19298.204
19100.635
16396.116
16809.824
15798.951
15086.214
14014.292
14835.431
14209.921
16732.413
16641.667
16185.164
16545.363
15717.857
15174.158
14570.204
13979.185
13445.527
12875.562
12388.714
11880.694
11438.265
10996.813
10554.533
10120.279
9676.3525
9197.6619
8703.9309
8172.592
7634.5742
7068.2496
6511.3026
5930.3165
5386.1008
4911.6247
4304.9518
4235.7703
2276.7576
3155.6554
2290.6102
1984.7533
1575.4743
1193.3508
870.95879
579.50663
340.78915
142.1551
-14.999732
-140.42583
-242.38429
-332.04303
-413.77959
-496.83633
-579.6261
-660.40307
-730.59048
-777.40467
-798.66304
-756.60723
-676.86487
-530.85258
-308.9742
-55.902352
299.21669
620.42795
1101.9647
1495.4727
2356.7689
2082.8677
3004.8328
4023.4524
3931.6267
4830.661
5599.3229
6748.2994
7274.1607
8023.5119
8679.0184
9331.5171
10400.074
11259.53
11838.616
12214.197
13736.029
14018.27
14987.925
15997.29
17011.921
18180.215
19004.803
20655.832
21522.752
22732.254
23540.538
25502.607
25193.357
26541.163
27057.949
27904.415
26897.564
27416.494
28633.382
29167.212
24850.517
50378.757
37915.539
37494.464
36103.817
36258.476
36994.465
37554.161
37369.44
37766.224
37773.248
37613.791
36358.342
35618.384
36318.644
36996.8
40723.507
37064.154
38853.631
37507.856
39954.606
39830.149
39374.211
42167.748
44960.488
43448.89
43308.031
41124.795
39558.426
38801.788
37673.444
42168.145
11176.586
11156.358
11188.195
11193.03
11102.616
11084.615
11069.825
11071.342
11112.01
11116.178
11144.27
11218.664
11319.631
11159.231
11923.402
20431.53
20096.224
20229.957
19998.173
20210.845
20177.292
20185.452
20196.881
20232.847
20258.998
20341.693
20326.689
20411.553
20346.879
20534.817
33156.899
24855.404
22663.474
22056.781
21828.644
21784.419
21685.528
21494.912
21069.737
20716.55
19897.052
19323.062
18402.164
17770.457
16786.51
16177.184
15379.511
14674.829
13936.092
13267.018
12555.814
11749.268
11078.075
10230.901
9525.2795
8780.2588
8068.7033
7453.8751
6910.4494
6410.6113
5936.2594
5624.6024
5303.1939
5006.1996
4706.2244
4234.7904
3915.0955
3452.7262
3126.2476
2674.1151
2355.7011
1981.2666
1746.2075
1496.1245
1257.753
1051.4304
820.40862
607.99322
358.2134
141.82594
-72.252515
-207.77048
-267.33828
-202.11668
-15.184846
296.31751
702.01953
1173.0525
1661.5077
2134.357
2559.4914
2940.8736
3258.7267
3554.0386
3801.0377
4078.9698
4548.4896
5161.2671
5561.3068
5829.8164
6288.8738
6636.7051
6983.6728
7337.9568
7706.4392
8084.6255
8531.9533
8977.5259
9521.7085
10045.458
10662.174
11212.392
11898.91
12365.797
12886.963
13428.826
13800.494
14213.222
14568.845
14883.832
15324.626
15584.582
16202.514
16526.839
18248.013
20998.431
17377.956
17461.886
16618.819
16669.565
16403.475
16294.675
16183.138
15927.569
15679.32
15227.284
14924.236
14346.511
13891.242
13267.555
12828.725
12182.449
11686.677
11145.609
10606.8
10059.358
9545.5954
9009.4006
8477.5557
7928.3991
7438.0634
6910.2614
6439.9317
5968.0092
5561.3789
5202.4833
4827.9652
4483.8859
4117.2352
3839.5705
3503.9201
3248.6076
2938.5519
2587.2621
2287.129
1986.7972
1727.0226
1491.8121
1288.0459
1126.7749
1033.93
934.22683
873.21313
807.30187
754.95375
706.92826
692.09351
710.29853
788.58121
925.10748
1127.115
1377.6726
1667.9205
1971.1962
2279.1107
2575.5814
2866.7187
3142.112
3417.3896
3760.2967
4133.2537
5285.3281
7129.9879
7786.9567
8372.5366
8959.8021
9426.9113
9914.9483
10445.879
10952.898
11477.274
11998.593
12508.699
13023.374
13459.457
13948.717
14266.418
14741.521
13817.196
12846.033
13170.494
13595.145
13791.669
14311.471
14479.555
15022.574
15193.408
15878.475
15807.657
17365.523
13366.2
10864.712
12233.401
11840.664
12099.421
11758.4
11799.827
11675.274
11543.261
11391.813
11150.728
10935.659
10538.608
10265.696
9834.1524
9503.9958
9056.6728
8730.4754
8303.4262
7947.0776
7593.47
7192.8842
6837.8147
6415.8313
6048.9005
5631.3262
5247.6304
4864.2578
4528.6848
4201.5493
3912.1089
3664.0297
3474.4515
3276.0125
3118.8735
2901.2678
2681.5074
2426.1937
2247.8033
1989.4522
1779.1758
1594.765
1405.6128
1340.9206
1287.255
1241.7421
1206.2526
1179.5499
1134.8302
1089.7745
1062.8921
1059.4116
1113.9808
1227.9457
1414.9422
1662.227
1959.23
2282.5502
2614.1922
2941.0929
3249.2374
3553.5482
3836.1556
4153.849
4438.4805
4917.6988
4211.5539
6480.7191
6955.4556
7533.0939
8046.8033
8426.3035
8903.8644
9364.2315
9832.4495
10273.897
10722.299
11127.253
11544.55
11884.021
12278.725
12552.287
12853.746
13242.34
12567.406
12835.187
13040.19
13387.818
13716.603
13977.373
14463.171
14652.28
15354.641
15425.377
16788.098
8352.6334
6703.3514
7489.1417
7874.3399
8033.0744
8120.0529
8105.9418
8139.9634
7978.6876
8026.9153
7802.6508
7770.3649
7486.8591
7396.7198
7038.7785
6883.4647
6541.3367
6315.258
6001.4373
5759.7664
5467.1871
5223.8786
4953.1337
4710.4168
4437.9062
4170.6796
3901.3594
3631.7385
3360.8301
3135.1959
2933.2185
2766.3268
2622.6447
2496.8564
2417.6349
2244.6308
2185.5953
2099.0469
1859.1225
1738.0746
1576.8022
1473.1192
1374.1953
1317.8453
1277.7286
1286.4893
1324.6048
1383.6936
1450.8323
1537.478
1634.0894
1750.7614
1894.754
2066.9134
2272.5835
2509.0254
2771.695
3054.7933
3354.9039
3664.5206
3984.6865
4317.4198
4646.3023
5021.1324
5339.3937
5754.7255
6374.3752
5612.7865
5856.2496
6304.3177
6922.2366
7276.715
7408.1532
7641.8361
8073.7006
8445.366
8828.9205
9194.832
9579.1149
9927.0454
10312.373
10612.812
11057.82
11288.193
12489.7
12929.466
13388.83
13567.079
14049.081
14235.985
14800.128
14916.102
15771.519
15479.898
16640.57
5243.2019
3433.7748
4434.5166
4461.0887
5005.4724
4963.4799
5187.7963
5106.4213
5192.4115
5169.5586
5136.1236
5094.2703
4969.4094
4881.4896
4675.6951
4570.8082
4323.3255
4204.3307
3995.6565
3859.9882
3700.1223
3561.2036
3410.0398
3246.1039
3061.4183
2869.8783
2674.671
2466.2242
2309.0192
2156.647
2047.6411
1973.2088
1932.3293
1911.4335
1882.4837
1820.1959
1878.8376
1662.4062
1438.0467
1306.8003
1250.7755
1203.9298
1190.3169
1237.8702
1304.6787
1389.1792
1480.527
1573.5113
1676.3171
1791.7854
1929.5628
2096.5488
2305.6466
2549.1075
2833.994
3145.2297
3481.7541
3829.544
4185.4793
4548.8268
4911.1435
5282.1105
5665.5726
6045.8787
6450.2354
6858.5533
7276.3296
7714.3933
8091.6945
8559.5779
9101.737
9096.8303
9467.8954
9265.663
9435.9582
9727.2116
10083.82
10434.129
10777.471
11110.721
11434.972
11758.055
12053.303
12376.366
12648.837
12966.643
13213.479
13499.625
13834.261
14117.479
14564.79
14870.567
15616.185
15458.429
16484.263
3002.37
1653.5936
2146.5742
2261.8735
2562.1187
2758.5368
2819.1111
3000.8173
2998.0535
3160.9074
3099.5346
3216.1943
3094.2114
3137.5437
2961.7206
2926.3373
2748.7822
2680.1573
2524.9761
2470.1875
2351.3693
2300.4845
2195.4131
2117.725
2000.5668
1901.4177
1744.7534
1640.2639
1507.0009
1417.8895
1356.2006
1329.0262
1326.8065
1338.4901
1338.2467
1356.4363
1288.0987
1653.3187
1479.3418
1476.6559
1404.2944
1393.2019
1375.9413
1424.2494
1453.6854
1508.6029
1566.7884
1645.8311
1733.1478
1840.5505
1965.1811
2116.0138
2285.8739
2478.7161
2684.4618
2901.8415
3122.9943
3342.3306
3566.4558
3782.8893
4001.6593
4236.2374
4459.113
4696.7523
4966.9915
5211.9478
5497.2973
5756.4155
6088.5847
6372.5386
6720.7844
6723.6988
6976.0783
8288.37
8450.452
8689.9934
9031.4828
9384.4688
9741.4536
10064.688
10442.754
10721.099
11146.737
11385.203
11862.79
12118.722
12672.644
12957.317
13601.591
13875.687
14640.892
14860.88
15870.099
15676.082
16515.955
1810.911
288.90619
755.5932
580.48091
972.2868
1042.4681
1327.2008
1407.5867
1622.2143
1692.454
1803.9895
1830.4922
1828.7721
1789.5598
1696.1797
1647.0442
1534.4158
1498.8107
1431.954
1424.8103
1381.878
1381.2391
1308.2939
1263.0759
1162.9502
1050.0893
941.39312
849.90965
774.51557
760.27572
765.37751
814.49857
873.31676
924.47528
977.73107
989.46038
983.55935
855.45163
1003.1826
963.64694
925.1811
943.62184
961.70181
1027.7363
1101.5732
1199.6875
1312.8433
1414.8579
1524.8363
1626.7357
1739.7061
1855.8146
1993.3195
2147.0123
2325.617
2521.7874
2736.8004
2960.5447
3190.9058
3416.7701
3650.0627
3872.1777
4091.6871
4341.325
4559.2268
4835.7503
5074.0641
5389.8957
5673.9689
5986.8331
6311.6749
6678.8372
6964.8078
8077.3556
8670.7497
8966.4405
9351.8769
9714.6413
10100.155
10466.013
10859.292
11233.724
11631.416
12001.201
12424.809
12766.42
13192.678
13544.921
14001.786
14314.121
14880.142
15175.794
16138.567
15845.048
16778.521
1446.8605
90.963957
233.13635
187.89634
327.63393
562.08966
665.34568
893.20212
1003.2507
1198.5291
1237.2927
1381.2788
1333.8366
1377.0942
1302.8841
1280.0479
1201.2588
1188.4835
1123.1937
1128.8956
1056.7077
1047.2591
970.15687
952.48212
810.76694
771.27369
649.09299
599.71606
542.05261
534.20904
535.31184
577.07646
606.22027
658.20396
701.15771
694.45626
715.76779
719.06948
710.38492
704.454
704.90815
748.28307
803.56164
887.28673
972.63253
1093.9088
1203.2856
1334.6258
1462.1854
1604.3905
1746.3544
1904.7183
2068.0918
2246.5576
2430.6569
2623.7408
2822.4024
3019.3289
3221.3057
3424.0703
3629.9747
3836.8214
4064.8679
4287.2396
4533.8064
4780.3511
5060.7218
5341.4609
5619.9991
5934.4058
6235.6661
6578.8902
6917.2814
7188.5665
7489.0176
7888.5059
8255.4434
8676.637
9075.3179
9481.5911
9903.5017
10288.532
10738.426
11113.898
11610.155
11996.424
12571.821
12972.612
13618.206
14053.8
14842.109
15245.71
16261.77
16097.444
17045.803
1819.5474
207.56434
354.4676
150.68712
349.32317
501.57089
769.23626
907.73662
1172.9885
1238.014
1364.0067
1330.4989
1300.9626
1190.8197
1102.738
992.65477
936.70175
879.60039
870.7939
869.88614
861.18225
870.37296
768.33984
659.29186
520.48492
433.3434
291.79045
256.85173
201.79785
228.76446
265.99791
334.8193
399.27107
479.19525
475.62515
546.95245
514.92271
531.6444
491.50071
505.42961
513.26465
558.4271
631.76616
718.67507
848.56122
976.19072
1122.5529
1262.2365
1408.3842
1543.4732
1683.9458
1819.3676
1962.8981
2112.1551
2270.5032
2441.4339
2620.8956
2804.3957
3001.826
3192.2524
3386.8622
3590.3151
3784.0801
3998.1318
4207.6923
4459.8215
4697.5713
4972.801
5272.9077
5610.946
5950.2948
6339.318
6711.0829
7198.2354
7586.9135
7678.3362
8176.0628
8602.9978
9064.3842
9517.6431
9984.5309
10453.887
10931.174
11413.317
11906.572
12392.822
12889.315
13383.415
13895.647
14386.154
14943.042
15365.037
16269.378
16072.107
17539.555
3679.3241
1850.8856
2024.5829
1868.3996
2046.2385
2182.1549
2309.5593
2413.0743
2547.3798
2654.646
2644.4879
2689.0538
2609.8146
2532.6022
2447.3574
2306.5383
2220.0727
2078.4478
1973.2589
1833.6113
1726.1606
1570.1614
1351.6873
1219.9778
1055.2228
932.41014
797.42806
738.64384
658.4932
649.86879
616.87689
631.62664
636.19248
615.93901
670.61155
633.67577
658.67556
652.1053
674.38338
712.42292
752.09632
821.81496
886.44459
980.43105
1061.8552
1166.2946
1261.2067
1370.5917
1472.603
1584.2533
1692.2697
1805.9216
1920.8892
2038.9488
2158.8661
2284.3804
2409.5032
2542.1707
2684.9999
2823.4019
2991.7984
3158.2094
3340.2748
3546.6731
3761.7386
3993.3675
4241.3237
4519.092
4811.4454
5115.0589
5440.3232
5808.9612
6169.4886
6789.0549
6130.0582
4567.4259
4896.8514
5316.3206
5733.7851
6204.1314
6666.6135
7176.9553
7697.6661
8240.1445
8822.3509
9394.0508
10050.179
10661.154
11412.73
12074.967
12964.906
13729.07
14831.026
15233.424
17914.566
4206.3701
3157.6828
3165.1711
3209.5673
3379.359
3554.1523
3624.9051
3769.3526
3859.1678
3869.9951
3787.2648
3717.4865
3561.5213
3404.7883
3286.698
3093.657
3049.3905
2836.5599
2788.4283
2567.3739
2486.4884
2159.6508
1886.0258
1646.5861
1402.4049
1192.5504
993.9058
835.96614
696.55324
607.67854
541.9839
527.97022
461.54696
516.80937
438.83621
463.28869
429.98205
436.23715
423.77338
425.46451
448.33608
471.0184
536.03354
597.22775
692.73056
784.68575
892.07336
986.03591
1084.2793
1164.877
1240.0488
1303.1867
1363.5872
1422.078
1488.5362
1568.216
1662.8403
1785.1119
1921.7358
2087.0559
2271.8691
2471.2406
2684.4452
2932.6196
3160.6709
3448.4076
3723.5505
4042.4711
4365.6814
4730.9151
5132.0225
5530.7732
5977.2476
6529.4099
8695.2237
5879.6038
6408.8255
6903.7478
7401.7344
7904.113
8444.9258
9002.1669
9587.0107
10190.596
10809.111
11451.101
12086.56
12760.842
13400.178
14113.355
14812.219
15493.065
16376.234
16869.861
19294.168
10549.43
6456.9879
7124.0181
7054.6981
7239.4729
7136.757
7292.2496
7237.0033
7238.2051
7143.173
7006.0092
6795.3301
6583.1403
6272.4288
6013.4417
5688.4756
5399.6381
5049.3906
4773.7255
4421.0186
4073.8839
3775.0435
3629.0117
3415.4183
3056.0798
2792.6984
2569.4937
2383.2486
2231.1356
2111.2268
2021.8052
1912.7072
1867.4026
1778.1397
1733.2405
1679.5664
1612.9758
1559.5316
1488.8123
1453.2651
1391.1705
1376.2139
1344.4522
1354.6472
1361.4576
1402.6068
1451.4809
1522.6672
1604.159
1694.4363
1787.8174
1880.7803
1970.7591
2053.7833
2134.9302
2212.4261
2294.9193
2382.3802
2485.1363
2602.488
2737.6208
2893.9594
3057.8759
3254.7312
3430.3041
3670.1997
3872.7782
4124.9711
4399.2322
4726.7481
5050.3533
5438.4467
5891.1611
6262.7674
6652.9693
8017.3176
8624.4781
9217.6978
9716.1934
10239.545
10743.806
11252.295
11734.789
12228.168
12688.258
13143.605
13576.462
13997.872
14400.52
14867.916
15279.477
15830.375
16560.454
17002.542
19745.919
16328.242
12704.07
12642.074
12152.435
11837.906
11606.095
11622.261
11277.008
11256.577
10841.793
10539.916
10073.139
9556.9462
9011.6299
8495.0224
7893.4451
7426.605
6859.5124
6467.6216
5937.0942
5581.3777
5084.2101
4868.8807
4528.958
4124.9442
3689.8764
3362.5559
2966.2572
2641.6893
2344.0122
2051.0951
1853.5021
1602.9185
1479.0899
1276.3501
1152.7885
1025.5479
913.93847
832.65683
739.81937
698.78611
646.06708
634.7734
624.56925
636.44672
645.68888
660.37065
654.73491
640.5982
598.96545
539.07968
462.8303
379.61867
304.8558
254.03195
247.62886
292.00617
407.99339
586.62267
832.98276
1128.8736
1469.3291
1815.5745
2200.5619
2525.2538
2920.3506
3199.4438
3586.0951
3919.4072
4252.4529
4586.9505
5019.1844
5287.7352
5787.462
6121.5739
6598.7878
7002.0471
7457.7368
7899.1213
8416.8958
8942.6834
9531.9613
10141.523
10792.145
11430.143
12092.031
12720.736
13351.65
13967.314
14566.785
15178.616
15787.041
16420.701
17050.473
19569.666
24168.832
18605.716
17903.882
16749.591
17007.889
16663.801
16575.207
16423.977
16211.236
15763.072
15348.005
14711.941
14110.152
13406.866
12711.831
11986.191
11352.45
10616.532
10082.974
9423.0468
8914.339
8343.1465
7776.7919
7316.9856
6814.8
6354.359
5918.1341
5433.6574
5032.4356
4560.0336
4191.1935
3796.8384
3459.1994
3194.8207
2871.9713
2650.985
2422.4405
2206.4986
1990.9425
1816.805
1618.7286
1469.7836
1320.3405
1219.3146
1136.9967
1100.3229
1086.2026
1095.6849
1114.5906
1125.9108
1122.2414
1092.8206
1041.7168
971.05659
902.82237
848.19065
830.47296
861.72315
951.20195
1095.5582
1286.3296
1508.9465
1749.0405
1994.4271
2220.917
2486.6863
2681.7498
2999.4331
3240.3424
3552.2903
3960.0072
4309.4577
4812.6271
5234.5447
5711.9348
6182.8014
6656.6075
7126.2746
7591.5842
8109.4129
8597.2002
9161.2001
9708.7815
10301.34
10878.897
11475.347
12049.204
12625.077
13191.791
13761.502
14353.314
14978.115
15672.051
16614.13
19327.542
29546.53
22623.088
21581.954
20971.908
21636.659
21123.872
21249.154
20928.381
20409.482
19797.052
18934.53
18145.891
17248.451
16369.154
15596.316
14741.536
14098.917
13246.96
12571.409
11657.949
10982.263
9948.7764
9295.3211
8308.4799
7647.0391
6943.75
6378.6475
5975.831
5631.7741
5450.0509
5195.5437
5038.935
4809.803
4618.7223
4261.3127
4033.5278
3662.1761
3330.5217
2986.5155
2619.8327
2312.2104
2000.5901
1723.5684
1452.1337
1188.0497
919.55069
648.41811
382.53218
136.59397
-58.932462
-185.92932
-203.49255
-104.60666
126.01827
473.93154
919.46041
1412.3986
1925.4371
2398.5697
2811.5713
3134.6597
3383.0579
3552.3989
3674.0489
3795.6771
3919.7509
4029.5454
4307.8063
4416.4866
4848.4787
5051.4363
5519.9364
5818.405
6324.787
6778.785
7386.8205
8021.3034
8746.5913
9568.1593
10403.344
11263.955
12112.547
12898.814
13637.61
14284.499
14871.666
15384.982
15873.612
16345.797
16810.867
17365.834
17913.04
18548.264
19420.897
20300.131
20649.427
19727.631
16463.727
15915.006
15560.08
15589.93
15268.151
15482.306
15535.546
15654.933
15506.388
15452.215
16899.181
17991.402
22447.939
14348.807
11806.682
10079.959
10074.44
9317.8164
9298.3494
8958.1045
9135.7702
9323.9278
9205.7149
9344.0947
9657.33
10378.347
11949.615
14954.845
9101.5649
7007.6107
4973.9884
4710.992
4188.6377
4053.7331
4019.3169
3881.1042
3924.4553
3988.2622
4206.9251
4390.6855
5115.8151
6770.3176
9176.036
5786.4642
4507.8946
3436.1839
2919.9079
2785.5195
2595.9052
2571.433
2473.8386
2607.6215
2645.4173
2819.1051
2989.0631
3781.6379
4849.3501
6053.6858
3326.0293
2464.3898
1519.9046
1301.5502
1052.8005
988.35462
932.56804
907.44141
920.37274
978.17418
1066.7756
1320.3576
1751.4108
2406.089
3793.9959
2454.4941
1514.7496
942.81364
779.57414
631.56396
587.60451
534.12256
540.17196
551.72232
573.10539
691.43448
764.77526
1044.7046
1608.9186
2529.985
1203.7101
642.45533
335.0265
149.8111
87.963118
5.4851994
-9.4733142
-34.822886
-17.311912
10.694132
67.32592
207.29844
384.27993
834.86521
1624.5859
1227.0989
664.93105
326.16188
216.33247
114.52428
77.101565
44.215851
47.901625
63.509334
71.212895
153.18967
244.94071
413.55777
806.31066
1611.8091
1445.5391
781.20052
375.67849
213.74821
90.811653
32.926371
0.040721679
13.826673
14.812025
120.20785
148.99964
313.28715
533.32326
1099.116
1762.628
2923.5743
2014.9185
1215.2009
991.44548
750.80953
687.77838
621.86792
614.05353
628.67126
632.26219
850.99415
892.44411
1382.7248
2191.5976
3419.8451
3996.3031
2890.3238
1733.1654
1449.451
1066.9474
1024.6811
890.78737
956.43268
956.20374
1094.0421
1277.8142
1620.6723
2275.3038
3383.4365
4749.4236
7213.9161
4884.3036
3648.5644
3051.7487
2638.5654
2356.0174
2300.9966
2243.3838
2328.1701
2396.3951
2754.1673
2858.5588
3923.6398
5404.466
7610.7281
9970.3014
8011.8041
5831.5536
5205.9088
4474.5907
4413.8317
4113.7005
4349.0647
4350.7066
4329.9724
4814.915
5083.0507
6186.6009
8456.6031
9997.4195
16341.34
13070.491
10623.543
9737.7132
8963.2337
8611.4568
8856.8733
9036.3853
8855.9426
8854.2401
9013.5734
9523.2213
10684.772
12499.507
17448.759
21632.188
22579.473
17296.084
16860.039
15776.397
14725.946
15797.973
16736.524
15375.19
16445.28
15926.664
16531.841
17856.573
20451.824
25143.964
53995.04
46761.05
45849.336
47589.206
48542.904
47843.416
50565.549
53694.108
53957.736
53502.462
51832.744
49282.542
48835.169
49955.75
47983.397
40757.783
35245.905
34323.126
33751.741
31627.866
33746.587
32972.925
33064.439
35513.211
33009.771
33798.313
32648.9
35137.219
37367.213
42679.522
30619.128
31455.368
29770.534
28881.185
30054.841
26689.925
26580
26888.608
24851.933
28129.442
27731.385
31325.866
31535.93
31231.222
32588.71
28807.878
32204.046
31790.742
30149.302
29674.22
29351.764
29012.738
29288.266
29427.281
29247.334
30468.541
31244.576
32134.539
32522.285
30334.906
29292.114
30888.087
30760.178
32132.459
31007.002
30823.296
30955.429
30626.639
31020.861
32265.163
31708.596
32609.769
31722.945
31103.416
29618.534
27082.672
29926.801
30292.986
30577.432
30568.556
30438.062
30215.68
30181.829
30395.212
30230.676
30931.971
30923.498
30667.398
30110.275
27817.3
27086.482
29039.829
29679.244
30192
30398.961
30524.694
30687.196
30641.749
30860.228
31051.291
30753.115
30790.299
30082.846
28800.985
27844.81
26299.176
27501.004
28474.354
29034.735
29531.896
29452.454
29519.573
29716.115
29504.974
29769.904
29565.841
29306.923
28674.894
27215.418
26349.264
25348.849
26707.062
27491.35
28172.195
28215.567
28621.411
28689.144
28740.116
28835.043
28613.858
28496.098
28037.02
27475.256
26623.524
25618.319
24829.398
25382.979
26273.196
26589.73
27057.547
27133.221
27274.091
27293.895
27133.906
27393.481
26891.477
26951.229
26151.008
25466.709
25134.118
23741.449
24394.616
24978.653
25488.301
25765.093
26067.525
26174.22
26265.791
26373.919
26008.327
26266.013
25604.32
25382.685
24707.799
24122.822
23064.472
23090.061
23687.159
23967.752
24267.715
24353.141
24459.188
24474.866
24417.984
24390.352
24114.284
24015.898
23521.477
23022.011
23290.83
21834.843
21939.599
22256.622
22617.984
22868.08
23043.986
23255.655
23215.738
23419.951
23266.716
23250.292
22991.188
22691.315
22384.868
22166.185
20582.595
20482.611
21010.365
21064.216
21341.663
21438.6
21561.692
21437.696
21451.422
21349.038
21197.337
21095.025
20787.149
20374.962
20951.845
19275.533
19066.648
19496.496
19712.118
19980.953
19968.539
20172.784
20002.544
20246.334
20153.89
20197.282
20006.784
19766.502
19653.742
19706.639
17856.883
17751.014
18134.787
18175.124
18304.205
18522.889
18591.219
18490.267
18449.659
18359.893
18205.451
18143.603
18051.586
17803.851
18193.935
16521.532
16260.21
16516.006
16601.335
17033.389
16923.32
17151.715
17026.771
17235.352
17104.044
17213.608
17112.327
16741.444
16512.061
17205.521
15229.321
15234.249
15511.981
15630.016
15501.148
15694.791
15579.83
15807.598
15733.408
15692.723
15568.141
15358.958
15457.967
15235.449
15236.555
14254.95
13977.456
14355.319
14222.623
14607.526
14468.779
14873.908
14465.922
14645.299
14560.593
14296.556
14485.47
14455.165
14237.26
14939
13161.224
13103.771
13120.463
13315.112
13329.452
13365.305
13528.349
13512.111
13549.488
13410.056
13795.754
13420.922
13184.888
13210.116
13378.939
12387.527
12288.427
12529.788
12440.69
12545.344
12480.127
12652.958
12568.607
12631.077
12489.387
12516.246
12481.974
12956.032
12272.341
12945.673
11746.896
11582.613
11591.269
11686.481
11666.866
11797.121
11735.465
11831.179
11610.219
12135.039
11841.88
11910.777
11364.879
11311.748
12517.841
11255.581
10865.267
11101.249
10940.121
11095.834
11198.061
11103.484
10940.968
11185.649
11001.706
10738.565
10883.844
10961.533
10814.242
12079.188
10580.73
10422.454
10318.072
10354.187
10342.793
10146.478
10378.578
10253.673
10341.737
10220.376
10370.454
10465.811
10521.799
10089.039
11861.804
10361.671
9690.2884
9683.0216
9457.7218
9697.9399
9572.1414
9759.8377
9595.381
9716.481
9622.7569
9916.6229
9755.8482
9545.1047
9504.2093
11140.347
9456.5873
8880.8086
9102.8112
8917.2749
9029.5526
8991.192
8971.2735
8865.0885
8966.3016
8888.2152
8899.1452
9090.5281
9288.9755
9115.8705
10128.362
8905.3154
8174.0524
8314.6657
8091.9129
8421.1206
8122.0639
8219.4811
8154.7589
8248.7876
8184.1895
8317.5661
7835.63
8211.0739
7786.2206
9748.7314
7888.9638
7373.6774
7465.8044
7461.3828
7221.8236
7287.409
7357.2361
7275.4701
7398.7064
7337.5598
7436.1946
7639.6689
7497.0581
7501.3915
8320.1407
7193.4777
6555.1522
6455.0124
6417.8917
6507.3584
6498.151
6524.8289
6480.743
6504.9532
6508.7289
6510.6124
6644.1181
6416.5604
6213.5786
7877.5622
5929.5762
5544.2992
5776.6759
5663.8541
5755.2577
5847.9559
5657.712
5669.5596
5483.3139
5609.911
5572.4146
5538.429
5943.8929
5439.8458
6265.841
5330.723
4970.8369
5113.798
4892.099
5076.1266
4623.5489
4967.6545
4758.3111
5241.0157
4814.3251
4897.2515
4800.9547
4765.4019
4601.7242
5303.477
4471.2192
4024.4826
4199.8686
4080.2129
4146.1831
4150.7413
4202.2045
4154.6252
4109.8951
4053.7418
4138.9685
4078.41
4094.3357
3994.997
4376.602
3570.7095
3321.4086
3519.9131
3407.0502
3550.8871
3432.0827
3576.2236
3380.8694
3550.6815
3413.8436
3545.5847
3398.5268
3475.0232
3337.5435
3467.4329
2894.2221
2738.1236
2924.157
2848.34
2978.0063
2885.3411
2983.3149
2908.1429
3000.7433
2911.6773
2972.626
2906.5271
2932.7846
2787.9642
2837.7254
2281.7486
2227.8564
2426.0643
2677.3398
2452.3842
2415.8727
2521.5131
2448.9349
2518.8095
2494.7631
2554.9305
2466.8622
2513.3953
2434.3617
2406.2364
2055.0476
1858.8142
2094.3516
1820.9514
2124.5141
2048.6378
2124.0904
2049.1886
2191.0796
1766.7494
2186.2651
2043.4766
2124.3358
2022.5469
2029.7836
1269.837
1546.3755
1729.1189
1717.3943
1766.7372
1683.6029
1798.1493
1687.0339
1748.028
1933.1474
1770.7995
1752.5528
1709.5974
1684.0559
1632.0964
1226.7715
1347.0224
1458.561
1438.2907
1457.4827
1439.8543
1471.2565
1401.3114
1516.5184
1320.338
1479.9265
1354.8841
1499.1898
1404.4542
1225.723
1025.8073
995.88036
1177.5892
1068.4277
1212.6877
1071.5666
1196.8916
1080.1595
1144.7416
1104.7286
1129.6869
1127.1008
1132.7586
1032.6824
1055.9531
754.03837
798.81696
899.06317
871.39331
892.78224
825.8344
892.60479
772.42568
886.65445
749.44683
880.42233
754.72704
813.25557
763.88507
755.28085
587.34955
576.39599
673.77362
575.01984
654.84295
539.66553
613.30643
517.60278
561.79802
508.80534
536.86137
485.32577
518.63768
436.60775
529.0323
402.32025
402.44192
414.14472
369.7544
403.62167
297.9617
383.12601
237.95877
337.59613
221.00355
280.18938
230.76989
219.40114
183.3042
350.13912
291.83339
237.02025
252.78296
183.67819
213.6464
123.18204
167.21533
74.194953
118.94134
39.095652
76.51776
29.514832
11.591224
-17.699451
255.60328
227.05566
172.39955
140.41563
76.183602
109.9431
-2.689258
72.785273
-50.951221
6.1104704
-70.677444
-55.265981
-71.232928
-104.80791
-131.11199
300.45924
289.94237
175.29375
131.02793
80.200885
84.181983
1.4692207
47.694847
-53.866542
-9.7867954
-79.39438
-67.508515
-66.913696
-104.39517
-138.13876
499.81412
458.43997
288.95768
240.71395
169.77391
181.22143
84.061203
138.59405
37.545408
73.090368
22.283557
21.636551
43.790224
21.885371
-37.598399
857.54439
754.40163
509.61023
437.53111
381.23081
369.61826
283.94784
324.88475
229.22841
261.03636
218.35329
210.88181
256.84141
253.8723
154.92244
1344.6464
1163.8323
803.98296
739.68236
665.78184
636.49855
538.98959
572.96202
486.62572
509.58246
478.33059
473.55025
533.19086
563.99758
419.18125
1917.4084
1626.6412
1160.9117
1076.8801
993.83124
944.927
855.21621
881.40269
797.02965
807.82489
787.68061
775.91266
845.6234
909.22281
709.50617
2493.5725
2121.502
1522.0276
1430.8368
1338.4505
1271.2138
1163.9706
1168.2619
1085.704
1090.7248
1076.3783
1068.4919
1141.3863
1240.9056
991.29318
3011.4171
2556.7208
1848.3496
1749.6713
1643.7907
1548.1973
1445.5458
1449.3476
1379.1072
1367.6001
1358.519
1341.7125
1408.7582
1525.6775
1234.5915
3393.7467
2902.4991
2113.8324
2009.0325
1892.0435
1792.5748
1688.7315
1671.4594
1591.8195
1570.6147
1562.4844
1547.6271
1602.177
1733.3273
1419.7988
3606.4432
3109.9992
2287.3606
2186.5499
2076.538
1962.6647
1859.4038
1838.054
1783.411
1753.3467
1748.2905
1721.6533
1755.6209
1877.6922
1553.6376
3634.4313
3177.803
2387.0911