/*--------------------------------*- C++ -*----------------------------------*\
  =========                 |
  \\      /  F ield         | OpenFOAM: The Open Source CFD Toolbox
   \\    /   O peration     | Website:  https://openfoam.org
    \\  /    A nd           | Version:  6
     \\/     M anipulation  |
\*---------------------------------------------------------------------------*/
FoamFile
{
    version     2.0;
    format      ascii;
    class       pointScalarField;
    location    "1.85";
    object      E;
}
// * * * * * * * * * * * * * * * * * * * * * * * * * * * * * * * * * * * * * //

dimensions      [1 -1 -2 0 0 0 0];

internalField   nonuniform List<scalar> 
28033
(
2196.1722
4273.9414
-231288.84
-151957.45
2924.3403
8070.5054
-210224.54
-361650.48
-501.4765
-2052.2028
-1931.7179
-989.28664
-468.52736
127.70618
224.80329
153.30124
388.12784
659.17071
1879.5748
3501.393
4976.2918
5261.2468
4078.7386
-124346.39
-116624.83
-112434.24
-113550.36
-117646.15
-124181.12
-132347.24
-139581.81
-146088.61
-151492.33
-154756.58
-158038.89
-157760.62
-155224
-115726.12
2891.0944
1432.5213
1821.9931
1936.0915
2458.7479
2787.8265
3231.5869
3299.7154
3820.0535
4042.2949
4349.4082
4607.5477
4781.2952
5177.221
5322.3689
5507.9921
5465.1769
5978.428
5777.6264
6021.6835
5996.1311
6158.5426
5953.8963
6191.5958
5891.9377
6054.3985
5789.6743
5810.4635
5609.7348
5504.8954
5245.3038
5056.1888
4756.1592
4557.6469
3951.8306
3978.3397
3646.1399
3008.6088
2793.5198
2401.0686
1861.2209
1515.2795
980.74235
568.58492
22.004855
-399.27153
-997.61386
-1403.5862
-2045.5631
-2480.5866
-3119.0204
-3617.9463
-4230.1647
-4802.4108
-5404.9873
-6015.403
-6648.6153
-7281.3307
-7937.8031
-8598.1852
-9292.1879
-9948.9029
-10664
-11287.848
-12090.892
-12761.215
-13639.062
-14211.18
-14954.094
-15321.572
-15943.502
-16426.646
-16922.994
-17422.108
-17567.468
-18244.944
-17986.207
-18712.109
-18178.186
-18878.4
-18079.054
-18639.665
-17743.668
-18142.458
-17114.666
-16829.874
-16229.537
-15635.883
-14811.29
-13857.123
-14361.509
-11436.461
-12865.99
-10872.39
4751.3812
7460.9115
89.256657
5447.2501
1955.4423
4014.0809
4490.7699
4126.6589
4524.7816
4924.6593
4514.3421
4909.8392
4450.8407
4762.8698
4168.7878
4119.5712
3684.0877
3430.4333
3183.6132
2692.2692
2437.7537
1645.4246
1580.9094
630.15436
834.65766
5.3242673
128.5826
-685.95112
-720.94947
-1322.7507
-1417.3775
-2018.3268
-2021.8224
-2470.9521
-2474.6585
-2797.9545
-2604.1335
-2960.2052
-2754.933
-2884.5261
-2633.9284
-2574.0414
-2293.7298
-2071.5352
-1671.7997
-1345.0208
-808.36765
-347.00384
294.52546
912.41093
1648.3412
2411.9476
3259.9286
4127.1258
5096.7835
6057.151
7101.7901
8157.5029
9250.1933
10347.603
11484.983
12577.672
13711.278
14767.523
15860.075
16838.817
17806.667
18655.778
19617.617
20214.136
20963.292
21243.186
21773.335
22063.912
22133.156
22209.908
22044.894
21737.447
21386.799
20766.23
20121.11
19257.626
18293.204
17188.379
15966.18
14641.009
13161.386
11662.874
10033.841
8276.643
6596.752
4767.1777
2890.3286
829.87545
-259.66456
-8985.3772
951.2273
-649.88189
-1520.0841
-274.47084
-470.01777
-50.88019
84.373922
31.531767
162.95128
520.66091
1024.2874
1961.8357
2526.9269
3467.474
3785.0361
9885.9506
7319.6715
-3057.6482
4390.6402
3710.5285
2716.309
4749.0574
4881.2656
4985.2123
4513.7548
5857.1511
3764.5215
5656.1539
2948.7382
5126.3654
3360.2714
4453.1605
2027.3487
3897.3524
1801.5131
2556.9217
1580.0807
1213.5831
1090.7808
301.3443
348.91611
-393.8805
-339.04881
-1047.75
-698.43658
-1224.0027
-1374.6767
-1535.7072
-1547.5304
-2228.945
-2010.0229
-1264.3914
-1465.3174
-1368.1382
-1180.5128
-882.14026
-594.66564
-214.02619
189.05597
673.54829
1180.3054
1752.0471
2362.8435
3015.31
3711.085
4431.7214
5196.913
5979.4607
6769.5167
7595.6766
8405.7415
9219.161
10035.513
10807.541
11585.902
12300.117
12999.044
13628.434
14222.896
14725.962
15258.667
15527.129
15091.881
17579.966
15701.327
16387.75
16061.627
15903.02
15620.458
15211.791
14688.86
14072.73
13358.371
12458.314
11574.017
10452.679
9392.4515
8072.4063
6848.1288
5313.5436
3928.1928
2245.5966
658.74284
-1088.709
-2814.9313
-4607.4659
-6433.0837
-8258.4472
-9982.272
-7681.7055
-318189.71
-319542.27
-283918.43
-341799
-276972.59
-323000.74
-254189.35
-278469.88
-271545.45
-236314.54
-203051.76
-238707.3
-199895.87
-254673.73
-266211.46
3753.0396
-330.24991
1718.829
934.45522
674.62933
-12.487527
-533.83315
-1107.7925
-1829.2591
-2292.4838
-3020.9134
-3577.9431
-4088.2167
-4820.6955
-5452.1766
-6034.569
-6555.0838
-7070.6303
-7500.936
-7982.5951
-8343.8396
-8765.6988
-9026.4402
-9411.7243
-9471.9119
-9768.3767
-8065.9038
-10585.207
-9777.843
-10392.007
-10124.085
-10126.745
-10038.879
-9898.6336
-9728.2821
-9516.4441
-9270.0001
-8991.6822
-8675.9285
-8339.6768
-7966.7183
-7577.8263
-7158.3993
-6726.985
-6267.5579
-5807.6617
-5311.0244
-4835.5961
-4316.0787
-3821.2034
-3290.6522
-2777.6169
-2237.2855
-1743.7454
-1200.9308
-674.66019
-661.24368
1465.1549
1454.9083
359.31923
2794.7889
2599.0871
2451.6565
2717.327
3941.7853
3912.5909
4111.1718
4632.6281
4455.5756
5266.9629
4969.744
5586.1506
5390.9644
5946.5885
5544.3533
5868.5298
5809.9758
5721.7374
5938.4694
5224.7407
5664.2012
5234.6039
5243.7035
4362.9088
5756.7101
3623.4612
4094.152
3368.128
3901.081
2462.0944
2326.7053
2100.0864
3234.1071
512.7614
5088.0406
2094.9298
2157.109
1936.4382
1987.9605
1946.5528
2135.9322
1875.2048
2126.6433
2040.0045
2229.9153
1805.3732
1750.7842
1664.0501
1568.5411
976.21159
2172.0279
2216.1287
1179.8001
1715.3369
1706.5049
952.75251
1595.9935
2058.6359
1365.4528
2024.4982
1891.2963
1613.1783
1749.6633
1805.1547
1808.3412
-166548.12
-166832.17
-166265.04
-166436.99
-166368.17
-166276.2
-166320.92
-166277.36
-166239.39
-166262.72
-166380.27
-166115.67
-166249.88
-166153.16
-166306.12
-262471.04
-263044.44
-262965.9
-262886.34
-262948.98
-262913.07
-262850.25
-262856.52
-262788.45
-262705.67
-262672.42
-262725.14
-262203.61
-263478.46
-262839.69
1671.6772
-567.94571
351.65452
672.99519
795.35236
1282.7952
1274.0394
1863.204
1826.1152
2569.5209
2368.7866
3159.3073
2956.7398
3779.898
3401.6994
4182.8557
4077.3578
4440.2836
4423.6649
4751.4041
4759.2761
4873.3378
4992.0144
4903.6125
4953.5892
4865.0058
4804.6542
4611.9762
4452.73
4234.4298
3893.2501
3729.3055
3445.8126
3072.4499
2703.1051
2168.5056
1845.0859
1241.3541
848.84198
331.20682
-121.95346
-763.3971
-1231.0059
-1705.6443
-2305.0835
-2776.7934
-3341.259
-3812.1506
-4340.0283
-4772.8291
-5251.6056
-5652.5705
-6059.0194
-6421.1148
-6753.5705
-7065.5619
-7326.6303
-7567.9395
-7773.6731
-7934.8842
-8072.6944
-8148.1199
-8240.978
-8210.5544
-8355.9283
-8042.812
-7270.5305
-6748.2955
-6305.8179
-6544.4403
-6223.2815
-6116.2665
-5777.7785
-5585.0557
-5209.4008
-5042.5844
-4469.3335
-4464.4461
-3667.6723
-3663.3711
-2992.1241
-2641.2334
-2008.9787
-1922.046
-1089.5969
-607.18534
-161.57302
526.19527
1271.6569
943.0881
3087.2646
2857.5182
3164.89
7160.2574
9335.4123
329.75799
-1776.7705
-470.75812
-769.63443
-66.629691
-74.146242
345.68625
468.4348
783.79232
1004.697
1325.854
1641.7095
1903.1265
2252.3768
2507.3933
3047.3841
2942.0375
3614.6335
3652.1981
4114.4203
4104.1187
4520.1604
4462.4585
4834.1227
4827.2948
5019.2115
4940.8706
5080.763
5011.2168
4999.2608
4914.8716
4809.0211
4503.3349
4295.4258
4023.5054
3785.7463
3471.1972
3191.1225
2700.8835
2312.2871
1795.457
1358.5904
841.19292
295.1796
-244.18762
-727.30615
-1305.9738
-1813.4056
-2345.7829
-2853.7351
-3368.4377
-3845.6357
-4312.3754
-4762.1442
-5175.9043
-5565.6097
-5925.4204
-6256.6386
-6544.1083
-6798.0825
-7027.9626
-7197.653
-7373.9984
-7394.1771
-7642.1476
-7216.602
-6289.8615
-722.6742
1588.803
2616.1387
3402.8407
3879.8121
4506.6942
4806.154
5643.9632
5656.2066
6674.1923
6388.1841
7648.2844
6938.1422
8387.2312
7666.676
8688.6265
5803.2051
2289.034
1588.5203
2653.0913
2790.6133
3010.1487
4054.502
4189.8177
3800.584
5775.9328
5210.523
8121.1174
180.92937
-1701.59
-808.19535
-1201.0709
-736.3133
-715.85075
-569.21773
-208.76711
-147.11797
234.934
270.78737
774.20272
777.76439
1315.8051
1368.4136
1818.0774
2001.5027
2431.7272
2496.353
2931.1219
3092.2033
3468.1211
3653.8264
3936.8076
4022.2122
4271.1119
4379.4139
4503.8643
4540.4937
4613.3101
4597.3351
4538.0788
4534.4999
4438.1535
4260.3552
4127.4114
3750.4952
3357.4756
3139.2244
2754.4281
2409.5357
2029.6162
1499.3675
1135.5837
675.02825
200.17111
-314.37455
-771.90665
-1274.0084
-1757.1823
-2204.9909
-2668.2851
-3070.5171
-3492.0465
-3828.558
-4184.2529
-4466.0734
-4730.3939
-4936.429
-5121.258
-5243.4704
-5322.3514
-5374.3538
-5298.6576
-5499.1332
-4063.937
-9557.7116
-2485.0919
-142.0057
501.0755
832.92994
831.29988
1192.9321
1590.2631
1979.412
2270.0227
2694.1266
2937.6405
3312.1489
3506.1513
4033.9485
3831.8807
4704.0784
4856.7397
2225.6926
1895.0482
2295.8399
2378.0148
3667.9128
3541.0085
3953.8113
4764.8403
4384.4659
5186.0148
5315.757
-18.166581
-1040.3784
-680.41774
-911.81039
-703.4133
-798.32867
-547.66945
-500.37198
-451.66164
-286.84311
-106.19695
47.939001
129.08896
521.6464
449.84276
989.08003
841.87265
1405.3224
1341.5978
1884.4064
1794.2943
2281.8237
2188.8577
2600.2967
2611.2619
2943.7297
2931.4905
3209.146
3232.4154
3404.4763
3382.6471
3501.4751
3463.3318
3407.4027
3360.933
3288.4828
3136.3404
3333.1403
2638.6521
2503.2378
2248.3816
2033.0389
1765.4862
1481.5095
1125.1746
812.67042
489.96674
175.58818
-169.39021
-473.13076
-786.03007
-1091.0168
-1360.0091
-1631.7998
-1851.253
-2076.4655
-2234.5729
-2388.7051
-2491.2927
-2562.1538
-2595.9832
-2581.7049
-2554.6469
-2454.094
-2319.8805
-2395.1868
-549.27953
-4294.0101
-4502.4216
-4327.2365
-3576.7768
-2813.0388
-2574.5945
-2490.1682
-2083.6879
-1806.5114
-1253.7195
-1113.0937
-346.26957
-296.75746
528.82606
511.40698
1651.6899
1120.4263
4408.3599
5095.7317
5767.5822
6087.1599
6367.5732
5957.2148
6970.9186
5490.6238
6139.8677
4457.9807
3101.2856
177.14631
-745.96079
-264.77415
-745.93899
-438.56123
-647.40371
-459.09469
-518.00417
-421.56062
-284.50561
-323.32133
-170.55947
-113.79233
51.608708
59.218049
335.97294
297.41442
612.90744
540.52615
869.42551
826.00057
1196.6959
1152.2924
1557.8266
1497.8137
1806.2943
1844.0356
2025.6134
2077.3379
2221.2265
2292.5748
2402.0234
2409.916
2502.704
2453.0602
2500.9158
2841.773
2902.5377
1823.1815
1349.5283
1514.4036
1352.3549
1340.0614
1324.83
1323.3997
1313.0698
1327.3653
1310.6673
1344.4545
1380.6288
1447.8567
1513.6271
1648.8275
1757.851
1942.6226
2114.8208
2351.5889
2584.6365
2863.4741
3162.9388
3484.5053
3827.6732
4173.7453
4590.6893
4946.3769
5374.9664
5773.8517
6357.753
6358.1562
6621.346
7151.9478
7236.2526
7542.1545
5283.3158
4303.7782
4470.0744
4497.8158
5009.2845
5061.7464
5423.5021
5564.1047
5898.3225
5845.9293
6141.67
6239.6843
6208.8569
6765.3077
6208.232
6345.9412
6291.944
5971.2446
5260.6547
4687.7896
3275.8873
-524.53867
61.280301
-219.98496
62.123623
-163.91035
-101.35572
-147.79669
-203.64993
-214.23411
-229.97663
-261.72519
-277.94273
-169.76621
-320.65067
-85.027661
-289.59122
-1.1032576
-218.21385
164.03181
-61.317794
351.70201
124.24337
514.04678
314.4454
664.16294
457.41749
853.75421
659.02076
1006.3203
934.66279
1176.9049
1156.8353
1286.2419
1342.9382
1414.9579
1433.2114
1581.6795
1337.1975
3542.0975
3051.6997
2933.7164
2868.0788
2865.0961
2705.3201
2686.5926
2525.6642
2396.8602
2214.1471
2066.6379
1878.8967
1710.0323
1519.7609
1348.9396
1169.8395
1003.9787
851.88102
710.52992
588.32811
479.53062
410.09803
340.96944
296.34737
320.02575
288.04581
352.96419
400.65775
515.50286
589.71936
666.06645
943.80405
960.45349
1369.3554
1239.6864
377.71238
3731.7359
4505.4326
4348.1231
4638.1051
4745.9385
5070.0639
5038.7267
5571.4518
5075.5444
5891.8852
5254.2628
5821.6766
5440.0655
5857.1167
5338.2097
6065.8014
5099.2605
5418.6278
3912.6692
4293.7404
1809.8363
-2742.2956
225.12055
-224.82712
393.58656
-127.4693
206.5127
-82.718241
10.97791
-164.22118
-135.75962
-263.71467
-263.53856
-370.8501
-391.41554
-388.32678
-518.66222
-399.52824
-554.09927
-454.6193
-642.16116
-426.31056
-676.47133
-343.29803
-638.00917
-294.16381
-465.74805
-218.75894
-313.79849
-83.906673
-166.48177
59.794191
26.667861
249.26103
299.99336
406.3173
569.60952
597.0517
772.55344
615.0448
1325.5941
1314.5605
1363.6913
1460.2015
1495.3901
1556.5154
1584.8705
1608.34
1676.5602
1678.9352
1723.6907
1726.788
1773.1684
1777.2327
1829.9265
1852.1661
1919.9576
1960.64
2053.041
2129.5242
2245.1541
2343.7062
2515.5983
2644.5013
2815.7037
3033.5651
3209.4299
3457.1244
3650.9235
3943.8207
4147.1046
4356.1932
4655.4544
4933.8016
4816.9104
6856.1125
8254.4761
8471.4075
8409.105
8619.7675
8494.6125
8702.8301
8388.9629
8473.6981
8359.8684
7791.1647
8148.4372
7046.106
7378.8714
6237.2168
6174.2964
4781.1251
4721.4069
3578.2473
3389.9598
1191.6753
-3492.0329
241.79553
-5.8790462
343.75059
167.81483
272.39671
138.19992
159.94114
-37.776509
-12.869972
-185.46996
-270.21303
-314.14601
-469.64956
-489.53001
-653.35116
-611.3637
-820.34546
-687.63905
-880.21404
-746.55567
-1037.7815
-829.9515
-1106.8246
-719.63972
-1128.9033
-685.24779
-975.29398
-626.01747
-773.8864
-478.06841
-537.85125
-283.8944
-308.14748
-53.19126
-0.42508451
182.94366
311.19802
516.06213
656.87633
884.02288
964.77003
1186.9025
1309.2718
1494.7012
1592.4079
1799.2694
1912.5784
2098.5902
2240.3943
2433.0381
2588.6827
2788.0071
2969.8073
3175.7779
3381.3196
3601.2283
3834.4958
4068.0684
4313.0893
4580.5097
4835.8133
5097.3872
5381.7111
5652.5151
5906.1103
6180.4494
6429.6806
6699.0103
6858.2199
7187.0072
7234.5079
7431.7978
7714.5118
7561.1866
7685.2408
7637.6469
7683.1692
7560.1044
7555.6085
7239.1635
7212.9704
6803.8133
6581.0498
6087.2716
5902.6634
4977.2421
5138.045
3787.4095
4097.3829
2841.7147
3398.6146
1370.8131
1941.1857
-48.42411
-3778.4207
442.17693
-103.82858
501.37417
-23.125853
202.4921
-145.40331
-22.013212
-418.13688
-364.34091
-711.90728
-765.97684
-999.21371
-1138.0995
-1284.8967
-1447.5102
-1547.9654
-1688.7901
-1772.0474
-1929.6057
-1894.8673
-2016.0449
-1712.168
-1826.603
-1769.0315
-1876.1083
-1679.769
-1839.7995
-1583.1447
-1687.1539
-1425.5893
-1436.3426
-1213.9946
-1089.5278
-881.69671
-758.9949
-476.69177
-343.66492
-68.788958
117.22775
354.93162
621.22485
851.71009
1164.2829
1401.0309
1741.2186
2003.6138
2327.5656
2605.2636
2932.5709
3219.1447
3549.7154
3849.5939
4179.9368
4491.9399
4822.4649
5143.4905
5478.1703
5787.0069
6139.9322
6439.7465
6765.3991
7081.6269
7387.1269
7671.094
7950.9993
8249.6263
8473.0798
8694.5314
8954.4247
9074.6656
9248.5234
9454.8925
9472.6435
9508.3025
8740.8714
7691.543
7753.2416
7622.3882
7329.8884
7325.2975
6811.7717
6762.4199
6258.2338
5941.7685
5659.4731
4831.6641
4944.6728
3442.999
3788.8881
1971.2741
1572.261
194.52069
724.67936
-1113.2821
-2766.0575
839.52397
184.55908
718.37646
162.3686
494.00766
217.42604
357.92466
8.4127796
27.087091
-148.24176
-330.15128
-468.4004
-623.392
-823.63631
-908.5314
-1127.3481
-1191.8209
-1375.3335
-1380.359
-1575.0456
-1725.2268
-1909.8289
-2247.2109
-2150.1035
-2321.6707
-2143.4759
-2279.1249
-1992.9227
-2118.0102
-1789.2469
-1868.685
-1531.8194
-1508.7064
-1260.9463
-1064.9353
-856.23174
-636.39835
-360.05447
-173.24232
170.77819
388.41607
710.73269
936.6175
1264.1917
1488.2767
1807.936
2065.3985
2378.3602
2651.6069
2963.9067
3247.9822
3547.6286
3843.0073
4136.4476
4424.9603
4719.662
4991.6672
5277.63
5549.4006
5790.7417
6060.7708
6289.5315
6495.0379
6710.8035
6907.9355
7053.7905
7169.6241
7348.991
7347.9482
7455.446
7486.8427
7423.2507
7586.6334
7424.1122
969.11753
-4295.7537
-3787.0407
-4236.1405
-4445.3325
-4959.6114
-5050.5292
-5436.8686
-5687.8077
-5748.4699
-6158.4169
-6131.9281
-6246.8621
-6679.7304
-5960.06
-7220.8346
-5475.3026
-6540.1956
-5317.751
-6230.6853
-2295.5115
541.41097
403.8525
759.65672
103.60078
605.3212
13.043516
252.79179
-214.71997
-57.139314
-434.65186
-501.8444
-752.63702
-813.28378
-1130.173
-1021.0914
-1511.5754
-1139.3083
-1770.3275
-1277.4796
-1896.5791
-1409.0113
-1874.3747
-2264.1354
-2727.1525
-2755.0833
-2879.4438
-2741.8849
-2770.8324
-2667.3994
-2563.6486
-2473.863
-2259.4796
-2177.4891
-1873.8747
-1779.1956
-1496.1386
-1283.2453
-1043.9276
-738.88091
-517.3993
-184.38124
38.826599
402.33646
667.25215
1023.7189
1319.3112
1677.1787
1969.4018
2324.4027
2631.0287
2965.9038
3275.6169
3605.2548
3899.5427
4213.673
4497.1094
4782.5312
5051.8022
5303.0756
5539.7246
5778.3212
5952.4617
6151.6525
6319.9408
6431.2357
6559.2406
6675.3189
6709.0479
6773.0377
6823.8562
6747.8191
6818.1297
6777.155
7445.4426
10500.918
1018.2047
2086.8562
1949.6639
1577.8898
1535.5558
1235.0128
1064.7128
930.52049
699.29515
555.92945
521.91152
274.36798
225.8708
273.89505
-295.29009
98.540123
-1621.9118
-948.38509
-1832.4767
2382.3093
1863.2195
698.5525
1173.9936
868.39931
1139.7504
857.77709
948.39548
634.3981
626.68926
378.82639
166.53455
-78.391325
-168.73343
-601.38734
-689.48747
-980.84741
-1161.0967
-1425.6429
-1540.0621
-1811.391
-1859.0862
-2014.8852
-1915.3016
-2418.5498
-2612.2333
-2746.1829
-2778.702
-2710.4521
-2729.8186
-2589.1038
-2564.2294
-2417.5749
-2313.9409
-2155.775
-2005.9521
-1754.3349
-1608.8258
-1309.7416
-1153.726
-835.83516
-646.96448
-313.31292
-105.63718
214.62255
439.61383
734.10842
986.28304
1253.4948
1516.2087
1766.0669
2012.4374
2245.9859
2472.4913
2676.7233
2876.4948
3050.9124
3217.5537
3352.81
3480.799
3586.4329
3658.8992
3722.8594
3767.1151
3765.728
3741.4111
3758.0701
3643.523
3621.7506
3520.7878
3354.0446
3275.3903
3049.3142
2899.049
2680.1517
2507.9221
5350.8358
6241.0349
5741.7967
5552.6682
5189.2715
4899.2289
4582.9658
4108.4098
3830.4947
3210.5525
3061.9612
2101.421
2149.4788
1210.929
510.03206
423.30439
-1211.2241
-538.67028
-2742.7098
2126.314
2336.8196
1846.4646
2161.5026
1683.4546
1868.7153
1495.3422
1677.2164
1220.4134
1338.1504
951.00356
769.0978
570.1619
185.47477
-81.941935
-312.25157
-723.49346
-892.46956
-1320.4229
-1428.0366
-1942.7039
-1862.5176
-2548.1189
-2071.6383
-2416.0379
-2114.0878
-2692.5534
-2428.9116
-2750.5638
-2618.2788
-2707.0393
-2676.064
-2609.63
-2570.0336
-2461.7091
-2371.156
-2267.9032
-2106.0071
-2008.1421
-1785.7595
-1691.2944
-1439.8872
-1316.8428
-1082.2346
-915.69905
-693.97572
-519.78523
-293.79703
-133.98547
77.655201
235.06264
417.88178
563.00596
721.70024
842.65337
967.93934
1070.3859
1155.7522
1222.4784
1284.7606
1305.9753
1327.8618
1330.9541
1298.6171
1276.1008
1203.9628
1176.9199
1007.6606
971.39498
795.90791
742.50837
531.60333
498.0037
229.06979
166.7826
18.321334
65.480087
-477.07891
-634.96797
-903.42667
-978.92847
-1150.8404
-1300.6397
-1373.3486
-1496.7384
-1512.7428
-1581.8779
-1639.9676
-1207.161
-1916.4544
-738.20081
-1440.7528
-1377.6774
-1615.6661
-3206.5048
2010.8243
3229.7743
1925.2885
2629.0927
2273.3293
2860.6391
2788.0375
2976.6454
3032.4847
3062.0526
3005.767
2889.0756
2656.6792
2623.2865
2241.0246
2196.4785
1729.6741
1642.0362
1187.6024
1159.0336
686.16559
693.17775
169.19099
109.18103
-378.08443
-374.07018
-688.57349
-707.31333
-946.25605
-979.37786
-1117.1181
-1134.7724
-1207.5217
-1208.4641
-1188.3017
-1229.6176
-1170.8301
-1182.54
-1068.2924
-1086.0454
-943.25717
-922.95728
-800.00313
-756.88458
-657.23555
-603.45555
-536.08877
-476.54028
-446.45571
-402.59611
-397.01452
-391.18405
-419.94321
-447.61135
-524.19689
-594.74425
-707.71562
-836.83941
-987.3188
-1160.9054
-1359.7538
-1574.739
-1805.1589
-2067.4466
-2322.6023
-2628.7852
-2847.3077
-3224.2107
-3380.1979
-3780.3053
-4094.9071
-4309.2554
-4673.0425
-4880.747
-5140.2745
-5383.1782
-5592.9666
-5732.0303
-5860.0181
-5974.6841
-5984.7582
-6106.6255
-6010.3002
-6051.2239
-5878.8027
-5860.3193
-5597.9911
-5399.7204
-5191.2229
-4981.213
-4064.1233
-4858.0158
-3145.9391
-3636.3253
-4042.9594
2815.8466
4452.6321
896.54968
2876.9799
1481.7295
2712.6244
1936.3127
2673.1754
2602.8246
2755.5906
2829.1882
2596.4257
2694.9967
2564.0579
2287.2938
2453.6717
1734.9432
2063.5763
1245.2116
1678.873
800.10985
1368.3724
283.38459
809.25349
-320.55193
143.22912
-689.10768
-401.06435
-1012.2172
-912.11702
-1216.9119
-1296.1147
-1521.3498
-1597.4559
-1789.0662
-1963.2781
-2105.2911
-2130.0858
-2332.1646
-2351.8975
-2510.7959
-2560.8707
-2685.2351
-2740.3277
-2842.9756
-2898.0477
-2994.0395
-3041.7524
-3137.6271
-3184.6449
-3263.8945
-3326.3815
-3390.043
-3444.7371
-3510.5802
-3553.6146
-3602.8619
-3643.2429
-3672.7541
-3692.6232
-3710.9508
-3706.5705
-3693.916
-3669.1921
-3635.786
-3575.7158
-3478.9157
-3520.8005
-3310.0357
-3310.8132
-2910.458
-2956.6838
-2548.8395
-2521.9792
-2148.2714
-1988.0321
-1617.7413
-1403.3012
-1019.0537
-691.56967
-298.10616
95.738992
568.47642
993.0887
1535.9676
1996.9094
2671.5361
3070.0927
3858.0898
4422.2375
5057.4081
5607.808
6985.7763
6526.9087
8774.8587
10411.17
-464.40091
-238.40207
-460.96594
-627.56795
-519.72851
-565.00564
-564.82336
-525.19912
-466.89879
-298.84079
-526.57141
-537.29495
-445.21848
-633.32603
-881.30158
-915.68238
-830.77395
-875.49875
-795.25594
-889.40019
-924.59554
-903.66091
-981.69223
-855.8841
-961.95639
-953.66857
-908.99026
-1104.7744
-1134.0114
-1449.7259
-1124.7121
-1267.5655
-1151.5379
-1159.6972
-1179.4799
-1160.6672
-1139.5366
-1193.6747
-1177.9765
-1177.5952
-1142.4289
-1253.2657
-1333.2312
-1422.44
-1438.5319
-639.65757
-498.51443
-486.72233
-536.19118
-525.12543
-538.35924
-540.1585
-565.94437
-519.3837
-550.15226
-549.99232
-594.68741
-616.07859
-746.90834
-895.11506
-252.11146
-255.40901
-286.95915
-301.70669
-336.15992
-341.18927
-351.33461
-322.3968
-380.12195
-380.85229
-391.37909
-398.09843
-441.0161
-561.10959
-497.72488
102.25267
85.953086
64.538552
85.427391
55.668447
42.873723
26.105399
27.581988
24.096959
21.859711
36.847096
-1.7636075
-4.8954027
-52.35654
-94.559089
107.53824
119.54454
77.70737
48.857019
56.07413
30.150486
30.011695
1.9908701
3.4409587
11.28902
-12.243946
18.896376
10.138463
31.282247
-62.392202
129.61368
99.75384
55.312548
73.77532
48.308951
51.534541
42.719685
34.562034
62.158054
27.879114
52.26467
43.625815
35.018258
26.192019
-4.8258785
-7.8466774
46.210135
-47.454111
-38.558651
-65.799374
-85.19555
-84.345136
-70.599273
-88.6189
-45.697209
-64.946327
-13.726559
-38.259703
81.520564
34.469273
312.00351
242.77077
104.41128
109.49364
47.884975
52.333184
57.642393
46.070296
61.989133
33.120629
139.07412
61.713248
182.35344
383.08185
130.64427
348.57074
441.66394
154.9819
154.06366
36.801819
89.974589
25.003646
78.915043
33.186658
98.546316
155.6442
213.5346
361.48122
766.80388
445.41197
1375.4424
949.90452
733.92634
449.81688
494.21427
351.97132
387.86871
335.51032
371.68669
437.59218
516.4521
476.53924
884.52248
1367.6008
1107.8399
1583.9312
1846.501
1030.4967
1072.0443
776.36011
883.86767
675.73516
795.3387
834.52236
807.6016
977.35422
973.601
1275.2993
2113.3613
1710.5052
2778.7739
2226.7638
1669.4945
1601.2241
1489.3681
1512.2452
1563.7706
1589.8694
1559.6514
1384.9053
1429.4412
1373.7027
1481.1773
2075.5047
1235.244
1555.1267
1572.9526
903.79776
677.49835
489.52029
583.88922
559.67636
607.67758
397.86772
430.63101
403.50374
569.28379
883.99603
1476.387
1627.3423
6829.8827
8449.8642
7209.3134
8367.453
8926.0576
8525.417
9152.7133
9616.4704
8847.7069
9297.9881
9210.2924
8818.2367
8635.8787
9180.6778
6949.4201
5346.8034
2462.3355
4331.1958
3567.5775
3633.5314
4276.0772
4180.8549
4477.5629
4845.9089
3641.0729
3910.2938
3145.1688
3317.1133
4746.3484
4086.1356
3938.2731
4574.2056
3676.0773
4229.6866
5281.2827
3623.3907
3691.3054
3841.036
2673.7196
4445.0467
3567.3171
5301.9446
4344.6191
2774.3544
4049.3482
2356.2732
3266.2145
3277.0177
1858.0795
2248.6239
2540.5212
1935.0736
2385.1418
2409.4945
1740.6789
2515.3937
2160.9119
2568.0732
3570.5261
1765.3327
6110.8714
5788.1637
5284.0875
6620.1819
5397.5763
5764.0388
6255.2371
5923.832
6314.3165
6928.0167
6060.6355
6413.2291
5616.0026
5144.9225
6606.1228
3467.0848
4038.7975
3811.7689
3547.0932
4035.1086
3958.805
3551.9664
3549.2898
3509.8753
3010.7045
3847.529
3646.7378
3585.4143
4570.8637
3107.8378
5010.5773
5609.0692
5539.2706
5789.5422
5390.03
5810.3249
5815.8475
5765.5788
5856.1371
5905.8398
5362.3908
5717.0219
5561.385
4842.1501
6174.4111
5136.7064
4667.4233
4727.5654
4987.021
5259.7688
4823.1377
4976.2886
5095.6755
4701.9847
5293.0616
5163.0075
5065.7606
5190.276
4503.8084
4975.1712
4974.7314
5502.277
5635.2969
6148.5576
5669.5618
6090.0915
5957.6596
6014.9102
6273.9893
5747.9557
5866.5752
5510.6476
5609.1685
5292.2895
5488.2742
5366.8349
4741.8368
4854.0281
4801.8291
4949.7774
4742.4009
4886.9345
4893.1982
4447.8432
5346.5222
4425.8016
5166.8108
4586.6206
4734.7752
5055.6582
4899.7661
5246.5925
5237.3893
5669.1056
5640.769
5982.8732
5863.0182
5872.762
6086.1387
5475.6478
6229.5996
5594.3453
5788.1739
5527.0205
5866.1394
4933.2398
4546.7666
5032.2913
4889.9401
4865.5666
4813.2306
4764.2997
4711.4745
4357.0238
4715.591
4276.2288
4466.0848
4297.7005
4130.7225
4694.6164
4823.1777
4855.426
4390.4122
5023.4217
4926.867
5119.8785
5234.0656
5096.6664
5411.2832
5203.0837
5444.0984
5125.521
5208.3778
5162.9551
5183.8501
4398.8252
4416.9846
4524.3259
4370.9336
4487.252
4653.3793
4258.2934
4497.0521
3929.095
3960.5041
3626.1033
3798.3257
3621.7195
3448.228
4160.6417
4432.4963
4114.915
4168.6029
4539.3603
4571.4689
4250.6662
4288.4302
4440.7982
4832.1404
4714.5711
5139.1466
4830.1256
5004.5959
5002.996
4943.4857
3756.0325
3958.4575
3773.4634
4233.9573
3484.4174
4259.4016
3925.6323
3775.7285
3293.875
3438.5609
2911.3766
3067.5373
2595.0807
2779.6366
3553.6574
3616.9151
3337.6799
3497.1766
3406.2272
4021.2461
3531.3127
3757.918
3498.4491
3995.1119
3788.5385
4294.5365
3982.9001
4555.9718
3926.2662
4580.5464
3287.3391
3250.0588
2928.6428
2972.459
2912.3246
3314.1558
3253.2976
3320.9409
2823.8393
3018.9131
2555.2684
2599.2967
2342.6639
2235.7057
2639.149
2997.7958
2719.5238
2956.0033
3019.9095
2966.5383
2635.8487
2785.3924
2667.8477
2989.729
2766.7231
3196.4583
2930.1271
3283.9791
3281.7417
3857.1839
2202.5198
2285.0309
2106.8787
2398.9775
2231.1858
2778.2969
2204.0176
2431.4314
2283.3023
2395.4103
1869.3652
2305.0929
1976.1721
1865.0136
2095.7866
2532.2439
1919.2583
2138.844
1872.1183
2146.7143
1648.6496
2286.8714
1899.8984
2108.121
1706.8048
2104.9731
1828.1632
2386.2359
2248.8966
2887.7098
1324.6646
1660.2737
1265.3306
1768.5447
1324.5944
1913.7568
1265.3122
1801.2663
1334.9848
1807.9842
1503.2301
1737.1694
1585.7392
1032.5598
1789.6786
1734.4796
937.18115
1301.9315
980.68453
1350.3874
948.68537
1336.4379
1022.2872
1346.4431
1063.3093
1260.0677
898.3117
977.06497
1114.2002
1353.0044
724.80224
910.91997
537.40144
1013.0795
631.07912
908.34568
606.12593
746.1642
640.02828
738.95062
576.85318
876.90027
933.80451
634.58129
1150.4183
821.44294
305.73904
310.63556
222.0305
552.64125
60.524226
590.22637
299.40431
462.62497
283.79089
320.29873
282.75333
249.0758
164.7853
529.42383
-10.28005
102.76924
-78.999669
62.10325
-209.03975
193.78598
-206.3402
30.741953
-157.89952
-66.170802
149.30279
-24.073455
185.09029
101.79887
428.19735
-198.6924
-430.70704
-224.67387
-402.02022
-129.47188
-458.94396
-213.12052
-355.80922
-306.12927
-337.36052
-299.62154
-406.44167
-323.32333
-649.61871
-48.614197
-616.74935
-609.92148
-1029.5344
-633.46398
-645.51269
-736.3015
-722.68566
-769.14226
-618.22454
-768.19147
-578.77321
-918.20334
-587.04317
-567.27389
-377.39949
-974.37655
-1007.9825
-676.31029
-1094.6668
-1016.0836
-1079.2969
-923.83448
-1033.978
-900.06593
-1013.2823
-884.45592
-871.23016
-939.75677
-1257.6871
-591.38735
-1091.6984
-1377.4897
-1482.6594
-1226.1094
-1298.4898
-1259.9819
-1260.1192
-1337.556
-1337.0852
-1427.2844
-1325.6394
-1441.7063
-1489.1337
-1310.0272
-1103.6486
-1532.9784
-1509.0362
-1419.4386
-1476.2055
-1530.8946
-1366.9585
-1494.2875
-1637.1107
-1742.229
-1556.1346
-1482.0951
-1571.8965
-1388.6229
-1697.0704
-1234.5851
-1681.0675
-1680.2842
-1827.2473
-1753.1047
-1755.5446
-1858.4541
-1808.681
-1768.0487
-1691.1979
-1780.9396
-1849.5436
-1782.9141
-1792.6227
-1827.4789
-1415.7747
-1814.702
-1973.172
-1930.7843
-1894.5191
-1877.0003
-1982.3268
-1880.523
-2019.2948
-1883.5002
-1999.1622
-1854.7935
-1964.2207
-1870.2279
-1998.3328
-1610.7002
-1976.9347
-2061.1374
-2091.6043
-2082.9643
-2091.926
-2063.1429
-2114.5967
-2058.2989
-2126.2544
-2077.1287
-2137.92
-2062.4605
-2104.2736
-2118.4632
-1772.7349
-2108.3036
-2193.4621
-2070.4307
-1930.3628
-2086.4405
-2194.7359
-2109.3289
-2175.4125
-2109.4256
-2092.4255
-2043.5332
-2105.3968
-2002.9053
-2063.2497
-1705.1774
-1987.2069
-2164.7724
-2309.3309
-2013.4148
-2329.448
-2279.7167
-2219.2898
-2299.1435
-2078.3615
-2584.1699
-2168.509
-2293.3374
-2109.53
-2403.9181
-1757.4622
-1860.8946
-2473.5034
-2297.5684
-2496.417
-2151.2519
-2395.8736
-2184.3984
-2384.701
-2264.8616
-2534.6091
-2340.7168
-2183.7113
-2314.1787
-2190.9372
-1953.128
-2291.4189
-2111.0603
-2144.0751
-2035.7295
-2224.3375
-2106.6495
-2237.059
-2149.8523
-2198.7263
-2072.5631
-2119.4025
-2256.1176
-2081.2245
-2304.5495
-1798.7666
-1866.1229
-2172.858
-2061.9296
-2152.6906
-1987.8623
-2174.5953
-2014.9047
-2152.7201
-2073.7825
-2092.8256
-2104.3722
-1999.8361
-2074.5305
-2129.4902
-1615.9438
-1862.2754
-1929.3038
-1973.3576
-1834.9396
-1961.6254
-1910.4088
-1956.6686
-1975.3447
-1917.3421
-2000.7625
-1917.007
-1966.445
-1941.2843
-1968.0337
-1534.2419
-1546.5359
-1784.3468
-1660.0906
-1750.1071
-1646.6164
-1777.5432
-1694.3156
-1750.1336
-1731.4675
-1730.7393
-1732.716
-1717.7531
-1673.8387
-1787.7586
-1281.3945
-1341.4779
-1460.791
-1497.574
-1399.0535
-1451.8098
-1474.9397
-1444.6526
-1524.1399
-1454.821
-1502.7071
-1499.423
-1431.3405
-1480.0956
-1515.7538
-1004.264
-930.00945
-1213.4432
-1060.8439
-1122.9592
-1068.7326
-1156.5615
-1117.4391
-1167.9346
-1126.6201
-1177.4971
-1130.683
-1141.7254
-1128.83
-1191.221
-665.29922
-613.02103
-767.49944
-746.51806
-725.59329
-738.715
-805.06699
-754.9945
-810.58827
-792.79441
-781.09125
-824.41689
-747.4179
-782.36539
-831.46527
-282.4738
-81.553412
-381.98469
-235.42562
-284.56
-265.05771
-342.87359
-275.10409
-368.12965
-302.00716
-359.27268
-346.73971
-305.85115
-343.38378
-389.35607
181.01366
371.2229
147.93207
233.91959
198.87597
186.38176
132.26866
166.45357
122.79803
123.48652
144.60372
98.88848
174.88743