/*--------------------------------*- C++ -*----------------------------------*\
  =========                 |
  \\      /  F ield         | OpenFOAM: The Open Source CFD Toolbox
   \\    /   O peration     | Website:  https://openfoam.org
    \\  /    A nd           | Version:  6
     \\/     M anipulation  |
\*---------------------------------------------------------------------------*/
FoamFile
{
    version     2.0;
    format      ascii;
    class       pointVectorField;
    location    "1.18";
    object      lm;
}
// * * * * * * * * * * * * * * * * * * * * * * * * * * * * * * * * * * * * * //

dimensions      [1 -2 -1 0 0 0 0];

internalField   nonuniform List<vector> 
28033
(
(0 0 0)
(0 0 0)
(-5061.1397 1505.8045 16.821434)
(-4443.5048 2603.0069 -2.2154773)
(0 0 0)
(0 0 0)
(-4418.0951 2611.7461 0.22202415)
(-5029.7506 1510.4014 16.295029)
(0 0 0)
(0 0 0)
(0 0 0)
(0 0 0)
(0 0 0)
(0 0 0)
(0 0 0)
(0 0 0)
(0 0 0)
(0 0 0)
(0 0 0)
(0 0 0)
(0 0 0)
(0 0 0)
(0 0 0)
(-5022.6073 1573.3462 15.235638)
(-4984.3254 1641.1699 13.727144)
(-4946.0646 1709.2145 12.065335)
(-4907.7256 1777.2331 10.522915)
(-4869.3967 1845.4842 8.9277213)
(-4831.0078 1913.8516 7.4934667)
(-4792.5523 1982.3242 6.141323)
(-4754.1016 2051.005 4.8956132)
(-4715.5217 2119.8092 3.8074162)
(-4676.9101 2188.7477 2.8146403)
(-4638.2521 2257.7991 1.9055449)
(-4599.505 2326.8569 1.0951042)
(-4560.7323 2396.0687 0.21416909)
(-4521.8737 2465.2155 -0.53972606)
(-4482.7781 2534.4317 -1.3661696)
(-1.1711455 -2.7654119 -6.3074893)
(3.4683974 -7.4232262 -9.0586442)
(6.9360308 -13.354142 -12.672787)
(9.188883 -20.705473 -13.965146)
(10.642307 -29.349942 -15.752142)
(10.562473 -39.078011 -16.883712)
(9.0115047 -49.872613 -18.247643)
(5.8092047 -61.364053 -19.44645)
(0.86075222 -73.784225 -20.809055)
(-6.0422466 -86.814125 -22.356084)
(-14.907483 -100.54281 -24.12176)
(-25.969949 -114.6203 -26.007749)
(-39.234728 -129.16675 -28.377764)
(-54.983116 -143.93196 -30.810613)
(-73.089697 -158.95476 -33.730553)
(-93.875822 -173.87761 -36.805818)
(-117.2768 -188.68084 -40.262368)
(-143.51794 -203.22846 -43.88736)
(-172.63966 -217.46162 -47.720537)
(-204.71626 -231.01236 -51.713055)
(-239.8848 -243.87095 -55.707059)
(-278.26652 -255.78056 -59.615398)
(-319.87819 -266.54043 -63.422241)
(-364.86139 -276.01706 -66.798409)
(-413.14845 -283.90477 -69.784312)
(-464.81881 -290.03518 -72.155899)
(-519.8584 -294.19277 -73.838042)
(-578.15565 -296.18237 -74.611811)
(-639.44866 -295.69876 -74.506519)
(-703.84381 -292.86441 -73.380046)
(-770.61023 -287.13174 -71.222878)
(-839.64151 -278.77663 -68.112539)
(-910.56088 -267.75576 -64.036389)
(-982.85386 -253.86067 -59.230081)
(-1056.0445 -237.42816 -53.555238)
(-1129.4478 -218.42248 -47.518725)
(-1202.7146 -197.33278 -41.251256)
(-1275.263 -174.20161 -34.847892)
(-1346.5157 -149.49804 -28.654344)
(-1416.2249 -123.57759 -22.909887)
(-1483.9333 -96.814231 -17.760571)
(-1549.485 -69.600303 -13.420352)
(-1612.6826 -42.296743 -10.009202)
(-1673.5659 -15.280462 -7.6314276)
(-1732.2042 11.167206 -6.2672047)
(-1788.8191 36.797214 -5.941987)
(-1843.7162 61.44065 -6.5286147)
(-1897.2813 85.014022 -7.9146586)
(-1949.957 107.49741 -9.9125445)
(-2002.2146 128.96156 -12.32598)
(-2054.5334 149.53027 -14.932184)
(-2107.3632 169.39652 -17.516835)
(-2161.1175 188.78492 -19.873239)
(-2216.1298 207.94998 -21.826406)
(-2272.6645 227.15641 -23.236825)
(-2330.8793 246.65228 -24.011096)
(-2390.8484 266.67296 -24.106543)
(-2452.5404 287.40888 -23.531779)
(-2515.8522 309.00902 -22.338816)
(-2580.5938 331.57396 -20.628893)
(-2646.5445 355.14745 -18.523367)
(-2713.4231 379.73623 -16.175956)
(-2780.9727 405.27687 -13.735684)
(-2848.9069 431.72547 -11.349941)
(-2917.0076 458.94448 -9.1651584)
(-2985.0639 486.83793 -7.2599976)
(-3052.9345 515.30395 -5.7329149)
(-3120.5505 544.23147 -4.5954881)
(-3187.8766 573.49265 -3.8310855)
(-3254.9833 603.10038 -3.4423415)
(-3321.8924 632.96516 -3.3049702)
(-3388.7666 663.1043 -3.3312401)
(-3455.7361 693.52482 -3.4094202)
(-3522.9221 724.2513 -3.4206641)
(-3590.4975 755.36984 -3.2707975)
(-3658.5214 786.87695 -2.8426581)
(-3727.1425 818.89934 -2.1043121)
(-3796.3258 851.38971 -0.98782208)
(-3866.1605 884.47644 0.4702493)
(-3936.5146 918.08121 2.2733884)
(-4007.4208 952.27249 4.3395743)
(-4078.6615 986.98074 6.5844709)
(-4150.2097 1022.1985 8.9011147)
(-4221.8623 1057.8424 11.216699)
(-4293.5553 1093.8434 13.367203)
(-4365.1115 1130.2465 15.311125)
(-4436.4338 1166.8651 16.92349)
(-4507.4665 1203.751 18.190184)
(-4578.093 1240.846 19.034074)
(-4648.3593 1278.0462 19.522332)
(-4718.1435 1315.5335 19.622051)
(-4787.6091 1353.066 19.391129)
(-4856.624 1390.9301 18.989646)
(-4925.2256 1428.863 18.279738)
(-4993.5812 1467.072 17.552206)
(-1.5823691 7.8178014 5.7563376)
(5.6491244 10.534531 15.607745)
(13.99494 13.301253 22.901015)
(21.28181 19.80117 30.726728)
(25.867302 26.287364 36.557093)
(30.838987 34.310583 42.837473)
(33.168517 41.724011 47.963462)
(34.670964 51.273207 52.872457)
(33.81947 60.943981 57.202022)
(31.869158 71.29651 61.188556)
(27.653334 82.880792 64.579516)
(21.797907 94.942605 67.514371)
(13.776603 108.1954 69.91756)
(3.915165 122.26511 71.901342)
(-8.1079726 137.18645 73.299955)
(-22.238627 153.47192 74.306225)
(-38.538985 170.35388 74.641193)
(-57.116001 188.7908 74.674812)
(-78.062307 208.07383 74.125172)
(-101.34972 228.66265 73.068296)
(-127.25572 250.33569 71.598436)
(-155.74056 273.39212 69.573979)
(-186.89554 297.28773 67.049007)
(-221.18712 322.78238 63.957011)
(-258.13527 349.06152 60.323677)
(-298.3383 376.51248 56.061978)
(-341.56026 404.95358 51.321081)
(-388.03582 434.10415 45.799087)
(-437.56889 464.05207 39.908188)
(-490.19641 494.35307 33.254725)
(-545.70643 525.09441 26.332088)
(-603.83016 555.83173 18.902984)
(-664.2661 586.41312 11.306817)
(-726.71821 616.64986 3.5778373)
(-790.60265 646.2518 -4.0768686)
(-855.54294 674.95397 -11.350882)
(-920.94183 702.67616 -18.251798)
(-986.23679 729.26865 -24.365143)
(-1050.9613 754.58294 -29.602163)
(-1114.6104 778.59693 -33.757875)
(-1176.7299 801.31481 -36.695897)
(-1236.9866 822.81888 -38.324328)
(-1295.0965 843.2361 -38.580318)
(-1350.9266 862.76166 -37.480462)
(-1404.4227 881.63065 -35.076736)
(-1455.6753 900.12419 -31.490171)
(-1504.8633 918.54155 -26.879133)
(-1552.2767 937.19681 -21.45318)
(-1598.2787 956.39977 -15.444726)
(-1643.2965 976.43762 -9.1094548)
(-1687.7887 997.56792 -2.7054228)
(-1732.2248 1019.9985 3.5180715)
(-1777.0581 1043.885 9.3334697)
(-1822.6982 1069.32 14.547554)
(-1869.4996 1096.3331 19.009178)
(-1917.7349 1124.8929 22.617296)
(-1967.5938 1154.9108 25.320855)
(-2019.1747 1186.2517 27.122356)
(-2072.4869 1218.7435 28.068774)
(-2127.4578 1252.1931 28.250249)
(-2183.95 1286.3958 27.786261)
(-2241.7674 1321.1557 26.818137)
(-2300.6847 1356.289 25.498112)
(-2360.4602 1391.6471 23.97278)
(-2420.8535 1427.1031 22.388403)
(-2481.6471 1462.5939 20.853537)
(-2542.6628 1498.063 19.474735)
(-2603.7499 1533.5273 18.312463)
(-2664.8638 1568.9995 17.382892)
(-2725.8953 1604.5429 16.73689)
(-2786.8886 1640.2535 16.319501)
(-2847.9488 1676.1657 16.098015)
(-2909.0936 1712.4242 16.022141)
(-2970.481 1749.0232 16.037517)
(-3032.2019 1786.0578 16.082566)
(-3094.3964 1823.5294 16.091517)
(-3157.1552 1861.447 16.027546)
(-3220.5804 1899.7911 15.840757)
(-3284.7047 1938.4945 15.523326)
(-3349.5818 1977.5249 15.054358)
(-3415.1852 2016.7714 14.446908)
(-3481.5014 2056.1842 13.699171)
(-3548.4597 2095.6619 12.842481)
(-3615.9989 2135.1564 11.883657)
(-3684.0276 2174.5882 10.853861)
(-3752.4615 2213.9432 9.7581694)
(-3821.2161 2253.1742 8.6200423)
(-3890.2098 2292.2991 7.4370418)
(-3959.376 2331.3064 6.2242575)
(-4028.6535 2370.2355 4.9793488)
(-4097.9967 2409.0934 3.7089649)
(-4167.3467 2447.9147 2.4353841)
(-4236.6789 2486.6852 1.1767173)
(-4305.889 2525.5185 -0.065240688)
(-4374.9808 2564.1716 -1.1755909)
(0 0 0)
(0 0 0)
(0 0 0)
(0 0 0)
(0 0 0)
(0 0 0)
(0 0 0)
(0 0 0)
(0 0 0)
(0 0 0)
(0 0 0)
(0 0 0)
(0 0 0)
(0 0 0)
(0 0 0)
(-2.1622941 1.1339396 -1.4298473)
(4.6544807 7.4770348 -8.1121178)
(14.324862 8.8425622 -13.637646)
(19.341386 19.613534 -17.828464)
(24.312611 23.784526 -20.446844)
(27.172208 34.79895 -23.695207)
(29.380428 43.0822 -25.541955)
(28.905049 55.529807 -28.124243)
(28.051489 66.37708 -30.367592)
(24.924949 80.428757 -32.394264)
(19.834161 94.24471 -34.968548)
(14.130252 108.95237 -37.09909)
(5.3084936 125.7571 -39.730851)
(-3.8153805 141.92769 -42.395413)
(-16.313486 161.05895 -45.277348)
(-29.293391 178.4912 -48.463537)
(-44.894025 199.64809 -51.835352)
(-62.521412 218.82722 -55.227016)
(-81.700173 241.48701 -59.150211)
(-103.91009 262.88345 -62.93851)
(-127.58795 286.15124 -67.00758)
(-154.12268 310.07075 -70.764927)
(-183.3794 334.50704 -74.734858)
(-215.42398 359.5151 -78.026853)
(-250.37577 385.16632 -80.892159)
(-288.8249 411.3932 -83.127098)
(-329.85187 437.91464 -84.244836)
(-375.1569 465.45192 -84.873329)
(-423.16326 492.33115 -83.808431)
(-474.94438 520.40858 -82.041262)
(-529.84917 547.80769 -78.870411)
(-587.6487 575.28301 -74.614791)
(-648.2107 602.5168 -69.242978)
(-710.94192 629.18596 -62.968926)
(-775.42782 655.89743 -56.209274)
(-841.44416 680.71057 -48.756295)
(-907.44911 705.7716 -41.126112)
(-974.00112 729.39919 -33.727868)
(-1039.7277 752.08243 -26.782949)
(-1104.4608 773.68993 -20.468604)
(-1167.5576 794.30194 -15.120698)
(-1228.6747 813.95439 -10.880143)
(-1287.5207 832.78842 -7.8883934)
(-1343.9315 850.97646 -6.1901504)
(-1397.8703 868.74457 -5.7816241)
(-1449.4264 886.34474 -6.5625174)
(-1498.8099 904.06528 -8.3910481)
(-1546.3307 922.19825 -11.051813)
(-1592.3845 941.03934 -14.308231)
(-1637.4257 960.86303 -17.881275)
(-1681.9379 981.91763 -21.506003)
(-1726.4098 1004.4031 -24.912335)
(-1771.3033 1028.4706 -27.875143)
(-1817.0335 1054.2062 -30.200981)
(-1863.9409 1081.6356 -31.761106)
(-1912.2887 1110.7189 -32.479845)
(-1962.2369 1141.358 -32.352015)
(-2013.86 1173.4053 -31.427165)
(-2067.1336 1206.671 -29.812674)
(-2121.9584 1240.9424 -27.655442)
(-2178.1671 1275.9915 -25.133291)
(-2235.5474 1311.5958 -22.437629)
(-2293.8598 1347.5459 -19.755436)
(-2352.864 1383.6658 -17.264464)
(-2412.3259 1419.8059 -15.102025)
(-2472.0536 1455.8802 -13.375466)
(-2531.9102 1491.8086 -12.154609)
(-2591.7021 1527.6093 -11.405393)
(-2651.5659 1563.4128 -11.212885)
(-2711.3181 1598.9348 -11.35269)
(-2771.1754 1634.6811 -11.805184)
(-2831.1241 1670.5256 -12.435079)
(-2891.3488 1706.6342 -13.075945)
(-2951.9622 1743.1136 -13.623121)
(-3013.1163 1780.0299 -13.933962)
(-3074.9216 1817.4628 -13.918949)
(-3137.4874 1855.4434 -13.512342)
(-3200.8695 1893.9823 -12.679651)
(-3265.1045 1933.0568 -11.430674)
(-3330.1733 1972.6249 -9.8068392)
(-3396.036 2012.614 -7.8842562)
(-3462.6071 2052.9444 -5.7583632)
(-3529.7948 2093.5202 -3.5482909)
(-3597.4726 2134.2456 -1.368813)
(-3665.5349 2175.0279 0.65697462)
(-3733.8532 2215.7813 2.4291561)
(-3802.3433 2256.4289 3.8596226)
(-3870.904 2296.9183 4.8899759)
(-3939.4984 2337.1887 5.4884797)
(-4008.0619 2377.2259 5.6528462)
(-4076.6083 2416.9827 5.4065328)
(-4145.0883 2456.4717 4.7991426)
(-4213.5549 2495.6509 3.8910786)
(-4281.924 2534.556 2.772803)
(-4350.2213 2573.0748 1.5384561)
(-4456.9369 2543.7573 0.68933978)
(-4495.5726 2475.1143 1.2208053)
(-4533.9608 2406.2319 1.7495631)
(-4572.1471 2337.2996 2.2708123)
(-4610.1165 2268.2182 2.9576193)
(-4648.0994 2199.1166 3.6461946)
(-4685.8649 2129.942 4.5747315)
(-4723.7975 2060.7692 5.5250363)
(-4761.6135 1991.6483 6.7225409)
(-4799.516 1922.4952 7.9580998)
(-4837.4481 1853.5104 9.2947866)
(-4875.5667 1784.5965 10.687215)
(-4913.8381 1715.9076 12.121343)
(-4952.2122 1647.1044 13.547284)
(-4990.7319 1578.722 14.952831)
(-4961.431 1471.3175 17.927833)
(-4892.3618 1432.3519 19.70783)
(-4823.2889 1393.527 21.49378)
(-4753.934 1354.6561 23.342694)
(-4684.4467 1315.8811 25.189532)
(-4614.8197 1277.2219 26.919419)
(-4545.0232 1238.71 28.597525)
(-4475.0982 1200.4501 30.131933)
(-4405.0141 1162.4774 31.553475)
(-4334.8297 1124.8952 32.832664)
(-4264.5446 1087.7427 33.975628)
(-4194.2452 1051.1217 34.964843)
(-4123.9626 1015.0589 35.810079)
(-4053.7991 979.60885 36.508777)
(-3983.833 944.8043 37.032119)
(-3914.1458 910.65999 37.384238)
(-3844.8079 877.16 37.574707)
(-3775.8713 844.26602 37.613227)
(-3707.3771 811.93281 37.518737)
(-3639.3198 780.08868 37.318767)
(-3571.6879 748.66006 37.048088)
(-3504.4177 717.57218 36.750176)
(-3437.4487 686.74216 36.474079)
(-3370.6721 656.13956 36.251575)
(-3303.9952 625.68181 36.169745)
(-3237.3291 595.39769 36.204623)
(-3170.5934 565.29389 36.426587)
(-3103.7109 535.51771 36.706896)
(-3036.6816 505.93451 37.290385)
(-2969.527 476.83925 37.908152)
(-2902.3273 448.26656 38.611596)
(-2835.2013 420.40234 39.261994)
(-2768.3193 393.34701 39.794273)
(-2701.8926 367.22932 40.0828)
(-2636.1515 342.13626 40.018658)
(-2571.3412 318.12038 39.488759)
(-2507.6956 295.18922 38.389726)
(-2445.4233 273.29868 36.641608)
(-2384.686 252.35256 34.186604)
(-2325.5849 232.20253 31.00175)
(-2268.1439 212.65857 27.098346)
(-2212.3038 193.49334 22.528076)
(-2157.9154 174.4613 17.377542)
(-2104.7438 155.30869 11.771351)
(-2052.4737 135.79586 5.860833)
(-2000.7253 115.7078 -0.17631758)
(-1949.0677 94.877595 -6.1518059)
(-1897.0485 73.190709 -11.867698)
(-1844.2051 50.608307 -17.136706)
(-1790.1096 27.149922 -21.772988)
(-1734.3613 2.9433019 -25.641353)
(-1676.6608 -21.868707 -28.580256)
(-1616.7464 -46.989091 -30.549433)
(-1554.5194 -72.177774 -31.44517)
(-1489.8969 -97.044091 -31.264071)
(-1423.0577 -121.24782 -30.026013)
(-1354.1361 -144.45742 -27.859406)
(-1283.3606 -166.07037 -24.651135)
(-1211.4015 -186.46167 -20.722893)
(-1138.1447 -204.3012 -16.149383)
(-1064.6029 -220.0219 -10.931708)
(-991.30058 -233.59346 -5.3420801)
(-918.21436 -244.30636 0.51329122)
(-846.48927 -252.70859 6.4529956)
(-776.1227 -258.50856 12.500189)
(-708.23956 -261.66994 18.457378)
(-642.08245 -262.87491 24.163567)
(-579.50166 -261.32864 29.595218)
(-519.20274 -258.43672 34.873531)
(-462.50837 -253.55804 39.665515)
(-408.93769 -247.13497 44.129457)
(-358.84367 -239.64982 48.158577)
(-312.46994 -230.19198 51.53601)
(-269.15038 -220.91554 54.82895)
(-229.46912 -210.54203 57.424542)
(-193.15578 -198.90284 59.50113)
(-160.05137 -188.08156 61.338888)
(-130.2173 -175.53672 62.379393)
(-103.39388 -164.19629 63.335465)
(-79.628086 -151.48221 63.411811)
(-58.896713 -139.32975 63.284291)
(-40.644646 -127.47371 62.651146)
(-25.247717 -115.49108 61.517044)
(-12.400897 -103.24572 59.747783)
(-2.0535788 -92.201209 57.885354)
(6.1038381 -80.638712 55.153017)
(11.893844 -69.793294 52.177174)
(15.647046 -59.494373 48.662151)
(17.562872 -49.626355 44.797758)
(17.542965 -40.16285 40.239986)
(16.12165 -31.693616 35.335436)
(12.939463 -23.521899 29.56561)
(8.2739375 -17.185787 23.710998)
(3.9797083 -10.730636 16.280478)
(-4.9501276 -4.8613489 6.323479)
(0 0 0)
(0 0 0)
(0 0 0)
(0 0 0)
(0 0 0)
(0 0 0)
(0 0 0)
(0 0 0)
(0 0 0)
(0 0 0)
(0 0 0)
(0 0 0)
(0 0 0)
(0 0 0)
(0 0 0)
(0 0 0)
(0 0 0)
(0 0 0)
(0 0 0)
(0 0 0)
(0 0 0)
(0 0 0)
(0 0 0)
(0 0 0)
(0 0 0)
(0 0 0)
(0 0 0)
(0 0 0)
(0 0 0)
(0 0 0)
(-4441.7043 2603.5498 -2.1221512)
(-4440.0016 2603.9508 -2.0130187)
(-4438.3069 2604.2752 -1.9111508)
(-4436.586 2604.5546 -1.8233761)
(-4434.8691 2604.861 -1.7290008)
(-4433.1469 2605.2055 -1.6120073)
(-4431.449 2605.6111 -1.4812465)
(-4429.7688 2606.0902 -1.3088914)
(-4428.1216 2606.6411 -1.1300783)
(-4426.5126 2607.2444 -0.90899106)
(-4424.9462 2607.9016 -0.70869117)
(-4423.4221 2608.587 -0.47316794)
(-4421.9523 2609.3081 -0.26493897)
(-4420.5597 2610.0363 -0.083195998)
(-4419.1764 2610.8924 0.15458669)
(-5059.2075 1505.8656 16.793084)
(-5057.2294 1505.8804 16.77208)
(-5055.3555 1505.8864 16.703084)
(-5053.4985 1505.9823 16.617019)
(-5051.6777 1506.0989 16.505793)
(-5049.8627 1506.2958 16.400673)
(-5048.0573 1506.5445 16.29918)
(-5046.2448 1506.8414 16.223595)
(-5044.4273 1507.1787 16.173753)
(-5042.5913 1507.5459 16.150719)
(-5040.717 1507.9451 16.166865)
(-5038.7774 1508.3663 16.184904)
(-5036.7461 1508.8377 16.225998)
(-5034.5917 1509.3215 16.275628)
(-5032.2567 1509.9623 16.232801)
(-0.18875124 -5.6437909 -6.142557)
(5.6528087 -10.799964 -8.5300487)
(9.3707184 -16.536312 -10.574736)
(12.111143 -23.198295 -11.493606)
(14.130767 -30.873042 -12.944309)
(14.320218 -39.516317 -13.749444)
(13.510261 -48.799738 -14.790355)
(10.495992 -59.193161 -15.588717)
(6.2912856 -69.989509 -16.738327)
(-0.15513223 -81.588912 -18.039699)
(-8.4767733 -93.474195 -19.312001)
(-19.004913 -105.95361 -21.222694)
(-31.698967 -118.51678 -23.02906)
(-46.794466 -131.46461 -25.4016)
(-64.312638 -144.23281 -27.875913)
(-84.453008 -157.08477 -30.816488)
(-107.23922 -169.61317 -33.829712)
(-132.69765 -181.95935 -37.302453)
(-161.124 -193.55048 -40.7978)
(-192.49064 -204.70543 -44.512224)
(-226.88232 -214.82462 -48.247264)
(-264.48822 -224.03252 -51.955598)
(-305.28949 -232.02018 -55.440931)
(-349.3662 -238.55822 -58.771852)
(-396.89476 -243.49984 -61.576824)
(-447.76133 -246.68322 -63.931822)
(-501.9371 -247.85663 -65.620282)
(-559.39001 -246.89456 -66.613054)
(-620.01886 -243.65703 -66.715474)
(-683.52757 -238.01225 -65.958769)
(-749.70163 -229.94413 -64.324901)
(-818.26025 -219.42322 -61.791058)
(-888.70026 -206.42321 -58.474624)
(-960.60166 -191.01588 -54.403022)
(-1033.496 -173.48672 -49.647784)
(-1106.7416 -153.85829 -44.544104)
(-1179.9796 -132.49389 -39.188809)
(-1252.5638 -109.6386 -33.683397)
(-1324.0316 -85.574568 -28.366866)
(-1393.9757 -60.685364 -23.383721)
(-1462.0115 -35.240234 -18.894412)
(-1527.8411 -9.6158063 -15.045962)
(-1591.3885 15.929429 -12.000319)
(-1652.5414 41.115634 -9.7732681)
(-1711.3874 65.733709 -8.4346491)
(-1768.1159 89.638624 -7.9268301)
(-1822.9921 112.74762 -8.1960868)
(-1876.3928 135.04218 -9.1235071)
(-1928.7388 156.56488 -10.567629)
(-1980.5031 177.41748 -12.355622)
(-2032.1635 197.74809 -14.311004)
(-2084.1868 217.74017 -16.249861)
(-2137.0042 237.5995 -18.006001)
(-2190.9802 257.53976 -19.432256)
(-2246.4092 277.76789 -20.416029)
(-2303.4884 298.47143 -20.8794)
(-2362.3263 319.81241 -20.790955)
(-2422.9292 341.9095 -20.154992)
(-2485.2235 364.848 -19.021172)
(-2549.0469 388.66482 -17.468058)
(-2614.1948 413.36217 -15.603184)
(-2680.3998 438.90406 -13.545578)
(-2747.3999 465.22241 -11.427086)
(-2814.9106 492.25816 -9.3644571)
(-2882.6829 519.8911 -7.4765304)
(-2950.5269 548.04608 -5.8186449)
(-3018.268 576.69419 -4.4971035)
(-3085.7237 605.68096 -3.5032528)
(-3152.9223 635.03477 -2.8325936)
(-3219.8626 664.70742 -2.4437694)
(-3286.6074 694.69897 -2.2595759)
(-3353.2769 725.02479 -2.1980081)
(-3419.9682 755.71673 -2.1775203)
(-3486.8406 786.81507 -2.1032135)
(-3554.0256 818.3896 -1.8758731)
(-3621.6503 850.44176 -1.4223964)
(-3689.8204 883.04429 -0.70098633)
(-3758.5669 916.17172 0.33096793)
(-3827.9581 949.87698 1.6526969)
(-3897.9144 984.09357 3.2584706)
(-3968.4448 1018.8338 5.072169)
(-4039.4037 1054.0363 7.0299637)
(-4110.6928 1089.6596 9.0576587)
(-4182.1995 1125.5894 11.045507)
(-4253.7402 1161.8579 12.897352)
(-4325.3087 1198.3751 14.545523)
(-4396.6453 1235.1051 15.918514)
(-4467.7732 1272.0072 16.964494)
(-4538.5407 1309.0799 17.680329)
(-4608.913 1346.2498 18.038298)
(-4678.9703 1383.6891 18.066894)
(-4748.4879 1421.1274 17.823512)
(-4817.7556 1458.9192 17.359514)
(-4886.5015 1496.7106 16.689986)
(-4954.8392 1534.8203 15.952491)
(2.9827229 -4.7659316 -6.8829905)
(8.2753678 -8.8354967 -7.3585851)
(11.836813 -15.136553 -8.6259349)
(15.47093 -20.636921 -9.5420089)
(17.705815 -28.293881 -10.326149)
(18.772268 -35.566548 -10.831389)
(17.872353 -44.527344 -11.350834)
(15.920577 -53.407468 -12.067802)
(11.832735 -63.245912 -13.038772)
(5.9047174 -73.296134 -13.726456)
(-1.8997913 -83.963126 -15.228491)
(-11.90019 -94.707353 -16.46593)
(-24.07399 -105.82041 -18.32316)
(-38.694798 -116.8724 -20.219127)
(-55.599272 -127.96158 -22.657463)
(-75.259775 -138.84509 -25.08122)
(-97.28928 -149.49267 -28.08278)
(-122.35052 -159.60526 -31.092765)
(-150.06655 -169.19271 -34.417411)
(-180.8559 -178.01806 -37.828814)
(-214.59366 -185.91418 -41.3326)
(-251.57329 -192.76171 -44.754533)
(-291.71635 -198.30708 -48.146026)
(-335.25337 -202.40883 -51.233718)
(-382.08829 -204.87395 -53.994924)
(-432.33963 -205.59085 -56.293022)
(-485.91322 -204.33322 -58.067041)
(-542.80008 -201.02204 -59.150086)
(-602.81306 -195.48452 -59.528871)
(-665.83729 -187.76337 -59.129504)
(-731.5071 -177.69769 -57.959483)
(-799.53415 -165.38049 -55.986009)
(-869.52243 -150.85473 -53.278199)
(-941.02645 -134.26774 -49.902516)
(-1013.5481 -115.71269 -45.994845)
(-1086.5933 -95.432459 -41.680934)
(-1159.5453 -73.669745 -37.097558)
(-1231.9408 -50.671408 -32.419444)
(-1303.2717 -26.79396 -27.847366)
(-1373.0824 -2.2849936 -23.495445)
(-1441.025 22.542833 -19.572841)
(-1506.7996 47.422446 -16.143767)
(-1570.2455 72.087395 -13.406419)
(-1631.3129 96.349093 -11.33474)
(-1690.044 120.04729 -9.9670708)
(-1746.5994 143.08779 -9.309194)
(-1801.2537 165.43687 -9.2904324)
(-1854.3566 187.11118 -9.8247874)
(-1906.3323 208.18798 -10.787486)
(-1957.6405 228.78532 -12.044614)
(-2008.7636 249.06518 -13.443253)
(-2060.1694 269.20335 -14.836655)
(-2112.2982 289.39991 -16.084867)
(-2165.524 309.83985 -17.068892)
(-2220.1583 330.70732 -17.693514)
(-2276.4126 352.15275 -17.899025)
(-2334.4155 374.30228 -17.655712)
(-2394.1912 397.23921 -16.972509)
(-2455.6828 421.01393 -15.888194)
(-2518.7468 445.63469 -14.470454)
(-2583.188 471.07915 -12.80801)
(-2648.75 497.29428 -10.9988)
(-2715.1759 524.21288 -9.1558118)
(-2782.1839 551.75737 -7.3679575)
(-2849.5211 579.82124 -5.7409547)
(-2917.0138 608.34958 -4.3030755)
(-2984.3307 637.26314 -3.2144648)
(-3051.526 666.56456 -2.3239368)
(-3118.4977 696.19233 -1.6831923)
(-3185.2089 726.12387 -1.3093092)
(-3251.7311 756.41084 -1.1040658)
(-3318.1305 787.04521 -1.0115392)
(-3384.5543 818.1065 -0.95771148)
(-3451.1308 849.61446 -0.83326814)
(-3518.0064 881.63976 -0.59133624)
(-3585.2876 914.15667 -0.14774815)
(-3653.101 947.27087 0.51597735)
(-3721.481 980.88588 1.4530248)
(-3790.5109 1015.095 2.6248655)
(-3860.1088 1049.7609 4.0409426)
(-3930.3227 1084.9485 5.6201688)
(-4000.968 1120.5056 7.3320357)
(-4072.0222 1156.4612 9.0599865)
(-4143.2967 1192.6787 10.831781)
(-4214.8259 1229.1374 12.427127)
(-4286.2294 1265.8311 13.838757)
(-4357.5521 1302.6897 14.978669)
(-4428.6452 1339.6727 15.859969)
(-4499.4372 1376.8087 16.407254)
(-4569.9121 1414.0345 16.658325)
(-4640.0087 1451.5037 16.606376)
(-4709.6374 1488.9235 16.327803)
(-4779.0494 1526.8172 15.785632)
(-4847.7781 1564.5134 15.139427)
(-4916.3249 1602.7883 14.364691)
(5.5915853 -4.0371474 -6.0225418)
(10.595453 -7.9905148 -6.2781725)
(15.475198 -13.158871 -7.3365802)
(18.831023 -18.741815 -7.5564045)
(21.53643 -25.101048 -7.5785055)
(22.195839 -32.160015 -7.5668375)
(22.3744 -39.472907 -7.8966748)
(20.213723 -47.510652 -8.3469353)
(16.690421 -55.764756 -8.4162456)
(11.240201 -64.730184 -9.4935825)
(3.8796591 -73.578875 -10.066163)
(-5.7140011 -83.00729 -11.451559)
(-17.408878 -92.213788 -12.660804)
(-31.42279 -101.66831 -14.626067)
(-47.94352 -110.78568 -16.385722)
(-66.871257 -119.85792 -18.927582)
(-88.571676 -128.37335 -21.341049)
(-112.88884 -136.53039 -24.283566)
(-140.10994 -143.93781 -27.253304)
(-170.23356 -150.61486 -30.500855)
(-203.45026 -156.27013 -33.723759)
(-239.77036 -160.852 -37.066277)
(-279.35791 -164.1023 -40.217889)
(-322.20517 -165.95049 -43.258392)
(-368.47519 -166.16343 -45.970282)
(-418.10429 -164.66094 -48.341628)
(-471.09705 -161.23174 -50.204477)
(-527.39736 -155.8481 -51.532414)
(-586.86924 -148.37177 -52.216579)
(-649.30743 -138.78614 -52.241397)
(-714.45535 -127.08258 -51.556976)
(-782.01297 -113.2979 -50.189007)
(-851.55161 -97.513637 -48.172164)
(-922.64672 -79.825304 -45.570922)
(-994.79994 -60.451768 -42.455436)
(-1067.4611 -39.569453 -38.953396)
(-1140.0941 -17.434299 -35.212131)
(-1212.2063 5.6880623 -31.335179)
(-1283.2625 29.561024 -27.47496)
(-1352.8454 53.843886 -23.789406)
(-1420.5725 78.327386 -20.388684)
(-1486.1577 102.72681 -17.399433)
(-1549.4014 126.84464 -14.904269)
(-1610.2543 150.53276 -12.965864)
(-1668.7558 173.66234 -11.581112)
(-1725.0647 196.1627 -10.764003)
(-1779.4285 218.04975 -10.461465)
(-1832.2048 239.35525 -10.602544)
(-1883.7978 260.18455 -11.097016)
(-1934.673 280.66613 -11.828348)
(-1985.3034 300.96899 -12.683353)
(-2036.1627 321.26818 -13.537315)
(-2087.6887 341.75551 -14.285413)
(-2140.2664 362.60239 -14.825321)
(-2194.2109 383.97688 -15.089576)
(-2249.7463 406.00535 -15.023596)
(-2307.0121 428.79455 -14.611523)
(-2366.0437 452.40317 -13.856946)
(-2426.799 476.8625 -12.796901)
(-2489.1456 502.15978 -11.483008)
(-2552.8954 528.26037 -9.9922627)
(-2617.8101 555.09978 -8.3992889)
(-2683.6311 582.60636 -6.8031953)
(-2750.0831 610.68615 -5.2600326)
(-2816.923 639.27227 -3.8707127)
(-2883.9138 668.28045 -2.6501631)
(-2950.9513 697.6444 -1.7226487)
(-3017.766 727.34706 -0.8496108)
(-3084.3679 757.43486 -0.45379006)
(-3150.783 787.78664 -0.1192733)
(-3216.9746 818.48192 0.044249669)
(-3283.1208 849.5635 0.13351336)
(-3349.2761 881.05421 0.22862451)
(-3415.5826 912.99048 0.36797491)
(-3482.1504 945.42594 0.61555571)
(-3549.1514 978.39052 1.048116)
(-3616.6442 1011.8904 1.6674418)
(-3684.7316 1045.9197 2.5209342)
(-3753.428 1080.4857 3.5709063)
(-3822.742 1115.5195 4.8255912)
(-3892.6317 1151.019 6.2151977)
(-3963.007 1186.8803 7.7040917)
(-4033.7954 1223.1006 9.2073195)
(-4104.8812 1259.6012 10.71007)
(-4176.0988 1296.3243 12.008271)
(-4247.3693 1333.1663 13.168217)
(-4318.5618 1370.1865 14.101209)
(-4389.5849 1407.2926 14.788477)
(-4460.3859 1444.5605 15.185252)
(-4530.8265 1481.8723 15.312495)
(-4600.9914 1519.3931 15.180049)
(-4670.6815 1556.9301 14.788886)
(-4740.1612 1594.826 14.243867)
(-4809.0237 1632.6153 13.541724)
(-4877.7839 1670.9339 12.796023)
(7.2666058 -3.737594 -5.1513155)
(13.075985 -6.0090126 -4.9994417)
(18.112675 -10.891942 -5.1175824)
(21.782802 -15.255641 -4.6883235)
(24.404124 -21.332058 -4.3843769)
(26.300938 -26.791441 -4.4086606)
(26.172561 -33.544769 -4.4248018)
(24.696065 -40.07322 -4.0260581)
(21.607129 -47.522672 -4.7223052)
(16.536371 -54.730931 -4.7763618)
(9.5493293 -62.504196 -5.651108)
(0.46456699 -70.191311 -6.3550072)
(-10.687903 -77.967577 -7.7643622)
(-24.417863 -85.646386 -9.0001677)
(-40.215656 -93.108552 -10.986295)
(-58.888287 -100.28754 -12.903823)
(-79.85676 -106.97007 -15.325205)
(-103.81913 -113.17759 -17.884242)
(-130.38981 -118.57241 -20.704083)
(-160.09295 -123.2192 -23.656429)
(-192.66167 -126.79739 -26.748101)
(-228.51574 -129.30067 -29.828551)
(-267.49154 -130.46371 -32.881693)
(-309.8889 -130.2334 -35.800188)
(-355.57981 -128.37223 -38.479678)
(-404.69902 -124.85218 -40.852051)
(-457.17777 -119.47715 -42.819289)
(-512.97478 -112.23465 -44.310408)
(-571.92579 -102.98242 -45.272421)
(-633.89421 -91.785934 -45.651677)
(-698.57202 -78.56681 -45.431259)
(-765.65696 -63.443944 -44.620831)
(-834.74353 -46.457227 -43.223038)
(-905.40147 -27.790231 -41.305123)
(-977.09871 -7.5871935 -38.918032)
(-1049.3594 13.937876 -36.193343)
(-1121.6118 36.559601 -33.176472)
(-1193.3591 59.991818 -30.009908)
(-1264.0373 83.955987 -26.860301)
(-1333.27 108.30012 -23.773327)
(-1400.6413 132.68236 -20.894514)
(-1465.8659 156.92954 -18.309388)
(-1528.7813 180.83078 -16.088215)
(-1589.2929 204.26694 -14.278556)
(-1647.4655 227.13917 -12.890936)
(-1703.4325 249.4062 -11.937327)
(-1757.4539 271.09417 -11.374463)
(-1809.8658 292.2586 -11.161149)
(-1861.0784 313.01648 -11.215672)
(-1911.5456 333.50432 -11.461204)
(-1961.7391 353.89732 -11.802415)
(-2012.1276 374.36945 -12.151127)
(-2063.1486 395.10943 -12.421513)
(-2115.1865 416.28319 -12.541926)
(-2168.5578 438.04781 -12.457008)
(-2223.4914 460.52022 -12.130742)
(-2280.1305 483.79568 -11.550344)
(-2338.5192 507.92098 -10.723736)
(-2398.6223 532.91552 -9.6788854)
(-2460.3147 558.75952 -8.4619148)
(-2523.4211 585.40657 -7.1290636)
(-2587.7119 612.79243 -5.7478244)
(-2652.9261 640.82409 -4.3792531)
(-2718.8133 669.44187 -3.0927567)
(-2785.1141 698.5221 -1.9328646)
(-2851.6326 728.04802 -0.95450617)
(-2918.1298 757.89206 -0.13883064)
(-2984.5753 788.08783 0.42165272)
(-3050.7965 818.61003 0.80771991)
(-3116.8528 849.40711 1.117034)
(-3182.7654 880.55143 1.258553)
(-3248.5816 912.06463 1.374547)
(-3314.3939 943.93751 1.476736)
(-3380.3851 976.28361 1.6153431)
(-3446.6929 1009.1564 1.8754703)
(-3513.3891 1042.5081 2.2670061)
(-3580.5905 1076.412 2.829036)
(-3648.374 1110.8044 3.5791819)
(-3716.7613 1145.7323 4.4911081)
(-3785.7707 1181.0873 5.5756659)
(-3855.3548 1216.9008 6.7532843)
(-3925.44 1253.0417 8.0182195)
(-3995.9813 1289.5301 9.2797746)
(-4066.7721 1326.2262 10.505703)
(-4137.7987 1363.1541 11.610316)
(-4208.8728 1400.2102 12.568152)
(-4279.9292 1437.4095 13.307479)
(-4350.8597 1474.6996 13.823608)
(-4421.568 1512.0974 14.07568)
(-4491.9884 1549.5393 14.095274)
(-4562.1751 1587.2249 13.848313)
(-4631.8717 1624.8279 13.42268)
(-4701.4717 1662.8828 12.818005)
(-4770.4202 1700.706 12.077219)
(-4839.3848 1739.0986 11.269971)
(9.3132964 -2.3031847 -3.9033105)
(15.359459 -4.2354052 -3.1166394)
(21.054379 -8.143355 -3.0799502)
(24.575793 -12.068335 -2.4602839)
(28.296401 -16.483239 -1.9990716)
(29.499815 -21.525458 -1.4527728)
(29.972002 -26.741637 -0.40945628)
(28.778835 -32.587932 -0.71197322)
(25.94146 -38.256621 -0.016771197)
(21.143507 -44.563702 -0.42075651)
(14.619144 -50.633563 -0.43063353)
(5.940294 -57.003164 -1.343347)
(-5.0081841 -63.088266 -1.8514739)
(-18.046874 -69.212632 -3.3645373)
(-33.679449 -74.887313 -4.5852098)
(-51.668843 -80.327701 -6.5457333)
(-72.351887 -85.182802 -8.5004912)
(-95.691436 -89.477825 -10.930818)
(-121.89415 -92.977791 -13.420289)
(-150.97926 -95.661928 -16.25257)
(-183.13351 -97.278363 -19.076563)
(-218.3968 -97.799221 -22.07375)
(-256.92165 -96.991005 -24.996994)
(-298.73007 -94.812063 -27.879378)
(-343.9164 -91.052053 -30.568792)
(-392.50737 -85.694839 -33.035579)
(-444.47066 -78.538799 -35.162532)
(-499.73556 -69.607994 -36.924311)
(-558.20628 -58.774422 -38.220552)
(-619.65915 -46.092884 -39.035018)
(-683.84658 -31.522362 -39.33613)
(-750.44932 -15.181931 -39.108943)