/*--------------------------------*- C++ -*----------------------------------*\
  =========                 |
  \\      /  F ield         | OpenFOAM: The Open Source CFD Toolbox
   \\    /   O peration     | Website:  https://openfoam.org
    \\  /    A nd           | Version:  6
     \\/     M anipulation  |
\*---------------------------------------------------------------------------*/
FoamFile
{
    version     2.0;
    format      ascii;
    class       pointVectorField;
    location    "0.08";
    object      lm;
}
// * * * * * * * * * * * * * * * * * * * * * * * * * * * * * * * * * * * * * //

dimensions      [1 -2 -1 0 0 0 0];

internalField   nonuniform List<vector> 
28033
(
(0 0 0)
(0 0 0)
(2309.0339 343.83881 1.0788477)
(2260.417 -504.35764 1.8862917)
(0 0 0)
(0 0 0)
(2260.5168 -505.48955 0.48754243)
(2315.6583 347.22893 2.8400191)
(0 0 0)
(0 0 0)
(0 0 0)
(0 0 0)
(0 0 0)
(0 0 0)
(0 0 0)
(0 0 0)
(0 0 0)
(0 0 0)
(0 0 0)
(0 0 0)
(0 0 0)
(0 0 0)
(0 0 0)
(2305.2486 291.36462 1.9131841)
(2301.0593 238.71818 1.8414527)
(2297.5005 185.8124 1.4238094)
(2294.2067 132.82056 0.50867768)
(2291.5414 80.139816 -0.043749348)
(2289.2168 27.662656 -0.056955446)
(2286.9983 -24.593067 0.7956393)
(2284.5366 -76.852935 1.8555713)
(2281.7877 -129.33665 2.9382648)
(2278.7443 -182.09729 3.5838115)
(2275.5141 -235.41787 3.5160327)
(2272.3529 -288.91831 2.8213053)
(2269.5631 -343.05516 2.0483347)
(2266.8523 -397.10306 1.2355774)
(2264.0862 -451.08259 1.1238081)
(5.5516009 -4.5676878 -16.667406)
(25.550181 -14.752833 -33.887244)
(42.711055 -29.30484 -47.351578)
(51.72991 -46.722405 -54.737416)
(51.913631 -65.836072 -57.079994)
(41.889319 -84.973299 -53.885295)
(21.88434 -102.85318 -45.700411)
(-7.1792586 -117.92215 -33.146607)
(-43.598988 -129.91612 -17.628349)
(-84.639644 -137.84603 -0.67169619)
(-127.32807 -141.28595 16.101939)
(-168.72403 -141.19609 30.37589)
(-206.19326 -137.26219 40.927335)
(-238.17591 -130.60222 46.724663)
(-263.83924 -121.95025 47.230302)
(-283.32693 -112.504 42.967794)
(-298.50133 -102.73528 35.750721)
(-311.59464 -93.179487 27.142325)
(-324.84915 -84.205939 19.080121)
(-340.77267 -75.516397 13.639121)
(-360.75183 -66.589243 11.929352)
(-384.84247 -56.884494 14.60613)
(-412.71294 -45.988001 21.219828)
(-442.06934 -33.178102 30.559983)
(-470.47597 -18.167143 41.405936)
(-495.56439 -1.4619867 51.637376)
(-514.49622 16.969231 60.093611)
(-525.98334 36.379044 65.261568)
(-528.97441 55.641486 66.714757)
(-523.73738 74.149721 64.72705)
(-511.65483 91.074936 59.39291)
(-494.38644 105.75216 51.96959)
(-473.60924 118.5014 43.542103)
(-451.2658 128.77689 34.873684)
(-428.48122 137.55579 26.628589)
(-406.02653 145.04546 19.40551)
(-384.51464 152.03964 13.502665)
(-363.03528 158.94098 8.4627019)
(-341.34588 166.20756 4.4289223)
(-318.73339 174.11828 1.2847906)
(-294.5337 182.61032 -1.1496138)
(-268.63169 191.66457 -2.5311151)
(-240.98217 200.98784 -2.6810378)
(-211.9208 210.37284 -1.1352087)
(-182.04828 219.52155 2.4587317)
(-151.77391 228.29425 8.2301608)
(-121.50093 236.55634 16.167577)
(-91.249992 244.30321 25.773841)
(-60.762215 251.60993 36.317342)
(-29.463939 258.61189 46.787179)
(3.3695182 265.47284 56.122428)
(38.476045 272.35611 63.365425)
(76.422822 279.38424 67.842313)
(117.49002 286.62971 69.266991)
(161.61321 294.10095 67.766551)
(208.4178 301.75059 63.82036)
(257.3199 309.48778 58.129801)
(307.66288 317.20369 51.452688)
(358.8578 324.78439 44.462443)
(410.48709 332.12432 37.640271)
(462.32544 339.14281 31.248367)
(514.33861 345.78143 25.352166)
(566.57998 351.97559 19.934951)
(619.15451 357.67439 14.890209)
(672.02444 362.8486 10.296947)
(725.14104 367.42036 6.1358983)
(778.34997 371.30359 2.6363634)
(831.34145 374.56462 -0.21681631)
(883.86699 376.98051 -2.0833243)
(935.90647 378.76977 -3.0898984)
(987.27497 379.82482 -3.3099321)
(1038.0698 380.30502 -2.9957567)
(1088.4804 380.39102 -2.3375655)
(1138.6706 380.11332 -1.5558321)
(1188.8831 379.77181 -0.8457401)
(1239.272 379.21698 -0.23958786)
(1289.9563 378.88175 0.16524405)
(1341.0922 378.26178 0.50336294)
(1392.5772 377.96154 0.67116734)
(1444.6602 377.16234 0.81990151)
(1497.1424 376.57093 0.71369779)
(1550.2286 375.39502 0.50074426)
(1603.8397 374.25912 -0.18711573)
(1657.9862 372.63332 -1.1239503)
(1712.7325 370.9961 -2.6099948)
(1767.8418 369.0995 -4.2800687)
(1823.393 366.99277 -6.2023235)
(1878.8912 364.98508 -7.9763161)
(1934.4969 362.60114 -9.4147971)
(1989.5294 360.3913 -10.212547)
(2044.2245 357.82866 -10.26048)
(2098.1384 355.41945 -9.4066352)
(2151.371 352.69491 -7.6162046)
(2204.1649 350.15911 -5.1027149)
(2256.5651 347.32834 -2.1058075)
(3.1688065 8.3075621 15.474595)
(25.334681 18.912251 36.056353)
(42.915262 30.982993 50.970562)
(52.697356 48.917174 62.366465)
(52.733103 67.750609 66.382306)
(42.00857 86.651596 64.409074)
(20.03584 105.16494 56.860204)
(-10.953484 120.69247 43.780695)
(-49.647865 133.60627 27.615362)
(-92.211149 142.03037 9.08963)
(-136.19679 146.8668 -8.8866212)
(-177.6724 146.95698 -24.688721)
(-213.89101 144.27889 -35.851753)
(-243.87383 138.13251 -42.684357)
(-267.01381 130.52815 -43.29596)
(-283.83581 121.59651 -40.03226)
(-297.05136 112.41185 -32.634642)
(-308.37814 103.23628 -24.126743)
(-321.18255 94.221135 -16.135045)
(-337.04929 85.406813 -10.193979)
(-357.54978 75.849498 -8.3180049)
(-382.4865 65.518172 -9.8631908)
(-410.63424 53.664405 -15.856925)
(-440.64942 40.072681 -24.493931)
(-469.43457 24.608809 -34.977874)
(-494.87914 7.6312928 -45.723353)
(-514.72379 -10.374303 -55.264261)
(-527.29607 -28.499141 -61.900534)
(-531.83604 -46.386627 -65.558188)
(-528.67953 -62.840989 -64.853098)
(-518.19665 -78.001041 -60.912364)
(-502.45537 -91.107091 -53.860775)
(-482.44502 -102.42904 -44.681706)
(-460.00296 -112.06675 -34.459996)
(-436.51843 -120.33358 -24.343995)
(-412.80971 -127.50787 -15.085555)
(-389.62328 -134.13256 -7.6325176)
(-366.88453 -140.55728 -1.9740235)
(-343.96807 -146.82561 1.8384296)
(-320.53719 -153.42384 3.9500582)
(-296.20701 -160.23145 4.488718)
(-270.68896 -167.33832 3.5400656)
(-244.07051 -174.66153 1.0851061)
(-216.65943 -182.11476 -3.0532891)
(-188.90652 -189.58473 -9.0372673)
(-161.2018 -196.99136 -16.918758)
(-133.6946 -204.29856 -26.493713)
(-106.18215 -211.52856 -37.236378)
(-78.082753 -218.75685 -48.306232)
(-48.53839 -226.09456 -58.6573)
(-16.596406 -233.65857 -67.210827)
(18.568747 -241.54496 -73.059287)
(57.455251 -249.80272 -75.640265)
(100.11849 -258.42395 -74.837835)
(146.16226 -267.34566 -70.984259)
(194.84038 -276.46372 -64.765121)
(245.23397 -285.65805 -57.055526)
(296.45431 -294.81462 -48.73499)
(347.81014 -303.8476 -40.530873)
(398.90827 -312.70794 -32.917461)
(449.6513 -321.38191 -26.110573)
(500.1768 -329.87663 -20.108133)
(550.71608 -338.20023 -14.804785)
(601.49408 -346.34454 -10.074321)
(652.60251 -354.26228 -5.8685215)
(704.01279 -361.88011 -2.2119413)
(755.53571 -369.08037 0.78256338)
(806.92975 -375.78329 3.031066)
(857.96823 -381.832 4.4274927)
(908.50283 -387.2561 4.9615086)
(958.47624 -392.05475 4.9189761)
(1008.029 -396.33579 4.4600093)
(1057.2369 -400.29101 3.7746561)
(1106.2291 -404.05129 3.0598992)
(1155.2046 -407.84818 2.4379308)
(1204.2579 -411.79775 1.9183533)
(1253.5234 -416.01185 1.4985459)
(1303.0861 -420.49774 1.1097205)
(1353.0509 -425.23211 0.7476709)
(1403.5355 -430.11726 0.44369375)
(1454.6425 -435.08373 0.29729886)
(1506.4715 -440.02091 0.43842369)
(1559.0512 -444.91254 0.99882201)
(1612.3945 -449.70774 2.0476125)
(1666.3663 -454.45266 3.5724363)
(1720.8877 -459.1832 5.4783483)
(1775.7077 -463.90328 7.5450219)
(1830.6964 -468.68326 9.547873)
(1885.6113 -473.46848 11.208074)
(1940.3364 -478.24662 12.276032)
(1994.6947 -482.97097 12.589316)
(2048.6382 -487.60107 12.013525)
(2102.1046 -492.05291 10.524976)
(2155.0902 -496.42972 8.2261586)
(2207.8514 -500.49128 5.1705222)
(0 0 0)
(0 0 0)
(0 0 0)
(0 0 0)
(0 0 0)
(0 0 0)
(0 0 0)
(0 0 0)
(0 0 0)
(0 0 0)
(0 0 0)
(0 0 0)
(0 0 0)
(0 0 0)
(0 0 0)
(-0.52576033 2.1851387 -10.772947)
(27.441003 17.345173 -36.8908)
(46.405203 30.330432 -52.242776)
(55.936175 49.786356 -64.752463)
(57.242469 66.299584 -65.589942)
(42.578823 88.975339 -63.456234)
(20.359991 103.46828 -51.718831)
(-14.608105 122.86352 -37.201735)
(-55.278308 131.50381 -16.624131)
(-100.4682 142.89345 3.9445213)
(-145.53848 146.35743 23.200987)
(-188.03498 146.34958 37.489363)
(-222.1286 143.62623 48.264972)
(-251.52172 138.8537 50.326765)
(-270.04925 129.14273 47.801719)
(-284.99057 122.44014 40.550823)
(-294.74906 114.20508 30.658289)
(-304.73764 102.65896 20.014793)
(-315.39159 96.315744 13.133325)
(-332.53969 87.092859 8.2236417)
(-353.31806 79.028842 9.3487678)
(-379.84237 68.359237 13.552867)
(-410.22486 59.41394 21.357043)
(-441.63847 45.991076 31.029587)
(-471.85676 30.176947 41.335995)
(-497.70978 12.601446 50.870428)
(-518.7219 -7.0427167 58.359097)
(-529.25743 -27.019338 63.851195)
(-534.5075 -45.559193 65.360933)
(-528.71816 -64.636205 64.240157)
(-518.04902 -80.186929 59.818971)
(-500.95909 -93.09941 52.480876)
(-480.21079 -103.6553 43.093307)
(-457.29102 -111.96445 32.539882)
(-433.50902 -119.28643 21.632621)
(-409.78883 -125.39679 12.376528)
(-387.22975 -132.06197 3.6856955)
(-364.00409 -138.16233 -2.6159986)
(-341.2577 -145.2176 -7.0069859)
(-317.64361 -152.49917 -9.355343)
(-293.02943 -160.06738 -9.9702471)
(-267.205 -167.71189 -8.9601913)
(-240.34488 -175.33538 -6.3142343)
(-212.91894 -182.88885 -1.8937176)
(-185.41254 -190.39506 4.4363335)
(-158.20065 -197.93912 12.711194)
(-131.32146 -205.6044 22.679554)
(-104.40177 -213.45292 33.74624)
(-76.683135 -221.50415 44.994191)
(-47.188276 -229.72626 55.31323)
(-14.93988 -238.06013 63.607518)
(20.791703 -246.43922 69.019119)
(60.316614 -254.81732 71.101992)
(103.45531 -263.18423 69.90346)
(149.59774 -271.56396 65.922613)
(197.86605 -280.00571 59.969798)
(247.32876 -288.55771 52.962921)
(297.2061 -297.25057 45.728136)
(347.00888 -306.07869 38.851132)
(396.57927 -314.99669 32.619943)
(446.03704 -323.92615 27.056696)
(495.65539 -332.76198 22.018483)
(545.71756 -341.39828 17.325032)
(596.39682 -349.72239 12.858899)
(647.69334 -357.64821 8.6343741)
(699.44188 -365.11306 4.7710129)
(751.38442 -371.98436 1.4814937)
(803.16153 -378.4447 -1.1394825)
(854.71286 -384.23699 -2.7460284)
(905.6198 -389.42237 -3.8593679)
(956.19384 -394.13661 -4.1126774)
(1006.2019 -398.42809 -3.958566)
(1055.9519 -402.36781 -3.6130637)
(1105.4579 -406.17297 -3.1776613)
(1154.8518 -409.9543 -2.7803115)
(1204.2057 -413.87927 -2.4039016)
(1253.6087 -418.04528 -2.0180419)
(1303.17 -422.50713 -1.5759241)
(1353.032 -427.25059 -1.0867358)
(1403.3622 -432.20979 -0.61350152)
(1454.3289 -437.29558 -0.28688085)
(1506.0641 -442.39761 -0.25092663)
(1558.6399 -447.45326 -0.64634011)
(1612.0452 -452.40459 -1.5368547)
(1666.1961 -457.26477 -2.9160179)
(1720.9343 -462.04129 -4.6604949)
(1776.0713 -466.77098 -6.5929975)
(1831.3866 -471.47242 -8.4417841)
(1886.6477 -476.11949 -9.9576964)
(1941.6569 -480.72339 -10.878244)
(1996.223 -485.19165 -11.008563)
(2050.1888 -489.54875 -10.221728)
(2103.4917 -493.70987 -8.5200604)
(2156.2387 -497.75273 -5.9804796)
(2208.0965 -501.59396 -2.7221827)
(2263.931 -452.98657 2.8928819)
(2266.6417 -399.94271 4.2260455)
(2269.2491 -346.49471 4.4658685)
(2272.4248 -293.07541 4.3225675)
(2275.2488 -239.74788 3.8434062)
(2278.8333 -186.42527 3.5206256)
(2282.0741 -133.35196 3.1670172)
(2285.2916 -80.257296 3.0594794)
(2288.5705 -27.344283 3.118479)
(2291.6682 25.954809 2.7060795)
(2294.6392 79.165312 2.1674688)
(2298.8328 132.63152 1.3379699)
(2302.3896 186.44076 0.73843804)
(2306.9918 240.37396 0.49560563)
(2311.828 293.67599 1.0916537)
(2262.0867 350.97118 5.2656263)
(2208.2653 353.47275 7.7477762)
(2154.5009 356.01132 9.9430442)
(2100.0852 358.41923 11.151461)
(2045.3227 360.54597 11.783534)
(1990.051 362.55467 11.523839)
(1934.5669 364.34521 10.621839)
(1878.8796 366.08289 9.1192291)
(1823.1974 367.71469 7.2722146)
(1767.675 369.2889 5.302304)
(1712.4672 370.75305 3.4803585)
(1657.7395 372.0438 2.0006694)
(1603.6468 373.0894 1.0229563)
(1550.2152 373.87176 0.54430264)
(1497.5914 374.34301 0.55299434)
(1445.7112 374.61977 0.92401165)
(1394.4769 374.77267 1.4970457)
(1343.7144 374.91528 2.0828781)
(1293.2357 375.17021 2.5741328)
(1242.8505 375.5655 2.9377122)
(1192.4103 376.11836 3.1881982)
(1141.8053 376.71632 3.4012127)
(1090.9748 377.24958 3.6154022)
(1039.8559 377.52066 3.8246977)
(988.46188 377.37871 3.9209266)
(936.67906 376.73103 3.7700314)
(884.62368 375.22969 3.0009295)
(832.38258 373.17056 1.8817976)
(779.89867 370.09195 -0.29596542)
(727.34265 366.47141 -3.1209382)
(674.86393 362.04593 -6.8418384)
(622.53544 357.0072 -11.300536)
(570.41036 351.41574 -16.453772)
(518.47697 345.36514 -22.265587)
(466.65671 338.95436 -28.715876)
(414.87397 332.26095 -35.770243)
(363.12178 325.34562 -43.312932)
(311.54023 318.24645 -51.074973)
(260.46517 310.97903 -58.599574)
(210.43345 303.54643 -65.247401)
(162.12188 295.95059 -70.26781)
(116.23478 288.20594 -72.927689)
(73.360595 280.34413 -72.660977)
(33.833303 272.41893 -69.211671)
(-2.351759 264.48788 -62.722775)
(-35.560396 256.60254 -53.739855)
(-66.424516 248.77839 -43.142306)
(-95.740948 240.99686 -31.986372)
(-124.21728 233.17806 -21.322732)
(-152.4225 225.22035 -12.039192)
(-180.57887 217.06984 -4.7705601)
(-208.56943 208.5932 0.2722195)
(-236.20947 199.9194 2.9939285)
(-262.93205 191.15461 3.6188521)
(-288.64141 182.51515 2.479935)
(-313.20189 174.26246 -0.42463621)
(-337.05991 166.78555 -4.6079979)
(-360.0658 159.99552 -10.271685)
(-383.38278 153.38765 -16.75914)
(-407.32593 147.36991 -24.718458)
(-431.95774 140.57376 -33.455969)
(-456.25068 132.48901 -42.323366)
(-480.50493 123.31999 -50.869816)
(-501.46354 111.17384 -58.275481)
(-519.08406 95.345897 -63.324395)
(-529.22743 78.250621 -67.202227)
(-533.85847 58.932741 -65.922931)
(-527.54797 38.129547 -62.984441)
(-514.48613 18.021254 -55.979573)
(-493.49595 -1.8068197 -47.140319)
(-467.48416 -19.479047 -36.817607)
(-438.62849 -33.312156 -27.325104)
(-409.27149 -46.984014 -18.094296)
(-382.20104 -57.019866 -12.751167)
(-358.81852 -65.154479 -11.810862)
(-340.70969 -73.401835 -13.430868)
(-325.85572 -81.649762 -20.083136)
(-314.56656 -89.400878 -28.76675)
(-303.06759 -99.355997 -37.761677)
(-288.95965 -109.1904 -45.389509)
(-270.87473 -117.38844 -49.820341)
(-245.38444 -126.94051 -48.382403)
(-213.65681 -134.87127 -40.62944)
(-174.61723 -139.2381 -28.951113)
(-130.71831 -141.40143 -11.508973)
(-85.988677 -137.70913 7.2114996)
(-42.709646 -131.35621 27.395392)
(-2.9736301 -120.84883 44.680518)
(27.393758 -106.05489 58.131923)
(48.839641 -87.293154 65.608963)
(58.429396 -68.333468 68.729036)
(57.686099 -49.648876 64.106204)
(45.851216 -31.672259 53.929384)
(25.893463 -18.145547 36.629102)
(1.4452708 -4.3087537 13.208936)
(0 0 0)
(0 0 0)
(0 0 0)
(0 0 0)
(0 0 0)
(0 0 0)
(0 0 0)
(0 0 0)
(0 0 0)
(0 0 0)
(0 0 0)
(0 0 0)
(0 0 0)
(0 0 0)
(0 0 0)
(0 0 0)
(0 0 0)
(0 0 0)
(0 0 0)
(0 0 0)
(0 0 0)
(0 0 0)
(0 0 0)
(0 0 0)
(0 0 0)
(0 0 0)
(0 0 0)
(0 0 0)
(0 0 0)
(0 0 0)
(2259.4971 -501.43911 2.4888955)
(2257.1843 -498.29004 3.5070486)
(2253.4723 -494.25747 4.2782214)
(2248.53 -489.49916 4.7210774)
(2243.3325 -484.75559 4.5827833)
(2238.6797 -480.69546 3.986423)
(2235.4922 -478.01709 2.9490914)
(2234.3422 -477.21594 1.773371)
(2235.3943 -478.40597 0.60919775)
(2238.3101 -481.32557 -0.24929282)
(2242.584 -485.5065 -0.7011911)
(2247.285 -490.15039 -0.73903349)
(2251.7523 -494.72899 -0.43605409)
(2255.402 -498.73444 0.15614519)
(2258.2656 -502.24745 0.50546169)
(2308.2185 340.85083 0.55565383)
(2306.2123 337.99291 -0.37879228)
(2302.8897 334.71813 -1.3142143)
(2298.4128 330.99063 -1.783604)
(2293.4457 327.27894 -1.7233956)
(2288.9396 324.17116 -1.1639995)
(2285.9265 322.31161 -0.1336606)
(2285.1598 322.10307 1.1263614)
(2286.8763 323.66741 2.4237115)
(2290.7892 326.72663 3.4802499)
(2296.1503 330.74336 4.1578266)
(2301.9274 335.04238 4.3062929)
(2307.204 339.01641 4.1014205)
(2311.2217 342.30947 3.4587144)
(2314.0382 344.81804 2.9005399)
(8.5939051 -16.133676 -18.265211)
(30.611364 -29.018966 -32.131659)
(48.185607 -40.162303 -40.347079)
(58.517227 -51.476616 -46.194455)
(58.961652 -62.664401 -47.424052)
(48.840236 -73.255755 -44.38067)
(28.177707 -82.581658 -37.215193)
(-2.0997419 -90.403422 -26.618605)
(-39.731561 -96.512939 -13.545613)
(-82.084115 -100.53087 0.56023973)
(-126.45631 -102.83971 14.3584)
(-169.35678 -103.56334 26.053698)
(-208.25377 -102.51586 34.623392)
(-241.27492 -100.14261 39.252049)
(-267.58543 -96.437829 39.764686)
(-287.65714 -91.424189 36.577822)
(-303.20207 -84.804659 30.915117)
(-316.54643 -76.999705 24.24718)
(-330.0297 -67.93399 18.130771)
(-345.98554 -57.554106 14.171784)
(-365.99059 -46.218098 13.185042)
(-390.46947 -34.132019 15.487653)
(-418.53223 -21.418554 20.971016)
(-448.25692 -8.4044913 28.520417)
(-477.25755 4.8889612 37.011472)
(-502.61999 18.034881 45.178441)
(-521.92241 31.240862 51.618551)
(-533.37326 43.947726 55.730438)
(-536.0645 56.33712 56.828645)
(-530.63123 68.269449 54.940795)
(-517.92353 79.441597 50.725176)
(-499.70572 89.920455 44.740815)
(-478.16968 99.569949 37.719374)
(-455.08482 108.44549 30.480334)
(-431.80803 116.48459 23.376828)
(-409.1629 123.99252 17.084355)
(-387.30029 131.12297 11.608224)
(-365.8895 137.79043 6.9675827)
(-344.29682 144.55137 3.1063798)
(-321.87628 151.41673 0.063345929)
(-297.88599 158.47413 -2.185841)
(-272.22658 165.8531 -3.4133665)
(-244.67721 173.68157 -3.3402594)
(-215.69434 181.69864 -1.6975155)
(-185.77253 189.89357 1.7627904)
(-155.40213 198.04181 7.1826333)
(-124.95744 205.91033 14.384526)
(-94.526342 213.31089 22.954006)
(-63.881169 220.08729 32.206288)
(-32.496334 226.19121 41.286696)
(0.32510936 231.68049 49.308648)
(35.305657 236.71939 55.494312)
(73.020143 241.54354 59.313042)
(113.7729 246.41442 60.554934)
(157.54117 251.56124 59.348)
(203.99531 257.13322 56.097708)
(252.59181 263.17284 51.378062)
(302.70495 269.61133 45.801301)
(353.7611 276.2922 39.907536)
(405.33331 283.00915 34.080017)
(457.18667 289.5596 28.529919)
(509.26245 295.78008 23.33022)
(561.60064 301.54942 18.473621)
(614.27838 306.82411 13.938583)
(667.26233 311.62329 9.7672149)
(720.55772 315.90822 6.0255549)
(773.91183 319.72823 2.8064298)
(827.08327 322.98984 0.32585334)
(879.91612 325.70754 -1.4506156)
(932.11545 327.81206 -2.3411343)
(983.7115 329.27418 -2.6113783)
(1034.6783 330.11498 -2.3825855)
(1085.2124 330.45347 -1.8732287)
(1135.4387 330.32018 -1.2238415)
(1185.6318 329.92248 -0.61455317)
(1235.9365 329.26802 -0.084400003)
(1286.5271 328.60096 0.32296822)
(1337.5265 327.70634 0.66646807)
(1388.9527 326.91192 0.88224108)
(1440.9624 325.74678 1.0626229)
(1493.415 324.57167 1.0320016)
(1546.5354 323.02304 0.79432754)
(1600.12 321.27927 0.23428903)
(1654.2839 319.26007 -0.70149878)
(1708.9785 317.12632 -2.0345567)
(1764.0784 314.82062 -3.5770153)
(1819.568 312.59127 -5.3202553)
(1875.0598 310.367 -6.8888388)
(1930.6099 308.21899 -8.1266129)
(1985.6661 306.11628 -8.8153826)
(2040.3657 304.06584 -8.7378862)
(2094.2696 301.9662 -7.8269361)
(2147.5166 299.67947 -6.2383141)
(2200.2768 297.41221 -3.8109967)
(2252.5352 294.6093 -1.2059776)
(15.645759 -14.391816 -19.44498)
(36.937682 -25.762212 -28.087893)
(53.611057 -35.550652 -34.293405)
(62.775367 -44.701349 -38.513164)
(62.693579 -52.406312 -39.028455)
(51.869188 -59.114267 -36.263428)
(30.489412 -64.745172 -30.301093)
(-0.29131656 -69.354122 -21.538811)
(-38.511308 -72.941729 -10.95522)
(-81.490252 -75.775212 0.51752123)
(-126.14945 -77.851945 11.623344)
(-169.33388 -79.328311 21.19121)
(-208.53858 -79.959908 28.276008)
(-242.02757 -79.599167 32.204863)
(-269.08489 -77.892845 32.856488)
(-290.08545 -74.497134 30.626228)
(-306.64016 -69.200192 26.434891)
(-320.94765 -61.945741 21.451128)
(-335.38956 -52.812487 16.928199)
(-352.27882 -42.14342 13.907544)
(-372.90608 -30.444313 13.187012)
(-397.55354 -18.24512 15.086973)
(-425.49116 -6.0970112 19.316025)
(-454.8452 5.5493316 25.209962)
(-483.1337 16.42206 31.935118)
(-507.75025 26.42713 38.313173)
(-526.30847 35.606058 43.531095)
(-537.12009 44.156397 46.827209)
(-539.5233 52.314536 47.757674)
(-533.68671 60.253834 46.521977)
(-520.85855 68.115955 43.214112)
(-502.7757 75.975253 38.332347)
(-481.29743 83.748469 32.598958)
(-458.23634 91.327407 26.37395)
(-434.84134 98.628059 20.35445)
(-412.01135 105.63749 14.695657)
(-389.97621 112.11193 9.7162342)
(-368.36655 118.24609 5.3338047)
(-346.63457 124.14843 1.6906764)
(-324.14339 129.8848 -1.2006704)
(-300.2306 135.67664 -3.2336661)
(-274.63437 141.70697 -4.3187729)
(-247.34971 148.07479 -4.0322968)
(-218.63897 154.74325 -2.3401371)
(-188.94614 161.67372 0.98353655)
(-158.72734 168.68646 5.9715457)
(-128.32435 175.49469 12.450923)
(-97.811902 181.87249 20.024761)
(-66.986515 187.59775 28.088936)
(-35.37376 192.59019 35.92628)
(-2.3418798 196.88722 42.797978)
(32.764002 200.67213 48.074941)
(70.468346 204.21979 51.334314)
(111.05592 207.84681 52.421699)
(154.51789 211.8316 51.456907)
(200.56799 216.36036 48.778727)
(248.72714 221.4848 44.860247)
(298.43585 227.12173 40.201246)
(349.16996 233.08396 35.2363)
(400.53438 239.12897 30.276474)
(452.29665 245.02343 25.500672)
(504.37357 250.59022 20.966886)
(556.77733 255.6997 16.706141)
(609.53505 260.36755 12.678043)
(662.64374 264.58463 8.9810704)
(716.05618 268.3942 5.5957386)
(769.39075 271.73968 2.8621302)
(822.70839 274.7155 0.63561569)
(875.65554 277.29199 -0.96600964)
(928.07133 279.33217 -1.8528822)
(979.84716 280.75492 -2.1713651)
(1031.0068 281.54176 -2.051271)
(1081.6826 281.80373 -1.6751625)
(1132.0231 281.50061 -1.1418929)
(1182.2724 280.92905 -0.66064395)
(1232.5567 279.97566 -0.14401163)
(1283.1097 279.03545 0.20714263)
(1334.0199 277.74806 0.62179464)
(1385.3882 276.63154 0.8215058)
(1437.2924 274.9762 1.143211)
(1489.7348 273.52771 1.0752461)
(1542.7728 271.45233 1.0290406)
(1596.3604 269.43252 0.50940448)
(1650.5247 267.04138 -0.3014828)
(1705.2311 264.79924 -1.4452607)
(1760.2451 262.30682 -2.8679414)
(1815.6842 260.02092 -4.4080942)
(1871.1158 257.77587 -5.8025922)
(1926.6276 255.56876 -6.9614586)
(1981.699 253.66531 -7.5646858)
(2036.3791 251.52662 -7.49817)
(2090.2989 249.50291 -6.7980681)
(2143.6085 247.22069 -5.3298993)
(2196.2413 244.74809 -3.2992007)
(2248.5389 241.93474 -0.90162149)
(21.560587 -13.131381 -18.141265)
(43.303764 -21.455251 -25.0443)
(58.34889 -30.0554 -29.302299)
(66.413868 -37.180376 -31.956535)
(65.110873 -42.835552 -31.538384)
(53.35372 -47.276458 -28.906158)
(31.378461 -50.627777 -23.673145)
(0.1812417 -53.159234 -16.480253)
(-38.179143 -55.222288 -7.7968032)
(-81.077044 -56.933566 1.4182658)
(-125.59375 -58.537453 10.341318)
(-168.74417 -59.937641 17.928614)
(-208.14233 -60.951401 23.478062)
(-242.0489 -61.219947 26.503388)
(-269.8396 -60.333415 26.997673)
(-291.9524 -57.817033 25.25588)
(-309.85107 -53.350793 22.042376)
(-325.56399 -46.840008 18.220554)
(-341.35305 -38.456683 14.792272)
(-359.12464 -28.554428 12.646964)
(-380.18658 -17.728439 12.323849)
(-404.82582 -6.6386308 13.982522)
(-432.20961 4.0941914 17.462652)
(-460.65801 13.959026 22.202361)
(-487.87017 22.699043 27.476368)
(-511.37702 30.233913 32.481915)
(-528.98414 36.74924 36.510213)
(-539.16378 42.507155 39.006983)
(-541.18927 47.881554 39.746754)
(-535.40407 53.21686 38.636181)
(-522.79963 58.706428 35.92659)
(-504.98068 64.497444 32.019034)
(-483.79121 70.497531 27.259545)
(-460.83567 76.682417 22.173691)
(-437.51111 82.815335 17.001144)
(-414.58682 88.714298 12.111771)
(-392.31616 94.32475 7.6516458)
(-370.44691 99.47836 3.7459136)
(-348.4261 104.33874 0.42880227)
(-325.69143 108.99405 -2.1778856)
(-301.71394 113.60845 -4.02508)
(-276.23717 118.35924 -4.8776981)
(-249.19692 123.42541 -4.5484246)
(-220.82154 128.7685 -2.886176)
(-191.47045 134.39828 0.19040046)
(-161.54378 140.15502 4.6943202)
(-131.30279 145.78838 10.437944)
(-100.81603 151.06586 17.042959)
(-69.883266 155.78242 23.983202)
(-38.088335 159.84588 30.645449)
(-4.8667147 163.28516 36.417008)
(30.358254 166.26848 40.790507)
(68.05499 169.0524 43.44011)
(108.48105 171.93294 44.267489)
(151.63823 175.16978 43.397438)
(197.28591 178.93121 41.129641)
(245.01017 183.25622 37.865592)
(294.31762 188.05498 34.01286)
(344.74115 193.14508 29.919425)
(395.91303 198.29015 25.829198)
(447.5984 203.27763 21.867028)
(499.69315 207.93487 18.084828)
(552.16794 212.18677 14.484774)
(605.02388 216.03139 11.050302)
(658.23196 219.47694 7.8813714)
(711.69572 222.58406 4.9891769)
(765.18451 225.46368 2.6063341)
(818.58724 227.96005 0.44327894)
(871.74166 230.03419 -0.78050511)
(924.25873 231.66711 -1.555722)
(976.21367 232.73185 -1.7840277)
(1027.5558 233.24102 -1.6645683)
(1078.4316 233.21979 -1.3390044)
(1128.8931 232.7362 -0.89634306)
(1179.216 231.87373 -0.45388659)
(1229.5066 230.74418 -0.030995542)
(1280.041 229.44988 0.32576039)
(1330.8498 227.98243 0.68748583)
(1382.1625 226.40924 0.99700429)
(1433.9544 224.63566 1.2650318)
(1486.3357 222.75402 1.3769517)
(1539.3168 220.50215 1.3640975)
(1592.8181 218.30078 0.91930638)
(1647.01 215.70072 0.28843002)
(1701.51 213.13204 -0.86366588)
(1756.5605 210.53878 -2.1078997)
(1811.9126 208.15481 -3.5142779)
(1867.3658 205.68601 -4.7834165)
(1922.8281 203.62193 -5.8370326)
(1977.9057 201.37689 -6.3246617)
(2032.5605 199.25038 -6.3790383)
(2086.5889 197.07 -5.6858385)
(2139.9047 194.58479 -4.5828617)
(2192.6219 191.95258 -2.8298535)
(2244.8242 189.04869 -0.94457134)
(25.642962 -10.695742 -15.872449)
(47.527555 -16.924754 -20.242215)
(62.170815 -23.415605 -23.101133)
(69.201248 -28.6638 -24.712387)
(66.745902 -32.778341 -24.082094)
(54.070652 -35.733242 -21.661529)
(31.454015 -37.767087 -17.411492)
(-0.020167006 -39.229485 -11.66185)
(-38.383793 -40.360058 -4.9455406)
(-81.090839 -41.475893 2.1676483)
(-125.30581 -42.660052 8.8964068)
(-168.25651 -43.903044 14.587408)
(-207.6111 -44.957914 18.681202)
(-241.83063 -45.461821 20.873871)
(-270.31282 -44.953107 21.128359)
(-293.49543 -42.997191 19.772123)
(-312.67991 -39.310916 17.328593)
(-329.743 -33.790831 14.555654)
(-346.69203 -26.593091 12.172493)
(-365.35501 -18.095609 10.77031)
(-386.81397 -8.8725474 10.737712)
(-411.27368 0.44674597 12.20603)
(-438.01406 9.2703635 14.960841)
(-465.43993 17.15659 18.601593)
(-491.44948 23.883821 22.565594)
(-513.76311 29.423778 26.287524)
(-530.39192 33.973516 29.224921)
(-539.87799 37.845018 31.051804)
(-541.64901 41.414704 31.521376)
(-535.88831 45.017448 30.682609)
(-523.58712 48.891155 28.642352)
(-506.21405 53.156797 25.633584)
(-485.3884 57.792777 21.986756)
(-462.75838 62.682155 17.923063)
(-439.49451 67.601214 13.781052)
(-416.41985 72.43392 9.7271734)
(-393.75068 76.997145 5.8881903)
(-371.32063 81.270387 2.3889349)
(-348.967 85.175653 -0.5728005)
(-325.9755 88.830666 -2.974167)
(-301.9386 92.399786 -4.5934013)
(-276.5408 96.0772 -5.3536583)
(-249.79721 99.95085 -5.0390899)
(-221.82794 104.10576 -3.5391244)
(-192.92414 108.50023 -0.77263795)
(-163.39019 113.00427 3.198236)
(-133.44456 117.41993 8.1872947)
(-103.10881 121.54807 13.839073)
(-72.193902 125.22423 19.69615)
(-40.319305 128.3743 25.233673)
(-6.983194 131.03393 29.949775)
(28.322736 133.35447 33.44273)
(66.011522 135.5554 35.474595)
(106.30971 137.88665 35.999117)
(149.22279 140.55459 35.154431)
(194.54211 143.68321 33.21549)
(241.90436 147.28094 30.52464)
(290.87366 151.25052 27.416425)
(341.02733 155.41741 24.163691)
(392.02025 159.57562 20.938896)
(443.62035 163.54015 17.825012)
(495.70367 167.19307 14.834226)
(548.20133 170.47 11.951247)
(601.11726 173.38616 9.185568)
(654.34005 175.97535 6.5951905)
(707.83416 178.33799 4.1848923)
(761.38092 180.38952 2.1633618)
(814.83644 182.24531 0.59580508)
(868.03518 183.75236 -0.58519997)
(920.66099 184.83479 -1.2243284)
(972.8073 185.42804 -1.4381524)
(1024.334 185.51275 -1.4101419)
(1075.3106 185.11503 -1.1612593)
(1125.9128 184.26312 -0.83169117)
(1176.316 183.08965 -0.52166094)
(1226.6248 181.66329 -0.18048693)
(1277.1236 180.10224 0.11325536)
(1327.8321 178.34492 0.48937381)
(1379.0609 176.55568 0.76733149)
(1430.6916 174.4883 1.1274481)
(1483.0106 172.39323 1.2798693)
(1535.817 169.93839 1.3274653)
(1589.3461 167.57043 1.0270165)
(1643.3404 164.74576 0.50634836)
(1697.9753 162.23719 -0.4456725)
(1752.906 159.48664 -1.488185)
(1808.341 156.91805 -2.7334597)
(1863.6991 154.54551 -3.8929471)
(1919.2324 152.10378 -4.7802512)
(1974.3066 149.82058 -5.3392217)
(2029.1288 147.516 -5.4141407)
(2083.1953 145.00964 -4.8958208)
(2136.7181 142.38979 -4.0686506)
(2189.4178 139.40381 -2.6171436)
(2241.7976 136.26963 -1.2014699)
(28.761738 -7.9588668 -12.182826)
(51.113253 -11.810256 -15.221901)
(65.379478 -16.5685 -17.343911)
(71.525233 -20.322426 -18.29705)
(68.095634 -23.045003 -17.310211)
(54.63731 -24.96834 -15.308462)
(31.496347 -26.134494 -11.887197)
(-0.21029186 -26.876028 -7.5264742)
(-38.521501 -27.480921 -2.4458552)
(-80.994758 -28.151838 2.7970832)
(-124.90095 -29.032233 7.7409616)
(-167.6024 -30.042564 11.839893)
(-206.93085 -31.000231 14.731777)
(-241.41828 -31.548032 16.175365)
(-270.53692 -31.3071 16.223932)
(-294.6694 -29.899118 15.094263)
(-315.00657 -27.06687 13.259145)
(-333.26491 -22.738218 11.228718)
(-351.30891 -17.064762 9.5321212)
(-370.72219 -10.379934 8.6208509)
(-392.49438 -3.1687549 8.7478023)
(-416.81482 4.0510434 9.9440379)
(-442.94789 10.791232 12.049131)
(-469.4507 16.708535 14.744823)
(-494.35624 21.618453 17.639289)
(-515.60895 25.538598 20.311708)
(-531.34601 28.650027 22.428186)
(-540.28329 31.242448 23.722698)
(-541.82186 33.62369 24.095703)
(-536.17951 36.10234 23.514806)
(-524.2119 38.847808 22.081591)
(-507.245 41.990569 19.94255)
(-486.8538 45.466376 17.248583)
(-464.4548 49.175315 14.234814)
(-441.25335 52.997116 11.000838)
(-418.07416 56.692703 7.7754434)
(-395.10123 60.276019 4.5716731)
(-372.60325 63.414344 1.8587466)
(-349.92228 66.401918 -0.66737112)
(-326.64015 69.127317 -2.7614983)
(-302.46503 71.799628 -4.2251308)
(-277.15799 74.49314 -4.930132)
(-250.62805 77.400674 -4.7213585)
(-222.98862 80.511728 -3.5041516)
(-194.47052 83.822825 -1.2509882)
(-165.31201 87.218638 1.9718314)
(-135.66228 90.550206 5.9897602)