/*--------------------------------*- C++ -*----------------------------------*\
  =========                 |
  \\      /  F ield         | OpenFOAM: The Open Source CFD Toolbox
   \\    /   O peration     | Website:  https://openfoam.org
    \\  /    A nd           | Version:  6
     \\/     M anipulation  |
\*---------------------------------------------------------------------------*/
FoamFile
{
    version     2.0;
    format      ascii;
    class       pointScalarField;
    location    "0.89";
    object      E;
}
// * * * * * * * * * * * * * * * * * * * * * * * * * * * * * * * * * * * * * //

dimensions      [1 -1 -2 0 0 0 0];

internalField   nonuniform List<scalar> 
3969
(
1864.4552
536.50184
30441.686
6744.3952
1985.9235
1510.0541
8321.02
26470.417
417.15977
92.297144
-169.35849
-17.44968
-98.022943
-509.2741
-286.23718
22038.099
14147.474
15601.685
20349.304
26469.854
30180.317
28176.686
2484.6688
2113.7658
2693.0598
3138.2484
3773.2056
3997.7958
4283.377
4684.3001
4318.3547
4604.9945
4694.359
4508.6163
4640.3842
4529.0087
4566.2967
4156.75
4260.5183
3982.206
3863.0602
3551.7936
3195.3323
2803.7085
2316.3424
1935.7005
1168.4507
651.1963
-300.14139
-1376.1463
-2430.4605
-3793.5124
-5208.1816
-6641.8189
-8102.1778
-9519.578
-10531.828
-11391.906
-11722.449
-12058.706
-11483.985
-10988.595
-9136.5661
-7698.9881
-4441.1476
-1863.0014
2604.4448
6327.955
18397.295
4688.5428
-772.65376
4668.4102
2120.4365
4129.3775
2812.1925
3027.6981
2221.0747
1571.4627
1133.3898
-118.2516
-717.89355
-1768.608
-2002.8951
-2672.1661
-2988.8145
-2958.4463
-3298.4391
-2682.517
-2369.885
-1324.4801
-147.79646
1501.4614
3634.1885
5940.232
8899.5469
11168.691
14773.304
18268.701
21383.024
25373.626
28876.85
32703.291
36156.352
39600.31
42798.011
44934.415
46941.714
48240.196
48408.24
48192.413
46663.345
44227.282
40897.589
37076.033
32499.856
23631.555
665.93812
192.53367
-236.90827
50.294164
-256.18008
-295.75131
-399.85105
4112.3525
6961.1251
-3655.4045
5946.8784
3732.9614
3050.1453
4876.8354
1402.8344
3804.4741
-457.12975
3158.3034
1320.4175
1166.6369
270.47879
-433.21499
-813.79639
-1248.5442
-1424.9611
-1101.5007
-888.59009
-11.524863
717.01417
1996.689
3175.6061
5103.5448
7700.1763
10450.949
13663.205
16809.643
20253.416
23543.634
27186.5
30409.128
33512.118
35950.405
38976.941
41366.584
40873.017
41240.378
40819.451
39355.562
37585.683
34752.974
31491.89
27692.367
23035.622
24644.436
27628.086
27880.632
25575.047
22840.395
17406.385
12906.646
20992.724
17673.218
16337.866
14970.729
11936.571
9449.7117
7221.2182
5310.2767
3702.7769
2497.9011
1529.3787
977.04609
-358.03253
-686.42108
-659.1493
-828.4073
-802.47233
-727.46148
-507.8698
-330.5357
-19.752257
168.28064
441.88464
435.26998
514.18268
577.99339
680.71396
810.72642
958.17022
1277.4571
1453.5718
1983.7681
2359.0614
3231.9732
2555.2967
3201.1821
3708.7244
3817.792
3903.1578
3965.9505
4011.3399
4822.3095
3079.3602
4781.121
2306.4582
3823.9708
915.12199
4181.0055
975.85517
1147.8626
943.83385
1215.5471
1152.1941
1050.9483
331.96418
-369.66814
17.414572
-606.26343
-708.9284
-428.33084
-188.84359
-1420.8809
7275.7122
7461.2203
7268.5931
7277.8779
7087.0998
7143.7425
7443.8026
30283.574
29799.977
29734.355
29725.876
29574.202
29541.732
28830.821
2239.6212
443.63288
1265.1947
1101.1578
599.67729
1083.4701
137.05572
534.32498
-146.42964
88.016748
-269.18882
-489.91309
-417.28973
-662.70204
-673.87027
-606.37395
-144.58444
-193.5653
258.91655
376.36415
768.76232
1042.384
1500.614
1732.6175
2120.2909
2502.1158
2876.6905
3414.5656
4234.5331
4949.8065
5867.909
6826.4088
7664.0267
8702.1427
9753.9748
10704.755
11943.268
12886.521
14230.401
15458.374
16828.146
18328.806
19868.257
21114.929
23057.189
24037.805
26740.711
816.29233
-136.60168
217.71583
-313.29636
-400.04506
-549.57472
-1126.8832
-1060.0775
-1614.0771
-1575.8325
-1800.3876
-1647.4407
-1792.7024
-1707.0544
-1468.7178
-1232.684
-955.39131
-608.50518
-83.630301
483.86689
1065.8643
1882.9734
2513.5413
3495.1196
4351.9551
5289.4861
6324.7169
7525.2775
8587.3922
9841.2509
11119.77
12302.62
13531.444
14751.971
15903.299
17059.173
18384.778
19155.964
20629.981
21224.586
22803.538
23212.757
24612.073
24917.071
26220.625
25637.445
24307.057
645.10721
-338.79916
198.8063
-336.69938
-593.60624
-610.81983
-935.23861
-928.90422
-1147.1353
-1029.2385
-1202.1484
-1061.3911
-1211.1449
-852.20974
-868.04187
-451.44032
39.237994
630.75444
1408.4824
2030.1677
2882.7233
3544.7624
4665.104
5682.8928
6788.7454
7925.6956
9391.6175
10526.539
12134.673
13633.426
15063.258
16574.365
17939.199
19326.986
20617.536
21869.936
22985.788
24145.175
25185.725
25946.968
26523.902
26755.309
27081.564
26633.602
26675.572
25077.156
21583.427
397.23681
6.4080833
282.46899
33.839257
-193.15638
-217.46463
-649.92698
-1004.275
-1104.9057
-1623.6127
-1658.5407
-1482.3011
-1750.9843
-1135.081
-1238.3101
-300.08414
-127.24161
821.95119
1310.6845
2240.3467
3162.244
4494.4292
5611.8661
6563.7909
7445.8708
8626.9367
9527.6741
10503.718
11512.796
12386.942
13316.992
14232.003
14998.704
15924.213
16610.091
17399.654
18176.438
18798.432
20092.908
20633.005
21507.07
21552.148
22208.528
21936.287
22527.457
21062.802
19359.455
464.56732
-577.59651
66.614228
-669.42677
-655.77145
-996.6056
-1204.8445
-1385.0188
-1226.6703
-1454.2428
-793.02821
-878.08487
-402.24183
-60.265308
366.39063
870.32572
1383.6313
1988.7104
2646.8246
3299.3768
3972.6447
4813.3803
6081.6252
6151.4204
6359.4153
6180.6312
5931.7713
5681.6514
5374.3311
4985.6674
4562.2085
4136.1267
3619.6216
3254.188
2774.4674
2584.7588
2365.1171
2425.6242
7653.2039
15070.695
14956.58
15601.074
16025.586
16473.089
16898.696
16667.112
19342.174
880.76744
-491.99372
239.96625
281.35164
389.10133
489.51482
643.5477
484.93894
1044.1634
877.1196
1197.5384
1155.9005
1912.8307
2269.33
2582.5344
3159.4911
3440.1567
3907.6445
4220.8881
4423.8412
4806.3498
4354.156
4662.2562
4897.512
4683.9557
4314.7471
4197.5102
3665.6801
3046.4079
2471.722
1838.3133
1148.0218
592.21783
210.256
-296.25016
-109.50401
-159.03131
106.67659
583.99893
3589.0052
4071.5388
4990.6986
6373.5374
8001.1214
9958.5784
12670.293
20693.932
1152.9602
-1418.955
221.19071
-191.67088
206.29198
297.72909
682.70474
505.72381
1400.4704
945.31947
1755.3106
979.43994
1668.4205
1290.0891
1744.9777
1736.9718
2041.2827
2231.8035
2365.9872
2552.487
2525.9065
2643.8918
2085.6638
2014.7696
1670.1942
1531.0484
1707.03
1700.2624
1834.9765
2204.8339
2497.2373
2800.044
3166.1289
3608.7111
3968.46
4896.912
5375.3385
6868.2973
7534.8206
4466.8555
5941.7562
8590.1434
11547.647
14614.753
17921.614
21971.834
27366.524
69.53979
-73.920789
-172.89735
-267.76625
-89.175182
-94.21759
51.425181
63.918169
157.89427
5.9582708
43.448737
66.827772
164.43434
28.203517
-184.31163
-301.6055
-412.5611
-390.89317
-384.70987
-375.9338
-366.59885
-46.993836
-129.63012
-91.58142
-110.97291
-107.10448
11.638825
-26.114437
-252.58396
-344.80228
-365.47675
-413.88104
-439.53833
-367.06252
-321.39285
-605.32362
-1017.682
-931.95855
-1175.2146
-1166.5239
-1146.3036
-994.50642
-917.46434
-985.79451
-1393.4877
-1595.6486
-1573.7541
-1535.1238
-1259.3739
4365.1917
5472.3043
5585.28
6367.2516
6051.3851
5550.3706
4328.4778
3717.0314
4976.0591
2428.8385
1491.277
4009.9075
2599.2468
4959.2141
1513.3578
1182.7396
3335.9783
2346.7149
1615.9821
1179.6688
3861.5042
4039.2887
4779.7251
2965.3081
3319.7664
3485.5875
4633.4398
3083.6495
3740.8118
3640.6944
4914.2015
4237.3416
4165.5377
3884.857
5547.4642
4109.4471
3200.1523
2366.3011
2941.7549
2447.4594
3175.6019
2724.6602
3586.0512
3312.6906
4458.9065
3857.9719
4457.7879
4376.7966
5328.1678
3173.6295
2712.1416
2207.2477
2218.7745
1525.7594
1807.3612
1791.8971
2830.5923
2067.8761
2589.2406
2260.9671
2973.3934
2862.7996
4047.7659
1534.8304
1193.6974
629.57421
1729.7333
499.48374
504.28276
667.63053
1648.0475
891.70433
1522.1671
128.3304
820.14489
285.14006
2178.8288
23.71407
521.8393
-611.99364
275.40235
-169.04951
-1461.0376
1182.1139
-130.23925
-993.16142
-427.88908
-1132.5107
-920.86257
-704.50827
264.25105
-1241.4459
-1444.7877
-979.43777
-1959.9907
-1052.3567
-2369.0636
79.459876
-1550.2746
-1641.9772
-2030.2703
-2100.04
-2195.9293
-2519.2789
-954.80141
-1841.7045
-2602.0475
-2019.4286
-2937.5886
-2253.8244
-3171.154
-1217.8079
-2557.4207
-2402.1971
-2467.5913
-3048.3983
-2575.6817
-3303.9058
-1768.6546
-2194.879
-2742.773
-2297.8062
-3107.4096
-2564.2142
-3424.4633
-1924.0928
-2196.5238
-2392.5837
-2000.2968
-2908.0978
-2300.6797
-3000.0552
-1643.0047
-1565.3932
-1875.805
-1545.638
-2312.973
-1739.5748
-2573.1818
-1354.8938
-705.91045
-1017.1071
-651.04558
-1478.3828
-1036.3997
-1680.7069
-536.99054
452.5861
169.25754
424.15982
-408.5532
166.0912
-601.9513
513.3496
2117.4897
1770.1698
1918.1112
1287.1466
1671.3764
1080.44
2088.5766
4162.1029
3788.2875
3862.1757
3203.6375
3594.5903
2847.4045
3739.2988
6576.0209
6372.3751
5770.611
5724.6887
5746.1443
5352.7921
6272.3648
9445.2624
8917.2228
8489.3979
8211.8244
7781.8584
7984.6678
9120.6786
11966.835
11887.647
11450.616
11287.864
11861.968
11065.394
12072.96
15302.438
14593.923
14903.433
14268.489
14440.828
13371.215
15050.732
17752.591
18156.992
17366.153
17968.23
17616.199
17638.558
18161.249
21596.904
20841.151
21365.956
21265.077
21351.406
20914.844
21574.079
24446.788
24919.323
24588.051
25141.046
24807.709
24755.486
25051.839
28355.413
28150.454
28298.16
28763.008
28575.605
28582.451
28809.223
31465.854
31800.075
31774.067
32504.951
32190.828
32365.635
32595.704
34995.718
35174.098
35238.478
35966.052
35503.776
35801.174
36074.528
37915.055
38262.085
38162.947
39035.568
38770.917
39273.316
39160.401
40965.744
41024.542
40965.841
41831.877
41112.57
41722.779
42129.362
42404.414
42760.682
42886.305
43668.335
43553.582
41453.954
42041.429
42212.65
41805.065
42131.966
42680.638
42266.658
45715.447
45509.412
45177.334
45005.013
45305.908
45560.169
45333.56
45657.106
46403.804
45577.999
45316.08
45002.432
45704.898
45195.478
45620.252
46267.272
44710.513
44111.303
44191.669
44469.768
44165.735
44454.574
44890.317
42927.865
42440.539
42234.204
42661.018
42233.895
42583.404
42880.624
40300.614
39858.67
39910.166
40069.999
39748.515
40016.783
40155.288
36838.279
36705.332
36477.725
36672.96
36269.975
36653.378
36492.426
33021.156
32820.785
32686.246
32738.903
32543.302
32754.131
32445.927
28453.766
28443.007
28188.944
28319.506
27999.866
28204.563
27658.088
24017.306
23907.925
23811.582
23651.027
23663.529
23564.584
23584.955
19725.542
20923.574
20863.4
20833.881
20664.13
20543.873
20407.516
11396.393
13134.806
12876.07
12818.632
12626.487
13195.833
11941.751
16745.741
16682.642
16738.075
16619.699
16528.637
15851.526
15567.655
21198.829
21445.098
21286.41
21319.812
20939.612
21120.909
20127.647
27528.755
30226.192
28422.785
28123.828
28264.115
27807.225
27082.885
31337.479
30793.293
30247.899
30341.745
29120.427
30036.201
28662.492
27619.494
28260.11
28233.596
28042.419
28884.664
27962.265
27826.485
2341.2585
2817.8678
2810.6957
2874.8711
3010.6267
3246.9399
2608.9109
1570.4444
1076.2896
1562.1177
2076.9133
1651.9362
1236.0505
1911.3246
3518.3935
3858.7025
3485.1737
3184.0893
4211.2344
3415.3899
4289.1573
3108.9497
3043.7132
2896.1308
3420.6587
2891.1268
2662.2502
3302.7381
4971.6372
4527.4471
4818.805
4559.329
4962.8997
4603.8896
4926.9324
3848.5001
3912.7184
3612.1902
3621.1297
3591.3292
2879.918
3755.9111
5629.1118
5027.9211
5125.7265
5122.969
5229.6691
5384.016
5494.9679
4462.5611
4432.6695
4176.9049
3989.4494
3894.5835
3706.6249
4306.3659
5316.4589
4807.8222
4912.2005
4616.3511
5035.2035
4145.0603
4993.4338
5152.1097
4610.431
4582.209
4493.1181
4292.4058
4137.5387
4555.4251
4891.2207
4675.6123
4665.2851
4339.3834
4437.0252
3977.379
4330.7709
4963.3382
4596.4528
4295.5672
4634.5815
4430.1144
4335.8853
4641.9769
4912.2374
4302.3589
4472.6909
3947.6448
4295.0405
3530.7329
4284.827
4768.9857
4448.3666
4180.1757
4256.6696
4212.6711
4315.7348
4642.7655
4612.0358
3932.0876
4178.671
4296.4707
4424.7881
3283.7258
4171.4514
4327.8281
3848.1978
4038.8056
3298.6702
3901.6282
3658.3653
3837.5809
4143.5618
3981.1904
3804.4451
3884.8152
3901.1387
3387.089
3882.1816
4111.8018
3514.8884
3746.7446
3386.9277
3515.912
3221.67
3482.5401
3608.5429
3453.9285
3433.9322
3138.0561
3488.726
2999.7558
3295.679
3476.8816
3108.2659
3124.1756
2999.9935
3121.1564
2736.6762
2977.4847
2927.4433
2641.7285
2836.8953
2511.1922
2790.7474
2460.4544
2701.3643
2557.9258
2364.3014
2359.9189
2177.2552
2384.1137
2035.2464
2420.141
2082.2203
1728.4667
1862.4138
1657.4666
1840.3574
1646.8016
2236.675
1764.2229
1386.3232
1436.3398
1232.1409
1391.7788
1351.943
2136.7371
1362.6124
897.85358
901.27247
750.51676
888.59343
891.07377
1964.1894
1124.8963
386.2902
514.84965
296.72399
403.93253
491.01919
1839.9103
501.12469
-120.89079
-218.63181
-315.43739
-284.46866
-134.79794
1399.6472
-130.35569
-901.40117
-967.86265
-1017.526
-936.80232
-827.82008
932.77278
-1156.0608
-1933.3852
-1718.3338
-2046.7068
-1948.997
-1802.7802
40.242299
-2248.6564
-2729.4268
-2959.7074
-3087.5779
-2918.8746
-2792.5527
-813.00855
-3289.5766
-3935.7157
-3952.9658
-4075.7216
-3989.839
-3880.2146
-1747.5092
-4430.5103
-4906.9614
-5008.8492
-5158.2051
-5125.4376
-4944.0814
-2662.004
-5427.8807
-5870.8213
-6044.9267
-6236.8303
-6154.6643
-5915.7432
-3452.423
-6245.8035
-6701.4056
-6893.4531
-6933.7539
-6929.758
-6710.7075
-4140.321
-6833.1492
-7374.1686
-7542.1789
-7673.192
-7802.276
-7459.6664
-4726.6248
-7242.8916
-7748.8782
-7895.4722
-8093.3155
-8013.0238
-10184.816
-7305.7519
-9504.9553
-10232.786
-10429.565
-10580.756
-10509.498
-7774.4776
-2968.1805
-6424.5986
-7286.4306
-7576.2251
-7498.7717
-7615.8315
-7853.3427
-4520.5435
-6084.1065
-6636.3162
-6845.9469
-6936.0238
-7106.7349
-6944.7745
-3362.4726
-5008.6831
-5888.9159
-6084.3856
-6039.6831
-6150.4723
-5903.9698
-2603.4737
-3390.8623
-4101.4939
-4100.3821
-4205.6648
-4327.7037
-4372.8922
-1329.7594
-1891.7603
-2577.6502
-2689.933
-2845.928
-2889.5024
-2723.1574
309.03165
965.71235
449.15957
325.23631
273.24055
217.46202
166.61355
2457.7222
3157.532
2540.4327
2493.5941
2313.4752
2215.4941
2257.7665
4747.3039
7134.7215
6887.1277
6755.0959
6621.9873
6540.9157
6718.9024
8352.9028
9993.4946
9649.4129
9518.3317
9338.2022
9323.9105
9222.9956
10136.657
18293.072
18240.12
17936.741
17892.123
17781.436
17757.021
17767.441
2446.2362
1064.6496
1194.965
1169.0418
1355.6797
1832.7182
617.12665
1338.9404
268.4652
131.96889
-3.0270067
-1456.1186
-1247.8651
-2396.1694
-2823.4755
-2544.0491
-2832.7503
-2523.175
-2258.2141
-1651.8056
-1000.6812
-162.326
725.39678
1622.6901
2534.9554
3716.6007
5214.084
6874.2274
8898.0876
11091.842
13543.252
15987.064
18420.793
20659.523
22995.221
24438.549
28104.357
27749.504
28619.629
29399.973
30029.743
30368.133
30427.37
30024.13
29384.103
27608.23
30357.891
1504.2848
1625.6909
130.15811
395.25335
1369.3084
-405.28493
739.62594
-2.7236455
-68.613302
63.801839
-659.27748
-321.86307
-472.56512
-493.09392
88.087056
56.342074
525.3903
876.25302
1532.4972
2190.9339
2913.8247
3727.82
4534.0692
5496.9736
6511.6065
7488.4896
8323.2642
10467.782
11715.254
12970.04
14096.965
15141.378
16020.197
16983.449
17580.503
18599.775
18594.048
19180.978
19755.938
19772.375
19934.193
19660.465
19457.19
18649.856
18562.57
16639.306
21977.772
433.89239
121.70999
-414.63295
42.81745
-793.06272
-198.54812
-869.19558
-804.40038
-624.36644
-1000.7734
-726.43734
-157.38254
560.99292
1108.9113
1922.1501
2053.7011
3062.2619
3503.5077
4032.9531
4732.1617
5141.8592
5637.0425
5993.8903
6151.9956
6434.3038
6389.3238
6630.9527
6116.0113
6109.06
5721.6859
5439.6732
4983.0365
4758.0229
4378.4332
4120.8707
4034.9553
3928.3007
4193.7089
4469.1187
4997.7681
5721.426
6741.9253
7774.2471
9396.0216
11005.57
12894.57
17439.35
119.15062
660.4532
-508.40309
675.30131
-771.79105
768.97938
-1244.1545
1129.087
-826.81091
526.45834
526.52265
495.9086
1151.2193
3688.7732
3717.4871
4275.8346
4937.8285
5111.3213
5751.718
5984.6485
6267.8738
6333.3924
6287.2216
6382.4268
6137.9249
6103.0202
5497.1169
5128.6495
4415.4629
3760.2279
2987.7743
2267.9615
1611.6546
823.11302
419.49045
-32.044908
-251.90753
-321.68053
53.928134
448.12269
1486.7476
2441.2764
4413.1818
6044.5094
9244.2072
11259.333
15774.244
300.74229
9.3091228
124.44237
199.98098
218.10451
434.97531
147.45463
1829.3632
389.39846
2554.4405
1210.6734
2618.0259
2634.3793
3200.9247
3790.8662
4413.927
4740.8257
5309.7264
5523.8136
5890.9888
5989.703
5999.09
6067.0006
5650.0419
5026.3247
3989.8266
3192.3277
2271.3455
1337.3036
271.63793
-804.94903
-1817.5387
-2850.3278
-3621.5265
-4131.1676
-4655.022
-4632.2223
-4217.3346
-3724.9724
-2229.1726
-840.45344
1672.6113
4123.1424
7541.2256
11203.28
15159.892
17454.954
-248.30826
1136.7236
-1113.678
1571.478
-671.87101
536.05019
963.55961
-439.00118
1246.622
667.92806
989.457
1537.1647
571.07338
1636.6506
1509.728
1714.3217
2226.8356
2210.0994
2709.068
2724.692
3019.5932
3116.833
3373.0118
3523.0917
3724.3069
4057.7011
4496.304
4665.914
4938.2343
5103.8068
5533.0303
5643.2967
6067.7286
6643.1271
7178.2026
7879.5789
8959.4484
9704.7357
11324.817
12275.764
13867.879
15310.348
17049.656
18653.275
20962.872
22182.4
23207.975
1345.3789
-1262.602
1505.6498
-1485.4573
1430.4273
109.95543
960.36296
683.07847
1316.9441
1051.0078
1769.8574
2208.913
1150.2795
2248.1638
1536.5603
2614.5672
2460.2029
2964.1942
3001.1638
3072.7657
2938.9992
2732.152
2374.4534
1810.5176
1477.9125
1668.7062
1042.4552
1245.966
1003.5911
1229.1832
963.81896
821.83524
851.28523
925.03625
1288.9052
3067.0931
2788.792
4485.9121
6036.4899
8758.377
11364.38
14302.754
17287.94
20346.283
23225.806
25825.107
29044.465
1322.7519
1550.2684
1460.5057
1411.3469
1452.0673
1217.7998
1742.1762
956.92449
1000.9836
747.62294
828.6131
661.71687
691.67178
1134.2405
1181.4238
1095.9434
1359.5159
1196.8377
1292.9989
1328.1034
1863.3612
1726.205
1422.5824
1383.537
1498.3995
1367.5015
1431.8399
1628.1265
1334.835
1091.4861
1671.0921
1062.3133
1506.5505
1172.4888
1516.9007
1636.5424
1540.6793
1292.7226
1808.1377
1572.3928
1604.6403
2043.8889
1153.5097
577.29521
1331.1201
697.40136
901.72917
927.95132
919.29114
1028.6531
1046.5867
1010.5297
1086.0904
1366.6716
946.23438
1391.1375
713.99902
393.98014
634.18444
841.45983
511.32891
766.15412
579.94348
378.51421
88.063915
459.08486
36.815576
379.5703
126.98201
180.8385
-119.96974
-60.677543
47.848297
231.01134
342.09072
227.58393
284.02322
-226.26016
-697.5115
-185.26836
-632.79944
-486.46372
-670.97501
-699.52033
-675.24456
-748.264
-687.95243
-548.6794
-464.35412
-499.38938
-665.12861
-859.21406
-1268.884
-614.85381
-1090.6841
-724.56705
-1463.8312
-1159.0717
-1185.551
-1088.4079
-1379.7411
-1163.5712
-1408.8264
-1045.5477
-1496.6375
-1056.5377
-1367.0104
-1075.8457
-975.58723
-1059.4258
-1441.5323
-1754.892
-1323.7363
-1505.5476
-1304.4659
-1267.2804
-1372.2704
-1523.5333
-1651.861
-1207.3321
-1303.3726
-1089.3019
-1053.0895
-1094.6907
-1125.592
-1569.3756
-894.78264
-1070.3153
-958.92047
-892.1457
-863.14844
-1103.9142
-1473.5492
-700.52893
-709.87351
-598.32645
-448.68868
-598.52145
-691.28138
-1040.8473
-85.137925
-147.32132
-0.68578496
-28.505865
-80.23608
-188.05675
-611.02154
416.63214
443.00282
575.25064
587.17899
525.77521
439.82043
40.097475
1271.9442
1267.8835
1457.2366
1368.8923
1301.7977
1106.7343
825.21218
2005.7773
1982.19
2264.7945
2167.2185
2128.1206
1968.976
1719.6257
3082.8382
2892.287
3212.6084
3089.5937
3042.9203
2709.6629
2584.1238
3976.4014
3733.1936
4217.9265
3914.7798
3984.1198
3588.9202
3697.396
5151.7217
4845.6186
5318.506
5101.0328
5040.4693
4859.6367
4872.9703
6511.6526
6120.8834
6419.8042
6366.8637
6300.9625
5830.6489
6187.2563
7933.7311
7314.8451
8189.2872
7741.801
7652.9935
7339.7099
7767.1808
9544.0072
9294.9636
9544.4831
9198.6976
9345.7836
8829.3805
9399.6872
11335.923
10753.999
11280.641
11121.275
10992.058
10462.484
11241.706
13017.527
12702.764
13135.353
12754.083
12620.291
12240.11
13113.963
14893.302
14593.816
14865.221
14676.273
14583.023
14129.323
15189.136
16762.895
16460.541
16732.093
16584.559
16312.229
16035.106
16938.963
18551.161
18352.844
18495.112
18358.662
18133.246
17564.952
19110.489
20291.795
19991.873
20147.47
20076.21
19669.386
19804.327
20213.361
21664.285
21490.814
21180.814
21377.362
21111.956
20447.024
24421.428
23081.131
24031.071
24368.035
24265.97
23928.684
24054.026
23814.236
24434.897
24421.679
24214.633
24360.062
23922.131
23690.026
25443.841
25687.434
25273.018
24928.692
25305.033
24702.025
24860.762
26229.263
26563.86
26212.651
25918.081
26206.682
25652.901
25670.88
27142.712
27444.313
26980.064
26607.11
26913.202
26331.649
26600.557
27821.529
28057.876
27720.1
27346.252
27703.487
27189.572
27381.514
28282.157
28349.09
27832.103
27606.307
27828.844
27324.46
27571.557
28534.53
28931.241
28634.315
28391.465
28592.816
28182.583
28628.158
28853.19
28548.289
28083.887
27946.79
28072.704
27813.865
27863.807
27802.246
29675.555
29493.045
29315.573
29315.841
29081.23
29118.381
29092.134
449.18165
796.65291
631.33686
737.05599
528.70077
654.66837
523.00289
248.31572
511.99546
371.67963
654.78497
670.46398
893.35473
913.90828
333.81809
117.21709
117.97699
10.385081
294.23985
3.5312423
833.19087
51.931476
291.82025
261.12861
515.98947
211.44146
619.5107
52.652132
460.4569
151.9846
617.81963
160.44443
832.37326
225.04458
906.91776
-25.428539
13.439537
-408.21792
-100.22491
-546.87293
-215.52032
-138.36779
62.867627
-225.77586
332.44217
35.071959
288.59699
238.48735
-28.320494
-222.53977
-91.343728
-541.25983
-230.10858
-431.19547
-512.48485
-365.89828
-346.25225
-693.57035
-362.72345
-409.01084
-719.23536
-480.77225
-721.47023
-569.08149
-484.79933
-423.17055
-448.13971
-351.14897
-533.59521
-516.0844
-594.35284
-714.37449
-636.72896
-569.79846
-932.80882
-930.67267
-1064.3333
-735.04682
-661.28188
-744.68549
-603.9656
-717.38854
-745.92354
-834.71225
-731.26316
-827.53434
-517.62487
-366.58721
-719.17184
-664.8318
-1132.8978
-748.49164
-917.78847
-546.6322
-839.05071
-880.94246
-931.43799
-1060.1827
-551.11836
-672.39415
-370.52285
-477.81309
-260.63323
-475.30745
-833.65465
-264.51204
-788.3076
-133.22148
-437.92366
-329.30554
-604.38109
-813.02246
-194.11008
-186.30424
152.64239
-96.524562
51.461239
-57.228332
-180.37309
403.11089
134.484
509.11342
342.31709
452.7625
324.99116
92.890814
706.58979
570.56955
971.70619
746.03459
944.69715
745.41047
640.73313
1400.124
1230.1548
1533.2794
1463.3646
1482.2196
1375.4843
1369.028
1958.5228
1829.2554
2155.4171
1976.698
2111.1488
2154.7352
2038.3158
2811.2087
2832.9806
2913.991
2851.0338
3036.156
2858.4321
2940.6863
3657.3958
3560.0817
3644.1071
3714.1559
3637.9648
3848.6416
3916.1934
4775.0053
4670.7609
4725.577
4591.0096
4677.86
5009.4826
5060.5793
5843.3183
5706.9061
5692.4305
5564.0092
5675.4211
5941.5969
5977.0755
7265.6393
6987.8617
7052.1507
6870.9978
6708.9442
7164.4129
7564.1075
8735.6471
8256.4902
8030.7093
7908.5451
8272.3142
8661.9536
8755.2629
10359.307
9197.2982
9430.2411
9447.2224
9332.8416
10043.118
10089.946
11473.356
11164.091
10974.318
10598.484
10678.807
11593.127
11370.449
13164.785
12444.9
12069.996
12061.743
12154.978
12991.68
12828.639
14644.256
13706.834
13569.579
13518.712
13424.068
14443.954
14320.934
16136.015
15259.216
14991.656
14903.837
14906.62
16068.978
15892.556
17784.942
16560.501
16323.443
16295.269
16334.296
17528.363
17202.849
19246.774
17879.148
17735.369
17670.344
17658.759
18705.462
18723.375
20718.192
19149.278
18985.754
18944.364
18871.517
20394.723
20175.421
22064.716
20214.533
20206.612
20095.845
20289.854
21228.01
21330.373
23457.537
21532.423
21403.037
21407.803
21082.322
22618.715
22350.682
24408.325
22064.425
22159.887
22160.902
22093.471
23485.793
23311.109
25527.991
23219.035
23391.527
23258.416
23099.212
24171.747
24221.155
26009.827
23336.068
23826.719
23438.999
23606.615
24629.828
24663.33
26667.007
24295.228
24702.897
24365.995
24371.369
25017.46
24964.723
26424.444
24009.135
24540.391
24005.151
24155.82
24765.655
24962.969
26615.457
24633.951
25003.263
24671.961
24790.367
25096.046
24969.377
25811.982
23930.293
24256.393
23843.264
23815.949
23942.405
24089.392
25794.256
24429.43
24561.036
24286.569
24342.359
24539.799
24227.268
24051.656
22624.425
22671.761
22352.76
22392.394
22044.988
21726.862
23641.391
23110.186
22709.732
22587.757
22505.945
22487.168
22601.127
385.41391
635.17225
507.90552
502.03864
453.66222
459.60645
375.99137
-204.80817
-190.44572
-294.35898
-291.01737
-199.98722
-287.12784
30.434428
174.65564
-173.26961
-183.77839
-250.66843
-293.17078
-287.0376
159.51732
-212.255
-138.33363
208.51991
374.53407
283.76239
436.92276
129.49827
206.00902
-204.52296
-119.81355
-737.6706
-500.92097
-1084.4408
-297.75793
-136.32604
-810.76893
-531.15256
-461.98762
-422.61655
-121.22916
-396.21085
-333.57672
-739.2113
-103.35232
-487.61381
-69.385167
-847.03217
-427.03236
-306.04323
-880.01267
-838.68055
-1005.3699
-1172.5381
-976.66313
-981.31939
-715.2006
-1042.1191
-587.24044
-559.31095
-235.26232
-630.94471
-754.8833
-187.58369
-717.29753
-717.88405
-781.66247
-1087.4713
-1122.9175
-1186.9207
-560.27965
-1047.979
-783.63797
-859.0741
-663.15528
-843.09849
-926.53156
-172.10237
-590.23016
-585.65595
-477.55307
-536.47094
-695.3411
-849.75175
-116.77021
-684.88442
-379.02389
-346.14563
-415.74144
-568.51428
-313.0539
-22.44061
205.8304
409.0533
-106.97733
155.84719
22.555053
-94.881874
615.29347
345.58858
492.46185
536.52125
287.59034
299.95725
348.47697
914.06124
967.99851
1092.5015
986.9609
910.59444
727.42352
923.35114
1666.3729
1404.3375
1593.8747
1595.3681
1289.7628
1392.7185
1336.1922
2188.0161
1898.2181
2244.842
1996.7805
1934.5976
1987.0164
2015.3744
2946.0594
2610.2954
2838.2928
2741.4574
2509.5461
2620.2721
2560.6313
3602.254
3170.4257
3510.4101
3323.4794
3128.3487
3394.4217
3359.175
4521.6464
4048.1015
4304.376
4086.9174
3932.3022
4064.5336
4041.5669
5404.377
4655.4565
4953.1579
4851.6755
4527.031
4849.7836
4876.6472
6361.7157
5529.2754
5950.1271
5489.3146
5492.2498
5608.231
5733.046
7284.4333
6313.5722
6622.0286
6359.9275
6408.8964
6277.6081
6330.4581
8342.6802
7074.1971
7533.2369
7276.2079
7298.1549
6995.1457
7496.856
9294.3381
7851.2188
8376.1689
7854.506
8016.57
7830.2601
7836.8665
10540.964
8704.1262
9160.2129
8647.8082
9167.1881
8366.4087
9068.9536
11365.263
9521.6048
9901.4663
9647.1981
9823.8126
9029.8409
9751.9778
12532.219
10510.768
10991.207
10193.258
10891.237
9728.0085
10647.293
13523.501
11136.821
11440.948
10980.596
11609.229
10234.239
11382.947
14394.203
11992.19
12427.517
11931.421
12472.357
11091.926
12248.601
15360.713
12808.562
13143.546
12496.92
13149.433
11663.222
12751.885
16172.013
13543.093
13802.185
13304.693
13892.743
12216.164
13499.088
16967.573
14289.382
14556.106
13963.472
14495.975
13073.785
14133.909
17716.733
15018.812
15166.014
14549.723
15214.879
13501.457
14500.959
18404.008
15685.786
15844.762
15231.871
15702.957
14279.679
15125.417
18949.592
16288.853
16336.589
15711.308
16371.694
14715.493
15569.484
19484.397
16750.522
16975.52
16271.832
16820.424
15378.328
15869.928
19647.198
17441.455
17350.806
16793.118
17171.806
15930.714
16340.346
20066.434
17911.722
17673.209
17376.254
17614.528
16704.23
16655.571
20079.136
18446.414
17966.163
17890.879
17903.128
17026.267
16878.311
20375.932
18677.671
18259.852
18280.257
18113.527
17819.172
17337.072
20316.199
19139.564
18653.472
18739.424
18561.568
18281.542
17313.567
20302.714
19123.509
18695.164
18875.43
18471.349
18479.246
17672.901
20427.149
19595.666
19268.383
19420.637
18982.641
19446.222
17962.98
19821.041
19087.536
18889.617
18989.902
18629.745
18751.767
17447.335
19021.456
18655.508
18379.998
18446.009
18155.172
18396.658
18135.422
198.31924
351.30573
219.2442
287.24558
207.84678
243.24051
10.500512
85.707615
184.2797
276.14863
492.79503
453.74051
638.86878
686.43653
56.745805
-434.30429
-481.24502
-506.09747
-445.10534
-410.01537
-454.59374
323.64334
373.44569
626.35515
621.59716
752.00778
798.50999
650.53192
123.49527
-407.26047
-541.69054
-969.37381
-944.21166
-967.28706
-611.48706
530.45812
81.184061
387.55885
637.8804
716.10243
608.05375
772.51638
251.57996
-263.32905
-787.15341
-641.56801
-938.78055
-777.49809
-614.83382
481.33448
73.474959
225.22001
309.79175
376.55481
756.96184
621.1526
619.88256
52.747735
-18.589962
-325.22858
43.935392
-387.9004
45.12003
620.66911
94.258159
28.107742
99.494355
111.19086
636.69407
742.67196
994.71042
-51.131597
826.69094
174.05474
810.06586
594.59373
463.0062
1214.458
559.15863
835.9478
65.883653
800.77175
666.73777
1468.5769
1681.3999
395.18098
928.26828
878.13782
1448.6031
1241.7806
1016.9395
2087.0561
876.04597
809.31517
725.78741
1293.1081
1078.2589
1371.8581
1615.5927
1262.3265
2186.9339
1128.1738
2094.882
1506.3414
1728.2791
2299.8853
1782.4062
2454.3471
1787.8914
2159.7968
1928.5841
2269.4413
2834.5033
2242.2939
2939.9025
2210.9015
2797.9851
2637.5513
3000.4376
3477.7274
3031.5617
3598.0468
2884.3647
3332.7826
3028.3236
3520.3255
3994.2465
3485.8622
4075.4853
3291.364
3933.6011
3744.0293
4191.6417
4702.3896
4247.1323
4741.521
3978.1601
4581.8401
4143.2595
4712.3459
5232.9859
4653.198
5193.5936
4463.3817
4958.8098
4822.5428
5324.4454
5795.0312
5327.785
5830.9579
4907.6279
5623.6378
5335.2075
5803.536
6299.0706
5835.3385
5982.6377
5601.0055
5962.1069
5844.9829
6151.4577
6921.6407
6230.0029
6517.4521
6103.5742
6203.8823
6288.9536
6832.5662
7416.2778
6561.6528
6957.4279
6246.5592
6285.3574
6780.828
6772.9671
8033.4261
7022.3317
7222.6047
6714.2632
6811.9564
7093.9731
7418.5322
8242.2521
7223.6114
7487.1744
7175.3348
6839.9609
7512.4475
7322.5011
8716.7614
7447.4525
7856.0063
7292.6078
7217.4855
7840.8487
7571.7818
9036.1603
7648.2005
7858.4096
7662.8152
7042.6153
8006.9493
7599.0807
9147.7862
7680.4562
7963.0159
7786.7115
7340.3203
8442.6188
7661.9432
9366.854
7841.6559
8154.9177
7989.4693
7369.0362
8476.8568
7602.746
9512.4247
7918.7318
8158.8072
8074.5592
7385.8652
8704.4428
7543.8262
9626.5935
7892.1683
8273.0746
8219.0589
7594.5814
8972.588
7600.9739
9780.6938
8036.2896
8416.7683
8381.4077
7711.8729
9022.7458
7436.744
9874.254
8122.2825
8495.853
8562.6701
7867.1097
9248.9445
7511.8793