/*--------------------------------*- C++ -*----------------------------------*\
  =========                 |
  \\      /  F ield         | OpenFOAM: The Open Source CFD Toolbox
   \\    /   O peration     | Website:  https://openfoam.org
    \\  /    A nd           | Version:  6
     \\/     M anipulation  |
\*---------------------------------------------------------------------------*/
FoamFile
{
    version     2.0;
    format      ascii;
    class       pointScalarField;
    location    "1.54";
    object      p;
}
// * * * * * * * * * * * * * * * * * * * * * * * * * * * * * * * * * * * * * //

dimensions      [1 -1 -2 0 0 0 0];

internalField   nonuniform List<scalar> 
28033
(
-26006.488
86434.669
5601.6228
1599.0771
-33043.568
104820.06
3058.5098
-10.40498
7549.7885
16138.674
26327.482
24675.627
22131.057
18950.358
12734.08
6544.7124
2586.8301
-4393.6707
-6268.1887
-6587.9585
-14426.748
362.35125
-6245.8903
-15153.493
-9046.4984
-9870.5464
-6374.3398
-5837.3854
-3606.6617
-1576.1636
818.93548
2968.1
5402.033
7885.3723
9262.9915
11131.993
12045.979
10653.677
-3243.9944
4185.2385
10304.611
15649.348
16826.436
22933.873
25890.673
30166.555
33515.487
38064.884
40468.364
44154.686
47539.602
50896.873
53090.355
55902.882
58913.154
60882.494
63323.467
65276.376
67374.683
68724.127
71200.709
72248.203
73902.887
75450.857
76921.746
78081.817
79515.984
80683.332
81960.418
83234.135
84660.507
85842.301
87159.893
88190.883
89947.646
91451.24
92189.231
93994.9
94888.571
95841.968
96963.455
98230.95
99001.467
100164.73
100862.67
101780.88
102328
103038.04
103379.43
103812.83
103965.18
104068.1
103992.09
103758.7
103414.62
102859.73
102154.39
101342.37
100318.25
99152.575
97743.834
96505.115
94947.255
93141.459
91839.235
89931.311
87641.244
85416.53
83178.372
80958.984
78388.036
76024.506
73183.928
70805.771
67577.688
65137.813
61754.769
59048.356
55556.7
52739.17
49045.071
45387.704
41993.638
38217.757
34922.662
31599.343
27063.997
24309.843
21325.089
16140.784
16478.316
14713.876
11578.883
11442.421
765.22886
-4558.2703
-9856.912
-14330.71
-16081.356
-22347.074
-23906.594
-29136.413
-31102.503
-36017.103
-37943.616
-42000.861
-44679.619
-47957.599
-50214.75
-53147.277
-55360.665
-57501.114
-59962.858
-61577.891
-63779.722
-65074.165
-67308.801
-68057.983
-70060.219
-70923.987
-72286.621
-73343.088
-74465.473
-75201.693
-76484.7
-76987.369
-78185.134
-78939.744
-80118.686
-80558.188
-81649.537
-82319.561
-83232.677
-84081.408
-84852.779
-85731.488
-86521.699
-87331.794
-88135.519
-88896.244
-89625.11
-90313.992
-90949.333
-91496.672
-91981.052
-92343.467
-92638.14
-92753.199
-92789.619
-92648.309
-92365.874
-91918.026
-91324.933
-90533.266
-89600.642
-88494.096
-87209.041
-85764.729
-84166.024
-82586.764
-80782.561
-79121.437
-76476.672
-74764.27
-72232.691
-70206.145
-67727.239
-65457.288
-62929.802
-60460.601
-57948.934
-55277.146
-52606.684
-49863.205
-47005.553
-44016.125
-41096.906
-37893.183
-34717.835
-31462.085
-28212.326
-24657.235
-21544.482
-18336.332
-14940.189
-12149.884
-10709.227
-7641.5859
8206.7127
24054.743
35428.629
41335.387
34897.416
24959.764
20675.066
5374.9053
-853.41904
-12988.16
-15947.245
-20720.391
-18816.64
-3038.6818
5273.7612
24976.273
4299.3054
-5839.1675
-10120.685
-15126.82
-19639.719
-23315.907
-26764.778
-32469.385
-34360.104
-40252.184
-39269.243
-47177.748
-45360.713
-53731.785
-54024.186
-58769.38
-57591.466
-62433.718
-61762.042
-65056.94
-64701.259
-69300.073
-70165.932
-70730.426
-73926.944
-73279.14
-76819.184
-76274.164
-79047.599
-79237.347
-81416.328
-81999.221
-83859.819
-85379.749
-85069.619
-87538.609
-88775.816
-90005.913
-91286.876
-92521.88
-93713.875
-94931.068
-96018.92
-97089.584
-98149.257
-99002.762
-99884.324
-100583.37
-101232.68
-101741.06
-102149.7
-102395.21
-102546.81
-102524.44
-102319.28
-102028.31
-101503.66
-100829.21
-100013.71
-98983.7
-97827.07
-96457.002
-94974.353
-93286.876
-91528.112
-89808.723
-87798.523
-83452.249
-83134.001
-80859.29
-78170.654
-75730.202
-73096.407
-70402.856
-67661.026
-64832.095
-62029.718
-59045.956
-56011.025
-52906.378
-49731.689
-46369.052
-43088.199
-39592.887
-36093.762
-32487.698
-28967.97
-25255.798
-21799.208
-18357.596
-15048.602
-12914.822
-10360.81
-9424.6632
13444.01
14476.293
10648.837
11719.798
6876.1766
6967.9032
2569.6415
1009.7884
-2042.5134
-4768.7781
-4695.2171
-8588.3963
-8157.4587
-13031.103
-10820.068
20642.792
16344.195
16455.627
19370.246
21643.54
25294.052
28631.419
32286.009
35745.206
39409.065
42878.677
46248.506
49562.905
52837.128
56104.305
59105.624
62271.195
65144.048
68006.069
70818.141
73480.83
76192.673
78747.414
81197.397
83443.409
85273.69
86282.615
92092.248
91371.405
94154.172
95879.757
97521.466
98805.32
100113.62
101131.03
101964.11
102654.39
103088.72
103386.09
103487.25
103413.43
103174.35
102828.94
102297.23
101702.84
100973.56
100190.2
99325.99
98393.48
97473.397
96450.236
95435.306
94429.481
93566.407
92402.841
91365.305
90309.234
88519.844
88996.191
87447.9
85539.064
86320.575
84187.546
83632.549
81053.888
82073.255
78822.42
79625.117
77026.809
76632.082
74641.74
71970.777
72235.073
69985.726
66947.179
66274.138
62851.607
61231.711
58241.967
56805.075
54727.183
48577.334
46057.611
43634.645
42570.17
37231.419
33862.564
28657.744
25986.486
22227.024
17257.767
14622.256
9002.5561
2689.7528
-6998.0866
-46377.513
-51298.941
-53554.262
-53774.623
-55398.495
-53523.644
-55031.153
-53730.471
-55149.819
-55309.624
-54569.104
-55759.456
-56312.3
-49382.275
-55910.373
103810.43
140866.2
131025.54
139326.22
127207.29
123130.51
136232.82
138893.49
133047.76
131519.68
130780.77
129923.14
127534.19
123930.18
99262.731
958.54141
942.73902
1788.7506
2232.1062
3483.3923
4232.8469
4519.9512
4622.5834
4723.1173
4262.8706
3899.5734
2951.3624
2463.7567
1853.701
1988.096
-1689.753
1277.8665
380.41021
-235.71607
-1172.6148
-1341.2289
-1906.0054
-1834.7663
-1626.933
-1384.6468
-408.15596
300.17327
672.3851
4196.1112
-1074.0192
384.0621
8545.1216
9648.2008
12387.144
16741.71
20864.884
23359.338
27248.268
29974.746
32962.994
36154.003
39531.984
41798.675
44508.365
47147.231
50272.135
51831.646
54346.261
56546.934
58271.513
60378.886
62310.122
63656.625
65265.288
66830.83
68230.068
69519.998
70942.031
72243.518
73553.295
74865.651
75867.767
77354.148
78299.281
79660.33
81076.064
82149.241
83102.397
84604.898
85820.285
87168.335
88331.409
89363.911
90372.488
91233.065
92228.164
92872.912
93698.597
94192.2
94738.414
95042.858
95325.685
95380.991
95369.435
95166.003
94849.071
94361.05
93716.136
92955.478
92023.928
90934.357
89672.66
88390.769
86982.715
84989.634
83452.982
81346.678
79424.571
77331.387
75379.69
73185.392
71109.471
68644.755
66597.283
63907.463
61723.77
58895.39
56714.945
53588.035
51379.681
48324.635
45690.204
42845.917
40190.598
36983.025
33956.77
31130.092
27631.271
24919.3
22434.646
18421.485
16224.065
13847.916
7484.041
2218.4533
5524.807
9338.8516
8989.9898
11641.029
14180.916
16739.965
18805.917
21835.902
24287.531
27563.543
29404.104
32300.302
34536.244
37409.435
39194.197
41490.077
43270.842
45648.757
47057.351
48945.513
50569.922
51752.638
53347.791
54743.67
56127.874
57132.805
58580.415
59626.627
60816.386
61847.439
63019.745
64068.388
65187.485
66234.881
67513.561
68347.093
69412.788
70496.532
71506.722
72459.348
73413.326
74577.873
75030.873
76016.695
76674.371
77450.426
77963.14
78586.097
78917.035
79311.544
79471.189
79625.369
79569.346
79471.493
79219.099
78849.526
78367.025
77778.982
77058.535
76244.728
75286.192
74286.103
73240.172
71956.958
70721.574
70136.621
69396.358
68187.644
66936.622
65225.103
63432.177
61719.969
59584.758
57812.491
55233.532
53587.764
50814.552
49095.143
46144.785
44508.769
41514.273
39310.755
36822.42
33410.784
30667.249
28146.249
24992.356
22796.832
20255.005
17104.355
14533.147
12112.023
7753.4744
3806.1087
-3252.7859
5377.8085
9689.7591
8936.0763
10806.561
12711.258
14721.696
16189.219
18912.81
20906.171
22609.943
24868.944
27134.579
28993.386
30677.259
32757.57
34540.997
36246.138
37763.362
39388.936
40922.535
42360.742
43618.641
45121.251
46151.333
47295.195
48406.808
49482.614
50372.609
51506.019
52340.449
53403.511
54251.255
55291.635
56168.259
57105.355
58135.263
59220.382
60142.513
61212.111
62070.309
62802.107
63609.288
64640.17
65363.575
66108.544
66687.87
67210.594
67651.088
67979.837
68230.698
68356.451
68418.298
68311.248
68175.78
67871.349
67482.675
67007.457
66407.59
65709.432
64921.02
64037.511
63074.243
61995.445
60741.01
59726.92
58654.615
57672.08
55981.883
55070.428
53773.554
52286.723
50662.001
48815.603
47222.4
45503.571
43679.585
41934.182
39964.592
38241.579
36128.608
34187.819
32393.99
29818.864
28043.442
26321.715
23879.132
21469.355
19552.141
17086.064
14784.578
12694.735
8993.4423
6652.1597
993.57351
-1840.6507
6073.0192
9553.079
7538.8966
9402.937
10526.865
11687.791
12957.805
15315.874
16142.855
18347.954
19831.759
21699.408
22760.179
24969.705
25905.75
27865.694
28725.645
30546.412
31460.027
32842.828
33635.178
34904.359
35753.125
36614.345
37666.508
38422.158
39334.033
40145.641
40951.773
41680.678
42581.345
43232.549
44083.745
44748.113
45765.721
46195.149
47120.572
47545.706
48297.956
48851.457
49886.75
50506.724
50992.359
51423.007
51905.514
52337.249
52659.635
52975.093
53163.337
53306.481
53329.602
53323.876
53173.356
53013.287
52708.334
52385.9
51959.868
51477.837
50917.326
50329.58
49658.669
48926.456
48149.058
47383.834
46517.589
45620.343
44844.113
43458.215
42294.088
41373.224
40386.785
39009.807
38052.103
36730.636
35304.472
33937.215
32429.649
31131.581
29457.391
28106.9
26508.865
25025.357
23258.257
21613.73
19847.568
18783.153
16940.665
15212.269
13376.675
11609.67
9072.432
7076.8168
4024.0964
821.93449
-3450.7436
5229.7802
7751.8719
7082.5901
7987.9543
8628.9353
9720.9529
10845.24
11996.22
13105.985
14384.686
15682.671
16663.95
18186.8
19001.657
20413.41
21330.26
22209.435
23329.99
24141.093
24921.675
25972.768
26687.621
27439.185
28206.748
28974.103
29499.644
30305.257
30770.978
31525.223
32078.988
32778.58
33283.698
34020.303
34668.364
35258.273
35893.217
37085.686
38012.61
38716.341
40401.173
40483.259
41079.15
41817.772
42298.458
42829.316
43174.531
43443.446
43665.725
43824.867
43864.41
43868.252
43817.416
43647.95
43468.26
43194.609
42877.259
42507.328
42067.536
41617.513
41077.044
40544.836
39834.889
39375.073
38493.812
37789.63
37162.652
36210.133
35475.542
34466.227
33621.326
32672.899
31681.381
29930.412
28524.028
27221.765
26075.748
25067.976
23870.404
22793.13
21740.419
20380.938
19499.95
18060.99
17252.636
15730.802
14908.405
13099.572
12123.496
10405.246
8775.1908
7184.8996
5431.2935
3573.0184
370.90255
-2421.9658
3371.3304
6238.324
4898.8881
5805.2933
6360.4956
7428.6422
7176.1343
8983.476
9161.4581
10363.811
10837.438
12127.417
12261.66
13628.357
13865.355
14832.748
15248.978
16361.796
16377.585
17404.13
17682.221
18184.926
18650.049
19104.838
19503.265
19928.995
20397.942
20743.915
21269.376
21548.725
22064.915
22390.946
22990.365
23233.9
23830.034
24309.826
25065.991
25475.288
27399.964
27847.919
28902.151
29176.97
29559.794
29930.124
30236.928
30454.335
30626.208
30758.834
30814.869
30817.349
30779.929
30684.915
30526.899
30348.361
30123.557
29842.28
29561.041
29231.573
28872.041
28493.778
28094.863
27695.323
27198.935
26764.284
26340.748
25687.905
25329.379
24713.227
24156.485
23585.703
22938.457
22096.051
21269.03
19823.003
18786.413
18256.259
17429.374
16854.611
15933.067
15540.243
14253.914
14151.168
12585.904
12516.158
10912.394
10900.25
9162.7164
9085.4406
7411.5188
7128.7132
5814.7426
4553.4432
2943.1585
705.13985
-824.40021
1964.6927
4129.3706
2983.0869
3879.7069
4314.0441
4115.7229
4606.4192
5546.1288
5355.2105
5843.4783
6582.7311
6510.4038
7243.4348
7485.3742
7722.6959
8238.2489
8400.2236
8647.3447
8875.9427
9269.213
9315.2783
9682.785
9893.8043
10054.379
10414.223
10514.572
10842.037
11004.176
11355.437
11480.813
11938.765
12139.65
12474.825
12754.653
13213.283
13420.525
13888.522
14312.307
14557.558
14686.214
15070.095
15377.426
15567.415
15909.497
16100.952
16317.776
16375.261
16512.826
16502.499
16524.845
16474.074
16417.245
16294.695
16208.623
16041.678
15894.705
15728.978
15547.558
15349.848
15163.877
14966.327
14727.133
14555.334
14305.51
14057.073
13872.504
13525.291
13277.888
12958.762
12687.646
12324.6
12033.047
11493.301
11302.483
11105.92
10753.867
10259.047
9830.5747
9432.597
8964.3523
8454.0555
8199.3311
7360.0574
7441.2477
6362.2251
6548.2316
5452.5292
5670.3526
4587.3704
4452.4046
3207.0544
2640.8603
2144.0835
1186.4604
534.19491
-303.52705
2482.3848
654.62365
2330.377
1200.125
2093.4381
1474.4105
2073.049
1268.7598
1923.5876
1380.382
1732.1235
1300.4492
1444.459
1203.9037
1412.2753
826.78302
1334.3784
853.75755
968.73206
777.10903
896.01013
601.13295
753.0045
650.3234
610.64772
758.73418
709.345
824.61771
804.90582
1070.5371
923.83965
1264.1261
1314.2393
1551.1001
1559.4452
2046.2267
1880.4415
2380.6334
2311.9377
2601.261
2770.8035
2796.2459
2818.4402
2906.0408
2879.8773
2855.2249
2866.3587
2807.137
2743.9509
2668.1173
2594.2631
2484.709
2402.1556
2306.9382
2213.8799
2139.9836
2077.686
2008.4623
1987.0977
1947.1325
1942.9706
1948.679
1968.5914
2022.3716
2025.0233
2126.7769
2155.0914
2210.9103
2266.3551
2277.0737
2311.3446
2163.9542
2173.6351
2082.0188
2170.1267
2045.3711
2107.2952
2030.7949
2037.3612
1994.9948
1929.5634
1934.842
1896.8883
1726.7167
1982.5049
1441.4223
2106.0315
1196.7316
2157.0453
1658.849
2566.6997
2368.9805
1913.0044
2277.4271
-1523.8958
153.96086
-1132.689
-920.73769
-1378.6705
-1399.9591
-2546.7898
-2204.2063
-3203.9004
-3625.3712
-3827.2964
-4586.5138
-5112.1204
-5291.1273
-5905.7897
-6403.8235
-6800.7814
-6984.7109
-7874.878
-7753.0452
-8373.6664
-8492.7899
-8928.4245
-8970.6387
-9373.7978
-9375.7232
-9594.1233
-9741.736
-9749.2439
-9839.7277
-9823.5967
-9900.9707
-9706.1069
-9833.4905
-9673.7472
-9592.4724
-9555.3235
-9438.318
-9289.4909
-9217.6478
-9120.2487
-9010.8595
-9019.8827
-8868.3883
-8822.5655
-8794.363
-8827.6194
-8783.3141
-8855.7257
-8893.5282
-8946.9687
-8980.7174
-9078.6772
-9096.9591
-9155.281
-9192.4044
-9203.63
-9189.7248
-9189.5302
-9118.4185
-9047.8744
-8967.0741
-8821.1981
-8682.5957
-8544.5638
-8325.2941
-8128.9839
-7897.3225
-7662.5366
-7361.7612
-7176.958
-6781.5638
-6506.7954
-6168.1331
-6129.0123
-5955.7701
-5603.5639
-5334.7297
-5119.3289
-4868.8356
-4572.6053
-4370.5408
-4016.8138
-3703.446
-3522.8144
-2732.606
-2921.5885
-1525.8796
-2025.292
-384.69335
-923.21367
-2.1981976
32.447198
1646.3568
3361.528
-3633.2242
-1213.0174
-3385.5828
-1994.9208
-3734.7933
-4021.5734
-5422.6738
-5762.1204
-7562.9896
-7961.5704
-9224.719
-10358.838
-11140.04
-11984.931
-13284.657
-13750.639
-14784.485
-15439.41
-16328.753
-16668.176
-17642.409
-17555.647
-18367.077
-18519.513
-19177.281
-19330.771
-19862.791
-19929.296
-20208.769
-20491.552
-20562.894
-20821.672
-20865.674
-21114.788
-20929.065
-21333.358
-21071.963
-21398.024
-21246.518
-21468.054
-21474.622
-21604.366
-21641.167
-21817.257
-21898.936
-22040.28
-22167.396
-22254.325
-22400.493
-22511.716
-22598.588
-22694.384
-22782.371
-22811.016
-22841.158
-22843.453
-22784.858
-22706.348
-22601.908
-22403.813
-22215.919
-21965.011
-21641.039
-21329.193
-20932.365
-20525.387
-20065.539
-19629.168
-19086.654
-18622.215
-18031.847
-17434.036
-16930.671
-15693.095
-14409.047
-13722.756
-12872.176
-12467.147
-11733.461
-11354.576
-10404.017
-10262.99
-9073.3513
-8884.1556
-7882.4565
-7076.5498
-6710.7272
-4913.6226
-5223.6227
-2728.2303
-2951.3931
-1217.8933
129.48731
2091.2837
4105.7022
-3576.8796
-4086.9584
-4605.8002
-5232.493
-6570.8028
-7403.7938
-9069.3988
-10246.509
-11670.911
-13167.81
-14565.065
-15830.208
-17152.721
-18460.279
-19711.206
-20474.497
-22118.996
-22486.31
-24031.788
-24555.455
-26208.688
-26752.685
-28109.186
-28341.73
-29656.387
-29691.666
-30595.908
-30611.448
-31333.538
-31422.659
-31783.169
-32090.959
-32295.663
-32495.322
-32698.471
-32880.617
-32984.23
-33204.287
-33267.683
-33454.537
-33571.632
-33663.612
-33810.891
-33932.035
-34043.749
-34148.718
-34319.496
-34398.618
-34555.149
-34638.409
-34750.124
-34806.762
-34887.447
-34885.72
-34894.771
-34848.164
-34764.128
-34629.408
-34461.084
-34213.098
-33941.387
-33596.533
-33187.62
-32758.313
-32265.179
-31714.604
-31082.132
-30403.958
-29721.7
-28922.166
-28119.403
-27394.381
-26391.269
-25339.455
-23785.867
-23135.287
-21614.669
-20487.27
-19502.823
-18527.681
-17621.487
-16487.679
-15574.862
-14417.196
-13282.585
-12256.373
-10800.978
-9803.426
-8209.3632
-6744.2089
-5371.6309
-3080.0991
-1218.968
1487.5875
6227.8758
-5758.6569
-4371.8631
-5773.1003
-6289.187
-8188.3747
-9604.5498
-11842.16
-13294.83
-15926.762
-17186.742
-19750.247
-21035.819
-23439.372
-24368.618
-26611.917
-27641.834
-29418.183
-30270.331
-32224.38
-32545.24
-34559.832
-34944.681
-36929.52
-37634.478
-39002.022
-39215.683
-40351.171
-40547.65
-41306.075
-41514.54
-42150.73
-42455.063
-42834.895
-43335.459
-43455.126
-44016.059
-44094.018
-44579.429
-44716.243
-45131.463
-45307.22
-45689.137
-45932.769
-46277.102
-46544.772
-46832.344
-47139.099
-47372.097
-47620.911
-47857.007
-48040.755
-48197.637
-48331.982
-48396.196
-48416.819
-48396.558
-48288.115
-48121.275
-47897.343
-47575.865
-47188.001
-46728.506
-46145.449
-45552.024
-44820.319
-44075.134
-43241.024
-42399.984
-41411.305
-40399.738
-39417.246
-38195.565
-37123.492
-35892.834
-34562.878
-33913.397
-32528.997
-30991.685
-29584.824
-28170.655
-26622.763
-25109.672
-23489.092
-21853.678
-20083.28
-18495.432
-16344.909
-14895.224
-12665.693
-10634.072
-8995.4826
-5408.0346
-2858.8743
2287.3139
7502.5505
-4765.6086
-4073.3556
-7407.7112
-8407.41
-11744.521
-13472.652
-16374.727
-18899.691
-21432.091
-23744.388
-26218.046
-28838.354
-30725.117
-33001.38
-34951.018
-36716.355
-38553.17
-40014.808
-41791.77
-42802.144
-44837.552
-45400.002
-46909.488
-47332.862
-48659.58
-49016.569
-50533.301
-50690.133
-51775.695
-52132.31
-52921.754
-53195.845
-53976.431
-54364.514
-54927.805
-55407.913
-55771.955
-56277.414
-56664.337
-57082.045
-57499.636
-57894.513
-58258.935
-58625.373
-58980.13
-59293.778
-59659.016
-59896.563
-60204.78
-60425.11
-60625.318
-60758.42
-60885.723
-60901.031
-60894.569
-60804.922
-60638.088
-60394.727
-60084.733
-59658.03
-59172.097
-58572.415
-57890.645
-57128.934
-56241.083
-55320.179
-54288.8
-53113.465
-51971.365
-50687.191
-49294.844
-47957.624
-46442.682
-44913.269
-43342.49
-41790.269
-40198.111
-38515.701
-36753.886
-34944.742
-33128.399
-31197.102
-29266.97
-27218.835
-25199.405
-22969.702
-20807.68
-18616.964
-15929.905
-13945.693
-10771.446
-7986.4512
-4909.5945
-238.70767
5604.2785
-1279.8859
-3612.2106
-6813.1713
-9620.5958
-12128.522
-15515.098
-18741.962
-21573.591
-24597.945
-27460.768
-30911.649
-33006.213
-36252.211
-38524.591
-40848.775
-42940.933
-45380.56
-46489.022
-49075.367
-50135.167
-51895.488
-53115.516
-54837.735
-56011.445
-57311.058
-58261.658
-59284.975
-60069.375
-61153.996
-61750.228
-62553.153
-63225.561
-63781.98
-64457.471
-65078.679
-65894.815
-66336.553
-67119.574
-67573.915
-68267.964
-68807.96
-69433.311
-70010.015
-70609.135
-71187.724
-71746.159
-72277.35
-72782.667
-73249.182
-73676.998
-74032.7
-74344.974
-74579.137
-74730.33
-74788.873
-74763.129
-74616.575
-74368.334
-74002.916
-73516.066
-72905.783
-72175.627
-71327.723
-70309.153
-69186.436
-67912.722
-66554.566
-65166.99
-63791.449
-62105.895
-60566.154
-58772.998
-56899.938
-55166.194
-53078.029
-51133.805
-49067.356
-46978.891
-44773.42
-42625.824
-40339.857
-37987.91
-35597.786
-33123.328
-30495.453
-27944.019
-25179.942
-22410.869
-19487.199
-16967.226
-13125.611
-11086.162
-6842.687
-2157.2759
5109.049
2573.9139
-3980.3109
-8427.6688
-10664.727
-14842.689
-18459.622
-21970.549
-24603.638
-28792.649
-31687.287
-35007.324
-38240.458
-41223.126
-43750.959
-46473.639
-49096.774
-51347.611
-53344.591
-55915.598
-56865.443
-59085.422
-60330.423
-62221.514
-63578.089
-65675.47
-66086.996
-67800.886
-68280.21
-69879.606
-70412.305
-71542.438
-72300.418
-73104.518
-73793.138
-74468.272
-75595.914
-76245.096
-77115.393
-77810.743
-78609.344
-79341.615
-80096.114
-80827.104
-81517.272
-82256.203
-82873.231
-83565.905
-84143.727
-84721.85
-85208.547
-85657.395
-86000.841
-86285.426
-86435.317
-86507.047
-86444.872
-86255.856
-85931.565
-85480.727
-84862.86
-84120.939
-83237.755
-82190.153
-80985.479
-79636.59
-78022.17
-76310.324
-74597.753
-73153.603
-71188.064
-69289.762
-67032.358
-65060.951
-62768.231
-60527.037
-58206.302
-55987.952
-53472.01
-51077.983
-48511.451
-45903.689
-43180.489
-40487.419
-37528.062
-34671.041
-31688.98
-28519.635
-25517.832
-22417.519
-19362.539
-16080.741
-14176.105
-10167.593
-6751.5044
257.13819
-9425.6895
-8998.1164
-13719.661
-14545.876
-15694.688
-15289.132
-16720.642
-14692.525
-16478.424
-14138.269
-14812.503
-14373.633
-13174.153
-6865.1501
-12654.739
3857.4191
-2125.5615
-2296.7137
-7121.4579
-7713.1289
-8024.5134
-7322.829
-7873.5758
-8016.9425
-7921.5877
-6626.3989
-6239.2836
-4574.2726
122.67109
-1042.2325
14826.244
13730.029
9127.5182
9042.8383
8285.6114
7010.85
6810.6878
6595.4306
7076.9786
7086.4525
7843.4911
8452.0218
7951.3994
12262.405
11460.034
11918.694
11070.474
9378.7648
7184.7614
6983.7026
5961.2478
6131.4414
5945.2776
6107.4223
6293.5618
6391.9355
7028.1458
8447.297
12533.195
5544.6166
12710.371
12397.32
10445.3
10553.229
7722.6254
9517.6041
8103.9353
8507.6995
8028.464
8512.1597
8452.1124
9568.5808
10591.018
11603.493
9946.4229
11327.126
12523.846
9601.7378
10005.324
9133.418
8731.5147
7716.5455
7798.3222
7658.2768
7739.8636
6990.4959
7964.4644
7502.5225
8745.5887
9082.4093
6541.8475
6729.2478
7137.2127
5192.4614
5589.8828
5647.5195
4890.2745
4096.957
5164.6453
4471.2642
4499.8395
4991.1891
5565.4075
6401.9617
5167.8406
2404.5404
4515.548
2189.5302
3888.3794
2425.2936
3314.7862
2250.5645
2538.3518
2806.0983
1861.272
1693.2802
1926.3263
3024.5018
245.56706
3651.0639
1582.6802
2201.8147
3645.8525
1984.5001
3222.6181
2497.4069
2711.9747
1564.7188
2229.3821
389.514
38.890335
665.8022
-1075.8172
-1619.8248
1568.8289
-4157.7877
-1304.9979
-2659.419
-610.84953
-1456.7182
-136.16886
-1416.5722
-1052.9656
-1150.8816
-1485.2323
-2318.6897
-2454.8168
-1627.4591
-6526.0973
-113.90146
-4367.1006
-4099.4695
-1716.5947
-2996.1009
-715.72312
-2405.3742
-1513.7994
-2425.1518
-1682.7528
-2986.0942
-3628.9215
-3284.0278
-5860.054
-6209.2494
-3701.6381
-5312.7624
1014.5733
-674.03822
4558.112
2364.8689
3895.2213
3057.636
3796.6777
3541.815
1781.1353
1800.3473
253.63679
840.71674
-5927.7129
-2081.956
-7101.8828
-6640.8167
-1851.5334
-3479.9306
-964.01458
-2124.5439
-626.79577
-1051.9243
-2182.8631
-2165.276
-4012.2841
-3197.5784
-4887.0558
-8149.0443
-5206.6794
2160.5759
13978.109
13052.441
18547.651
17408.798
17383.371
17372.832
17259.445
17454.382
16514.708
18001.906
15827.477
16332.645
8273.0583
14575.904
2575.506
2471.2045
5304.7189
8961.8577
10265.034
8379.81
10977.202
9925.4545
7664.0233
8514.657
8150.7327
7023.605
4800.8872
1965.8925
-4344.2147
33519.156
27244.939
39725.495
36903.323
39078.415
41513.012
36344.085
33195.968
38740.07
38179.02
37441.377
37438.346
34964.814
33959.366
22686.056
11704.128
14046.911
19035.95
20900.586
21189.695
22323.699
22340.772
22141.128
22796.013
21252.121
21031.599
19599.281
18374.381
15750.678
9151.2217
-5671.4659
-3594.1516
-4351.6617
-2772.4671
-3147.3369
-2681.4203
-2139.7368
-3497.1433
-2452.0351
-2799.6568
-3567.9413
-3299.3686
-5698.7006
-5539.3906
-6115.8815
-9047.6093
-7055.1837
-6287.953
-4971.9013
-4904.3473
-3809.8037
-3813.5721
-3302.2698
-3585.4934
-3768.5384
-4742.1825
-6195.2578
-5891.4266
-7589.3765
-9111.8287
-13745.837
-14135.763
-15047.416
-12909.224
-13661.339
-13324.593
-12673.326
-12886.605
-12902.347
-13493.018
-13351.945
-13664.936
-13593.473
-15073.29
-14692.844
-18779.372
-18168.101
-17104.314
-17567.194
-17682.622
-17151.433
-17158.641
-17240.884
-17852.959
-17695.74
-18087.341
-18321.878
-18394.121
-18620.494
-19200.786
-22038.674
-22803.536
-22466.799
-21950.556
-23179.359
-23163.23
-23271.838
-23133.415
-23673.394
-23564.647
-23590.949
-24141.814
-23689.411
-24316.674
-24571.143
-26472.737
-25657.508
-26677.559
-25530.24
-26298.41
-25664.134
-25944.516
-25888.187
-26068.13
-25877.537
-25882.96
-26173.846
-26360.52
-26250.976
-26301.082
-29031.593
-31047.476
-30690.312
-31444.677
-31718.901
-32230.926
-32239.649
-32350.983
-33454.259
-32141.675
-32693.702
-32713.667
-32300.791
-32103.083
-31122.35
-34014.323
-33297.501
-34086.113
-33570.247
-34189.913
-33851.588
-34417.086
-34254.083
-33996.007
-34820.769
-34619.209
-34774.53
-34699.393
-34479.851
-34447.033
-36352.643
-37842.533
-37573.272
-38534.563
-38579.625
-39046.754
-38942.724
-39445.046
-39431.286
-39296.606
-39530.592
-39605.959
-39121.775
-39455.032
-39003.716
-40656.855
-40363.819
-41238.364
-41259.787
-41917.686
-41481.773
-42166.293
-42504.646
-42689.94
-42719.549
-42915.875
-42926.506
-42913.733
-42339.311
-42165.008
-43830.526
-44071.484
-44230.315
-45139.031
-44915.768
-45656.66
-45659.261
-45929.801
-45960.888
-46168.37
-45995.705
-46324.987
-45423.383
-45724.965
-45451.925
-46644.89
-46803.729
-47582.102
-47649.099
-48118.191
-48098.073
-48636.779
-48608.486
-48893.84
-48703.418
-48981.759
-48840.603
-48671.79
-48578.189
-48186.883
-49629.839
-49887.706
-50776.465
-50816.608
-51748.076
-51293.141
-51127.491
-52304.197
-52222.795
-52487.743
-52183.567
-52386.427
-51791.727
-51906.182
-51817.516
-52231.747
-52477.114
-53266.745
-53520.06
-53693.754
-53537.447
-54765.318
-54151.815
-54427.012
-54336.059
-54413.264
-54381.685
-53333.377
-53571.465
-52749.739
-55006.067
-55040.537
-55919.497
-55903.478
-56727.275
-56626.494
-56937.387
-57229.611
-56998.01
-57341.525
-57164.02
-57452.68
-56872.204
-56906.322
-56940.317
-57333.128
-57665.516
-58162.423
-58281.751
-58808.821
-58880.855
-59584.092
-59360.773
-59609.061
-59531.325
-59417.77
-59338.77
-59494.699
-58302.102
-58331.338
-59665.321
-59721.573
-60546.369
-60837.425
-61322.901
-60996.481
-61339.41
-61645.629
-61514.305
-61748.325
-61639.468
-61752.839
-61192.244
-61636.313
-61388.027
-61343.347
-61979.899
-62295.012
-62831.112
-62964.498
-63255.847
-63686.949
-63432.357
-63957.928
-63583.903
-63590.972
-63574.526
-63192.502
-62961.176
-62551.056
-63941.192
-63761.525
-64684.423
-64355.347
-65329.139
-64784.381
-65695.125
-65653.064
-65531.901
-65633.865
-65373.145
-65764.007
-65183.336
-65832.464
-65612.348
-64590.601
-65903.848
-65722.489
-66468.329
-66462.277
-66849.066
-67000.772
-67201.603
-67352.177
-67423.461
-67419.863
-67391.631
-66851.545
-66405.174
-66492.692
-67445.83
-67134.293
-68013.193
-67910.38
-68490.054
-68271.751
-68789.668
-68731.983
-68902.347
-68795.294
-69008.421
-68834.418
-68704.714
-68718.715
-68368.277
-68169.533
-68767.602
-68948.414
-69566.016
-69675.218
-69752.749
-70397.674
-70019.481
-70551.215
-70449.427
-70236.202
-70779.186
-70236.146
-70332.781
-69970.92
-70285.562
-70173.52
-70697.387
-70742.854
-71234.38
-71143.663
-71844.195
-71637.026
-71884.014
-71860.135
-71439.399
-71690.272
-71826.821
-71244.797
-71513.838
-71394.988
-71172.266
-72107.084
-71848.479
-72501.945
-72394.376
-72775.197
-72718.805
-73055.707
-73088.302
-73294.993
-73472.082
-72669.963
-73622.118
-72727.599
-72756.683
-72391.521
-73217.408
-73117.167
-73578.528
-73696.002
-74146.24
-74258.56
-74329.331
-74412.088
-74326.883
-74556.875
-74031.022
-73965.829
-74221.057
-73917.298
-73484.533
-73903.106
-74450.187
-74778.65
-74736.325
-75212.066
-75163.592
-75613.763
-75565.542
-75734.54
-75741.947
-75492.374
-76013.768
-75395.478
-74851.99
-74896.863
-75460.904
-75224.507
-75889.161
-75923.937
-76356.267
-76457.847
-76601.232
-76726.087
-76620.632
-76781.999
-76772.928
-76626.902
-76759.145
-76150.671
-75551.009
-76470.717
-76309.812
-77069.049
-76761.526
-77339.631
-77425.447
-77853.136
-77746.262
-77730.731
-78124.183
-77605.097
-78214.662
-78020.266
-77234.091
-76751.492
-77488.423
-77464.055
-77979.604
-78055.444
-78512.032
-78425.154
-78872.016
-78975.566
-79028.143
-79215.503
-78927.526
-79074.892
-79200.497
-78093.425
-77585.828
-78475.961
-78337.352
-78966.745
-79136.507
-79477.384
-79583.96
-79784.936
-79892.095
-80015.283
-80298.945
-80048.156
-80521.557
-80393.961
-79186.717
-78607.02
-79440.784
-79326.5
-80057.646
-79998.337
-80533.927
-80526.663
-80949.296
-81044.478
-81156.862
-81369.132
-81237.954
-81470.259
-81529.96
-79989.393
-79510.355
-80352.767
-80295.651
-81001.143
-81051.027
-81563.363
-81575.623
-82006.956
-82062.41
-82211.935
-82488.466
-82386.632
-82671.171
-82752.649
-80780.095
-80509.763
-81329.356
-81088.436
-81849.352
-82122.243
-82399.343
-82800.053
-82919.059
-83317.452
-83250.06
-83732.53
-83389.212
-84031.411
-83733.262
-81289.813
-81671.616
-82040.86
-82580.646
-82766.388
-83129.596
-83504.308
-83680.899
-84049.15
-84299.644
-84415.447
-84688.149
-84694.04
-84990.798
-85325.675
-82795.85
-82126.29
-83134.74
-83061.97
-84064.488
-83909.229
-84691.262
-84601.592
-85258.336
-85245.241
-85492.084
-85884.165
-85723.569
-86218.268
-86184.24
-83540.838
-83345.435
-84141.092
-84322.107
-84851.179
-85195.193
-85560.631
-85869.797
-86244.997
-86367.064
-86594.298
-86932.958
-86909.911
-87318.631
-87397.472
-84580.134
-84041.977
-85062.348
-85084.353
-85902.563
-85979.857
-86646.659
-86767.428
-87209.401
-87440.866
-87657.84
-88075.944
-87974.707
-88489.293
-88522.342
-85439.681
-85055.877
-86059.131
-86200.841
-86924.473
-87187.596
-87768.786
-87883.053
-88453.809
-88565.973
-88851.996
-89178.76
-89173.237
-89628.44
-89729.449
-86318.428
-85927.737
-86974.223
-87050.442
-87885.122
-88064.867
-88668.905
-88880.104
-89398.3
-89599.11
-89851.924
-90269.771
-90215.692
-90768.629
-90802.322
-87266.665
-86885.558
-87944.668
-88121.486
-88952.966
-89148.835
-89851.764
-89976.278
-90577.126
-90700.167
-91025.59
-91366.645
-91395.573
-91846.793
-91952.516
-88152.163
-87761.156
-88868.694
-89008.266
-89831.251
-90120.054
-90756.534
-90964.144
-91535.634
-91737.059
-92020.118
-92462.829
-92408.394
-92942.907
-93017.779
-89051.477