/*--------------------------------*- C++ -*----------------------------------*\
  =========                 |
  \\      /  F ield         | OpenFOAM: The Open Source CFD Toolbox
   \\    /   O peration     | Website:  https://openfoam.org
    \\  /    A nd           | Version:  6
     \\/     M anipulation  |
\*---------------------------------------------------------------------------*/
FoamFile
{
    version     2.0;
    format      ascii;
    class       pointScalarField;
    location    "0.02";
    object      E;
}
// * * * * * * * * * * * * * * * * * * * * * * * * * * * * * * * * * * * * * //

dimensions      [1 -1 -2 0 0 0 0];

internalField   nonuniform List<scalar> 
625
(
7.4855171e-13
1.8267789e-13
-3806.639
-1072.2266
5.0591418e-13
4.2361493e-13
-2453.6624
-6084.9984
4.614168e-13
3.2044613e-13
1.4466374e-13
-1560.8758
-1591.8559
-1042.3183
6.8031273e-12
9.529305e-11
1.3677952e-09
1.7026423e-08
1.8135292e-07
1.6032967e-06
1.1797735e-05
7.3718162e-05
0.00039414676
0.0018215633
0.0074334828
0.031463868
0.16036387
0.86157017
3.7907673
13.31809
33.873065
72.110958
108.23533
157.63176
187.68475
326.90488
554.08191
3.2156362e-12
6.415663e-11
1.1173813e-09
1.3780698e-08
1.2544352e-07
8.6739513e-07
4.3647922e-06
1.5307826e-05
3.5270175e-05
9.2251738e-05
0.0010095993
0.010917608
0.086447051
0.55009713
2.8581147
11.684722
35.909144
83.159045
142.63804
208.19548
270.90792
388.25644
591.67136
3.0123668e-13
3.625139e-13
1.286329e-13
4.7031353e-12
1.1179856e-10
1.6824054e-09
1.8785126e-08
1.4496263e-07
8.8785144e-07
3.5278996e-06
8.7803358e-06
1.5886587e-05
0.00011273615
0.0014562811
0.012070603
0.074469715
0.39211536
1.8538189
7.6006074
25.196817
65.452583
138.06307
256.75231
438.94907
593.78773
689.33643
-4158.2986
-4566.6173
-4262.2366
524.38613
377.44337
279.42145
184.65698
109.1043
56.385179
25.247838
9.2163476
2.7059308
0.67290208
0.15779773
0.038013066
0.0090264862
0.0019712189
0.00049570631
6.9542662e-05
1.0713412e-05
1.9331333e-06
1.8989171e-07
1.7493175e-08
1.4082758e-09
1.2001012e-10
4.9828073e-12
3.8852466e-13
3.3786581e-13
2.8000099e-13
3.6130195e-13
4.1144456e-13
2.8895218e-13
-1491.2115
-1501.3559
-1481.9017
-4449.2328
-4576.8833
-4497.6813
5.8399264e-12
9.5341365e-11
1.3037767e-09
1.4619285e-08
1.3589217e-07
1.0582625e-06
7.0551579e-06
4.0797974e-05
0.00021368439
0.0010781046
0.0058424823
0.035981343
0.23119112
1.2720798
5.4257329
16.779948
38.259606
65.097801
88.206083
106.81856
135.18174
291.86894
514.37416
5.2122035e-12
1.01338e-10
1.500108e-09
1.7104469e-08
1.5236529e-07
1.0663024e-06
5.8881738e-06
2.577283e-05
9.3795807e-05
0.00036360896
0.0022811631
0.019943571
0.16011978
0.99764254
4.4510613
13.913785
29.528928
42.606226
47.578169
60.025686
114.41446
261.79373
576.40526
3.0961302e-12
8.0280733e-11
1.3741399e-09
1.6753635e-08
1.519432e-07
1.0347549e-06
5.2384358e-06
1.8875232e-05
4.7743925e-05
0.00016294126
0.0017780037
0.019504739
0.16145425
1.018222
4.8205263
16.718539
41.0411
72.059299
91.666106
87.072759
101.15631
173.82144
372.03362
4.0233107e-13
3.9899878e-13
1.6900492e-13
3.9015708e-13
4.6917255e-13
2.2903447e-13
1.0782844e-13
2.0420895e-13
1.4151437e-13
2.6003806e-12
5.1608855e-12
4.3406323e-12
7.2997849e-11
1.0872345e-10
9.2185409e-11
1.0984123e-09
1.4491246e-09
1.2567566e-09
1.1563201e-08
1.3960311e-08
1.3469308e-08
9.3086529e-08
1.0460902e-07
1.0456267e-07
5.7787888e-07
5.4529523e-07
5.9253789e-07
2.5003405e-06
2.7363924e-06
2.3716261e-06
9.3054063e-06
6.4897705e-06
6.0844944e-06
2.2589949e-05
1.3582918e-05
1.1344262e-05
7.2645433e-05
7.9633829e-05
9.0602842e-05
0.00065843042
0.00094003533
0.0011548725
0.0061433502
0.0078999021
0.0096532577
0.046481042
0.052141088
0.061680331
0.30197564
0.30379885
0.34063233
1.6666041
1.5757795
1.6714871
7.3347442
6.8292539
6.9446029
24.525813
23.23835
23.14089
63.348264
62.380012
61.31375
127.73676
132.50196
133.72937
233.17391
245.67205
255.23095
385.51143
395.09462
434.2416
561.23107
547.99463
595.5674
787.5087
699.23509
738.96563
-2487.4071
-2507.3838
-2527.7768
-2242.7112
-2585.6268
-2603.3415
-2715.2352
-2444.067
-2524.0473
5.3582875e-12
5.1387848e-12
3.5317174e-12
8.3628273e-11
8.7210421e-11
6.2485102e-11
1.0869579e-09
1.2121263e-09
1.0385594e-09
1.3434567e-08
1.4005433e-08
1.2827484e-08
1.2323306e-07
1.3353722e-07
1.2934906e-07
1.0517797e-06
1.1428069e-06
1.0810329e-06
8.1605823e-06
7.9572089e-06
8.00564e-06
5.2656978e-05
5.0505547e-05
4.6124544e-05
0.00027804897
0.00029048675
0.00025791088
0.0013155746
0.001394956
0.0012922132
0.0056864147
0.0054655719
0.0055166179
0.021914063
0.021182963
0.022444495
0.098996885
0.090466061
0.098172918
0.51179063
0.44525302
0.46489446
2.3644863
2.0103687
2.0476643
8.6564961
7.4716017
7.1946951
24.401667
21.631787
20.317833
57.336293
53.086819
47.983868
103.39271
101.45602
98.253648
173.66489
175.60409
180.99805
234.79208
238.71636
281.40208
331.47689
344.33599
415.61342
608.9624
558.16109
582.91617
3.452887e-12
6.7188086e-11
9.4450083e-10
1.0514289e-08
9.5670893e-08
7.1625859e-07
4.914968e-06
3.0741028e-05
0.00017795069
0.00099075489
0.0054531266
0.029272936
0.15461873
0.77444284
3.3685278
11.728311
30.931288
61.35344
96.277997
132.11193
182.96165
294.39281
501.1505
4.2773263e-12
8.6986277e-11
1.188359e-09
1.2387965e-08
9.940069e-08
6.3997581e-07
3.3486487e-06
1.4692195e-05
6.0902727e-05
0.00028510052
0.0016835033
0.011506703
0.079206764
0.48802193
2.4218863
8.8749734
22.353338
36.351358
38.243047
43.875859
111.97288
315.47224
689.30283
2.7673463e-12
7.0994711e-11
1.0745684e-09
1.1879747e-08
9.8026529e-08
5.8481938e-07
2.5268769e-06
7.9129209e-06
2.1026573e-05
0.00012748021
0.0013595383
0.012096865
0.087981996
0.54067185
2.7397879
10.799672
31.321421
63.8088
89.039548
84.351146
79.346791
109.79933
225.52198
4.0313458e-12
4.79539e-12
2.5906661e-12
6.5627561e-11
6.9660642e-11
5.0094142e-11
8.1774983e-10
8.5121151e-10
6.9579011e-10
8.4470953e-09
8.6093287e-09
7.5707836e-09
7.4414399e-08
7.3430455e-08
6.8700257e-08
5.7705977e-07
5.4284748e-07
5.3835901e-07
3.9970688e-06
3.6027557e-06
3.6345827e-06
2.4915355e-05
2.2159794e-05
2.2829865e-05
0.00014419729
0.00012864705
0.00013750822
0.00078430415
0.00071499111
0.00078947266
0.0041894944
0.0038794938
0.0043887178
0.023291778
0.021449964
0.024538032
0.13600239
0.12109106
0.13699302
0.73158311
0.63550015
0.70484646
3.2131915
2.7398648
3.003008
10.497186
8.9914913
9.7268977
26.107557
22.393295
23.479193
49.714819
44.150474
43.726982
78.509022
74.084078
70.521054
115.4499
111.86075
109.30657
162.02893
171.86344
175.13341
299.41681
311.46081
313.78368
477.52625
449.35972
466.32667
4.4511179e-12
5.2290621e-12
3.5909168e-12
7.4070114e-11
8.4737837e-11
6.9754387e-11
9.4575959e-10
1.037737e-09
9.3975548e-10
9.717741e-09
1.0017906e-08
9.5856211e-09
7.9823168e-08
7.7151186e-08
7.686637e-08
5.3931127e-07
4.8436789e-07
4.8302032e-07
2.9945462e-06
2.5017312e-06
2.4723015e-06
1.4001523e-05
1.1005091e-05
1.0617753e-05
5.8182213e-05
4.601124e-05
4.4645231e-05
0.00025370563
0.0002215385
0.00023067641
0.0014503129
0.001381778
0.0015533266
0.01105324
0.010250601
0.011617741
0.086310389
0.075283687
0.082950682
0.55982474
0.46854916
0.50345023
2.658299
2.1910819
2.3449117
8.884981
7.2488453
7.7841378
20.002767
16.098479
17.29363
31.080359
24.642159
25.448178
38.972605
33.279244
30.865012
57.140362
61.673952
54.144504
118.47686
150.86422
130.15966
257.15669
288.56322
270.57956
520.82817
597.28084
577.18822
2.2451164e-12
2.9903144e-12
3.0629363e-12
5.2305362e-11
6.1453553e-11
6.9997605e-11
8.0806337e-10
8.8144935e-10
1.0194398e-09
9.3463144e-09
9.4661239e-09
1.0368026e-08
8.1609051e-08
7.3286338e-08
8.2164058e-08
5.4513059e-07
4.5073065e-07
4.8781977e-07
2.764183e-06
2.0905639e-06
2.1155945e-06
1.0502242e-05
7.2566502e-06
6.5495375e-06
3.0000646e-05
2.0440729e-05
1.6528989e-05
0.00010433149
9.5044764e-05
0.00010034297
0.00090565395
0.0009110328
0.0011191689
0.0095325753
0.0086734057
0.010352164
0.08268775
0.069370996
0.077865222
0.56471491
0.45672915
0.48787751
2.9231537
2.3600386
2.4529242
11.052383
9.0939323
9.3775042
29.479133
25.175335
25.841553
55.326065
49.424739
50.243899
74.888032
72.70554
69.99452
76.723646
80.062366
74.380489
105.78391
103.49218
94.006134
170.84418
140.63231
162.07377
349.20517
258.23626
295.04269
)
;

boundaryField
{
    free
    {
        type            zeroGradient;
    }
    fixed
    {
        type            zeroGradient;
    }
    traction
    {
        type            zeroGradient;
    }
}


// ************************************************************************* //
