/*--------------------------------*- C++ -*----------------------------------*\
  =========                 |
  \\      /  F ield         | OpenFOAM: The Open Source CFD Toolbox
   \\    /   O peration     | Website:  https://openfoam.org
    \\  /    A nd           | Version:  6
     \\/     M anipulation  |
\*---------------------------------------------------------------------------*/
FoamFile
{
    version     2.0;
    format      ascii;
    class       pointVectorField;
    location    "1.24";
    object      lm;
}
// * * * * * * * * * * * * * * * * * * * * * * * * * * * * * * * * * * * * * //

dimensions      [1 -2 -1 0 0 0 0];

internalField   nonuniform List<vector> 
625
(
(0 0 0)
(0 0 0)
(-5237.727 1609.9896 155.7083)
(-4802.3636 2761.53 -136.52345)
(0 0 0)
(0 0 0)
(-4490.6778 2619.9351 -141.42435)
(-4934.7296 1472.0275 151.09334)
(0 0 0)
(0 0 0)
(0 0 0)
(-4937.2091 1819.5999 81.443187)
(-4850.4407 2100.7521 12.216657)
(-4921.8017 2470.2563 -61.472008)
(-17.754661 -44.49682 -33.647717)
(-60.92956 -93.71157 -27.771558)
(-131.68811 -134.4708 -23.806833)
(-232.38247 -170.06538 -17.617156)
(-352.97906 -195.29691 -10.406768)
(-507.82294 -210.87167 -2.8785887)
(-683.3062 -213.49363 5.875983)
(-889.69903 -203.81489 16.240325)
(-1124.2145 -178.99397 27.679717)
(-1385.2754 -137.01947 42.259593)
(-1671.555 -77.897716 57.242011)
(-1979.1878 0.10886313 73.839183)
(-2300.7899 96.441645 91.211707)
(-2629.4111 209.22842 107.84456)
(-2956.4989 336.04319 123.5069)
(-3274.0086 473.29267 136.93879)
(-3575.3596 617.23151 147.67654)
(-3856.4282 763.82167 155.72687)
(-4111.4855 909.19286 160.2709)
(-4348.3154 1052.694 162.54937)
(-4562.505 1191.0611 162.5402)
(-4756.1206 1322.4909 159.66348)
(-4946.0966 1451.1993 156.45088)
(10.568761 35.325164 55.876887)
(-37.469039 72.928838 26.809747)
(-98.501301 134.01514 21.490077)
(-176.50186 185.82834 6.4834772)
(-272.2086 241.50695 -6.9442894)
(-394.53166 317.64683 -20.092936)
(-526.504 388.62595 -29.23084)
(-683.41212 474.68073 -41.234987)
(-859.85932 573.54467 -49.641792)
(-1057.6666 680.17445 -58.960981)
(-1276.9612 801.60813 -66.665704)
(-1517.4256 933.28842 -74.233676)
(-1777.3453 1076.6801 -80.925808)
(-2055.1248 1229.7377 -87.624968)
(-2347.2481 1391.191 -93.915742)
(-2649.5663 1558.5234 -100.30833)
(-2956.5965 1728.79 -106.40137)
(-3262.3686 1898.6723 -112.59417)
(-3559.8401 2064.3185 -118.38116)
(-3843.1292 2222.5109 -123.73876)
(-4106.3164 2369.8736 -128.53367)
(-4345.9958 2503.8163 -132.09044)
(-4574.3503 2631.7357 -134.3136)
(0 0 0)
(0 0 0)
(0 0 0)
(3.3018657 26.026727 -47.578065)
(-6.6901937 108.55401 -74.283219)
(-49.639205 128.95841 -78.355785)
(-100.79784 180.54485 -83.83883)
(-186.5811 251.9475 -98.437235)
(-281.0617 292.64518 -99.444683)
(-398.16904 367.0617 -108.18679)
(-538.12588 441.6908 -112.4078)
(-696.3182 527.47819 -117.54677)
(-878.06444 625.06625 -120.66048)
(-1082.4297 733.32224 -122.58738)
(-1307.0008 855.00141 -124.15003)
(-1553.2421 987.77857 -124.82228)
(-1816.3804 1130.7689 -125.1225)
(-2094.4909 1283.3743 -125.76112)
(-2382.9101 1441.9392 -126.56003)
(-2676.4128 1604.4975 -127.88764)
(-2969.7578 1767.6006 -129.79214)
(-3256.3998 1927.4343 -132.1086)
(-3531.0168 2081.0593 -134.59245)
(-3788.6416 2224.9994 -136.75441)
(-4025.7397 2358.0586 -138.84042)
(-4225.6967 2468.8295 -138.83302)
(-4636.1054 2342.8804 -66.428251)
(-4536.3511 1957.075 7.3554802)
(-4691.867 1702.4328 77.788593)
(-4654.6392 1317.7479 151.31358)
(-4490.9135 1194.8966 154.38928)
(-4289.2539 1059.6915 156.58071)
(-4070.1415 919.60181 157.56887)
(-3830.3656 775.64198 157.46022)
(-3569.2767 630.12801 155.80774)
(-3288.6726 486.70929 152.68642)
(-2991.3113 348.35159 147.97156)
(-2682.8347 219.41377 141.83002)
(-2369.5984 103.03933 134.56644)
(-2058.5518 2.5674307 126.26562)
(-1757.9454 -80.721291 117.66005)
(-1472.5201 -145.12919 108.48421)
(-1209.3721 -192.11684 100.04419)
(-973.7254 -223.94346 91.897741)
(-757.40272 -234.00892 82.734703)
(-571.74318 -236.54768 77.259263)
(-410.68752 -226.22906 70.92847)
(-278.92531 -200.59558 64.920621)
(-170.7955 -170.84788 59.573445)
(-86.861132 -134.79374 58.427688)
(-31.104363 -88.222914 49.970839)
(-14.176041 -38.177816 34.257799)
(0 0 0)
(0 0 0)
(0 0 0)
(0 0 0)
(0 0 0)
(0 0 0)
(-4724.1985 2726.3523 -137.30081)
(-4645.9132 2690.8343 -138.25397)
(-4568.343 2654.7166 -140.1608)
(-5162.753 1575.5551 154.26479)
(-5086.6448 1541.7074 152.57462)
(-5010.5877 1507.6651 152.03155)
(8.7644506 -24.364575 -30.608868)
(-32.842389 -55.577653 -19.005752)
(-101.72774 -79.995485 -19.357576)
(-197.25225 -99.486903 -14.809561)
(-322.23513 -110.04409 -11.624626)
(-479.12329 -107.50101 -7.2906602)
(-659.75102 -90.596335 -0.81571628)
(-867.72186 -58.723303 4.5499397)
(-1097.4018 -7.464044 13.259378)
(-1344.9382 60.464763 21.895712)
(-1606.2272 145.16732 30.692881)
(-1874.4591 245.37504 40.088463)
(-2145.579 357.50045 48.562118)
(-2415.0938 479.13872 56.297031)
(-2679.5058 606.90042 62.800072)
(-2937.5764 738.52193 67.889939)
(-3188.7478 871.38916 71.807414)
(-3434.8583 1004.8072 74.577444)
(-3676.4471 1137.8207 76.495418)
(-3921.0107 1271.8885 77.820878)
(-4168.0341 1407.1155 78.751014)
(-4420.0403 1542.8443 79.778002)
(-4691.7642 1686.3921 80.77636)
(10.279536 -4.855802 3.4996135)
(-40.37982 -5.3193311 6.1634781)
(-110.32703 -3.0255662 0.85290346)
(-213.5477 4.9834522 -3.6473284)
(-343.77204 27.270693 -5.1907676)
(-497.70093 56.406927 -7.950031)
(-670.96121 97.791957 -9.568281)
(-862.05937 150.91047 -9.434519)
(-1064.1872 214.27325 -8.2677979)
(-1276.1313 287.72167 -7.028309)
(-1492.7592 370.81488 -3.8423971)
(-1712.6612 461.74121 -0.97950174)
(-1934.5464 560.25884 2.491983)
(-2158.2984 665.51142 5.7291381)
(-2385.4154 777.46575 8.8193802)
(-2618.2953 896.21775 11.374785)
(-2860.3169 1022.5476 13.507223)
(-3115.1958 1157.5749 14.892028)
(-3385.8228 1301.9529 15.680428)
(-3674.9347 1456.8597 15.862432)
(-3982.8435 1621.6056 15.535792)
(-4308.6208 1796.3895 14.70151)
(-4626.0841 1969.6518 13.403927)
(18.391996 14.104587 13.751875)
(-36.769757 32.680682 9.6802339)
(-103.41933 57.629033 1.9899921)
(-205.28118 96.387468 -5.3252493)
(-323.52802 144.79762 -12.085415)
(-462.24956 194.05729 -19.723558)
(-617.60208 259.29688 -25.071486)
(-786.35794 326.54366 -28.772532)
(-969.97189 402.48136 -32.373074)
(-1165.1028 486.78747 -34.172811)
(-1373.1639 577.76774 -35.282217)
(-1593.2447 677.37493 -35.978613)
(-1825.9101 785.46196 -36.145438)
(-2071.0888 902.66884 -36.324138)
(-2328.715 1029.2747 -36.687928)
(-2598.2366 1165.5664 -37.481654)
(-2878.5348 1311.1811 -38.85162)
(-3167.8401 1465.5625 -40.979183)
(-3463.8822 1627.4326 -43.710691)
(-3763.8217 1795.2577 -47.174689)
(-4064.3082 1966.5164 -50.866174)
(-4361.9814 2140.1187 -55.096023)
(-4637.519 2302.755 -57.966689)
(0 0 0)
(0 0 0)
(0 0 0)
(0 0 0)
(0 0 0)
(0 0 0)
(0 0 0)
(0 0 0)
(0 0 0)
(-14.238936 18.237088 22.078972)
(-16.822668 22.383757 -4.573427)
(-11.791371 10.758029 -20.204492)
(-60.09533 102.76769 -0.26162036)
(-46.557599 99.14498 -20.072593)
(-38.129209 85.103074 -50.091414)
(-103.09946 140.46533 -4.4392133)
(-96.839482 130.63586 -26.234808)
(-84.333534 135.78794 -57.885815)
(-177.08309 195.23372 -20.691422)
(-163.82593 195.07144 -42.580324)
(-140.42866 177.80216 -65.942295)
(-270.39744 261.7623 -31.620545)
(-250.2211 252.88322 -50.307854)
(-226.62973 248.23372 -77.667623)
(-378.78114 324.01096 -41.889867)
(-355.77512 313.43223 -63.595516)
(-326.23006 302.96417 -84.049448)
(-507.2975 396.67036 -52.899076)
(-480.92052 391.69701 -69.594366)
(-446.41184 376.53202 -93.957748)
(-658.39036 482.39979 -61.483553)
(-625.51325 466.8915 -78.776858)
(-588.35575 454.29911 -98.582635)
(-828.39817 575.3008 -69.391562)
(-792.07274 562.96404 -85.796306)
(-750.0122 543.57421 -104.87847)
(-1020.7103 681.36767 -76.679876)
(-980.15803 663.82311 -91.777591)
(-933.41049 644.47982 -108.91273)
(-1234.8446 797.74217 -82.768411)
(-1189.5343 779.08089 -96.873005)
(-1139.3675 756.07054 -112.203)
(-1469.6865 926.57239 -88.525862)
(-1420.5799 904.97301 -101.27583)
(-1366.4364 880.01225 -114.67497)
(-1725.4429 1066.0188 -93.435838)
(-1671.9542 1042.4698 -104.97064)
(-1614.0445 1015.2592 -116.51649)
(-1998.4122 1215.5427 -98.318623)
(-1940.7315 1189.7826 -108.50642)
(-1879.6385 1160.2272 -118.00022)
(-2286.4126 1373.4598 -102.94892)
(-2224.7249 1345.7077 -111.79526)
(-2160.1281 1314.204 -119.60636)
(-2584.4896 1537.2642 -107.70612)
(-2518.8815 1507.551 -115.28272)
(-2451.4181 1474.3955 -121.50514)
(-2887.7013 1704.2871 -112.5445)
(-2818.5909 1672.8029 -118.90129)
(-2747.9968 1638.1569 -123.75326)
(-3189.7367 1871.1053 -117.62242)
(-3117.2345 1838.0321 -122.73708)
(-3044.3121 1802.337 -126.47264)
(-3484.0539 2034.2074 -122.49702)
(-3409.1959 1999.7478 -126.51588)
(-3333.9813 1963.2276 -129.53416)
(-3764.7654 2190.0915 -127.17139)
(-3687.6851 2154.4771 -130.42875)
(-3610.8049 2117.6161 -132.55358)
(-4026.1042 2335.1997 -131.44506)
(-3947.9619 2299.2361 -133.2703)
(-3870.0705 2262.2484 -135.19826)
(-4265.0622 2468.4587 -134.0831)
(-4186.4434 2432.3536 -135.74973)
(-4108.043 2395.4358 -137.65791)
(-4479.8558 2587.9093 -135.483)
(-4401.9229 2551.8095 -137.16421)
(-4323.8968 2516.0453 -138.3565)
(-4881.2844 1792.4978 80.151469)
(-4807.6122 1759.5349 78.637025)
(-4734.1997 1725.713 78.141957)
(-4751.6492 2055.9079 10.601989)
(-4687.1582 2026.8904 9.0601703)
(-4614.0545 1993.1072 8.6882601)
(-4832.1866 2429.3519 -62.588301)
(-4764.4088 2399.7117 -63.762005)
(-4687.4088 2364.3455 -64.890843)
(-36.282189 -40.000191 -15.873168)
(-28.988435 -40.974936 -0.65337753)
(-30.965321 -35.747175 14.492189)
(-69.061126 -89.884868 -12.023109)
(-65.037964 -87.383726 15.515253)
(-56.514056 -79.781769 31.179876)
(-142.21893 -134.07551 -4.3270403)
(-126.98148 -130.24611 11.144195)
(-117.69674 -126.66115 36.966348)
(-231.54307 -167.28661 0.65459003)
(-219.10349 -164.75442 21.352913)
(-201.82094 -163.39873 41.748657)
(-352.95401 -197.08167 6.4353165)
(-335.14075 -192.7853 27.116621)
(-313.81904 -192.86222 45.155308)
(-499.73476 -210.12238 15.041993)
(-475.35556 -210.38858 31.698167)
(-449.70261 -210.76567 52.382717)
(-671.143 -215.0639 22.915637)
(-644.49766 -216.49438 39.750432)
(-615.55571 -220.00812 59.248728)
(-871.76568 -206.92366 32.230438)
(-840.61507 -211.36318 49.209949)
(-804.93774 -218.63304 66.564077)
(-1098.8751 -185.93108 44.051366)
(-1061.9647 -190.76946 58.16407)
(-1021.8783 -198.76822 75.02342)
(-1350.6488 -145.21914 56.072139)
(-1314.3566 -157.13506 69.739243)
(-1268.0695 -166.50577 85.713983)
(-1632.2651 -89.528683 70.341701)
(-1586.0358 -103.00373 82.139169)
(-1536.7361 -116.63891 95.806218)
(-1931.5964 -15.441129 84.837703)
(-1880.6501 -32.025502 94.43591)
(-1826.471 -48.797912 106.65272)
(-2245.8385 76.805505 99.775521)
(-2190.3198 57.228957 107.40859)
(-2131.0224 37.218738 117.56442)
(-2567.9482 185.67133 114.0718)
(-2508.0189 163.12068 119.59257)
(-2444.1404 140.23557 127.65949)
(-2889.7257 308.92833 127.22798)
(-2825.7293 283.83435 130.7526)
(-2758.1264 258.22023 136.94011)
(-3203.6565 443.27174 138.3894)
(-3136.3835 415.9211 140.30236)
(-3065.7838 387.94892 144.67552)
(-3503.5894 585.16326 147.38659)
(-3433.2269 555.69759 147.93043)
(-3360.5186 526.01485 150.76226)
(-3784.0018 730.04452 153.82772)
(-3711.3763 699.52643 153.24891)
(-3637.8995 668.70991 154.8693)
(-4042.5796 875.93105 157.61948)
(-3969.8615 844.54697 156.69835)
(-3894.329 812.14618 157.24247)
(-4279.6676 1019.0533 159.50592)
(-4204.1013 986.40803 157.69677)
(-4129.8419 954.143 157.80545)
(-4494.5194 1157.797 159.48042)
(-4417.9937 1124.2929 157.46191)
(-4344.5841 1091.9375 157.0397)
(-4692.266 1290.8779 156.95406)
(-4617.0399 1257.5675 155.82738)
(-4542.8153 1224.86 154.86601)
(-4876.2531 1418.9371 154.78551)
(-4801.3891 1385.3673 153.75517)
(-4725.8802 1351.858 152.60837)
(11.039441 -15.72664 22.483143)
(-13.321221 -61.775977 28.531062)
(-54.625233 -77.00328 24.076957)
(-133.46703 -101.83023 30.992239)
(-233.58598 -113.57377 30.1212)
(-361.93479 -121.38433 33.167046)
(-518.4349 -113.85779 36.060964)
(-701.00941 -94.376714 39.266132)
(-911.31804 -59.353026 42.948788)
(-1143.8031 -6.1269878 47.45266)
(-1397.3665 64.452509 52.583525)
(-1666.8952 153.25211 57.520024)
(-1946.4318 257.94308 62.855099)
(-2231.2617 376.34325 67.722209)
(-2515.1365 505.20312 72.093883)
(-2793.7612 640.89437 75.734312)
(-3063.1713 779.98537 78.301358)
(-3321.0765 919.36841 79.914052)
(-3566.4684 1056.7575 80.675221)
(-3799.5298 1190.6139 80.543575)
(-4022.021 1320.2472 79.881402)
(-4237.6894 1446.1238 79.174993)
(-4428.246 1562.1664 77.523406)
(30.358896 -7.840803 -6.5562335)
(2.067199 -8.9900013 -6.2923028)
(-52.868613 1.7215414 -9.7585094)
(-138.56003 2.4698347 -8.367927)
(-244.02381 19.432955 -10.238426)
(-382.51837 40.560016 -11.772466)
(-539.63256 73.661957 -11.592697)
(-719.10295 114.79455 -11.863764)
(-912.68925 169.54953 -10.637775)
(-1116.9815 232.08811 -7.7410009)
(-1328.7831 307.05146 -5.8150774)
(-1542.6253 389.61523 -1.8446097)
(-1757.4164 481.20089 1.2436947)
(-1971.6847 579.54681 4.4836408)
(-2186.4787 684.78837 7.3600639)
(-2403.8193 796.51393 9.5303415)
(-2627.1339 915.17999 11.040235)
(-2860.1465 1041.3095 11.923151)
(-3106.1474 1175.8658 12.11596)
(-3368.2084 1319.2566 11.532603)
(-3648.0684 1472.0073 10.896529)
(-3945.8884 1633.7272 9.4137386)
(-4293.6296 1819.1062 8.2096024)
(36.996405 26.03358 -21.715585)
(-2.7754937 36.531631 -31.919825)
(-47.148138 85.453562 -48.874015)
(-120.53073 94.445426 -48.788325)
(-222.02115 143.91518 -62.198093)
(-341.1355 187.49671 -65.106426)
(-479.10184 235.37956 -69.027376)
(-633.47952 297.13487 -71.65281)
(-803.26953 359.92945 -70.93188)
(-986.97745 434.78496 -70.508453)
(-1183.5164 515.85473 -67.58828)
(-1392.8648 606.03685 -64.099734)
(-1614.2843 705.72568 -60.511557)
(-1847.7066 814.65807 -56.492456)
(-2092.4874 933.22853 -53.107369)
(-2348.2964 1061.6488 -50.532192)
(-2614.0392 1199.1842 -48.878512)
(-2888.5998 1345.6701 -48.523539)
(-3170.0143 1499.6029 -49.497546)
(-3456.7197 1660.0587 -51.560029)
(-3745.4931 1824.5701 -54.611916)
(-4034.8015 1992.3354 -58.132395)
(-4328.5055 2163.5575 -62.544825)
(-6.5920704 -12.695772 -12.09811)
(0.22924557 -13.597958 -0.90495154)
(-6.682056 -10.225903 13.283885)
(-48.99969 -54.415566 -3.6017949)
(-45.957719 -52.473579 8.6710246)
(-33.700691 -54.725094 18.870583)
(-111.49752 -72.766156 -3.4532937)
(-95.953888 -72.548965 6.2420946)
(-86.91799 -71.439002 16.240036)
(-198.69707 -94.453796 -1.6900109)
(-185.6701 -94.98728 9.8235236)
(-167.49976 -93.777658 20.54613)
(-317.53666 -103.95421 2.8329337)
(-297.78206 -102.9429 12.113051)
(-276.58079 -105.8344 21.033899)
(-462.05439 -101.2992 5.1378928)
(-438.06586 -105.47132 13.991731)
(-409.96247 -108.28608 23.379444)
(-634.49716 -89.061617 9.9915488)
(-606.24007 -93.458069 18.142794)
(-574.93224 -99.687347 26.961924)
(-833.22737 -60.007268 15.164724)
(-799.98566 -65.983276 22.448701)
(-762.3468 -75.047506 30.531836)
(-1055.6735 -12.897646 21.331812)
(-1018.1876 -23.07768 27.456178)
(-977.08143 -35.497595 34.770922)
(-1299.648 49.700665 28.723778)
(-1257.5854 37.8063 33.862261)
(-1210.8595 21.775859 40.758278)
(-1559.7154 130.61838 36.13226)
(-1513.029 115.57473 40.019811)
(-1462.1738 95.941965 45.997245)
(-1831.116 227.34726 43.882882)
(-1780.3924 209.53858 46.984753)
(-1725.6311 186.63471 52.165624)
(-2109.2866 338.00518 51.232508)
(-2054.6194 317.58151 53.668589)
(-1996.02 291.56591 57.94452)
(-2388.6269 459.83328 57.968067)
(-2330.3331 436.93819 59.882372)
(-2268.445 408.43114 63.427303)
(-2664.9095 589.53165 63.802483)
(-2603.4393 564.57252 65.409247)
(-2539.0066 533.95597 68.278617)
(-2934.9769 724.14384 68.521588)
(-2870.9203 697.2018 70.052669)
(-2804.3051 665.1867 72.22832)
(-3196.7535 860.4743 72.30117)
(-3130.5121 832.23499 73.651716)
(-3062.2744 799.40534 75.24214)
(-3449.7211 997.15345 74.949355)
(-3381.5642 967.77237 76.259567)
(-3312.6056 934.39599 77.235025)
(-3693.2954 1132.1601 76.902729)
(-3626.8983 1102.7713 78.06966)
(-3555.1519 1068.493 78.51234)
(-3951.7946 1271.771 78.509209)
(-3847.226 1229.9104 78.750181)
(-3792.834 1201.4492 78.974205)
(-4185.2762 1403.3865 79.225785)
(-4080.6016 1361.1707 79.235439)
(-4025.4544 1332.7794 78.918212)
(-4403.4285 1529.2914 79.653096)
(-4329.4337 1496.323 79.840205)
(-4258.0439 1462.7608 78.800165)
(-4638.3469 1659.6937 79.997771)
(-4565.7581 1627.2436 79.493416)
(-4492.278 1593.4366 78.150131)
(3.8287044 -4.5195864 3.6922791)
(5.0586946 -2.5349541 4.967281)
(3.3161932 -8.2185377 -1.4236391)
(-46.542093 -5.3798161 8.8751746)
(-42.389373 -6.0353893 2.9648691)
(-25.51265 -6.7990639 -2.3141061)
(-115.48929 0.21205038 0.13169004)
(-102.04239 5.082484 -7.1593293)
(-88.941924 -0.38244631 -7.9627098)
(-209.96605 9.2369616 -0.70684562)
(-200.27886 15.4224 -6.2016772)
(-175.53466 10.890893 -7.8961616)
(-337.02691 30.478945 -5.1644589)
(-316.38768 35.034218 -13.419821)
(-287.22168 23.592408 -10.03781)
(-485.14967 59.408133 -8.395507)
(-460.57247 61.344418 -13.256199)
(-427.33152 50.593909 -12.93381)
(-654.81414 98.551388 -9.2102023)
(-625.07916 99.785491 -15.019377)
(-586.68626 85.921312 -12.067505)
(-843.51741 151.45671 -10.569451)
(-808.07868 147.3516 -15.52616)
(-765.90655 130.07481 -13.507846)
(-1043.934 211.8473 -9.1270764)
(-1004.326 205.61573 -13.338483)
(-958.88243 187.24742 -11.408763)
(-1254.5754 284.07603 -8.1570409)
(-1210.6188 273.71858 -11.600731)
(-1161.6856 252.36823 -9.719545)
(-1470.1331 365.21114 -5.1406747)
(-1421.9719 351.09166 -7.9792529)
(-1371.2387 328.64229 -6.4940395)
(-1688.434 454.17845 -2.074302)
(-1637.352 436.81246 -4.200524)
(-1584.1353 412.6933 -2.9814344)
(-1907.8018 550.59648 1.4846328)
(-1853.4411 530.23064 0.0038520659)
(-1798.5867 505.00775 0.85653144)
(-2127.5897 653.41763 4.8450916)
(-2070.5983 630.46626 4.048532)
(-2014.226 604.49024 4.2824617)
(-2349.3556 762.59414 8.1008436)
(-2290.0213 737.42352 7.7237139)
(-2232.0935 710.83042 7.5758796)
(-2575.231 878.01598 10.688088)
(-2513.8771 851.17014 10.632617)
(-2454.32 824.13185 10.063911)
(-2808.7358 1000.6092 12.790837)
(-2745.541 972.5712 12.878333)
(-2684.1613 944.82666 11.888895)
(-3053.3659 1131.28 14.13127)
(-2988.6306 1102.0871 14.07587)
(-2925.3252 1073.6918 12.949998)
(-3312.7349 1270.6169 14.697737)
(-3246.3706 1240.7496 14.679033)
(-3180.9495 1211.3306 13.324706)
(-3587.6396 1419.3764 14.797051)
(-3522.5017 1389.2297 14.242815)
(-3454.2247 1359.2322 12.711096)
(-3873.2698 1574.656 14.04593)
(-3832.9673 1554.377 12.907412)
(-3744.5673 1516.2731 12.381527)
(-4198.1124 1747.4912 13.195497)
(-4125.8981 1715.3887 12.03737)
(-4053.8756 1682.315 10.754068)
(-4526.8433 1925.2145 11.831612)
(-4453.4387 1891.9145 10.757671)
(-4379.2612 1858.4362 9.3301271)
(3.7201481 14.564678 3.6516175)
(11.309541 9.926044 -4.0755299)
(14.957878 12.380116 -13.238628)
(-49.081194 38.831637 -0.041734241)
(-45.171274 26.851878 -14.522764)
(-30.455516 34.019812 -26.777468)
(-107.82974 68.766192 -10.864823)
(-96.403209 78.361904 -24.776692)
(-82.783074 78.854693 -38.222974)
(-204.87164 113.12361 -15.877357)
(-185.74191 100.02616 -29.699847)
(-164.41629 102.42981 -40.441274)
(-315.02866 152.81474 -25.884644)
(-293.02301 151.9113 -39.215447)
(-268.03446 149.17159 -50.729854)
(-448.60858 206.989 -30.338284)
(-420.7299 199.49028 -42.765384)
(-389.91145 195.89986 -52.770369)
(-598.55091 268.21743 -36.37032)
(-565.92141 257.01366 -49.478674)
(-531.7627 250.0015 -58.781586)
(-762.77424 331.98013 -39.72681)
(-725.94138 320.98349 -50.477358)
(-687.49686 313.03793 -60.374739)
(-941.73463 406.80049 -42.125758)
(-901.46535 392.18892 -53.370231)
(-858.52999 380.17803 -61.555321)
(-1133.4148 487.79255 -43.620208)
(-1088.8899 471.13034 -53.186036)
(-1043.036 457.12455 -60.85059)
(-1337.4114 575.89937 -43.74743)
(-1290.1672 557.5241 -52.412466)
(-1240.312 540.60998 -59.454519)
(-1553.7616 672.71558 -43.596823)
(-1503.1405 652.38054 -51.140177)
(-1450.1208 632.87668 -57.152099)
(-1782.1971 777.55381 -43.005582)
(-1728.6331 755.8226 -49.280304)
(-1672.3026 733.66181 -54.606726)
(-2022.6982 891.52139 -42.334777)
(-1966.332 868.32088 -47.46538)
(-1906.9201 843.77891 -52.129658)
(-2275.1915 1014.6205 -41.948172)
(-2215.926 990.15612 -46.041328)
(-2153.4643 963.33796 -49.878359)
(-2539.018 1147.1614 -42.033819)
(-2476.8048 1121.5247 -45.049477)
(-2411.6787 1092.6436 -48.39054)
(-2813.1856 1288.9272 -42.683411)
(-2748.1563 1261.9352 -44.893063)
(-2680.3665 1231.2786 -47.67411)
(-3096.3085 1439.3017 -44.200404)
(-3028.2453 1410.9296 -45.651293)
(-2958.348 1378.7695 -48.016254)
(-3386.0643 1597.1394 -46.403645)
(-3315.5487 1567.2017 -47.296595)
(-3243.452 1534.1257 -49.391718)
(-3680.531 1761.1352 -49.342879)
(-3607.2794 1730.1224 -49.905554)
(-3533.5433 1695.7908 -51.737375)
(-3976.1526 1929.3196 -52.619342)
(-3900.7606 1896.2461 -53.242464)
(-3825.9127 1861.7626 -54.629957)
(-4270.2536 2099.2517 -56.594086)
(-4193.8444 2065.7635 -56.821937)
(-4117.6535 2030.5053 -58.022533)
(-4559.7949 2268.1376 -59.47647)
(-4482.3988 2233.9311 -60.312829)
(-4405.3165 2197.9938 -61.781962)
)
;

boundaryField
{
    free
    {
        type            zeroGradient;
    }
    fixed
    {
        type            fixedValue;
        value           uniform (0 0 0);
    }
    traction
    {
        type            zeroGradient;
    }
}


// ************************************************************************* //
