/*--------------------------------*- C++ -*----------------------------------*\
  =========                 |
  \\      /  F ield         | OpenFOAM: The Open Source CFD Toolbox
   \\    /   O peration     | Website:  https://openfoam.org
    \\  /    A nd           | Version:  6
     \\/     M anipulation  |
\*---------------------------------------------------------------------------*/
FoamFile
{
    version     2.0;
    format      ascii;
    class       pointScalarField;
    location    "0.999929";
    object      p;
}
// * * * * * * * * * * * * * * * * * * * * * * * * * * * * * * * * * * * * * //

dimensions      [1 -1 -2 0 0 0 0];

internalField   nonuniform List<scalar> 
625
(
1260009.8
-1892639.9
11365.264
15300.406
2314091.7
-3905000.3
11553.827
1474.141
974887.11
-124463.05
-72050.527
-9951.2729
5324.8191
9277.6362
544342.73
568096.55
577552.76
545649.26
486363.84
473552.08
417538.11
382229.71
358027.1
317130.89
287997.37
249482.8
223042.63
194823.54
167654.61
145527.32
124420.41
100712.94
83938.934
67092.001
50023.138
34698.536
24699.784
-649501.21
-494830.86
-564131.26
-450252.42
-418795.15
-412109.52
-339011.26
-328921.52
-294621.16
-260137.31
-240934.62
-204530.56
-185356.58
-157423.32
-137997.18
-115525.18
-95446.374
-79686.88
-61142.867
-48351.12
-35864.587
-17607.234
-6019.3427
1275728.4
-288010.17
-389166.82
-710131.16
-829457.92
-595463.31
-535346.45
-624750.18
-447225.31
-501742.46
-429062.78
-371536.86
-339476.99
-300719.96
-263807.74
-233442.74
-198498.32
-169208.77
-144579.85
-116554.19
-95674.082
-75222.147
-53985.619
-35247.844
-21848.427
-3240.2419
14258.423
1767.4829
-1406.2302
24601.305
30698.245
49489.143
64941.974
87081.057
107842.42
131343.97
157220.16
179468.4
211746.42
244347.82
279690.54
300261.66
341944.68
371488.41
416430.64
453465.42
470512.17
579537.31
515323.01
678471.57
593839.25
648149.47
1364413.1
1352764.8
1245087.3
-1738697.3
-2362610.4
-2408763.3
18981.88
18036.808
19727.392
-883.83606
4933.2958
-778.28136
317588.25
374864.97
356969.47
319021.97
300343.02
280363.83
250917.64
234340.29
211135.45
185829.81
163411.95
150021.67
132968.44
114557.08
101277.68
85138.644
72698.521
60897.273
45092.36
35380.051
24896.638
16276.441
15510.72
-102379.82
-70210.186
-82775.466
-28719.665
-53094.901
-26234.012
-33866.002
-26177.732
-20322.9
-17779.751
-15493.752
-11054.489
-11203.465
-7482.0075
-4900.9175
-3607.9527
1945.8609
1116.4263
5537.2572
8917.2172
8386.7915
9337.0072
7822.8056
-444968.53
-286390.79
-337845.21
-252814.2
-301174.96
-233880.1
-241130.52
-202871.65
-180788.28
-166465.12
-144703.24
-130216.23
-113936.99
-97120.904
-83283.761
-68059.964
-56568.677
-44630.878
-31194.535
-24270.733
-13563.315
-9019.1008
2131.0696
774119.73
806011.07
930462.78
-35813.494
-79699.262
-208332.63
-354022.79
-139345.27
-100569.88
-1083694
-1090315.9
-1062694.8
-753099.16
-774613.23
-837297.5
-621956.12
-616659.56
-671028.76
-509880.61
-503820.82
-534405.65
-483002.25
-487375.04
-523763.64
-428314.7
-420277.15
-430603.38
-402108.62
-397209.27
-391727.64
-361615.74
-345139.15
-367735.07
-324567.62
-318215.96
-330941.02
-290719.72
-280388.51
-295558.21
-255227.11
-251389.15
-264586.8
-232519.16
-218765.04
-228794.65
-198703.56
-194190.37
-204000.05
-177607.23
-165470.94
-178460.05
-148977.2
-141522.24
-151256.65
-126768.74
-118851.78
-127565.78
-104568.44
-97538.932
-104192.03
-80304.617
-78179.069
-82807.971
-63047.534
-60639.757
-64190.262
-45462.713
-44620.64
-46287.392
-27929.775
-27781.462
-28292.987
-15465.94
-16352.658
-17950.989
-5874.2491
-2634.0126
-3389.3307
-10314.754
-13358.175
-13376.363
9239.3985
4531.7165
5463.5339
13661.737
15608.7
14713.563
687452.33
651825.76
713256.07
702579.72
571958.8
652664.04
656071.78
592067.21
640114.06
585914.23
518449.47
569057.83
554544.55
508208.86
528090.5
502745.68
449598.89
477734.54
464419.66
420901.28
438710.73
421732.09
376909.33
401575.15
384658.78
344276.95
362022.22
337574.35
311844.56
328406.31
302710.68
282652.73
293003.95
274866.65
250967.99
247637.15
239101.49
219240.34
225867.19
211363.35
192650.63
202156.95
181763.99
167894.02
173114.56
156543.82
142350.14
147921.25
126805.91
120070.31
125676.27
105948.94
100486.98
102896.13
83977.712
80108.323
82099.793
64109.501
61572.29
63984.348
45936.544
46013.356
46583.956
31960.003
33352.868
31321.437
24839.224
27798.977
26965.334
289773.13
397150.98
306117.93
345053.45
308749.59
288365.4
279201.87
244016.38
226991.33
200041.85
179135.12
164030.76
150981.64
125238.07
113049.76
96387.555
80327.872
67889.731
54621.977
44352.134
30901.509
24051.922
14615.934
-101011.66
14568.927
978.37494
23734.059
46361.289
37885.34
32182.023
41934.934
34256.815
35704.872
34016.843
36612.01
26934.591
28754.151
28790.105
23895.183
23122.516
21711.143
18325.952
15522.348
14016.911
11552.367
11118.012
-311506.53
-199260.88
-373542.19
-282991.05
-287584.72
-297929.75
-244219.95
-231109.35
-209512.13
-185690.88
-163941.21
-149014.59
-127852.04
-110238.36
-94145.39
-79319.221
-65877.367
-52115.752
-40983.84
-31743.117
-20685.769
-8919.9781
-7564.7541
461265.13
514828.24
447881.23
357202.84
466683.62
398245.94
294998.48
323487.11
340215.63
271573.08
338285.09
292683.37
274507.4
270724.69
277179.71
246091.97
266488.28
265085.91
214487.73
238378.98
236005.09
213732.12
222582.16
217771.44
176455.46
202362.45
196477.13
171282.34
180983.28
183692.83
155156.12
170397.04
157453.3
135742.9
138304.93
147979.19
120425.99
128791.87
132017.37
105714
114965.44
114025.62
92864.504
97021.988
97490.288
78929.452
83325.269
87980.609
66396.856
72402.2
72573.195
59725.954
58062.744
60779.921
44654.943
47047.279
48868.845
37970.276
38835.621
38305.089
25646.814
27625.946
27765.517
20806.36
19827.16
18451.085
2084.5774
7863.3109
8261.1841
-109932.08
-157484.92
-95220.295
-14182.155
-17935.865
-45664.999
-11056.132
-34366.315
-36244.98
-21666.457
-5987.6597
-52765.956
12856.28
-1783.784
-11432.39
-13306.629
10922.222
-19869.899
18151.073
16007.122
-11490.412
3858.6117
17403.271
-10465.614
14335.586
16235.445
-2687.0776
12163.896
27014.168
-2768.0918
19020.162
16868.884
-2648.9583
15578.913
18631.563
4767.909
13885.011
23002.305
5351.9029
16211.008
20694.248
5674.6278
12992.817
20864.433
6403.3805
14439.887
20030.359
9283.6044
11537.794
20528.518
7351.1922
12271.318
16814.749
7407.937
10434.267
14726.06
10548.644
9691.1886
14358.581
9316.6128
10174.449
11356.664
9781.3965
11023.844
12418.952
8522.6786
11826.794
11241.711
10062.107
-375637.64
-479158.16
-398597.41
-331365.24
-261691.66
-328945.3
-278674.22
-412196.62
-355000.52
-357540.11
-293280.16
-369521.66
-270079.48
-321120.95
-309222.27
-253083.41
-278000.71
-303646.15
-235287.16
-258589.79
-279771.42
-202451.18
-245373.4
-245803.01
-191683.74
-208155.11
-223373.79
-168782.16
-194240.72
-202372.31
-146780.86
-171541.23
-176108.64
-131373.29
-150602.49
-154612.89
-109052.25
-135398.27
-133266.6
-96721.522
-114514.19
-115879.61
-80428.25
-99163.574
-98830.94
-68913.754
-81966.533
-83090.33
-54764.872
-68435.351
-68598.966
-44335.839
-54416.33
-54885.552
-34122.527
-41284.611
-40715.276
-25327.911
-29601.148
-29607.55
-19232.574
-20262.441
-21817.305
-3990.4122
-8929.506
-7836.0073
-1402.5784
-4971.1899
-2952.6514
)
;

boundaryField
{
    free
    {
        type            calculated;
    }
    bottom
    {
        type            calculated;
    }
    traction
    {
        type            calculated;
    }
}


// ************************************************************************* //
