/*--------------------------------*- C++ -*----------------------------------*\
  =========                 |
  \\      /  F ield         | OpenFOAM: The Open Source CFD Toolbox
   \\    /   O peration     | Website:  https://openfoam.org
    \\  /    A nd           | Version:  6
     \\/     M anipulation  |
\*---------------------------------------------------------------------------*/
FoamFile
{
    version     2.0;
    format      ascii;
    class       pointVectorField;
    location    "1.89";
    object      lm;
}
// * * * * * * * * * * * * * * * * * * * * * * * * * * * * * * * * * * * * * //

dimensions      [1 -2 -1 0 0 0 0];

internalField   nonuniform List<vector> 
625
(
(0 0 0)
(0 0 0)
(1903.7491 132.08943 -237.34654)
(1860.4786 -363.75698 -299.2928)
(0 0 0)
(0 0 0)
(1922.0709 -375.67497 -298.72951)
(1965.1961 119.59629 -236.87241)
(0 0 0)
(0 0 0)
(0 0 0)
(1873.1553 8.6636692 -250.26994)
(1869.9949 -112.95855 -266.00811)
(1878.7735 -239.61821 -284.16851)
(-10.849748 -2.6095024 7.2468249)
(-10.825625 1.5529633 3.9129873)
(-2.087995 6.8827781 -6.8873441)
(14.36912 16.988542 -21.620645)
(39.918006 28.817775 -39.822763)
(74.059967 44.043 -61.208771)
(118.13489 60.424044 -82.977567)
(171.98442 78.996644 -106.19772)
(236.11177 97.389058 -128.76873)
(309.51113 116.32365 -151.33584)
(392.84505 134.27334 -171.74479)
(484.48365 150.88514 -190.45555)
(584.21158 165.29131 -206.83211)
(690.47472 177.19982 -220.38372)
(802.42065 186.17001 -231.23048)
(918.65128 191.56334 -239.00365)
(1037.9518 194.32162 -244.48318)
(1159.7535 192.45068 -246.90382)
(1282.1514 188.77512 -247.89919)
(1405.2802 181.5298 -246.72199)
(1528.5618 171.23123 -244.41017)
(1650.945 159.90316 -241.92791)
(1772.7002 146.04719 -238.54891)
(1.7949407 -17.929128 -18.044367)
(2.4173176 -37.629506 -32.194414)
(9.3799983 -58.09476 -50.913445)
(21.723379 -78.540073 -75.528975)
(44.627531 -99.356467 -99.991877)
(74.588354 -117.53361 -127.30066)
(114.43582 -136.6421 -154.39311)
(163.66304 -153.22116 -180.80861)
(223.03501 -170.17757 -206.12533)
(291.10891 -184.96381 -229.50184)
(368.64786 -199.49767 -250.32203)
(455.19715 -213.09846 -268.2576)
(549.29626 -225.83101 -283.29566)
(651.12123 -238.18016 -294.91585)
(759.07333 -250.06163 -303.66178)
(872.57355 -261.88324 -309.29415)
(990.33596 -273.51945 -312.46977)
(1111.4949 -285.43178 -313.26538)
(1234.8519 -297.45583 -312.37536)
(1359.5946 -309.85255 -310.28235)
(1485.0738 -322.88275 -307.03385)
(1609.8038 -335.80335 -304.21758)
(1735.9687 -349.67829 -300.85331)
(0 0 0)
(0 0 0)
(0 0 0)
(-6.3273561 2.472039 2.0130499)
(-2.2022153 4.5413399 -9.945553)
(15.182258 -5.1407891 -26.641379)
(38.491392 -9.1024831 -49.066251)
(68.393002 -19.675957 -73.132412)
(109.0556 -34.084578 -98.287513)
(155.09116 -47.536932 -124.6165)
(212.5473 -66.462843 -151.77883)
(277.69278 -85.800946 -177.00632)
(351.09729 -105.91076 -201.95171)
(433.5191 -128.43632 -224.25751)
(522.59464 -150.06266 -244.72922)
(619.4336 -173.30496 -262.09265)
(722.08585 -195.51346 -276.90352)
(830.42276 -217.89614 -288.53612)
(943.2719 -239.4617 -297.2119)
(1059.8181 -260.12102 -303.19141)
(1179.3471 -279.85933 -306.53249)
(1300.7854 -298.30342 -307.80884)
(1423.6668 -315.63453 -307.2843)
(1547.1005 -331.65584 -305.70996)
(1670.7425 -346.86648 -303.05457)
(1793.1865 -360.57649 -300.49206)
(1941.8757 -252.74127 -284.62715)
(1927.6763 -124.99812 -265.86289)
(1939.5907 -4.2307671 -250.35321)
(1835.8652 133.59518 -239.14681)
(1713.1788 148.22441 -243.17174)
(1588.9744 162.18887 -247.18633)
(1464.1821 175.65683 -251.22838)
(1339.3948 188.12077 -254.50704)
(1215.2002 199.06382 -256.42854)
(1092.4271 208.13613 -256.68276)
(972.01807 214.9292 -254.55942)
(854.97406 219.11472 -249.83074)
(742.41461 220.41185 -242.30734)
(635.44667 218.63964 -231.5973)
(535.09227 213.8586 -218.15642)
(442.42307 205.85226 -201.80381)
(358.04907 195.53711 -183.09139)
(283.16965 181.56069 -161.70491)
(217.73865 165.69812 -140.00593)
(161.37382 148.22177 -116.67977)
(114.86407 128.82762 -94.128718)
(79.044729 107.60454 -71.255489)
(49.990745 86.770528 -51.644495)
(31.055535 62.644572 -33.632372)
(17.965111 42.150917 -20.266599)
(16.613055 18.387788 -5.6656545)
(0 0 0)
(0 0 0)
(0 0 0)
(0 0 0)
(0 0 0)
(0 0 0)
(1875.92 -366.83066 -299.2371)
(1891.2008 -369.85534 -299.44763)
(1906.2918 -371.99336 -298.84157)
(1919.2086 128.73274 -237.28932)
(1934.8147 125.86636 -237.78061)
(1950.2884 123.15238 -237.02954)
(-10.571633 -1.7552348 -0.73364602)
(-12.868157 -5.0311912 -6.1968834)
(-4.7812967 -6.4909561 -18.958531)
(9.5571843 -4.1745117 -34.625661)
(33.300435 -1.0944901 -54.66348)
(66.15852 5.4069478 -76.066387)
(109.43635 12.483601 -99.687504)
(162.01468 21.864907 -123.55154)
(225.61506 31.120249 -147.46349)
(299.57256 41.368422 -170.30401)
(383.04236 50.950213 -191.27925)
(475.37887 59.74817 -210.35164)
(575.53054 67.225432 -226.43677)
(682.25284 72.942744 -239.61644)
(794.23088 76.421707 -249.71101)
(909.94976 77.593418 -256.7485)
(1028.6571 76.283047 -261.06483)
(1148.6644 72.310884 -262.70318)
(1269.7111 66.397159 -262.87896)
(1391.0217 57.669684 -261.02101)
(1512.3343 47.134153 -258.84528)
(1633.1803 35.679975 -255.81134)
(1755.3244 22.341043 -253.02997)
(-10.036034 -9.0054023 -7.7341369)
(-9.2971582 -17.852109 -18.248054)
(-2.5361728 -26.211591 -33.096064)
(12.308443 -31.433134 -51.430792)
(35.744307 -36.102805 -72.798117)
(68.024658 -37.750417 -96.036212)
(109.81745 -39.081415 -120.03274)
(161.3233 -38.020561 -144.24384)
(222.95617 -37.284367 -167.43128)
(293.6454 -34.836986 -189.55097)
(373.84769 -32.988431 -209.62698)
(462.54108 -30.974673 -227.36576)
(559.19991 -29.658414 -242.45698)
(662.91545 -29.468563 -254.81994)
(772.60143 -30.46612 -264.46376)
(887.52964 -33.135958 -271.29942)
(1006.426 -37.518093 -275.78552)
(1128.3971 -43.733456 -278.01253)
(1252.6787 -51.945247 -278.43429)
(1377.9695 -61.726455 -277.43093)
(1504.3198 -73.363753 -275.15506)
(1629.9314 -85.755953 -273.07978)
(1754.8112 -99.803562 -269.9013)
(-5.5218747 -16.54652 -13.823823)
(-6.321588 -31.310074 -26.609628)
(1.782106 -46.252332 -42.957455)
(15.19778 -58.593966 -63.933474)
(38.517957 -70.200503 -87.327092)
(69.932759 -80.394535 -111.81539)
(111.02802 -88.759028 -137.2125)
(161.46341 -96.64326 -161.71708)
(221.08204 -103.19131 -185.71385)
(289.92484 -108.94443 -207.89157)
(367.9221 -114.54925 -227.97448)
(454.09638 -119.53856 -245.76395)
(548.51246 -124.95255 -260.88234)
(650.06173 -130.52743 -273.32827)
(758.42563 -136.74958 -282.92633)
(872.56059 -143.85101 -289.86512)
(991.52368 -151.93181 -294.29059)
(1114.6819 -161.23826 -296.34996)
(1240.3484 -171.7797 -296.62146)
(1368.4468 -183.52351 -295.19897)
(1496.6166 -196.48526 -293.1505)
(1625.4993 -210.35591 -290.08176)
(1751.479 -225.17972 -286.8659)
(0 0 0)
(0 0 0)
(0 0 0)
(0 0 0)
(0 0 0)
(0 0 0)
(0 0 0)
(0 0 0)
(0 0 0)
(4.7717171 -5.6474186 -6.4445649)
(2.9417433 -4.1547759 -2.1071799)
(-0.24177142 -1.9099586 1.851991)
(7.7660148 -22.857948 -24.324318)
(7.0007919 -14.089596 -18.70451)
(4.5333207 -8.3865492 -11.575051)
(15.47712 -40.339863 -42.617567)
(17.691704 -30.412565 -34.614046)
(18.454777 -20.222525 -30.594485)
(32.373571 -58.049921 -66.535226)
(38.134329 -43.619369 -59.84859)
(40.688628 -31.09663 -52.811735)
(56.867835 -75.635064 -91.719282)
(63.65245 -59.188032 -83.861988)
(68.072592 -42.128275 -77.995223)
(89.305258 -93.798538 -118.94826)
(99.388784 -75.051388 -111.35646)
(106.45571 -57.454387 -104.40271)
(131.5584 -111.60168 -146.33677)
(143.60717 -93.005128 -139.27263)
(152.21182 -73.353586 -130.66394)
(183.15926 -130.50173 -173.32507)
(195.92318 -109.28721 -165.92157)
(206.29026 -90.801036 -158.72387)
(243.10972 -147.32952 -198.96648)
(257.89733 -128.44819 -192.67474)
(270.47609 -109.91606 -184.1745)
(312.33321 -164.84757 -223.19314)
(328.76692 -146.53651 -216.63814)
(342.0116 -128.60644 -208.98443)
(391.00965 -181.89046 -244.45311)
(407.94544 -165.02608 -238.98776)
(422.658 -148.70963 -231.32277)
(477.14161 -197.94636 -263.40739)
(495.05103 -182.90736 -258.42596)
(510.63105 -168.40525 -251.19453)
(571.57661 -213.97909 -279.07148)
(589.86374 -201.07136 -274.82776)
(606.03281 -188.52144 -268.27782)
(672.62939 -229.11237 -291.67645)
(691.08738 -218.38875 -288.31354)
(707.84556 -208.27099 -282.3674)
(779.93647 -243.99492 -301.17041)
(798.44399 -235.71195 -298.48891)
(815.38587 -227.5603 -293.39912)
(892.40004 -258.38757 -307.62263)
(910.71729 -252.21322 -305.78968)
(927.81971 -246.42637 -301.37405)
(1009.1478 -272.31271 -311.45996)
(1027.1403 -268.42047 -310.19254)
(1044.175 -264.52834 -306.6388)
(1129.1321 -286.11389 -312.75619)
(1146.7659 -284.01051 -312.1926)
(1163.6957 -281.93131 -309.32333)
(1251.5362 -299.54853 -312.3486)
(1268.7324 -299.19855 -312.19672)
(1285.3894 -298.53889 -309.92312)
(1375.439 -312.99438 -310.39482)
(1392.1673 -313.72361 -310.37879)
(1408.5728 -314.32514 -308.85517)
(1499.8448 -326.16968 -307.35077)
(1516.199 -327.97067 -307.94052)
(1532.3258 -329.4302 -306.76393)
(1624.6447 -339.46145 -304.47403)
(1640.6001 -342.02995 -304.65797)
(1656.4598 -344.02967 -303.76319)
(1748.7152 -352.85525 -300.93459)
(1764.6254 -355.61608 -301.0739)
(1780.1495 -357.94923 -300.75693)
(1890.4426 5.2199032 -250.35147)
(1905.8317 2.2114439 -250.58512)
(1920.9948 -0.69829045 -249.98806)
(1882.6296 -116.22033 -265.82679)
(1898.6949 -119.21613 -266.39625)
(1913.7461 -121.97152 -265.96723)
(1892.4495 -243.48854 -284.03192)
(1909.0276 -246.31806 -284.70147)
(1924.3615 -249.45927 -284.32856)
(-2.9157601 0.18148445 6.7341269)
(5.1258545 6.2862155 5.3811835)
(10.075254 12.24797 2.6352218)
(1.2742492 10.46239 1.3987646)
(9.4354852 21.682988 -3.0903844)
(15.923166 29.134464 -11.065777)
(11.344034 20.539624 -10.450864)
(20.470374 35.570524 -15.994602)
(28.493811 47.147965 -24.639615)
(29.538692 33.7199 -26.6787)
(38.925024 51.973016 -32.848206)
(47.592214 66.580021 -42.409163)
(55.206975 49.644084 -45.851903)
(66.355082 68.353805 -54.01784)
(75.332463 86.835503 -62.492497)
(91.436521 65.64712 -68.661122)
(101.83213 87.604585 -74.881298)
(112.21197 106.13004 -85.765309)
(136.05189 82.8633 -91.296766)
(147.62645 103.92071 -98.921517)
(157.88803 124.94387 -108.79992)
(190.74071 100.85352 -115.34031)
(202.07174 123.56356 -122.81541)
(212.84535 143.90472 -132.51438)
(254.24184 119.90415 -138.01926)
(267.37064 139.16262 -146.0851)
(278.85953 159.873 -155.1853)
(329.18975 136.37897 -161.31959)
(341.28191 156.18247 -167.77357)
(352.97659 174.95859 -177.22783)
(411.95966 152.72318 -181.32525)
(424.60869 170.15341 -188.44363)
(436.79045 188.09218 -196.89646)
(503.595 167.09406 -200.06755)
(516.61685 182.3403 -206.46161)
(528.77095 198.3529 -214.01465)
(602.8736 179.0878 -215.85096)
(615.96027 191.75646 -221.57519)
(628.39056 205.75147 -228.38121)
(708.64595 188.32123 -228.75962)
(722.07532 198.39192 -233.85651)
(734.51123 210.28832 -239.80489)
(820.11032 194.47788 -238.70573)
(833.49903 202.1276 -243.15668)
(846.20043 211.70726 -248.0302)
(935.61929 197.54703 -245.65686)
(949.45996 202.66386 -249.2719)
(962.22022 210.13789 -253.3322)
(1054.7676 197.31956 -249.74722)
(1068.5996 200.36412 -252.88908)
(1081.5286 205.74842 -255.92524)
(1175.7853 193.8941 -251.47336)
(1189.823 195.28308 -253.81705)
(1203.1467 198.71189 -255.9911)
(1298.016 188.1383 -250.96377)
(1312.6775 187.62548 -252.8326)
(1326.1871 189.439 -254.29862)
(1421.3076 179.07099 -248.91431)
(1436.0265 177.96863 -250.53219)
(1449.7487 178.23305 -251.13351)
(1544.3274 168.32046 -246.03457)
(1559.2938 166.1355 -246.99276)
(1573.4393 165.52301 -247.14118)
(1667.0648 156.14579 -242.983)
(1682.1664 153.88709 -243.20843)
(1696.8227 151.97949 -243.04076)
(1789.8019 142.26629 -238.94801)
(1804.8741 139.44798 -238.94004)
(1819.9951 137.04347 -239.0603)
(4.9643449 7.8202799 -10.774994)
(10.281299 35.218209 -21.671003)
(21.923371 48.10172 -34.86653)
(40.666512 64.127441 -51.958452)
(69.355532 77.928427 -73.055903)
(105.66652 90.194602 -94.376841)
(151.96841 100.689 -118.2432)
(208.34276 110.10793 -141.92425)
(274.83056 116.18936 -164.54122)
(350.5393 121.70002 -186.65624)
(435.98273 123.54757 -206.58015)
(529.83984 123.40577 -223.74282)
(631.21495 120.89452 -238.48084)
(738.9144 115.9278 -250.02208)
(851.69239 108.77717 -258.44601)
(968.33808 99.692057 -264.01913)
(1087.5462 89.010161 -266.83295)
(1208.494 77.016423 -267.30762)
(1330.1584 64.160616 -266.05215)
(1452.0296 50.68219 -263.36796)
(1573.724 36.94896 -259.90096)
(1694.7341 23.151008 -256.35607)
(1815.0773 9.4946073 -252.43998)
(-2.6261296 5.6798754 -6.3826107)
(1.9087092 25.606064 -19.608558)
(15.606726 29.371124 -32.392357)
(36.634886 40.41818 -52.587859)
(66.649005 44.739514 -73.099016)
(104.25562 48.525326 -97.027096)
(151.9126 50.820771 -121.33396)
(208.68506 50.717555 -145.90798)
(274.76525 48.094223 -169.41051)
(349.6248 45.323942 -192.31514)
(433.43414 38.947051 -212.21319)
(524.55629 32.12415 -230.32377)
(623.16401 23.14353 -245.3436)
(727.60542 13.035454 -257.40603)
(837.54376 1.4951235 -266.54488)
(951.72982 -10.994738 -272.89563)
(1069.4649 -24.3773 -276.55481)
(1189.8831 -38.517663 -278.11686)
(1312.2813 -52.858052 -277.87707)
(1435.7339 -67.762385 -276.19601)
(1560.4819 -82.394686 -274.14491)
(1684.3919 -96.957235 -271.26476)
(1812.4357 -111.92957 -269.29517)
(-5.9616049 4.0450054 -6.4829525)
(-1.5481176 13.205935 -17.639868)
(14.687436 17.034753 -33.119564)
(37.214419 15.247902 -52.438516)
(66.978118 14.595003 -75.261565)
(105.6217 10.307781 -99.30465)
(153.19934 3.0989962 -123.72995)
(208.76578 -4.6561565 -148.43623)
(274.13975 -15.296297 -172.2339)
(346.94715 -26.912179 -194.52337)
(428.57054 -40.417109 -215.03643)
(517.37253 -54.73621 -233.50332)
(613.69289 -70.201567 -249.4149)
(716.47143 -86.625922 -262.85056)
(825.20434 -103.46994 -273.77758)
(939.15947 -120.89978 -281.98638)
(1057.4553 -138.44735 -287.85787)
(1179.4712 -156.04312 -291.42256)
(1303.9714 -173.33599 -292.93118)
(1430.6409 -190.40699 -292.97391)
(1557.8517 -206.63838 -291.44849)
(1685.7591 -222.64737 -289.55997)
(1813.8957 -238.03606 -286.62815)
(-4.1432495 2.1627038 1.653715)
(-0.84164712 3.3403454 0.57449313)
(2.8613526 6.6629297 -0.82350985)
(-2.4358442 3.0583024 -6.8588721)
(2.8941392 12.731626 -9.287486)
(8.9289425 17.985398 -16.036253)
(7.178342 8.5847754 -19.660071)
(14.934449 20.130833 -24.360241)
(21.068566 33.292597 -28.88331)
(23.263055 13.336887 -37.51709)
(32.187517 29.287307 -41.931752)
(39.058999 43.332134 -46.62852)
(49.042801 19.842187 -57.863156)
(58.500812 38.0704 -62.189029)
(66.767096 56.31413 -67.861759)
(82.801075 27.319044 -80.412977)
(93.475108 47.655322 -85.38107)
(103.07138 66.633886 -90.342517)
(127.03469 36.234487 -104.47891)
(138.62011 56.56563 -109.51795)
(148.37297 77.047769 -114.13496)
(180.42093 45.00995 -128.99089)
(192.59236 65.585245 -133.42493)
(203.93176 86.315684 -138.87596)
(244.75131 53.770773 -153.14103)
(258.19044 73.903724 -157.98486)
(269.55051 94.262117 -161.88543)
(318.85625 62.451236 -176.17689)
(332.37961 81.106489 -180.30969)
(344.40045 100.27083 -184.42741)
(402.20397 70.312994 -197.16188)
(416.4163 87.006762 -201.15308)
(429.02974 105.05212 -204.99633)
(494.47864 76.595012 -216.18485)
(509.08953 91.392803 -219.52721)
(521.9086 107.19292 -222.60536)
(594.40589 81.417066 -231.96118)
(609.22687 93.700303 -234.84384)
(622.36322 107.41633 -237.58063)
(700.80626 84.170754 -244.83948)
(715.84152 94.043717 -247.2208)
(729.11229 105.38458 -249.49466)
(812.40293 84.742123 -254.45468)
(827.48689 92.231691 -256.29665)
(840.90123 101.121 -258.11106)
(927.88659 83.117034 -260.97253)
(943.06276 88.19457 -262.37778)
(956.57918 94.813119 -263.86132)
(1046.1375 79.133833 -264.71064)
(1061.2896 82.306013 -265.72348)
(1074.9135 86.65213 -266.7567)
(1166.0002 73.061521 -265.83172)
(1181.113 74.382388 -266.49245)
(1194.9099 76.813507 -267.28252)
(1286.6828 65.35711 -265.21185)
(1301.9391 64.897994 -265.59634)
(1315.9715 65.682996 -266.06793)
(1407.8527 54.977468 -262.98473)
(1422.9056 53.935417 -262.99405)
(1436.9827 53.497273 -263.38321)
(1528.6025 44.070465 -259.9436)
(1544.23 42.293398 -259.80557)
(1558.4226 40.507551 -259.86395)
(1649.4768 31.655725 -256.42682)
(1664.5526 29.396299 -256.35024)
(1679.1276 26.827079 -256.36517)
(1770.0698 18.79038 -252.93445)
(1785.2477 15.993398 -252.93025)
(1800.3626 13.215227 -252.70467)
(-6.1853817 -2.2537003 -2.7042218)
(-3.6760138 -0.20898209 -1.0059317)
(-1.0309413 2.838245 -1.0710367)
(-2.1478732 -7.3563353 -15.119174)
(1.9736955 1.6489697 -14.079509)
(5.6259713 8.548599 -16.412949)
(6.516911 -9.9981244 -30.806149)
(13.532036 0.7927753 -30.50805)
(16.686355 15.664084 -30.496896)
(24.672299 -13.191918 -50.165547)
(31.635099 4.4248925 -49.305499)
(37.203186 19.660239 -50.143274)
(48.480851 -13.967248 -72.266958)
(58.8112 3.5367633 -71.843778)
(65.216301 22.830934 -72.383562)
(83.438043 -14.972553 -96.564971)
(94.318458 5.2897702 -95.927607)
(101.74686 25.586702 -96.401739)
(126.34206 -15.179675 -121.06378)
(139.01708 4.8175607 -120.23597)
(147.74549 26.457641 -121.11269)
(179.33292 -14.960429 -146.27581)
(193.13674 5.6326435 -145.58158)
(202.62342 27.427629 -146.49324)
(241.88129 -14.491913 -169.91233)
(256.84592 4.5440709 -169.20987)
(267.28993 25.665411 -170.20401)
(313.58995 -14.112051 -192.70262)
(329.1442 3.8197858 -191.99789)
(340.38802 24.05002 -193.18842)
(394.47758 -14.348064 -213.08948)
(410.59113 1.9108504 -212.29999)
(422.63666 20.454356 -213.66675)
(483.5003 -14.823702 -231.07539)
(499.97602 -0.83452671 -230.45029)
(512.57574 15.621679 -231.74078)
(580.17357 -16.333262 -246.25295)
(596.8033 -4.7247928 -245.63538)
(609.91317 9.6837479 -247.03936)
(683.61234 -18.972883 -258.49879)
(700.1095 -9.607973 -257.96094)
(713.70721 2.252505 -259.20509)
(792.76824 -22.777773 -267.86811)
(809.07148 -15.88397 -267.41942)
(823.053 -6.4264863 -268.49499)
(906.8293 -28.128518 -274.34834)
(922.80498 -23.28974 -273.92305)
(937.16606 -16.336929 -274.85109)
(1024.68 -34.843387 -278.29747)
(1040.3985 -32.074858 -277.98575)
(1054.9448 -27.391733 -278.56777)
(1145.4844 -43.250204 -279.95999)
(1160.8818 -42.176706 -279.56872)
(1175.6771 -39.446286 -280.03215)
(1268.4119 -52.86578 -279.77035)
(1283.6351 -53.070896 -279.59491)
(1298.637 -52.342184 -279.67992)
(1392.7072 -64.191398 -278.23959)
(1407.5136 -65.788052 -277.88881)
(1422.6905 -65.865558 -277.75614)
(1516.7203 -75.976306 -275.20658)
(1534.0971 -78.648693 -275.927)
(1547.9757 -79.947443 -275.42624)
(1642.034 -89.191047 -273.09064)
(1657.3517 -91.538314 -272.57043)
(1672.484 -94.137107 -272.49427)
(1767.6215 -103.21947 -269.61871)
(1782.9087 -106.00448 -269.51597)
(1798.2872 -108.72466 -269.39337)
(-3.0476849 -5.1739661 -5.6932991)
(-2.1336965 -3.6145808 -3.3571984)
(-2.3230107 -0.4733821 -2.012165)
(0.20436395 -17.77518 -20.285171)
(2.940053 -11.036571 -17.065099)
(2.0642704 -1.3904707 -16.132127)
(10.134018 -27.297663 -36.881234)
(14.933512 -13.769399 -34.476037)
(14.888212 0.57877384 -32.226683)
(26.344113 -36.601693 -58.499348)
(32.872214 -21.698243 -55.20316)
(36.878707 -5.2704337 -53.01976)
(51.6331 -45.982055 -82.399785)
(60.437759 -28.122237 -79.641079)
(65.264138 -8.9394578 -76.289147)
(85.367814 -54.955417 -107.58673)
(95.468154 -35.805699 -103.68304)
(102.63045 -14.489129 -101.03554)
(128.10555 -63.456104 -133.49674)
(139.89803 -43.225786 -129.96811)
(148.93415 -21.766452 -127.05175)
(180.30014 -71.654409 -158.71728)
(192.8301 -51.60379 -155.4062)
(203.68893 -30.32965 -151.88583)
(241.13805 -79.737558 -183.36203)
(255.13136 -60.480166 -179.67385)
(267.28893 -39.243761 -176.48754)
(311.17075 -87.737043 -206.0971)
(325.58782 -69.122193 -202.71673)
(339.29336 -49.678931 -199.33579)
(389.59826 -95.556844 -226.73239)
(404.96953 -78.951539 -223.35317)
(419.65372 -60.968731 -220.20411)
(476.2136 -103.60281 -245.06633)
(491.83837 -88.769607 -241.92182)
(507.5597 -73.033676 -238.86442)
(570.51421 -112.04926 -260.57462)
(586.57238 -99.248182 -257.57869)
(602.74295 -85.697325 -254.7527)
(671.73645 -120.73985 -273.38349)
(687.91807 -110.20525 -270.6747)
(704.66115 -99.261376 -268.03892)
(779.37229 -130.05323 -283.24872)
(795.70435 -121.70025 -280.76368)
(812.51199 -113.22183 -278.50002)
(892.55373 -139.94613 -290.36384)
(908.87143 -133.8534 -288.1786)
(925.87704 -127.7912 -286.23819)
(1010.4606 -150.62452 -294.84783)
(1026.7997 -146.56607 -292.98737)
(1043.5385 -142.70412 -291.41945)
(1132.3272 -161.95762 -296.96973)
(1148.4949 -159.7243 -295.40334)
(1165.2233 -157.86731 -294.23379)
(1256.9132 -174.18312 -297.08507)
(1272.9848 -173.49843 -295.91137)
(1289.456 -173.2988 -295.08411)
(1383.659 -186.91357 -295.61288)
(1399.9534 -187.67655 -294.77943)
(1415.9105 -188.7106 -294.28136)
(1511.3596 -200.51922 -293.31667)
(1526.8206 -201.9315 -292.61833)
(1543.0665 -203.86725 -292.343)
(1639.4074 -214.56226 -290.05249)
(1655.4697 -216.74498 -289.903)
(1671.1217 -219.245 -289.75167)
(1766.7948 -228.9179 -286.94466)
(1782.4682 -231.7255 -286.74017)
(1797.9953 -234.55599 -286.90584)
)
;

boundaryField
{
    free
    {
        type            zeroGradient;
    }
    fixed
    {
        type            fixedValue;
        value           uniform (0 0 0);
    }
    traction
    {
        type            zeroGradient;
    }
}


// ************************************************************************* //
