/*--------------------------------*- C++ -*----------------------------------*\
  =========                 |
  \\      /  F ield         | OpenFOAM: The Open Source CFD Toolbox
   \\    /   O peration     | Website:  https://openfoam.org
    \\  /    A nd           | Version:  6
     \\/     M anipulation  |
\*---------------------------------------------------------------------------*/
FoamFile
{
    version     2.0;
    format      ascii;
    class       pointScalarField;
    location    "0.77";
    object      E;
}
// * * * * * * * * * * * * * * * * * * * * * * * * * * * * * * * * * * * * * //

dimensions      [1 -1 -2 0 0 0 0];

internalField   nonuniform List<scalar> 
625
(
65243.977
72079.636
-925073.39
-420825.26
64204.96
69849.872
-633890.75
-1377788.4
19312.414
7547.2765
40673.209
-497658.37
-486051.31
-361291.44
87026.962
76690.559
69451.871
61822.885
51398.578
43594.251
35612.719
28251.075
22609.154
16952.416
13071.238
8940.309
5830.0013
3382.3058
1383.0792
-342.26436
-766.95312
-1738.4352
-1661.1759
-2275.8811
-2279.8421
-2679.9563
-495.5733
79226.947
54752.626
58923.166
48823.443
42484.265
36626.793
27239
23403.881
17949.596
12901.093
10447.972
6255.1174
4221.3965
1825.3486
292.783
-1285.7355
-1958.8602
-2909.5759
-2410.199
-3773.0616
-1689.3603
-2755.7988
-1191.1751
17976.108
5265.5753
37451.171
119621.45
119305.35
78614.375
84299.388
72162.671
44918.544
47844.733
32395.382
28839.994
22412.78
15340.585
11816.451
6612.6733
3547.3935
511.62995
-1959.6372
-3791.1524
-5285.3752
-6737.5172
-7409.0927
-8054.4998
-8572.8459
-13720.665
-948524.34
-1045704.7
-1013029.4
-8069.4133
-7187.5379
-5051.9139
-5558.9989
-5616.4652
-5345.7728
-5290.8171
-4046.6911
-2923.7275
-575.75739
1386.4866
5548.5473
8759.7556
15310.974
20916.856
24420.77
35181.435
41888.772
53022.838
60351.913
74386.831
77252.302
89643.312
57948.604
57202.787
57796.684
56106.214
54123.929
56103.555
-474901.76
-474694.81
-475982.79
-1037442.2
-1038703.2
-1039062.2
37608.578
29452.061
29871.287
24529.945
21166.029
17788.283
14037.163
11037.685
9085.6842
6450.4748
4749.592
3104.1259
1903.4868
1269.8405
316.87645
196.14506
-113.0255
-300.74693
617.47385
266.85022
1626.5201
2397.4334
5973.4475
12201.587
10078.527
12949.429
10687.834
10915.722
11197.62
8982.3948
9798.6546
8030.902
7560.5497
7214.6505
6481.5752
6071.2899
5569.2212
5105.747
4863.0378
4616.4172
4522.743
4534.1457
3881.5022
5739.6023
3778.6635
8714.7369
25285.906
24937.937
23922.793
20943.201
20303.326
18053.89
15028.35
13767.435
10858.186
10088.971
7426.288
6544.5593
5043.1767
4235.1613
3239.9139
3016.0772
2254.8233
2575.5702
1836.179
3238.3525
2051.4788
4217.3854
5487.8486
12778.737
13563.576
12867.582
4409.5666
3848.144
6318.3273
19004.21
21018.511
21700.158
96463.774
97340.085
104816.81
105830.01
101325.35
99415.815
72083.041
66931.183
72295.2
67377.013
71922.55
71613.564
56948.592
50956.611
57288.113
47767.784
44946.153
45414.36
40632.24
37328.571
43610.663
33644.138
25927.735
31036.904
28260.449
22800.798
26726.578
24326.861
14887.416
20273.044
18476.564
11448.086
15492.656
15294.222
7354.8253
11578.559
11298.621
3740.8615
8022.0137
8600.1869
1250.1613
5073.8058
5987.868
-1179.1654
2695.8275
3886.2784
-2793.6093
728.89085
2057.5491
-4086.934
-885.11334
709.73086
-4999.7727
-2060.2727
-497.99336
-5420.0141
-3048.771
-1728.3213
-6143.9191
-4038.2539
-2019.4947
-5512.0617
-4099.5592
-2377.1657
-4940.1239
-4315.3153
-5445.4127
-7303.4626
-5719.7375
-671452.4
-669460.62
-670012.37
-595196.41
-654324.26
-654090.89
-685273.92
-632659.49
-632914.58
87701.798
77782.121
77482.946
84281.494
79490.189
82554.545
75829.426
69596.026
68265.449
65009.797
59026.029
60648.593
54206.443
53183.502
51774.69
45650.222
41973.896
41657.121
37550.495
35869.624
36014.646
31345.253
28529.526
28951.906
24343.815
22402.97
22031.616
17826.47
18673.024
16849.072
14680.169
13764.185
12731.944
10244.435
9440.3513
8854.2455
6902.2594
6484.3702
5874.144
4435.3996
3879.9417
3230.6303
1941.8384
1682.9601
1326.7854
488.96918
252.41286
-277.06544
-647.68989
-963.60701
-1196.9096
-1359.4225
-1534.3593
-1971.9696
-1657.5193
-1722.9851
-2080.792
-1689.6934
-1851.9184
-2262.4327
-1474.4812
-2081.1002
-2101.2376
-5233.6519
-4839.281
-4376.5196
-4898.558
-6499.0944
-6565.4737
56410.836
52291.649
48406.786
41116.664
39270.091
31276.04
29231.359
24426.88
19080.38
18321.694
14784.875
11737.99
9695.2882
7715.087
5970.1631
4690.868
3330.1365
2708.1244
1656.6616
1355.9008
1508.5809
1951.6292
6401.9765
7253.7151
24313.158
7731.2403
16024.676
11385.847
9398.1691
10256.502
7601.6277
8154.5309
6374.5798
6175.5185
5296.2966
5049.6487
4734.5523
4464.75
4405.6512
4496.3326
4714.5094
4973.9006
5570.6555
6591.8375
5054.6784
10203.474
41833.305
18884.619
23605.258
25744.354
18504.738
18507.765
15140.837
12971.398
8683.1368
7144.77
5281.201
3588.8788
2534.5931
1562.6787
853.07263
490.20186
382.11931
363.98578
733.57162
1440.3027
1313.0379
3875.6078
2392.9175
48284.443
43306.33
43463.602
43223.317
43545.769
41798.325
39094.266
39268.91
37207.876
33484.888
31610.355
31881.826
29669.833
30163.451
29201.259
25494.51
23634.802
23607.781
21945.74
21443.103
21047.128
18228.891
17916.869
17247.776
15072.907
14754.907
14412.656
12755.338
11673.393
11872.588
10578.139
10038.809
9900.9774
8481.6256
8139.4414
7639.8425
6865.4425
6544.5117
6161.9465
5560.1764
5104.5868
4795.8383
4215.8687
4035.6515
3761.3232
3662.3686
3194.5185
2798.9642
2469.258
2328.5786
2228.4773
2404.5555
2050.5515
1551.4452
1700.4218
1216.5429
1487.3263
1105.4242
856.38062
795.00592
2343.3252
1443.481
1718.233
2659.2998
3484.1548
2799.038
7295.8617
5565.968
6716.7991
11082.692
9911.5711
7374.7311
17737.494
23766.355
23283.26
11296.22
8722.8834
7718.6634
11716.713
13773.378
14777.68
10525.274
9852.4588
10270.839
10309.146
8070.0696
8648.1859
7939.884
7817.0051
8993.4176
8387.2611
5877.7318
6129.0883
6950.2859
5005.0289
6570.9785
6352.3981
4584.5378
5243.1147
5692.661
3743.8623
4630.6905
4976.3823
3264.254
4035.5377
4716.5396
2791.9228
3464.0643
4236.9874
2466.9814
3196.1789
4080.4842
2298.5263
2899.7187
3913.7899
2339.7692
2824.8045
3899.5993
2353.9282
2708.2612
4081.9455
2646.456
3004.7451
4105.1589
3128.3719
3140.1181
4121.6484
3753.175
3445.9252
6086.8009
4243.946
5417.072
3723.7437
3355.9449
2275.4104
8586.1628
7705.0881
7839.8462
29960.834
32523.347
35735.076
23754.472
24963.456
30460.229
22693.611
29723.934
29424.079
21574.615
25162.274
26653.908
18459.93
23061.159
22778.8
14301.569
20249.372
20842.659
12914.079
16621.38
15872.58
9107.6966
14465.806
15372.886
7134.2273
12399.917
12061.424
5310.7486
10320.525
10056.185
3639.2205
8207.5671
8004.1125
2659.9342
6858.8681
6547.6932
1277.1446
5524.9386
5227.5374
703.9131
4553.5329
4169.0267
25.658843
3633.4064
3552.553
-158.76542
3340.0336
2905.7621
-291.39587
2435.8751
2601.7734
-134.71796
3022.2
2830.1883
107.99705
2040.0684
2303.0834
1058.8484
3867.4214
3781.052
180.63102
1882.9989
2074.3195
2512.1084
4960.2337
5549.2181
3203.1479
3599.2296
2717.7303
)
;

boundaryField
{
    free
    {
        type            zeroGradient;
    }
    fixed
    {
        type            zeroGradient;
    }
    traction
    {
        type            zeroGradient;
    }
}


// ************************************************************************* //
