/*--------------------------------*- C++ -*----------------------------------*\
  =========                 |
  \\      /  F ield         | OpenFOAM: The Open Source CFD Toolbox
   \\    /   O peration     | Website:  https://openfoam.org
    \\  /    A nd           | Version:  6
     \\/     M anipulation  |
\*---------------------------------------------------------------------------*/
FoamFile
{
    version     2.0;
    format      ascii;
    class       pointVectorField;
    location    "1.39";
    object      lm;
}
// * * * * * * * * * * * * * * * * * * * * * * * * * * * * * * * * * * * * * //

dimensions      [1 -2 -1 0 0 0 0];

internalField   nonuniform List<vector> 
625
(
(0 0 0)
(0 0 0)
(-5113.1234 649.961 -484.87434)
(-5000.4527 1848.08 -33.54785)
(0 0 0)
(0 0 0)
(-5392.7252 2091.5666 -28.77698)
(-5485.9436 881.91609 -480.78476)
(0 0 0)
(0 0 0)
(0 0 0)
(-4701.7863 865.78011 -348.56502)
(-4793.8603 1166.8258 -252.15603)
(-5129.1378 1567.0183 -154.51041)
(-0.37712752 -45.601382 -55.901902)
(-22.874192 -96.494121 -69.94538)
(-77.34355 -143.99614 -85.234509)
(-162.99184 -189.20163 -95.653882)
(-271.56293 -227.20448 -108.6505)
(-414.03166 -260.54787 -119.84516)
(-581.38675 -285.53567 -133.15857)
(-778.20671 -302.46318 -145.78549)
(-1002.7924 -310.21117 -161.31472)
(-1252.9587 -306.94881 -175.43338)
(-1526.9979 -291.99037 -192.49443)
(-1818.4171 -264.56773 -210.06293)
(-2122.2502 -224.65424 -229.24621)
(-2431.4073 -173.24643 -249.78157)
(-2739.1308 -111.38559 -271.58293)
(-3038.6072 -40.532835 -294.54068)
(-3325.3264 36.166776 -317.46912)
(-3595.0371 118.9803 -341.3751)
(-3846.5066 203.29857 -363.57047)
(-4081.1656 288.3724 -386.2571)
(-4301.3571 374.94058 -407.6986)
(-4508.5135 458.93628 -427.61248)
(-4710.8269 542.25414 -447.44722)
(20.774175 45.424842 72.796532)
(-3.4174126 91.988975 80.373672)
(-48.586999 148.09942 101.86981)
(-117.43655 200.25681 113.00822)
(-205.99017 249.22141 125.06577)
(-320.65092 308.73632 135.60557)
(-450.03321 362.22689 146.76533)
(-604.57287 423.70774 155.26036)
(-778.0873 488.86673 163.48479)
(-974.54485 556.87179 168.98943)
(-1192.3251 632.32053 172.87721)
(-1432.6022 711.44027 173.61198)
(-1694.191 796.99208 171.67129)
(-1975.4643 887.26844 166.18791)
(-2274.1035 982.16287 157.35428)
(-2586.2687 1080.9674 144.84565)
(-2907.1807 1181.9886 128.94974)
(-3231.3664 1283.624 109.99843)
(-3552.0007 1384.7552 88.247582)
(-3863.7754 1482.0349 65.11787)
(-4160.3748 1576.2022 40.050355)
(-4437.5472 1663.6671 15.561846)
(-4717.1875 1754.5307 -9.6863811)
(0 0 0)
(0 0 0)
(0 0 0)
(-15.210146 27.325177 -33.311855)
(-62.106034 113.57669 -24.12258)
(-141.50702 148.5253 2.9549153)
(-234.74994 209.04582 24.469329)
(-354.93665 279.66489 38.965714)
(-491.47376 334.22425 60.833193)
(-647.65808 407.5788 74.534402)
(-825.21399 480.25223 92.753294)
(-1024.3791 561.78083 106.02773)
(-1243.9049 647.12932 118.81485)
(-1485.3622 738.34552 130.2124)
(-1747.0239 836.57743 138.53567)
(-2028.255 939.02911 143.9918)
(-2326.1606 1046.7312 146.17529)
(-2638.3282 1158.1241 144.11778)
(-2960.2431 1271.4926 138.01908)
(-3287.0727 1385.6477 127.62417)
(-3613.4575 1498.0694 113.01783)
(-3933.0374 1606.7953 94.735732)
(-4240.6486 1710.098 73.136412)
(-4531.0775 1805.9074 49.352122)
(-4800.956 1894.1565 23.558294)
(-5022.0052 1962.6378 -2.2141038)
(-5554.2941 1822.3017 -149.95026)
(-5095.4719 1375.1951 -243.97207)
(-5165.4732 1108.9855 -351.6762)
(-5111.0225 773.55962 -447.00644)
(-4933.5088 693.50816 -429.18381)
(-4715.9806 606.83812 -406.96927)
(-4483.7778 516.28581 -382.71997)
(-4233.6576 423.01575 -356.86836)
(-3964.4126 329.02908 -329.50731)
(-3676.3996 234.99868 -301.12664)
(-3371.954 144.138 -272.39058)
(-3055.1637 58.197025 -243.68479)
(-2731.149 -20.270627 -215.36278)
(-2406.2331 -88.960819 -188.18673)
(-2087.0942 -146.72641 -162.04382)
(-1779.6111 -191.59782 -137.65915)
(-1489.8516 -225.03399 -114.70731)
(-1230.7111 -244.90194 -95.927981)
(-977.92708 -250.97284 -75.097686)
(-760.78744 -249.44216 -57.79179)
(-571.61327 -235.06755 -42.687371)
(-409.01159 -212.15237 -26.435442)
(-270.54942 -180.97206 -13.510975)
(-160.21871 -144.30942 4.4888229)
(-76.179395 -94.69803 15.117089)
(-36.253222 -46.730406 21.687452)
(0 0 0)
(0 0 0)
(0 0 0)
(0 0 0)
(0 0 0)
(0 0 0)
(-5098.2555 1908.2923 -32.528973)
(-5196.2917 1969.2735 -31.23605)
(-5293.836 2029.2326 -29.902102)
(-5206.106 709.26921 -483.34016)
(-5299.7053 766.16263 -481.32969)
(-5393.5574 823.53043 -481.76537)
(20.81604 -28.288346 -33.517627)
(4.0834669 -57.296075 -34.670639)
(-42.171582 -83.699912 -42.518988)
(-112.69614 -108.90302 -49.180761)
(-216.19575 -129.96285 -55.485216)
(-352.28608 -144.64767 -63.63808)
(-519.50357 -151.04858 -69.584853)
(-720.51657 -148.39584 -77.913514)
(-951.18856 -133.35679 -85.234194)
(-1208.216 -105.50065 -94.002841)
(-1485.0228 -65.514022 -103.63139)
(-1773.0573 -13.354133 -114.64617)
(-2065.1188 48.547292 -127.41377)
(-2352.7809 118.06891 -141.99644)
(-2629.9825 192.61701 -158.26713)
(-2892.697 269.44508 -176.03198)
(-3139.9417 346.96346 -195.11096)
(-3372.3609 423.58387 -215.42418)
(-3593.5917 498.18779 -235.82226)
(-3809.5778 572.40077 -258.00324)
(-4026.1731 645.44738 -279.66715)
(-4248.3079 718.8194 -302.84434)
(-4504.7459 797.58329 -327.86296)
(37.802894 -5.8754103 -3.0668431)
(7.9033627 -7.3653997 3.6735501)
(-42.762356 -9.0761926 1.5349062)
(-128.81788 -8.627087 3.0888464)
(-243.18633 2.1922188 3.6029743)
(-381.97525 14.65184 4.9130302)
(-544.91802 35.687527 5.2681019)
(-726.78622 63.424682 4.4184274)
(-924.06943 97.471831 2.7123952)
(-1134.6257 137.57665 -0.87902905)
(-1354.0749 183.47135 -6.4470643)
(-1581.4262 234.40855 -14.004459)
(-1814.6156 290.07701 -23.761887)
(-2053.7571 349.90057 -35.744879)
(-2299.4441 414.0967 -49.801672)
(-2553.3362 482.71062 -66.297508)
(-2817.3425 556.15694 -84.87503)
(-3093.0884 634.84788 -105.61696)
(-3382.9562 719.27451 -128.41492)
(-3686.1164 809.65558 -153.23425)
(-4004.5702 905.84335 -179.10764)
(-4334.1088 1006.5956 -206.63611)
(-4646.8737 1106.8462 -233.39056)
(39.54029 32.752515 34.436672)
(3.398134 58.334734 47.048831)
(-52.983141 84.604812 58.321805)
(-146.22594 117.73909 67.192546)
(-259.06972 154.87816 75.778447)
(-391.70394 187.74088 81.488383)
(-540.18638 229.83445 85.029181)
(-698.84313 268.30486 87.245719)
(-869.96995 310.65081 87.193686)
(-1050.7578 355.37293 85.108506)
(-1243.7086 402.28428 81.615236)
(-1449.954 453.95374 76.163978)
(-1672.3085 510.01015 69.128787)
(-1913.0872 572.39944 60.195512)
(-2174.2455 641.95945 49.00861)
(-2457.02 719.31103 35.501523)
(-2760.6407 805.34761 19.196953)
(-3084.0525 899.85324 0.078778561)
(-3422.7127 1002.0684 -21.734424)
(-3772.6352 1111.4532 -46.330079)
(-4126.6603 1225.2243 -72.289471)
(-4478.5851 1341.8098 -100.13886)
(-4786.958 1448.9696 -126.93048)
(0 0 0)
(0 0 0)
(0 0 0)
(0 0 0)
(0 0 0)
(0 0 0)
(0 0 0)
(0 0 0)
(0 0 0)
(-9.8774764 14.857798 38.376935)
(-21.842266 23.623475 20.003396)
(-25.763642 21.127188 -3.3598409)
(-45.129652 97.650545 59.668897)
(-61.21755 106.02113 35.081344)
(-69.693251 112.94514 2.993248)
(-90.210362 141.6703 77.897654)
(-118.64705 147.32138 53.365637)
(-138.19159 167.81587 24.643285)
(-163.43063 198.20112 90.304178)
(-199.92361 212.73446 69.842728)
(-221.88746 219.76042 44.856826)
(-261.59123 257.55804 105.66242)
(-301.56301 268.52209 86.845914)
(-333.36381 286.40062 61.691681)
(-375.57857 312.25389 118.86055)
(-424.58097 328.73874 100.63812)
(-462.12282 342.13638 78.611327)
(-514.6934 375.0411 130.36382)
(-566.88925 393.55107 116.43827)
(-611.57303 413.91168 93.491109)
(-672.53416 439.23709 142.34954)
(-730.07246 457.04651 128.06352)
(-780.14626 479.45456 109.2937)
(-851.14916 507.4238 151.24946)
(-913.44489 531.72272 139.44363)
(-969.48863 555.43783 121.74368)
(-1052.0067 581.80067 159.1563)
(-1119.4112 607.67083 148.93535)
(-1181.8172 636.30888 132.88223)
(-1274.6101 660.4887 164.57113)
(-1346.8936 691.10008 155.79034)
(-1414.0569 721.88019 142.36447)
(-1519.081 745.67484 167.26142)
(-1595.3282 778.94657 160.43097)
(-1668.0022 813.65765 148.8422)
(-1784.1109 835.20975 167.19973)
(-1864.7387 872.2139 161.70199)
(-1941.9209 910.8061 152.36814)
(-2068.0547 929.95116 163.44682)
(-2152.3632 970.67021 159.6522)
(-2233.9423 1012.8408 152.62981)
(-2368.548 1028.9214 156.23458)
(-2456.2472 1073.1957 153.99749)
(-2541.6948 1119.1936 148.947)
(-2681.3709 1130.9422 145.22477)
(-2772.2062 1178.7484 144.51805)
(-2861.1745 1228.3601 141.26122)
(-3002.3699 1234.6636 130.6323)
(-3095.6333 1286.0023 131.07151)
(-3187.5839 1338.7759 129.60584)
(-3325.3848 1338.5218 112.47696)
(-3420.9386 1392.8506 114.2423)
(-3515.3386 1448.5429 113.95119)
(-3644.9136 1440.539 91.7405)
(-3741.968 1497.7059 94.056686)
(-3838.1334 1555.3796 94.756976)
(-3954.7198 1539.1238 68.582777)
(-4052.5965 1598.0759 71.078182)
(-4150.1282 1657.5094 72.579478)
(-4248.9688 1632.5594 43.655733)
(-4347.6246 1693.1343 46.615904)
(-4445.8468 1753.2979 48.405954)
(-4524.8479 1720.2337 18.561617)
(-4623.2694 1781.5773 20.96933)
(-4721.4035 1841.9161 22.421094)
(-4779.413 1801.5782 -7.3156143)
(-4876.9988 1862.2442 -5.2122799)
(-4974.7955 1922.2972 -3.9197334)
(-4825.4223 928.54674 -349.34256)
(-4913.4715 982.85327 -347.72861)
(-5001.8107 1037.5135 -347.60889)
(-4832.9972 1210.9664 -247.6553)
(-4938.5908 1270.1466 -246.71721)
(-5027.9904 1325.2873 -246.18238)
(-5191.2992 1617.9385 -151.99084)
(-5310.9705 1684.9852 -151.13287)
(-5409.3523 1746.121 -149.8916)
(-25.325329 -32.276016 -32.392302)
(-33.285608 -41.986491 -20.22258)
(-42.04154 -47.501551 -1.8814359)
(-53.365953 -86.77145 -47.284026)
(-73.054226 -94.094404 -25.193936)
(-83.248741 -98.116852 -3.0140206)
(-119.47175 -136.31831 -59.782499)
(-139.84273 -140.00131 -42.15563)
(-158.74482 -147.26957 -16.593371)
(-204.17015 -177.9659 -71.701285)
(-235.81922 -182.03133 -52.478413)
(-259.91493 -186.81996 -30.336452)
(-323.63408 -216.72454 -85.062569)
(-362.01537 -216.62763 -64.88678)
(-391.48294 -218.84217 -44.452882)
(-469.71027 -245.69851 -96.194187)
(-510.60941 -243.19604 -79.930957)
(-549.8044 -244.93477 -57.831589)
(-641.09666 -267.83702 -110.23807)
(-690.23169 -262.97142 -92.664299)
(-733.87695 -260.95683 -73.155053)
(-842.72442 -281.66251 -123.75585)
(-896.95179 -273.98208 -107.75802)
(-947.96886 -268.93973 -89.363989)
(-1071.9503 -287.00145 -140.29417)
(-1129.0456 -272.00032 -123.70252)
(-1185.0713 -263.62734 -106.81626)
(-1321.4224 -277.6337 -154.91257)
(-1393.1615 -262.1523 -142.75229)
(-1451.3757 -248.53534 -126.09639)
(-1599.5888 -259.65975 -173.71853)
(-1669.892 -238.56472 -160.6221)
(-1737.9128 -221.3419 -147.13049)
(-1893.3064 -228.55588 -192.77258)
(-1968.5424 -202.22112 -181.58628)
(-2041.4474 -179.90959 -170.27411)
(-2199.2851 -184.77026 -213.6015)
(-2278.6062 -153.52276 -203.93116)
(-2355.7224 -126.43205 -194.53056)
(-2510.8665 -129.59665 -235.74195)
(-2593.7899 -93.576603 -227.66687)
(-2674.6636 -61.690852 -220.25496)
(-2821.4947 -63.892778 -259.25375)
(-2907.274 -23.490917 -252.47824)
(-2991.3894 13.095985 -246.97486)
(-3124.489 10.082539 -283.49096)
(-3212.7965 54.597913 -278.23471)
(-3299.4129 95.260282 -274.27522)
(-3415.3918 90.406282 -308.61739)
(-3505.2138 138.37238 -304.2926)
(-3593.9042 182.84254 -301.66415)
(-3689.5356 175.47606 -333.54211)
(-3780.5478 225.82893 -330.29092)
(-3870.9439 273.26735 -328.91572)
(-3945.7157 261.45567 -358.43849)
(-4038.131 314.50927 -356.12287)
(-4129.3553 364.92104 -355.26515)
(-4184.1325 348.91791 -382.80075)
(-4276.7668 403.27758 -380.34436)
(-4368.5628 455.26645 -380.34922)
(-4407.7114 435.79926 -405.44928)
(-4499.0999 491.19106 -403.8765)
(-4591.501 544.2151 -403.96767)
(-4617.9346 519.73337 -426.62628)
(-4709.6688 575.02614 -426.03052)
(-4801.6814 629.40515 -426.04613)
(-4822.7037 603.50452 -447.97981)
(-4913.3187 658.90691 -447.40012)
(-5004.3714 714.02537 -446.27447)
(-3.6390406 -10.480761 13.797389)
(-50.461014 -49.366928 11.29316)
(-113.35089 -61.830485 1.9494637)
(-213.46209 -83.073514 -1.0862729)
(-338.19022 -94.727705 -10.126781)
(-493.91132 -100.20362 -16.274008)
(-684.65791 -95.447086 -25.911102)
(-906.74461 -80.820471 -35.474834)
(-1162.448 -50.987123 -46.505065)
(-1446.18 -8.8350564 -60.140355)
(-1753.0102 48.51792 -74.546687)
(-2074.8359 119.00447 -91.913088)
(-2402.8643 199.64928 -110.30604)
(-2727.4497 288.45813 -130.53001)
(-3040.9735 381.66859 -152.10646)
(-3336.6674 475.60235 -174.35087)
(-3610.6829 567.82385 -197.17591)
(-3861.6733 655.82763 -219.94852)
(-4090.7856 738.38175 -242.34117)
(-4301.5109 815.62205 -263.94894)
(-4499.6902 887.79125 -285.27697)
(-4691.5591 956.49434 -305.75019)
(-4861.5384 1019.0949 -324.42517)
(5.4320554 -6.1736566 -3.8562287)
(-47.781887 -11.57399 -0.37895893)
(-132.4232 0.17861276 -2.7656428)
(-248.89655 1.7854563 0.20725036)
(-389.78383 22.640886 1.5202665)
(-562.49892 44.854363 1.5184643)
(-755.62393 78.327388 2.9056085)
(-970.79313 119.31715 2.5559515)
(-1201.6503 170.53102 0.93733222)
(-1443.3014 226.84205 -0.96295342)
(-1691.6297 291.74005 -5.5949641)
(-1942.2255 360.56766 -11.725072)
(-2191.8929 433.03961 -20.316674)
(-2439.3294 508.43592 -31.52266)
(-2684.8733 585.26153 -45.073859)
(-2929.8429 663.98504 -60.997407)
(-3177.4232 744.5306 -79.252021)
(-3430.6144 827.50471 -99.404745)
(-3692.9272 913.58618 -121.34033)
(-3966.9591 1003.4777 -145.04051)
(-4255.668 1097.7661 -169.72818)
(-4558.5143 1195.9093 -195.62927)
(-4936.039 1315.7201 -224.39237)
(10.919406 16.615192 -17.256967)
(-68.475637 29.552559 -5.4431299)
(-160.77824 82.615612 -2.864316)
(-281.2654 107.60099 17.428915)
(-425.767 162.59744 24.322009)
(-583.53507 209.1435 35.777087)
(-755.84405 260.37818 45.989671)
(-938.52737 318.81997 51.614815)
(-1129.1215 373.02741 57.785471)
(-1328.5086 434.31877 60.160889)
(-1537.8395 496.1875 60.775818)
(-1758.0736 562.55146 59.241901)
(-1992.1932 633.45138 54.982069)
(-2242.5592 710.14699 48.786814)
(-2510.773 793.70877 40.024092)
(-2798.2817 884.95826 28.761069)
(-3104.7691 984.14304 14.852499)
(-3428.7967 1091.0189 -1.8928727)
(-3767.0239 1204.555 -21.429073)
(-4115.4855 1323.2377 -43.567491)
(-4468.0119 1444.497 -68.060424)
(-4818.8615 1566.765 -93.80033)
(-5180.1328 1692.599 -121.87495)
(1.0675654 -12.058618 -18.355159)
(-3.8690789 -13.39332 -12.278791)
(-12.439113 -12.107604 1.2926103)
(-27.150467 -49.776417 -21.557344)
(-45.845852 -51.580269 -10.140145)
(-52.161848 -50.131572 3.0194399)
(-79.480268 -72.075389 -28.573323)
(-99.447966 -71.34498 -19.167556)
(-115.93656 -68.980869 -7.1537565)
(-154.89991 -96.149793 -35.555285)
(-186.5408 -95.780077 -24.143125)
(-207.56341 -90.426395 -10.821303)
(-264.33492 -113.78466 -40.068219)
(-301.21257 -109.74813 -30.435406)
(-330.04895 -105.10786 -18.831821)
(-402.0395 -124.80276 -48.678788)
(-446.21064 -120.69763 -38.327982)
(-480.43039 -112.2381 -25.501349)
(-573.47142 -129.7071 -54.780372)
(-624.49406 -121.63659 -44.775735)
(-667.63331 -110.94605 -34.331304)
(-777.16978 -123.72642 -62.815363)
(-835.11623 -111.23313 -53.597354)
(-883.9955 -97.087853 -41.898014)
(-1012.196 -104.81538 -71.073723)
(-1076.4432 -90.175386 -62.262916)
(-1132.5791 -72.845407 -53.878354)
(-1274.3675 -75.338825 -80.539906)
(-1344.3843 -55.143772 -72.741105)
(-1406.7276 -32.543302 -64.583207)
(-1558.6114 -31.697218 -91.66828)
(-1633.0314 -6.8735941 -85.374357)
(-1701.6603 19.244694 -78.430701)
(-1856.2123 24.278843 -104.19471)
(-1935.3504 53.364832 -98.843517)
(-2008.7512 85.355094 -93.814218)
(-2160.1203 90.271849 -118.80277)
(-2242.3954 124.2851 -114.88917)
(-2319.7852 160.50783 -111.18196)
(-2460.9552 164.66021 -135.33304)
(-2545.7123 202.70571 -132.62417)
(-2626.2976 243.40907 -129.94666)
(-2752.0955 244.01275 -153.56324)
(-2838.6268 285.98577 -151.98019)
(-2921.4812 330.47153 -150.30265)
(-3028.2555 325.80649 -173.35677)
(-3115.9169 371.05319 -172.76641)
(-3200.3389 418.5152 -171.61532)
(-3286.583 407.72367 -194.22105)
(-3374.8987 455.36306 -194.29375)
(-3460.4838 505.48906 -193.57583)
(-3526.8904 487.67059 -215.89103)
(-3615.5827 537.63126 -216.38822)
(-3701.8055 589.27121 -215.91998)
(-3750.8335 564.61123 -237.74468)
(-3840.8543 616.26271 -238.65835)
(-3927.252 669.51839 -238.01991)
(-3978.5364 642.01871 -260.99687)
(-4040.9779 690.38522 -259.62883)
(-4140.4206 745.60107 -259.93736)
(-4181.9677 713.71199 -282.83776)
(-4251.7438 763.23894 -281.6382)
(-4347.8707 819.06399 -281.92241)
(-4380.4194 783.27838 -304.81742)
(-4467.6803 836.25646 -304.44205)
(-4555.2077 891.05877 -303.37697)
(-4595.5026 854.5756 -327.02326)
(-4683.9627 908.318 -326.06944)
(-4771.8209 962.99781 -325.11517)
(17.599158 -3.4198098 0.10908386)
(6.6504691 -4.9632794 1.2320431)
(-4.2687536 -4.4819685 -1.6914141)
(-22.564081 -6.3074699 8.2452198)
(-41.908103 -8.9137759 5.0555522)
(-50.476188 -4.1895798 4.5418501)
(-84.509501 -4.909438 4.7994123)
(-109.66612 -2.0542748 1.2244798)
(-129.59219 -0.34787659 1.8354303)
(-174.62883 -0.018744934 9.3013677)
(-212.54188 2.3489293 6.6701581)
(-237.32113 9.6026332 6.0405178)
(-297.14437 10.37245 8.8512726)
(-339.54553 17.143786 5.070366)
(-371.03474 22.241254 7.5291633)
(-443.12032 27.129189 10.378032)
(-492.28485 35.156724 8.3528495)
(-532.97801 45.506664 7.6935127)
(-613.16414 49.915034 11.632902)
(-669.02185 63.179516 8.5224266)
(-714.73261 75.668622 10.10973)
(-803.91209 82.618055 10.156885)
(-864.92757 97.582964 8.0014556)
(-917.2772 111.71499 7.9456864)
(-1009.8305 119.21879 8.8638145)
(-1076.3061 138.86015 6.9632642)
(-1134.2788 158.5706 7.7354463)
(-1229.755 164.58434 5.0027623)
(-1300.2867 187.8092 2.8183715)
(-1362.7221 210.16064 3.8009675)
(-1457.0977 215.31423 -0.793938)
(-1531.305 242.38024 -2.2945492)
(-1597.8425 268.29418 -0.66103563)
(-1691.0032 270.71731 -8.5477534)
(-1768.1787 301.84717 -9.6460042)
(-1838.2168 331.40477 -7.7982345)
(-1928.3913 330.79154 -18.779675)
(-2007.6085 365.75712 -19.594867)
(-2080.2037 398.19282 -16.895747)
(-2168.5356 394.45338 -31.090688)
(-2249.078 432.73766 -31.240481)
(-2324.3213 468.38739 -28.408136)
(-2411.969 461.538 -45.629013)
(-2493.5452 502.92731 -45.491237)
(-2570.784 541.59035 -42.352985)
(-2659.7657 532.13511 -62.397593)
(-2742.0229 576.17895 -61.84251)
(-2821.3709 617.6543 -58.595879)
(-2914.2743 606.3728 -81.227705)
(-2997.5142 652.76988 -80.333352)
(-3078.3907 697.20928 -77.227106)
(-3177.8154 684.85072 -102.08918)
(-3261.6877 733.60109 -100.99421)
(-3344.687 780.37729 -98.103944)
(-3452.6148 768.1641 -124.73911)
(-3538.1032 818.35072 -123.44309)
(-3622.7354 868.00375 -120.85184)
(-3740.2043 856.07718 -149.35948)
(-3827.5524 909.15296 -147.5566)
(-3913.9432 960.07263 -145.6994)
(-4023.1631 945.10632 -173.70608)
(-4164.9768 1012.2639 -174.76573)
(-4219.8522 1057.379 -171.87542)
(-4357.9297 1048.2895 -201.58983)
(-4448.2275 1103.1029 -200.08179)
(-4537.9975 1158.4701 -198.85927)
(-4687.315 1152.3182 -229.28473)
(-4779.2088 1208.7564 -227.90473)
(-4871.3309 1265.6871 -226.87922)
(14.56157 17.314483 18.296794)
(6.4723569 18.14621 7.7453912)
(0.94375949 14.280681 -4.3083868)
(-37.290084 48.06433 35.609436)
(-59.90393 41.994519 19.751529)
(-69.519094 44.471508 6.9938157)
(-99.672067 80.12247 46.023902)
(-131.00127 91.721207 29.865978)
(-153.00725 89.207151 14.560118)
(-200.26447 119.75339 57.498891)
(-236.83871 119.60428 42.779324)
(-266.46402 123.4165 30.305289)
(-317.73678 155.21208 65.273388)
(-364.02345 167.03233 51.142094)
(-399.96809 169.5252 38.382648)
(-456.49323 196.69726 74.16337)
(-506.39097 208.22474 60.697669)
(-549.13301 215.36131 50.143293)
(-609.86936 241.16218 78.111168)
(-665.20398 255.3781 66.240359)
(-714.69409 262.88819 56.323111)
(-774.2608 284.00684 81.964286)
(-833.61036 302.17291 72.051686)
(-888.55684 315.36495 63.456788)
(-950.2378 331.44224 83.456306)
(-1013.6984 352.02786 74.290619)
(-1073.3679 367.37276 66.405003)
(-1135.627 379.97311 82.33857)
(-1201.8916 404.27691 75.033566)
(-1266.126 422.66714 68.862111)
(-1332.1892 431.15577 80.054485)
(-1401.5855 458.24771 74.093085)
(-1470.0358 480.60012 68.772378)
(-1541.4236 486.62579 75.566196)
(-1613.5369 516.62899 70.732252)
(-1685.8336 542.60049 66.746729)
(-1765.2901 546.21748 69.342775)
(-1840.2395 579.37993 65.799407)
(-1915.8627 609.06991 62.490416)
(-2006.384 611.99786 61.230239)
(-2084.1198 647.8236 58.472749)
(-2163.1876 681.61567 55.868868)
(-2266.4079 684.31506 50.684792)
(-2347.0251 723.27282 48.663665)
(-2429.0972 761.19351 46.755462)
(-2546.5312 764.32147 37.744928)
(-2630.0715 806.51186 36.317955)
(-2715.1786 848.40406 34.920828)
(-2846.6199 852.57116 21.8962)
(-2933.0805 897.80239 21.012818)
(-3020.7962 943.78844 20.103259)
(-3165.2236 948.61098 3.2066543)
(-3254.403 997.36862 2.6491811)
(-3344.8523 1046.9843 2.2442663)
(-3499.0152 1052.3305 -18.508998)
(-3590.9075 1104.0054 -18.655826)
(-3683.618 1157.0865 -18.367036)
(-3843.8983 1162.2765 -42.828672)
(-3938.2609 1217.0835 -42.430036)
(-4032.624 1272.9654 -42.118408)
(-4193.7161 1276.3593 -68.938062)
(-4289.7576 1333.3946 -68.631908)
(-4386.373 1391.4076 -67.708279)
(-4542.6974 1393.2989 -97.041502)
(-4640.5093 1452.5542 -96.230263)
(-4738.2866 1512.2631 -94.926433)
(-4884.2224 1510.092 -125.01201)
(-4982.922 1570.319 -124.08528)
(-5080.8032 1631.3037 -122.44275)
)
;

boundaryField
{
    free
    {
        type            zeroGradient;
    }
    fixed
    {
        type            fixedValue;
        value           uniform (0 0 0);
    }
    traction
    {
        type            zeroGradient;
    }
}


// ************************************************************************* //
