/*--------------------------------*- C++ -*----------------------------------*\
  =========                 |
  \\      /  F ield         | OpenFOAM: The Open Source CFD Toolbox
   \\    /   O peration     | Website:  https://openfoam.org
    \\  /    A nd           | Version:  6
     \\/     M anipulation  |
\*---------------------------------------------------------------------------*/
FoamFile
{
    version     2.0;
    format      ascii;
    class       pointScalarField;
    location    "1.71";
    object      E;
}
// * * * * * * * * * * * * * * * * * * * * * * * * * * * * * * * * * * * * * //

dimensions      [1 -1 -2 0 0 0 0];

internalField   nonuniform List<scalar> 
28033
(
1087.1256
650.98007
-38974.567
-22516.067
1265.0868
4132.1674
-31303.782
-57807.085
532.54635
308.9588
252.89864
417.32298
142.24941
314.14045
252.97918
217.10203
300.12832
161.63379
151.54428
224.64676
356.2814
199.50573
-178.68901
-24801.526
-21959.83
-21149.775
-21565.024
-21582.028
-21461.3
-21928.626
-21655.97
-21674.071
-21960.313
-21301.965
-21863.598
-21183.069
-21311.136
-14526.982
1427.2929
290.98844
421.53003
98.901872
293.39398
222.28982
264.29645
-8.5184307
243.6889
-57.665032
95.368324
4.2747523
3.2176568
45.731808
-13.831313
72.482145
-141.39851
191.18199
-148.09478
99.895792
-47.504296
49.596488
-151.85363
120.74606
-211.09406
74.413819
-210.81682
75.231351
-175.08249
7.4922968
-36.558047
-80.243985
-85.178114
-145.57754
-68.980956
-50.44489
-158.64093
4.0525162
-160.9647
-49.60975
-169.88114
-72.607698
-156.84227
-85.396344
-145.23088
-67.208583
-150.70767
-36.948552
-133.61982
-28.316431
-96.126528
-26.212294
-48.376934
-19.98467
-10.570318
6.1951934
14.621665
33.641688
42.770264
57.809819
60.256431
89.484135
76.240639
106.14198
140.58984
125.44076
67.3511
128.30853
103.79156
291.1197
207.38254
231.00831
297.92804
166.88298
456.72584
89.739688
582.66709
62.37044
688.89036
54.249985
728.91008
188.15159
782.08928
286.97107
762.1229
616.07549
615.85794
673.37243
583.9431
879.86804
-434.55564
1326.629
-663.83852
-422.46652
3068.5848
4604.9373
-2464.9952
2580.684
-878.80165
1166.2333
1095.2442
645.29661
849.37604
1301.283
681.12874
1368.606
905.21556
1402.7955
1030.5845
1297.7107
1139.584
1267.9253
1342.9331
1252.0101
1320.5334
901.50437
1186.1543
693.96183
1446.8877
911.62054
1690.8314
907.31989
1513.8489
892.54888
1354.8342
806.61914
1191.2075
844.4271
1085.856
920.48619
1086.8955
872.46988
1025.0969
827.52379
993.85345
853.29297
925.06498
853.42829
907.81528
824.4598
884.75445
811.67808
844.51089
802.36886
803.29691
780.58053
775.32057
743.35623
751.0852
713.36943
711.78748
690.16403
676.49029
652.91631
650.33928
614.61013
617.66966
582.15081
586.12302
542.57428
542.67323
487.37825
529.81165
544.05314
486.68784
426.20311
400.83575
439.01986
351.08337
380.92471
339.01354
277.27045
325.79377
207.88339
262.93032
181.03934
172.98714
118.27955
104.7848
41.583327
-10.371308
-34.601371
-101.81543
-210.2893
-203.9645
-264.16873
-468.02039
-574.01021
-196.94135
-2376.9721
609.41118
373.87533
35.452167
503.73749
51.981674
166.08446
188.08913
86.227345
162.49084
74.895172
114.78231
29.586332
-99.199602
-512.16257
277.18837
3564.5175
5048.3455
-5508.9817
2538.5675
455.02788
-160.75109
1457.7991
1111.6998
1360.7103
1035.6399
1753.5861
225.7838
2101.0625
-256.8161
2156.8187
203.99153
2804.5866
-553.2479
2960.1938
195.07379
1807.1983
1739.3138
1024.2729
1479.1411
855.04001
1504.1762
1403.3868
1182.5416
1433.8374
1065.6324
1025.6109
1118.5435
1013.7546
1006.1756
1002.2027
1506.4956
783.38975
1006.1274
895.31563
881.49508
885.29726
858.62891
837.97628
809.23802
795.00667
758.90348
734.37089
703.72779
671.10214
639.42519
601.71335
570.93967
538.25319
492.99925
466.80199
424.40131
385.58065
352.11436
305.01023
273.11564
222.18522
193.23004
138.40433
112.00908
62.155213
44.916755
-43.832431
31.299252
658.00624
-359.79536
-35.027492
-222.33377
-221.37321
-254.12359
-299.2933
-336.37436
-384.15385
-404.29733
-485.75887
-486.27279
-577.65435
-565.39402
-671.08673
-651.21788
-783.86227
-784.70702
-926.76268
-979.92528
-1112.2727
-1224.8512
-1321.3088
-1546.6495
-1581.3148
-1686.5911
-3773.3555
-43288.268
-43212.882
-37390.493
-45712.12
-37770.598
-45699.379
-38197.071
-42997.972
-45056.76
-43068.043
-37748.57
-46176.134
-37382.258
-45090.521
-46307.771
2991.6993
-1057.0197
559.3361
224.91121
722.36594
646.16164
826.13148
863.16279
832.81526
923.42481
869.98197
873.94626
902.30019
853.91863
877.78238
868.19807
878.99817
853.97931
879.49978
840.90435
865.49604
822.99445
862.09641
771.48215
881.01824
836.91528
681.28774
384.00541
820.65896
764.98351
791.17157
774.82616
763.03788
760.23828
746.7649
742.57049
732.16275
722.89914
713.63762
702.729
690.8489
678.83051
667.46438
650.75184
642.29977
620.56391
615.5219
587.57944
584.83103
554.92002
552.04626
533.61639
530.41807
502.6418
514.03109
469.21694
537.36973
334.59407
201.09798
416.29614
451.21768
-33.409294
504.96035
373.10058
327.2296
150.83114
253.44235
151.66946
162.97094
587.84715
108.01211
462.76264
-82.379341
564.62994
78.487269
240.03252
193.07475
112.43063
376.18071
93.509927
46.324078
-311.79283
570.36808
-382.67329
967.09709
-298.78247
272.05325
-340.58868
657.21465
-76.774967
68.637663
156.39243
1202.2419
-1029.7854
2805.25
982.96141
1008.7381
833.81455
834.50123
811.16637
902.6256
661.24785
931.93976
837.71676
1053.5097
720.89862
743.22609
778.4435
710.0524
2.8070584
-453.38592
-214.45578
-1193.9744
-659.98171
-673.63755
-1424.0004
-965.53823
-640.79889
-1255.8984
-585.01664
-685.94342
-930.64125
-823.12268
-891.12328
-1131.2092
-24378.586
-24620.607
-24177.056
-24373.704
-24363.355
-24418.437
-24406.233
-24412.389
-24384.883
-24378.191
-24535.857
-24310.019
-24442.252
-24417.437
-25337.196
-43162.087
-44134.463
-44032.361
-44052.071
-44063.987
-44171.236
-44124.435
-44198.889
-44196.068
-44187.226
-44238.278
-44372.874
-43964.037
-45248.42
-42592.85
1645.4348
-142.92174
98.233397
105.07172
-138.20327
81.050893
-286.36923
36.864074
-376.56486
88.942026
-468.80881
44.05174
-481.50477
97.938261
-590.81456
-16.516667
-374.19995
-156.6324
-407.57611
-175.5534
-318.73227
-277.18375
-167.85174
-297.63454
-199.3332
-261.5528
-146.3007
-250.55664
-208.56529
-157.97052
-273.46508
-193.74603
-147.62985
-172.2255
-79.127753
-246.25662
-143.32569
-261.40507
-208.1989
-234.61543
-152.59159
-255.2353
-202.32202
-199.92364
-272.12672
-226.82435
-283.41051
-266.18978
-308.43346
-292.16563
-326.42357
-322.81316
-340.08495
-350.30467
-355.36244
-372.67198
-373.95872
-388.25044
-392.51072
-400.53375
-407.03484
-399.55459
-425.99012
-404.98168
-455.49429
-484.3835
-242.78212
-443.89855
-264.93246
-537.35031
-495.46511
-586.9999
-548.82932
-616.97884
-568.2052
-717.78342
-538.17924
-842.81975
-524.38677
-892.53144
-670.23641
-787.1965
-812.66969
-896.36682
-967.72759
-1027.5667
-1092.1451
-1006.297
-749.21587
-1540.1699
-22.4032
-660.34438
-995.35573
1977.9118
-1075.3644
1131.5753
-468.52054
373.18658
-219.82382
273.40864
-57.395464
144.97619
-47.86578
21.434312
-63.50151
-61.072026
-57.485102
-118.16538
-96.873402
-197.22557
87.951826
-392.13066
36.836608
-263.30961
-2.0092692
-290.90162
-15.811539
-329.79501
-68.301712
-273.99092
-86.599108
-261.52969
-143.29254
-195.91077
-134.43074
-179.73062
-81.702456
-190.3129
-170.27622
-201.68458
-158.27417
-102.13571
-32.269608
-116.75119
-71.045554
-151.90266
-111.59913
-87.885274
-167.29782
-171.38576
-136.69651
-183.21467
-167.2305
-174.34772
-174.0986
-183.79359
-179.06044
-181.25576
-186.60467
-182.46199
-184.87083
-184.0961
-186.00217
-179.88165
-183.97814
-181.33921
-172.85472
-193.95278
-153.55388
-181.28893
33.838334
-79.430587
138.57701
55.608101
99.825616
241.57911
194.16343
291.45733
143.1644
371.59528
73.511599
466.98651
-19.954784
607.11715
-172.2975
687.1118
-84.291817
472.06736
-271.65912
656.96961
115.45914
625.61004
403.55657
76.499064
715.7385
420.86717
-193.52578
1277.0492
-179.38948
-240.68831
979.58057
-413.31629
336.40495
-153.33968
102.69416
-57.98973
-93.787299
70.908823
-75.892042
70.328249
-132.92598
128.39782
-166.19487
127.14347
-113.77937
41.416614
-88.52549
122.01026
-158.31428
58.9988
-71.159533
54.351216
0.60702606
103.4133
25.720197
96.27498
80.993286
127.14816
107.08395
125.13835
146.47439
101.11298
163.3035
160.25053
189.82943
200.98894
83.003707
-78.839089
23.788821
-38.15748
33.116826
22.854469
-54.200257
13.370801
17.990431
24.94248
1.5825263
28.732521
18.643353
11.639715
30.723355
14.638412
34.96899
17.954416
41.679994
25.009034
42.034376
33.711879
47.00806
37.254949
51.051067
51.726993
45.116762
72.974565
56.595035
-26.860945
401.37107
1.0726654
121.58901
6.2924847
-18.881183
-148.72763
-142.31855
-136.25505
-170.80448
-182.7806
-188.54568
-212.36864
-222.74743
-293.96542
-118.20649
-483.5869
-158.21723
-248.35375
-275.32305
-552.38921
-355.56754
-897.36548
-35.517709
-663.65507
-578.65457
-33.240313
-707.21204
-243.55726
-507.69907
516.88103
-113.2354
224.98485
36.17157
147.25369
-16.954876
122.98434
55.279594
-58.089646
-13.020386
-31.229999
-33.888573
-175.20773
58.718344
-311.8074
82.704445
-352.15844
22.923445
-340.56955
56.794536
-359.71955
6.3732722
-369.35609
-71.658663
-343.17898
-112.90797
-310.28268
-144.24616
-285.44404
-137.8526
-272.18619
-159.59173
-208.65974
-217.68864
-203.20291
-231.27236
-224.9463
170.56432
35.339474
81.422701
40.294195
62.370314
78.162528
73.419007
30.034758
25.404591
19.987631
20.399129
1.0544586
6.0622072
-0.26080283
-14.007372
-8.4761836
-27.678813
-22.441759
-42.972965
-37.46013
-59.009848
-57.441243
-74.771229
-80.075671
-88.033847
-112.17732
-108.69962
-139.03113
-119.65513
-206.41287
-190.23996
-63.951675
-207.86954
-29.622504
-29.36804
-115.85553
-190.7609
-100.15938
-206.90446
-59.348494
-274.34987
26.330249
-297.86818
86.474916
-417.00752
407.07536
-602.3294
209.18413
-388.72786
58.970856
117.90968
177.23551
-310.07259
696.85589
-485.32514
626.91781
-549.06464
676.76556
544.86972
-247.74405
275.06595
-162.17218
137.36575
-88.171514
79.149625
-67.872651
-3.6949274
48.040758
-71.727073
2.3223493
-53.078616
10.650525
-111.39645
69.435901
-153.30037
86.026263
-181.78359
45.222682
-194.04378
81.626666
-162.18115
137.16064
-97.66002
122.81907
-1.0697646
95.871779
50.363517
96.909106
87.821229
135.05613
103.20546
153.31993
143.30701
141.74265
273.66627
-28.809541
-11.234132
-74.943834
29.298613
-39.48419
-36.7092
-21.547594
-5.4030393
5.8985777
28.236215
13.932691
32.959474
30.57781
45.816212
33.111492
63.966636
43.509371
70.274284
59.506641
78.683487
70.346352
87.584198
82.690913
93.281365
96.119666
88.191459
128.9856
74.72037
105.39699
170.89324
3.9936629
88.212025
27.878316
134.97048
-64.692771
112.2782
421.6064
233.1974
378.93162
168.32622
376.8254
183.93373
263.81602
211.44275
299.7501
100.75412
228.48436
346.97975
-82.598015
438.51031
-308.48708
-59.057421
-82.898381
-97.430463
-187.91586
-57.240516
-416.00643
594.35327
279.61262
-30.764136
230.35639
33.667081
114.53939
88.081792
32.842318
59.800595
11.904366
-6.4376334
-56.876569
36.186728
-152.40917
42.572882
-205.78683
18.388927
-264.56959
38.180365
-282.51864
67.207923
-264.52617
65.839774
-260.86511
30.416341
-287.1215
31.589058
-280.9826
2.6933003
-209.91394
-28.103365
-154.07046
-87.529915
-126.43847
-104.34758
-147.96781
-66.651934
-236.95636
266.44627
-53.027603
75.927365
-2.9060214
41.755146
-26.321637
31.282312
-3.6928466
-0.48124919
-34.17644
-25.039885
-47.633649
-46.417002
-61.545336
-64.853368
-77.86638
-85.1797
-95.819978
-106.26847
-116.59474
-135.88833
-134.97333
-161.23667
-179.02635
-173.007
-209.87691
-240.79847
-219.6943
-264.34091
-296.66435
-300.28406
-252.92212
-304.6422
-374.79238
-262.70551
-274.67184
-888.73983
-715.78689
-842.35093
-726.82161
-855.96394
-714.63722
-955.61085
-489.14661
-1237.4106
-302.1056
-1197.9898
-448.8903
-993.14743
-362.95607
-893.17535
145.33629
-594.80991
203.81672
-725.60074
425.19363
-772.25075
977.11655
285.54103
-171.67608
352.97903
-122.6887
185.74148
-67.109343
62.625531
-61.209045
-15.890472
-74.718941
-44.242726
-104.20228
-99.473104
-61.187115
-170.21857
-32.699514
-177.93489
-46.077843
-232.27255
-19.982751
-273.85172
16.926893
-292.4651
22.121498
-196.24394
-1.6774979
-141.71396
12.194397
-127.45489
16.606715
-94.936975
24.024409
-15.85865
6.1521796
34.942151
5.1365293
47.954268
-40.63297
-33.980047
55.661957
24.437923
65.971674
54.123512
77.047315
79.816032
75.262068
125.86237
114.15001
152.00812
144.46998
185.12145
171.04735
214.18215
204.53335
240.85127
233.94988
268.68979
264.25993
296.988
279.28333
332.74972
313.55942
325.13844
377.87516
349.18149
396.57765
379.31037
438.79312
398.0097
362.53952
551.93178
351.69822
391.03124
586.28862
556.95254
706.0147
546.18853
693.08174
541.0117
753.70511
486.52835
703.88331
741.53746
357.70973
1078.8778
182.72742
1046.2195
177.57762
747.13051
-272.8318
352.12583
-108.23252
392.65113
-536.48005
1348.8327
149.75714
-33.769299
187.83869
56.80016
134.82998
61.00758
107.96107
37.031205
88.372715
37.826696
34.764755
57.798337
1.2441678
47.692906
-43.597438
53.304778
-89.006688
64.248974
-73.139926
66.587706
-137.45713
28.556783
-178.22328
122.16258
-235.7151
119.40212
-176.49534
83.259325
-112.11203
70.904195
-69.195519
57.921362
-62.40695
23.402799
-35.66875
-6.21377
-24.710823
8.6540754
-18.455536
31.021426
-49.894618
-17.61998
-51.161008
-41.41082
-101.83236
-77.189315
-127.11978
-123.91778
-158.51984
-154.86114
-189.32643
-193.34898
-211.55676
-233.8392
-244.72014
-269.87145
-278.89637
-312.38247
-323.95059
-349.91962
-365.9782
-413.81058
-402.26115
-460.44323
-484.70741
-510.82547
-538.5433
-564.42057
-634.7863
-544.32395
-738.47358
-699.38174
-652.16911
-877.46466
-940.40718
-1105.0138
-1035.2869
-1132.2372
-1024.2881
-1228.3555
-1003.9484
-1221.7241
-1059.5698
-1272.5719
-922.66774
-1486.2808
-668.1759
-1522.4193
-490.72123
-1066.8948
279.89563
-967.82771
228.66013
-874.94028
1154.8488
173.54586
-178.09217
314.5351
-96.899954
86.109489
-137.46734
-7.4059831
-213.84748
-101.42811
-269.05366
-187.37055
-288.14107
-271.50241
-292.61502
-319.64561
-303.59201
-335.76316
-320.08432
-374.92855
-304.64744
-354.07581
-138.95028
-224.42209
-155.83987
-225.47286
-85.242465
-236.30725
-72.97184
-223.81383
-77.181054
-181.19244
-87.303629
-132.43311
-58.15243
-128.05808
-33.835758
-116.85197
-45.904912
-91.736388
-103.51189
-79.116194
-92.723672
-46.025729
-75.564352
-7.4828754
-32.318093
19.949166
1.2490482
46.779767
33.556052
74.88025
69.074714
103.46818
102.90262
135.13017
137.00543
168.87591
160.16498
209.0096
192.69719
221.87358
237.10108
250.3331
254.08775
281.50665
316.35139
298.33897
319.69636
373.39058
318.71782
375.0932
446.72389
347.76545
495.83121
623.93716
682.42
701.03624
737.11981
640.68737
835.74973
604.26098
837.41568
679.60402
738.07417
919.12212
483.40073
1264.6672
211.92852
1346.2476
151.12213
517.73796
-173.85093
699.97874
-404.845
1543.6834
330.9623
-123.16528
388.72755
-60.646353
254.23216
98.442116
248.85223
99.95027
198.69417
187.67144
166.45097
184.88825
186.37172
169.33635
180.14507
158.85906
185.16091
145.16631
223.80092
162.22026
159.53291
77.794373
-98.155676
60.765286
-68.649183
76.064132
-63.062941
117.69659
-38.708591
132.67219
-15.714668
110.6825
31.479032
56.66717
63.63631
47.284646
45.471828
73.110246
4.215724
88.350239
30.991056
72.071831
7.2321717
49.87694
-26.262598
1.6539799
-43.744106
-31.981323
-67.185716
-58.687433
-85.194275
-96.212012
-107.3442
-125.87403
-141.82314
-156.01391
-178.62131
-197.74981
-204.60206
-257.05211
-243.21103
-290.74678
-316.45236
-338.03253
-356.59191
-415.41978
-448.02977
-422.93781
-535.22066
-505.8915
-553.21111
-637.58228
-599.03956
-692.97078
-575.71539
-650.77111
-645.81307
-759.82638
-621.77421
-783.72102
-708.1678
-672.85681
-864.90455
-553.08865
-910.54441
-679.83528
-616.85436
-1096.5202
-98.479935
-1406.6058
361.18378
-602.26843
309.05252
-452.06403
1389.4976
318.87119
-181.43108
235.65839
-315.05967
125.57221
-283.96541
-75.157354
-334.96543
-128.19815
-330.09886
-269.41512
-348.58948
-293.2594
-428.44405
-266.39836
-518.05108
-207.62627
-596.46065
-207.43343
-623.49058
-199.36529
-724.69873
-288.33109
-299.52077
-250.49005
-292.82465
-236.68194
-257.7933
-270.04577
-227.50167
-279.87957
-184.60649
-272.97558
-145.39596
-258.98861
-165.31755
-210.2381
-200.16744
-163.35337
-208.22676
-157.11395
-215.73779
-145.28025
-185.01989
-126.3248
-148.91121
-95.775667
-124.23383
-76.496272
-86.188548
-57.049406
-55.802405
-21.989968
-25.378841
7.682716
12.300342
35.352326
50.367691
66.02068
76.020916
114.90329
94.713296
140.45201
148.4588
154.27831
181.07315
229.39498
196.33148
229.34338
275.71191
221.24629
348.70872
268.71088
328.52911
578.12018
492.55138
408.25826
604.76996
415.37416
588.17517
533.37452
540.88852
629.45637
598.79124
599.54455
774.22656
636.92495
761.17863
956.14198
573.41632
1229.8014
24.91446
838.56438
194.02348
1089.5047
509.70569
-427.91353
95.696929
-162.07313
141.39091
-46.147637
151.5505
7.9082024
114.80833
87.623037
79.48566
62.350844
184.09534
44.207361
132.15934
138.71893
110.03985
125.8684
138.89447
128.22776
83.385863
275.42215
184.95423
101.60628
132.87896
113.77991
125.04163
163.34707
160.0377
188.07683
189.96164
166.67512
196.3198
159.11107
174.29541
213.36376
141.18761
233.69456
131.31777
219.55348
133.22757
215.25612
128.59247
190.47427
119.33067
145.90453
110.90976
110.56006
96.56796
87.24671
74.201598
63.821546
52.216728
35.929418
25.010124
5.4467563
-3.8025046
-31.352575
-43.104146
-61.830703
-90.090163
-110.1969
-122.76475
-166.77285
-192.70415
-205.08243
-272.06315
-275.95776
-293.8004
-351.16551
-346.52888
-431.56379
-431.76748
-476.12166
-618.00747
-688.41714
-689.94328
-755.3704
-742.53267
-798.494
-839.28431
-812.07667
-935.74427
-851.47981
-1048.0564
-801.27557
-1289.9719
-806.53829
-1234.1181
-1325.3336
-778.69593
-1507.1577
39.84907
-834.07864
995.67287
659.95522
-269.68672
162.56887
-198.12469
-150.6085
-301.69533
-176.46849
-479.06542
-274.3467
-500.5085
-442.54258
-446.11039
-553.5012
-502.34974
-511.48507
-556.87074
-425.97251
-596.65138
-336.45466
-666.65863
-322.98999
-699.51312
-399.15703
-764.75296
-288.40195
-668.64914
-351.55783
-586.21702
-433.66485
-498.97224
-473.60203
-437.82899
-458.64967
-434.75706
-444.35287
-445.62447
-417.04502
-458.27277
-394.44944
-465.55436
-387.83576
-450.91647
-393.8711
-418.70592
-381.15055
-393.48282
-349.78223
-367.44717
-326.49935
-331.57203
-300.89933
-297.99606
-267.72923
-262.14172
-237.68875
-220.86006
-203.74471
-190.23132
-159.98798
-159.16229
-129.13746
-115.22261
-95.557871
-81.742738
-54.52397
-31.586433
-21.669448
1.0139359
6.3012876
60.784118
9.7105841
135.50728
45.735566
164.67381
141.1821
290.14742
202.23916
328.63625
245.85304
332.58814
348.25237
347.55893
420.77664
402.25894
514.27314
461.55435
509.93637
827.77859
246.03766
1199.0715
621.38223
716.92522
1106.5449
134.6392
960.86668
1104.0998
-565.90182
241.12069
-208.75469
327.97617
177.33601
244.84504
277.94412
333.23759
239.11254
332.44856
162.34736
373.69175
198.04525
363.96375
213.80132
361.08913
170.47991
566.78106
204.13605
640.33557
279.77973
513.31617
200.25629
391.75018
183.81799
441.54205
225.70166
432.74991
263.81106
418.59616
301.15955
404.01948
360.93013
370.90669
385.91917
309.61871
396.97434
292.1583
386.9274
303.73519
369.06831
306.73233
341.10717
302.68033
308.50508
294.24805
281.00418
277.71401
264.12657
257.76474
243.97304
241.69417
221.85052
219.10695
203.09349
191.15237
179.70176
164.25947
149.66718
132.58237
120.19076
94.930953
87.121392
56.784013
72.574389
18.538745
48.132377
-5.48816
-61.857327
-33.838572
-121.88217
-105.10425
-146.8349
-181.91964
-221.38884
-253.99216
-260.60284
-328.44857
-276.75978
-397.91272
-336.45274
-451.85324
-393.53447
-537.78863
-490.87149
-540.9454
-660.06504
-737.83998
-388.56879
-1381.5427
-376.04757
-1047.9838
-1427.6
171.81539
2161.0958
-1523.4421
357.4601
-1028.8155
-237.66138
-1100.5763
-666.20424
-904.29157
-907.43854
-882.99342
-1120.8093
-983.80298
-963.41147
-1184.5335
-750.50055
-1372.3266
-680.35557
-1457.1547
-472.50878
-1346.8541
-203.24
-1319.4354
-292.453
-1424.523
-488.6099
-1233.6305
-547.06762
-974.13337
-585.6442
-698.50135
-585.50481
-608.70559
-536.55061
-592.23017
-564.22987
-589.46015
-461.21641
-551.1626
-432.72658
-502.25956
-426.90418
-459.29808
-410.98452
-410.69903
-372.99389
-366.20486
-322.02744
-316.00481
-271.74886
-253.64952
-222.30285
-194.21554
-161.14842
-139.74762
-102.65847
-77.760398
-46.292013
-19.280347
16.597663
35.67785
77.884069
95.750138
134.75524
154.1512
198.5484
222.41744
220.40368
234.98083
224.30397
367.99447
279.0502
427.71717
330.93158
453.54662
382.41064
486.45352
435.38218
491.21649
496.38089
508.30722
520.02194
549.99174
555.53337
580.86278
584.11047
681.47612
580.6346
739.02693
779.41057
724.18428
760.35138
1369.018
550.38301
1641.6223
2833.5139
-52.863302
72.427551
-123.16677
-306.77496
-227.89478
-295.68748
-216.38025
-255.0909
-201.57757
-65.07353
-208.45033
-178.61173
1.9269475
-29.326535
-429.99844
444.37718
247.81706
104.04106
80.788953
-6.9728098
-47.250403
-30.029155
-101.88601
29.613217
-63.960386
-31.696109
47.082654
-14.055587
109.11533
-105.91646
135.99845
-200.63104
-236.96766
-287.6026
-354.39688
-375.44138
-356.69161
-408.29512
-376.40512
-369.80406
-294.2277
-384.70468
-328.70082
-158.83911
-308.3508
143.73459
126.52912
32.176003
-79.064992
-79.699617
-109.03605
-102.04105
-132.26881
-72.711792
-85.787667
-51.467175
-49.697163
40.271325
173.40212
-259.73977
54.074873
22.050328
-102.58211
-146.14623
-194.47331
-205.21644
-218.5697
-204.83949
-228.11997
-222.15397
-210.99464
-179.71232
-135.57436
-150.46097
-50.72673
223.85678
129.21509
79.410682
80.116847
44.774538
28.019145
12.094364
14.838167
13.283967
18.411323
48.573779
25.539769
58.643944
74.805636
55.138122
109.18207
99.959912
41.594346
4.0980972
4.9670993
-23.120129
-26.6411
-52.806764
-49.942319
-39.116911
-59.212633
-17.24283
-7.9296578
45.491096
7.7673705
163.03818
127.07111
71.658098
82.670524
53.404812
52.570872
40.980574
33.68922
54.836678
32.1474
49.687227
48.568883
52.328266
41.687213
31.586622
45.416288
92.190669
4.5241119
20.405418
-9.2722673
-23.013539
-25.291911
-11.84272
-31.679839
10.21956
-20.244383
24.440488
-20.21799
57.845723
-22.455386
165.89523
131.7948
67.373033
88.45554
39.73503
48.843317
48.795846
40.661714
37.074517
16.871325
72.29432
14.620629
40.635075
98.962978
-55.771441
-169.40504
-34.688913
-160.44955
-141.27103
-187.55538
-123.66754
-175.93548
-130.07678
-177.20156
-75.264649
-108.81528
-111.58731
-63.388217
-1.6228932
-187.32845
-101.59456
-138.79293
-146.86726
-278.72506
-207.64048
-310.67331
-274.94211
-320.9863
-297.51792
-254.60073
-260.36655
-212.85414
-181.73167
-105.7039
-236.24388
-511.35536
57.708669
-440.45707
-277.94869
-448.31101
-356.84807
-507.96518
-407.79506
-375.50619
-358.62835
-301.01896
-362.58145
-304.23136
-51.41549
-149.22657
-127.77794
-244.46845
-429.92421
-455.35022
-556.15737
-541.86175
-466.55865
-442.65691
-463.98288
-625.57506
-588.61728
-680.07579
-698.68914
-531.98485
-987.97359
-708.91498
-627.56033
-997.62859
-1135.1011
-1315.724
-1212.1778
-1236.6869
-1113.9198
-1293.788
-1274.2426
-1359.622
-1249.8225
-1071.9028
-597.7707
-910.77411
2539.0705
4811.281
3407.5092
4437.7256
5019.303
4540.2853
5006.5837
5316.7973
4314.8908
4842.4417
4868.1417
4754.5169
4463.8229
5096.7942
2709.6367
2474.9741
-327.81094
1449.1489
947.03489
680.39869
1747.3971
1577.6518
1740.1747
2198.4359
790.17776
1047.1341
173.64719
348.94553
1690.9944
1018.1874
436.02918
866.06299
-104.24083
458.59344
1660.8912
-103.27348
-74.348122
84.616791
-1100.6448
767.72019
-94.466221
1589.6253
564.24633
-882.1741
485.78616
-567.30804
586.71208
579.61246
-1067.5371
-744.57642
-338.11104
-823.08576
-302.49888
-303.8356
-1238.8226
-386.10094
-844.63363
-397.91108
662.45526
-743.70717
2880.2323
1833.4892
968.12941
2517.9496
1361.033
1717.8698
2229.3942
1806.829
2205.6099
2869.8076
1973.9113
2424.5322
1836.3977
1447.6641
3111.5981
-209.93121
349.48073
78.28574
-209.2128
65.055941
31.630158
-456.56132
-419.70378
-516.63456
-999.6216
-215.11081
-373.41615
-426.56599
850.77646
-188.70327
1415.9058
1714.9261
1370.7669
1663.1539
1009.0638
1474.2685
1529.7386
1475.2155
1608.4253
1679.2158
1112.3902
1559.3733
1386.5967
892.32449
2466.5299
1305.8521
558.38334
507.13884
678.95978
982.93605
478.47299
603.18544
721.93475
312.01814
949.52254
892.21437
796.2285
1194.9659
611.71584
1406.7244
1141.1051
1482.3561
1413.5879
1835.9777
1114.2782
1560.0005
1399.0058
1458.1102
1517.6191
1257.5346
1317.4465
1105.9943
1278.2125
1140.4841
1884.0293
1486.4516
598.13549
678.63131
572.60314
701.37727
417.27933
535.81159
523.69952
100.64745
1031.9097
209.71779
1101.7485
583.37135
858.43188
1365.497
1151.8752
1400.0525
1310.6873
1679.8573
1425.5895
1829.6157
1644.4232
1671.7102
2057.3091
1321.3752
2186.0717
1490.3878
1823.9305
1686.7736
2196.3966
1509.6065
706.02176
931.78051
886.24062
807.93033
710.26336
594.12192
516.13205
113.57612
591.18942
75.264506
416.70701
347.85694
252.62227
1106.8826
1197.2622
1325.0909
995.14279
1467.4818
1232.7388
1483.5028
1528.0922
1448.4293
1838.0966
1601.7708
1919.7116
1623.2762
1771.4746
1859.0951
1894.1838
1311.9447
1114.4277
1173.1169
921.05668
963.88132
1165.0041
761.07612
743.17774
169.43433
272.57629
-107.72469
171.5709
-8.0631703
-123.08873
910.96955
1478.5872
982.57976
1044.3805
1508.805
1530.8343
1189.8726
1347.4956
1373.1569
1833.9356
1786.2911
2303.1912
2008.0918
2245.3966
2419.4049
2321.6195
1163.8388
1308.826
1293.4736
1436.5612
614.60965
1536.5198
964.41029
973.35382
272.5604
425.3084
-234.42063
61.001321
-364.01998
-271.44339
719.70532
1493.9103
903.03087
1119.8571
1104.8556
1726.2584
1224.418
1336.981
1074.3944
1766.7915
1566.786
2220.0413
1915.5327
2395.9791
1926.7405
2761.1633
1162.6186
1254.9735
975.72233
1166.8875
776.02279
1331.8025
967.66185
1231.0984
636.08239
849.51557
221.47115
225.85162
71.011451
7.1813253
591.45749
1672.5056
1134.0011
1513.3099
1276.5837
1404.0429
974.89609
1525.8181
1061.8539
1493.5522
1261.2688
1573.6579
1645.3282
1966.3693
2067.6964
2710.6653
975.72249
1004.1768
826.68429
1278.0968
905.60966
1603.8131
841.7719
1208.1662
965.91202
1075.9063
852.57634
985.84425
673.49799
420.4058
927.33774
1879.3259
990.57401
1512.5074
1026.4466
1379.5587
867.29066
1542.4192
1096.1877
1392.4027
932.68642
1242.5404
1134.0305
1854.6986
1732.6205
2415.0372
956.98315
1239.5476
911.04334
1476.656
887.72562
1746.5178
845.78972
1460.3146
783.97051
1628.2914
1065.3646
1416.0793
886.1338
447.71482
1685.289
1945.4381
740.757
1434.0386
891.96444
1371.0858
957.04044
1380.1399
975.50736
1600.8844
906.49527
1081.1827
868.87444
1066.3244
1221.8173
1532.5531
1018.7443
1385.4875
940.2252
1501.4705
969.18551
1120.3711
828.26057
1068.8468
927.09444
1103.87
1139.6869
1336.3075
1391.3473
1082.5588
1882.7817
1981.6987
820.07783
1055.6666
887.14938
1377.4203
1004.7758
1549.1125
1114.3692
1309.6323
1077.9314
1123.5813
1133.8577
915.69511
956.88217
1470.032
868.19807
1208.2299
999.45785
1454.7648
889.55488
1426.3127
823.93855
1194.9744
923.4559
1082.753
1024.9444
1056.185
1547.7572
1382.1937
1730.8645
1532.8212
1150.1187
1417.0842
1056.9616
1473.6895
1082.1508
1392.816
1204.7859
1251.4185
1200.547
1252.3688
841.17808
1047.3995
736.17627
1621.6778
1004.1862
1068.6564
664.43039
1453.2717
872.8902
986.28092
960.699
931.67814
1109.8221
939.63985
1171.085
1191.4839
1147.9661
1334.0839
1527.8499
1300.2476
1191.2953
1281.7907
917.27567
1153.2635
1096.5507
1180.5419
1066.9685
1103.3164
1051.3274
1097.4128
1128.6991
1143.508
699.22902
1700.543
1112.2989
901.74748
915.7718
1098.3473
968.04192
927.04742
992.84654
916.30935
993.87276
788.08198
904.11617
791.80137
1074.1207
1143.6779
1433.5279
1355.8313
1206.8136
1365.9766
1208.6861
1190.2171
1015.4643
1091.1522
936.4151
1147.6488
1154.9788
1118.7869
1047.2895
1066.9962
813.40932
1424.8046
1296.646
1223.6216
1021.9273
1133.8146
1080.2434
1094.5181
1031.6358
1058.5572
972.76053
945.59732
879.54256
980.82605
972.24277
954.56851
1552.1539
1370.0702
1021.9876
1181.9178
1125.7511
1207.5575
1017.762
1172.9319
965.98755
1123.1779
973.00257
1123.4596
990.41507
1044.1312
953.23017
1445.2556
1282.6561
1153.6111
1129.8885
1170.2342
1034.4577
1077.854
989.36923
1054.5851
942.50268
1014.3486
895.30483
986.2301
944.53871
924.06491
1357.1256
1369.5756
1021.2662
1197.1325
1059.5517
1135.3273
1043.0429
1112.1302
1046.8983
1081.0356
1027.5562
1086.5519
1082.1281
1096.3171
1149.7139
1458.7834
1022.703
1155.3199
964.52554
935.1944
869.01993
906.08517
930.41474
868.2429
1015.4395
795.01785
920.58088
808.52544
989.41575
663.92453
1559.4693
1190.1904
726.412
1018.4398
850.48911
1077.4383
780.13617
1016.5367
770.26831
913.33048
1025.1803
885.92314
997.69655
795.36962
982.06286
1262.2496
1122.241
1246.6554
1095.8196
1217.2879
958.11179
1098.4904
926.81347
1010.7167
953.03205
848.84203
942.30282
799.49765
1030.7424
758.72943
1328.2845
1377.1885
949.78454
1098.9186
934.19583
1129.131
881.49926
1065.041
901.91333
944.41978
933.19501
880.50419
1008.8626
896.83246
824.98807
1411.9892
1136.8558
1066.1509
987.24923
1126.4807
951.48046
1003.3502
947.59769
895.00461
958.39004
819.53898
928.2903
824.22568
866.57309
828.6929
1306.1928
1274.6047
976.59641
1110.5046
959.72659
1065.8584
906.44117
982.48454
920.77116
907.80691
906.44732
878.63361
876.55554
929.4575
784.34458
1306.519
1157.31
1037.7164
971.87538
1053.373
983.69099
934.24693
974.88597
855.48039
931.16124
831.31808
842.96622
876.35387
841.74088
775.551
1304.7064
1248.398
945.45134
1079.9053
980.52071
1016.0928
911.87954
947.87798
886.99834
910.07391
834.30971
887.37383
835.4065
869.59283
773.3493
1285.5251
1144.3559
1000.2904
994.365
993.4066
972.67364
878.55982
940.50483
849.01192
868.61253
838.68691
804.15213
835.49888
829.61566
737.83855
1265.8916
1217.5463
934.11201
1042.9294
980.97291
981.39408
881.29566
948.38599
840.36751
905.61335
804.47625
840.28134
826.62623
824.87056
736.90401
1256.6192
1144.5423
947.8316
1001.5357
961.90433
939.97813
854.72106
899.23774
836.88914
832.26465
809.33525
787.20181
801.2097
795.93796
709.60541
1236.6993