/*--------------------------------*- C++ -*----------------------------------*\
  =========                 |
  \\      /  F ield         | OpenFOAM: The Open Source CFD Toolbox
   \\    /   O peration     | Website:  https://openfoam.org
    \\  /    A nd           | Version:  6
     \\/     M anipulation  |
\*---------------------------------------------------------------------------*/
FoamFile
{
    version     2.0;
    format      ascii;
    class       pointScalarField;
    location    "1.38";
    object      p;
}
// * * * * * * * * * * * * * * * * * * * * * * * * * * * * * * * * * * * * * //

dimensions      [1 -1 -2 0 0 0 0];

internalField   nonuniform List<scalar> 
28033
(
924690.18
-1234627.4
6626.5459
2764.1974
1640538.7
-1811628.8
3873.5626
1138.5304
745469.19
669306.56
578513.8
473733.68
355443.76
249776.06
140474.55
23988.245
-93230.171
-196290.57
-322494.49
-392615.97
-531961.78
-667067.94
-648168.25
-13580.586
-7609.8902
-8346.1055
-5049.8979
-4475.3827
-2448.8036
-441.73115
1815.2131
3803.1645
6174.2162
8542.3023
9870.9032
11661.528
12717.556
11467.548
227833.12
249350.41
224386.87
239747.69
229954.08
236816.61
234967.62
234655.37
232068.76
232117.3
227618.03
224342.03
221724.64
218210.53
213510.19
208656.71
205487.83
200284.54
195947.78
190762.05
186568.77
180814.41
177189.44
171710.78
166957.4
162479.87
157730.05
153194.07
148731.5
144425.87
140306.36
136131.82
132457.72
128889.92
125136.72
122043.07
119377.42
117245.56
113972.69
112373.86
109895.18
108010.17
106301.74
105177.13
103665.14
102893.52
101794.93
101226.64
100395.18
100020.24
99354.538
99021.382
98497.381
98077.459
97584.126
97036.557
96443.623
95735.954
94934.494
94052.931
93015.604
91884.173
90536.626
89307.553
87829.945
86184.79
84917.596
83133.182
80917.511
78763.531
76620.09
74464.58
71971.957
69677.729
66930.225
64615.161
61533.782
59182.952
55974.71
53461.276
50234.843
47684.755
44339.711
41165.208
38142.62
34856.641
31992.31
29184.715
25205.352
22921.993
20470.495
15753.801
16488.936
14988.953
12318.227
-224070.36
-184546.83
-215639.79
-189191.25
-214524.78
-206717.98
-213520
-206238.12
-211153.51
-203766.23
-205367.23
-199561.55
-197424.34
-193977.56
-190279.21
-186079.52
-182497.5
-177751.98
-173798.72
-169929.95
-164917.07
-161894.83
-156432.44
-153620.8
-148263.05
-145176.43
-140636.56
-136885.07
-133124.74
-129326.51
-125240.44
-122303
-118244.47
-115613.12
-112271.75
-110021.6
-106589.8
-104515.07
-101848.16
-99987.211
-97975.999
-96289.033
-94747.75
-93491.979
-92270.981
-91412.82
-90546.144
-89948.362
-89393.56
-89016.966
-88651.794
-88415.115
-88148.382
-87981.396
-87708.312
-87494.791
-87175.159
-86816.095
-86353.78
-85825.88
-85144.57
-84388.384
-83478.368
-82435.756
-81259.798
-79949.805
-78574.996
-77090.641
-75552.104
-73182.158
-71753.782
-69285.541
-67347.119
-64947.967
-62618.269
-60081.748
-57469.579
-54838.907
-51991.965
-49169.94
-46241.343
-43259.77
-40138.761
-37156.093
-33926.08
-30797.685
-27635.3
-24565.341
-21220.626
-18404.109
-15502.94
-12439.682
-10047.704
-8891.971
-6145.6098
1327010.2
1253396.3
883507.68
909448.22
619825.23
372239.82
231017.37
-22940.352
-211214.02
-453342.91
-624285.71
-854238.72
-1081561.8
-1257451.3
-1341722.7
-366972.63
-282226.25
-128338.14
-260767.47
-216531.63
-226213.24
-220022.19
-226564.3
-218839.76
-219889.37
-223504.74
-208775.68
-217337.41
-201633.17
-209889.6
-200316.55
-199536.7
-186737.92
-187540.18
-177592.62
-174521.62
-167159.11
-167786.72
-160821.79
-156070.47
-153303.05
-145603.75
-144430.66
-136910.85
-135114.36
-130081.88
-127189.06
-122756.28
-119883.96
-116845.19
-111902.14
-110525.28
-107912.78
-105632.52
-103411.62
-101580.51
-99825.557
-98452.097
-97094.182
-96038.044
-95166.951
-94326.135
-93715.886
-93126.263
-92696.435
-92287.843
-91949.108
-91603.782
-91296.775
-90936.035
-90491.117
-90071.428
-89474.637
-88813.129
-88064.55
-87144.481
-86142.855
-84966.992
-83686.33
-82254.024
-80706.109
-79336.458
-77564.161
-73144.763
-73612.238
-71213.987
-68896.256
-66684.069
-64267.841
-61780.876
-59271.373
-56634.245
-54051.181
-51296.018
-48520.085
-45673.763
-42822.933
-39774.871
-36886.373
-33788.349
-30761.442
-27618.113
-24627.286
-21434.338
-18508.958
-15596.353
-12770.42
-11070.224
-8878.3738
-8092.5475
14323.826
14823.119
11328.61
12281.768
7759.9397
7904.624
3782.7688
2213.321
-642.9735
-3199.8167
-3221.3601
-6900.7715
-6644.5649
-11463.534
-9364.9222
21095.219
16655.122
16486.25
19035.53
20997.53
24207.729
27218.237
30548.185
33729.245
37207.473
40506.528
43781.356
47106.961
50472.846
53812.83
56962.749
60248.138
63291.656
66287.92
69273.255
72047.875
74835.311
77482.469
79980.021
82175.356
84061.392
85053.867
90500.023
89748.656
92491.82
93952.87
95434.481
96623.865
97789.915
98728.941
99537.614
100246.87
100778.25
101251.08
101614.99
101906.15
102146.79
102404.23
102607.51
102897.07
103218.29
103633.71
104171.71
104819.76
105666.39
106638.21
107813.18
109220.58
111041.42
112628.73
114737.25
116891.86
118523.34
122782.71
125326.09
127553.98
132651.35
134905.21
139354.23
140822.04
147982.67
149004.16
156227.98
158517.01
164424.11
167865.83
170588.03
178255.59
182163.87
184393.07
191587.31
193912.05
199469.19
203055.71
208869.74
215554.76
213026.26
218232.88
223331.54
230173.03
227924.16
233177.08
231757.12
233206.46
229012.07
226722.75
240192.47
232375.9
213084.42
278482.24
658097.58
713884.55
755020.36
783349.7
795084.57
819506.17
814548.69
826298.25
813903.06
793755
807126.76
752991.43
725418.38
759702.38
587066.34
-1012141.7
-1291261.4
-1283162.7
-1383948
-1354061.5
-1290344.7
-1483461.2
-1589430.7
-1489521.7
-1500076.8
-1443691.8
-1397845.5
-1318466.6
-1305636.2
-1223083.5
2318.0502
2336.0661
3045.4022
3365.0082
4421.4005
4958.0171
5129.6234
5169.4901
5150.1091
4808.9434
4517.7811
3587.929
3180.1002
2706.9062
2960.0434
-421.75957
2506.0891
1803.6842
1276.5801
470.88559
350.98474
-193.06487
-153.68579
-10.78391
128.94052
964.9754
1550.1477
1803.3046
5153.5464
101.0543
225412.02
230886.44
202059.35
203637.77
206870.02
209033.55
209183.1
210284.81
209689.03
208075.88
205799.41
205527.31
201033.71
198335.34
194307.49
192847.6
187134.39
184184.23
179432.49
175917.06
171752.06
168001.01
163037.81
158945.5
154536.29
150639.11
145995.5
142034.18
137841.83
133982.14
129832.27
126195.05
123000.43
119325.43
116261.67
113275.83
110479.84
107435.18
105360.84
103402.83
101518.33
99802.145
98274.791
96816.161
95558.562
94581.356
93496.537
92822.444
91967.405
91393.908
90711.846
90194.386
89564.381
89013.194
88376.51
87716.265
86982.326
86168.37
85281.833
84287.796
83185.837
81962.729
80689.862
79354.749
77514.009
76020.652
74017.89
72156.176
70188.288
68336.89
66289.816
64278.566
61968.622
59986.872
57534.232
55469.624
52896.614
50880.271
48105.552
46108.291
43406.916
41093.612
38650.092
36443.066
33672.663
31126.414
28717.603
25709.924
23415.635
21345.923
17796.496
15938.821
13983.293
8012.7577
3166.4936
215468.15
194803.45
169587.05
175571.85
174781.84
176194.19
176167.13
178284.59
177712.92
178459.72
176568.84
175882.01
173490.61
172395.67
169047.91
166456.41
163091.4
160738.07
156788.66
153689.59
149876.22
145872.31
142431.58
138878.83
135129.77
131137.63
127767.7
123962.25
120402.8
116768.02
113529.77
110125.31
106916.48
103848.02
101089.7
98222.291
95655.112
93367.31
91181.52
89152.663
87249.029
85922.76
83975.234
82825.261
81538.546
80584.694
79570.877
78852.971
77996.072
77401.445
76681.011
76125.266
75450.041
74866.894
74196.111
73507.677
72765.008
71972.889
71089.77
70156.804
69118.411
68034.367
66910.764
65629.803
64314.645
63675.554
62687.559
61324.475
60057.043
58464.503
56747.713
55169.765
53175.011
51588.637
49268.484
47804.439
45334.333
43886.433
41296.227
39922.457
37348.336
35493.984
33393.218
30406.353
28197.556
26104.885
23352.798
21543.045
19324.005
16559.628
14315.125
12138.576
8211.4527
4480.7497
-2028.5685
168404.3
167690.41
139836.34
147510.37
143864.05
146654.19
148000.82
150015.43
149170.25
149633.12
148852.21
148727.75
146745.63
145256.7
143172.63
141632.25
138623.37
136478.07
133402.69
131029.66
127928.28
125189.92
122197.68
119060.06
115703.01
112815.84
109502.51
106324.67
103318.34
100236.31
97220.312
94339.225
91594.72
88925.411
86376.661
84060.722
82002.854
80004.204
78228.836
76468.422
74639.606
73231.709
72082.47
70982.682
69963.848
69027.492
68145.057
67398.065
66660.812
66016.233
65359.545
64782.954
64123.926
63552.125
62878.998
62212.726
61499.749
60730.629
59897.655
59014.774
58061.962
57043.994
55955.013
54703.314
53681.95
52571.451
51715.44
49733.181
48887.976
47611.502
46273.866
44747.778
43064.514
41594.988
40075.092
38476.705
36975.589
35303.687
33877.133
32113.618
30544.851
29064.62
26969.331
25543.117
24220.515
22150.144
20117.937
18554.022
16389.282
14436.225
12622.358
9258.157
7186.3393
1926.237
-635.90968
137395.72
137405.24
109257.21
119289.62
112920.22
117281.88
117276.77
119095.14
118406.62
120299.48
119327.89
119633.32
117656.56
118044.03
115452.33
114832.45
112123.74
111204.39
108321.04
106690.87
103769.85
101782.29
98995.215
96492.362
94099.85
91429.891
88967.53
86413.351
83901.055
81312.639
79069.226
76547.676
74368.864
72081.534
70345.15
67904.865
66386.376
64078.482
62491.007
60892.014
59987.394
58712.551
57553.531
56432.41
55523.268
54724.81
53938.895
53306.42
52640.441
52066.071
51458.49
50935.601
50323.201
49801.875
49173.795
48594.819
47937.087
47277.439
46548.288
45816.727
45018.381
44174.365
43288.999
42439.856
41467.137
40526.708
39655.306
38317.891
37217.669
36169.347
35278.102
34000.074
33207.65
32115.058
30911.201
29746.456
28522.886
27460.732
26111.454
25058.815
23770.516
22642.689
21176.625
19944.214
18428.616
17635.254
16078.158
14674.759
13071.609
11607.867
9315.1483
7519.5938
4774.6633
1723.7443
-2211.0654
111816.02
102893.6
82707.289
89290.222
86852.45
88792.171
89725.861
90837.961
90418.229
91396.165
90944.151
90453.623
90262.561
89237.35
88143.421
87309.013
85342.182
84451.695
82396.182
81024.682
79237.18
77628.336
75538.711
73979.176
71919.797
69994.597
68059.561
66040.079
64153.566
62318.644
60434.699
58620.095
56940.425
55412.319
53724.56
52271.723
51810.099
51212.092
49982.656
50336.08
48647.746
47809.207
47111.139
46314.599
45666.646
44987.338
44298.937
43713.11
43144.929
42562.662
42027.435
41523.922
40952.987
40454.625
39889.332
39337.908
38758.061
38146.551
37532.495
36854.397
36193.408
35396.972
34778.762
33892.739
33040.093
32398.554
31437.978
30563.966
29536.006
28702.556
27858.856
26913.162
25441.528
24531.658
23356.853
22491.889
21694.294
20762.353
19962.555
19183.414
18157.642
17526.498
16448.495
15878.953
14688.005
14105.415
12586.797
11842.697
10341.023
8956.943
7519.9772
5996.2075
4296.0631
1312.4147
-1286.5053
70304.165
73461.554
55027.764
63139.197
58906.863
60131.988
60675.631
62246.079
60790.323
62850.503
61128.256
62419.995
60531.288
61253.891
59493.863
59535.112
57856.808
57964.786
55767.65
55570.246
53767.002
52775.365
51365.066
50188.338
48727.94
47477.746
46197.6
44825.953
43655.452
42194.293
41069.856
39729.335
38769.953
37424.538
36502.82
35662.561
35116.154
34653.904
34897.623
34375.965
34420.099
33685.573
33059.532
32566.062
32062.574
31575.456
31084.173
30677.078
30220.299
29806.038
29387.319
28983.793
28536.827
28133.201
27693.983
27238.444
26794.148
26324.409
25830.319
25334.33
24816.019
24301.579
23720.711
23161.874
22676.099
21935.635
21514.541
20835.24
20265.422
19740.963
19093.57
18365.207
17844.824
16548.734
15650.816
15211.975
14618.692
14203.724
13563.858
13365.942
12403.202
12509.029
11271.822
11403.743
10125.979
10270.338
8852.9656
8967.4335
7529.9129
7473.7001
6304.8926
5229.7232
3756.049
1621.5138
267.63847
39339.135
37534.581
28903.16
35204.446
30920.669
31720.12
32747.705
32944.802
32101.483
32454.724
32737.51
31818.381
32064.793
31877.117
31006.539
31244.513
30228.275
30103.102
29074.394
29214.181
27928.75
27960.923
26913.942
26507.753
25703.556
25150.768
24325.243
23732.043
22978.16
22327.198
21740.908
21161.764
20517.669
20008.773
19630.6
19083.882
18756.037
18524.685
17928.887
17401.497
17212.52
17061.015
16701.418
16674.152
16460.318
16371.669
16093.733
16014.912
15749.279
15601.936
15370.125
15184.014
14921.314
14739.011
14458.045
14223.94
13960.28
13691.921
13394.327
13120.086
12814.744
12480.669
12190.787
11870.982
11492.494
11225.428
10830.273
10503.639
10136.973
9827.8699
9481.6932
9230.5414
8714.3121
8702.1306
8653.9397
8440.5337
8183.7801
7916.8106
7779.2712
7516.4456
7298.3825
7231.1858
6724.3158
6954.5683
6210.3846
6512.3841
5710.1938
5992.1426
5137.145
5075.3148
3936.4288
3463.245
2995.4214
2131.0674
1499.0969
1193.4271
8279.7471
1354.7183
6660.1215
3851.339
5120.9018
4301.6685
5354.9386
2647.5005
5166.5505
3101.1152
4086.9894
3361.9271
3840.8818
3122.8021
4037.248
2897.9332
4072.6505
3144.1816
3797.1963
3190.7362
3690.4164
2946.4816
3397.8832
2973.3478
3050.5055
2955.1541
2891.9336
2828.2294
2685.0535
2776.3426
2458.1458
2611.3379
2517.7561
2563.9297
2397.7968
2792.7345
2447.7064
2820.109
2607.5018
2765.2069
2902.9979
2802.2308
2770.7147
2819.0597
2739.4465
2669.2613
2676.8234
2573.1895
2499.4658
2400.1311
2309.2122
2169.1912
2066.9342
1928.3156
1798.0322
1668.378
1544.7175
1402.3689
1298.5158
1159.5773
1051.9577
953.30555
835.54437
773.00998
677.40023
638.09313
572.36289
550.16049
533.2585
510.94284
497.19408
446.71256
514.93334
525.6991
675.90758
704.63525
888.36576
998.96147
1174.4969
1353.2523
1467.0132
1714.3624
1838.43
1903.6766
2292.9492
1944.5614
2716.8255
1958.9148
2970.5234
2547.8989
3499.2014
3279.2411
2828.4454
3165.9677
-26492.72
-24611.011
-23341.673
-21207.677
-22335.871
-23767.21
-23608.374
-24771.734
-24979.999
-25462.227
-25066.376
-25496.223
-25129.655
-24514.759
-24477.276
-23728.644
-23697.393
-22363.358
-23126.118
-21293.671
-21906.483
-20530.18
-20716.17
-19351.387
-19540.211
-18311.882
-18331.908
-17448.674
-17208.648
-16497.167
-16187.379
-15620.679
-15081.188
-14674.402
-14198.106
-13600.568
-13322.959
-12738.216
-12318.284
-11868.714
-11543.684
-11074.213
-10885.655
-10418.108
-10164.596
-9887.7818
-9734.3199
-9454.3756
-9373.3939
-9219.5512
-9128.9689
-9014.5289
-9003.8909
-8909.4925
-8893.5396
-8866.7084
-8840.557
-8804.8984
-8813.9504
-8761.7915
-8742.8695
-8720.0088
-8671.4865
-8620.7208
-8587.953
-8489.4828
-8408.0897
-8289.6372
-8154.2645
-7969.7225
-7838.4867
-7512.5621
-7281.6553
-6996.8819
-6973.8595
-6781.9587
-6280.8336
-5936.3062
-5490.3428
-5111.9099
-4559.264
-4216.6173
-3593.0894
-3161.2076
-2718.0707
-1871.8525
-1817.0024
-443.17526
-751.52881
804.64165
369.38174
1198.1616
1159.5212
2660.5645
4232.016
-60401.246
-56427.728
-49742.894
-48679.575
-51458.776
-51582.377
-53475.372
-52551.963
-55306.169
-53844.624
-54369.744
-54225.363
-53372.385
-52384.523
-52345.018
-50470.785
-50111.06
-48499.944
-47961.613
-45899.257
-45817.968
-43153.785
-42725.863
-40616.942
-40268.916
-38550.547
-38050.932
-36476.914
-35695.986
-34593.086
-33638.88
-32665.863
-31751.898
-30941.106
-29805.84
-29341.623
-28175.926
-27702.092
-26798.081
-26294.508
-25636.21
-25111.193
-24565.71
-24194.107
-23771.787
-23437.875
-23157.021
-22838.992
-22661.713
-22457.818
-22280.022
-22144.001
-22043.579
-21901.163
-21810.759
-21715.053
-21587.323
-21473.976
-21359.34
-21170.546
-21025.44
-20830.326
-20589.227
-20361.333
-20094.664
-19774.237
-19440.923
-19110.405
-18678.743
-18302.144
-17796.32
-17277.593
-16776.757
-15688.207
-14455.389
-13688.08
-12824.633
-12242.039
-11375.85
-10887.804
-9732.5609
-9462.4115
-8085.2904
-7760.3779
-6601.1543
-5718.469
-5194.0162
-3452.0945
-3598.6484
-1289.2502
-1406.9963
125.85918
1338.7642
3163.1286
5005.7919
-93563.933
-75123.029
-69805.99
-70901.473
-73798.339
-74542.863
-76097.946
-76921.153
-78289.447
-77689.601
-77672.011
-77199.518
-76031.653
-74874.645
-74083.294
-71513.9
-71529.779
-68351.027
-68315.026
-65629.88
-65568.307
-64658.824
-64829.63
-61997.628
-61855.046
-58893.93
-58428.041
-55736.694
-55012.304
-52856.414
-51735.992
-50129.213
-48938.328
-47406.616
-46304.126
-44928.531
-43842.763
-42728.186
-41693.23
-40706.689
-39858.048
-38915.972
-38223.937
-37466.717
-36835.107
-36199.604
-35752.425
-35203.383
-34844.686
-34422.537
-34105.349
-33768.875
-33515.275
-33211.371
-32979.404
-32723.044
-32477.81
-32220.881
-31970.01
-31674.177
-31396.788
-31063.052
-30723.095
-30362.282
-29995.231
-29536.173
-29071.877
-28530.559
-27976.601
-27333.057
-26666.209
-26027.877
-25154.582
-24208.727
-22947.821
-22426.879
-20848.567
-19759.323
-18661.141
-17585.72
-16544.597
-15304.136
-14221.252
-12971.277
-11679.685
-10593.105
-9031.5509
-8029.0913
-6388.7829
-4991.6084
-3673.043
-1485.3394
153.09449
2688.3006
6999.7127
-113538.61
-109063.33
-100900.69
-98663.715
-102123.33
-101552.47
-105196.82
-104887.03
-106048.75
-105397.03
-105590.47
-103632.15
-103413.02
-100476.72
-99781.872
-96960.515
-95555.339
-92524.91
-91698.208
-87903.785
-87441.93
-83453.147
-84433.388
-81844.638
-80696.972
-77685.137
-76419.127
-73544.572
-72026.257
-69487.501
-67967.266
-65829.773
-64165.374
-62531.824
-60713.12
-59434.497
-57776.656
-56580.752
-55190.139
-54132.923
-52962.366
-52080.971
-51177.233
-50435.891
-49740.228
-49117.487
-48635.915
-48118.665
-47729.675
-47383.025
-47061.854
-46776.067
-46539.111
-46280.333
-46045.258
-45815.035
-45549.488
-45266.591
-44978.629
-44617.566
-44235.851
-43799.957
-43300.034
-42754.509
-42171.883
-41499.389
-40821.269
-40074.786
-39216.295
-38327.629
-37425.125
-36329.106
-35272.126
-34154.153
-32784.963
-32059.366
-30621.017
-29107.557
-27604.37
-26099.394
-24473.877
-22859.952
-21152.807
-19447.079
-17620.338
-16016.762
-13870.023
-12466.367
-10318.136
-8412.8525
-6919.0392
-3547.8777
-1293.3975
3594.626
8389.6257
-162746.53
-147642.68
-128837.53
-136212.41
-134523.71
-139157.49
-138836.56
-140876.34
-140012.73
-140103.13
-138435.94
-137603.18
-134870.68
-133004.86
-130372.34
-127323.56
-124867.14
-121312.31
-119121.91
-115244.66
-113582.69
-109256.74
-107172.6
-102871.73
-101215.33
-97248.677
-96046.814
-92168.368
-90490.436
-87300.655
-85386.697
-82535.478
-80811.658
-78421.227
-76661.921
-74665.029
-72876.634
-71218.684
-69714.683
-68231.173
-66996.705
-65754.314
-64676.44
-63655.794
-62789.314
-61943.206
-61299.266
-60582.37
-60070.797
-59539.263
-59080.611
-58636.319
-58267.196
-57851.2
-57490.956
-57108.676
-56708.605
-56295.675
-55866.116
-55367.054
-54861.698
-54278.853
-53655.217
-52952.31
-52229.767
-51387.057
-50551.52
-49537.17
-48552.078
-47437.119
-46227.285
-45005.188
-43630.446
-42226.428
-40677.304
-39277.457
-37655.518
-35990.362
-34159.451
-32329.332
-30427.463
-28452.624
-26434.329
-24370.109
-22295.841
-20104.638
-17940.874
-15873.332
-13249.642
-11467.693
-8434.1949
-5916.3486
-3090.5503
1253.1389
6613.1982
-183110
-173892.57
-150429.11
-159678.5
-161706.63
-164392.47
-165115.61
-167103.88
-166224.04
-165202.04
-165055.65
-161647.31
-160350.44
-157249.21
-153914.7
-150740.12
-147877.56
-143096.94
-141011.79
-136259.29
-133344
-129487.96
-126827.12
-123413.87
-120297.42
-116696.37
-113602.03
-110186.36
-107609.29
-104171.16
-101526.29
-98624.772
-95841.825
-93324.344
-90892.238
-88865.604
-86617.37
-84844.429
-82913.52
-81346.396
-79802.661
-78474.63
-77285.527
-76231.185
-75333.463
-74528.199
-73851.129
-73262.035
-72773.506
-72352.011
-71977.765
-71661.068
-71371.143
-71080.718
-70792.685
-70491.27
-70148.038
-69763.988
-69326.231
-68820.006
-68239.779
-67582.036
-66827.235
-65958.049
-65006.843
-63887.9
-62772.189
-61538.294
-60269.135
-58815.496
-57374.751
-55711.91
-53963.873
-52272.454
-50255.176
-48332.673
-46212.988
-44079.333
-41814.867
-39573.226
-37192.096
-34765.557
-32293.479
-29791.765
-27140.645
-24630.939
-21937.313
-19296.171
-16541.234
-14231.9
-10649.618
-8881.4177
-4974.8685
-614.28038
6203.7486
-259934.75
-174189.04
-188703.66
-185759.29
-193740.46
-189205.45
-194486.06
-193559.69
-192950
-191981.83
-189619.05
-188242.98
-184692.04
-181435.22
-177683.39
-173895.13
-170821.63
-165965.67
-163019.4
-157364
-154161.6
-149234.09
-146639.08
-142096.96
-139871.9
-134279.13
-131736.36
-126760.3
-124533.75
-120133.49
-117410.93
-113793.58
-110811.69
-107582.95
-104521.93
-102350.66
-99910.591
-97735.295
-95618.184
-93709.846
-91986.997
-90440.202
-89069.237
-87813.057
-86812.8
-85834.733
-85118.323
-84437.763
-83904.181
-83432.003
-83043.397
-82687.279
-82381.313
-82051.555
-81744.508
-81399.046
-81004.045
-80557.703
-80052.066
-79440.486
-78762.699
-77981.221
-77084.703
-76069.901
-74921.723
-73566.467
-72130.368
-70621.012
-69349.349
-67638.041
-65846.977
-63810.683
-61930.004
-59731.121
-57521.476
-55212.544
-52909.746
-50360.595
-47858.823
-45194.048
-42478.031
-39669.797
-36892.173
-33903.999
-31033.923
-28111.851
-25028.985
-22190.927
-19278.892
-16468.969
-13457.42
-11838.048
-8109.8367
-5044.9266
1622.3566
487877.27
487264.04
474077.55
486456.27
488672.32
492260.61
507532.25
497501.87
490629.78
490684.87
486145.06
468110.36
462293.77
488829.79
397797.75
450699.89
470581.08
443905.69
461204.88
458825.27
469158.59
455102.28
471141.58
465336.08
467540.15
457629.12
453244.19
452733.35
458936.14
380887.34
338859.81
387312.35
340774.68
354402.69
356360.24
350397.53
354857.56
350643.3
353858.71
347380.98
346894.57
347603.19
324424.6
358856.9
316753.55
293369.06
304357.52
300456.78
296266.44
305045.38
300729.07
306245.08
303792.57
300742.67
301391.11
300166.58
288434.58
289022.45
310720.35
205991
211916.99
239352.75
209282.54
226084.22
215925.43
225056.27
219948.01
220961.58
219353.01
219212.13
214537.99
214413.72
212075.61
217286.63
188471.77
161151.56
170482.63
155811.94
161606.46
160723.25
160529.83
158609.35
157811.45
158056.73
156244.67
149946.96
156346.18
143334.69
154617.72
142241.36
88807.738
89395.893
90606.809
84415.736
87644.849
87612.737
85038.795
83931.808
82669.962
82325.277
79684.324
75319.767
80960.987
74163.038
75265.154
21260.036
22981.473
14207.696
19558.539
14769.688
15705.366
13268.204
13005.618
10577.509
13995.377
2346.2322
12212.08
14542.999
-3995.6466
32737.793
-38989.133
-47886.692
-40364.792
-48925.268
-47037.911
-49365.595
-50465.276
-52155.712
-53695.722
-51550.392
-60540.026
-50677.782
-54217.112
-69438.778
-10559.901
-98772.053
-120228.38
-111398.35
-114827.36
-117781.8
-119477.14
-123127.76
-123162.1
-128108.71
-120940.55
-139427.19
-118767.78
-120919.42
-146869.56
-79446.572
-168616.55
-204254.4
-174770.24
-196704.25
-187971.06
-195922.04
-194323.42
-196994.89
-198063.69
-191929.58
-197995.44
-192885.16
-185646.11
-204930.04
-131551.81
-250229.45
-238562.64
-245916.18
-237452.85
-253025.32
-252051.99
-257245.04
-259656.37
-262012
-259751.08
-274453.61
-239905.45
-255479.94
-281211.28
-198154.82
-294350.11
-324661.62
-288414.11
-305710.27
-292121.23
-305018.01
-302180.81
-302591.13
-301976.35
-300123.76
-304923.95
-306857.14
-282157.13
-336712.05
-182543.45
-375014.77
-439199.66
-395568.19
-420935.22
-439263.37
-434214.82
-438968.31
-461898.26
-452159.21
-463447.07
-436314.18
-428750.76
-438464.11
-428434.75
-388494.54
-411775.77
-354376.62
-322136.63
-325658.11
-341002.76
-368553.2
-353818.26
-342830.44
-326986.15
-325697.35
-332532.1
-335077.07
-336884.13
-374130.75
-337164.11
-378021.89
-359221.85
-426718.26
-449900.54
-465482.95
-508360.33
-488626.97
-456282.41
-520686.84
-510935.79
-495013.5
-471075.15
-454244.46
-430007.48
-368005.96
-264585.78
-270341.83
-301463.15
-310678.65
-322130.79
-333682.36
-343325.29
-355695.64
-367384.34
-349295.74
-342294.06
-321103.98
-324981.75
-320185.95
-324178.72
-218270.8
-252657.28
-250169.91
-273854.35
-293063.24
-283783.85
-298562.65
-296430.36
-286379.02
-300332.43
-288405.79
-293033.57
-282161.18
-250668.84
-258199.87
-216801.91
-246608.39
-250861.47
-256206.04
-264304.78
-269985.68
-271965.54
-274238.03
-273849.35
-267446.51
-268352.41
-262247.09
-251031.58
-247398.92
-232671.47
-230362.94
-253849.88
-250411.43
-268096.32
-271845.58
-277822.06
-283624.33
-283309.59
-285315.92
-285281.04
-277030.53
-272109.41
-259119.72
-250166.02
-244388.02
-222711.15
-232263.25
-237649.26
-247866.92
-252652.35
-259421.99
-259199.72
-260855.51
-261499.88
-257127.73
-256365.96
-250645.36
-243055.68
-237749.28
-225468.94
-219859.41
-237198.2
-238414.51
-247503.2
-250026.56
-255958.45
-257965.46
-259034.71
-259270.95
-256857.21
-251770.55
-249214.48
-242487.53
-233452.45
-235218.19
-220912.12
-224688.41
-231730.79
-234270.45
-242605.21
-243421.37
-246271.43
-247586.46
-246392.87
-245490.99
-242373.3
-239063
-234034.56
-228314.21
-223039.62
-215034.73
-225927.36
-227749.51
-234933.49
-235523.72
-241729.33
-240277.96
-242601.73
-242538.89
-239311.09
-237985.44
-234429.94
-230887.03
-227121.58
-222819.79
-215128.27
-216758.74
-221138.03
-222018
-226556.77
-227227.93
-229876.51
-229803.61
-228991.96
-230295.27
-226836.88
-226303.8
-222997.83
-219955.44
-217969.41
-208991.68
-215441.97
-216505.64
-221520.19
-223031.72
-226911.38
-226119.5
-228988.36
-228352.35
-227056.56
-227235.17
-225515.44
-222679.25
-221327.67
-219665.11
-208149.89
-208362.52
-211792.21
-212532.07
-215119.38
-215033.45
-217502.97
-218172.89
-218789.72
-218613.95
-218250.22
-217126.92
-216357.93
-214486.67
-213668.34
-204275.32
-205443.17
-206259.62
-209251.34
-209996.39
-213135.04
-213210.48
-214884.74
-214808.28
-215264.66
-214024.28
-214498.36
-211893.54
-212088.89
-211104.11
-199560.81
-200070.08
-202599.44
-202491.16
-204774.81
-204866.52
-206062.6
-206844.73
-207546.43
-206938.24
-207654.68
-207341.18
-206788.52
-206436.74
-206441.59
-195999.92
-196048.73
-197902.25
-198527.67
-200605.26
-200574.93
-201626.97
-202770.95
-203471.71
-204333.42
-203817.32
-204218.55
-202402.03
-203907.28
-203674.93
-191021.5
-191424.25
-193416.24
-193114.15
-194387.77
-194336.08
-197217.57
-195456.73
-196246.53
-196032.07
-196228.75
-196615.47
-194338.03
-195377.16
-194843.37
-187617.27
-187018.47
-188715.86
-187876.22
-190480.63
-190489.04
-191050
-192202.11
-192212.2
-193301.86
-192942.82
-194333.55
-193392.8
-193841.32
-195082.74
-183129.39
-182858.59
-183973.82
-183464.46
-184954.25
-184932.33
-186533.11
-185959.17
-186611.64
-186571.67
-186586.96
-186497.53
-187844.77
-185444.29
-186873.34
-178716.85
-178170.65
-179757.15
-179685.13
-180700.87
-180341.44
-180558.19
-181921.08
-181565.47
-182651.87
-181796.15
-183701.78
-182784.05
-185313.92
-184958
-173769.44
-174091.39
-174553.69
-174737.25
-175387.74
-175646.46
-176882.08
-176125.83
-177607.94
-176679.24
-177110.65
-177833.28
-176760.87
-177928.24
-177453.15
-170575.68
-169359.74
-170793.11
-169715.41
-171306.95
-170174.37
-171945.37
-172238.48
-171764.77
-172754.34
-172539.72
-174054.84
-173635.43
-175047.15
-175594.98
-163891.61
-165662.33
-165065.46
-165713.93
-165898.43
-166292.32
-166611.61
-166903.18
-167429.8
-167822.78
-167802.35
-168547.27
-167710.01
-167653.47
-168944.01
-161748.64
-160515.74
-161490.17
-160991.45
-161847.98
-161622.68
-162334.95
-162323.21
-162339.88
-163174.2
-163017.46
-163728.08
-162983.19
-165036.39
-164671.8
-155885.87
-156126.88
-156170.13
-156712.59
-156826.72
-156681.91
-157950.95
-157046.26
-158258.85
-158158.56
-158147.72
-159584.43
-158747.14
-159629.62
-159742.72
-153031.9
-151792.46
-152378.02
-151732.59
-152590.42
-152208.21
-153194.57
-153065.32
-153260.29
-153872.21
-152953.5
-154286.46
-153937.4
-154703.39
-155164.55
-148224.63
-146687.67
-148023.44
-147096.45
-148043.02
-147581.91
-148265.49
-148086.58
-148716.52
-148955.83
-149688.48
-150003.34
-149083.12
-151034.18
-150249.95
-144287.64
-142559.5
-143642.52
-142742.66
-143687.91
-143537.29
-144043.24
-144152.21
-144160.69
-144549.54
-144366.83
-145405.11
-144484.13
-145443.44
-146286.17
-139998.12
-138322.06
-138750.16
-139024.8
-139298.09
-138971.99
-139506.69
-139271.55
-140051.58
-139990.55
-140382.29
-140842.21
-140320.23
-142115.29
-141377.74
-135717.97
-134793.24
-135419.83
-134346.1
-135253.94
-134824.38
-135296.59
-135357.11
-135430.7
-135911.83
-135646
-136353.9
-136191.07
-136629.63
-137747.9
-132124.35
-130175.49
-131257.29
-130305.42
-131205.85
-130466.78
-131004.57
-130973.92
-131418.96
-131318.49
-131572.26
-132282.68
-131685.97
-133309.82
-133338.83
-128357.38
-126732.88
-127345.49
-126714.18
-127090.76
-127050.24
-127334.87
-126953.37
-127269.99
-127780.16
-127690.5
-128456.71
-127927.17
-128766.06
-129276.92
-124571.23
-122813.91
-123662.7
-122771.7
-123242.61
-123139.14
-123200.73
-123187.34
-123300.38
-123527.11
-123662.46
-124375.08
-124013.18
-125208.78
-125360.05
-121296.04
-119417.98
-120081.43
-119279.67
-119830.3
-119311.12
-119745.35
-119476.36
-119871.36
-120042.26
-120122.02
-120720.57
-120459.63
-121363.34
-121619.65
-117696.35
-116010.84
-116648.17
-115840.8
-116210.9
-115863.74
-116204.6
-115958.86
-116328.21
-116382.16
-116488.27
-117155.06
-116953.76
-117972.8
-118171.32
-114412.88
-112948.72
-113469.64
-112534.51
-112975.32
-112741
-112785.22
-112989.87
-112888.85
-113425.66
-113152.75
-114069.36
-113573.41
-114754.94
-114634.38
-110993.39
-110358.55
-110224.12
-110107.86
-109707
-109686.99
-109701.95
-109651.08
-109838.48
-109932.41
-110196.6
-110614.64
-110736.42
-111359.7
-112198.72
-108926.33
-106958.72
-107490.3
-106664.62
-107237.02
-106532.93
-107161.83
-106645.75
-107288.22
-107088.29
-107294.05
-108053.71
-107718.58
-108898.45
-108893.76
-106091.07
-104773.28
-105037.87
-104391.29
-104467.17
-104292.54
-104308.08
-104332.85
-104521.89
-104501.23
-104722.11
-105210.71
-105198.12
-106032.58
-106311.93
-104024.52
-102145.37
-102702.91
-101791.83
-102199.93
-101636.25
-102041.56
-101784.39
-102010.69
-102179.97
-102264.44
-102941.54
-102720.7
-103726.59
-103836.42
-101721.21
-100150.25
-100585.84
-99831.495
-100064.4
-99738.482
-99990.282
-99691.723
-100089.8
-100045.99
-100247.86
-100712.49
-100647.25
-101531.68
-101770.93
-99823.31
-98173.952
-98664.261
-97777.558
-98133.075
-97672.893
-97925.163
-97760.122
-98032.844
-98121.879
-98225.583
-98798.388
-98667.698
-99651.158
-99743.13
-98088.965
-96569.143
-96969.26
-96236.812
-96549.253
-96104.047
-96461.014
-96144.761
-96512.725
-96461.896
-96648.145
-97109.316
-97065.695
-97883.391
-98066.027
-96634.909
-95030.399
-95489.304
-94689.707
-94983.913
-94639.616
-94878.242