/*--------------------------------*- C++ -*----------------------------------*\
  =========                 |
  \\      /  F ield         | OpenFOAM: The Open Source CFD Toolbox
   \\    /   O peration     | Website:  https://openfoam.org
    \\  /    A nd           | Version:  6
     \\/     M anipulation  |
\*---------------------------------------------------------------------------*/
FoamFile
{
    version     2.0;
    format      ascii;
    class       pointVectorField;
    location    "0.95";
    object      u;
}
// * * * * * * * * * * * * * * * * * * * * * * * * * * * * * * * * * * * * * //

dimensions      [0 1 0 0 0 0 0];

internalField   nonuniform List<vector> 
3969
(
(0 -4.1196148e-20 0)
(0 -2.2530251e-19 0)
(-0.20505288 -0.0017878843 0.027974913)
(-0.20520749 0.01611232 0.027158519)
(0 2.247018e-18 0)
(0 1.8560317e-18 0)
(-0.20424311 0.008621588 0.027093709)
(-0.20410464 -0.0093442726 0.02796867)
(0 9.3864154e-20 0)
(0 5.6418609e-19 0)
(0 2.5268068e-19 0)
(-1.5110149e-18 -1.3605549e-19 0)
(0 7.4454021e-19 0)
(0 -4.2924978e-19 0)
(0 -4.0989936e-19 0)
(-0.20507982 0.00038686368 0.027832194)
(-0.20515494 0.0026165637 0.02770443)
(-0.20520939 0.0048915836 0.027625328)
(-0.20524999 0.0071975883 0.027555405)
(-0.20525983 0.0095036241 0.027493391)
(-0.20524014 0.011766998 0.027411403)
(-0.20520484 0.013971044 0.027297102)
(-0.0012028006 -0.0028403626 -0.0029628846)
(-0.0020971104 -0.004798907 -0.0036706954)
(-0.0040392138 -0.006625409 -0.0038896962)
(-0.0065163874 -0.008598373 -0.0038290173)
(-0.0096797436 -0.01018771 -0.0036678482)
(-0.013246846 -0.011886613 -0.0033865163)
(-0.017384077 -0.013213243 -0.0030993793)
(-0.021797133 -0.01457197 -0.0027354507)
(-0.026674363 -0.015587539 -0.0023682301)
(-0.031767292 -0.016640193 -0.0019535854)
(-0.037205859 -0.017375092 -0.0015077039)
(-0.042829286 -0.018141552 -0.0010125159)
(-0.048680278 -0.01863256 -0.00051829153)
(-0.054682186 -0.019119662 5.3972302e-05)
(-0.060805772 -0.019402216 0.00062275038)
(-0.067054253 -0.019655884 0.0012466237)
(-0.073361905 -0.019742762 0.0018892087)
(-0.079740343 -0.019785676 0.0025692874)
(-0.086136851 -0.019688404 0.003285124)
(-0.092555211 -0.019530273 0.0040295191)
(-0.098948685 -0.019257424 0.0048185398)
(-0.10531491 -0.018908821 0.0056327021)
(-0.11161213 -0.018459799 0.0064886831)
(-0.11782611 -0.017927386 0.0073676038)
(-0.12392073 -0.017317146 0.0082775383)
(-0.12987729 -0.016607051 0.009204025)
(-0.13565491 -0.01582818 0.01014554)
(-0.14123565 -0.014980337 0.011090691)
(-0.146587 -0.014059903 0.012041209)
(-0.1516979 -0.013099711 0.01298473)
(-0.15654014 -0.012089435 0.013921196)
(-0.16110674 -0.011060916 0.01484435)
(-0.16538929 -0.010018806 0.015754821)
(-0.16938418 -0.0089838591 0.016645076)
(-0.17309416 -0.0079720359 0.017521279)
(-0.176527 -0.0069997591 0.018375148)
(-0.17969808 -0.0060757388 0.019208525)
(-0.18262247 -0.0052315269 0.020023452)
(-0.18532553 -0.0044515395 0.020815748)
(-0.18783389 -0.003777496 0.021600639)
(-0.19017602 -0.0031867436 0.022363364)
(-0.19239532 -0.0027065867 0.023129448)
(-0.19451558 -0.0023308621 0.023890557)
(-0.19659937 -0.0020469919 0.024664721)
(-0.19864621 -0.001880321 0.02545684)
(-0.20075017 -0.001771731 0.026278668)
(-0.20287573 -0.0017647363 0.027128785)
(-0.0008397692 0.0031995514 0.0041608707)
(-0.003059551 0.0053256999 0.0037845902)
(-0.0051320884 0.007839801 0.0041885916)
(-0.0077041288 0.0098033415 0.0039492498)
(-0.011127225 0.012214961 0.0036702452)
(-0.014830953 0.014156388 0.0033980013)
(-0.01906607 0.016186687 0.003100974)
(-0.023648952 0.017890362 0.0028713937)
(-0.028616158 0.019605475 0.0026687338)
(-0.033800774 0.020977335 0.0025327963)
(-0.039353608 0.022407087 0.0024540678)
(-0.045015876 0.023481292 0.0024161439)
(-0.050935208 0.024577252 0.0024675096)
(-0.056976141 0.025442727 0.0025288772)
(-0.063145603 0.026216796 0.002688689)
(-0.069406062 0.026844347 0.0028629028)
(-0.075740497 0.027368631 0.0031168959)
(-0.08210786 0.027762256 0.0033911998)
(-0.088518227 0.028066437 0.0037268044)
(-0.094883328 0.028235553 0.0040926001)
(-0.10128146 0.028336432 0.0045024958)
(-0.10756153 0.028293606 0.0049452185)
(-0.11383045 0.028185166 0.0054265498)
(-0.11994021 0.027940271 0.0059386823)
(-0.12597803 0.027632558 0.0064775456)
(-0.13180946 0.027203283 0.0070567733)
(-0.13752573 0.026720775 0.0076646635)
(-0.14298867 0.026125283 0.0083099446)
(-0.14824279 0.02548648 0.0089812355)
(-0.15324709 0.024785113 0.0096929999)
(-0.15798004 0.024039557 0.010442282)
(-0.16244481 0.023266596 0.01122966)
(-0.16661653 0.022474213 0.012059728)
(-0.17050897 0.021682644 0.012926696)
(-0.17411597 0.020901217 0.013833171)
(-0.17744909 0.020145576 0.014774422)
(-0.18052608 0.01942999 0.015745865)
(-0.1833644 0.018771099 0.016749427)
(-0.18598038 0.018164582 0.017774866)
(-0.18841593 0.017642074 0.018815831)
(-0.19069038 0.017189107 0.019875316)
(-0.19284658 0.016825591 0.020939422)
(-0.19491229 0.01653988 0.022012756)
(-0.19693523 0.016339435 0.023074683)
(-0.19893989 0.0162063 0.024131172)
(-0.20097368 0.016136974 0.025164242)
(-0.20305361 0.016118759 0.026172748)
(0 -2.4511243e-20 0)
(0 2.8717935e-19 0)
(0 -3.5094003e-19 0)
(7.4306452e-19 -7.5636903e-20 0)
(0 -6.4227568e-19 0)
(0 -2.9938488e-19 0)
(0 -2.4479744e-19 0)
(-0.0018647129 0.0021767873 -0.0033197135)
(-0.0033171067 0.0064177314 -0.0042578319)
(-0.0049201623 0.0070565107 -0.0041513084)
(-0.0078974003 0.01010245 -0.0043050726)
(-0.011006777 0.011835931 -0.0040700614)
(-0.014748046 0.013771108 -0.0037997856)
(-0.018909333 0.015503801 -0.0034786163)
(-0.023487461 0.017076072 -0.0031745691)
(-0.028341847 0.018345269 -0.0027227673)
(-0.033564006 0.019674547 -0.0024242089)
(-0.039009954 0.020560799 -0.0019026381)
(-0.044654053 0.021469782 -0.0014717283)
(-0.050629396 0.022214207 -0.00093668403)
(-0.056529426 0.022674722 -0.00039577979)
(-0.062801524 0.023288453 0.00015042989)
(-0.068930562 0.023434137 0.00078405658)
(-0.075323537 0.023808553 0.0013834638)
(-0.081608785 0.023783745 0.0020697596)
(-0.088023104 0.023882876 0.0027476831)
(-0.094360884 0.023716999 0.0034905443)
(-0.10072955 0.023577482 0.0042482486)
(-0.10701464 0.023258218 0.0050578127)
(-0.11325452 0.022916754 0.0058861876)
(-0.11938484 0.022446162 0.0067568018)
(-0.12539629 0.0219213 0.0076405064)
(-0.131233 0.0213104 0.0085305718)
(-0.13688739 0.020617237 0.0094416153)
(-0.1423456 0.019874307 0.010349951)
(-0.14756904 0.019066322 0.011266334)
(-0.15254088 0.018218675 0.012175655)
(-0.15724863 0.017342617 0.013072547)
(-0.16167761 0.016447168 0.013961534)
(-0.16582377 0.015545148 0.014837327)
(-0.16968636 0.014658787 0.015696782)
(-0.17327052 0.013792063 0.016542)
(-0.17657227 0.012963036 0.017369616)
(-0.17964191 0.012206468 0.018179034)
(-0.18244872 0.011467476 0.01897786)
(-0.18505105 0.010835704 0.019758207)
(-0.18746385 0.010269692 0.02053191)
(-0.18972314 0.009793111 0.021296548)
(-0.19186081 0.0093992997 0.022067339)
(-0.19392074 0.0090954188 0.022845688)
(-0.19593618 0.0088757592 0.023641687)
(-0.19794717 0.0087296622 0.024463766)
(-0.19999183 0.0086583677 0.025315017)
(-0.20209242 0.008624643 0.026203311)
(-0.2042431 0.0064610035 0.027174266)
(-0.20428183 0.0042528204 0.027270801)
(-0.20429535 0.0019665348 0.027398493)
(-0.20430709 -0.00033500296 0.027544444)
(-0.20425425 -0.0026711176 0.027686428)
(-0.20421086 -0.0049335616 0.027812887)
(-0.2041257 -0.0071712844 0.027903321)
(-0.20191311 -0.0093174552 0.026928308)
(-0.19979977 -0.0093264984 0.025886546)
(-0.19771913 -0.0094066423 0.024813404)
(-0.19567259 -0.0095629902 0.023714401)
(-0.19361442 -0.0098171371 0.022601611)
(-0.1915124 -0.01016573 0.021475029)
(-0.18932378 -0.010616888 0.020349766)
(-0.1870168 -0.011164513 0.019225839)
(-0.18455084 -0.011804676 0.018112149)
(-0.1818998 -0.012521529 0.017013267)
(-0.17904394 -0.013321239 0.015935022)
(-0.17589069 -0.014191825 0.014891981)
(-0.17254973 -0.015069645 0.013864466)
(-0.16889994 -0.016000601 0.012877352)
(-0.1649731 -0.016934205 0.011922664)
(-0.16075935 -0.017865293 0.011013187)
(-0.15626249 -0.018771814 0.010140384)
(-0.15148975 -0.019644971 0.0093109973)
(-0.14645427 -0.020461677 0.008520846)
(-0.14117111 -0.0212206 0.0077747763)
(-0.13566662 -0.021892153 0.0070605026)
(-0.12996015 -0.022490267 0.0063936884)
(-0.12407766 -0.022981765 0.0057577623)
(-0.11805119 -0.023392095 0.005165438)
(-0.11190405 -0.023679412 0.0046012761)
(-0.10566508 -0.023891432 0.0040875098)
(-0.099363973 -0.023968428 0.0035935844)
(-0.093015944 -0.023979878 0.0031646748)
(-0.086658457 -0.023851077 0.0027493428)
(-0.080298553 -0.023656005 0.0024054631)
(-0.073977563 -0.023330058 0.0020870077)
(-0.067694919 -0.022918133 0.0018269384)
(-0.06149495 -0.022389167 0.0016259842)
(-0.055410297 -0.0217582 0.0014521393)
(-0.049451347 -0.020978094 0.0013631751)
(-0.043606231 -0.020123384 0.0013202974)
(-0.038015011 -0.019091052 0.0013297498)
(-0.032563713 -0.018001768 0.001432582)
(-0.027433909 -0.01672327 0.0015739229)
(-0.02256152 -0.015380416 0.0017687703)
(-0.018110957 -0.01374593 0.0020113861)
(-0.013838026 -0.012230248 0.0023656775)
(-0.010269149 -0.010302286 0.0026390555)
(-0.0069844043 -0.0085683874 0.0029855678)
(-0.0043535269 -0.0065810716 0.0031254025)
(-0.0024971358 -0.0043844016 0.003064917)
(-0.0019934796 -0.0027785433 0.0021635435)
(0 3.0326196e-19 0)
(0 2.3752576e-19 0)
(0 -1.2308537e-19 0)
(0 -8.0877531e-19 4.0474996e-19)
(0 -7.1011184e-19 0)
(0 -1.5612873e-19 0)
(0 7.4661471e-19 0)
(0 1.0594392e-18 0)
(0 1.0099135e-18 0)
(0 9.5958998e-19 0)
(0 8.2875762e-19 -1.0180939e-19)
(0 2.238829e-18 0)
(0 9.814717e-19 0)
(0 -1.8083825e-19 0)
(-0.20506577 0.015134436 0.027140646)
(-0.2049175 0.01416468 0.027126589)
(-0.20478033 0.013211496 0.027126475)
(-0.20465124 0.012267137 0.02712683)
(-0.20453786 0.011333849 0.027130259)
(-0.20443459 0.010419447 0.027131011)
(-0.2043435 0.0095059833 0.027106407)
(-0.20490669 -0.0026407929 0.027983965)
(-0.20476567 -0.0035363287 0.027985806)
(-0.20463141 -0.0044461255 0.027979218)
(-0.2045055 -0.0053770284 0.02796742)
(-0.20439251 -0.0063290958 0.027957095)
(-0.20428823 -0.0073054732 0.027954017)
(-0.20419411 -0.0083047917 0.027968367)
(-0.00030446128 -0.0019788495 -0.0025465955)
(-0.0014749414 -0.0030491898 -0.002543945)
(-0.0033573684 -0.0044944745 -0.0027888569)
(-0.0059182981 -0.0057172311 -0.002780917)
(-0.0090796919 -0.0068982471 -0.0026659083)
(-0.012760079 -0.0079931958 -0.0024940745)
(-0.016964615 -0.0090120594 -0.0022291132)
(-0.021449498 -0.0098670884 -0.0019943456)
(-0.026409317 -0.010665698 -0.0016669782)
(-0.031573442 -0.011344562 -0.0013244)
(-0.037091233 -0.011896937 -0.00092787165)
(-0.042756498 -0.012395189 -0.0005346457)
(-0.048692035 -0.012743799 -5.0127945e-05)
(-0.054724989 -0.013064678 0.00043165901)
(-0.06092826 -0.013261219 0.00095945058)
(-0.06721274 -0.013404975 0.0015251327)
(-0.073577227 -0.013446849 0.0021168557)
(-0.079986788 -0.01343925 0.0027475197)
(-0.086432417 -0.013336727 0.0034090358)
(-0.092877027 -0.013178622 0.0041089093)
(-0.099310873 -0.012945758 0.0048432436)
(-0.10570576 -0.012647156 0.0056112695)
(-0.11203044 -0.012280437 0.0064116749)
(-0.11827665 -0.011861794 0.0072436757)
(-0.12438923 -0.011368904 0.0081012732)
(-0.13036045 -0.010833571 0.0089715182)
(-0.13615482 -0.010238231 0.0098652972)
(-0.14174677 -0.0095950393 0.010769981)
(-0.14710583 -0.0089151618 0.011675394)
(-0.15221956 -0.0081982628 0.012586366)
(-0.15705869 -0.0074522841 0.013492245)
(-0.16161884 -0.0066957108 0.014395464)
(-0.16588895 -0.0059269936 0.015289195)
(-0.16986519 -0.0051683339 0.016174667)
(-0.17355245 -0.0044238392 0.017049596)
(-0.1769615 -0.0037072563 0.017909418)
(-0.1800987 -0.003031564 0.01875949)
(-0.18298782 -0.0024057054 0.019594543)
(-0.18565046 -0.0018281992 0.020416622)
(-0.18812021 -0.0013229473 0.021234528)
(-0.19042201 -0.00087191624 0.022036627)
(-0.19260023 -0.00050253159 0.022846109)
(-0.19468338 -0.00018897322 0.023649462)
(-0.19672859 4.7995482e-05 0.02447006)
(-0.19874291 0.00021906378 0.025296136)
(-0.20081602 0.00034489465 0.026141929)
(-0.20289951 0.00038041324 0.026994384)
(0.00039633677 -0.0011954792 -0.0016222316)
(-0.00082756679 -0.001699585 -0.0016495563)
(-0.0028381044 -0.0027406662 -0.0018511594)
(-0.0053915331 -0.0034427502 -0.00184842)
(-0.0086839919 -0.0041447483 -0.0017598683)
(-0.012447246 -0.0048396008 -0.0016064237)
(-0.016637502 -0.0053667537 -0.0014694355)
(-0.021260485 -0.0059093763 -0.0012593982)
(-0.026240177 -0.0063212408 -0.00099711775)
(-0.03151185 -0.0067177969 -0.00072528264)
(-0.037024716 -0.0069750272 -0.00043288304)
(-0.042798385 -0.0072663865 -4.469222e-05)
(-0.048733358 -0.0073980326 0.00033088389)
(-0.054830097 -0.0075764824 0.00076396557)
(-0.061054815 -0.007613883 0.0012421979)
(-0.067383293 -0.0076682561 0.001745685)
(-0.073772272 -0.0076211931 0.002292099)
(-0.080227537 -0.007569999 0.0028744047)
(-0.08669177 -0.0074301944 0.0034888759)
(-0.093171635 -0.0072803614 0.0041444236)
(-0.099625706 -0.0070645828 0.0048333501)
(-0.1060351 -0.0068111381 0.0055491638)
(-0.11238834 -0.0065272934 0.0063095173)
(-0.11863552 -0.006181819 0.0070876218)
(-0.12476334 -0.0058205384 0.0078958711)
(-0.13075413 -0.005410432 0.0087322298)
(-0.13655346 -0.0049726538 0.0095874086)
(-0.14214811 -0.0045086804 0.010445386)
(-0.14751779 -0.0040110727 0.011326599)
(-0.15262482 -0.0034980112 0.01220541)
(-0.1574634 -0.0029649153 0.013091335)
(-0.16201632 -0.0024256179 0.013979357)
(-0.16627437 -0.0018794639 0.01486289)
(-0.17023735 -0.0013416452 0.015747808)
(-0.17390832 -0.00081331179 0.016624313)
(-0.17729439 -0.00030947082 0.01749981)
(-0.18040758 0.00017243791 0.018362881)
(-0.18327642 0.0006127458 0.01922477)
(-0.18591049 0.0010258062 0.020072856)
(-0.1883548 0.0013826216 0.020921228)
(-0.19062486 0.0017095055 0.021757276)
(-0.19277803 0.0019741589 0.022602446)
(-0.19482957 0.0022078291 0.023437946)
(-0.19684971 0.0023788311 0.02428731)
(-0.19883354 0.0025118901 0.025139665)
(-0.20088532 0.0026020929 0.025998315)
(-0.20293323 0.0026196367 0.026869423)
(0.00061427028 -0.00054062136 -0.0007509028)
(-0.0006247256 -0.00071902228 -0.0007324107)
(-0.0025787277 -0.0011120865 -0.0008041046)
(-0.0052781639 -0.0013638027 -0.00081964962)
(-0.008611479 -0.0015902265 -0.00075495743)
(-0.012341946 -0.0017695427 -0.00076463284)
(-0.016676363 -0.0019369615 -0.00061435253)
(-0.021261013 -0.0020044852 -0.0005117323)
(-0.026322046 -0.0021356378 -0.00032288782)
(-0.031526906 -0.002132951 -0.00017142004)
(-0.037163992 -0.0021827489 0.00013242248)
(-0.042891863 -0.0021796181 0.00040398306)
(-0.048888216 -0.002138296 0.00072992379)
(-0.054999617 -0.0021059654 0.0011208328)
(-0.06126979 -0.0020255711 0.0015321501)
(-0.067605089 -0.0019480427 0.0019774997)
(-0.074032228 -0.0018295546 0.0024859643)
(-0.080491314 -0.0017035433 0.0029986854)
(-0.086977394 -0.0015473248 0.0035782793)
(-0.093473617 -0.00138334 0.0041750931)
(-0.099939365 -0.0011819755 0.0048154134)
(-0.10637759 -0.00098421648 0.0054913266)
(-0.11272616 -0.00074154223 0.0062000822)
(-0.1189904 -0.00051322266 0.0069332907)
(-0.12513413 -0.00025228718 0.007708848)
(-0.13111694 1.6450158e-05 0.0084933431)
(-0.13691009 0.00029944053 0.0092957712)
(-0.14250647 0.00059457877 0.010125931)
(-0.14785837 0.0009049812 0.010959894)
(-0.15295903 0.0012198926 0.011808932)
(-0.15778576 0.0015456596 0.012670381)
(-0.16232294 0.0018725 0.013534988)
(-0.16656641 0.002201353 0.014408258)
(-0.17051248 0.002525034 0.015284613)
(-0.17416282 0.0028389263 0.016164935)
(-0.17752855 0.0031432127 0.017043665)
(-0.18062183 0.0034257576 0.017924756)
(-0.18346164 0.0036935831 0.018803244)
(-0.18607288 0.0039382042 0.019677474)
(-0.18849437 0.0041545343 0.020558149)
(-0.19074932 0.0043529858 0.021429845)
(-0.19288231 0.0045106934 0.022314113)
(-0.19492259 0.0046590851 0.023184904)
(-0.19692596 0.0047578289 0.024081993)
(-0.19890081 0.0048449805 0.024960297)
(-0.20093374 0.0048917816 0.025862686)
(-0.20296386 0.0048974583 0.026749978)
(0.00072098395 0.00013603922 9.0103697e-05)
(-0.00049339862 0.00032959792 0.00025930662)
(-0.002626849 0.00043738978 0.00019929375)
(-0.0052493489 0.00069192059 0.00015569201)
(-0.0086022833 0.00097168517 6.8047564e-05)
(-0.012444188 0.0011904053 0.00011644381)
(-0.016687487 0.0015001863 9.0914978e-05)
(-0.021405661 0.0017557333 0.00016782656)
(-0.02637375 0.0020350778 0.00023551283)
(-0.031749209 0.0022985337 0.00042577169)
(-0.037310398 0.0025259852 0.00060738589)
(-0.043112868 0.0027837319 0.00081403573)
(-0.049113345 0.0030279254 0.0011202267)
(-0.055236886 0.0032094749 0.0014376224)
(-0.061513769 0.0034652695 0.0017830662)
(-0.067851798 0.0036165855 0.0022040313)
(-0.07429359 0.0038526022 0.0026295375)
(-0.080751313 0.0040070041 0.0031202783)
(-0.087255631 0.0042036386 0.0036403289)
(-0.093743295 0.0043715936 0.0041898205)
(-0.10021368 0.0045344895 0.0047912942)
(-0.10662874 0.004702659 0.0054075369)
(-0.11297676 0.0048419141 0.0060691064)
(-0.11923217 0.0049951217 0.0067576153)
(-0.12535342 0.0051423968 0.0074720334)
(-0.13132174 0.0052848573 0.008204733)
(-0.13711753 0.0054272709 0.0089816816)
(-0.14270082 0.005561476 0.0097658159)
(-0.14804928 0.0057004331 0.010571208)
(-0.15314347 0.005831336 0.011399943)
(-0.15796052 0.0059670489 0.012236049)
(-0.16249062 0.0060961734 0.013091181)
(-0.16672593 0.0062261287 0.013955753)
(-0.1706619 0.0063507679 0.014833744)
(-0.1743042 0.0064715791 0.015718367)
(-0.17766163 0.0065852698 0.01661326)
(-0.18074452 0.0066932866 0.017513319)
(-0.18358421 0.0067906522 0.018418495)
(-0.18619687 0.0068771636 0.019327927)
(-0.18861483 0.0069563299 0.020238188)
(-0.19085497 0.0070298054 0.021147878)
(-0.19298267 0.0070880311 0.022063385)
(-0.19500857 0.0071459657 0.022976282)
(-0.19700084 0.0071768805 0.02389719)
(-0.19895878 0.0072122299 0.024808018)
(-0.20097351 0.0072213701 0.025731092)
(-0.20299328 0.0072168793 0.026646542)
(0.00069821889 0.00071990135 0.00099148311)
(-0.00081994575 0.001074823 0.0012593578)
(-0.002801191 0.001866945 0.0011743709)
(-0.0054874826 0.0025631883 0.0010805867)
(-0.0089592374 0.0032966407 0.0010722173)
(-0.012679803 0.0040851644 0.00091110181)
(-0.01708316 0.0046987668 0.00093854384)
(-0.021651162 0.0054709802 0.00085094537)
(-0.026769241 0.0059897908 0.00095217067)
(-0.032034727 0.0066423892 0.00098538614)
(-0.037654971 0.0071322991 0.0010887513)
(-0.043435029 0.0076895908 0.0012714553)
(-0.04942966 0.0080746611 0.0014877466)
(-0.055567952 0.0085290084 0.0017288072)
(-0.06183041 0.0088718425 0.0020475708)
(-0.06818615 0.0092025268 0.0023863629)
(-0.074611608 0.0094995552 0.0027836871)
(-0.081076179 0.0097335093 0.0032114146)
(-0.087568546 0.0099757507 0.0036831293)
(-0.094049692 0.010140805 0.0041898008)
(-0.10051765 0.010319375 0.0047390586)
(-0.10692986 0.010437583 0.0053128344)
(-0.11326712 0.010541516 0.0059420375)
(-0.11951649 0.010607974 0.006583607)
(-0.12562916 0.010646216 0.0072618685)
(-0.13159941 0.010664746 0.0079702523)
(-0.13737759 0.010653189 0.00870212)
(-0.14294874 0.010628173 0.0094472462)
(-0.14828346 0.010587446 0.010225289)
(-0.153363 0.010533014 0.011015915)
(-0.1581659 0.01047124 0.011831514)
(-0.16268102 0.010397263 0.012666747)
(-0.16690102 0.010321999 0.013519786)
(-0.1708219 0.0102409 0.014391032)
(-0.17444988 0.010158187 0.015278261)
(-0.17779001 0.010077566 0.016179712)
(-0.18086079 0.0099979139 0.017093009)
(-0.18368096 0.0099165829 0.018017477)
(-0.18627119 0.0098509248 0.018942208)
(-0.18865469 0.0097945693 0.019881982)
(-0.19089367 0.009739205 0.020823908)
(-0.19300576 0.0096886807 0.021776147)
(-0.19502946 0.0096516452 0.022720244)
(-0.1970107 0.0096077939 0.023680386)
(-0.19897483 0.0095861652 0.024623377)
(-0.20098547 0.0095518641 0.025588562)
(-0.2030162 0.0095336031 0.026533579)
(0.0004037152 0.0013554818 0.0020149268)
(-0.0012908144 0.0022675752 0.0021471822)
(-0.0033307762 0.0036651793 0.0021108659)
(-0.0061271641 0.004752824 0.0021568299)
(-0.0094677037 0.0061391733 0.0018612321)
(-0.01327143 0.0071785718 0.0018137338)
(-0.01754547 0.0083692067 0.0016260011)
(-0.02221713 0.0093805494 0.0015561732)
(-0.027216703 0.010321613 0.0015256045)
(-0.032524332 0.011241092 0.0014760448)
(-0.03808557 0.012013989 0.0015647975)
(-0.043873278 0.012749358 0.0016630806)
(-0.049841558 0.013400936 0.0018109815)
(-0.055949037 0.013963049 0.0020225066)
(-0.062203738 0.014480184 0.0022599742)
(-0.068523307 0.014900195 0.0025679914)
(-0.07493831 0.015279751 0.0028946556)
(-0.081374786 0.015577565 0.0032837248)
(-0.087847392 0.015827926 0.003705481)
(-0.094305464 0.016011119 0.0041642102)
(-0.10075257 0.016143665 0.0046672458)
(-0.10713063 0.016231329 0.0051989331)
(-0.11346675 0.016245336 0.0057809664)
(-0.11966533 0.016199908 0.0063649144)
(-0.12576763 0.016138406 0.0070080204)
(-0.13169661 0.016000268 0.0076595117)
(-0.13744928 0.015850372 0.0083464089)
(-0.14299606 0.015650392 0.0090592518)
(-0.14831123 0.015430942 0.0097976488)
(-0.15336722 0.015179883 0.010564819)
(-0.15815167 0.014910057 0.011359321)
(-0.16265341 0.014629067 0.012180281)
(-0.16685815 0.014338009 0.013026472)
(-0.17077087 0.014043712 0.013898829)
(-0.17439095 0.01375509 0.014792893)
(-0.17772859 0.013471829 0.015709475)
(-0.18079869 0.01320233 0.016644017)
(-0.18362289 0.012952283 0.017596456)
(-0.18621646 0.012714976 0.018559209)
(-0.18863431 0.012510852 0.019539414)
(-0.19087617 0.012338345 0.020521826)
(-0.19299939 0.012192899 0.021508328)
(-0.19502893 0.012068379 0.022500379)
(-0.19701883 0.0119697 0.023490623)
(-0.1989918 0.011897331 0.02447439)
(-0.20099837 0.01183631 0.025456132)
(-0.20303941 0.011803883 0.026426803)
(-2.3500706e-05 0.0020683592 0.0027720881)
(-0.0019310828 0.0033752332 0.0029341703)
(-0.003984996 0.0053025772 0.0031528396)
(-0.0067652332 0.0069942466 0.002957668)
(-0.010112551 0.0086931491 0.0027715477)
(-0.01385765 0.01031555 0.0025878025)
(-0.018188627 0.011843812 0.0023460048)
(-0.022771788 0.013290867 0.0022311933)
(-0.027797677 0.014555945 0.002085969)
(-0.033069175 0.015831283 0.0020199217)
(-0.038602323 0.016809518 0.0020380822)
(-0.044399449 0.017883677 0.0020224804)
(-0.050295838 0.018663795 0.0021710829)
(-0.056424475 0.019463639 0.0022778171)
(-0.06262041 0.020086869 0.0024908474)
(-0.068938401 0.020650058 0.0027255203)
(-0.075314077 0.021100564 0.0030154689)
(-0.081726972 0.021465856 0.0033579124)
(-0.088175534 0.021744153 0.0037234384)
(-0.094605077 0.021941494 0.0041488711)
(-0.10101849 0.022051899 0.0045977877)
(-0.10738715 0.022092846 0.0050920423)
(-0.11367128 0.022049618 0.00561824)
(-0.1198581 0.021928017 0.0061789925)
(-0.12592466 0.021742456 0.0067640705)
(-0.13182706 0.021485216 0.0073756024)
(-0.13756054 0.021170141 0.0080319492)
(-0.14308477 0.020803812 0.0087056905)
(-0.14837026 0.020392205 0.0094156464)
(-0.15340661 0.019939549 0.010156384)
(-0.15817292 0.019460582 0.010927982)
(-0.16265499 0.018959538 0.011732937)
(-0.16684756 0.018446856 0.012570328)
(-0.17074743 0.017931628 0.013439087)
(-0.1743584 0.017422831 0.0143379)
(-0.17768979 0.016928052 0.015263969)
(-0.1807567 0.016457991 0.01621554)
(-0.18357283 0.016016453 0.017190609)
(-0.18617453 0.015614362 0.018177908)
(-0.18858388 0.015255472 0.019185337)
(-0.19083246 0.014945473 0.020200375)
(-0.19295532 0.01468259 0.021226947)
(-0.19499356 0.014467559 0.02225156)
(-0.19698553 0.014297247 0.023278216)
(-0.19896668 0.014169615 0.024290527)
(-0.20097564 0.014071052 0.025301211)
(-0.2030469 0.014008292 0.026292353)
(0 -8.9439609e-20 0)
(0 5.0170718e-19 0)
(0 4.3353104e-19 0)
(0 3.8258354e-19 -1.3114468e-19)
(0 1.5114074e-19 0)
(0 -5.3082778e-21 0)
(0 7.3470615e-20 0)
(0 2.7432664e-20 0)
(0 -1.7824781e-19 0)
(0 -4.3943439e-19 0)
(0 -5.4591118e-19 -9.0646319e-20)
(0 -8.9497194e-20 0)
(0 1.1024431e-19 0)
(0 2.1294472e-19 0)
(0 1.7628254e-19 0)
(0 2.776694e-19 0)
(0 5.0712715e-19 0)
(0 5.0735023e-19 2.555534e-19)
(0 4.3817336e-19 0)
(0 5.1020526e-19 0)
(0 1.7277043e-19 0)
(-3.0740732e-18 1.4481843e-19 0)
(1.3142494e-18 -3.2911563e-19 0)
(-7.6307165e-20 -1.3202856e-19 0)
(2.3659328e-19 -2.3229636e-19 -1.7628185e-19)
(-4.4245007e-19 -3.2469533e-19 0)
(-1.132461e-18 -4.641382e-19 0)
(1.7307168e-19 -3.8324004e-19 0)
(0 2.9331413e-19 0)
(0 1.0499174e-19 0)
(0 -2.0360582e-19 0)
(0 1.9848955e-20 5.194386e-19)
(0 2.2388646e-19 0)
(0 3.2608013e-19 0)
(0 -9.0595592e-20 0)
(0 -2.3712992e-19 0)
(0 -1.9386449e-19 0)
(0 4.5600396e-20 0)
(0 2.2752097e-19 -5.1844454e-20)
(0 1.683396e-19 0)
(0 -6.1012683e-20 0)
(0 1.5752733e-19 0)
(0 2.8496318e-20 0)
(0 -1.6776223e-19 0)
(0 2.4561053e-19 0)
(0 1.5640593e-20 1.7978407e-19)
(0 2.4333344e-19 0)
(0 3.8481754e-19 0)
(0 3.4851417e-19 0)
(-0.0020136684 0.0011569047 0.0020767834)
(-0.0023020352 0.0014293168 0.0013166142)
(-0.0026535586 0.0014682295 0.00064694436)
(-0.0027691252 0.0015509365 5.9972027e-05)
(-0.0027045234 0.0014296271 -0.00047628279)
(-0.002623909 0.0014691681 -0.0010786362)
(-0.0022293138 0.0010919257 -0.0017445461)
(-0.0040740835 0.0054592687 0.0029754748)
(-0.0046990627 0.0057900417 0.0016377032)
(-0.0049313998 0.0053711905 0.00065166937)
(-0.0049391621 0.0051605793 -0.00011140515)
(-0.0050188879 0.0054092066 -0.00089280711)
(-0.0046117312 0.0053826663 -0.001812292)
(-0.0042685276 0.0054701824 -0.0030104799)
(-0.0057543646 0.0073639213 0.0029690261)
(-0.0064186318 0.0070621329 0.0020009266)
(-0.0068568375 0.0071850102 0.00085160777)
(-0.0069093902 0.0071201188 -0.00018696862)
(-0.006800591 0.0069486995 -0.0011650858)
(-0.0064719611 0.0070328487 -0.0020131431)
(-0.0060311379 0.0073209323 -0.0033408058)
(-0.0086667885 0.01005716 0.0028718088)
(-0.0092964089 0.010077511 0.0019012483)
(-0.0095701485 0.0098958222 0.00069317079)
(-0.0096858088 0.009803794 -0.00018880571)
(-0.009589549 0.0098153172 -0.0011826167)
(-0.0093115466 0.0099102361 -0.0023328305)
(-0.0086147035 0.0098275849 -0.0032300488)
(-0.011864337 0.012362081 0.0026441371)
(-0.012381591 0.012170848 0.0017203397)
(-0.012759865 0.012164286 0.00070186001)
(-0.012818512 0.012048814 -0.00027516551)
(-0.012736853 0.011941205 -0.0012455947)
(-0.012388731 0.011971389 -0.0021567372)
(-0.011918449 0.011999693 -0.0032094406)
(-0.015545069 0.014306584 0.0024398046)
(-0.016001163 0.014204157 0.0015141348)
(-0.016271117 0.014071239 0.00059447315)
(-0.016394126 0.013994706 -0.00033676817)
(-0.016232747 0.013957169 -0.0012123511)
(-0.016005245 0.013877531 -0.002172537)
(-0.015416675 0.013849396 -0.0029910368)
(-0.01971789 0.016326553 0.0022003648)
(-0.020157093 0.016267413 0.0014041328)
(-0.020456048 0.0161511 0.00048806131)
(-0.020469371 0.016077652 -0.00025720344)
(-0.020406686 0.015918585 -0.0011543603)
(-0.020082461 0.015875679 -0.0019101715)
(-0.01963965 0.01575737 -0.0027421318)
(-0.024233414 0.017993635 0.0020607027)
(-0.024563687 0.01782142 0.0012402149)
(-0.024760643 0.017690054 0.00050605469)
(-0.02487773 0.017580618 -0.00027564946)
(-0.024740477 0.017479782 -0.001037248)
(-0.024494894 0.017346646 -0.0017849698)
(-0.024074353 0.017256813 -0.0024956431)
(-0.029078062 0.019597981 0.0018933161)
(-0.029438526 0.019537487 0.0012339326)
(-0.029676749 0.019420054 0.00051318375)
(-0.029667192 0.019190026 -0.00017670295)
(-0.029595177 0.019030509 -0.00083182463)
(-0.029309382 0.018843731 -0.0014925305)
(-0.028923398 0.018654649 -0.0021494972)
(-0.034298301 0.021058747 0.0018506772)
(-0.034531593 0.020800162 0.0011894493)
(-0.03468242 0.020627995 0.00050606822)
(-0.034709651 0.020431644 -6.3001985e-05)
(-0.034609687 0.020293909 -0.00071245764)
(-0.034404409 0.020082505 -0.0012948694)
(-0.034041179 0.019942072 -0.0018787151)
(-0.039681361 0.022283866 0.0018280148)
(-0.039937817 0.0221208 0.0012379393)
(-0.040098409 0.021938845 0.00070538495)
(-0.040115554 0.021740887 0.00014027018)
(-0.040055095 0.021473312 -0.00041441384)
(-0.039807863 0.021236831 -0.00091315824)
(-0.039491304 0.020974385 -0.0014712586)
(-0.045398053 0.02347486 0.0018344749)
(-0.045548422 0.023186491 0.0013175906)
(-0.045636425 0.022930047 0.00078716935)
(-0.045619803 0.022584702 0.00029588721)
(-0.0455089 0.022356984 -0.00015957385)
(-0.045314057 0.022100662 -0.00064620992)
(-0.045046094 0.021828675 -0.0010620604)
(-0.051176077 0.024390541 0.001977755)
(-0.051350862 0.024124926 0.0015061846)
(-0.051456189 0.023862898 0.0010601688)
(-0.051462738 0.023617312 0.00063313661)
(-0.05138528 0.023342717 0.00018670052)
(-0.051227419 0.023011678 -0.00018726906)
(-0.050968181 0.022679598 -0.00059532082)
(-0.057204955 0.025300092 0.0020801473)
(-0.057300028 0.024943283 0.0016629818)
(-0.057350174 0.024606731 0.0012676508)
(-0.057288658 0.024220198 0.00088124499)
(-0.057231903 0.023860288 0.0005527583)
(-0.057038435 0.023508798 0.00018716582)
(-0.056839804 0.023156937 -0.00011581558)
(-0.063298793 0.025961877 0.0023002359)
(-0.063392354 0.025606978 0.0019554345)
(-0.063433092 0.025267697 0.0016075306)
(-0.063438552 0.024924987 0.0013007918)
(-0.063348153 0.02457563 0.00097061586)
(-0.06323433 0.024204469 0.00068680679)
(-0.063035473 0.023771265 0.00040265978)
(-0.069520327 0.026584848 0.0025319538)
(-0.06955303 0.026172686 0.0022219058)
(-0.069582084 0.025765102 0.0019351521)
(-0.069496864 0.025313219 0.0016414392)
(-0.069453577 0.024898014 0.0014148649)
(-0.069297913 0.024425727 0.0011560167)
(-0.069161341 0.024023918 0.00096071291)
(-0.075801539 0.027042411 0.0028253876)
(-0.075837156 0.026612288 0.0025892867)
(-0.075811467 0.026168043 0.0023278515)
(-0.075796965 0.025760112 0.0021305645)
(-0.075710768 0.025296122 0.0019125993)
(-0.075625391 0.024879891 0.0017136122)
(-0.075473792 0.024350914 0.0015432614)
(-0.082133339 0.027412028 0.0031663896)
(-0.082095565 0.026915554 0.0029466406)
(-0.082090425 0.026461735 0.0027637666)
(-0.081998239 0.025933257 0.0025742973)
(-0.081959653 0.025468377 0.0024225659)
(-0.08183834 0.0249138 0.002268875)
(-0.081753704 0.024435936 0.0021632488)
(-0.088473154 0.027654218 0.0035313023)
(-0.088459476 0.02717164 0.003390019)
(-0.088379529 0.026634493 0.0032346127)
(-0.08835055 0.026156155 0.0031095012)
(-0.088263872 0.025604709 0.0030053783)
(-0.08820679 0.025109266 0.0028884841)
(-0.088106612 0.024515827 0.0028158259)
(-0.094834716 0.027814337 0.0039621156)
(-0.094736247 0.027245385 0.0038474601)
(-0.09468992 0.02672526 0.0037411592)