/*--------------------------------*- C++ -*----------------------------------*\
  =========                 |
  \\      /  F ield         | OpenFOAM: The Open Source CFD Toolbox
   \\    /   O peration     | Website:  https://openfoam.org
    \\  /    A nd           | Version:  6
     \\/     M anipulation  |
\*---------------------------------------------------------------------------*/
FoamFile
{
    version     2.0;
    format      ascii;
    class       pointVectorField;
    location    "0.61";
    object      u;
}
// * * * * * * * * * * * * * * * * * * * * * * * * * * * * * * * * * * * * * //

dimensions      [0 1 0 0 0 0 0];

internalField   nonuniform List<vector> 
625
(
(0 1.171426e-19 0)
(0 1.0541895e-19 0)
(1.8461291 -0.10811986 0.069017883)
(1.7481821 -0.53940883 0.052430573)
(0 1.518941e-19 0)
(0 8.2437941e-19 0)
(1.7561327 -0.56163826 0.051777069)
(1.8539376 -0.13063281 0.068914244)
(0 -1.7806803e-20 0)
(8.1872671e-20 -1.9017572e-19 0)
(0 3.8905969e-19 0)
(1.8215143 -0.2161215 0.064728767)
(1.7968829 -0.32358131 0.060645551)
(1.7726924 -0.43135295 0.056567808)
(0.0035295748 0.015972624 0.015524349)
(0.015068032 0.033365742 0.015938795)
(0.036528811 0.050452307 0.018133114)
(0.068800419 0.06630993 0.018233368)
(0.107481 0.079904309 0.019575953)
(0.15675405 0.091908623 0.020386063)
(0.21210965 0.10129782 0.021928711)
(0.27547376 0.10820462 0.023250194)
(0.3456755 0.11282759 0.025238866)
(0.42186649 0.11427322 0.026734336)
(0.50410825 0.11342203 0.02886962)
(0.5915923 0.10955747 0.030978339)
(0.6838384 0.10291669 0.033265307)
(0.78016299 0.093574314 0.035722172)
(0.88009692 0.08154887 0.038314917)
(0.98289486 0.067037609 0.041104539)
(1.0880248 0.050244639 0.044005838)
(1.1948897 0.031316083 0.047151348)
(1.3029489 0.010715519 0.050320581)
(1.4115786 -0.011433146 0.053787854)
(1.5206935 -0.034784329 0.057334138)
(1.6294885 -0.058683285 0.061050373)
(1.7380424 -0.083489084 0.065038877)
(-0.0034429631 -0.013277511 -0.020252677)
(0.010048197 -0.028343735 -0.015893386)
(0.029724963 -0.046685254 -0.018308459)
(0.057469083 -0.064158541 -0.016032984)
(0.092025634 -0.080548554 -0.015140661)
(0.13640724 -0.10114849 -0.013082626)
(0.18522365 -0.11885836 -0.01192187)
(0.24247939 -0.1393684 -0.0094335066)
(0.30568194 -0.16072582 -0.0076176241)
(0.37504358 -0.18212347 -0.0049762825)
(0.45026876 -0.2054853 -0.0023286157)
(0.53085482 -0.22924659 0.00072692091)
(0.61648178 -0.25403557 0.0039817304)
(0.70663151 -0.27951721 0.0075908955)
(0.80091942 -0.30559459 0.011464262)
(0.8987612 -0.33208244 0.015598498)
(0.9996871 -0.35881363 0.019982874)
(1.1031424 -0.3855643 0.024513627)
(1.2085704 -0.41224165 0.029255877)
(1.3154764 -0.43853181 0.033953484)
(1.4233608 -0.46457092 0.038797116)
(1.531617 -0.4899888 0.043447275)
(1.6401533 -0.5149502 0.048032219)
(0 1.063611e-19 0)
(-1.4534747e-18 -3.127388e-19 0)
(0 7.9262763e-19 0)
(0.0026824225 -0.0088845073 0.013462655)
(0.013503607 -0.038007121 0.017170439)
(0.034704166 -0.047789598 0.014478011)
(0.061431617 -0.067869075 0.013638658)
(0.099110511 -0.090014066 0.015235813)
(0.14195488 -0.10625553 0.01342944)
(0.19201504 -0.12804346 0.014967501)
(0.24976281 -0.14929457 0.014741474)
(0.31311108 -0.17143425 0.015784445)
(0.38301404 -0.19496709 0.016668923)
(0.45832779 -0.21871301 0.017634068)
(0.53918964 -0.24421763 0.018997131)
(0.62486476 -0.2699464 0.020398833)
(0.71511757 -0.29661552 0.022037042)
(0.80938512 -0.32382779 0.023930164)
(0.90718932 -0.35121177 0.026023361)
(1.0080385 -0.37884984 0.02837883)
(1.1113933 -0.4063194 0.031004182)
(1.21672 -0.43354476 0.033871257)
(1.3235383 -0.46030443 0.037007233)
(1.4312835 -0.48654162 0.040388544)
(1.5395878 -0.51214373 0.044022498)
(1.6479838 -0.53710457 0.047880021)
(1.7805971 -0.45355504 0.056042705)
(1.8045876 -0.34587748 0.060416649)
(1.8293166 -0.23868784 0.06476898)
(1.7458816 -0.10600834 0.064470048)
(1.6371762 -0.081130533 0.059852282)
(1.5281562 -0.056838961 0.05505195)
(1.4190319 -0.03309404 0.050063732)
(1.3101409 -0.010381834 0.045036059)
(1.2019656 0.011010287 0.040007369)
(1.0949759 0.030766378 0.035045033)
(0.98972848 0.048551992 0.030211839)
(0.88680967 0.064148382 0.025549873)
(0.78679446 0.077307856 0.021100786)
(0.69027492 0.087827309 0.01688708)
(0.59795293 0.095704209 0.01291505)
(0.51017462 0.10077855 0.0091754524)
(0.42756225 0.10315808 0.005687623)
(0.35139669 0.10198718 0.0027251199)
(0.28057451 0.099249986 -0.00047237393)
(0.21706522 0.093594566 -0.0033113124)
(0.1603144 0.085077893 -0.0056979177)
(0.11219634 0.074375992 -0.0082334677)
(0.071042816 0.061370137 -0.009809241)
(0.038956461 0.048183611 -0.012302497)
(0.016136627 0.029971514 -0.013426238)
(0.0076241526 0.015183962 -0.010139739)
(0 -1.8991647e-19 0)
(0 -1.9804312e-19 -4.0848372e-19)
(0 -5.8367992e-19 0)
(0 3.4316927e-19 0)
(0 -3.7971021e-20 1.2107188e-19)
(0 2.613776e-19 0)
(1.7500755 -0.5451199 0.052199126)
(1.7521125 -0.55072647 0.05213111)
(1.7539821 -0.55623405 0.051954663)
(1.8481897 -0.11358887 0.069019387)
(1.8502254 -0.11921884 0.068897871)
(1.8520991 -0.12482809 0.068951235)
(-0.003859697 0.0094057011 0.0106761)
(0.0080421825 0.018981522 0.0085409745)
(0.029278583 0.027573913 0.010138941)
(0.060048693 0.03480879 0.01020908)
(0.098360887 0.041098018 0.011401564)
(0.14641448 0.045325956 0.012597764)
(0.20046694 0.047423548 0.013839612)
(0.2627255 0.047880179 0.015546034)
(0.33109149 0.045820974 0.017192018)
(0.4061318 0.041423938 0.01917223)
(0.48696422 0.034936942 0.021307902)
(0.57298066 0.025790549 0.02360675)
(0.66385096 0.014505557 0.026105547)
(0.75898482 0.00089334273 0.028755719)
(0.85779326 -0.014842929 0.031637524)
(0.95968062 -0.032548449 0.034671753)
(1.0641011 -0.052054915 0.037922626)
(1.170407 -0.073047659 0.04134368)
(1.2781412 -0.095319427 0.044925366)
(1.3866642 -0.11860299 0.048736878)
(1.4956972 -0.14260508 0.052526392)
(1.6045637 -0.16692388 0.056645458)
(1.713427 -0.19167319 0.060699909)
(-0.007370999 0.0018081294 -0.00010204121)
(0.0065248356 0.0019131133 -0.00095801804)
(0.025968068 0.0027135156 6.2790411e-05)
(0.05581309 0.0024945388 0.0012056625)
(0.093892323 0.0001635897 0.0023432248)
(0.13962755 -0.0029148313 0.0036594302)
(0.19278517 -0.0074922281 0.0051475656)
(0.25339541 -0.014195691 0.0070447088)
(0.32018317 -0.022357149 0.0089119699)
(0.39363853 -0.03253324 0.011112792)
(0.47257739 -0.044495253 0.013419369)
(0.55704986 -0.058404451 0.016039703)
(0.64637748 -0.074161004 0.018818236)
(0.74007475 -0.091672101 0.021858326)
(0.8375801 -0.11085532 0.025099641)
(0.93835069 -0.13148429 0.028544005)
(1.0418014 -0.15341118 0.03219672)
(1.1473534 -0.1763615 0.036000453)
(1.2545022 -0.20017667 0.039979069)
(1.3625817 -0.22451624 0.043999551)
(1.4713651 -0.24928637 0.048198472)
(1.5801642 -0.2740928 0.052336981)
(1.6890625 -0.29908218 0.056511034)
(-0.0084023897 -0.0064074113 -0.0072202788)
(0.0059189793 -0.012881911 -0.007424303)
(0.02385309 -0.019456936 -0.0075068818)
(0.054162087 -0.028654228 -0.0064407162)
(0.090367127 -0.039015124 -0.0056230981)
(0.13505773 -0.048636912 -0.0043498297)
(0.18717688 -0.061600961 -0.0025229251)
(0.24573606 -0.074442202 -0.00086914493)
(0.31110083 -0.088990499 0.0011219873)
(0.38270402 -0.105211 0.0034655001)
(0.46003923 -0.12250144 0.0058979128)
(0.54287209 -0.1415407 0.0087213058)
(0.6305398 -0.16177692 0.011687607)
(0.72272786 -0.18335037 0.014956621)
(0.81881099 -0.2060628 0.018449833)
(0.91834498 -0.22972784 0.022181855)
(1.0206805 -0.25421537 0.026131046)
(1.1253534 -0.27926608 0.030261197)
(1.2317095 -0.30467919 0.034510711)
(1.3393275 -0.33036631 0.038952073)
(1.4476333 -0.35591699 0.043274943)
(1.556201 -0.38145842 0.047786679)
(1.6647097 -0.40669942 0.052133932)
(0 -1.2033643e-19 0)
(0 1.9882183e-19 4.1703711e-19)
(0 4.3317889e-19 0)
(-2.1705218e-19 4.3339042e-21 0)
(9.0657737e-20 -1.3432706e-19 -6.6904185e-21)
(-5.7131951e-19 -5.1380863e-19 0)
(0 1.9544989e-19 0)
(0 5.2527646e-19 -1.3970042e-20)
(0 5.7844856e-19 0)
(0.0047567311 -0.0055271887 -0.00916541)
(0.0071799747 -0.0076189527 -0.0021072757)
(0.0066795416 -0.0053602973 0.004108992)
(0.020101346 -0.033793289 -0.0083403474)
(0.020174132 -0.034701131 -0.0011049054)
(0.019858663 -0.033486821 0.0086018568)
(0.036845974 -0.04662879 -0.0099066861)
(0.039774891 -0.046112396 -0.0022429232)
(0.04047786 -0.050492157 0.0075593477)
(0.064607053 -0.065800673 -0.0078490541)
(0.067518594 -0.068558674 -0.00092880647)
(0.066517392 -0.067354546 0.0070188447)
(0.10049293 -0.084987192 -0.0075521623)
(0.10282695 -0.085767092 -0.0011596546)
(0.10335118 -0.088812936 0.0077725332)
(0.14249347 -0.10327816 -0.0064216471)
(0.14566008 -0.10536928 0.00065967518)
(0.14576998 -0.10667919 0.0076439429)
(0.19242722 -0.12296218 -0.0047039777)
(0.19547851 -0.12594896 0.00068159133)
(0.19594145 -0.12799433 0.0090203056)
(0.24924339 -0.14391778 -0.0033793199)
(0.25200854 -0.14546704 0.0023795663)
(0.25282364 -0.14846233 0.0091155419)
(0.31201383 -0.16459767 -0.0014682787)
(0.31501579 -0.16813923 0.0037498283)
(0.31570414 -0.17049758 0.010470867)
(0.38129106 -0.18747088 0.00046968955)
(0.38418754 -0.19047888 0.0054422378)
(0.38528501 -0.19364788 0.011614474)
(0.45605836 -0.21041627 0.0027972038)
(0.45907009 -0.21406154 0.0074019251)
(0.46006443 -0.21729796 0.0130535)
(0.53642163 -0.2347971 0.0054108265)
(0.53924994 -0.23864122 0.0095272085)
(0.54052882 -0.24220246 0.014712763)
(0.62159602 -0.25965714 0.0081626575)
(0.62448986 -0.26382184 0.011898519)
(0.62580214 -0.26778135 0.016601322)
(0.71140568 -0.28543451 0.011303669)
(0.71417081 -0.28984244 0.014618356)
(0.71558341 -0.29396863 0.018675487)
(0.80524333 -0.3116186 0.014662373)
(0.80794849 -0.31626253 0.017461575)
(0.80946617 -0.32078645 0.021005518)
(0.90267016 -0.33823615 0.018266578)
(0.90530229 -0.34311478 0.020654269)
(0.90687517 -0.34782067 0.023606237)
(1.003188 -0.36501308 0.022143579)
(1.0057072 -0.37004693 0.024055365)
(1.0073503 -0.37500364 0.026419208)
(1.1062341 -0.39177191 0.026200306)
(1.1086726 -0.39697231 0.027662922)
(1.1103723 -0.40213388 0.029506395)
(1.2113095 -0.41837994 0.030432894)
(1.213638 -0.4237007 0.03149896)
(1.2153971 -0.42899731 0.032813416)
(1.3179058 -0.4446288 0.034777127)
(1.3201563 -0.45003321 0.035478112)
(1.3219521 -0.4554593 0.036332792)
(1.4254769 -0.47047172 0.039220854)
(1.427625 -0.47594372 0.039566561)
(1.4294868 -0.48143392 0.040051984)
(1.5336347 -0.4958056 0.04359688)
(1.5357374 -0.50134298 0.043735273)
(1.5376424 -0.50689102 0.043935102)
(1.6420325 -0.52065327 0.047961959)
(1.6440156 -0.52621666 0.047915305)
(1.6459983 -0.53172392 0.047950677)
(1.8235853 -0.22164636 0.064779592)
(1.8256036 -0.22728618 0.064752155)
(1.8274549 -0.23289255 0.064780872)
(1.7988627 -0.32913174 0.060635924)
(1.8008732 -0.33476717 0.060525715)
(1.8027149 -0.34023511 0.06047188)
(1.774631 -0.43712201 0.056434652)
(1.776656 -0.44272244 0.05627548)
(1.7785522 -0.44820961 0.056177934)
(0.011028949 0.013113857 0.0080222492)
(0.010823083 0.014338361 0.0028064181)
(0.012819072 0.013560312 -0.003227902)
(0.021521114 0.030845127 0.0083539178)
(0.023304649 0.031327821 0.00049257878)
(0.022149048 0.030460392 -0.0067507987)
(0.044778403 0.050030019 0.010159542)
(0.045281561 0.04856467 0.0034259497)
(0.045959514 0.048692651 -0.0055458756)
(0.074935815 0.063189552 0.010385432)
(0.076926125 0.062915392 0.0042120909)
(0.076623643 0.061984537 -0.0039034002)
(0.1148729 0.078321499 0.012550911)
(0.11700082 0.076820323 0.0050364302)
(0.11681656 0.075912136 -0.0018217449)
(0.16333489 0.088900002 0.013182468)
(0.16469027 0.086928861 0.007730619)
(0.16535657 0.086104202 -6.8936292e-05)
(0.21858036 0.098078931 0.015133806)
(0.22081744 0.096466001 0.00910485)
(0.2213473 0.094859172 0.0022872023)
(0.28199166 0.10477258 0.016855645)
(0.2839918 0.10248342 0.011330889)
(0.28456359 0.10079063 0.0046133665)
(0.35139792 0.10921926 0.019147972)
(0.35397203 0.10623211 0.013135715)
(0.35437741 0.10435693 0.007728994)
(0.42793717 0.11028261 0.020962304)
(0.42991568 0.10732908 0.016618618)
(0.43103146 0.10495768 0.01012729)
(0.50976786 0.10900108 0.023483916)
(0.51200565 0.10578061 0.018619572)
(0.51282406 0.10317657 0.013367826)
(0.59705298 0.104959 0.025920686)
(0.5990791 0.10138804 0.021773665)
(0.6002883 0.098452447 0.01676447)
(0.68886601 0.098080152 0.028720407)
(0.69107434 0.094264753 0.024781414)
(0.69222857 0.090975838 0.02031466)
(0.78496729 0.088564084 0.031563889)
(0.78705297 0.084440611 0.028140401)
(0.78831066 0.080816953 0.024145096)
(0.8844801 0.076372395 0.034696497)
(0.88657444 0.071965373 0.031650653)
(0.88791865 0.068063131 0.028178409)
(0.98693485 0.061736581 0.037930382)
(0.98901031 0.057086225 0.0353649)
(0.9904056 0.052877424 0.032412059)
(1.0917142 0.044833037 0.041408541)
(1.0937407 0.03993362 0.039248156)
(1.0952253 0.035457644 0.036847276)
(1.1981999 0.025878011 0.044980143)
(1.2002269 0.020787997 0.043294442)
(1.2017705 0.01606343 0.041401679)
(1.3058963 0.0052186578 0.048766733)
(1.3079104 -9.2956429e-05 0.047470157)
(1.3095317 -0.0050378482 0.046067952)
(1.4142756 -0.016992875 0.052726939)
(1.4163383 -0.022372936 0.051681891)
(1.4180083 -0.027515609 0.050772991)
(1.5230256 -0.040281958 0.05660405)
(1.5250457 -0.045826195 0.056012238)
(1.5267742 -0.051106888 0.055475642)
(1.6316798 -0.064304698 0.060668841)
(1.6336385 -0.069808088 0.060357525)
(1.6354859 -0.075290392 0.060092954)
(1.7401641 -0.089017851 0.064898824)
(1.7421278 -0.094610071 0.064728457)
(1.7440448 -0.10020148 0.064587004)
(-0.0013255131 0.0048834243 -0.006457361)
(0.010713324 0.01998413 -0.007133056)
(0.031198584 0.022652892 -0.004281873)
(0.063628744 0.030711508 -0.004139856)
(0.10277271 0.035334342 -0.0023893758)
(0.15057534 0.038013486 -0.0005227558)
(0.20586661 0.039492707 0.0014865731)
(0.26800953 0.038140185 0.0036863415)
(0.33722204 0.035324738 0.0061604866)
(0.41225495 0.029561471 0.0088553156)
(0.49320637 0.021911868 0.011629557)
(0.57949898 0.011510054 0.014851299)
(0.67048217 -0.000966851 0.01817763)
(0.7656946 -0.015754808 0.021758838)
(0.86458928 -0.032654512 0.0255756)
(0.96654023 -0.051427169 0.029560909)
(1.0710081 -0.071895301 0.033761807)
(1.1774301 -0.093762363 0.038075182)
(1.2852232 -0.11675055 0.042510033)
(1.3939371 -0.14056276 0.046992369)
(1.5030885 -0.16491087 0.051500005)
(1.6121428 -0.18952668 0.05592367)
(1.721237 -0.21423493 0.06041844)
(-0.0059987119 0.0023069779 0.0012630728)
(0.0070437319 0.0022321112 0.00068846468)
(0.029472406 -0.0013787805 0.0021726959)
(0.060382068 -0.0014691427 0.0019250854)
(0.098098233 -0.0050437071 0.0028309377)
(0.14527251 -0.010158101 0.0046141723)
(0.19855384 -0.015398398 0.0055288335)
(0.25971523 -0.023434998 0.0074161428)
(0.32703112 -0.032867739 0.0092671861)
(0.40059045 -0.044145057 0.01129869)
(0.47993832 -0.057289743 0.013608907)
(0.56469509 -0.072541801 0.016105549)
(0.65410944 -0.089425558 0.018772593)
(0.74798063 -0.1081825 0.021752293)
(0.84555172 -0.12842661 0.024865318)
(0.94634548 -0.15014447 0.028260104)
(1.0498236 -0.17298786 0.031839401)
(1.1553785 -0.19678763 0.035581671)
(1.262487 -0.22125447 0.039537442)
(1.3706299 -0.24613828 0.043576632)
(1.4793359 -0.27126547 0.047724399)
(1.5880846 -0.29627731 0.05195784)
(1.6970711 -0.32141352 0.056172128)
(-0.0075722554 -0.006667138 0.0066154428)
(0.0092966462 -0.01093943 0.0067566166)
(0.029539805 -0.025735352 0.0097579039)
(0.058126015 -0.029969111 0.0075364839)
(0.096210818 -0.043941759 0.0098113181)
(0.14157525 -0.05538478 0.0098491454)
(0.19342057 -0.067927556 0.01063724)
(0.25319725 -0.083537077 0.011996664)
(0.31847699 -0.098569291 0.013078734)
(0.39069815 -0.11639791 0.014655744)
(0.46812042 -0.13499225 0.016325541)
(0.55114881 -0.15520686 0.018133085)
(0.63894038 -0.17684979 0.020297901)
(0.73118128 -0.19956796 0.022519657)
(0.82729147 -0.22351142 0.025046237)
(0.92675246 -0.24829354 0.027756744)
(1.0290534 -0.27375248 0.030686115)
(1.1335932 -0.29967947 0.033819872)
(1.2398919 -0.32583624 0.037181805)
(1.3473868 -0.35200899 0.040661973)
(1.4556122 -0.37799164 0.044408986)
(1.5641293 -0.40371789 0.048123818)
(1.672586 -0.42900166 0.052205288)
(0.0016624399 0.0045431848 0.0051043078)
(0.0015960774 0.0049773686 0.0016187465)
(0.0034746381 0.0043908588 -0.0024142992)
(0.014965194 0.018619645 0.0039672503)
(0.0174401 0.018229544 0.00010736663)
(0.015900985 0.017793924 -0.0044256106)
(0.036816248 0.025080308 0.0054018569)
(0.036842294 0.024568379 0.0017168941)
(0.037526587 0.024115047 -0.0015574517)
(0.06665373 0.033305327 0.0059876581)
(0.069211214 0.032605926 0.0021241433)
(0.068906722 0.030636715 -0.0011558722)
(0.10597185 0.038820534 0.0067604986)
(0.1076775 0.037079216 0.0038760127)
(0.10793767 0.035920529 0.00025967979)
(0.15298005 0.042267333 0.0085102047)
(0.15513498 0.041079876 0.0053047795)
(0.15511116 0.039110892 0.0020593592)
(0.20724277 0.044469388 0.0099327138)
(0.2094854 0.042704705 0.0068378314)
(0.21004595 0.040424902 0.0039240716)
(0.2690746 0.044601196 0.011635937)
(0.27157261 0.041850077 0.0088706236)
(0.271788 0.039624111 0.0060321726)
(0.33746772 0.04166706 0.013645706)
(0.33971305 0.039412373 0.011177882)
(0.3404088 0.036857272 0.0082862304)
(0.41210904 0.037393331 0.015808413)
(0.41459954 0.034645844 0.013243408)
(0.41526764 0.031372517 0.01079064)
(0.4926135 0.03049385 0.018156811)
(0.49498515 0.027163118 0.01584578)
(0.49572666 0.024097011 0.013585782)
(0.57825956 0.021133391 0.02070147)
(0.5807143 0.017698124 0.018638357)
(0.5816612 0.014175176 0.016447958)
(0.66885513 0.0096855214 0.023454205)
(0.67127728 0.0058096596 0.021516048)
(0.67226292 0.0020368622 0.019671814)
(0.76361706 -0.0041434856 0.026376403)
(0.7659906 -0.0082693393 0.024756513)
(0.76706193 -0.012344752 0.023056972)
(0.86205366 -0.020022763 0.029543111)
(0.86437392 -0.02447697 0.028113631)
(0.86556012 -0.028784318 0.026674677)
(0.96358691 -0.037875727 0.032880514)
(0.96586654 -0.042543589 0.031719327)
(0.96711424 -0.047140525 0.03049185)
(1.0676256 -0.057439249 0.036428624)
(1.0698266 -0.062389871 0.035494325)
(1.0711825 -0.067200024 0.034516827)
(1.1735987 -0.078539971 0.040134082)
(1.175764 -0.08367674 0.039452797)
(1.1771864 -0.088693927 0.038667515)
(1.2810004 -0.10082422 0.044023814)
(1.2830643 -0.10619222 0.043519884)
(1.2846326 -0.11137465 0.042972142)
(1.3891809 -0.12417564 0.048032586)
(1.3913677 -0.12964561 0.047741452)
(1.3929101 -0.1349437 0.047313252)
(1.497923 -0.14815077 0.052086945)
(1.5001571 -0.15363986 0.052001614)
(1.5017602 -0.15911553 0.051715688)
(1.6067355 -0.17258203 0.056367609)
(1.6087135 -0.1781217 0.056262484)
(1.6104783 -0.18369153 0.056077044)
(1.7155014 -0.1971733 0.060597258)
(1.7174835 -0.20280646 0.060506921)
(1.7193821 -0.2084101 0.060446804)
(-0.0030035887 0.0012010654 -0.0007568405)
(-0.0013935073 0.0017857065 -0.00062380188)
(5.2947055e-05 0.0017203859 -6.8150976e-05)
(0.011950626 0.0017812637 -0.0022909075)
(0.013734629 0.002191944 -0.0015842715)
(0.011793672 0.0015237517 -0.00065869136)
(0.03301785 0.0017398862 -0.0004891553)
(0.034607512 0.0006413448 0.0013074247)
(0.03465384 0.00012711858 0.0010398357)
(0.061945936 0.00031429697 -0.00027318038)
(0.065595268 -0.0011774235 0.00086863925)
(0.064542796 -0.0028317296 0.0010577827)
(0.10058063 -0.0017227798 0.001472563)
(0.10320429 -0.0036653713 0.0032404293)
(0.10230724 -0.0041599093 0.0020030706)
(0.14600052 -0.0056166138 0.0027716019)
(0.14891987 -0.0079157549 0.003545235)
(0.14871076 -0.0093655879 0.0036742629)
(0.19909834 -0.010299948 0.0040070286)
(0.20216356 -0.013181862 0.0055362866)
(0.20177142 -0.014999315 0.0047766092)
(0.25956677 -0.017797139 0.0062295613)
(0.26241292 -0.020673843 0.0072891765)
(0.26233574 -0.02210204 0.0066860823)
(0.32602834 -0.025923618 0.0079839567)
(0.32909058 -0.02915128 0.0087680123)
(0.32925316 -0.031613208 0.0084380689)
(0.39937599 -0.036421354 0.010229002)
(0.40227151 -0.040208549 0.011202173)
(0.40255154 -0.04241424 0.010797779)
(0.47807268 -0.048875617 0.01260636)
(0.48093751 -0.052666574 0.013484754)
(0.48138684 -0.055538591 0.01290265)
(0.56229249 -0.062986995 0.015243081)
(0.56512515 -0.067137049 0.015976494)
(0.56578146 -0.070182975 0.015558722)
(0.65134656 -0.079020495 0.018087413)
(0.65412458 -0.083380017 0.018791293)
(0.65482491 -0.086892605 0.018278443)
(0.74468662 -0.096764917 0.021169739)
(0.74735228 -0.10144288 0.021741258)
(0.74824052 -0.10515358 0.021299277)
(0.84188309 -0.11613648 0.024476992)
(0.84447681 -0.12095786 0.02497032)
(0.84548439 -0.12506548 0.024508331)
(0.94229294 -0.13691107 0.027978022)
(0.94477684 -0.14197818 0.02839008)
(0.9459072 -0.14634915 0.027955995)
(1.045407 -0.15895005 0.031709029)
(1.0477806 -0.16417331 0.032021159)
(1.0490349 -0.16885504 0.031610493)
(1.1506203 -0.18199092 0.03557475)
(1.1528908 -0.18738579 0.035820799)
(1.1542904 -0.19226577 0.035427325)
(1.2574402 -0.20583023 0.039631871)
(1.2596296 -0.21131218 0.039778557)
(1.2611253 -0.2164481 0.039450831)
(1.3653197 -0.23017419 0.043725823)
(1.3673399 -0.23583792 0.043849285)
(1.3690141 -0.2410519 0.043531809)
(1.4739067 -0.25495006 0.04804155)
(1.4756338 -0.26056937 0.047909875)
(1.4775914 -0.26598016 0.047764633)
(1.5823648 -0.2797694 0.052168977)
(1.5843875 -0.28530149 0.052198002)
(1.5861731 -0.290866 0.051959365)
(1.6911307 -0.30466801 0.056399049)
(1.6931186 -0.31030881 0.05635426)
(1.6950704 -0.31580707 0.056264099)
(-0.0025767328 -0.0045626429 -0.0031936663)
(-0.0027360924 -0.004174365 -0.00044376075)
(-0.0026194078 -0.003844293 0.0029418725)
(0.013816056 -0.012199617 -0.0041243469)
(0.015763027 -0.0098764561 0.00011794544)
(0.014321305 -0.011700933 0.0037072606)
(0.031753155 -0.02081072 -0.003709946)
(0.033905921 -0.024262206 0.00081626687)
(0.034592744 -0.024473891 0.0052486133)
(0.062180598 -0.031414733 -0.003223903)
(0.06363577 -0.030222284 0.0007501194)
(0.063962315 -0.03195696 0.0042138712)
(0.097923669 -0.040502259 -0.0019263985)
(0.10036131 -0.043020145 0.0019471351)
(0.10091829 -0.043843658 0.0056391155)
(0.14272636 -0.052187966 -0.0013935632)
(0.14497013 -0.053754498 0.0024392846)
(0.14549629 -0.055532239 0.0056504347)
(0.19439564 -0.065005534 0.00050924767)
(0.19652991 -0.066711682 0.0043309533)
(0.19760003 -0.068293875 0.0071737423)
(0.25278978 -0.078031463 0.0019946188)
(0.25523039 -0.08065224 0.0049609054)
(0.25625235 -0.082985912 0.0081053453)
(0.31800536 -0.093333546 0.0036574288)
(0.32028986 -0.09588801 0.0070699444)
(0.32158118 -0.098235846 0.0098826728)
(0.38925821 -0.10978617 0.005939338)
(0.39170774 -0.11270485 0.0088484647)
(0.39298259 -0.11550669 0.011335927)
(0.46624154 -0.12742221 0.0081148321)
(0.46863797 -0.13080163 0.010788499)
(0.47017917 -0.13386648 0.013284223)
(0.54874501 -0.1467762 0.010708438)
(0.55115374 -0.15036311 0.013199844)
(0.55270149 -0.15368219 0.015363363)
(0.63601416 -0.16724536 0.013460455)
(0.63834922 -0.17124957 0.01565717)
(0.64008351 -0.17492949 0.017621583)
(0.72779171 -0.18909322 0.016486405)
(0.73012006 -0.19332727 0.018419564)
(0.73188262 -0.19724821 0.020190635)
(0.82346425 -0.21196694 0.019743183)
(0.82571494 -0.21649006 0.021436118)
(0.82759513 -0.22073258 0.022922161)
(0.92253946 -0.23579211 0.023247572)
(0.92475248 -0.24056815 0.024651047)
(0.92665337 -0.24507377 0.02590824)
(1.0244639 -0.26036589 0.026969556)
(1.0265944 -0.26535352 0.028107228)
(1.0285742 -0.27010703 0.029131552)
(1.1286909 -0.28544861 0.03087628)
(1.1307933 -0.29064674 0.031779248)
(1.1327939 -0.29558938 0.032544293)
(1.2346889 -0.31090183 0.03496591)
(1.2367199 -0.31620338 0.035608816)
(1.2387419 -0.32135388 0.036176032)
(1.3419209 -0.33646175 0.039191956)
(1.3439569 -0.34192606 0.039605002)
(1.3459894 -0.34717881 0.039961248)
(1.4499498 -0.36197976 0.043409783)
(1.45191 -0.36746632 0.04371898)
(1.4539745 -0.37282633 0.04391012)
(1.5582957 -0.38737247 0.04780407)
(1.5603123 -0.3929503 0.047925165)
(1.5623586 -0.3983753 0.047967364)
(1.6666594 -0.41247465 0.05207962)
(1.6686071 -0.4180562 0.052087735)
(1.6706096 -0.42355216 0.052055899)
)
;

boundaryField
{
    free
    {
        type            calculated;
    }
    fixed
    {
        type            calculated;
    }
    freeTop
    {
        type            calculated;
    }
}


// ************************************************************************* //
