/*--------------------------------*- C++ -*----------------------------------*\
  =========                 |
  \\      /  F ield         | OpenFOAM: The Open Source CFD Toolbox
   \\    /   O peration     | Website:  https://openfoam.org
    \\  /    A nd           | Version:  6
     \\/     M anipulation  |
\*---------------------------------------------------------------------------*/
FoamFile
{
    version     2.0;
    format      ascii;
    class       pointVectorField;
    location    "1.91";
    object      u;
}
// * * * * * * * * * * * * * * * * * * * * * * * * * * * * * * * * * * * * * //

dimensions      [0 1 0 0 0 0 0];

internalField   nonuniform List<vector> 
28033
(
(0 8.4481149e-19 0)
(0 5.7850167e-18 0)
(0.72560689 0.041699852 -0.014187858)
(0.70781337 -0.14612884 -0.013586818)
(0 5.2245702e-18 0)
(0 8.509284e-18 0)
(0.70759045 -0.14435576 -0.013679189)
(0.7253956 0.043436668 -0.014101275)
(0 1.8292639e-18 0)
(0 5.28235e-19 0)
(0 4.2196335e-18 0)
(0 -2.0032925e-18 0)
(0 2.6985662e-18 0)
(0 -1.5992477e-18 0)
(0 -3.8643636e-20 0)
(-1.2890064e-18 -4.2049572e-19 0)
(0 7.9087452e-19 0)
(0 3.9357515e-19 0)
(0 -1.514666e-18 0)
(0 1.4665044e-18 0)
(0 1.7536834e-18 0)
(0 -1.406559e-18 0)
(0 1.7882862e-18 0)
(0.72448663 0.029920809 -0.014166787)
(0.72335129 0.018152243 -0.014147979)
(0.72221485 0.0063957163 -0.01411696)
(0.72107537 -0.0053403473 -0.014083966)
(0.71994365 -0.017058988 -0.014036781)
(0.71881702 -0.028769006 -0.013987996)
(0.71769737 -0.04046314 -0.013931561)
(0.71659152 -0.052159837 -0.013874233)
(0.71549024 -0.063856747 -0.013817293)
(0.71439784 -0.075563476 -0.013762696)
(0.71331019 -0.0872857 -0.013715369)
(0.71222133 -0.099023226 -0.013677941)
(0.71113487 -0.11078032 -0.013642287)
(0.71004035 -0.12255529 -0.013618509)
(0.70893375 -0.13434243 -0.013600629)
(0.00089520814 0.001599516 0.001854632)
(0.00079642893 0.0025868379 0.0026757279)
(0.00097076219 0.0034620625 0.00329996)
(0.0012248747 0.0046561217 0.0036762051)
(0.001742705 0.0056362623 0.0039649128)
(0.0023482667 0.006908704 0.0041118561)
(0.0032434716 0.0080063331 0.0042345484)
(0.0042337048 0.0093151918 0.0042540107)
(0.0054865222 0.010477704 0.0042874008)
(0.0068539796 0.011810246 0.0042408321)
(0.008465052 0.013021 0.0042073859)
(0.010205322 0.014362686 0.0041237924)
(0.012168332 0.015601251 0.0040539251)
(0.014266028 0.016941621 0.003948696)
(0.016584404 0.018206191 0.0038445263)
(0.019039979 0.019543623 0.0037248608)
(0.02170268 0.020813065 0.0036037038)
(0.024516057 0.022146997 0.0034743792)
(0.027530819 0.023427754 0.0033317424)
(0.030696042 0.024750893 0.0031934689)
(0.034055907 0.026034362 0.0030489216)
(0.037578963 0.027354926 0.0028970308)
(0.041283591 0.028628504 0.0027505865)
(0.045165297 0.029948459 0.0025958749)
(0.049220074 0.031218538 0.0024412836)
(0.053454223 0.032524415 0.0022868706)
(0.057864906 0.033786792 0.0021363056)
(0.062458709 0.035083702 0.001978371)
(0.067226823 0.036335954 0.0018241004)
(0.072178454 0.037604642 0.0016741487)
(0.077313068 0.03885514 0.0015149316)
(0.082629043 0.040098948 0.0013615806)
(0.088126543 0.041324838 0.0012071429)
(0.093816669 0.042540063 0.001052578)
(0.099686127 0.043740028 0.00089044741)
(0.10575012 0.044926107 0.00072874712)
(0.11199372 0.046089608 0.00056534514)
(0.1184352 0.047239985 0.00039580781)
(0.12506216 0.04836237 0.00021610409)
(0.13188174 0.049470238 3.6284858e-05)
(0.13889175 0.050546049 -0.00015643757)
(0.14609643 0.051605304 -0.00035359903)
(0.15349137 0.052632129 -0.00056449566)
(0.16108307 0.053635096 -0.00078225309)
(0.16886505 0.054605403 -0.0010135625)
(0.17684292 0.055546918 -0.0012544837)
(0.18501115 0.056453115 -0.0015089136)
(0.19337327 0.057326964 -0.0017739901)
(0.20192453 0.058161442 -0.0020524857)
(0.21066586 0.058959603 -0.0023418732)
(0.21959315 0.059714241 -0.0026435356)
(0.22870527 0.060428314 -0.0029555986)
(0.23799749 0.061094335 -0.0032783848)
(0.24746747 0.061715401 -0.003609915)
(0.25710937 0.062284273 -0.0039499614)
(0.26691954 0.062803578 -0.0042967096)
(0.27689143 0.063267269 -0.0046489362)
(0.28701982 0.063677071 -0.0050051935)
(0.29729775 0.064028812 -0.0053639683)
(0.30771876 0.064323226 -0.0057234637)
(0.31827547 0.064557504 -0.0060821364)
(0.32896085 0.064732868 -0.0064388221)
(0.33976652 0.064847619 -0.0067910105)
(0.35068794 0.064901411 -0.0071393906)
(0.36171145 0.064896057 -0.00747795)
(0.37283851 0.064831782 -0.0078138796)
(0.38405202 0.064703588 -0.0081351172)
(0.39535309 0.064521073 -0.0084508114)
(0.4067301 0.064281221 -0.0087586635)
(0.41818178 0.063984469 -0.0090527621)
(0.42969625 0.063632643 -0.0093365795)
(0.44127323 0.063227712 -0.0096118528)
(0.45290437 0.062770875 -0.0098769759)
(0.46458735 0.062262738 -0.010133332)
(0.4763152 0.061705062 -0.010380455)
(0.48808561 0.061098676 -0.010620796)
(0.49989153 0.060444698 -0.010852555)
(0.51173243 0.059745648 -0.011079603)
(0.5235987 0.059001962 -0.011299232)
(0.53549176 0.058214332 -0.0115142)
(0.54740328 0.0573874 -0.011725829)
(0.55932919 0.056519052 -0.01192998)
(0.57126702 0.055613755 -0.012131656)
(0.58320702 0.054672031 -0.012326821)
(0.59515227 0.053702051 -0.012518029)
(0.60709236 0.052694305 -0.012704286)
(0.61902707 0.051662778 -0.012883655)
(0.63094512 0.050607365 -0.013057258)
(0.64285366 0.049524339 -0.013222428)
(0.6547335 0.048436708 -0.013382127)
(0.66660323 0.047315012 -0.013528912)
(0.6784359 0.046208031 -0.0136748)
(0.69025786 0.045069301 -0.01380275)
(0.70204887 0.043948228 -0.013936468)
(0.71382833 0.042822033 -0.014056045)
(0.00052531206 -0.0017952065 -0.0022111101)
(0.00085410602 -0.0026056112 -0.0026085904)
(0.0010283751 -0.0037461466 -0.003386301)
(0.0011867443 -0.0046934372 -0.0037984995)
(0.0017188159 -0.0059285977 -0.0041201866)
(0.0022895093 -0.0071023801 -0.0044073622)
(0.0030966401 -0.0083528312 -0.0045867549)
(0.004055965 -0.0096122968 -0.004776994)
(0.0052221822 -0.010927406 -0.0049024327)
(0.0065324333 -0.012220699 -0.0050475801)
(0.0080381448 -0.013571283 -0.0051562766)
(0.0097048261 -0.014904957 -0.0052844475)
(0.011544538 -0.016266657 -0.0053901032)
(0.013558886 -0.017637681 -0.0055182699)
(0.015727404 -0.01900799 -0.0056324286)
(0.018083209 -0.020404019 -0.0057640996)
(0.020582484 -0.021789991 -0.0058929762)
(0.023277117 -0.023200716 -0.0060249264)
(0.026115159 -0.024614104 -0.0061719935)
(0.029137129 -0.026033511 -0.006315212)
(0.032320177 -0.027467389 -0.0064654125)
(0.035676358 -0.028913472 -0.0066240338)
(0.039193327 -0.030360096 -0.0067817646)
(0.042892972 -0.031835345 -0.0069436019)
(0.046747935 -0.033307964 -0.0071132327)
(0.050786405 -0.034803883 -0.0072748524)
(0.054991024 -0.036311647 -0.0074507111)
(0.059374184 -0.037835684 -0.0076133971)
(0.063926118 -0.03937546 -0.007791137)
(0.068662278 -0.040937183 -0.0079531109)
(0.07356713 -0.042511144 -0.0081277463)
(0.078656986 -0.04411429 -0.0082954952)
(0.0839127 -0.045721877 -0.0084672789)
(0.089366179 -0.047369667 -0.0086349895)
(0.094976639 -0.049016542 -0.0088081267)
(0.10078941 -0.050704717 -0.0089799654)
(0.10675735 -0.052388272 -0.0091517457)
(0.11293168 -0.054120039 -0.0093241563)
(0.11926336 -0.055848362 -0.0095031502)
(0.12579653 -0.057612078 -0.0096793009)
(0.13249408 -0.059384214 -0.0098624575)
(0.13938893 -0.06118168 -0.010043533)
(0.14645246 -0.062989937 -0.010230908)
(0.153711 -0.064819436 -0.01041588)
(0.16114271 -0.06665909 -0.010605458)
(0.1687666 -0.068515426 -0.010792047)
(0.1765677 -0.07038089 -0.010980376)
(0.1845588 -0.07225834 -0.011164477)
(0.19272907 -0.074142228 -0.011347228)
(0.20108759 -0.07603417 -0.011523715)
(0.20962516 -0.077928645 -0.011695849)
(0.21834808 -0.079826704 -0.011859522)
(0.22724827 -0.081723672 -0.012016096)
(0.23632876 -0.083618989 -0.012162418)
(0.24558241 -0.085509209 -0.012299458)
(0.25500955 -0.087393121 -0.0124251)
(0.26460263 -0.089267306 -0.012540283)
(0.27436037 -0.091130746 -0.012643639)
(0.28427468 -0.092980467 -0.012736364)
(0.29434225 -0.094814942 -0.012817748)
(0.30455514 -0.096632225 -0.012889137)
(0.31490862 -0.098430799 -0.012950337)
(0.32539428 -0.10020888 -0.013002919)
(0.33600714 -0.10196579 -0.013046743)
(0.34673851 -0.10369996 -0.013083728)
(0.35758333 -0.10541121 -0.013113396)
(0.36853335 -0.10709844 -0.013138099)
(0.37958322 -0.10876243 -0.013156519)
(0.39072618 -0.11039954 -0.013172595)
(0.40195484 -0.11201169 -0.013180474)
(0.41326475 -0.11360478 -0.013188484)
(0.42465039 -0.11516701 -0.013191191)
(0.43610666 -0.11671053 -0.013191381)
(0.44762804 -0.11822716 -0.013188057)
(0.45920963 -0.11972144 -0.013182544)
(0.47084712 -0.12119243 -0.013173656)
(0.48253494 -0.12263924 -0.0131632)
(0.49427043 -0.12406458 -0.013149351)
(0.5060456 -0.12546486 -0.013134986)
(0.51785933 -0.1268443 -0.013118451)
(0.52970344 -0.12819869 -0.013102421)
(0.54157513 -0.12953164 -0.013086066)
(0.5534675 -0.13084036 -0.013072109)
(0.5653765 -0.13212741 -0.013060561)
(0.57729515 -0.13339054 -0.013053978)
(0.58921978 -0.13463274 -0.013052807)
(0.60114303 -0.13585208 -0.013059689)
(0.61306174 -0.13705167 -0.013074967)
(0.62496929 -0.13823068 -0.013101164)
(0.63686295 -0.1393924 -0.013138171)
(0.64873781 -0.14053691 -0.013187836)
(0.66059237 -0.14166809 -0.013249585)
(0.67242445 -0.14278825 -0.013322754)
(0.68423525 -0.14390125 -0.013406153)
(0.69603044 -0.14501275 -0.013496053)
(0 -2.2986784e-18 0)
(0 -1.6784898e-18 0)
(0 1.5722109e-18 0)
(0 -9.9346834e-19 0)
(0 -8.5547131e-19 0)
(0 4.7806062e-18 0)
(0 -1.4192934e-18 0)
(-3.3045609e-18 9.2370844e-19 0)
(0 -8.4423504e-19 0)
(0 2.0567305e-18 0)
(0 2.4581062e-18 0)
(0 8.5977503e-19 0)
(0 4.5508913e-19 0)
(0 -9.2693e-19 0)
(0 6.3007748e-19 0)
(0.00088483036 -0.00066277907 0.0014712814)
(0.00072212372 -0.0026514746 0.0025336834)
(0.00055851074 -0.002949778 0.003021196)
(0.00088676959 -0.0043686481 0.0036326275)
(0.0011731602 -0.0052005624 0.0038550792)
(0.0018181767 -0.0063586306 0.0040638877)
(0.0025564076 -0.007457376 0.0041510147)
(0.0035485732 -0.0086150713 0.0042365785)
(0.004672359 -0.0097803948 0.0042157093)
(0.0060062839 -0.010984838 0.0042139837)
(0.0075324057 -0.012226749 0.0041615933)
(0.0091572207 -0.013403942 0.0041081847)
(0.011060477 -0.01472295 0.0040150051)
(0.013018273 -0.015914526 0.0039401673)
(0.015266887 -0.017269864 0.0038161385)
(0.01757178 -0.018489906 0.0037307947)
(0.020122723 -0.019841266 0.003598823)
(0.022793584 -0.021121657 0.0034822352)
(0.025671185 -0.022492298 0.003356841)
(0.028677385 -0.023797953 0.0032254269)
(0.031891566 -0.025198667 0.0031008675)
(0.035210635 -0.026528197 0.002964827)
(0.038786663 -0.02799688 0.0028540541)
(0.042431365 -0.029312042 0.0026959547)
(0.046345675 -0.03084633 0.0025941982)
(0.050338339 -0.032192105 0.0024442592)
(0.054559483 -0.033719676 0.0023288999)
(0.058925975 -0.035154369 0.0021882304)
(0.063476228 -0.036681432 0.0020683147)
(0.068197659 -0.038177747 0.0019276391)
(0.073113321 -0.039748967 0.0018072742)
(0.078174642 -0.041265754 0.0016647323)
(0.083446692 -0.042873286 0.0015327831)
(0.088870938 -0.044438712 0.0013883953)
(0.094506107 -0.046075423 0.0012419996)
(0.10028194 -0.047672785 0.0010920033)
(0.10628548 -0.049356068 0.00093564732)
(0.11244501 -0.05100029 0.00076881973)
(0.11880235 -0.052700734 0.00059823139)
(0.12533675 -0.05439296 0.00041259569)
(0.13206346 -0.056126456 0.00022497658)
(0.13897063 -0.057858017 1.9770798e-05)
(0.14606927 -0.059625127 -0.00018925509)
(0.15335041 -0.061395047 -0.0004158699)
(0.1608221 -0.063195678 -0.00064800718)
(0.16847732 -0.065001705 -0.00089734909)
(0.17632173 -0.06683393 -0.0011541655)
(0.18435017 -0.068673712 -0.0014265012)
(0.19256524 -0.070534097 -0.0017077918)
(0.20096349 -0.072403016 -0.002002894)
(0.20954539 -0.074287239 -0.0023074315)
(0.21830737 -0.076178773 -0.0026234908)
(0.22724857 -0.078080274 -0.0029489586)
(0.23636528 -0.079986857 -0.003283235)
(0.24565462 -0.081897294 -0.0036257965)
(0.25511268 -0.083809661 -0.0039742958)
(0.26473516 -0.085720017 -0.0043290914)
(0.27451723 -0.087627747 -0.0046867679)
(0.28445366 -0.08952829 -0.0050479641)
(0.29453875 -0.091421106 -0.0054090557)
(0.30476645 -0.093301888 -0.0057704394)
(0.31513056 -0.095170089 -0.0061287782)
(0.3256244 -0.09702194 -0.0064842168)
(0.33624157 -0.098856911 -0.006833913)
(0.34697511 -0.10067175 -0.0071777129)
(0.35781873 -0.10246672 -0.0075140257)
(0.36876585 -0.10423682 -0.0078419315)
(0.37981059 -0.10599158 -0.00815994)
(0.3909459 -0.10770553 -0.0084678034)
(0.40216126 -0.10941285 -0.0087677934)
(0.41346389 -0.11108304 -0.0090553542)
(0.42483424 -0.11273016 -0.0093321028)
(0.43627668 -0.11434919 -0.0096005485)
(0.44778143 -0.11594219 -0.0098577972)
(0.45934589 -0.11750706 -0.010106197)
(0.47096423 -0.11904411 -0.01034579)
(0.48263296 -0.12055335 -0.010576932)
(0.49434655 -0.12203414 -0.01080039)
(0.50610122 -0.12348639 -0.011016526)
(0.51789152 -0.12491 -0.011225941)
(0.52971344 -0.126305 -0.011428651)
(0.5415612 -0.1276709 -0.011625358)
(0.55343088 -0.12900884 -0.011815615)
(0.56531614 -0.13031775 -0.011999865)
(0.57721302 -0.13159988 -0.012177485)
(0.58911533 -0.13285406 -0.012348733)
(0.60101891 -0.13408353 -0.012512656)
(0.61291819 -0.13528733 -0.012669638)
(0.62480935 -0.13646961 -0.01281865)
(0.63668761 -0.13763007 -0.012960181)
(0.64855029 -0.13877364 -0.013093499)
(0.66039364 -0.13990105 -0.013219697)
(0.67221803 -0.14101868 -0.013338577)
(0.68402107 -0.14212851 -0.013452603)
(0.69580994 -0.14323857 -0.01356334)
(0.70870934 -0.13257604 -0.013725158)
(0.70982244 -0.12079436 -0.01377584)
(0.71091488 -0.10901866 -0.01381504)
(0.71200933 -0.097272657 -0.013846519)
(0.71309676 -0.085534406 -0.013869104)
(0.7141858 -0.073820854 -0.013884098)
(0.71528072 -0.062117415 -0.01389285)
(0.71637949 -0.050419287 -0.013897474)
(0.71749268 -0.038729242 -0.013906572)
(0.71860303 -0.027027606 -0.013911335)
(0.71973567 -0.015327613 -0.013927035)
(0.72086115 -0.0035974586 -0.013945166)
(0.72200742 0.0081291601 -0.013977932)
(0.72313822 0.019897209 -0.014013094)
(0.72427553 0.031661933 -0.014059274)
(0.71362233 0.044556136 -0.014028711)
(0.70184211 0.045681582 -0.013947608)
(0.69005454 0.046805761 -0.013874283)
(0.67823537 0.047929746 -0.013807921)
(0.66639632 0.049048598 -0.013756971)
(0.65453069 0.050159054 -0.01371371)
(0.6426409 0.051258913 -0.01368622)
(0.63073141 0.052343691 -0.013668145)
(0.61880271 0.053411204 -0.013660987)
(0.6068618 0.0544586 -0.013663705)
(0.59490982 0.05548297 -0.013673815)
(0.58295464 0.056481404 -0.013690022)
(0.5709981 0.057452986 -0.013712095)
(0.55904407 0.058394735 -0.013739296)
(0.54710135 0.059302977 -0.013768632)
(0.53517346 0.060177941 -0.013799131)
(0.52326557 0.061016438 -0.013829154)
(0.51138171 0.06181684 -0.013858862)
(0.49952759 0.062578193 -0.013886872)
(0.48770708 0.06329709 -0.013912286)
(0.4759254 0.063974039 -0.013935283)
(0.46418682 0.064604845 -0.013954767)
(0.45249632 0.065190655 -0.013970829)
(0.44085865 0.0657255 -0.01398207)
(0.42927866 0.06621348 -0.013990587)
(0.41776207 0.066648266 -0.013992304)
(0.40631046 0.067024221 -0.013990874)
(0.3949526 0.067339773 -0.013977059)
(0.3836533 0.067612523 -0.013963058)
(0.37245253 0.067814541 -0.01393905)
(0.36134478 0.067958634 -0.01390881)
(0.35033978 0.06803909 -0.013867924)
(0.33944265 0.068055748 -0.013818408)
(0.32866232 0.06800711 -0.013758624)
(0.31800475 0.067893067 -0.013688206)
(0.30747779 0.067713319 -0.013607142)
(0.29708766 0.06746767 -0.013514602)
(0.28684166 0.067157183 -0.013411321)
(0.27674517 0.066781906 -0.013296495)
(0.26680504 0.066344046 -0.013171638)
(0.25702539 0.065843853 -0.013035924)
(0.2474124 0.065284786 -0.012891836)
(0.23796895 0.064666888 -0.012738186)
(0.22870033 0.063995067 -0.012578579)
(0.21960817 0.063268658 -0.012411235)
(0.21069705 0.062494165 -0.012240779)
(0.20196726 0.061669777 -0.012064623)
(0.19342302 0.060803549 -0.011888139)
(0.18506338 0.059892315 -0.011707965)
(0.17689216 0.058945696 -0.011530008)
(0.16890794 0.057958149 -0.011349325)
(0.16111375 0.056942901 -0.011173714)
(0.15350824 0.0558886 -0.010994597)
(0.14609351 0.054814891 -0.010823294)
(0.13886847 0.053704746 -0.01064702)
(0.13183806 0.052578852 -0.010477987)
(0.12499196 0.051425708 -0.010305667)
(0.11833724 0.050258033 -0.010139315)
(0.11189463 0.049047488 -0.0099577747)
(0.10561718 0.04785691 -0.0097984103)
(0.099532377 0.046627844 -0.0096227596)
(0.09367096 0.045374372 -0.0094428887)
(0.087963555 0.044129621 -0.0092662753)
(0.082463182 0.042863367 -0.0090926683)
(0.077137329 0.041583674 -0.0089073444)
(0.07202886 0.040284131 -0.0087236174)
(0.067071269 0.03899645 -0.0085283071)
(0.06233648 0.037671931 -0.0083399522)
(0.057756678 0.036359166 -0.0081474243)
(0.053370122 0.035036665 -0.0079600727)
(0.049163484 0.033690659 -0.0077612625)
(0.045126651 0.032361154 -0.0075770493)
(0.041297955 0.030980427 -0.0073726871)
(0.037611312 0.029651275 -0.00720059)
(0.034115527 0.028267993 -0.0070089512)
(0.030802957 0.026899619 -0.0068320046)
(0.02764796 0.025516416 -0.0066548341)
(0.024684446 0.024136265 -0.006489881)
(0.021878353 0.022740385 -0.0063239584)
(0.019254071 0.021358873 -0.0061696766)
(0.016824656 0.019920901 -0.0060081297)
(0.014527349 0.018573224 -0.0058829598)
(0.012436428 0.017140126 -0.0057258159)
(0.010515475 0.01576714 -0.0055922355)
(0.0087722983 0.014347483 -0.0054413331)
(0.0071889716 0.012996914 -0.0053112213)
(0.0058293214 0.011569935 -0.0051432345)
(0.0046087666 0.010267217 -0.0049909716)
(0.0035962537 0.0088899555 -0.0047856404)
(0.0027446976 0.0076122292 -0.004570263)
(0.0021048053 0.0062867972 -0.0042669605)
(0.0016548834 0.0050656255 -0.0038946123)
(0.0013707365 0.0039316017 -0.003435443)
(0.0012099603 0.0027497823 -0.0026456547)
(0.001610481 0.0017384801 -0.0014702727)
(0 2.618921e-18 0)
(0 9.9619717e-19 0)
(0 2.5856438e-18 0)
(0 2.6028739e-18 0)
(0 2.7128247e-18 0)
(0 1.6314474e-18 0)
(0 6.5036538e-20 0)
(0 -1.4782916e-18 -1.6220184e-18)
(0 1.7504924e-19 0)
(0 1.5737526e-18 0)
(0 3.7948245e-18 0)
(0 3.3250578e-18 0)
(0 2.3801303e-18 0)
(0 2.3002108e-18 0)
(0 2.6266512e-18 0)
(0 1.0925209e-17 0)
(0 4.6518086e-18 0)
(0 1.7070815e-18 0)
(0 3.0811954e-18 0)
(0 -2.6825826e-19 0)
(0 7.1818248e-19 0)
(0 8.1836502e-18 0)
(0 -3.3302369e-18 -1.4440944e-18)
(0 4.8677173e-18 0)
(0 6.085159e-18 0)
(0 2.01094e-18 0)
(0 8.231189e-19 0)
(0 1.9105302e-18 0)
(0 3.4445571e-18 0)
(0 4.430619e-19 0)
(0.70781235 -0.14603951 -0.013583083)
(0.7078037 -0.14595437 -0.013588944)
(0.70779754 -0.14586654 -0.013599747)
(0.70779027 -0.14577414 -0.013609942)
(0.70778278 -0.14567737 -0.013620224)
(0.70777337 -0.14557479 -0.013628938)
(0.70776194 -0.14546622 -0.013637003)
(0.70774762 -0.14535225 -0.013643103)
(0.70773115 -0.14523416 -0.013648852)
(0.7077125 -0.1451113 -0.013654774)
(0.70769309 -0.14498657 -0.013659411)
(0.70767118 -0.14485874 -0.013665502)
(0.70765169 -0.144731 -0.013671082)
(0.70763033 -0.14460336 -0.013676889)
(0.70761339 -0.1444769 -0.01367858)
(0.72560766 0.041830954 -0.014188764)
(0.72560273 0.041962635 -0.014187049)
(0.72560002 0.0420944 -0.014181265)
(0.72559641 0.042222791 -0.014176706)
(0.72559409 0.042349085 -0.014171158)
(0.72558911 0.042471026 -0.014167352)
(0.72558184 0.042589332 -0.014162381)
(0.72557122 0.042702878 -0.014157844)
(0.72555739 0.042811842 -0.014151968)
(0.72553987 0.042915547 -0.014144913)
(0.72551959 0.043013603 -0.014136806)
(0.72549633 0.043106421 -0.014126721)
(0.72547213 0.043193608 -0.014116861)
(0.72544662 0.043275721 -0.014107696)
(0.72542233 0.043356765 -0.014102383)
(0.00040862566 0.0014390742 0.0018939838)
(0.00041633976 0.0023085312 0.0023084345)
(0.00054083958 0.0032365874 0.0028902368)
(0.00080226707 0.0042065971 0.0031501869)
(0.0012595051 0.0051061682 0.0034283435)
(0.0018740637 0.0061493308 0.0035316161)
(0.0027212579 0.0071211687 0.0036448523)
(0.0037125947 0.0081997943 0.0036589773)
(0.0049468664 0.0092476409 0.0036689066)
(0.0062992136 0.010346241 0.0036379205)
(0.0079044758 0.011437871 0.0035880097)
(0.0096275595 0.01255276 0.0035180716)
(0.011580715 0.013669457 0.0034356584)
(0.013665142 0.014798355 0.0033389931)
(0.015976507 0.015924958 0.003233647)
(0.018419196 0.017057412 0.0031151709)
(0.021073341 0.01818989 0.0029963386)
(0.023874656 0.019332706 0.0028622588)
(0.026875836 0.020454196 0.002732174)
(0.030031617 0.021600418 0.0025867155)
(0.033378419 0.022726046 0.0024474329)
(0.036890047 0.023858215 0.0022952994)
(0.040582976 0.024987083 0.0021486968)
(0.044444891 0.026112334 0.0019953626)
(0.04849064 0.027228607 0.001842735)
(0.052710358 0.028347186 0.0016881844)
(0.057106056 0.02945659 0.0015330428)
(0.061679395 0.030559299 0.001378143)
(0.066437699 0.031648839 0.0012246316)
(0.071372333 0.032743984 0.0010666366)
(0.076489151 0.033809692 0.00091272717)
(0.081792111 0.034875628 0.00075535247)
(0.087276543 0.035923673 0.00059999854)
(0.092943381 0.036961456 0.0004391316)
(0.098798079 0.037978322 0.00028105219)
(0.10484489 0.038979491 0.00011540944)
(0.11107194 0.03996725 -5.1962844e-05)
(0.11749112 0.040924331 -0.00022229438)
(0.12410317 0.041870244 -0.00040208207)
(0.13090257 0.042788435 -0.00058479057)
(0.13789466 0.043683481 -0.00077365594)
(0.14507998 0.044552736 -0.00097425042)
(0.15245617 0.045395723 -0.0011805929)
(0.16002749 0.046210545 -0.0013984073)
(0.16779029 0.046995937 -0.0016255104)
(0.1757472 0.047749936 -0.0018635244)
(0.18389582 0.048472045 -0.0021118307)
(0.19223769 0.049159386 -0.00237207)
(0.20076927 0.049811414 -0.0026423499)
(0.20949107 0.050425733 -0.0029241034)
(0.21839944 0.051000905 -0.0032154203)
(0.22749319 0.051535201 -0.0035174357)
(0.2367679 0.052026542 -0.0038272899)
(0.24622108 0.052473793 -0.004146234)
(0.25584744 0.052874496 -0.0044713229)
(0.265643 0.053228048 -0.0048027967)
(0.27560161 0.053531961 -0.0051381642)
(0.28571797 0.053786021 -0.0054772305)
(0.29598535 0.053988307 -0.0058173388)
(0.30639704 0.054138337 -0.0061580374)
(0.31694594 0.05423519 -0.0064971163)
(0.32762487 0.054279221 -0.0068340174)
(0.3384259 0.054268915 -0.0071662998)
(0.34934264 0.054204949 -0.0074932389)
(0.36036351 0.054088326 -0.0078143699)
(0.37149111 0.053918205 -0.0081281264)
(0.38271047 0.053696847 -0.0084317128)
(0.39400771 0.053421467 -0.0087265738)
(0.4053887 0.053095565 -0.0090126036)
(0.4168404 0.052717063 -0.0092882403)
(0.42835998 0.05229107 -0.0095559304)
(0.4399414 0.051816504 -0.009814354)
(0.45157887 0.05129514 -0.010064454)
(0.46326777 0.050727942 -0.01030475)
(0.47500253 0.05011425 -0.010537752)
(0.48678072 0.04945786 -0.010763119)
(0.49859521 0.048758037 -0.010981482)
(0.51044377 0.04801712 -0.011194149)
(0.52232059 0.04723638 -0.011400608)
(0.53422275 0.046416772 -0.011602676)
(0.54614413 0.045561353 -0.011799749)
(0.55808162 0.044670917 -0.011991406)
(0.57002917 0.043745405 -0.012180274)
(0.58198179 0.042794118 -0.012363698)
(0.59393526 0.041809822 -0.012543594)
(0.60589057 0.04080292 -0.012716755)
(0.61783439 0.039771039 -0.01288603)
(0.6297664 0.038719936 -0.013048779)
(0.64168463 0.037652282 -0.013207206)
(0.65357669 0.036569776 -0.013356589)
(0.66545601 0.035475344 -0.013503357)
(0.67729834 0.034376616 -0.013641042)
(0.68912908 0.033262228 -0.013775286)
(0.70092496 0.032157368 -0.013907265)
(0.7127096 0.03103782 -0.014035164)
(-6.8296963e-05 0.0012632463 0.0016682204)
(-7.930455e-05 0.0018086605 0.0020826195)
(0.00013349375 0.0027202508 0.0024865976)
(0.00034989752 0.003558028 0.0027252432)
(0.0008330433 0.0043404065 0.0029355255)
(0.0014166269 0.005265692 0.0029977657)
(0.0022682673 0.0060789558 0.0030985533)
(0.0032522808 0.0070428843 0.0030738723)
(0.0044579053 0.0078893757 0.0031063905)
(0.0058249913 0.0088765483 0.0030307257)
(0.0073962984 0.0097605855 0.0030055524)
(0.0091263791 0.010749691 0.0029125858)
(0.011053139 0.011666173 0.0028428293)
(0.013154589 0.012656919 0.0027327775)
(0.015428243 0.013587036 0.0026347201)
(0.017877141 0.014578625 0.0025178245)
(0.020512877 0.015521702 0.0023930429)
(0.023310813 0.016507083 0.0022662206)
(0.026289807 0.017450661 0.0021317292)
(0.02944422 0.018440131 0.0019914264)
(0.032772464 0.019376187 0.0018477442)
(0.03627197 0.020362294 0.0017021132)
(0.039951525 0.021295589 0.0015521579)
(0.043803915 0.022270986 0.001400216)
(0.047833871 0.023197889 0.0012475804)
(0.052037919 0.02416254 0.0010925544)
(0.056420185 0.025080702 0.00093730116)
(0.060984212 0.026023736 0.00078448944)
(0.065722335 0.026932962 0.00062524675)
(0.070644524 0.027852853 0.00047061722)
(0.075745174 0.028742335 0.0003138001)
(0.081032222 0.02963718 0.00015790316)
(0.086497505 0.03050572 -3.9719613e-06)
(0.092151068 0.031364907 -0.00015974443)
(0.097991533 0.032203082 -0.00032534706)
(0.10401744 0.033030236 -0.00048831427)
(0.11023179 0.033829312 -0.00065744673)
(0.11663778 0.034615421 -0.00082838327)
(0.12322795 0.035374249 -0.0010082082)
(0.13001107 0.036114015 -0.0011876001)
(0.13698526 0.036826322 -0.0013826191)
(0.1441503 0.037515837 -0.001577034)
(0.15150836 0.03817626 -0.0017858108)
(0.15906065 0.038811106 -0.0019994188)
(0.1668038 0.039414954 -0.0022253243)
(0.17474158 0.039990435 -0.0024577121)
(0.18287159 0.040532656 -0.0027033809)
(0.19119372 0.041043264 -0.0029556466)
(0.19970667 0.041518563 -0.0032204222)
(0.20840954 0.041959476 -0.0034924261)
(0.21729991 0.042362037 -0.0037756573)
(0.22637537 0.042727763 -0.0040653499)
(0.23563329 0.043052129 -0.0043644234)
(0.24506951 0.043336955 -0.0046691075)
(0.25468046 0.043577867 -0.0049804347)
(0.2644608 0.043776544 -0.0052958095)
(0.27440576 0.043929228 -0.0056151762)
(0.28450904 0.044037372 -0.0059362912)
(0.29476474 0.044097938 -0.0062585877)
(0.3051655 0.044112147 -0.006580202)
(0.31570524 0.04407808 -0.0069001653)
(0.32637548 0.043997028 -0.0072174505)
(0.33716951 0.043865984 -0.0075291219)
(0.34807941 0.04368951 -0.0078374423)
(0.35909685 0.043463683 -0.0081378379)
(0.37022129 0.043195304 -0.0084318677)
(0.38141934 0.042873506 -0.0087123315)
(0.39272036 0.04250396 -0.0089906682)
(0.40410229 0.042089703 -0.0092630649)
(0.41555692 0.041631576 -0.0095228754)
(0.42707933 0.041129607 -0.0097744621)
(0.43866249 0.040584402 -0.01001673)
(0.45030295 0.03999659 -0.010249474)
(0.46199632 0.039367051 -0.010474733)
(0.47373686 0.038696601 -0.010692344)
(0.48552009 0.037987884 -0.010902722)
(0.49734099 0.037239008 -0.011106629)
(0.50919658 0.036454722 -0.011304995)
(0.52108087 0.035634551 -0.011498256)
(0.53299005 0.03477914 -0.011685664)
(0.54492079 0.033893904 -0.01187053)
(0.55686476 0.03297519 -0.01204887)
(0.56882366 0.032028802 -0.012225023)
(0.58078354 0.031052731 -0.012399767)
(0.59275363 0.030061428 -0.012568401)
(0.60471252 0.029038392 -0.01273064)
(0.6166672 0.028000611 -0.012889278)
(0.62860486 0.026945911 -0.013044776)
(0.64053234 0.025873164 -0.013192156)
(0.65243067 0.024795041 -0.013340473)
(0.66431712 0.023697203 -0.013476671)
(0.67616483 0.022603244 -0.013617586)
(0.68800115 0.02148948 -0.013745108)
(0.69979729 0.020384916 -0.01388175)
(0.71158547 0.019264312 -0.014008483)
(-0.00036919603 0.0010065348 0.0014779461)
(-0.00041748902 0.0014690976 0.0017831745)
(-0.00030903047 0.0022200406 0.0021225278)
(-3.8816567e-05 0.0029343558 0.0022962666)
(0.00041887848 0.0035928063 0.0024336789)
(0.0010352761 0.0043775069 0.0024722331)
(0.0018822619 0.0050737308 0.002526731)
(0.0028424343 0.0058406466 0.002519114)
(0.0040671594 0.006589312 0.0024954288)
(0.0054065145 0.0073613997 0.0024517888)
(0.0069864152 0.0081325109 0.0023955674)
(0.0086881311 0.0089141552 0.0023179279)
(0.010634753 0.0097070939 0.0022294406)
(0.012690402 0.010490654 0.0021349656)
(0.014978982 0.011289047 0.0020316112)
(0.017407741 0.012085831 0.0019084289)
(0.020039164 0.012879222 0.0017927229)
(0.0228132 0.013680976 0.0016625553)
(0.025798807 0.014472105 0.0015303029)
(0.028926948 0.015273558 0.0013859786)
(0.032249956 0.016058198 0.0012518648)
(0.035736104 0.016857823 0.0010968048)
(0.039405052 0.017634229 0.00095404213)
(0.043240385 0.018426454 0.00079712822)
(0.047257908 0.019193121 0.00064992993)
(0.051448484 0.019973859 0.00048851595)
(0.055819016 0.020726863 0.00033977525)
(0.060362657 0.021492077 0.00017763284)
(0.065090098 0.022229305 2.4843436e-05)
(0.069996038 0.022971658 -0.00013454572)
(0.075082759 0.02368812 -0.00028937086)
(0.080353961 0.024404457 -0.00045293559)
(0.085804905 0.025093933 -0.00060776881)
(0.091445627 0.025777237 -0.00077194224)
(0.097266496 0.026439222 -0.00093414315)
(0.10327632 0.027081546 -0.0010996686)
(0.10946889 0.027709996 -0.0012682586)
(0.11585075 0.028310488 -0.0014414469)
(0.1224256 0.028895393 -0.0016184553)
(0.12919283 0.029449998 -0.0018051836)
(0.13614672 0.02998796 -0.0019934604)
(0.14329565 0.030494398 -0.002191398)
(0.15063642 0.030979871 -0.002396528)
(0.15816929 0.031433397 -0.0026085899)
(0.16589429 0.031861743 -0.0028299627)
(0.17381382 0.032258962 -0.0030607505)
(0.18192417 0.032626682 -0.0032992801)
(0.19022782 0.032962301 -0.0035476974)
(0.19872169 0.033265996 -0.0038041605)
(0.20740632 0.033535479 -0.0040699747)
(0.21627759 0.033770425 -0.0043424391)
(0.22533578 0.033969576 -0.0046236603)
(0.23457539 0.034131368 -0.0049101081)
(0.24399509 0.034255684 -0.0052033603)
(0.25358914 0.034340308 -0.0055003023)
(0.26335413 0.034385732 -0.0058018012)
(0.27328384 0.03438969 -0.006104814)
(0.28337327 0.034352781 -0.0064100235)
(0.29361543 0.034273342 -0.0067144566)
(0.30400444 0.034151929 -0.0070184928)
(0.31453246 0.033987396 -0.0073197279)
(0.32519263 0.033780022 -0.0076177645)
(0.33597757 0.03352954 -0.0079107598)
(0.34687903 0.033237222 -0.0082001845)
(0.35789137 0.032901394 -0.0084806337)
(0.36900247 0.032522455 -0.0087568092)
(0.38021441 0.032112685 -0.0090200084)
(0.39151081 0.031648834 -0.009289443)
(0.40289001 0.031136972 -0.0095287553)
(0.41433998 0.030598897 -0.0097720271)
(0.4258586 0.030015934 -0.010003531)
(0.43744168 0.029396426 -0.01022779)
(0.44908416 0.028740021 -0.010445774)
(0.46077804 0.028047336 -0.010655032)
(0.47251877 0.027317211 -0.010856748)
(0.48430487 0.026552523 -0.011052639)
(0.4961279 0.025754867 -0.011241772)
(0.5079866 0.02492403 -0.011426366)
(0.51987434 0.024062112 -0.01160437)
(0.53178783 0.023170914 -0.011779478)
(0.54372235 0.022251533 -0.011949377)
(0.55567277 0.02130474 -0.012115001)
(0.56763327 0.020334912 -0.012278791)
(0.57960575 0.019340556 -0.012436997)
(0.59157482 0.018328898 -0.012592217)