/*--------------------------------*- C++ -*----------------------------------*\
  =========                 |
  \\      /  F ield         | OpenFOAM: The Open Source CFD Toolbox
   \\    /   O peration     | Website:  https://openfoam.org
    \\  /    A nd           | Version:  6
     \\/     M anipulation  |
\*---------------------------------------------------------------------------*/
FoamFile
{
    version     2.0;
    format      ascii;
    class       pointVectorField;
    location    "1.7";
    object      u;
}
// * * * * * * * * * * * * * * * * * * * * * * * * * * * * * * * * * * * * * //

dimensions      [0 1 0 0 0 0 0];

internalField   nonuniform List<vector> 
28033
(
(0 7.6065883e-19 0)
(0 5.1489344e-18 0)
(-0.74374135 -0.15804956 -0.016549535)
(-0.76311005 0.037922162 -0.017285907)
(0 4.7125735e-18 0)
(0 7.5736593e-18 0)
(-0.763203 0.042223687 -0.017292587)
(-0.74382459 -0.15368886 -0.01658069)
(0 1.6778776e-18 0)
(0 4.9325545e-19 0)
(0 3.9782212e-18 0)
(0 -1.8895093e-18 0)
(0 2.5229437e-18 0)
(0 -1.470954e-18 0)
(0 -3.4810183e-20 0)
(-1.1360462e-18 -3.7059752e-19 0)
(0 6.8352102e-19 0)
(0 3.3520083e-19 0)
(0 -1.2797723e-18 0)
(0 1.2386266e-18 0)
(0 1.4919967e-18 0)
(0 -1.2136663e-18 0)
(0 1.5703978e-18 0)
(-0.74495835 -0.14576445 -0.016579587)
(-0.74615544 -0.13348397 -0.016608776)
(-0.74735157 -0.12121104 -0.016649249)
(-0.74853736 -0.10895624 -0.016691066)
(-0.74972586 -0.096715421 -0.016744394)
(-0.75091625 -0.084482628 -0.01679821)
(-0.75210793 -0.072263618 -0.016858396)
(-0.75331116 -0.060046878 -0.016918618)
(-0.75451817 -0.047831339 -0.01697942)
(-0.75573505 -0.035613123 -0.017038938)
(-0.75695981 -0.023386693 -0.017093399)
(-0.75818893 -0.011149542 -0.017142481)
(-0.75942578 0.0010991356 -0.017190291)
(-0.76066335 0.013364027 -0.017226562)
(-0.76189452 0.025642923 -0.017259681)
(-0.0011968678 -0.0024257221 -0.0024424572)
(-0.0013544829 -0.0034036517 -0.0035694011)
(-0.0015126139 -0.0049221357 -0.0042543715)
(-0.0021155849 -0.0060806407 -0.0048443473)
(-0.0026486853 -0.0076534834 -0.0051469953)
(-0.0036131977 -0.0089966135 -0.0054372147)
(-0.0046480549 -0.010627456 -0.0056044175)
(-0.0059896762 -0.012034926 -0.00575191)
(-0.007473778 -0.013720716 -0.0058384956)
(-0.0092158206 -0.015192954 -0.0059411642)
(-0.011096722 -0.016874483 -0.0060042914)
(-0.013222102 -0.018406439 -0.0060569283)
(-0.015491268 -0.020105865 -0.0061446573)
(-0.018013826 -0.021673731 -0.0061878846)
(-0.020655598 -0.023380629 -0.0062870266)
(-0.023550497 -0.024970881 -0.0063276791)
(-0.0265944 -0.026710989 -0.0064455457)
(-0.029842966 -0.028297559 -0.0065204131)
(-0.033281434 -0.030045502 -0.0066300868)
(-0.036906445 -0.031669659 -0.006727908)
(-0.040725875 -0.033399457 -0.0068564485)
(-0.044720122 -0.035034372 -0.0069676166)
(-0.048918526 -0.03675782 -0.0071051929)
(-0.0532735 -0.038397277 -0.0072402378)
(-0.05785168 -0.040109179 -0.0073735828)
(-0.062577041 -0.041756794 -0.007521472)
(-0.067508436 -0.043443464 -0.0076646192)
(-0.072588707 -0.04509339 -0.0078153063)
(-0.077881243 -0.046772804 -0.007954033)
(-0.083313379 -0.048417697 -0.0081068394)
(-0.088949353 -0.050093062 -0.0082447896)
(-0.094726282 -0.051739844 -0.0083877077)
(-0.10069592 -0.05341308 -0.0085249425)
(-0.1068143 -0.055065004 -0.0086605187)
(-0.11311475 -0.056748832 -0.0087876209)
(-0.11957014 -0.058419168 -0.0089144359)
(-0.12619325 -0.060109295 -0.009040182)
(-0.13297958 -0.061804618 -0.0091636578)
(-0.13992906 -0.063508973 -0.009278758)
(-0.14703936 -0.065229202 -0.0093989643)
(-0.15431235 -0.066953114 -0.0095174761)
(-0.16174184 -0.068695779 -0.0096380371)
(-0.16933756 -0.070443374 -0.0097573359)
(-0.17708828 -0.072204318 -0.0098830172)
(-0.18499924 -0.073969359 -0.010009471)
(-0.19306693 -0.07574445 -0.01014042)
(-0.20128963 -0.077522214 -0.010275295)
(-0.20966918 -0.079305481 -0.010412764)
(-0.21819905 -0.081089573 -0.010554163)
(-0.22688367 -0.082875467 -0.010697171)
(-0.23571529 -0.084661072 -0.010841667)
(-0.24469751 -0.086445067 -0.010986329)
(-0.25382379 -0.088229083 -0.011129695)
(-0.26309583 -0.090009759 -0.011270738)
(-0.27250868 -0.091791089 -0.011407797)
(-0.28206223 -0.0935697 -0.011540297)
(-0.29175295 -0.09534989 -0.011666302)
(-0.30157963 -0.097129579 -0.01178612)
(-0.31153928 -0.098912154 -0.011898102)
(-0.32163044 -0.10069648 -0.012003156)
(-0.33185036 -0.1024859 -0.012099999)
(-0.34219783 -0.10427817 -0.012190625)
(-0.35266813 -0.10607725 -0.012274197)
(-0.36326542 -0.1078794 -0.012351179)
(-0.37397695 -0.10968769 -0.012427845)
(-0.38481037 -0.11150084 -0.012495248)
(-0.39576037 -0.11331281 -0.012564741)
(-0.40682339 -0.11512769 -0.012631597)
(-0.41799426 -0.11694189 -0.012698439)
(-0.42927433 -0.11875293 -0.012766022)
(-0.44065743 -0.12055687 -0.012838848)
(-0.45214103 -0.12235159 -0.012914918)
(-0.46372156 -0.12413421 -0.012993007)
(-0.47539284 -0.12590129 -0.013077541)
(-0.4871516 -0.12765103 -0.013166369)
(-0.49899148 -0.12937756 -0.013261829)
(-0.51090731 -0.1310819 -0.013362171)
(-0.5228928 -0.13275876 -0.013469543)
(-0.53494169 -0.13440822 -0.013582139)
(-0.54704796 -0.13602711 -0.013701996)
(-0.55920555 -0.13761702 -0.013825601)
(-0.57140566 -0.13917329 -0.013958678)
(-0.58364654 -0.14069909 -0.014094909)
(-0.59591492 -0.14219249 -0.014239053)
(-0.60821074 -0.14365827 -0.014390473)
(-0.62052676 -0.14508993 -0.014547241)
(-0.63285884 -0.14649272 -0.014712429)
(-0.64519606 -0.14786918 -0.014883499)
(-0.65754367 -0.14921362 -0.015064464)
(-0.66987943 -0.15054042 -0.015251105)
(-0.68222646 -0.15183118 -0.015450364)
(-0.69454314 -0.15311527 -0.01565443)
(-0.70687041 -0.15436283 -0.015872472)
(-0.7191651 -0.15560567 -0.016094312)
(-0.73145561 -0.15683084 -0.016325987)
(-0.00066414887 0.0022377019 0.0028896744)
(-0.0013102737 0.0032587642 0.0031277085)
(-0.0015282256 0.0045298782 0.0042490569)
(-0.0020218207 0.0058073419 0.0044661132)
(-0.0027588011 0.0070919337 0.004906201)
(-0.0036956679 0.0086274149 0.0050111981)
(-0.0048420172 0.0099178471 0.0051882297)
(-0.0061980874 0.011456183 0.0051818221)
(-0.0077966876 0.012860864 0.0052286888)
(-0.0095490626 0.014344142 0.0051811509)
(-0.011566892 0.015795236 0.0051492228)
(-0.013722363 0.017253663 0.005077177)
(-0.016139698 0.018710903 0.0049953752)
(-0.018710114 0.02015588 0.004907058)
(-0.021525707 0.021594419 0.0047908404)
(-0.024504428 0.023021784 0.0046784614)
(-0.027727115 0.024436677 0.0045312337)
(-0.03111843 0.025834513 0.0043849836)
(-0.034742719 0.027226354 0.0042131639)
(-0.038546032 0.028584814 0.0040330956)
(-0.042571589 0.029942673 0.0038248039)
(-0.046787498 0.031274476 0.003618666)
(-0.051207897 0.03258427 0.003382743)
(-0.055822963 0.033878849 0.0031481704)
(-0.060636355 0.035149777 0.0028962697)
(-0.065634738 0.036395949 0.002639364)
(-0.070826408 0.037628046 0.0023831151)
(-0.076191802 0.038824202 0.0021195721)
(-0.081751672 0.040013525 0.0018611219)
(-0.087468309 0.041157663 0.0016038384)
(-0.093378262 0.042301381 0.001351256)
(-0.099439746 0.04339929 0.001110742)
(-0.10569122 0.044490934 0.00087273807)
(-0.11208668 0.045539738 0.00064955888)
(-0.11867219 0.046578386 0.00042790986)
(-0.12539646 0.04757534 0.00022453425)
(-0.13231267 0.048556671 9.1848074e-06)
(-0.13937376 0.049504233 -0.00018296515)
(-0.14661481 0.050424893 -0.00038592495)
(-0.15401115 0.051315214 -0.0005804602)
(-0.16158654 0.052176416 -0.0007842678)
(-0.16931794 0.053005309 -0.00098716565)
(-0.17722885 0.053803618 -0.0012024384)
(-0.1852978 0.054568717 -0.0014215009)
(-0.19354222 0.055301123 -0.0016545763)
(-0.20194657 0.0559997 -0.0018952544)
(-0.21052009 0.056663963 -0.0021489233)
(-0.21925188 0.057293658 -0.0024113473)
(-0.22814635 0.057888216 -0.0026844635)
(-0.23719325 0.058447161 -0.0029641698)
(-0.24639555 0.058970532 -0.0032510244)
(-0.25574301 0.059457763 -0.0035404169)
(-0.26523648 0.059908281 -0.0038322097)
(-0.2748681 0.060322486 -0.0041221221)
(-0.28463621 0.060698979 -0.004409474)
(-0.29453473 0.061037917 -0.0046910084)
(-0.30456245 0.061338489 -0.0049664606)
(-0.31471343 0.061599815 -0.0052334452)
(-0.32498732 0.061821152 -0.0054928486)
(-0.33538004 0.062001633 -0.0057436102)
(-0.34589086 0.062139936 -0.0059876449)
(-0.3565171 0.062234897 -0.0062250989)
(-0.36725914 0.062285672 -0.0064592404)
(-0.37811424 0.062290113 -0.0066908927)
(-0.38908311 0.0622479 -0.0069240413)
(-0.40016379 0.062156757 -0.0071603537)
(-0.41135569 0.062016364 -0.0074031238)
(-0.42265699 0.06182417 -0.007655221)
(-0.43406421 0.061580114 -0.0079157118)
(-0.44557429 0.061280305 -0.0081951171)
(-0.45719422 0.06093523 -0.0084856548)
(-0.46890081 0.060525728 -0.0087913475)
(-0.48070874 0.060070533 -0.0091141871)
(-0.49259923 0.05955566 -0.0094515187)
(-0.50457411 0.058990669 -0.0098040425)
(-0.5166216 0.058371047 -0.010168663)
(-0.52873788 0.057700551 -0.010545207)
(-0.54091453 0.056979038 -0.010929811)
(-0.55314333 0.056209207 -0.011321802)
(-0.56541754 0.055392034 -0.011716409)
(-0.57772984 0.054530486 -0.012113458)
(-0.59007153 0.053625385 -0.012508321)
(-0.60243835 0.052680882 -0.012901303)
(-0.61482068 0.051697406 -0.013287833)
(-0.62721612 0.050679617 -0.013669308)
(-0.63961563 0.049627892 -0.014041567)
(-0.65201797 0.048547098 -0.014406831)
(-0.66441527 0.047437716 -0.0147616)
(-0.67680687 0.046304522 -0.015108391)
(-0.68918626 0.045148484 -0.015444616)
(-0.70155294 0.043974128 -0.015772617)
(-0.71390219 0.042782903 -0.016090379)
(-0.72623325 0.04157914 -0.016400019)
(-0.73854475 0.040367055 -0.016701718)
(-0.75083815 0.039144996 -0.016995498)
(0 -2.1043265e-18 0)
(0 -1.5671648e-18 0)
(0 1.4819161e-18 0)
(0 -9.37745e-19 0)
(0 -7.9990671e-19 0)
(0 4.4014904e-18 0)
(0 -1.2788401e-18 0)
(-2.9155927e-18 8.1498198e-19 0)
(0 -7.2983317e-19 0)
(0 1.7526803e-18 0)
(0 2.0782293e-18 0)
(0 7.257622e-19 0)
(0 3.8711968e-19 0)
(0 -7.9914628e-19 0)
(0 5.5407101e-19 0)
(-0.001477381 0.0010353809 -0.0021937437)
(-0.0017694907 0.0040550767 -0.0033668407)
(-0.0017413139 0.0043021697 -0.0040356876)
(-0.0024571135 0.0065418404 -0.0047400863)
(-0.0030142154 0.0074586043 -0.0050999195)
(-0.0040818247 0.0093137352 -0.005327088)
(-0.0051344824 0.010539809 -0.0055523097)
(-0.0065803314 0.012332733 -0.005670738)
(-0.0081186419 0.013690105 -0.0058082489)
(-0.0099276392 0.015434178 -0.0058839267)
(-0.011922404 0.016860486 -0.0059970493)
(-0.014097422 0.018524969 -0.0060442378)
(-0.016511437 0.020047138 -0.0061605672)
(-0.019085447 0.021641738 -0.0062058747)
(-0.021901254 0.023192132 -0.0063327399)
(-0.024882966 0.024749281 -0.0063871285)
(-0.028076901 0.026284576 -0.0065303096)
(-0.031479817 0.027823041 -0.0066051502)
(-0.035056144 0.029294908 -0.0067470167)
(-0.038880639 0.030847267 -0.0068570401)
(-0.042828645 0.032225901 -0.0070089174)
(-0.047059727 0.033752894 -0.0071407599)
(-0.051405043 0.035076281 -0.0072791025)
(-0.056016451 0.036568909 -0.0074628938)
(-0.060747169 0.037800885 -0.0075896319)
(-0.065737462 0.039238068 -0.0077774656)
(-0.070853565 0.04043149 -0.0079282543)
(-0.076202843 0.041769189 -0.0081089879)
(-0.081697713 0.042926667 -0.0082664522)
(-0.087397737 0.044172861 -0.0084483424)
(-0.093257639 0.045282267 -0.008601301)
(-0.099312122 0.046451689 -0.0087773168)
(-0.10552445 0.047514148 -0.0089299352)
(-0.11192646 0.048614091 -0.0090963278)
(-0.11848899 0.049631741 -0.0092479981)
(-0.12522689 0.050654376 -0.0094023212)
(-0.13213646 0.051638046 -0.0095505929)
(-0.13922033 0.052609544 -0.0097033899)
(-0.14646417 0.053534031 -0.0098464446)
(-0.15388537 0.054454582 -0.0099962457)
(-0.1614675 0.055329945 -0.010139185)
(-0.16922089 0.056193644 -0.010289674)
(-0.17713589 0.057016131 -0.010435479)
(-0.18521832 0.057818829 -0.010588715)
(-0.19345967 0.058581488 -0.010739932)
(-0.20186472 0.059317621 -0.010897355)
(-0.21042557 0.060012721 -0.011054348)
(-0.21914483 0.060675012 -0.011215474)
(-0.22801628 0.061295294 -0.011376944)
(-0.2370401 0.061877246 -0.011539802)
(-0.24621164 0.062416357 -0.011702594)
(-0.25552974 0.062913209 -0.011863132)
(-0.26499095 0.063366995 -0.012022503)
(-0.2745925 0.06377611 -0.012176297)
(-0.28433289 0.064143194 -0.012326886)
(-0.29420824 0.064464697 -0.01246929)
(-0.30421758 0.064745411 -0.012606531)
(-0.31435801 0.064981998 -0.012734028)
(-0.32462759 0.065178337 -0.012854511)
(-0.33502488 0.065333011 -0.012965168)
(-0.34554737 0.065448262 -0.013067872)
(-0.35619395 0.065523338 -0.013161407)
(-0.36696229 0.065559889 -0.013247531)
(-0.37785083 0.065556667 -0.013325961)
(-0.38885705 0.065514452 -0.013398252)
(-0.39997951 0.065432553 -0.013465254)
(-0.41121437 0.065309013 -0.013528149)
(-0.42256598 0.065150225 -0.013587644)
(-0.43399813 0.064923394 -0.013650759)
(-0.44556832 0.064689085 -0.013704159)
(-0.45721538 0.064382301 -0.013767891)
(-0.46895947 0.064036084 -0.013828906)
(-0.48079313 0.063638235 -0.013894213)
(-0.49270703 0.06319018 -0.013965081)
(-0.50469671 0.062689266 -0.014039513)
(-0.51675643 0.062135809 -0.014120165)
(-0.52887827 0.061529068 -0.014206734)
(-0.54105645 0.06086919 -0.014299978)
(-0.55328353 0.060156763 -0.014399639)
(-0.56555332 0.05939278 -0.014506514)
(-0.5778588 0.058579006 -0.014620138)
(-0.59019431 0.057717035 -0.014741166)
(-0.60255285 0.05680949 -0.014869203)
(-0.61492981 0.055858654 -0.015004801)
(-0.62731853 0.054867833 -0.015147851)
(-0.63971505 0.053839492 -0.01529881)
(-0.65211342 0.052777327 -0.015457658)
(-0.66451035 0.051684138 -0.015625244)
(-0.67690034 0.050563523 -0.015801474)
(-0.68928071 0.04941821 -0.015987096)
(-0.70164691 0.048252292 -0.016182628)
(-0.71399604 0.04706799 -0.016387915)
(-0.72632668 0.045870106 -0.016603634)
(-0.73863482 0.044660004 -0.016828345)
(-0.75092685 0.043444095 -0.017059873)
(-0.76198368 0.029944201 -0.017231305)
(-0.76075175 0.017666468 -0.01716562)
(-0.75951277 0.0054014678 -0.017111737)
(-0.75827715 -0.0068438328 -0.017063807)
(-0.75704805 -0.019076973 -0.017024866)
(-0.75582071 -0.031297536 -0.016989969)
(-0.75460793 -0.043509127 -0.016961335)
(-0.75339563 -0.055721972 -0.016934698)
(-0.75219983 -0.067931178 -0.016903322)
(-0.75099824 -0.080148924 -0.016877295)
(-0.74981549 -0.092371029 -0.016842643)
(-0.7486171 -0.10461283 -0.016804172)
(-0.74744166 -0.11685838 -0.016757111)
(-0.7462352 -0.12913343 -0.016703437)
(-0.74504212 -0.14140752 -0.016642152)
(-0.73154559 -0.15247099 -0.016274272)
(-0.71925433 -0.15124634 -0.015974279)
(-0.70695631 -0.15001374 -0.015667472)
(-0.69463422 -0.14876198 -0.015352576)
(-0.68230188 -0.14749353 -0.015025824)
(-0.66995843 -0.14620275 -0.014694509)
(-0.65760656 -0.14488934 -0.014350664)
(-0.64525232 -0.14355193 -0.013999626)
(-0.6328987 -0.14218805 -0.013640103)
(-0.62055077 -0.14079955 -0.013271028)
(-0.6082126 -0.13938297 -0.012895105)
(-0.59589122 -0.13794044 -0.012512178)
(-0.58358882 -0.13647029 -0.012122495)
(-0.5713161 -0.13497259 -0.011728199)
(-0.55907763 -0.13344925 -0.011331082)
(-0.54688128 -0.13190017 -0.010934133)
(-0.53473494 -0.13032557 -0.010539719)
(-0.52264459 -0.12872692 -0.010148901)
(-0.51061976 -0.12710563 -0.0097659208)
(-0.49866729 -0.1254621 -0.009392265)
(-0.48679464 -0.12379883 -0.0090307115)
(-0.47500921 -0.12211602 -0.0086829048)
(-0.46331621 -0.12041675 -0.0083501573)
(-0.45172411 -0.11869993 -0.0080338809)
(-0.44023232 -0.11697089 -0.0077337366)
(-0.42885479 -0.11522866 -0.0074501999)
(-0.417571 -0.11347194 -0.0071817001)
(-0.40646072 -0.11169455 -0.0069386524)
(-0.39539238 -0.1099339 -0.0066862894)
(-0.38448712 -0.10814457 -0.0064580363)
(-0.37368673 -0.1063556 -0.0062293056)
(-0.36300878 -0.10456038 -0.0060075727)
(-0.35245029 -0.10275916 -0.0057850056)
(-0.34201171 -0.10095505 -0.0055602064)
(-0.33169341 -0.099147731 -0.0053305206)
(-0.32149534 -0.097339149 -0.0050937012)
(-0.31141924 -0.095529563 -0.0048482739)
(-0.30146556 -0.093720648 -0.0045936335)
(-0.29163699 -0.091912878 -0.0043291956)
(-0.28193505 -0.090107607 -0.0040559239)
(-0.27236349 -0.08830555 -0.0037744246)
(-0.26292481 -0.086507651 -0.0034871076)
(-0.25362344 -0.084714903 -0.0031951528)
(-0.24446259 -0.082927596 -0.002902225)
(-0.235447 -0.081147132 -0.0026096121)
(-0.22657999 -0.079372962 -0.0023213949)
(-0.21786604 -0.077606904 -0.0020384683)
(-0.20930793 -0.075847521 -0.0017648053)
(-0.20090958 -0.074096885 -0.0015000264)
(-0.19267229 -0.072353361 -0.0012476203)
(-0.18459996 -0.070617785 -0.0010061347)
(-0.17669035 -0.068890543 -0.00077665174)
(-0.16895 -0.067169094 -0.00055867728)
(-0.16137017 -0.065457287 -0.00034896054)
(-0.1539609 -0.063750103 -0.00014890371)
(-0.14671208 -0.062050758 4.5765601e-05)
(-0.13962653 -0.060360946 0.00023965446)
(-0.13269868 -0.058669406 0.00042966686)
(-0.12594994 -0.056986575 0.00061984569)
(-0.11933637 -0.055318895 0.00081990517)
(-0.11288768 -0.053645213 0.0010262108)
(-0.1066159 -0.051978471 0.0012285152)
(-0.1004815 -0.050330671 0.0014538798)
(-0.094509149 -0.048671668 0.001677312)
(-0.088698758 -0.047028929 0.0019201652)
(-0.083062083 -0.045384696 0.0021580675)
(-0.077573987 -0.043760774 0.0024078894)
(-0.072274491 -0.042122293 0.002653988)
(-0.067129677 -0.040518372 0.0029140303)
(-0.062167553 -0.038895766 0.0031565624)
(-0.057385108 -0.037306504 0.0034096173)
(-0.052781 -0.035696023 0.0036364146)
(-0.048384171 -0.034111812 0.0038678966)
(-0.044152011 -0.03253351 0.0040718)
(-0.040121721 -0.030966556 0.0042779714)
(-0.036300472 -0.0293817 0.0044419509)
(-0.03264647 -0.027859275 0.0046281736)
(-0.029226277 -0.0262647 0.0047411545)
(-0.025963485 -0.024780613 0.0049013143)
(-0.022939903 -0.023179796 0.004983125)
(-0.02008056 -0.021740001 0.0051065185)
(-0.017435381 -0.020121343 0.0051349878)
(-0.014943264 -0.018714206 0.0052580026)
(-0.012717782 -0.01707158 0.0052523801)
(-0.01060687 -0.015750345 0.0053576951)
(-0.0087563296 -0.014126094 0.005323693)
(-0.0070409761 -0.012785213 0.0053546185)
(-0.005603522 -0.011196095 0.0052767699)
(-0.0042634844 -0.009882401 0.0052591422)
(-0.003249239 -0.0083972353 0.0051019937)
(-0.0023473357 -0.0070804646 0.0048692379)
(-0.0018154116 -0.0055871542 0.0045575355)
(-0.0013727632 -0.0045836359 0.0040929144)
(-0.0011935673 -0.0031110174 0.0031560466)
(-0.0018041063 -0.0020910283 0.0017061692)
(0 2.3646232e-18 0)
(0 8.985699e-19 0)
(0 2.3322516e-18 0)
(0 2.3477931e-18 0)
(0 2.4469688e-18 0)
(0 1.4715661e-18 0)
(0 5.8662978e-20 0)
(0 -1.3334195e-18 -1.4630611e-18)
(0 1.5789447e-19 0)
(0 1.4195253e-18 0)
(0 3.422933e-18 0)
(0 2.9992033e-18 0)
(0 2.1468783e-18 0)
(0 2.0747909e-18 0)
(0 2.3692426e-18 0)
(0 9.7239449e-18 0)
(0 4.1403265e-18 0)
(0 1.5193821e-18 0)
(0 2.7424075e-18 0)
(0 -2.3876235e-19 0)
(0 6.3921587e-19 0)
(0 7.28383e-18 0)
(0 -2.9640661e-18 -1.2853114e-18)
(0 4.3324952e-18 0)
(0 5.416075e-18 0)
(0 1.7898303e-18 0)
(0 7.3261418e-19 0)
(0 1.7004609e-18 0)
(0 3.0658163e-18 0)
(0 3.9434573e-19 0)
(-0.76313762 0.038214055 -0.01728772)
(-0.7631595 0.038506685 -0.01728622)
(-0.76317975 0.038793342 -0.017282796)
(-0.76319838 0.039075908 -0.01728218)
(-0.76321505 0.03935588 -0.017283567)
(-0.76322886 0.039631633 -0.017286825)
(-0.76323924 0.039905862 -0.017291542)
(-0.76324667 0.040177042 -0.017296157)
(-0.76325073 0.040446195 -0.017300979)
(-0.76325136 0.040712225 -0.017303872)
(-0.76324907 0.040975043 -0.017306401)
(-0.76324295 0.041234205 -0.017305014)
(-0.7632352 0.041488438 -0.017303176)
(-0.7632244 0.041737173 -0.017298483)
(-0.76321522 0.041983453 -0.017293646)
(-0.74375329 -0.15781963 -0.016552655)
(-0.74376301 -0.15758008 -0.016556573)
(-0.74377291 -0.15733722 -0.016561531)
(-0.74378289 -0.15708715 -0.016564093)
(-0.74379255 -0.15683197 -0.016566583)
(-0.74380083 -0.15657005 -0.016565943)
(-0.74380732 -0.15630305 -0.016565346)
(-0.74381215 -0.15603039 -0.016563249)
(-0.74381541 -0.15575352 -0.016561582)
(-0.74381723 -0.15547217 -0.016560727)
(-0.74381855 -0.15518634 -0.016560456)
(-0.7438187 -0.15489661 -0.016563222)
(-0.74381995 -0.15460223 -0.016566883)
(-0.74382175 -0.1543027 -0.01657166)
(-0.74382345 -0.15399957 -0.016578311)
(-0.00071328116 -0.0036513642 -0.0024795487)
(-0.0010128643 -0.006221234 -0.0030293191)
(-0.0011943403 -0.009193963 -0.0037417182)
(-0.0019221115 -0.011892154 -0.0041157724)
(-0.0024283981 -0.014705907 -0.0044833851)
(-0.0034860047 -0.017433554 -0.004728232)
(-0.0044842923 -0.020177511 -0.0048984462)
(-0.0059294259 -0.022953113 -0.0050266766)
(-0.0073299047 -0.025610018 -0.0051509744)
(-0.0091318063 -0.028342895 -0.0052259722)
(-0.010962864 -0.030913765 -0.0052958258)
(-0.013117131 -0.033559022 -0.0053768125)
(-0.015339776 -0.036014766 -0.0054320568)
(-0.017845069 -0.038528714 -0.0055073699)
(-0.020438066 -0.040856764 -0.0055738053)
(-0.023313821 -0.043206459 -0.0056637514)
(-0.026302151 -0.045403768 -0.0057320607)
(-0.029498108 -0.047547307 -0.005844162)
(-0.03289077 -0.04960028 -0.0059310897)
(-0.036461151 -0.051541095 -0.0060476877)
(-0.040213193 -0.053405704 -0.0061614072)
(-0.044159859 -0.05514294 -0.0062916799)
(-0.048298169 -0.056817051 -0.0064146811)
(-0.052607051 -0.058341369 -0.0065610011)
(-0.057124259 -0.059800049 -0.0066979523)
(-0.061804578 -0.061119173 -0.0068468557)
(-0.06668367 -0.062365499 -0.0069954649)
(-0.071735129 -0.063478414 -0.0071491892)
(-0.076980717 -0.064508267 -0.007301356)
(-0.082393405 -0.065427267 -0.007451484)
(-0.087992112 -0.06625489 -0.0076030097)
(-0.093766516 -0.066986143 -0.0077494368)
(-0.099719958 -0.06763364 -0.0078968969)
(-0.10584359 -0.068192346 -0.0080374718)
(-0.11214902 -0.068680917 -0.008176292)
(-0.11862273 -0.069086361 -0.0083124346)
(-0.12527421 -0.069437061 -0.008442349)
(-0.13209378 -0.06972128 -0.008571562)
(-0.13909414 -0.069955495 -0.0086989226)
(-0.1462601 -0.070141754 -0.0088258695)
(-0.15360408 -0.070287324 -0.0089540671)
(-0.16111596 -0.070392553 -0.0090797174)
(-0.16879927 -0.070477427 -0.0092117564)
(-0.17665673 -0.070530925 -0.0093430419)
(-0.18467884 -0.070570333 -0.0094792976)
(-0.19287168 -0.070596663 -0.0096193976)
(-0.20123012 -0.07061471 -0.0097620569)
(-0.20975284 -0.070632742 -0.0099100762)
(-0.21843802 -0.070653502 -0.010059806)
(-0.22728344 -0.070684891 -0.010212843)
(-0.23628551 -0.070731708 -0.010366368)
(-0.24544245 -0.070799985 -0.010521177)
(-0.25475022 -0.07089724 -0.010673476)
(-0.26420655 -0.071028248 -0.010824592)
(-0.27380709 -0.071201654 -0.010970995)
(-0.28354965 -0.071422305 -0.011113122)
(-0.29342985 -0.071699135 -0.011248795)
(-0.30344515 -0.072036714 -0.011378357)
(-0.31359164 -0.07244347 -0.011500337)
(-0.32386656 -0.072924506 -0.011615342)
(-0.33426671 -0.073486371 -0.011722945)
(-0.34478843 -0.074133735 -0.011824159)
(-0.35542939 -0.074872407 -0.011918742)
(-0.36618747 -0.075704373 -0.012009601)
(-0.37705446 -0.076636413 -0.012094224)
(-0.38803821 -0.077667182 -0.012176842)
(-0.39912845 -0.078803337 -0.012259539)
(-0.41031394 -0.08004075 -0.01234129)
(-0.42160153 -0.081379008 -0.012425531)
(-0.4329863 -0.082821469 -0.012508837)
(-0.44445996 -0.08436586 -0.012598208)
(-0.45602184 -0.086008885 -0.012689111)
(-0.46766432 -0.087750617 -0.012784604)
(-0.47938243 -0.089586369 -0.012886855)
(-0.49117162 -0.091513764 -0.012993444)
(-0.50302509 -0.09352793 -0.013107352)
(-0.51493655 -0.095628147 -0.013226018)
(-0.52690046 -0.097806142 -0.013352213)
(-0.53890953 -0.10006335 -0.013482886)
(-0.55095846 -0.10238937 -0.013621054)
(-0.56304022 -0.10478731 -0.013763024)
(-0.57514891 -0.10724552 -0.013913406)
(-0.58728 -0.10976442 -0.014066111)
(-0.59942359 -0.11233976 -0.014227108)
(-0.61157971 -0.11496243 -0.014391037)
(-0.6237459 -0.11763436 -0.01456132)
(-0.63591087 -0.12034597 -0.01473735)
(-0.64807501 -0.12309375 -0.014918687)
(-0.66023283 -0.12587446 -0.015105768)
(-0.67237818 -0.12867911 -0.015300832)
(-0.68451799 -0.1315069 -0.015500286)
(-0.69663041 -0.13434895 -0.015708295)
(-0.70874298 -0.13719942 -0.015921414)
(-0.72082009 -0.14005902 -0.016139626)
(-0.73289629 -0.14291192 -0.016361479)
(-0.00013408707 -0.0048876515 -0.0021531947)
(-0.00041227145 -0.00813525 -0.0028238244)
(-0.0010692509 -0.01276363 -0.0031279242)
(-0.0015665138 -0.016281229 -0.0037023022)
(-0.0023398868 -0.020499878 -0.0038466613)
(-0.0032834596 -0.024190555 -0.0041149272)
(-0.0044587221 -0.028184304 -0.0042010959)
(-0.0057351719 -0.031845896 -0.004374754)
(-0.0073070729 -0.03563024 -0.0044546013)
(-0.0090030265 -0.039151132 -0.0045315007)
(-0.01090929 -0.042720239 -0.0046324758)
(-0.012983339 -0.046045303 -0.0046630826)
(-0.015249862 -0.049374319 -0.0047693645)
(-0.017672307 -0.052435218 -0.0048063845)
(-0.020297778 -0.055485131 -0.0049223308)
(-0.023107337 -0.058268263 -0.0049430709)
(-0.026051194 -0.060991905 -0.0050879665)
(-0.029237981 -0.06345679 -0.0051386559)
(-0.032567463 -0.065843613 -0.0052644695)
(-0.036091561 -0.067951323 -0.0053589762)
(-0.039807268 -0.069976422 -0.0054903161)
(-0.043704835 -0.071727715 -0.0055986151)
(-0.047789323 -0.07336014 -0.0057463316)
(-0.052057616 -0.07473664 -0.005878488)
(-0.05652523 -0.075976529 -0.006027703)
(-0.061168246 -0.076975831 -0.0061745229)
(-0.066012726 -0.077820441 -0.0063322308)
(-0.071027495 -0.078437975 -0.0064872029)
(-0.076245327 -0.078902324 -0.0066443541)
(-0.081633463 -0.07915357 -0.0068025644)
(-0.087222698 -0.079248526 -0.0069621501)
(-0.092980735 -0.07915344 -0.0071144388)
(-0.098932429 -0.078907064 -0.0072692571)
(-0.10505846 -0.078493019 -0.0074160543)
(-0.11137388 -0.077937998 -0.0075644471)
(-0.11786392 -0.07724027 -0.0077046753)
(-0.12454787 -0.076418348 -0.0078466367)
(-0.13140402 -0.075473757 -0.0079831914)
(-0.13844298 -0.074421819 -0.0081212432)
(-0.14566455 -0.07327961 -0.0082546179)
(-0.1530674 -0.072044213 -0.0083894854)
(-0.16064875 -0.070743886 -0.0085281595)
(-0.16842019 -0.069375254 -0.0086614975)
(-0.17636046 -0.067958627 -0.0088065506)
(-0.18448718 -0.066502829 -0.0089495419)
(-0.19278881 -0.065017908 -0.0090990538)
(-0.2012658 -0.063516052 -0.0092524357)
(-0.20991615 -0.062009407 -0.0094096321)
(-0.21873691 -0.060508141 -0.0095697719)
(-0.22772456 -0.059024734 -0.0097332323)
(-0.23687535 -0.057571005 -0.0098976695)
(-0.24618683 -0.05615794 -0.010062581)
(-0.25565278 -0.054799665 -0.010226086)
(-0.26527123 -0.053505509 -0.010387705)
(-0.27503577 -0.052291041 -0.010544733)
(-0.28494391 -0.051165386 -0.010697529)
(-0.29498942 -0.050143403 -0.010843762)
(-0.30516974 -0.049234169 -0.010984051)
(-0.31547893 -0.048452173 -0.011116518)
(-0.32591469 -0.047805268 -0.01124264)
(-0.336471 -0.047306066 -0.011361549)
(-0.34714566 -0.046962598 -0.011474157)
(-0.35793438 -0.046783889 -0.011581781)
(-0.3688319 -0.04677772 -0.011684093)
(-0.37983638 -0.046950997 -0.011783694)
(-0.39094581 -0.047309664 -0.011882126)
(-0.40214096 -0.047851751 -0.011981453)
(-0.41343903 -0.048582845 -0.012080606)
(-0.42483049 -0.049512109 -0.012175768)
(-0.43630438 -0.050636425 -0.012277754)
(-0.4478575 -0.051956568 -0.01238237)
(-0.4594837 -0.053467407 -0.012492591)
(-0.47117832 -0.055171928 -0.012608009)
(-0.4829355 -0.057063146 -0.012728943)
(-0.49474936 -0.059140713 -0.01285484)
(-0.50661197 -0.061397621 -0.012987553)
(-0.51851867 -0.063831937 -0.013124344)
(-0.53046146 -0.066434617 -0.013268358)
(-0.54243534 -0.069204344 -0.013415565)
(-0.55443304 -0.072128741 -0.013570215)
(-0.56645016 -0.075208843 -0.013726538)
(-0.57847845 -0.07842738 -0.013890954)
(-0.59051881 -0.081785706 -0.014056661)
(-0.60255793 -0.085266883 -0.014224505)
(-0.61460138 -0.088877492 -0.014397758)
(-0.626635 -0.092589428 -0.014579794)
(-0.63866303 -0.096403338 -0.014764209)
(-0.65067583 -0.1003084 -0.014952642)
(-0.66267996 -0.10429259 -0.015148)
(-0.6746586 -0.10834753 -0.015344206)
(-0.68663219 -0.11245804 -0.015550081)
(-0.69856794 -0.11661889 -0.015754792)
(-0.7105041 -0.1208101 -0.015970275)
(-0.72239802 -0.12502805 -0.016182491)
(-0.73429255 -0.12925369 -0.016400739)
(0.00016550078 -0.0053064548 -0.0019372283)
(-0.00026344822 -0.0097073301 -0.0023005369)
(-0.00052116688 -0.014680203 -0.0027757693)
(-0.0012689669 -0.019232148 -0.0031420982)
(-0.0019904037 -0.023995838 -0.0032554828)
(-0.0031179823 -0.028561852 -0.0034578989)
(-0.0041349614 -0.033055197 -0.0035852827)
(-0.0056507991 -0.037513115 -0.0036952963)
(-0.0070923033 -0.041716241 -0.0037664835)
(-0.0088776182 -0.045978874 -0.0038675403)
(-0.010722326 -0.049906027 -0.0039127076)
(-0.012862279 -0.053868392 -0.0040043355)
(-0.015048999 -0.05747551 -0.0040537481)
(-0.017524935 -0.06107421 -0.0041485309)
(-0.020102024 -0.06436007 -0.0041792697)
(-0.022880223 -0.067505968 -0.0043150548)
(-0.025838721 -0.070422797 -0.0043598822)
(-0.028979693 -0.073114301 -0.0044759072)
(-0.032278509 -0.075598803 -0.0045674801)
(-0.035790021 -0.077814358 -0.0046928942)
(-0.039469324 -0.079840242 -0.0047952406)
(-0.043338803 -0.081557098 -0.0049413177)
(-0.047397854 -0.083092045 -0.0050666026)
(-0.05164569 -0.084314086 -0.0052155023)
(-0.056083685 -0.085340003 -0.0053600244)
(-0.06070856 -0.086062158 -0.0055196267)
(-0.065527244 -0.086576307 -0.0056773605)
(-0.070533173 -0.086808907 -0.0058378167)
(-0.075731101 -0.086821302 -0.0060050807)
(-0.081116651 -0.086572708 -0.0061676496)
(-0.086691088 -0.086109587 -0.0063318623)
(-0.092451525 -0.085407071 -0.0064932699)
(-0.098405421 -0.084498954 -0.0066548446)
(-0.10454072 -0.08337638 -0.0068100443)
(-0.11086839 -0.082063583 -0.0069655375)
(-0.11737964 -0.080567664 -0.0071139131)
(-0.12407702 -0.078897161 -0.0072639629)
(-0.13095406 -0.077073222 -0.0074079642)
(-0.13803838 -0.075108182 -0.0075520921)
(-0.14530021 -0.073007525 -0.0076893489)
(-0.15275267 -0.070801956 -0.0078363677)
(-0.16039384 -0.068492923 -0.0079725663)
(-0.1682212 -0.066098895 -0.0081254386)
(-0.17623602 -0.063640426 -0.0082709054)
(-0.18443939 -0.061124191 -0.0084243686)
(-0.1928223 -0.058572176 -0.0085823286)
(-0.2013903 -0.055996153 -0.008743532)
(-0.21013573 -0.053413901 -0.0089094231)
(-0.21905799 -0.050838752 -0.0090791041)
(-0.2281511 -0.048288095 -0.0092521427)
(-0.23741365 -0.04577712 -0.0094254957)
(-0.24683826 -0.043321365 -0.0096010414)
(-0.2564223 -0.040937982 -0.0097739229)
(-0.26615956 -0.038641404 -0.0099456838)
(-0.27604544 -0.036449808 -0.01011244)
(-0.28607463 -0.034376587 -0.01027523)
(-0.29624202 -0.032439732 -0.010431134)
(-0.3065427 -0.030652595 -0.010581052)
(-0.31697175 -0.029031386 -0.010723222)
(-0.32752432 -0.027588364 -0.010859309)
(-0.33819597 -0.026338686 -0.010987649)
(-0.34898246 -0.025292639 -0.011110709)