/*--------------------------------*- C++ -*----------------------------------*\
  =========                 |
  \\      /  F ield         | OpenFOAM: The Open Source CFD Toolbox
   \\    /   O peration     | Website:  https://openfoam.org
    \\  /    A nd           | Version:  6
     \\/     M anipulation  |
\*---------------------------------------------------------------------------*/
FoamFile
{
    version     2.0;
    format      ascii;
    class       pointScalarField;
    location    "0.42";
    object      E;
}
// * * * * * * * * * * * * * * * * * * * * * * * * * * * * * * * * * * * * * //

dimensions      [1 -1 -2 0 0 0 0];

internalField   nonuniform List<scalar> 
28033
(
28173.108
26031.755
-1728765.2
-843390.54
34430.676
30692.155
-1269130.4
-2613402.5
18594.192
12648.64
8582.8336
6232.9492
3957.1384
2705.2177
1977.8996
1767.6891
2507.4034
3676.598
6018.033
9184.8123
13030.067
17066.709
24828.69
-943233.75
-920601.9
-909981.41
-906521.85
-910289.04
-919345.42
-932594.29
-946935.16
-960518.84
-971865.63
-979893.43
-983585.07
-982009.36
-973429.3
-726461.2
23642.849
15388.788
15120.286
15100.205
15644.727
15860.769
16174.553
16242.857
16378.355
16447.28
16409.718
16386.28
16333.853
16317.285
16234.406
16116.146
16061.345
16023.956
15941.456
15822.278
15825.466
15681.153
15647.112
15558.823
15449.11
15403.635
15247.645
15153.472
15026.894
14869.103
14671.714
14524.231
14325.119
14034.139
13760.624
13552.108
13315.082
12878.901
12675.376
12340.617
11975.41
11637.253
11301.491
10947.671
10606.077
10260.075
9909.5064
9565.2806
9215.3146
8872.8039
8524.2172
8183.732
7838.9271
7498.6414
7159.4005
6821.5733
6485.6482
6151.3978
5824.4711
5501.5797
5179.9849
4881.3241
4587.3008
4348.0633
4035.7343
3803.2363
3626.7362
3352.0326
3283.8062
3064.6363
3091.822
2952.811
3070.7642
3037.1707
3232.1915
3350.9327
3589.6202
3883.518
4170.7153
4587.7156
4980.038
5379.4789
5942.8915
6409.6214
7047.5317
7630.682
8492.2472
9085.9011
10002.549
11142.541
11316.487
12922.722
12923.157
13445.498
20003.268
21118.977
13026.686
14941.393
14186.498
14673.223
15020.828
15018.394
15227.712
15232.501
15174.179
15106.191
14942.846
14817.201
14608.804
14459.092
14243.446
14030.964
13831.739
13620.255
13410.981
13171.974
12980.507
12727.982
12487.168
12271.739
12007.329
11797.38
11480.033
11281.433
10931.14
10650.94
10369.204
10090.447
9819.3299
9508.3481
9355.9023
8946.0788
8705.9283
8441.3888
8219.854
7982.0629
7780.0571
7589.0987
7420.0979
7270.0751
7144.9314
7039.2557
6958.3345
6902.0671
6865.8872
6858.7016
6870.597
6908.8258
6967.9415
7050.742
7151.256
7274.7488
7416.599
7569.4952
7752.0155
7929.3578
8141.6578
8337.0207
8581.6927
8793.8679
9080.6802
9341.3095
9685.6048
9875.4763
10074.976
10485.181
10616.89
11060.714
11304.316
11705.611
11966.052
12401.175
12698.462
13078.203
13446.249
13780.457
14175.29
14469.5
14898.989
15111.606
15583.249
15786.549
16201.156
16441.623
16961.597
17051.957
17659.975
18066.983
18286.447
17075.717
21726.851
14495.942
10060.153
8020.8662
4791.0222
3277.9718
2537.4401
2300.3073
3012.7054
4953.1635
6908.7093
10510.302
14598.917
19950.856
24266.522
39767.503
17677.803
11263.587
16310.392
14750.658
15975.289
15616.074
16127.456
15844.217
15789.198
15898.483
15462.278
15526.148
15107.648
15134.58
14979.073
14676.666
14287.983
14274.889
13833.151
13846.092
13477.597
13235.001
13107.232
12874.391
12661.599
12425.85
12122.946
11848.809
11702.678
11432.303
11170.912
10900.075
10750.044
10129.147
9915.2091
9917.4242
9567.7393
9292.596
9046.2261
8816.5651
8602.5709
8401.4619
8225.5067
8065.7369
7929.1275
7809.785
7715.2513
7636.8139
7584.2367
7549.3586
7536.5823
7541.5586
7564.9295
7603.2793
7654.7674
7719.1173
7793.2495
7871.6554
7961.8764
8049.4715
8145.1283
8244.4909
8338.0519
8447.1959
8585.4428
8695.213
8505.7463
9292.7207
9103.6644
9242.2186
9370.6978
9551.4096
9754.7757
9956.2463
10170.379
10411.987
10647.868
10903.23
11150.445
11404.546
11663.129
11899.187
12178.037
12395.258
12699.532
12924.414
13250.458
13524.857
13936.796
14225.29
14866.834
15173.648
16014.506
15147.219
-2069717.9
-1973497.1
-1764197.4
-2124696.6
-1758176.6
-2091782.5
-1715041.5
-1906781.8
-1996408
-1843439
-1626805.9
-1954259.6
-1635950.8
-2001347.7
-1930222.2
18946.236
15901.44
16728.617
16079.112
15038.372
14161.238
13279.767
12420.982
11625.825
10870.394
10180.409
9461.0288
8832.5274
8198.4949
7608.929
7041.9158
6545.6644
6073.681
5645.2987
5285.6689
4931.0424
4660.3962
4407.4557
4232.5661
4061.3423
4120.1753
4420.1865
3966.4102
3765.5726
4023.4156
4051.8975
4200.3801
4349.7665
4535.0714
4741.977
4966.9135
5212.9658
5475.19
5752.0483
6039.7282
6342.803
6650.4629
6972.6144
7298.1193
7635.1006
7975.6403
8326.031
8677.2949
9039.9636
9400.7497
9769.7667
10134.666
10517.631
10869.346
11243.805
11624.012
11768.631
12660.516
12931.348
12759.477
13659.194
13653.997
14030.685
14125.183
14536.639
14865.968
14887.475
15230.225
15307.502
15501.658
15664.603
15688.554
15938.552
16131.844
15977.898
16321.87
16241.138
16509.739
16518.418
16480.157
16866.565
16967.166
16720.453
16972.802
17297.239
16732.497
17083.9
16883.272
16810.117
15963.051
15927.913
16155.644
15888.361
13600.975
26926.656
20275.368
18881.91
18106.412
18132.018
18430.597
18727.406
18620.423
18834.921
18840.2
18757.378
18221.899
17875.274
18388.805
19055.954
21252.428
17896.701
18243.046
17580.004
18514.899
18426.772
18281.22
19499.157
20696.846
20117.215
19992.728
18986.388
18270.503
18040.443
17718.899
20181.999
-950456.65
-950691.39
-950532
-950763.24
-950440.56
-950346.65
-950407.95
-950400.71
-950383.45
-950448
-950172.93
-950610.55
-950561.4
-950561.66
-950247.98
-1949027.9
-1947789.4
-1947820.8
-1947158
-1948026.5
-1947933.2
-1948019.1
-1948020.6
-1948062.3
-1948040.3
-1948083.7
-1948147.1
-1948003.6
-1948614.3
-1950235.3
17361.681
13281.77
12345.466
12188.018
12298.175
12511.152
12706.965
12934.461
13064.208
13224.536
13262.923
13376.26
13370.486
13429.924
13388.824
13430.513
13408.751
13399.146
13372.107
13384.659
13377.073
13327.07
13351.161
13281.542
13250.99
13206.924
13119.357
13053.939
12927.363
12829.347
12645.263
12503.661
12321.042
12099.287
11947.547
11621.978
11428.056
11097.354
10832.356
10525.798
10189.704
9838.0582
9535.8289
9162.9228
8841.5322
8475.3347
8141.346
7796.5687
7465.2964
7138.643
6825.7729
6518.9271
6228.6203
5949.1144
5685.814
5435.899
5205.4463
4991.9108
4796.825
4623.5901
4470.3165
4336.1153
4231.2144
4149.0656
4033.0629
4102.385
4221.8808
4555.3438
4614.6258
4682.8464
4900.4169
5035.3618
5304.52
5514.985
5828.4542
6131.698
6473.6036
6910.4225
7221.4744
7811.9462
8143.3041
8763.4756
9404.1613
9923.1787
10387.991
10923.2
11624.302
12047.055
12985.047
13265.858
14189.179
14817.855
15761.103
18474.196
23360.538
11175.461
9219.8144
9399.4563
9072.7841
9281.4834
9243.0266
9410.5199
9541.9879
9682.8369
9811.7219
9922.6912
10055.55
10132.871
10233.769
10292.313
10382.402
10432.276
10495.659
10545.901
10597.997
10624.355
10672.161
10704.612
10728.203
10729.682
10753.05
10730.348
10704.376
10657.43
10608.463
10535.326
10424.235
10321.758
10156.645
9999.3251
9792.8899
9635.3844
9384.3743
9156.1402
8891.7548
8646.5496
8355.7386
8079.0167
7745.8533
7452.3158
7136.2482
6824.3474
6516.7213
6210.924
5915.9443
5627.074
5351.8659
5089.2135
4840.6173
4607.8681
4391.7924
4194.7241
4014.2931
3852.9772
3718.057
3589.4574
3502.6366
3426.638
3360.1994
3321.3205
3408.6176
4507.773
5671.9782
5813.6418
6000.3478
6218.8593
6429.7514
6709.2677
7036.9013
7302.2926
7741.5784
7999.7667
8523.8167
8765.0621
9356.8911
9617.741
10138.361
10504.487
9589.0435
9303.6904
9974.7514
10568.907
11064.842
11607.631
12186.123
12785.867
13427.124
14907.624
16891.923
21651.763
7136.7559
5805.0546
6509.7095
6468.5262
6668.0396
6614.6665
6738.4503
6825.331
6914.639
7047.2617
7143.5536
7274.9546
7357.0709
7476.5134
7555.2079
7648.3256
7719.5229
7800.2815
7865.3327
7925.1033
8002.5754
8035.1672
8093.8844
8107.9734
8146.2705
8149.3466
8142.8689
8138.4333
8106.6186
8063.9625
7995.352
7927.076
7837.6716
7714.9505
7634.4754
7444.4685
7275.7776
7044.6072
6869.8526
6666.9873
6385.8555
6176.9505
5908.9066
5621.7592
5357.5114
5062.4648
4781.8478
4509.573
4234.6542
3980.7808
3733.8614
3506.7677
3296.117
3104.8042
2935.2717
2787.176
2661.4465
2557.8009
2479.8126
2420.3308
2389.3032
2382.4702
2390.1656
2428.8
2532.0962
2507.9224
2491.5607
4506.7916
4372.9627
4649.1898
4901.3662
5132.5113
5423.7605
5652.848
6053.1843
6299.868
6725.8931
7040.0721
7465.8854
7838.1592
8226.0852
8726.5091
8976.3893
9380.3956
8768.2095
9883.0155
10386.503
10927.252
11649.643
12095.405
12925.854
13765.966
14878.801
16674.397
19167.507
4674.2984
3661.2482
4025.3012
4290.9365
4431.2404
4519.3068
4603.8915
4671.7287
4725.7139
4830.0419
4884.4258
4994.188
5051.4176
5156.7861
5200.552
5295.7883
5340.1863
5411.9604
5446.4611
5506.0358
5532.3066
5579.6953
5600.8262
5638.1309
5646.924
5657.1536
5663.5316
5647.4027
5623.7769
5597.724
5564.2575
5510.6323
5450.0794
5383.9741
5311.5248
5158.8627
5169.2081
5043.1118
4925.6404
4752.1932
4620.0625
4421.8992
4241.0518
4057.8048
3886.5778
3689.702
3515.8248
3334.0655
3164.9412
3011.929
2867.9129
2747.1352
2640.2061
2556.3883
2492.331
2449.7148
2426.6471
2428.7776
2443.7725
2490.0772
2544.1668
2627.5376
2718.7731
2860.2304
2955.3518
3188.542
3311.6685
3003.195
2937.1713
3207.8773
3616.9526
4016.9656
4172.8906
4350.5189
4752.6189
5099.9039
5627.7805
5949.1795
6571.6857
6901.5469
7606.886
7916.6814
8720.6116
9047.8066
10192.745
10868.293
11618.724
12138.883
12914.791
13377.788
14527.135
14754.458
16067.605
16166.952
16149.84
3113.8379
2051.5128
2469.7396
2506.0979
2750.4289
2771.8147
2871.6268
2880.6338
2944.7502
2990.5436
3041.4015
3099.3937
3146.2862
3198.5143
3239.7417
3284.04
3311.9947
3349.4496
3374.3698
3398.0137
3421.5761
3428.7219
3447.0666
3443.5841
3444.4312
3440.4289
3431.4201
3417.6459
3409.2757
3387.1106
3361.5232
3332.0084
3302.1883
3262.6638
3213.8588
3134.7814
3183.2958
2970.2468
2992.7025
2930.2019
2818.0384
2723.423
2650.3777
2543.0314
2451.0104
2349.9275
2277.6886
2202.0449
2152.6993
2114.2854
2096.6494
2099.8623
2122.2483
2168.3828
2235.2249
2322.4847
2431.5092
2558.3508
2703.5264
2866.2125
3044.001
3226.9416
3447.9015
3646.5932
3896.5949
4110.5252
4443.1779
4633.9962
4975.6531
5230.6986
5654.773
5753.585
5565.3831
5531.2469
6033.6099
6471.4255
6958.076
7422.636
7963.1511
8463.6419
9019.2882
9614.8652
10131.699
10815.45
11362.423
12105.64
12785.711
13487.033
14368.906
15227.976
16069.412
16396.07
17095.829
16460.562
14210.728
1953.4354
1105.4188
1231.8208
1250.3102
1369.5655
1432.4179
1459.9806
1508.2934
1513.8698
1562.3206
1555.5011
1605.3005
1599.0302
1643.3071
1633.3605
1669.4802
1659.3774
1685.4148
1672.7437
1693.6571
1680.1386
1695.4461
1684.1778
1688.5326
1685.4922
1688.7272
1681.3617
1681.2381
1675.545
1673.1049
1676.9645
1678.5095
1681.1097
1687.291
1676.6219
1700.9522
1637.1178
1998.1174
2080.8457
2001.3983
1985.1175
1928.0909
1897.6235
1853.6156
1801.3031
1751.167
1706.4997
1666.7334
1634.7731
1612.8587
1600.7213
1603.7823
1618.8324
1650.328
1695.0746
1757.4326
1832.1862
1924.9111
2028.8022
2150.658
2278.4242
2436.8066
2584.8946
2769.9425
2956.1394
3168.4175
3387.0479
3627.0988
3933.6303
4227.4501
4528.4706
4772.6355
4967.1768
6028.737
6742.4534
7191.4596
7765.1165
8185.758
8912.2976
9258.5702
10155.304
10445.225
11450.998
11817.397
12832.063
13424.18
14369.031
15119.563
16127.117
16592.74
17542.05
17810.414
18846.494
17359.268
13772.509
1428.792
464.30787
537.13915
379.58134
470.65598
456.84535
516.04322
494.91316
534.34241
531.43838
545.03141
554.19891
564.14039
560.89322
564.82407
564.53709
551.77055
553.35555
537.23277
534.38724
523.98411
521.24935
508.61003
508.69767
511.78832
505.59207
517.3907
527.62854
545.2773
565.0212
588.31454
611.73542
646.54105
664.9273
715.19653
723.33577
787.92485
724.79255
946.3151
893.35707
940.14086
931.11552
936.52919
931.78823
921.26808
914.23031
917.63813
918.79317
935.87623
958.77774
997.43003
1046.611
1112.7957
1192.0353
1288.9285
1399.8569
1528.4995
1672.5318
1831.5404
2006.4973
2200.4299
2402.9213
2626.7772
2865.5074
3121.8961
3390.6815
3684.9714
3999.0716
4333.9451
4675.2296
5076.0716
5472.6862
5898.0837
6833.0482
7501.7166
8061.1051
8506.0347
9166.8404
9682.1255
10338.678
10977.924
11588.697
12369.85
12927.119
13796.106
14368.134
15223.261
15959.447
16823.033
17747.012
19133.888
19587.51
20476.778
19223.642
15635.754
1200.9682
282.42441
177.49889
48.111696
28.106759
62.805299
45.147648
60.132762
63.685861
73.60002
55.734999
78.027608
50.359298
63.758745
45.978349
50.548076
30.589989
44.755932
19.991891
36.573302
10.102413
22.071648
16.585554
41.389274
39.31609
62.764687
82.195119
104.22826
134.11343
166.01578
207.29584
257.2555
294.92794
362.6085
406.64897
464.86638
510.88119
593.49449
617.81708
662.75972
712.02125
742.18132
781.06318
823.91265
867.77421
924.99082
982.49332
1049.1167
1125.2983
1211.6079
1308.9436
1421.6009
1544.2345
1685.0159
1837.2889
2006.0276
2188.4488
2387.6622
2594.8364
2827.8114
3061.781
3316.8021
3583.1861
3870.4216
4152.6336
4471.7559
4792.0314
5133.7412
5480.2634
5876.0212
6239.4035
6697.0624
7113.5208
7571.5104
8109.5365
8619.0768
9209.0044
9785.1924
10397.895
11002.259
11726.053
12263.295
13154.591
13630.484
14610.558
15219.41
16138.696
17038.54
17789.04
18735.858
19215.884
19421.21
21113.893
20997.113
18365.076
1558.5102
514.52344
418.12554
236.02463
211.78831
198.33981
197.583
179.16588
186.27633
177.09575
172.44011
166.46856
163.34243
149.31803
138.59411
128.6943
110.05761
103.69121
87.298206
95.818238
108.40314
147.58673
131.5883
128.6593
126.69433
139.22922
149.81252
171.79648
202.67719
230.80101
277.5569
305.25513
362.67077
407.60933
448.40409
510.20568
555.07197
608.02397
649.45422
704.87198
748.43152
798.22638
850.69111
903.5516
958.77119
1011.5809
1076.1404
1143.2113
1223.5637
1308.8603
1410.1982
1517.1065
1639.9252
1773.9991
1919.4025
2079.787
2252.8886
2437.5061
2637.769
2853.3118
3073.0939
3319.6546
3573.2982
3836.4787
4124.59
4426.7674
4741.454
5073.3923
5446.7291
5804.8509
6221.3467
6654.5035
7035.5494
7608.5015
7885.2888
8261.1077
8735.223
9389.104
9899.4389
10675.018
11213.635
11996.391
12716.006
13300.215
14287.719
14680.779
15649.897
16187.026
16783.264
17840.723
18644.816
20221.918
22023.245
22171.803
21091.56
2478.3568
1428.3091
1334.8275
1216.5578
1199.2336
1210.2819
1208.7219
1181.402
1208.6638
1213.0633
1191.3903
1212.1418
1189.3764
1177.0139
1166.6713
1142.8901
1113.1937
1104.2313
1055.4274
1038.1597
1008.5254
941.73785
867.69062
848.73128
844.35477
828.95168
825.37524
825.9499
829.9054
841.3848
851.92037
879.09803
902.01764
923.22232
971.54846
996.13171
1035.8601
1074.7971
1109.1758
1152.8844
1186.8265
1233.6155
1267.3242
1316.1588
1362.4282
1421.7433
1485.6361
1558.5059
1637.9232
1729.7599
1829.3212
1940.9978
2064.5602
2199.7392
2345.491
2507.7951
2675.8505
2863.8738
3057.6769
3268.1001
3486.9416
3727.9975
3960.9449
4234.9886
4491.0366
4787.5984
5074.1759
5404.9838
5720.7534
6085.34
6459.823
6847.7686
7287.9006
7816.9249
6945.486
6256.9106
6816.6114
7327.5997
7969.667
8523.7555
9225.8775
9902.0043
10601.594
11381.761
12132.507
12934.389
13725.055
14712.685
15386.096
16582.756
17261.858
18302.49
19587.817
20859.558
23623.137
2899.5519
2454.5825
2333.7927
2365.4194
2331.102
2364.3085
2307.1253
2311.5482
2322.2857
2315.9511
2295.7992
2309.2658
2273.8732
2256.4691
2228.2121
2188.457
2160.032
2119.0476
2084.1123
2053.7168
2044.289
2001.4828
1996.1575
1985.4144
1923.8681
1863.4009
1820.353
1761.3428
1733.269
1684.991
1673.5238
1647.9571
1623.2841
1629.5747
1603.344
1603.8324
1598.6264
1600.9337
1603.7951
1605.9641
1616.6238
1622.4013
1641.0384
1656.8069
1683.2985
1707.9677
1745.0369
1783.9675
1836.0948
1892.4476
1961.7603
2037.2832
2125.7946
2221.6134
2330.7769
2448.884
2578.3003
2722.3246
2870.7283
3039.954
3215.9317
3402.9034
3609.8658
3832.0185
4056.3093
4314.8122
4572.4974
4850.3135
5160.0483
5477.0703
5812.4777
6198.337
6575.6429
6970.0804
8313.305
6635.8695
7355.5334
7927.3472
8462.5935
9196.2289
9797.3585
10606.941
11283.53
12119.971
12903.948
13650.776
14606.217
15207.61
16123.963
16961.715
17562.647
19106.735
20543.27
22291.078
25157.54
6345.3077
4347.5485
4686.8686
4615.3219
4677.4299
4582.5407
4635.607
4604.871
4620.4515
4609.0604
4594.6172
4558.0691
4512.9391
4439.327
4379.8274
4279.6574
4201.2011
4096.0218
3996.9355
3901.7566
3765.3738
3643.1295
3617.9863
3637.233
3521.9559
3416.5967
3308.9858
3207.4631
3112.8458
3023.5369
2951.0756
2867.1829
2811.0127
2745.7521
2697.001
2658.9684
2619.6105
2589.4041
2555.3357
2540.2096
2514.8341
2508.5633
2496.7927
2500.0856
2504.7313
2522.1898
2544.5412
2579.1029
2619.3115
2671.9495
2733.1801
2804.1699
2886.3464
2977.3688
3079.6139
3190.16
3311.7883
3442.7955
3579.413
3734.7803
3883.3383
4061.0186
4224.3356
4426.2825
4592.1212
4833.1789
5023.7855
5292.3688
5526.9507
5799.4318
6111.9475
6409.8184
6789.0469
7159.2865
7436.053
8539.091
9341.9679
9860.6486
10456.757
11032.363
11635.678
12301.153
12889.67
13658.646
14191.403
15052.834
15568.038
16417.207
17104.705
17932.9
18640.385
19665.403
19989.683
20363.371
23366.292
9538.4565
7989.0157
7959.105
7797.4742
7649.0349
7651.653
7654.6698
7626.024
7664.3725
7613.2958
7568.5372
7499.7157
7381.3017
7269.0912
7130.1746
6960.4511
6816.4538
6624.8762
6467.0224
6281.6336
6107.5446
5945.1006
5780.6995
5645.2599
5474.9378
5280.7111
5142.1336
4948.6821
4802.3075
4645.3517
4500.2278
4372.4174
4242.1083
4136.6227
4010.8256
3904.0878
3802.3919
3704.8118
3623.2679
3533.9526
3464.7769
3388.6998
3328.537
3265.3272
3214.3661
3164.9593
3126.0287
3091.5015
3066.7503
3047.9982
3038.5063
3034.9326
3041.628
3054.2429
3077.3295
3107.2748
3148.3032
3197.2172
3256.5249
3326.346
3405.6488
3497.1888
3597.4567
3727.8114
3838.6402
4039.4022
4153.9269
4384.2438
4541.6958
4795.3295
5012.3982
5332.6672
5604.0812
5951.456
6364.0128
6684.4974
7163.18
7674.4994
8201.5476
8799.0023
9421.9035
10088.976
10795.993
11528.287
12303.701
13107.822
13906.843
14865.333
15612.872
16687.596
17476.251
18646.203
18700.604
19044.358
21231.201
13275.622
11030.349
10781.73
10382.626
10585.719
10580.914
10671.579
10778.455
10822.258
10798.62
10769.42
10669.05
10556.896
10416.38
10245.909
10074.718
9895.3861
9680.6858
9504.3959
9286.9118
9083.2331
8874.7012
8661.7183
8460.1429
8255.7691
8033.9942
7856.5914
7624.4961
7451.8454
7231.201
7057.0747
6854.765
6677.3862
6513.7842
6333.8821
6192.1543
6032.1843
5895.2464
5744.5238
5620.568
5487.6828
5370.0227
5254.3593
5149.2438
5049.0638
4959.4921
4874.2327
4800.3763
4732.1568
4672.8145
4622.5997
4577.8513
4543.813
4514.0025
4494.2836
4478.8724
4471.3707
4471.3245
4472.8089
4490.7656
4499.7894
4536.9623
4555.8727
4614.7328
4626.9723
4746.258
4741.06
4946.9941
4989.4456
5156.7191
5375.4429
5530.2802
5822.5286
6058.5922
6435.4669
6746.8611
7206.4242
7614.2651
8135.1373
8681.867
9243.3752
9912.3372
10511.883
11288.986
11928.427
12790.044
13492.81
14440.769
15189.429
16347.326
17172.402
18411.377
19118.229
18687.223
20081.532
15606.272
13078.951
12431.997
12319.725
12753.88
12731.272
13005.332
13134.124
13184.889
13216.147
13133.953
13085.846
12936.634
12793.872
12622.059
12427.913
12266.269
12051.79
11846.528
11651.018
11450.94
11218.29
11058.396
10806.796
10606.989
10356.954
10127.934
9907.2282
9673.2655
9479.012
9223.1263
8987.9623
8744.6034
8496.9842
8251.9699
8029.2398
7855.4744
7598.8306
7407.9046
7180.4506
6985.6039
6778.1191
6585.4154
6391.618
6207.8852
6028.3309
5857.3243
5694.1715
5537.2301
5390.5278
5250.2896
5118.9865
4997.1517
4884.4912
4782.0296
4689.7065
4611.6052
4541.8144
4490.0863
4448.5963
4429.5384
4421.5455
4441.1558
4469.5513
4523.6583
4588.7108
4633.6674
4868.6313
4917.4557
5312.5898
5389.6869
5765.7395
6000.3732
6364.1957
6736.9652
7183.2297
7625.4991
8166.7982
8723.0127
9311.2433
9965.4753
10638.849
11358.115
12088.497
12916.5
13656.187
14547.387
15428.03
16296.065
17279.071
18383.262
19444.302
20258.506
21592.261
20815.115
10395.074
9815.9479
7990.0373
7683.7971
7422.1186
7439.4437
7247.2722
7367.4772
7398.8269
7493.917
7462.0883
7482.6488
8319.6779
9046.2705
11544.327
7251.8369
5876.9854
4909.1107
4887.1137
4463.3795
4447.7582
4263.8115
4353.5158
4454.8665
4406.2513
4514.0744
4714.7094
5162.9371
6070.4054
7793.885
4721.3636
3635.2281
2449.1902
2296.7666
1984.0507
1905.2813
1874.8768
1802.8891
1838.6188
1885.888
2017.8161
2162.3982
2580.627
3535.9462
5036.994
3220.5242
2465.4713
1855.9779
1549.4983
1446.3067
1337.4139
1313.9539
1272.4894
1333.644
1369.0359
1492.4609
1605.0217
2085.0005
2702.815
3562.9543
2141.2825
1577.3694
1007.9176
853.65237
696.00427
644.60534
605.12658
593.25346
603.11471
649.97939
718.53043
879.79211
1161.2099
1590.7509
2473.5795
1787.312
1173.9026
775.72721
654.18526
533.24301
497.3663
458.17989
462.29207
473.90934
504.07155
586.94451
674.4048
876.32839
1280.5793
1937.7833
1188.9973
775.62274
537.62745
396.45668
327.91804
265.41431
246.99645
233.88441
245.66815
273.44413
328.00116
431.39884
583.34251
912.18711
1480.3711
1206.6121
754.71395
495.44242
381.71336
296.6016
256.41191
229.48813
229.24404
243.1176
269.66025
336.83619
433.34137
588.67533
906.89787
1506.2377
1367.79
875.60645
593.78925
447.92168
356.14635
302.61389
274.54323
276.45565
283.41662
353.87178
382.56439
499.4383
671.00336
1057.662
1589.6
2106.0424
1469.7353
937.86486
753.36986
590.6696
533.53725
484.45243
478.97283
492.86398
522.34735
657.18736
742.41731
1082.5148
1664.3787
2524.3121
2858.969
2087.6747
1366.9175
1142.6928
907.73267
849.49423
776.04053
797.92707
804.0422
875.55043
1008.9718
1236.6801
1644.7488
2384.0394
3278.4099
4607.0322
3117.3626
2320.6492
1955.9615
1681.0815
1528.3068
1477.0399
1440.6373
1492.1988
1542.3778
1762.5017
1825.6
2510.3618
3477.6911
4839.1253
6170.0777
4826.2526
3611.8521
3182.1047
2795.1079
2725.8894
2573.1389
2662.7263
2663.2136
2665.4304
2927.9047
3130.3607
3793.5924
5135.2077
6088.9512
9216.8473
7201.2205
5873.5043
5354.2498
4960.6053
4775.8265
4857.4817
4888.4177
4844.1498
4852.4964
4973.1119
5254.4326
5947.3231
6993.614
9703.7623
11663.635
11773.782
9226.0045
8887.3872
8358.8491
7843.484
8316.5422
8707.0783
8103.0081
8566.3838
8372.396
8709.6781
9378.122
10700.649
13264.194
26527.908
22024.91
21877.915
22352.662
22747.904
22561.754
23739.179
24876.961
25329.755
25021.15
24237.13
23010.48
22813.761
23482.92
23047.434
19665.4
17346.332
16586.332
15984.664
15228.193
15792.004
15531.05
15621.405
16660.156
15725.921
16065.017
15717.329
16921.947
18172.437
20576.315
16147.614
16704.521
15905.754
15308.977
15615.634
14137.303
14075.339
14232.793
13438.223
14752.746
14666.465
16205.738
16564.847
16622.459
17107.977
15960.614
17466.199
17209.21
16490.834
16214.724
16072.757
15806.573
15914.458
15927.354
15977.27
16542.693
16947.407
17300.062
17602.58
16424.686
16320.772
17106.343
17206.017
17647.93
17068.208
16892.608
16970.847
16786.807
17007.554
17496.083
17362.99
17844.295
17559.975
17198.858
16409.663
16085.999
17290.355
17378.061
17518.919
17547.427
17481.206
17315.76
17291.747
17383.677
17289.799
17681.86
17669.669
17571.44
17306.156
16170.451
16162.552
16984.083
17308.962
17570.052
17571.362
17609.248
17658.96
17623.157
17721.157
17801.252
17681.039
17713.912
17421.517
16750.335
16456.174
16224.199
16743.545
17174.528
17468.143
17670.46
17627.949
17651.638
17707.51
17615.752
17725.962
17660.254
17490.98
17254.705
16555.442
15965.422
15957.763
16503.895
16901.168
17198.337
17230.563
17414.753
17428.419
17456.081
17527.14
17382.525
17308.175
17080.399
16849.635
16345.129
16049.49
15966.269
16218.913
16625.793
16836.551
17045.106
17103.549
17182.75
17186.104
17128.265
17190.572
16938.101
16910.235
16525.305
16189.239
15920.52
15680.404
15992.809
16274.032
16531.077
16667.285
16832.621
16863.108
16917.143
16917.223
16790.96
16828.415
16544.96
16378.385
16033.69
15797.078
15515.394
15649.208
16079.1
16184.419
16353.627
16420.867
16486.75
16478.16
16432.949
16387.824
16230.035
16120.173
15871.38
15604.084
15599.489
15406.37
15492.617
15616.574
15876.232
16000.271
16107.549
16204.799
16188.236
16240.055
16169.308
16111.187
15969.749
15768.819
15595.562
15401.114
15117.866
15201.96
15479.743
15556.184
15718.253
15789.242
15789.891
15845.267
15777.124
15698.865
15578.468
15489.408
15294.175
15100.504
15195.426
14972.532
14989.618
15201.573
15316.439
15436.423
15454.942
15509.947
15500.38
15579.286
15519.089
15494.167
15389.195
15247.102
15157.608
15024.222
14715.076
14760.183
14929.595
15064.378
15091.329
15207.16
15270.922
15176.379
15179.134
15108.547
14992.939
14921.535
14704.108
14633.183
14718.931
14469.844
14502.314
14670.549
14751.914
14894.237
14892.306
14953.039
14909.781
14968.803
14912.032
14916.599
14838.871
14793.347
14539.821
14698.325
14369.597
14315.786
14480.097
14419.923
14563.531
14621.722
14735.717
14672.373
14648.795
14596.036
14489.638
14429.701
14329.441
14213.254
14194.475
14100.916
14074.797
14243.348
14333.018
14383.921
14370.961
14383.643
14394.512
14426.305
14366.45
14386.703
14277.276
14231.381
14106.041
14262.336
13831.278
13851.387
13984.363
14044.831
14098.8
14198.073
14152.456
14168.094
14169.973
14125.426
14021.929
14046.592
13907.032
13864.637
13804.236
13723.664
13666.581
13810.33
13803.027
13903.873
13864.454
13982.405
13912.553
13927.787
13876.999
13821.867
13799.499
13755.731
13648.467
13762.376
13411.883
13430.242
13527.856
13598.109
13627.543
13669.624
13684.947
13690.912
13710.297
13649.605
13637.923
13615.135
13519.016
13315.11
13507.338
13263.052
13211.528
13361.173
13361.386
13454.246
13406.886
13470.768
13448.052
13467.777
13434.345
13413.555
13318.041
13267.462
13160.764
13244.845
13040.349
12984.496
13099.176
13161.276
13193.289
13236.683
13256.06
13197.391
13215.267
13189.081
13112.032
13135.977
13076.399
12905.491
13042.612
12797.445
12800.24
12860.943
12914.376
12981.455
12927.347
13033.856
12956.855
13006.132
12952.183
12906.549
12876.415
12809.135
12672.288
12810.188
12580.828
12542.437
12683.044
12626.083
12721.777
12730.644
12777.416
12723.413
12763.327
12695.445
12754.47
12676.874
12616.116
12534.542
12532.366
12309.296
12267.556
12380.653
12437.296
12503.64
12481.209
12524.01
12494.008
12527.044
12464.106
12490.901
12422.619
12351.359
12210.812
12407.168
12091.373
12069.538
12131.647
12126.032
12279.106
12227.756
12279.563
12240.74
12285.053
12223.055
12218.379
12151.85
12124.518
12074.99
12041.992
11804.779
11796.786
11962.767
11909.86
11977.857
11936.572
12005.418
11998.687
12044.242
11993.553
11963.227
11943.164
11868.656
11687.762
11914.713
11627.591
11493.43
11650.604
11643.496
11758.407
11736.046
11767.786
11723.999
11718.913
11671.397
11694.264
11600.636
11517.599
11459.785
11604.739
11320.441
11228.931
11421.454
11377.36
11475.027
11509.358
11495.245
11404.444
11394.889
11377.539
11419.584
11345.128
11362.757
11186.884
11336.05
11087.547
10923.165
11120.968
11083.187
11175.294
11119.58
11187.594
11152.618
11215.137
11119.164
11140.351
11059.195
11062.746
10907.301
11090.263
10802.237
10646.169
10857.4
10793.719
10912.223
10835.8
10938.646
10822.984
10900.618
10812.965
10857.895
10771.472
10779.437
10631.632
10814.198
10527.791
10359.95
10523.396
10436.561
10603.195
10556.383
10623.373
10553.493
10610.837
10526.947
10560.531
10482.356
10495.38
10353.715
10583.31
10175.473
10070.716
10338.912
10295.999
10322.679
10258.503
10325.904
10270.476
10314.124
10327.668
10297.579
10227.821
10221.366
10143.276
10212.866
10014.572
9838.1386
9933.0649
10040.269
9971.8708
9968.666
10021.494
9973.7869
10042.106
9845.3926
9980.9496
9893.1462
9933.558
9749.3056
10025.545
9786.1324
9503.8543
9668.4895
9588.0885
9737.3539
9659.9875
9756.0922
9651.8257
9702.1078
9526.8278
9634.7566
9620.7484
9593.9324
9513.7279
9705.9826
9421.0862
9236.5684
9444.5035
9388.6575
9457.2058
9412.2262
9467.7321
9390.8888
9468.8498
9402.2569
9449.4787
9298.7246
9388.3198
9206.9181
9449.1662
9263.8162
8952.1198
9190.3542
9072.5194
9222.022
9107.0844
9225.7115
9110.6138
9186.3242
9092.5767
9129.5494
9065.626
9097.7542
8939.1409
9217.5644
9009.7252
8711.0272
8940.6776
8843.32
8953.0137
8864.4489
8973.5643
8843.7832
8955.9626
8820.1113
8909.8078
8786.8629
8851.1784
8698.0013
8971.8621
8813.4583
8477.2823
8729.1219
8592.8087
8741.501
8624.7329
8741.0388
8619.2244
8708.4515
8600.8183
8664.0528
8555.6041
8628.1034
8453.5718
8747.2765
8615.396
8271.1606
8513.9111
8390.5568
8527.0563
8406.3152
8540.6635
8388.7672
8510.8576
8373.5825
8452.3437
8341.9072
8408.9177
8239.8643
8548.7894
8452.7938
8076.2012
8341.8266
8194.7043
8339.3591
8220.9862
8340.7539
8206.0267
8312.1635
8182.5245
8263.8863
8145.2372
8217.3681
8046.5608
8358.2144
8298.9848
7914.4714
8177.5305
8020.2598
8177.7936
8043.8918
8184.5358
8029.6775
8145.779
8014.2802
8091.5271
7975.0213
8050.0967
7872.5294
8194.8625
8176.8478
7767.9152
8042.6398
7876.3076
8030.2497
7906.9345
8040.0767
7884.7319
8003.0081
7867.9912
7943.8141
7830.9933
7899.0599
7723.3604
8049.231
8070.8512
7647.1734
7934.0936
7744.6729
7913.5243
7781.4353
7922.4134
7759.8274
7881.2423
7743.6017
7821.2925
7706.2993
7775.4468
7597.5172
7926.6281
7989.2709
7552.6446
7841.9286
7648.3684
7820.3477
7691.8902
7835.4213
7664.7178
7788.349
7649.5861
7721.4744
7609.2132
7673.1019
7494.4579
7823.335
7934.3143
7476.8204
7782.6017
7572.4225
7751.9048
7622.2043
7767.1833
7587.6741
7719.4817
7573.1497
7647.651
7533.4821
7598.2955
7415.6587
7746.3245
7896.9846
7431.2924
7741.7088
7520.2434
7709.0992
7581.0195
7727.1506
7544.1493
7676.7439
7526.8467
7598.3825
7484.1444
7544.9201
7358.3533
7689.3605
7889.9974
7406.3066
7726.7215
7498.0457
7691.8802
7557.1939
7706.0852
7512.5913
7652.5742
7496.5096
7570.5823
7453.8032
7517.3257
7324.5711
7658.9983
7901.1526
7404.1857
7736.6449
7496.0399
7691.5349
7561.0165
7711.7789
7516.6117
7660.8239
7498.9859
7569.7498
7453.9483
7512.2935
7313.6816
7650.0663
7936.4056
7427.497
7765.9824
7515.456
7721.8774
7584.3776
7734.1963
7530.1207
7677.9329
7508.2355
7585.4551
7465.7984
7526.3715
7323.4267
7663.5858
7994.3797
7468.7475
7815.6199
7562.4147
7766.3632
7626.2271
7780.5734
7575.2713
7726.9851
7556.1351
7628.5368
7507.5801
7566.6281
7356.0337
7699.3133
8069.0545
7529.7621
7888.0256
7621.7138
7832.026