/*--------------------------------*- C++ -*----------------------------------*\
  =========                 |
  \\      /  F ield         | OpenFOAM: The Open Source CFD Toolbox
   \\    /   O peration     | Website:  https://openfoam.org
    \\  /    A nd           | Version:  6
     \\/     M anipulation  |
\*---------------------------------------------------------------------------*/
FoamFile
{
    version     2.0;
    format      ascii;
    class       pointVectorField;
    location    "0.42";
    object      lm;
}
// * * * * * * * * * * * * * * * * * * * * * * * * * * * * * * * * * * * * * //

dimensions      [1 -2 -1 0 0 0 0];

internalField   nonuniform List<vector> 
28033
(
(0 0 0)
(0 0 0)
(6706.4512 -871.4401 26.736401)
(6074.0727 -3074.4738 -4.6068826)
(0 0 0)
(0 0 0)
(6077.7172 -3077.3407 15.457035)
(6726.7067 -878.36527 7.4988318)
(0 0 0)
(0 0 0)
(0 0 0)
(0 0 0)
(0 0 0)
(0 0 0)
(0 0 0)
(0 0 0)
(0 0 0)
(0 0 0)
(0 0 0)
(0 0 0)
(0 0 0)
(0 0 0)
(0 0 0)
(6478.5788 -975.57657 24.175259)
(6212.2358 -1066.2453 21.556016)
(6009.6981 -1160.599 18.890483)
(5893.7012 -1267.0562 16.434166)
(5873.4369 -1393.7789 14.344609)
(5943.5238 -1545.5128 12.096595)
(6085.0631 -1723.2695 9.9899839)
(6268.3878 -1922.7876 7.6560993)
(6457.9715 -2135.4785 5.3281069)
(6618.1336 -2348.7179 2.9859891)
(6717.6138 -2548.768 0.84867629)
(6735.4382 -2722.5157 -0.64042905)
(6662.8022 -2859.9856 -2.1836692)
(6505.2245 -2956.957 -3.1545589)
(6288.0708 -3019.53 -3.8326025)
(-5.1410449 -1.2201185 0.96771219)
(-12.229337 -1.1422313 3.9019595)
(-19.625668 1.6232067 7.6552745)
(-26.489509 5.1477791 11.545526)
(-33.174698 10.621767 15.699237)
(-38.693843 16.879221 20.146838)
(-43.231631 24.765031 24.766314)
(-46.174774 33.404164 29.301065)
(-47.411588 43.523626 33.858374)
(-46.464948 54.380207 38.12314)
(-43.046425 66.41256 42.024807)
(-36.718288 78.981342 45.256623)
(-27.549757 92.362943 48.174447)
(-15.045733 106.00969 50.225512)
(0.51778353 119.99354 51.859634)
(19.647743 133.92531 52.510952)
(41.701677 147.85317 53.049639)
(66.916114 161.29622 52.953471)
(95.091423 174.44626 52.491341)
(126.22655 186.94743 51.61493)
(159.95769 198.87095 50.745235)
(196.37139 209.85619 49.315772)
(235.38749 220.10162 47.884987)
(276.97626 229.25302 46.053479)
(321.109 237.24854 43.766315)
(367.85673 244.15083 41.124774)
(416.93108 249.45895 37.970906)
(468.53678 253.36603 34.263268)
(522.24518 255.48995 29.935609)
(577.94155 255.96556 25.244278)
(635.09963 254.34934 20.108868)
(693.23876 251.00664 14.823374)
(752.13215 245.92254 9.5615027)
(810.87469 239.00858 4.5188244)
(869.03541 230.69507 0.068433445)
(926.05988 221.07482 -3.3881402)
(981.3478 210.76988 -5.8376818)
(1034.7124 199.84409 -6.9957531)
(1085.7708 189.16034 -6.5770089)
(1134.5779 178.76955 -4.6426201)
(1181.2562 169.26881 -1.1837815)
(1226.1891 161.06773 3.7372004)
(1269.775 154.28571 9.8533806)
(1312.7679 149.30547 17.048263)
(1355.8543 146.0658 24.8441)
(1399.9128 144.62611 33.013647)
(1445.6964 144.83433 41.160982)
(1494.0578 146.47975 48.959058)
(1545.6374 149.26739 56.130026)
(1601.0621 152.84916 62.4366)
(1660.7252 156.84792 67.727902)
(1724.9221 160.88555 71.928836)
(1793.7368 164.60214 75.0468)
(1867.1304 167.68114 77.163255)
(1944.9124 169.85941 78.423915)
(2026.793 170.938 79.022049)
(2112.4103 170.78585 79.177329)
(2201.3629 169.33448 79.123923)
(2293.245 166.57299 79.078878)
(2387.6782 162.53177 79.241877)
(2484.3382 157.27679 79.766557)
(2582.9733 150.88573 80.75258)
(2683.386 143.46288 82.247348)
(2785.578 134.9986 84.212406)
(2889.3985 125.67311 86.672609)
(2995.1349 115.3775 89.195772)
(3102.7707 104.00382 91.920805)
(3212.6084 91.592096 94.500917)
(3324.7949 78.097449 96.529363)
(3439.5202 63.127868 97.947025)
(3556.9643 46.627243 98.442944)
(3677.2569 28.353693 97.801138)
(3800.331 8.0871208 95.857248)
(3926.0247 -14.292849 92.642329)
(4054.1175 -38.937623 88.161867)
(4184.1199 -65.933856 82.57627)
(4315.6294 -95.23185 76.112745)
(4447.8846 -126.8151 69.091211)
(4580.4015 -160.46649 61.849656)
(4712.3577 -196.05901 54.768987)
(4843.2924 -233.1931 48.161108)
(4972.5065 -271.76541 42.372954)
(5099.7923 -311.32293 37.534883)
(5224.7363 -351.69589 33.802666)
(5347.3464 -392.44999 31.226408)
(5467.7245 -433.6598 29.628631)
(5585.9356 -474.98852 28.917369)
(5702.5479 -516.44595 28.737181)
(5817.5827 -558.04378 28.996035)
(5931.7395 -599.64701 29.267114)
(6045.0884 -641.71221 29.39065)
(6158.1761 -683.76997 29.392392)
(6270.7441 -726.49128 28.637839)
(6383.0787 -769.80713 28.145224)
(6492.0399 -813.00225 26.974236)
(-2.340376 -1.4173079 -1.9498629)
(-7.4961858 -2.3146228 -3.8672356)
(-15.169094 -5.8701123 -7.9532509)
(-23.531535 -10.390882 -11.530585)
(-30.946692 -16.907725 -16.017001)
(-38.221411 -24.904409 -20.4411)
(-44.751955 -33.573308 -25.626358)
(-50.020163 -44.24577 -30.643895)
(-53.829394 -55.684652 -36.169468)
(-55.822478 -68.549745 -41.368709)
(-55.535805 -82.488632 -46.616027)
(-52.887026 -97.457632 -51.42462)
(-47.269566 -113.32226 -55.719797)
(-39.002283 -130.03186 -59.647427)
(-27.656083 -147.26098 -62.864949)
(-13.507433 -165.19564 -65.698025)
(3.5510114 -183.38445 -67.91015)
(23.334776 -201.92278 -69.705287)
(45.583653 -220.7438 -71.219082)
(70.396304 -239.54663 -72.372853)
(97.469794 -258.53424 -73.224787)
(126.88347 -277.58056 -73.886657)
(158.53979 -296.44212 -74.095815)
(192.56959 -315.48338 -73.93965)
(229.06255 -334.25184 -73.159835)
(268.01321 -352.95098 -71.591454)
(309.61407 -371.50866 -69.223866)
(353.73985 -389.64803 -65.755874)
(400.45447 -407.58465 -61.2635)
(449.38796 -424.82276 -55.647461)
(500.29307 -441.70166 -49.135015)
(552.7311 -457.74406 -41.825706)
(606.08169 -473.12314 -34.039749)
(659.73056 -487.61551 -26.126332)
(712.89569 -501.38362 -18.499394)
(765.0441 -514.2186 -11.541863)
(815.24636 -526.48151 -5.7764305)
(863.13577 -538.20122 -1.4813413)
(908.4532 -549.70482 1.1423466)
(950.9242 -561.26339 1.8431557)
(990.56941 -573.20573 0.58917883)
(1027.704 -585.94224 -2.5321265)
(1062.7433 -599.86654 -7.3255981)
(1096.3381 -615.37646 -13.506609)
(1129.2274 -632.83648 -20.705124)
(1162.2564 -652.56645 -28.521634)
(1196.2679 -674.8163 -36.544415)
(1232.0971 -699.75655 -44.384079)
(1270.4839 -727.47623 -51.70822)
(1312.0604 -757.967 -58.253697)
(1357.3105 -791.14881 -63.846955)
(1406.5582 -826.85985 -68.405481)
(1459.9693 -864.88796 -71.93394)
(1517.559 -904.98061 -74.512629)
(1579.2146 -946.8678 -76.281716)
(1644.723 -990.28179 -77.419339)
(1713.8029 -1034.979 -78.121166)
(1786.1374 -1080.7464 -78.583514)
(1861.4038 -1127.424 -78.983831)
(1939.3064 -1174.9059 -79.46745)
(2019.5944 -1223.1354 -80.146365)
(2102.0806 -1272.1187 -81.084326)
(2186.6567 -1321.8995 -82.302861)
(2273.3039 -1372.5613 -83.778693)
(2362.0691 -1424.1978 -85.451903)
(2453.1036 -1476.9286 -87.222791)
(2546.5882 -1530.8437 -88.945137)
(2642.8116 -1585.9816 -90.49657)
(2741.895 -1642.4378 -91.756456)
(2844.3162 -1700.0122 -92.276777)
(2950.4294 -1759.0973 -92.257408)
(3059.9852 -1818.8249 -91.309346)
(3173.4825 -1879.6867 -89.372776)
(3290.7514 -1940.9939 -86.368731)
(3411.6376 -2002.651 -82.305415)
(3535.9052 -2064.2478 -77.197071)
(3663.1007 -2125.4746 -71.187714)
(3792.7154 -2186.0064 -64.466811)
(3924.0507 -2245.4978 -57.271005)
(4056.4832 -2303.7401 -49.907054)
(4189.2633 -2360.4817 -42.656537)
(4321.759 -2415.6233 -35.811277)
(4453.3827 -2469.0919 -29.625446)
(4583.6854 -2520.9351 -24.275501)
(4712.3608 -2571.207 -19.886674)
(4839.2583 -2620.0999 -16.458741)
(4964.3904 -2667.7393 -13.94621)
(5087.8856 -2714.3532 -12.201653)
(5209.9732 -2760.0729 -11.031715)
(5330.9428 -2805.0633 -10.227055)
(5451.0783 -2849.3338 -9.56089)
(5570.5771 -2892.9482 -8.8548041)
(5689.6075 -2935.7358 -7.9904669)
(5808.0953 -2977.6646 -6.8961258)
(5937.9189 -3024.5485 -5.657888)
(0 0 0)
(0 0 0)
(0 0 0)
(0 0 0)
(0 0 0)
(0 0 0)
(0 0 0)
(0 0 0)
(0 0 0)
(0 0 0)
(0 0 0)
(0 0 0)
(0 0 0)
(0 0 0)
(0 0 0)
(-0.45801956 -0.30647769 1.2896146)
(-6.0377837 -4.9102027 6.5218623)
(-15.8795 -4.6243752 12.113829)
(-23.782267 -11.746743 17.832448)
(-32.55205 -16.859544 23.877498)
(-40.051622 -23.879328 29.217355)
(-47.526162 -32.41716 35.44682)
(-52.959631 -41.528544 40.879614)
(-57.666367 -52.441938 46.580245)
(-59.611507 -64.421011 51.484567)
(-59.154704 -76.961199 55.656427)
(-56.969032 -91.465079 59.204545)
(-50.351292 -106.38176 61.764053)
(-42.06265 -122.44991 63.32176)
(-29.291826 -139.59494 63.916493)
(-14.264573 -156.59571 63.734077)
(4.0174554 -175.49817 62.832423)
(25.296781 -193.95563 61.120931)
(49.047971 -213.54251 59.333748)
(75.489111 -233.09577 56.873704)
(104.0601 -252.94247 54.789541)
(135.04265 -273.36197 52.290903)
(167.96156 -293.87454 49.908564)
(203.33618 -314.32377 47.428644)
(240.68126 -334.81453 44.861653)
(280.56347 -355.35264 42.142517)
(322.22533 -375.12319 38.947962)
(366.77705 -395.72894 35.59653)
(412.80348 -414.24891 31.44716)
(461.19902 -433.76142 27.150985)
(511.3281 -451.61331 22.386419)
(562.4318 -468.75377 17.404721)
(614.33583 -484.84265 12.378894)
(666.25655 -499.81961 7.6487616)
(718.59388 -514.74706 3.5105836)
(766.53402 -526.1909 0.31119726)
(816.00066 -539.14763 -1.8251973)
(862.37408 -550.78532 -2.4014507)
(905.91921 -562.0246 -1.3464965)
(946.97854 -573.22133 1.3249)
(985.4462 -584.84338 5.7001148)
(1021.6827 -597.22732 11.565881)
(1056.1422 -610.82403 18.706448)
(1089.4681 -626.03001 26.798136)
(1122.3973 -643.21129 35.467091)
(1155.7459 -662.68352 44.311652)
(1190.3326 -684.68983 52.940898)
(1226.9444 -709.39622 60.992013)
(1266.2823 -736.88282 68.165714)
(1308.9359 -767.15154 74.231464)
(1355.3502 -800.12485 79.053929)
(1405.8229 -835.66356 82.575923)
(1460.4955 -873.57918 84.839021)
(1519.3711 -913.64475 85.946405)
(1582.327 -955.62546 86.077646)
(1649.1453 -999.27279 85.442198)
(1719.5329 -1044.364 84.290255)
(1793.1631 -1090.69 82.868178)
(1869.6896 -1138.081 81.422677)
(1948.7915 -1186.4026 80.170504)
(2030.1782 -1235.5628 79.294145)
(2113.6309 -1285.5059 78.924246)
(2198.9955 -1336.2228 79.136468)
(2286.2185 -1387.72 79.943457)
(2375.3186 -1440.05 81.283976)
(2466.448 -1493.263 83.049865)
(2559.721 -1547.4622 85.059314)
(2657.3633 -1603.6387 87.154449)
(2752.0784 -1657.4326 88.739189)
(2855.9572 -1716.0702 90.161289)
(2960.6779 -1774.0897 90.756801)
(3069.2994 -1833.0921 90.339806)
(3181.5757 -1892.9105 88.809363)
(3297.5447 -1953.222 86.104623)
(3417.1126 -2013.8141 82.182549)
(3539.9665 -2074.3947 77.170569)
(3665.6951 -2134.6419 71.263362)
(3793.7373 -2194.2199 64.713841)
(3923.4613 -2252.8164 57.841255)
(4054.1726 -2310.1523 50.987009)
(4185.1822 -2366.0031 44.477507)
(4315.8545 -2420.2139 38.59575)
(4445.6451 -2472.7149 33.559741)
(4574.1444 -2523.521 29.489483)
(4701.0952 -2572.7158 26.412436)
(4826.3943 -2620.4599 24.257623)
(4950.0973 -2666.9347 22.867325)
(5072.3562 -2712.3641 22.039642)
(5193.4349 -2756.9147 21.528764)
(5313.5897 -2800.7777 21.113184)
(5433.1068 -2843.991 20.593996)
(5552.1375 -2886.629 19.860364)
(5670.7927 -2928.5429 18.845414)
(5788.9431 -2969.6858 17.625408)
(5893.63 -3003.1863 16.338239)
(6309.9417 -3030.954 15.628271)
(6539.9437 -2973.6984 15.672522)
(6671.299 -2864.5692 15.551251)
(6734.4853 -2723.2798 14.969561)
(6713.7948 -2548.953 14.034057)
(6598.6983 -2343.833 12.816086)
(6448.3866 -2134.6234 11.277279)
(6281.1708 -1929.4722 9.6884928)
(6068.9164 -1721.557 8.3176174)
(5923.7256 -1543.6126 7.2613968)
(5883.9576 -1399.6464 6.708237)
(5915.9637 -1275.5381 6.3178412)
(6037.9054 -1169.9481 6.574437)
(6259.2747 -1078.6509 6.7889176)
(6558.2323 -992.15945 7.3613678)
(6535.1675 -822.65649 6.2476839)
(6434.2249 -780.62949 4.479098)
(6320.3349 -737.31033 3.1608705)
(6205.3099 -694.7112 1.3591492)
(6089.7184 -652.58499 -0.3471701)
(5973.2704 -610.71193 -2.1557819)
(5855.7317 -568.96044 -4.3337125)
(5736.9674 -527.20694 -6.8607609)
(5616.6303 -485.44535 -9.9170619)
(5494.5482 -443.62949 -13.630099)
(5370.4849 -401.93458 -17.993597)
(5244.4435 -360.48043 -23.056373)
(5116.3414 -319.55083 -28.735037)
(4986.5421 -279.4937 -34.921371)
(4855.1206 -240.53067 -41.438106)
(4722.5846 -203.08569 -48.09675)
(4589.3873 -167.45595 -54.59668)
(4456.0455 -133.88106 -60.780024)
(4323.1666 -102.59236 -66.373125)
(4191.2631 -73.71071 -71.215732)
(4060.8534 -47.250643 -75.182156)
(3932.3347 -23.195435 -78.201586)
(3806.0585 -1.3948418 -80.266294)
(3682.2286 18.285096 -81.436092)
(3560.9363 36.122423 -81.791584)
(3442.3303 52.309717 -81.493854)
(3327.621 67.494183 -80.741233)
(3212.2729 79.600127 -78.757175)
(3101.4704 93.044637 -77.762047)
(2992.6144 104.14002 -76.102659)
(2885.5848 114.80617 -74.718822)
(2780.5719 124.55031 -73.375195)
(2677.4439 133.39156 -72.319924)
(2576.2311 141.29728 -71.53039)
(2476.9863 148.17173 -71.02636)
(2379.8664 153.91824 -70.774421)
(2285.0879 158.43899 -70.696967)
(2192.9339 161.661 -70.685353)
(2103.7414 163.53474 -70.593202)
(2017.8772 164.06048 -70.251325)
(1935.7168 163.28679 -69.47449)
(1857.6096 161.32827 -68.078303)
(1783.8486 158.35858 -65.898194)
(1714.6332 154.62033 -62.805664)
(1650.0412 150.40814 -58.730039)
(1589.9983 146.06934 -53.671408)
(1534.271 141.97579 -47.711114)
(1482.4534 138.51485 -41.015832)
(1433.9822 136.05729 -33.828104)
(1388.1833 134.9383 -26.462628)
(1344.2216 135.40601 -19.244271)
(1301.3477 137.72742 -12.618797)
(1258.6148 141.81438 -6.7814548)
(1215.3382 147.90692 -2.2892433)
(1170.8039 155.59734 0.85509794)
(1124.539 164.83446 2.3463489)
(1076.0813 175.2144 2.2394663)
(1028.6173 187.04157 0.43619495)
(971.72759 197.62559 -2.56109)
(918.01004 209.06285 -6.9229339)
(864.11796 220.2024 -12.245381)
(803.82204 229.25936 -18.030346)
(746.91782 237.69393 -23.890501)
(689.25537 244.68352 -29.744772)
(633.45754 249.73833 -35.16824)
(576.34592 252.50108 -40.055622)
(523.26039 253.87659 -43.884619)
(470.35033 252.89677 -47.143148)
(420.5858 250.55443 -49.43221)
(372.96784 246.38586 -51.036948)
(327.67761 240.73278 -51.971604)
(284.69079 233.49447 -52.433254)
(244.10511 225.17175 -52.502786)
(205.81368 215.85772 -52.35632)
(169.53433 204.95508 -52.11976)
(136.21459 194.04386 -51.608791)
(104.69894 181.27402 -51.180028)
(76.397754 168.95516 -50.41995)
(50.287663 154.93997 -49.58061)
(27.472982 141.18179 -48.294623)
(7.7386815 127.41528 -46.721904)
(-8.9523253 112.80742 -44.480723)
(-22.558672 98.364419 -41.879976)
(-32.801566 84.656777 -38.68985)
(-39.874714 71.333513 -35.202124)
(-44.314266 58.076561 -30.992015)
(-46.080384 46.699887 -26.911439)
(-45.503669 35.368976 -22.479907)
(-42.991892 25.746386 -18.293892)
(-38.903677 17.267294 -14.232776)
(-33.671318 10.255853 -10.385965)
(-27.414655 4.3467159 -7.1325917)
(-20.294958 0.088318939 -4.1032726)
(-12.753353 -2.1792585 -1.5725883)
(-5.911393 -3.000308 0.80274197)
(0 0 0)
(0 0 0)
(0 0 0)
(0 0 0)
(0 0 0)
(0 0 0)
(0 0 0)
(0 0 0)
(0 0 0)
(0 0 0)
(0 0 0)
(0 0 0)
(0 0 0)
(0 0 0)
(0 0 0)
(0 0 0)
(0 0 0)
(0 0 0)
(0 0 0)
(0 0 0)
(0 0 0)
(0 0 0)
(0 0 0)
(0 0 0)
(0 0 0)
(0 0 0)
(0 0 0)
(0 0 0)
(0 0 0)
(0 0 0)
(6074.4925 -3075.8757 -4.898499)
(6075.6766 -3077.2568 -4.5642055)
(6077.028 -3078.5107 -3.637581)
(6078.4473 -3079.869 -2.3532396)
(6079.6745 -3080.9792 -0.69049868)
(6080.6776 -3081.8446 1.1757554)
(6081.3613 -3082.457 3.2578105)
(6081.6932 -3082.7452 5.4071292)
(6081.6467 -3082.7332 7.590433)
(6081.2773 -3082.4057 9.6604814)
(6080.564 -3081.8733 11.611886)
(6079.7388 -3081.1857 13.234444)
(6078.791 -3080.3288 14.570646)
(6077.8681 -3079.3341 15.329407)
(6077.2196 -3078.474 15.739373)
(6708.9969 -871.83055 26.805154)
(6711.7298 -872.3227 26.3095)
(6714.5748 -872.80673 25.318508)
(6717.4372 -873.36951 23.925243)
(6720.057 -873.77141 22.298042)
(6722.5155 -874.14247 20.45704)
(6724.6716 -874.4188 18.500472)
(6726.4465 -874.64568 16.507714)
(6727.8016 -874.83809 14.564817)
(6728.7077 -875.03648 12.746202)
(6729.1295 -875.29502 11.100324)
(6729.1391 -875.59804 9.751549)
(6728.8 -876.09479 8.6140597)
(6728.0772 -876.67589 7.9855741)
(6727.435 -877.5861 7.5838589)
(-4.492037 1.8192526 1.7122855)
(-11.791726 3.6642266 3.7356148)
(-19.349294 6.3370264 6.7951668)
(-26.202889 9.7393309 9.6677354)
(-33.158145 14.074815 13.256714)
(-38.878373 19.273901 16.891128)
(-44.107651 25.301268 20.61879)
(-47.62989 32.407426 24.428744)
(-50.158795 40.009007 28.165126)
(-50.349088 48.742841 31.772424)
(-48.680186 57.736036 35.00931)
(-44.247755 67.736991 38.015376)
(-37.311358 77.871798 40.396179)
(-27.186201 88.796155 42.485876)
(-14.163608 99.621846 43.910121)
(2.2953262 110.92478 44.965861)
(21.822408 122.10803 45.404268)
(44.484325 133.35903 45.624707)
(70.358621 144.25057 45.371646)
(99.261874 154.90881 44.843707)
(131.06377 165.12757 44.073752)
(165.77524 174.62649 43.090502)
(203.42456 183.55386 41.815446)
(243.75194 191.49756 40.350485)
(287.08054 198.45208 38.514391)
(333.20929 204.25313 36.344402)
(382.2309 208.74453 33.720406)
(434.00013 211.8311 30.670273)
(488.53356 213.30961 27.115417)
(545.52556 213.23068 23.128428)
(604.61755 211.46276 18.727762)
(665.53882 208.09256 14.180697)
(727.56735 203.07193 9.5628708)
(790.14585 196.56438 5.1058801)
(852.65473 188.97502 1.0385908)
(914.16547 180.28493 -2.2430796)
(974.35535 171.02761 -4.5606985)
(1032.5027 161.44093 -5.8155357)
(1088.2906 152.0556 -5.631869)
(1141.3846 142.91959 -3.9971221)
(1192.0495 134.66398 -1.0109966)
(1240.3054 127.3792 3.3569361)
(1286.6857 121.30394 8.9570446)
(1331.8777 116.48578 15.424117)
(1376.6685 113.02133 22.556718)
(1422.0193 110.77965 30.000659)
(1468.8267 109.60327 37.39366)
(1518.0384 109.27089 44.445656)
(1570.4585 109.49582 50.862954)
(1626.7854 109.97737 56.443107)
(1687.5121 110.40635 61.043182)
(1752.9505 110.48955 64.613798)
(1823.196 109.9697 67.173431)
(1898.1628 108.63395 68.822824)
(1977.5957 106.32159 69.712633)
(2061.1159 102.92784 70.038175)
(2148.262 98.399943 70.01389)
(2238.5291 92.725284 69.856583)
(2331.4193 85.929618 69.767344)
(2426.4724 78.055315 69.913856)
(2523.298 69.155305 70.420968)
(2621.591 59.2766 71.349674)
(2721.1573 48.444647 72.723976)
(2821.9073 36.626861 74.494496)
(2923.8143 23.890632 76.488778)
(3027.0918 9.9842995 78.596169)
(3131.8496 -5.0470521 80.779565)
(3238.0894 -21.26466 82.509027)
(3346.1709 -39.028772 83.892454)
(3456.367 -58.354519 84.367698)
(3568.6535 -79.352912 84.012937)
(3683.1856 -102.20713 82.564757)
(3799.8279 -126.91779 80.082547)
(3918.4228 -153.51954 76.5578)
(4038.6655 -181.99927 72.083969)
(4160.1121 -212.22895 66.870735)
(4282.2941 -244.05595 61.127386)
(4404.5662 -277.32454 55.165472)
(4526.4458 -311.74705 49.232675)
(4647.2231 -347.19007 43.650529)
(4766.563 -383.29715 38.603779)
(4883.9113 -420.03446 34.356008)
(4999.1064 -457.09051 30.913743)
(5111.9392 -494.3271 28.429711)
(5222.5701 -531.75067 26.728655)
(5331.1918 -569.32719 25.73863)
(5437.8684 -607.00676 25.34985)
(5543.258 -644.88173 25.327562)
(5647.4917 -682.95885 25.49988)
(5751.1416 -721.30523 25.727709)
(5854.7646 -760.08041 25.784297)
(5958.0667 -799.12698 25.739388)
(6062.0558 -838.69351 25.323545)
(6166.1244 -878.62059 25.027833)
(6283.532 -920.75236 24.426499)
(-5.4247111 2.4857274 2.4927367)
(-12.334595 4.1076354 3.6813788)
(-19.079604 7.498611 5.7785601)
(-26.422292 10.022505 8.2493293)
(-33.122621 14.006544 10.938017)
(-39.31628 17.984935 13.772543)
(-44.583425 23.011353 16.819738)
(-49.05671 28.309075 19.891858)
(-51.945785 34.432691 23.058753)
(-53.327123 40.948981 25.856429)
(-52.833897 48.160501 28.831953)
(-49.994209 55.72293 31.110306)
(-44.696727 63.900979 33.495066)
(-36.579472 72.2826 35.104856)
(-25.602326 81.11571 36.699796)
(-11.30518 90.106739 37.457509)
(5.9378189 99.283949 38.260933)
(26.678991 108.46522 38.361504)
(50.415137 117.6326 38.365831)
(77.53785 126.55629 37.959341)
(107.73452 135.22399 37.414248)
(141.15619 143.41817 36.547193)
(177.61796 151.03514 35.565893)
(217.29394 157.90756 34.302778)
(260.0653 163.84952 32.8176)
(306.09415 168.78267 30.997235)
(355.28542 172.47234 28.859427)
(407.71 174.84011 26.333699)
(463.24365 175.73876 23.384622)
(521.72175 175.11864 20.042634)
(582.89172 172.88965 16.402978)
(646.23726 169.11232 12.482543)
(711.25023 163.85748 8.4775517)
(777.29971 157.25871 4.5922173)
(843.59482 149.51745 1.0283073)
(909.37209 140.87961 -1.9164368)
(973.80999 131.6286 -4.0572296)
(1036.2503 122.09327 -5.1921032)
(1096.0492 112.64493 -5.1015638)
(1152.9636 103.57601 -3.7534629)
(1206.8624 95.109572 -1.1245909)
(1257.8969 87.551288 2.7971916)
(1306.591 80.961537 7.7408851)
(1353.4881 75.425201 13.563749)
(1399.5489 70.88101 19.931317)
(1445.7572 67.209917 26.597296)
(1493.1542 64.211849 33.187897)
(1542.7922 61.666786 39.438533)
(1595.5833 59.280513 45.071577)
(1652.303 56.789086 49.915472)
(1713.4953 53.915575 53.837511)
(1779.4836 50.429803 56.811187)
(1850.341 46.138555 58.864863)
(1925.9273 40.900277 60.108983)
(2005.9122 34.626285 60.693606)
(2089.8278 27.277736 60.810172)
(2177.1183 18.853323 60.659569)
(2267.1927 9.3833172 60.443501)
(2359.4789 -1.0822034 60.33474)
(2453.4577 -12.497601 60.478798)
(2548.6975 -24.815705 60.96761)
(2644.8863 -38.018636 61.838412)
(2741.8081 -52.125256 63.096802)
(2839.411 -67.133379 64.623952)
(2937.6792 -83.142855 66.344337)
(3036.7523 -100.22509 68.146305)
(3137.8933 -118.50047 69.746633)
(3241.4791 -138.28205 71.098693)
(3345.3743 -159.5585 71.696939)
(3450.6443 -182.31149 71.729051)
(3557.6606 -206.69691 70.876274)
(3666.3264 -232.72589 69.186082)
(3776.6003 -260.30862 66.613771)
(3888.212 -289.43656 63.219004)
(4000.8744 -319.8843 59.135597)
(4114.0805 -351.53986 54.559236)
(4227.4374 -384.16112 49.670991)
(4340.2942 -417.57582 44.747809)
(4452.3026 -451.52101 39.952414)
(4562.8173 -485.88919 35.575597)
(4671.6913 -520.42175 31.678687)
(4778.4137 -555.11983 28.475013)
(4883.1637 -589.83627 25.954052)
(4970.5778 -622.64836 23.968756)
(5061.698 -656.10905 22.669286)
(5159.5135 -690.7003 22.150329)
(5256.2333 -725.40163 21.908494)
(5352.0975 -760.29513 21.969378)
(5447.565 -795.43015 22.153807)
(5543.1119 -830.84649 22.331888)
(5639.2435 -866.81091 22.419892)
(5735.8813 -902.8912 22.449853)
(5834.0159 -939.69672 22.18871)
(5932.8771 -976.88198 22.129164)
(6044.1916 -1016.312 21.626888)
(-6.4758135 2.1213249 2.6268163)
(-13.119164 4.2228648 3.4009292)
(-20.414666 6.888478 5.4083983)
(-27.335365 9.6043867 7.1421007)
(-34.089203 12.847577 9.1751886)
(-40.147358 16.360608 11.546336)
(-46.079038 20.144245 13.990744)
(-50.463073 24.615214 16.536128)
(-54.179441 29.148179 18.901325)
(-56.181864 34.576359 21.485558)
(-56.553944 39.916426 23.57036)
(-54.668805 46.157918 25.779725)
(-50.63169 52.276827 27.396976)
(-43.799233 59.148787 29.036191)
(-34.132381 65.977616 29.983891)
(-21.463947 73.195919 30.984166)
(-5.4946031 80.468681 31.315708)
(13.656832 87.859225 31.56339)
(36.194559 95.19098 31.4277)
(62.045959 102.37103 31.111659)
(91.267062 109.34053 30.520918)
(123.7778 115.85696 29.803978)
(159.67498 121.91643 28.859205)
(198.86294 127.23345 27.750828)
(241.48106 131.77577 26.419812)
(287.47658 135.2721 24.86266)
(336.96821 137.6713 23.023636)
(389.87367 138.77792 20.871262)
(446.18764 138.50863 18.406761)
(505.7229 136.76037 15.637507)
(568.20683 133.53744 12.575717)
(633.21065 128.83675 9.3391861)
(700.21397 122.72915 6.0626747)
(768.45243 115.3486 2.8691387)
(837.18634 106.9156 -0.017403609)
(905.44855 97.658237 -2.4173354)
(972.3682 87.910845 -4.0957255)
(1037.1989 77.925233 -4.9036432)
(1099.4007 68.059632 -4.6881579)
(1158.3463 58.518009 -3.4116567)
(1213.95 49.641858 -0.95618659)
(1266.3048 41.505806 2.4651416)
(1315.7899 34.232512 6.8963988)
(1363.1152 27.793915 11.945963)
(1409.2233 22.137583 17.46834)
(1455.1289 17.06924 23.186156)
(1501.9897 12.368593 28.794641)
(1550.9083 7.7920541 34.052574)
(1602.8806 3.0556542 38.736825)
(1658.7216 -2.0934626 42.695771)
(1719.0146 -7.8952106 45.83119)
(1784.0792 -14.531645 48.13367)
(1853.9774 -22.145683 49.640088)
(1928.5298 -30.813277 50.461858)
(2007.3619 -40.567047 50.739753)
(2089.9489 -51.389992 50.649169)
(2175.6867 -63.238381 50.371815)
(2263.9371 -76.042976 50.07834)
(2354.097 -89.738955 49.921603)
(2445.6197 -104.26436 50.014982)
(2538.0812 -119.5806 50.427246)
(2631.1532 -135.68567 51.180569)
(2724.676 -152.59166 52.248928)
(2818.5458 -170.35365 53.515334)
(2912.9156 -189.10504 54.965502)
(3007.7058 -208.84739 56.244709)
(3102.3695 -229.6269 57.578038)
(3209.0798 -252.60845 58.239829)
(3306.6273 -276.36111 58.781384)
(3406.7695 -301.44885 58.400018)
(3508.199 -327.99165 57.376759)
(3611.0953 -355.8545 55.617621)
(3715.2017 -384.99325 53.130743)
(3820.3033 -415.23391 50.06702)
(3926.0516 -446.48262 46.513548)
(4032.079 -478.49174 42.662114)
(4137.9217 -511.08113 38.687204)
(4243.1382 -544.03771 34.779918)
(4347.3359 -577.21404 31.108579)
(4450.1122 -610.44395 27.826983)
(4551.3016 -643.65268 25.017408)
(4650.6285 -676.76449 22.788016)
(4748.2075 -709.77429 21.080861)
(4844.204 -742.70657 19.87368)
(4916.3382 -772.00911 19.298095)
(5008.6841 -804.82229 18.987464)
(5100.9957 -837.72399 18.843887)
(5193.112 -870.9169 18.978257)
(5285.504 -904.37305 19.051561)
(5378.5466 -938.23697 19.272484)
(5472.8908 -972.58886 19.25835)
(5568.361 -1007.3144 19.40786)
(5665.9825 -1042.7561 19.168922)
(5765.1729 -1078.8176 19.246914)
(5873.7144 -1116.7193 18.925902)
(-7.3906533 2.0901121 2.3810735)
(-14.550078 3.5134361 3.1711805)
(-21.641019 5.956897 4.5086856)
(-28.692134 8.1810592 5.8008933)
(-35.41888 11.01866 7.5506636)
(-42.15128 13.57061 9.4860672)
(-47.746236 16.938797 11.385045)
(-52.855486 20.176332 13.293302)
(-56.804601 23.996217 15.487091)
(-59.255326 27.93891 17.129295)
(-60.025667 32.339436 19.108135)
(-58.853304 36.930683 20.442374)
(-55.286672 41.836487 22.013497)
(-49.043627 47.034079 22.80977)
(-40.118698 52.28313 23.864077)
(-27.916224 57.866772 24.154277)
(-12.672782 63.383594 24.512034)
(6.0271956 69.019431 24.422307)
(28.021912 74.517485 24.213124)
(53.533371 79.902109 23.703871)
(82.392253 84.987623 23.112367)
(114.77837 89.701591 22.299518)
(150.54328 93.884862 21.381169)
(189.8299 97.413344 20.300236)
(232.57478 100.12591 19.076048)
(278.88234 101.89504 17.666154)
(328.71817 102.57905 16.05687)
(382.1153 102.03753 14.236661)
(438.96137 100.19371 12.190583)
(499.12085 96.973054 9.9235585)
(562.26916 92.348389 7.5027496)
(628.00097 86.344031 4.9826669)
(695.69499 79.052941 2.4601374)
(764.64732 70.6207 0.076640451)
(834.00316 61.224907 -2.0225755)
(902.83132 51.143084 -3.6710747)
(970.32089 40.605636 -4.7484059)
(1035.6219 29.970617 -5.1089902)
(1097.7169 19.414558 -4.576808)
(1156.5101 9.2811656 -3.1402739)
(1211.6424 -0.30919678 -0.88692602)
(1263.2953 -9.2007803 2.2124344)
(1311.8146 -17.308811 5.945844)
(1357.9681 -24.7357 10.186462)
(1402.6657 -31.560378 14.740274)
(1446.9805 -38.004912 19.354402)
(1492.0796 -44.292775 23.820695)
(1539.081 -50.688497 27.945888)
(1588.9984 -57.463807 31.559304)
(1642.6546 -64.859749 34.554429)
(1700.631 -73.08383 36.870376)
(1763.2462 -82.289195 38.509094)
(1830.5531 -92.575226 39.517337)
(1902.3669 -103.97517 39.993463)
(1978.3031 -116.48455 40.061534)
(2057.8371 -130.04391 39.869041)
(2140.3634 -144.58076 39.564116)
(2225.254 -160.00142 39.287866)
(2311.9129 -176.22488 39.161726)
(2399.822 -193.17958 39.268879)
(2488.5663 -210.83 39.664312)
(2577.8693 -229.16708 40.355078)
(2667.5499 -248.20827 41.287289)
(2757.627 -268.06677 42.437816)
(2848.0941 -288.71584 43.60892)
(2939.2563 -310.40498 44.812361)
(3030.998 -333.03585 45.708136)
(3123.8319 -356.90685 46.463545)
(3218.1773 -382.05335 46.713077)
(3313.648 -408.39981 46.305138)
(3410.5799 -435.92308 45.408006)
(3508.9816 -464.61864 43.880803)
(3608.5625 -494.36159 41.840109)
(3709.3562 -525.1141 39.379968)
(3810.9551 -556.60608 36.608563)
(3912.9737 -588.68553 33.631098)
(4015.0554 -621.18432 30.596222)
(4116.793 -653.90733 27.656966)
(4217.8741 -686.76145 24.91395)
(4317.9798 -719.59832 22.503474)
(4416.9797 -752.39948 20.452439)
(4514.6864 -785.09189 18.846)
(4611.3 -817.72094 17.617253)
(4706.717 -850.31612 16.841591)
(4801.575 -882.93579 16.332953)
(4895.5738 -915.69843 16.128003)
(4989.7225 -948.60687 16.064127)
(5084.1942 -981.87164 16.195136)
(5179.4224 -1015.4836 16.31869)
(5275.7864 -1049.5731 16.501028)
(5374.0023 -1084.2985 16.57526)
(5473.6698 -1119.4143 16.719068)
(5576.1673 -1155.4815 16.618971)
(5680.6404 -1192.1383 16.782155)
(5790.1858 -1229.9998 16.608591)
(-8.6067509 1.4816607 2.0141253)
(-16.17693 2.8169895 2.4096697)
(-23.909357 4.6291118 3.7234998)
(-31.111872 6.5443901 4.8584541)
(-38.506772 8.4804678 6.2959351)
(-44.867466 10.787134 7.7086667)
(-51.149846 13.107729 9.1222915)
(-56.375524 15.764909 10.92961)
(-60.519097 18.357047 12.153521)
(-63.125801 21.594248 13.747214)
(-64.192651 24.557413 14.832742)
(-62.953891 28.157106 16.06913)
(-59.394686 31.597671 16.685622)
(-53.199964 35.413811 17.497242)
(-43.981865 39.182386 17.680934)
(-31.674353 43.125043 17.865769)
(-16.073877 46.970242 17.712602)
(2.9288695 50.813525 17.391958)
(25.380322 54.495008 16.851899)
(51.298516 57.924215 16.221003)
(80.717547 61.061748 15.417312)
(113.59399 63.708919 14.5298)
(149.95266 65.855809 13.541497)
(189.77925 67.272412 12.460974)
(233.10064 67.936026 11.285785)
(279.9162 67.62984 9.9940631)
(330.25376 66.31135 8.5927027)
(384.02935 63.823356 7.060734)
(441.18693 60.135662 5.4058849)
(501.46566 55.150816 3.6597695)
(564.5707 48.903529 1.853834)
(630.00211 41.413782 0.043171758)
(697.14684 32.794228 -1.6703904)
(765.25189 23.154299 -3.1946737)
(833.44728 12.745407 -4.4377107)
(900.84994 1.7599031 -5.2526993)
(966.58163 -9.4803437 -5.6108375)
(1029.7704 -20.726691 -5.3097305)
(1090.5939 -31.869486 -4.4465949)
(1147.357 -42.627077 -2.9837519)
(1200.4299 -52.809295 -0.87208445)
(1249.8572 -62.286936 1.7489431)
(1296.1515 -71.135592 4.8320725)
(1340.0093 -79.400051 8.2098949)
(1382.337 -87.214701 11.722939)
(1424.2154 -94.803264 15.214711)
(1466.7735 -102.39589 18.544722)
(1511.0949 -110.26618 21.565174)
(1558.1699 -118.66248 24.168715)
(1608.7885 -127.81579 26.289702)
(1663.5229 -137.90775 27.887592)
(1722.6879 -149.06889 28.976123)
(1786.351 -161.36942 29.594456)
(1854.353 -174.82002 29.820781)
(1926.3456 -189.39058 29.752666)
(2001.8505 -204.99829 29.499214)
(2080.3087 -221.55766 29.179065)
(2161.1399 -238.95465 28.896634)