/*--------------------------------*- C++ -*----------------------------------*\
  =========                 |
  \\      /  F ield         | OpenFOAM: The Open Source CFD Toolbox
   \\    /   O peration     | Website:  https://openfoam.org
    \\  /    A nd           | Version:  6
     \\/     M anipulation  |
\*---------------------------------------------------------------------------*/
FoamFile
{
    version     2.0;
    format      ascii;
    class       pointVectorField;
    location    "0.42";
    object      u;
}
// * * * * * * * * * * * * * * * * * * * * * * * * * * * * * * * * * * * * * //

dimensions      [0 1 0 0 0 0 0];

internalField   nonuniform List<vector> 
28033
(
(0 0 0)
(0 0 0)
(1.3729573 -0.010891424 0.00076440088)
(1.3156025 -0.3440345 0.00035652492)
(0 0 0)
(0 0 0)
(1.3158624 -0.34393842 0.00023791924)
(1.3732733 -0.010844702 0.00034524391)
(0 0 0)
(0 0 0)
(0 0 0)
(0 0 0)
(0 0 0)
(0 0 0)
(0 0 0)
(0 0 0)
(0 0 0)
(0 0 0)
(0 0 0)
(0 0 0)
(0 0 0)
(0 0 0)
(0 0 0)
(1.3691354 -0.032203984 0.00050602299)
(1.3653369 -0.053116606 0.00048449912)
(1.3615721 -0.073907445 0.00041986514)
(1.3579003 -0.09464451 0.00042713324)
(1.3542622 -0.11531702 0.00043554983)
(1.3506591 -0.1359481 0.00046432387)
(1.3471023 -0.15656101 0.00050300911)
(1.3435742 -0.17716813 0.00055434692)
(1.3400744 -0.19778226 0.00059479568)
(1.3365927 -0.21843188 0.00064507054)
(1.3331329 -0.23910848 0.00067134481)
(1.3296692 -0.25986076 0.00067581838)
(1.3262304 -0.28067279 0.00066937769)
(1.322733 -0.30159814 0.00064097323)
(1.3192753 -0.32266095 0.00053658844)
(0.0027134339 0.0046002953 0.0048839366)
(0.0031519866 0.0069682445 0.006859485)
(0.0039066731 0.0095849919 0.0082908901)
(0.0051672929 0.012328119 0.0092357539)
(0.0066888078 0.015121269 0.0098521274)
(0.0087203335 0.018022243 0.01028235)
(0.011153637 0.020959353 0.010556761)
(0.014016014 0.0238906 0.010724931)
(0.017296282 0.026868999 0.010831164)
(0.020997568 0.029809992 0.010885325)
(0.025081155 0.032751248 0.010907594)
(0.029584997 0.035663462 0.010893324)
(0.034460594 0.038553563 0.010896869)
(0.039757018 0.041402622 0.010855431)
(0.04540301 0.044212337 0.010840077)
(0.05146948 0.046977995 0.01078602)
(0.057894662 0.04970279 0.010763566)
(0.064720828 0.05236427 0.010717276)
(0.071911239 0.054983164 0.010673974)
(0.079497002 0.057534348 0.01062038)
(0.087450578 0.060036612 0.010579305)
(0.095788502 0.062458034 0.010511098)
(0.10449691 0.064824429 0.010458967)
(0.11358609 0.067117122 0.010389716)
(0.12304058 0.069325213 0.010313226)
(0.13287598 0.071470709 0.010231091)
(0.1430639 0.073513526 0.01014602)
(0.15362846 0.075491181 0.010048369)
(0.16454774 0.077356982 0.0099376627)
(0.17582194 0.079144941 0.0098289705)
(0.18745012 0.080824904 0.0097023648)
(0.19941462 0.08240412 0.0095707587)
(0.21172235 0.08388552 0.0094358122)
(0.22435212 0.085243536 0.0092914067)
(0.23730674 0.086511695 0.0091398838)
(0.25057533 0.08764872 0.0089827152)
(0.26413811 0.088685971 0.0088313862)
(0.27800107 0.089600209 0.0086741626)
(0.29213899 0.090401011 0.0085094289)
(0.30655577 0.091092557 0.0083556752)
(0.32122918 0.091661677 0.0081981183)
(0.3361608 0.092130101 0.0080480055)
(0.35133878 0.092478701 0.0078968846)
(0.36675586 0.092722324 0.0077541748)
(0.38239981 0.092855914 0.0076143592)
(0.3982715 0.092886589 0.0074794473)
(0.41435654 0.09281205 0.0073495927)
(0.43065734 0.092637317 0.0072230078)
(0.44716111 0.092361878 0.0071005114)
(0.46386984 0.091989109 0.0069805136)
(0.48077325 0.091519381 0.0068626507)
(0.49787154 0.090954596 0.006746099)
(0.51515718 0.090296158 0.0066300048)
(0.53262822 0.089544384 0.0065138575)
(0.55027918 0.088701566 0.0063967077)
(0.56810633 0.087767279 0.0062784904)
(0.58610513 0.086743495 0.0061584613)
(0.60427109 0.085630727 0.0060365203)
(0.62259936 0.084429952 0.0059126142)
(0.64108532 0.083141837 0.0057868927)
(0.65972364 0.081768213 0.0056593478)
(0.67851016 0.080309466 0.0055301769)
(0.69743719 0.078767966 0.0054007364)
(0.71650587 0.077141046 0.0052687256)
(0.73570015 0.075439007 0.0051407789)
(0.75502788 0.073652603 0.0050075656)
(0.77447509 0.071786291 0.0048778274)
(0.7940392 0.069844991 0.0047498353)
(0.81372199 0.067829231 0.0046147277)
(0.83350637 0.065738139 0.004486369)
(0.85340388 0.063572285 0.0043556997)
(0.87339605 0.061334015 0.0042252026)
(0.89349659 0.059029013 0.0040873118)
(0.91368112 0.05664212 0.0039549889)
(0.93396662 0.054207568 0.0038095285)
(0.95433205 0.051670119 0.0036747561)
(0.97478284 0.049112894 0.0035191986)
(0.99531494 0.046428685 0.0033816395)
(1.0159113 0.043749317 0.0032179812)
(1.0365889 0.04093268 0.0030777445)
(1.0573158 0.038122767 0.0029087916)
(1.0781087 0.035192244 0.0027694962)
(1.0989511 0.032250995 0.0025994312)
(1.1198353 0.029210398 0.0024605814)
(1.1407652 0.026148081 0.0023007227)
(1.1617228 0.02301564 0.0021598944)
(1.1827227 0.019823418 0.0020128127)
(1.2037316 0.0165989 0.0018799136)
(1.2247816 0.013310065 0.0017336613)
(1.2458286 0.0099934412 0.0016105869)
(1.2669066 0.0065931803 0.0014897362)
(1.2879963 0.0032539163 0.0013411046)
(1.3090894 -0.0002520946 0.0012741871)
(1.3302525 -0.0036724821 0.0011288345)
(1.3513896 -0.0071355571 0.0010703866)
(0.0012051405 -0.0046485762 -0.0055848207)
(0.0021574422 -0.0065061866 -0.006514953)
(0.0027239925 -0.0091070287 -0.0084656823)
(0.0034085195 -0.011359022 -0.0092018495)
(0.0049015198 -0.014086492 -0.0099281444)
(0.0065942248 -0.016861335 -0.01032439)
(0.0087708707 -0.0195586 -0.010616977)
(0.01133809 -0.022458868 -0.010751335)
(0.014350503 -0.025331731 -0.010843497)
(0.017683982 -0.028233275 -0.01087145)
(0.021449865 -0.031198967 -0.010866385)
(0.025541975 -0.034152772 -0.010842553)
(0.030023193 -0.037158028 -0.010797219)
(0.034846014 -0.040175344 -0.010759152)
(0.040033376 -0.043210468 -0.010697986)
(0.045566183 -0.046285662 -0.01065161)
(0.051456167 -0.049363374 -0.01058661)
(0.05769498 -0.052479156 -0.01052628)
(0.064280638 -0.05562336 -0.010468608)
(0.071224752 -0.058779169 -0.010400513)
(0.078509038 -0.061975715 -0.010330062)
(0.086150552 -0.06519876 -0.010264423)
(0.094131917 -0.068437325 -0.010182136)
(0.10246749 -0.071720928 -0.010105191)
(0.11114824 -0.075019654 -0.010017386)
(0.12017742 -0.078353609 -0.0099183963)
(0.12954913 -0.081717015 -0.0098238641)
(0.13926694 -0.085099987 -0.0097064234)
(0.14932626 -0.088521162 -0.0095924234)
(0.15972463 -0.091952454 -0.0094540514)
(0.17045776 -0.095424122 -0.0093162133)
(0.18152367 -0.098907314 -0.0091633334)
(0.19291651 -0.1024202 -0.0090017123)
(0.2046323 -0.10594753 -0.0088284471)
(0.21666093 -0.10949871 -0.0086480568)
(0.22900107 -0.11306333 -0.0084615764)
(0.24163713 -0.11663883 -0.0082580436)
(0.25456718 -0.12024016 -0.0080607846)
(0.26777796 -0.12384487 -0.0078548637)
(0.28126847 -0.12746813 -0.0076486418)
(0.29502211 -0.13110112 -0.0074417502)
(0.30903634 -0.13474591 -0.0072369264)
(0.32329969 -0.13840259 -0.007034185)
(0.33780707 -0.14207044 -0.0068358731)
(0.35254962 -0.14575046 -0.0066417746)
(0.3675228 -0.14944257 -0.0064527982)
(0.38271892 -0.15314781 -0.0062693493)
(0.39813414 -0.15686615 -0.006090953)
(0.4137625 -0.16059906 -0.0059179453)
(0.42959997 -0.16434612 -0.0057496017)
(0.44564235 -0.16810889 -0.0055856155)
(0.4618855 -0.17188696 -0.0054254644)
(0.47832595 -0.17568112 -0.0052684503)
(0.49495999 -0.17949135 -0.0051140859)
(0.511784 -0.1833177 -0.0049617256)
(0.52879455 -0.18715978 -0.0048109461)
(0.54598799 -0.19101775 -0.0046611466)
(0.5633605 -0.19489045 -0.0045121132)
(0.58090822 -0.19877773 -0.004363672)
(0.59862748 -0.20267883 -0.0042152736)
(0.61651328 -0.20659244 -0.0040675807)
(0.63456241 -0.2105184 -0.0039198865)
(0.65276928 -0.21445486 -0.0037732266)
(0.67113061 -0.21840226 -0.0036266714)
(0.68964044 -0.22235768 -0.0034820341)
(0.70829624 -0.22632296 -0.0033378085)
(0.72709139 -0.23029424 -0.0031962662)
(0.7460237 -0.23427381 -0.0030545519)
(0.76508381 -0.23825417 -0.002922449)
(0.78427462 -0.24224069 -0.0027780043)
(0.80359229 -0.24624083 -0.0026478357)
(0.82302331 -0.25022988 -0.0025147652)
(0.84257693 -0.25423267 -0.0023851869)
(0.86224036 -0.2582295 -0.0022566193)
(0.88201684 -0.26223141 -0.0021283349)
(0.90189643 -0.26622832 -0.0020032117)
(0.92188186 -0.27022583 -0.0018756838)
(0.94196502 -0.27421706 -0.0017509933)
(0.9621435 -0.27820442 -0.0016244683)
(0.9824131 -0.28218278 -0.0014992582)
(1.0027688 -0.28615387 -0.0013734553)
(1.0232066 -0.29011266 -0.0012480037)
(1.0437193 -0.29405981 -0.0011236063)
(1.0643063 -0.29799316 -0.00099910673)
(1.0849548 -0.30190833 -0.00087909495)
(1.1056689 -0.30581078 -0.00075745548)
(1.1264338 -0.30968905 -0.00064258999)
(1.1472531 -0.3135521 -0.00052952285)
(1.168114 -0.31739354 -0.00041937333)
(1.1890217 -0.32121485 -0.00031494503)
(1.2099589 -0.32501267 -0.00021600541)
(1.2309422 -0.32880146 -0.0001204932)
(1.2519477 -0.33257792 -1.9149229e-05)
(1.2730263 -0.33633458 5.4149142e-05)
(1.2941484 -0.34016909 0.00018186833)
(0 0 0)
(0 0 0)
(0 0 0)
(0 0 0)
(0 0 0)
(0 0 0)
(0 0 0)
(0 0 0)
(0 0 0)
(0 0 0)
(0 0 0)
(0 0 0)
(0 0 0)
(0 0 0)
(0 0 0)
(0.0026262717 -0.0019583171 0.0040547864)
(0.0027455438 -0.0075618923 0.0065388753)
(0.0026203959 -0.0080652679 0.0078008192)
(0.0037631531 -0.011986974 0.0092141794)
(0.0048808193 -0.013905487 0.0097811532)
(0.0067399972 -0.016969147 0.010205743)
(0.00885407 -0.019573459 0.010471562)
(0.011497183 -0.022562926 0.010648821)
(0.014474501 -0.025340459 0.010711377)
(0.017831512 -0.02834787 0.010753235)
(0.021639961 -0.031268708 0.010768743)
(0.025687167 -0.034215362 0.010736567)
(0.030223961 -0.037282844 0.010721283)
(0.035005135 -0.040226862 0.010667865)
(0.040241238 -0.043368835 0.010634247)
(0.045755389 -0.046332755 0.010578201)
(0.051649624 -0.049520916 0.010537176)
(0.057907107 -0.05255357 0.010462519)
(0.064487205 -0.055762749 0.01041783)
(0.071457371 -0.058886655 0.010340922)
(0.078741837 -0.062092046 0.010285856)
(0.086390091 -0.065319378 0.010202002)
(0.094386948 -0.068577074 0.010134528)
(0.10273862 -0.071849862 0.010044566)
(0.11142837 -0.075162115 0.0099540044)
(0.12048337 -0.078493123 0.0098538936)
(0.12985067 -0.081860083 0.0097427287)
(0.13959601 -0.085266394 0.0096299062)
(0.1496577 -0.088675556 0.0094992145)
(0.16006602 -0.092147036 0.009370491)
(0.17081581 -0.095614495 0.0092255503)
(0.18188771 -0.099116638 0.0090765238)
(0.19328784 -0.10263868 0.0089163698)
(0.20500417 -0.10618568 0.0087547365)
(0.21704331 -0.10974629 0.0085834456)
(0.22937101 -0.11331095 0.0084108016)
(0.24200228 -0.11692709 0.0082369987)
(0.25493237 -0.12052664 0.0080630319)
(0.26813382 -0.12414622 0.007889624)
(0.28161417 -0.12777755 0.0077174979)
(0.29535713 -0.13141875 0.0075505293)
(0.30935781 -0.13507001 0.0073874686)
(0.32360817 -0.13873084 0.0072300501)
(0.3381011 -0.14240174 0.0070783364)
(0.35282976 -0.14608251 0.0069327717)
(0.3677886 -0.14977432 0.006792725)
(0.38297158 -0.15347709 0.0066581603)
(0.39837407 -0.15719232 0.0065282663)
(0.41399091 -0.16091997 0.0064025535)
(0.42981835 -0.1646615 0.0062798479)
(0.44585184 -0.16841691 0.0061596979)
(0.46208824 -0.17218732 0.0060404659)
(0.47852346 -0.1759727 0.0059220254)
(0.49515433 -0.1797736 0.0058027604)
(0.51197696 -0.18359006 0.0056826905)
(0.52898811 -0.18742187 0.005560499)
(0.54618351 -0.19126892 0.0054365315)
(0.56355977 -0.19513085 0.005309953)
(0.58111227 -0.1990067 0.0051810841)
(0.59883714 -0.20289636 0.0050499883)
(0.61672946 -0.20679841 0.0049169396)
(0.63478497 -0.2107123 0.0047822695)
(0.65299867 -0.21463718 0.0046468395)
(0.67136568 -0.21857139 0.0045106448)
(0.68988172 -0.22251481 0.0043746994)
(0.70854133 -0.22646668 0.004238706)
(0.72734173 -0.23042372 0.0041037533)
(0.74627967 -0.23439941 0.0039698412)
(0.76533244 -0.23834234 0.0038407719)
(0.78453488 -0.24234087 0.0037041945)
(0.80384912 -0.24631156 0.0035766236)
(0.82328352 -0.25029399 0.0034449311)
(0.84283725 -0.25427781 0.0033132294)
(0.86250225 -0.25826404 0.0031820013)
(0.88227803 -0.26225041 0.0030483188)
(0.9021609 -0.26623676 0.0029131177)
(0.92214664 -0.27022169 0.0027758016)
(0.94223217 -0.27420376 0.002636425)
(0.96241295 -0.27818188 0.0024952502)
(0.98268443 -0.28215323 0.0023524225)
(1.0030427 -0.28611799 0.002208626)
(1.0234817 -0.29007222 0.002064944)
(1.0439972 -0.2940156 0.0019216823)
(1.064583 -0.29794558 0.0017802746)
(1.085235 -0.30186018 0.0016409056)
(1.1059461 -0.30575896 0.0015058856)
(1.1267134 -0.30963759 0.0013725918)
(1.1475304 -0.31350047 0.0012462506)
(1.1683922 -0.31733789 0.0011213768)
(1.1892974 -0.32116233 0.0010044737)
(1.2102364 -0.32495727 0.00088722097)
(1.2312179 -0.32874921 0.00078160516)
(1.2522229 -0.33251355 0.00066689863)
(1.2733073 -0.33629523 0.00056667562)
(1.2943844 -0.34011478 0.00043632904)
(1.3195769 -0.32257345 0.00010410282)
(1.3230372 -0.30156924 2.6180191e-05)
(1.3265049 -0.28059452 2.7111068e-05)
(1.3299664 -0.25981191 2.4912752e-05)
(1.3334207 -0.23904594 8.4606148e-05)
(1.3368839 -0.21837827 0.00012868222)
(1.3403642 -0.19772947 0.00021335977)
(1.3438632 -0.17710974 0.0002847948)
(1.3474054 -0.15651293 0.00035840536)
(1.3509521 -0.13589282 0.00043445159)
(1.3545643 -0.11526076 0.00048663228)
(1.3581962 -0.094591971 0.00052772655)
(1.361888 -0.073867163 0.00056082343)
(1.365581 -0.053043479 0.00054629867)
(1.3694506 -0.032193096 0.00051438026)
(1.3517525 -0.0070918606 7.6551656e-05)
(1.3305145 -0.0036616224 -1.1443013e-05)
(1.3093906 -0.00017490433 -0.00012125802)
(1.2882749 0.0032649176 -0.00021249138)
(1.2671838 0.0066715617 -0.00032764157)
(1.2461062 0.010038877 -0.00043908791)
(1.225046 0.013362965 -0.00055445458)
(1.2040025 0.016644625 -0.00067659681)
(1.1829841 0.019872602 -0.0007960277)
(1.1619915 0.023056266 -0.00092245069)
(1.1410311 0.026180575 -0.0010455964)
(1.1201068 0.029255235 -0.0011736333)
(1.0992219 0.032268468 -0.0012999818)
(1.0783859 0.035224761 -0.0014298248)
(1.0576015 0.038118513 -0.0015567345)
(1.0368751 0.040950987 -0.0016853923)
(1.0162118 0.043718464 -0.0018109106)
(0.99561522 0.04642086 -0.0019379848)
(0.97509113 0.049058564 -0.0020640549)
(0.95464417 0.051627017 -0.0021903061)
(0.93427755 0.054131046 -0.0023170074)
(0.9139973 0.056563247 -0.0024443559)
(0.8938047 0.058930971 -0.0025734287)
(0.87370727 0.061223903 -0.0027031348)
(0.85370368 0.06345218 -0.0028354722)
(0.83380617 0.06560641 -0.0029684529)
(0.81399442 0.067695734 -0.0031052658)
(0.7943527 0.069662813 -0.0032273147)
(0.77475157 0.071625052 -0.0033749486)
(0.75531111 0.073465551 -0.0035096598)
(0.73597872 0.075243563 -0.0036529327)
(0.7167787 0.076938022 -0.0037927204)
(0.69770973 0.078551377 -0.003934566)
(0.67877907 0.080081744 -0.0040768361)
(0.65999078 0.081528434 -0.0042191195)
(0.64135018 0.082890007 -0.0043617196)
(0.62286232 0.084165319 -0.0045044305)
(0.60453209 0.085353923 -0.0046471231)
(0.5863644 0.086454446 -0.0047898169)
(0.5683638 0.087466722 -0.004932931)
(0.55053508 0.088389478 -0.0050763141)
(0.53288245 0.089222593 -0.0052205114)
(0.5154104 0.089964705 -0.0053658904)
(0.49812297 0.0906156 -0.0055127987)
(0.4810246 0.091173734 -0.0056618108)
(0.46411923 0.091638568 -0.0058134596)
(0.44741153 0.092008306 -0.0059681959)
(0.43090564 0.092282041 -0.0061264385)
(0.41460693 0.092457555 -0.0062888665)
(0.3985198 0.09253389 -0.0064551143)
(0.38265111 0.092507691 -0.0066260848)
(0.36700526 0.092379792 -0.0068009298)
(0.35159151 0.092142743 -0.0069795225)
(0.33641382 0.091803497 -0.0071629501)
(0.32148513 0.091347395 -0.0073453826)
(0.30681146 0.090786398 -0.0075319192)
(0.29239585 0.090116341 -0.0077187561)
(0.27825207 0.089317372 -0.0079053769)
(0.26441267 0.088409655 -0.0080805178)
(0.25083714 0.087408891 -0.0082664853)
(0.23756804 0.086261814 -0.0084419606)
(0.22463543 0.085021682 -0.008602413)
(0.21200026 0.083670612 -0.0087625445)
(0.19969165 0.082210394 -0.0089175672)
(0.18771493 0.080628072 -0.0090657392)
(0.17610793 0.078965208 -0.0091998715)
(0.16481704 0.077188961 -0.0093220867)
(0.15391122 0.075321608 -0.009440657)
(0.1433402 0.073368294 -0.009555394)
(0.13314133 0.071318798 -0.0096585204)
(0.12330542 0.069192842 -0.0097549011)
(0.11382974 0.066972263 -0.0098507979)
(0.10475423 0.06468614 -0.0099257502)
(0.096025087 0.062342648 -0.010012442)
(0.087670753 0.059896427 -0.010092222)
(0.079719358 0.057416328 -0.010152697)
(0.072113992 0.054857136 -0.010236235)
(0.064920619 0.052246535 -0.010283118)
(0.058079869 0.049587918 -0.010363424)
(0.051642714 0.046856026 -0.010408118)
(0.045596226 0.044101028 -0.010466324)
(0.039908465 0.041288152 -0.010506562)
(0.034617483 0.03845382 -0.010572517)
(0.029738641 0.035537116 -0.010576203)
(0.025230925 0.03267699 -0.010620473)
(0.021123484 0.029706937 -0.010603787)
(0.01743508 0.026769133 -0.010566923)
(0.014156956 0.023810046 -0.01047323)
(0.01126661 0.020883012 -0.010322529)
(0.0088315497 0.017952347 -0.010060983)
(0.0068158294 0.015030552 -0.009611962)
(0.005291819 0.012129419 -0.0089836244)
(0.0041940083 0.0096020519 -0.0080804472)
(0.0033042698 0.0067053504 -0.0064019816)
(0.004036835 0.0042821157 -0.0037188445)
(0 0 0)
(0 0 0)
(0 0 0)
(0 0 0)
(0 0 0)
(0 0 0)
(0 0 0)
(0 0 0)
(0 0 0)
(0 0 0)
(0 0 0)
(0 0 0)
(0 0 0)
(0 0 0)
(0 0 0)
(0 0 0)
(0 0 0)
(0 0 0)
(0 0 0)
(0 0 0)
(0 0 0)
(0 0 0)
(0 0 0)
(0 0 0)
(0 0 0)
(0 0 0)
(0 0 0)
(0 0 0)
(0 0 0)
(0 0 0)
(1.3156617 -0.34417304 0.00033512836)
(1.3156915 -0.34423969 0.00031110173)
(1.315713 -0.3442645 0.00029097296)
(1.3157399 -0.34428904 0.0002795429)
(1.315767 -0.34430165 0.00027353028)
(1.3157919 -0.3443083 0.00027860449)
(1.3158145 -0.34430758 0.00028209074)
(1.315834 -0.34430379 0.00029587062)
(1.3158508 -0.34429887 0.00030358326)
(1.3158613 -0.34428757 0.00031138452)
(1.3158799 -0.34428535 0.00031829099)
(1.3158817 -0.34425439 0.00031377559)
(1.315894 -0.3442362 0.00030528501)
(1.3159002 -0.34419051 0.00028852991)
(1.3159148 -0.34414905 0.00026123331)
(1.373148 -0.010752045 0.00074219073)
(1.3731975 -0.010720351 0.00074799612)
(1.3732403 -0.010680665 0.00071910576)
(1.37329 -0.010654268 0.00069405716)
(1.3733167 -0.010640319 0.00066580487)
(1.3733492 -0.01063003 0.00062358802)
(1.3733763 -0.010618457 0.00058500061)
(1.3733996 -0.010613315 0.0005394074)
(1.3734193 -0.010607222 0.00049654997)
(1.3734338 -0.010604069 0.00045697878)
(1.3734443 -0.010607805 0.0004200396)
(1.3734471 -0.010614765 0.00038931649)
(1.3734509 -0.010626368 0.0003799019)
(1.3734328 -0.010678222 0.00034167377)
(1.3734454 -0.010678863 0.00034895799)
(0.0012146 0.0011865794 0.0049355482)
(0.0016860373 0.0011222573 0.0058003462)
(0.0021177417 0.0012659005 0.007241954)
(0.0031326593 0.0013485816 0.0078740952)
(0.0042354837 0.0014553298 0.008561179)
(0.0059627774 0.0016948826 0.0089058128)
(0.0079458429 0.0019838144 0.0092077867)
(0.01047272 0.0024276856 0.0093659856)
(0.013290292 0.0029126966 0.0094943937)
(0.016585162 0.0035390923 0.0095648063)
(0.020234349 0.0042087859 0.0095872295)
(0.024310777 0.0050248036 0.0096175178)
(0.028747344 0.0058751361 0.0095983262)
(0.033594666 0.0068722544 0.0095988586)
(0.038816879 0.0079165419 0.0095688191)
(0.044451347 0.0090941674 0.009552631)
(0.050463713 0.01033635 0.0095125786)
(0.056867117 0.011701288 0.0094913162)
(0.06367614 0.013139776 0.0094515941)
(0.070884905 0.014694273 0.0094125022)
(0.078485383 0.016332982 0.0093731004)
(0.086492729 0.018064465 0.0093279756)
(0.094908512 0.019900341 0.0092725841)
(0.10371677 0.021811887 0.0092234491)
(0.1129447 0.023814408 0.0091566016)
(0.12257454 0.025897331 0.0090902748)
(0.13261267 0.02805688 0.0090125326)
(0.14305308 0.030283106 0.0089324895)
(0.15390543 0.032570709 0.0088404042)
(0.16515862 0.034920028 0.0087413167)
(0.17680658 0.037307764 0.0086346063)
(0.18885602 0.039741767 0.0085184729)
(0.20129114 0.042204682 0.0083995531)
(0.21410379 0.044687415 0.0082706967)
(0.22729631 0.047187896 0.0081380215)
(0.24084907 0.049682175 0.008000814)
(0.2547589 0.052187214 0.0078584514)
(0.2690038 0.05466618 0.0077162011)
(0.28359206 0.057132482 0.0075703079)
(0.29849273 0.059565287 0.0074290681)
(0.31370422 0.061959713 0.0072891695)
(0.32920805 0.064303543 0.0071484622)
(0.34499978 0.06659996 0.0070147334)
(0.36106422 0.068825957 0.0068828321)
(0.37738716 0.070986964 0.0067548754)
(0.39396345 0.073066566 0.0066326988)
(0.41077925 0.075059457 0.0065129676)
(0.42782761 0.076957517 0.0063983394)
(0.44509726 0.078751923 0.0062861209)
(0.46258127 0.080434784 0.006176963)
(0.48026927 0.081998201 0.0060693687)
(0.49815423 0.083433319 0.005963383)
(0.51622674 0.084733066 0.0058574877)
(0.53447924 0.085888571 0.0057518293)
(0.55290271 0.086893243 0.0056451971)
(0.57148909 0.08773853 0.0055377966)
(0.59022954 0.088418731 0.0054286919)
(0.60911555 0.088926043 0.005318152)
(0.62813806 0.089254957 0.0052062044)
(0.64728846 0.089399494 0.0050926786)
(0.66655779 0.089354608 0.0049778122)
(0.685937 0.089115788 0.0048622631)
(0.70541785 0.08867798 0.0047460929)
(0.72499187 0.088037598 0.0046303389)
(0.74464813 0.087195932 0.00451253)
(0.76438849 0.086138782 0.0043965167)
(0.78419767 0.084879638 0.0042819992)
(0.80406214 0.083407484 0.004168003)
(0.82398723 0.081720561 0.0040553096)
(0.84396144 0.079819596 0.0039413134)
(0.86398391 0.077709086 0.0038255155)
(0.88404399 0.075383938 0.0037088156)
(0.90414519 0.072851603 0.0035901463)
(0.92427231 0.070104472 0.0034711292)
(0.94443471 0.067160324 0.003348139)
(0.96461498 0.063997404 0.0032253267)
(0.98482002 0.0606575 0.0030962937)
(1.00504 0.057091264 0.0029719155)
(1.0252705 0.053374615 0.0028354988)
(1.0455158 0.049429443 0.0027111603)
(1.0657574 0.045346925 0.0025724767)
(1.0860115 0.041063376 0.0024453069)
(1.1062559 0.036632839 0.002310084)
(1.1264991 0.032036402 0.0021856873)
(1.1467304 0.027306264 0.0020509699)
(1.1669608 0.02241967 0.001932571)
(1.1871789 0.017412145 0.0018093236)
(1.2073828 0.012288615 0.0016871477)
(1.2275805 0.0070492605 0.0015732103)
(1.2477557 0.0016943732 0.001468621)
(1.267934 -0.0037060181 0.0013347018)
(1.2880886 -0.0092362305 0.0012449931)
(1.308252 -0.01485638 0.0011173862)
(1.3284368 -0.020459557 0.00097243945)
(1.3486431 -0.026321626 0.00081059879)
(-0.00013991307 -0.0011800332 0.0043250958)
(-5.2267043e-05 -0.0043338572 0.005233767)
(0.00061377703 -0.0060901797 0.0062035294)
(0.0011204535 -0.0085482872 0.0069228912)
(0.0021625415 -0.010528727 0.0073717716)
(0.0034657636 -0.012583068 0.0076994373)
(0.0052538045 -0.014382617 0.0079253609)
(0.0073425534 -0.01612082 0.0080915739)
(0.0098919442 -0.017665548 0.0082128834)
(0.012807486 -0.019072513 0.0082532455)
(0.016110878 -0.020286737 0.0083243732)
(0.019812137 -0.021337956 0.0083118473)
(0.023889426 -0.022183181 0.0083429268)
(0.028375946 -0.022846265 0.0083156609)
(0.033231546 -0.023296558 0.0083240357)
(0.03851047 -0.023542725 0.0082829801)
(0.044156236 -0.023566979 0.0082818228)
(0.050239253 -0.023377689 0.008244408)
(0.056700667 -0.022959334 0.0082238353)
(0.06359716 -0.022320148 0.0081891446)
(0.070893891 -0.021448493 0.0081592657)
(0.078626967 -0.020350276 0.008116048)
(0.086775593 -0.019025918 0.0080794303)
(0.095362972 -0.017476312 0.0080314278)
(0.10437816 -0.015710689 0.0079818061)
(0.11383816 -0.013722513 0.0079220587)
(0.12373156 -0.011533827 0.0078609018)
(0.1340702 -0.0091382775 0.0077911155)
(0.14484953 -0.0065548928 0.0077131158)
(0.15607133 -0.0037873277 0.0076285359)
(0.16773328 -0.0008506887 0.0075387778)
(0.1798332 0.0022440873 0.007440388)
(0.19236205 0.0054861021 0.0073347148)
(0.20531808 0.0088571482 0.0072246715)
(0.21869238 0.012348975 0.0071078064)
(0.23247573 0.015942442 0.0069874624)
(0.24666211 0.019623618 0.0068637816)
(0.26123238 0.023376679 0.006740209)
(0.27617094 0.027185774 0.0066141705)
(0.29147308 0.031041297 0.0064894937)
(0.3071194 0.034914796 0.0063622735)
(0.32309652 0.038806733 0.0062431069)
(0.33939553 0.042681823 0.0061186475)
(0.35599131 0.046541804 0.006006219)
(0.37287954 0.05035995 0.0058916395)
(0.39004236 0.054122557 0.0057843376)
(0.407466 0.057812798 0.0056788894)
(0.42513907 0.061414861 0.0055786053)
(0.4430479 0.064910995 0.0054795343)
(0.46118077 0.06828613 0.0053845136)
(0.47952507 0.071523119 0.0052899875)
(0.49806948 0.074606008 0.0051975358)
(0.51680143 0.077519653 0.0051048363)
(0.53570951 0.080247609 0.0050126343)
(0.55478127 0.082776081 0.0049194733)
(0.57400499 0.085089758 0.004825679)
(0.59336819 0.087175841 0.0047303217)
(0.61285873 0.089020209 0.0046342496)
(0.63246405 0.090611837 0.0045365059)
(0.65217234 0.091938295 0.0044377298)
(0.67197046 0.092989707 0.0043384109)
(0.69184763 0.093756127 0.0042380974)
(0.71179075 0.094227658 0.004138703)
(0.73178916 0.094400058 0.0040374846)
(0.75183307 0.094262987 0.0039379324)
(0.77191357 0.093812042 0.0038412989)
(0.792003 0.093045086 0.0037442262)
(0.81211688 0.091946651 0.003648242)
(0.83224713 0.090522333 0.0035445872)
(0.85237501 0.088771579 0.0034472099)
(0.87250051 0.086693471 0.0033458359)
(0.89261177 0.084280616 0.0032477749)
(0.91270985 0.081549853 0.0031432786)
(0.93278494 0.078478467 0.0030449535)
(0.95283819 0.075108833 0.0029323215)
(0.97285867 0.07139148 0.0028352578)
(0.99285046 0.067403846 0.0027142265)
(1.0128038 0.063064323 0.0026181235)
(1.0327203 0.058488593 0.0024890346)
(1.052595 0.053560216 0.0023971874)
(1.0724277 0.048428361 0.0022625211)
(1.0922146 0.042968228 0.0021699153)
(1.1119567 0.037303062 0.002047451)
(1.1316507 0.031364079 0.0019396154)
(1.1513086 0.025232751 0.0018221102)
(1.1709062 0.018857173 0.0017271047)
(1.1904691 0.012313929 0.0016125578)
(1.2099754 0.005570788 0.0015178199)
(1.229461 -0.0013523516 0.0014189036)
(1.2488881 -0.0083828681 0.0013015372)
(1.2683096 -0.015598474 0.0012088661)
(1.2876738 -0.022921874 0.0010953608)
(1.3070625 -0.03033041 0.00096409272)
(1.326424 -0.037871389 0.00083295321)
(1.3458499 -0.045496378 0.00067645944)
(-0.00096695346 -0.0032457947 0.0037550241)
(-0.0010122515 -0.007741053 0.0043983562)
(-0.0010106689 -0.011526215 0.0054267443)
(-0.00044928218 -0.015397354 0.0058840484)
(0.00033324108 -0.019100958 0.006251821)
(0.0015855115 -0.022611337 0.0064800405)
(0.0030738656 -0.026041128 0.0066951494)
(0.0050526965 -0.029245522 0.0068245089)
(0.0073350339 -0.032322198 0.0068903043)
(0.010032313 -0.035107908 0.0069806915)
(0.01309372 -0.037758409 0.0069900576)
(0.016555428 -0.040090609 0.0070359072)
(0.020389592 -0.042239977 0.0070202168)
(0.024616221 -0.044064785 0.0070430169)
(0.0292406 -0.045661642 0.0070120527)
(0.034251933 -0.046938323 0.0070249274)
(0.039682695 -0.047945549 0.0069910396)
(0.045505475 -0.048632502 0.0069844051)
(0.051756139 -0.049023776 0.006957335)
(0.058420683 -0.049095697 0.0069389749)
(0.065519981 -0.048855135 0.0069086366)
(0.073048657 -0.048299923 0.0068838299)
(0.08102168 -0.047425367 0.0068481809)
(0.089435804 -0.046240769 0.0068132746)
(0.098307114 -0.04474124 0.006769448)
(0.10763044 -0.042942306 0.0067245465)
(0.11741777 -0.040842675 0.006672646)
(0.12766662 -0.038454928 0.0066131782)
(0.13838319 -0.035789427 0.0065505116)
(0.14956553 -0.032859088 0.0064811943)
(0.16121559 -0.02967438 0.0064040526)
(0.17332753 -0.026251332 0.0063212128)
(0.18590282 -0.022606424 0.0062344037)
(0.19893124 -0.018754943 0.0061410454)
(0.21240902 -0.014715663 0.0060432261)
(0.22632251 -0.010505633 0.0059430422)
(0.24065872 -0.0061436651 0.0058412853)
(0.25540573 -0.0016516949 0.0057379136)
(0.2705704 0.0029529561 0.005631436)
(0.28611741 0.0076406849 0.0055213539)
(0.30203511 0.012409842 0.0054202959)
(0.31831099 0.017219826 0.0053111905)
(0.3349247 0.022061006 0.0052164167)
(0.35186342 0.026907291 0.0051174438)
(0.36910962 0.031736512 0.0050227749)
(0.3866456 0.036529448 0.0049326729)
(0.40445833 0.041261961 0.0048446462)
(0.42253172 0.04591293 0.0047599385)
(0.44085084 0.050459727 0.0046777377)
(0.45940108 0.054880937 0.0045978683)
(0.47816841 0.059154391 0.0045187831)
(0.49713789 0.063259103 0.0044414592)
(0.51629575 0.067174013 0.0043636058)
(0.53562724 0.070878402 0.0042863754)
(0.55511822 0.074353217 0.0042079817)
(0.57475398 0.077578574 0.0041290169)
(0.59451992 0.080536975 0.004048978)
(0.61440135 0.083210534 0.0039679111)
(0.6343837 0.085583703 0.003885388)
(0.65445201 0.087640223 0.0038026714)
(0.67459223 0.08936685 0.0037186296)
(0.69479006 0.09074952 0.0036346451)
(0.71503131 0.09177743 0.0035504565)
(0.73530382 0.09243983 0.0034649406)
(0.75559583 0.092724431 0.0033828746)
(0.77588705 0.0926276 0.0032965311)
(0.79619287 0.092145545 0.0032171851)
(0.81646874 0.091258883 0.0031206958)
(0.83672004 0.089966983 0.003048005)
(0.85694379 0.088277835 0.0029647055)
(0.87712694 0.086181149 0.0028814252)
(0.89726484 0.083682733 0.0027982929)
(0.91735645 0.080778981 0.0027109723)
(0.93738489 0.077478797 0.0026242599)
(0.95736023 0.073778862 0.0025353139)
(0.9772632 0.06968979 0.0024466668)
(0.9971089 0.065221338 0.0023522228)
(1.0168726 0.060373295 0.0022634888)
(1.0365765 0.055170782 0.0021658179)
(1.0561943 0.049605278 0.0020772327)
(1.0757473 0.043719844 0.0019759092)
(1.0952178 0.03747809 0.0018957414)
(1.1146131 0.030969138 0.0017887709)
(1.1339428 0.024120105 0.0017105127)
(1.1531903 0.01703012 0.0016173774)
(1.1723745 0.0096558019 0.0015365402)
(1.1914843 0.0020658573 0.0014380153)
(1.210542 -0.0057854702 0.0013658512)
(1.2295364 -0.013787373 0.0012574161)
(1.2484758 -0.022020319 0.0011840629)
(1.2673798 -0.030402744 0.0010844044)
(1.2862371 -0.038906977 0.00097955765)
(1.3050907 -0.047581448 0.000869309)
(1.3239197 -0.056303954 0.00074214264)
(1.3427687 -0.065137042 0.00060084933)
(-0.0014067584 -0.0039800194 0.0031042815)
(-0.0018975495 -0.0094364564 0.0037707236)
(-0.0018861225 -0.013986516 0.0044103303)
(-0.0015272192 -0.01872975 0.0048021365)
(-0.00074428778 -0.023146086 0.0050790448)
(0.00030204678 -0.027483653 0.0052993377)
(0.0018304483 -0.031591861 0.0054442486)
(0.0036557651 -0.03558301 0.0055135778)
(0.0058814989 -0.03930733 0.0056272702)
(0.0084866757 -0.042865811 0.0056338113)
(0.011464026 -0.046153801 0.0056992061)
(0.014821992 -0.049204302 0.0056830705)
(0.018556642 -0.051972816 0.0057223523)
(0.022698187 -0.054457558 0.0056924218)
(0.027201334 -0.056651522 0.0057182582)
(0.032135986 -0.058520878 0.0056864223)
(0.037441755 -0.060083068 0.0056914266)
(0.043184359 -0.061304712 0.0056711602)
(0.049322282 -0.062200114 0.0056610498)
(0.055900891 -0.062746506 0.0056396636)