/*--------------------------------*- C++ -*----------------------------------*\
  =========                 |
  \\      /  F ield         | OpenFOAM: The Open Source CFD Toolbox
   \\    /   O peration     | Website:  https://openfoam.org
    \\  /    A nd           | Version:  6
     \\/     M anipulation  |
\*---------------------------------------------------------------------------*/
FoamFile
{
    version     2.0;
    format      ascii;
    class       pointScalarField;
    location    "1.11";
    object      E;
}
// * * * * * * * * * * * * * * * * * * * * * * * * * * * * * * * * * * * * * //

dimensions      [1 -1 -2 0 0 0 0];

internalField   nonuniform List<scalar> 
28033
(
109974.35
116460.01
-3018829.3
-1403397.5
129717.25
140530.58
-2104984.7
-4520373.7
74642.61
51690.725
35178.289
24493.447
14727.988
9382.9153
6446.8907
5803.3274
9084.0341
13322.079
22576.223
34666.301
50470.919
68619.565
106134.53
-1683358.5
-1672626.3
-1663768.3
-1656941.4
-1649657.2
-1642215.3
-1635788.6
-1628704.2
-1621880.9
-1615116.9
-1608422.9
-1601682.9
-1594654.7
-1588438.3
-1203313
92534.104
62039.976
60306.03
59846.421
61265.412
61602.954
61903.005
61661.568
61122.6
60222.655
59163.234
57884.061
56473.326
54970.923
53366.09
51790.942
50176.545
48548.39
46944.966
45318.866
43851.815
42353.977
40859.141
39517.403
38093.244
37018.031
35583.521
34581.312
33441.231
32400.676
31446.516
30526.034
29668.526
28630.809
27877.854
27097.912
26327.892
25657.328
24850.299
24219.842
23466.475
22776.892
22104.241
21437.431
20766.343
20119.026
19435.394
18794.31
18105.964
17464.942
16780.059
16132.785
15465.463
14812.123
14166.848
13524.86
12897.418
12281.019
11682.446
11105.164
10532.856
10017.538
9496.3174
9074.724
8564.8094
8200.2973
7898.7789
7387.9336
7144.8186
6837.4693
6565.7983
6214.4639
6076.9145
5704.7628
5704.0831
5301.85
5401.6667
5015.021
5167.424
4796.3311
5016.9977
4563.585
4855.2026
4407.3513
4626.6598
4410.5834
4691.8533
4408.1613
4759.9886
5090.23
4324.5702
5588.5758
4326.3254
2710.6919
4240.4372
87871.872
50793.202
58757.193
55909.777
57207.78
58105.074
57836.826
58030.661
57771.611
56644.128
56112.969
54570.83
53462.992
52012.059
50551.983
49091.073
47444.261
45966.863
44439.872
43012.53
41333.445
40123.705
38513.082
37458.581
36034.499
35095.601
33753.576
32755.629
31619.09
30590.97
29582.9
28720.573
27922.172
27189.326
26497.688
25782.152
24927.238
24227.206
23483.027
22897.951
22172.031
21532.689
20867.269
20208.412
19539.312
18886.111
18213.723
17552.423
16891.468
16220.797
15571.031
14908.926
14263.837
13622.252
12994.954
12371.34
11771.8
11184.184
10605.562
10068.339
9524.0231
9033.6457
8527.8622
8098.9184
7631.6043
7286.527
6902.9719
6656.7255
6330.2843
5938.7057
5661.5092
5352.2989
5227.0844
4932.7404
4851.861
4576.0688
4534.8771
4322.2487
4243.0221
4134.0121
4046.9312
3982.9479
3899.6311
3909.8205
3784.5257
3855.4173
3806.9846
3803.9586
3784.2381
4022.1607
3644.0666
3915.4151
4006.4486
4051.086
3294.6762
85056.965
57157.582
40350.595
31027.675
17488.239
11046.939
8239.7004
7774.7112
11063.655
18970.012
26608.365
41222.389
58372.388
83036.123
106926.93
177360.21
71944.137
48234.92
66213.582
59713.127
63839.355
62541.125
63726.314
61978.304
61890.087
60898.188
58394.956
58160.943
55363.389
55679.742
53264.596
52641.88
48073.957
49044.866
44912.203
44246.965
43133.742
41434.363
40112.593
38517.693
37003.017
36542.801
34231.454
34118.114
32368.732
31361.852
30462.655
29399.898
28539.041
27128.17
27532.619
25686.619
25144.628
24305.188
23514.633
22773.634
22026.98
21279.679
20557.446
19824.436
19103.901
18367.233
17642.835
16900.519
16171.781
15434.306
14708.325
13983.274
13263.333
12558.159
11851.299
11168.179
10489.911
9832.5794
9191.6739
8574.7899
7975.6017
7412.2328
6865.7377
6348.2198
5898.7773
5396.5169
4426.3388
6069.8486
4122.0726
3963.3986
3610.5563
3310.2849
3065.4099
2828.2715
2600.8323
2417.4904
2239.6684
2081.5299
1960.9053
1804.1405
1736.2583
1580.878
1556.2861
1408.3194
1430.2051
1305.423
1345.5598
1319.2493
1398.2483
1424.2205
1719.4299
1874.0666
2605.0542
-692.84945
-3378758.7
-3181097.6
-2837987.4
-3420829.7
-2862054.6
-3449874.9
-2886840.6
-3261207.6
-3494211.8
-3292192.6
-2937342.7
-3541951.8
-2963939.1
-3578012
-3378281.1
-1838.5466
2160.6666
4730.3191
4693.4324
4423.4889
4257.1448
4083.5271
4036.6037
3920.5273
3944.6101
3985.2783
3984.8354
4075.991
4027.8708
4113.1425
4134.1469
4267.5297
4354.5611
4512.9097
4664.8248
4837.8879
5034.9945
5260.8439
5492.9382
5753.935
6375.9864
7132.1874
5749.2339
7198.8152
7483.6235
7965.5815
8436.4293
8923.4422
9444.4014
9988.3527
10553.689
11141.352
11745.965
12374.08
13008.386
13666.881
14325.601
15005.845
15681.354
16375.158
17061.755
17763.716
18450.669
19159.353
19845.078
20547.228
21226.338
21945.585
22607.042
23302.53
24021.402
24965.108
25799.139
25947.311
27135.395
28080.335
28019.841
29477.373
30512.378
31317.59
32433.174
33172.399
34224.663
35355.363
36981.093
38091.033
39532.634
40729.822
42660.844
43641.642
45517.067
46899.496
48760.913
50308.324
51837.975
54202.963
55160.299
56841.867
58416.763
60578.844
60004.812
62375.094
62079.282
62717.808
60585.375
61618.735
62189.608
61466.287
55136.163
99655.87
82576.426
76956.837
74676.463
74683.846
76249.202
77190.896
76937.514
77566.867
77522.587
77062.828
74748.778
73317.834
74763.964
76489.734
84480.075
79360.352
81737.596
79207.86
83536.317
83528.401
83071.399
88582.289
94378.889
91617.14
90918.989
86531.955
83148.637
82134.563
80306.879
91073.806
-1578487.9
-1579208.2
-1578761.9
-1578925
-1578930.2
-1578922
-1578933.1
-1578890.6
-1578851.4
-1578884.3
-1578868.1
-1578873.9
-1578791.9
-1578996.2
-1579380.6
-3395027.7
-3395597.3
-3395842.1
-3395893.2
-3395506.6
-3395574.9
-3395558
-3395522.3
-3395519.8
-3395424.5
-3395435.9
-3395576.6
-3395326.7
-3396331.7
-3394850.4
69658.713
54477.659
50973.603
50136.644
50340.433
50579
50817.708
50801.72
50364.825
50058.167
49067.218
48307.491
47032.87
46110.746
44562.053
43514.317
42042.467
40826.666
39411.476
38242.505
36949.015
35694.62
34614.514
33368.399
32379.651
31276.63
30275.907
29354.586
28444.821
27576.226
26674.465
25985.17
25185.898
24548.073
23953.199
23214.098
22706.515
21989.044
21499.129
20928.191
20380.057
19748.606
19325.16
18702.836
18227.994
17653.269
17141.105
16603.045
16072.595
15544.912
15021.706
14493.101
13979.254
13460.325
12957.93
12453.497
11970.256
11491.194
11031.441
10586.436
10152.616
9747.4507
9338.8256
8985.3577
8494.9929
8243.038
7956.2353
7789.4218
7569.3885
7156.8244
7042.7659
6735.458
6667.4592
6434.842
6310.1663
6169.2598
6015.5109
5942.9867
5740.3232
5776.2306
5516.5064
5581.6808
5637.4341
5329.5788
5377.5409
5106.6332
5304.0363
4965.3534
5514.5424
4569.5272
5563.5947
5098.0121
4910.8692
7460.9983
6580.7503
46217.498
39650.338
40003.928
38773.953
38998.044
38728.477
38663.813
38560.09
38254.348
37916.25
37160.299
36695.046
35790.79
35012.494
33936.92
33237.404
32067.178
31221.449
30155.848
29264.748
28248.245
27396.871
26490.541
25638.486
24812.948
24062.108
23311.266
22573.349
21907.669
21278.028
20661.967
20110.509
19543.768
18990.827
18463.001
17934.438
17575.433
17068.07
16679.106
16236.155
15874.944
15404.747
15075.002
14618.693
14264.183
13879.388
13486.5
13118.19
12730.054
12364.141
11980.343
11615.546
11247.422
10883.26
10530.063
10179.334
9841.3716
9511.9506
9191.1334
8892.5749
8590.1756
8328.4961
8062.2265
7819.1664
7529.6025
7602.2193
7141.3691
7264.2652
6982.4165
6885.8427
6763.5712
6548.955
6484.0682
6275.7484
6296.5051
6088.9071
6135.8445
5938.5305
6048.7872
5778.3218
6021.4259
5610.2002
5975.7182
5621.1087
6034.6918
5738.7124
6107.9965
5818.1422
5851.4505
5978.7755
6106.5379
5460.1069
6825.8621
5770.5792
5961.4507
29214.141
25834.338
28618.096
28190.062
28716.179
28036.911
28051.009
27804.553
27503.885
27146.612
26720.948
26314.184
25610.628
25094.821
24402.64
23761.576
22983.42
22365.783
21608.051
20975.86
20314.393
19614.957
19040.096
18349.957
17832.854
17222.348
16693.413
16174.013
15732.37
15236.263
14812.482
14410.573
14027.338
13669.341
13379.355
12999.767
12670.477
12245.901
12063.272
11805.331
11450.245
11284.782
11015.046
10744.066
10530.656
10257.399
10009.657
9784.9825
9529.3549
9301.6993
9064.3193
8835.6623
8609.7125
8386.4467
8173.631
7961.0274
7759.8132
7564.7977
7375.9895
7199.8093
7032.1197
6875.4363
6727.4486
6580.115
6516.8967
6317.8672
6609.3253
6237.2809
6035.4841
5848.674
5791.867
5627.6387
5576.7518
5482.1394
5481.0191
5361.8936
5384.6465
5320.374
5286.2363
5278.2485
5235.3357
5245.585
5166.0403
5170.3126
5287.5727
5412.0537
5524.3919
5119.1611
5819.354
5073.2997
5592.1193
5600.6667
5743.2615
5773.3477
5729.8254
18615.058
15920.652
18057.442
18840.911
19208.657
19161.848
19125.444
19088.66
18656.086
18651.211
18153.614
18008.084
17427.335
17270.168
16562.792
16366.401
15710.215
15386.67
14785.411
14417.791
13861.751
13495.387
13024.432
12648.182
12246.217
11875.475
11543.338
11194.983
10858.66
10582.798
10293.052
10034.968
9793.9226
9552.5992
9392.4558
9039.4744
9065.5148
8958.204
8935.3563
8703.3896
8604.584
8390.7666
8234.6556
8082.3149
7971.2688
7802.6114
7682.9556
7535.7732
7388.8677
7260.1759
7114.8932
6986.9133
6852.9076
6727.7947
6605.0146
6489.2087
6374.4548
6275.1208
6165.4282
6089.0067
5987.7303
5919.3529
5843.4958
5799.3175
5686.971
5721.2897
5578.5281
5667.511
5600.4893
5599.586
5672.4615
5674.0025
5604.8386
5568.1813
5609.7377
5534.0532
5745.2944
5482.3673
5832.6621
5498.4969
5898.9102
5474.3835
6054.2724
5433.0059
5799.8264
5452.4043
5708.6
5630.8201
5893.0723
5334.3471
6489.4673
5146.6975
6777.9368
5356.6783
6358.5345
11538.064
8584.804
10688.838
10931.58
11818.224
11652.362
11870.418
11547.992
11518.87
11351.44
11149.664
10988.517
10721.581
10526.792
10183.367
10024.633
9581.258
9444.3238
9047.3972
8846.9182
8525.8701
8290.3567
8006.1601
7768.1098
7511.1964
7290.9222
7079.5292
6857.506
6731.2235
6528.027
6398.7495
6261.385
6130.0741
6044.9639
5920.0589
5758.874
6022.4524
5477.301
5893.9132
5919.0451
5813.6325
5725.5588
5711.5456
5625.3357
5566.3451
5475.9819
5435.0685
5356.9167
5310.5101
5252.6252
5202.004
5153.1286
5108.3705
5064.8691
5028.6202
4991.5
4961.1077
4935.9894
4907.4843
4892.3079
4879.791
4855.4834
4856.2115
4866.6016
4844.7579
4850.3631
5010.4228
4815.8797
4946.0584
4811.3485
4943.9906
4899.4671
5034.4581
5221.2238
5232.6642
5359.5806
5321.8833
5425.7386
5434.74
5479.787
5442.2855
5667.6598
5357.8121
5690.413
5492.4469
5573.7142
5770.5878
5460.0578
5768.1626
5655.9847
5902.6022
5525.66
6328.2626
5311.3553
6507.8543
6665.4848
4161.0118
4999.6664
5270.3066
5819.0348
6121.3316
6065.5301
6296.3198
6126.5072
6255.8728
5999.8139
6134.1438
5816.4225
5929.1712
5598.9581
5662.0599
5354.188
5388.631
5076.0486
5086.4453
4829.8871
4785.0265
4582.4437
4507.4152
4358.9285
4292.9215
4155.6428
4105.3748
3988.4882
3926.4656
3878.2029
3811.2433
3796.6127
3763.111
3728.5881
3800.8128
3694.9376
4194.2832
4163.0122
3974.4078
4029.8796
3973.4049
3997.8059
4006.5123
3995.6084
3994.5694
3992.0168
3998.3708
3998.5549
4007.0778
4010.0099
4023.3701
4033.3368
4049.9143
4067.2761
4089.9394
4112.4846
4142.6403
4169.9804
4210.939
4226.2807
4296.0932
4307.4126
4356.8523
4399.92
4465.6882
4466.2905
4540.5621
4638.6775
4674.7733
4658.998
4760.7669
4615.8346
4599.5717
4889.872
4836.4112
5028.2205
4898.8311
5177.5414
4887.5739
5391.8377
4853.0654
5502.6376
5046.7289
5441.9585
5364.8165
5493.9563
5380.4154
5852.5672
5259.9657
6166.2236
5174.9744
6698.2627
5099.4204
6737.9455
4537.5058
1287.8448
1937.4053
1565.2205
2163.4845
2148.6287
2440.5502
2438.5699
2544.0199
2568.0363
2587.7923
2637.9396
2580.0928
2633.7363
2493.46
2584.0415
2372.3549
2455.733
2252.5594
2304.1159
2129.5241
2155.8568
2005.1003
2016.8895
1932.3229
1895.3093
1866.1893
1840.2504
1834.5403
1840.025
1836.5954
1855.7237
1888.637
1891.9777
1976.5067
1959.0019
2095.1965
2043.1394
2220.54
2156.3892
2386.2907
2417.201
2516.2512
2581.4969
2636.7598
2690.698
2771.0638
2822.4854
2897.9598
2961.1955
3039.7883
3107.3448
3190.5235
3264.7586
3351.3607
3430.9086
3519.0638
3608.746
3692.9181
3783.1202
3879.8937
3963.5698
4046.1014
4154.8601
4232.0767
4314.1622
4420.1148
4508.3293
4610.6034
4634.9889
4868.2271
4802.1513
4933.7274
5016.2445
5028.9768
5198.7342
5097.1795
5349.4884
5234.136
5510.1697
5348.2926
5606.0158
5563.2412
5555.2306
5741.6588
5525.6875
5725.2478
5605.4097
5806.0895
5539.8065
6150.9631
5511.5482
6524.9714
5068.929
7130.7415
3667.8608
593.3603
409.47022
202.78136
305.61427
583.13296
671.02291
900.69665
959.51037
1176.5429
1135.8004
1367.0172
1264.4161
1458.2415
1363.4369
1514.8098
1392.1627
1554.8723
1406.2318
1538.6675
1397.6241
1472.5929
1393.7694
1488.5486
1400.7729
1481.3156
1438.9034
1487.8758
1482.2701
1515.9849
1543.6579
1603.9772
1625.4576
1711.98
1755.9609
1842.3825
1888.5365
2044.6327
2039.971
2113.269
2167.7454
2192.5604
2246.0491
2322.496
2375.466
2468.2134
2528.4243
2605.0713
2671.4727
2749.7937
2817.9417
2900.3799
2974.4502
3058.4315
3141.6182
3223.7565
3315.3506
3401.8466
3483.4693
3590.0567
3663.3487
3757.7232
3848.9056
3941.0044
4001.7781
4111.1563
4179.5087
4251.9146
4288.7437
4439.1492
4379.5078
4512.1663
4578.2814
4596.6193
4750.2659
4737.3527
4871.3795
4869.6561
4994.6332
4892.3959
5164.5739
4884.2604
5281.3524
4928.9977
5344.2464
5107.7825
5412.6977
5375.7272
5511.6406
5404.7335
5921.0479
4955.0885
6440.901
5013.4792
7168.0321
5087.761
1375.9173
1148.7379
579.50656
623.65448
745.0433
877.74399
935.35277
1086.6906
1162.2482
1261.085
1334.1866
1377.9096
1461.3013
1415.3471
1514.7875
1410.4626
1501.1446
1395.3732
1487.1796
1480.8835
1616.5827
1496.1406
1496.9264
1434.0619
1449.9637
1418.0017
1432.8772
1443.0684
1461.3434
1502.3269
1515.6571
1566.3915
1626.8248
1651.3046
1737.2404
1778.6856
1871.6212
1914.7865
1979.9946
2047.7569
2132.118
2214.7346
2278.2258
2354.0134
2397.4993
2474.6048
2528.1908
2606.66
2668.7358
2752.9751
2822.352
2907.907
2989.605
3075.6845
3162.4119
3256.8385
3338.7763
3440.9716
3529.356
3614.7147
3719.4363
3803.5134
3890.7265
3980.8143
4086.6709
4153.1461
4240.1105
4386.6966
4395.9315
4539.5799
4639.1109
4583.1417
4769.5537
4699.9496
4921.9854
4838.4832
5082.7526
4880.3353
5296.5913
4999.9116
5339.758
5321.8657
5214.5841
5665.7956
5148.7663
5694.5687
5271.7909
5445.3771
5568.0449
5506.8223
5478.9148
6316.1478
5024.9498
7159.0941
8449.5262
4328.499
4003.5838
3461.4917
3630.2665
3708.4237
3812.8877
3872.0863
4012.7181
4214.7836
4172.1414
4393.1509
4365.6366
4444.2835
4423.4058
4451.2937
4356.2428
4398.639
4222.1024
4207.0489
4149.213
3966.8026
3737.7137
3716.9252
3641.075
3630.9831
3529.7716
3547.4973
3471.4918
3477.2204
3436.3165
3441.8035
3448.1943
3431.9321
3480.7338
3482.4445
3507.3524
3548.422
3539.998
3607.3326
3611.2441
3657.5936
3635.0299
3679.604
3675.8412
3711.2164
3725.8511
3754.4448
3769.5015
3802.3166
3825.1388
3856.4451
3891.8013
3928.4351
3967.7064
4014.0701
4055.9765
4107.2463
4158.2156
4202.3999
4262.937
4318.7241
4356.5148
4431.8966
4463.3812
4523.5314
4548.6127
4651.0011
4624.1856
4716.3962
4768.1462
4752.524
4862.0725
4947.4831
4922.8987
4931.47
5024.6693
4968.0477
5229.1313
4980.3066
5275.4578
5112.055
5239.3688
5203.4613
5287.0546
5199.4608
5361.5558
5324.7603
5430.5458
5333.0582
5643.2711
5253.8675
5805.4032
4901.9418
7228.4556
9676.8632
7429.5504
6817.1846
6783.7751
6845.6801
6937.6201
6829.0019
6855.2841
6980.8651
7027.0579
6961.6834
7107.7821
6987.6112
6985.1615
6881.6996
6778.2151
6664.4175
6512.2301
6373.3508
6222.6877
6190.2363
6766.6112
6506.6675
6437.7868
6324.5045
6111.3529
6026.7475
5832.1103
5744.074
5609.9323
5523.5408
5473.6753
5338.7276
5340.6277
5224.4934
5197.9146
5142.1572
5097.5023
5074.6838
5016.0788
4995.0676
4928.9329
4921.9637
4863.4045
4843.4254
4784.8204
4758.8423
4707.2799
4681.1921
4642.2672
4617.8902
4589.2048
4572.7335
4551.9907
4542.6984
4530.8885
4526.5889
4525.8937
4520.8749
4525.3979
4537.3744
4525.8223
4550.3445
4565.475
4563.8393
4598.4614
4627.2264
4614.9158
4657.8514
4701.0596
4678.4123
4769.9223
4761.7387
4788.93
5196.5563
5053.7531
5050.4505
5176.0421
5034.4669
5306.4837
5156.2706
5373.3387
5314.9929
5438.5543
5477.8263
5495.5445
5683.9521
5538.0357
5755.5512
5745.2697
5672.2798
5756.527
6065.9089
5751.0844
6891.5594
22595.306
13827.631
14672.45
14251.313
14407.253
14003.91
14114.254
14052.261
14040.976
14037.174
14017.013
13929.558
13830.149
13591.121
13479.154
13128.178
12918.344
12583.233
12281.234
11985.187
11586.526
11348.568
11836.226
11764.511
11418.309
11206.656
10888.168
10663.24
10403.212
10154.693
9979.4711
9728.7125
9563.145
9377.5919
9217.7275
9080.3403
8904.8445
8794.1175
8604.5854
8506.7147
8316.892
8214.7138
8034.4163
7910.9034
7747.8329
7614.0857
7463.4396
7329.117
7185.4556
7054.3626
6922.9329
6797.1643
6678.8889
6563.3113
6456.5974
6352.3546
6259.5951
6165.0586
6079.6799
6007.8721
5919.5438
5861.7139
5793.2679
5741.0905
5663.339
5639.2036
5556.8517
5550.3831
5510.2739
5462.0683
5464.2608
5413.0412
5425.1542
5421.8951
5369.2969
5273.0475
5326.4496
5244.5891
5331.7152
5282.7359
5272.2044
5322.6765
5194.6351
5352.1223
5097.7221
5375.1454
4997.7367
5282.723
5121.9652
5134.0389
5249.4118
5275.0114
5413.1809
5154.8136
7022.2589
34222.928
26995.232
26367.457
25519.519
24904.443
24501.21
24615.392
24081.209
24388.4
24063.589
23953.128
23715.951
23301.8
22906.177
22470.346
21785.189
21408.066
20616.007
20194.225
19447.763
18999.631
18348.927
17761.685
17129.562
16729.747
16033.368
15714.793
15141.185
14716.799
14337.17
13916.845
13628.83
13254.007
12998.861
12655.825
12347.554
12092.562
11790.528
11568.739
11262.986
11052.619
10763.765
10534.964
10261.583
10018.108
9751.0269
9503.9149
9242.7675
8995.8862
8745.9112
8504.5958
8264.126
8034.2773
7805.1211
7586.3421
7373.2731
7166.1286
6965.8766
6779.2995
6588.4638
6415.9542
6248.071
6082.355
5937.0669
5797.8772
5689.4909
5577.1679
5462.1575
5330.6186
5277.1427
5143.8943
5137.8228
5026.4153
4977.7766
4972.9594
4889.1277
4864.1303
4862.9164
4799.3643
4823.1875
4825.9977
4823.7194
4863.0553
4881.315
4926.9682
4990.3911
4953.3187
5297.7171
4889.0619
5491.4098
5043.6372
5465.2885
4845.6815
5821.9427
6753.096
50510.757
40092.992
38364.284
36412.798
37000.224
36563.783
36585.316
36722.908
36918.593
36553.505
36416.669
35840.657
35359.871
34582.448
33843.076
32926.279
32100.407
31107.963
30263.321
29295.919
28418.538
27483.303
26628.25
25890.174
25084.361
24348.913
23726.42
22988.516
22406.2
21765.38
21224.913
20636.789
20103.968
19658.679
19139.244
18729.112
18266.964
17881.951
17399.114
17027.392
16575.416
16177.917
15745.937
15339.427
14913.355
14504.276
14082.083
13671.368
13257.944
12849.522
12448.372
12048.169
11661.652
11275.129
10906.889
10538.148
10186.88
9847.2156
9509.9601
9200.1812
8887.4196
8607.5841
8311.927
8071.6042
7780.1185
7569.9445
7327.1302
7139.6553
6969.4086
6762.7068
6659.6463
6456.1636
6371.5183
6214.277
6181.6487
5996.0612
5994.3552
5864.1368
5819.795
5798.6922
5690.1431
5718.4648
5593.1911
5660.5025
5492.0108
5576.0245
5444.7405
5466.9746
5220.8081
5627.8376
4902.3502
5563.2165
5036.07
5034.2245
6246.1573
61887.588
48940.026
46581.942
45341.113
47334.278
46308.779
47305.918
47506.787
47423.621
47329.279
46574.549
46125.337
45216.995
43979.77
43212.454
41551.754
40881.704
39192.374
38349.336
36727.795
36050.895
34266.556
33801.813
32123.629
31479.993
30254.296
29420.361
28632.12
27730.937
27210.716
26320.028
25688.694
24938.583
24268.054
23660.97
23048.277
22714.415
21994.475
21577.179
20950.507
20477.651
19916.436
19403.916
18861.507
18333.93
17797.241
17262.735
16731.727
16194.685
15668.75
15136.344
14613.261
14092.454
13579.191
13070.14
12572.562
12087.475
11604.047
11147.56
10692.471
10264.688
9842.1307
9454.1012
9070.2939
8696.3908
8339.0749
7962.8795
7689.2162
7356.3742
7318.4646
6909.1119
6818.3243
6535.8033
6409.9229
6196.2041
6091.5962
5924.6893
5833.6263
5730.3254
5606.7137
5533.5431
5468.7259
5385.8712
5336.4047
5317.4371
5282.3038
5216.6287
5367.8181
5290.3136
5414.2478
5622.3626
6088.9509
5567.0648
6651.6693
6495.9704
45748.798
42688.102
36010.948
34958.503
34156.945
34283.51
33576.071
34068.703
34240.991
34259.069
34114.207
33975.261
36765.809
39397.651
48929.882
31720.666
25525.719
22153.044
21767.552
20318.418
20178.843
19547.481
19853.797
20182.273
19958.236
20291.924
20908.796
22605.044
25967.886
32833.362
20943.678
15851.953
11682.519
10885.674
9772.9449
9486.4606
9340.804
9105.3072
9207.3288
9335.6753
9850.517
10327.549
11926.312
15623.018
21077.115
13570.279
10273.116
7896.421
6690.4648
6294.7961
5924.0543
5831.0705
5621.6994
5876.2298
6021.659
6384.0524
6833.1356
8644.2841
10944.253
14143.385
8353.1926
6151.9533
4102.6714
3480.5342
2953.0218
2747.5237
2621.5457
2563.1377
2605.7342
2765.8326
2964.9387
3582.0443
4602.4601
6104.7359
9273.2686
6299.8093
3932.4094
2641.9929
2199.3833
1842.0098
1700.5286
1609.0445
1605.6438
1645.4199
1710.5938
2006.6949
2230.5682
2920.0462
4249.1636
6526.7389
3776.1136
2412.683
1618.4226
1165.7844
964.14649
767.46162
704.855
655.55913
685.83041
770.31533
912.83729
1240.4357
1715.0803
2779.4759
4669.5625
3815.5921
2293.4049
1433.4676
1108.4025
833.69024
718.99663
641.49021
635.80269
691.54085
760.63146
977.30899
1237.7395
1757.5124
2764.8264
4783.3907
4584.0516
2953.7298
1959.6362
1492.2128
1172.755
1001.2846
906.67397
915.01649
926.20564
1127.6712
1237.7365
1606.1219
2177.7096
3514.008
5170.1607
7246.4779
5219.0009
3251.003
2684.1664
2091.4947
1919.0145
1750.6214
1731.6686
1774.6251
1876.1471
2381.9776
2575.0088
3874.7517
5867.909
8834.5797
9989.8519
7680.7785
4875.5731
4250.106
3339.1964
3180.809
2890.0375
2963.4014
2981.9161
3209.3497
3707.6708
4455.6145
5989.5167
8441.459
11615.806
16703.059
11352.569
8507.479
7157.157
6192.107
5642.5244
5450.9539
5327.6053
5501.4037
5742.4264
6524.5614
6629.0545
9357.3499
12730.163
17706.455
22258.725
18280.207
13387.553
12050.309
10381.791
10278.178
9589.2039
9948.7236
9974.1243
9872.4863
11000.244
11671.443
14254.257
19222.888
22430.891
35045.706
28835.571
22646.845
21161.085
19253.831
18668.638
18858.659
19144.26
18804.927
19038.549
19310.456
20515.396
23225.409
27199.198
38024.318
47128.388
49795.954
38333.13
37299.81
34721.728
32534.547
34547.422
36385.464
33747.437
35923.632
35054.284
36434.674
39422.455
44834.582
55567.256
113697.9
93978.543
93420.008
96320.29
97682.716
97173.113
102533.2
108063.63
109958.89
108452.32
105232.47
99853.509
99029.343
101830.14
99129.229
81726.052
72578.071
68580.545
65994.77
63077.158
64948.203
64087.586
64639.071
69129.302
65365.15
66629.537
65450.577
70209.765
75246.056
86685.386
68060.164
70341.933
66492.208
64499.38
64656.747
59309.244
59103.445
59976.218
56985.368
62083.094
61950.59
67915.565
70348.764
70720.113
72920.888
64568.875
71516.096
70778.083
68043.958
67008.577
65914.344
65394.278
65721.217
65909.341
66509.755
68691.147
71062.405
71917.418
73570.781
67923.271
65804.853
70220.143
71539.98
73172.286
71091.724
70633.607
70729.938
70211.824
71124.367
72575.218
73087.663
74725.87
74357.427
71780.819
67578.599
63705.519
70004.667
70590.968
71390.16
71961.04
71503.943
71090.869
71068.1
71369.506
71656.698
72797.715
73276.113
72282.261
70917.082
65533.388
63862.608
68333.199
70355.532
72229.619
72164.429
72657.159
72881.622
72962.172
73432.207
73815.125
73398.609
73442.224
72014.646
68547.788
66240.401
63481.431
66660.843
68961.046
70491.559
71785.145
71705.345
72014.538
72444.44
72207.358
72704.785
72359.65
71457.347
70399.311
66594.828
63019.322
61663.255
64808.733
67128.684
68839.164
69192.568
70260.662
70513.206
70539.805
71077.679
70350.348
70050.54
69093.262
67497.214
65153.251
63328.226
61179.295
62941.415
65204.141
66443.573
67738.703
68128.991
68625.468
68881.04
68210.25
68972.103
67953.115
67539.201
65854.781
63889.469
61959.831
59081.527
61139.913
63122.049
64501.283
65383.479
66249.975
66691.485
66838.101
67343.981
66427.525
66661.373
65232.823
64319.062
62344.396
60826.44
58428.847
59012.681
60863.408
62017.737
62977.079
63497.362
63911.345
64067.188
63895.152
63890.193
63060.913
62577.452
61255.256
59888.891
59261.362
56437.97
57514.982
58700.559
59809.491
60682.279
61326.106
61834.894
62042.237
62460.297
62011.228
61777.823
61054.625
59958.537
59010.114
57733.412
54831.595
55347.864
57097.43
57533.511
58532.971
58952.013
59267.556
59332.784
59229.176
58977.762
58452.071
58011.175
56977.869
56146.972
56058.765
53281.732
53522.419
54719.36
55572.506
56393.834
56570.972
57379.351
56920.322
57660.992
57433.776
57377.912
56871.375
55844.936
55543.573
54641.98
51346.646
51768.219
53076.613
53464.775
53889.085
54611.575
55116.549
54815.796
54639.151
54323.268
53905.031
53588.042
52617.483
52305.622
52197.707
50191.238
49822.254
51002.815
50983.968
52367.914
52252.499
52775.457
52624.724
53239.023
52953.066
53179.04
52606.737
52573.111
51226.3
51904.416
48129.667
48350.281
49344.963
49579.257
49854.798
50468.848
50513.172
50710.314
50587.022
50370.377
49888.763
49530.135
49369.635
48576.991
48575.493
46829.305
46484.341
47559.193
47867.862
48362.799
48338.459
48818.257
48580.251
49038.761
48743.161
48529.529
48646.508
48344.58
48429.461
48356.704
44911.836
44945.277
45556.51
45822.961
46211.922
46672.391
46950.304
46902.577
46999.143
46759.276
46668.475
46389.117
46041.504
45498.758
45439.777
43648.651
43384.146
44326.264
44281.019
44727.862
44583.625
45189.514
45053.678
45269.097
44889.47
45098.695
44861.698
45128.94
44612.756
44882.431
41808.104
41859.309
42410.273
42744.31
42924.427
43411.42
43367.945
43494.28
43423.46
43754.765
43391.269
43276.836
42668.201
42122.02
43050.027
40897.384
40237.34
41221.454
41055.502
41649.687
41542.179
41980.497
41701.178
42092.369
41685.403
41606.1
41392.165
41296.698
41113.93
41415.658
39060.569
39121.087
39543.946
39885.748
39892.98
40057.894
40261.093
40214.612
40353.247
40255.295
40169.444
40154.317
40227.894
39532.179
40162.546
38385.873
37722.721
38169.558
38119.128
38707.748
38528.003
39147.043
38793.902
39092.842
38863.356
38892.477
38670.406
38253.384
38055
38670.278
36401.309
36282.406
37026.116
36921.023
37242.416
37416.097
37579.527
37383.072
37684.586
37369.691
37560.418
37531.596
37429.233
37140.375
37260.992
35743.747
35197.336
35701.939
35625.206
36396.502
36051.022
36427.846
36276.675
36462.479
36284.401
36266.838
35821.977
35847.584
35475.447
36237.353
34217.712
33898.809
34531.844
34537.735
34730.954
34779.911
35054.76
34922.162
35191.589
34942.628
35091.966
34947.179
34769.588
34716.233
34721.145
33505.815
32981.917
33532.008
33307.594
33806.643
33732.573
34004.313
33883.527
34035.527
33861.764
33850.494
33767.561
33485.965
33063.618
33963.231
32321.752
31656.322
32413.216
32329.605
32793.919
32665.578
32891.827
32721.294
32819.62
32630.783
32729.568
32450.057
32598.346
32236.548
32711.466
31534.162
30925.79
31731.899
31412.567
31826.08
31693.834
31940.255
31679.382
32017.611
31679.075
31864.562
31534.535
31596.262
31011.475
31687.858
30816.168
29869.55
30644.982
30380.437
30919.464
30679.463
31030.192
30780.069
31030.362
30717.013
30813.212
30576.84
30595.735
30175.588
30765.323
29819.636
29005.799
29824.455
29554.369
30006.238
29794.873
30202.535
29797.615
30143.161
29771.089
30019.905
29623.482
29735.852
29225.695
29819.509
29022.983
28213.492
28959.501
28645.44
29145.466
28928.792
29268.845
28997.01
29244.845
28965.843
29042.748
28779.058
28844.602
28371.992
28925.703
28138.937
27419.089
28239.473
28020.609
28286.669
28124.469
28445.249
28199.54
28453.916
28201.918
28311.863
28049.205
28095.71
27751.608
27935.885
27408.524
26810.897
27201.144
27086.466
27369.903
27312.224
27548.212
27381.546
27559.511
27155.525
27407.919
27109.016
27179.408
26635.769
27396.477
26492.813
25882.882
26535.135
26316.618
26751.633
26482.407
26856.731
26515.815
26765.124
26602.145
26612.159
26365.75
26317.458
25978.338
26393.39
25964.786
25304.015
25931.789
25764.311
25996.084
25880.887
26116.31
25857.308
26128.773
25721.425
25990.621
25512.5
25776.388
25124.022
25651.484
25456.301
24440.008
25244.013
24837.875
25400.157
25026.097
25475.561
25071.01
25372.096
25024.591
25154.087
24887.47
24953.131
24397.189
24967.226
24620.629
23774.586
24522.769
24243.625
24612.83
24363.58
24739.835
24337.722
24709.554
24251.649
24536.112
24065.198
24254.124
23684.076
24203.742
24012.46
23078.103
23881.905
23467.88
23984.192
23627.611
24044.574
23658.421
23953.656
23607.327
23787.78
23397.147
23577.977
22947.168
23498.65
23282.736
22413.535
23158.464
22837.589
23275.426
22940.259
23387.914
22915.204
23317.549
22865.078
23099.887
22695.026
22854.443
22254.919
22804.74
22641.723
21715.86
22517.168
22125.75
22586.171
22262.348
22650.217
22260.648
22586.801
22180.972
22416.493
21989.141
22168.722
21556.898
22093.165
21932.771
21059.107
21820.029
21438.544
21914.331
21550.168
22001.26
21548.493
21901.794
21501.088
21707.974
21309.613
21478.095
20869.003
21401.503
21270.977
20366.507
21145.574
20761.109
21200.936
20887.479
21293.022
20861.196
21213.44
20801.555
21017.544
20619.105
20778.157
20178.638
20702.146
20573.528
19687.329
20475.358
20044.979
20518.694
20179.392
20600.368
20167.648
20504.451
20114.527
20314.336
19930.52
20083.536
19493.954
20004.127
19883.384
19008.506
19772.292
19365.318
19818.409
19498.182
19920.867
19468.935
19817.068
19421.155
19613.421
19238.547
19380.281
18801.518
19299.808
19199.071
18309.524
19101.616
18663.187
19116.413
18804.016
19211.049
18764.954
19112.141
18718.88
18910.234
18541.896
18684.148
18114.908
18600.609
18490.031
17631.367
18400.277
17958.862
18424.471
18116.299
18529.04
18077.103
18423.137
18028.353
18212.327
17847.048
17984.32
17416.225
17894.755
17809.799
16938.8
17710.93
17274.967
17726.765
17414.929
17815.708
17356.683
17708.21
17314.663
17500.202
17140.623
17284.671
16720.476
17197.143
17106.518
16247.742
17023.488
16572.176
17020.838
16722.438
17126.13
16674.125
17028.164
16630.253
16808.371
16453.541
16589.681
16025.747
16496.393
16419.261
15570.1
16330.832
15879.575
16333.605
16026.693
16417.197
15956.667
16308.143
15908.569
16095.72
15743.057
15886.899
15329.709
15798.742
15736.302
14884.215
15643
15197.218
15634.521
15329.141
15723.56
15271.752
15627.284
15232.899
15410.609
15060.643
15202.169
14642.233
15106.663
15054.905
14209.156
14965.614