/*--------------------------------*- C++ -*----------------------------------*\
  =========                 |
  \\      /  F ield         | OpenFOAM: The Open Source CFD Toolbox
   \\    /   O peration     | Website:  https://openfoam.org
    \\  /    A nd           | Version:  6
     \\/     M anipulation  |
\*---------------------------------------------------------------------------*/
FoamFile
{
    version     2.0;
    format      ascii;
    class       pointScalarField;
    location    "1.42";
    object      p;
}
// * * * * * * * * * * * * * * * * * * * * * * * * * * * * * * * * * * * * * //

dimensions      [1 -1 -2 0 0 0 0];

internalField   nonuniform List<scalar> 
28033
(
558707.7
-712411.95
6910.3174
2380.4136
991478.3
-1079438.8
3155.5147
757.20908
466789.21
421116.69
368860.53
303544.27
231411.87
164954.94
95238.4
19043.804
-54521.495
-125519.54
-201764.67
-245723.56
-338794.75
-408835.8
-394865.22
-13648.844
-7129.7304
-7573.2077
-4196.8888
-3633.8291
-1730.6065
50.033763
1941.1927
3618.1787
5480.8143
7617.6097
8641.0906
10347.293
11587.726
10625.648
138114.02
154982.19
142594.34
155325.71
149418.67
156371.93
157170.61
158988.33
159294.85
161948.96
160514.03
160572.64
161284.95
161257.41
160068.56
159045.66
159795.07
158295.34
157721.04
156632.62
156097.53
154579.26
154683.11
153091.22
152126.21
151267.55
150328.83
148929.19
148102.22
146791.53
145793.25
144309.77
143388.12
142169.32
140433.54
139209.94
137899.72
137047.35
134727.68
133662.87
131603.37
129733.57
127762.5
126016.03
123730.73
121867.51
119503.22
117436.86
114974.73
112793.83
110225.07
107906.29
105328.96
102848.51
100274.79
97694.222
95095.252
92481.772
89830.323
87220.495
84570.472
81933.539
79264.095
76749.426
74095.169
71661.872
69404.113
66808.206
64035.273
61595.943
59039.125
56780.666
54241.988
52117.589
49513.778
47643.318
44978.221
43309.034
40641.087
39090.772
36583.692
34993.477
32679.393
30818.066
28757.258
26779.423
25012.608
23304.342
20491.609
19164.288
17751.381
13707.431
15211.134
13950.815
11647.042
-134371.15
-115964.48
-135226.65
-123176.64
-140058.9
-135980.62
-144166.29
-140052.9
-146456.01
-143069.12
-147306.95
-144669.74
-146533.86
-146053.24
-146421.66
-145530.69
-145776.34
-144465.48
-144826.09
-143807.84
-143061.87
-143160.76
-141494.84
-142088.47
-140171.95
-140131.12
-138961.95
-138153.22
-137473.29
-136294.43
-135208.99
-134586.11
-132970.14
-132498.34
-131116.37
-130443.11
-128417.23
-127733.03
-125795.17
-124645.84
-122940.93
-121311.27
-119530.42
-117745.13
-115769.12
-113857.05
-111760.84
-109679.42
-107510.77
-105322.3
-103059.3
-100797.97
-98461.202
-96156.353
-93749.618
-91380.66
-88941.18
-86495.276
-83997.404
-81490.844
-78919.867
-76339.187
-73711.857
-71030.988
-68339.334
-65581.385
-62890.438
-60161.565
-57661.476
-54563.472
-51990.967
-49193.103
-46666.41
-44015.273
-41559.092
-39145.076
-36760.91
-34596.661
-32398.788
-30383.423
-28412.946
-26563.684
-24682.733
-23058.484
-21268.61
-19657.844
-18021.701
-16501.028
-14687.521
-13350.269
-11830.362
-9999.013
-8795.8108
-8433.6284
-6279.9838
818707.14
777789.14
556810.59
568207.51
383911.75
222845.01
132499.05
-31871.568
-150526.64
-308368.81
-410952.13
-554718.92
-688594.9
-790852.88
-833375.96
-215213.54
-174707.29
-86459.835
-167661.96
-144306.58
-152133.76
-149166.49
-157153.37
-153243.53
-158510.11
-161400.89
-152969.01
-161648.56
-152171.06
-162230.2
-157074.74
-158287.8
-152198.98
-154701.72
-150992.07
-150432.86
-147485.14
-150886.08
-149030.73
-146698.63
-148080.43
-142739.79
-146385.17
-140766.15
-143388.02
-140880.43
-140830.09
-138655.55
-138318.22
-137205.62
-132589.67
-133777.48
-132366.79
-130603.68
-129129.12
-127306.32
-125580.33
-123722.84
-121788.09
-119742.78
-117772.06
-115501.86
-113356.82
-110994.33
-108704.94
-106265.06
-103860.15
-101349.62
-98870.163
-96313.112
-93714.897
-91165.804
-88512.234
-85889.174
-83259.34
-80589.43
-77950.29
-75287.806
-72640.617
-69982.092
-67362.911
-64951.125
-62421.7
-58968.421
-57177.402
-54688.412
-52240.668
-49818.541
-47557.694
-45238.233
-43077.253
-40895.429
-38897.408
-36831.454
-34882.717
-32878.11
-31036.6
-28997.849
-27216.917
-25221.756
-23386.721
-21341.07
-19540.562
-17434.186
-15578.3
-13645.282
-11712.34
-10713.949
-9145.3791
-8577.0006
13435.239
13208.488
9974.6918
10442.698
6674.6244
6837.4021
3535.1226
2001.4311
-301.80514
-2442.3275
-2442.434
-6048.8424
-5587.4283
-10969.876
-9378.9901
20742.679
15489.338
14769.294
16396.624
17144.521
18967.047
20461.11
22202.795
23712.221
25571.956
27209.856
28825.682
30754.702
32637.733
34666.36
36640.964
38860.661
41030.459
43370.31
45823.37
48301.207
50960.276
53639.126
56367.336
59185.831
61954.215
63858.864
68714.016
70543.628
73708.386
76498.42
79440.169
82245.751
85078.279
87839.15
90574.937
93290.161
95926.478
98580.776
101168.03
103739.83
106267.65
108807.82
111254.6
113734.96
116130.45
118519.04
120838.95
123121.02
125321.37
127478.43
129512.88
131458.54
133479.59
135043.76
136943.45
138104.91
138294.24
142787.93
142284.67
142582.75
147291.74
145575.15
147877.58
146635.27
151495.19
147602.91
153243.56
151557.42
154031.49
154039.97
153112.36
157601.06
156061.88
156033.43
158583.13
157538.52
159154.23
158791.08
161177.15
163247.3
157430.25
159504.64
160408.04
162639.01
158851.5
160191.97
156766.52
154964.44
150884
147875.06
153696.13
146195.3
129651.02
164181.38
380778.83
412933.7
436868.51
455259.51
461936.42
477401.23
473716.29
481623.53
471753.46
458739.68
466977.09
430321.18
413903.47
433929.21
327181.14
-567704.21
-722060.56
-722047.25
-779081.55
-768633.31
-729953.72
-843467.68
-906766.88
-850451.63
-859137.85
-827460.64
-801536.89
-754569.4
-754258.76
-714236.32
2042.0104
2134.5132
2700.9502
2950.5301
3876.0328
4326.9147
4484.9385
4575.7503
4615.7166
4434.7294
4264.8897
3527.8958
3192.3212
2807.1299
2679.8044
-495.94239
2338.9499
1755.8833
1314.6186
644.35783
703.3566
300.52828
446.96426
635.95077
772.96995
1585.7181
2030.3732
2156.4685
5412.3383
141.23234
136533.77
146021.26
130432.69
131891.5
136585.96
139659.8
141109.83
143277.85
144515.36
144793.23
144759.19
146765.01
145221.57
145304.28
144152.13
145646.12
143258.96
143512.31
142039.39
142009.27
140854.67
140855.12
139236.2
138436.03
137461.23
137010.2
135576.04
134774.1
133759.5
132807.71
131354.74
130394.63
129546.06
128157.68
126867.68
125669.52
124369.21
122500.23
121300.51
120022.9
118505.71
116872.31
115253.63
113427.65
111595.48
109812.48
107741.91
105899.75
103741.78
101726.55
99515.812
97389.179
95107.309
92875.688
90562.788
88247.597
85907.318
83539.994
81178.968
78808.001
76422.225
74029.629
71693.601
69373.668
66895.88
64596.015
61805.147
59649.289
57529.619
55317.292
53119.024
51100.828
48906.398
47055.093
44907.89
43146.743
41045.898
39427.412
37278.283
35834.609
33795.644
32062.522
30353.439
28640.662
26729.223
24956.244
23277.07
21105.061
19469.077
18129.5
15240.381
14008.947
12672.712
7433.8815
2983.5998
131733.36
123069.63
108067.18
113342.2
114824.01
116434.22
117494.86
120002.23
120664
122647.65
122288.26
123321.19
122788.12
123766.92
122824.85
122621.66
121844.84
122081.03
120971.48
120588.45
119937.61
118649.15
118287.35
117572.5
117050.39
115709.84
115392.8
114426.96
113565.71
112569.57
111890.27
110846.85
109792.78
108734.77
107770.29
106622.6
105446.35
104325.43
103136.77
101850.08
100404.02
99296.751
97502.018
96159.379
94542.439
93052.347
91338.483
89781.016
87949.891
86275.93
84389.908
82603.144
80650.618
78770.312
76794.299
74828.406
72823.795
70832.941
68807.36
66808.768
64789.463
62804.53
60869.013
58935.312
57022.701
55654.946
54290.911
52522.209
51035.291
49223.729
47472.195
45937.653
43926.909
42502.744
40323.603
39183.583
36847.777
35889.837
33528.2
32642.343
30425.892
29089.59
27529.93
25210.876
23249.078
21697.215
19554.051
18224.052
16444.879
14249.366
12429.892
10777.596
7384.5713
4364.5692
-1774.3782
102855.99
106849.76
90144.39
96534.692
95379.285
97636.741
99247.451
101501.71
101768.4
102626.99
102753.06
103806.32
103232.16
103268.47
102687.12
103104.57
102067.52
101999.9
101051.41
101040.29
100133.4
99881.785
99364.94
98749.467
97791.08
97465.028
96696.233
95774.865
95208.634
94379.788
93546.385
92678.692
91903.983
91064.859
90154.126
89207.175
88416.554
87500.093
86549.038
85458.6
84190.673
83108.46
82049.898
80899.662
79675.422
78395.553
77014.299
75667.548
74201.133
72758.456
71216.597
69704.133
68075.055
66507.521
64842.956
63192.853
61520.051
59847.614
58141.247
56471.288
54780.496
53097.991
51460.949
49717.317
48205.428
46812.449
45615.013
43935.968
42734.832
41464.171
40099.367
38633.851
37105.167
35720.244
34375.896
32972.041
31718.781
30257.104
29094.704
27627.961
26312.14
25136.042
23410.643
22001.345
20348.411
18941.482
17129.759
16001.199
14161.868
12638.57
11147.198
8304.5597
6624.8967
1947.9482
-251.01291
85248.897
87792.594
70737.77
77813.706
74366.94
77404.605
77848.593
79914.207
79483.667
81614.283
81359.607
82520.137
81387.173
82826.219
81635.662
82324.957
81047.125
81846.733
80631.924
80808.702
79787.569
79696.453
78940.058
78334.657
78073.514
77384.747
76877.221
76400.036
75847.338
75071.622
74688.92
73828.308
73273.474
72401.041
71988.261
70780.965
70378.145
68906.704
68010.918
67052.556
66487.483
65527.488
64542.541
63478.64
62481.295
61482.533
60383.894
59355.162
58205.33
57085.449
55864.687
54695.599
53397.434
52181.047
50839.076
49566.308
48219.527
46916.409
45559.366
44270.578
42944.514
41654.052
40386.051
39162.646
37990.716
36750.576
35882.425
34644.525
33279.411
32326.137
31313.624
30195.214
29321.006
28245.22
27206.067
26147.756
25087.211
24137.996
22998.906
22040.716
20946.192
19995.787
18699.167
17644.094
16429.815
15724.227
14336.308
13087.415
11692.245
10396.814
8407.0119
6883.3927
4379.0152
1897.1909
-1800.0333
69703.928
66300.451
54748.036
59090.607
58109.817
59242.371
60341.043
61316.205
61197.663
62185.983
62227.84
62194.905
62395.276
62444.636
61872.15
62214.332
61155.946
61679.803
60513.125
60840.889
60094.182
60232.957
59325.424
59571.03
58805.513
58537.568
58092.185
57575.509
57071.523
56690.904
56141.793
55579.594
55112.353
54648.471
54000.715
53418.724
53746.411
53735.874
53300.292
54060.289
52829.55
52307.627
51734.842
51049.121
50358.486
49604.003
48733.38
47926.733
47045.212
46116.621
45179.822
44238.91
43211.552
42229.355
41176.227
40143.594
39085.574
38027.671
36972.591
35919.768
34895.28
33814.568
32890.047
31861.362
30785.873
30074.293
29006.865
28154.233
27194.801
26360.674
25560.432
24573.534
23015.306
22197.871
21137.2
20366.988
19663.95
18860.691
18126.632
17449.189
16498.952
15942.351
14862.987
14365.466
13137.134
12681.095
11250.025
10589.278
9207.2089
7989.3104
6733.3049
5350.1195
3840.8823
1379.0236
-1087.6645
44715.695
48000.228
35896.352
41568.443
38920.883
39987.696
40023.265
41618.372
40381.856
42340.766
41096.009
42441.829
41147.838
42326.989
41016.546
41878.026
40762.051
41813.011
40165.146
41207.993
39925.143
40222.346
39535.957
39650.56
38933.204
39021.36
38523.982
38324.068
38085.086
37615.209
37370.763
36884.423
36720.846
36061.127
35850.778
35480.215
35577.654
35545.357
35868.88
35777.226
36102.984
35553.721
35048.254
34610.853
34103.224
33587.81
33018.247
32491.374
31882.369
31290.304
30659.519
30028.679
29334.012
28672.406
27968.102
27249.604
26543.697
25828.971
25106.319
24408.777
23709.673
23051.617
22378.757
21728.676
21223.284
20500.022
20091.248
19537.174
19042.428
18575.803
18056.439
17358.188
16827.527
15940.842
15101.152
14714.299
14222.366
13782.773
13252.398
12953.131
12081.7
12066.399
10889.376
10895.42
9661.979
9636.2519
8290.3539
8195.3901
6928.6742
6645.1097
5629.2928
4537.1454
3260.281
1443.8378
390.53985
27405.772
25806.163
20735.319
23812.076
21592.742
21539.758
22309.64
22508.932
21884.647
21940.086
22406.266
21546.714
21966.647
21909.566
21224.496
21804.107
20906.719
21274.025
20410.471
21320.879
20045.977
21048.432
20037.208
20594.773
19908.032
20246.484
19610.377
19830.74
19314.153
19309.054
19049.03
18928.7
18610.994
18456.641
18300.753
17995.625
17824.412
17839.579
17287.87
16754.458
16687.973
16557.521
16232.324
16156.701
15935.129
15794.378
15482.425
15335.138
15013.612
14791.97
14478.601
14207.95
13853.805
13585.104
13210.086
12900.142
12551.953
12242.497
11885.546
11610.431
11297.123
11011.511
10768.748
10556.706
10282.329
10166.687
9961.605
9803.3304
9672.0145
9568.7001
9436.6063
9319.6485
9090.5351
9265.8909
9230.9577
9162.2865
8954.4932
8787.1929
8616.4869
8364.3124
8101.043
7942.1485
7344.064
7454.9891
6560.5046
6763.2617
5787.3857
5931.1454
4956.2852
4690.9423
3643.1277
3030.9672
2610.1274
1890.3147
1343.4447
2233.7823
6949.2399
1432.9536
5171.9141
2961.3399
3947.4146
2953.7645
3913.1163
1550.8208
3426.1029
1652.6152
2414.4979
1439.1548
1878.0912
953.91114
1807.5678
430.09959
1753.1187
418.44996
1334.9469
324.98971
1240.7013
75.280051
986.8409
179.45579
708.763
337.5832
568.11539
329.66366
399.56131
347.31255
118.487
245.64191
82.978178
138.11118
-104.19226
262.57615
-91.427454
175.29887
-123.25551
39.414563
116.6888
71.920283
66.367905
182.71149
170.58357
199.69657
295.97813
311.32337
351.74724
375.45047
409.81585
398.77231
426.82086
410.04308
418.1218
417.1947
436.49806
432.51003
500.27362
512.22387
608.93884
700.50893
798.24634
974.15965
1122.7399
1325.3161
1534.1776
1766.2874
1992.3445
2191.278
2391.8522
2528.3238
2779.2643
2950.2089
3176.4343
3236.277
3423.0687
3442.0603
3560.1093
3596.266
3490.7626
3609.0115
3418.5468
3300.1065
3363.724
2805.099
3257.2094
2354.691
3037.8273
2599.2425
3144.3452
2996.0684
2457.0669
2762.5749
-14624.509
-14379.935
-13666.69
-12782.976
-13369.653
-14682.897
-14942.455
-15858.008
-16277.739
-17414.509
-16952.963
-18187.566
-18129.2
-18163.567
-18565.792
-18618.59
-18948.041
-18364.894
-19651.341
-18200.617
-19408.186
-18378.405
-19249.157
-18143.901
-19092.067
-17963.296
-18786.344
-17966.171
-18419.642
-17855.458
-18168.166
-17767.789
-17781.056
-17629.785
-17552.033
-17289.009
-17283.6
-17006.164
-16805.955
-16531.557
-16331.016
-16008.593
-15824.667
-15423.821
-15140.067
-14809.849
-14540.053
-14141.392
-13881.346
-13544.545
-13237.494
-12897.476
-12636.331
-12288.059
-12005.044
-11686.065
-11378.467
-11030.549
-10720.835
-10334.539
-9969.1446
-9567.2028
-9155.6365
-8686.3513
-8259.8586
-7739.8786
-7238.83
-6706.9524
-6154.0143
-5600.6603
-5042.004
-4450.0782
-3934.0357
-3381.0488
-2886.2462
-2502.6381
-1993.37
-1601.5549
-1200.4015
-893.8568
-559.06034
-375.991
-66.45114
72.323041
156.12728
646.33795
269.09817
1280.2607
549.13016
1696.0407
1029.8769
1441.1069
1285.2864
2357.8984
3759.7578
-37443.381
-35452.007
-31591.701
-30466.525
-32721.194
-33076.653
-34772.812
-34375.521
-37255.395
-36521.927
-37806.226
-38409.793
-38674.678
-38634.025
-39738.144
-38882.908
-39668.333
-39146.839
-39662.822
-38714.586
-39739.096
-37924.972
-38640.823
-37554.351
-38153.76
-37288.949
-37670.5
-36895.87
-36985.756
-36607.801
-36476.517
-36147.178
-35986.211
-35739.918
-35257.988
-35228.184
-34594.707
-34477.371
-33891.065
-33641.988
-33125.384
-32712.196
-32122.104
-31688.845
-31083.2
-30528.495
-29938.471
-29293.577
-28706.426
-28072.624
-27422.795
-26792.841
-26173.233
-25501.346
-24867.395
-24217.511
-23543.615
-22861.262
-22195.335
-21437.936
-20736.801
-19971.989
-19177.55
-18385.202
-17568.492
-16694.931
-15831.031
-14970.627
-14071.376
-13211.371
-12312.636
-11453.514
-10626.421
-9453.9455
-8064.1742
-7330.4049
-6553.5697
-6023.8085
-5207.0009
-5009.5834
-3958.9465
-4141.7081
-3028.9956
-3223.8778
-2443.7468
-2154.6634
-2040.8073
-908.95726
-1485.1053
264.26047
-198.72244
800.57884
1721.122
3048.1686
4726.0562
-59546.202
-49213.421
-44398.079
-45268.598
-47606.093
-48025.397
-49831.096
-51081.034
-52513.958
-53386.65
-54067.758
-54923.546
-55042.802
-55472.792
-55829.597
-55137.805
-56347.272
-55010.252
-56092.449
-55305.919
-56383.85
-56519.535
-57430.926
-56747.474
-57760.633
-56260.598
-57051.267
-55574.074
-56115.231
-54977.368
-55086.94
-54346.859
-54230.325
-53496.723
-53228.588
-52580.011
-52153.192
-51537.661
-50959.228
-50300.729
-49666.194
-48868.785
-48172.413
-47368.362
-46553.537
-45680.014
-44875.283
-43943.27
-43092.035
-42155.694
-41258.817
-40317.997
-39412.108
-38441.036
-37514.004
-36546.995
-35574.411
-34579.738
-33579.276
-32529.759
-31489.208
-30383.05
-29284.746
-28140.706
-27025.195
-25823.159
-24658.178
-23433.794
-22215.06
-20977.214
-19757.33
-18619.139
-17340.37
-16128.118
-14952.232
-13542.143
-12234.389
-11214.87
-10262.496
-9369.0515
-8673.3269
-7787.6706
-7200.7198
-6467.3753
-5778.1992
-5304.1145
-4415.5727
-4050.0278
-3101.5267
-2296.9438
-1635.0208
-54.11458
1056.0232
2909.1748
6440.7813
-74895.574
-70423.979
-64764.994
-62863.563
-65435.461
-65505.21
-68840.24
-69432.67
-71542.663
-72308.055
-73917.881
-73821.248
-75306.116
-74617.12
-75583.689
-75188.013
-75518.542
-74816.707
-75718.676
-74262.019
-75513.336
-74208.299
-76295.491
-75928.823
-76313.112
-75460.246
-75552.532
-74653.281
-74460.21
-73568.626
-73409.523
-72573.404
-72181.238
-71610.251
-70876.566
-70407.191
-69526.343
-68914.47
-68009.142
-67286.548
-66274.214
-65450.177
-64415.251
-63440.397
-62348.086
-61244.264
-60137.905
-58934.142
-57742.03
-56536.832
-55288.875
-54029.963
-52773.597
-51476.048
-50180.7
-48874.758
-47535.35
-46177.065
-44825.443
-43411.355
-41989.698
-40546.421
-39056.857
-37550.079
-36050.132
-34487.505
-32939.035
-31391.822
-29833.892
-28266.943
-26793.544
-25216.201
-23754.945
-22378.062
-20939.754
-19917.249
-18567.991
-17210.706
-16032.694
-14936.304
-13791.463
-12811.862
-11768.856
-10856.847
-9819.337
-9118.1025
-7815.553
-7339.2444
-6036.2093
-4952.2031
-4290.735
-1622.9716
-26.93867
4070.8305
8099.0864
-104340.47
-94457.538
-82614.997
-86786.178
-87178.675
-90601.205
-91905.633
-94482.938
-95497.21
-97288.573
-97697.052
-99348.611
-98864.732
-99849.934
-99359.814
-99441.202
-99251.876
-98617.828
-98861.517
-97789.361
-98319.287
-97099.372
-97312.52
-95426.739
-95880.381
-94162.709
-94941.349
-93042.141
-93367.284
-91910.822
-91833.189
-90468.087
-90310.461
-89177.052
-88603.92
-87655.235
-86760.634
-85820.315
-84864
-83752.768
-82705.722
-81524.917
-80293.659
-79011.538
-77700.317
-76303.941
-74947.388
-73443.162
-72014.214
-70501.676
-68980.59
-67423.781
-65886.737
-64282.148
-62698.931
-61081.266
-59438.792
-57785.124
-56115.845
-54388.872
-52676.463
-50905.121
-49118.6
-47281.646
-45476.208
-43594.754
-41757.612
-39885.401
-38017.766
-36126.003
-34249.048
-32435.304
-30625.168
-28854.185
-27088.33
-25475.379
-23820.068
-22327.022
-20801.908
-19397.281
-18036.182
-16728.492
-15464.27
-14245.032
-13090.959
-11858.801
-10703.677
-9658.1479
-8001.6375
-7252.2837
-5105.012
-3438.254
-1436.7238
2045.6849
6474.6262
-115715.26
-111338.83
-95636.496
-102686.08
-104594.18
-108206.8
-110031.35
-112851.96
-114508.63
-115641.05
-117743.5
-117609.31
-118834.47
-118815.65
-118659.93
-118529.82
-118504.81
-117260.96
-117933.12
-116528.42
-116431.81
-115613.09
-115578.09
-115063.91
-114681.58
-113811.72
-113222.83
-112213.65
-111945.71
-110743.93
-110194.22
-109167.29
-108280.98
-107350.23
-106409.23
-105591.91
-104434.68
-103501.79
-102168.23
-101045.36
-99684.328
-98331.007
-96879.392
-95384.875
-93819.148
-92187.278
-90501.317
-88769.946
-86997.456
-85189.235
-83336.045
-81470.689
-79577.106
-77654.042
-75709.181
-73748.446
-71758.059
-69741.464
-67700.506
-65630.82
-63530.285
-61403.632
-59242.262
-57030.062
-54813.037
-52490.48
-50223.552
-48018.505
-45825.539
-43504.885
-41388.047
-39177.81
-36995.074
-34971.716
-32867.472
-30906.445
-28993.034
-27167.572
-25395.106
-23776.128
-22143.894
-20642.671
-19145.417
-17778.69
-16292.914
-15035.056
-13603.933
-12265.253
-10753.645
-9715.0575
-7223.3818
-6583.709
-3540.3087
34.406749
6136.0864
-159699.31
-111626.54
-120971.94
-119459.65
-127305.67
-125920.42
-130796.09
-132057.09
-133987.19
-135300.54
-136240.62
-137753.39
-137349.95
-137460.67
-137268.94
-137033.27
-137385.94
-135573.87
-136703.3
-134009.12
-134500.35
-132672.65
-133583.62
-131815.23
-133109.97
-130255.16
-131046.31
-128603.61
-129426.64
-127238.67
-127165.95
-125625.8
-124825.94
-123461.3
-122209.78
-121603.37
-120305.89
-119068.11
-117660.01
-116307.05
-114734.67
-113179.23
-111502.06
-109726.45
-107948.83
-106008.08
-104113.17
-102095.31
-100062.94
-97974.123
-95861.318
-93704.157
-91537.731
-89314.853
-87095.606
-84841.178
-82553.017
-80242.548
-77914.816
-75531.496
-73140.496
-70712.584
-68250.468
-65755.352
-63252.659
-60593.366
-57965.939
-55311.698
-52905.27
-50425.716
-47988.756
-45399.104
-43017.616
-40624.952
-38287.746
-36046.106
-33958.462
-31836.563
-29902.051
-27976.296
-26146.759
-24374.298
-22723.478
-20997.574
-19442.768
-17893.231
-16216.678
-14804.774
-13219.635
-11781.191
-9965.52
-9480.2779
-6688.5984
-4507.7039
1500.6311
294351.97
293644.97
283361.35
290357.14
290248.79
292507.15
300815.95
295316.91
289429.24
291134.49
286642.16
275173.71
273560.76
289270.98
235319.75
277832.07
284403.31
268082.35
274524.93
274182.36
279485.11
271151.02
280751.23
276618.43
277983.92
271702.43
269504.92
268897.02
274175.4
230956.39
218452.42
242661.01
211930.7
220391.26
220280.83
216215.35
217855.34
215314.33
216905.93
212488
211754.84
212009.84
197406.03
218564.77
197955.39
188033.98
189601.3
186706.6
181858.47
186823.02
183534.83
186797.09
184777.37
182865.57
182894.54
182314.4
174384.48
177079.28
188281.83
130411.36
138749.95
152764.69
133009.45
141943.45
134214.57
140563.1
136214.36
136674.25
134929.12
134890.44
131523.37
131489.24
130513.4
133567.27
118315.29
107854.12
109629.31
100118.62
102063.73
101275.31
100373.03
98007.757
97542.97
97775.563
96034.451
91965.536
95960.225
87901.879
93850.486
87899.175
60700.061
59419.29
59474.416
54086.772
55881.292
55440.695
53085.321
51665.421
50877.528
49941.187
47894.433
45035.444
48876.288
42917.865
45945.137
16173.12
15776.785
9268.6877
12268.417
8148.311
8888.2251
6229.5309
6109.0677
4234.3402
5926.3131
-2210.7735
4066.9744
6558.3706
-8333.9378
17289.997
-21036.025
-27770.403
-22587.573
-29722.34
-28063.174
-30443.504
-31433.357
-33422.303
-34188.587
-34895.982
-40730.133
-35079.516
-38105.18
-50607.8
-8274.8823
-61736.665
-75939.086
-71208.803
-73697.489
-76078.152
-76862.56
-80438.991
-80058.199
-84129.785
-79723.719
-92212.537
-80300.63
-80527.264
-103057.33
-50237.611
-104071.19
-130611.99
-109791.34
-125748.39
-118786.31
-125853.25
-124106.14
-126880.13
-127003.21
-125117.71
-129454.34
-126621.25
-123648.05
-139819.39
-82795.057
-156218.77
-146598.93
-154021.82
-145814.19
-157270.27
-155924.93
-160164.91
-161197.43
-163660.81
-163351.34
-172984.01
-154388.13
-162875.59
-187176.85
-122288.75
-183036.32
-208377.26
-181027.47
-195436.01
-184855
-194534.31
-191967.29
-192744.22
-193248.77
-193011.12
-196908.96
-197451.43
-183968.21
-222098.42
-116437.14
-226838.27
-262395.65
-238095.12
-250393.06
-262839.38
-260749.28
-263416.58
-277716.49
-272384.35
-279376.71
-263329.1
-260290.5
-266000.18
-267597.92
-231659.62
-249130.97
-216488.61
-193511.4
-195384.74
-203848.13
-220510.52
-211560.51
-205223.88
-196354.4
-196174.05
-200615.37
-203437.1
-207538.83
-231088.67
-212441.56
-214566.58
-205540.47
-240707.62
-256931.44
-264204.14
-290668.59
-280871.46
-262334.21
-299821.23
-294039.4
-285016.92
-271202.16
-262820.4
-248631.89
-218836.64
-155575.69
-157511.46
-174138.59
-177794.49
-185461.1
-191330.23
-196953.32
-205076.47
-211210.71
-201809.66
-198051.37
-186819.21
-190230.35
-189229.16
-195924.49
-139089.23
-158951.47
-158384.89
-171010.93
-183236.43
-177758.73
-186437.23
-185901.61
-179689.85
-187907.62
-181512.95
-183708.57
-178511.61
-160645.14
-165202.48
-138222.13
-154351.48
-157157.04
-159590.62
-164953.82
-167617.62
-169081.13
-170216.12
-170141.69
-166904.03
-167932.46
-165320.02
-158524.78
-157441.41
-149709.49
-149361.45
-164500.88
-162902.08
-172310.81
-175222.77
-178821.33
-181719.46
-181946.81
-183259.68
-183232.16
-178849.88
-175781.31
-168634.99
-164080.44
-160993.88
-147802.1
-152954.38
-155591.61
-161805.47
-165180.15
-169138.98
-169090.94
-170470.31
-171369.62
-168781.17
-168353.2
-165461.64
-160763.71
-157894.08
-151081.48
-147377.09
-158065.27
-158803.63
-163963.55
-166370.73
-170033
-171264.41
-172010.8
-172495.64
-170936.9
-168306.42
-167005.89
-163115.64
-158380.57
-159347.19
-150890.98
-152768.02
-157740.19
-158269.31
-163696.07
-163988.85
-166004.35
-166767.3
-166683.43
-165493.4
-164270.66
-162034.78
-159606.26
-156075.25
-153070.54
-148508.66
-156261.83
-156757.58
-161390.1
-162155.96
-166371.38
-165203.68
-167034.44
-167434
-165039.61
-164702.31
-162598.81
-160486.16
-158296.71
-155000.78
-151701.39
-152172.42
-155209.58
-155316.83
-158266.31
-158499.87
-160433.78
-160407.47
-159966.93
-161091.58
-159263.06
-159032
-157452.99
-155425.7
-154751.18
-149249.61
-153949.63
-154169.54
-157750.58
-158605.54
-161153.5
-160737.35
-162686.24
-162851.27
-161674.66
-162256.65
-161541.41
-159606.87
-159130.76
-158059.06
-151923.21
-151312.64
-153856.04
-154276.5
-156001.72
-155880.18
-157822.92
-158412.97
-159132.8
-159173.69
-159278.85
-158508.19
-158293.37
-156848.35
-156644.64
-151348.59
-152128.99
-152311.74
-154342.56
-154714.29
-156812.42
-156897.89
-158048.59
-158219.72
-158577.61
-157870.97
-158611.47
-156767.32
-157268.15
-156687.6
-150889.06
-150420.03
-152598.39
-152500.23
-154014.96
-154054.34
-154907.96
-155622.15
-156344.49
-156033.17
-156678.42
-156568.6
-156354.09
-156091.47
-156349.33
-150492.55
-150554.31
-151788.32
-152195.15
-153711.5
-153483.92
-154268.79
-155466.57
-155956.54
-156514.51
-156340.79
-156877.96
-155249.8
-156567.22
-156318.27
-149795.31
-149567.34
-151437.58
-150787.93
-151907.61
-151465.23
-154040.47
-152475.56
-153175.69
-153123.27
-153282.61
-153605.43
-151969.69
-152757.15
-151984.74
-150005.87
-149041.66
-150600.55
-149865.32
-151705.83
-151879.56
-152150.94
-153214.17
-153113.98
-154097.56
-153771.14
-154821.16
-154261.41
-154329.7
-155537.54
-149166.45
-148914.89
-149630.14
-149443.46
-150392.77
-150472.86
-151647.46
-151151.79
-151757.59
-151629.84
-151684.62
-151696.39
-152643.87
-150792.06
-151649.59
-148309.63
-148129.08
-149258.19
-149351.23
-150104.84
-149595.71
-150004.02
-150909.91
-150620.62
-151658.43
-150597.21
-152516.32
-151242.49
-153423.72
-152541.65
-147649.04
-147586.46
-148060.46
-148132.15
-148906.88
-148936.35
-150083.16
-149535.78
-150448.72
-149874.59
-150188.64
-150424.74
-149967.59
-150334.03
-149986.86
-147673.48
-146890.56
-148090.51
-147189.96
-148334.08
-147802.08
-148781.97
-149417.34
-148724.45
-149700.33
-149361.99
-150615.37
-149957.95
-151232.76
-150833.97
-145097.78
-146521.71
-146188.08
-146840.41
-147209.94
-147217.12
-147981.87
-147660.32
-148464.94
-148406.98
-148650.06
-148951.22
-148097.11
-147945.31
-148881.29
-146372.49
-145237.22
-146198.28
-146076.35
-146608.29
-146633.21
-147296.68
-147134.09
-147209.44
-147749.93
-147401.77
-148146.71
-147284.15
-148757.43
-147996.77
-143967.02
-144599.88
-144662.9
-145332.36
-145507.96
-145501.98
-146444.26
-146012.72
-146746.31
-146682.72
-146320.09
-147549.67
-146827.73
-147117.65
-147048.32
-144380.45
-143996.03
-144546.17
-144205.8
-144907.12
-144738.26
-145518.45
-145435.18
-145517.2
-145964.39
-145062.41
-146105.11
-145596.41
-145884.71
-146067.47
-143164.41
-142378.92
-143571.49
-143056.8
-143889.67
-143728.82
-144380.37
-144130.67
-144666.01
-144805.36
-145198.19
-145525.11
-144327.56
-145829.27
-144758.26
-142528.81
-141443.06
-142519.9
-142309.5
-142977.92
-143193.83
-143655.17
-143726.5
-143767.11
-143970.76
-143565.24
-144463.19
-143145.86
-143773.69
-144272.9
-141572.24
-140520.08
-141211.86
-141559.9
-142164.56
-142055.14
-142517.3
-142429.59
-143004.55
-142862.53
-143043.46
-143088.96
-142602.23
-143790.61
-142663.36
-140405.86
-139998.44
-141029.42
-140496.58
-141278.64
-141286.93
-141718.17
-141757.13
-141819.43
-142082.25
-141542.99
-142254.96
-141441.92
-141740.6
-142096.8
-139958.54
-138504
-139705.46
-139527.2
-140345.58
-139963.09
-140604.4
-140602.23
-140962.63
-140875.34
-140565.77
-141326.18
-140354.4
-141215.53
-141040.73
-138747.72
-137987.3
-138723.15
-138813.62
-139242.93
-139669.35
-139807.94
-139742.76
-139683.08
-140195.71
-139762.5
-140351.36
-139411.05
-139714.63
-139750.41
-137822.37
-136616.12
-137803.31
-137552.29
-138190.3
-138433.6
-138554.21
-138593.66
-138611.79
-138866.77
-138486.9
-139199.8
-138279.82
-138953.59
-138703.69
-136859.53
-135824.1
-136688.88
-136670.84
-137345.59
-137346.46
-137677.16
-137625.91
-137839.36
-137947.93
-137620.12
-138045.22
-137305.87
-137548.2
-137346.79
-135586.99
-134618.19
-135592.15
-135531.05
-136060.89
-136173.72
-136494.68
-136475.98
-136562.26
-136716.08
-136253.03
-136932.03
-136084.28
-136436.73
-136356.03
-134224.83
-133673.11
-134465.25
-134365.62
-134972.54
-135199.89
-135345.94
-135495.83
-135449.63
-135654.94
-135240.91
-135724.1
-134790.3
-135260.55
-134649.23
-132703.84
-132685.93
-133011.13
-133756.6
-133555.99
-133931.86
-134091.38
-134041.82
-134159.89
-134273.03
-133807.02
-134306.31
-133640.16
-133645.98
-134109.22
-132306.82
-131025.42
-131975.06
-131922.67
-132710.88
-132465.36
-133005.4
-132760.47
-132977.71
-132813.57
-132559.08
-133170.22
-132216.79
-132523
-132268.61
-130432.57
-129956.13
-130549.24
-130871.72
-130967
-131371.62
-131349.17
-131574.6
-131480.75
-131533.52
-131179.83
-131597.28
-130879.09
-130873.28
-130907.42
-129405.62
-128217.86
-129248.53
-129172.47
-129732.22
-129701.62
-130067.22
-129971.28
-129959.73
-130109.44
-129640.52
-130192.66
-129250.21
-129450.86
-129278.16
-127661.13
-126885.56
-127715.8
-127807.85
-128152.41
-128356.89
-128550.91
-128449.11
-128566.45
-128539.43
-128148.9
-128499.42
-127777.56
-127800.63
-127770.38
-126140.66
-125158.2
-126096.06
-126030.65
-126529.82
-126561.03
-126783.99
-126772.16
-126775.56
-126867.4
-126383.91
-126854.56
-126013.28
-126110.5
-126000.18
-124382.89
-123552.88
-124386.92
-124449.12
-124868.25
-124918.2
-125221.94
-125061.2
-125163.37
-125112.09
-124729.53
-125071.9
-124324.72
-124313.89
-124275.68
-122650.13
-121693.54
-122585.9
-122551.45
-122950.08
-123071.98
-123250.59
-123185.74
-123208.16
-123248.53
-122806