/*--------------------------------*- C++ -*----------------------------------*\
  =========                 |
  \\      /  F ield         | OpenFOAM: The Open Source CFD Toolbox
   \\    /   O peration     | Website:  https://openfoam.org
    \\  /    A nd           | Version:  6
     \\/     M anipulation  |
\*---------------------------------------------------------------------------*/
FoamFile
{
    version     2.0;
    format      ascii;
    class       pointScalarField;
    location    "0.23";
    object      p;
}
// * * * * * * * * * * * * * * * * * * * * * * * * * * * * * * * * * * * * * //

dimensions      [1 -1 -2 0 0 0 0];

internalField   nonuniform List<scalar> 
28033
(
198310.39
-284016.51
5953.0945
1836.5281
393906.07
-385682.51
2743.3578
59.888038
183196.89
165035.92
143181.13
115962.26
85281.739
57620.24
27649.707
-3325.2779
-35034.256
-61447.969
-97117.517
-112386.94
-147962.29
-174657.59
-178381.81
-14971.077
-8823.0734
-9505.4601
-6042.5866
-5394.934
-3299.6936
-1251.1836
996.08086
3007.8029
5238.523
7799.1235
9029.5955
10918.384
11950.271
10691.342
51853.456
58430.566
54508.478
60367.043
61296.742
64087.113
65436.414
66835.84
68188.505
69080.043
69604.763
70477.671
70858.675
71392.677
71586.682
71817.665
72025.885
72364.463
72168.008
72548.12
72712.742
72782.453
73221.552
73557.344
73901.565
74599.525
75426.452
76169.054
77286.066
78399.645
79792.273
81254.982
82993.326
84627.391
86289.548
88000.728
89948.234
91807.977
93172.164
95017.796
96250.097
97397.445
98480.014
99538.126
100185.49
100836.07
101107.68
101291.15
101087.45
100775.66
100088.69
99250.21
98112.914
96800.182
95270.484
93587.515
91785.324
89863.86
87868.302
85874.663
83828.611
81770.872
79699.468
77819.575
75813.085
73908.048
72319.193
70225.943
68039.238
66156.243
64203.069
62388.881
60354.175
58532.793
56327.44
54645.193
52130.192
50519.88
47766.351
45991.739
43200.127
41194.318
38274.166
35680.551
32945.4
30118.999
27640.976
25109.904
21597.758
19630.473
17662.68
13208.674
14624.74
13228.625
11189.678
-51601.706
-47277.821
-55906.019
-53178.953
-60547.485
-62026.3
-63345.155
-65094.345
-66417.797
-67068.008
-68039.683
-68629.954
-69037.063
-69720.928
-69756.033
-70283.505
-70245.659
-70554.027
-70667.198
-70867.968
-70946.621
-71345.83
-71435.293
-72017.585
-72508.986
-72960.508
-73982.566
-74562.061
-75890.09
-76740.949
-78241.418
-79481.996
-81057.269
-82616.652
-84290.62
-86064.47
-87381.576
-89225.47
-90521.231
-92063.579
-93264.263
-94480.844
-95438.93
-96321.918
-96958.972
-97467.966
-97730.523
-97809.904
-97651.349
-97265.441
-96645.134
-95786.393
-94708.945
-93415.911
-91934.409
-90297.318
-88523.861
-86652.891
-84721.633
-82750.354
-80761.172
-78778.321
-76816.474
-74834.954
-72889.579
-70906.203
-69065.462
-67112.086
-65462.065
-63032.584
-61284.569
-59147.165
-57301.841
-55196.833
-53291.262
-51231.556
-49198.608
-47170.867
-45032.247
-42841.889
-40605.021
-38238.404
-35734.169
-33303.127
-30608.288
-27966.458
-25275.271
-22647.175
-19765.547
-17377.601
-14942.109
-12293.26
-10367.986
-9610.733
-7068.7005
334436.78
320273.09
239198.74
234844.74
167088.41
98704.077
59734.218
-4038.6078
-58061.111
-116190.46
-164358
-218878.37
-275690.42
-306111.18
-326349.54
-82655.65
-68051.125
-34949.34
-70892.128
-57585.956
-66284.823
-64336.989
-69248.237
-66537.055
-70433.501
-71080.073
-70074.102
-72574.384
-70851.55
-73195.268
-72494.824
-71842.696
-73411.712
-72188.221
-73862.646
-73287.712
-72910.472
-73901.4
-74286.795
-74975.818
-75712.005
-75361.923
-77412.001
-77286.822
-79279.656
-80807.729
-82211.379
-83874.27
-85456.534
-87787.264
-87332.566
-90784.71
-92312.426
-93890.081
-95449.942
-96860.59
-98174.862
-99324.031
-100309.66
-101128.52
-101734.68
-102116.18
-102260.26
-102154.53
-101802.68
-101198.36
-100343.19
-99250.948
-97943.457
-96432.505
-94761.784
-92953.249
-91041.381
-89055.71
-87027.044
-84959.195
-82897.082
-80802.664
-78726.905
-76617.325
-74522.893
-72559.747
-70563.706
-67227.829
-65968.277
-64082.329
-61796.07
-59741.342
-57631.17
-55551.968
-53449.039
-51342.198
-49248.487
-47048.52
-44783.949
-42407.096
-39965.776
-37355.769
-34743.756
-31980.956
-29203.399
-26343.99
-23577.277
-20730.448
-18044.483
-15546.591
-13011.323
-11744.42
-9802.0821
-9372.5341
13459.726
13972.905
10469.799
11154.145
6769.5533
6796.0952
2812.2222
1034.343
-1635.125
-4140.6375
-4206.6483
-8050.7115
-7453.9168
-12787.618
-10585.893
20247.269
14990.385
14432.851
16421.252
17825.807
20446.595
22888.65
25647.863
28252.909
31172.468
33882.635
36451.177
39237.213
41790.803
44350.811
46689.436
49077.6
51235.381
53394.895
55484.387
57498.316
59544.37
61535.067
63444.356
65438.809
67117.339
68283.406
72583.821
73107.592
75525.818
77505.718
79610.269
81572.658
83656.131
85684.006
87723.576
89764.932
91742.842
93682.923
95527.717
97249.731
98809.413
100200.28
101351.39
102287.32
102958.74
103380.68
103538.96
103462.95
103139.95
102570.28
101890.31
100841.45
99978.531
98565.597
97161.167
95549.056
93207.716
93174.027
90539.348
88196.763
87946.272
85215.208
83774.979
81649.78
81225.083
78655.788
78700.398
77205.379
76581.97
75651.404
74761.604
75288.545
74350.001
73527.64
74632.872
72885.11
74446.464
72508.164
73440.106
73755.558
72920.179
71442.903
72945.765
70872.407
69648.014
70628.561
68487.493
67009.314
64265.568
62634.636
62712.656
61068.205
53773.737
65300.462
129372.94
144987.5
152753.72
160018.87
165199.95
169427.08
171338.21
172440
171386.48
166718.19
169286.49
158353.67
149893.16
161468.88
125465.06
-231168.89
-280586.89
-275898.91
-299837.09
-288488.32
-279305.83
-321831.97
-338719.77
-318507.94
-317511.04
-303430.96
-292794.49
-273894.33
-271583.12
-261919.73
1155.6482
902.75672
1103.681
1036.842
1658.9516
1950.1665
1863.0575
1844.6025
1902.0143
1724.1983
1691.8037
1272.1695
1286.2222
1260.2044
1719.6847
-1108.2295
2287.1986
2116.5476
2117.5567
1737.9626
2012.5039
1715.9684
1904.0081
2007.4221
1972.7311
2538.4224
2659.8979
2378.5084
5355.9076
-493.22737
56263.78
53572.763
49460.695
52273.803
54178.239
55703.855
57577.703
59229.501
60289.744
61321.035
62250.158
62990.334
63509.495
63895.148
64260.936
64631.262
64882.76
65030.702
65290.957
65424.438
65792.956
66021.961
66357.906
66734.582
67110.265
67877.295
68369.185
69285.497
70153.982
71362.048
72450.766
73581.686
75095.03
76321.544
77938.79
79536.302
80991.709
82339.161
83961.878
85312.343
86831.546
87937.602
88961.854
89795.566
90427.723
90984.804
91210.727
91353.33
91188.056
90885.31
90325.531
89599.211
88660.657
87556.741
86277.755
84862.368
83310.283
81633.251
79894.503
78070.264
76184.355
74226.56
72362.761
70452.006
68297.448
66482.681
64299.221
62547.268
60694.968
58881.961
57057.875
55300.463
53372.31
51745.063
49703.744
47996.217
45896.812
44184.044
41838.971
40197.12
37841.987
35816.684
33699.768
31685.687
29256.98
27004.186
24773.537
22100.832
20024.899
18263.492
14998.266
13495.229
11937.244
6344.6169
1793.8856
52431.896
44636.723
40831.005
44188.387
44376.486
46389.523
48203.043
49400.744
50576.714
51708.278
52460.896
53137.834
53699.002
54193.582
54522.277
54813.579
54984.32
55318.082
55384.24
55646.28
55745.912
55878.915
56178.615
56488.47
56903.962
57273.861
57873.781
58554.44
59246.208
60074.664
60993.562
62069.726
63123.863
64320.41
65671.075
66740.627
67972.244
69291.213
70458.108
71599.297
72650.351
73763.54
74293.494
75126.411
75597.764
76038.358
76194.176
76295.944
76115.47
75871.661
75383.643
74804.675
74040.22
73159.135
72141.259
71002.151
69746.729
68401.912
66960.205
65456.634
63870.719
62281.15
60742.54
59102.538
57530.541
56677.893
55669.675
54245.401
53136.483
51567.724
50130.372
48761.427
47028.604
45650.076
43555.009
42400.516
40012.305
38917.014
36364.361
35328.233
32794.287
31274.582
29288.203
26646.157
24442.525
22463.978
19949.692
18287.683
16257.374
13716.127
11704.002
9812.8582
6250.4719
2854.5823
-3388.9956
42190.313
38983.074
34577.243
36602.435
36218.371
38501.114
39732.973
40908.414
41877.761
42977.092
43585.157
44316.841
44776.41
45210.647
45515.565
45796.858
45984.748
46154.361
46307.423
46465.479
46653.762
46901.559
47100.678
47426.798
47639.467
48111.114
48509.755
49027.151
49629.481
50311.029
51093.972
51865.345
52822.482
53762.254
54784.307
55854.642
57079.818
58158.942
59256.773
60197.374
61107.311
61868.093
62833.979
63408.193
63960.7
64277.358
64501.073
64545.002
64464.266
64238.416
63871.128
63395.142
62770.972
62050.132
61197.341
60233.177
59173.087
58005.253
56745.497
55421.998
54030.784
52607.748
51186.379
49608.894
48347.352
47195.827
46230.308
45061.038
43940.982
42958.591
41726.939
40382.947
38935.286
37621.798
36277.418
34796.477
33468.243
31853.999
30541.02
28881.112
27340.328
26016.775
23926.07
22535.705
20814.431
19094.075
17029.089
15664.908
13629.268
11852.523
10240.135
7098.5338
5369.2233
279.61933
-1889.6486
34176.177
31246.558
26821.86
28812.324
28137.631
30082.51
31088.723
31837.942
32876.554
33669.265
34253.068
34787.561
35260.307
35590.605
35866.766
36110.575
36269.625
36499.301
36579.403
36746.384
36841.239
36966.236
37141.808
37324.643
37602.643
37898.123
38244.949
38698.034
39135.259
39677.315
40253.347
40902.621
41591.134
42269.555
43187.281
43785.236
44593.28
45137.495
45794.271
46531.942
47381.324
48062.942
48490.173
48881.304
49237.252
49456.923
49595.572
49627.733
49556.255
49390.919
49137.145
48795.976
48368.34
47860.876
47255.43
46577.245
45804.65
44945.987
44013.495
43023.565
41982.864
40901.488
39805.324
38742.077
37727.455
36640.413
35863.397
34686.082
33504.515
32740.806
31846.406
30739.464
29949.426
28879.716
27755.881
26654.196
25452.58
24416.209
23104.164
22028.195
20797.361
19680.35
18299.257
17028.871
15670.349
14926.312
13458.766
12088.616
10650.877
9249.564
7185.6964
5564.3498
3019.974
331.20444
-3451.6541
27947.213
23124.315
19094.917
21497.792
20754.104
22338.536
23036.771
23683.494
24378.667
25089.411
25384.073
25966.791
26215.731
26531.504
26701.698
26935.641
27010.973
27156.599
27224.697
27378.737
27466.396
27640.603
27739.799
27965.865
28121.22
28373.219
28621.423
28925.489
29277.35
29679.628
30127.527
30602.401
31111.891
31730.381
32327.028
32887.143
34087.258
35083.914
35809.067
37119.684
37504.6
38028.932
38651.542
39082.243
39460.442
39666.946
39840.148
39880.52
39877.515
39779.227
39620.855
39393.249
39096.799
38725.507
38287.025
37769.536
37170.742
36497.613
35761.25
34952.794
34135.333
33171.652
32399.08
31425.702
30483.25
29776.977
28832.576
28107.678
27211.781
26425.016
25597.332
24551.044
23018.645
21853.797
20818.778
19865.383
19097.413
18156.503
17319.535
16535.947
15482.317
14884.061
13707.226
13209.539
11950.198
11506.008
10003.776
9353.5172
7959.9555
6694.2006
5433.3468
3990.8668
2551.1024
-171.19848
-2565.4368
17415.446
15619.521
12673.377
14402.045
13217.846
14186.136
14999.019
15070.022
15801.527
16112.517
16454.616
16717.009
16990.748
17106.742
17301.201
17420.671
17474.849
17615.03
17633.418
17706.104
17728.103
17799.963
17871.042
17990.014
18097.108
18261.031
18431.147
18654.332
18854.854
19108.453
19377.935
19664.795
20015.076
20348.158
20687.153
21159.862
21810.36
22314.794
23584.378
24264.517
25101.269
25408.723
25723.235
26015.731
26251.077
26398.518
26512.636
26566.931
26578.699
26540.115
26465.515
26345.975
26181.586
25975.609
25717.165
25403.032
25036.414
24614.976
24133.15
23614.911
23041.976
22492.22
21858.856
21263.387
20752.835
20061.937
19639.856
19087.161
18561.98
18069.344
17473.459
16751.663
15981.072
14777.037
13864.384
13366.602
12766.21
12228.505
11629.362
11256.486
10360.729
10317.775
9161.5432
9213.3977
7955.7484
8093.1202
6692.3083
6783.6753
5442.7871
5338.1703
4316.3318
3332.4227
2057.3723
199.9926
-880.34785
8357.8515
6912.6108
5557.2418
6811.9233
5682.0516
6685.187
6909.6397
6927.0483
7235.9225
7529.8496
7467.6945
7786.3235
7781.8429
7924.3546
7958.734
8045.3093
8029.8572
8131.3308
8107.7663
8203.8977
8222.3694
8309.9832
8352.3363
8432.1668
8476.3375
8581.9979
8649.904
8753.1381
8857.6448
9006.7916
9143.1753
9315.5366
9476.5491
9656.0716
9897.2345
10111.361
10362.249
10705.625
10696.328
10929.348
11166.678
11399.812
11559.071
11790.513
11950.357
12075.397
12176.106
12250.646
12293.531
12318.12
12321.785
12295.119
12249.619
12170.161
12059.892
11913.706
11733.973
11518.748
11268.152
10995.079
10715.223
10398.325
10118.131
9819.2867
9514.9643
9298.1545
8976.0015
8743.5226
8521.5569
8274.422
8052.0917
7788.6938
7428.8652
7419.723
7268.0826
7026.3081
6692.8171
6410.383
6191.9597
5872.1929
5605.7898
5499.7118
4907.5469
5155.3336
4301.3366
4688.8038
3777.0619
4162.5375
3245.9268
3267.5334
2223.4132
1795.9163
1483.6871
817.20275
358.31286
-915.20574
-1457.8461
-1750.2955
-1443.4459
-1585.246
-1550.8697
-1316.9996
-1675.9033
-1410.4124
-1549.0031
-1531.7663
-1551.2363
-1506.6205
-1566.9521
-1536.1912
-1515.0509
-1558.2108
-1497.9733
-1553.9119
-1524.4193
-1534.579
-1481.3635
-1566.449
-1557.4767
-1557.782
-1572.4901
-1589.9193
-1602.3232
-1633.7552
-1676.3508
-1715.074
-1755.8465
-1792.4074
-1783.4247
-1814.4654
-1834.9373
-1748.3878
-1778.2609
-1716.6554
-1791.3953
-1699.2071
-1624.1252
-1636.6032
-1614.3235
-1587.6196
-1575.7789
-1527.8361
-1483.8106
-1421.0672
-1350.4075
-1264.5624
-1171.3726
-1070.28
-974.60728
-873.45568
-793.01342
-722.37601
-660.64142
-637.91711
-597.65122
-599.95019
-580.07941
-575.38813
-551.63407
-491.52738
-487.22074
-377.40873
-303.66615
-243.19584
-135.27155
-124.27809
-54.391826
-136.38905
-93.946661
-38.660843
61.553017
19.197568
104.73206
127.9137
180.79026
311.80492
265.15134
499.73916
496.26814
529.66981
850.84262
457.1073
1195.3047
429.35012
1429.8593
1066.7769
1993.4496
1927.8148
1609.3475
2044.2927
-9783.0685
-9463.4905
-8507.8052
-8143.0343
-8784.1785
-9060.4546
-9117.2054
-9658.9847
-9817.5985
-9949.6866
-10295.971
-10285.002
-10465.528
-10568.241
-10614.764
-10667.24
-10786.961
-10769.809
-10895.735
-10927.91
-11000.829
-11169.711
-11224.754
-11253.322
-11375.758
-11480.068
-11617.814
-11742.325
-11909.926
-12059.397
-12223.388
-12392.824
-12560.551
-12740.818
-12929.111
-13045.709
-13252.525
-13335.231
-13483.873
-13535.404
-13621.243
-13679.449
-13735.407
-13716.671
-13692.496
-13656.302
-13586.324
-13490.945
-13370.676
-13228.045
-13053.036
-12866.398
-12662.875
-12448.828
-12225.496
-12011.644
-11785.789
-11565.43
-11355.308
-11128.298
-10905.026
-10685.697
-10434.069
-10177.641
-9950.8385
-9640.2457
-9364.0758
-9067.1439
-8743.6436
-8417.4872
-8112.3833
-7718.8913
-7428.4666
-7056.8565
-6864.3503
-6650.8472
-6251.9947
-5946.3593
-5595.9803
-5295.4155
-4853.0029
-4596.6463
-4084.4307
-3742.3061
-3411.7539
-2639.6484
-2740.6631
-1365.4807
-1857.9869
-285.39455
-782.82414
47.420271
25.567409
1550.568
3223.7564
-19222.894
-18546.239
-15575.003
-16741.166
-17041.284
-17531.162
-18047.278
-18742.436
-19077
-19518.096
-19875.107
-20084.639
-20346.799
-20508.344
-20629.929
-20732.805
-20852.813
-20890.162
-20973.856
-21058.696
-21103.627
-20861.114
-20839.044
-21027.072
-21190.437
-21419.256
-21613.058
-21892.903
-22172.958
-22503.762
-22860.474
-23229.008
-23644.977
-24020.11
-24388.102
-24796.425
-25129.276
-25508.62
-25804.431
-26137.097
-26403.915
-26634.483
-26823.856
-26994.3
-27092.173
-27161.888
-27152.936
-27095.17
-26981.81
-26809.008
-26575.155
-26298.602
-25965.62
-25593.987
-25184.537
-24750.245
-24285.905
-23803.557
-23321.971
-22796.516
-22294.347
-21761.642
-21211.551
-20677.395
-20095.457
-19529.79
-18935.064
-18354.406
-17750.07
-17176.43
-16561.127
-15956.72
-15411.447
-14388.977
-13135.228
-12472.993
-11788.078
-11309.06
-10546.148
-10189.993
-9123.6155
-9025.9266
-7725.9216
-7588.6705
-6506.372
-5835.1137
-5379.4135
-3801.0655
-4087.7637
-1830.2938
-2046.4176
-572.29088
627.6802
2359.8498
4300.2141
-28250.816
-22172.969
-21120.34
-22274.632
-22697.824
-23973.906
-24548.893
-25551.167
-26112.341
-26659.148
-27144.013
-27519.568
-27736.19
-28015.678
-28140.704
-28274.887
-28429.51
-28477.457
-28605.211
-28857.183
-29251.789
-30049.981
-30323.401
-30813.493
-31161.525
-31497.341
-31876.904
-32287.032
-32708.11
-33193.51
-33672.894
-34211.489
-34750.069
-35272.418
-35840.479
-36365.793
-36920.122
-37393.525
-37883.818
-38307.835
-38700.834
-39019.087
-39304.079
-39495.732
-39625.745
-39681.658
-39660.419
-39562.579
-39389.38
-39141.849
-38824.538
-38449.565
-38013.037
-37533.216
-37004.622
-36446.116
-35843.336
-35221.066
-34560.352
-33872.609
-33156.292
-32410.817
-31644.385
-30841.024
-30061.125
-29235.159
-28383.189
-27527.531
-26687.668
-25790.679
-24916.74
-24133.764
-23144.081
-22142.21
-21012.977
-19970.363
-18663.649
-17655.057
-16704.167
-15739.599
-14879.133
-13747.632
-12886.825
-11759.231
-10701.197
-9751.7187
-8424.1721
-7557.9803
-6159.7861
-4843.3516
-3784.9555
-1660.9169
-237.09784
2247.299
6287.6149
-32291.016
-31575.431
-28914.669
-29898.563
-30638.201
-32103.603
-33015.634
-34214.866
-34838.04
-35754.623
-36178.329
-36660.345
-36985.092
-37286.75
-37449.665
-37663.786
-37772.929
-37856.367
-38034.369
-38133.177
-38482.14
-38708.021
-39599.434
-40214.31
-40546.624
-41089.529
-41530.282
-42069.007
-42630.494
-43257
-43973.164
-44659.05
-45480.153
-46264.234
-47064.168
-47867.345
-48606.171
-49360.09
-50042.584
-50699.157
-51258.081
-51787.785
-52208.216
-52567.423
-52818.353
-52981.47
-53042.654
-52997.467
-52850.528
-52601.262
-52243.021
-51789.489
-51235.244
-50592.219
-49863.333
-49062.503
-48194.904
-47269.916
-46305.573
-45297.462
-44260.909
-43215.375
-42118.266
-41041.853
-39940.468
-38842.399
-37726.242
-36665.774
-35533.18
-34395.052
-33353.391
-32146.134
-31039.059
-29964.853
-28732.556
-28100.503
-26824.138
-25509.214
-24252.473
-23021.612
-21606.184
-20306.953
-18838.08
-17431.866
-15837.03
-14550.463
-12613.225
-11508.964
-9573.9757
-7893.198
-6658.6841
-3401.0971
-1405.3604
3419.7718
7928.8328
-46261.752
-42125.891
-36235.543
-39156.521
-39180.593
-41595.456
-42511.025
-43869.659
-44875.333
-45755.154
-46440.744
-46965.528
-47475.096
-47789.357
-48043.274
-48337.76
-48525.225
-48653.321
-48901.248
-49057.805
-49296.498
-49669.13
-49638.534
-50060.055
-50403.527
-51058.919
-51621.303
-52306.773
-53012.126
-53844.88
-54651.656
-55505.481
-56503.518
-57437.87
-58425.659
-59383.809
-60312.555
-61217.609
-62085.832
-62866.011
-63607.415
-64230.969
-64771.801
-65194.232
-65502.297
-65691.237
-65750.26
-65677.198
-65478.454
-65151.86
-64698.365
-64136.41
-63459.217
-62688.054
-61818.909
-60876.853
-59848.866
-58763.148
-57614.999
-56410.064
-55170.14
-53873.511
-52559.361
-51207.362
-49841.595
-48490.292
-47110.147
-45713.8
-44351.548
-42951.741
-41529.014
-40165.372
-38775.441
-37315.041
-35887.838
-34429.138
-32971.711
-31477.85
-29926.957
-28316.63
-26710.768
-25017.356
-23313.492
-21530.451
-19801.288
-17899.174
-16077.242
-14302.126
-12008.569
-10507.059
-7786.8532
-5465.0743
-2997.9489
1231.6926
6256.2726
-49507.401
-48306.374
-42069.905
-46501.06
-47705.086
-49799.928
-51177.381
-52841.522
-53947.672
-54752.181
-55699.929
-56120.97
-56637.85
-57071.606
-57219.323
-57626.674
-57715.238
-57849.626
-58063.764
-58142.795
-58334.787
-58602.442
-58798.422
-59368.444
-59645.275
-60313.888
-60929.499
-61663.271
-62676.398
-63567.053
-64682.878
-65725.111
-66952.515
-68107.272
-69449.542
-70780.486
-71954.72
-73209.461
-74275.665
-75361.504
-76294.314
-77143.027
-77870.217
-78461.834
-78925.641
-79234.472
-79394.017
-79394.833
-79232.991
-78904.136
-78405.691
-77743.224
-76915.216
-75933.626
-74810.004
-73559.537
-72198.515
-70751.936
-69237.014
-67676.812
-66083.384
-64482.11
-62874.22
-61238.717
-59614.405
-57961.521
-56276.677
-54743.046
-53224.667
-51496.274
-49963.519
-48290.589
-46547.819
-44958.714
-43145.47
-41442.274
-39689.333
-37908.443
-36065.573
-34256.488
-32331.692
-30371.419
-28341.667
-26294.349
-24058.837
-21974.773
-19659.57
-17425.15
-15033.329
-13114.403
-9869.3823
-8481.9028
-4893.9871
-729.12593
5917.6697
-66178.231
-48132.812
-49800.857
-53556.444
-54758.445
-56784.6
-58848.764
-60501.125
-61389.537
-62694.18
-63402.878
-64050.232
-64541.834
-64955.147
-65273.285
-65609.819
-65850.35
-66020.401
-66186.922
-66436.119
-66539.02
-66936.241
-67212.111
-67781.649
-68269.337
-68903.431
-69635.96
-70489.301
-71667.719
-72737.871
-74027.69
-75289.686
-76669.644
-77969.18
-79491.641
-81125.365
-82548.138
-83944.428
-85248.569
-86528.285
-87639.447
-88655.023
-89507.08
-90212.472
-90748.538
-91106.642
-91284.559
-91272.293
-91059.625
-90654.584
-90043.395
-89244.744
-88248.558
-87082.3
-85749.834
-84275.776
-82677.977
-80988.811
-79221.3
-77402.587
-75561.916
-73711.399
-71848.208
-69993.956
-68142.493
-66174.428
-64208.048
-62329.332
-60752.118
-58855.168
-57113.364
-55079.585
-53280.394
-51352.14
-49427.066
-47485.302
-45623.797
-43560.842
-41585.738
-39465.131
-37289.782
-35025.462
-32769.898
-30272.065
-27889.229
-25405.173
-22762.064
-20345.675
-17825.749
-15429.687
-12801.287
-11574.885
-8204.0738
-5431.3024
1092.8143
116263.3
115886.49
108901.69
113218.15
113385.43
114293.19
118996.85
115547.71
116112.88
114646.27
114433.6
110961.83
109045.53
117181.17
98958.729
109413.59
112615.27
104075.97
108121.71
108502.09
111089.27
107562.81
111695.2
110650.36
111486.89
109173.3
108992.82
108950.07
110581.27
96994.691
80277.508
95674.471
82757.537
87124.037
85809.275
85408.121
86755.972
85527.498
86240.602
85427.027
85046.358
86837.429
81069.121
91653.622
86119.228
74769.184
74455.732
73415.09
72495.183
74716.661
73808.445
74593.798
75262.142
74467.655
74816.254
75102.449
73387.788
72733.837
80420.306
59666.423
52107.813
59588.625
50715.309
55546.659
54003.05
55096.698
55039.667
54479.056
55432.466
55359.452
54908.078
55084.35
54797.413
56948.923
52559.091
36971.461
39257.659
36353.484
37500.744
37207.239
37612.813
37586.522
37851.084
37762.067
38046.573
37406.283
38553.04
37246.936
39632.537
38709.461
18929.05
19059.704
18668.916
18056.086
19562.932
18858.822
19524.101
19429.947
19134.449
19560.588
19710.295
18245.428
20529.003
19459.902
20995.021
1023.294
237.72533
-718.71072
441.95908
182.13938
146.14861
700.45587
367.42407
609.07216
1086.2974
123.61077
1152.2336
2741.5172
-790.74165
8323.0646
-18651.597
-19720.167
-18316.917
-18738.651
-18616.231
-18476.001
-18444.176
-17819.115
-18771.637
-16136.353
-18018.168
-16923.369
-15007.17
-19097.076
-4977.9767
-32706.688
-39024.38
-34730.28
-35772.869
-35251.457
-35915.482
-35322.514
-35842.158
-35739.469
-34839.895
-37331.421
-34363.186
-33054.381
-39322.416
-25165.887
-53013.459
-60737.701
-52273.687
-56561.022
-54221.62
-54322.729
-54463.383
-53786.425
-54869.698
-51799.977
-52784.945
-54157.565
-48201.511
-55142.706
-37896.821
-74830.553
-71948.928
-69836.49
-70054.384
-70967.621
-71900.991
-71413.874
-72474.911
-72053.786
-71492.27
-73401.738
-65622.76
-68886.909
-73238.947
-58334.868
-86500.895
-90265.443
-83523.729
-83550.768
-81669.304
-82543.966
-82395.611
-82205.008
-81613.171
-79430.907
-81099.879
-83764.638
-75000.613
-90621.055
-51380.036
-96697.976
-115378.18
-96262.976
-106288.56
-106900.02
-105784.99
-106802.39
-110466.27
-107818.76
-113256.07
-106063.82
-103552.6
-107197.78
-102678.46
-103628.27
-115809.86
-97308.907
-92420.069
-92358.464
-95534.802
-102384.68
-96969.938
-92044.377
-90825.533
-89255.057
-92786.662
-93123.679
-91864.195
-102181.4
-92375.255
-80732.654
-74856.299
-87380.927
-89762.959
-94645.567
-100906.22
-98357.741
-92873.235
-104595.05
-102725.41
-99342.301
-92919.693
-89124.816
-86297.965
-70523.915
-68402.493
-66850.06
-74028.421
-76039.409
-79190.101
-82139.559
-84298.113
-85032.347
-87350.035
-84102.796
-82722.718
-77992.552
-78446.223
-78846.109
-78568.279
-54786.24
-59981.734
-58106.854
-62581.248
-65291.53
-63082.029
-65957.482
-64965.375
-63623.721
-66212.907
-64037.323
-65624.24
-64385.172
-58114.565
-61718.086
-61678.35
-69035.474
-69019.081
-70618.815
-71249.328
-73071.322
-73371.836
-73955.636
-74119.604
-72690.224
-72680.54
-70689.129
-69493.577
-68425.192
-65316.257
-64724.755
-68153.982
-65537.484
-70042.131
-69840.726
-70689.91
-72526.662
-71876.439
-72694.751
-73062.223
-71470.985
-70653.617
-68509.18
-66240.32
-65997.091
-64793.653
-67315.284
-68638.248
-70666.983
-70666.186
-72403.787
-72031.391
-72269.323
-72199.201
-71336.76
-71334.535
-70315.766
-69597.011
-68093.373
-65334.181
-66117.457
-69108.683
-69070.235
-71121.736
-70658.037
-71610.682
-72102.743
-72216.392
-72242.045
-71987.823
-70932.571
-70548.15
-69336.867
-67277.115
-67732.983
-67694.446
-68709.063
-69844.897
-70931.761
-71939.657
-72273.38
-72716.25
-72884.052
-72778.835
-72661.196
-72267.935
-71435.164
-70806.136
-68939.25
-68093.18
-67947.614
-69586.577
-69956.516
-70978.148
-70497.322
-71415.047
-71197.27
-71574.937
-71275.69
-71157.04
-70666.079
-70179.62
-69919.9
-68698.585
-69028.937
-69086.663
-69591.467
-70497.411
-70888.267
-71495.385
-71684.957
-72043.289
-72033.347
-72111.251
-72038.968
-71729.245
-71447.685
-70959.438
-70000.928
-70029.363
-69410.976
-70393.928
-70663.998
-71192.729
-71029.203
-71511.951
-71414.493
-71611.182
-71495.951
-71593.093
-71307.752
-71146.766
-70688.36
-70393.339
-70029.353
-70056.146
-70370.896
-70944.457
-70942.289
-71184.875
-71261.634
-71366.315
-71356.332
-71421.435
-71351.553
-71184.719
-70976.789
-70942.019
-70241.566
-70710.501
-70678.097
-70833.414
-70895.375
-71471.226
-71329.185
-71632.475
-71431.994
-71640.865
-71643.035
-71562.645
-71414.946
-71538.647
-71075.072
-71209.215
-70775.859
-70559.883
-71158.373
-71557.091
-71201.976
-71418.554
-71374.962
-71318.822
-71556.436
-71396.562
-71401.648
-71323.008
-71277.293
-71176.011
-70801.91
-71289.279
-71267.846
-71175.757
-71408.948
-71655.011
-71556.741
-71649.222
-71650.56
-71359.334
-71679.452
-71605.792
-71457.57
-71536.031
-71285.943
-71446.338
-71242.419
-71128.304
-71582.006
-71828.55
-71748.251
-71658.919
-71758.858
-71835.711
-71694.238
-71591.618
-71672.536
-71561.989
-71686.456
-71386.111
-71456.258
-71576.716
-71585.391
-71466.028
-71816.792
-71682.871
-71857.82
-71919.631
-71881.112
-71769.302
-71909.095
-71796.263
-71715.199
-71792.651
-71863.151
-71329.884
-72076.21
-71863.949
-71782.444
-72026.104
-71760.763
-71895.212
-71936.756
-72015.945
-71762.759
-71872.395
-71882.859
-71705.2
-71819.183
-71459.735
-71709.572
-71670.376
-71749.121
-71846.163
-72169.386
-72197.723
-72102.502
-72116.003
-71962.307
-72264.937
-72186.151
-72169.337
-71996.343
-72009.863
-71879.688
-71993.677
-72140.087
-72013.649
-71881.606
-72174.696
-72002.96
-72222.026
-72310.121
-72335.736
-72022.995
-72227.364
-72110.292
-71788.95
-72137.227
-71812.324
-72063.436
-71886.893
-72289.623
-72070.307
-72399.779
-72262.465
-72306.879
-72302.289
-72503.755
-72499.551
-72494.652
-72391.7
-72355.493
-72346.389
-72064.297
-72231.656
-72152.165
-72175.284
-72405.259
-72542.769
-72502.755
-72628.978
-72608.357
-72713.562
-72584.538
-72775.54
-72391.389
-72436.322
-72600.648
-72365.2
-72238.464
-72654.473
-72770.904
-72352.28
-72718.677
-72664.243
-72860.23
-72767.013
-73041.898
-72968.297
-72858.196
-73072.881
-72734.476
-72670.438
-72399.469
-72727.454
-72579.535
-72982.934
-72813.143
-73151.868
-73136.264
-73173.891
-73358.148
-73268.28
-73204.291
-73345.28
-73152.57
-73028.503
-73118.337
-72891.884
-72922.68
-72911.811
-73409.185
-73369.053
-73364.523
-73554.12
-73613.363
-73604.974
-73954.011
-73808.216
-73847.648
-73835.893
-73390.004
-73608.137
-73434.659
-73526.871
-73519.084
-74290.6
-73707.488
-74097.848
-73899.844
-74253.142
-74337.692
-74502.048
-74368.844
-74480.026
-74357.177
-74329.13
-74056.091
-73814.531
-74227.909
-73808.888
-74678.915
-74641.012
-74657.284
-75018.558
-74774.232
-75298.65
-75180.716
-75353.833
-75252.834
-75217.93
-74969.766
-75213.213
-74663.681
-74919.655
-75092.252
-75941.331
-75285.315
-75572.424
-75695.372
-76041.481
-76100.3
-76165.533
-76206.343
-76282.222
-76130.346
-76041.508
-75884.417
-75725.721
-76043.2
-75546.035
-76627.461
-76719.155
-76868.161
-76864.387
-77016.264
-77281.041
-77379.689
-77483.495
-77444.344
-77368.248
-77140.098
-77150.39
-76856.445
-76966.533
-77060.505
-78373.933
-77582.577
-78091.685
-78191.947
-78543.223
-78460.567
-78756.209
-78772.193
-78895.791
-78599.186
-78473.427
-78456.788
-78171.389
-78369.344
-78262.514
-79549.246
-79165.769
-79502.425
-79674.477
-79834.722
-80220.905
-80156.881
-80300.331
-80182.2
-80328.165
-80049.461
-80030.693
-79655.249
-79819.937
-79661.809
-81227.15
-80566.935
-81155.69
-81242.862
-81554.899
-81817.405
-81925.84
-81990.9
-81935.839
-81921.256
-81685.379
-81651.278
-81336.114
-81351.161
-81282.698
-82766.089
-82302.258
-82816.654
-82971.504
-83323.304
-83574.208
-83672.014
-83783.533
-83764.419
-83741.641
-83468.759
-83436.182
-83050.589
-83060.252
-82981.182
-84458.773
-84018.713
-84595.348
-84762.295
-85153.087
-85393.84
-85552.635
-85640.453
-85607.044
-85574.866
-85322.016
-85199.951
-84908.76
-84647.775
-84751.23
-86061.598
-85895.783
-86445.197
-86559.623
-86997.423
-87378.879
-87406.513
-87617.126
-87486.524
-87596.684
-87148.961
-87225.859
-86552.414
-86796.659
-86178.618
-87591.563
-87796.357
-88049.61
-88788.184
-88737.655
-89231.166
-89332.624
-89423.826
-89411.404
-89432.452
-88988.064
-88892.529
-88517.555
-88136.27
-88412.173
-89832.663
-89288.552
-90083.294
-90299.282
-90907.744
-90945.615
-91275.613
-91221.377
-91302.935
-91051.845
-90908.374
-90789.116
-90294.444
-89961.653
-89897.653
-91232.403
-91146.469
-91697.595
-92200.659
-92369.509
-92861.676
-92890.598
-93100.823
-92980.561
-92956.882
-92570.898
-92530.692
-92019.565
-91580.629
-91620.052
-92965.553
-92593.008
-93395.862
-93743.293
-94166.103
-94464.162
-94662.243
-94723.218
-94698.351
-94636.694
-94274.583
-94197.387
-93595.937
-93219.047
-93154.728
-94322.906
-94159.292
-94890.596
-95326.584
-95662.929
-96054.877
-96177.417
-96269.794
-96249.182
-96153.564
-95763.024
-95668.699
-95133.665
-94676.752
-94624.663
-95742.28
-95470.311
-96300.451
-96679.531
-97097.569
-97410.881
-97590.69
-97659.449
-97643.523
-97552.824
-97161.668
-97091.442
-96494.318
-96048.507
-95977.14
-96912.907
-96719.714
-97524.821
-97953.271
-98325.3
-98677.122
-98841.098
-98891.496
-98900.765
-98782.78
-98420.219
-98329.398
-97744.175
-97289.222
-97210.235
-98007.354