/*--------------------------------*- C++ -*----------------------------------*\
  =========                 |
  \\      /  F ield         | OpenFOAM: The Open Source CFD Toolbox
   \\    /   O peration     | Website:  https://openfoam.org
    \\  /    A nd           | Version:  6
     \\/     M anipulation  |
\*---------------------------------------------------------------------------*/
FoamFile
{
    version     2.0;
    format      ascii;
    class       pointScalarField;
    location    "0.45";
    object      E;
}
// * * * * * * * * * * * * * * * * * * * * * * * * * * * * * * * * * * * * * //

dimensions      [1 -1 -2 0 0 0 0];

internalField   nonuniform List<scalar> 
28033
(
32832.115
33221.787
-1956332.5
-953256
40974.96
38352.978
-1430518.3
-2956815.9
21855.408
14752.785
10032.016
7250.3101
4631.618
3233.691
2478.9706
2403.6684
3500.4733
5181.0081
8308.9587
12461.177
17392.652
22430.723
32203.285
-1067480.2
-1039272.3
-1025609
-1021002.4
-1025380.6
-1036333.7
-1052563.9
-1069989.7
-1086574.6
-1100418.6
-1110092.2
-1114578.8
-1112493.4
-1101562.7
-822312.17
27806.738
18546.133
18273.593
18399.401
19072.834
19382.605
19732.655
19801.902
19889.968
19903.376
19741.337
19597.783
19398.358
19235.648
18988.559
18693.6
18493.25
18290.157
18060.287
17785.991
17670.642
17388.415
17252.544
17056.363
16868.222
16759.014
16550.193
16421.417
16306.032
16144.908
15998.005
15928.378
15815.528
15644.963
15491.484
15470.846
15410.09
15137.55
15176.366
15046.43
14895.62
14771.551
14654.201
14503.139
14355.806
14188.159
13995.049
13790.21
13552.471
13299.017
13010.414
12704.047
12364.318
12002.761
11616.349
11206.554
10776.931
10328.908
9870.3697
9400.9087
8918.0506
8450.3454
7964.3362
7555.5927
7003.0858
6538.5973
6113.8061
5629.5309
5253.3617
4747.7042
4492.4632
4020.2756
3822.8965
3433.6881
3297.7706
3044.7404
2961.4672
2887.5888
2877.7856
2950.2429
3089.6849
3192.2368
3552.2612
3809.0313
4250.0994
4691.0692
5471.7774
5912.0139
6861.5576
7896.1532
8013.0982
9594.955
9488.2722
9829.8793
18092.937
26907.688
16843.196
18935.27
18189.186
18770.536
19174.662
19198.87
19385.069
19310.909
19145.531
18935.278
18592.678
18293.752
17883.727
17540.954
17119.236
16702.874
16325.28
15922.085
15543.02
15146.905
14809.086
14424.035
14063.926
13749.223
13402.421
13139.608
12772.459
12567.343
12211.523
11954.415
11721.313
11510.659
11329.017
11115.803
11108.386
10816.905
10723.097
10618.188
10559.455
10488.436
10455.374
10431.741
10426.826
10434.992
10461.34
10497.678
10548.865
10613.924
10686.535
10777.117
10873.604
10985.288
11105.817
11239.995
11381.091
11537.672
11704.802
11875.94
12074.591
12261.687
12484.237
12683.933
12940.507
13151.488
13453.846
13716.833
14089.857
14211.288
14260.193
14815.828
14631.059
15096.303
15133.069
15364.423
15381.782
15565.222
15581.06
15615.383
15663.226
15621.43
15658.016
15572.942
15650.24
15483.854
15627.327
15480.232
15576.74
15487.382
15721.955
15470.267
15787.875
15879.78
15780.239
13627.418
26106.216
17241.699
12147.823
9613.0889
5831.1532
4035.799
3230.8281
3058.5081
4049.3454
6608.3281
9132.2687
13736.06
18864.425
25662.541
30890.762
49831.366
22141.819
14753.946
20648.405
18766.569
20523.225
19944.62
20646.371
20186.918
20081.954
20068.147
19426.459
19322.953
18687.23
18503.092
18173.299
17656.893
16987.403
16854.438
16126.487
16013.858
15490.927
15056.095
14815.271
14444.985
14104.455
13838.355
13410.528
13141.691
12972.602
12703.285
12484.972
12272.321
12242.173
11676.371
11605.92
11810.605
11604.602
11516.59
11460.421
11432.779
11423.607
11427.588
11454.84
11493.64
11547.887
11609.641
11684.289
11761.357
11849.379
11939.255
12033.836
12129.809
12225.854
12321.292
12412.815
12504.45
12592.303
12674.757
12760.865
12837.355
12917.048
12995.173
13061.708
13133.821
13251.37
13296.029
12843.481
13464.1
13593.24
13300.445
13224.907
13209.444
13102.998
12981.006
12838.496
12701.765
12535.834
12380.531
12217.476
12061.881
11928.344
11781.411
11706.323
11575.725
11567.496
11478.701
11515.811
11506.407
11644.105
11655.984
12041.167
12070.893
12627.739
11651.182
-2331831.2
-2228249.9
-1994235.2
-2401353.2
-1987561.5
-2362103.9
-1935480.8
-2149480.3
-2246741.6
-2072580.3
-1828745.8
-2196633
-1841024.2
-2255846.4
-2182373.9
16837.814
13112.228
14453.822
13880.868
12886.905
12081.488
11244.25
10479.211
9759.5628
9131.1006
8566.3849
8007.5361
7529.7395
7108.3551
6696.3842
6346.5579
6086.4057
5843.212
5665.8787
5560.4909
5456.2834
5441.3293
5436.8555
5527.8723
5563.2072
5942.6576
6465.039
6503.1407
5981.3221
6714.8615
6848.5197
7207.0464
7530.6595
7891.9509
8260.4469
8638.3939
9027.352
9419.3043
9812.0795
10199
10583.489
10951.097
11311.475
11650.322
11975.415
12277.696
12563.458
12823.562
13070.492
13293.117
13499.278
13689.603
13876.344
14023.19
14192.682
14355.16
14222.82
15067.126
15128.399
14625.392
15547.015
15302.451
15545.283
15497.999
15942.738
16162.155
16181.103
16494.853
16565.302
16818.88
17027.344
17152.012
17467.09
17789.946
17731.588
18211.071
18262.291
18681.846
18863.3
18917.165
19548.369
19845.631
19660.073
20113.404
20692.526
20057.142
20639.367
20494.186
20476.362
19454.451
19468.284
19676.382
19328.746
16601.963
32206.773
23613.07
22000.684
21170.692
21235.904
21622.994
21985.446
21904.018
22155.212
22167.711
22069.651
21480.549
21075.172
21694.819
22524.519
25202.291
22751.294
23055.303
22264.837
23319.758
23224.671
23072.771
24524.405
25972.027
25308.13
25065.651
23811.951
22896.885
22598.628
22195.141
25271.132
-1073309.8
-1073607
-1073416.5
-1073712.7
-1073337.1
-1073220.9
-1073297.9
-1073286.1
-1073257.4
-1073323
-1072986.9
-1073489.1
-1073428.8
-1073418.8
-1073094.6
-2205313.3
-2203876.4
-2203967.3
-2203242.4
-2204361.9
-2204291.5
-2204420.7
-2204433.8
-2204473.4
-2204425.2
-2204435.2
-2204468.6
-2204247.8
-2204915.2
-2206947.1
20481.115
15904.854
14809.458
14701.754
14879.197
15153.063
15416.97
15665.875
15812.841
15951.885
15955.587
16011.526
15930.821
15907.414
15764.14
15707.753
15578.64
15458.84
15325.969
15235.422
15131.663
14978.144
14929.905
14773.662
14682.711
14580.893
14454.127
14364.002
14226.891
14137.075
13978.756
13882.67
13763.117
13620.342
13580.267
13366.143
13306.587
13120.205
13011.457
12861.346
12691.372
12516.558
12367.625
12159.888
11988.963
11762.319
11554.648
11318.274
11075.363
10816.039
10547.47
10260.476
9966.3579
9658.8416
9344.9887
9022.8399
8702.103
8380.6882
8064.559
7758.7015
7464.7308
7178.5443
6920.5845
6685.7836
6379.3437
6332.0935
6387.0645
6563.8266
6434.706
6328.5879
6349.758
6286.4287
6344.202
6322.0837
6397.8438
6467.2987
6552.4787
6764.6833
6815.8167
7206.6385
7305.0505
7743.3601
8246.4991
8587.7819
8849.2471
9302.9133
9895.1123
10231.636
11162.391
11272.491
12276.264
12744.842
13773.62
16788.939
22639.663
13172.208
10997.124
11202.792
10891.931
11113.622
11119.971
11312.415
11484.895
11649.276
11798.208
11904.77
12038.848
12092.806
12164.672
12180.344
12226.315
12222.406
12225.757
12219.108
12203.98
12171.433
12158.98
12136.178
12108.088
12063.486
12050.785
11995.502
11948.836
11890.312
11840.073
11777.978
11684.941
11618.455
11497.062
11399.026
11252.003
11180.599
11014.362
10874.324
10719.833
10584.313
10404.439
10249.253
10025.696
9845.5228
9634.4559
9418.9144
9195.3382
8958.2542
8715.2639
8457.6302
8193.2063
7918.9821
7636.3767
7348.6859
7057.3227
6767.9168
6479.7372
6199.059
5937.0965
5672.2536
5449.0614
5235.8836
5023.715
4826.7055
4833.3648
6026.0104
7438.1537
7489.9732
7553.6273
7655.7226
7710.4073
7844.5671
8019.1287
8126.3575
8379.2168
8469.6456
8793.2718
8858.037
9253.9148
9349.6403
9665.5224
9910.0707
8328.2996
7665.8895
8291.5927
8857.4173
9253.1673
9772.2698
10239.852
10865.001
11352.609
13051.914
15154.067
20848.725
8393.0986
6897.8498
7732.6674
7711.7834
7949.3701
7907.2799
8059.5713
8172.1736
8291.644
8445.5543
8566.0574
8711.4976
8798.0927
8917.3873
8989.0869
9063.2358
9113.3444
9165.7064
9200.8447
9223.4004
9269.6886
9258.0073
9285.3481
9258.8903
9267.4869
9237.582
9205.8111
9179.6985
9131.5897
9075.7598
9001.6121
8932.6784
8850.7452
8736.1594
8677.4218
8505.8735
8367.9788
8163.1315
8040.7127
7891.8781
7657.734
7520.8382
7318.7558
7093.8505
6900.3873
6668.677
6448.5081
6229.0806
5995.3573
5770.6912
5537.1364
5307.6946
5076.9275
4848.5624
4626.246
4410.2415
4205.7995
4013.238
3842.2902
3685.0119
3558.3002
3456.9049
3378.099
3312.5726
3379.6456
3179.8371
3132.2632
5664.332
5356.7876
5560.1777
5701.489
5842.1675
6026.3232
6106.0762
6343.836
6427.2925
6673.7982
6815.7434
7068.5799
7264.9342
7503.2089
7853.3043
7937.9223
8236.5706
7168.6159
8385.8463
8810.2912
9276.9767
10006.246
10316.95
11212.067
11954.887
13177.043
15080.524
18016.047
5497.1276
4325.1932
4778.9047
5084.3157
5262.6285
5374.1593
5480.2537
5578.1531
5649.836
5788.1167
5859.1596
5996.7113
6064.4635
6187.1937
6229.7296
6328.9991
6367.0335
6426.7224
6446.7086
6486.3908
6492.524
6516.5377
6515.1793
6527.7875
6513.6447
6499.4897
6484.6803
6444.8878
6401.2738
6355.9677
6304.8869
6233.4616
6157.3829
6078.0913
5999.7263
5830.1522
5854.4698
5732.6009
5634.4317
5474.7499
5376.6867
5212.935
5072.5169
4942.8627
4830.2386
4690.3164
4576.9401
4451.0893
4332.7911
4223.295
4111.6381
4012.0688
3912.5154
3823.1714
3740.8168
3668.3425
3606.5173
3563.4951
3529.1322
3526.4595
3530.6709
3574.6318
3612.7096
3743.1354
3771.762
4029.5371
4053.0516
3650.5974
3416.5322
3622.2037
4027.0731
4375.33
4287.6248
4271.8567
4579.6419
4795.2426
5220.813
5400.8183
5927.3502
6125.0117
6759.4479
6926.537
7732.0479
7888.1944
9140.4068
9825.2213
10583.511
11050.757
11839.689
12163.797
13450.162
13387.843
14877.384
14617.738
14395.864
3666.1671
2436.4771
2907.5923
2961.2514
3242.7957
3279.6638
3402.3286
3424.0145
3512.7079
3578.8404
3652.3878
3730.8245
3793.8034
3860.5942
3908.5761
3960.4905
3983.8516
4020.2712
4036.4808
4048.8619
4060.0981
4048.7962
4051.3747
4026.6905
4008.3325
3981.6721
3952.1544
3913.9842
3883.5446
3833.2958
3781.5446
3722.2801
3663.3938
3595.6782
3513.4579
3404.2871
3445.8409
3190.3669
3234.8086
3170.1865
3064.8433
2979.3667
2937.7924
2862.0644
2808.9493
2751.2643
2728.3072
2700.5353
2699.1327
2704.1961
2724.0903
2757.938
2801.7798
2861.4851
2933.6264
3019.0552
3122.6937
3240.1749
3378.3573
3533.592
3715.5257
3893.6528
4142.963
4341.9987
4633.8095
4848.048
5243.7506
5445.5044
5801.4334
6064.2055
6529.4027
6511.5129
6160.23
6004.122
6475.6458
6859.5432
7262.7142
7646.666
8103.6508
8510.1694
8981.4874
9503.9108
9927.2701
10563.597
11054.379
11715.072
12373.159
12961.906
13842.404
14589.789
15439.432
15507.492
16164.774
14949.016
11902.704
2350.1582
1319.038
1450.3659
1460.5131
1598.8556
1680.4568
1719.0627
1792.7069
1811.0261
1887.9751
1892.3959
1969.323
1973.2975
2037.7402
2034.1563
2081.8097
2072.9948
2103.7977
2086.8593
2105.5563
2083.7947
2090.7712
2068.4216
2059.0173
2041.6351
2027.5395
1999.9932
1976.3388
1944.2164
1912.4796
1884.7511
1850.6048
1817.4749
1784.6406
1734.5539
1733.4222
1613.508
2023.3366
2100.8728
2008.0021
1993.9661
1950.6446
1943.8819
1932.1029
1920.09
1917.0865
1924.2024
1937.9308
1959.603
1988.4154
2022.4385
2065.7888
2113.4453
2170.3799
2232.6715
2306.5648
2387.5368
2483.2099
2589.5797
2714.4407
2846.6466
3018.2386
3177.0037
3383.2036
3594.3361
3828.3756
4081.3506
4326.7558
4672.9559
4982.6975
5266.5512
5486.8563
5596.465
6694.2385
7491.412
7884.0258
8399.3061
8737.8554
9400.3585
9635.9403
10491.356
10638.564
11633.348
11862.079
12861.115
13374.833
14309.736
14968.111
16042.738
16288.696
17356.541
17201.567
18305.176
15959.889
11197.311
1790.6812
599.69645
639.36418
441.671
541.81993
529.69068
608.86797
598.13075
659.729
676.3839
706.98449
738.94292
760.85419
775.49243
784.02734
796.78325
781.04632
788.22093
763.90759
759.24081
740.24697
730.90593
704.92323
692.9352
681.60981
656.07932
648.69983
634.48733
626.40296
614.46923
603.52828
589.0953
585.22837
560.11032
577.63727
535.37838
582.69178
469.80407
703.51654
617.92669
668.59446
661.26168
681.70887
699.6785
718.4152
745.50423
788.03641
829.08307
887.39591
949.77019
1025.7422
1108.3193
1203.8005
1308.0711
1425.8617
1554.8141
1699.484
1859.9756
2036.7913
2232.9686
2454.6115
2690.3364
2954.9802
3243.6118
3556.7137
3890.2875
4244.1696
4636.4576
5040.585
5432.2932
5902.0365
6353.285
6802.6603
7944.4183
8712.3997
9274.1592
9687.9058
10331.5
10786.948
11398.605
11963.577
12498.935
13225.253
13647.748
14506.658
14891.503
15727.211
16287.293
17113.463
17799.712
19238.733
19261.027
20186.885
18020.494
13235.656
1626.2218
441.28723
261.3543
87.359349
51.426287
98.662077
87.013207
124.27244
140.13475
180.75318
172.23983
223.30299
204.99782
239.59296
227.91136
247.48212
227.23354
251.88835
222.11555
243.34386
205.50627
213.67007
197.7306
215.85364
198.63746
207.64815
207.31463
206.67683
209.12988
210.3444
218.03905
233.35653
230.4132
266.18118
267.61171
300.7898
313.33773
382.11565
393.45588
436.8914
489.6085
532.12649
592.99737
666.65159
747.61677
849.76801
956.1219
1075.0513
1205.3746
1346.2358
1497.3196
1662.4533
1834.6994
2023.6358
2220.6216
2433.3132
2658.2692
2900.7195
3151.9784
3433.8006
3719.7178
4031.9335
4363.8476
4722.7484
5080.8768
5481.0704
5894.4021
6322.0708
6754.0922
7240.1694
7678.2424
8202.0949
8669.4521
9131.8102
9661.6039
10170.729
10727.068
11249.052
11784.127
12295.636
12909.667
13326.861
14086.203
14422.507
15279.241
15716.955
16560.41
17259.427
17961.334
18651.072
19138.251
18844.292
20720.274
19872.702
16271.407
2179.954
810.37101
624.98246
385.97408
343.64568
328.25385
339.2759
329.67603
356.49956
369.61875
376.98922
393.44641
399.79929
398.5382
387.3248
385.78043
356.30509
352.04113
321.39484
328.15325
331.60774
373.15477
337.09124
320.96844
297.52337
291.99269
278.81074
275.92978
278.79117
275.61824
290.71798
280.23741
306.23907
313.19706
324.64416
356.07601
377.47904
413.59479
441.78184
494.58236
542.8174
604.79909
677.5198
756.69971
843.81796
931.80905
1035.867
1143.9754
1267.3416
1395.4625
1539.873
1688.0319
1851.0673
2023.854
2205.4672
2402.6795
2610.4338
2831.6813
3069.9562
3327.4171
3591.4689
3892.0548
4203.7681
4533.1649
4896.7329
5284.6458
5687.4881
6112.2619
6590.8069
7044.2758
7556.1896
8090.7235
8520.3439
9205.6267
9529.2441
9864.6081
10325.131
10963.171
11410.209
12129.861
12562.187
13236.784
13837.934
14247.555
15127.367
15277.581
16139.277
16373.201
16828.758
17570.016
18256.609
19477.187
21437.917
20896.345
19309.218
3440.4384
2037.7637
1840.7457
1678.8085
1632.8949
1641.3854
1640.5444
1624.1706
1665.5072
1695.1024
1679.9881
1723.2528
1700.7069
1695.617
1678.3456
1651.5967
1602.4101
1587.8549
1511.6014
1480.8072
1427.1299
1339.6516
1234.2224
1196.3419
1170.723
1134.5752
1105.6253
1082.0037
1057.1541
1040.9932
1018.0706
1018.1514
1007.8578
1002.3791
1025.1516
1028.0997
1053.3815
1083.2797
1115.0679
1165.5894
1211.009
1278.7547
1338.2619
1420.385
1504.4295
1607.4128
1718.3812
1841.2417
1972.2012
2116.9572
2269.2724
2433.4004
2608.7042
2794.3731
2989.3533
3200.867
3415.9572
3653.7907
3896.2366
4158.5547
4432.5585
4733.3415
5027.8523
5373.8447
5701.7326
6079.6819
6449.6033
6870.8641
7273.8126
7721.1023
8180.2071
8637.0509
9116.3617
9752.4977
8288.1578
7202.6721
7721.2647
8144.9754
8678.8593
9101.6891
9641.2674
10169.754
10659.576
11281.278
11813.718
12425.263
13030.494
13787.91
14341.693
15231.753
15884.791
16570.751
17975.658
18849.91
22143.205
3997.5394
3380.3048
3154.6968
3170.2131
3090.6063
3124.4965
3047.69
3069.1621
3082.3806
3100.0919
3076.2522
3102.414
3054.4177
3030.0718
2974.6671
2916.882
2851.5033
2786.6467
2711.9675
2658.0468
2610.6208
2544.7456
2508.2558
2478.4311
2385.8458
2297.6525
2226.465
2138.5519
2083.4634
2005.0804
1968.1082
1914.9897
1863.1554
1848.431
1799.5023
1786.0372
1768.547
1764.85
1767.4435
1773.9069
1795.9149
1816.239
1856.241
1895.5436
1950.5485
2004.7339
2074.2041
2145.8056
2231.9042
2321.5926
2424.1133
2531.569
2650.9404
2776.0705
2913.1589
3058.0675
3212.8419
3383.4455
3556.0707
3754.6693
3959.1248
4180.2367
4425.402
4695.0668
4966.5529
5288.8225
5604.0128
5951.9155
6334.439
6731.3352
7138.4779
7594.0514
8039.5816
8468.6401
10052.256
7829.3236
8583.4894
9081.0963
9527.4559
10158.373
10621.847
11279.754
11778.883
12432.772
13011.782
13553.812
14300.505
14661.28
15367.982
15932.704
16345.227
17574.12
19013.307
20412.759
23879.032
8532.55
5862.2415
6202.5913
6057.2012
6068.3805
5932.573
5966.1233
5929.1236
5944.2764
5924.4839
5902.6418
5845.6836
5766.617
5653.812
5547.336
5389.7484
5255.9604
5090.7817
4932.973
4783.5883
4589.6266
4404.8159
4334.2638
4353.6795
4200.4711
4064.5681
3925.7547
3798.7029
3677.9548
3566.887
3473.8745
3371.2717
3299.5756
3222.9216
3166.542
3125.9958
3088.6878
3068.607
3048.7856
3057.1275
3059.0889
3088.6554
3116.5915
3166.1844
3220.7135
3292.6158
3371.8827
3466.0979
3566.81
3680.8563
3803.2794
3934.4818
4075.7734
4223.8635
4381.5094
4544.9297
4717.9134
4898.4584
5082.9897
5287.3197
5481.787
5710.6987
5919.7544
6177.426
6385.1243
6692.424
6925.7986
7261.989
7544.1146
7856.0657
8201.267
8519.3487
8903.7715
9250.9059
9407.7733
10641.877
11418.402
11821.462
12245.249
12627.851
12987.234
13411.249
13704.447
14204.379
14407.914
14998.727
15163.235
15743.029
16105.468
16639.115
17074.483
17764.385
17930.987
17777.372
21414.732
12664.453
10509.82
10361.949
10069.589
9846.1058
9792.1303
9776.5004
9719.287
9746.1463
9655.6812
9570.9286
9439.111
9245
9046.0229
8811.9584
8538.7541
8292.2072
7998.3243
7741.8488
7467.0311
7209.835
6976.5791
6740.0128
6557.2948
6343.1549
6107.5838
5944.6432
5724.1226
5560.9465
5393.9249
5239.6618
5112.6836
4983.3651
4888.3007
4769.9033
4680.9671
4600.4155
4527.694
4476.9836
4420.2696
4389.7555
4352.5515
4335.5906
4314.8974
4308.1131
4301.5229
4304.8326
4310.2636
4323.2144
4338.9237
4360.5142
4383.8969
4413.3407
4444.3066
4480.9704
4519.9231
4565.6748
4615.1799
4671.2568
4735.5946
4806.4755
4890.056
4979.059
5108.1795
5201.5984
5426.2822
5504.7192
5767.0928
5895.5783
6154.5919
6357.0392
6692.8844
6894.0173
7240.3025
7583.5769
7814.0769
8188.2069
8581.501
8949.5973
9368.5599
9799.5001
10244.18
10730.374
11223.917
11767.876
12339.018
12902.171
13682.313
14161.152
15116.945
15651.268
16673.35
16381.849
16165.367
18629.387
17281.691
14360.285
13873.046
13358.41
13517.861
13475.504
13560.643
13645.199
13661.811
13576.076
13476.11
13276.946
13049.31
12787.452
12477.724
12171.959
11852.049
11501.407
11196.249
10858.582
10543.134
10236.877
9938.778
9664.7916
9404.8975
9135.9733
8931.1601
8675.5222
8495.6573
8275.339
8112.0569
7929.1517
7779.128
7653.2065
7515.5977
7428.1909
7327.436
7256.0938
7176.8324
7131.1672
7079.9823
7049.1367
7022.4272
7008.6582
6999.9516
7001.7805
7005.3985
7017.8316
7031.2933
7048.1587
7068.1628
7085.5736
7106.4312
7122.1884
7139.5998
7152.0301
7163.8043
7174.864
7179.6661
7195.4603
7194.8519
7220.8171
7219.9679
7259.7069
7236.9927
7344.8977
7265.7069
7488.5395
7419.2691
7533.5062
7706.1729
7702.8789
7918.6929
7984.2871
8192.6537
8303.7315
8542.4482
8708.0892
8948.6982
9233.6864
9484.8315
9878.2932
10166.705
10678.111
11025.205
11647.09
12100.869
12840.527
13368.972
14410.619
14993.622
16174.417
16635.65
15676.42
17353.695
20264.244
16825.929
15913.21
15812.62
16253.461
16265.869
16542.34
16669.555
16663.797
16627.221
16428.829
16258.401
15953.966
15649.875
15308.578
14937.732
14611.583
14224.42
13859.452
13519.895
13182.215
12830.023
12576.697
12231.224
11972.602
11660.284
11403.358
11162.646
10934.325
10757.686
10533.486
10344.506
10158.626
9981.9684
9817.4709
9690.0426
9617.1409
9465.8438
9387.3857
9272.5573
9195.3909
9102.4632
9023.6072
8938.0176
8857.1747
8772.151
8686.4319
8598.1118
8503.7977
8407.6101
8304.2179
8196.4447
8084.3282
7967.9104
7848.5414
7726.8676
7607.5921
7486.2091
7372.8734
7261.3723
7164.806
7073.7635
7002.8986
6936.5006
6888.272
6845.9607
6750.3585
6945.1042
6816.0689
7226.8887
7069.3446
7431.1111
7480.5624
7728.5488
7963.9253
8264.0795
8539.4564
8906.8398
9294.0094
9680.6658
10146.993
10620.34
11141.645
11681.504
12331.462
12901.122
13635.133
14392.83
15133.683
16013.183
17028.826
18055.514
18649.93
19995.734
18801.923
12333.833
11597.508
9483.5587
9142.7742
8846.1649
8873.0989
8642.7728
8811.4679
8856.8101
8961.7411
8962.6572
8991.6899
10003.213
10912.232
13933.106
8415.2105
6780.5586
5674.0574
5623.9966
5154.0985
5136.5926
4935.3172
5045.7603
5163.5081
5127.0528
5262.3441
5506.8348
6058.3576
7146.8033
9277.0275
5555.4687
4262.9184
2893.64
2707.5415
2347.5033
2258.0414
2222.9592
2148.7121
2193.1658
2257.9794
2421.7597
2606.7241
3115.3579
4271.4214
6104.1772
3769.9018
2857.6768
2149.2254
1786.2147
1664.8127
1541.0472
1514.8554
1472.3087
1547.3502
1598.0088
1748.3017
1899.9912
2471.7533
3233.6355
4332.0505
2549.3603
1867.9561
1210.2946
1021.4977
840.0523
776.80895
732.86949
722.14797
739.31403
798.67184
888.87728
1088.1786
1434.9003
1966.4145
3053.551
2174.1393
1421.3287
952.41462
796.50986
652.67568
606.99573
562.5341
568.35843
584.25126
624.67692
729.21315
843.01786
1096.0251
1604.5128
2427.1283
1526.7424
1005.4104
708.75523
535.50216
443.78367
366.59421
341.76692
327.11125
343.23064
380.7322
452.03597
586.36071
782.13786
1201.0828
1925.0084
1637.9822
1047.5496
706.18002
548.61203
434.2992
378.0832
340.3855
339.57978
355.9954
393.79691
480.90337
610.80711
815.98929
1241.4551
2017.2684
1923.852
1256.4727
868.54028
667.71105
536.99122
462.65861
421.24354
420.48357
430.2169
519.91932
562.12748
716.69924
950.09502
1464.809
2165.309
2954.4311
2083.4892
1354.9802
1089.5261
863.81219
776.85212
705.17824
692.93165
706.93609
747.5633
920.93842
1044.5695
1491.5579
2269.2669
3405.5667
3986.1315
2910.0661
1934.8766
1612.7732
1287.2803
1195.0809
1093.4192
1110.2701
1119.9644
1202.5081
1385.1742
1688.2628
2224.89
3204.6654
4388.8135
6260.3245
4249.2735
3170.3062
2673.0273
2293.8488
2086.4916
2003.5363
1953.1988
2007.854
2073.3977
2354.4029
2448.1005
3328.1278
4611.6662
6383.8893
8271.5921
6431.7966
4838.8729
4248.691
3734.6326
3620.0848
3422.5283
3508.8881
3502.5113
3497.3168
3833.9453
4107.6078
4959.3983
6692.4808
7906.8619
12045.321
9430.8811
7695.4626
7007.9244
6482.6885
6241.1629
6302.2975
6331.6032
6268.2498
6292.1117
6430.0558
6794.8228
7684.4937
9003.3085
12502.196
15167.979
15209.063
12009.21
11516.447
10869.022
10196.945
10753.778
11202.255
10469.029
11005.201
10793.32
11206.423
12021.911
13688.015
16875.703
33592.585
27518.924
27430.97
27869.623
28344.651
28124.98
29542.591
30860.362
31538.736
31072.473
30105.02
28557.311
28272.075
29139.895
28571.03
25103.975
22328.817
21156.933
20400.531
19451.222
20081.303
19736.202
19786.201
21036.061
19980.676
20371.813
20015.776
21478.071
23028.728
26006.106
20826.194
21447.615
20460.798
19676.875
19923.971
18205.052
18094.001
18251.211
17358.927
18853.031
18823.04
20604.494
21190.912
21293.686
21819.107
20603.013
22548.33
22237.333
21420.386
21038.178
20795.018
20502.159
20593.235
20616.72
20739.714
21374.969
21928.106
22309.825
22627.921
21143.473
20913.727
22016.751
22215.066
22706.35
22018.692
21794.168
21826.174
21620.876
21866.203
22438.016
22335.162
22901.629
22589.962
22082.942
20906.944
20757.916
22370.205
22541.403
22762.481
22765.5
22678.794
22492.595
22456.728
22574.716
22483.871
22925.567
22923.666
22770.604
22334.778
20857.816
20750.861
21880.772
22362.159
22726.858
22768.217
22799.894
22850
22811.649
22919.081
23020.682
22886.35
22901.873
22504.647
21625.078
21074.317
20788.894
21574.218
22173.69
22566.776
22812.692
22790.002
22813.789
22874.815
22772.017
22885.552
22791.712
22580.047
22233.093
21331.045
20470.914
20352.542
21131.147
21689.022
22094.204
22179.382
22403.002
22426.21
22461.986
22540.362
22366.425
22268.534
21968.893
21654.762
20957.023
20511.187
20256.671
20676.874
21236.407
21539.527
21816.64
21911.714
22008.132
22018.832
21938.648
22006.023
21701.267
21626.262
21139.246
20681.095
20250.849
19758.093
20211.532
20611.086
20962.543
21155.711
21360.734
21409.142
21471.843
21463.292
21317.234
21336.946
20986.364
20761.965
20290.316
19953.069
19399.086
19630.37
20188.723
20365.651
20592.567
20695.352
20781.08
20775.437
20722.861
20660.583
20468.016
20317.35
19996.358
19657.353
19593.933
19082.409
19241.044
19443.021
19770.856
19945.833
20087.034
20214.606
20191.207
20248.047
20162.67
20082.135
19905.248
19652.723
19418.554
19165.49
18566.182
18691.092
19045.266
19179.339
19394.19
19487.657
19516.191
19560.096
19497.018
19403.756
19258.451
19145.155
18910.803
18675.562
18772.215
18192.772
18248.367
18522.083
18672.414
18834.625
18867.957
18958.834
18933.07
19031.907
18955.814
18916.5
18790.857
18621.84
18515.936
18356.716
17724.177
17774.356
17990.951
18162.22
18219.727
18363.236
18448.836
18341.199
18349.905
18275.192
18144.357
18060.103
17825.176
17722.644
17845.921
17252.418
17291.38
17505.392
17609.819
17788.177
17789.781
17872.564
17824.96
17892.463
17828.757
17827.528
17741.277
17684.462
17428.219
17627.266
16957.904
16892.042
17087.76
17036.784
17203.345
17286.06
17419.381
17356.463
17329.495
17277.545
17156.219
17099.398
16999.766
16890.312
16865.596
16507.349
16451.316
16646.736
16745.208
16821.695
16811.298
16841.989
16853.425
16889.233
16825.086
16849.076
16734.754
16696.271
16568.677
16785.307
16033.085
16041.997
16193.927
16270.615
16333.25
16435.89
16393.138
16418.786
16427.7
16389.985
16278.602
16308.961
16164.033
16143.165
16097.124
15767.215
15682.333
15842.582
15831.364
15953.501
15916.374
16056.391
15975.38
15996.985
15943.924
15882.978
15869.614
15848.169
15733.657
15902.017
15300.453
15293.734
15389.608
15467.677
15500.996
15548.382
15569.057
15583.688
15598.793
15556.909
15539.737
15525.742
15425.626
15226.3
15475.061
15003.011
14920.906
15079.151
15072.227
15179.752
15135.104
15203.327
15186.61
15207.671
15175.722
15153.905
15061.122
15021.586
14933.251
15045.08
14657.056
14577.862
14681.446
14746.736
14777.897
14819.01
14849.443
14789.502
14811.765
14792.842
14715.253
14752.858
14701.221
14528.675
14708.348
14314.907
14277.657
14326.646
14368.337
14450.407
14387.789
14512.807
14426.051
14486.334
14432.918
14387.583
14357.29
14287.742
14172.029
14351.423
13989.393
13915.626
14057.415
13982.046
14079.265
14093.445
14147.49
14089.988
14140.008
14067.548
14141.735
14072.949
14011.611
13941.321
13959.52
13660.787
13568.194
13666.871
13710.027
13799.432
13764.053
13814.16
13784.805
13821.654
13758.022
13788.031
13712.107
13652.139
13518.811
13762.629
13376.787
13312.181
13369.852
13351.098
13506.861
13454.162
13510.849
13471.712
13521.494
13457.274
13452.581
13387.563
13371.062
13335.622
13319.954
13074.231
13019.313
13170.653
13101.128
13171.237
13119.834
13202.402
13199.032
13254.529
13196.824
13163.457
13145.393
13060.923
12893.833
13157.605
12891.843
12694.786
12849.279
12824.445
12953.401
12932.165
12967.22
12918.427
12907.026
12859.815
12886.391
12783.805
12703.703
12653.887
12835.982
12604.474
12453.072
12643.579
12577.525
12687.06
12721.732
12714.094
12610.9
12605.785
12580.184
12630.053
12548.625
12572.367
12397.587
12570.977
12423.353
12188.967
12390.927
12331.802
12436.558
12368.729
12452.877
12411.987
12487.623
12375.018
12397.646
12304.626
12311.811
12158.14
12367.886
12206.253
11988.208
12204.507
12118.85
12252.899
12165.279
12284.552
12154.482
12244.841
12142.509
12190.532
12088.866
12099.078
11947.486
12154.045
12028.355
11800.125
11965.438
11846.426
12046.996
11990.847
12072.92
11993.461
12058.34
11959.385
11994.543
11899.801
11913.582
11764.075
12027.423
11768.804
11632.176
11919.125
11863.95
11900.903
11826.11
11905.828
11842.01
11889.953
11908.722
11862.52
11773.606
11758.922
11677.63
11743.52
11770.412
11563.29
11654.846
11772.214
11700.937
11693.861
11756.506
11700.062
11775.522
11546.516
11687.098
11578.987
11610.817
11418.1
11692.034
11710.476
11380.004
11560.7
11459.127
11635.276
11547.336
11662.916
11539.273
11596.17
11384.168
11505.566
11478.655
11444.722
11344.743
11544.483
11486.017
11274.724
11513.026
11444.833
11537.253
11486.374
11556.942
11467.425
11557.811
11476.92
11518.193
11338.527
11415.622
11216.911
11443.658
11519.464
11176.846
11458.443
11323.675
11507.535
11375.327
11519.778
11385.369
11471.755
11357.323
11393.871
11301.64
11323.694
11134.454
11400.187
11451.844
11132.325
11409.424
11300.062
11441.737
11340.923
11475.979
11323.775
11453.746
11291.18
11381.739
11229.264
11278.973
11093.243
11346.705
11451.256
11096.419
11406.835
11254.508
11443.955
11310.718
11455.493
11312.39
11417.226
11284.485
11348.219
11207.491
11266.746
11051.962
11320.993
11448.35
11091.254
11397.492
11262.552
11440.931
11303.692
11470.625
11293.098
11435.46
11270.522
11350.064
11207.497
11259.089
11043.753
11326.207
11483.092
11092.447
11432.681
11271.181
11462.086
11327.771
11479.798
11321.662
11446.953
11290.873
11373.256
11220.986
11277.268
11055.359
11338.849
11521.244
11124.658
11468.218
11295.555
11504.387
11352.519
11530.218
11348.631
11486.498
11328.843
11405.945
11256.597
11315.704
11081.531
11376.627
11587.766
11162.356
11525.869
11342.823
11550.431
11410.983
11581.424
11399.618
11540.539
11379.781
11455.338
11310.396
11362.205
11125.678
11427.007
11661.375
11216.609
11600.547
11389.506
11617.309
11467.383
11649.452
11458.355
11604.288
11441.991
11518.58
11372.804
11426.231
11183.542
11493.059
11750.423
11285.951
11678.009
11460.925
11695.074
11549.976
11736.119
11535.299
11685.375
11521.835
11592.123
11450.423
11499.307
11252.857
11568.841
11855.657
11359.592
11776.563
11537.61
11783.412
11635.645
11825.689
11614.331
11774.759
11604.048
11677.014
11534.7
11586.593
11333.057
11659.648
11965.162
11450.821
11878.093
11623.585
11882.577
11737.015
11930.522
11713.76
11876.9
11702.329
11771.592
11630.681
11680.24
11420.045
11757.622
12093.232
11546.955
11991.12
11724.617
11992.365
11837.928
12035.75
11806.159
11979.213
11798.076
11870.409
11728.593
11783.438
11515.261
11868.212
12224.743
11651.294
12114.148
11830.439
12102.366
11951.775
12154.37
11921.914
12101.12
11913.597
11982.128
11842.333
11894.015
11618.209
11985.224
12367.102
11766.567
12241.494
11941.933
12229.104
12069.427
12272.302
12027.582
12212.18
12016.029
12091.399
11949.501
12006.099
11725.084
12108.55
12518.405
11885.26
12374.734
12067.944
12354.809
12190.467
12400.295
12153.249
12344.236
12146.222
12216.528
12074.148
12130.848
11841.125
12239.206
12673.069
12010.378
12518.223
12191.57
12488.239