/*--------------------------------*- C++ -*----------------------------------*\
  =========                 |
  \\      /  F ield         | OpenFOAM: The Open Source CFD Toolbox
   \\    /   O peration     | Website:  https://openfoam.org
    \\  /    A nd           | Version:  6
     \\/     M anipulation  |
\*---------------------------------------------------------------------------*/
FoamFile
{
    version     2.0;
    format      ascii;
    class       pointVectorField;
    location    "0.52";
    object      lm;
}
// * * * * * * * * * * * * * * * * * * * * * * * * * * * * * * * * * * * * * //

dimensions      [1 -2 -1 0 0 0 0];

internalField   nonuniform List<vector> 
28033
(
(-1.780536e-14 4.8656612e-16 1.3104288e-15)
(-5.4375576e-15 3.3318594e-15 9.9433006e-16)
(-258.82255 65.819448 -27.686343)
(-532.4632 -545.42148 51.328746)
(-1.338461e-14 3.0090723e-15 -2.870051e-16)
(-1.2587315e-14 4.9008913e-15 -4.4266115e-15)
(-553.90613 -538.10847 -8.4374113)
(-250.22319 79.893859 35.941588)
(-5.6329745e-15 1.0535579e-15 6.7193838e-16)
(-2.4534443e-15 3.0423504e-16 5.8836893e-16)
(-5.4923298e-15 2.4302826e-15 8.9528572e-16)
(-2.6209443e-15 -1.1537891e-15 -6.7979696e-16)
(-7.2548563e-15 1.5542294e-15 1.0013199e-15)
(-4.7613589e-15 -9.2108094e-16 -7.3952737e-16)
(-1.132389e-15 -2.2256662e-17 -6.4484848e-16)
(-7.4239857e-16 -2.4218299e-16 -3.6669977e-16)
(-1.1196198e-15 4.5550132e-16 8.383863e-16)
(-2.3465882e-16 2.2667819e-16 1.4996246e-15)
(-4.0583243e-15 -8.7236639e-16 -1.3429605e-15)
(-5.8237189e-15 8.4462789e-16 7.5519031e-16)
(-5.1611762e-15 1.0100276e-15 9.7613867e-16)
(-1.7679952e-15 -8.1010255e-16 4.5192313e-16)
(-4.4158752e-15 1.0299569e-15 -9.452958e-16)
(-278.5174 24.593437 -22.914197)
(-299.2938 -16.531166 -19.607292)
(-320.5574 -56.88585 -17.739756)
(-341.4644 -96.20508 -15.279302)
(-361.05848 -133.66187 -12.859619)
(-379.46238 -169.49742 -9.3692042)
(-395.87657 -204.62136 -4.7731506)
(-411.40739 -238.78179 0.18285476)
(-425.46095 -273.32967 6.2267998)
(-438.8161 -308.31012 12.437992)
(-452.38342 -344.58763 18.537346)
(-465.89936 -382.78827 25.50197)
(-480.95059 -422.1702 30.960634)
(-496.89673 -462.42668 37.383529)
(-513.97558 -503.11959 43.890312)
(-28.919883 -31.466162 -34.651867)
(-36.717963 -52.55241 -46.710052)
(-46.475976 -74.315425 -54.594669)
(-60.393815 -97.526353 -57.291977)
(-78.027284 -120.65133 -56.724115)
(-100.55397 -143.70329 -54.031117)
(-127.79757 -165.09054 -49.026257)
(-159.42584 -184.18015 -42.642944)
(-195.57617 -200.23078 -34.756728)
(-234.97971 -212.52201 -25.846845)
(-276.7845 -220.05653 -16.27669)
(-319.77704 -223.27193 -6.3130456)
(-362.97561 -221.35854 3.7834824)
(-405.0733 -214.75075 13.916373)
(-444.45617 -203.38363 23.339863)
(-479.85089 -188.45217 31.632136)
(-510.93029 -170.63022 39.136869)
(-536.35098 -150.67983 45.326685)
(-555.51595 -129.69548 49.184528)
(-568.39669 -109.12874 51.430685)
(-574.91186 -89.708709 51.488013)
(-575.7949 -73.099038 49.034776)
(-571.21443 -59.427636 44.692042)
(-562.61577 -50.09537 37.82658)
(-551.38903 -45.397314 28.973711)
(-538.78141 -45.030153 18.829788)
(-526.5734 -49.534402 7.2527067)
(-516.31427 -58.339309 -5.0224156)
(-509.96986 -70.632442 -17.344611)
(-508.9017 -85.550628 -29.186029)
(-514.68655 -102.13812 -39.640209)
(-528.08355 -119.11279 -48.543875)
(-549.8735 -135.14519 -55.257209)
(-580.44037 -148.96775 -59.670475)
(-619.97739 -159.71892 -60.946583)
(-667.03194 -165.78468 -59.283922)
(-722.19962 -167.31613 -55.023903)
(-783.11812 -162.6746 -47.627267)
(-848.80094 -152.07564 -37.923013)
(-917.79051 -135.66511 -26.24547)
(-988.08321 -113.37417 -12.896681)
(-1058.0284 -85.878185 1.3784168)
(-1125.8862 -53.886684 16.013362)
(-1190.0552 -18.396078 30.517777)
(-1249.1586 19.370892 44.072502)
(-1301.9871 58.220069 56.154233)
(-1347.756 96.83708 66.205401)
(-1385.8977 133.99109 73.760364)
(-1416.2783 168.52913 78.480799)
(-1439.0495 199.47365 80.144507)
(-1454.7453 226.06871 78.697202)
(-1464.1541 247.81741 74.23351)
(-1468.3448 264.51148 67.015328)
(-1468.5424 276.23518 57.450318)
(-1466.0951 283.35967 46.080667)
(-1462.3683 286.5095 33.548898)
(-1458.6715 286.52881 20.564234)
(-1456.1759 284.41302 7.8681089)
(-1455.8472 281.2671 -3.8271896)
(-1458.3746 278.20586 -13.841634)
(-1464.1495 276.31054 -21.623909)
(-1473.2146 276.57905 -26.703135)
(-1485.3399 279.82063 -28.782193)
(-1499.8259 286.57511 -27.819902)
(-1515.9917 297.29709 -23.463746)
(-1532.6315 312.23259 -16.618676)
(-1548.2991 330.7427 -6.8590086)
(-1562.1338 352.99997 4.8462881)
(-1572.4517 378.0673 18.755016)
(-1577.9851 405.19616 33.452359)
(-1577.6598 433.11707 48.407467)
(-1570.4644 460.98459 63.362953)
(-1555.6644 487.52133 77.337148)
(-1532.6335 511.6512 89.856955)
(-1501.1641 532.22031 100.32388)
(-1461.2811 548.23255 108.26951)
(-1413.2852 558.83688 113.34388)
(-1357.7025 563.3896 115.27559)
(-1295.4522 561.54709 113.967)
(-1227.4787 552.90553 109.49078)
(-1155.0236 537.91589 102.04051)
(-1079.5788 516.7104 91.988015)
(-1002.4543 489.80342 79.750811)
(-925.13236 458.30913 65.853316)
(-848.81553 422.88709 51.222261)
(-775.03075 384.66009 36.295187)
(-704.91822 345.05986 21.997756)
(-639.02195 304.88197 8.8522804)
(-578.10439 265.61422 -2.8048631)
(-522.30602 227.94269 -12.051076)
(-471.09686 192.62524 -19.571958)
(-424.6418 160.65291 -24.195536)
(-381.25841 132.18175 -27.13647)
(-339.82519 106.42474 -28.80249)
(-299.77902 84.667095 -28.062756)
(-4.392921 13.935228 16.580103)
(10.808715 24.629959 40.676816)
(21.956486 32.010786 56.827935)
(21.710732 43.998456 69.852346)
(14.266564 56.378308 74.741574)
(-2.0502846 68.231162 75.372542)
(-27.024504 79.946788 70.72535)
(-59.701284 90.779179 60.9427)
(-100.57227 101.53672 46.768298)
(-147.12234 109.8856 28.598903)
(-199.3148 117.82736 7.1845709)
(-254.37873 122.82525 -16.30372)
(-310.62485 126.78615 -40.286976)
(-366.72458 127.69544 -64.382191)
(-420.16087 127.03932 -86.593304)
(-468.94231 123.325 -106.28191)
(-512.02909 117.66643 -121.54523)
(-546.75756 109.803 -132.25282)
(-573.54446 99.951274 -137.49132)
(-591.43959 89.095202 -136.62636)
(-599.52902 77.057662 -130.25725)
(-599.53437 64.616238 -118.2591)
(-591.69763 53.440788 -101.11744)
(-576.97009 42.152434 -80.172088)
(-557.48442 33.977394 -55.806805)
(-535.17346 27.905368 -29.9416)
(-511.52267 25.670335 -3.3688791)
(-489.14142 26.891895 22.673982)
(-469.51874 33.128869 46.977297)
(-454.79554 43.193659 68.343699)
(-446.86037 58.667239 86.052655)
(-446.28802 77.961981 99.280363)
(-454.99552 101.82433 107.45671)
(-473.32357 129.39738 110.17919)
(-501.81277 159.94112 107.52082)
(-539.79677 192.68842 99.652662)
(-587.42012 226.32894 86.885184)
(-643.44413 261.03364 70.039242)
(-706.45652 294.38293 49.677221)
(-775.17236 326.43658 26.943726)
(-847.48736 355.71031 2.9258719)
(-921.45368 381.45105 -21.14022)
(-995.09122 402.93669 -44.157647)
(-1066.3986 419.6052 -65.015588)
(-1133.581 431.09705 -82.769446)
(-1195.0674 437.27727 -96.654266)
(-1249.6245 438.24044 -106.12795)
(-1296.3616 434.30107 -110.8957)
(-1334.8164 425.99074 -110.92826)
(-1364.916 414.01975 -106.44181)
(-1386.9985 399.24041 -97.893178)
(-1401.7629 382.60469 -85.936288)
(-1410.2295 365.10552 -71.388483)
(-1413.6694 347.72287 -55.176777)
(-1413.5373 331.37223 -38.288783)
(-1411.3784 316.84834 -21.716132)
(-1408.753 304.78238 -6.4021169)
(-1407.1381 295.61022 6.8055939)
(-1407.8581 289.54193 17.19989)
(-1412.0009 286.5528 24.24898)
(-1420.3632 286.38712 27.617821)
(-1433.4066 288.56927 27.1868)
(-1451.2337 292.4222 23.051291)
(-1473.5582 297.12515 15.521419)
(-1499.775 301.73618 5.069741)
(-1528.8931 305.24211 -7.6142209)
(-1559.8148 306.69029 -21.832011)
(-1590.9609 305.16332 -36.739074)
(-1620.9338 299.35285 -51.329255)
(-1647.9309 289.22909 -64.956446)
(-1670.4466 273.65503 -76.656514)
(-1687.159 252.9346 -85.963504)
(-1696.7277 226.41452 -92.199279)
(-1698.0367 194.58333 -95.061145)
(-1690.4624 157.64481 -94.398117)
(-1673.4715 116.28718 -90.183568)
(-1646.9945 71.240582 -82.603802)
(-1611.2187 23.411314 -72.01179)
(-1566.6669 -26.167858 -58.883024)
(-1514.0764 -76.474173 -43.753594)
(-1454.4856 -126.43235 -27.262119)
(-1389.0723 -175.07929 -10.060337)
(-1319.1914 -221.51454 7.1585555)
(-1246.2761 -264.9768 23.741514)
(-1171.8033 -304.87619 39.048312)
(-1097.2245 -340.81723 52.52266)
(-1023.9183 -372.59815 63.671744)
(-953.1088 -400.25695 72.130629)
(-885.82037 -424.03255 77.666887)
(-822.82774 -444.38778 80.178719)
(-764.54751 -462.021 79.828847)
(-711.13318 -477.78861 76.861504)
(-662.18664 -492.77534 71.797063)
(-617.04508 -508.11992 65.392433)
(-574.41786 -525.63639 58.248114)
(3.2927448e-15 -1.3239155e-15 2.3845803e-16)
(2.4470133e-15 -9.6672015e-16 3.215493e-17)
(-9.0574249e-15 9.0550918e-16 6.4029168e-16)
(-1.2642219e-16 -5.721845e-16 4.4370095e-16)
(-7.6811722e-15 -4.9270561e-16 4.1193361e-16)
(-7.3893964e-15 2.7533729e-15 -1.0951501e-15)
(-3.2915852e-15 -8.1743692e-16 3.8364228e-16)
(-1.9032499e-15 5.3200654e-16 -8.2319016e-17)
(-4.7409759e-15 -4.8623412e-16 4.3918642e-16)
(-1.2869644e-14 1.1845665e-15 6.4228907e-16)
(-9.6157521e-15 1.4157374e-15 5.9836601e-16)
(-9.4077204e-15 4.9518432e-16 1.1192419e-15)
(-5.982767e-15 2.6210694e-16 3.0473736e-16)
(-1.1478475e-14 -5.3386198e-16 1.6580808e-15)
(-5.257323e-15 3.6289085e-16 2.8600704e-16)
(-7.1509092 2.9956295 -5.0385221)
(8.8388294 15.484084 -21.73415)
(16.169005 26.246496 -30.342244)
(13.637777 43.420575 -33.664224)
(3.3488971 52.879952 -31.6123)
(-15.736786 70.922442 -28.521022)
(-40.541299 82.60695 -21.545845)
(-73.347058 98.872552 -14.590448)
(-112.17533 108.56853 -3.6078563)
(-154.44149 120.04698 7.6674999)
(-202.97293 126.66951 18.895834)
(-251.96535 130.52594 31.584173)
(-301.99176 132.13928 43.480028)
(-352.316 129.25986 54.863807)
(-398.1203 122.61858 64.36629)
(-442.42065 114.8508 72.734871)
(-480.22153 103.07951 77.562535)
(-511.08766 86.278463 80.341503)
(-536.15735 72.05827 79.458338)
(-552.10079 51.720916 74.976791)
(-561.98287 36.29784 69.516896)
(-564.03127 17.431438 58.2669)
(-560.3155 0.35245717 46.055659)
(-549.96029 -12.748078 31.349834)
(-537.1051 -22.879599 15.344038)
(-521.18759 -30.618512 -0.97784114)
(-504.66317 -32.981359 -17.505921)
(-490.62085 -30.896777 -33.197055)
(-477.26992 -23.987738 -47.470688)
(-471.05151 -10.04857 -59.451896)
(-468.74026 6.9060614 -69.17124)
(-474.77149 28.915386 -74.862614)
(-488.49303 55.181867 -77.836705)
(-510.58735 84.18939 -76.785883)
(-542.55749 115.85754 -72.642724)
(-581.29946 148.66594 -64.712681)
(-629.03294 183.5919 -53.902894)
(-684.36826 215.78801 -40.769067)
(-744.99231 247.16515 -25.369304)
(-810.46548 275.89062 -8.7892867)
(-878.58057 301.16062 8.303351)
(-947.83427 322.2732 25.208824)
(-1016.4412 338.74634 41.158859)
(-1082.69 350.25073 55.493738)
(-1145.0754 356.69532 67.651973)
(-1202.2838 358.22343 77.18882)
(-1253.2834 355.17585 83.799247)
(-1297.3569 348.10212 87.333419)
(-1334.1285 337.70782 87.784201)
(-1363.5667 324.82913 85.297905)
(-1385.9775 310.37711 80.146199)
(-1401.9788 295.29533 72.720399)
(-1412.4641 280.49625 63.507722)
(-1418.5497 266.8282 53.064575)
(-1421.5152 255.00341 42.000844)
(-1422.7331 245.59316 30.938002)
(-1423.5967 238.9566 20.500627)
(-1425.4381 235.26331 11.265784)
(-1429.461 234.44546 3.7577015)
(-1436.66 236.23508 -1.5990314)
(-1447.7729 240.15074 -4.4844624)
(-1463.2174 245.54908 -4.7184777)
(-1483.0826 251.63292 -2.2550047)
(-1507.0702 257.50635 2.7757717)
(-1534.6117 262.27225 10.161245)
(-1564.6762 264.89126 19.451618)
(-1596.2003 264.21605 30.311602)
(-1627.428 260.87367 41.6289)
(-1657.6379 252.63194 53.242578)
(-1683.4302 238.19197 64.545119)
(-1705.5523 219.87626 74.742982)
(-1720.8064 195.80998 82.869823)
(-1728.7839 166.48794 89.088941)
(-1728.1807 132.49508 92.605142)
(-1718.3629 94.151293 93.355722)
(-1698.9384 52.264086 91.238493)
(-1669.9014 7.6870688 86.334851)
(-1631.5343 -38.633765 78.863873)
(-1584.4638 -85.68105 69.167045)
(-1529.5864 -132.45448 57.690719)
(-1468.0301 -177.98617 44.954907)
(-1401.112 -221.41064 31.531031)
(-1330.265 -261.9852 18.013278)
(-1256.9954 -299.13963 4.9910304)
(-1182.7967 -332.48875 -6.9749922)
(-1109.1077 -361.86395 -17.383297)
(-1037.2228 -387.3026 -25.81329)
(-968.2555 -409.07591 -31.951289)
(-903.05673 -427.6397 -35.615436)
(-842.18626 -443.67082 -36.764187)
(-785.85162 -457.97887 -35.541968)
(-733.90922 -471.53829 -32.215204)
(-685.77806 -485.42573 -27.299686)
(-640.7054 -500.75105 -21.194568)
(-596.90305 -518.12432 -14.909022)
(-534.1306 -495.68754 -6.052621)
(-514.79611 -451.89173 -4.4587614)
(-496.09104 -409.22239 -3.8612334)
(-478.04781 -367.11364 -3.4317845)
(-459.98986 -326.09619 -2.8671746)
(-443.04814 -286.9711 -1.648702)
(-424.21665 -249.30125 -0.15488494)
(-406.76372 -213.11131 1.8084397)
(-388.22998 -176.89788 5.0252888)
(-367.792 -141.70357 7.8417742)
(-347.73574 -106.43032 11.723709)
(-326.65792 -69.798986 14.934134)
(-307.07801 -32.274028 19.493171)
(-285.72237 4.947491 23.662418)
(-267.5711 43.264255 29.075391)
(-287.19476 97.224983 43.183795)
(-323.00442 117.37227 50.283862)
(-359.21827 139.11911 58.219405)
(-397.5883 163.11076 65.131246)
(-438.68949 188.94759 71.44375)
(-484.31699 216.91172 75.592937)
(-535.37882 246.49967 77.137649)
(-592.22178 277.24894 75.622919)
(-655.15878 308.60539 70.814721)
(-723.82562 339.89568 62.592801)
(-797.72232 370.18599 51.356992)
(-875.75186 398.87057 37.269286)
(-956.81607 425.02033 21.045349)
(-1039.4897 447.94022 3.290503)
(-1122.1557 466.77596 -15.283675)
(-1202.9462 481.09591 -33.790795)
(-1280.2533 490.44449 -51.262991)
(-1352.5422 494.58844 -67.097441)
(-1418.3111 493.49075 -80.478048)
(-1476.3794 487.31135 -90.881412)
(-1525.7557 476.42075 -97.8411)
(-1565.7838 461.32855 -101.08579)
(-1596.1497 442.76762 -100.46237)
(-1616.7264 421.37544 -96.049668)
(-1628.2035 398.33172 -87.98407)
(-1630.6862 374.04619 -77.088197)
(-1625.8702 350.33275 -62.776627)
(-1614.0998 325.80585 -46.608768)
(-1597.1872 305.10442 -30.039129)
(-1577.2523 284.88853 -12.539736)
(-1555.0556 267.54517 4.4391038)
(-1532.6865 253.08106 19.966108)
(-1511.4139 241.39337 33.248303)
(-1492.4763 232.42924 43.635381)
(-1476.8602 225.82682 50.576401)
(-1465.1709 221.08717 53.737447)
(-1457.6581 217.54766 52.996563)
(-1454.177 214.45936 48.456164)
(-1454.207 211.00806 40.436839)
(-1456.8832 206.37482 29.459336)
(-1461.0527 199.78584 16.208491)
(-1465.3491 190.562 1.494003)
(-1468.2773 178.16588 -13.804286)
(-1468.3078 162.23647 -28.785508)
(-1463.971 142.62091 -42.584504)
(-1453.9448 119.38338 -54.419141)
(-1437.1404 92.815804 -63.630641)
(-1412.7533 63.411104 -69.722598)
(-1380.3419 31.865255 -72.373415)
(-1339.8035 -0.98927508 -71.469875)
(-1291.465 -34.237481 -67.036599)
(-1235.9832 -66.792136 -59.424507)
(-1174.353 -97.798008 -48.890926)
(-1108.0838 -126.08742 -36.226201)
(-1038.3503 -151.08003 -21.856604)
(-967.38727 -171.86263 -6.6239395)
(-896.70132 -188.41681 8.4109422)
(-828.13458 -199.35124 22.584787)
(-764.35394 -204.55373 35.450986)
(-705.00148 -206.7776 45.989194)
(-653.10332 -203.67689 53.404055)
(-610.14101 -194.50797 57.737566)
(-575.25495 -185.73226 57.901765)
(-549.75679 -172.3599 55.058973)
(-532.71442 -158.29993 47.890032)
(-524.90694 -142.30612 38.139571)
(-524.30123 -129.98131 24.695821)
(-529.69348 -116.23832 9.7853357)
(-540.38482 -106.979 -6.7377217)
(-553.36498 -99.065212 -23.939563)
(-567.70573 -94.836905 -40.493942)
(-581.06771 -94.786353 -55.509066)
(-591.32771 -98.96318 -68.579696)
(-598.47873 -104.22969 -78.972218)
(-599.74307 -114.15691 -84.75332)
(-593.89796 -127.03782 -87.715451)
(-582.42883 -139.21365 -85.703407)
(-562.13961 -154.68811 -79.902924)
(-536.13144 -167.65069 -70.025922)
(-503.02196 -181.6731 -56.387545)
(-464.12411 -191.84945 -40.096111)
(-420.83978 -200.94963 -21.384711)
(-375.3124 -206.77909 -1.626649)
(-327.84765 -208.17993 18.887717)
(-279.90421 -207.43389 38.69444)
(-234.5558 -201.79924 56.228837)
(-192.11905 -191.47414 72.33921)
(-153.19644 -180.33851 84.834839)
(-120.02723 -164.7268 93.215561)
(-92.539272 -146.00502 97.016267)
(-71.075865 -125.2673 96.756989)
(-55.259648 -104.10656 91.123525)
(-44.578105 -83.509081 80.977919)
(-37.228947 -59.381118 62.892832)
(-42.125909 -35.762643 34.08194)
(-6.8708141e-15 1.5083581e-15 1.9262289e-16)
(-1.2504183e-14 5.7375616e-16 8.4327435e-16)
(-8.3449101e-15 1.4891922e-15 5.3018253e-16)
(-4.9731758e-15 1.4991158e-15 6.2376313e-16)
(-3.4146159e-15 1.5624416e-15 3.1576894e-17)
(2.0582335e-15 9.3962624e-16 -5.746342e-16)
(2.2101935e-15 3.7457559e-17 -1.1841335e-16)
(2.4553765e-15 -8.5141669e-16 -9.3419562e-16)
(1.2987427e-15 1.0081898e-16 1.7950851e-15)
(-4.5074861e-15 9.063971e-16 1.0710522e-15)
(-5.2682467e-15 2.1856155e-15 1.0652666e-15)
(-7.4917339e-15 1.915055e-15 2.2418828e-16)
(-9.400838e-15 1.3708275e-15 6.2833768e-16)
(-6.2048683e-15 1.3247981e-15 5.4317906e-16)
(-6.971104e-15 1.5128103e-15 7.5678131e-16)
(-1.2693866e-14 6.2923345e-15 -2.1364834e-15)
(-5.2452578e-15 2.6791924e-15 -5.3037742e-16)
(-1.0752404e-15 9.8318743e-16 -1.0111087e-16)
(-2.7353382e-15 1.7746034e-15 7.3085398e-17)
(1.0178949e-15 -1.5450237e-16 -4.119182e-16)
(-1.4303492e-15 4.136346e-16 -3.3264033e-16)
(-1.0059749e-14 4.7133437e-15 -1.6449855e-15)
(2.9801421e-15 -1.9180379e-15 -8.3172098e-16)
(-4.79756e-15 2.8035442e-15 1.1420498e-15)
(-5.4778068e-15 3.5047253e-15 -3.934403e-16)
(-1.8117877e-15 1.1581936e-15 -9.1309836e-16)
(-3.9812639e-16 4.7407236e-16 -2.2932148e-16)
(-1.5272242e-15 1.100363e-15 -2.2557932e-16)
(-4.1024849e-15 1.9838802e-15 2.8069696e-17)
(-5.3424143e-16 2.551799e-16 -1.9455919e-16)
(-536.08888 -536.41549 51.04596)
(-540.29032 -528.95095 49.83013)
(-544.62298 -522.54696 47.165916)
(-548.66128 -517.66131 43.265048)
(-552.36949 -513.7321 38.271893)
(-555.33493 -511.00531 32.457264)
(-557.50954 -509.54247 26.14095)
(-558.77982 -509.26502 19.615445)
(-559.18676 -510.14302 13.150077)
(-558.85243 -511.99607 7.0147119)
(-557.92228 -514.67041 1.5729122)
(-556.49208 -518.12975 -2.9368208)
(-555.09106 -522.04707 -6.1729785)
(-554.03688 -526.36824 -7.994205)
(-553.32331 -531.34394 -8.4514068)
(-262.58955 67.368023 -27.356762)
(-265.66381 70.718014 -25.625755)
(-269.10921 73.881191 -22.006667)
(-272.76068 76.6139 -16.860674)
(-276.55379 78.608233 -10.791193)
(-280.08883 79.789906 -4.0227448)
(-282.98331 80.209535 2.9831189)
(-284.89586 79.917323 9.9756447)
(-285.58977 79.100621 16.624821)
(-284.85357 77.905174 22.626239)
(-282.72292 76.564826 27.786945)
(-278.86369 75.514387 31.789263)
(-273.87977 74.607002 34.533853)
(-267.31492 75.096127 36.11898)
(-259.28686 76.341614 35.933181)
(-19.346734 -25.04626 -35.434162)
(-27.701646 -46.579316 -42.384822)
(-37.11651 -66.973461 -48.953379)
(-50.805827 -87.008858 -49.933597)
(-67.847152 -106.38271 -49.604517)
(-90.488881 -125.03844 -46.513523)
(-117.50941 -141.86152 -42.186135)
(-149.984 -156.7771 -36.246185)
(-186.42287 -168.94754 -29.43456)
(-226.51629 -177.66152 -21.920991)
(-269.37752 -183.01042 -13.642376)
(-313.65708 -184.48745 -5.4053892)
(-358.07628 -182.00714 2.9828149)
(-401.40226 -175.84828 11.088834)
(-442.19876 -166.6775 18.796719)
(-479.24392 -154.66157 25.628784)
(-511.4933 -140.40193 31.5413)
(-538.35741 -125.05747 36.240885)
(-558.60012 -109.57653 39.558931)
(-572.26922 -94.337259 41.192143)
(-579.64899 -80.82097 41.165197)
(-580.53147 -69.361031 39.290549)
(-576.11296 -60.642017 35.618421)
(-567.30928 -55.335733 30.24546)
(-555.05267 -53.299715 23.264248)
(-541.31762 -54.737258 15.118835)
(-527.5943 -59.55331 5.9007572)
(-515.56982 -66.827752 -3.794051)
(-507.11087 -76.298904 -13.625749)
(-503.57092 -86.972577 -22.866255)
(-506.76202 -97.899015 -31.477825)
(-517.57648 -108.17822 -38.511939)
(-536.75455 -116.84733 -43.915228)
(-564.76007 -123.04842 -47.347058)
(-601.67839 -125.73661 -48.331639)
(-647.30432 -124.53964 -47.186786)
(-700.64165 -118.75222 -43.657882)
(-760.50646 -108.06753 -37.871813)
(-825.86914 -92.594085 -30.070764)
(-894.82322 -72.597364 -20.65493)
(-965.63882 -48.038983 -9.9826177)
(-1036.5356 -19.913677 1.589841)
(-1106.0091 11.205477 13.598226)
(-1172.0232 44.239798 25.29437)
(-1233.3299 78.235077 36.374392)
(-1288.58 112.12437 46.249295)
(-1336.8521 144.86787 54.501453)
(-1377.5051 175.4933 60.742035)
(-1410.2637 203.15575 64.681038)
(-1435.1972 227.2002 66.138065)
(-1452.7293 247.18189 65.052601)
(-1463.5893 262.89941 61.496351)
(-1468.7825 274.39998 55.668071)
(-1469.5174 281.97569 47.896048)
(-1467.1415 286.13677 38.61115)
(-1463.0552 287.58162 28.335262)
(-1458.6279 287.14563 17.64667)
(-1455.1212 285.74819 7.1499285)
(-1453.5969 284.3371 -2.5588524)
(-1454.8785 283.82238 -10.923516)
(-1459.4668 285.02748 -17.458345)
(-1467.5569 288.65356 -21.801623)
(-1478.972 295.199 -23.645191)
(-1493.2384 304.89766 -22.884379)
(-1509.5675 318.08054 -19.546741)
(-1526.9931 334.34466 -13.723574)
(-1544.1384 353.18305 -5.4153235)
(-1559.7846 374.61276 4.370551)
(-1572.7377 397.47479 16.204722)
(-1581.0313 421.04909 28.405106)
(-1584.1153 444.32083 41.294667)
(-1580.4972 466.2934 53.926853)
(-1569.4276 486.02988 65.907654)
(-1550.1892 502.50171 76.668745)
(-1522.4643 514.8416 85.747965)
(-1486.1009 522.3417 92.755023)
(-1441.2981 524.42977 97.363322)
(-1388.5457 520.773 99.359509)
(-1328.5006 511.22652 98.681516)
(-1262.2388 495.8888 95.327781)
(-1190.8111 475.16995 89.477522)
(-1115.7214 449.55068 81.366387)
(-1038.2462 419.63684 71.507301)
(-960.20485 386.56295 60.451278)
(-882.60211 350.90153 48.38474)
(-806.91941 314.17559 36.157678)
(-734.58909 277.05573 24.111264)
(-666.37867 240.50592 12.849272)
(-602.99132 205.26048 2.7565913)
(-545.08573 172.01897 -5.6599998)
(-491.74334 141.09549 -12.664274)
(-443.98301 112.80293 -17.45032)
(-399.82755 87.447347 -21.04617)
(-357.92692 63.74652 -22.912355)
(-319.22401 43.780943 -23.445333)
(-9.7488991 -22.391642 -33.320442)
(-17.238825 -36.875642 -39.19135)
(-28.18872 -56.182878 -43.125466)
(-41.223558 -73.228179 -44.554834)
(-59.061459 -91.169514 -43.278099)
(-81.385659 -107.38926 -40.627508)
(-109.31316 -122.6856 -36.441613)
(-141.94117 -135.78062 -31.454154)
(-179.18226 -146.40299 -25.725645)
(-220.1913 -154.13759 -19.350055)
(-264.01962 -158.65817 -12.772392)
(-309.2243 -159.87856 -6.0297887)
(-354.71746 -157.70332 0.72283899)
(-399.08457 -152.50146 7.2298187)
(-440.93225 -144.38905 13.366601)
(-478.84031 -133.99137 18.793526)
(-512.02109 -122.03222 23.65121)
(-539.17787 -109.10773 27.465497)
(-559.95876 -96.035217 30.207657)
(-574.02394 -83.639041 31.714071)
(-581.25475 -72.551544 31.919892)
(-582.08642 -63.486621 30.644389)
(-577.3089 -56.862636 28.052816)
(-567.76514 -53.062361 24.040701)
(-554.94929 -52.188072 18.788512)
(-540.33381 -53.983735 12.471705)
(-525.60086 -58.286878 5.3894379)
(-512.4743 -64.601518 -2.1118543)
(-502.67594 -72.220438 -9.7353079)
(-498.10918 -80.369057 -17.18072)
(-499.87883 -88.248692 -23.820872)
(-509.32838 -94.968952 -29.4932)
(-527.38148 -99.730127 -33.904784)
(-554.29913 -101.78568 -36.661983)
(-590.40187 -100.3032 -37.759719)
(-635.12812 -94.991606 -36.964191)
(-687.72182 -85.455897 -34.198777)
(-747.26426 -71.538455 -29.716211)
(-812.38783 -53.439146 -23.641074)
(-881.23888 -31.317897 -16.116434)
(-952.3893 -5.6463437 -7.6881522)
(-1023.9071 22.807094 1.7319478)
(-1093.8277 53.429791 11.090468)
(-1160.7724 85.137218 20.624122)
(-1223.0179 117.01161 29.571081)
(-1279.348 148.14517 37.632509)
(-1328.7382 177.56692 44.387707)
(-1370.5215 204.47934 49.554706)
(-1404.3856 228.18566 52.867845)
(-1430.3613 248.21304 54.181014)
(-1448.8464 264.2788 53.422722)
(-1460.5435 276.34419 50.641221)
(-1466.4438 284.59514 45.985792)
(-1467.7469 289.43335 39.709226)
(-1465.8014 291.44871 32.155217)
(-1462.0177 291.37706 23.742296)
(-1457.7866 290.0539 14.938553)
(-1454.3949 288.35651 6.2423267)
(-1452.9451 287.15712 -1.8585794)
(-1454.3004 287.25239 -8.8886222)
(-1459.0073 289.33956 -14.453184)
(-1467.3103 293.95869 -18.219951)
(-1479.0688 301.43521 -19.89608)
(-1493.8916 311.95478 -19.509559)
(-1510.8935 325.49378 -16.769944)
(-1529.259 341.54419 -12.08719)
(-1547.504 359.93817 -5.5412878)
(-1564.8254 380.19457 2.866333)
(-1579.2833 401.25698 12.41012)
(-1589.7115 422.17359 22.998713)
(-1594.6201 442.30297 33.963127)
(-1593.1869 460.3925 44.98942)
(-1584.2107 475.66029 55.493352)
(-1567.1151 487.21974 65.056568)
(-1541.3858 494.36199 73.278452)
(-1506.9071 496.52575 79.773391)
(-1463.827 493.27666 84.287336)
(-1412.5269 484.47124 86.593553)
(-1353.7647 470.12306 86.609557)
(-1288.4592 450.49555 84.335788)
(-1217.7631 426.0286 79.92347)
(-1143.0559 397.45051 73.462454)
(-1065.7748 365.2195 65.639622)
(-987.44854 330.95219 55.881768)
(-909.04449 295.1009 46.096483)
(-833.01676 258.37929 35.718215)
(-759.95631 222.03251 25.440137)
(-690.98328 186.71405 15.800255)
(-626.70674 153.07586 6.9052379)
(-567.92806 121.75156 -0.63844623)
(-513.90944 92.659315 -7.0925116)
(-465.23055 66.315494 -11.801081)
(-420.91773 42.924811 -15.743009)
(-378.50654 20.358702 -17.854476)
(-340.73715 2.0368924 -19.502194)
(-3.716129 -18.845353 -30.436528)
(-10.115588 -30.650393 -34.674703)
(-19.064406 -46.669895 -38.677937)
(-32.916792 -62.204983 -38.646899)
(-50.379307 -77.682444 -36.876176)
(-73.552941 -92.453965 -33.876126)
(-101.61402 -105.82938 -30.170349)
(-134.89318 -117.27112 -25.870009)
(-172.77367 -126.55911 -20.979095)
(-214.5462 -133.17839 -16.059071)
(-259.06237 -137.02644 -10.88751)
(-305.16977 -137.81846 -5.7824099)
(-351.60593 -135.83658 -0.78300326)
(-396.80383 -130.97271 3.9781702)
(-439.44143 -123.85867 8.4007151)
(-478.22616 -114.80423 12.487558)
(-511.9349 -104.38852 15.983675)
(-539.71207 -93.327752 18.844822)
(-560.91822 -82.292372 21.000982)
(-575.09263 -71.926406 22.318261)
(-582.37648 -62.874847 22.687926)
(-583.12345 -55.687428 22.11596)
(-577.99975 -50.628625 20.494678)
(-568.10194 -48.068779 17.906511)
(-554.68973 -47.818617 14.374489)
(-539.38305 -49.916639 10.086252)
(-523.82233 -53.917677 5.1687076)
(-509.87667 -59.293163 -0.16583594)
(-499.30526 -65.455886 -5.6974674)
(-493.66331 -71.667273 -11.004927)
(-494.52238 -77.146327 -15.98939)
(-503.16872 -81.134032 -20.307004)
(-520.20957 -82.933333 -23.653732)
(-546.3412 -81.819512 -25.958113)
(-581.61587 -77.348088 -26.907584)
(-625.62342 -69.199851 -26.494358)
(-677.8033 -56.981021 -24.816127)
(-736.96398 -40.838623 -21.800761)
(-801.7517 -20.873886 -17.391633)
(-870.75143 2.4206585 -12.040903)
(-942.03354 28.716599 -5.6541303)
(-1013.822 57.197233 1.1892833)
(-1084.3224 87.073424 8.4763826)
(-1151.8177 117.58668 15.67995)
(-1214.7618 147.73036 22.666038)
(-1271.8235 176.62883 28.978063)
(-1321.9718 203.4817 34.386456)
(-1364.5184 227.566 38.61029)
(-1399.1173 248.33099 41.444089)
(-1425.7927 265.41592 42.741853)
(-1444.9169 278.65734 42.424538)
(-1457.1922 288.12343 40.509985)
(-1463.5985 294.08185 37.084321)
(-1465.3396 297.00268 32.328578)
(-1463.7654 297.50986 26.49313)
(-1460.2991 296.35241 19.894031)
(-1456.3408 294.34525 12.894523)
(-1453.1993 292.3273 5.8846933)
(-1451.9982 291.09497 -0.73779378)
(-1453.6211 291.37432 -6.5925967)
(-1458.6538 293.74582 -11.342204)
(-1467.3559 298.65499 -14.68636)
(-1479.6199 306.31067 -16.412873)
(-1495.0946 316.84917 -16.457708)
(-1512.8066 329.93826 -14.497213)
(-1532.3887 345.48703 -11.270984)
(-1551.6452 362.76283 -5.4942731)
(-1569.4729 381.36094 0.77524265)
(-1585.6554 400.05414 8.5934714)
(-1597.4752 418.27472 17.0955)
(-1604.3 434.82207 26.206257)
(-1604.5421 449.08826 35.393741)
(-1597.3116 460.21719 44.255723)
(-1581.9389 467.49404 52.498835)
(-1557.9217 470.22526 59.763014)
(-1524.9937 468.00212 65.732027)
(-1483.3211 460.57941 70.136982)
(-1433.2623 447.88025 72.809152)
(-1375.5148 430.05136 73.63909)
(-1311.0152 407.46906 72.589336)
(-1240.9104 380.5956 69.733181)
(-1166.6106 350.21336 65.222808)
(-1089.5291 316.94054 59.278544)
(-1010.8236 282.03592 52.013211)
(-933.09891 245.82462 44.371503)
(-856.88595 209.31185 35.859998)
(-783.48149 173.66163 27.350404)
(-713.94566 139.3124 19.124016)
(-649.07555 106.80841 11.260426)
(-589.73552 76.657137 4.540558)
(-534.83819 48.831619 -1.7614388)
(-485.90194 23.544242 -6.4501392)
(-441.07585 1.0817756 -10.709634)
(-398.58784 -20.778051 -13.618366)
(-361.50793 -38.377768 -15.890519)
(0.69359809 -17.488108 -27.048882)
(-3.2549947 -25.794287 -30.882945)
(-11.734375 -39.52441 -33.006078)
(-24.812411 -52.308549 -32.541433)
(-42.745191 -66.443355 -30.382631)
(-65.899747 -79.490598 -27.798197)
(-94.420307 -91.549662 -24.506618)
(-128.24023 -101.86593 -20.827324)
(-166.79696 -110.32092 -17.185645)
(-209.1688 -116.20262 -13.513899)
(-254.43499 -119.58672 -9.8600831)
(-301.38356 -120.2567 -6.4401185)
(-348.48672 -118.3273 -3.0773838)
(-394.39662 -113.84383 -0.060543536)
(-437.73366 -107.41714 2.9564537)
(-477.02979 -99.113351 5.5047564)
(-511.24467 -89.841581 7.9104212)
(-539.3807 -79.945704 9.9181623)
(-560.75841 -70.205195 11.596212)
(-575.04651 -61.139326 12.734807)
(-582.34224 -53.363873 13.437524)
(-582.87374 -47.261099 13.490457)
(-577.50997 -43.186028 12.961857)
(-567.2181 -41.255831 11.780452)
(-553.4192 -41.466029 9.9673687)
(-537.61054 -43.602088 7.5886967)
(-521.60423 -47.23685 4.674809)
(-507.13349 -51.981055 1.4540362)
(-495.97038 -57.105699 -1.9924158)
(-489.84549 -61.985879 -5.4760882)
(-490.2162 -65.847299 -8.8108393)
(-498.22551 -68.058149 -11.743783)
(-514.84064 -67.876745 -14.205272)
(-540.53367 -64.822586 -15.932535)
(-575.36915 -58.407619 -16.878943)
(-619.07043 -48.341229 -16.955639)
(-671.08302 -34.475006 -16.069873)
(-730.11883 -16.994139 -14.063042)
(-794.88411 3.9055579 -11.357047)
(-863.75777 28.032726 -7.7592538)
(-935.03655 54.608882 -3.5934778)
(-1006.8884 82.990476 1.1417629)
(-1077.5003 112.44465 6.12308)
(-1145.1267 142.04884 11.252719)
(-1208.2674 170.95849 16.264057)
(-1265.5713 198.31213 20.88841)
(-1315.9994 223.39072 24.936435)
(-1358.8601 245.53191 28.190485)
(-1393.8072 264.26774 30.479557)
(-1420.8597 279.30918 31.670559)
(-1440.3943 290.571 31.685969)
(-1453.1105 298.18002 30.504323)
(-1459.9902 302.45824 28.169227)
(-1462.234 303.9122 24.788606)
(-1461.192 303.18379 20.53232)
(-1458.2818 301.02708 15.620181)
(-1454.9026 298.24166 10.319285)
(-1452.3602 295.6345 4.9206445)