/*--------------------------------*- C++ -*----------------------------------*\
  =========                 |
  \\      /  F ield         | OpenFOAM: The Open Source CFD Toolbox
   \\    /   O peration     | Website:  https://openfoam.org
    \\  /    A nd           | Version:  6
     \\/     M anipulation  |
\*---------------------------------------------------------------------------*/
FoamFile
{
    version     2.0;
    format      ascii;
    class       pointScalarField;
    location    "0.45";
    object      E;
}
// * * * * * * * * * * * * * * * * * * * * * * * * * * * * * * * * * * * * * //

dimensions      [1 -1 -2 0 0 0 0];

internalField   nonuniform List<scalar> 
3969
(
19028.428
19540.69
-961655.5
-480933.57
22639.974
20633.314
-723104.48
-1464676.8
9971.5538
4445.5092
1873.6112
1793.2517
4019.095
9419.6495
18284.214
-515730.43
-507346.77
-515145.63
-525933.12
-534814.45
-539598.59
-402684.64
20488.863
17173.003
17866.871
18272.759
18475.615
18607.47
18321.955
18286.796
17896.515
17746.229
17562.478
17429.037
17258.41
17134.554
16941.199
16810.852
16625.914
16313.746
15989.009
15479.056
14876.196
14100.724
13160.019
12006.698
10800.446
9252.446
7512.1385
5708.0094
3655.1535
1504.6547
-664.95955
-2863.5147
-4943.7185
-6951.1102
-8431.233
-9993.1606
-10517.421
-11472.088
-11063.676
-10844.249
-9486.8921
-7806.0445
-5901.2589
-2729.4199
9.1927575
2923.1352
14368.745
20937.828
15750.757
18533.774
17663.949
17809.542
16945.303
16284.149
15348.259
14317.517
13408.438
12261.614
11377.94
10344.158
9536.7372
8763.5799
8127.306
7659.3679
7217.1203
7067.0887
6888.582
6992.6172
7326.8207
7491.9042
8178.4887
8904.1831
10013.727
10814.959
11990.92
13417.402
15181.293
17075.156
18982.18
20944.904
22843.323
24705.673
26454.79
27491.497
28380.295
29552.916
29211.485
29095.03
28560.979
26866.652
25627.325
23718.963
21528.968
16842.293
10989.826
5185.6075
2123.5724
2589.1557
3553.7696
8112.5977
15011.219
28987.31
21417.537
16353.539
21668.103
19059.462
19247.025
18335.688
16868.65
16438.45
14655.901
14169.957
13654.645
12818.115
11999.63
11401.673
10960.674
10458.941
10244.587
10014.302
9933.1599
10014.53
10245.821
10654.06
11193.46
11808.024
12799.506
13591.095
14699.622
15975.948
17094.897
18271.617
19483.105
20510.712
21564.636
22272.183
22696.086
24337.853
23471.064
23037.091
22458.289
21608.235
20694.569
19091
17683.149
15851.26
14579.2
13621.221
-1171997
-978310.44
-1156192.9
-1051029.3
-1030106.5
-915028.36
-1138042.8
13091.754
8775.6647
8202.7804
5894.7071
3505.9665
1307.5688
-337.38824
-1885.3528
-2971.8393
-3065.5799
-3204.777
-3776.8113
-4184.8318
-2653.8321
-1974.5701
-616.4114
620.23779
2169.5232
3669.0643
5196.7888
6601.4924
8055.5846
9371.1734
10514.474
11537.953
12406.017
13188.456
13860.432
14443.824
14929.401
15415.852
15663.906
16170.041
16775.383
17120.506
17332.378
17755.442
18181.801
18227.629
18666.026
19736.375
18990.147
20110.59
19254.745
18343.557
18433.444
24925.112
14614.451
14389.663
14120.819
14272.034
14274.127
14310.331
15482.156
12334.078
12969.61
14029.182
14581.397
14412.692
15178.208
12797.878
-542081.31
-541892.18
-541982.4
-542067.05
-542135.73
-542169.07
-542387.39
-1086791.4
-1085852.5
-1086216
-1086473.8
-1086836.3
-1087587.4
-1089586.6
12382.655
10546.238
11117.314
11235.09
11671.036
11901.389
11950.463
12088.683
12002.891
12039.417
11947.493
11779.925
11647.715
11471.198
11201.395
10922.612
10609.014
10166.03
9739.5622
9219.1676
8658.6797
8020.3526
7372.311
6656.4274
5924.2994
5214.9821
4477.3015
3871.4916
3277.0086
2877.762
2556.0019
2395.1644
2372.5615
2499.0884
2944.4343
3187.6138
4005.8575
4601.0474
5613.4531
6680.1482
7694.6456
8950.3082
10324.181
11323.012
13580.372
15876.492
19614.236
5492.0675
4853.5397
5418.7352
5476.0585
5707.9484
5939.0858
5944.691
6144.9185
6087.5886
6132.6766
6027.6985
5928.1792
5887.8981
5793.9814
5662.2935
5444.0316
5186.0075
4904.8396
4602.1741
4331.2671
4089.9864
3866.3226
3690.5844
3610.0224
3610.6702
3690.9426
3801.7636
4098.1028
4405.7102
4912.722
5465.7094
6107.8937
6797.6101
7664.8611
8385.6489
9259.7533
10335.418
10748.272
12141.108
12360.675
13882.061
14373.212
15694.248
16373.183
17750.038
17172.393
15175.568
2320.9218
1229.8494
1925.9331
1616.0903
1902.0622
1872.5435
1978.1137
1975.2584
1914.5556
1959.0123
1863.5546
1757.8164
1618.6392
1348.835
1246.5271
1080.439
947.57149
773.2321
685.49315
564.1484
480.0709
514.04368
692.81158
990.22017
1380.7436
1877.1216
2640.4389
3492.9845
4417.078
5492.0786
6592.9217
7785.7013
9035.9432
10217.745
11480.386
12742.148
13811.673
15160.275
16309.95
17120.325
18464.62
18506.466
19992.215
19883.92
21820.238
20460.71
13629.612
1496.6547
297.6652
443.95148
393.03219
355.53108
410.71476
310.01396
374.29505
253.40487
171.83636
121.35724
40.073943
-21.559409
-167.88147
-292.05855
-309.43871
-330.44086
-227.84584
-141.77188
44.589737
317.73856
787.67271
1378.9472
1914.4522
2439.7659
3123.965
3741.2917
4509.5841
5361.3481
6325.7982
7300.7972
8463.8134
9455.894
10731.793
11865.366
12882.645
14159.181
15177.032
16434.064
17744.39
18433.667
19078.694
19959.472
20044.623
21239.489
19133.174
15197.417
3901.3939
2246.1463
2429.4057
2069.8344
2083.7527
2076.802
1896.4031
1881.716
1686.9047
1648.6805
1592.6079
1434.6537
1342.9884
1261.3917
1261.5336
1216.4032
1243.0125
1251.8998
1311.2767
1348.8926
1685.4561
1757.3838
1882.086
1853.4648
1824.5316
1800.8603
1779.2672
1761.512
1697.0635
1617.8978
1560.3296
1499.0787
1471.6953
1540.1818
1501.6954
1870.9901
1977.4106
2661.0722
6650.526
11280.886
11933.446
13022.254
13626.534
14528.349
14916.496
16441.61
19799.674
9064.4258
7511.2976
7582.9207
7481.3491
7518.5359
7353.3686
7140.5039
6854.6409
6507.4093
6232.6876
5989.7902
5684.8589
5397.7274
5160.7116
4961.8396
4799.2779
4649.4792
4562.2276
4477.5579
4422.9282
4300.8723
4526.1217
3650.8726
3355.6558
3151.3477
3007.5799
2681.831
2552.6033
2256.911
2075.6254
1795.214
1609.8978
1352.4265
1278.9455
1032.6566
1235.6825
1303.602
1485.0388
2053.6641
4555.845
4920.01
6187.6459
7095.266
8953.6833
10517.418
12177.897
19024.772
13774.66
12568.496
12565.778
12921.875
12883.664
12620.773
12175.215
11568.176
11123.165
10410.043
10079.034
9461.5596
9048.449
8591.2094
8251.6925
7891.5129
7612.1694
7317.5056
7050.3579
6765.0356
6615.301
6106.4946
5979.3407
5367.3932
5411.1167
5209.8335
4799.3283
4529.1654
4209.8998
3920.1562
3492.025
3322.0618
3106.6211
3100.8071
3032.5523
3678.3851
3742.585
5069.6117
5713.8898
4255.1833
4859.0347
6625.951
8986.8692
11689.696
13923.857
18233.103
21241.07
5475.4189
5632.1601
4588.834
4599.8253
4733.9486
5032.169
6708.2374
2505.4373
2287.1986
1908.366
1957.3705
2046.8938
2322.1493
3187.7323
981.66191
597.32326
251.78693
349.52338
295.63413
502.25134
1105.6714
883.86629
446.0472
278.31064
249.17893
367.11747
711.84306
1419.4858
1673.5115
1043.3365
773.2297
703.32146
830.9538
1218.1462
1964.0977
5117.8857
3590.7464
3141.4733
2924.1223
3094.7202
3683.8182
5382.8728
8798.1039
8507.9488
7144.2597
7252.4801
7141.8244
7759.2805
10194.1
23224.284
20224.203
21633.991
23122.447
22906.711
24528.527
23989.156
21428.44
21692.018
20171.373
19724.197
21455.701
21850.477
22326.53
19280.891
19941.634
20399.992
20220.577
20087.366
20147.249
20946.063
20228.745
21709.793
21306.656
21681.61
21690.905
21783.453
20329.762
19098.382
19641.33
20505.771
20524.015
20377.622
19908.942
19842.256
18901.934
19060.718
19333.617
19610.822
19359.721
19011.823
18614.115
17558.374
17777.28
18393.891
18394.914
18513.385
18248.098
18289.51
16747.485
16794.508
16906.333
17026.25
16858.101
16722.681
16564.379
15585.45
15575.048
15942.35
15943.77
15960.525
15883.21
16248.281
14575.272
14534.176
14585.752
14870.247
14483.994
14434.413
14639.951
13602.606
13481.533
13652.899
13470.881
13685.448
13629.041
13513.649
12600.996
12481.791
12463.979
12704.289
12567.249
12074.986
12939.503
11679.799
11414.459
11735.37
11425.161
11574.159
11479.752
11896.312
10703.073
10590.918
10838.246
10590.097
10938.148
10372.332
11089.021
10074.796
9886.0331
10112.968
9895.9985
9999.7183
9720.7747
10365.429
9447.7574
9156.6279
9605.0881
9181.684
9548.1643
9136.5511
9846.5932
8944.2996
8804.3281
9082.2055
8747.1303
9033.9628
8605.2674
9311.1558
8664.8803
8359.0597
8838.7077
8390.856
8765.7781
8311.4827
9028.1714
8456.7245
8240.1393
8711.5481
8190.6101
8588.7587
8071.1891
8835.6329
8494.6384
8157.0694
8739.1439
8150.4906
8619.4986
8059.5669
8839.7162
8659.2906
8319.8683
8919.8931
8286.0707
8773.4767
8161.1856
8956.4999
9042.3229
8595.8791
9276.3602
8583.9294
9108.2195
8436.0331
9270.9485
9506.0791
9103.8871
9735.8682
9097.2489
9589.4497
8981.36
9799.1825
10245.322
9815.3375
10401.798
9738.8678
10228.414
9624.3488
10374.576
11100.443
10695.395
11076.808
10860.856
11053.958
10489.021
11118.271
12206.509
11817.072
12024.029
11808.472
12008.103
11615.511
12317.437
13701.687
13164.686
13263.668
12920.222
13466.151
12882.13
13485.83
15233.811
14521.331
14893.492
14225.239
14599.014
13940.184
14725.879
16594.022
16174.765
16224.941
15841.413
16185.533
15785.228
16230.275
18508.306
17676.002
18126.812
17322.652
17835.592
17100.518
17705.276
20106.29
19547.751
19726.181
19003.071
19390.374
18725.829
19353.129
22003.971
21210.01
21459.02
20637.923
21113.085
20361.249
21024.229
23655.375
22935.653
23148.561
22324.026
22683.726
21914.085
22549.962
25205.496
24441.613
24685.818
23749.539
24151.607
23331.07
24058.489
26564.825
25955.674
26049.888
25195.318
25558.932
24826.306
25310.005
27921.487
26970.41
27323.554
26285.249
26703.502
25959.71
26207.839
28231.271
27636.832
27943.281
27157.388
27133.543
25394.333
25498.88
27563.343
26813.833
26626.117
26399.753
25981.402
27233.622
27169.786
28700.906
28025.84
28640.56
27522.319
27835.967
27508.659
28103.129
28959.455
28263.457
28474.517
27644.307
27889.627
27231.796
27324.496
27993.563
27108.439
27632.983
26744.911
27104.383
26468.504
26661.202
26882.956
26338.863
26657.144
26073.309
26165.179
25652.696
25670.901
25061.203
24368.609
24955.847
24290.732
24542.704
24201.776
24154.415
23365.423
23034.699
23415.593
22981.25
23132.144
22758.086
22415.303
21225.503
20865.847
21233.288
20891.189
21107.216
20872.493
20541.942
19267.032
19026.458
19604.793
19321.743
19597.686
19322.299
18880.021
15244.949
15458.614
15463.763
15524.141
15509.78
15324.493
15473.606
-638155.14
-701714.62
-701920.19
-702177.26
-702247.94
-702072.92
-701880.95
-683215.5
-682085.05
-682155.08
-682461.65
-682449.42
-735990.97
-682884.58
-739828.61
-686462.11
-686644.14
-686740.25
-686800.07
-623972.61
-686505.28
-701932.8
-701644.19
-702430.24
-702266.74
-702784.53
-702117.44
-702748.45
-715884.63
-645564.8
-714734.22
-714993.01
-714320.46
-714857.8
-715045.31
-656770.76
-781868.55
-725965.37
-725777.4
-785494.88
-726000.2
-726776.82
-781179.85
-723572.94
-723798.17
-724138.53
-654817.08
-724223.74
-723920.91
19978.747
17715.176
16872.361
16404.952
16810.239
17524.589
17942.068
19269.557
17882.377
17933.638
17752.171
17996.624
18356.757
19034.912
19741.917
20057.722
19660.005
19503.865
19919.465
19668.928
19713.672
19381.549
19645.124
19762.408
19878.393
19711.054
19390.919
19568.636
19792.692
19820.677
20030.58
19937.421
19966.043
19494.976
19272.729
18944.301
19146.066
19243.275
19171.239
19220.644
18961.301
19012.488
19231.013
18981.208
19086.71
18662.242
19005.645
18874.02
18897.392
18414.33
18370.997
18448.855
18458.516
18280.958
18153.817
18321.43
18546.852
18187.78
18247.598
18004.183
18259.784
17922.174
18379.014
18054.483
17767.565
17842.686
17591.198
17733.809
17548.231
17825.414
17814.072
17556.111
17732.134
17333.338
17673.012
17296.912
17659.944
17541.747
17344.727
17281.609
17211.169
17203.12
17201.837
17367.026
17381.498
17010.51
17082.127
16823.66
16961.073
16770.239
16827.465
17054.058
16925.727
16986.956
16681.36
16871.916
16621.446
16900.237
16801.705
16585.987
16645.832
16538.528
16660.221
16407.122
16453.628
16706.459
16382.916
16411.943
16162.174
16341.433
16217.782
16269.783
16506.061
16230.058
16170.93
16092.611
16118.722
15884.722
15914.469
16210.584
15860.53
15984.096
15703.5
15801.307
15593.312
15550.921
15740.708
15540.666
15546.237
15357.956
15433.222
15196.922
15139.576
15280.796
15075.371
15069.939
14921.229
14921.224
14718.652
14660.315
14641.801
14517.183
14483.504
14309.828
14301.313
14107.292
14039.549
13891.838
13808.909
13706.229
13593.794
13571.218
13369.822
13303.332
12937.227
12907.841
12790.69
12711.31
12646.114
12442.872
12416.521
11823.463
11930.98
11742.341
11681.368
11661.396
11393.183
11397.293
10587.41
10763.463
10447.174
10528.988
10393.571
10138.211
10198.888
9146.791
9413.4151
9079.9957
9138.4046
9024.275
8720.2957
8906.1926
7489.8047
7907.9123
7539.6361
7559.8709
7494.193
7143.9697
7330.053
5831.6094
6137.4189
5834.6542
5902.7372
5792.7704
5445.2095
5730.6026
3950.8683
4406.3532
4002.9954
4156.6832
3965.2946
3657.644
4033.7217
2046.4632
2578.1288
2121.5786
2260.2609
2153.499
1811.181
2277.6636
185.37954
607.74391
215.05751
465.26998
267.67782
-79.013525
554.10401
-1702.4388
-1215.5549
-1544.5022
-1393.5046
-1538.63
-1825.4109
-1146.1325
-3398.5561
-2979.8892
-3332.1557
-3116.5274
-3268.9672
-3611.1783
-2691.2055
-4967.2922
-4655.7488
-4835.595
-4600.5033
-4715.5281
-4965.2655
-3898.6526
-6150.7386
-5842.8224
-6037.0082
-5861.5065
-6141.8662
-6274.6363
-5358.8445
-7163.6154
-7171.8469
-7140.3
-7029.4222
-7070.512
-8565.0517
-7297.1181
-9343.4103
-9154.8227
-8851.6077
-9125.018
-9074.7377
-7895.2619
-5693.0977
-7757.4854
-7890.0564
-7983.7267
-7699.876
-7861.8418
-8321.9589
-6536.6437
-7688.9434
-7652.284
-7420.9418
-7507.0959
-7620.6041
-7727.73
-6128.8266
-6839.5293
-6986.0509
-6986.9897
-6860.1371
-7030.5703
-7174.9586
-5494.993
-5779.2851
-5958.8578
-5662.9035
-5738.2753
-5845.7036
-6030.6801
-4255.4437
-3913.043
-3929.8072
-3931.437
-3861.5315
-4088.171
-4288.8568
-2639.2399
-2094.9082
-2465.9066
-2224.4895
-2242.1856
-2346.4517
-2363.7144
-652.16329
556.52482
693.68448
674.85024
767.34325
478.69006
385.15359
1723.5049
3662.8634
3278.5405
3470.74
3401.874
3240.3345
3204.2153
4348.8345
5015.4215
5562.1582
5245.1934
5540.6266
5381.2937
5339.4581
5917.6556
15787.382
14820.287
15080.35
15011.896
14884.189
15264.191
15099.662
20921.972
15220.847
14136.521
14221.241
14785.154
14443.25
14637.29
14229.247
13966.405
13783.712
13348.73
12921.177
12510.798
12216.546
11661.534
11506.663
11077.638
10753.275
10554.346
10332.688
10185.064
10124.628
10109.938
10154.273
10345.887
10472.304
11086.155
11297.352
11838.74
12392.753
12987.764
13631.44
14288.576
14769.803
15447.218
16083.264
16874.642
17225.775
16972.71
17182.652
17351.532
17242.889
17280.209
17061.787
17287.749
17378.24
23415.908
8821.4963
8884.8288
7271.9513
7615.8592
8121.7482
7674.4497
8181.1587
8143.8872
8280.8741
8218.8104
8289.652
8130.8972
8073.3592
7839.5285
7603.2254
7593.8325
7364.3443
7156.893
7071.6515
6860.628
6740.5028
6668.3983
6572.7155
6622.3587
6681.9345
6324.1901
6701.0937
7428.0223
7734.0292
8157.1447
8613.8927
9172.9077
9540.9734
10171.44
10490.462
10925.429
11256.871
11292.522
11539.213
11686.281
11855.867
11800.01
11919.014
11817.415
12256.249
11291.171
15900.56
3353.3359
3097.803
2776.0161
3083.1679
3062.7816
2451.8552
3211.0379
2673.6657
3045.3236
2940.8303
2920.7638
3008.2639
3170.0598
3790.1655
3924.9753
3951.2755
4026.5123
3997.0035
4085.8131
4017.1331
4014.631
3943.4488
3826.1436
3646.6354
3460.868
3141.8806
2970.0863
2378.2119
1981.6919
1482.3657
1086.157
587.66408
337.86914
65.381704
-64.338236
48.983183
373.68413
795.29117
1269.3322
2233.7904
3237.5002
4491.6965
5836.7789
7701.9772
9216.0383
11597.582
11126.286
1406.3741
1145.7594
230.55067
1486.818
361.2597
1076.7642
26.578185
477.47658
634.01289
312.67931
907.20629
481.75452
1056.2419
1880.6742
1996.6676
2185.8354
2196.7935
2225.2203
2240.4584
2169.6364
2042.7547
1923.625
1628.7939
1471.3947
1080.4118
897.50096
453.1619
117.53714
-262.8494
-566.88585
-905.51152
-1134.3527
-1268.6124
-1466.0369
-1315.3817
-1188.7144
-845.59765
-399.43792
553.41676
1496.7791
2964.1989
4286.8745
6488.7582
8485.8813
11284.632
14178.414
13204.928
3164.0638
988.10047
1432.5532
1110.4125
1320.5591
1261.278
1648.8497
1591.413
1427.8855
1886.1742
1472.8826
1943.8027
1826.4667
1916.4688
2093.0665
1984.0986
2051.7037
1976.8418
1961.4355
1833.2257
1738.6253
1544.1578
1409.8087
1115.9407
788.54277
464.84275
-56.100836
-418.9987
-891.35953
-1359.2813
-1802.7181
-2136.887
-2467.123
-2621.3184
-2522.0881
-2440.2773
-1807.6605
-1151.8632
-70.011698
1381.8884
2983.728
5189.7526
7672.9257
10266.12
13237.163
17067.448
19167.022
7226.7879
6076.9985
4685.1929
6193.2285
4837.4827
5918.0076
5353.6024
5083.9406
5423.4656
5042.7028
5507.5312
5138.6191
4915.6562
4715.6338
4453.6981
4246.2997
4038.2365
3870.2894
3716.2338
3614.4875
3506.878
3444.1416
3394.9085
3265.6266
2469.1179
2203.8132
2370.2473
2403.7277
2516.8873
2650.0427
2902.5197
3158.8447
3496.1642
4007.1793
4498.9857
5105.0196
5886.6685
6790.2192
8231.0723
9194.2141
10983.654
12639.977
14375.453
16531.921
18488.182
21279.858
21465.9
18650.31
11873.429
13662.238
12166.428
13443.104
12764.984
12445.362
12240.804
11375.836
10962.854
10724.127
10996.684
10055.843
9663.1665
9079.2554
8592.6681
8159.1882
7697.9513
7288.35
6833.8472
6348.6598
5793.7525
5256.0946
4398.8327
4029.4663
3210.3423
2904.71
2523.6194
2021.7766
1753.0627
1424.5109
1269.1571
1215.8609
1435.772
1655.0186
3189.5613
3669.2025
4631.8595
5801.7735
7891.3541
9758.9681
11922.904
14360.822
16885.018
19215.557
22192.649
22408.307
15178.572
12520.135
12235.324
12007.614
12198.583
12278.867
12861.051
14004.388
14320.811
13308.554
13274.209
13152.205
13515.094
13858.461
13401.221
14229.571
14172.412
13987.285
14009.824
14080.427
13998.545
13457.407
13865.898
13953.191
14057.159
13912.62
13807.669
13418.984
13402.292
13964.663
14236.744
14211.035
14179.01
14109.748
13684.322
13273.983
13540.376
13622.576
13810.823
13650.419
13560.848
13456.138
13301.405
13535.4
13619.814
13539.173
13476.144
13553.463
13375.359
13023.019
13145.319
13135.537
13332.021
13258.398
13136.588
13146.088
12969.004
13124.372
12934.818
13071.657
12849.672
13071.178
13022.633
12671.222
12673.27
12635.762
12666.976
12615.306
12703.905
12693.301
12439.754
12512.428
12348.85
12417.81
12374.492
12440.648
12522.34
12218.671
12097.073
12057.035
12086.643
11994.892
12112.351
12200.899
11951.968
11876.363
11730.507
11763.299
11739.063
11839.889
11815.312
11596.01
11445.55
11453.426
11379.815
11461.122
11440.371
11591.062
11227.114
11213.146
10987.355
11075.54
10955.044
11228.049
11140.874
10831.949
10779.089
10691.524
10728.603
10724.738
10806.751
10810.872
10439.334
10377.025
10259.493
10245.85
10322.874
10446.947
10545.737
9994.1692
9975.742
9887.3986
9891.9593
9953.2691
10121.413
10096.544
9601.4947
9548.5378
9492.4179
9496.968
9625.5133
9755.2162
9820.3215
9197.5089
9157.8353
9130.0571
9172.2096
9246.8524
9431.8068
9517.5844
8857.643
8744.2426
8803.3891
8802.3262
8940.8259
9140.6769
9237.1986
8540.9053
8388.0307
8493.022
8511.3289
8673.7766
8851.7302
8997.3787
8286.7239
8040.3147
8273.2896
8261.2288
8406.0966
8577.2025
8822.4921
8086.1383
7769.776
8131.3132
8018.1238
8203.9347
8397.8068
8687.4766
7925.8907
7509.1964
7874.3002
7855.3988
7981.3564
8138.1495
8592.9316
7721.2176
7352.9844
7907.2549
7703.7203
7821.5259
8079.8303
8446.4789
7817.2471
7226.9991
7679.0923
7717.3568
7777.8553
8028.4295
8694.0392
7834.3746
7308.5738
7858.3935
7767.0567
7821.8375
8035.9812
8768.2032
7974.8511
7343.4728
8061.5491
7818.3306
7934.3888
8132.6997
8991.4986
8222.1996
7564.1055
8270.8774
8041.8744
8169.4502
8316.1149
9305.6761
8564.0235
7875.9324
8607.6324
8409.127
8439.817
8605.9694
9676.7201
8965.6963
8294.4337
9047.0521
8751.5939
8795.7324
8937.6444
10078.139
9437.7032
8834.0176
9469.4659
9277.0795
9279.4299
9408.6669
10748.155
10030.233
9421.2153
10113.748
9879.0608
9866.9339
10079.664
11074.498
10651.937
10139.369
10652.44
10431.468
10375.84
10206.884
11785.357
11166.486
10724.649
11267.435
11128.753
10956.887
11548.13
11892.021
11859.072
11527.169
11981.973
11687.741
11920.237
11584.799
14594.367
12577.066
13127.586
13447.815
13483.116
13215.844
13414.705
13476.317
13078.604
12937.625
13332.248
13132.17
13234.879
13263.608
14477.522
14020.267
13831.998
13963.126
13975.703
13875.373
13953.188
14793.536
14347.673
14195.982
14521.667
14440.647
14573.038
14576.546
15494.735
15223.498
15222.03
15281.471
15329.107
15259.899
15297.983
15909.394
15808.797
15565.271
15803.135
15831.944
15958.652
15931.279
16407.89
15985.347
16022.427
16201.095
16376.571
16260.19
16264.497
16659.13
17324.771
17080.943
17546.457
17422.58
17572.61
17643.542
17617.097
18231.811
18931.518
18718.436
18911.124
18971.466
18942.065
18809.031
22791.761
22476.982
22978.332
22762.038
22931.32
22936.116
23134.632
6387.0846
4735.8397
4256.8902
4095.6239
4090.3615
4278.8194
4851.2044
7036.1955
7440.0479
6941.2374
7036.8481
7059.4655
7212.1975
7487.5642
6891.6269
7095.1275
7178.1962
7006.2031
7106.8315
6871.6005
7004.3378
6944.7432
7331.2007
7532.0429
7548.9605
7462.2487
7380.1378
6958.4961
6964.8865
7211.212
7530.3445
7419.7945
7520.0339
7248.2026
7163.6036
7058.9141
7259.6963
7180.1496
7180.224
7125.439
7019.1869
6940.1511
7014.4481
7184.0527
7305.9424
7296.2687
7294.6174
7225.6821
7063.9331
7125.207
7273.6943
7138.091
7120.2869
7112.7288
6996.0148
7046.8859
7106.4732
7211.9654
7145.6977
7109.9814
7061.8505
7066.126
7084.7595
7119.8505
7165.4926
7041.288
7007.2538
7074.349
7007.67
7012.1435
6992.0476
7137.047
6984.655
6979.0524
6908.5799
6904.2
6972.9856
6915.8326
7060.2027
6836.2794
6810.5025
6794.6698
6802.7814
6789.1181
6752.8456
6885.0377
6793.1866
6756.9396
6702.4766
6705.158
6645.4552
6636.3925
6681.6894
6632.0002
6517.891
6542.9927
6431.9652
6585.5462
6523.6863
6501.4098
6473.3446
6322.5589
6420.0726
6230.6094
6311.7771
6323.0507
6248.0658
6221.0331
6148.4487
6197.728
6012.5949
6108.5133
6055.3176
6089.0613
5996.7574
5958.7576
5931.9198
5817.8812
5964.563
5843.1106
5866.3615
5780.5764
5767.1673
5758.8595
5597.235
5675.7131
5601.7598
5684.5725
5577.0713
5559.9793
5544.3248
5356.7643
5521.8239
5399.1521
5509.6687
5406.5355
5409.2745
5361.5176
5191.0069
5352.9699
5199.7902
5371.8965
5275.3746
5243.8676
5194.6468
5044.947
5173.0784
5078.5098
5312.8612
5191.3786
5181.4526
5130.7132
4936.6319
5103.2767
5056.987
5261.9582
5146.1228
5140.8998
5011.1962
4905.2593
5045.8834
5113.4752
5313.4467
5223.1837
5143.0865
5110.8719
5034.9448
5131.5089
5278.9216
5489.9846
5300.6568
5282.9184
5271.4394
5119.569
5197.6444
5553.1351
5779.5533
5857.4545
5633.9068
5530.1903
5409.6349
5627.3859
6037.5382
6303.4915
5929.0359
6030.7023
5974.827
5982.8068
5951.5907
6654.0795
6682.1783
6292.6699
6423.1565
6405.187
6453.5239
6325.9336
7080.0053
7198.6468
7205.2866
7082.786
7014.5401
7146.5309
6857.533
7833.518
7975.3874
7731.0969
7759.2548
7688.2894
7866.3697
7520.1266
8618.5018
8652.239
8503.4704
8555.7328
8414.8691
8670.063
8204.3602
9416.8483
9467.3646
9281.3488
9322.4703
9185.5779
9548.1574
9070.6519
10290.068
10279.803
10073.951
10178.998
10061.592
10479.855
9754.5086
11147.919
11032.952
10860.665
10966.429
10802.593
11081.334
10606.832
11876.398
11806.739
11611.811
11755.131
11529.534
12211.791
11523.002
12741.436
12489.214
12354.949
12428.672
12447.484
12639.04
12192.476
13401.292
13199.726
12978.16
13191.809
12823.74
13461.774
12696.911
14008.356
13536.857
13459.917
13701.832
13515.776
14121.559
13473.996
14663.497
14292.555
14204.322
14219.928
14092.108
14530.957
13969.831
15052.071
14373.648
14338.388
14460.975
14380.312
14850.82
14286.753
15507.313
15010.096
14928.603
15080.17
14864.523
15251.793
14751.342
15809.863
15042.719
15020.041
15078.18
14917.207
15390.98
14931.917
15991.296
15484.636
15419.399
15602.029
15522.757
15814.593
15273.664
16053.053
15441.926
15426.392
15474.624
15203.751
15498.825
15097.152
16626.944
16255.046
16027.893
16081.352
16107.556
16592.217
16138.527
15553.86
14655.3
14731.402
14753.31
14580.562
14802.393
14371.521
16258.346
15812.026
15680.768
15521.676
15562.595
15535.38
15778.106
2630.2557
1937.4527
1614.3468
1542.1004
1457.4144
1594.6018
1745.7675
2178.3599
2343.5634
2122.217
2188.502
2143.5231
2137.4361
2319.3093
2726.536
2714.6741
2647.4065
2664.4676
2610.0672
2559.8406
2584.9611
2353.1913
2579.1856
2877.8507
2990.504
2897.24
2923.8669
2599.4556
2769.0123
2924.7412
2940.1353
2852.6688
2839.9879
2642.0233
2813.3943
2545.8686
2311.8883
2390.8625
2646.4665
2491.4572
2452.84
2402.605
2899.4236
2647.8828
2888.4174
2935.4769
2861.3484
2964.3324
2835.9654
2845.7511
2464.545
2434.38
2346.4382
2356.7632
2404.481
2339.5775
2817.6578
2440.1593
2588.0247
2645.669
2631.0484
2761.5096
2645.8526
2826.654
2374.8949
2460.8884
2359.3448
2326.7927
2460.8227
2463.2
2799.1722
2291.3129
2409.5059
2290.9461
2329.9134
2429.2319
2393.4712
2819.2391
2154.8832
2341.9629
2213.2755
2358.8702
2377.1432
2505.4546
2728.1024
2016.9302
2173.0441
2199.6267
2219.0724
2290.1171
2416.7973
2401.0272
2154.5962
2154.942
2097.8741
2175.9689
2316.6682
2257.1897
2102.662
2149.9647
2150.9603
2098.9904
2032.1476
2236.7693
2289.8713
1954.6017
2088.7637
2075.2823
2030.5553
2000.6746
2144.6193
2221.1791
1937.0323
2005.1463
2080.9801
2003.1966
1935.6587
2140.6114
2223.9724
1838.5879
1955.9796
2021.1595
1951.7765
1909.6182
2127.9755
2153.0413
1849.0467
1949.9574
2033.1619
1985.3985
1933.6879
2121.3829
2228.1237
1841.789
1934.4626
2027.9968
2007.6515
1953.1086
2170.9051
2252.3447
1912.4849
2016.3274
2113.7318
2102.3969
2085.0429
2245.025
2353.6918
2010.4268
2103.1681
2189.8102
2221.8598
2192.0308
2353.1991
2489.602
2194.0716
2252.2891
2391.3045
2386.5266
2403.6735
2533.5503
2708.7441
2454.3808
2471.8485
2584.0033
2625.0482
2665.6629
2712.0179
2849.0007
2793.9275
2663.3812
2863.8886
2940.1939
2928.5096
2922.828
3260.4276
3155.0527
2932.7182
3191.4377
3158.9484
3188.6381
3271.103
3410.8445
3679.4225
3328.6266
3523.5243
3566.9303
3658.7026
3513.2764
3908.8215
4188.8478
3710.7737
3888.5489
3899.5037
4007.1961
3781.9149
4321.3249
4829.126
4125.0295
4397.739
4275.7815
4492.7758
4154.3857
4803.3562
5527.5072
4657.7613
4745.3619
4729.7447
4965.4095
4476.993
5313.5285
6253.4021
5113.3807
5312.9756
5238.3309
5469.9319
4966.1824
5904.4025
7036.9415
5728.979
5870.6036
5713.2086
6065.1669
5419.1194
6439.7312
7837.8575
6311.6086
6413.1893
6301.6508
6616.6178
5875.7225
7045.5128
8582.1494
6925.6703
7076.1773
6899.1395
7266.7469
6605.2933
7762.1178
9468.9784
7672.1663
7755.8528
7577.3631
7979.6073
7164.2159
8242.1263
10184.411
8335.2323
8433.4564
8267.9037
8627.8011
7921.2109
8932.2512
10949.344
9100.9999
9186.2188
9014.8431
9466.775
8619.9514
9643.7196
11713.273
9817.7669
10092.845
9752.7193
10300.612
9425.986
10278.652
12237.159
10766.674
10669.891
10665.623
10970.172
10236.72
10911.272
13163.441
11187.33
11622.092
11317.869
11872.079
11063.783
11553.226
13552.22
12336.938
12464.014
12280.597
12649.379
11866.399
12223.176
14198.814
12633.387
13039.751
12783.287
13287.266
12788.782
12985.245
14826.85
13853.281
14036.941
13872.415
14241.323
13670.309
13480.018
15348.377
14347.83
14537.175
14440.286
14682.59
14299.194
14374.851
16415.979
15422.333
15542.803
15481.992
15673.412
15598.197
15121.691
15919.485
15524.778
15688.603
15819.995
16020.934
15789.718
15612.762
11885.02
11102.383
11007.332
10915.936
11238.519
10958.152
11363.071
1189.6441
897.85089
662.41649
634.76029
572.08541
608.25837
472.98435
610.25586
946.47349
964.55931
1089.5172
1040.2285
1009.588
971.74759
582.76635
551.53262
431.00943
476.79262
445.16159
407.05143
228.66878
626.87286
1153.5807
1476.9717
1644.944
1601.693
1513.4513
1218.8033
500.41367
564.99424
316.98068
245.26696
176.62557
151.10278
221.4836
634.09359
909.0069
915.23243
1144.8278
1155.16
1226.4208
970.35724
600.31856
534.23618
440.99568
534.14909
451.42318
279.07242
492.60529
891.25871
743.79871
604.24501
716.91054
596.75698
699.5866
642.07837
884.70082
760.69544
687.82265
654.39424
800.50216
629.19635
867.91924
1009.9618
883.44557
537.88137
652.64589
573.14705
533.83272
531.71156
1063.623
850.00875
876.09621
792.91419
1028.579
840.13945
1027.69
1126.5454
1073.9184
798.64957
699.95307
854.51193
684.67704
803.32288
1245.0977
1033.3369
685.43217
948.12941
1097.6475
814.58158
1065.9489
1197.3614
1266.7142
541.0249
809.11121
1020.2274
873.72726
954.39188
860.8845
1143.5912
1097.0796
875.95711
1152.4517
864.48718
1034.1976
911.5682
1177.0329
1171.1611
992.83146
1189.7143
1004.2151
1145.7317
975.4317
1240.6488
1272.8949
1087.3942
1303.8868
1069.8145
1234.2396
1096.6501
1327.3694
1372.3425
1193.3511
1388.246
1176.3844
1331.4349
1190.1997
1394.0766
1494.3311
1290.2218
1506.92
1272.8419
1430.2467
1371.3191
1511.5339
1594.806
1414.0885
1611.3805
1374.7221
1546.7576
1570.0716
1563.2628
1745.2125
1560.9362
1703.2264
1493.3903
1626.4016
1775.4981
1712.7961
1884.2926
1670.5114
1826.7186
1630.0245
1761.1911
2036.9588
1830.4393
1986.8755
1863.417
1940.1979
1755.0654
1762.2645
2320.0667
1925.5408
2172.6077
1985.7896
2067.3301
1921.8484
1966.0826
2586.9219
2127.498
2345.4252
2121.7923
2162.7289
2118.3211
1984.6836
2894.3998
2331.3488
2531.5912
2315.9683
2382.507
2327.5842
2161.6942
3119.044
2505.7358
2710.3421
2540.7538
2563.4747
2586.6239
2284.2822
3499.9204
2625.4463
3013.0895
2788.2448
2756.0231
2921.8564
2437.8595
3846.2662
2908.7356
3177.9663
3142.5407
2915.5623
3263.0359
2543.5595
4191.5087
3175.9769
3473.4998
3420.5809
3217.0977
3654.1718
2739.1704
4587.2437
3483.5113
3778.8383
3835.9476
3511.6902
4073.8681
2931.128
5049.8792
3845.3387
4129.603
4178.4221
3765.9427
4473.115
3139.2661
5458.9791
4171.9173
4484.414
4610.9872
4223.5465
5051.7157
3508.373
6058.8063
4661.1242
4954.7214
5091.9116
4644.4677
5431.1235
3781.4502
6546.7985
5087.1527
5378.6241
5542.6223
5081.3598
6011.4911
4201.0003
7169.6983
5606.282
5878.379
6052.994
5673.7102
6424.1363
4752.6282
7888.0703
6226.0119
6455.759
6746.1953
6114.3593
7163.8211
5257.0989
8343.22
6818.1414
7062.2893
7151.1823
6859.4808
7596.1547
5968.0074
8850.5378
7713.556
7741.0039
8038.5458
7524.5746
8416.3965
6698.718
9149.7756
8456.5706
8524.4564
8595.1759
8315.9187
8937.0699
7482.1031
10077.96
9688.3522
9280.8738
9702.6269
9213.0076
9947.1271
8653.5982
11292.78
10386.921
10341.594
10349.527