/*--------------------------------*- C++ -*----------------------------------*\
  =========                 |
  \\      /  F ield         | OpenFOAM: The Open Source CFD Toolbox
   \\    /   O peration     | Website:  https://openfoam.org
    \\  /    A nd           | Version:  6
     \\/     M anipulation  |
\*---------------------------------------------------------------------------*/
FoamFile
{
    version     2.0;
    format      ascii;
    class       pointScalarField;
    location    "0.73";
    object      E;
}
// * * * * * * * * * * * * * * * * * * * * * * * * * * * * * * * * * * * * * //

dimensions      [1 -1 -2 0 0 0 0];

internalField   nonuniform List<scalar> 
625
(
20204.907
17832.461
23230.365
15965.909
17521.207
18030.482
20214.887
25042.425
4159.7671
1392.4354
9256.0459
10021.165
5034.7002
27151.675
24200.506
19036.701
17419.156
16269.209
14052.679
13433.177
12153.851
9899.7621
8300.675
4578.4978
1352.0419
-2977.6259
-7200.8827
-12106.859
-16703.278
-21312.582
-25124.133
-27922.484
-26855.588
-24321.981
-17367.801
-9781.8776
6040.1981
23170.875
12603.176
14958.933
8742.9963
3620.2396
1432.0225
-3642.0798
-4925.79
-6171.016
-6079.7855
-3639.0689
-437.68736
5008.6739
11903.416
20422.55
29883.163
39679.098
48585.374
55432.29
58731.829
57143.12
52048.774
35761.143
3698.2047
1065.8007
9510.2797
33753.943
36094.504
17225.174
16971.095
12992.251
2071.2703
2134.7282
-2005.6404
-3510.9209
-4011.3509
-3653.5319
-150.90869
4579.8649
11987.458
21342.304
31153.77
41407.111
49803.574
55545.557
57346.103
54747.452
47884.313
40087.936
27055.638
9157.2191
13226.03
12468.415
5047.9221
-1706.4872
-6794.7616
-9976.1114
-11013.403
-10991.244
-9827.699
-8268.2718
-6282.9949
-4513.8158
-2167.0303
4.570455
3126.763
3049.1374
5499.3263
8608.418
9527.8746
12880.349
12573.853
17622.759
19716.206
25769.746
14424.408
15273.557
14776.673
14385.879
13672.305
13838.196
16587.332
18276.321
18318.165
23417.748
24761.888
25293.355
9695.6862
6755.5865
6206.6865
3786.825
1216.0596
-316.74522
-2601.6968
-3736.3115
-3998.0409
-3778.7607
-1821.5763
756.99206
4951.5962
10308.327
16804.439
23794.062
30718.449
36788.696
40886.115
41996.207
41576.514
36241.505
26221.322
3572.2988
2863.9756
3223.2468
1982.9456
1737.4276
1280.916
265.22811
533.55138
378.93396
1190.3828
2225.6096
3877.7964
5991.4499
8310.4685
10638.557
12865.529
14747.384
15699.861
16837.323
15118.723
14449.257
11930.263
10576.138
7446.3049
5745.7659
5705.6146
5453.6194
6602.0911
6555.5955
7668.5884
7318.1811
6745.3838
5527.6163
3158.1668
338.99015
-3642.8608
-8379.5275
-13959.909
-19866.089
-26045.078
-30542.376
-34130.735
-32413.77
-26819.226
-16132.087
2609.0653
2534.4105
2886.3101
2689.3796
934.62417
772.71521
1596.3086
4470.6832
5113.6315
5428.3887
27170.004
28853.229
30425.972
29636.612
27758.338
28025.94
16317.494
13964.699
17678.075
11830.125
13953.269
13151.748
8533.5318
5860.0045
9162.4105
2656.2773
3275.9704
2872.0024
403.66442
-1571.3118
1360.7359
-2724.0776
-4852.5369
-2667.438
-4389.3005
-5547.975
-4153.6892
-3753.6203
-6312.2887
-3981.5952
-2952.8559
-4426.8008
-2999.7388
977.85914
-1024.2095
841.48828
6136.7104
5058.768
6628.9044
13897.087
13093.197
14328.222
22888.386
23092.06
24341.521
33118.963
34205.12
34996.541
43208.442
44907.124
45695.374
51954.688
54227.507
55059.575
58175.856
60422.253
61426.542
60403.432
62198.19
63480.161
57313.061
59325.33
60810.591
50340.652
51621.824
53166.467
38144.403
38110.733
40586.441
10008.046
11411.654
12212.733
7603.9545
7991.0317
7325.674
26723.828
28378.077
28457.644
24220.105
20961.069
20712.855
22251.172
18988.879
19700.262
19923.143
18392.639
18370.934
16421.354
14123.612
13923.989
15648.006
14293.368
14077.06
13195.715
10862.466
11117.69
11509.396
11150.526
10200.461
9862.7334
8257.3789
8387.2967
7420.0424
6583.5464
6477.9036
3763.5523
3358.5876
4407.8593
676.99439
1210.4119
1932.509
-2559.3859
-2591.0367
-528.25045
-6622.8795
-5909.0808
-3504.4008
-10271.567
-9812.9515
-6640.0025
-14238.622
-13674.424
-9943.5279
-17883.576
-17401.717
-13250.779
-20937.465
-20506.759
-16030.755
-22487.806
-22194.019
-17780.314
-22234.552
-22648.62
-17693.492
-18863.023
-20781.869
-15448.472
-11808.301
-14207.988
-9894.7361
-5662.942
-4953.4359
-3046.5374
8303.9793
9090.2007
10241.129
14450.433
11925.819
9273.3313
7012.3971
5761.5546
1652.1455
1196.9825
-1541.8278
-2140.136
-2779.7206
-1296.7434
764.87315
4447.5104
9612.6641
16118.404
23166.052
30150.383
36004.345
39892.568
41556.51
40055.504
35407.141
32402.358
1899.3271
7447.4506
2217.6803
4941.3729
3582.734
3518.1816
4138.5766
4032.3062
5315.0239
5274.6419
5810.0242
5832.2763
4985.1025
3997.3465
2135.5918
-149.22534
-2528.4625
-4936.2475
-6591.087
-7415.8181
-6817.9733
-4567.25
5283.9076
12099.051
4639.6758
8221.0448
6839.2339
8148.7529
8637.172
8061.4907
8922.4405
7112.9781
6209.0168
3273.3319
-357.49277
-5401.0777
-11538.17
-18269.917
-25195.255
-31174.975
-35254.455
-36084.076
-32423.576
-24081.483
-10272.335
7741.3706
12534.999
11377.963
11075.714
10811.88
10549.935
9819.4946
8492.1399
8456.7554
8224.876
6076.0879
5735.8339
5193.5346
4000.9113
3820.651
3925.7247
1653.6273
1182.4776
925.11421
-638.02252
-699.46985
-548.4466
-1838.8552
-2048.5489
-2147.1525
-2738.8084
-3133.2729
-2986.1535
-2486.4953
-2407.0771
-2534.3411
-877.88263
-1210.3523
-1378.8967
1621.2204
1641.1665
1570.8205
6206.1209
6004.374
5804.3826
11857.867
11698.582
11551.385
18803.149
18541.591
18532.729
26106.031
26057.821
26135.158
33376.934
33362.292
33565.499
39247.792
39715.186
39858.835
43293.052
43673.181
44346.368
42969.247
46856.073
45682.949
41809.079
44312.137
43733.183
36968.357
37749.685
38391.42
28577.38
29922.513
30996.16
2993.0169
2836.6507
2265.1999
5355.7974
7258.9639
7114.8315
3052.0229
1574.5603
2023.5574
3262.4516
3693.6006
4161.2412
3204.3265
1723.5208
2276.2675
2868.9837
1593.3891
2286.5831
2836.2229
1771.9802
2411.488
3441.7556
1816.1224
2168.9863
3334.5434
2429.476
3087.7562
4285.9945
3279.6208
3663.6578
4713.0597
3951.82
4221.34
5279.4686
4857.561
5037.4131
5855.0303
5744.7226
5428.7364
6152.4084
6248.9133
5737.3482
6446.4275
6735.5962
5853.0294
6500.4773
6707.4965
5694.3857
6357.022
6587.0796
5287.2319
5981.3544
5716.4821
4776.7293
5709.9296
5313.1665
4234.1797
4401.7537
4831.35
3537.2508
1831.5217
8008.6636
4282.1704
3345.7976
3415.8006
3447.555
6417.5467
6227.0369
6733.5068
8471.3706
9444.7118
10760.861
5503.8839
5543.0992
7491.1251
6041.6917
8953.2147
9125.8075
6829.8014
6973.5719
7633.5783
6654.9561
8559.6844
8428.7967
7150.7539
8556.0615
8583.6531
8028.5359
8784.5376
8392.2503
7113.8384
8686.1732
8684.2017
6974.2071
7926.3581
7936.0961
5368.5563
6473.8226
6435.7923
3079.3337
3779.5193
4138.6211
9.9538928
105.12538
753.71215
-4269.2353
-4915.5148
-3567.5381
-9261.766
-10853.659
-8998.7683
-15023.457
-17615.96
-15052.963
-21035.414
-24424
-21319.949
-26658.783
-30460.34
-27139.021
-30783.157
-34829.917
-31271.097
-32932.216
-35770.666
-32892.693
-30041.489
-33527.026
-30733.495
-24966.434
-25351.638
-23556.373
-13180.708
-12995.385
-11197.514
4861.7383
5194.3505
6764.9015
)
;

boundaryField
{
    free
    {
        type            zeroGradient;
    }
    fixed
    {
        type            zeroGradient;
    }
    freeTop
    {
        type            zeroGradient;
    }
}


// ************************************************************************* //
