/*--------------------------------*- C++ -*----------------------------------*\
  =========                 |
  \\      /  F ield         | OpenFOAM: The Open Source CFD Toolbox
   \\    /   O peration     | Website:  https://openfoam.org
    \\  /    A nd           | Version:  6
     \\/     M anipulation  |
\*---------------------------------------------------------------------------*/
FoamFile
{
    version     2.0;
    format      ascii;
    class       pointVectorField;
    location    "0.75";
    object      u;
}
// * * * * * * * * * * * * * * * * * * * * * * * * * * * * * * * * * * * * * //

dimensions      [0 1 0 0 0 0 0];

internalField   nonuniform List<vector> 
28033
(
(0 0 0)
(0 0 0)
(2.6899072 -0.3912311 0.0056141463)
(2.4897635 -0.99061853 0.0045884605)
(0 0 0)
(0 0 0)
(2.4898912 -0.99205614 0.0041494901)
(2.6900193 -0.39270598 0.0050995921)
(0 0 0)
(0 0 0)
(0 0 0)
(0 0 0)
(0 0 0)
(0 0 0)
(0 0 0)
(0 0 0)
(0 0 0)
(0 0 0)
(0 0 0)
(0 0 0)
(0 0 0)
(0 0 0)
(0 0 0)
(2.677048 -0.4290789 0.0053230273)
(2.6643015 -0.46658072 0.0052369642)
(2.6516239 -0.50398379 0.0051302983)
(2.6390385 -0.54134326 0.0050889463)
(2.626514 -0.57864093 0.0050666913)
(2.6140391 -0.61591286 0.0050625831)
(2.6016208 -0.65316595 0.0050793824)
(2.5892391 -0.69043233 0.0051039985)
(2.5768837 -0.72771334 0.0051222884)
(2.5645359 -0.76504065 0.0051418001)
(2.5521976 -0.8024116 0.0051344023)
(2.5398258 -0.83985483 0.0050965416)
(2.5274539 -0.87737138 0.005046432)
(2.5149898 -0.9149755 0.0049636326)
(2.5025052 -0.95270767 0.0048099534)
(0.0066416779 0.0099554787 0.011062322)
(0.0081574834 0.015804543 0.015148953)
(0.010507567 0.021941469 0.018252219)
(0.013966481 0.028243366 0.0202186)
(0.018095572 0.034691051 0.021445139)
(0.023440945 0.041222454 0.022305655)
(0.029725207 0.04779807 0.022796476)
(0.037075405 0.054198312 0.023052065)
(0.045398415 0.060647436 0.023162996)
(0.054744593 0.066823962 0.02316397)
(0.064986977 0.072922083 0.023071317)
(0.076198883 0.078755311 0.022898209)
(0.08828341 0.08443047 0.022765657)
(0.10132288 0.089820835 0.02251279)
(0.11513867 0.094987066 0.022323566)
(0.1298551 0.099856743 0.022043039)
(0.14536726 0.10449091 0.021841149)
(0.16171631 0.1087798 0.021571331)
(0.17881014 0.11282811 0.021328484)
(0.19670119 0.11653018 0.021056702)
(0.21531242 0.11995396 0.020829031)
(0.23467954 0.12303786 0.02053776)
(0.25473618 0.1258102 0.020312082)
(0.27551755 0.12827 0.020035942)
(0.29694204 0.13037981 0.019777632)
(0.31905137 0.13218209 0.019512344)
(0.34178317 0.13362253 0.019262008)
(0.36516653 0.13476868 0.0189843)
(0.38913773 0.13553106 0.018713351)
(0.41370733 0.1359819 0.018451374)
(0.43886774 0.13609681 0.0181671)
(0.46455629 0.13585627 0.017884998)
(0.49080173 0.13529291 0.01761383)
(0.51757163 0.13436089 0.017327497)
(0.54484905 0.13312677 0.017034191)
(0.57261954 0.13152722 0.01674448)
(0.60084365 0.12960899 0.01646453)
(0.6295488 0.12735699 0.016176424)
(0.65866331 0.12477289 0.015876924)
(0.68821512 0.12187481 0.015598657)
(0.7181572 0.11864682 0.015311147)
(0.74849306 0.11512367 0.015038116)
(0.77919901 0.11127847 0.014759345)
(0.8102658 0.1071414 0.014497299)
(0.84166661 0.10270225 0.014236101)
(0.87340405 0.097980346 0.013985817)
(0.90544835 0.092973642 0.013743532)
(0.93780485 0.087691778 0.013508396)
(0.970445 0.082141111 0.013282627)
(1.0033746 0.076325824 0.013063794)
(1.0365693 0.070254984 0.012852367)
(1.0700314 0.063930416 0.012647267)
(1.1037436 0.057362737 0.012447916)
(1.1377025 0.050552044 0.012253459)
(1.1718977 0.04350939 0.012062965)
(1.2063218 0.036235012 0.011876515)
(1.2409674 0.028738458 0.01169263)
(1.2758268 0.021021734 0.011511935)
(1.3108926 0.013092456 0.011333476)
(1.3461578 0.0049532779 0.011157828)
(1.3816154 -0.0033885805 0.010984316)
(1.4172593 -0.011930694 0.010813304)
(1.4530801 -0.020665148 0.010645647)
(1.4890779 -0.029596215 0.010477291)
(1.5252362 -0.038702745 0.01031786)
(1.5615613 -0.048002795 0.010151232)
(1.598032 -0.057479947 0.0099950606)
(1.6346544 -0.067131777 0.0098362714)
(1.671417 -0.076957301 0.0096708038)
(1.7083189 -0.086953256 0.0095118271)
(1.7453454 -0.097117547 0.0093496964)
(1.7824937 -0.10744897 0.0091864922)
(1.8197622 -0.11793444 0.0090156075)
(1.8571295 -0.12859411 0.0088466564)
(1.8946099 -0.13938503 0.0086647843)
(1.9321644 -0.15036206 0.0084898795)
(1.9698199 -0.16144038 0.0082974439)
(2.0075295 -0.17271497 0.0081169132)
(2.0453208 -0.18406143 0.0079172074)
(2.0831488 -0.1956042 0.0077359855)
(2.1210391 -0.20720469 0.0075316285)
(2.1589455 -0.21897316 0.0073564931)
(2.1968965 -0.23080854 0.00715898)
(2.2348416 -0.2427694 0.0069933134)
(2.2728202 -0.25479898 0.0068135313)
(2.3107828 -0.26692507 0.0066577507)
(2.3487482 -0.2791319 0.0065038782)
(2.3866954 -0.29138417 0.0063703952)
(2.4246298 -0.30372258 0.0062387732)
(2.462539 -0.31607159 0.0061312383)
(2.5004153 -0.3285306 0.0060449042)
(2.5382999 -0.34090901 0.0059369103)
(2.5761111 -0.35345385 0.0059186524)
(2.6139824 -0.36591303 0.0058312306)
(2.6518081 -0.37839882 0.0058343282)
(0.0025437914 -0.011861916 -0.013344931)
(0.0044453978 -0.015855259 -0.016136105)
(0.005715807 -0.02190374 -0.020817939)
(0.0071373859 -0.026767095 -0.022588053)
(0.010563102 -0.033029745 -0.024281125)
(0.014476313 -0.03943979 -0.025136709)
(0.019443799 -0.045486241 -0.025696798)
(0.025383347 -0.052246078 -0.025825355)
(0.032341618 -0.058880702 -0.025842822)
(0.039984291 -0.065608826 -0.025658026)
(0.048624279 -0.072544161 -0.025390763)
(0.05793071 -0.079441442 -0.025048127)
(0.068128997 -0.086534509 -0.024632866)
(0.078993729 -0.093650275 -0.024255937)
(0.090649277 -0.10083496 -0.023780982)
(0.10299195 -0.10816639 -0.023378398)
(0.11604393 -0.11546563 -0.022904547)
(0.12980755 -0.12297447 -0.022455931)
(0.14422605 -0.13049225 -0.022021748)
(0.15934145 -0.13812438 -0.021573223)
(0.17509428 -0.14584785 -0.021111554)
(0.19151557 -0.15370215 -0.02070323)
(0.20853251 -0.16156981 -0.020242794)
(0.22623656 -0.16966578 -0.019814449)
(0.24449136 -0.17775693 -0.01938966)
(0.26342188 -0.18603729 -0.018928145)
(0.28288453 -0.19439366 -0.018534433)
(0.3029979 -0.20287563 -0.018062364)
(0.32363269 -0.21148185 -0.017667415)
(0.3448824 -0.22018485 -0.017193242)
(0.3666499 -0.22904831 -0.016780153)
(0.38899336 -0.23799496 -0.016326461)
(0.41184831 -0.24708771 -0.015894589)
(0.43524906 -0.25629016 -0.015442456)
(0.45914479 -0.26562091 -0.015001951)
(0.48355016 -0.27505652 -0.014562686)
(0.50843731 -0.28460849 -0.014096648)
(0.53380167 -0.29430254 -0.013658434)
(0.55962292 -0.30407929 -0.013207199)
(0.58590089 -0.31399086 -0.012762579)
(0.61260865 -0.32400333 -0.012318593)
(0.63974281 -0.33412662 -0.011880485)
(0.66728472 -0.34435774 -0.01144502)
(0.6952258 -0.35469324 -0.011017501)
(0.72354977 -0.36513321 -0.010595654)
(0.75224973 -0.37567543 -0.010181163)
(0.78130865 -0.38631899 -0.0097756086)
(0.81072114 -0.3970623 -0.0093773173)
(0.84047228 -0.40790553 -0.0089888309)
(0.87055513 -0.41884547 -0.0086086522)
(0.90095861 -0.42988408 -0.0082377953)
(0.9316743 -0.44101764 -0.0078760643)
(0.96269329 -0.45224678 -0.0075232802)
(0.99400753 -0.46356988 -0.0071796284)
(1.0256085 -0.47498544 -0.0068448117)
(1.0574891 -0.48649199 -0.0065189488)
(1.0896412 -0.49808896 -0.0062014841)
(1.1220581 -0.50977309 -0.0058926269)
(1.1547322 -0.52154412 -0.0055918875)
(1.1876575 -0.5333998 -0.0052985535)
(1.2208266 -0.54533776 -0.0050128064)
(1.2542344 -0.55735728 -0.0047330553)
(1.2878739 -0.56945536 -0.0044594535)
(1.3217406 -0.58163164 -0.0041896258)
(1.355828 -0.5938818 -0.0039245785)
(1.3901327 -0.60620825 -0.0036597009)
(1.4246483 -0.6186033 -0.0033982308)
(1.4593715 -0.63107172 -0.0031327954)
(1.4942978 -0.64360137 -0.0028713373)
(1.5294218 -0.65619309 -0.0025960103)
(1.5647368 -0.66885615 -0.0023251141)
(1.6002429 -0.68156326 -0.0020449285)
(1.6359313 -0.69433482 -0.0017593132)
(1.6717973 -0.70714491 -0.0014681986)
(1.7078361 -0.72000619 -0.0011682038)
(1.7440376 -0.73289806 -0.00086628558)
(1.7803986 -0.74582721 -0.00055448798)
(1.8169092 -0.75877704 -0.00024278187)
(1.8535604 -0.7717501 7.5655797e-05)
(1.8903458 -0.78473119 0.00039192149)
(1.9272534 -0.79772338 0.00071095608)
(1.9642765 -0.81071035 0.0010252221)
(2.0014025 -0.82369581 0.0013381636)
(2.0386254 -0.83666672 0.0016434912)
(2.0759309 -0.84962191 0.0019427067)
(2.1133139 -0.86255681 0.0022328321)
(2.1507618 -0.87546445 0.0025130393)
(2.1882675 -0.88834456 0.0027801617)
(2.2258199 -0.90119462 0.0030385271)
(2.2634154 -0.91400993 0.0032792906)
(2.3010389 -0.92679089 0.0035090426)
(2.3386935 -0.93954824 0.0037231407)
(2.3763611 -0.95227602 0.0039332254)
(2.4140763 -0.96499049 0.0041140019)
(2.4517999 -0.9777576 0.00432997)
(0 0 0)
(0 0 0)
(0 0 0)
(0 0 0)
(0 0 0)
(0 0 0)
(0 0 0)
(0 0 0)
(0 0 0)
(0 0 0)
(0 0 0)
(0 0 0)
(0 0 0)
(0 0 0)
(0 0 0)
(0.0063061365 -0.0049005578 0.0097300322)
(0.0062142079 -0.018640556 0.015794821)
(0.0056368078 -0.019380785 0.019202507)
(0.00809387 -0.028501671 0.022532112)
(0.010611739 -0.032905864 0.023994643)
(0.014967336 -0.039811278 0.024802446)
(0.019761315 -0.045828534 0.025316994)
(0.026016833 -0.052893641 0.025577404)
(0.032791785 -0.059175325 0.025511179)
(0.040579885 -0.066344154 0.025354307)
(0.049309609 -0.073198834 0.025225957)
(0.05848572 -0.08001487 0.024820754)
(0.068844441 -0.087447323 0.024605058)
(0.079533289 -0.094209297 0.024144499)
(0.091382779 -0.10196738 0.023875764)
(0.10356914 -0.1087996 0.023465825)
(0.11668709 -0.11656631 0.023156922)
(0.13040197 -0.12373814 0.022697962)
(0.14481972 -0.13154956 0.022403885)
(0.15995698 -0.13907562 0.021978744)
(0.17564626 -0.14686748 0.021694529)
(0.1920891 -0.15469568 0.021284401)
(0.209089 -0.16268199 0.020978549)
(0.22678535 -0.17072987 0.020617562)
(0.24504101 -0.17885397 0.020276434)
(0.26396006 -0.18718098 0.019945268)
(0.28342126 -0.1954579 0.019579659)
(0.30351779 -0.20407835 0.019256413)
(0.32416342 -0.21257135 0.018891421)
(0.34538111 -0.22140467 0.018555569)
(0.36717164 -0.23021565 0.01820598)
(0.38949027 -0.23920178 0.0178573)
(0.41235525 -0.24829184 0.017500962)
(0.43573914 -0.25751256 0.017144625)
(0.45964031 -0.26686492 0.016796273)
(0.48403488 -0.27625924 0.016428134)
(0.50890511 -0.28589734 0.01607628)
(0.53427302 -0.29556515 0.015725803)
(0.56008187 -0.30536733 0.015377017)
(0.5863513 -0.31528405 0.015028616)
(0.61304855 -0.32530824 0.014691189)
(0.64016961 -0.33544159 0.014358307)
(0.66769948 -0.34567979 0.0140347)
(0.69562549 -0.35602279 0.013720653)
(0.72393529 -0.3664669 0.013417049)
(0.75261828 -0.37701287 0.013124103)
(0.78166219 -0.38765664 0.012842098)
(0.8110574 -0.39839992 0.012571022)
(0.84079288 -0.40923881 0.012310813)
(0.87085985 -0.42017494 0.012060435)
(0.90124835 -0.43120548 0.011820072)
(0.93195086 -0.44233131 0.011587179)
(0.96295813 -0.45355078 0.011362843)
(0.99426298 -0.4648633 0.011143791)
(1.0258568 -0.47626901 0.010931426)
(1.0577332 -0.48776533 0.010722523)
(1.0898833 -0.49935313 0.010518853)
(1.1223011 -0.51102986 0.010317675)
(1.1549785 -0.52279481 0.010120279)
(1.187909 -0.53464674 0.0099254245)
(1.2210854 -0.54658348 0.0097334338)
(1.2545016 -0.55860385 0.0095437901)
(1.2881505 -0.57070613 0.0093568994)
(1.322027 -0.58288751 0.0091718792)
(1.3561244 -0.59514699 0.0089889519)
(1.3904379 -0.6074824 0.008807334)
(1.424963 -0.61988903 0.0086261755)
(1.4596927 -0.63237699 0.0084475223)
(1.4946307 -0.64489933 0.0082655115)
(1.5297474 -0.65753116 0.0080822803)
(1.5650748 -0.67019647 0.0078996409)
(1.6005782 -0.68292384 0.0077139287)
(1.636269 -0.69570463 0.0075229903)
(1.6721334 -0.7085332 0.0073312666)
(1.7081689 -0.72140315 0.0071347809)
(1.744368 -0.73431086 0.0069363115)
(1.7807235 -0.74724854 0.0067351658)
(1.817228 -0.76021134 0.0065337986)
(1.8538726 -0.7731918 0.0063321148)
(1.8906493 -0.78618359 0.0061332216)
(1.9275476 -0.79918082 0.0059369745)
(1.9645602 -0.81217678 0.0057472495)
(2.0016749 -0.82516546 0.0055635223)
(2.0388848 -0.83814214 0.005389673)
(2.0761782 -0.85110012 0.0052249775)
(2.1135472 -0.86403748 0.0050734781)
(2.1509816 -0.87694556 0.0049326167)
(2.1884735 -0.88982885 0.0048079121)
(2.2260137 -0.90267349 0.0046943617)
(2.2635949 -0.91549297 0.0045989107)
(2.3012085 -0.92826804 0.0045126963)
(2.338851 -0.94102699 0.0044473928)
(2.3765108 -0.95374291 0.0043834254)
(2.4142174 -0.9664733 0.004339154)
(2.4519004 -0.97921798 0.0042716887)
(2.502662 -0.95416577 0.004070081)
(2.515129 -0.91647564 0.0040385515)
(2.5275814 -0.87883241 0.0040796331)
(2.5399612 -0.84134126 0.0041305504)
(2.5523279 -0.80389227 0.00423937)
(2.56466 -0.76652047 0.0043443948)
(2.5770049 -0.72920154 0.0044900845)
(2.5893565 -0.69190138 0.0046295064)
(2.6017474 -0.65465779 0.0047656588)
(2.6141493 -0.61737445 0.004908602)
(2.6266278 -0.58012015 0.0050189414)
(2.6391427 -0.54280339 0.0051176114)
(2.6517382 -0.50547407 0.0051889386)
(2.6643683 -0.46800766 0.0052188386)
(2.6771535 -0.43057842 0.0052156244)
(2.6519635 -0.37989506 0.0047603612)
(2.6140469 -0.36740517 0.0045881159)
(2.5762348 -0.35489751 0.0043847237)
(2.5383867 -0.34241499 0.0041952184)
(2.5005297 -0.32996352 0.0039696569)
(2.4626476 -0.31754646 0.0037441176)
(2.4247429 -0.30517215 0.003500882)
(2.3868183 -0.29284552 0.0032451016)
(2.348876 -0.28058075 0.002981721)
(2.3109254 -0.26837759 0.0027035097)
(2.2729665 -0.25625163 0.0024206648)
(2.235012 -0.24420584 0.0021282882)
(2.1970638 -0.23224995 0.0018299383)
(2.15913 -0.22038775 0.0015218992)
(2.1212227 -0.2086352 0.0012127695)
(2.0833509 -0.19699462 0.00090132935)
(2.0455235 -0.18547592 0.00059145699)
(2.0077475 -0.174085 0.00028152565)
(1.9700355 -0.16282726 -2.5889006e-05)
(1.9323941 -0.15171192 -0.00032940215)
(1.8948351 -0.14073988 -0.00062889213)
(1.8573651 -0.12992117 -0.00092319792)
(1.8199951 -0.11925447 -0.0012123957)
(1.7827299 -0.10874983 -0.001496516)
(1.7455821 -0.098404602 -0.001774712)
(1.7085545 -0.088224366 -0.0020489421)
(1.6716455 -0.078213916 -0.0023223101)
(1.6349038 -0.068407645 -0.002577005)
(1.5982729 -0.058727676 -0.0028452365)
(1.5618022 -0.049254284 -0.0031062581)
(1.525484 -0.039955084 -0.0033692324)
(1.4893276 -0.030843476 -0.0036304498)
(1.4533359 -0.021919685 -0.0038941033)
(1.4175168 -0.013188968 -0.0041605606)
(1.3818759 -0.0046543714 -0.0044304495)
(1.34642 0.0036801924 -0.0047047727)
(1.3111556 0.011809918 -0.004984268)
(1.2760898 0.019731303 -0.0052691658)
(1.2412299 0.027438824 -0.0055600644)
(1.206583 0.034928969 -0.0058573103)
(1.1721572 0.042195689 -0.0061610508)
(1.1379601 0.049235168 -0.0064713642)
(1.104 0.056041258 -0.0067888023)
(1.0702854 0.062609378 -0.0071127785)
(1.036825 0.068933429 -0.0074439934)
(1.0036279 0.075008021 -0.0077819284)
(0.97070376 0.08082697 -0.0081268325)
(0.93806256 0.08638424 -0.008478222)
(0.90571508 0.091673241 -0.0088365546)
(0.87367224 0.096688464 -0.0092004617)
(0.84194644 0.10142054 -0.0095704975)
(0.81054934 0.10586932 -0.0099465297)
(0.7794957 0.11001637 -0.010325054)
(0.74879802 0.11387232 -0.010712409)
(0.71847309 0.11741152 -0.01109645)
(0.68853686 0.12064545 -0.011488431)
(0.65899464 0.12357138 -0.011883089)
(0.62986549 0.12616492 -0.012278855)
(0.60122268 0.12837942 -0.01264931)
(0.57296576 0.13036798 -0.013068004)
(0.54519286 0.13196543 -0.013460446)
(0.51797522 0.13317137 -0.013826321)
(0.49118116 0.13414095 -0.014226388)
(0.46494079 0.13472657 -0.014620193)
(0.43921559 0.13498425 -0.015009406)
(0.41411558 0.13484265 -0.015388867)
(0.38949786 0.13446753 -0.015759287)
(0.36557697 0.13362307 -0.01612925)
(0.34217118 0.13256565 -0.016525618)
(0.31944028 0.13111969 -0.016898745)
(0.2973273 0.12934813 -0.01727673)
(0.27586572 0.12727137 -0.0176606)
(0.25515676 0.12475866 -0.017998263)
(0.23503287 0.12208734 -0.018407117)
(0.21567478 0.11901365 -0.018777607)
(0.19706859 0.11557061 -0.019118462)
(0.17914329 0.11196635 -0.019537967)
(0.16206334 0.10787598 -0.019844284)
(0.14568105 0.10370031 -0.020267952)
(0.13018547 0.099030483 -0.0205727)
(0.1155082 0.094199199 -0.020936131)
(0.10157996 0.089084727 -0.021246203)
(0.08857154 0.083798195 -0.021613052)
(0.076502698 0.078035751 -0.021810707)
(0.065250266 0.072386061 -0.022131628)
(0.054959873 0.066284396 -0.022267215)
(0.045676336 0.060089753 -0.022350469)
(0.03731646 0.053775133 -0.022320587)
(0.029939411 0.047377366 -0.022126242)
(0.023616923 0.040896781 -0.02170062)
(0.018346507 0.034315075 -0.020832557)
(0.014182809 0.027718302 -0.019555812)
(0.011100956 0.021785562 -0.017678404)
(0.0083776502 0.015213865 -0.014245228)
(0.0094087551 0.0092865352 -0.0084427485)
(0 0 0)
(0 0 0)
(0 0 0)
(0 0 0)
(0 0 0)
(0 0 0)
(0 0 0)
(0 0 0)
(0 0 0)
(0 0 0)
(0 0 0)
(0 0 0)
(0 0 0)
(0 0 0)
(0 0 0)
(0 0 0)
(0 0 0)
(0 0 0)
(0 0 0)
(0 0 0)
(0 0 0)
(0 0 0)
(0 0 0)
(0 0 0)
(0 0 0)
(0 0 0)
(0 0 0)
(0 0 0)
(0 0 0)
(0 0 0)
(2.489762 -0.99087745 0.0045552065)
(2.4897485 -0.99106558 0.0045142043)
(2.4897438 -0.99121852 0.0044705648)
(2.4897463 -0.99136616 0.0044367008)
(2.4897539 -0.99150008 0.004407777)
(2.4897644 -0.99162119 0.0043896887)
(2.4897745 -0.99172775 0.0043731845)
(2.4897843 -0.99182269 0.0043636002)
(2.489793 -0.99190714 0.0043516305)
(2.4897984 -0.99197709 0.004336687)
(2.4898096 -0.99204764 0.0043225471)
(2.4898158 -0.99208617 0.004294623)
(2.4898307 -0.99213193 0.0042655144)
(2.4898484 -0.99215138 0.004227106)
(2.4898768 -0.99218002 0.0041837014)
(2.690123 -0.39123927 0.0055797884)
(2.6901909 -0.3912987 0.0055753278)
(2.6902562 -0.39135178 0.0055437327)
(2.6903213 -0.3914205 0.0055147609)
(2.6903614 -0.39149695 0.0054838255)
(2.6903988 -0.39158134 0.0054377152)
(2.6904251 -0.39166534 0.0053955154)
(2.6904382 -0.39175651 0.005345398)
(2.6904412 -0.39184796 0.0052981818)
(2.6904311 -0.39194264 0.0052542631)
(2.69041 -0.39204471 0.0052125756)
(2.6903761 -0.39214924 0.005178514)
(2.6903393 -0.39226067 0.0051626557)
(2.6902723 -0.39240288 0.005120592)
(2.6902437 -0.39251041 0.0051170182)
(0.0038331172 0.0077754083 0.011205154)
(0.0057114816 0.01344163 0.01308687)
(0.0078773426 0.019290768 0.016162316)
(0.011338008 0.024958122 0.017431102)
(0.015225845 0.030624569 0.018775177)
(0.020562888 0.036330556 0.019419354)
(0.02663553 0.041937243 0.019898534)
(0.033999994 0.04762619 0.020118017)
(0.042120891 0.053088022 0.020242476)
(0.051380531 0.058546135 0.020264093)
(0.061511272 0.06372408 0.020141397)
(0.072633044 0.06886304 0.020094558)
(0.084600949 0.073639021 0.019883897)
(0.097486218 0.078349162 0.019752901)
(0.11119525 0.082666079 0.019526534)
(0.12580253 0.086873635 0.019364542)
(0.14118888 0.090685242 0.019117012)
(0.15735584 0.094338735 0.018944763)
(0.17434084 0.097606551 0.018704465)
(0.19208224 0.10066612 0.018503152)
(0.21054501 0.10337112 0.018282419)
(0.22975978 0.10579115 0.018074618)
(0.24966988 0.10792348 0.017842034)
(0.27025269 0.10971302 0.017638287)
(0.29154118 0.11120722 0.017403181)
(0.31346781 0.11237056 0.017195223)
(0.33603949 0.11323532 0.01695825)
(0.35922488 0.11374859 0.016741941)
(0.38303645 0.11394705 0.016509807)
(0.40742805 0.1138401 0.016279013)
(0.43238788 0.11336852 0.016040255)
(0.45792198 0.11259485 0.015806713)
(0.48399015 0.11148448 0.015570341)
(0.51057387 0.11005637 0.015326129)
(0.53767316 0.10829767 0.01508337)
(0.56526054 0.1062039 0.014838515)
(0.59332022 0.10381749 0.014592786)
(0.62182657 0.10108861 0.01434518)
(0.65079061 0.098062236 0.014096987)
(0.68016247 0.094721401 0.013859794)
(0.70994846 0.091077177 0.013621671)
(0.74011342 0.087125887 0.013382903)
(0.77066258 0.082894975 0.013156567)
(0.80156822 0.078359199 0.012929895)
(0.8328142 0.073554468 0.012711816)
(0.86439536 0.068467896 0.012501881)
(0.89629132 0.063111326 0.012296081)
(0.92849591 0.05749075 0.012100679)
(0.96099277 0.05161083 0.011910191)
(0.99377604 0.045477196 0.011727389)
(1.0268315 0.039096902 0.011549957)
(1.0601528 0.032472951 0.011379101)
(1.0937291 0.025613651 0.01121178)
(1.1275531 0.018521129 0.011049837)
(1.1616161 0.01120382 0.010890504)
(1.1959103 0.0036635519 0.010734904)
(1.2304284 -0.0040912906 0.010581237)
(1.2651624 -0.012058793 0.010430277)
(1.3001056 -0.020231511 0.010281116)
(1.3352506 -0.028606585 0.010134118)
(1.3705906 -0.037178088 0.0099886679)
(1.406119 -0.045941852 0.0098455061)
(1.4418277 -0.054894477 0.0097041594)
(1.4777142 -0.064032589 0.0095651346)
(1.5137642 -0.073344627 0.0094262398)
(1.5499858 -0.082847416 0.0092911174)
(1.5863684 -0.092512992 0.0091566716)
(1.6228844 -0.10235275 0.0090244508)
(1.6595552 -0.11235979 0.0088933647)
(1.6963569 -0.1225363 0.008759197)
(1.7332973 -0.13287147 0.0086224078)
(1.7703597 -0.14336779 0.0084846637)
(1.8075469 -0.15401868 0.0083409498)
(1.84484 -0.16482495 0.0081978581)
(1.8822443 -0.17577396 0.0080479034)
(1.9197376 -0.1868794 0.0078989855)
(1.9573267 -0.19810388 0.0077410109)
(1.9949854 -0.20948867 0.0075888996)
(2.0327234 -0.22096621 0.0074246207)
(2.0705124 -0.23260233 0.007272501)
(2.1083581 -0.2443138 0.0071077763)
(2.146244 -0.25616004 0.0069581387)
(2.1841586 -0.26808772 0.0068006302)
(2.2220948 -0.28010869 0.0066581402)
(2.2600479 -0.29220664 0.0065108236)
(2.2980092 -0.30439043 0.0063857014)
(2.3359713 -0.31663454 0.00625975)
(2.3739209 -0.3289329 0.0061467283)
(2.4118652 -0.34128552 0.0060434229)
(2.4497696 -0.3536909 0.0059626506)
(2.4876852 -0.36610754 0.0058614817)
(2.5255382 -0.37857683 0.0058102599)
(2.5633802 -0.39111306 0.0057332859)
(2.6012329 -0.4035926 0.0056472638)
(2.6390225 -0.41629193 0.005553914)
(0.0010670434 0.0069175436 0.010097216)
(0.002716984 0.010399017 0.01183178)
(0.0056204413 0.016360781 0.013905163)
(0.0085351992 0.020844896 0.015333932)
(0.012687075 0.0261491 0.016182426)
(0.017735013 0.030944649 0.016739746)
(0.023932896 0.036058733 0.017082424)
(0.030988681 0.040827719 0.01729234)
(0.039162932 0.045658684 0.017420162)
(0.048294882 0.050228003 0.017340693)
(0.058337539 0.05474468 0.01738432)
(0.069338902 0.058991392 0.017195223)
(0.081204712 0.063119418 0.017146894)
(0.093990077 0.066960311 0.01694265)
(0.10758276 0.070621366 0.01685652)
(0.12207891 0.07400395 0.016606608)
(0.13727348 0.077169369 0.016516393)
(0.15339036 0.080029607 0.016293365)
(0.17018456 0.082651667 0.016147861)
(0.18779527 0.084970012 0.015951568)
(0.20609626 0.087017535 0.015794662)
(0.22516432 0.088776457 0.015588206)
(0.24488837 0.090234075 0.015434018)
(0.26534736 0.091394127 0.015242453)
(0.28644415 0.092240808 0.015070864)
(0.30821462 0.092808287 0.014875317)
(0.33060442 0.093037994 0.014701171)
(0.35363379 0.092970405 0.01451824)
(0.37725883 0.092593644 0.014322946)
(0.40147468 0.091894932 0.014133418)
(0.42626591 0.090884335 0.013948795)
(0.45161724 0.089561883 0.013749325)
(0.4774949 0.087930052 0.013551165)
(0.50390605 0.085973149 0.013354599)
(0.53082731 0.083710449 0.013150991)
(0.55823691 0.08114225 0.012951577)
(0.58612703 0.07825664 0.012747708)
(0.61447256 0.075072007 0.012549244)
(0.64324555 0.071584998 0.012350027)
(0.67245282 0.067811824 0.012153419)
(0.70205802 0.063732122 0.011952075)
(0.73206082 0.059383918 0.011766841)
(0.76244253 0.054732996 0.011569053)
(0.79317736 0.049822681 0.011393856)
(0.82426628 0.04463696 0.011211207)
(0.85568753 0.039184988 0.011041761)
(0.88742761 0.033474341 0.01087492)
(0.91947804 0.027510064 0.010717655)
(0.95182469 0.021295843 0.010562093)
(0.98445838 0.014839387 0.010416416)
(1.0173679 0.0081446282 0.010272633)
(1.0505452 0.0012161063 0.010135643)
(1.0839801 -0.0059386942 0.010001011)
(1.1176648 -0.01331832 0.0098712749)
(1.1515912 -0.020913897 0.0097429993)
(1.1857511 -0.028724312 0.0096183676)
(1.2201373 -0.036741046 0.0094944524)
(1.2547421 -0.044963067 0.0093735626)
(1.2895586 -0.053381699 0.0092530651)
(1.3245797 -0.061996326 0.0091348002)
(1.3597983 -0.070798971 0.0090177674)
(1.3952083 -0.079787674 0.0089019985)
(1.430802 -0.088959131 0.0087890714)
(1.466575 -0.098304937 0.0086750758)
(1.5025186 -0.10782516 0.008565025)
(1.5386386 -0.11751971 0.0084563761)
(1.5748854 -0.12736529 0.0083509472)
(1.611305 -0.13739644 0.0082471206)
(1.6478788 -0.14758741 0.0081294842)
(1.6845939 -0.15793968 0.0080221678)
(1.7214496 -0.16844075 0.0079078627)
(1.7584273 -0.17910196 0.0077993955)
(1.7955353 -0.1899041 0.0076821616)
(1.8327515 -0.20086516 0.0075717598)
(1.8700891 -0.21195193 0.0074457923)
(1.9075115 -0.22319756 0.0073339638)
(1.9450455 -0.2345456 0.0071985314)
(1.9826418 -0.24605619 0.0070866742)
(2.0203373 -0.2576406 0.0069430352)
(2.0580702 -0.2693893 0.006834948)
(2.0958903 -0.28118735 0.0066874709)
(2.1337272 -0.29313224 0.0065810999)
(2.1716238 -0.30513367 0.0064492203)
(2.2095296 -0.31724207 0.0063294641)
(2.2474877 -0.32939881 0.0062098738)
(2.2854192 -0.3416472 0.0061148724)
(2.323378 -0.35393692 0.0060103891)
(2.3613101 -0.36628263 0.0059258515)
(2.3992484 -0.37869962 0.0058482839)
(2.4371572 -0.39110618 0.0057594538)
(2.4750586 -0.4036103 0.0057038218)
(2.5129028 -0.41610789 0.0056299188)
(2.5507695 -0.42866033 0.0055580201)
(2.5885722 -0.44124722 0.0054761595)
(2.6264135 -0.45392208 0.0053827432)
(-0.00071721717 0.0054709137 0.0087532834)
(0.00086383833 0.0086602409 0.010025649)
(0.0027115459 0.01320878 0.012188134)
(0.0059496027 0.017371803 0.013078464)
(0.0099564046 0.021699419 0.013674008)
(0.015200413 0.026054204 0.014076545)
(0.021123921 0.030192333 0.014356774)
(0.028358146 0.034359899 0.014530708)
(0.036380361 0.038256102 0.014478866)
(0.045440141 0.042218524 0.014594673)
(0.055392368 0.045793266 0.014435451)
(0.066325525 0.049416319 0.014446641)
(0.078081189 0.052630313 0.014265978)
(0.090743862 0.055833419 0.014234862)
(0.10425385 0.058647341 0.014013733)
(0.11855445 0.061364596 0.013982215)
(0.13371842 0.063721702 0.013775621)
(0.14962422 0.06592458 0.013682184)
(0.16631573 0.067793362 0.013517526)
(0.18376132 0.069444043 0.013404837)
(0.20194092 0.070799798 0.01323994)
(0.22083125 0.071873611 0.013128451)
(0.24043117 0.072679487 0.012971009)
(0.26069824 0.073177623 0.012843412)
(0.28164449 0.073415782 0.012686855)
(0.30323279 0.073329981 0.012557946)
(0.32546422 0.072965715 0.012410792)
(0.34830565 0.072303831 0.012261208)
(0.37175849 0.071335354 0.012114716)
(0.39579435 0.070069042 0.011973335)
(0.42040687 0.068501641 0.011813957)
(0.44556804 0.066635999 0.011661944)
(0.47127761 0.064460966 0.011510551)
(0.49750917 0.061991129 0.011352639)
(0.52424527 0.059223589 0.011196398)
(0.5514734 0.056156419 0.011037821)
(0.57916365 0.052803539 0.010885088)
(0.60730385 0.049156377 0.010731186)
(0.63591914 0.045218957 0.010572904)
(0.66494212 0.040987335 0.010410262)
(0.69438092 0.036495276 0.010265808)
(0.72421359 0.031716078 0.010103112)
(0.75442016 0.026673051 0.0099694442)
(0.78499525 0.021365496 0.0098240006)
(0.81591868 0.015795051 0.0096861746)
(0.84717556 0.0099749421 0.0095562497)
(0.87875648 0.0039048461 0.0094285975)
(0.91064912 -0.0024076788 0.0093066837)
(0.94284045 -0.0089591576 0.0091901372)
(0.97532099 -0.01574287 0.0090787422)
(1.0080811 -0.022755721 0.008969726)
(1.04111 -0.029991392 0.0088668351)
(1.0744003 -0.037445626 0.008764884)
(1.1079421 -0.045114383 0.0086673324)
(1.1417286 -0.052991088 0.0085705859)
(1.1757508 -0.06107365 0.0084765076)
(1.2100022 -0.06935469 0.0083830481)
(1.2444747 -0.077832347 0.0082915193)
(1.2791617 -0.086499461 0.008199832)
(1.3140559 -0.095354458 0.0081104425)
(1.3491506 -0.10439046 0.0080206027)
(1.3844395 -0.11360609 0.0079325676)
(1.4199153 -0.12299556 0.0078456277)
(1.4555731 -0.13255445 0.0077571967)
(1.4914077 -0.14228503 0.0076743494)
(1.5274023 -0.15217699 0.0075862038)
(1.5635864 -0.16221509 0.0075105163)
(1.5999083 -0.17243965 0.007411912)
(1.6363782 -0.18282344 0.0073430817)
(1.6729983 -0.19333893 0.0072600464)
(1.7097551 -0.20401521 0.0071778726)
(1.7466472 -0.21483169 0.0070956373)
(1.7836717 -0.22579563 0.0070068744)
(1.8208137 -0.23689276 0.0069196264)
(1.8580699 -0.24813016 0.0068288083)
(1.8954296 -0.25949414 0.0067390613)
(1.9328913 -0.27098233 0.00664261)
(1.9704342 -0.28259157 0.0065518442)
(2.0080655 -0.29430608 0.0064521663)
(2.0457577 -0.30613414 0.0063620791)
(2.0835222 -0.3180443 0.0062597869)
(2.1213241 -0.33007101 0.0061800977)
(2.1591806 -0.34214269 0.0060748892)
(2.1970659 -0.35433299 0.0060011955)
(2.2349732 -0.36655379 0.0059147284)
(2.2728925 -0.37885752 0.0058487509)
(2.3108253 -0.3911914 0.0057645141)
(2.3487496 -0.40361206 0.0057162593)
(2.3866837 -0.41602818 0.0056354339)
(2.4245766 -0.42852121 0.0055994501)
(2.462476 -0.44104035 0.0055364551)
(2.5003324 -0.45356431 0.0054841302)
(2.5381848 -0.46618103 0.0054244482)
(2.5760054 -0.47876023 0.0053489801)
(2.6138332 -0.49142719 0.0052624135)
(-0.0017817466 0.0048551414 0.0072685466)
(-0.0010401211 0.0067748814 0.0085390692)
(0.00085561711 0.010598883 0.009825785)
(0.0038780672 0.013764572 0.010481121)
(0.0079319443 0.017508042 0.01094592)
(0.01281973 0.020885361 0.01130909)
(0.018967082 0.024449645 0.011496405)
(0.025965984 0.027690817 0.011497005)
(0.033945454 0.03101704 0.011679365)
(0.042935312 0.0340199 0.011547156)
(0.052829468 0.036984961 0.011616872)
(0.063620582 0.039701923 0.011464652)
(0.075279236 0.0422694 0.011494695)
(0.087874143 0.044628466 0.011299097)
(0.10118736 0.046746702 0.011327783)
(0.11546037 0.048682538 0.011142777)
(0.13040893 0.050349039 0.011104513)
(0.14623361 0.051801593 0.01097973)
(0.16274989 0.052977514 0.010907224)
(0.18007742 0.053925973 0.010785219)
(0.19806437 0.054585099 0.010711035)
(0.21682673 0.055006429 0.0105957)
(0.23622801 0.055136181 0.010506251)
(0.25635636 0.055011637 0.01040032)
(0.27711406 0.054588441 0.010307561)
(0.29854469 0.053896914 0.010206287)
(0.32058709 0.052926637 0.010098065)
(0.34326399 0.051657315 0.010001623)
(0.36652797 0.050110705 0.0098970937)
(0.39039022 0.04827507 0.0097859193)
(0.41481054 0.046151997 0.0096801162)
(0.43979842 0.043735032 0.0095740269)
(0.46531777 0.041035396 0.0094591249)
(0.49136112 0.038049998 0.0093487105)
(0.51791637 0.03476773 0.0092336278)
(0.54495637 0.031218922 0.0091190538)
(0.57248924 0.027362245 0.0090017514)
(0.60050803 0.023246721 0.0088776757)
(0.62891632 0.018843463 0.0087660494)
(0.65776622 0.014193847 0.0086658532)
(0.68702251 0.0092603731 0.0085484345)
(0.71667616 0.0040649672 0.0084506634)
(0.74670903 -0.0013810542 0.0083419886)
(0.77710611 -0.0070839636 0.0082405111)
(0.80785586 -0.013030289 0.0081470545)
(0.83894297 -0.019221139 0.0080564206)