/*--------------------------------*- C++ -*----------------------------------*\
  =========                 |
  \\      /  F ield         | OpenFOAM: The Open Source CFD Toolbox
   \\    /   O peration     | Website:  https://openfoam.org
    \\  /    A nd           | Version:  6
     \\/     M anipulation  |
\*---------------------------------------------------------------------------*/
FoamFile
{
    version     2.0;
    format      ascii;
    class       pointVectorField;
    location    "0.32";
    object      u;
}
// * * * * * * * * * * * * * * * * * * * * * * * * * * * * * * * * * * * * * //

dimensions      [0 1 0 0 0 0 0];

internalField   nonuniform List<vector> 
3969
(
(0 -1.3998112e-20 0)
(0 -7.5875642e-20 0)
(1.7619534 -0.096100256 0.0074774549)
(1.6805626 -0.49123652 0.0030037235)
(0 7.6501471e-19 0)
(0 6.2506007e-19 0)
(1.68351 -0.49487198 0.003116866)
(1.7648186 -0.10003711 0.0073519738)
(0 3.2376593e-20 0)
(0 1.9503981e-19 0)
(0 8.6160014e-20 0)
(-5.0482072e-19 -4.5455295e-20 0)
(0 2.4503428e-19 0)
(0 -1.4103767e-19 0)
(0 -1.361538e-19 0)
(1.7517548 -0.14553423 0.0069016292)
(1.7415393 -0.19489867 0.0063388695)
(1.7313597 -0.24429471 0.0057894121)
(1.7211891 -0.29367048 0.0052293079)
(1.7110303 -0.34303448 0.0046860203)
(1.7008999 -0.39242385 0.0041441998)
(1.6907471 -0.44184292 0.0035804491)
(0.0047208615 0.010468199 0.011407798)
(0.0076443623 0.018565552 0.014107029)
(0.013734453 0.027367819 0.015600582)
(0.022855556 0.036007762 0.015928571)
(0.034211022 0.044548661 0.015963644)
(0.048374024 0.052677562 0.015584753)
(0.064601158 0.060373253 0.015329351)
(0.083362064 0.067533095 0.014788449)
(0.10405988 0.074054736 0.01443395)
(0.12696612 0.079955465 0.013852125)
(0.15175095 0.085233359 0.013440822)
(0.17841091 0.089791945 0.012937977)
(0.20680475 0.093666233 0.012454178)
(0.2368441 0.096903757 0.012025814)
(0.26844371 0.099381649 0.01158334)
(0.30143086 0.10123524 0.011185923)
(0.33582972 0.1024353 0.010830052)
(0.37149871 0.10297847 0.010485318)
(0.4084288 0.10290121 0.010160138)
(0.44650937 0.10219333 0.0098317251)
(0.48572739 0.1008797 0.0095048024)
(0.52598501 0.098974792 0.0091681931)
(0.56723928 0.096480781 0.0088288146)
(0.60941445 0.093428553 0.008491757)
(0.65242334 0.08981436 0.0081695489)
(0.69622387 0.085732902 0.0078835877)
(0.7407314 0.081133439 0.0076320362)
(0.78592035 0.076083526 0.0074148009)
(0.83174514 0.070584643 0.0072410987)
(0.87814968 0.064653215 0.0070888036)
(0.92513182 0.05830675 0.0069508976)
(0.9726466 0.051537637 0.0068120856)
(1.0206568 0.044355792 0.0066625825)
(1.0691158 0.036776077 0.0064946011)
(1.1179612 0.028788839 0.0063283155)
(1.1671219 0.020428311 0.0061580473)
(1.2165225 0.011750418 0.0060046241)
(1.2660713 0.0027162918 0.0059149334)
(1.3157285 -0.0065289416 0.0058523109)
(1.365397 -0.016049314 0.0058876348)
(1.4150975 -0.02571195 0.0059581009)
(1.4647287 -0.035521197 0.0061074612)
(1.5143768 -0.045499567 0.0062952994)
(1.5639285 -0.055439762 0.0065024651)
(1.6135211 -0.065626819 0.0067384698)
(1.6630194 -0.075700795 0.0069713232)
(1.7125024 -0.085901467 0.0072247071)
(0.0007301791 -0.011086432 -0.014441111)
(0.005214472 -0.018289649 -0.015049239)
(0.010034658 -0.02693479 -0.01813902)
(0.017661771 -0.03540419 -0.017685899)
(0.028177108 -0.044750576 -0.01797069)
(0.040489109 -0.053911785 -0.017342344)
(0.055161164 -0.063217561 -0.017024656)
(0.071696633 -0.072550237 -0.016432833)
(0.090255251 -0.081908574 -0.01596804)
(0.11073394 -0.09133427 -0.015400656)
(0.13290873 -0.10074981 -0.014911186)
(0.15697299 -0.11027954 -0.014374063)
(0.18256649 -0.11980742 -0.013872909)
(0.20983187 -0.12940731 -0.013321602)
(0.23854284 -0.13911611 -0.012811145)
(0.26873355 -0.14886054 -0.012284327)
(0.30029526 -0.15875515 -0.011785085)
(0.33314396 -0.16869497 -0.011293225)
(0.36728059 -0.17880833 -0.01081496)
(0.4026078 -0.18898319 -0.010355918)
(0.4390766 -0.19933832 -0.0098922512)
(0.47669612 -0.20972618 -0.0094613287)
(0.51532191 -0.22029555 -0.0089916204)
(0.55498354 -0.2309254 -0.0085648057)
(0.59553048 -0.24161837 -0.0081407476)
(0.63698025 -0.25240241 -0.0077224266)
(0.67917847 -0.26322746 -0.007309048)
(0.72222399 -0.27419593 -0.0069025823)
(0.76598735 -0.28519824 -0.0065268772)
(0.8104309 -0.29627682 -0.0061245629)
(0.85556619 -0.30744141 -0.005722633)
(0.90133499 -0.31865842 -0.0052862645)
(0.94773848 -0.32992786 -0.0048147561)
(0.99472005 -0.34120788 -0.0042973359)
(1.0422467 -0.35248532 -0.003731538)
(1.0902533 -0.36372879 -0.0031143297)
(1.1386669 -0.37488622 -0.0024703525)
(1.1874034 -0.38596242 -0.0018041127)
(1.2363874 -0.39694128 -0.0011400543)
(1.2855498 -0.40777451 -0.00050736827)
(1.3348173 -0.41852352 9.9999284e-05)
(1.3841499 -0.42915228 0.00063699511)
(1.4335243 -0.4396894 0.0011382857)
(1.4829139 -0.45013752 0.0015691212)
(1.5323295 -0.46052676 0.0019732763)
(1.5817478 -0.4708384 0.0023427519)
(1.6311778 -0.48107371 0.0026825059)
(0 -8.4480491e-21 0)
(0 9.9396009e-20 0)
(0 -1.1962789e-19 0)
(2.4847182e-19 -2.5292069e-20 0)
(0 -2.1160163e-19 0)
(0 -9.8265126e-20 0)
(0 -8.1529044e-20 0)
(0.0044172135 -0.00716771 0.011035154)
(0.0064396413 -0.021805734 0.015435771)
(0.010492242 -0.024583186 0.015846663)
(0.018946785 -0.036793861 0.016584541)
(0.029201751 -0.04463818 0.016355671)
(0.04176287 -0.054054845 0.015538489)
(0.056528542 -0.0636902 0.01522803)
(0.073225975 -0.072650608 0.014256059)
(0.091907971 -0.082508596 0.013832927)
(0.11241856 -0.091659621 0.012888849)
(0.13473924 -0.10161119 0.012608184)
(0.15878914 -0.11075075 0.011725927)
(0.18465142 -0.12062695 0.011117997)
(0.21202615 -0.13027375 0.010454734)
(0.24086414 -0.14000432 0.0098663765)
(0.27110768 -0.14993862 0.0093598241)
(0.30271711 -0.15980487 0.0088588413)
(0.33559596 -0.1698946 0.0084271913)
(0.36975268 -0.18001943 0.0079916172)
(0.40511385 -0.19030262 0.007565924)
(0.44165455 -0.20068392 0.0071340996)
(0.47930938 -0.21119826 0.0066924052)
(0.51803829 -0.22181416 0.0062413575)
(0.55774336 -0.23251818 0.0058023081)
(0.59840761 -0.24338125 0.005356825)
(0.63999785 -0.25428315 0.0049076138)
(0.68221303 -0.26534289 0.0046289058)
(0.72527638 -0.2763851 0.0043045163)
(0.7690443 -0.2875565 0.0040571241)
(0.81353215 -0.29878573 0.0038041352)
(0.85868877 -0.31008181 0.0035539843)
(0.90450381 -0.32145353 0.0033083357)
(0.95093626 -0.33285876 0.0030455733)
(0.99795645 -0.344285 0.0027720178)
(1.0455 -0.35568843 0.0024929344)
(1.0935 -0.36708502 0.0022424285)
(1.1419202 -0.37832522 0.0020133378)
(1.1905664 -0.38954521 0.0018590179)
(1.2395064 -0.4005696 0.0017624128)
(1.2885929 -0.41148232 0.0017579226)
(1.3377849 -0.42224137 0.0018237477)
(1.3870681 -0.43288035 0.0019577916)
(1.436397 -0.44340577 0.0021324255)
(1.4857838 -0.4538336 0.0023246833)
(1.5352011 -0.46419981 0.002525906)
(1.5846468 -0.47447634 0.0027200707)
(1.6340929 -0.48471484 0.0029210914)
(1.6936687 -0.44548046 0.0036313377)
(1.7038094 -0.3960982 0.0041408058)
(1.7139673 -0.34678613 0.0046810655)
(1.7240659 -0.29741724 0.0052403753)
(1.7342828 -0.24818151 0.0057856582)
(1.7444325 -0.19876307 0.0063205059)
(1.754638 -0.14944856 0.0068573661)
(1.7154199 -0.089855868 0.0069871349)
(1.6659189 -0.079682704 0.0066206648)
(1.6164192 -0.069579465 0.006236508)
(1.5668429 -0.059484879 0.0058219663)
(1.5172243 -0.049454435 0.0053537926)
(1.467571 -0.039480918 0.0048475922)
(1.4178862 -0.029591703 0.0042945723)
(1.3681783 -0.019817528 0.0036998138)
(1.3184791 -0.010197188 0.0030624945)
(1.268835 -0.00076540766 0.0024117217)
(1.2192377 0.0083904362 0.0017506494)
(1.1699481 0.017143999 0.0011225691)
(1.1207056 0.02575061 0.00044488126)
(1.0718775 0.033853901 -0.00014504765)
(1.0233938 0.041591652 -0.00073648993)
(0.97535111 0.048915592 -0.0012770907)
(0.92779226 0.055823865 -0.001795056)
(0.88077019 0.062307187 -0.0022911792)
(0.83431151 0.068371574 -0.0027693291)
(0.78846087 0.07398758 -0.0032394898)
(0.74324186 0.079170002 -0.0037156557)
(0.69870542 0.083860469 -0.0041839506)
(0.65489095 0.088070068 -0.004660547)
(0.61184822 0.091742152 -0.0051437395)
(0.5696586 0.094872848 -0.0056310123)
(0.5283724 0.097430407 -0.0061157544)
(0.48806244 0.099407901 -0.0066146225)
(0.44879223 0.10078657 -0.0071099788)
(0.41063388 0.10156397 -0.0076237173)
(0.37362753 0.10172999 -0.0081483418)
(0.33786622 0.10128187 -0.0086994524)
(0.3033694 0.10021414 -0.009257921)
(0.27026537 0.098484855 -0.0098455348)
(0.23863007 0.095990663 -0.010363584)
(0.20858689 0.0929367 -0.01103077)
(0.18004359 0.089168653 -0.011486125)
(0.1533733 0.084693968 -0.01212615)
(0.12843159 0.079495358 -0.012600649)
(0.10547243 0.073704091 -0.013259715)
(0.08466208 0.067071777 -0.013640284)
(0.066006019 0.060149005 -0.014171584)
(0.049327514 0.052324281 -0.014576983)
(0.035409127 0.044312028 -0.014973151)
(0.02357649 0.03567053 -0.014990926)
(0.014839661 0.027277842 -0.014587743)
(0.0081767809 0.017731083 -0.013275694)
(0.0083979449 0.010332544 -0.0085516882)
(0 1.0336064e-19 0)
(0 8.0867477e-20 0)
(0 -4.1905365e-20 0)
(0 -2.753538e-19 1.3780025e-19)
(0 -2.4176305e-19 0)
(0 -5.3155231e-20 0)
(0 2.5419075e-19 0)
(0 3.5678978e-19 0)
(0 3.4011089e-19 0)
(0 3.2316332e-19 0)
(0 2.791026e-19 -3.4286582e-20)
(0 7.5397558e-19 0)
(0 3.3053247e-19 0)
(0 -6.0901312e-20 0)
(1.6809574 -0.49175663 0.003012583)
(1.6813393 -0.49227044 0.0030308081)
(1.6817133 -0.49275081 0.0030577249)
(1.6820762 -0.49320589 0.003083526)
(1.682429 -0.49364295 0.0031112251)
(1.6827752 -0.49405644 0.0031411743)
(1.6831272 -0.49447666 0.0031303802)
(1.7623624 -0.096566409 0.0074808462)
(1.7627577 -0.097056175 0.0074496167)
(1.7631369 -0.097534788 0.0074239512)
(1.7635033 -0.098020059 0.0073899325)
(1.7638481 -0.098512001 0.007362003)
(1.7641803 -0.099004173 0.0073469221)
(1.7645033 -0.099509602 0.0073498824)
(0.0006923834 0.00095521807 0.010023157)
(0.0031147831 9.5956305e-05 0.0099962977)
(0.0077907407 0.00041188739 0.011569702)
(0.015361543 0.00061662044 0.011872842)
(0.025109164 0.0010984242 0.011898559)
(0.037680133 0.0021163146 0.011845224)
(0.052213591 0.0031789828 0.011504551)
(0.069253639 0.0047969814 0.011331319)
(0.088431192 0.006477418 0.01087388)
(0.10984777 0.0086353359 0.010603938)
(0.13334358 0.010983947 0.010204943)
(0.15891709 0.013660808 0.0098221337)
(0.18654664 0.016648447 0.0094603242)
(0.21607102 0.019837423 0.0090902095)
(0.24748333 0.023251346 0.0087732706)
(0.28068061 0.026826768 0.0084583693)
(0.31559581 0.030518863 0.0081799849)
(0.35211222 0.034227186 0.0079238569)
(0.39020886 0.037924273 0.0076694563)
(0.42977425 0.041490447 0.0074196584)
(0.47073775 0.044864535 0.0071719097)
(0.51299053 0.047943198 0.0069106591)
(0.55644741 0.050656058 0.0066551364)
(0.60095489 0.052907292 0.0063996859)
(0.64643836 0.054632664 0.0061755088)
(0.69274045 0.05572104 0.0059443608)
(0.73973874 0.056130066 0.0057696525)
(0.78734663 0.055773159 0.0056248223)
(0.83546011 0.054548803 0.0055061597)
(0.88398593 0.052420663 0.0054072144)
(0.93286576 0.049305757 0.0053203978)
(0.98201267 0.045146258 0.0052325591)
(1.0313528 0.039923688 0.0051403961)
(1.0808015 0.033594349 0.0050514141)
(1.1302761 0.026175825 0.0049657765)
(1.1796678 0.017691173 0.0048974309)
(1.2289097 0.0081504354 0.0048603361)
(1.2779073 -0.0023777419 0.0048769281)
(1.3266216 -0.013822677 0.0049290639)
(1.374989 -0.026149765 0.0050583495)
(1.4230211 -0.039229514 0.005205319)
(1.4706977 -0.053054049 0.0054283665)
(1.518084 -0.067467011 0.0056444947)
(1.5651514 -0.082416331 0.0059068502)
(1.6120674 -0.097846392 0.0061545618)
(1.658715 -0.11352005 0.0064059431)
(1.7053005 -0.1294901 0.0066507928)
(-0.0025744975 -0.0043777261 0.0066416771)
(-0.00057216408 -0.010595099 0.0066247736)
(0.0039965873 -0.014176635 0.0077165167)
(0.010795944 -0.018833634 0.0077389922)
(0.020201903 -0.022284931 0.0078870158)
(0.031705374 -0.025450546 0.007631034)
(0.045572349 -0.027979092 0.0076586667)
(0.061832972 -0.029875425 0.0072503417)
(0.080190158 -0.031184038 0.0072105547)
(0.100851 -0.03169181 0.0068979089)
(0.1236817 -0.03163276 0.0066883167)
(0.14867589 -0.030733524 0.006434909)
(0.17577813 -0.029250831 0.0062187607)
(0.20496218 -0.027082805 0.0060052917)
(0.23614873 -0.024324185 0.0058087096)
(0.269236 -0.020998754 0.005593367)
(0.30415179 -0.017217871 0.0054163508)
(0.34083864 -0.013081716 0.0052488805)
(0.37922599 -0.0086932629 0.0050831036)
(0.41922464 -0.0041862217 0.0049312666)
(0.460733 0.00032455198 0.0047665864)
(0.50365363 0.004721928 0.004598117)
(0.54781987 0.0088735174 0.0044302334)
(0.59316268 0.012668953 0.0042752783)
(0.63947858 0.01594712 0.0041141396)
(0.68664073 0.018645361 0.0040128488)
(0.73451483 0.020576314 0.0039278021)
(0.78297626 0.021653985 0.0038573228)
(0.83189127 0.021772728 0.0038348303)
(0.88117768 0.02080141 0.003817573)
(0.93073057 0.018659676 0.0038145295)
(0.98045373 0.015269608 0.0038196249)
(1.0302531 0.010573518 0.0038261536)
(1.0800361 0.0045389551 0.0038406277)
(1.1296874 -0.0028295236 0.0038609773)
(1.1791136 -0.011552901 0.0039132026)
(1.2282399 -0.021553735 0.0039748726)
(1.2769438 -0.032825148 0.0040965971)
(1.3252381 -0.045263672 0.0042304969)
(1.3730125 -0.058843145 0.0044199618)
(1.4203645 -0.073421617 0.0046181646)
(1.4671886 -0.088958733 0.0048602715)
(1.5136665 -0.10530552 0.0050964855)
(1.5596981 -0.1223511 0.0053438796)
(1.6055153 -0.14001698 0.0055964214)
(1.6509908 -0.15803122 0.0058301059)
(1.6963682 -0.17642128 0.0060930504)
(-0.004533362 -0.0039991918 0.0039414986)
(-0.0021438624 -0.0085711363 0.0036328203)
(0.0022292679 -0.012199851 0.0039091384)
(0.0098345366 -0.015809105 0.0039372278)
(0.019388341 -0.019234027 0.0037843497)
(0.031728984 -0.022152044 0.0037874991)
(0.046145704 -0.025122049 0.003431904)
(0.062792562 -0.027457597 0.0034783314)
(0.081617843 -0.029628711 0.0032858188)
(0.10263966 -0.031313869 0.0031355873)
(0.12563794 -0.032575662 0.0030425696)
(0.1507207 -0.033488958 0.0029058213)
(0.17777091 -0.033954689 0.0027948911)
(0.20672107 -0.034090365 0.0027093616)
(0.23754775 -0.033830377 0.0026533612)
(0.27015601 -0.033320975 0.0025610615)
(0.30446818 -0.032567278 0.0025141061)
(0.34041448 -0.031662648 0.0024455534)
(0.37792545 -0.030672376 0.0024115963)
(0.41689026 -0.029670734 0.0023695278)
(0.45725012 -0.028737733 0.0023362184)
(0.49889013 -0.027968808 0.002294659)
(0.54178038 -0.02742816 0.0022614962)
(0.58571944 -0.027252075 0.0022103856)
(0.6306296 -0.027449912 0.0022032808)
(0.67639893 -0.028167454 0.0021737294)
(0.7229194 -0.029461964 0.0021567754)
(0.77005648 -0.031408543 0.0021785044)
(0.81773958 -0.034094516 0.002205889)
(0.86587301 -0.037601094 0.002245168)
(0.91438558 -0.041967988 0.0023028146)
(0.96320138 -0.047276102 0.0023649151)
(1.0122481 -0.053538874 0.002434657)
(1.0614345 -0.060779398 0.0025137146)
(1.110676 -0.069014899 0.0026135302)
(1.1598863 -0.078198405 0.0027261647)
(1.2089631 -0.088332223 0.0028736961)
(1.2578483 -0.099349836 0.0030522404)
(1.3064676 -0.11121591 0.0032496553)
(1.3547671 -0.12386901 0.00350947)
(1.4027509 -0.13722677 0.0037559118)
(1.4503845 -0.15127613 0.0040738259)
(1.4977655 -0.16585064 0.0043308652)
(1.5448064 -0.18096362 0.0046713836)
(1.5917167 -0.19645606 0.0049323634)
(1.6383469 -0.2122269 0.0052419677)
(1.6849455 -0.22824959 0.0055071795)
(-0.004857876 0.00031735491 0.00029976115)
(-0.0017324479 0.00034562867 -0.00069374501)
(0.0036923226 0.0011599135 -0.00057758116)
(0.012063218 0.0011795459 -0.00065080525)
(0.023249749 0.0011151133 -0.00059472451)
(0.036623823 0.00095088557 -0.00075140709)
(0.052287626 9.106442e-05 -0.00050147376)
(0.070100599 -0.00070259003 -0.00060417573)
(0.090033429 -0.0021757554 -0.00052168477)
(0.11188358 -0.0037591349 -0.0004512418)
(0.13566534 -0.0059174449 -0.00044626513)
(0.16130571 -0.0083437949 -0.00045521265)
(0.18857469 -0.011171473 -0.00046286671)
(0.21751336 -0.014440489 -0.00041291739)
(0.24795318 -0.018013189 -0.00042613772)
(0.27986906 -0.022031373 -0.0003735169)
(0.31309373 -0.026393102 -0.0003422108)
(0.34765246 -0.031179727 -0.00027693227)
(0.38340642 -0.036338346 -0.00021368357)
(0.42036952 -0.041879741 -0.00015753648)
(0.45846601 -0.047797427 -0.00011658344)
(0.49768927 -0.0540565 -7.4364322e-05)
(0.53782884 -0.060677181 -4.0648373e-05)
(0.57894142 -0.067599225 1.8896402e-05)
(0.62093531 -0.074832529 4.5798927e-05)
(0.66375659 -0.082352998 9.9419666e-05)
(0.70731603 -0.090145957 0.00019428999)
(0.75159407 -0.098211165 0.00029415267)
(0.79655058 -0.10653537 0.00040262757)
(0.84215112 -0.11511058 0.0005399713)
(0.88837528 -0.12392705 0.00067618161)
(0.93519049 -0.13299065 0.00083342875)
(0.98256231 -0.14226159 0.00099366649)
(1.0304515 -0.15175856 0.0011788809)
(1.0787958 -0.1614255 0.0013711601)
(1.1275243 -0.17126495 0.0015967732)
(1.1765782 -0.18123063 0.0018364558)
(1.2258431 -0.19130358 0.0021107511)
(1.2752712 -0.20145478 0.0024131197)
(1.3247873 -0.21165313 0.0027260558)
(1.3743912 -0.22189825 0.0030538452)
(1.4239638 -0.2321548 0.0033887855)
(1.473587 -0.24242157 0.0037114994)
(1.5231212 -0.2526993 0.0040488467)
(1.5727451 -0.26297586 0.0043362422)
(1.6222333 -0.27322126 0.0046458378)
(1.6717971 -0.28349215 0.0049332113)
(-0.0049486468 0.0042084744 -0.0032531354)
(-0.00053169484 0.0094794663 -0.0042267432)
(0.0053624047 0.013723364 -0.0044616695)
(0.015311962 0.017462385 -0.0046129682)
(0.027496388 0.020440694 -0.0047533983)
(0.042282696 0.022713578 -0.004525878)
(0.059242923 0.023938304 -0.0045449898)
(0.078405893 0.024416643 -0.0044696752)
(0.099389474 0.023649626 -0.0043052194)
(0.12232895 0.021969048 -0.0042508475)
(0.14688011 0.019070657 -0.0041888879)
(0.1729476 0.015212517 -0.0040469273)
(0.20041412 0.010040902 -0.0038730161)
(0.22921954 0.0038830231 -0.003727772)
(0.25918247 -0.0034527515 -0.0035436722)
(0.29025806 -0.011807121 -0.0033527982)
(0.32236404 -0.021160921 -0.003192251)
(0.35542696 -0.031442721 -0.0030097389)
(0.38942974 -0.042565323 -0.0028465923)
(0.42431779 -0.054453535 -0.002684442)
(0.46009845 -0.066987166 -0.0025221839)
(0.49663939 -0.080110206 -0.0023367359)
(0.534059 -0.093645529 -0.0021768271)
(0.57228458 -0.10757015 -0.0020234908)
(0.61134812 -0.12169466 -0.0018644062)
(0.65117507 -0.13593176 -0.0016882047)
(0.69181967 -0.15017983 -0.001519981)
(0.73326718 -0.16432412 -0.0013630197)
(0.77552794 -0.17825993 -0.0011876379)
(0.81862102 -0.19190456 -0.0010149332)
(0.86257536 -0.2051786 -0.00082786456)
(0.90739949 -0.21802086 -0.00062719006)
(0.95311033 -0.23035139 -0.00041645264)
(0.99969832 -0.24213732 -0.00018185017)
(1.0471333 -0.2533141 7.2673924e-05)
(1.0953921 -0.26385549 0.00035356057)
(1.1443902 -0.27372662 0.00065974595)
(1.1940577 -0.28292413 0.0010058941)
(1.2443178 -0.29141709 0.0013395523)
(1.295119 -0.29921908 0.0017274042)
(1.3462881 -0.30637367 0.0021093052)
(1.3978058 -0.31291934 0.0025217316)
(1.4496167 -0.31889259 0.0028940928)
(1.5016323 -0.32439868 0.0032988888)
(1.553883 -0.32946448 0.003634382)
(1.6061821 -0.33421382 0.0040204683)
(1.6586618 -0.33872816 0.0043392579)
(-0.0038779282 0.0043845117 -0.007313163)
(0.0014907565 0.009768836 -0.0082738026)
(0.0077818812 0.014172734 -0.00916872)
(0.018039428 0.017883641 -0.0093733047)
(0.030634779 0.020683628 -0.0091884152)
(0.045725717 0.022641132 -0.0090330175)
(0.06309401 0.023331401 -0.0088060685)
(0.082478133 0.023091396 -0.0084922365)
(0.10375671 0.021401284 -0.008253595)
(0.1267877 0.018622011 -0.0079452806)
(0.15135587 0.014330986 -0.0076783491)
(0.17734402 0.0087679055 -0.0073755737)
(0.2046511 0.0017421207 -0.007134631)
(0.23309785 -0.0065727245 -0.0068288335)
(0.26259078 -0.016245234 -0.006552744)
(0.29306775 -0.027152751 -0.0062673394)
(0.32442514 -0.039273371 -0.0060090818)
(0.35664447 -0.052468267 -0.0057271322)
(0.38965694 -0.066701789 -0.0054753762)
(0.42346507 -0.081782337 -0.0052130547)
(0.45801434 -0.097681892 -0.0049683979)
(0.49342535 -0.11407459 -0.0047084381)
(0.52947855 -0.13104456 -0.0045071948)
(0.56634969 -0.14840745 -0.0042446213)
(0.60398471 -0.1658391 -0.0040210545)
(0.64239853 -0.18331538 -0.0037992358)
(0.68166297 -0.20061826 -0.003570728)
(0.72174859 -0.21764443 -0.0033259331)
(0.76271306 -0.23423918 -0.0030930689)
(0.80460508 -0.25031948 -0.002840552)
(0.84744791 -0.2657505 -0.0025836839)
(0.89128792 -0.28044295 -0.0023040546)
(0.93615091 -0.29431229 -0.0020120913)
(0.98204219 -0.30730365 -0.0016818959)
(1.0289595 -0.3193209 -0.0013375303)
(1.0768714 -0.33037228 -0.00094422292)
(1.1257183 -0.34038304 -0.00052886767)
(1.1754251 -0.34935608 -8.0681653e-05)
(1.2259287 -0.35731955 0.00039360074)
(1.2770771 -0.36424319 0.00087397177)
(1.3288485 -0.37018968 0.0013556418)
(1.3810987 -0.37523885 0.0018203362)
(1.4337801 -0.3794879 0.0022697488)
(1.4867924 -0.38301443 0.0026907261)
(1.540102 -0.38594207 0.0030786261)
(1.5935992 -0.3884116 0.0034510613)
(1.6472678 -0.39054053 0.0037831311)
(-0.0020336319 -0.0020056799 -0.010292909)
(0.0029102463 -0.00036158517 -0.011716029)
(0.008502212 -0.0010352518 -0.013284073)
(0.018213195 -0.0017411076 -0.013357741)
(0.029766409 -0.0033053422 -0.013308454)
(0.044175985 -0.0057010793 -0.013009186)
(0.060482077 -0.008790131 -0.012675559)
(0.078959291 -0.012642836 -0.012285167)
(0.099280106 -0.017416692 -0.011930674)
(0.12137357 -0.022911698 -0.011500389)
(0.14517283 -0.029526492 -0.011119192)
(0.1703974 -0.036855184 -0.01076237)
(0.19710667 -0.045336365 -0.010314283)
(0.22501874 -0.054618457 -0.0099240057)
(0.25419018 -0.064881524 -0.0095199644)
(0.28441608 -0.075991094 -0.0091347612)
(0.31571904 -0.087957243 -0.0087460674)
(0.3479768 -0.10069654 -0.0083808803)
(0.38118809 -0.1141555 -0.0080154547)
(0.41530315 -0.12824421 -0.0076688317)
(0.45032282 -0.14286035 -0.0073285603)
(0.48615638 -0.15795087 -0.0069802214)
(0.52293422 -0.17335643 -0.0066566767)
(0.56047296 -0.1890434 -0.0063177946)
(0.5988467 -0.20480064 -0.0060221156)
(0.6380293 -0.2206003 -0.0056946471)
(0.6780328 -0.23629498 -0.0053706258)
(0.71886934 -0.25179858 -0.005063991)
(0.76054459 -0.26702213 -0.0047601267)
(0.80307576 -0.28188804 -0.0044403049)
(0.84648047 -0.29629583 -0.0041188592)
(0.89079496 -0.31019426 -0.0037727251)
(0.93601642 -0.3235121 -0.0034038687)
(0.9821526 -0.33619722 -0.0030006077)
(1.0291792 -0.34819055 -0.0025670285)
(1.0770603 -0.35947501 -0.0020850137)
(1.1257192 -0.36999106 -0.0015790166)
(1.1751132 -0.37975352 -0.0010318139)
(1.225107 -0.38872806 -0.00049316423)
(1.2756405 -0.39694104 6.9606246e-05)
(1.3266251 -0.40441783 0.00061087878)
(1.3779792 -0.41121722 0.0011365421)
(1.4296443 -0.4173915 0.0016177048)
(1.4815586 -0.42301582 0.0020723757)
(1.5336922 -0.42817816 0.0024754228)
(1.5859779 -0.43298828 0.00286585)
(1.6383508 -0.43751349 0.0032202943)
(0 -3.0880974e-20 0)
(0 1.7298291e-19 0)
(0 1.4953801e-19 0)
(0 1.3196467e-19 -4.5235779e-20)
(0 5.2133025e-20 0)
(0 -1.830986e-21 0)
(0 2.5342245e-20 0)
(0 9.4872495e-21 0)
(0 -6.1644813e-20 0)
(0 -1.5197298e-19 0)
(0 -1.8879667e-19 -3.1348915e-20)
(0 -3.0951504e-20 0)
(0 3.812664e-20 0)
(0 7.3644325e-20 0)
(0 6.0164993e-20 0)
(0 9.4768191e-20 0)
(0 1.7308181e-19 0)
(0 1.7337186e-19 8.7327777e-20)
(0 1.4954798e-19 0)
(0 1.7413237e-19 0)
(0 5.8966325e-20 0)
(-1.0291434e-18 4.848256e-20 0)
(4.3903282e-19 -1.0994303e-19 0)
(-2.5516194e-20 -4.4148755e-20 0)
(7.9156856e-20 -7.7719237e-20 -5.8978502e-20)
(-1.4794996e-19 -1.0857419e-19 0)
(-3.7868127e-19 -1.5520221e-19 0)
(5.7873083e-20 -1.2815084e-19 0)
(0 9.6586983e-20 0)
(0 3.4556958e-20 0)
(0 -6.7031926e-20 0)
(0 6.5347528e-21 1.7101166e-19)
(0 7.3708799e-20 0)
(0 1.0735341e-19 0)
(0 -2.9826246e-20 0)
(0 -7.788601e-20 0)
(0 -6.3675354e-20 0)
(0 1.4977582e-20 0)
(0 7.4729922e-20 -1.7028461e-20)
(0 5.5291628e-20 0)
(0 -2.0039793e-20 0)
(0 5.1740313e-20 0)
(0 9.4667158e-21 0)
(0 -5.5770753e-20 0)
(0 8.1650583e-20 0)
(0 5.1995472e-21 5.9767284e-20)
(0 8.0893589e-20 0)
(0 1.2792846e-19 0)
(0 1.158598e-19 0)
(0.0049707044 -0.0033681638 -0.0075348104)
(0.0060767841 -0.0043478109 -0.0051738444)
(0.0072521418 -0.0045768749 -0.0027203322)
(0.0077320694 -0.0048337249 -0.00071016081)
(0.0074983484 -0.0044738736 0.0013500984)
(0.007091985 -0.0046629155 0.0035528092)
(0.0057974144 -0.0030707103 0.0059006685)
(0.0093762543 -0.017610665 -0.012404633)
(0.011846186 -0.019361175 -0.0071046003)
(0.012931507 -0.018198565 -0.0033537962)
(0.013153526 -0.017643791 -0.00034364698)
(0.013268247 -0.018572368 0.0026596613)
(0.011906323 -0.018319623 0.0062195343)
(0.010423856 -0.018218018 0.010748193)
(0.013667162 -0.024847629 -0.013251476)
(0.016722696 -0.023831477 -0.0094432523)
(0.018659736 -0.0247153 -0.0045518618)
(0.018978936 -0.024668456 -0.00077574333)
(0.018781847 -0.024120919 0.0036094934)
(0.017218051 -0.024295999 0.0069569815)
(0.015153914 -0.025256524 0.012582055)
(0.022101579 -0.035932025 -0.013450811)
(0.024755568 -0.036481187 -0.0095157252)
(0.026392567 -0.03610854 -0.0046392255)
(0.02705219 -0.036035055 -0.00084446464)
(0.026688987 -0.036079155 0.0034549253)
(0.02530118 -0.036592857 0.0080802388)
(0.022543047 -0.035968799 0.012154639)
(0.031968868 -0.045190802 -0.013733431)
(0.034894906 -0.045004602 -0.0097286307)
(0.036949845 -0.045300236 -0.0051421092)
(0.03746476 -0.045163077 -0.00079451839)
(0.037229916 -0.045301702 0.0036281303)
(0.035711267 -0.045178491 0.0076711347)
(0.033360958 -0.045420871 0.012525991)
(0.044415177 -0.054765106 -0.013245032)
(0.04699936 -0.054890048 -0.0094323311)
(0.048780665 -0.054802009 -0.0049033928)
(0.049429294 -0.055026579 -0.001033613)
(0.049071395 -0.054841219 0.0034745665)
(0.047683855 -0.054861591 0.0077373719)
(0.045129304 -0.054575192 0.01174921)
(0.058816674 -0.064013028 -0.013085544)
(0.061473136 -0.064307614 -0.0091587093)
(0.063301184 -0.064714762 -0.0049885328)
(0.063904451 -0.064755013 -0.0010629142)
(0.063694943 -0.064874423 0.0032952924)
(0.062280972 -0.065020332 0.0071090507)
(0.060071639 -0.064671087 0.011521646)
(0.075262285 -0.073521954 -0.012599102)
(0.077792401 -0.073967004 -0.0090337014)
(0.079501686 -0.074098729 -0.0048254021)
(0.080161946 -0.074228154 -0.001043908)
(0.079799612 -0.074098409 0.0029241989)
(0.078637089 -0.073882077 0.0069634981)
(0.076287431 -0.073470608 0.010706831)
(0.093735766 -0.082926906 -0.012319799)
(0.096175039 -0.083317487 -0.0086051715)
(0.097833526 -0.083732965 -0.0048385536)
(0.098428728 -0.083872203 -0.0011745755)
(0.098241569 -0.084084035 0.0027182315)
(0.097025625 -0.083848427 0.0064093878)
(0.094972785 -0.083632354 0.010384501)
(0.1139752 -0.092328226 -0.011873914)
(0.11634865 -0.092893151 -0.0085077757)
(0.11795133 -0.093143954 -0.0047774758)
(0.11865465 -0.093495866 -0.0011006254)
(0.11831997 -0.093325312 0.0025246926)
(0.11726851 -0.093094508 0.0061261408)
(0.11523623 -0.092654047 0.0096690817)
(0.13615322 -0.10183905 -0.011502258)
(0.13839648 -0.10237133 -0.0082039853)
(0.13998748 -0.10283423 -0.0045528949)
(0.14054023 -0.10286446 -0.0013206221)
(0.14044132 -0.10303716 0.0023080168)
(0.13935721 -0.10281787 0.0055860957)
(0.13746644 -0.1025881 0.009345866)
(0.15999213 -0.11130321 -0.011177964)
(0.16223059 -0.11191443 -0.007863356)
(0.16363487 -0.11229061 -0.0046719965)
(0.16433728 -0.11263955 -0.0012893287)
(0.16414033 -0.11261839 0.0020758473)
(0.16311458 -0.11231725 0.0052702459)
(0.1614778 -0.11201666 0.008775956)
(0.18559959 -0.12096332 -0.010745109)
(0.18758557 -0.12146365 -0.0076330678)
(0.18906246 -0.12199567 -0.0045122116)
(0.18969124 -0.12207328 -0.0013479501)
(0.18955989 -0.12214811 0.0018757558)
(0.18860073 -0.1220429 0.0048830214)
(0.18702295 -0.12162057 0.0081580457)
(0.21266343 -0.13050155 -0.010388518)
(0.21460111 -0.13110513 -0.0073671395)
(0.21611115 -0.13158497 -0.0044610177)
(0.21662279 -0.13179163 -0.0013899009)
(0.21659749 -0.13196809 0.0016651281)
(0.21568401 -0.1316939 0.0044922128)
(0.21430153 -0.13136652 0.0077040695)
(0.24126799 -0.14026987 -0.010002519)
(0.24318801 -0.14083203 -0.0070912677)
(0.2445517 -0.14127376 -0.0043645837)
(0.24513982 -0.14150775 -0.001361182)
(0.24511258 -0.14154923 0.0014310943)
(0.24430988 -0.14135357 0.004247592)
(0.24297964 -0.14099486 0.0072116598)
(0.27136112 -0.14999555 -0.0096025999)
(0.27314762 -0.15055068 -0.0068520338)
(0.2745214 -0.15106515 -0.0042268162)
(0.27507714 -0.151279 -0.001438748)
(0.27508349 -0.15140727 0.0013229147)
(0.2743301 -0.15121503 0.0039313956)
(0.27310525 -0.15087056 0.0068186506)
(0.30276231 -0.1598607 -0.009236814)
(0.30453377 -0.16045567 -0.0065787839)
(0.30583647 -0.16093122 -0.0041217724)
(0.30638549 -0.16113362 -0.0013828444)
(0.30642723 -0.16125603 0.0011752233)
(0.30573534 -0.1610403 0.0037114852)
(0.30459034 -0.16071847 0.0064521961)
(0.33554232 -0.16982345 -0.0088411849)
(0.33721836 -0.170399 -0.0063608196)
(0.33849473 -0.17089515 -0.0039599297)
(0.33903 -0.17113457 -0.0013946022)
(0.33908725 -0.1712535 0.0010627335)
(0.33844022 -0.17107519 0.0034969114)
(0.33737369 -0.17074361 0.0061120957)
(0.3695513 -0.17990574 -0.0084971784)
(0.37117176 -0.18048114 -0.0060989039)
(0.37241267 -0.18097867 -0.003828012)
(0.37291809 -0.18119545 -0.0013683055)
(0.37301257 -0.18132874 0.00097252882)
(0.37240613 -0.18115123 0.0032969463)
(0.37142157 -0.18086154 0.0057843925)
(0.40477972 -0.19009252 -0.008126068)
(0.40634833 -0.19066471 -0.0058638908)
(0.40753356 -0.1911685 -0.0037007511)
(0.40803958 -0.19142867 -0.001355599)
(0.40815189 -0.19155595 0.00086329099)
(0.40758565 -0.19142896 0.0030896261)
(0.40668411 -0.19111037 0.0054591924)
(0.44117734 -0.20040612 -0.0077911827)
(0.44267145 -0.20098001 -0.0056366902)
(0.44382259 -0.20149477 -0.0035703064)
(0.4443233 -0.20172909 -0.0013494876)
(0.44445087 -0.20188414 0.00076417073)
(0.44394231 -0.20174801 0.0028781322)
(0.44310979 -0.20146902 0.0051296671)
(0.47867418 -0.21082073 -0.0074469546)
(0.48011336 -0.21139764 -0.0054063383)
(0.48122951 -0.2118982 -0.0034494001)
(0.48171618 -0.21217322 -0.0013545867)
(0.48187252 -0.21231701 0.00065513937)
(0.48139803 -0.21223035 0.0026566728)
(0.48065015 -0.21195722 0.0047894771)
(0.51722303 -0.221352 -0.0071033476)
(0.5186088 -0.22190882 -0.0051789955)
(0.51967685 -0.22242434 -0.0033413858)
(0.52017342 -0.22268811 -0.001360373)
(0.52033028 -0.22287675 0.00054349603)
(0.51992895 -0.22280241 0.0024187326)
(0.51925564 -0.22254947 0.0044413692)
(0.5567821 -0.23193693 -0.0067579971)
(0.55810371 -0.23253724 -0.0049632894)