/*--------------------------------*- C++ -*----------------------------------*\
  =========                 |
  \\      /  F ield         | OpenFOAM: The Open Source CFD Toolbox
   \\    /   O peration     | Website:  https://openfoam.org
    \\  /    A nd           | Version:  6
     \\/     M anipulation  |
\*---------------------------------------------------------------------------*/
FoamFile
{
    version     2.0;
    format      ascii;
    class       pointVectorField;
    location    "0.07";
    object      u;
}
// * * * * * * * * * * * * * * * * * * * * * * * * * * * * * * * * * * * * * //

dimensions      [0 1 0 0 0 0 0];

internalField   nonuniform List<vector> 
625
(
(0 1.3425591e-20 0)
(0 1.2081955e-20 0)
(0.41451724 0.026333298 -0.00032784896)
(0.41233871 -0.039667252 6.1141891e-05)
(0 1.7408423e-20 0)
(0 9.448126e-20 0)
(0.41247653 -0.03992789 -0.00019121839)
(0.41458866 0.026374552 -9.3676307e-05)
(0 -2.040819e-21 0)
(9.383341e-21 -2.179584e-20 0)
(0 4.4589723e-20 0)
(0.41395325 0.0098332048 -0.00027849809)
(0.41341317 -0.0066233769 -0.00016201624)
(0.41289509 -0.023071811 -3.5862525e-05)
(0.0031843949 0.0083710774 0.0068194229)
(0.0095993392 0.015963544 0.007232967)
(0.020299132 0.023156294 0.006665946)
(0.034484233 0.029400298 0.0060432816)
(0.051409943 0.034419437 0.005283946)
(0.070836181 0.038333386 0.0044781711)
(0.091858958 0.041033788 0.0036957782)
(0.11408573 0.042631914 0.0028916912)
(0.13690502 0.043203137 0.0021337987)
(0.1598733 0.042828774 0.0013520598)
(0.18261305 0.041747478 0.00060724908)
(0.20473619 0.040077162 -8.5749752e-05)
(0.22595119 0.038063093 -0.00064303748)
(0.24604299 0.035930182 -0.0010028547)
(0.26494082 0.033892115 -0.0011255615)
(0.28273865 0.032120947 -0.0010243226)
(0.29968185 0.030706467 -0.00076188092)
(0.31610024 0.029666765 -0.00044829707)
(0.33232428 0.028937526 -0.00018509401)
(0.34860754 0.028387551 -3.8952841e-05)
(0.36501184 0.027936723 -5.7046162e-05)
(0.38155388 0.027429527 -0.00012968436)
(0.39809681 0.026895175 -0.00022900742)
(5.1298152e-09 -0.0062140087 -0.0084224238)
(0.0075536332 -0.012790327 -0.0064719254)
(0.018433777 -0.01995721 -0.006265819)
(0.031820013 -0.025571239 -0.005176985)
(0.048280059 -0.030717031 -0.0041652002)
(0.067342594 -0.035270539 -0.0031538982)
(0.087790206 -0.038779491 -0.0022270699)
(0.10983475 -0.041493177 -0.0012141483)
(0.13248813 -0.043439852 -0.00035190435)
(0.15545341 -0.044514246 0.00048069082)
(0.17823298 -0.044876609 0.0011652134)
(0.20045305 -0.044574443 0.0016962305)
(0.22183489 -0.043777655 0.0020154069)
(0.24216467 -0.042652833 0.0021109737)
(0.26136548 -0.041401533 0.0019980251)
(0.27948568 -0.040225335 0.0017192612)
(0.29671374 -0.039287002 0.0013366605)
(0.31333879 -0.038687009 0.00091949668)
(0.32969054 -0.038432473 0.00053029785)
(0.34603124 -0.038463729 0.00022943344)
(0.36251368 -0.038658358 4.210302e-05)
(0.37912576 -0.038930904 -1.9932299e-05)
(0.39577779 -0.039244999 -4.6656587e-06)
(0 1.2189934e-20 0)
(-1.6658121e-19 -3.5842666e-20 0)
(0 9.0842222e-20 0)
(0.0019654614 -0.0040236813 0.0059463836)
(0.0085927485 -0.015719917 0.006654593)
(0.019038199 -0.019314674 0.0048907384)
(0.032720238 -0.026017713 0.0039911963)
(0.049491999 -0.031476642 0.0035061721)
(0.068143454 -0.035456528 0.0023200863)
(0.08889645 -0.038912978 0.0016701461)
(0.1107287 -0.0416529 0.00086108468)
(0.13343676 -0.043285146 0.00017905126)
(0.15620476 -0.044175515 -0.00033613548)
(0.17877774 -0.04429223 -0.0007521826)
(0.20072221 -0.043830369 -0.0010173613)
(0.22185279 -0.042931101 -0.0011985035)
(0.24199726 -0.041770655 -0.0012971715)
(0.26110212 -0.040550017 -0.0013056571)
(0.27918928 -0.039434779 -0.0012030905)
(0.29642415 -0.03858707 -0.0009903683)
(0.31308477 -0.038090742 -0.00072668973)
(0.32950522 -0.037960323 -0.00050112358)
(0.34595947 -0.038126367 -0.00038730465)
(0.36255659 -0.038475824 -0.0003769226)
(0.37923603 -0.038907356 -0.00040039598)
(0.39588697 -0.039370656 -0.0003376515)
(0.41298419 -0.023222846 -0.00017218522)
(0.41346517 -0.0066677278 -0.00016788737)
(0.41404668 0.009846937 -0.00012796713)
(0.39809298 0.026938176 -0.00015000175)
(0.38155352 0.02752126 -0.00020631435)
(0.36501105 0.028053175 -0.00023269176)
(0.34854623 0.028533932 -0.00020716784)
(0.33219366 0.029100296 -7.6773243e-05)
(0.31586418 0.029897024 0.00014254111)
(0.29934897 0.031038461 0.00044426537)
(0.28236348 0.032540745 0.00078620964)
(0.26461597 0.034329918 0.0011160501)
(0.2458908 0.036259232 0.0013691133)
(0.22607148 0.038165049 0.0014813329)
(0.20518371 0.039877655 0.0013941762)
(0.18334946 0.0412799 0.0011055249)
(0.1608114 0.042091084 0.00057750263)
(0.13797123 0.042365513 -0.00012052229)
(0.11500651 0.041610835 -0.0010195422)
(0.092771811 0.040093699 -0.001972171)
(0.071509168 0.03728054 -0.0029077273)
(0.052411718 0.033350975 -0.0038724275)
(0.035034976 0.028326776 -0.004832093)
(0.020595418 0.022564635 -0.0057876561)
(0.010304595 0.014766731 -0.006242267)
(0.0048526148 0.0080347141 -0.005269229)
(0 -2.1766127e-20 0)
(0 -2.2697514e-20 -4.6815892e-20)
(0 -6.6894944e-20 0)
(0 3.9330271e-20 0)
(0 -4.3518189e-21 1.3875922e-20)
(0 2.9956212e-20 0)
(0.41229664 -0.03970131 -1.4783865e-06)
(0.41236706 -0.039766918 -9.5887935e-05)
(0.41242548 -0.039857813 -0.00017770164)
(0.41449179 0.026432153 -0.00024870555)
(0.41450339 0.026453861 -0.00014598464)
(0.41454314 0.026432122 -0.00010811881)
(-4.8321588e-06 0.0042030324 0.004787738)
(0.0068726467 0.0080676195 0.0035126514)
(0.017469174 0.01166682 0.0035465179)
(0.031807118 0.014676437 0.0031286815)
(0.048926572 0.01708475 0.0028353363)
(0.068566496 0.01881597 0.0024681386)
(0.089826729 0.01991221 0.0020684118)
(0.11230234 0.020437294 0.001747329)
(0.13538 0.020434106 0.0013722594)
(0.15861128 0.020003392 0.001045029)
(0.18160008 0.019265626 0.00072291657)
(0.2039471 0.018297521 0.00041077974)
(0.22535514 0.017231915 0.00012023176)
(0.24559613 0.016152107 -0.00011750072)
(0.26458888 0.015135099 -0.00026731357)
(0.28242187 0.014231959 -0.00031055622)
(0.29934294 0.013461898 -0.0002570418)
(0.31569886 0.012819258 -0.00015747437)
(0.33185328 0.01227436 -5.9478203e-05)
(0.34806633 0.011776993 -2.4185807e-05)
(0.36444838 0.01131068 -5.0585685e-05)
(0.38098589 0.010847539 -0.00011549256)
(0.39754482 0.01036187 -0.00018260523)
(-0.0014084983 0.00083438883 0.00045843935)
(0.005686676 0.0011098903 0.00016123152)
(0.016413012 0.0017262946 0.00036297809)
(0.030592598 0.001957974 0.00057853126)
(0.04778317 0.0017909547 0.00062163124)
(0.067264097 0.0015352105 0.000746445)
(0.088527296 0.0011001027 0.00082702885)
(0.11100163 0.00054218019 0.0008791483)
(0.13411564 -0.00013325758 0.0009087276)
(0.15742391 -0.00084992087 0.00092166999)
(0.18046276 -0.0016021996 0.00089325359)
(0.20288482 -0.0023165414 0.00082548829)
(0.22437358 -0.0029468032 0.00071687031)
(0.24470889 -0.0034572218 0.00058170222)
(0.26379785 -0.0038412278 0.00044368115)
(0.28171575 -0.0041155954 0.0003265782)
(0.29869786 -0.0043238458 0.00024017712)
(0.3150954 -0.0045099777 0.00017666576)
(0.33126716 -0.0047174173 0.00011953779)
(0.34749671 -0.0049762058 5.6109101e-05)
(0.36388425 -0.0052932459 -2.7407216e-05)
(0.3804153 -0.0056717666 -8.0292718e-05)
(0.3969932 -0.0061064105 -0.00011585369)
(-0.0020942888 -0.0023642023 -0.0026874159)
(0.0056014518 -0.0046546255 -0.003010162)
(0.016044102 -0.0073783471 -0.0026120788)
(0.030356849 -0.010292864 -0.0022566663)
(0.047342797 -0.01299539 -0.0017887092)
(0.06668507 -0.015293484 -0.0012133929)
(0.087858294 -0.017444854 -0.00077463124)
(0.1102361 -0.019192865 -0.00027053502)
(0.13332371 -0.020628152 0.00017010551)
(0.15657904 -0.02174228 0.00057640699)
(0.17959224 -0.022522685 0.00091256152)
(0.2019766 -0.022985291 0.0011582495)
(0.22342876 -0.023139464 0.0012886265)
(0.24374709 -0.023033969 0.001295145)
(0.26284945 -0.022746002 0.0011938771)
(0.2808074 -0.022380851 0.0010140593)
(0.29784399 -0.022047567 0.00079266431)
(0.31429235 -0.021820616 0.00056068168)
(0.33050924 -0.021743765 0.00035038284)
(0.34677565 -0.021793384 0.00016738263)
(0.36321449 -0.021964087 4.6038573e-05)
(0.37979109 -0.022225263 -1.6111331e-05)
(0.39641774 -0.022586102 -5.5449533e-05)
(0 -1.3791633e-20 0)
(0 2.2786762e-20 4.7796186e-20)
(0 4.9646178e-20 0)
(-2.4876123e-20 4.9670422e-22 0)
(1.0390188e-20 -1.5395083e-20 -7.6678185e-22)
(-6.547833e-20 -5.8887069e-20 0)
(0 2.2400307e-20 0)
(0 6.0201384e-20 -1.6010918e-21)
(0 6.6295384e-20 0)
(0.0032944597 -0.0028285034 -0.0035370454)
(0.0042322953 -0.0037026392 -0.00066220533)
(0.0037682949 -0.0027318042 0.0020016141)
(0.011567133 -0.014703655 -0.0033239144)
(0.011575085 -0.014749728 -0.0002036735)
(0.011181603 -0.014188864 0.0033672576)
(0.020707242 -0.019979153 -0.0031463123)
(0.021454485 -0.019614104 -0.00048189092)
(0.021453855 -0.020510814 0.0025612327)
(0.034033805 -0.026190071 -0.0025987713)
(0.035033814 -0.02642223 -0.00020870487)
(0.034367921 -0.026132555 0.0020276569)
(0.050439427 -0.031535368 -0.0021066302)
(0.050910453 -0.031497904 -0.00034903474)
(0.050866634 -0.03175048 0.0016737867)
(0.068670296 -0.035861654 -0.001603821)
(0.069353461 -0.035713018 -0.00011179315)
(0.069189001 -0.035773402 0.0011693072)
(0.089009372 -0.039264557 -0.0010842295)
(0.089548699 -0.039405047 -0.0002210592)
(0.08955165 -0.039412925 0.00083381269)
(0.11058821 -0.042033398 -0.00058185274)
(0.11103752 -0.041819405 -1.2670189e-05)
(0.11103685 -0.04190926 0.0004734829)
(0.13294006 -0.043767568 -7.6966603e-05)
(0.13328852 -0.043639604 5.7144757e-05)
(0.13337254 -0.043622903 0.00015201004)
(0.1555784 -0.044748087 0.00035069851)
(0.15580829 -0.044498461 0.00017721497)
(0.1559471 -0.044456837 -8.3667977e-05)
(0.17806565 -0.044954242 0.00071974232)
(0.17819448 -0.044670935 0.00027600538)
(0.17833631 -0.044559038 -0.00025225321)
(0.20007137 -0.044526387 0.00099404696)
(0.20007118 -0.044221081 0.00034775781)
(0.2002149 -0.044053886 -0.00035633862)
(0.22130267 -0.043614593 0.0011418491)
(0.2211977 -0.043332552 0.00036324481)
(0.22132964 -0.043126519 -0.00043438153)
(0.24156863 -0.042400958 0.0011615955)
(0.24138634 -0.042162399 0.00032496274)
(0.24150313 -0.041943103 -0.0004956325)
(0.2607782 -0.041089944 0.0010683424)
(0.26056143 -0.04090105 0.00024845549)
(0.26065852 -0.040698887 -0.00053621399)
(0.27896686 -0.039881377 0.00089638335)
(0.27875381 -0.039729093 0.00016601999)
(0.27882428 -0.039558712 -0.00052823825)
(0.29630241 -0.038939537 0.00068117138)
(0.29612414 -0.038809612 9.5427681e-05)
(0.29616106 -0.038676444 -0.00046384074)
(0.31305918 -0.038362233 0.00045047472)
(0.31292952 -0.038253046 3.254567e-05)
(0.31293641 -0.038150494 -0.00036591398)
(0.32954078 -0.038160882 0.0002285496)
(0.32946348 -0.038077429 -3.9355329e-05)
(0.32945344 -0.038001876 -0.00028466224)
(0.34599165 -0.038259658 3.8997893e-05)
(0.34595855 -0.038213525 -0.00012574139)
(0.34595126 -0.038168444 -0.00026195951)
(0.36253505 -0.038533346 -8.7058668e-05)
(0.3625313 -0.038524984 -0.00020177961)
(0.36253816 -0.038518191 -0.00029000265)
(0.37914595 -0.038885136 -0.00013027752)
(0.37914773 -0.038908477 -0.00022942692)
(0.37917253 -0.03893843 -0.00031876293)
(0.39575399 -0.039254518 -9.832729e-05)
(0.39577741 -0.039291793 -0.00019311262)
(0.39582225 -0.039355585 -0.00028168988)
(0.41391762 0.009927098 -0.00023154069)
(0.41394147 0.0099388803 -0.00017345771)
(0.41398917 0.0098967764 -0.00013992147)
(0.41335309 -0.0065688569 -0.00014857579)
(0.41336719 -0.0065832734 -0.00013214105)
(0.41342651 -0.0066248447 -0.00015005715)
(0.41280185 -0.023078275 -3.6825543e-05)
(0.41285681 -0.023112778 -7.5746479e-05)
(0.41292237 -0.023164824 -0.0001459037)
(0.0065198259 0.0071757215 0.0032281376)
(0.0066700328 0.0076263217 0.00081160554)
(0.0069539936 0.0074569451 -0.0020055489)
(0.01257618 0.015280353 0.0035765733)
(0.013006591 0.015407131 8.7418557e-05)
(0.012727064 0.015149979 -0.0031296242)
(0.022978937 0.023183363 0.0034057086)
(0.023630023 0.022668797 0.00068697135)
(0.023446766 0.02286473 -0.0030186631)
(0.036783219 0.029039357 0.0031411352)
(0.037314368 0.028984448 0.00042148784)
(0.03703261 0.028777316 -0.0024284269)
(0.053350345 0.034364998 0.0028744625)
(0.054065778 0.034158583 0.00066328103)
(0.053829287 0.034016816 -0.0016807565)
(0.072462317 0.038257711 0.0025186876)
(0.072880471 0.037963745 0.00075423658)
(0.072897625 0.037819514 -0.0012477465)
(0.093120801 0.040981738 0.0021578649)
(0.093619133 0.040811443 0.00077617574)
(0.093566728 0.040567219 -0.00068942375)
(0.11501356 0.042736113 0.0018295131)
(0.11540298 0.042413797 0.00082999185)
(0.11542322 0.042176698 -0.00015192978)
(0.1374444 0.043287721 0.0014852649)
(0.13781053 0.043027202 0.0010004285)
(0.13791691 0.042795334 0.00043083422)
(0.1601 0.043061296 0.0011578903)
(0.16039478 0.042776046 0.00091266413)
(0.16054109 0.042513618 0.00081215085)
(0.18249659 0.04200172 0.0007430282)
(0.18268858 0.041742193 0.00083995013)
(0.18281126 0.0414753 0.0010164564)
(0.20431836 0.040377246 0.00035851083)
(0.20439837 0.040163208 0.00070591075)
(0.20452998 0.039958427 0.0011207426)
(0.22531795 0.038357441 -1.3140757e-05)
(0.22527946 0.038232401 0.00050611767)
(0.22538928 0.038084848 0.0010608033)
(0.24531049 0.036178023 -0.00031062017)
(0.24516574 0.036143809 0.00027888976)
(0.2452547 0.036068997 0.00087893632)
(0.2642292 0.034066051 -0.00048962184)
(0.26401959 0.034103943 6.9517662e-05)
(0.26408172 0.034092625 0.00062932534)
(0.28214473 0.032207464 -0.00052945118)
(0.28191929 0.03228382 -7.9961424e-05)
(0.28195432 0.032317045 0.00037327393)
(0.29925469 0.030723354 -0.00044675748)
(0.29905844 0.030806989 -0.00015349731)
(0.29907428 0.030860495 0.00015434204)
(0.31584987 0.029650781 -0.00030099754)
(0.31570896 0.029716266 -0.00016238157)
(0.31571045 0.029775053 -8.6059641e-06)
(0.33221785 0.028923493 -0.0001582728)
(0.33212646 0.028973905 -0.00014247256)
(0.33213202 0.029017588 -0.00011559431)
(0.34858335 0.028430005 -7.9404383e-05)
(0.34853147 0.028457447 -0.00013030418)
(0.34853745 0.028482532 -0.00018447552)
(0.36501978 0.028015406 -8.795928e-05)
(0.36497873 0.028044511 -0.00014009578)
(0.36499935 0.028034232 -0.000207205)
(0.38153982 0.027530515 -0.00014130574)
(0.38151401 0.027559793 -0.00017121099)
(0.38152949 0.027525316 -0.00021622439)
(0.39805131 0.027006457 -0.00020399862)
(0.39803851 0.027034773 -0.0001808422)
(0.39805732 0.026991974 -0.00015988018)
(0.00033922848 0.0022348352 -0.0035921949)
(0.0076974425 0.0084874997 -0.0032261553)
(0.017626478 0.01081703 -0.0026879825)
(0.032499674 0.014062891 -0.0024356337)
(0.049610949 0.016332288 -0.001858868)
(0.069244922 0.018041765 -0.0013846687)
(0.090642425 0.019193717 -0.00088500902)
(0.11316845 0.019739356 -0.00039297296)
(0.13628429 0.019816376 -4.9838505e-06)
(0.15948821 0.01957208 0.00036208182)
(0.18229468 0.019080764 0.00056933228)
(0.2043815 0.01837497 0.00067768427)
(0.22548871 0.017554594 0.00068038458)
(0.24548256 0.01664101 0.0005786323)
(0.26431793 0.015683235 0.00041748336)
(0.28209744 0.014744467 0.00023306039)
(0.29904493 0.013894626 6.0381609e-05)
(0.31547488 0.013169432 -7.7946895e-05)
(0.33171614 0.012565511 -0.00017329136)
(0.34800566 0.012026115 -0.00022990188)
(0.3644462 0.011496543 -0.0002508002)
(0.38100116 0.010946981 -0.00023537701)
(0.39754703 0.010388617 -0.00018932226)
(-0.0012275676 0.0011869802 5.4755477e-05)
(0.0063968917 0.0019683362 -0.00052268942)
(0.01714394 0.0016318932 -0.00018102778)
(0.03188862 0.001952833 -0.00042005339)
(0.048852996 0.0017992484 -0.00034532202)
(0.068513413 0.0014778159 -0.00026988505)
(0.08976809 0.0011015658 -0.00020247343)
(0.11224388 0.00054115843 -0.00013469408)
(0.13532601 -5.4624097e-05 -2.0554338e-06)
(0.15842786 -0.00067995527 5.8397848e-05)
(0.1811977 -0.0012772513 0.00014436932)
(0.20325431 -0.0018124889 0.00017469832)
(0.22439278 -0.0022977631 0.00014413262)
(0.24445971 -0.0027230109 4.9586643e-05)
(0.26339404 -0.0031174343 -6.2891969e-05)
(0.28126642 -0.0034724632 -0.0001712)
(0.2982828 -0.0037885844 -0.00024005994)
(0.31475938 -0.0040736938 -0.00027165694)
(0.33103909 -0.0043531567 -0.0002809908)
(0.34737702 -0.0046782946 -0.00029315804)
(0.3638583 -0.0050835516 -0.0002939811)
(0.38043965 -0.005584998 -0.0002851733)
(0.39699927 -0.0061217919 -0.0002428641)
(-0.0019913165 -0.0021857555 0.0024886737)
(0.0068418923 -0.0038612818 0.0024834819)
(0.017364879 -0.0084242348 0.003093471)
(0.031552268 -0.01009733 0.0019124571)
(0.048575069 -0.013264158 0.001930867)
(0.067996381 -0.015606104 0.0014203457)
(0.089057655 -0.017609016 0.00095966767)
(0.11149426 -0.019388338 0.00066978152)
(0.13443997 -0.020697534 0.0002759919)
(0.15753711 -0.021696724 1.5816233e-05)
(0.18025746 -0.022310046 -0.00023507678)
(0.20230067 -0.022583584 -0.00044813848)
(0.22343386 -0.022565504 -0.00063103435)
(0.24350597 -0.022334874 -0.0007672454)
(0.26246903 -0.022007008 -0.00083211119)
(0.28037954 -0.02168094 -0.00081322333)
(0.29743145 -0.021437946 -0.00071606307)
(0.31393724 -0.021317343 -0.00058444234)
(0.33024716 -0.021325344 -0.00046981943)
(0.34663219 -0.021461663 -0.00040244932)
(0.36318526 -0.021733046 -0.00038030451)
(0.3798208 -0.022137318 -0.00033520188)
(0.39644308 -0.022652303 -0.00028165303)
(0.0017667975 0.002013068 0.0020043014)
(0.0020295956 0.0023068456 0.00049645057)
(0.0024472035 0.0020912914 -0.0013712768)
(0.0095469333 0.0080267663 0.0016676048)
(0.010345827 0.0079262556 9.3427503e-05)
(0.0098214068 0.0079218381 -0.002015658)
(0.019952647 0.011396826 0.0016234453)
(0.020401393 0.011284849 7.5866129e-05)
(0.020155417 0.011193778 -0.0014129082)
(0.033945253 0.014727314 0.0015355965)
(0.034688494 0.014580048 0.00023267366)
(0.034286717 0.014391183 -0.001192553)
(0.050818572 0.017124175 0.0013628398)
(0.051439139 0.016899973 0.00036104853)
(0.051239685 0.016740914 -0.00093424549)
(0.070034174 0.018887758 0.0013265352)
(0.070621779 0.01873585 0.00043676375)
(0.070384798 0.018495936 -0.00052510065)
(0.09098912 0.020064096 0.0011711119)
(0.091492433 0.019837663 0.00056074025)
(0.091406701 0.019652771 -0.00021538789)
(0.11313713 0.020606675 0.0011015136)
(0.11357093 0.020383238 0.00063709918)
(0.1135579 0.020227395 9.3615827e-05)
(0.13592901 0.020659662 0.00098235423)
(0.13626783 0.020445951 0.00069612367)
(0.13633579 0.020298315 0.00034564531)
(0.15886873 0.020255747 0.00087028401)
(0.15912523 0.020063204 0.00074355905)
(0.15925492 0.019963501 0.00056902828)
(0.18156052 0.019519956 0.00072924762)
(0.18171119 0.019381108 0.00072432466)
(0.1818645 0.019329945 0.0006933339)
(0.20363461 0.01857043 0.00056660817)
(0.20367632 0.018499078 0.00064537528)
(0.2038392 0.01850649 0.00072193398)
(0.2248376 0.017488642 0.00036036298)
(0.22477132 0.017483481 0.00049880452)
(0.22491312 0.017533512 0.00064523593)
(0.24496569 0.016372147 0.00015154684)
(0.244815 0.016422262 0.00031367588)
(0.24492581 0.016507145 0.00049072955)
(0.26395102 0.015303532 -2.4318628e-05)
(0.26375269 0.015383753 0.00012841794)
(0.26382779 0.015486687 0.00030160185)
(0.28186517 0.014343321 -0.00013240626)
(0.28166042 0.014429279 -1.6004286e-05)
(0.28170272 0.01453481 0.00012385388)
(0.29892122 0.013528452 -0.0001617413)
(0.29874653 0.013602956 -0.00010089896)
(0.29876336 0.013700766 -1.3500174e-05)
(0.31542829 0.012864597 -0.00013723941)
(0.31530177 0.012918513 -0.00013314062)
(0.31530629 0.013006134 -0.00010524012)
(0.3317113 0.012317962 -9.7409889e-05)
(0.33163751 0.012362077 -0.00014440575)
(0.33163464 0.012428499 -0.00016740292)
(0.34801076 0.011859005 -8.0953908e-05)
(0.34796638 0.01187831 -0.0001585322)
(0.34797344 0.011925462 -0.00021391951)
(0.3644302 0.011410798 -0.0001127426)
(0.3644063 0.011435039 -0.00018354947)
(0.3644195 0.011443001 -0.00024433579)
(0.38095757 0.010950508 -0.00016626187)
(0.38094709 0.01096939 -0.00021137519)
(0.38095959 0.010950105 -0.00024643664)
(0.3974839 0.010471311 -0.00020051685)
(0.3974755 0.010479147 -0.0002046455)
(0.39750005 0.01044315 -0.00020361415)
(0.0002737813 0.00056690837 2.2896543e-05)
(0.00091721494 0.00087470494 -0.00020398481)
(0.0012025654 0.00077828186 -7.8158662e-05)
(0.0082024057 0.0012268659 -0.00020803555)
(0.0088548369 0.0014761577 -0.00031710692)
(0.0081264909 0.0012848662 -0.00046769053)
(0.018873622 0.0017104814 -1.9131203e-05)
(0.019395324 0.0016028735 0.00013674327)
(0.019174604 0.0015223195 -0.00023795225)
(0.032824002 0.001749898 0.00010151087)
(0.033783045 0.0016684798 0.00010453231)
(0.033271814 0.0014074355 -0.00017269555)
(0.049746905 0.001735349 0.00029657655)
(0.050388875 0.0015844698 0.00034835715)
(0.050041316 0.0015016868 -0.00016153916)
(0.068876418 0.0014913093 0.0004396968)
(0.06950532 0.0013476655 0.00034929004)
(0.069300497 0.0012007401 -8.1453381e-06)
(0.089823726 0.0011077397 0.00052748887)
(0.090343818 0.00093573271 0.00046335522)
(0.090227109 0.00080344935 3.9344749e-05)
(0.11198571 0.00056652883 0.00065230302)
(0.11237469 0.0004451676 0.00051663787)
(0.11238725 0.00034802772 0.00016218817)
(0.13479093 -5.1287908e-05 0.00070425176)
(0.13508005 -0.0001644089 0.00056446757)
(0.13520029 -0.00025387397 0.00026048206)
(0.15777606 -0.00073348986 0.00076093372)
(0.15794882 -0.00080724743 0.00060120754)
(0.15812946 -0.00084535211 0.00033848983)
(0.18050348 -0.0014310707 0.00076980759)
(0.18056946 -0.0014600385 0.00059077291)
(0.18078192 -0.0014385776 0.0003805709)
(0.20263493 -0.0020993162 0.00072831538)
(0.20259285 -0.0020616864 0.00054185949)
(0.20280149 -0.0019847655 0.00037105195)
(0.2238944 -0.0026934592 0.0006299966)
(0.22376348 -0.0026040927 0.00042881061)
(0.2239476 -0.0024873634 0.00029231791)
(0.24409041 -0.0031891473 0.00048884113)
(0.24389998 -0.0030579183 0.00027991307)
(0.24404558 -0.0029162416 0.0001675031)
(0.26314621 -0.0035794152 0.00033355654)
(0.26292926 -0.0034326367 0.00012477529)
(0.2630309 -0.0032923502 2.5682202e-05)
(0.2811245 -0.0038812594 0.00019774423)
(0.28091453 -0.0037396977 -5.7396177e-07)
(0.28097289 -0.0036191749 -9.2613891e-05)
(0.29823069 -0.0041234256 9.9673095e-05)
(0.29805388 -0.0040035234 -7.8280476e-05)
(0.2980756 -0.0039055572 -0.0001666608)
(0.31477697 -0.0043458546 3.5392265e-05)
(0.31464587 -0.0042484541 -0.0001174773)
(0.31464333 -0.0041710562 -0.00020128784)
(0.33108417 -0.0045805406 -1.3935683e-05)
(0.33100472 -0.0045079572 -0.0001449966)
(0.33099247 -0.0044451207 -0.00022163636)
(0.34741171 -0.0048604887 -6.2367725e-05)
(0.34737136 -0.0048076962 -0.00017791521)
(0.34736329 -0.0047648491 -0.00024869578)
(0.36384462 -0.0051980205 -0.00012180559)
(0.36382783 -0.0051657335 -0.00021229573)
(0.36382798 -0.0051508353 -0.00027836654)
(0.38038037 -0.0056104596 -0.00016193791)
(0.3803774 -0.0055876151 -0.00022957666)
(0.3803836 -0.0056040866 -0.00028412727)
(0.39692053 -0.0060452799 -0.00016232635)
(0.39691864 -0.0060501425 -0.00019849562)
(0.39694313 -0.0060886248 -0.00023153654)
(0.00036188406 -0.0016448125 -0.0011613426)
(0.00021958028 -0.001463958 -1.9020185e-06)
(0.00013332026 -0.001341862 0.0011721193)
(0.0089329476 -0.0045844052 -0.0016768502)
(0.0094222565 -0.0038615329 -6.8369728e-05)
(0.0088525179 -0.0041156634 0.0012414862)
(0.018920671 -0.0078770643 -0.0014511732)
(0.01954014 -0.0084806999 -0.0001311288)
(0.019417826 -0.008461299 0.0013210224)
(0.033008014 -0.010979569 -0.0012127268)
(0.033495414 -0.010785233 -2.9447604e-05)
(0.033316812 -0.010776017 0.0010301432)
(0.049511867 -0.013461354 -0.00092726341)
(0.050034895 -0.013745926 1.5270783e-06)
(0.049970506 -0.013706994 0.00071380234)
(0.068509158 -0.015927789 -0.00063762566)
(0.068936922 -0.016071694 -1.2442748e-05)
(0.068945509 -0.016026458 0.00060618454)
(0.089246347 -0.017961842 -0.00036893908)
(0.089628383 -0.018097411 9.5071823e-05)
(0.089729797 -0.01799798 0.00041812147)
(0.11122973 -0.019650419 -8.3016523e-05)
(0.11156712 -0.01978049 0.00010915546)
(0.11172369 -0.019729827 0.00027402906)
(0.13391553 -0.021029591 0.00017098604)
(0.1341957 -0.02109916 0.00019731636)
(0.13439499 -0.021005834 0.00017500669)
(0.15680687 -0.022035808 0.00042564567)
(0.15702104 -0.022061221 0.0002671587)
(0.15723656 -0.021936468 9.0308961e-05)
(0.17948971 -0.022695425 0.00063422383)
(0.17962433 -0.022661453 0.00033161833)
(0.17981173 -0.022508644 3.6787511e-05)
(0.20159368 -0.023012925 0.00078839091)
(0.20163528 -0.022932205 0.00036761085)
(0.2017799 -0.022749748 -2.3376561e-05)
(0.22284813 -0.023027558 0.00085692078)
(0.22280934 -0.022912115 0.00035257834)
(0.22290903 -0.022712825 -0.00010149419)
(0.24306366 -0.022809096 0.0008325959)
(0.24296024 -0.022670395 0.00029203447)
(0.24302177 -0.022471349 -0.00019279303)
(0.2621594 -0.022449044 0.00073132557)
(0.26201817 -0.022303908 0.00020112174)
(0.26205296 -0.022127304 -0.00027625917)
(0.280193 -0.022058273 0.00058314015)
(0.28004041 -0.021918956 0.00010901206)
(0.28005451 -0.021777456 -0.00032239686)
(0.29736097 -0.021734301 0.00041974129)
(0.29721769 -0.021610626 3.4589516e-05)
(0.2972113 -0.021505546 -0.00032086735)
(0.31396373 -0.021542268 0.00026284165)
(0.31384596 -0.021438367 -2.2854187e-05)
(0.31382118 -0.021365227 -0.00028917359)
(0.33032637 -0.021505755 0.00012233889)
(0.33024406 -0.021425747 -7.7578845e-05)
(0.33021005 -0.021377774 -0.00026126199)
(0.34670326 -0.021609235 -1.148299e-06)
(0.34665756 -0.021559497 -0.00013921706)
(0.34663003 -0.021530411 -0.00026396313)
(0.36320101 -0.021839571 -8.6006556e-05)
(0.36318089 -0.02181668 -0.00019112228)
(0.36317028 -0.021810912 -0.00029009029)
(0.3797788 -0.022166565 -0.00012943975)
(0.37977388 -0.022169557 -0.00021556337)
(0.37978183 -0.022189106 -0.0002926429)
(0.39635046 -0.022565232 -0.00011246507)
(0.39635592 -0.022598159 -0.00018705382)
(0.39639217 -0.022639479 -0.00024729968)
)
;

boundaryField
{
    free
    {
        type            calculated;
    }
    fixed
    {
        type            calculated;
    }
    freeTop
    {
        type            calculated;
    }
}


// ************************************************************************* //
