/*--------------------------------*- C++ -*----------------------------------*\
  =========                 |
  \\      /  F ield         | OpenFOAM: The Open Source CFD Toolbox
   \\    /   O peration     | Website:  https://openfoam.org
    \\  /    A nd           | Version:  6
     \\/     M anipulation  |
\*---------------------------------------------------------------------------*/
FoamFile
{
    version     2.0;
    format      ascii;
    class       pointScalarField;
    location    "0.18";
    object      p;
}
// * * * * * * * * * * * * * * * * * * * * * * * * * * * * * * * * * * * * * //

dimensions      [1 -1 -2 0 0 0 0];

internalField   nonuniform List<scalar> 
3969
(
712842.99
-1130590.9
310.3473
171.30175
1365855.5
-2246858.7
-268.57108
470.04082
562362.92
379085.62
185133.93
-16292.908
-165687.9
-397951.04
-429347.32
594.32362
1336.3282
806.96302
625.97299
369.29215
193.67048
-28.311055
224315.25
245316.34
231699.35
236926.08
226562.27
222878.78
214097.37
207283.03
201093.51
194116.41
188900.12
183675.85
178253.47
172897.88
167385.26
161698.84
156574.88
151615.21
147344.04
143026.85
139169.05
134874.35
130272.02
124939.03
118391.12
111108.46
103603.62
96236.986
89093.291
82427.688
76381.1
70737.964
65251.741
59423.531
53044.111
46339.562
38498.172
30131.364
21788.969
14534.321
8017.3734
2944.7803
62.554321
-2423.8885
-2245.8612
-960.92433
-1288.9114
-247339.69
-202073.3
-235273.79
-203996.65
-223438.08
-203440.52
-206358.97
-194612.18
-193101.27
-185870.11
-181708.25
-176875.18
-169773.84
-165916.48
-159636.24
-154445.74
-149958.63
-144896.63
-141915.56
-138065.54
-134430.09
-131577.85
-126236.08
-121620.24
-114766.62
-107619.92
-100050.67
-91938.598
-84672.013
-77841.869
-72238.809
-66619.629
-61632.754
-56180.519
-50343.73
-43652.806
-36457.434
-27596.831
-19696.088
-11460.048
-4770.8222
224.30013
3406.6831
4562.9303
4389.4003
2932.7827
1294.2129
986882.92
737278.76
316826.66
-42971.421
-343442.9
-739922.09
-606017.78
-293142.94
-320858.92
-187659.98
-268296.25
-226388.55
-228783.09
-218501.78
-212463.8
-203810.95
-193315.84
-199868.86
-184605.18
-186555.6
-177634.22
-172974.54
-167378.76
-160970.14
-156536.35
-151431.41
-146749.24
-142629.69
-138125.45
-133202.74
-127484.41
-121390.33
-115327.71
-107208.87
-99329.496
-92433.622
-85451.712
-78934.389
-72897.064
-66810.541
-60732.659
-54225.443
-46713.948
-36939.937
-30090.427
-20784.1
-12857.647
-6177.6602
-1330.5235
1769.0413
3097.0069
2973.3867
2050.7219
932.69018
208.24297
-245.10765
-27.117865
-979.44282
557.98622
121.47653
-670.50421
-313.72913
-182.7689
-1364.6094
-1484.5862
-603.99683
2196.1506
6784.6598
13374.435
21397.758
29890.336
37307.315
50826.357
55641.413
62776.47
68850.966
74217.737
79627.377
85555.548
92139.388
99768.885
107850.24
116036.49
124565.06
132356.59
138881.91
144548.93
149213.2
153082.3
157123.98
160873.02
165953.33
169782.06
173051.23
183031
193940.98
192195.97
202520.73
203169.47
208847.76
219665.66
228607.15
225537
241384.05
238839.38
236187.75
259082.63
265958.24
632764.49
686598.13
719721.69
711261.59
704615.75
702934.96
575921.54
-911773.77
-1146601.6
-1306066.4
-1391126.2
-1319056.6
-1309156.1
-1024627.4
-1291.701
-1078.2965
-1777.1972
-1314.2599
-1114.7769
-133.37992
-854.8986
87.532076
543.92948
1538.0475
1752.5845
2151.2581
1778.2418
1107.1903
184502.7
187524.63
183909.01
182275.66
178235.4
174339.48
167138.92
164311.78
156248.93
154364.9
148160.9
143656.56
140576.46
136292.98
132287.31
128408.43
124749.17
120752.47
116752.93
112985.61
109152.83
105014.24
100761.76
96174.367
91518.739
86186.367
80662.086
75233.772
69730.488
64312.694
59080.995
53925.819
48725.846
43377.704
38070.8
32490.632
26759.915
21207.731
16265.586
11747.092
7405.9745
4477.9592
1627.797
103.73212
-785.15067
-869.37314
-1077.7206
114476.48
114537.05
112730.15
116897.93
115263.12
116727.01
111175.25
108227.18
104450.18
101756.17
98241.485
95976.3
92516.811
89866.511
87598.584
84936.877
82324.427
79288.749
76388.475
73271.643
69901.399
66606.848
63436.788
60426.931
57162.659
54274.444
51451.549
47841.725
44632.622
41128.343
37624.597
34096.917
30440.538
26999.162
23589.036
20372.42
17202.513
14488.523
11858.33
9351.0929
6772.9338
4829.6821
2544.1195
1128.07
-217.20521
-74.945673
-717.55911
49638.842
57583.044
52211.543
55580.399
53158.371
54972.058
51855.675
52649.963
49667.244
48776.595
47874.533
46547.66
45395.877
43241.622
41362.108
40483.498
39213.803
37868.902
36465.046
34875.646
33830.371
32746.125
31472.697
30381.967
29720.978
28489.253
27104.669
25734.035
24096.209
22046.554
19885.263
17745.168
15598.5
13766.517
12091.385
10700.763
9496.4311
8281.6255
6761.9905
5831.2239
4280.7228
3531.1382
1560.395
1328.8801
-83.606658
356.55025
-192.93067
-6037.2694
-5272.2899
-8819.0114
-3291.711
-8465.4302
-4931.4931
-8866.0899
-6822.8791
-7963.1062
-5239.2417
-6941.1986
-5161.5525
-5927.6969
-4531.7356
-4542.722
-3865.0638
-4042.7684
-3909.3394
-4383.707
-5043.2894
-5606.6914
-7119.4911
-8123.6274
-7518.2424
-7025.8464
-6199.8938
-5061.5892
-4068.9684
-3375.1234
-2915.1736
-2690.9957
-2510.313
-2533.8936
-2233.9069
-1863.1177
-1036.4322
-235.41897
872.33102
2187.4444
2996.2805
3345.1115
3490.1342
2572.0062
2640.4865
878.76539
1160.4108
453.31794
-73226.42
-63991.895
-64102.347
-65507.146
-67507.163
-65159.294
-65218.779
-62715.249
-62004.518
-58101.03
-57685.29
-53553.536
-53497.842
-49553.596
-48470.154
-45802.236
-44733.682
-43065.51
-42235.392
-41354.354
-39485.295
-37413.552
-35837.875
-32708.551
-30654.172
-28805.416
-25985.409
-23514.604
-21574.111
-19755.483
-18232.27
-16702.015
-15267.093
-13387.449
-11409.193
-9100.4634
-6681.6174
-4041.8735
-3470.3447
-1188.6365
2.3232942
1203.4374
1299.9064
1966.6927
684.0604
1567.5842
932.74221
-138874.88
-124889.23
-124702.03
-128537.61
-128253.43
-124557.83
-122710.53
-117984.72
-117104.91
-111312.59
-109979.13
-104797.99
-102938.56
-99242.205
-96324.093
-92488.384
-89778.886
-86791.383
-84574.43
-82341.09
-79217.581
-77504.545
-72517.591
-68362.164
-63804.081
-59393.326
-55563.703
-50984.183
-46799.236
-43084.056
-39772.851
-36589.73
-33588.618
-30275.206
-26968.909
-22754.089
-18394.358
-13768.937
-9034.0698
-4639.5634
-1502.0925
1001.5402
2310.3779
2994.295
2196.871
2034.4422
1242.1091
-229621.78
-158221.09
-184850.08
-179580.1
-183308.26
-176283.68
-174499.12
-168526.34
-166917.31
-159077.73
-158403.09
-151966.03
-147878.95
-142632.88
-137622.4
-132746.64
-128160.13
-124678.06
-120731.31
-117373.66
-114018.41
-109595.69
-105828.7
-101207.69
-95928.087
-90111.054
-85273.916
-78508.545
-72536.746
-66920.903
-61536.003
-56416.555
-51327.736
-46101.687
-40691.371
-34462.111
-28414.967
-22415.725
-15932.504
-9783.5084
-4793.6702
-906.88508
1489.5063
2862.9164
2731.5712
2274.0394
1751.737
432948.37
417232.62
437259.87
437224.16
438194.11
425169.36
398463.56
283161.17
320326.81
302276.64
310797.07
310758.75
302968.33
295144.79
138798.65
166117.67
139810
154964.62
144432.94
143559.76
152992.97
17652.284
-536.82593
-7366.4271
7717.6143
-1061.8263
-18621.695
38036.129
-91180.577
-94992.485
-103635.06
-91201.74
-97846.785
-92977.024
-53275.326
-293734.57
-319767.17
-314216.48
-323857.41
-331001.64
-322884.32
-303570.01
-358552.66
-322952.01
-284829.61
-293591.29
-274195.91
-254588.21
-283214.65
-409186.79
-420490.22
-470963.75
-485593.07
-496796.38
-486152.98
-380358.95
-299177.93
-347260.83
-347172.61
-353247.31
-370389.12
-351055.79
-320676.32
-233940.69
-264939.45
-279102.8
-281079.88
-278938.62
-259636.28
-275931.89
-231402.04
-254866.96
-246453.51
-262525
-252010.95
-251041.38
-233892.44
-226818.59
-239666.99
-245153.33
-244967.73
-245047.28
-235601.81
-238868.8
-218800.59
-213065.01
-215957.26
-220099.49
-219059.85
-216314.67
-213744.85
-207946.72
-212681.97
-214129.2
-216059.56
-214452.96
-216762.85
-216896.92
-205754.52
-201054.19
-200565.51
-201878.08
-199558.28
-203041.12
-202294.58
-198384.34
-197707.98
-196794.39
-197475.27
-198732.8
-200701.44
-202506.77
-195798.99
-191395.34
-188966.38
-190526.63
-189682.79
-189240.5
-191366.03
-189937.44
-188067.29
-184349.84
-185864.09
-185237.19
-184907.03
-191362.86
-183604.26
-181488.18
-178691.36
-180589.42
-179467.72
-175538.51
-183628.02
-179357.12
-173745.9
-174556.2
-172740.68
-174564.93
-171590.34
-178810.05
-171358.83
-168283.09
-169157.3
-166895.27
-168975.71
-164406.49
-170293.02
-166576.24
-162027.08
-163565.52
-160594.49
-162518.78
-159175.19
-164397.77
-159996.87
-155987.29
-158328.55
-155035.47
-157910.61
-154467.55
-158749.97
-154607.07
-151879.63
-153596.73
-150367.6
-153208.39
-149725.17
-152964.55
-150284.93
-147744.56
-150065.61
-146418.22
-149865.63
-145741.18
-149459.61
-146543.56
-144797.9
-147135.85
-143268.62
-146788.19
-142378.41
-146617.6
-143327.93
-142093.35
-144607.5
-140731.53
-144611.53
-139535.47
-144266.76
-140668.61
-139340.49
-141959.12
-138040.9
-141803.22
-136202.56
-141457.11
-136920.47
-136067.69
-138700.51
-134936.3
-138715.27
-132585.04
-138165.92
-132773.56
-131830.65
-134390.12
-130654.17
-133807.88
-127783.39
-133194.41
-127179.78
-126530.17
-128349.06
-124886.91
-128403.5
-122483.71
-127712.2
-120113.19
-120168.92
-120092.77
-118966.67
-120232.81
-115723.61
-119611.34
-111824.12
-112345.83
-110899.06
-112367.27
-112244.3
-109642.68
-112086.29
-104502.84
-104078.63
-103377.76
-103664.34
-103692.63
-100855.69
-103696.73
-96569.753
-95836.691
-95554.949
-95600.595
-94986.562
-93687.926
-94382.384
-88668.029
-88037.409
-87897.457
-87813.403
-87320.478
-86846.8
-86680.439
-82007.483
-81288.395
-81766.491
-81420.765
-81275.222
-80809.023
-80077.227
-76093.233
-76024.637
-76245.001
-76024.839
-75835.84
-75369.097
-74702.408
-71161.745
-70997.227
-71502.298
-71308.49
-71189.482
-70729.105
-70175.037
-66165.314
-66311.449
-66914.21
-66735.107
-66627.89
-65954.456
-65536.704
-60886.975
-61054.34
-61717.521
-61522.817
-61292.757
-60445.299
-60159.758
-54587.228
-54727.759
-55507.036
-55135.997
-54924.013
-53838.079
-53817.641
-47013.614
-47311.836
-47688.598
-47534.377
-47117.844
-46140.118
-46094.75
-38621.594
-37911.75
-39001.221
-38302.759
-38080.522
-37438.595
-36531.244
-28637.872
-28500.234
-28494.842
-28677.46
-27831.954
-27191.788
-26072.638
-19324.887
-18824.298
-19108.529
-18722.247
-18233.538
-17950.766
-17240.253
-10835.612
-10065.595
-10162.774
-9913.2644
-9446.3028
-9753.3966
-8516.1218
-3404.9137
-2837.471
-2891.745
-2763.7446
-2566.8018
-3138.5373
-1737.1509
1756.1928
2243.6517
2069.8595
1980.5734
2165.8464
1186.2269
2607.2989
4636.9787
4880.8636
4649.8481
4526.3304
4549.4903
3344.9845
4673.1963
5144.0752
5212.1428
4859.416
4691.5278
4646.7602
3510.5209
4606.3425
4328.6143
4128.9151
3791.4419
3696.3127
3515.4655
2750.0556
3505.5195
2214.4049
2030.731
1696.8876
1600.924
1608.3824
1336.223
1474.7664
1244.2857
556.50504
66.263256
155.87986
166.30404
168.89282
536.27347
-42.653941
-251.73393
657.88079
1050.1894
1531.7338
1375.6448
1011.0942
1815.0632
1130.6641
2123.3354
2175.3685
2517.2778
2136.4649
1735.1838
526.30104
251.70584
850.85257
1257.4383
1355.1668
1139.6476
485.54564
-470.95975
-794.61285
-643.56495
-575.5157
-471.58506
-391.7969
-641.61118
-594.77108
-959.23727
-895.59413
-534.50463
-241.31792
-297.05245
-458.43266
-1150.7239
-1714.1712
-1837.6559
-1477.3035
-1448.398
-762.77178
-1746.3209
-685.92464
-1229.5695
-1651.4719
-1362.6692
-908.72538
-779.40588
-520.22378
276600.03
278491.59
313653.99
307513.56
315868.85
297969.46
288313.87
281710.78
291847.62
303956.16
302431.65
307062.95
286660.8
282422.16
262462.85
266437.68
274275.45
275036.87
274434.59
259712.88
258381.01
242123.74
250011.89
255765.1
258322.35
255819.6
249429.4
249747.01
235929.66
237278.96
239394.27
240958.42
240792
237002.5
233531.69
221875.99
223419.21
226230.73
223824.97
226323.09
221145.68
223812.14
216426.05
215543.54
216458.56
216007.17
219707.68
216415.89
221669.57
205935.59
205357.81
207531.33
201885.54
207151.86
204997.65
208925.95
201890.66
201764.98
201698.6
200479.9
204718.52
201832.3
208929.5
196165.78
193483.2
194438.07
191798.53
196822.97
193702.7
201605.83
191082.74
188902.88
191816.49
188000.46
193667.11
190278.1
197199.72
184442.37
184692.46
184610
182233.61
186154.48
183652.23
191700.02
180671.09
177557.79
179097.4
176408.52
181465.75
177742.58
181162.55
174014.4
172780.91
173146.21
170973.81
174492.87
172494.61
178493.33
168040.36
166689.68
165933.26
166166.93
168027.43
166342.88
172480.16
163682.59
160371.95
160953.37
159200.9
163140.13
160510.35
164694.11
157813.66
155766.22
155564.71
155087.47
156911.85
155014.85
159556.06
153246.3
150825.01
151806.53
150325.14
152470.64
151143.78
154836.95
148836.13
147154.8
147974.28
146704.28
148973.12
147542.12
151201.75
145449.68
143524.11
144920.27
143734.83
145962.61
144344.08
148045.75
141963.45
140080.16
142078.24
140674.29
143192.31
141163.69
144989.51
138188.71
136468.51
138714.84
137308.43
139879.33
137212.87
141375.91
133690.54
132023.64
134646
133077.18
135686.77
132699.74
136773.11
128015.39
126770.19
129005.22
127480.05
129954.86
126484
130554.01
121680.98
119768.62
122245.93
120664.57
122845.11
119314.21
123205.79
114157.64
112088.01
114513.59
112855.04
114606
111261.23
114640.26
106033.25
104055.87
106177.65
104308.78
105723.84
102551.24
105691.49
98090.687
95986.383
97896.73
96196.343
97342.156
94779.669
97070.066
90233.248
88344.565
90194.048
88659.434
89247.705
86984.843
88960.503
83416.521
81862.816
83632.693
82232.94
82454.644
80782.718
82263.33
77341.928
76242.916
78026.197
76805.738
76930.016
75394.084
76635.402
72065.908
71317.842
73192.931
72131.485
72215.066
70628.306
71885.285
66963.632
66608.757
68597.447
67677.387
67776.787
66169.385
67459.408
61620.67
61583.146
63580.031
62738.875
63065.552
61052.545
62494.519
55631.943
55700.018
57510.73
56864.403
56966.406
55450.137
56229.857
48493.769
48570.782
50170.44
49424.67
50039.057
47512.324
48319.524
40199.496
40037.5
41047.396
41002.951
40742.71
40093.031
40684.845
31483.401
31262.342
31832.481
31795.209
31473.276
29873.099
30619.26
22611.704
22310.75
22169.222
21999.754
21731.684
20789.068
21133.797
14277.467
13587.454
13350.009
13295.354
12637.067
12481.059
12237.406
6851.7166
6405.7766
5759.0675
5767.6688
4980.574
5625.3958
4793.2411
1559.4023
922.55617
341.54948
473.42466
-320.26728
855.90022
-318.66725
-1622.653
-1708.8064
-2399.2688
-2060.6404
-2961.853
-1574.4674
-3059.8554
-3416.4906
-3620.5593
-3850.0245
-3597.0931
-4147.8978
-2884.8556
-3872.6106
-2358.6102
-2072.4856
-2175.046
-2074.9571
-2630.0996
-1810.8396
-2391.6968
-1335.6352
-947.06319
-731.4944
-492.20708
-255.10312
216.37813
6.6733792
-271.99669
489.31383
779.5237
1033.2985
698.9539
355.60559
-212.01112
270143
202680.99
196868.65
190577.74
194189.46
192922.34
181892.65
180864.15
174785.82
170853.05
164448.36
159674.08
154031.17
148249.1
144922.73
140304.82
135570.4
131543.98
127584.53
123622.37
119265.12
114533.89
109412.06
103926.02
98066.512
92402.387
86141.982
80227.605
74758.806
69375.743
64176.875
58874.957
53351.453
47330.992
41910.114
34035.812
29089.121
24389.699
18156.186
13357.878
9543.1321
6437.3214
4115.9483
2420.476
1289.0017
-13.183682
-706.07737
159929.11
159053.5
112319.62
129665.93
142083.93
128425.96
133877.89
123980.79
124692.34
118628.46
116942.09
112902.93
107778.91
104884.04
101801.05
99128.377
95786.991
92640.522
90208.688
87516.988
84877.165
82192.659
79107.195
75577.64
71709.723
66360.005
63826.765
58908.279
54722.375
50779.974
47201.527
43850.316
40649.455
37496.211
33814.48
29608.364
25941.301
21162.072
16570.789
11607.399
7729.5674
4137.297
1786.8762
118.91912
-476.37268
-750.45264
-704.81602
74873.534
87396.086
43666.965
75338.94
60893.176
56923.955
58934.474
56977.589
56390.455
53769.321
55807.328
52646.658
54004.533
51631.496
50998.397
50363.622
48643.849
47591.304
46677.872
45002.161
43648.554
41898.903
39866.085
37640.634
35230.42
32668.579
30931.588
28143.566
26259.904
24506.211
23081.653
21708.313
20322.427
18617.531
16615.578
14416.841
12017.56
9546.1885
7350.2209
5523.4375
4138.7981
3128.7854
2589.7169
2216.1254
1953.585
1286.6845
582.23024
-8965.5696
17306.044
-6168.4804
10644.867
-2809.1499
6183.4198
2892.0666
-2498.6292
1913.0728
2540.9322
964.3412
4425.3301
2502.7431
5754.6035
6062.1397
6677.7375
6610.2445
7085.319
7321.7122
7395.1448
7830.1575
7884.5214
7860.4852
7632.7399
6902.8801
6288.323
5510.7433
5183.3237
4897.4453
5095.2119
5380.931
5784.0094
6137.6562
6250.6018
6164.0011
5732.8666
5064.7947
4308.5705
3532.9209
2679.0857
2004.7402
1508.4942
1272.6251
836.98462
1026.4099
150.00951
756.59836
-115519.63
-53986.035
-66184.888
-43413.115
-60163.961
-44052.12
-54094.626
-47854.101
-43268.951
-44017.545
-38711.858
-40978.455
-38050.993
-40118.529
-38230.869
-37620.774
-36119.294
-34833.245
-33234.919
-31775.856
-30245.588
-29009.061
-27990.182
-27352.426
-26860.555
-26763.953
-25101.071
-23801.18
-22007.482
-20065.472
-17911.839
-15723.911
-13472.636
-11482.785
-9753.0179
-8239.7823
-6863.0819
-5552.1766
-4296.2927
-3041.8178
-1712.5016
-530.68831
494.85724
1312.8934
1727.9135
1711.51
1249.4102
-179475.09
-130592.29
-110193.96
-110983.79
-116568.09
-109652.04
-114041.21
-100316.43
-108539.72
-102540.68
-103905.57
-99247.959
-96585.451
-94846.648
-91220.565
-88318.346
-84926.66
-81702.887
-78637.261
-75931.893
-73125.35
-70086.008
-67073.772
-62492.377
-58148.076
-54271.968
-51480.889
-47960.322
-44634.376
-40917.125
-37288.037
-33405.925
-29540.075
-25888.227
-22421.568
-18904.541
-15585.328
-12560.209
-9686.1681
-6741.082
-4368.8567
-2141.7018
-322.77909
778.91698
1650.5292
1623.1098
1090.1246
-226518.58
-174668.07
-181447.43
-171544.61
-186096.71
-176749.45
-174266.42
-167481.55
-165212.45
-157598.85
-152434.46
-148954.68
-144726.48
-141732.03
-137994.84
-134765.21
-130858.87
-126066.16
-121694.06
-116751.01
-112145.49
-107801.82
-103733.17
-99670.927
-96886.095
-89581.615
-84315.461
-79050.771
-73476.165
-67837.399
-61667.563
-55499.549
-49599.782
-43728.143
-38411.257
-33338.03
-29375.525
-24581.359
-19338.405
-15013.249
-10335.511
-6122.5923
-2622.5227
73.132779
1725.2362
2300.1644
1622.4258
332928.63
364181.12
359359.32
372939.12
368776.15
349143.26
324655.5
228734.89
263623.83
261651.57
268652.68
260817.89
249852.23
228170.89
210684.12
229902.81
241681.38
244215.37
238850.68
237445.79
223795.94
197972.86
203957.92
207245.5
213204.41
204928.15
208583.59
189023.18
188997.75
193306.78
200593.4
196850.78
197458.79
194076.5
181287.72
181044.75
186898.1
181437.61
189913.6
183133.12
184505.08
183718.98
175993.52
174651.35
176168.58
176171.06
172096.62
176742.95
173619.05
168179.12
174427.03
167796.16
173398.61
171272.96
171282.7
170226.18
165772.46
163727.76
159431.87
166109.19
160618.18
164946.07
164525.57
158377.04
160111.72
158700.59
162289.33
157908.35
162184.62
160647.85
154076.85
156228.55
151717.02
155527.25
152385.24
155840.16
156260.88
151882.87
149910.75
148745.34
150781.55
149960.06
150950.32
151329.29
145499.61
145921.41
144183.51
147225.98
144533.79
146921.92
149378.39
141590.1
140808.36
139890.1
142233.14
139732.48
142025.1
143635.68
137720.91
136265.16
136881.89
136244.1
136026.54
137854.97
137338.74
132190.25
132240.73
132020.51
132687.29
131272.65
132672.2
133977.31
128137.43
127918.55
128083.25
128629.99
127381.15
129173.87
129636.59
123956.61
124364.43
124357.12
124312.03
123946.86
125206.18
125767.84
120172.77
120986.56
120752.88
121177.42
120797.17
121445.68
122092.57
116253.48
117431.5
117517.57
117690.7
117455.7
118056.21
118816.09
111861.79
114210.36
113984.07
114261.45
114038.16
114394.23
115256.29
107575.39
110375.86
109985.87
110331.28
110055.27
110431.19
111408.96
102768.76
106026.07
105277.16
105897.27
105342.99
105950.65
106761.01
97587.139
100909.93
100063.73
100578.29
100101.23
100614.86
101350.86
91683.177
95814.785
94027.319
95467.529
94159.568
95316.776
95842.619
86172.577
89600.258
88524.376
88828.68
88031.661
89182.862
89216.123
80792.645
83583.754
82314.315
82966.39
82234.152
83675.449
83209.964
74772.601
77581.746
76229.034
76955.223
76078.617
77166.717
76828.811
69278.129
72075.467
70941.016
71148.036
70686.082
71896.224
71408.935
63957.188
66766.731
65644.764
65761.621
65761.334
66661.339
66119.89
58911.642
61578.402
60669.838
60686.683
60939.811
61568.803
61251.523
53743.249
56573.34
55893.845
55880.689
56314.951
56761.827
56661.332
48610.16
51527.743
50993.938
50862.742
51441.654
51662.474
51994.582
43343.527
46229.132
45779.685
45675.066
46397.11
46522.866
46785.058
38028.341
40650.867
40192.192
40204.802
40667.248
40183.14
41427.983
32269.242
34434.185
34384.865
34249.6
34424.378
35505.307
36130.364
26700.809
29115.645
28386.005
28166.515
29147.268
27281.467
29954.285
21660.731
22791.499
22789.359
22078.771
22058.579
23313.621
22127.451
16563.189
16743.633
16614.676
16563.996
16536.156
16888.901
17456.872
11822.751
12016.368
11595.598
11462.708
11127.108
11904.629
11508.36
7898.567
7516.7371
7240.9077
7008.7124
7074.6413
7550.955
7293.0306
5008.871
4677.2581
4464.8716
4073.8176
4269.4349
4431.8527
3890.9363
2266.403
1966.9787
1715.3064
1430.0312
1739.4626
1773.3241
1497.6066
1574.6716
1311.3666
1394.699
785.75311
1206.0703
927.4567
476.85026
81.998558
135.11415
-57.413951
-254.73289
285.94755
6.3325418
-188.35512
48.503841
382.87855
469.39779
290.80913
607.61813
-33.502507
-479.75456
-377.98758
-178.08232
-40.99704
86.322913
279.08024
-174.25051
88.526112
211765.39
221966.8
242638.73
238563.65
246071.85
224953.55
222334.23
159622.2
196080.29
204472.62
209258.92
208899.19
193432
180583.23
153963.9
143397.55
161501
154420.64
162772.87
144845.08
148714.97
128650.9
135483.21
143124.69
140092.1
143101.68
137382.97
122646.11
130741.42
130560.91
136759.42
131548.29
139244.73
127447.54
130730.83
120520.79
120134.29
121805.54
119147.02
118428.89
122056.91
120623.49
117616.1
119076.73
124415.61
117746.77
123799.9
122059.53
118958.97
113085.47
111183.58
111474.1
108991.46
112912.51
109988.99
115080.4
109727.7
107526.94
113599.87
108885.87
110253.41
111771.27
113038.63
104752.67
105304.38
107071.59
101162.14
106345.49
105534.17
109718.47
103189.82
101758.26
103094.43
100578.08
103713.42
104024.05
105958.49
99703.625
97442.631
101992.88
97060.103
101938.97
99696.784
105549.4
96384.339
95449.75
99055.71
93365.888
98433.048
96119.364
100209.22
93586.86
93155.485
95748.669
91101.022
95531.282
93731.727
95835.632
90467.639
91341.453
91337.788
88301.413
92342.697
90343.084
92889.27
87939.719
88383.596
88504.42
86438.295
89036.237
87798.239
89191.177
84933.735
85929.125
85686.159
83372.935
86096.475
85627.677
87176.673
82242.449
83628.293
82901.363
81492.377
83525.626
82965.818
83904.517
79853.71
80878.313
80518.198
79236.333
81213.391
80622.384
82041.652
77081.322
78481.117
78149.594
77205.149
78898.595
78403.318
79952.301
74894.558
75986.424
75850.13
74964.941
76822.547
76263.596
77949.867
72540.89
73371.582
73331.299
72684.66
74632.929
73898.73
75507.981
70003.008
70395.888
70857.502
70175.128
72329.345
71156.275
72859.289
67070.814
67467.359
68241.412
67602.844
69502.127
68373.916
69636.47
63958.182
64395.343
65225.004
64272.151
66571.187
64620.944
65762.794
60723.954
61190.547
60865.762
62273.342
61942.046
61408.62
62425.948
56536.77
58159.507
58002.642
56543.866
59504.854
56496.312
56952.29
53460.661
53184.228
54879.813
53676.277
55060.352
53353.388
53014.854
49684.552
50399.151
50998.732
49803.653
51541.572
49415.781
49058.838
46119.988
46955.634
47023.941
46475.068
47680.391
45861.404
45384.377
42480.475
43525.468
43623.814
43436.849
44335.742
42711.295
42236.69
38872.406
40401.352
40276.668
40348.281
40991.622
39690.744
39256.096
35409.328
37246.995
36946.501
37472.96
37962.258
36923.309
36231.386
31992.484
33975.481
33683.418
34432.297
34720.696
33660.185
33282.83
28392.353
30497.806
30321.497
31218.448
31388.019
30908.419
30197.378
24825.743
27039.315
26875.88
27656.511
27866.451
26788.079
26239.328
21256.174
23184.979
22940.411
23748.366
23538.285
23299.11
22025.911
17680.091
19174.801
18872.332
19531.689
19481.041
19014.396
18017.883
13636.528
14957.322
14850.03
15021.262
15243.121
14611.601
13327.031
10158.354
11447.773
11176.536
11006.87
11066.935
10375.282
9303.0801
7102.6095
7752.6912
7288.3095
7210.4507
7079.7425
6746.3255
5855.5626
4176.9236
4842.2265
4181.5694
4102.9622
3928.0387
3560.2538
3158.8354
2325.6322
2864.8253
1866.6523
2211.1537
1588.8754
1664.1238
1445.0378
614.73109
668.01067
-92.54189
114.16593
-294.6318
-92.188295
183.81146
200.54356
487.06802
-291.60894
232.65592
-220.2931
-57.292424
250.37119
-323.88877
-318.24351
-807.24961
-332.22234
-638.93508
-597.56102
-120.48909
-98.598237
-259.17123
-293.7239
53.430224
132.11627
-19.899593
447.29481
118582.05
122121.61
116032.24
129202.73
121173.35
114242.66
108395.22
83238.607
120969.34
112655.7
123171.6
107089.42
111099.27
91713.222
78905.046
71418.402
76399.149
77009.529
73947.434
67379.448
67557.29
60404.731
74587.512
75943.866
82956.974
72648.267
78759.156
62564.047
67314.652
61958.301
65244.115
60249.951
61297.922
56854.439
59407.38
56986.184
65709.495
58817.121
62579.756
61058.851
60734.784
59491.243
59401.855
60993.922
52504.959
57135.135
57210.652
54302.619
56308.972
55083.79
61359.814
51759.736
57454.833
54593.252
53364.978
56860.97
55315.517
60466.94
49677.396
54330.177
53167.364
54075.4
55117.983
53991.182
57571.562
47409.109
52034.232
52801.469
51800.206
53650.527
51745.579
56450.514
46501.438
52910.639
51133.278
51788.551
52261.502
49403.578
54297.404
44955.07
49865.273
48931.27
49218.634
51195.427
46831.216
54476.77
43598.026
48895.004
48095.128
48025.473
49349.149
45965.814
51062.79
43429.288
47039.532
48191.405
44046.072
50983.762
45484.256
48358.872
42169.699
45830.191
45807.656
43671.567
48294.619
43208.979
46128.409
41883.54
43322.098
44793.712
41905.176
47446.241
41287.239
44979.732
40525.848
42630.065
43204.714
40958.738
45781.153
40023.477
43233.195
39419.6
41239.814
42020.527
40031.446
44227.399
38262.001
42009.684
38248.093
40203.018
40800.215
39000.52
43214.186
36921.086
40641.299
37151.887
39140.419
39497.442
38240.918
42220.24
35312.913
39243.67
36042.205
37976.024
38396.542
37369.67
40840.16
33678.229
37674.977
34700.4
36893.885
37178.814
35909.818
39570.601
32208.772
35984.353
33491.652
35847.58
35354.59
34662.264
37857.193
30563.611
34232.165
32216.781
33640.298
33670.527
32496.866
35627.516
29184.184
32629.571
30330.092
31991.594
31541.98
30792.178
33717.603
27671.878
30176.788
28956.457
29309.528
29565.003
28302.839
30937.37
26167.285
28845.531
26861.995
27989.82
26994.597
26473.351
28716.612
24597.318
27157.375
24549.783
25967.862
25178.602
24317.332
27150.944
22921.389
25312.996
23009.998
23780.283
23255.731
22340.263
25311.182
21231.144
23377.808
20952.537
22328.205
21568.763
20913.774
23785.518
19688.191
21589.83
19528.692
20820.408
19926.677
19585.473
22426.135
18007.145
19918.831
17992.868
19394.318
18595.301
18541.506
21088.509
16511.928
18181.417
16566.878
17986.936
17290.929
17267.797
19811.437
14932.648
16438.271
15172.265
16600.209
15921.114
16093.672
18383.692
13455.233
14708.641
13761.159
14967.947
14409.954
14401.079
16545.382
11962.565
12865.864
12090.123
13118.426
12571.371
12681.44
14659.333
10451.943
10929.239
10392.884
11126.095
10852.618
10489.452
12468.06
8849.1745
9149.3106
8652.5869
9242.0122
8689.6983
8526.1598
10072.379
7702.2289
7229.6902
6838.1735
7204.5026
6741.5054
6551.802
7777.6952
6260.8029
5908.7549
5218.716
5588.5924
4909.6415
4667.2985
5727.7445
4985.2002
4002.7691
3533.3071
3712.8088
3212.0274
3373.5456
3995.7002
3890.2394
3540.7554
3052.5989
3204.1167
2697.4083
2678.4887
2705.9159
2793.7866
1821.1136
1600.8314
1763.7676
1227.6536
1742.2423
1658.4881
2405.5138
2107.6365
2185.3545
2166.2683
1802.0134
2303.2927
1433.8955
1518.053
954.12651
1292.6398
1287.9471
1227.7032
1765.2176
827.14993
1289.5829
1442.8678
1465.3155
1609.5745
1522.0058
1658.1826
573.95795
134.47835
-146.6199
598.36434
786.43671
905.59274
1315.4649
1300.2761
-24.092572
-8001.3665
-3224.5966
-2387.5815
-4769.7946
-5512.5187
5409.3211
-4178.243
-1898.4751
-1061.4898
2128.6006
-2302.6146
669.26246
-3691.6653
8387.3461
-12358.718
-7420.8808
-14335.827
-8358.8838
-13181.078
-441.08222
-2932.4014
-6250.2234
2368.1145
-1909.1931
-1807.9456
3797.4922
-6966.1027
2334.3358
268.22756
1549.1658
-9874.8248
2046.9491
-14037.729
2848.5708
538.47845
-4495.5404
-5789.0213
-2552.5081
-3580.5833
-555.30323
-2913.2289
988.3661
-377.23764
5354.1269
-3989.2812
2280.0743
-3225.9908
1172.4869
1512.5742
-1107.8144
-3016.2413
-1435.4491
-2009.7699
521.64904
-291.95164
518.75116
-3364.6743
1832.7127
-2952.5328
1207.961
-232.45722
-2490.3095
-1567.9187
-1013.2885
-853.77412
-3097.8888
-1393.4934
-1034.4036
87.833425
-1027.4393
-2345.6549
-1329.1679
-3546.9015
-1526.9811
-741.05435
-139.65979
-2302.5856
-2007.6327
-2725.6296
-2756.3627
-2230.6907
490.73563
-493.11686
-1360.5096
-3212.5141
-2697.6298
-3510.9525
-546.67984
-1723.4954
970.06929
-2122.2326
-2861.3302
492.50317
-1729.6713
-3011.7423
-498.01952
-985.6953
-715.28147
-140.74746
-4378.1433
-1388.9217
-2978.5897
-447.37258
-0.00448932
-1924.8603
-402.01775
-3756.7696
-154.07208
-3309.0707
-93.92309
-14.06554
-1282.9062
-492.97524
-3221.8443
361.81283
-3038.4146
311.30152
542.39914
-1853.881
-250.29491
-2961.2359
535.14219
-2821.8688
619.92892
313.01502
-1815.4633
-10.197258
-2793.941
622.62884
-2479.0136
751.13915
776.53473
-2008.435
-118.80435
-2877.0361
616.47522
-2396.2751
1116.3655
601.39169
-2066.1277
-251.74674
-2792.0992
492.17172
-1968.9829
1089.2849
657.41246
-2168.7969
-128.02973
-2671.8818
674.70361
-2024.5997
1146.4055
727.42235
-2239.1973
-131.53748
-2021.8232
94.872127
-1740.1062
1114.674
768.32544
-1542.1006
267.91931
-1613.4819
225.63583
-994.47767
1317.8917
968.20799
-1322.7132
406.65234
-1099.3927
371.78521
-57.216551
992.84268
1128.4504
-970.72803
1471.2451
-483.70202
1228.1706
636.27041
1212.498
1220.4833
27.779205
1962.2192
242.11314
1281.1832
1193.6963
1431.2885
1182.1389
548.26696
2084.575
1024.6024
1741.9973
1427.5348
2045.3514
1020.2551
850.04442
2522.7034
1784.2147
2326.5256
2240.1447
2756.5189
1269.8863
1127.5955
2925.0316
2108.0106
2690.0837
2435.7939
3267.5779
1388.4751
1316.6567
3077.7146
2606.1865