/*--------------------------------*- C++ -*----------------------------------*\
  =========                 |
  \\      /  F ield         | OpenFOAM: The Open Source CFD Toolbox
   \\    /   O peration     | Website:  https://openfoam.org
    \\  /    A nd           | Version:  6
     \\/     M anipulation  |
\*---------------------------------------------------------------------------*/
FoamFile
{
    version     2.0;
    format      ascii;
    class       pointVectorField;
    location    "0.53";
    object      u;
}
// * * * * * * * * * * * * * * * * * * * * * * * * * * * * * * * * * * * * * //

dimensions      [0 1 0 0 0 0 0];

internalField   nonuniform List<vector> 
3969
(
(0 -2.3391018e-20 0)
(0 -1.256846e-19 0)
(1.9180973 -0.13646715 0.01094732)
(1.8197447 -0.56898789 0.0088459031)
(0 1.2806435e-18 0)
(0 1.035384e-18 0)
(1.8212477 -0.57068554 0.0087977912)
(1.9196321 -0.13823201 0.010975594)
(0 5.4874554e-20 0)
(0 3.312227e-19 0)
(0 1.4435086e-19 0)
(-8.2994765e-19 -7.473052e-20 0)
(0 3.9761226e-19 0)
(0 -2.2857906e-19 0)
(0 -2.2280702e-19 0)
(1.9057632 -0.19059773 0.01065525)
(1.8934099 -0.24465729 0.010360164)
(1.8810928 -0.2986804 0.010112211)
(1.8688017 -0.35267502 0.0098662522)
(1.8565458 -0.40667418 0.0096429987)
(1.8443039 -0.46072032 0.0094054762)
(1.8320561 -0.51483215 0.0091412435)
(0.0045135328 0.010546459 0.011665309)
(0.007124838 0.018746213 0.014359751)
(0.012966939 0.027873487 0.016153348)
(0.021922058 0.036754462 0.016625566)
(0.033103762 0.045868694 0.01706179)
(0.047355231 0.054401351 0.016837797)
(0.063657368 0.062764248 0.017041491)
(0.082862769 0.070498765 0.01669923)
(0.1040557 0.077724627 0.016795147)
(0.12780651 0.084283324 0.016449832)
(0.15367255 0.090305238 0.016396862)
(0.18166889 0.095506753 0.016169073)
(0.21177305 0.10006417 0.015929142)
(0.24380549 0.10388701 0.015738842)
(0.27774631 0.10687024 0.015473514)
(0.31338038 0.10913769 0.015237536)
(0.35074877 0.11061914 0.015027529)
(0.38964011 0.11129482 0.014812882)
(0.43006501 0.11120069 0.014626091)
(0.47184309 0.11030863 0.014436232)
(0.5149626 0.10864433 0.014265882)
(0.55928408 0.10622113 0.014089895)
(0.60476318 0.10304356 0.013917506)
(0.6512965 0.099149319 0.013741985)
(0.69879909 0.094528517 0.013571802)
(0.74720121 0.089286241 0.013416082)
(0.79640886 0.083369057 0.013278812)
(0.84636447 0.076854171 0.013155197)
(0.89700439 0.069755018 0.013055115)
(0.94824288 0.062095602 0.012968406)
(1.0000556 0.053915111 0.012883803)
(1.0523732 0.045224246 0.012794237)
(1.1051565 0.036054563 0.012684877)
(1.1583515 0.026437593 0.012547661)
(1.2119113 0.016387799 0.012382425)
(1.2657754 0.0059473845 0.012192298)
(1.3199059 -0.0048372359 0.011958554)
(1.3741971 -0.01596639 0.011743566)
(1.4286476 -0.027346715 0.011511383)
(1.4831596 -0.038990549 0.011311471)
(1.5377223 -0.050826804 0.011123049)
(1.5922556 -0.062822141 0.010981794)
(1.646763 -0.074969552 0.010878511)
(1.7011873 -0.087174081 0.010813221)
(1.7555475 -0.09949337 0.010801851)
(1.8098002 -0.11179506 0.010815647)
(1.8639722 -0.12414274 0.010882135)
(0.00040805808 -0.010951359 -0.014383148)
(0.0046301341 -0.01818593 -0.014861852)
(0.0088539398 -0.026661161 -0.018427808)
(0.016231596 -0.035564482 -0.017707739)
(0.026578797 -0.045021709 -0.018197632)
(0.038666476 -0.054657125 -0.017465353)
(0.053417671 -0.064311067 -0.017160996)
(0.07001279 -0.074314973 -0.016484221)
(0.088843765 -0.084239917 -0.015952606)
(0.10978231 -0.094591145 -0.015271695)
(0.13254394 -0.10480923 -0.014710746)
(0.15747896 -0.11545421 -0.014017808)
(0.18410389 -0.12611027 -0.013416623)
(0.21274882 -0.13700633 -0.012682413)
(0.2430637 -0.14812057 -0.011979173)
(0.27518272 -0.1593493 -0.011207095)
(0.30894215 -0.17085179 -0.010421545)
(0.34427062 -0.18245521 -0.0096006494)
(0.38114086 -0.19432221 -0.008756519)
(0.41943698 -0.20631947 -0.007907345)
(0.45907667 -0.21854591 -0.00703803)
(0.5000738 -0.23089224 -0.0061880533)
(0.54223226 -0.24344672 -0.0053076106)
(0.58561604 -0.2561484 -0.0044610919)
(0.63002321 -0.26893003 -0.0036296208)
(0.67548717 -0.28185667 -0.0028055737)
(0.72183497 -0.29485551 -0.0019933399)
(0.76916867 -0.3080117 -0.0011892049)
(0.8173099 -0.32121569 -0.00043225583)
(0.86621092 -0.3344891 0.00033512777)
(0.91584365 -0.34784995 0.0010632294)
(0.96612394 -0.36124725 0.001776972)
(1.0170307 -0.37469073 0.002458413)
(1.0684962 -0.3881393 0.0031112449)
(1.1204849 -0.40159008 0.0037321231)
(1.1729442 -0.4150171 0.0043303414)
(1.2258155 -0.42837586 0.0048815838)
(1.279059 -0.44167453 0.0054357045)
(1.3326144 -0.45490165 0.0059424118)
(1.386405 -0.46799734 0.0064227783)
(1.4404009 -0.4810074 0.0068802174)
(1.4945203 -0.49388535 0.0072953066)
(1.5487316 -0.50665725 0.0076773393)
(1.6029751 -0.51930478 0.0080022782)
(1.6572246 -0.53185707 0.0082866449)
(1.7114423 -0.54429792 0.008508431)
(1.7656203 -0.55666324 0.0086945152)
(0 -1.4307083e-20 0)
(0 1.6900531e-19 0)
(0 -2.0039007e-19 0)
(4.0883434e-19 -4.1615449e-20 0)
(0 -3.4368842e-19 0)
(0 -1.5911067e-19 0)
(0 -1.3371996e-19 0)
(0.0042850876 -0.007182227 0.011057)
(0.0059459442 -0.022241056 0.01574207)
(0.0095676878 -0.024776822 0.016586939)
(0.017366907 -0.037712628 0.0175733)
(0.027598433 -0.045823668 0.017788175)
(0.039707232 -0.055583805 0.017245915)
(0.054543899 -0.06609348 0.017359628)
(0.071175614 -0.075245386 0.016687487)
(0.090020186 -0.08627297 0.016720451)
(0.1109199 -0.095905805 0.016019484)
(0.13369674 -0.10706292 0.016231568)
(0.15854865 -0.11708741 0.015628154)
(0.18533535 -0.12818186 0.015362377)
(0.21402701 -0.13915268 0.014959925)
(0.2444382 -0.15022602 0.014576117)
(0.27651204 -0.16175347 0.014287688)
(0.31030323 -0.17317183 0.013924744)
(0.3455535 -0.18499544 0.013670965)
(0.38238013 -0.19685426 0.013385605)
(0.42058966 -0.20895743 0.013143362)
(0.46019639 -0.22118419 0.012904507)
(0.50109363 -0.23359367 0.012676012)
(0.54324894 -0.24613413 0.012439765)
(0.58655676 -0.25879942 0.012212374)
(0.63100352 -0.2716746 0.011951191)
(0.67657644 -0.28461615 0.011652765)
(0.72286507 -0.29771205 0.01153554)
(0.77016723 -0.3108051 0.011328579)
(0.81827262 -0.32401397 0.011192218)
(0.86718059 -0.33726279 0.011038177)
(0.91680829 -0.35055151 0.010885879)
(0.96711634 -0.36389023 0.010742686)
(1.0180535 -0.37723827 0.010580374)
(1.0695761 -0.3905943 0.010401662)
(1.1216306 -0.4039347 0.010196364)
(1.1741625 -0.41730523 0.0099825352)
(1.2271118 -0.43050458 0.0097510256)
(1.2804122 -0.44379354 0.0095141503)
(1.3340259 -0.45691687 0.0092758404)
(1.3878598 -0.46998194 0.0090751852)
(1.4418786 -0.4829266 0.0088937671)
(1.4960143 -0.49576812 0.008763426)
(1.5502216 -0.50849143 0.0086760213)
(1.6044673 -0.52109885 0.0086323453)
(1.658711 -0.53361189 0.0086308823)
(1.712935 -0.54602091 0.0086637901)
(1.767101 -0.55837192 0.0087319436)
(1.8335564 -0.5165615 0.0090385218)
(1.8458129 -0.46243545 0.0093043398)
(1.8580686 -0.40842676 0.0095895313)
(1.8703128 -0.35439327 0.009900021)
(1.8826223 -0.30044386 0.010189108)
(1.894942 -0.24639748 0.010478757)
(1.9073028 -0.19235482 0.010730976)
(1.8655226 -0.12591404 0.010800273)
(1.8113381 -0.11358448 0.010624037)
(1.7570723 -0.10128793 0.010401095)
(1.7027098 -0.089025623 0.010136274)
(1.6482677 -0.076839622 0.009822423)
(1.5937588 -0.064750947 0.0094644406)
(1.5392146 -0.052806958 0.0090678677)
(1.4846572 -0.041038255 0.0086353531)
(1.4301326 -0.029491811 0.0081620739)
(1.3756879 -0.018180496 0.0076623914)
(1.3213177 -0.0071763315 0.007126476)
(1.2672866 0.0034004958 0.0065843412)
(1.2132784 0.013791856 0.0059553919)
(1.1596886 0.02369879 0.0053290794)
(1.1064079 0.033232034 0.0046515158)
(1.0535453 0.042325211 0.0039596653)
(1.0011418 0.050964988 0.0032399161)
(0.94925816 0.059120575 0.0024986116)
(0.89794822 0.066769017 0.0017458456)
(0.84727145 0.073865326 0.00098056565)
(0.79728702 0.080405248 0.00019800086)
(0.74806002 0.086320803 -0.00058385141)
(0.69965799 0.09162116 -0.00138278)
(0.65214114 0.096242017 -0.0021884554)
(0.60561253 0.10018562 -0.0030119894)
(0.56012972 0.10340931 -0.003830244)
(0.51579036 0.10591434 -0.0046696145)
(0.47266574 0.10766086 -0.0054922071)
(0.43086895 0.10865928 -0.0063243577)
(0.39044701 0.10887412 -0.007130319)
(0.35154055 0.1083224 -0.007937359)
(0.31418313 0.10699767 -0.0087095836)
(0.27853059 0.10484446 -0.0094620198)
(0.2446364 0.10187088 -0.010121403)
(0.21269995 0.098186587 -0.010871295)
(0.18256712 0.093790697 -0.011413351)
(0.15459921 0.088583964 -0.01211643)
(0.12863341 0.082701824 -0.012607806)
(0.10488429 0.076246781 -0.013406819)
(0.083556918 0.068968857 -0.013750871)
(0.064574112 0.061610534 -0.014424222)
(0.047715519 0.053079089 -0.014746266)
(0.033842563 0.044918669 -0.015280268)
(0.0220645 0.035712557 -0.015175621)
(0.013711945 0.027317466 -0.014804949)
(0.0071569379 0.017491075 -0.013448644)
(0.008048719 0.010189737 -0.0085487085)
(0 1.7320021e-19 0)
(0 1.3537281e-19 0)
(0 -7.0149937e-20 0)
(0 -4.6094459e-19 2.3067878e-19)
(0 -4.047134e-19 0)
(0 -8.8982307e-20 0)
(0 4.2551787e-19 0)
(0 5.9100626e-19 0)
(0 5.6337843e-19 0)
(0 5.3530554e-19 0)
(0 4.6232094e-19 -5.6794185e-20)
(0 1.2489267e-18 0)
(0 5.4751222e-19 0)
(0 -1.0088029e-19 0)
(1.8199256 -0.56924309 0.0088324936)
(1.8201169 -0.56950031 0.0088180889)
(1.8203081 -0.56973448 0.0088134363)
(1.8204988 -0.5699533 0.0088135654)
(1.8206836 -0.5701528 0.0088165128)
(1.8208703 -0.57034015 0.0088176146)
(1.8210518 -0.5705219 0.0088059174)
(1.9183249 -0.13665255 0.010951341)
(1.9185423 -0.13684541 0.010951932)
(1.9187595 -0.13704467 0.010956509)
(1.9189655 -0.13725533 0.01095128)
(1.9191569 -0.13747414 0.010955135)
(1.919331 -0.13771236 0.010960122)
(1.9194865 -0.13796436 0.010973274)
(-0.00016012349 -0.0016075027 0.010237362)
(0.0013758093 -0.0048332726 0.010035312)
(0.0049158816 -0.0068817539 0.012012029)
(0.011473841 -0.0087068105 0.012523476)
(0.020075922 -0.010156205 0.012792974)
(0.031847775 -0.01060363 0.013067187)
(0.045447232 -0.010842138 0.012987641)
(0.061994653 -0.010052123 0.013168404)
(0.080794284 -0.0089230149 0.012957365)
(0.10220218 -0.0069516529 0.013035074)
(0.126044 -0.0044442598 0.012912524)
(0.15239355 -0.0013055915 0.012772448)
(0.18125436 0.002477372 0.012687534)
(0.21251844 0.0066789606 0.012505389)
(0.2461983 0.011366513 0.012394758)
(0.28219893 0.016367832 0.012246319)
(0.32047348 0.021619816 0.012113594)
(0.36082539 0.026971265 0.012011132)
(0.40326564 0.032348696 0.01189822)
(0.44758025 0.037577437 0.011808434)
(0.49368937 0.042557782 0.011725059)
(0.54140919 0.047148924 0.011637719)
(0.59062259 0.051230844 0.011558414)
(0.64111526 0.054680903 0.011477081)
(0.69276979 0.057393083 0.011414729)
(0.74537849 0.059243126 0.011330801)
(0.79876261 0.06015073 0.01128567)
(0.85277775 0.06001839 0.011249745)
(0.90724689 0.058742088 0.011230432)
(0.96202574 0.056271818 0.01121877)
(1.0169897 0.05253105 0.011212014)
(1.0720081 0.047461879 0.011197036)
(1.1269748 0.041048693 0.011168639)
(1.1817872 0.03325451 0.01112079)
(1.2363582 0.024098984 0.011055063)
(1.290595 0.013594786 0.010965028)
(1.344442 0.0017753987 0.010868899)
(1.3978231 -0.011305905 0.010771894)
(1.4507208 -0.025560493 0.010670453)
(1.5030841 -0.040942244 0.010595728)
(1.5549267 -0.057319276 0.010524877)
(1.606241 -0.074622398 0.010490525)
(1.6570694 -0.092709411 0.010470826)
(1.7074417 -0.11146918 0.010479767)
(1.7574308 -0.13078727 0.010507876)
(1.8070797 -0.15047959 0.010548375)
(1.8564991 -0.17048073 0.010603137)
(-0.0036645096 -0.0079336259 0.0068004582)
(-0.0029226431 -0.017726012 0.0067125706)
(0.00025837003 -0.024527235 0.0082334317)
(0.0055954644 -0.032382152 0.0082505572)
(0.013669302 -0.038488951 0.008765195)
(0.023727932 -0.044058022 0.0086344604)
(0.036448682 -0.048541644 0.0090238822)
(0.051724511 -0.051919463 0.0087444838)
(0.069343032 -0.054350488 0.0090835881)
(0.089634842 -0.055445854 0.0089967446)
(0.11250779 -0.055564323 0.0090312383)
(0.13796707 -0.054382481 0.0090552273)
(0.16609098 -0.052203562 0.0090627681)
(0.19684357 -0.048984041 0.0090557963)
(0.23021673 -0.044802375 0.0090627685)
(0.26611918 -0.039799561 0.0090090739)
(0.30445417 -0.034085774 0.0090131286)
(0.34518345 -0.027856067 0.0090091502)
(0.38817506 -0.021259197 0.0090169386)
(0.43330084 -0.014496136 0.0090537495)
(0.48039929 -0.0077299946 0.0090847719)
(0.52931765 -0.001141986 0.0091231363)
(0.5798111 0.0050770631 0.0091753846)
(0.63176768 0.010781513 0.0092283319)
(0.68491259 0.015753884 0.0092753127)
(0.7390542 0.019889467 0.0093603492)
(0.79398725 0.022987508 0.0094474096)
(0.84949673 0.024912882 0.0095451889)
(0.90538396 0.025559012 0.0096601204)
(0.9614815 0.024773394 0.0097742734)
(1.0176124 0.022468576 0.0098837827)
(1.0736225 0.018555262 0.0099854495)
(1.129382 0.012974431 0.010061995)
(1.184762 0.0056870669 0.010118196)
(1.239658 -0.0033150198 0.01014473)
(1.2939672 -0.014037223 0.010157985)
(1.3476399 -0.026421497 0.010141013)
(1.4005747 -0.040437794 0.01013406)
(1.4527924 -0.055986521 0.010108377)
(1.5042151 -0.073003449 0.010102122)
(1.5549191 -0.091339087 0.010090167)
(1.604865 -0.11090105 0.010108211)
(1.6541673 -0.13151106 0.010123704)
(1.7028404 -0.15303741 0.010159725)
(1.7510176 -0.17530341 0.010209979)
(1.798748 -0.19810071 0.010252728)
(1.8462015 -0.22131727 0.010321617)
(-0.0056275102 -0.0064994206 0.0041897188)
(-0.0040631861 -0.013367482 0.0038601639)
(-0.00097589383 -0.019369631 0.0043403766)
(0.0056435247 -0.024982196 0.0044713076)
(0.013942807 -0.030336649 0.0045227301)
(0.025413106 -0.034818554 0.0047170683)
(0.038899187 -0.039189585 0.0045233839)
(0.054912843 -0.042563783 0.0048441488)
(0.073292441 -0.045557579 0.0048936005)
(0.094248353 -0.047723015 0.0049133724)
(0.11743117 -0.049187471 0.0051152033)
(0.14318584 -0.050056897 0.0051764273)
(0.17131234 -0.05019458 0.0052688917)
(0.20184046 -0.049789517 0.0053869321)
(0.23477611 -0.048771732 0.0055245364)
(0.27000206 -0.047360335 0.0056172769)
(0.30749133 -0.045573507 0.005763565)
(0.34710294 -0.043558115 0.0058717895)
(0.38877173 -0.041417512 0.0060513791)
(0.43231487 -0.039258836 0.0062182507)
(0.47765556 -0.037207211 0.0064103897)
(0.52459412 -0.035401699 0.0066096096)
(0.57309087 -0.033919077 0.0068105019)
(0.62288031 -0.032944465 0.0069923206)
(0.67383476 -0.032515125 0.0072133582)
(0.72579614 -0.032790646 0.0073991006)
(0.77859453 -0.033856967 0.0075900928)
(0.83203248 -0.035801763 0.007802217)
(0.88598832 -0.038721661 0.0080050426)
(0.94028906 -0.042703931 0.0082107197)
(0.99480779 -0.047799462 0.0084170309)
(1.0494263 -0.054086455 0.0086087992)
(1.1040266 -0.061586139 0.0087834164)
(1.1585119 -0.070331366 0.0089377017)
(1.2127855 -0.08032761 0.0090711793)
(1.2667757 -0.091552193 0.0091777596)
(1.3204005 -0.10399022 0.00927201)
(1.3736123 -0.11758395 0.0093502556)
(1.4263659 -0.13228067 0.0094136614)
(1.47862 -0.14800575 0.0094930636)
(1.5303841 -0.16466749 0.0095549923)
(1.5816347 -0.18219662 0.0096444933)
(1.6324402 -0.20044575 0.0097068166)
(1.6827853 -0.21935414 0.0098104091)
(1.7327838 -0.23875064 0.0098764664)
(1.7824369 -0.25852939 0.0099685656)
(1.8318918 -0.27858571 0.010044493)
(-0.0053816935 0.00041388099 0.00045647482)
(-0.0024258722 0.00056371666 -0.00062747297)
(0.0025016844 0.0015035267 -0.00025634562)
(0.010506437 0.0017039969 -0.00032141858)
(0.021550026 0.0017559367 -4.0524892e-05)
(0.034679278 0.001819257 -0.00011393197)
(0.050411905 0.00097295906 0.00041728308)
(0.06831305 0.00036699861 0.00045899973)
(0.08864242 -0.0011352921 0.00073498215)
(0.11100768 -0.0026729977 0.0010652562)
(0.13561114 -0.0049511248 0.0012624638)
(0.16233507 -0.0075220139 0.0014295757)
(0.19094518 -0.01055635 0.001638157)
(0.22158795 -0.014198128 0.0018759542)
(0.25398776 -0.018161262 0.0020502109)
(0.28823554 -0.022758511 0.002307015)
(0.32405247 -0.027761679 0.0025327851)
(0.36151208 -0.033346731 0.0028253258)
(0.40040877 -0.039416438 0.0031223135)
(0.4407576 -0.045987842 0.0034184535)
(0.48243424 -0.053071798 0.0037260746)
(0.52544182 -0.060589753 0.0040306648)
(0.56952286 -0.068595477 0.0043348257)
(0.61471951 -0.077009731 0.0046714413)
(0.6609462 -0.085834059 0.0049693063)
(0.70812682 -0.09504724 0.0052845224)
(0.75616267 -0.10461968 0.0056273195)
(0.80501034 -0.11454525 0.0059624419)
(0.85460522 -0.12479279 0.0062915047)
(0.9048777 -0.13535401 0.0066340216)
(0.95579081 -0.14619901 0.0069529443)
(1.00728 -0.15732567 0.0072680396)
(1.0593028 -0.16869305 0.007556606)
(1.1118109 -0.18029977 0.0078282132)
(1.1647541 -0.19210259 0.0080649231)
(1.2180756 -0.20408688 0.0082836538)
(1.271734 -0.21621987 0.0084697988)
(1.325649 -0.2284695 0.0086398759)
(1.3797796 -0.24081465 0.0087985766)
(1.4340618 -0.25322426 0.0089371995)
(1.4884695 -0.26568219 0.0090715226)
(1.5429047 -0.27815937 0.0092017812)
(1.5973755 -0.29063724 0.0093226578)
(1.6517927 -0.30311855 0.0094503938)
(1.7061968 -0.31556292 0.0095505869)
(1.7604913 -0.32798493 0.009671623)
(1.8147577 -0.34038914 0.0097707822)
(-0.0050855234 0.0067928565 -0.0032072181)
(-9.2827629e-06 0.014617265 -0.0041161047)
(0.0060233011 0.021196157 -0.0042532034)
(0.016728353 0.027263589 -0.0044072256)
(0.029414129 0.032188958 -0.0043775211)
(0.04506028 0.036309788 -0.004055506)
(0.062873127 0.038906812 -0.0038708235)
(0.083113222 0.040628285 -0.0037302585)
(0.10520744 0.04054862 -0.0032926413)
(0.12943897 0.039352163 -0.0031146508)
(0.15536941 0.036421825 -0.0028829514)
(0.18294885 0.032261326 -0.0025375277)
(0.21202213 0.026284706 -0.0021722779)
(0.24255868 0.019001424 -0.0018318776)
(0.27435354 0.010135442 -0.0014286103)
(0.30736724 -0.00012514633 -0.0010202502)
(0.3414773 -0.011705468 -0.00061989232)
(0.37661091 -0.024554469 -0.00018725218)
(0.41273044 -0.038508003 0.00023847995)
(0.44976365 -0.0534975 0.00067839855)
(0.48773743 -0.069323734 0.0011249823)
(0.5264932 -0.085938856 0.0015988697)
(0.56616951 -0.10308677 0.0020516118)
(0.60674074 -0.12072419 0.0024879058)
(0.64824371 -0.13862591 0.0029254623)
(0.69063655 -0.1566594 0.0033677065)
(0.73398457 -0.17468426 0.003796512)
(0.77829293 -0.19254788 0.0042047192)
(0.82358162 -0.21011438 0.0046186073)
(0.86987771 -0.22726341 0.0050194282)
(0.91721419 -0.24388416 0.0054126857)
(0.96559732 -0.25989311 0.0058026559)
(1.015053 -0.27518156 0.0061696855)
(1.0655779 -0.28970634 0.0065266973)
(1.117162 -0.30338411 0.0068587299)
(1.1697985 -0.31618978 0.007170657)
(1.2234351 -0.32808446 0.0074582105)
(1.2780228 -0.33906559 0.0077304086)
(1.3335029 -0.34912284 0.0079602005)
(1.3898088 -0.35826993 0.0081996154)
(1.4467836 -0.36655291 0.0084182877)
(1.5043651 -0.37403015 0.008634431)
(1.5624478 -0.38076062 0.0088253545)
(1.6209054 -0.38685038 0.0090222854)
(1.6796648 -0.39235945 0.0091793935)
(1.7385831 -0.39744512 0.0093561728)
(1.797636 -0.40218834 0.0094855594)
(-0.0036600067 0.0080113812 -0.0073919211)
(0.0026665201 0.016652859 -0.0082775665)
(0.0094648355 0.024340037 -0.0092114595)
(0.020706468 0.031021637 -0.0093335115)
(0.034325691 0.036482658 -0.0090709711)
(0.050600153 0.040770021 -0.0088071446)
(0.069266187 0.043301753 -0.0084936545)
(0.090035781 0.044544451 -0.0080065886)
(0.11277523 0.043748056 -0.0076350975)
(0.13733285 0.041475703 -0.0071861597)
(0.16348571 0.037069687 -0.0067394153)
(0.19108021 0.030958936 -0.0062519183)
(0.22004892 0.022811959 -0.0058347896)
(0.25018302 0.012915006 -0.0053136944)
(0.28136719 0.0011575329 -0.0048296579)
(0.31355451 -0.012292089 -0.004293475)
(0.34658119 -0.027380623 -0.0037843291)
(0.38046199 -0.043931016 -0.0032173907)
(0.41507854 -0.061869708 -0.0026730971)
(0.45046227 -0.080946747 -0.0021044214)
(0.48654817 -0.10108503 -0.001549433)
(0.52348983 -0.12192184 -0.00096417397)
(0.56108456 -0.14344786 -0.0004618674)
(0.59952717 -0.16547993 0.00011987985)
(0.63883184 -0.18761698 0.00064934614)
(0.67901536 -0.20977197 0.0011720525)
(0.72021448 -0.2316831 0.0017029467)
(0.76242407 -0.25321403 0.0022359003)
(0.80572409 -0.2741451 0.0027495677)
(0.8501831 -0.29436758 0.00326758)
(0.89583997 -0.31370073 0.0037719076)
(0.94275221 -0.33202245 0.0042736347)
(0.99096097 -0.34922395 0.0047507884)
(1.0404818 -0.36522434 0.0052235435)
(1.0913375 -0.3799145 0.0056565883)
(1.143518 -0.39329499 0.0060839082)
(1.1969885 -0.40528866 0.0064732352)
(1.2517091 -0.41590677 0.0068464676)
(1.3076163 -0.42518684 0.0071956999)
(1.3645811 -0.4331007 0.0075256749)
(1.4225553 -0.4397654 0.007833594)
(1.4813647 -0.44524655 0.0081208727)
(1.5408916 -0.44967342 0.0083937213)
(1.6009853 -0.45314762 0.0086390993)
(1.6615224 -0.45582386 0.0088542061)
(1.7223458 -0.45787726 0.0090508303)
(1.7833479 -0.45944151 0.00921646)
(-0.0018636368 0.00045843568 -0.010462283)
(0.0036169251 0.0042509348 -0.011718667)
(0.0093073787 0.0058356154 -0.013406695)
(0.019737255 0.0071331797 -0.013455204)
(0.031824116 0.0072366217 -0.01332005)
(0.047072298 0.006320669 -0.013004114)
(0.064213651 0.0042684278 -0.012543285)
(0.083693742 0.0012467997 -0.012071145)
(0.10507327 -0.0032279468 -0.011598718)
(0.1283368 -0.008633996 -0.011031717)
(0.15338614 -0.015750693 -0.010497255)
(0.17994499 -0.023774272 -0.010016874)
(0.20813002 -0.033499666 -0.009362542)
(0.23757431 -0.044304203 -0.008798077)
(0.26842011 -0.056512947 -0.0081599735)
(0.30038013 -0.069884493 -0.0075292134)
(0.33351366 -0.08444503 -0.0068579021)
(0.36765557 -0.10007129 -0.0061901787)
(0.40279615 -0.11667172 -0.0055023973)
(0.43888704 -0.13413554 -0.0048150381)
(0.47591063 -0.15231158 -0.0041295043)
(0.51379719 -0.17111906 -0.0034271503)
(0.552683 -0.19035797 -0.0027554739)
(0.59240928 -0.20995339 -0.0020698248)
(0.6330701 -0.22966294 -0.0014279997)
(0.67465485 -0.24940765 -0.00075923981)
(0.71722594 -0.26902034 -0.00010229846)
(0.76079828 -0.28837315 0.00053192667)
(0.80538866 -0.30733894 0.0011546049)
(0.85101976 -0.32582337 0.001778726)
(0.89771056 -0.34367489 0.0023798001)
(0.94549691 -0.36083651 0.0029754151)
(0.99437755 -0.3771987 0.0035461311)
(1.0443656 -0.39270107 0.0041015873)
(1.0954566 -0.4072656 0.0046214714)
(1.1476266 -0.42087865 0.0051338385)
(1.2008399 -0.4334685 0.0056001014)
(1.2550671 -0.4450634 0.0060621251)
(1.3102081 -0.45563913 0.0064836139)
(1.3661922 -0.46522356 0.0068947021)
(1.4229427 -0.47386548 0.007279658)
(1.4803313 -0.48161966 0.0076426372)
(1.5382558 -0.48856794 0.0079733646)
(1.5966003 -0.49479431 0.0082716664)
(1.6552581 -0.50041493 0.0085284307)
(1.7141157 -0.50554654 0.0087552771)
(1.7730729 -0.51029554 0.0089411285)
(0 -5.2390768e-20 0)
(0 2.9306944e-19 0)
(0 2.5344957e-19 0)
(0 2.236648e-19 -7.6669396e-20)
(0 8.8359428e-20 0)
(0 -3.1033088e-21 0)
(0 4.2952179e-20 0)
(0 1.6118141e-20 0)
(0 -1.0473002e-19 0)
(0 -2.5819095e-19 0)
(0 -3.2075169e-19 -5.3259507e-20)
(0 -5.2584335e-20 0)
(0 6.4774364e-20 0)
(0 1.2511657e-19 0)
(0 1.0089135e-19 0)
(0 1.5891784e-19 0)
(0 2.9024283e-19 0)
(0 2.9106631e-19 1.4661072e-19)
(0 2.5077868e-19 0)
(0 2.9200451e-19 0)
(0 9.8881507e-20 0)
(-1.6951059e-18 7.9855803e-20 0)
(7.2175039e-19 -1.8074144e-19 0)
(-4.1984175e-20 -7.2642067e-20 0)
(1.3031013e-19 -1.2794349e-19 -9.7091987e-20)
(-2.4343587e-19 -1.7864725e-19 0)
(-6.2307963e-19 -2.5536867e-19 0)
(9.5224039e-20 -2.1085866e-19 0)
(0 1.5680994e-19 0)
(0 5.6079728e-20 0)
(0 -1.0880579e-19 0)
(0 1.0607169e-20 2.7758504e-19)
(0 1.1964365e-19 0)
(0 1.7425537e-19 0)
(0 -4.8413787e-20 0)
(0 -1.2619054e-19 0)
(0 -1.031665e-19 0)
(0 2.4266606e-20 0)
(0 1.2107706e-19 -2.758943e-20)
(0 8.9583228e-20 0)
(0 -3.2468375e-20 0)
(0 8.3829527e-20 0)
(0 1.549217e-20 0)
(0 -9.1326597e-20 0)
(0 1.3370574e-19 0)
(0 8.5144439e-21 9.7871059e-20)
(0 1.3246614e-19 0)
(0 2.0948741e-19 0)
(0 1.897246e-19 0)
(0.0046340001 -0.0031891275 -0.0075343863)
(0.0057636471 -0.0042192723 -0.0052700351)
(0.0069961446 -0.0044407177 -0.0027468064)
(0.0074913884 -0.004675614 -0.00072318101)
(0.0072596455 -0.0043427486 0.0013538589)
(0.0068710041 -0.0045888227 0.0035568969)
(0.0056053999 -0.0029156814 0.0059081406)
(0.0087554985 -0.017576319 -0.012350073)
(0.011192742 -0.019580424 -0.006978505)
(0.012291182 -0.018359638 -0.0032845478)
(0.012582775 -0.017845633 -0.0001850051)
(0.012668994 -0.018854166 0.0027999503)
(0.011357937 -0.018610112 0.0064573358)
(0.0098678242 -0.018475626 0.010972674)
(0.012662018 -0.024478268 -0.013418898)
(0.015957538 -0.023293173 -0.0095813052)
(0.017948657 -0.024475328 -0.0043651035)
(0.018228346 -0.024445969 -0.0006526909)
(0.018102486 -0.023869176 0.0039620772)
(0.016493027 -0.024033671 0.0073491038)
(0.014302698 -0.025230978 0.013257456)
(0.020868915 -0.036131433 -0.013356772)
(0.023393183 -0.036875929 -0.0093711409)
(0.025127143 -0.03654199 -0.004346156)
(0.025763677 -0.036471145 -0.00051584866)
(0.025464313 -0.03655329 0.0040031138)
(0.023873114 -0.037293482 0.0087409029)
(0.021182825 -0.036632164 0.012982762)
(0.030515451 -0.045553224 -0.013834351)
(0.033642578 -0.045426921 -0.0096445047)
(0.035836589 -0.045849924 -0.0048080012)
(0.036325718 -0.045783142 -0.0002316393)
(0.036058452 -0.046066304 0.0043728375)
(0.034488691 -0.04589495 0.0086019747)
(0.03196274 -0.046346095 0.013735079)
(0.042833273 -0.055524913 -0.013139345)
(0.04549918 -0.055781404 -0.0092213469)
(0.047382806 -0.055736998 -0.0043481959)
(0.047987518 -0.056113594 -0.00036837334)
(0.047659395 -0.05589943 0.0044841722)
(0.04605417 -0.056193655 0.0089615963)
(0.043383251 -0.05590314 0.013233472)
(0.057301574 -0.065335766 -0.013013163)
(0.060082731 -0.065670396 -0.0087474991)
(0.062004507 -0.066298514 -0.0043245413)
(0.062616852 -0.066401522 -0.00013187464)
(0.062353183 -0.066700517 0.0045495289)
(0.060772256 -0.066974012 0.008606684)
(0.058387298 -0.066804876 0.013352045)
(0.073813006 -0.075319207 -0.012320353)
(0.076522156 -0.076022317 -0.0085853807)
(0.078329214 -0.076256444 -0.0039420619)
(0.078983108 -0.076458676 0.00012340328)
(0.078535528 -0.076389067 0.0043950265)
(0.077236157 -0.076252167 0.0087946652)
(0.074622596 -0.075887964 0.012868242)
(0.092641056 -0.085590443 -0.012002462)
(0.095212802 -0.086035907 -0.0079030563)
(0.096986544 -0.086579768 -0.0037444617)
(0.097506369 -0.08692705 0.00021303954)
(0.097259315 -0.087299999 0.0045163282)
(0.095819941 -0.087200192 0.0085425797)
(0.093467032 -0.087150351 0.012904376)
(0.1132868 -0.095644138 -0.011369536)
(0.11584263 -0.096497649 -0.007670042)
(0.11750142 -0.096926071 -0.00358092)
(0.11823814 -0.097415904 0.00055425402)
(0.11779385 -0.097240234 0.0045436815)
(0.11652292 -0.097101656 0.0085599827)
(0.11419186 -0.096737073 0.01248253)
(0.13613377 -0.10620799 -0.010871693)
(0.13850106 -0.10691365 -0.007224387)
(0.14025286 -0.10754478 -0.0030267189)
(0.14073565 -0.10765408 0.00053869706)
(0.14050845 -0.10800684 0.004666185)
(0.13914638 -0.10790234 0.0083107817)
(0.1369122 -0.10779815 0.012507011)
(0.16076659 -0.11665829 -0.010423766)
(0.16324679 -0.11753848 -0.006650962)
(0.1647133 -0.11810744 -0.0030471443)
(0.16535422 -0.11868128 0.00080809997)
(0.16505805 -0.11872318 0.0046308772)
(0.16376891 -0.11845531 0.0082476705)
(0.16178338 -0.11827159 0.012295516)
(0.18750788 -0.12760043 -0.00982827)
(0.18965898 -0.12831669 -0.0062639895)
(0.19121489 -0.12906163 -0.0026419236)
(0.19184031 -0.12921445 0.00099361791)
(0.19155644 -0.12939445 0.0047035407)
(0.19026059 -0.12940688 0.008184167)
(0.18830864 -0.12904231 0.011945127)
(0.21592764 -0.13840084 -0.0092972059)
(0.21801167 -0.13926072 -0.0057836219)
(0.21963875 -0.13998787 -0.0024001828)
(0.22005582 -0.14034459 0.0011503534)
(0.2198618 -0.14068075 0.0047243215)
(0.2186532 -0.14044684 0.0079812836)
(0.21688138 -0.14021157 0.011755408)
(0.24611598 -0.14964127 -0.0087101744)
(0.24820933 -0.15047415 -0.0052881035)
(0.24964591 -0.15113293 -0.0021016331)
(0.25016375 -0.15148835 0.0014316827)
(0.25000686 -0.15163029 0.0046870662)
(0.24886779 -0.15149525 0.0079952916)
(0.24714861 -0.15120184 0.011480608)
(0.27812922 -0.16089615 -0.0080679636)
(0.28005437 -0.16171044 -0.0048209384)
(0.28148769 -0.16247732 -0.0017228644)
(0.28197632 -0.16283766 0.0015493226)
(0.2817902 -0.16310676 0.0048095113)
(0.2807176 -0.16297685 0.0078678045)
(0.27909533 -0.16269855 0.011287116)
(0.31167585 -0.17239066 -0.0074321983)
(0.31358016 -0.17326193 -0.004269609)
(0.31492916 -0.17398224 -0.0013892158)
(0.31539903 -0.17429903 0.0018604545)
(0.31527163 -0.17455401 0.0048724793)
(0.31426361 -0.17437232 0.0078558724)
(0.31272538 -0.17412736 0.01110091)
(0.34690219 -0.18405897 -0.0067137065)
(0.34868509 -0.18491036 -0.0037760914)
(0.34997605 -0.18564159 -0.00093607596)
(0.35043066 -0.18602271 0.0020875514)
(0.35028729 -0.18627305 0.0049830542)
(0.34933393 -0.18614839 0.0078519009)
(0.34787191 -0.18587731 0.010939867)
(0.38358672 -0.19591487 -0.0060331083)
(0.38528003 -0.19674262 -0.0031889378)
(0.38653193 -0.19749961 -0.00051577506)
(0.38692871 -0.1978252 0.0023803105)
(0.38683886 -0.19809425 0.0051424395)
(0.38592892 -0.19794309 0.0078698724)
(0.38455073 -0.19773704 0.010795978)
(0.42172992 -0.20792611 -0.0052844651)
(0.42334938 -0.20876226 -0.00261731)
(0.4245084 -0.20949903 -7.4517757e-05)
(0.42490304 -0.20988379 0.0026862854)
(0.42481259 -0.21013132 0.0052865129)
(0.42393846 -0.21004693 0.0079009418)
(0.42265727 -0.20978779 0.010676393)
(0.46125479 -0.22012948 -0.0045671401)
(0.46275542 -0.22093734 -0.0020372802)
(0.46387065 -0.22169566 0.00039132084)
(0.46423582 -0.22202878 0.0029921357)
(0.46415508 -0.22230595 0.0054665328)
(0.46334813 -0.22219239 0.0079418118)
(0.46213386 -0.22198346 0.010566)
(0.50206779 -0.23247802 -0.0038265774)
(0.50349271 -0.23328756 -0.0014365504)
(0.50454046 -0.2340044 0.00084788293)
(0.50487586 -0.2343896 0.003302792)
(0.50481973 -0.23464143 0.0056427742)
(0.5040355 -0.23458282 0.0079833773)
(0.50291469 -0.2343589 0.010464602)
(0.54411774 -0.24499462 -0.0030887603)
(0.54545498 -0.24576494 -0.00084527273)
(0.54643055 -0.24649769 0.0013016659)
(0.54676348 -0.24685584 0.0036147515)
(0.54669549 -0.24713979 0.0058222316)
(0.54598389 -0.24708039 0.0080157374)
(0.54494386 -0.24687365 0.010356597)
(0.58734559 -0.25762355 -0.0023488872)
(0.58859286 -0.25842394 -0.00025930864)
(0.58951066 -0.25909003 0.0017460916)
(0.58981091 -0.25950316 0.0039297848)
(0.58977705 -0.25973547 0.0059816886)
(0.58911206 -0.25969527 0.0080563796)
(0.5881346 -0.25949869 0.010254704)
(0.63162787 -0.27038787 -0.0016602338)
(0.63285055 -0.27116533 0.00031867664)
(0.63365672 -0.27179249 0.0021876275)