/*--------------------------------*- C++ -*----------------------------------*\
  =========                 |
  \\      /  F ield         | OpenFOAM: The Open Source CFD Toolbox
   \\    /   O peration     | Website:  https://openfoam.org
    \\  /    A nd           | Version:  6
     \\/     M anipulation  |
\*---------------------------------------------------------------------------*/
FoamFile
{
    version     2.0;
    format      ascii;
    class       pointVectorField;
    location    "0.78";
    object      lm;
}
// * * * * * * * * * * * * * * * * * * * * * * * * * * * * * * * * * * * * * //

dimensions      [1 -2 -1 0 0 0 0];

internalField   nonuniform List<vector> 
3969
(
(0 0 0)
(0 0 0)
(2084.6202 -1142.8552 95.168789)
(1725.9963 -1598.0772 86.069)
(0 0 0)
(0 0 0)
(1712.8355 -1624.7092 87.304813)
(2073.0747 -1167.8428 94.31283)
(0 0 0)
(0 0 0)
(0 0 0)
(0 0 0)
(0 0 0)
(0 0 0)
(0 0 0)
(2040.9925 -1197.7548 95.273277)
(1997.6854 -1255.1009 94.658351)
(1953.1301 -1313.6446 92.78969)
(1907.8098 -1372.2763 90.618657)
(1861.8535 -1430.6648 88.478426)
(1815.928 -1487.6717 86.887488)
(1770.2704 -1543.2001 86.185288)
(-13.582443 -18.626802 -15.545127)
(-28.572974 -27.905565 -16.455517)
(-48.033041 -35.100541 -16.009525)
(-69.631958 -38.327615 -15.593119)
(-93.054051 -37.34813 -13.903243)
(-117.03233 -33.235459 -12.780025)
(-140.98656 -24.523699 -10.697597)
(-163.50532 -12.790695 -8.4163968)
(-183.96268 2.6784799 -5.4304142)
(-201.60632 20.15561 -1.8741363)
(-215.83865 40.268303 2.7523739)
(-225.80729 61.927265 7.9384046)
(-230.94001 84.811503 13.829962)
(-230.67544 108.25877 20.519137)
(-223.82979 131.77503 27.417771)
(-210.50791 154.48505 34.675508)
(-189.46367 175.90925 41.70586)
(-160.25835 195.23786 48.370364)
(-122.23355 211.63065 54.34217)
(-75.072683 224.16313 59.29328)
(-18.420294 231.91557 63.111358)
(47.626635 234.00892 65.518025)
(122.82146 229.50112 66.523043)
(206.57637 217.66592 66.035631)
(297.9171 197.88976 64.186264)
(395.88039 169.94904 61.116088)
(498.86576 133.59628 57.083261)
(605.5001 88.908053 52.275397)
(714.01848 36.435639 47.084638)
(822.60679 -23.030294 41.913982)
(929.77322 -88.560222 37.071357)
(1033.8543 -158.99494 33.018235)
(1133.5757 -232.89386 29.970647)
(1227.8879 -308.99116 28.303407)
(1316.0041 -385.76647 28.147341)
(1397.6327 -462.01906 29.482823)
(1472.7095 -536.50489 32.285136)
(1541.5293 -608.38374 36.764436)
(1604.9037 -676.91494 41.99228)
(1663.3334 -741.5625 48.216368)
(1718.4472 -802.3876 54.754465)
(1770.6513 -858.84701 61.688858)
(1821.555 -912.45368 68.237759)
(1872.2678 -961.84507 74.762172)
(1922.9847 -1009.0984 80.522218)
(1975.6504 -1055.3737 85.741346)
(2029.6302 -1099.0164 90.211161)
(-1.9802924 25.17689 32.30062)
(-23.355673 32.40848 21.476805)
(-43.83179 48.793558 20.487692)
(-65.958638 54.691364 8.5708786)
(-89.287256 67.008204 0.9521621)
(-114.5557 76.40178 -9.3101368)
(-138.13668 84.489072 -18.014608)
(-161.82825 91.181363 -26.416935)
(-184.28878 96.459493 -34.05253)
(-204.89416 98.87601 -40.636468)
(-223.98383 99.511843 -46.34346)
(-240.4 96.547947 -51.548093)
(-254.67532 91.104424 -55.620656)
(-266.11116 81.721696 -59.448528)
(-274.31597 68.069019 -62.720045)
(-279.02529 50.279215 -65.807274)
(-279.3829 27.283598 -68.630123)
(-275.14678 -0.41983281 -71.324792)
(-265.15618 -34.026672 -73.666002)
(-248.97974 -72.792491 -75.675031)
(-225.8934 -117.53421 -76.918152)
(-194.80292 -167.57142 -77.420628)
(-155.83876 -223.18682 -76.488348)
(-108.00776 -283.73044 -74.254331)
(-51.787166 -348.28443 -70.478381)
(13.05305 -416.56404 -65.022533)
(85.754229 -487.34248 -57.717533)
(166.22503 -560.56434 -48.820608)
(253.14111 -634.23334 -38.497859)
(345.29686 -707.63107 -26.767272)
(441.33883 -779.84813 -14.12801)
(539.77909 -849.75051 -0.87404843)
(639.1259 -916.70655 12.5408)
(737.86509 -980.02589 25.720164)
(834.69873 -1039.3431 38.233389)
(928.20854 -1094.5791 49.674746)
(1017.8747 -1145.6848 59.935205)
(1102.3568 -1193.1581 68.270856)
(1181.6316 -1236.9744 75.059814)
(1255.7568 -1278.4548 80.04463)
(1324.6921 -1317.889 83.510842)
(1389.0113 -1355.9947 85.222058)
(1449.504 -1393.7706 85.885546)
(1506.9936 -1431.7004 85.699883)
(1562.3879 -1470.6532 85.286871)
(1616.9333 -1511.0026 84.981564)
(1671.0497 -1553.4621 85.314226)
(0 0 0)
(0 0 0)
(0 0 0)
(0 0 0)
(0 0 0)
(0 0 0)
(0 0 0)
(-14.952029 21.513672 -28.29353)
(-26.805487 55.173885 -35.384071)
(-43.409346 48.984537 -33.759077)
(-62.553758 68.480223 -33.242465)
(-84.655518 77.476759 -31.639633)
(-106.01982 84.127764 -28.469336)
(-128.30272 91.116844 -25.940741)
(-149.76379 94.918561 -24.003252)
(-170.7472 95.230828 -19.943285)
(-190.21019 95.033919 -17.947973)
(-209.22363 88.932643 -11.833412)
(-226.37185 84.642803 -7.6009502)
(-241.15015 74.227225 -1.6372375)
(-252.96857 61.890576 4.5052509)
(-262.20573 46.719021 11.067155)
(-267.22241 26.336193 17.851725)
(-267.95106 3.0120856 24.298859)
(-263.31869 -26.125216 30.114933)
(-252.56153 -59.976254 34.933383)
(-235.04095 -99.741671 38.389399)
(-210.05489 -145.283 40.336906)
(-177.13815 -196.83994 40.577059)
(-135.90546 -254.12966 39.089427)
(-86.293965 -316.80178 35.999094)
(-28.258986 -384.84274 31.154871)
(38.415452 -456.83492 25.026077)
(110.45718 -531.22223 19.302924)
(189.76833 -607.25511 13.088097)
(274.64897 -683.81579 7.014471)
(364.10569 -759.75538 1.4653013)
(456.76017 -833.78989 -3.0882915)
(551.25675 -904.9319 -6.2217237)
(646.27849 -972.26085 -7.6899138)
(740.50892 -1035.0916 -7.2372365)
(832.91287 -1092.9407 -4.923855)
(921.82796 -1145.9046 -0.51871378)
(1007.8429 -1195.4087 5.1645512)
(1089.1551 -1238.0051 12.883756)
(1166.0446 -1278.8339 20.947079)
(1238.5389 -1316.478 30.019058)
(1306.5383 -1352.3005 39.111143)
(1370.9125 -1387.4319 47.931682)
(1431.8078 -1422.7341 56.319066)
(1490.1759 -1459.023 63.950655)
(1546.6453 -1497.0757 70.782645)
(1602.0479 -1537.3736 76.807067)
(1657.3949 -1580.1216 82.012116)
(1757.653 -1569.533 88.744107)
(1803.7239 -1512.9348 89.936906)
(1850.3143 -1455.9748 90.184655)
(1896.6449 -1396.8066 90.021538)
(1942.3942 -1338.1649 90.056055)
(1986.9753 -1279.9872 90.412319)
(2029.6812 -1222.236 91.943308)
(2018.148 -1124.0999 93.658408)
(1964.9285 -1081.2019 93.048846)
(1913.3045 -1037.7928 93.942529)
(1862.6197 -992.93401 95.045775)
(1812.3145 -946.26168 96.254476)
(1761.4614 -896.5604 97.065874)
(1708.9927 -843.26683 96.950013)
(1653.93 -785.82675 95.676555)
(1595.2822 -724.00927 92.796961)
(1532.2094 -657.71337 88.507458)
(1464.3384 -587.90927 82.623178)
(1389.8182 -513.34021 75.031211)
(1309.8301 -438.04566 66.252864)
(1223.7193 -360.34815 56.365281)
(1131.7955 -283.15662 45.653812)
(1034.6701 -207.48483 34.461821)
(933.27191 -134.94633 23.169938)
(828.81622 -66.974699 12.043625)
(722.62611 -4.9075696 1.4996287)
(616.34773 50.1552 -8.3285513)
(511.57171 97.350836 -17.076145)
(409.88932 136.06888 -24.660678)
(312.92219 166.20991 -31.02184)
(221.88832 187.74362 -36.131627)
(138.14964 201.09918 -40.096047)
(62.497136 206.8451 -42.953605)
(-4.3600089 205.92327 -45.013846)
(-62.112433 199.16831 -46.299603)
(-110.65092 187.80386 -47.185225)
(-150.10819 172.7474 -47.671554)
(-180.88738 155.14027 -47.937284)
(-203.45584 135.87566 -48.129156)
(-218.30734 116.04414 -47.988392)
(-226.08942 94.994946 -47.194576)
(-227.2981 75.120307 -46.49178)
(-222.92454 56.298066 -44.747907)
(-213.50718 38.233747 -42.608875)
(-199.62471 21.932266 -39.479946)
(-182.00789 7.3696837 -35.386402)
(-161.48793 -5.0418314 -30.63386)
(-138.43146 -14.284889 -24.886327)
(-113.92843 -21.885894 -18.234527)
(-89.721861 -25.116494 -12.090168)
(-65.474215 -26.727501 -4.595495)
(-43.55479 -24.675975 0.87238352)
(-24.387312 -18.121803 6.7938622)
(-11.706339 -13.018932 8.3138742)
(0 0 0)
(0 0 0)
(0 0 0)
(0 0 0)
(0 0 0)
(0 0 0)
(0 0 0)
(0 0 0)
(0 0 0)
(0 0 0)
(0 0 0)
(0 0 0)
(0 0 0)
(0 0 0)
(1725.273 -1599.2738 86.753958)
(1723.7263 -1601.1408 87.252689)
(1722.1478 -1603.8347 87.138193)
(1720.4878 -1607.1237 86.933579)
(1718.8089 -1610.8197 86.672403)
(1716.9708 -1615.2396 86.244414)
(1715.3842 -1619.6039 87.099894)
(2081.7414 -1146.9395 94.96176)
(2079.5733 -1150.3438 94.928784)
(2077.3084 -1153.8168 95.283301)
(2075.2101 -1157.2405 95.53842)
(2073.5527 -1160.5981 95.546565)
(2072.4059 -1163.4881 95.399516)
(2072.2271 -1166.1785 94.492292)
(-8.8285269 -7.4361235 -12.643892)
(-26.12555 -13.024031 -9.6023194)
(-44.628568 -17.946307 -11.296183)
(-67.205095 -18.976426 -10.713683)
(-90.084368 -17.024496 -11.250797)
(-114.81268 -11.401488 -10.783251)
(-139.06572 -2.8804043 -10.168055)
(-162.24475 8.7448797 -9.021722)
(-183.47066 22.747313 -7.4948101)
(-202.06241 38.727388 -4.8993374)
(-217.35282 56.797551 -1.8247931)
(-228.74484 75.491669 1.948096)
(-235.56666 95.321232 6.6754741)
(-237.34574 114.80282 11.844729)
(-233.27699 133.77698 17.423195)
(-222.73424 151.6334 23.068828)
(-205.13969 167.59508 28.757402)
(-179.79875 180.84604 34.107355)
(-146.10116 190.61812 38.867305)
(-103.59912 196.04177 42.863132)
(-51.9542 196.32336 45.918289)
(8.8637219 190.6314 47.894066)
(78.835819 178.30681 48.790963)
(157.33492 158.77412 48.592441)
(243.9289 131.66027 47.454023)
(337.37249 96.674725 45.360194)
(436.49611 54.083739 42.690722)
(540.11002 4.1319566 39.584647)
(646.33512 -52.568245 36.387086)
(753.66013 -115.05134 33.299655)
(860.45909 -182.39566 30.712824)
(965.12993 -253.32934 28.806746)
(1066.3119 -326.54397 27.871448)
(1162.811 -400.85816 28.10611)
(1253.7482 -474.8212 29.443772)
(1338.5184 -547.62455 32.178765)
(1417.0928 -618.03395 35.833343)
(1489.1336 -685.47559 40.749402)
(1555.5945 -749.61236 46.127566)
(1616.865 -810.038 52.159922)
(1674.1816 -866.87029 58.230815)
(1727.8792 -920.26624 64.480887)
(1780.1394 -970.83366 70.242076)
(1830.687 -1018.5501 75.822033)
(1881.5579 -1064.7781 80.884322)
(1933.5549 -1110.1598 85.576405)
(1986.2511 -1153.3141 90.049571)
(-4.4863855 -5.5153549 -8.8795103)
(-21.101035 -6.8157052 -7.957783)
(-41.222748 -11.596869 -9.0224388)
(-63.075809 -9.7333533 -10.798069)
(-88.288453 -6.8844357 -10.682287)
(-113.85781 -0.85892329 -11.549352)
(-138.97678 7.8360894 -11.473314)
(-163.02685 19.109411 -11.84777)
(-185.34177 32.193738 -10.739323)
(-205.12519 47.181491 -9.5515024)
(-221.52102 62.871022 -7.632582)
(-234.43235 79.458754 -4.7844391)
(-242.91712 96.059517 -1.404875)
(-246.47821 111.93989 2.5368321)
(-244.6099 127.00497 6.8308218)
(-236.8668 140.3601 11.37637)
(-222.2523 151.34261 15.835613)
(-200.32014 159.19073 20.08635)
(-170.25277 163.19891 23.849415)
(-131.62875 162.54351 27.056934)
(-84.044288 156.53903 29.498264)
(-27.230816 144.52547 31.156688)
(38.470868 125.98628 32.051329)
(113.15261 100.44394 32.230041)
(195.8317 67.590208 31.700849)
(285.86633 27.582313 30.842178)
(382.07788 -19.60776 29.541785)
(483.01767 -73.426069 28.15239)
(587.34449 -133.05014 26.881178)
(693.34577 -197.76424 25.852531)
(799.50236 -266.38945 25.331599)
(904.10364 -337.73808 25.480622)
(1005.8231 -410.65177 26.493186)
(1103.3286 -483.78704 28.322774)
(1195.7164 -556.1261 31.174983)
(1282.2356 -626.65482 34.852089)
(1362.6312 -694.55506 39.286073)
(1436.7275 -759.27046 44.438521)
(1505.1814 -820.63389 49.862215)
(1568.1043 -878.24532 55.560705)
(1626.9727 -932.6553 61.209599)
(1681.9015 -983.62583 66.68542)
(1734.9073 -1032.3752 71.841465)
(1786.23 -1078.4669 76.707961)
(1837.315 -1123.3899 81.137)
(1889.3467 -1167.6992 85.530629)
(1941.5592 -1210.062 89.585243)
(-5.3925888 -2.7048555 -2.6328053)
(-22.323616 -3.8982807 -1.659775)
(-40.689698 -5.0055211 -3.9723637)
(-64.591117 -2.0065001 -5.3113062)
(-89.503022 1.9825243 -7.2328244)
(-114.96994 9.1253967 -9.4154163)
(-140.51053 18.089097 -11.254424)
(-164.90143 29.014151 -12.570539)
(-187.6727 41.089571 -13.274714)
(-207.55364 54.23823 -13.766206)
(-225.19909 68.144162 -12.821756)
(-239.20733 81.893157 -11.44385)
(-249.19567 95.356376 -9.4560137)
(-254.87842 107.692 -6.702653)
(-255.38557 118.58441 -3.5286334)
(-249.9318 127.26205 -0.5456122)
(-238.11331 133.16293 2.754043)
(-219.14968 135.61271 5.6559291)
(-192.38241 133.86501 8.4544497)
(-157.40938 127.43159 10.740346)
(-113.60201 115.56851 12.631976)
(-60.962607 97.733261 14.021907)
(1.1020111 73.441096 14.97516)
(71.799381 42.285679 15.409394)
(150.95843 4.3852754 15.741654)
(237.69227 -40.403382 15.71638)
(331.02588 -91.720398 15.683127)
(429.60088 -148.91746 15.886269)
(531.99878 -211.36577 16.366415)
(636.59767 -278.07406 17.244666)
(741.83585 -347.87217 18.745085)
(846.08008 -419.72291 20.904764)
(947.90242 -492.34457 23.764276)
(1045.9914 -564.62348 27.384391)
(1139.2656 -635.55607 31.674259)
(1226.9988 -704.23525 36.579653)
(1308.7489 -769.93484 41.911038)
(1384.3994 -832.38299 47.622801)
(1454.1623 -891.22754 53.272388)
(1518.6069 -946.62916 59.040887)
(1578.6189 -998.67767 64.252412)
(1634.6673 -1047.8237 69.432945)
(1688.6191 -1094.5844 73.837323)
(1740.4538 -1139.3402 78.087368)
(1791.9407 -1182.9069 81.828563)
(1844.0344 -1226.1737 85.451376)
(1896.2202 -1268.1922 88.862675)
(-3.008041 0.96926917 0.73674029)
(-17.460216 1.4081262 -0.16117014)
(-38.656237 1.1821722 -1.0744046)
(-61.25309 5.2001185 -5.0918453)
(-86.816207 10.251585 -7.6208715)
(-113.33445 17.595235 -11.330452)
(-139.29931 26.367135 -13.759089)
(-164.72679 36.970516 -16.35926)
(-188.06862 47.784408 -17.991107)
(-209.90109 59.639427 -18.606648)
(-228.6903 70.826027 -18.837744)
(-243.82939 81.820926 -18.690542)
(-255.43428 91.819945 -17.767377)
(-262.70835 100.016 -16.166714)
(-265.11969 106.67116 -14.71218)
(-262.01415 110.40338 -12.606098)
(-252.94822 111.42964 -10.703379)
(-236.93398 108.36996 -8.7008363)
(-213.60438 101.24984 -6.9278608)
(-182.01603 89.098771 -5.4231486)
(-141.83623 71.485997 -4.1945799)
(-92.284546 47.918633 -3.1768945)
(-34.204302 18.149268 -2.4289581)
(33.007248 -17.913979 -1.5722876)
(108.71655 -60.525727 -0.83684021)
(192.24578 -109.43567 0.19696796)
(282.57539 -164.2495 1.6698164)
(378.49452 -224.42958 3.5439598)
(478.63044 -289.13871 5.9209316)
(581.44641 -357.39904 8.9388135)
(685.36152 -428.19021 12.60054)
(788.77862 -500.30921 16.867305)
(890.21764 -572.66829 21.796867)
(988.33258 -644.11799 27.210194)
(1082.0516 -713.7878 33.092893)
(1170.5154 -780.82688 39.222023)
(1253.3132 -844.7146 45.437703)
(1330.1644 -905.06849 51.573989)
(1401.3856 -961.88672 57.504287)
(1467.1943 -1015.0769 62.883103)
(1528.5579 -1065.0813 67.818135)
(1585.9284 -1112.16 72.12893)
(1640.8539 -1157.2176 75.894683)
(1693.5976 -1200.3034 79.218657)
(1745.7714 -1242.7157 82.273135)
(1798.302 -1285.0359 85.041444)
(1850.5666 -1326.8321 87.840884)
(-1.3214715 2.3336216 4.9492849)
(-19.959665 0.70832393 7.5477478)
(-39.53842 3.2148163 3.9135506)
(-63.382591 8.7910503 0.03443178)
(-90.047173 15.103555 -3.8356426)
(-116.13208 24.025657 -8.8421764)
(-142.9538 33.013831 -12.566379)
(-167.91546 43.657409 -17.012836)
(-192.13366 53.331435 -19.591282)
(-213.46032 63.624474 -22.661599)
(-232.33536 72.854026 -24.901935)
(-248.32836 81.852815 -26.023351)
(-260.91487 88.255614 -26.252011)
(-269.41272 93.365891 -26.371307)
(-273.56159 95.394177 -25.766121)
(-272.6096 94.731806 -25.020667)
(-265.86594 90.372533 -24.225625)
(-252.74882 82.044463 -23.35223)
(-232.34067 69.225467 -22.600588)
(-204.22941 51.306153 -21.873649)
(-167.39752 28.117041 -21.226516)
(-122.51144 -1.0670567 -20.312324)
(-68.202113 -36.018131 -19.410078)
(-4.8844337 -77.353482 -18.29114)
(67.197403 -124.78215 -16.662729)
(147.25504 -177.91547 -14.513945)
(234.56989 -236.52091 -11.764451)
(327.90142 -299.79097 -8.3788957)
(425.87301 -366.8851 -4.2066773)
(527.03249 -436.83844 0.67255886)
(629.72468 -508.58496 6.2787258)
(732.45321 -581.01516 12.49193)
(833.57816 -653.04727 19.254097)
(931.88483 -723.60253 26.321204)
(1026.0468 -791.93162 33.651721)
(1115.3584 -857.25181 40.914885)
(1199.0569 -919.15177 47.967982)
(1277.1944 -977.30937 54.706769)
(1349.2774 -1031.8339 60.750835)
(1416.1929 -1082.8118 66.229722)
(1478.5577 -1130.7354 70.778021)
(1536.9892 -1176.0547 74.844319)
(1592.6685 -1219.211 77.928516)
(1646.2322 -1261.0949 80.774761)
(1699.1002 -1302.4026 82.968247)
(1751.879 -1343.9421 85.067412)
(1804.6619 -1385.6961 86.993485)
(-1.1350085 8.5438529 13.456229)
(-18.93137 8.920544 10.847892)
(-38.815639 14.496868 7.440122)
(-63.172001 20.380639 2.2335349)
(-88.783416 28.779287 -3.9530379)
(-114.98054 36.823085 -10.130396)
(-141.13425 45.810783 -15.869385)
(-166.36025 54.897537 -21.332444)
(-190.22237 63.204298 -25.586047)
(-211.92294 71.32529 -29.672078)
(-231.6338 77.815931 -32.441231)
(-248.25466 82.75789 -34.593388)
(-261.69583 85.339419 -36.366334)
(-271.66592 85.514715 -37.328158)
(-277.57084 82.793257 -38.13447)
(-278.73827 76.663838 -38.500459)
(-274.67239 66.693221 -38.957998)
(-264.41293 52.545195 -39.097772)
(-247.52026 33.555057 -39.370844)
(-222.98455 9.6745724 -39.389097)
(-190.58837 -19.897174 -39.407132)
(-148.81238 -54.587293 -38.673505)
(-98.813963 -95.492926 -38.260153)
(-39.960027 -142.73133 -36.451729)
(27.777589 -195.05308 -34.278432)
(103.52791 -252.57248 -31.189187)
(187.01835 -314.71751 -26.973197)
(276.7976 -380.77032 -21.73113)
(371.74926 -449.83476 -15.538562)
(470.36622 -521.07064 -8.4011942)
(571.12257 -593.2594 -0.47908028)
(672.49939 -665.39593 8.074059)
(772.91588 -736.44374 17.02923)
(871.04664 -805.45588 26.119324)
(965.66556 -871.74138 35.172384)
(1055.7889 -934.65592 43.808112)
(1140.8053 -993.93724 51.939249)
(1220.2756 -1049.3629 59.104005)
(1294.4018 -1101.1022 65.670341)
(1363.3515 -1149.5088 70.607222)
(1427.3215 -1195.3017 74.973872)
(1487.294 -1238.5216 78.059835)
(1544.268 -1280.1384 80.428444)
(1599.0589 -1320.6731 82.118281)
(1652.7293 -1361.0605 83.478879)
(1706.1592 -1401.7417 84.82537)
(1759.4917 -1443.3527 86.156359)
(0.65725215 12.14319 17.240522)
(-19.117169 11.084513 16.170223)
(-40.155761 20.362232 13.118399)
(-64.514082 28.821586 5.9553257)
(-90.26373 38.011096 -1.5432117)
(-115.94931 47.346004 -8.8195508)
(-142.11396 56.894883 -16.362843)
(-166.71784 65.572771 -22.863899)
(-190.39234 73.041681 -28.9023)
(-212.00887 79.591329 -34.135323)
(-231.39143 83.370401 -38.424068)
(-248.31951 85.921791 -42.290113)
(-262.05762 84.2939 -44.802721)
(-273.17572 80.839419 -47.527347)
(-280.15918 73.073381 -49.334783)
(-283.31201 61.785053 -51.21071)
(-281.38599 45.999083 -52.674638)
(-274.09337 25.640187 -54.099999)
(-260.44845 0.2845352 -55.302225)
(-239.78412 -30.312972 -56.2675)
(-211.26484 -66.320393 -56.824842)
(-174.74302 -107.81497 -56.705889)
(-128.86506 -155.05182 -55.952207)
(-74.661377 -207.72843 -54.084184)
(-11.487009 -265.23056 -51.25772)
(59.939604 -327.243 -46.887974)
(139.33064 -393.27194 -41.314088)
(225.63953 -462.35825 -34.479197)
(317.55991 -533.74762 -26.404993)
(413.70854 -606.31063 -17.198577)
(512.6489 -678.98533 -7.1375711)
(612.8102 -750.82337 3.5469352)
(712.65624 -820.77733 14.508728)
(810.81151 -888.13638 25.471411)
(905.90269 -952.20197 36.087932)
(997.0387 -1012.548 46.042542)
(1083.2644 -1069.1265 55.082234)
(1164.3033 -1121.7252 62.911822)
(1239.8339 -1170.6474 69.455536)
(1310.2868 -1216.5147 74.683805)
(1375.8547 -1259.5901 78.556341)
(1437.2824 -1300.6746 81.228352)
(1495.5241 -1340.2703 82.86845)
(1551.3747 -1379.2844 83.884014)
(1605.968 -1418.3571 84.548182)
(1660.028 -1458.0523 85.202521)
(1714.7043 -1499.5288 85.946887)
(0 0 0)
(0 0 0)
(0 0 0)
(0 0 0)
(0 0 0)
(0 0 0)
(0 0 0)
(0 0 0)
(0 0 0)
(0 0 0)
(0 0 0)
(0 0 0)
(0 0 0)
(0 0 0)
(0 0 0)
(0 0 0)
(0 0 0)
(0 0 0)
(0 0 0)
(0 0 0)
(0 0 0)
(0 0 0)
(0 0 0)
(0 0 0)
(0 0 0)
(0 0 0)
(0 0 0)
(0 0 0)
(0 0 0)
(0 0 0)
(0 0 0)
(0 0 0)
(0 0 0)
(0 0 0)
(0 0 0)
(0 0 0)
(0 0 0)
(0 0 0)
(0 0 0)
(0 0 0)
(0 0 0)
(0 0 0)
(0 0 0)
(0 0 0)
(0 0 0)
(0 0 0)
(0 0 0)
(0 0 0)
(0 0 0)
(-14.263481 8.3276509 16.126991)
(-16.160369 11.449675 9.8096789)
(-19.758615 12.05289 4.5068778)
(-21.184459 12.70216 -0.43190231)
(-20.738473 12.02523 -4.531922)
(-20.220031 13.103823 -8.9932568)
(-19.429037 8.3441668 -14.813286)
(-31.774254 40.584748 17.992782)
(-35.309935 47.692009 7.6772673)
(-37.56588 43.494992 1.2202354)
(-37.928803 41.509177 -4.2367976)
(-39.226974 45.332628 -10.031886)
(-36.466527 44.959895 -15.821732)
(-35.721117 46.293678 -27.093816)
(-48.076609 51.083209 12.4794)
(-53.362089 48.923414 7.5239204)
(-56.406448 52.884477 -0.91108479)
(-56.157561 52.366465 -8.1355196)
(-55.900596 50.636565 -14.361038)
(-54.144778 50.821664 -18.6703)
(-51.343759 55.771371 -29.888831)
(-67.841394 64.585672 3.8273426)
(-70.602663 66.437896 0.56812399)
(-71.037524 65.700326 -7.562582)
(-71.746533 65.984023 -11.110703)
(-71.08559 66.431284 -16.263274)
(-69.661479 68.488992 -24.161818)
(-65.63761 66.952164 -27.678016)
(-89.923751 77.256225 -2.7055135)
(-91.330661 78.264347 -5.8900607)
(-92.5844 80.997321 -10.674101)
(-91.858219 79.979365 -15.517752)
(-91.423302 80.263915 -19.348069)
(-90.025751 80.040092 -23.530505)
(-88.128519 82.206278 -28.583636)
(-112.32466 84.459626 -12.158897)
(-112.00679 85.536192 -14.410127)
(-111.12607 86.021088 -17.260733)
(-111.15853 86.810631 -19.98258)
(-109.26365 86.775967 -22.041201)
(-109.2872 87.699615 -25.633879)
(-106.79131 86.789271 -27.033682)
(-134.66851 92.61874 -19.340824)
(-133.22935 93.891537 -20.230431)
(-132.11546 95.594225 -22.136482)
(-130.20534 95.050755 -22.522073)
(-129.85719 95.129633 -24.672009)
(-128.71447 94.243854 -25.350893)
(-128.1525 95.220578 -25.408663)
(-157.01775 97.694098 -26.886433)
(-154.12933 98.672417 -27.17219)
(-151.38048 99.140099 -26.4747)
(-150.38232 99.325058 -26.075518)
(-149.40028 99.334673 -25.905846)
(-148.78815 98.359945 -25.50049)
(-149.10009 97.937344 -24.884919)
(-177.78285 101.28187 -33.268875)
(-173.91973 102.05402 -31.722385)
(-171.33176 101.67236 -30.491932)
(-168.95616 100.78322 -28.638597)
(-168.05824 100.08075 -26.601332)
(-167.80675 98.960555 -24.897806)
(-168.39804 98.453904 -22.145008)
(-197.87452 102.52111 -38.738547)
(-193.06035 102.31529 -36.45858)
(-189.10066 102.19285 -33.797865)
(-186.76754 100.70942 -30.46871)
(-186.21878 100.38966 -27.564993)
(-186.19575 99.153387 -24.347889)
(-187.64456 98.320422 -21.216772)
(-215.54009 101.33947 -43.213917)
(-209.96037 100.34677 -40.046764)
(-205.80672 98.852417 -35.187595)
(-203.55767 97.888012 -31.181407)
(-202.60713 95.984756 -26.316597)
(-202.95037 94.63558 -22.506692)
(-204.74302 93.006837 -16.757579)
(-231.41336 97.424415 -47.385259)
(-225.15583 95.453909 -42.256267)
(-220.67455 93.713185 -36.984815)
(-217.73776 91.113087 -31.30022)
(-217.02196 89.976308 -25.261543)
(-217.80354 88.919982 -20.231953)
(-220.4256 87.190156 -12.957766)
(-244.35352 89.870053 -49.756073)
(-238.14002 87.604759 -43.736364)
(-233.09888 84.527306 -37.24894)
(-230.35048 83.012319 -30.245919)
(-229.7389 81.091187 -22.979283)
(-231.21396 79.308367 -16.514629)
(-234.50198 78.033987 -8.4967562)
(-255.15703 79.580228 -52.599745)
(-248.28597 76.053357 -45.011073)
(-242.66402 72.466672 -37.31231)
(-239.98662 69.913249 -29.049984)
(-239.47717 67.197418 -20.395936)
(-241.16958 66.293476 -13.043992)
(-245.00352 64.643007 -3.2371749)
(-262.66252 64.237665 -54.401333)
(-255.1792 60.296187 -45.474768)
(-249.46872 56.367978 -36.757179)
(-246.77391 53.560394 -26.901847)
(-246.27638 51.447306 -17.515637)
(-248.5423 50.211224 -8.2794055)
(-253.17151 49.123961 2.2786362)
(-266.43093 45.445878 -56.207388)
(-258.58245 40.868666 -46.136542)
(-252.47909 35.769381 -35.993707)
(-249.78216 32.689005 -25.324951)
(-249.4187 29.88049 -14.142901)
(-252.18906 28.759921 -4.2035863)
(-257.23428 28.256439 7.984952)
(-266.32597 21.415532 -57.846928)
(-257.85691 15.851222 -46.379735)
(-251.53828 10.565775 -35.426274)
(-248.7919 7.2686529 -23.017743)
(-248.45834 4.4520907 -11.22274)
(-251.56462 3.82915 0.24537263)
(-257.07676 3.5275624 13.548976)
(-261.17329 -7.7145929 -59.31372)
(-252.35491 -13.780427 -47.068293)
(-245.69112 -19.793887 -34.619338)
(-242.98355 -23.662718 -21.559015)
(-242.66857 -26.445667 -8.4827993)
(-246.14654 -27.236358 4.0111406)
(-251.94258 -26.640859 18.435691)
(-250.80454 -42.230563 -60.896898)
(-241.53371 -48.987461 -47.385087)
(-234.64982 -55.575294 -34.312409)
(-231.90247 -59.419172 -20.166067)
(-231.44466 -62.560596 -6.2377488)
(-235.1439 -62.876476 7.1154408)
(-241.02608 -62.104489 22.497439)
(-234.25634 -82.326362 -62.033165)
(-224.63131 -89.893086 -47.989547)
(-217.62456 -96.815872 -34.141524)
(-214.74528 -101.34574 -19.337821)
(-214.2198 -104.39048 -4.8171215)
(-217.99026 -104.84862 9.2979201)
(-223.74321 -103.34588 25.380105)
(-210.93594 -128.21544 -63.022613)
(-201.21861 -136.26181 -48.432469)
(-194.02343 -143.828 -34.146029)
(-191.01725 -148.39977 -19.014297)
(-190.33716 -151.81316 -4.0199156)
(-193.90558 -151.98491 10.454909)
(-199.44703 -150.34666 26.947471)
(-180.33272 -179.49173 -63.320008)
(-170.51605 -188.35806 -48.616958)
(-163.2629 -196.11974 -34.267821)
(-160.18705 -201.2523 -19.068116)
(-159.23475 -204.69906 -4.0337269)
(-162.59971 -205.06142 10.531345)
(-167.64461 -203.22219 27.095305)
(-141.88042 -236.26749 -62.755749)
(-132.18128 -245.46358 -48.366136)
(-125.06291 -253.64124 -34.29836)
(-121.77418 -259.01509 -19.456072)
(-120.73355 -262.87654 -4.6915346)
(-123.52992 -263.34459 9.5606031)
(-127.95308 -261.58751 25.797424)
(-95.161891 -297.57751 -61.15865)
(-85.926791 -307.46384 -47.509836)
(-78.914979 -315.73014 -34.137643)
(-75.667058 -321.66122 -19.900522)
(-74.194273 -325.57008 -5.9578737)
(-76.363695 -326.29871 7.7835425)
(-80.105314 -324.8513 23.201238)
(-40.410758 -363.12543 -58.575845)
(-31.461173 -373.34901 -45.810759)
(-24.981991 -381.61771 -33.465562)
(-21.452633 -387.98635 -20.193755)
(-20.02613 -392.05409 -7.5170261)
(-21.606592 -393.65631 5.3377415)
(-24.527273 -392.93992 19.133205)
(22.5787 -431.99263 -54.473568)
(30.837318 -442.37739 -43.19817)
(36.636784 -450.96264 -32.158345)
(40.191376 -457.46812 -20.033435)
(41.63975 -461.77917 -9.2724042)
(41.388187 -463.9781 2.3321745)
(39.654617 -463.9172 14.048247)
(93.31766 -503.32807 -48.934294)
(100.62468 -513.80348 -39.603809)
(105.82315 -522.49591 -29.681906)
(109.60678 -529.32014 -20.207731)
(111.49229 -534.19766 -10.165401)
(111.63652 -536.73571 -0.22019122)
(110.40026 -537.27172 9.8575841)
(171.70717 -576.4524 -42.021249)
(177.38197 -586.57304 -34.391183)
(182.181 -595.44152 -26.581603)
(185.36409 -601.87998 -18.994367)
(187.44774 -607.33809 -10.670108)
(188.33123 -610.23598 -2.9899362)
(187.95986 -612.23946 5.4357234)
(256.16257 -649.69581 -33.674219)
(260.56163 -659.73602 -27.960175)
(264.23419 -668.1198 -22.545758)
(267.33271 -674.92153 -16.650041)
(269.17751 -680.63105 -10.793765)
(270.80756 -684.3856 -4.9699198)
(271.21951 -687.32609 1.2293856)
(345.92037 -722.58728 -23.966175)
(348.7527 -731.93992 -20.633397)
(351.63553 -740.23679 -17.145567)
(354.12473 -746.89833 -13.630635)
(356.01723 -752.99918 -9.8361448)
(358.17444 -757.34116 -6.2073195)
(359.28777 -761.43302 -2.2979679)
(439.54972 -793.71047 -13.420248)
(441.00738 -802.5709 -12.172728)
(442.80569 -810.34071 -10.919726)
(444.81831 -817.01683 -9.4714485)
(446.63399 -823.2777 -7.9233781)
(449.117 -828.30729 -6.3835793)
(450.89403 -833.47428 -4.8436658)
(535.84804 -862.44136 -2.0603879)
(535.90449 -870.45932 -2.9869772)
(536.68343 -877.80663 -3.6389962)
(538.13849 -884.31529 -4.3495092)
(539.76823 -890.72117 -4.8432919)
(542.45719 -896.39705 -5.3543013)
(544.76002 -902.50692 -6.0474364)
(633.31789 -927.85752 9.5981579)
(632.0853 -935.09472 6.8223253)
(631.83866 -941.89787 4.3174502)
(632.69314 -948.21096 1.7272841)
(634.08662 -954.67541 -0.65237928)
(636.86803 -960.85608 -3.0023729)
(639.5239 -967.76538 -5.7204108)
(730.56887 -989.59162 21.313494)
(728.17696 -995.95432 16.913467)
(727.00289 -1002.1592 12.877433)
(727.28283 -1008.1803 8.6782933)
(728.42021 -1014.5776 4.6946421)
(731.04522 -1021.182 0.77568451)
(733.87527 -1028.691 -3.6942868)
(826.28363 -1047.2268 32.695088)
(822.92627 -1052.6958 27.042415)
(820.90157 -1058.3102 21.769715)
(820.57263 -1064.0219 16.25495)
(821.3197 -1070.3103 11.007405)
(823.72129 -1077.1051 5.707699)
(826.75926 -1084.9418 -0.078792562)
(919.20369 -1100.7693 43.368833)
(915.12034 -1105.3413 36.836629)
(912.42916 -1110.3656 30.680563)
(911.50575 -1115.7001 24.227607)
(912.11066 -1121.6718 18.188931)
(913.99601 -1128.7274 11.664928)
(916.83696 -1136.9629 5.3420379)
(1008.5268 -1150.3273 53.055608)
(1003.8805 -1154.0885 45.942445)
(1000.5508 -1158.5975 39.431415)
(999.1873 -1163.5036 32.301014)
(999.32156 -1169.434 25.836144)
(1000.8254 -1175.7494 19.155835)
(1003.1696 -1184.2418 11.182604)
(1093.3816 -1195.6732 61.668882)
(1088.3301 -1199.3224 54.277249)
(1084.7074 -1203.1895 47.614967)
(1082.9738 -1207.8242 40.468852)
(1082.5121 -1213.1788 33.457374)
(1083.6765 -1220.3861 26.633465)
(1086.1814 -1227.7278 19.600855)
(1173.2851 -1239.0261 68.48229)
(1168.3587 -1241.6917 61.655039)
(1164.5353 -1245.1381 55.142335)
(1162.3711 -1249.3939 48.12195)
(1161.8418 -1254.4204 41.594649)
(1162.3273 -1260.7501 34.914549)
(1163.9798 -1267.7177 27.460411)
(1248.3021 -1279.3282 74.123698)
(1243.437 -1281.6309 67.685302)
(1239.4929 -1284.7332 61.605446)
(1237.2264 -1288.7029 55.111268)
(1236.3064 -1293.3268 48.991571)
(1236.112 -1299.3491 42.565751)
(1237.723 -1305.8863 36.152256)
(1318.3902 -1318.0455 78.149574)
(1313.8222 -1320.0527 72.533108)
(1310.0568 -1322.9672 67.118409)
(1307.6007 -1326.6566 61.314811)
(1306.3941 -1330.9324 55.8901)
(1305.8411 -1336.6289 50.287659)
(1306.8095 -1342.4466 44.570943)
(1384.0265 -1355.8044 80.7522)
(1379.8925 -1357.6999 76.146193)
(1376.3567 -1360.5265 71.504018)
(1373.8208 -1363.9477 66.685329)
(1372.5159 -1368.033 62.10154)
(1371.394 -1373.2339 57.233797)
(1371.9561 -1378.4181 52.580542)
(1445.7518 -1393.5127 82.32548)
(1442.115 -1395.4127 78.783941)
(1438.9029 -1398.1288 75.054368)
(1436.4116 -1401.4346 71.174398)
(1434.9471 -1405.2882 67.448033)
(1433.4511 -1410.0754 63.535984)
(1433.5993 -1414.7665 59.98833)
(1504.3369 -1431.7056 83.171233)
(1501.2805 -1433.6522 80.66251)
(1498.4618 -1436.354 77.816045)
(1496.0809 -1439.6098 74.890179)
(1494.4948 -1443.3387 72.121497)
(1492.7483 -1447.8023 69.07382)
(1492.4188 -1452.135 66.5953)
(1560.6897 -1471.0607 83.665767)
(1558.134 -1473.1392 82.072451)
(1555.6903 -1475.855 80.087955)