/*--------------------------------*- C++ -*----------------------------------*\
  =========                 |
  \\      /  F ield         | OpenFOAM: The Open Source CFD Toolbox
   \\    /   O peration     | Website:  https://openfoam.org
    \\  /    A nd           | Version:  6
     \\/     M anipulation  |
\*---------------------------------------------------------------------------*/
FoamFile
{
    version     2.0;
    format      ascii;
    class       pointVectorField;
    location    "0.58";
    object      lm;
}
// * * * * * * * * * * * * * * * * * * * * * * * * * * * * * * * * * * * * * //

dimensions      [1 -2 -1 0 0 0 0];

internalField   nonuniform List<vector> 
28033
(
(-1.780536e-14 4.8656612e-16 1.3104288e-15)
(-5.4375576e-15 3.3318594e-15 9.9433006e-16)
(-3397.4502 651.07525 -21.548209)
(-2862.6521 1949.1634 70.585888)
(-1.338461e-14 3.0090723e-15 -2.870051e-16)
(-1.2587315e-14 4.9008913e-15 -4.4266115e-15)
(-2880.1238 1926.7906 8.8522376)
(-3388.0079 669.72217 32.89576)
(-5.6329745e-15 1.0535579e-15 6.7193838e-16)
(-2.4534443e-15 3.0423504e-16 5.8836893e-16)
(-5.4923298e-15 2.4302826e-15 8.9528572e-16)
(-2.6209443e-15 -1.1537891e-15 -6.7979696e-16)
(-7.2548563e-15 1.5542294e-15 1.0013199e-15)
(-4.7613589e-15 -9.2108094e-16 -7.3952737e-16)
(-1.132389e-15 -2.2256662e-17 -6.4484848e-16)
(-7.4239857e-16 -2.4218299e-16 -3.6669977e-16)
(-1.1196198e-15 4.5550132e-16 8.383863e-16)
(-2.3465882e-16 2.2667819e-16 1.4996246e-15)
(-4.0583243e-15 -8.7236639e-16 -1.3429605e-15)
(-5.8237189e-15 8.4462789e-16 7.5519031e-16)
(-5.1611762e-15 1.0100276e-15 9.7613867e-16)
(-1.7679952e-15 -8.1010255e-16 4.5192313e-16)
(-4.4158752e-15 1.0299569e-15 -9.452958e-16)
(-3277.0907 701.29193 -17.995911)
(-3136.5661 744.31304 -16.391548)
(-3027.6781 793.66147 -13.840553)
(-2961.5251 854.42332 -10.026677)
(-2941.2256 932.57722 -5.3148604)
(-2963.8201 1029.6205 1.8426813)
(-3019.1035 1145.6604 10.200566)
(-3092.2536 1276.5587 20.218854)
(-3165.3896 1415.5584 31.359237)
(-3222.3757 1552.7641 42.653359)
(-3248.5528 1677.8795 52.444407)
(-3235.8999 1781.5859 60.373464)
(-3181.6978 1857.9233 65.570913)
(-3089.9557 1905.1524 68.460763)
(-2973.876 1929.4407 69.206812)
(-36.581683 -46.183396 -49.581839)
(-56.003814 -73.270704 -64.054302)
(-78.07237 -95.548566 -70.445506)
(-103.72423 -116.48961 -71.930617)
(-131.15447 -134.95283 -69.396441)
(-160.34316 -151.45461 -64.594731)
(-190.35822 -165.82689 -58.778726)
(-220.37146 -178.1684 -52.215123)
(-250.05432 -188.67068 -46.016572)
(-278.66992 -197.35741 -40.202935)
(-305.83093 -204.5913 -35.556049)
(-331.42959 -210.64113 -31.739136)
(-355.45238 -215.7149 -29.309012)
(-378.15199 -220.00911 -27.659708)
(-399.56325 -223.78068 -27.107985)
(-420.33488 -227.12253 -27.067445)
(-440.87085 -230.01963 -27.321514)
(-461.85532 -232.62911 -27.470527)
(-483.34164 -234.70423 -27.332938)
(-506.07401 -236.20884 -26.472639)
(-530.23813 -236.98095 -24.663645)
(-555.9805 -236.901 -21.864962)
(-583.1479 -235.78513 -17.986765)
(-611.7554 -233.60547 -13.072304)
(-641.08134 -230.3232 -7.384233)
(-670.92039 -225.96586 -1.2140562)
(-700.54785 -220.73251 4.9590799)
(-729.32913 -214.80334 10.876776)
(-756.41884 -208.59264 15.822298)
(-781.44942 -202.34728 19.419325)
(-804.06631 -196.7215 21.232299)
(-823.38374 -192.10895 20.884619)
(-839.82875 -188.46616 18.143558)
(-853.60136 -186.92735 13.118077)
(-864.82495 -187.15394 5.5618551)
(-874.35785 -189.69809 -4.1109043)
(-882.71934 -194.21103 -15.32185)
(-891.34754 -200.74466 -27.719166)
(-900.96753 -209.16606 -40.965737)
(-912.54346 -218.65951 -53.830919)
(-927.61439 -228.94228 -65.969956)
(-946.60641 -239.37293 -76.574387)
(-970.52499 -249.17841 -85.103761)
(-999.78439 -257.64338 -90.861658)
(-1034.6894 -264.17818 -93.691676)
(-1075.1769 -268.09591 -93.148827)
(-1120.9633 -268.98654 -89.296709)
(-1171.4192 -266.50447 -82.215192)
(-1225.7559 -260.53506 -72.237014)
(-1282.9213 -251.13329 -59.839947)
(-1341.7891 -238.57241 -45.661717)
(-1401.1205 -223.30018 -30.456419)
(-1459.719 -205.93227 -15.050724)
(-1516.4525 -187.20458 -0.29607564)
(-1570.3599 -167.91018 12.986611)
(-1620.7033 -148.8608 24.076833)
(-1667.0225 -130.79962 32.396933)
(-1709.1735 -114.34504 37.560827)
(-1747.3406 -99.951018 39.419876)
(-1782.0123 -87.856569 38.064198)
(-1813.9817 -78.040112 33.810695)
(-1844.2107 -70.284893 27.204784)
(-1873.8856 -64.094426 19.000217)
(-1904.223 -58.857777 9.9124897)
(-1936.2086 -53.862397 0.96160911)
(-1971.3731 -47.886357 -6.836445)
(-2009.8857 -40.481095 -13.137905)
(-2052.7084 -30.629586 -17.130504)
(-2100.5489 -17.551782 -17.647487)
(-2152.442 -0.91014917 -15.192639)
(-2208.4396 19.653425 -9.6702321)
(-2268.1761 44.318725 -0.92458649)
(-2330.3221 72.903328 10.369545)
(-2393.9302 104.9352 23.672455)
(-2457.6648 139.84204 38.114102)
(-2520.3478 176.73316 52.861764)
(-2580.6794 214.77532 66.935202)
(-2637.6739 252.80151 79.455415)
(-2690.4001 290.07798 89.52993)
(-2738.4443 325.32617 96.585458)
(-2781.3571 358.06092 100.07494)
(-2819.49 387.63949 99.763195)
(-2853.1597 413.51255 95.679863)
(-2883.2886 435.96469 87.97059)
(-2910.5701 454.67526 77.399805)
(-2936.7642 470.45873 64.446828)
(-2962.848 483.69619 50.139377)
(-2990.694 495.53389 35.47409)
(-3020.8602 506.59608 20.998474)
(-3055.323 518.06619 8.3223022)
(-3093.888 531.058 -2.5720157)
(-3137.6454 545.99642 -10.822702)
(-3185.9773 564.43795 -15.714417)
(-3237.5105 586.22484 -19.547721)
(-3290.9147 611.50155 -19.772201)
(-21.332202 67.270841 76.135906)
(-40.066337 91.400468 88.732909)
(-64.219533 119.3746 106.18332)
(-84.423228 139.46439 109.93548)
(-111.86622 161.84808 111.39071)
(-139.74759 182.12274 108.82868)
(-169.14239 200.5922 104.14975)
(-199.09974 218.31162 98.096314)
(-228.67372 234.66731 91.423171)
(-256.78821 249.79659 84.940438)
(-283.39417 264.38108 78.645756)
(-307.75592 278.11078 73.22931)
(-329.69459 291.7359 68.855957)
(-349.58904 305.10988 65.222068)
(-367.45721 318.80457 62.709798)
(-383.78413 332.67156 60.751874)
(-398.99055 347.04173 59.459454)
(-413.58501 361.88595 58.53963)
(-428.26856 377.17611 57.637563)
(-443.34987 392.79671 56.644107)
(-459.16195 408.66715 55.406598)
(-476.05788 424.32728 53.821722)
(-494.00375 439.85743 51.713995)
(-512.79823 454.61347 49.42457)
(-532.46646 468.5268 46.808282)
(-552.05883 481.31872 44.185847)
(-571.57214 492.59459 41.695124)
(-589.91887 502.49417 39.645988)
(-606.94738 510.74774 38.114243)
(-621.72402 517.62758 37.414799)
(-633.91316 523.1163 37.577946)
(-643.31586 527.64658 38.761244)
(-649.72373 531.55639 40.749092)
(-653.12942 535.32254 43.562299)
(-653.94385 539.48675 47.088114)
(-652.92943 544.86737 50.368551)
(-650.22595 551.7819 54.113581)
(-647.03563 560.7323 57.149629)
(-644.44758 572.36482 59.365419)
(-643.2693 587.00836 60.33077)
(-644.61588 604.84922 59.771762)
(-649.39772 626.02619 57.455961)
(-658.40205 650.42604 53.265766)
(-672.21639 677.80723 47.230566)
(-691.16906 707.74195 39.510345)
(-715.3307 739.667 30.399889)
(-744.49232 772.90049 20.321292)
(-778.18467 806.67989 9.7855977)
(-815.7231 840.21855 -0.63530291)
(-856.24382 872.74493 -10.355751)
(-898.78244 903.56401 -18.817308)
(-942.32839 932.10128 -25.535114)
(-985.90354 957.94377 -30.127033)
(-1028.618 980.87274 -32.349157)
(-1069.7331 1000.879 -32.101903)
(-1108.6972 1018.1694 -29.444635)
(-1145.1847 1033.1457 -24.580001)
(-1179.1092 1046.3951 -17.848581)
(-1210.6246 1058.6275 -9.6949335)
(-1240.118 1070.6546 -0.65178553)
(-1268.1816 1083.3047 8.7067172)
(-1295.5692 1097.3944 17.788857)
(-1323.1549 1113.6459 26.021004)
(-1351.8723 1132.6579 32.894453)
(-1382.6439 1154.8386 37.979913)
(-1416.3234 1180.4149 40.951233)
(-1453.6263 1209.3919 41.608943)
(-1495.2281 1241.4742 39.997327)
(-1540.9698 1276.2321 36.146873)
(-1591.2831 1312.9497 30.221626)
(-1646.2015 1351.1691 22.929274)
(-1704.5909 1389.7193 14.314004)
(-1766.2642 1427.9972 5.1374711)
(-1830.0016 1464.9422 -3.9419111)
(-1894.8524 1499.8505 -12.40356)
(-1959.6459 1532.0422 -19.616605)
(-2023.248 1561.0629 -25.098385)
(-2084.553 1586.6202 -28.405823)
(-2142.595 1608.6539 -29.259975)
(-2196.6626 1627.3699 -27.478003)
(-2246.2324 1643.1095 -23.082875)
(-2291.1184 1656.4919 -16.22245)
(-2331.44 1668.2327 -7.2048485)
(-2367.6366 1679.2029 3.5047039)
(-2400.4587 1690.2739 15.356358)
(-2430.9087 1702.366 27.674162)
(-2460.2116 1716.2551 39.775521)
(-2489.6831 1732.6251 50.968549)
(-2520.7047 1751.9251 60.604398)
(-2554.5452 1774.3375 68.188753)
(-2592.2911 1799.7201 73.359689)
(-2634.7213 1827.5843 76.038436)
(-2682.1512 1856.9573 76.343557)
(-2734.1758 1886.6076 74.870224)
(-2795.5317 1917.9987 72.461012)
(3.2927448e-15 -1.3239155e-15 2.3845803e-16)
(2.4470133e-15 -9.6672015e-16 3.215493e-17)
(-9.0574249e-15 9.0550918e-16 6.4029168e-16)
(-1.2642219e-16 -5.721845e-16 4.4370095e-16)
(-7.6811722e-15 -4.9270561e-16 4.1193361e-16)
(-7.3893964e-15 2.7533729e-15 -1.0951501e-15)
(-3.2915852e-15 -8.1743692e-16 3.8364228e-16)
(-1.9032499e-15 5.3200654e-16 -8.2319016e-17)
(-4.7409759e-15 -4.8623412e-16 4.3918642e-16)
(-1.2869644e-14 1.1845665e-15 6.4228907e-16)
(-9.6157521e-15 1.4157374e-15 5.9836601e-16)
(-9.4077204e-15 4.9518432e-16 1.1192419e-15)
(-5.982767e-15 2.6210694e-16 3.0473736e-16)
(-1.1478475e-14 -5.3386198e-16 1.6580808e-15)
(-5.257323e-15 3.6289085e-16 2.8600704e-16)
(-35.138155 27.20508 -53.218032)
(-43.731614 89.925494 -74.663161)
(-64.018161 100.28093 -77.760105)
(-89.319431 129.14621 -83.095445)
(-117.19946 146.75924 -78.12917)
(-146.61212 168.02021 -72.254325)
(-178.24164 186.23337 -65.90627)
(-206.58434 203.9838 -58.931045)
(-236.83554 220.86351 -54.165417)
(-261.49677 235.32758 -50.239549)
(-284.63364 249.37624 -48.524342)
(-306.30438 263.50318 -49.527871)
(-322.26514 274.5173 -51.542897)
(-338.66118 287.85353 -56.079974)
(-350.11232 297.53876 -61.147347)
(-362.19906 309.24408 -66.952331)
(-373.46678 321.83045 -73.004772)
(-384.36091 331.18781 -78.180697)
(-396.71588 344.72712 -81.847462)
(-410.43198 355.32164 -84.0746)
(-426.52267 368.18966 -83.807981)
(-445.13358 381.18598 -81.095671)
(-465.69943 394.17433 -76.48143)
(-488.52051 407.11049 -69.236449)
(-513.15595 420.17799 -60.33926)
(-538.91199 433.31006 -50.312421)
(-564.65078 444.69381 -39.297365)
(-589.81803 457.60384 -28.513062)
(-612.75126 467.59376 -18.914686)
(-633.30226 478.18242 -10.485322)
(-650.69967 487.94825 -4.6897501)
(-663.79615 496.64752 -1.6874825)
(-672.54544 505.03819 -1.8607976)
(-677.03384 513.20331 -5.5490318)
(-678.37448 521.01132 -11.729651)
(-672.26061 529.28191 -22.30527)
(-667.47281 537.60811 -34.431665)
(-659.77152 547.71041 -48.318254)
(-651.70369 558.85151 -63.102478)
(-644.58549 571.67586 -77.845121)
(-639.9726 586.41381 -91.506211)
(-639.11093 603.24877 -103.18818)
(-643.19918 622.24877 -112.05105)
(-653.15106 643.38908 -117.4345)
(-669.57837 666.51838 -118.89636)
(-692.7431 691.38651 -116.23013)
(-722.5329 717.64205 -109.5047)
(-758.48522 744.86072 -99.03046)
(-799.81018 772.56521 -85.358619)
(-845.45997 800.27111 -69.227079)
(-894.19466 827.50285 -51.516727)
(-944.67516 853.84997 -33.190152)
(-995.54902 878.97616 -15.222599)
(-1045.5423 902.66895 1.4461918)
(-1093.5347 924.82879 15.986655)
(-1138.6349 945.51189 27.708704)
(-1180.2261 964.88778 36.120374)
(-1218.0033 983.2661 40.933638)
(-1251.9869 1001.0403 42.097)
(-1282.5111 1018.6822 39.777598)
(-1310.2026 1036.6899 34.358518)
(-1335.9247 1055.5607 26.399958)
(-1360.7275 1075.7414 16.615165)
(-1385.7494 1097.6005 5.7848889)
(-1412.1797 1121.4065 -5.2195562)
(-1441.1685 1147.2424 -15.597623)
(-1473.3717 1175.2811 -24.431791)
(-1512.1227 1205.4472 -31.535556)
(-1550.0442 1236.2969 -35.626801)
(-1598.4351 1269.7204 -37.550457)
(-1649.4817 1303.0557 -36.280428)
(-1705.3093 1336.8056 -32.391848)
(-1764.9362 1370.1957 -25.888062)
(-1827.3814 1402.764 -17.450209)
(-1891.6149 1433.9089 -7.6092992)
(-1956.4008 1463.2735 2.9987486)
(-2020.5331 1490.5692 13.602521)
(-2082.8155 1515.6151 23.544726)
(-2142.2137 1538.4193 32.16635)
(-2197.8752 1559.1229 38.935034)
(-2249.2169 1578.0059 43.456074)
(-2295.9482 1595.4951 45.50553)
(-2338.1216 1612.0973 45.043498)
(-2376.102 1628.4024 42.238497)
(-2410.5928 1645.0107 37.424199)
(-2442.5395 1662.5155 31.120672)
(-2473.1345 1681.415 23.959305)
(-2503.6548 1702.1283 16.653556)
(-2535.448 1724.8502 9.9363849)
(-2569.7396 1749.6483 4.4738966)
(-2607.5666 1776.2407 0.81499525)
(-2649.6465 1804.2162 -0.7207046)
(-2696.155 1832.6652 -0.1070672)
(-2746.7989 1860.5015 2.4303762)
(-2793.7271 1882.2869 5.8960586)
(-2997.3722 1912.4992 7.9017871)
(-3118.8096 1895.8417 6.33185)
(-3195.8921 1845.1044 4.3913014)
(-3243.3674 1770.6578 3.2280808)
(-3250.1185 1671.7326 3.6232386)
(-3214.1889 1548.4624 4.7669545)
(-3155.8774 1418.4183 7.4453794)
(-3091.1233 1289.0052 10.079515)
(-3000.7549 1156.1358 13.765223)
(-2939.7584 1042.115 16.619414)
(-2929.5955 951.53707 19.652838)
(-2953.7661 877.31892 22.170238)
(-3022.1354 816.82078 24.1808)
(-3138.2939 770.31888 26.899926)
(-3295.6187 729.42103 28.838445)
(-3289.2865 630.86311 37.088116)
(-3239.7078 605.87257 43.22879)
(-3184.4617 580.75521 48.291652)
(-3132.1216 558.19436 52.419021)
(-3083.8314 537.33541 54.955108)
(-3040.4344 517.72879 54.995607)
(-3001.6367 498.57239 52.862648)
(-2967.2059 479.21054 48.373585)
(-2936.3262 459.01272 41.855211)
(-2907.9676 437.40892 33.647296)
(-2880.9695 413.89228 24.385538)
(-2854.0515 388.32869 14.444084)
(-2826.0082 360.47842 4.5759439)
(-2795.7843 330.53976 -4.7858497)
(-2762.3951 298.64017 -13.103141)
(-2725.1065 265.26967 -19.964962)
(-2683.5107 230.88414 -24.9233)
(-2637.512 196.08572 -27.909181)
(-2587.3193 161.53575 -28.807376)
(-2533.3986 127.8657 -27.725415)
(-2476.4973 95.690409 -24.859674)
(-2417.4979 65.512484 -20.515263)
(-2357.4833 37.763945 -15.097363)
(-2297.4583 12.666077 -9.0453854)
(-2238.6131 -9.6860128 -2.7388435)
(-2181.6994 -29.487061 3.0230769)
(-2128.76 -47.544515 8.3610715)
(-2077.6151 -59.423242 11.599921)
(-2031.0067 -74.391167 14.245837)
(-1988.3141 -86.194724 15.589716)
(-1948.8578 -97.742143 15.297207)
(-1912.5932 -109.21292 13.427359)
(-1878.5531 -121.10545 10.37363)
(-1845.896 -133.87168 6.3615974)
(-1813.572 -147.7681 1.8138898)
(-1780.5532 -162.93183 -2.8477554)
(-1745.8499 -179.33458 -7.1965123)
(-1708.6185 -196.76274 -10.820621)
(-1668.2199 -214.86325 -13.388788)
(-1624.2701 -233.13294 -14.651089)
(-1576.6721 -250.98044 -14.465194)
(-1525.6299 -267.74643 -12.805479)
(-1471.6284 -282.77746 -9.7564268)
(-1415.4074 -295.4536 -5.5001838)
(-1357.9029 -305.26131 -0.29915911)
(-1300.1907 -311.81669 5.529335)
(-1243.4068 -314.91341 11.641968)
(-1188.6785 -314.52203 17.679357)
(-1137.06 -310.83494 23.334059)
(-1089.4275 -304.16908 28.27321)
(-1046.5137 -295.10062 32.329188)
(-1008.7426 -284.19305 35.251613)
(-976.30073 -272.25457 37.04437)
(-949.08454 -259.98756 37.6719)
(-926.98578 -248.0332 37.047469)
(-908.96572 -237.5169 35.570357)
(-894.2652 -228.35288 33.405128)
(-885.59069 -222.9594 30.673284)
(-871.23286 -216.28959 27.298704)
(-862.52624 -215.49224 24.545759)
(-854.69523 -217.06354 22.096792)
(-839.9115 -218.62417 19.835815)
(-827.29939 -224.2723 18.462041)
(-811.116 -230.82136 18.080216)
(-794.12526 -238.84084 18.759238)
(-770.60035 -246.31559 19.875437)
(-748.37408 -254.45247 22.032649)
(-720.95776 -261.47023 24.512085)
(-693.68931 -267.68095 27.477073)
(-665.22562 -272.45889 30.589436)
(-636.44322 -275.71796 33.576712)
(-607.96083 -277.15138 36.49576)
(-580.37201 -277.35005 38.872258)
(-553.87532 -275.5259 40.660239)
(-528.53148 -272.62989 42.084862)
(-505.83177 -268.94839 42.996599)
(-483.12935 -264.18109 43.493049)
(-463.40941 -259.31407 43.744879)
(-442.7708 -253.78235 43.930343)
(-423.90233 -248.67692 44.279023)
(-405.12474 -243.29136 45.041962)
(-384.84467 -237.90258 46.259098)
(-363.13585 -231.95053 48.202952)
(-341.83885 -226.49405 50.754606)
(-317.67807 -219.88715 54.285297)
(-291.24745 -211.54333 58.145016)
(-265.15306 -203.51763 62.930756)
(-236.38132 -192.5377 67.615521)
(-207.02086 -180.26749 72.31953)
(-176.822 -164.41921 75.843082)
(-148.12664 -147.48978 78.508732)
(-119.68126 -127.22466 78.832423)
(-94.327053 -106.27882 75.535277)
(-66.927006 -79.114638 65.441563)
(-57.026176 -51.842889 44.56092)
(-6.8708141e-15 1.5083581e-15 1.9262289e-16)
(-1.2504183e-14 5.7375616e-16 8.4327435e-16)
(-8.3449101e-15 1.4891922e-15 5.3018253e-16)
(-4.9731758e-15 1.4991158e-15 6.2376313e-16)
(-3.4146159e-15 1.5624416e-15 3.1576894e-17)
(2.0582335e-15 9.3962624e-16 -5.746342e-16)
(2.2101935e-15 3.7457559e-17 -1.1841335e-16)
(2.4553765e-15 -8.5141669e-16 -9.3419562e-16)
(1.2987427e-15 1.0081898e-16 1.7950851e-15)
(-4.5074861e-15 9.063971e-16 1.0710522e-15)
(-5.2682467e-15 2.1856155e-15 1.0652666e-15)
(-7.4917339e-15 1.915055e-15 2.2418828e-16)
(-9.400838e-15 1.3708275e-15 6.2833768e-16)
(-6.2048683e-15 1.3247981e-15 5.4317906e-16)
(-6.971104e-15 1.5128103e-15 7.5678131e-16)
(-1.2693866e-14 6.2923345e-15 -2.1364834e-15)
(-5.2452578e-15 2.6791924e-15 -5.3037742e-16)
(-1.0752404e-15 9.8318743e-16 -1.0111087e-16)
(-2.7353382e-15 1.7746034e-15 7.3085398e-17)
(1.0178949e-15 -1.5450237e-16 -4.119182e-16)
(-1.4303492e-15 4.136346e-16 -3.3264033e-16)
(-1.0059749e-14 4.7133437e-15 -1.6449855e-15)
(2.9801421e-15 -1.9180379e-15 -8.3172098e-16)
(-4.79756e-15 2.8035442e-15 1.1420498e-15)
(-5.4778068e-15 3.5047253e-15 -3.934403e-16)
(-1.8117877e-15 1.1581936e-15 -9.1309836e-16)
(-3.9812639e-16 4.7407236e-16 -2.2932148e-16)
(-1.5272242e-15 1.100363e-15 -2.2557932e-16)
(-4.1024849e-15 1.9838802e-15 2.8069696e-17)
(-5.3424143e-16 2.551799e-16 -1.9455919e-16)
(-2865.2557 1951.6904 70.887499)
(-2869.4759 1952.8493 69.262653)
(-2873.3751 1953.0552 65.797623)
(-2876.9491 1952.451 61.342274)
(-2879.8222 1951.142 56.040401)
(-2881.9618 1949.1824 50.316139)
(-2883.2946 1946.6771 44.234926)
(-2883.8587 1943.7056 38.148963)
(-2883.7121 1940.4701 32.048439)
(-2883.0345 1937.2613 26.231938)
(-2881.9146 1934.249 20.744938)
(-2880.573 1931.8617 15.995866)
(-2879.3572 1930.1493 12.100823)
(-2878.6684 1929.1221 9.5405069)
(-2878.2713 1928.7248 8.7676606)
(-3399.084 653.54378 -21.475336)
(-3400.7364 658.29375 -19.406753)
(-3402.5396 662.35935 -15.330725)
(-3404.6991 665.89701 -10.12646)
(-3406.5999 668.36641 -4.4992265)
(-3408.4458 669.98833 1.3257663)
(-3409.8298 670.79563 7.0326293)
(-3410.5543 670.95163 12.463656)
(-3410.4825 670.61294 17.480472)
(-3409.5307 669.90952 21.940694)
(-3407.769 669.00289 25.862361)
(-3405.0594 668.08655 28.983107)
(-3401.8404 667.1593 31.374184)
(-3397.9655 666.88496 32.980267)
(-3393.1247 667.20743 32.818275)
(-21.637842 -29.09567 -46.536278)
(-42.730147 -51.154563 -50.871619)
(-63.781418 -70.891158 -58.41427)
(-88.195347 -89.107766 -59.287451)
(-113.82517 -105.3322 -57.935528)
(-141.64976 -120.43678 -54.487972)
(-170.11562 -133.93392 -49.969047)
(-199.5094 -146.2728 -44.748912)
(-228.31216 -157.10508 -39.656246)
(-256.72954 -166.84336 -34.83576)
(-283.94889 -175.36296 -30.513675)
(-309.96937 -182.93399 -27.239219)
(-334.52552 -189.46719 -24.609749)
(-357.86225 -195.26812 -23.010871)
(-380.05076 -200.34805 -22.057293)
(-401.47126 -204.69475 -21.802483)
(-422.48795 -208.37064 -21.81304)
(-443.71948 -211.43748 -21.965527)
(-465.43879 -213.79022 -21.895788)
(-488.25498 -215.38207 -21.390534)
(-512.42605 -216.10526 -20.199438)
(-538.23851 -216.01351 -18.147242)
(-565.74028 -214.93603 -15.141553)
(-594.92243 -212.96268 -11.239473)
(-625.4599 -210.05879 -6.5068614)
(-656.98705 -206.39909 -1.1921076)
(-688.80619 -202.15379 4.3943424)
(-720.34555 -197.49227 9.9062964)
(-750.87003 -192.8363 14.763916)
(-779.57275 -188.40285 18.668049)
(-805.80634 -184.617 21.075806)
(-829.13641 -181.83781 21.600777)
(-849.27745 -180.35171 19.96016)
(-866.09921 -180.52586 16.126246)
(-879.84297 -182.24155 9.7765898)
(-891.1538 -185.90891 1.4658415)
(-900.5816 -191.12292 -8.6617785)
(-909.31623 -197.71167 -20.358657)
(-918.42182 -205.54787 -32.612008)
(-929.05807 -213.77041 -45.164533)
(-942.68078 -222.11194 -57.015884)
(-960.21387 -229.87604 -67.679467)
(-982.73365 -236.27784 -76.271404)
(-1010.82 -240.8678 -82.491397)
(-1045.1051 -242.96819 -85.694502)
(-1085.4684 -242.20384 -85.765574)
(-1131.7486 -238.29158 -82.585752)
(-1183.2799 -231.14442 -76.307768)
(-1239.1706 -220.86378 -67.259727)
(-1298.2538 -207.75828 -55.947177)
(-1359.2064 -192.3062 -43.028499)
(-1420.6077 -175.14019 -29.261293)
(-1481.0542 -156.98308 -15.461287)
(-1539.241 -138.5966 -2.4365348)
(-1594.061 -120.70764 9.0687526)
(-1644.6845 -103.95463 18.439325)
(-1690.6144 -88.807459 25.219917)
(-1731.7295 -75.550784 29.172386)
(-1768.2854 -64.239659 30.281878)
(-1800.8948 -54.696725 28.741706)
(-1830.4678 -46.534564 24.963461)
(-1858.1595 -39.197249 19.502696)
(-1885.2203 -31.974318 13.080498)
(-1912.9717 -24.136558 6.3518238)
(-1942.6446 -14.867633 0.25797646)
(-1975.4697 -3.383698 -4.7539888)
(-2011.9218 10.571167 -8.0949377)
(-2052.8277 27.679684 -8.985952)
(-2098.0986 48.436746 -7.604762)
(-2147.6807 72.470271 -3.6356019)
(-2201.1167 99.79276 2.6860144)
(-2257.5472 130.13161 11.099294)
(-2315.9725 162.80941 21.136251)
(-2375.2955 197.1639 32.233036)
(-2434.2502 232.44391 43.734859)
(-2491.6671 267.78334 54.965764)
(-2546.3864 302.38782 65.231648)
(-2597.5229 335.48505 73.882383)
(-2644.3128 366.46231 80.440145)
(-2686.3646 394.77831 84.454319)
(-2723.563 420.20566 85.708289)
(-2756.1479 442.64369 84.050195)
(-2784.4998 462.06968 79.754238)
(-2809.768 478.86414 73.110237)
(-2832.7245 493.38912 64.28333)
(-2854.5465 506.65889 54.077525)
(-2876.3616 518.93627 42.825398)
(-2899.9062 531.26192 31.388432)
(-2925.7489 544.07456 20.325224)
(-2955.5832 558.27653 10.319623)
(-2989.6975 574.40169 1.6324788)
(-3028.356 592.57453 -5.1919654)
(-3072.596 613.68252 -10.316675)
(-3119.6299 636.60735 -14.118312)
(-3178.5498 664.0182 -16.408195)
(-11.65973 -22.682333 -37.360482)
(-29.240112 -35.256747 -42.33562)
(-51.169774 -52.298719 -47.811249)
(-73.458117 -67.19186 -48.77762)
(-98.301783 -81.575702 -47.645737)
(-124.59471 -94.99451 -44.935013)
(-152.3926 -107.62033 -41.23383)
(-180.55487 -119.20253 -37.061178)
(-209.04659 -129.85421 -32.902611)
(-237.2723 -139.58509 -28.590504)
(-264.69865 -148.43798 -25.130395)
(-291.25224 -156.37925 -21.919274)
(-316.62178 -163.53157 -19.623751)
(-340.99421 -169.89172 -17.881973)
(-364.21797 -175.45622 -16.892437)
(-386.78449 -180.27782 -16.414098)
(-408.89144 -184.36411 -16.304494)
(-431.02907 -187.61612 -16.397132)
(-453.58374 -190.05807 -16.395366)
(-477.10098 -191.65092 -16.128525)
(-501.85177 -192.30709 -15.331451)
(-528.27383 -192.03733 -13.869025)
(-556.48057 -190.80179 -11.599668)
(-586.50496 -188.66383 -8.4869523)
(-618.15797 -185.70475 -4.5790177)
(-651.12717 -182.04458 -0.022741849)
(-684.8467 -177.887 4.9108629)
(-718.70116 -173.52348 9.9309137)
(-751.81191 -169.21429 14.615548)
(-783.48546 -165.32436 18.537752)
(-812.86385 -162.22376 21.275477)
(-839.33173 -160.16872 22.362928)
(-862.3436 -159.47916 21.610981)
(-881.74664 -160.32744 18.624758)
(-897.65908 -162.85711 13.527941)
(-910.28257 -166.90505 6.1115723)
(-920.63163 -172.43313 -3.0197248)
(-929.46598 -179.06359 -13.69492)
(-938.11221 -186.30153 -25.349422)
(-947.86046 -193.64411 -37.355693)
(-960.13551 -200.45196 -48.911236)
(-976.33753 -206.11773 -59.555808)
(-997.46108 -209.86158 -68.266079)
(-1024.4785 -211.26368 -74.706316)
(-1057.8658 -209.69893 -78.458279)
(-1097.8106 -204.94755 -79.124853)
(-1144.0081 -196.87392 -76.699422)
(-1195.7878 -185.5547 -71.264631)
(-1252.1214 -171.30333 -63.167492)
(-1311.6927 -154.60967 -52.889984)
(-1372.9978 -136.13258 -41.090286)
(-1434.4425 -116.63831 -28.50455)
(-1494.4729 -96.923492 -15.924789)
(-1551.6745 -77.763602 -4.1179831)
(-1604.8922 -59.818783 6.2288593)
(-1653.3062 -43.586095 14.558331)
(-1696.494 -29.343391 20.495501)
(-1734.459 -17.138924 23.874887)
(-1767.6161 -6.7629106 24.730694)
(-1796.7454 2.19673 23.31599)
(-1822.9312 10.33996 20.04545)
(-1847.4336 18.383925 15.477059)
(-1871.6059 27.087111 10.276064)
(-1896.8438 37.256237 4.961668)
(-1924.1909 49.440584 0.5315833)
(-1954.6867 64.393166 -3.2045786)
(-1989.6606 82.256087 -4.6824943)
(-2032.1132 103.76132 -4.8258116)
(-2076.2935 128.50133 -2.3727845)
(-2123.7 156.0858 1.8039884)
(-2174.3657 186.40346 8.0739606)
(-2227.3696 218.65022 15.852131)
(-2281.729 252.22407 24.792392)
(-2336.292 286.34052 34.365176)
(-2389.8783 320.27183 43.996888)
(-2441.4319 353.1791 53.136486)
(-2489.974 384.51105 61.211249)
(-2534.7689 413.59201 67.801028)
(-2575.3038 440.15398 72.497175)
(-2611.3668 463.84372 75.040012)
(-2643.0063 484.72515 75.344607)
(-2670.5299 502.90638 73.319356)
(-2694.7092 518.50514 69.337714)
(-2706.7447 530.47767 62.772835)
(-2719.8458 541.7235 55.386812)
(-2738.7318 553.18209 46.765421)
(-2758.4409 564.51168 37.702637)
(-2780.1299 576.4814 28.531026)
(-2804.5897 589.29391 19.653384)
(-2832.9893 603.8262 11.581313)
(-2865.9283 620.35739 4.4644589)
(-2903.2881 638.64726 -1.4912953)
(-2946.4555 659.81935 -6.2067966)
(-2992.5741 682.43919 -10.378184)
(-3050.117 708.88967 -13.139533)
(-6.3744612 -17.185686 -30.269413)
(-21.301663 -26.527842 -33.521979)
(-39.933391 -38.907115 -39.003096)
(-61.580962 -51.123167 -39.427382)
(-85.489891 -62.985366 -38.312609)
(-111.56078 -74.847639 -35.912957)
(-138.53007 -85.876636 -32.876759)
(-166.76873 -96.388135 -29.413486)
(-195.24486 -106.09872 -25.621292)
(-223.71151 -115.26584 -22.323389)
(-251.73404 -123.48146 -19.024828)
(-279.0437 -131.1551 -16.437866)
(-305.43794 -137.96578 -14.199832)
(-330.83178 -144.1097 -12.747775)
(-355.34199 -149.43433 -11.693741)
(-379.12686 -154.07285 -11.217203)
(-402.41888 -157.79301 -11.030436)
(-425.65078 -160.75288 -11.083147)
(-449.25756 -162.76144 -11.076037)
(-473.63212 -163.87889 -10.897909)
(-499.19357 -163.95555 -10.310965)
(-526.34282 -163.11162 -9.1422316)
(-555.21142 -161.21512 -7.2826562)
(-585.9589 -158.46081 -4.6755089)
(-618.42953 -154.81263 -1.3293577)
(-652.36142 -150.56723 2.6467795)
(-687.19988 -145.86235 7.0582271)
(-722.33735 -140.99558 11.62266)
(-756.96454 -136.2934 15.987962)
(-790.18022 -132.09237 19.787219)
(-821.18746 -128.71549 22.550322)
(-849.17099 -126.48297 23.964581)
(-873.58563 -125.67239 23.621636)
(-894.05729 -126.37798 21.345716)
(-910.63442 -128.62772 16.96193)
(-923.52038 -132.46283 10.565072)
(-933.50227 -137.45377 2.3549442)
(-941.61042 -143.29791 -7.5157796)
(-949.00281 -149.49004 -18.333068)
(-957.21325 -155.43934 -29.623501)
(-967.71534 -160.47584 -40.733941)
(-981.90177 -163.90483 -51.024847)
(-1001.1241 -165.06671 -59.720987)
(-1026.344 -163.51569 -66.331527)
(-1058.0863 -158.80595 -70.478765)
(-1096.5726 -150.72806 -71.825437)
(-1141.4951 -139.31703 -70.284983)
(-1192.1231 -124.79242 -65.947295)
(-1247.3322 -107.60817 -59.109069)
(-1305.6989 -88.386435 -50.217035)
(-1365.5969 -67.890084 -39.87503)
(-1425.3393 -46.938739 -28.752198)
(-1483.2889 -26.344976 -17.578521)
(-1538.0052 -6.8379625 -7.0337652)
(-1588.3377 11.018835 2.2580561)
(-1633.5232 26.860003 9.8189286)
(-1673.2309 40.568025 15.329276)
(-1707.5784 52.271432 18.653621)
(-1737.1055 62.336604 19.841957)
(-1762.7136 71.30713 19.134216)
(-1785.5746 79.882455 16.88316)
(-1807.0157 88.809044 13.606417)
(-1828.4543 98.879292 9.7605883)
(-1851.1093 110.73043 6.0255414)
(-1876.222 125.03062 2.7938985)
(-1904.8066 142.1386 0.52363248)
(-1934.1754 162.17363 -0.30294802)
(-1981.3263 186.57233 0.59487656)
(-2021.9369 212.92026 2.7736308)
(-2066.5564 241.56165 6.7795992)
(-2113.9446 271.98516 12.180694)
(-2163.3975 303.74675 18.70465)
(-2213.6862 336.07733 26.011107)
(-2263.8603 368.27329 33.64589)
(-2312.7608 399.65587 41.204172)
(-2359.4872 429.60791 48.265475)
(-2403.1895 457.59675 54.414941)
(-2443.3172 483.22802 59.343205)
(-2479.4748 506.30186 62.769719)
(-2511.5971 526.73837 64.523972)
(-2539.8266 544.63896 64.562139)
(-2564.6476 560.24216 62.835736)
(-2586.6603 573.94334 59.585206)
(-2606.6555 586.30388 54.900954)
(-2611.1385 594.13524 48.921506)
(-2629.3224 604.55461 42.107539)
(-2649.7419 615.71859 35.051495)
(-2672.6109 627.67644 27.720636)
(-2698.3896 640.81603 20.630174)
(-2728.4769 655.68102 13.995797)
(-2763.0218 672.51723 7.9368863)
(-2802.2643 691.05733 2.5708644)
(-2847.5232 712.37771 -1.9310642)
(-2896.0845 735.05719 -6.3111053)
(-2954.2573 761.26558 -9.665211)
(-3.4248611 -13.711965 -23.428995)
(-15.699628 -19.674636 -26.296028)
(-32.95007 -29.045777 -30.021574)
(-53.520621 -38.321131 -29.996017)
(-77.265127 -48.23343 -28.824654)
(-102.8287 -57.890263 -26.820391)
(-130.35788 -67.403002 -24.043766)
(-158.91258 -76.348943 -20.817724)
(-187.95613 -84.901408 -17.907609)
(-217.22202 -92.667761 -14.754649)
(-246.10264 -99.94038 -12.149911)
(-274.44129 -106.47535 -9.768336)
(-301.84977 -112.32452 -7.9987021)
(-328.45106 -117.44196 -6.6448707)
(-354.04881 -121.81655 -5.7637233)
(-378.96579 -125.38024 -5.3420784)
(-403.31187 -128.08225 -5.1868768)
(-427.61377 -129.93769 -5.2016004)
(-452.08104 -130.78609 -5.2117341)
(-477.28844 -130.69532 -5.0676332)
(-503.58678 -129.55566 -4.5546175)
(-531.33502 -127.42049 -3.5601884)
(-560.75011 -124.25926 -1.9813992)
(-591.96532 -120.21953 0.28177917)
(-624.82194 -115.365 3.1692365)
(-659.05999 -109.94905 6.6364931)
(-694.1726 -104.13364 10.462295)
(-729.50776 -98.302688 14.480755)
(-764.19079 -92.709354 18.310329)
(-797.43833 -87.749046 21.646316)
(-828.27732 -83.707552 24.113835)
(-855.96652 -80.922531 25.354642)
(-879.86366 -79.535379 25.073516)
(-899.63775 -79.723296 23.032156)
(-915.23937 -81.424452 19.137008)
(-926.91435 -84.534943 13.3744)
(-935.59236 -88.649089 5.9126978)
(-942.13604 -93.338412 -2.9387126)
(-947.71279 -98.168496 -12.672554)
(-953.95259 -102.56436 -23.071049)
(-962.36187 -105.64608 -33.277458)
(-974.42994 -106.94456 -42.801537)
(-991.44199 -105.69097 -51.072498)
(-1014.3934 -101.55891 -57.538439)
(-1043.8355 -94.1807 -61.828034)
(-1079.9228 -83.461825 -63.668621)
(-1122.3372 -69.514645 -62.942492)
(-1170.3161 -52.678437 -59.722623)
(-1222.6962 -33.487398 -54.243226)
(-1278.0328 -12.634146 -46.885993)
(-1334.6935 9.0812517 -38.155699)
(-1391.001 30.834513 -28.636789)
(-1445.3569 51.836096 -18.946839)
(-1496.3778 71.422806 -9.6813575)
(-1542.9852 89.102927 -1.3790066)