/*--------------------------------*- C++ -*----------------------------------*\
  =========                 |
  \\      /  F ield         | OpenFOAM: The Open Source CFD Toolbox
   \\    /   O peration     | Website:  https://openfoam.org
    \\  /    A nd           | Version:  6
     \\/     M anipulation  |
\*---------------------------------------------------------------------------*/
FoamFile
{
    version     2.0;
    format      ascii;
    class       pointScalarField;
    location    "1.57";
    object      E;
}
// * * * * * * * * * * * * * * * * * * * * * * * * * * * * * * * * * * * * * //

dimensions      [1 -1 -2 0 0 0 0];

internalField   nonuniform List<scalar> 
625
(
29384.176
24231.766
8145.1878
6327.348
28702.48
25177.652
7510.2973
7388.5317
5976.3702
1582.5833
14391.085
9155.227
3744.8252
7172.1305
34542.544
27969.153
24053.22
22785.274
15885.819
15020.522
10600.824
7461.4087
6169.1237
2671.8708
1366.4705
-126.19882
-609.41137
-1601.5746
-1127.5168
-1109.8589
-381.43389
555.17516
2196.5342
2844.3554
5719.9268
4904.0311
7777.2488
39506.262
20642.894
33191.865
25280.088
19070.525
23355.288
12403.889
13977.274
11840.777
7908.1293
9170.4333
6844.3153
7073.2623
6421.1291
6862.9457
6849.7057
7448.1363
7877.0753
8911.9786
8682.6966
10735.607
9277.9787
10849.131
6898.2222
1933.4418
12982.743
52028.13
62672.936
28518.183
39984.402
39775.616
20648.393
24720.312
20235.819
15723.026
16800.397
10661.234
12731.241
9866.1239
9909.0907
10043.292
9026.9446
9729.2434
9213.2383
9212.1791
8800.3873
8299.8161
7656.9344
8315.2137
6552.8347
1082.1773
9595.5031
8967.7501
5267.9531
5506.9878
3792.0328
2606.7542
1165.2587
7.4195255
-1022.0841
-1615.664
-1892.9659
-2475.4642
-1080.8239
-610.78647
1773.0256
692.7009
3006.702
8598.1137
10691.415
14527.108
14460.615
26576.038
26911.511
40030.619
21056.133
21881.503
20946.907
19522.068
19142.471
18963.272
5461.0933
6936.1452
6012.6336
7126.4829
7962.6343
7284.3029
15350.179
9011.4605
10386.849
8361.4047
6077.9343
6345.6829
3848.5913
3126.1151
2176.0164
887.8899
1149.1348
39.960074
-107.97016
-372.39713
-221.79381
-111.89966
620.50159
1044.5896
2250.6284
3122.3035
4897.7144
4433.6155
10026.862
6061.6761
3772.9438
5423.9577
3435.3583
4471.1637
4292.3454
2332.149
3904.8771
2130.4394
2818.544
1964.0999
1864.377
1853.5968
1812.5706
1769.6571
1929.2997
1998.8601
2127.6398
2838.2701
2393.1054
3955.5184
3316.1053
10654.476
12881.295
9180.9889
8772.7636
5772.6933
5657.8873
903.38337
2198.7407
-608.35151
-1856.0746
-1667.124
-3645.0135
-3048.8394
-4065.1805
-3839.5969
-4140.2189
-3459.1751
-3171.8947
-1848.0807
-1186.9283
1621.2835
2502.7033
6082.6324
9834.1707
3190.5292
4053.4804
3547.605
878.74074
670.95107
2223.0738
7336.258
7845.6965
8017.8203
43769.772
46404.948
47823.681
47603.711
43341.689
46010.451
30744.16
25535.028
34986.591
31667.08
34183.822
30751.111
30589.663
23017.112
34127.472
23512.105
24983.364
25141.248
23140.807
18456.409
24128.443
18755.312
13172.182
21127.673
15524.654
14821.177
16558.042
16579.817
10337.212
17298.12
12156.05
10354.426
13131.617
13386.536
8706.2419
13135.377
10960.755
8534.7975
12371.045
11726.206
8239.141
11232.542
10954.005
8229.8906
11723.478
10899.311
8551.0887
11096.374
10952.848
8796.9314
10977.174
10618.051
8998.6861
10910.84
10562.308
9512.3652
10590.494
10023.82
9482.5479
9934.3155
9538.7222
9423.1842
9359.5839
8315.9484
8854.648
8477.0104
8595.1336
8722.7148
8374.9457
9343.8705
10056.227
9094.9899
2710.2212
3494.1937
1050.5227
8902.1955
9214.5842
7951.7248
35726.27
32660.182
30183.001
32675.775
28121.469
28849.157
31299.379
27323.127
28345.012
22820
19521.699
18196.153
21812.731
18479.293
18159.311
16616.965
11158.889
13561.11
12923.205
11090.499
10793.769
10592.164
6357.7244
7653.9287
7640.5292
5705.1409
5028.1133
5811.5457
1907.4721
5156.295
3461.4418
1814.5032
2286.7285
3368.1129
-260.12161
2250.9365
1512.6699
-321.9855
1437.8816
1879.4436
-926.374
1384.0973
1674.4539
-662.41212
1854.2034
1866.6599
-358.19912
2142.1993
2708.5148
459.79761
2919.9403
3176.3007
1314.5592
3692.2651
4519.302
2878.2872
4570.094
4747.3213
3758.8667
5069.3847
6736.2474
6058.262
6327.3382
5845.1475
4974.0535
5304.7689
8395.7638
8002.2785
8194.0115
21505.931
16697.024
12593.378
12077.799
9557.3485
5806.1848
6668.4
3036.2867
2402.348
1051.7153
592.16024
-166.52864
-913.3551
-1282.2958
-1266.2355
-1128.8651
-770.04891
77.995525
1015.3605
2487.6047
4801.9344
5536.197
11551.579
3037.959
10791.441
1147.5314
7808.7181
4243.8928
6486.6096
5237.0015
5452.0504
6154.002
5161.1188
5324.3735
5904.3975
4941.0693
5876.1296
5919.8898
6111.8149
6713.2041
7017.4294
7493.5139
7608.3575
8458.9274
5841.9212
13951.015
19599.803
7543.906
13642.487
4885.5096
9311.8584
5567.0413
1629.8252
4542.9806
-2292.8606
511.82055
-3132.7497
-3016.3882
-4183.3935
-4505.3496
-4650.0648
-4266.5795
-3554.3185
-2403.1468
-613.3636
1664.5359
4011.4714
7154.5028
9959.6703
18314.289
16610.919
15663.863
15367.047
15572.822
14187.068
13981.739
13163.225
12382.506
11023.035
10371.36
9018.9916
11047.48
9220.6529
9887.8281
8556.7241
7299.3877
5622.2129
7256.5884
5654.7587
6036.7667
6149.577
4969.6436
4108.3308
5066.8108
2285.6383
2659.2753
3985.1179
2791.9636
2799.9444
3654.9496
1600.4309
1119.0736
2199.3162
649.83695
1519.7796
2255.1025
606.51432
836.3147
1776.3327
138.75557
764.66035
1638.6794
-38.377772
639.59176
1727.3707
326.59081
966.70271
2014.0332
537.17729
1098.0904
2322.0343
1326.7553
1598.5098
3203.2612
2036.192
2343.151
2849.5848
3679.3952
2697.9747
3804.0549
6201.923
4181.3583
5538.1731
4580.5345
3639.5634
9902.5349
9969.74
9934.0189
4419.1484
4362.1219
3705.5662
7339.9216
10792.693
10744.79
4141.597
1806.4319
2680.8828
4953.3172
7353.1518
7663.4029
5775.6616
3651.6346
3572.109
4713.4535
4138.9619
5136.059
4233.814
3761.5389
3911.3984
5519.4591
3452.0243
3219.1651
3446.3126
2800.7059
3559.8552
4678.1092
3311.966
3139.4858
4180.4578
2241.3924
2908.5332
4114.5477
2583.7179
3208.2739
4376.6098
2827.0935
2912.8496
4097.9605
2477.7918
2772.9984
4474.9731
3037.2953
3226.7823
4378.1966
2955.0723
2994.832
4712.2725
3457.5917
3347.2213
4769.702
3522.5998
3417.4036
5332.6106
4374.8835
3941.5134
5654.8476
3941.4362
3774.6349
7999.1122
3004.6555
5854.8074
5128.7563
4262.5013
3467.7113
11264.106
11612.137
11738.562
16037.875
17156.685
18317.103
7724.5252
6877.917
10524.56
9333.5907
14934.35
15627.962
8152.3581
5538.7667
7850.4097
4728.2331
8028.1854
9745.5376
3890.7061
3823.0637
6486.6876
3919.4337
2673.8765
5159.8574
5.762386
1257.7832
5112.3691
1340.32
-331.8342
2907.0671
-370.47922
-1103.0343
2409.1983
-1290.9602
-2634.1088
1312.1029
-1155.6979
-2798.9208
460.03654
-1932.3435
-4127.6091
30.157311
-1637.0747
-3981.6046
-396.64916
-1569.7141
-4460.6413
-455.18533
-1078.9913
-3900.3522
-204.0768
-310.40828
-3492.0819
348.05989
611.6633
-2124.4684
1190.0496
1970.9329
-1188.5512
2105.6745
3366.7536
1656.6991
3985.561
4915.6933
2939.4211
4672.8794
7124.5807
7101.8096
8489.276
10056.875
8853.7005
9353.9429
)
;

boundaryField
{
    free
    {
        type            zeroGradient;
    }
    fixed
    {
        type            zeroGradient;
    }
    freeTop
    {
        type            zeroGradient;
    }
}


// ************************************************************************* //
