/*--------------------------------*- C++ -*----------------------------------*\
  =========                 |
  \\      /  F ield         | OpenFOAM: The Open Source CFD Toolbox
   \\    /   O peration     | Website:  https://openfoam.org
    \\  /    A nd           | Version:  6
     \\/     M anipulation  |
\*---------------------------------------------------------------------------*/
FoamFile
{
    version     2.0;
    format      ascii;
    class       pointScalarField;
    location    "4.70020500178721434";
    object      p;
}
// * * * * * * * * * * * * * * * * * * * * * * * * * * * * * * * * * * * * * //

dimensions      [1 -1 -2 0 0 0 0];

internalField   nonuniform List<scalar> 
625
(
1071390.6
-1595446.5
11008.866
15806.605
1989569
-3376985.9
12114.385
1003.9301
851760.37
-101734.23
-75617.677
-11256.308
4742.0689
8850.7652
479207.17
500378.01
522295.28
501805.17
457277.44
454380.98
410070.01
384902.55
368437.93
333886.55
309012.3
273429.23
248924.01
220413.85
192888.66
167752.98
144122.6
116769.38
96704.786
76227.548
55433.059
37063.592
25598.255
-554786.86
-435635.76
-494602.43
-404367.26
-383363.94
-381518.63
-320230.6
-314592.47
-286928.19
-255857.01
-239808.04
-206300.65
-189458.24
-162017.61
-143142.8
-120821.97
-99987.718
-84352.294
-64674.582
-52570.423
-38255.314
-19074.786
-7087.4485
1086243.4
-266047.74
-354926.83
-619176.42
-735523.89
-547939.26
-501805.93
-592639.4
-440366.22
-501896
-440512.51
-392148.07
-366391.77
-332595.78
-298194.29
-269031.47
-233451.19
-203000.31
-174956.99
-143018.8
-118111.53
-92589.78
-66368.663
-42767.035
-26794.122
-3875.6398
14774.675
604.59405
-1886.6388
24570.601
30529.435
49980.154
65340.098
88186.53
109485.94
133388.63
159123.52
181263.1
213612
243784.49
279813.07
294477.16
333051.79
356631.01
394751.4
423470.06
431582.88
528049.99
457590.86
601057.25
514071.87
555897.6
1161763.9
1141467.9
1057476.9
-1439225.1
-1997851.1
-2070473.4
20067.064
19703.727
21093.244
-2100.2485
4892.5126
-833.22912
277288.16
334639.36
322780.82
296239.19
283214.86
270385.79
249244.03
237488.86
218474.92
196954.35
178340.31
167015.04
150395.5
131877.58
118118.6
99398.283
86480.411
71517.89
52997.26
40651.713
27706.386
17472.413
15726.996
-85989.168
-55492.152
-67445.351
-20664.068
-41986.289
-17334.011
-24238.402
-17756.794
-11225.917
-8439.0444
-6750.094
-2072.359
-2834.5177
523.253
2755.5194
2252.8883
9316.1778
4624.4108
9090.6603
11330.293
9751.4925
9564.8799
7198.4081
-391839.29
-251603.31
-302765.94
-225297.87
-273172.04
-214642.65
-224533.11
-190976.27
-170914.08
-159916.26
-139873.35
-126893.32
-110967.7
-95121.194
-81590.707
-66911.025
-54280.226
-45692.099
-30333.068
-25467.752
-14890.653
-10275.456
1561.9607
666470.01
693309.73
791279.49
-33320.261
-68737.191
-186048.35
-309150.66
-137082.15
-102482.72
-920354.83
-933092.91
-920074.56
-649855.96
-671040.61
-730400.8
-555552.59
-555951.62
-608254.04
-468248.26
-466416.02
-501112.91
-448775.82
-460354.03
-498683.16
-406720.79
-405040.52
-424159.51
-388037.09
-392883.75
-393311.17
-355716.26
-349026.79
-377222.98
-325190.22
-328126.25
-347819
-295308.02
-295184.28
-316767.29
-263333.55
-268903.52
-289619.59
-244090.58
-239742.67
-255586.82
-210630.49
-215196.21
-230889.57
-189395.18
-186030.73
-204072.37
-160725.15
-161095.74
-175469.64
-137305.94
-136454.33
-149282.08
-113674.58
-112953.81
-122678.38
-87780.212
-90784.373
-97751.843
-69640.825
-70310.45
-76231.825
-50011.969
-51284.295
-54666.101
-30539.867
-31596.788
-33328.592
-17091.733
-18068.071
-20708.713
-6377.0468
-3234.5589
-4489.5234
-11514.023
-14526.437
-13706.774
8696.0251
4074.2247
5190.5493
13802.525
15990.17
15613.645
599152.28
567752.02
621378.15
619029.58
498712.62
568047.49
589294.4
528781.39
567587.88
536145.38
470427.26
511489.35
516680.66
468395.32
481825.92
477180.59
424080.36
445049.49
452368.46
403049.08
415051.35
417946.18
367361.14
386957.7
389937.37
343174.27
354546.89
347432.68
314650.21
325910.6
318494.43
291431.27
296790.05
295916.8
261490.42
253267.72
260094.03
231430.09
233316.41
233545.71
206051.96
210679.93
202828.73
180766.49
182142.66
175615.45
154847.57
155813.1
143361.7
130525.47
132650.18
119735.11
109988.85
108492.65
94377.419
87571.112
85938.975
71428.354
66583.187
66177.028
49643.551
48859.247
47409.242
34190.949
34653.84
31512.757
25328.787
28412.521
26649.073
243758.3
341301.03
265562.94
304362.49
275723.12
258750.57
254780.1
223751.02
211037.29
186476.09
169386.02
153991.78
144326.6
119471.55
108091.51
92839.18
77211.829
65435.671
52779.959
43515.006
30357.825
24216.36
15243.207
-94265.2
90.354269
-6630.9999
9402.4252
30621.015
21188.405
16742.166
24813.912
17157.905
19335.389
17284.139
21222.477
12750.837
14376.538
17287.583
13233.233
14086.832
14732.542
12743.018
11591.813
11378.663
10325.814
11214.063
-284117
-198696.25
-340986.15
-273659.41
-280205.58
-294564.51
-251907.27
-243396.95
-226242.93
-207103.19
-187729.29
-175221.87
-155091.39
-137163.47
-119223.18
-103226.37
-86719.254
-69822.512
-55121.723
-43113.814
-27876.299
-12673.498
-9580.8052
402169.36
445315.54
383179.24
320386.63
411565.24
348030.33
270480.25
290126.82
302148.89
251662.18
304837.52
259274.56
258171.51
249695.38
251695.78
238629.31
249387.38
242108.28
209534.36
225065.26
218658.58
213096.1
215587.51
204907.57
179665.11
197882.81
185901.77
177874.15
179998.03
177034.73
163710.52
174246.12
150857.99
144361.81
138999.54
144533.99
129930.2
133655.28
129666.65
116129.18
119521.85
112448.27
101867.89
102159.99
95705.912
88125.16
87798.688
86772.118
73964.086
76287.143
71723.427
66361.336
60943.522
60015.646
49479.277
48667.286
47894.38
40977.485
39810.856
37480.003
27624.673
28210.371
27473.954
21521.342
20054.307
17527.648
1276.4596
7474.4227
7655.6032
-89027.336
-137307.75
-82323.578
-8877.6747
-16947.293
-45391.056
-5281.9137
-33034.946
-40538.594
-15834.057
-9422.031
-51597.978
16852.371
-4157.3388
-18900.643
-9821.9371
2931.5623
-27606.775
19814.668
10766.67
-20167.454
6414.8305
10651.682
-20239.598
16797.173
10378.106
-13369.583
15473.41
21478.625
-13398.176
22270.18
9728.4189
-13578.393
18912.898
14200.983
-5035.4983
17756.136
20587.188
-3382.632
20454.57
17565.423
-3722.7858
16592.822
19417.001
-1686.0749
19233.407
18568.572
2599.8829
13857.682
19984.424
1344.4643
15522.814
16884.335
2248.9284
12583.147
14523.61
7111.7977
11106.404
15197.163
7142.2768
11147.948
11649.316
8365.3771
11342.603
12513.337
6898.1072
12177.782
11173.834
9577.2227
-328840.93
-426340.96
-360520.62
-287836.66
-240227.16
-298792.5
-251525.32
-368264.12
-321744.09
-320144.99
-269743.44
-341989.71
-249940.45
-301820.81
-294197.8
-237178.94
-264841.51
-293647.91
-224041.33
-251468.01
-277448.16
-196835.32
-243648.93
-250922.09
-189104.08
-210110.47
-233886.29
-170512.61
-201765.49
-217233.34
-150795.37
-179529.42
-194035.49
-135739.38
-160311.98
-173894.54
-115035.7
-147676.12
-155151.33
-103291.89
-126948.54
-137175.48
-86805.709
-111015.5
-119376.3
-75161.435
-93849.993
-101888.54
-61242.691
-78503.06
-85683.041
-47741.898
-63787.656
-69203.45
-37739.339
-49033.075
-51812.881
-27685.961
-35829.28
-38542.177
-21151.275
-25034.393
-28468.173
-4778.9023
-11403.222
-10939.235
-2470.4902
-7071.7561
-4666.7269
)
;

boundaryField
{
    free
    {
        type            calculated;
    }
    bottom
    {
        type            calculated;
    }
    traction
    {
        type            calculated;
    }
}


// ************************************************************************* //
