/*--------------------------------*- C++ -*----------------------------------*\
  =========                 |
  \\      /  F ield         | OpenFOAM: The Open Source CFD Toolbox
   \\    /   O peration     | Website:  https://openfoam.org
    \\  /    A nd           | Version:  6
     \\/     M anipulation  |
\*---------------------------------------------------------------------------*/
FoamFile
{
    version     2.0;
    format      ascii;
    class       pointVectorField;
    location    "1.34";
    object      u;
}
// * * * * * * * * * * * * * * * * * * * * * * * * * * * * * * * * * * * * * //

dimensions      [0 1 0 0 0 0 0];

internalField   nonuniform List<vector> 
3969
(
(0 0 0)
(0 0 0)
(1.2962196 0.0040557361 0.036022154)
(1.2515095 -0.29088199 0.03217505)
(0 0 0)
(0 0 0)
(1.2529561 -0.29873704 0.031967163)
(1.297665 -0.0039614762 0.035665717)
(0 0 0)
(0 0 0)
(0 0 0)
(0 0 0)
(0 0 0)
(0 0 0)
(0 0 0)
(1.2902892 -0.033521485 0.035114735)
(1.2844125 -0.070221306 0.034776534)
(1.2786973 -0.10672149 0.034337666)
(1.2731682 -0.14313086 0.034085914)
(1.2677584 -0.17960945 0.033728683)
(1.2623659 -0.21623187 0.03341443)
(1.2571241 -0.25318657 0.032879339)
(0.0041978169 0.0087339885 0.0092857057)
(0.0065394031 0.015108558 0.011383728)
(0.011226331 0.022321222 0.012799379)
(0.018157021 0.029177891 0.013264852)
(0.026676442 0.036264941 0.013586531)
(0.037379139 0.042841605 0.013656922)
(0.049446426 0.049301981 0.013847298)
(0.063557187 0.055248831 0.013902211)
(0.078961743 0.060914478 0.014137393)
(0.096098981 0.065937132 0.014227773)
(0.11453866 0.070731106 0.014542537)
(0.1344252 0.074867932 0.014767731)
(0.15554652 0.078644026 0.015060974)
(0.17789751 0.081894443 0.015421572)
(0.2014219 0.084693524 0.015750257)
(0.22591363 0.086985196 0.01616068)
(0.25146443 0.088882689 0.016581949)
(0.2778879 0.090277573 0.017031494)
(0.30519858 0.091283965 0.017515302)
(0.33327306 0.091847857 0.018000756)
(0.36209951 0.09202171 0.018536123)
(0.39159318 0.091821763 0.019059124)
(0.42172303 0.091253376 0.019619916)
(0.45243905 0.0903653 0.020177139)
(0.48369023 0.089116927 0.020751944)
(0.51545431 0.087634884 0.021335578)
(0.54768197 0.085839542 0.021930355)
(0.58035883 0.083791217 0.022524374)
(0.61346093 0.081516361 0.023131177)
(0.6469312 0.078996857 0.023747344)
(0.6807848 0.076286095 0.024369287)
(0.71498218 0.073364683 0.025004426)
(0.74950563 0.070265718 0.025646157)
(0.78433925 0.066979194 0.02630379)
(0.81948412 0.063536347 0.026964739)
(0.85488077 0.059892651 0.027653441)
(0.89057614 0.056164517 0.028324727)
(0.926483 0.052145999 0.029051481)
(0.96266354 0.048154627 0.029719518)
(0.99902099 0.043786078 0.030491362)
(1.035623 0.039488981 0.031150707)
(1.0723657 0.03487372 0.031929257)
(1.109308 0.030112164 0.03264235)
(1.1463735 0.025374991 0.033332255)
(1.1835534 0.020145639 0.034132238)
(1.2208615 0.015117384 0.034799314)
(1.2581272 0.0098522206 0.035648085)
(0.00017943038 -0.0075369707 -0.010268872)
(0.0037861924 -0.012647079 -0.010302525)
(0.0071781316 -0.018622375 -0.012604145)
(0.013377785 -0.024693723 -0.011798046)
(0.021453273 -0.031014032 -0.011823759)
(0.031005982 -0.0373916 -0.010913612)
(0.042450232 -0.043661695 -0.010287523)
(0.055207047 -0.050020192 -0.0093490236)
(0.069565289 -0.056189656 -0.0084786898)
(0.085442618 -0.062596102 -0.0074703755)
(0.10245485 -0.068617667 -0.0064965646)
(0.12103264 -0.074984305 -0.0054632663)
(0.14066314 -0.081036585 -0.0043642217)
(0.16157372 -0.087198415 -0.003277191)
(0.18356443 -0.093317671 -0.0021368194)
(0.20664811 -0.099384838 -0.0010005146)
(0.23076538 -0.10548355 0.00016762214)
(0.2557583 -0.1114669 0.0013210809)
(0.28172242 -0.11753172 0.0025025595)
(0.30846492 -0.12349464 0.0036474012)
(0.33597993 -0.12948944 0.0048156802)
(0.36426276 -0.13544341 0.0059314706)
(0.39316301 -0.14139112 0.0070650066)
(0.42275531 -0.14735945 0.0081505876)
(0.45286081 -0.15324758 0.0092046172)
(0.48358494 -0.15919753 0.010253013)
(0.51473086 -0.16506178 0.011264467)
(0.54644782 -0.17101959 0.012260432)
(0.57859187 -0.17691703 0.01321428)
(0.61116079 -0.18283247 0.014170138)
(0.64415337 -0.18876968 0.015103736)
(0.677514 -0.19470921 0.016031373)
(0.71125811 -0.20066503 0.016955064)
(0.74534043 -0.20664049 0.017873615)
(0.77976779 -0.21262459 0.018803417)
(0.81450368 -0.21863615 0.019726992)
(0.84956088 -0.22465726 0.020674458)
(0.88489004 -0.23068182 0.021627148)
(0.92051645 -0.23675247 0.022604037)
(0.95639525 -0.24278644 0.023584076)
(0.99252911 -0.24886722 0.024597885)
(1.028895 -0.25491548 0.025614187)
(1.065476 -0.26095214 0.026653828)
(1.1022687 -0.26698503 0.027713552)
(1.1392097 -0.27296267 0.028782678)
(1.1763751 -0.2788967 0.029840438)
(1.2136275 -0.28488654 0.030958059)
(0 0 0)
(0 0 0)
(0 0 0)
(0 0 0)
(0 0 0)
(0 0 0)
(0 0 0)
(0.0033673681 -0.0052786234 0.0081229865)
(0.0052172041 -0.016472784 0.011269926)
(0.0082392666 -0.018337671 0.011704413)
(0.015072385 -0.02785194 0.012312187)
(0.022773005 -0.033339663 0.012583363)
(0.032585979 -0.040448274 0.012096073)
(0.044003551 -0.047379861 0.012423938)
(0.056745747 -0.053653728 0.011911875)
(0.071232343 -0.06089636 0.012316887)
(0.086811817 -0.066801491 0.011874571)
(0.10398678 -0.074178912 0.012526594)
(0.12245733 -0.079927233 0.012202023)
(0.14208999 -0.08670989 0.012586714)
(0.16310732 -0.093050476 0.012671314)
(0.18498031 -0.099184511 0.012898877)
(0.20816747 -0.10574426 0.013196467)
(0.23217697 -0.11170039 0.013445236)
(0.25724416 -0.11808543 0.013799826)
(0.28313878 -0.12409623 0.014142928)
(0.30990024 -0.13027139 0.014531704)
(0.33742196 -0.13627695 0.014945742)
(0.36567907 -0.14233865 0.015394425)
(0.39461988 -0.14830154 0.015851892)
(0.42418024 -0.15426808 0.016344388)
(0.45436564 -0.16024182 0.016831566)
(0.48512602 -0.16615436 0.017312922)
(0.51630404 -0.17216264 0.017907789)
(0.54802617 -0.17805835 0.018438821)
(0.58019301 -0.18401776 0.019025642)
(0.61280276 -0.18996967 0.019608731)
(0.64581 -0.19593304 0.020203577)
(0.67920338 -0.20192134 0.020820915)
(0.71295729 -0.2079358 0.021452248)
(0.74705932 -0.21396052 0.022097704)
(0.7814824 -0.22001726 0.022759648)
(0.8162288 -0.22610109 0.023444361)
(0.8512651 -0.23217201 0.024126553)
(0.88658299 -0.23830477 0.024848168)
(0.92217604 -0.24441425 0.025559708)
(0.95803693 -0.25054158 0.026297121)
(0.99412824 -0.25665844 0.027028583)
(1.0304774 -0.26277057 0.027772171)
(1.0670168 -0.26884481 0.02851139)
(1.1037869 -0.27490373 0.029250713)
(1.1407124 -0.28089629 0.029977924)
(1.1778534 -0.28685056 0.03071637)
(1.2150456 -0.29285444 0.031396934)
(1.2586749 -0.2611075 0.032226327)
(1.2638384 -0.22419536 0.03265814)
(1.2692288 -0.18755846 0.033245668)
(1.2746468 -0.15116832 0.033802675)
(1.2801005 -0.11470781 0.034501326)
(1.2857958 -0.078252483 0.03500271)
(1.2917794 -0.041585665 0.035540001)
(1.2597304 0.0018343576 0.034285077)
(1.2222018 0.0070490474 0.033224918)
(1.1849302 0.012271633 0.032093953)
(1.1477316 0.017358548 0.031024093)
(1.1106533 0.022286907 0.029925671)
(1.0737228 0.027077981 0.028845396)
(1.0369678 0.03170643 0.027791104)
(1.0003923 0.036191126 0.026745554)
(0.96402991 0.040514374 0.025719746)
(0.92788666 0.04469697 0.024707555)
(0.89197004 0.048703443 0.023713292)
(0.85635304 0.052526139 0.022741433)
(0.82093894 0.05623698 0.021756871)
(0.78583175 0.059733083 0.020788808)
(0.75101266 0.063071249 0.019813806)
(0.71650345 0.066205608 0.018843283)
(0.68231394 0.069158981 0.017860233)
(0.6484679 0.071893519 0.016864223)
(0.6149774 0.074424908 0.015852531)
(0.5818749 0.076709852 0.014823909)
(0.54917149 0.078779903 0.013758497)
(0.5169039 0.080564262 0.012683007)
(0.48509752 0.08211436 0.011562908)
(0.45378002 0.083341707 0.010426877)
(0.42300984 0.084303002 0.0092478456)
(0.39280559 0.084908757 0.0080605106)
(0.36322954 0.085217973 0.0068226613)
(0.33432702 0.085126119 0.005601576)
(0.30615892 0.084704165 0.0043320611)
(0.27877352 0.083855802 0.0030819832)
(0.25224143 0.082625767 0.0018131931)
(0.2266287 0.080985156 0.00054724481)
(0.20198086 0.078912435 -0.00067324149)
(0.1785064 0.076249657 -0.0018568157)
(0.15611643 0.073298627 -0.0031310266)
(0.13483345 0.069868964 -0.0041810221)
(0.11495216 0.066015605 -0.0053936869)
(0.09635326 0.061599207 -0.0063942357)
(0.079162795 0.056958936 -0.0075315568)
(0.063671084 0.051481447 -0.0084204287)
(0.049664389 0.046155059 -0.0093681019)
(0.037126023 0.039987619 -0.010148764)
(0.026708952 0.033817308 -0.010909861)
(0.017786257 0.02718057 -0.011219326)
(0.011213267 0.020825511 -0.011198195)
(0.0062732773 0.013501114 -0.010334145)
(0.0065024542 0.0080269464 -0.0066332054)
(0 0 0)
(0 0 0)
(0 0 0)
(0 0 0)
(0 0 0)
(0 0 0)
(0 0 0)
(0 0 0)
(0 0 0)
(0 0 0)
(0 0 0)
(0 0 0)
(0 0 0)
(0 0 0)
(1.2517235 -0.29207943 0.032085335)
(1.2519526 -0.29315179 0.032064487)
(1.2521436 -0.29414767 0.032050417)
(1.2523379 -0.29516362 0.032067107)
(1.2525178 -0.29615028 0.032078323)
(1.2526844 -0.29708793 0.032091788)
(1.2528522 -0.29807368 0.03201474)
(1.2966518 0.0033095095 0.035992746)
(1.29686 0.0023074962 0.035992281)
(1.2970594 0.0013378807 0.035897567)
(1.2972618 0.00035165377 0.035829469)
(1.2974424 -0.00064364824 0.035755377)
(1.2975885 -0.001690848 0.035690157)
(1.2978025 -0.0026649703 0.035683699)
(0.0013190434 0.0065673039 0.0085507465)
(0.0039060873 0.011482117 0.0085546146)
(0.0082855573 0.017108663 0.0099104376)
(0.014980981 0.022437096 0.010294819)
(0.023417967 0.027577828 0.010540475)
(0.034055395 0.032716067 0.010776661)
(0.046078873 0.037358015 0.010909867)
(0.060068236 0.041950328 0.011201178)
(0.075490846 0.045913169 0.01131945)
(0.092539004 0.049678011 0.011691698)
(0.11089608 0.052995371 0.011976916)
(0.13069598 0.055841874 0.012291375)
(0.15173212 0.058433851 0.012701966)
(0.17400292 0.060481194 0.013086966)
(0.19738349 0.062175017 0.0135508)
(0.22182935 0.063444279 0.014019395)
(0.24726633 0.064351041 0.014532088)
(0.27360956 0.0648173 0.015072189)
(0.30081652 0.064958258 0.015621724)
(0.32882067 0.064709855 0.016201386)
(0.35755662 0.064126979 0.016796665)
(0.38696987 0.063216389 0.017401269)
(0.41703075 0.061996847 0.018025113)
(0.4476417 0.060473254 0.018654722)
(0.47884423 0.058698916 0.019298684)
(0.51053175 0.05663522 0.019924867)
(0.54269038 0.054347412 0.020572923)
(0.57530258 0.05184076 0.021224677)
(0.6083266 0.04910192 0.021878307)
(0.64173282 0.046179161 0.022538716)
(0.6755219 0.043073461 0.023204957)
(0.70965152 0.039777558 0.023877463)
(0.74410969 0.036326762 0.024559715)
(0.77889264 0.032709866 0.025249653)
(0.81396855 0.028934518 0.02594972)
(0.84931347 0.025016034 0.026662426)
(0.88496417 0.020953887 0.027372571)
(0.92081652 0.016719566 0.028122238)
(0.95695938 0.01239518 0.028844902)
(0.99328988 0.0078529632 0.029615368)
(1.0298433 0.0032845226 0.030340923)
(1.0665751 -0.0016024087 0.031148922)
(1.1035142 -0.0064183078 0.031836278)
(1.1405501 -0.011532042 0.032651032)
(1.177774 -0.016792042 0.033379058)
(1.2150179 -0.021988956 0.034090398)
(1.2524117 -0.027750011 0.034772882)
(-0.0011146285 0.0044676666 0.0060246498)
(0.001406128 0.0072328568 0.0057837351)
(0.0060512558 0.011969485 0.0070070607)
(0.012599078 0.015317033 0.007144783)
(0.021249766 0.01916974 0.0075642902)
(0.031455669 0.022608458 0.0076854254)
(0.043531728 0.025907627 0.0081181101)
(0.057415547 0.028839258 0.0081853021)
(0.072682962 0.031450654 0.0087341655)
(0.08955861 0.03380515 0.0090108145)
(0.10788003 0.035726901 0.0094155772)
(0.12751144 0.037367224 0.0098867647)
(0.14845959 0.038657388 0.010363528)
(0.17061486 0.039501831 0.010898979)
(0.19390589 0.040091277 0.011459798)
(0.21822673 0.040299733 0.012015977)
(0.24355042 0.040216568 0.0126098)
(0.26976803 0.039758039 0.013229637)
(0.29687746 0.039029366 0.013855588)
(0.32477284 0.037946373 0.014513394)
(0.35340951 0.036590843 0.015173666)
(0.38275262 0.034954577 0.015836599)
(0.41267648 0.033035408 0.016523269)
(0.44325205 0.030910281 0.017197958)
(0.47433701 0.028498371 0.017874622)
(0.5059225 0.025910825 0.018583847)
(0.53800035 0.023096605 0.019278761)
(0.57052268 0.020075791 0.019965338)
(0.60344147 0.016905398 0.020675096)
(0.63678119 0.013539503 0.021372203)
(0.67048231 0.010027762 0.022072441)
(0.70453137 0.0063488816 0.022791513)
(0.73892719 0.0025392013 0.023498916)
(0.77363402 -0.0014223644 0.024228132)
(0.80864033 -0.0055113602 0.024960394)
(0.84393971 -0.0097383966 0.025704823)
(0.87952279 -0.014073722 0.026454145)
(0.91531071 -0.018595856 0.027240955)
(0.95144659 -0.02312122 0.02796983)
(0.98767676 -0.027936847 0.028804146)
(1.0242697 -0.032702812 0.029544414)
(1.0609349 -0.037742121 0.030373804)
(1.0978859 -0.042765242 0.031133929)
(1.1348905 -0.048048217 0.031974288)
(1.1721186 -0.05337398 0.032721748)
(1.209408 -0.058886342 0.033475346)
(1.2469375 -0.064599838 0.034156417)
(-0.0031402549 0.0026249977 0.003862692)
(-0.00034893848 0.0044879508 0.0036808274)
(0.0038315181 0.0069231329 0.0042307684)
(0.010718587 0.0091480118 0.0043565785)
(0.018961226 0.011164204 0.0045951621)
(0.02955728 0.013249327 0.0048823515)
(0.04162775 0.014683324 0.0049752945)
(0.055402836 0.016259605 0.0055204268)
(0.07064018 0.017270728 0.0058603966)
(0.087593907 0.018197388 0.006229095)
(0.10564887 0.018796775 0.0068205731)
(0.12523577 0.019086931 0.0073154867)
(0.14598572 0.019153579 0.0078887023)
(0.16797686 0.018860233 0.0085181652)
(0.19106992 0.018378867 0.0091711181)
(0.21526049 0.017538757 0.0097904456)
(0.24042348 0.016451862 0.010506274)
(0.26652716 0.015076555 0.011174455)
(0.29350177 0.013424122 0.011917904)
(0.32123835 0.011530579 0.012642631)
(0.34974094 0.0093924206 0.013396638)
(0.37887879 0.0070075545 0.014158122)
(0.40873215 0.0044415811 0.014919146)
(0.43912886 0.0016122046 0.015669653)
(0.47008561 -0.0013704094 0.016458434)
(0.5015632 -0.0045516773 0.017198309)
(0.53354924 -0.0079046895 0.017936369)
(0.56594727 -0.011415717 0.018699562)
(0.59879993 -0.015071724 0.019434307)
(0.63203945 -0.018883578 0.020172111)
(0.66564363 -0.022814455 0.020926103)
(0.69962125 -0.026883699 0.021666345)
(0.73392568 -0.031069594 0.022418326)
(0.76855546 -0.035372881 0.023178285)
(0.80349279 -0.039802703 0.023943636)
(0.83872945 -0.04431442 0.024710397)
(0.87422102 -0.048990409 0.02550705)
(0.91002292 -0.053693491 0.02627995)
(0.94604365 -0.058573247 0.027088913)
(0.9822941 -0.063551266 0.027930217)
(1.0188101 -0.068530395 0.028690644)
(1.0554511 -0.073809817 0.029610007)
(1.0923807 -0.078963989 0.030348595)
(1.1293921 -0.084430806 0.031264601)
(1.1666845 -0.089890213 0.032004702)
(1.2039986 -0.095450562 0.032842474)
(1.2414681 -0.10116399 0.033628964)
(-0.0035439671 0.00075158403 0.00099112941)
(-0.00079008965 0.0010087963 0.00029746309)
(0.0032567034 0.0020187572 0.00072506288)
(0.0097641991 0.0025584079 0.00092029671)
(0.018311044 0.0029157418 0.001333217)
(0.028534337 0.0034305896 0.0015101659)
(0.040447196 0.0032953087 0.0022289822)
(0.053967434 0.0034190705 0.0025521447)
(0.069149424 0.0029580053 0.0031164157)
(0.085666473 0.0025788638 0.0038066821)
(0.10367173 0.0016924404 0.0043804951)
(0.12309909 0.00078986568 0.0049808841)
(0.14368271 -0.00042515937 0.00565139)
(0.16557497 -0.001936976 0.0063681251)
(0.18851421 -0.003509116 0.0070243093)
(0.21260071 -0.0054827752 0.007812467)
(0.2375889 -0.0075010474 0.0085374578)
(0.26356907 -0.0098830304 0.0093450976)
(0.2903428 -0.012389096 0.010145312)
(0.31797266 -0.015130571 0.010943362)
(0.34632474 -0.018087957 0.011768335)
(0.37544011 -0.021173723 0.012558517)
(0.40511274 -0.024489481 0.013368657)
(0.43540115 -0.027930979 0.014193535)
(0.46624116 -0.03153183 0.014978673)
(0.49761683 -0.035275544 0.015765833)
(0.52944564 -0.039144383 0.016583473)
(0.56173936 -0.043159765 0.017377112)
(0.59446239 -0.047272484 0.018153593)
(0.62757653 -0.051520702 0.018962009)
(0.66108345 -0.055855851 0.019734291)
(0.6949493 -0.060310867 0.020527684)
(0.72915543 -0.064857341 0.021314009)
(0.76369615 -0.069501446 0.022110736)
(0.79854705 -0.074232247 0.022904586)
(0.83368717 -0.079076003 0.023724987)
(0.86913334 -0.083969089 0.024533331)
(0.9048181 -0.088986651 0.025370118)
(0.94077371 -0.094097444 0.026231081)
(0.9769562 -0.099229742 0.027049592)
(1.0134181 -0.10452106 0.027935558)
(1.0500267 -0.10986658 0.028804891)
(1.0869367 -0.11521649 0.029642625)
(1.1239328 -0.12079016 0.030585609)
(1.1611744 -0.12625168 0.031411359)
(1.198464 -0.13190291 0.032367563)
(1.2359725 -0.13756742 0.03319937)
(-0.0039691756 -0.0010884022 -0.0015943154)
(-0.001049893 -0.0017291169 -0.0021516446)
(0.0024592547 -0.0025334783 -0.0019722296)
(0.0093496866 -0.0036149666 -0.0019314949)
(0.017443267 -0.0048272322 -0.0016771641)
(0.027823049 -0.0060008474 -0.0012072706)
(0.039505105 -0.0076701681 -0.00074679448)
(0.053227079 -0.0090623424 -0.00035494214)
(0.06806539 -0.011053619 0.0003866808)
(0.084688651 -0.01287729 0.00092233784)
(0.1025217 -0.015122793 0.0015331821)
(0.12174152 -0.017211209 0.0022971901)
(0.1421673 -0.019841244 0.0030841061)
(0.16383902 -0.022307009 0.0038484655)
(0.18660417 -0.025177028 0.0047110207)
(0.21043295 -0.028100258 0.0055705667)
(0.23527671 -0.031228893 0.006428774)
(0.26102537 -0.034517427 0.007317454)
(0.28766989 -0.037924742 0.0081991443)
(0.31509659 -0.041528545 0.0090948835)
(0.3433017 -0.045216149 0.010000527)
(0.37214101 -0.049086269 0.010901734)
(0.40166039 -0.053047601 0.011819668)
(0.43177065 -0.057168462 0.012697625)
(0.46248162 -0.061384537 0.013572363)
(0.49367658 -0.065695847 0.014455857)
(0.52538963 -0.070129072 0.015317498)
(0.5575584 -0.074643239 0.016147703)
(0.59015806 -0.079246032 0.016992944)
(0.62316312 -0.083931871 0.017811865)
(0.65655672 -0.088693646 0.018632375)
(0.6903179 -0.093540148 0.019454041)
(0.72442537 -0.098461865 0.020275292)
(0.75887178 -0.10343936 0.021091606)
(0.79362379 -0.10852452 0.021933036)
(0.82869976 -0.11363629 0.022759145)
(0.86403507 -0.11884454 0.023608735)
(0.89968359 -0.12413457 0.024480501)
(0.93555132 -0.12943958 0.025313281)
(0.97174121 -0.13484017 0.026218587)
(1.0080983 -0.14030369 0.027102612)
(1.044714 -0.14578979 0.028012758)
(1.081531 -0.1513629 0.028918796)
(1.1185091 -0.15699229 0.029883945)
(1.1557286 -0.16258856 0.030767704)
(1.1930788 -0.16830711 0.031755899)
(1.2305548 -0.1739694 0.032694773)
(-0.0033468779 -0.0029341732 -0.0046457543)
(-2.7718675e-05 -0.0053124584 -0.0050607685)
(0.003514319 -0.0077346733 -0.0056904589)
(0.01013957 -0.010581777 -0.0054774675)
(0.018266429 -0.013280545 -0.0051544275)
(0.028303739 -0.016255575 -0.0046012929)
(0.04003647 -0.019368884 -0.0040860009)
(0.05331791 -0.022391165 -0.0033521999)
(0.068145031 -0.025811557 -0.0026289804)
(0.084425548 -0.028985659 -0.0018918474)
(0.10209432 -0.032570229 -0.0010381356)
(0.12105451 -0.03607359 -0.00020548849)
(0.14129538 -0.039798397 0.00062010945)
(0.16273374 -0.04359247 0.0015556731)
(0.18525232 -0.047493759 0.0024464169)
(0.20888973 -0.051503897 0.0034190465)
(0.23347545 -0.055614512 0.0043406438)
(0.25904254 -0.059808219 0.0053382328)
(0.28544491 -0.0641386 0.0063039967)
(0.31267987 -0.06851206 0.0072915701)
(0.34064868 -0.073046416 0.0082741352)
(0.36938135 -0.077548629 0.0092468597)
(0.39868302 -0.082221078 0.010211704)
(0.42865139 -0.087025937 0.011157007)
(0.4591628 -0.091808286 0.012107412)
(0.4901958 -0.096718845 0.013010156)
(0.52175949 -0.10163246 0.01390483)
(0.55376821 -0.10663087 0.014808534)
(0.58621884 -0.11166625 0.015678664)
(0.61908975 -0.11677846 0.016552585)
(0.65234971 -0.12193915 0.017413033)
(0.68598283 -0.12715228 0.018275994)
(0.71997561 -0.13241839 0.019129375)
(0.75430256 -0.1377505 0.019994526)
(0.78896019 -0.1431121 0.020854971)
(0.8239147 -0.14854511 0.021728933)
(0.85918249 -0.15402287 0.022615391)
(0.89470724 -0.15952275 0.023496881)
(0.93053044 -0.16512769 0.024422501)
(0.96658176 -0.17072332 0.025327844)
(1.0028784 -0.17637032 0.02627392)
(1.039432 -0.18202655 0.027201349)
(1.0761463 -0.18777976 0.028192973)
(1.1131206 -0.19345458 0.029140959)
(1.150232 -0.19918698 0.030144901)
(1.1875401 -0.20491096 0.031196498)
(1.2249914 -0.21052991 0.032256646)
(-0.0019876732 -0.0055849488 -0.0068132522)
(0.0011808713 -0.0086024893 -0.0077259789)
(0.0045697608 -0.012941049 -0.0086694046)
(0.011288648 -0.017134072 -0.0085062272)
(0.01898159 -0.021510662 -0.00823779)
(0.029182335 -0.026168148 -0.0075995749)
(0.040511634 -0.030795947 -0.0070313208)
(0.05375537 -0.035444533 -0.0061932989)
(0.068316516 -0.040339085 -0.005474214)
(0.084366382 -0.044878265 -0.0045821691)
(0.101901 -0.050045986 -0.0036400446)
(0.12052962 -0.054605599 -0.0028597366)
(0.14065367 -0.059790252 -0.0017452816)
(0.16173949 -0.064627305 -0.0008374751)
(0.18412449 -0.069721916 0.00023614643)
(0.20745774 -0.074746014 0.0012482707)
(0.23186685 -0.079861401 0.0023202541)
(0.25717667 -0.085016818 0.0033878657)
(0.28336399 -0.090192872 0.0044467231)
(0.31038782 -0.09542929 0.0055231059)
(0.33816276 -0.10067784 0.0065708825)
(0.36662673 -0.10598726 0.0076358829)
(0.39580653 -0.11130608 0.0086590199)
(0.42556701 -0.11670059 0.0096881764)
(0.4558962 -0.12207961 0.010665549)
(0.48677281 -0.12750606 0.011639481)
(0.51816323 -0.13295647 0.01262252)
(0.5500166 -0.13843041 0.013555374)
(0.58232975 -0.14393758 0.014477101)
(0.61505576 -0.14947905 0.015390602)
(0.64817853 -0.15503986 0.016286245)
(0.68168983 -0.16063705 0.01718021)
(0.71555178 -0.16626957 0.018071312)
(0.74976992 -0.17192021 0.01895906)
(0.78430438 -0.17761797 0.019857043)
(0.81916726 -0.18333681 0.0207574)
(0.85431625 -0.18908186 0.021661595)
(0.88977639 -0.1948771 0.022600048)
(0.92548574 -0.20067404 0.023518638)
(0.96146846 -0.20651741 0.024479319)
(0.99769194 -0.21235072 0.025437583)
(1.0341615 -0.21823143 0.026431506)
(1.0708191 -0.22410054 0.027430802)
(1.1077197 -0.22993597 0.028425316)
(1.1447322 -0.23582246 0.02949864)
(1.1819903 -0.2415996 0.030519742)
(1.2193443 -0.24730615 0.031645281)
(0 0 0)
(0 0 0)
(0 0 0)
(0 0 0)
(0 0 0)
(0 0 0)
(0 0 0)
(0 0 0)
(0 0 0)
(0 0 0)
(0 0 0)
(0 0 0)
(0 0 0)
(0 0 0)
(0 0 0)
(0 0 0)
(0 0 0)
(0 0 0)
(0 0 0)
(0 0 0)
(0 0 0)
(0 0 0)
(0 0 0)
(0 0 0)
(0 0 0)
(0 0 0)
(0 0 0)
(0 0 0)
(0 0 0)
(0 0 0)
(0 0 0)
(0 0 0)
(0 0 0)
(0 0 0)
(0 0 0)
(0 0 0)
(0 0 0)
(0 0 0)
(0 0 0)
(0 0 0)
(0 0 0)
(0 0 0)
(0 0 0)
(0 0 0)
(0 0 0)
(0 0 0)
(0 0 0)
(0 0 0)
(0 0 0)
(0.0033095833 -0.0023212754 -0.0053973658)
(0.0042396011 -0.0030601451 -0.0038157109)
(0.0052092178 -0.0032491332 -0.0020427515)
(0.0056086971 -0.0034571824 -0.0006161629)
(0.0055219756 -0.0032321346 0.00086156774)
(0.0052757329 -0.0034354743 0.0024622706)
(0.0043498413 -0.002298413 0.0042323122)
(0.0068762344 -0.012442393 -0.0085026409)
(0.0086904035 -0.013955385 -0.0048480265)
(0.0095204675 -0.013187125 -0.0023297956)
(0.0097995405 -0.012855886 -0.00018132953)
(0.0099455569 -0.013726558 0.0019381456)
(0.0090238676 -0.013647331 0.0045032661)
(0.0080393966 -0.01366659 0.0078399149)
(0.0099271851 -0.017353588 -0.0091002025)
(0.012258808 -0.016698886 -0.0065768713)
(0.013818997 -0.017673917 -0.0029343766)
(0.014097206 -0.017769196 -0.00046333216)
(0.014069907 -0.017481045 0.0027817671)
(0.013026154 -0.017794342 0.005078377)
(0.011565426 -0.01883395 0.0092210371)
(0.016871366 -0.025428031 -0.008856463)
(0.018758698 -0.02612426 -0.0061425662)
(0.020032698 -0.026049634 -0.0028156912)
(0.020582157 -0.026208119 -0.00019895281)
(0.020435781 -0.026443637 0.0028615236)
(0.019449478 -0.027159379 0.0061430152)
(0.017575416 -0.02670396 0.0090948197)
(0.024188278 -0.031573661 -0.0088569562)
(0.026476349 -0.031774206 -0.0061768916)
(0.0281197 -0.032308423 -0.0028681992)
(0.028534526 -0.032420984 0.00019112518)
(0.028482858 -0.03288054 0.0032654406)
(0.027462189 -0.033076974 0.0061539028)
(0.025809296 -0.033610697 0.009719337)
(0.034144007 -0.038584012 -0.0080667403)
(0.035996489 -0.038864058 -0.0055176689)
(0.0373734 -0.03907108 -0.0023202632)
(0.037878355 -0.039643045 0.00021154894)
(0.037727846 -0.039687243 0.00352943)
(0.036665613 -0.040118986 0.0064441717)
(0.034962203 -0.040231462 0.0093551476)
(0.045125514 -0.04458596 -0.0075759743)
(0.047113098 -0.045099744 -0.0048429932)
(0.048549746 -0.045944086 -0.002028209)
(0.049108133 -0.046236035 0.00077548327)
(0.049011131 -0.046833297 0.0038025895)
(0.048155883 -0.047429569 0.0065021081)
(0.046542708 -0.047580067 0.0096998675)
(0.057944364 -0.0513005 -0.0067018404)
(0.059861315 -0.052027641 -0.0043901874)
(0.061160716 -0.052374015 -0.0013875686)
(0.061625422 -0.05292187 0.0011830956)
(0.061430035 -0.053137223 0.0039176876)
(0.060585982 -0.053418758 0.0067566513)
(0.05891196 -0.053584672 0.0093885969)
(0.07225184 -0.057560848 -0.0060243392)
(0.073994036 -0.058089302 -0.0033945348)
(0.075253055 -0.05895601 -0.00085333487)
(0.075756484 -0.05953898 0.0016060343)
(0.075702666 -0.060299126 0.0043509261)
(0.07490887 -0.060657112 0.0069473358)
(0.073453627 -0.061088702 0.009809607)
(0.087788161 -0.063772825 -0.0050687165)
(0.089580655 -0.064731322 -0.0028563975)
(0.090771872 -0.065269907 -0.00035776796)
(0.091379169 -0.066111286 0.0022630939)
(0.091128998 -0.066331248 0.0047324836)
(0.090377246 -0.066700945 0.0072001298)
(0.088925812 -0.066922724 0.0096857328)
(0.10496952 -0.070182686 -0.0041898341)
(0.10655623 -0.070929688 -0.0019376789)
(0.10773927 -0.071785057 0.0006111957)
(0.10808929 -0.072224548 0.0027209752)
(0.10806303 -0.072988744 0.0051950297)
(0.10732931 -0.073500066 0.0074795508)
(0.1059445 -0.073972104 0.010156081)
(0.12319552 -0.076168712 -0.0033547182)
(0.12485667 -0.07718404 -0.001039598)
(0.12585309 -0.077990307 0.00096495846)
(0.12646568 -0.078924498 0.0033290329)
(0.12632116 -0.079463623 0.0056781054)
(0.12550721 -0.07973805 0.00779379)
(0.12443036 -0.080245607 0.010181772)
(0.14292191 -0.082635219 -0.0022340917)
(0.14427348 -0.083432463 -0.00018976188)
(0.14536921 -0.084374224 0.0019176562)
(0.14577498 -0.084916459 0.0040371185)
(0.14566376 -0.085498266 0.0061893312)
(0.14500716 -0.086248619 0.0082021388)
(0.14384283 -0.086492097 0.01050144)
(0.16357808 -0.088552266 -0.001362158)
(0.1649934 -0.089582111 0.00065557841)
(0.1660764 -0.090541963 0.0025391257)
(0.16646412 -0.091321434 0.0045880041)
(0.16645985 -0.092199875 0.0066872575)
(0.16577767 -0.092567862 0.0085431027)
(0.16479933 -0.093059849 0.010787789)
(0.18552099 -0.094887594 -0.00029229375)
(0.1868633 -0.095833088 0.0016348262)
(0.18778471 -0.09667957 0.0033994692)
(0.18820273 -0.097476097 0.0054147703)
(0.18813983 -0.098049287 0.0072271716)
(0.18754773 -0.098640489 0.0091069128)
(0.18656984 -0.09909478 0.011104694)
(0.20851093 -0.10086603 0.00072673233)
(0.20973567 -0.1018204 0.0025119713)
(0.21070886 -0.10287934 0.0042070239)
(0.21109228 -0.10367359 0.0059721958)
(0.2110737 -0.10448586 0.0078565593)
(0.21051674 -0.10510083 0.0094999037)
(0.20962376 -0.1055437 0.011482441)
(0.23244756 -0.1069559 0.0017804222)
(0.23367018 -0.1080032 0.0035191925)
(0.23454558 -0.10893673 0.0050166111)
(0.23489785 -0.10970244 0.0068401216)
(0.23490774 -0.11048938 0.008454811)
(0.23438249 -0.11101198 0.01007638)
(0.23356021 -0.11159138 0.011888341)
(0.25742689 -0.11299316 0.0028710961)
(0.25854751 -0.11401411 0.0044005012)
(0.25940762 -0.11499677 0.0059322955)
(0.25975998 -0.11589367 0.0075075706)
(0.25976382 -0.11665586 0.0090854093)
(0.25928884 -0.11733873 0.010603537)
(0.2585049 -0.11782134 0.012306444)
(0.28323192 -0.11899924 0.0039013188)
(0.28429495 -0.12000333 0.0054269858)
(0.28512804 -0.12103377 0.0067837671)
(0.28541658 -0.1218151 0.0083149216)
(0.28548008 -0.12266172 0.009779089)
(0.28501047 -0.12324217 0.011195262)
(0.28432425 -0.12388191 0.012763133)
(0.3098946 -0.12496219 0.0050092625)
(0.31093073 -0.12603204 0.0063736092)
(0.31168544 -0.12700069 0.0076688233)
(0.31201005 -0.12792807 0.0090918128)
(0.3120489 -0.12870083 0.010435763)
(0.31163889 -0.12943008 0.011776684)
(0.31098946 -0.12997237 0.013238808)
(0.33735387 -0.13094439 0.0060492974)
(0.3382903 -0.13193767 0.0073451839)
(0.3390469 -0.13299261 0.0085621701)
(0.33932419 -0.13381315 0.0098754067)
(0.33940289 -0.13467945 0.011145223)
(0.33901138 -0.13532096 0.012395146)
(0.33842956 -0.13596251 0.013743335)
(0.36551153 -0.13684932 0.0071087169)
(0.3664367 -0.13792524 0.0083176738)
(0.36712925 -0.13890205 0.0094415296)
(0.36742153 -0.1398311 0.010674)
(0.36748997 -0.14062297 0.011852535)
(0.36713903 -0.14136495 0.013014105)
(0.36660649 -0.1419757 0.014273936)
(0.39437834 -0.14280764 0.0081501606)
(0.39522981 -0.14380181 0.0092765849)
(0.39590514 -0.14484194 0.01031845)
(0.39617937 -0.14569866 0.011464854)
(0.39626573 -0.14657213 0.012559918)
(0.39595211 -0.14728161 0.013642469)
(0.39547367 -0.14792617 0.014812611)
(0.4238624 -0.14866853 0.0091802778)
(0.42469267 -0.14974426 0.010215527)
(0.42532259 -0.15071345 0.011177262)
(0.42560273 -0.15165912 0.012263515)
(0.42568897 -0.15246931 0.013272001)
(0.42541192 -0.15320361 0.014288492)
(0.42496396 -0.15385154 0.015378549)
(0.45393533 -0.15459181 0.010155678)
(0.45474757 -0.15561779 0.011149797)
(0.45532509 -0.15660126 0.012031219)
(0.45561906 -0.15752247 0.013063083)
(0.45570202 -0.15834736 0.013974149)
(0.45545383 -0.15913585 0.014941331)
(0.45506719 -0.1598102 0.01592638)
(0.48455464 -0.16047047 0.011140913)
(0.48536316 -0.16149196 0.012043595)
(0.48587941 -0.16248688 0.012877373)
(0.48621086 -0.16341705 0.01385539)
(0.48624932 -0.16423611 0.014673805)
(0.48609281 -0.16502447 0.015565277)
(0.48573322 -0.16568643 0.016463692)
(0.51572408 -0.1663749 0.012097724)
(0.51646661 -0.16736958 0.012894056)
(0.51700554 -0.1683927 0.013771731)
(0.51730567 -0.1692816 0.014545143)
(0.51742099 -0.17013269 0.015433772)
(0.51723952 -0.17093567 0.016240497)
(0.51689899 -0.1716192 0.017121646)
(0.54738952 -0.17224623 0.013026634)
(0.5480731 -0.17324765 0.013794184)
(0.5486208 -0.17426353 0.014590369)
(0.54889388 -0.17516127 0.015308416)
(0.54901371 -0.17602966 0.016172783)
(0.54886043 -0.17678871 0.016872945)
(0.54856667 -0.17754663 0.017725676)
(0.57948483 -0.17812394 0.013929433)
(0.58017376 -0.17915332 0.014680017)
(0.58066399 -0.18015676 0.015372195)
(0.58096532 -0.18105058 0.016117291)
(0.58106697 -0.18192553 0.016865466)
(0.58095516 -0.18272395 0.017551321)
(0.5806842 -0.18346402 0.01834945)
(0.6120424 -0.18403668 0.014857254)
(0.61266744 -0.18503903 0.01551833)
(0.61317602 -0.18604788 0.016217724)