/*--------------------------------*- C++ -*----------------------------------*\
  =========                 |
  \\      /  F ield         | OpenFOAM: The Open Source CFD Toolbox
   \\    /   O peration     | Website:  https://openfoam.org
    \\  /    A nd           | Version:  6
     \\/     M anipulation  |
\*---------------------------------------------------------------------------*/
FoamFile
{
    version     2.0;
    format      ascii;
    class       pointScalarField;
    location    "1.55";
    object      p;
}
// * * * * * * * * * * * * * * * * * * * * * * * * * * * * * * * * * * * * * //

dimensions      [1 -1 -2 0 0 0 0];

internalField   nonuniform List<scalar> 
28033
(
-56840.566
112638.33
6227.1373
1557.9979
-73347.344
160499.16
2434.8479
-215.42104
-17824.18
-7452.8128
4807.0175
5872.8049
8162.5809
8198.0935
5515.7961
2790.8712
3471.7678
-1524.0002
1056.6143
3341.6189
-1787.6923
17887.382
7056.949
-15182.328
-8954.1761
-9659.1001
-6182.2638
-5549.767
-3343.9966
-1307.3917
948.03522
2945.1244
5165.981
7587.3681
8817.4341
10575.107
11714.925
10372.275
-9145.1082
-3550.3737
3370.0197
8036.7909
9897.0389
15445.622
18992.976
23310.348
27187.961
32058.363
34897.746
39236.675
43159.407
47202.869
50076.108
53574.556
57509.318
60303.649
63208.077
66119.459
68617.093
70725.54
73623.449
75120.092
76813.909
78488.187
79946.828
80755.332
81914.246
82510.491
83244.158
83491.261
84135.751
84367.484
84659.165
84502.642
85044.29
85526.971
85040.155
85787.378
85677.44
85746.309
85990.074
86466.531
86603.455
87197.144
87464.993
88040.488
88359.548
88937.193
89222.771
89703.469
89955.142
90239.71
90387.037
90442.691
90402.351
90222.268
89896.072
89480.952
88896.053
88152.969
87260.97
86396.457
85216.734
84032.619
83051.313
81346.727
79322.845
77694.165
75679.021
73819.935
71511.278
69474.188
66776.186
64710.469
61642.82
59507.184
56166.276
53887.066
50490.218
47985.597
44543.318
41492.374
38255.662
35041.276
32089.039
29152.734
25146.813
22683.612
20228.62
15152.14
15908.878
13985.502
11129.7
18497.534
6464.9859
2251.8059
-4042.7853
-7184.4895
-9449.1905
-15029.94
-16924.979
-21775.377
-24167.429
-29048.33
-31361.974
-35792.852
-38860.687
-42725.64
-45453.186
-49161
-51812.413
-55102.695
-57751.839
-60439.068
-63118.307
-65061.365
-67874.798
-69075.619
-71196.3
-72450.514
-73741.346
-74945.895
-75704.261
-76324.848
-77131.563
-77156.181
-77798.401
-77914.938
-78314.622
-77881.038
-78227.898
-77906.235
-77988.723
-77890.925
-77775.547
-77743.044
-77670.054
-77629.566
-77628.313
-77622.417
-77628.191
-77664.72
-77686.486
-77707.031
-77717.906
-77700.362
-77679.795
-77583.175
-77482.068
-77304.299
-77080.15
-76780.704
-76421.344
-75964.68
-75437.865
-74814.7
-74066.909
-73234.693
-72231.178
-71245.337
-70047.339
-69000.845
-67159.201
-65804.131
-63955.625
-62255.416
-60199.048
-58192.746
-55994.464
-53654.612
-51336.34
-48806.115
-46290.378
-43664.108
-41012.664
-38215.114
-35575.496
-32684.03
-29928.831
-27102.851
-24391.947
-21394.041
-18911.752
-16299.654
-13467.351
-11360.399
-10265.153
-7570.0081
-25574.219
-6279.1117
16792.931
21341.703
24314.584
20956.448
21799.631
13553.488
13536.273
7436.5174
10438.176
11774.518
20323.28
37979.433
45427.011
36173.704
13522.359
-1578.6168
-1529.9349
-7713.769
-12374.871
-15775.46
-19916.371
-25089.113
-28676.614
-34019.263
-33912.301
-41952.437
-41080.669
-50243.339
-51419.238
-55670.4
-57079.137
-61115.189
-62944.965
-66049.662
-66347.381
-71411.895
-73289.333
-73567.782
-77132.277
-75301.982
-79989.939
-77655.72
-81311.411
-80393.126
-81955.114
-81401.308
-82588.903
-82675.582
-80891.123
-82474.232
-82618.423
-82474.275
-82736.022
-82698.982
-82961.569
-83112.538
-83403.707
-83631.254
-84093.859
-84336.947
-84818.544
-85140.517
-85594.507
-85929.337
-86321.052
-86581.867
-86857.526
-86994.32
-87037.095
-87022.051
-86822.559
-86528.59
-86101.894
-85510
-84799.607
-83922.35
-82910.198
-81740.739
-80440.109
-79089.189
-77910.559
-74535.909
-73913.565
-72082.819
-69972.815
-67822.296
-65619.362
-63248.514
-60865.398
-58335.569
-55850.314
-53181.318
-50498.667
-47665.416
-44883.736
-41851.346
-38985.839
-35876.001
-32884.459
-29673.448
-26710.198
-23470.368
-20521.528
-17569.186
-14708.212
-12909.715
-10686.365
-9670.8069
13308.752
13544.921
10217.828
10889.289
6616.4476
6782.977
2822.2865
1132.911
-1669.272
-4269.3253
-4155.502
-8344.4823
-7555.9179
-13107.363
-10843.662
20484.356
15725.643
15683.871
18228.288
20047.023
23068.643
25813.398
28887.083
31710.249
34940.348
37869.242
40706.22
43841.214
46825.127
49812.428
52617.705
55504.365
58140.709
60785.537
63305.981
65668.455
67992.446
70120.816
72084.857
73926.763
75510.494
75938.027
79828.123
79757.985
81219.694
82225.581
83218.468
83969.876
84693.963
85265.572
85737.011
86146.573
86407.745
86653.064
86774.217
86866.749
86860.599
86873.242
86761.36
86712.143
86554.119
86476.809
86310.732
86222.592
86089.631
86020.172
85915.733
85812.157
85980.579
85838.629
85788.785
85594.94
84953.812
86542.393
85271.493
84678.299
86655.952
84530.988
84770.441
82889.049
84556.886
80603.655
82439.016
79485.439
78892.207
76828.58
73849.301
73886.883
70130.46
67435.61
65601.867
62003.698
59298.78
55953.092
53418.781
50333.56
44110.009
41696.127
37860.515
35894.286
31284.441
27060.45
22320.159
18993.626
15972.479
11117.516
7466.032
2744.8949
-2451.2795
-12728.868
-64844.236
-72317.91
-75029.852
-77038.483
-77734.45
-77730.323
-77594.31
-77392.083
-77672.721
-76969.002
-76663.727
-75197.356
-75159.4
-67215.156
-68746.203
125547.71
169431.94
161521.62
172709.04
161120.73
155115.48
173318.07
180687.1
172134.14
171317.23
169689.15
167887.4
163855.79
161616.57
135151
1073.6761
1108.6746
1779.6154
2130.2109
3182.3017
3732.5498
3937.4877
4042.5583
4064.3764
3798.0278
3522.2504
2705.8472
2265.9609
1837.0884
1800.7981
-1279.0585
1648.5755
991.25443
421.55183
-372.71426
-417.58944
-887.36758
-763.67412
-555.20463
-367.23619
557.26898
1111.109
1327.9278
4802.6483
-746.42142
-4608.567
1406.2999
4445.1511
6967.1559
11662.058
15775.253
18679.058
22684.034
25911.771
29242.846
32839.138
36755.865
39607.292
42968.1
46041.249
49850.819
51929.144
55075.763
57632.92
60144.08
62353.58
64937.116
66391.264
68111.171
69759.377
71292.838
72254.996
73413.757
74312.051
75029.124
75556.858
76051.164
76628.406
76772.708
76944.363
77276.912
77464.064
77202.658
77690.314
77911.466
78279.281
78457.974
78722.283
78968.407
79225.77
79680.304
79904.292
80419.295
80704.877
81142.952
81439.221
81800.159
82016.888
82234.71
82329.688
82356.273
82270.785
82057.306
81747.17
81303.324
80711.181
79959.658
79163.833
78213.647
76881.182
75779.809
74081.492
72667.777
71156.239
69496.737
67660.817
65856.329
63764.863
61900.762
59593.469
57582.134
55115.965
53032.791
50298.435
48225.26
45443.348
42938.726
40376.717
37850.755
35003.353
32227.323
29547.108
26350.594
23744.406
21460.579
17646.647
15577.723
13497.301
7406.8816
2235.549
-480.18979
2942.6532
4109.3755
6726.6423
9801.1134
12554.012
15123.883
18364.566
21190.002
24862.349
27141.35
30448.311
33125.374
36409.069
38732.276
41394.854
43711.661
46477.053
48345.015
50487.495
52528.674
53855.328
55658.684
57147.632
58627.959
59401.291
60757.814
61561.32
62320.077
62916.838
63579.045
63916.223
64314.516
64556.432
64974.44
65036.603
65239.85
65455.17
65644.97
65812.841
65974.162
66408.233
66316.445
66721.369
66965.884
67382.659
67654.22
68139.804
68414.442
68863.404
69146.851
69514.273
69727.111
69966.638
70083.05
70138.008
70085.308
69952.484
69689.036
69336.452
68838.665
68251.376
67615.101
66787.053
65873.647
65605.925
64846.501
63890.323
63006.484
61489.498
59997.139
58638.875
56672.85
55191.554
52839.969
51520.977
48799.562
47501.079
44597.443
43230.005
40347.365
38353.291
36063.026
32878.349
30181.41
27719.527
24723.986
22592.697
20000.455
17026.667
14441.565
12073.105
8020.1947
4143.7724
-2761.5453
862.59181
4175.4316
5186.2946
7030.3146
9616.6754
11897.02
13732.835
16721.709
19192.841
21245.272
23717.335
26478.014
28624.788
30742.834
33029.09
35301.73
37217.049
39128.277
40888.949
42769.379
44297.221
45743.553
47345.969
48408.228
49432.909
50481.73
51393.55
51898.719
52731.614
53097.654
53630.79
53918.345
54328.142
54554.633
54800.703
54987.506
55348.871
55466.699
55773.107
55905.978
55972.203
56169.486
56592.547
56858.058
57204.171
57491.385
57800.35
58136.254
58438.38
58762.962
59032.373
59314.622
59492.268
59689.003
59765.118
59789.797
59735.159
59592.608
59331.41
59002.2
58545.004
57988.635
57363.391
56475.826
55802.694
55099.428
54509.655
53556.04
52688.982
51801.551
50575.287
49168.778
47620.007
46136.059
44625.768
42962.326
41426.39
39578.944
38013.081
36074.138
34224.782
32542.746
30151.748
28280.074
26155.943
23928.401
21424.774
19628.705
17113.187
14935.245
12796.193
9285.6741
7014.2845
1444.4718
-1375.3219
2215.8994
4542.4533
4256.4335
5740.9795
7720.2619
8981.8487
10664.538
13371.522
14518.414
16977.972
18833.381
21065.852
22368.079
24889.191
26220.039
28330.432
29487.965
31559.521
32653.748
34218.298
35141.305
36465.395
37405.098
38166.16
39252.585
39831.598
40552.529
41166.37
41706.562
41998.687
42585.261
42678.902
43082.837
43126.788
43609.472
43395.771
43817.58
43562.115
43731.601
43744.108
44250.633
44433.718
44575.882
44726.214
44995.216
45299.591
45571.991
45929.337
46230.784
46566.502
46835.835
47144.766
47336.121
47568.555
47657.497
47755.041
47728.357
47662.301
47469.089
47243.058
46893.612
46464.166
45953.677
45401.584
44753.571
44009.597
43492.208
42345.696
41246.605
40473.104
39504.936
38289.76
37341.927
36122.697
34877.571
33618.741
32298.548
31066.548
29603.992
28283.321
26819.43
25437.234
23715.877
22103.963
20381.031
19280.786
17401.502
15661.152
13767.966
11988.886
9483.3768
7477.2092
4447.7609
1289.0545
-2977.3342
1597.5936
3845.6144
4612.9742
5507.611
6705.9447
7891.7376
9426.4904
10813.333
12154.342
13698.384
15220.652
16447.223
18057.948
19283.007
20670.603
21922.806
22865.851
24274.196
25018.854
26115.851
27058.615
27983.61
28573.865
29486.324
30030.012
30498.223
31123.641
31347.57
31795.161
32056.695
32379.087
32473.257
32795.371
32956.641
33102.224
33192.697
34013.214
34417.998
34569.985
35859.337
35565.841
35849.813
36263.886
36547.736
36906.82
37198.961
37461.952
37778.731
38082.391
38340.037
38616.054
38876.779
39061.031
39252.157
39357.213
39428.099
39425.489
39354.56
39211.39
38991.612
38715.574
38263.034
37936.93
37323.217
36657.747
36222.995
35341.76
34695.744
33803.83
32955.168
32084.22
30819.024
29159.238
27976.043
26711.472
25702.403
24783.343
23743.449
22740.857
21816.103
20547.728
19732.23
18305.165
17517.223
15958.834
15185.591
13367.677
12362.432
10588.507
9022.9184
7376.3771
5591.8763
3722.3823
658.54313
-2171.1272
859.52081
3098.9774
2795.6008
3645.8762
4527.1943
5879.5723
5819.3385
7748.0774
8193.2442
9556.7131
10243.612
11669.533
12021.516
13558.136
13925.988
15087.913
15595.919
16931.28
16845.112
18181.395
18252.643
18946.693
19286.67
19832.122
20011.192
20509.625
20714.986
20965.406
21304.323
21316.76
21613.138
21597.614
21936.196
21771.947
22084.095
22133.439
22596.534
22701.398
23880.191
24052.383
24842.122
24907
25108.369
25366.272
25626.701
25867.81
26130.152
26412.443
26675.564
26942.053
27199.896
27440.813
27631.928
27815.49
27948.97
28017.91
28058.484
28027.796
27933.553
27779.525
27559.339
27302.211
26933.752
26534.087
26181.893
25550.425
25176.94
24591.08
23995.47
23386.067
22689.87
21752.03
21003.178
19791.061
18652.94
18084.094
17360.577
16733.287
16003.493
15515.113
14431.614
14232.308
12838.861
12655.58
11190.776
10966.905
9384.9615
9064.5911
7564.5801
7044.8916
5779.9962
4421.0609
2908.5651
673.66345
-674.10034
627.65688
2309.3137
2245.1819
2628.0396
3590.0005
3452.9042
4079.0741
5164.8511
5212.3212
5718.9309
6642.1493
6684.556
7522.0258
7900.109
8187.9151
8809.2286
9008.5888
9328.7002
9500.9811
10156.14
9923.1962
10616.304
10477.247
10873.93
10880.766
11114.46
11073.91
11282.984
11261.02
11309.568
11456.74
11453.997
11503.436
11530.813
11696.478
11624.105
11802.743
11947.546
11998.533
11854.682
12123.611
12307.27
12435.902
12737.078
12969.118
13253.48
13445.769
13751.09
13955.32
14222.211
14435.427
14661.559
14819.769
15019.555
15113.015
15217.036
15254.372
15274.603
15198.629
15135.236
14988.806
14785.267
14585.343
14334.796
13979.386
13733.467
13344.414
12961.725
12618.847
12244.382
11853.611
11473.614
10961.431
10943.027
10678.481
10414.444
9981.9311
9660.6004
9330.6284
8951.7759
8558.231
8322.0614
7597.2449
7656.0935
6635.8879
6802.4792
5700.3645
5817.265
4726.0172
4399.4945
3249.1436
2522.5669
2045.7821
1049.8598
484.40261
-914.70727
1353.7218
106.17631
1615.2684
870.47513
1845.4685
1362.6555
2085.9045
1494.0174
2156.7045
1808.5968
2246.0479
1839.5196
2098.5499
1870.7374
2195.4012
1556.5416
2258.8135
1567.1869
1912.412
1426.0789
1775.5028
1140.2711
1544.454
1042.8394
1219.47
1027.1034
1038.6331
896.9669
854.51038
882.112
630.59397
824.94505
670.45896
806.08957
628.34017
1013.5674
723.09063
1148.2471
982.75432
1268.4334
1403.6172
1507.951
1602.2183
1837.389
1963.1459
2150.9977
2384.7451
2583.3466
2790.4848
2996.6865
3203.8934
3371.7488
3551.7709
3684.5535
3803.9628
3893.1944
3959.4573
3963.9876
3993.3842
3919.8198
3885.013
3796.2793
3671.5537
3594.726
3434.6432
3325.5838
3206.3815
3076.6078
2972.9839
2805.2699
2680.4716
2471.098
2480.3365
2456.4445
2498.6082
2392.2428
2475.3042
2403.5584
2475.6819
2483.3371
2378.254
2511.8252
2349.6552
2275.6748
2382.0438
1874.8374
2371.987
1494.5202
2226.4534
1803.5555
2376.1781
2244.732
1653.3259
2056.11
-1212.513
308.13712
-468.00714
-417.32762
-468.28318
-418.36013
-1347.8751
-879.76923
-1635.0727
-2126.4493
-2037.8225
-2852.4492
-3242.394
-3440.062
-3927.4912
-4607.6814
-4861.1141
-5209.4779
-6185.7207
-5936.7033
-6820.2435
-6861.1844
-7591.5246
-7550.9049
-8364.5062
-8171.557
-8880.7716
-8842.2347
-9260.3131
-9271.2208
-9604.3034
-9629.5473
-9722.2317
-9877.5316
-9871.0432
-9881.0632
-9924.2933
-9882.6778
-9765.3928
-9709.7516
-9599.9721
-9463.816
-9364.1546
-9129.6419
-8939.1504
-8749.2125
-8569.9561
-8314.0477
-8137.5758
-7926.9953
-7719.4645
-7502.8069
-7351.3266
-7148.539
-7007.0081
-6866.5286
-6755.2189
-6642.5795
-6593.2789
-6517.9544
-6486.4684
-6469.6597
-6466.1894
-6441.9494
-6492.3803
-6458.3928
-6448.3887
-6430.2095
-6354.6983
-6273.1722
-6158.267
-5953.4342
-5811.9698
-5570.5953
-5427.1164
-5274.7977
-4889.3334
-4621.4625
-4267.043
-3963.0989
-3599.4174
-3320.0927
-2923.754
-2616.4998
-2410.4509
-1707.7884
-1945.9797
-705.11852
-1282.6277
89.576214
-406.46527
194.0204
254.17174
1494.7157
3169.0531
-2540.2889
-198.64467
-2251.4337
-854.17032
-2156.0415
-2284.1843
-3386.8024
-3576.7468
-5127.8354
-5387.3717
-6558.4665
-7555.3014
-8375.2661
-9139.3077
-10559.652
-10980.972
-12147.35
-12879.688
-13886.309
-14286.101
-15576.813
-15452.997
-16611.207
-16837.241
-17743.505
-17912.264
-18685.345
-18762.12
-19245.595
-19524.851
-19756.88
-19973.888
-20136.857
-20328.559
-20207.999
-20532.338
-20265.318
-20503.829
-20265.132
-20379.453
-20224.727
-20214.359
-20026.412
-20011.558
-19837.636
-19735.139
-19581.988
-19409.028
-19268.009
-19105.921
-18920.758
-18764.362
-18616.416
-18438.27
-18292.345
-18156.379
-18007.416
-17869.612
-17769.39
-17603.277
-17507.529
-17377.286
-17223.189
-17099.047
-16937.357
-16735.564
-16529.042
-16304.299
-16012.089
-15725.177
-15353.023
-14962.93
-14540.163
-13684.937
-12438.407
-11771.999
-11140.167
-10652.753
-9815.1898
-9567.5715
-8362.963
-8409.3263
-7043.7197
-7033.3035
-5955.1619
-5400.5659
-4985.929
-3544.0431
-3840.488
-1758.0191
-1956.18
-633.17094
585.80616
2225.2281
4130.9657
-1338.7696
-2366.744
-2551.1765
-3174.7609
-3794.6462
-4579.1298
-5708.731
-6883.669
-7710.0009
-9337.8728
-10416.479
-11711.484
-12873.305
-14388.764
-15489.053
-16541.092
-18212.884
-18879.208
-20467.81
-21382.903
-23025.965
-23844.506
-25331.863
-26006.143
-27462.539
-27662.944
-28851.005
-28882.115
-29867.365
-29904.925
-30509.56
-30700.779
-31063.997
-31158.632
-31381.446
-31445.128
-31516.235
-31566.793
-31527.941
-31526.181
-31467.148
-31351.388
-31267.566
-31162.142
-31012.172
-30863.351
-30744.895
-30564.973
-30428.306
-30248.539
-30092.022
-29913.547
-29761.988
-29568.514
-29411.606
-29238.606
-29062.022
-28884.008
-28708.039
-28503.528
-28311.401
-28073.523
-27840.602
-27564.185
-27308.902
-26962.518
-26605.254
-26172.78
-25701.744
-25148.974
-24542.678
-23968.969
-23124.727
-22269.728
-21324.248
-20158.322
-18776.002
-17785.938
-16771.813
-15748.188
-14873.111
-13706.984
-12832.597
-11725.617
-10669.757
-9771.1143
-8476.0897
-7668.7578
-6299.9428
-5061.7101
-3965.3361
-1967.8841
-374.25896
1935.3659
6163.417
-3184.6755
-1264.9812
-2674.5526
-2944.6036
-4283.4576
-5515.868
-7243.4049
-8434.6913
-10830.978
-11930.163
-14359.466
-15606.342
-18040.94
-19124.824
-21418.113
-22769.527
-24717.351
-25898.271
-28095.546
-28826.555
-31033.79
-31964.026
-34337.619
-35371.599
-36815.346
-37430.789
-38544.234
-39048.06
-39764.303
-40077.452
-40697.255
-40892.051
-41221.626
-41515.037
-41508.678
-41802.805
-41680.112
-41842.273
-41705.618
-41796.339
-41623.577
-41672.543
-41540.998
-41523.972
-41405.502
-41330.822
-41258.181
-41143.977
-41037.952
-40949.431
-40826.254
-40705.613
-40586.452
-40442.172
-40291.879
-40140.358
-39953.573
-39750.418
-39549.19
-39289.771
-39009.068
-38712.303
-38332.777
-37947.293
-37510.549
-37006.989
-36444.873
-35865.892
-35169.614
-34391.33
-33647.242
-32667.046
-31728.03
-30729.771
-29575.374
-28889.999
-27570.732
-26189.468
-24844.793
-23517.829
-22032.39
-20656.32
-19134.836
-17710.801
-16101.339
-14824.5
-12908.589
-11835.585
-9926.9733
-8255.1138
-7021.4325
-3804.0882
-1625.0359
3049.2614
7772.0354
-495.95283
-15.179032
-3246.2576
-3778.4899
-6690.6587
-7953.2955
-10598.08
-12760.652
-15094.063
-17346.8
-19675.887
-22426.305
-24299.576
-26917.856
-28839.595
-31197.053
-33135.931
-35128.059
-37198.965
-38804.507
-41006.575
-42317.596
-44104.558
-44913.022
-46572.713
-47105.127
-48862.231
-49059.734
-50321.045
-50583.217
-51423.764
-51521.779
-52192.337
-52312.101
-52627.508
-52805.761
-52849.586
-52970.966
-52993.539
-52990.076
-52989.884
-52969.716
-52894.006
-52848.526
-52776.569
-52698.704
-52654.086
-52530.895
-52473.333
-52372.778
-52267.104
-52138.997
-52028.211
-51860.822
-51700.886
-51511.141
-51284.636
-51039.717
-50767.75
-50425.233
-50080.204
-49653.196
-49180.129
-48644.736
-48047.149
-47400.689
-46671.814
-45870.016
-44981.01
-43982.374
-42888.173
-41750.088
-40490.59
-39142.928
-37669.979
-36241.881
-34650.26
-33077.809
-31355.041
-29635.005
-27881.246
-26073.583
-24254.964
-22408.066
-20595.324
-18662.215
-16807.49
-15038.128
-12690.074
-11245.698
-8427.237
-6124.2654
-3431.9287
761.28215
5953.2618
3604.2738
1486.787
-1834.2213
-4307.6846
-6254.5701
-9338.4449
-12288.381
-14699.868
-17757.644
-20499.373
-23952.046
-26317.398
-29654.615
-32265.909
-34945.108
-37525.293
-40278.347
-42092.463
-45099.675
-46801.054
-49015.603
-50819.489
-52914.313
-54603.437
-56266.628
-57510.064
-58728.597
-59587.319
-60710.131
-61213.156
-61903.814
-62300.494
-62550.588
-62877.936
-63040.358
-63329.706
-63259.673
-63454.423
-63297.299
-63382.606
-63282.878
-63279.32
-63212.984
-63195.706
-63156.451
-63130.889
-63091.432
-63070.361
-63036.657
-63007.962
-62951.519
-62901.279
-62824.199
-62724.584
-62590.653
-62434.975
-62229.926
-61985.091
-61687.074
-61340.264
-60925.763
-60453.392
-59901.151
-59258.011
-58502.732
-57677.821
-56669.463
-55796.489
-54778.72
-53492.965
-52311.659
-50880.074
-49328.002
-47806.884
-46016.021
-44238.223
-42337.055
-40385.809
-38338.359
-36321.054
-34163.361
-32034.322
-29812.334
-27655.384
-25310.028
-23169.792
-20816.071
-18568.631
-16139.971
-14229.245
-10872.243
-9456.9122
-5615.9377
-1343.9185
5452.0892
9445.7752
1367.4529
-2218.9752
-4758.818
-8005.5677
-12010.048
-14874.305
-17594.489
-21619.442
-24745.033
-28155.271
-31741.373
-34900.213
-37922.425
-41130.37
-44272.399
-47256.615
-49488.858
-53071.737
-54308.097
-57276.347
-58893.632
-61663.882
-63059.608
-65934.71
-66278.083
-68473.975
-68729.174
-70599.895
-70724.603
-71810.047
-72067.704
-72465.933
-72663.933
-72719.971
-73289.232
-73212.417
-73355.13
-73265.724
-73332.379
-73245.24
-73244.968
-73197.648
-73154.05
-73162.774
-73102.964
-73135.785
-73115.292
-73122.277
-73106.221
-73095.964
-73051.103
-73001.361
-72895.519
-72775.408
-72603.167
-72376.828
-72095.12
-71763.787
-71342.13
-70866.894
-70311.071
-69664.084
-68923.725
-68099.033
-67057.379
-65881.163
-64690.647
-63624.882
-62215.29
-60816.434
-59038.448
-57373.59
-55494.632
-53498.013
-51429.547
-49354.177
-47048.359
-44785.653
-42361.628
-39910.675
-37383.122
-34887.291
-32217.725
-29672.658
-27074.283
-24343.148
-21862.89
-19238.314
-16799.663
-14037.142
-12699.186
-9120.6128
-6213.3961
523.4931
-22463.999
-23366.336
-26628.856
-27778.98
-28904.841
-28609.785
-30576.866
-28089.654
-29507.287
-27354.6
-27682.075
-26241.475
-24861.847
-18493.731
-21394.327
-10415.967
-17590.244
-15636.249
-21561.126
-21313.51
-22281.185
-20825.864
-21776.779
-21563.133
-21189.707
-19351.492
-18442.476
-16475.636
-11744.755
-10375.35
3429.2831
626.51096
-1462.2219
-1673.9947
-2738.1875
-3089.389
-3874.6191
-3578.4096
-3254.0935
-2951.5751
-2233.634
-1253.5313
-904.93127
3210.2569
3701.0058
1814.5992
192.32443
-554.58301
-2447.7887
-2778.6138
-3392.4591
-3308.2769
-3273.2688
-2687.5614
-2348.1815
-1902.8769
-348.09476
918.51431
5301.5696
1635.2963
5233.201
4033.6183
4046.2189
3367.8414
1388.9712
2826.732
1852.1127
2273.1247
1857.1098
2609.4221
2603.6967
3948.8549
5497.0997
6588.1366
6056.8248
5953.7465
5572.4675
4839.8496
4572.4895
4191.4771
3936.5385
2983.6585
3343.5282
3367.9869
3756.3425
3387.6733
4671.5111
4728.8816
6283.7667
6899.6132
3298.1861
3982.8865
4345.2806
3113.2474
3698.8727
3784.3433
3270.5357
2634.0903
3893.5107
3088.3347
3503.4014
4266.5453
4588.3786
6873.6754
4301.6746
1545.2198
2699.9761
2073.9837
3109.2082
2365.805
3174.4112
2465.7705
2745.2584
3416.7643
2246.552
2810.2684
2916.372
4236.9746
2865.4908
4309.9746
1990.6887
3572.7688
5072.2071
4001.5299
5367.3836
4961.8108
5228.6874
4273.6249
5221.4209
3069.7962
3281.68
3841.1856
1971.3217
2993.9576
2928.9178
-2013.8308
1445.3333
411.02871
2485.038
2115.257
3560.7662
2511.9906
3009.7408
3371.939
2663.3001
3024.5988
2037.4705
3195.0422
-47.658175
3379.5895
-716.88332
1268.4967
3217.0749
2768.0487
5090.8295
3737.3896
4750.3587
4097.3731
5011.0192
3582.4133
3257.3277
3632.1593
656.64371
2034.2732
596.20856
986.44213
7356.6625
6108.5843
11189.16
9772.2038
11381.77
10887.399
11764.594
11778.431
9927.4918
10834.253
7959.1272
9689.4447
4108.8392
3797.9862
-267.2317
1531.2502
5313.0633
4605.7258
6722.8288
6417.4868
7692.0665
7498.2918
6310.085
6796.1563
4886.5474
6248.8227
3509.4549
2727.1839
-755.25405
12248.736
25611.47
24063.585
30116.832
29997.741
29672.224
29899.587
30536.768
30762.324
30036.412
31041.326
28709.526
29897.286
21817.08
25548.215
9332.5231
8247.9924
9658.9464
13309.36
15343.706
14603.932
16792.872
15671.345
12562.905
13923.63
13630.721
12680.675
10905.767
9575.1716
3020.8373
43565.306
37308.504
51518.205
49640.861
52049.34
56167.256
50443.244
46191.11
53940.539
53286.542
52041.648
51718.546
48920.011
47582.962
34935.493
17532.518
20705.023
26070.417
27660.457
28667.741
29626.675
30192.941
30765.62
31620.21
29778.943
29284.583
27378.24
26320.609
24173.674
18241.657
1445.9626
4922.9984
4345.5051
6557.5686
6910.486
6877.1058
7995.2953
6720.0584
7274.0006
7459.2927
6289.2451
6832.3253
4251.5544
3215.1322
2645.4615
-2115.2418
674.09756
1793.793
2940.4161
3191.3175
4500.4263
4430.613
4935.1906
4598.5533
4133.217
3354.6583
1847.8677
1741.4269
219.49311
-1817.8634
-6316.0551
-5587.7702
-6457.2987
-3662.9375
-4341.814
-3854.2985
-2976.7665
-3225.7018
-3242.6668
-3514.7256
-3983.3738
-4211.3673
-4988.2363
-6238.5719
-6448.8021
-11197.833
-10235.349
-9038.3909
-8923.0751
-9064.4966
-8356.9514
-8436.5235
-8582.4796
-9145.2706
-9296.1607
-9508.4774
-10109.82
-10282.903
-10736.057
-11860.237
-14595.862
-14557.201
-14278.815
-13323.091
-14549.539
-14327.189
-14382.715
-14301.516
-14855.829
-14755.949
-15146.674
-15630.273
-15587.606
-16523.097
-16576.995
-18841.829
-17699.529
-18444.572
-17035.799
-17491.253
-16883.927
-17192.411
-16996.18
-17544.211
-17061.174
-17514.068
-17680.173
-18422.221
-18340.388
-18945.157
-21586.734
-23122.456
-22696.719
-23061.234
-23528.644
-23850.342
-23922.093
-24118.109
-25186.967
-24139.796
-24832.212
-24986.28
-24783.262
-24719.172
-24104.194
-26638.214
-25705.802
-26329.94
-25600.133
-26077.086
-25742.59
-26294.122
-26157.927
-26203.71
-26819.145
-26995.604
-27094.91
-27398.776
-27345.15
-27775.209
-29363.168
-30462.977
-30078.806
-30828.992
-30920.122
-31197.911
-31321.175
-31722.356
-31971.444
-31828.015
-32213.898
-32475.422
-32227.822
-32730.077
-32342.568
-33902.428
-33377.687
-34303.56
-34159.187
-34785.251
-34441.357
-35137.972
-35440.834
-35882.979
-35886.194
-36348.743
-36349.743
-36588.152
-36068.119
-36479.706
-37550.687
-37609.378
-37745.742
-38487.277
-38352.504
-38936.287
-39135.425
-39400.963
-39609.273
-39820.099
-39877.906
-40285.852
-39593.541
-40187.877
-39953.624
-40964.394
-40864.902
-41730.771
-41723.959
-42248.596
-42224.198
-42731.405
-42892.691
-43335.68
-43230.814
-43632.939
-43543.246
-43711.637
-43614.886
-43767.856
-44435.553
-44639.707
-45603.284
-45603.584
-46596.868
-46243.262
-46262.621
-47458.587
-47568.327
-47728.888
-47677.698
-47998.297
-47473.057
-47762.711
-47646.6
-47806.083
-47919.078
-48851.712
-49039.057
-49464.966
-49173.148
-50637.137
-49954.904
-50556.399
-50458.187
-50768.798
-50743.503
-50043.098
-50290.241
-49729.051
-51368.322
-51211.062
-52333.174
-52383.331
-53146.751
-53349.604
-53693.624
-54193.73
-53994.732
-54513.415
-54348.116
-54740.394
-54314.057
-54394.682
-54675.594
-54403.227
-54752.624
-55416.363
-55694.324
-56304.144
-56508.511
-57348.971
-57069.236
-57660.695
-57503.899
-57642.629
-57528.805
-57837.101
-56832.508
-56962.757
-57326.079
-57675.322
-58571.854
-59076.324
-59816.797
-59431.642
-60102.242
-60443.839
-60411.461
-60885.893
-60620.758
-61010.45
-60345.848
-60893.505
-60552.557
-60098.714
-60684.447
-61243.121
-61867.373
-62307.982
-62620.191
-63355.419
-63115.764
-63759.636
-63402.771
-63534.628
-63458.696
-63308.318
-62988.905
-62801.327
-63280.314
-63341.97
-64578.172
-64331.743
-65453.477
-65206.276
-66052.122
-66293.658
-66232.603
-66464.446
-66297.894
-66663.932
-66162.67
-66686.832
-66192.523
-64619.002
-66121.2
-66127.211
-67211.782
-67502.687
-67804.491
-68447.936
-68359.839
-68928.214
-68805.765
-69050.763
-68875.286
-68461.222
-67778.993
-68260.649
-68219.027
-68048.293
-69278.538
-69426.847
-70185.092
-70121.338
-70881.598
-70776.582
-71030.323
-71065.194
-71133.918
-71099.968
-70862.983
-70829.348
-70321.264
-69303.45
-70304.281
-70622.686
-71686.759
-71895.374
-72232.028
-72972.277
-72778.227
-73342.487
-73126.465
-72913.282
-73422.463
-73022.093
-72613.787
-72535.518
-71818.744
-72325.291
-73039.915
-73263.085
-74049.273
-73951.719
-74838.791
-74694.168
-75032.03
-75005.694
-74665.549
-74835.022
-74768.967
-74117.101
-74205.853
-73382.225
-73537.669
-74705.358
-74710.276
-75476.226
-75612.188
-76162.453
-76045.606
-76504.021
-76467.072
-76728.308
-76748.195
-75768.497
-76462.926
-75527.236
-74897.198
-74864.69
-75849.349
-76184.142
-76818.525
-77087.902
-77640.056
-77723.998
-77900.783
-77936.286
-77710.055
-77919.531
-77257.815
-76866.099
-77145.091
-76184.61
-76080.453
-76807.618
-77339.747
-78027.725
-78044.328
-78624.034
-78600.014
-79090.267
-78897.121
-79060.27
-78781.21
-78483.478
-78806.011
-77990.982
-77008.376
-77227.612
-78261.696
-78200.252
-78930.576
-79094.954
-79602.622
-79626.475
-79834.839
-79845.097
-79610.357
-79785.328
-79307.355
-79005.549
-79058.761
-78185.901
-77732.555
-78792.273
-78935.942
-79758.869
-79512.788
-80195.329
-80153.17
-80647.462
-80409.731
-80280.738
-80516.737
-79886.523
-80054.296
-79897.072
-78730.283
-78564.23
-79416.71
-79610.172
-80185.034
-80442.902
-80835.799
-80734.76
-80967.381
-81065.991
-80969.288
-81044.061
-80526.866
-80299.143
-80343.654
-79273.262
-78806.866
-79902.868
-79833.757
-80535.136
-80692.031
-81043.907
-81026.086
-81243.211
-81247.493
-81150.969
-81383.09
-80832.583
-81021.993
-80821.041
-79669.797
-79240.124
-80114.351
-80124.335
-80880.043
-80864.674
-81325.747
-81241.668
-81597.389
-81520.847
-81496.112
-81529.064
-81167.29
-81054.135
-80954.175
-79833.089
-79326.481
-80264.654
-80209.557
-80879.689
-80917.131
-81333.37
-81307.589
-81570.913
-81561.696
-81440.981
-81710.827
-81245.576
-81356.983
-81292.829
-79753.458
-79531.714
-80351.017
-80172.554
-80858.849
-80999.79
-81294.248
-81435.336
-81552.864
-81661.395
-81543.662
-81744.777
-81257.3
-81519.702
-81141.243
-79593.937
-79660.617
-80151.347
-80528.923
-80647.27
-80904.406
-81163.455
-81189.455
-81433.707
-81498.877
-81424.587
-81625.089
-81342.905
-81381.756
-81697.326
-80108.154
-79296.46
-80101.135
-80000.567
-80806.572
-80615.561
-81183.728
-81023.995
-81428.653
-81300.814
-81331.01
-81667.848
-81209.006
-81527.404
-81400.717
-79830.961
-79429.957
-80105.868
-80145.681
-80478.788
-80705.732
-80877.183
-81051.831
-81232.586
-81224.129
-81249.154
-81487.136
-81211.155
-81430.944
-81457.012
-79968.711
-79090.429
-80005.807
-79772.345
-80429.459
-80338.034
-80812.667
-80773.333
-81008.948
-81099.071
-81101.894
-81447.173
-81080.938
-81447.762
-81422.908
-79783.956
-79081.111
-79894.579
-79759.111
-80276.891
-80369.248
-80722.871
-80688.544
-81038.132
-81035.562
-81100.087
-81372.01
-81117.026
-81489.847
-81528.573
-79715.676
-78896.998
-79780.671
-79522.87
-80164.614
-80127.57
-80503.641
-80553.182
-80839.784
-80926.03
-80960.002
-81329.039
-81052.931
-81510.179
-81515.725
-79652.86
-78871.918
-79707.069
-79531.845
-80134.683
-80113.015
-80571.78
-80540.757
-80904.531
-80931.454
-81044.176
-81380.648
-81169.394
-81602.053
-81672.985
-79604.395
-78756.44
-79644.437
-79404.942
-80004.901
-80057.436
-80445.463
-80494.912
-80822.889
-80941.325
-81025.679
-81451.497
-81200.236
-81724.109
-81805.461
-79572.203
-78775.003
-79656.333
-79408.077
-80129.445