/*--------------------------------*- C++ -*----------------------------------*\
  =========                 |
  \\      /  F ield         | OpenFOAM: The Open Source CFD Toolbox
   \\    /   O peration     | Website:  https://openfoam.org
    \\  /    A nd           | Version:  6
     \\/     M anipulation  |
\*---------------------------------------------------------------------------*/
FoamFile
{
    version     2.0;
    format      ascii;
    class       pointVectorField;
    location    "1.97";
    object      lm;
}
// * * * * * * * * * * * * * * * * * * * * * * * * * * * * * * * * * * * * * //

dimensions      [1 -2 -1 0 0 0 0];

internalField   nonuniform List<vector> 
3969
(
(-4.0340813e-15 -4.7705825e-17 1.3312818e-16)
(9.2297575e-16 -2.6090405e-16 -6.0252577e-16)
(5601.5978 -553.74613 101.09152)
(5414.3924 -1370.8418 107.29897)
(-7.1783695e-15 2.6020842e-15 -1.0366567e-15)
(-4.622429e-15 2.1493156e-15 -1.5432914e-15)
(5414.905 -1349.5774 107.74884)
(5602.0184 -532.65957 100.18458)
(-6.09887e-15 1.0869625e-16 -2.0095736e-16)
(-3.193382e-15 6.5333688e-16 6.3735029e-17)
(-2.9260211e-15 2.9260844e-16 -4.8432863e-17)
(-1.7497804e-15 -1.5755452e-16 -2.074758e-16)
(-4.3254872e-15 8.6218995e-16 7.3228779e-16)
(-2.4697388e-15 -4.9707839e-16 4.8086129e-16)
(5.2680668e-16 -4.7467027e-16 -5.3018058e-16)
(5577.9474 -656.52891 101.64678)
(5554.3892 -759.15145 102.21471)
(5530.895 -861.21686 102.97478)
(5507.5295 -963.30025 103.81296)
(5484.3133 -1065.2746 104.67185)
(5460.9333 -1167.0798 105.49054)
(5437.7453 -1268.8501 106.45282)
(24.920465 58.33178 64.163237)
(42.996874 103.96706 77.997866)
(81.092024 154.48093 81.797172)
(137.62124 203.02442 78.844298)
(207.83184 251.13892 72.382916)
(294.84995 296.12195 64.190619)
(393.83757 337.88202 55.27057)
(507.49484 375.65885 45.498537)
(631.80042 408.44144 36.054744)
(767.93269 435.96311 26.131163)
(913.28234 458.31473 17.242328)
(1067.4397 474.23488 8.5111114)
(1228.3 484.22408 0.63135825)
(1395.0564 488.05444 -5.9821928)
(1565.844 485.24043 -11.594334)
(1738.8053 476.34618 -15.555969)
(1913.1553 461.65144 -18.010639)
(2086.9493 441.05431 -18.793103)
(2259.0804 415.2291 -17.771959)
(2428.0204 384.59839 -15.009528)
(2592.8817 349.71123 -10.493323)
(2752.5351 311.33726 -4.3390495)
(2906.389 269.9745 3.2357322)
(3053.856 226.79174 12.091351)
(3194.6365 181.76138 21.991196)
(3328.6928 136.54497 32.677694)
(3456.0967 91.05884 43.870646)
(3577.2193 46.15437 55.331376)
(3692.524 2.3373021 66.60575)
(3802.6593 -40.043876 77.626438)
(3908.3857 -80.680476 87.937538)
(4010.5191 -119.36585 97.328906)
(4109.8488 -156.0242 105.60481)
(4207.2168 -190.70701 112.64738)
(4303.554 -223.27751 118.0205)
(4398.9885 -254.18897 122.29952)
(4495.0026 -283.24876 124.79874)
(4591.2032 -311.03796 125.96563)
(4688.4922 -337.44871 125.93113)
(4786.6245 -362.85428 124.87353)
(4885.9403 -387.79923 122.90568)
(4986.4751 -411.86934 120.28399)
(5087.6005 -435.62757 117.11535)
(5190.2561 -459.87154 113.90222)
(5292.5393 -482.67925 110.25247)
(5395.8259 -506.84985 107.18282)
(5498.9612 -530.39145 103.76784)
(9.2577385 -72.19075 -93.428564)
(37.719437 -117.51711 -99.926701)
(67.572534 -171.73627 -123.56425)
(113.55627 -221.37143 -127.05205)
(176.81258 -276.02616 -134.00365)
(251.28274 -327.28252 -135.45989)
(339.67955 -378.1733 -137.66146)
(439.28634 -426.60354 -137.37407)
(550.56437 -473.61397 -136.588)
(672.29774 -518.02073 -133.91978)
(803.16249 -560.53356 -129.93165)
(943.15465 -600.60136 -124.42391)
(1089.8613 -637.68707 -116.80457)
(1243.3326 -672.50027 -107.75753)
(1401.5842 -704.4883 -96.943858)
(1563.991 -733.73145 -84.443372)
(1728.8088 -760.37194 -70.44575)
(1894.9032 -784.23631 -55.157274)
(2060.8623 -805.8241 -38.767205)
(2225.7437 -824.98109 -21.604952)
(2387.8502 -842.17883 -3.9980046)
(2546.7927 -857.51608 13.70538)
(2700.9615 -871.42742 31.047692)
(2850.3441 -884.25519 47.781059)
(2993.9555 -896.2403 63.599779)
(3131.8484 -907.90706 78.534631)
(3263.4983 -919.58941 91.567626)
(3389.2136 -931.55393 103.37564)
(3508.983 -944.17688 113.43521)
(3623.3665 -957.77862 121.75412)
(3732.9949 -972.70833 128.33737)
(3838.393 -988.95604 133.21622)
(3940.3075 -1006.7446 136.48207)
(4039.457 -1026.0943 138.22696)
(4136.6208 -1046.942 138.68113)
(4232.4318 -1069.2093 137.99223)
(4327.4793 -1092.7292 136.25833)
(4422.4669 -1117.2398 133.96637)
(4517.887 -1142.5957 131.08791)
(4613.7818 -1168.4574 127.93882)
(4710.8017 -1194.7022 124.70973)
(4808.7276 -1220.8986 121.5122)
(4907.8932 -1247.1176 118.52346)
(5007.9539 -1272.8495 115.75954)
(5108.9166 -1298.2075 113.32092)
(5210.443 -1322.875 111.03096)
(5312.3046 -1347.1976 109.14859)
(-3.9179893e-16 -2.8384427e-17 -1.6191597e-16)
(6.8869455e-16 3.3255846e-16 -2.9305012e-16)
(-3.0379221e-16 -4.0639439e-16 3.7376104e-16)
(8.6048107e-16 -8.7588792e-17 1.0515471e-16)
(5.0258192e-16 -7.4376592e-16 6.4035694e-16)
(-2.9679417e-15 -3.4669267e-16 7.3060073e-16)
(8.9003905e-16 -2.834795e-16 1.0120244e-16)
(25.99398 -40.188345 62.861774)
(43.792161 -122.85259 81.175091)
(73.496799 -138.9483 75.836655)
(133.31938 -208.67895 71.514233)
(199.02571 -251.4464 61.905148)
(282.5823 -306.77686 47.882121)
(376.15536 -358.00114 37.702398)
(482.24964 -410.24327 23.087649)
(598.1011 -461.10942 12.884265)
(723.19638 -510.89609 -0.041486082)
(857.25209 -560.98338 -8.6809378)
(1000.3436 -606.21154 -20.5215)
(1148.9293 -652.6363 -28.881701)
(1303.6919 -696.09144 -36.598247)
(1461.1575 -736.48196 -42.697408)
(1622.6905 -775.7103 -46.739366)
(1784.4776 -810.4233 -49.18139)
(1947.4049 -843.31988 -49.328482)
(2108.5904 -872.10195 -47.459095)
(2268.242 -898.06777 -43.465176)
(2424.4251 -920.44431 -37.360868)
(2576.9601 -939.76768 -29.349143)
(2724.737 -956.06493 -19.5484)
(2867.4456 -969.54413 -8.2421432)
(3004.6016 -980.87191 4.5164688)
(3135.5279 -989.89512 18.376405)
(3261.5244 -997.95979 32.683993)
(3382.5431 -1004.4632 46.567048)
(3498.3179 -1011.1188 60.718564)
(3609.5551 -1017.7186 74.297258)
(3716.733 -1024.8614 87.062056)
(3820.5149 -1033.0473 98.752929)
(3921.6558 -1042.5994 109.03286)
(4020.768 -1053.6782 117.79023)
(4118.4943 -1066.6557 124.77651)
(4215.7061 -1081.2767 130.03726)
(4312.0866 -1097.8305 133.56395)
(4409.486 -1116.5412 135.43058)
(4506.8548 -1136.5194 135.84925)
(4605.1167 -1158.0466 134.85683)
(4704.2664 -1180.7595 132.86666)
(4804.1961 -1204.3124 129.98821)
(4904.9829 -1228.4827 126.53809)
(5006.4298 -1252.9529 122.67445)
(5108.3595 -1277.4674 118.70613)
(5210.6108 -1301.8362 114.76234)
(5312.6101 -1325.9233 111.14563)
(5438.3654 -1247.2319 106.47974)
(5461.5545 -1145.0221 105.48617)
(5484.5759 -1043.2788 104.64731)
(5508.3964 -941.58175 103.83257)
(5531.2667 -839.23407 103.0209)
(5555.128 -737.69765 102.32742)
(5578.4437 -635.06713 101.19924)
(5499.5894 -509.15391 102.93024)
(5397.2609 -485.84399 105.68915)
(5294.5932 -462.69228 108.5858)
(5192.4606 -440.23613 111.52797)
(5091.0772 -418.3329 114.89504)
(4990.4347 -396.85015 118.31585)
(4890.847 -375.94419 121.87711)
(4792.4118 -355.21419 125.4961)
(4695.0925 -334.8181 129.22253)
(4598.6379 -314.13683 132.40679)
(4502.9309 -292.78765 135.25543)
(4407.5726 -270.71874 137.59811)
(4312.4144 -247.83912 139.23549)
(4216.4262 -223.09393 139.71677)
(4119.1338 -196.45854 139.17568)
(4019.8907 -167.67571 137.32405)
(3917.8833 -136.46935 134.06924)
(3812.2634 -102.68366 129.33163)
(3702.394 -66.457208 123.10755)
(3587.4618 -27.737198 115.35107)
(3466.8914 13.113715 106.0537)
(3340.2216 55.766754 95.451508)
(3206.9903 99.75895 83.459794)
(3067.2798 144.39787 70.444954)
(2921.0694 189.05467 56.586986)
(2768.5528 232.99028 42.03027)
(2610.3333 275.35049 27.153075)
(2447.0834 315.34272 12.249339)
(2279.7352 352.1475 -2.4464986)
(2109.2707 384.96693 -16.574509)
(1936.9717 413.13098 -30.103001)
(1764.2208 436.23876 -42.477833)
(1592.3202 452.92491 -53.495239)
(1423.2133 462.91113 -63.559659)
(1257.497 467.54498 -72.980489)
(1096.7276 464.84986 -79.665919)
(943.35545 455.77437 -86.193026)
(797.74678 439.43726 -90.712715)
(661.13727 417.31831 -94.774612)
(536.59506 387.13453 -97.185811)
(422.6442 353.58997 -99.162946)
(320.15085 313.21107 -99.934215)
(233.9742 268.30928 -99.892755)
(160.05696 219.74695 -97.665544)
(103.38612 169.88964 -92.660047)
(61.899615 112.62532 -82.392145)
(56.426068 66.178203 -53.243289)
(-6.7652979e-16 3.5118239e-16 1.2802193e-16)
(-2.3129286e-15 2.7505878e-16 1.3239036e-16)
(-3.6393531e-15 -1.4253491e-16 -1.5464221e-16)
(-4.9195801e-15 -9.3657526e-16 4.6870719e-16)
(-4.0844143e-15 -8.2232132e-16 1.723462e-16)
(-2.0271537e-15 -1.8079967e-16 2.6438577e-16)
(-2.0670014e-15 8.6459225e-16 1.4474963e-15)
(-4.5036838e-15 1.2268482e-15 -2.065022e-16)
(-1.9919023e-15 1.1694967e-15 -1.6367101e-16)
(-2.9438013e-15 1.1112212e-15 -1.969436e-16)
(-2.4504202e-15 9.597151e-16 -1.1789697e-16)
(-5.2893259e-15 2.5926013e-15 -8.0820905e-16)
(-1.8775489e-15 1.1365606e-15 -5.8525306e-16)
(-7.4714327e-17 -2.094137e-16 9.7564992e-17)
(5414.2249 -1368.5509 107.21561)
(5414.4319 -1366.2254 107.36059)
(5414.6017 -1364.0292 107.55993)
(5414.8541 -1361.7405 107.8875)
(5414.9384 -1359.2637 107.92394)
(5415.1419 -1356.5432 107.85963)
(5414.99 -1353.2849 107.75455)
(5602.1554 -550.9754 101.0741)
(5602.4253 -548.28278 101.247)
(5602.5332 -545.86316 101.23238)
(5602.438 -543.52115 101.00083)
(5602.2872 -540.94213 100.80907)
(5602.1192 -538.42653 100.5138)
(5602.0306 -535.58171 100.18607)
(5.3805406 43.241348 55.386639)
(24.57931 74.82823 53.76037)
(60.451935 112.42614 57.015154)
(115.24703 147.09658 53.423452)
(184.63658 180.94408 47.256642)
(270.98772 213.64323 40.347977)
(369.48499 242.4826 31.886928)
(482.2132 269.31353 24.122527)
(606.42989 290.7398 15.383997)
(741.99569 309.19582 7.79676)
(886.84059 322.24385 0.2584522)
(1040.3945 330.70583 -6.6107215)
(1201.2224 334.48715 -12.444144)
(1367.604 332.90713 -17.256371)
(1538.2762 326.36804 -20.739947)
(1711.6123 314.92419 -22.770839)
(1886.2883 298.81238 -23.244502)
(2060.5748 277.95653 -22.111146)
(2233.2881 253.2057 -19.332966)
(2403.0516 224.59591 -14.99439)
(2568.7837 192.77162 -9.018959)
(2729.445 158.18939 -1.7484672)
(2884.3573 121.49049 6.8631645)
(3032.8098 83.171069 16.421818)
(3174.6395 43.790611 26.950127)
(3309.5635 3.9557887 37.800339)
(3437.7436 -35.988914 49.134488)
(3559.526 -75.595734 60.346162)
(3675.2306 -114.5075 71.41916)
(3785.6653 -152.34338 81.907528)
(3891.4872 -189.05291 91.641159)
(3993.5036 -224.41207 100.37554)
(4092.5867 -258.43054 108.03148)
(4189.5408 -291.03249 114.27074)
(4285.2194 -322.28783 119.25376)
(4380.257 -352.31571 122.82972)
(4475.4216 -381.18845 125.06459)
(4570.9408 -409.04537 125.88003)
(4667.4398 -435.83078 125.7001)
(4764.8747 -462.01693 124.52803)
(4863.7008 -487.57519 122.65253)
(4963.5789 -512.49779 119.94967)
(5064.546 -537.2359 117.1786)
(5166.8018 -561.51241 113.81789)
(5268.8974 -585.29431 110.61706)
(5372.369 -609.42714 107.55111)
(5475.1209 -633.02191 104.471)
(-12.288699 26.319313 34.207478)
(7.6216521 42.602902 31.305413)
(44.991908 71.76921 32.075424)
(98.754257 92.338047 27.598274)
(168.87864 115.73225 22.216517)
(252.91657 136.01653 15.324912)
(351.03063 154.57587 9.1189274)
(463.02292 170.16235 1.3682917)
(586.09514 182.51941 -4.4663122)
(720.62442 191.9567 -11.228191)
(864.81602 197.05449 -16.653702)
(1017.754 198.97997 -21.642661)
(1177.7668 196.58296 -25.376999)
(1343.8352 190.1788 -28.054794)
(1514.159 179.87684 -29.347008)
(1687.2237 165.87409 -29.4427)
(1861.6264 148.14538 -27.960871)
(2035.87 126.92418 -24.918784)
(2208.733 102.56421 -20.445477)
(2378.782 75.27211 -14.411934)
(2544.9064 45.471422 -7.0832799)
(2706.0696 13.647173 1.4573641)
(2861.4007 -19.829739 10.997708)
(3010.5463 -54.453638 21.367592)
(3152.835 -89.985891 32.238981)
(3288.3498 -125.84454 43.515676)
(3417.1462 -161.69495 54.78038)
(3539.4164 -197.39853 65.93718)
(3655.5509 -232.43657 76.566514)
(3766.3831 -266.86304 86.562167)
(3872.443 -300.43292 95.655329)
(3974.5893 -333.10564 103.79713)
(4073.7025 -364.85722 110.65062)
(4170.5394 -395.61161 116.28234)
(4266.0525 -425.51809 120.59689)
(4360.728 -454.5367 123.567)
(4455.4741 -482.65545 125.27704)
(4550.6044 -510.17891 125.81764)
(4646.745 -536.87843 125.34958)
(4743.7802 -563.11708 124.07861)
(4842.0637 -588.88021 122.07125)
(4941.6656 -614.01794 119.58699)
(5042.0776 -638.92279 116.7953)
(5143.9921 -663.53522 113.83473)
(5245.7692 -687.49435 110.79864)
(5349.0137 -711.93474 107.98677)
(5451.6282 -735.65477 104.9845)
(-23.969083 11.484729 16.653745)
(-3.8396569 19.635706 12.093983)
(30.927861 32.652196 8.6772579)
(86.089626 43.5329 3.9262988)
(154.05863 53.627023 -2.2796608)
(239.37449 63.483584 -7.8144749)
(337.16473 69.664592 -15.160125)
(448.1166 75.62994 -20.036449)
(570.69965 77.833546 -25.95236)
(704.76137 78.372527 -30.836779)
(847.71984 76.011696 -34.72122)
(999.58677 70.793689 -37.911935)
(1158.5853 62.878339 -39.871068)
(1323.5495 51.788473 -40.539593)
(1492.7811 38.125153 -39.88286)
(1665.2201 21.401779 -38.098398)
(1839.089 2.0609461 -34.539977)
(2013.1166 -19.940521 -29.782232)
(2185.773 -44.258977 -23.364553)
(2355.7329 -70.654425 -15.774147)
(2521.8718 -98.884211 -6.8575953)
(2683.1212 -128.55227 2.9494724)
(2838.9349 -159.32277 13.627398)
(2988.2918 -191.05431 24.846288)
(3131.1948 -223.10384 36.456285)
(3267.1092 -255.46506 48.078032)
(3396.3381 -287.71097 59.617091)
(3518.7608 -319.86103 70.8456)
(3635.3816 -351.57153 81.275371)
(3746.4241 -382.78783 90.98907)
(3852.6215 -413.47494 99.768275)
(3954.8896 -443.57181 107.36139)
(4053.972 -473.04265 113.72716)
(4150.7732 -501.96023 118.85507)
(4246.0743 -530.31322 122.63059)
(4340.5746 -558.07597 125.15454)
(4435.0318 -585.44484 126.48029)
(4529.8138 -612.29857 126.71938)
(4625.4196 -638.67075 126.02691)
(4722.0405 -664.73114 124.55182)
(4819.9842 -690.34349 122.52745)
(4919.1277 -715.5777 119.9198)
(5019.3525 -740.67113 117.2978)
(5120.9526 -765.27744 114.17586)
(5222.7112 -789.6476 111.35742)
(5325.8593 -813.91382 108.38767)
(5428.279 -837.65801 105.70696)
(-27.094416 -3.3484182 -5.6041767)
(-7.0467512 -6.632675 -14.394847)
(27.664177 -4.8388349 -18.949445)
(80.097784 -7.0327205 -23.624055)
(149.16052 -8.6610127 -28.647629)
(232.08294 -10.565965 -34.37229)
(328.15972 -15.149086 -38.023462)
(437.4518 -19.336819 -43.114551)
(558.48394 -26.555983 -46.516852)
(690.15225 -34.131047 -49.441487)
(831.67118 -44.642554 -51.722822)
(982.40364 -56.202797 -53.133875)
(1139.8843 -70.098543 -53.378808)
(1303.711 -85.870946 -52.019604)
(1471.9793 -103.33939 -49.795434)
(1643.5697 -122.86513 -45.749259)
(1816.5405 -143.91325 -40.433697)
(1989.8714 -166.85099 -33.524071)
(2161.8369 -191.08839 -25.33325)
(2331.407 -216.78172 -15.938533)
(2497.2576 -243.54346 -5.4739798)
(2658.6133 -270.98295 5.6271688)
(2814.192 -299.06742 17.579302)
(2963.7672 -327.75179 29.837563)
(3106.5127 -356.56122 42.20038)
(3242.7722 -385.57255 54.389347)
(3372.1817 -414.39124 66.175668)
(3495.2533 -443.08892 77.295924)
(3612.2166 -471.44835 87.562709)
(3723.6615 -499.52997 96.978274)
(3830.3106 -527.34862 105.15951)
(3932.9199 -554.74211 112.11504)
(4032.3512 -582.00388 117.83753)
(4129.3728 -608.89782 122.18377)
(4224.8394 -635.62601 125.26032)
(4319.4307 -662.08706 127.08886)
(4413.8737 -688.46679 127.84094)
(4508.5812 -714.4564 127.49422)
(4604.1974 -740.40796 126.40293)
(4700.7226 -766.08231 124.61378)
(4798.3928 -791.67676 122.41322)
(4897.3714 -816.94427 119.74771)
(4997.3147 -842.12024 117.08958)
(5098.6501 -866.90343 114.13843)
(5200.0808 -891.40759 111.50079)
(5302.8365 -915.74005 108.80658)
(5404.9826 -939.64623 106.36836)
(-28.65713 -18.779779 -26.112373)
(-6.5733283 -28.407696 -35.449037)
(24.329717 -41.544722 -41.533323)
(77.992252 -55.136215 -47.321654)
(144.60979 -68.823341 -53.265041)
(226.82964 -82.794449 -56.798221)
(321.65261 -97.863992 -61.765054)
(430.18259 -112.50108 -65.198079)
(549.1964 -128.99919 -67.851814)
(680.12264 -145.4255 -69.990502)
(820.28268 -163.40914 -71.106504)
(968.93116 -181.2724 -70.776009)
(1124.8126 -201.12151 -68.838514)
(1287.0785 -221.01193 -65.96291)
(1453.7677 -242.42738 -61.295411)
(1623.7944 -264.47088 -55.228105)
(1795.6562 -287.42006 -47.76834)
(1967.8775 -311.10723 -38.950725)
(2139.1176 -335.32156 -28.86555)
(2308.012 -360.29309 -17.6727)
(2473.5472 -385.36722 -5.658192)
(2634.573 -410.88955 7.077921)
(2790.2194 -436.88081 20.165467)
(2939.5925 -462.67984 33.407274)
(3082.9142 -488.52382 46.303911)
(3219.312 -514.19336 59.004518)
(3349.1085 -539.77606 71.053646)
(3472.4335 -565.27911 82.325632)
(3589.7191 -590.576 92.587385)
(3701.515 -615.8196 101.72075)
(3808.4296 -640.93129 109.54487)
(3911.3329 -666.03849 116.127)
(4010.9365 -691.19404 121.32718)
(4108.1173 -716.31944 125.16808)
(4203.6393 -741.60601 127.7627)
(4298.2921 -766.91826 129.13707)
(4392.5819 -792.35107 129.43983)
(4487.2792 -817.7064 128.78222)
(4582.5996 -843.13319 127.44149)
(4678.7955 -868.63609 125.48588)
(4776.2589 -893.98658 123.08944)
(4874.8965 -919.17263 120.4273)
(4974.6886 -944.18069 117.72044)
(5075.5709 -968.90854 114.8245)
(5177.0348 -993.39036 112.23755)
(5279.602 -1017.6328 109.47407)
(5381.7984 -1041.6124 107.1339)
(-23.127295 -33.435369 -49.450954)
(2.616636 -56.318679 -58.794)
(33.475493 -82.673594 -69.748016)
(85.611628 -108.81823 -75.996205)
(150.75033 -134.89706 -80.426409)
(230.51381 -160.70742 -84.309539)
(323.73759 -187.01819 -87.523795)
(429.29542 -212.23991 -89.437547)
(546.49031 -238.32434 -90.898696)
(674.52671 -263.22296 -90.904276)
(812.13459 -288.888 -90.060408)
(958.41617 -313.82955 -87.792328)
(1112.0659 -339.15266 -84.418117)
(1271.8729 -364.12633 -79.265022)
(1436.3261 -388.99738 -72.671954)
(1604.4049 -413.62483 -64.534551)
(1774.3196 -438.06299 -55.040125)
(1944.9925 -462.18928 -44.067527)
(2114.8193 -486.18425 -31.925596)
(2282.588 -509.76707 -18.870474)
(2447.2216 -533.15565 -4.8913447)
(2607.5003 -556.41039 9.0916095)
(2762.3657 -579.25381 24.164265)
(2911.9651 -601.44354 38.175285)
(3055.1078 -623.3244 52.404048)
(3191.6754 -645.25236 65.760727)
(3321.8846 -666.81881 78.089524)
(3445.8355 -688.35069 89.498592)
(3563.7918 -709.97026 99.638032)
(3676.2607 -731.705 108.4642)
(3783.8881 -753.65624 115.86187)
(3887.4391 -775.91661 121.82247)
(3987.6615 -798.59943 126.31205)
(4085.3625 -821.72132 129.45552)
(4181.341 -845.357 131.28282)
(4276.2678 -869.41579 131.92962)
(4370.8091 -893.91242 131.54851)
(4465.5441 -918.666 130.30602)
(4560.807 -943.91258 128.44317)
(4657.1302 -969.0341 126.10785)
(4754.389 -994.62737 123.53675)
(4852.8618 -1019.788 120.62362)
(4952.4451 -1045.1004 117.83341)
(5053.1132 -1070.0408 114.97108)
(5154.5325 -1094.844 112.38631)
(5256.6223 -1119.3258 109.88229)
(5358.6936 -1143.3603 107.77939)
(-10.873098 -55.224313 -66.169601)
(14.833046 -83.818487 -79.658394)
(44.15012 -124.86934 -93.938031)
(95.441929 -161.98839 -100.0886)
(157.40105 -199.81584 -105.53232)
(236.50541 -238.2614 -108.52709)
(326.73638 -275.35434 -111.34128)
(430.3822 -311.8434 -112.26517)
(544.98193 -347.62972 -112.87775)
(670.29355 -381.54912 -111.5854)
(805.7412 -415.70821 -109.45413)
(948.89384 -447.14675 -105.7716)
(1100.1942 -478.8043 -100.11116)
(1257.186 -508.19964 -93.186648)
(1419.4865 -536.74566 -84.57469)
(1585.1836 -563.71912 -74.428954)
(1753.2385 -589.54949 -62.756329)
(1922.1046 -614.07018 -49.736128)
(2090.4239 -637.41582 -35.660869)
(2257.0827 -659.56797 -20.626967)
(2420.7052 -680.7521 -5.0546724)
(2580.4745 -700.91347 10.849577)
(2735.0731 -720.20433 26.809126)
(2884.461 -738.88687 42.210078)
(3027.595 -756.82666 57.125837)
(3164.6379 -774.81822 71.011266)
(3295.3854 -792.36225 83.904098)
(3419.8048 -810.30992 95.612126)
(3538.2954 -828.3647 105.80292)
(3651.3189 -846.80941 114.4735)
(3759.5407 -865.76995 121.51474)
(3863.6688 -885.49113 127.03065)
(3964.4094 -905.97999 131.00221)
(4062.5658 -927.32599 133.5644)
(4158.9078 -949.52332 134.77383)
(4254.0986 -972.55866 134.86357)
(4348.8495 -996.25525 133.90536)
(4443.6174 -1020.6504 132.21462)
(4538.9746 -1045.4497 129.94573)
(4635.0583 -1070.6676 127.2657)
(4732.1797 -1096.0032 124.29746)
(4830.516 -1121.3887 121.27335)
(4929.9475 -1146.7072 118.36027)
(5030.4368 -1171.8153 115.52876)
(5131.6884 -1196.6949 113.01549)
(5233.5151 -1221.0983 110.58626)
(5335.5953 -1245.0368 108.45868)
(-1.8726199e-15 -1.0357256e-16 4.2324109e-16)
(-4.3693994e-15 5.8098526e-16 1.0825799e-16)
(-1.86708e-15 5.0203615e-16 5.7484399e-16)
(-1.1298519e-15 4.4303811e-16 -1.5186772e-16)
(-1.5283164e-15 1.7502349e-16 4.7144117e-17)
(-3.9278597e-15 -6.147074e-18 -1.0233878e-17)
(-3.270765e-15 8.5080195e-17 2.8271762e-17)
(-1.444637e-15 3.1767481e-17 -1.0328492e-16)
(-1.9600489e-15 -2.0641393e-16 2.5996682e-17)
(-1.0758982e-15 -5.0887233e-16 -1.6282415e-16)
(-1.1902312e-15 -6.3217422e-16 -1.0496995e-16)
(-2.2455722e-15 -1.0363924e-16 3.7607835e-16)
(-1.7254929e-15 1.2766475e-16 7.9907906e-17)
(-6.542485e-16 2.4659353e-16 4.7610311e-16)
(-1.0183069e-15 2.0413811e-16 3.0876606e-16)
(-1.2825224e-16 3.2154578e-16 2.6910031e-16)
(-2.4669526e-15 5.8726168e-16 -3.2350189e-17)
(-1.9694108e-15 5.8752001e-16 2.9593509e-16)
(-1.9972486e-15 5.0741204e-16 1.6376266e-16)
(-5.0142844e-16 5.9082617e-16 -1.5096731e-17)
(2.8672985e-17 2.0007103e-16 -2.079567e-16)
(-3.5598279e-15 1.6770216e-16 6.1584209e-17)
(1.5219227e-15 -3.8112137e-16 -3.4960392e-16)
(-8.8364966e-17 -1.5289127e-16 1.7491834e-16)
(2.7397895e-16 -2.6900304e-16 -2.0413732e-16)
(-5.1236454e-16 -3.7600259e-16 -4.411389e-17)
(-1.3114086e-15 -5.3747975e-16 1.2489795e-16)
(2.0041989e-16 -4.4379834e-16 -1.4360784e-16)
(-1.3448657e-15 3.3966264e-16 -2.7012678e-16)
(-2.2010094e-15 1.2158219e-16 1.1470551e-16)
(-1.2722141e-15 -2.3577892e-16 -7.7366055e-17)
(-2.6936153e-15 2.298542e-17 6.0151854e-16)
(-1.8084585e-15 2.5926424e-16 8.2177642e-17)
(-1.0121806e-15 3.7760621e-16 1.5728837e-17)
(-3.5076342e-15 -1.049112e-16 -1.8966684e-16)
(-1.2388067e-16 -2.746004e-16 -1.3203227e-16)
(-1.1077126e-15 -2.2449831e-16 5.9960705e-17)
(-7.9462407e-16 5.2806017e-17 1.8160622e-16)
(-1.481116e-15 2.6347307e-16 -6.003674e-17)
(5.3541372e-16 1.9494005e-16 5.7756958e-17)
(-2.5861876e-15 -7.0653702e-17 -1.8824779e-16)
(-1.6152529e-15 1.8241927e-16 3.8488004e-16)
(-1.0389662e-15 3.299921e-17 2.9700946e-16)
(-3.8817577e-15 -1.9427146e-16 -1.2145786e-15)
(-1.6161979e-15 2.8442108e-16 -1.856842e-16)
(8.1577518e-16 1.8112067e-17 2.0819295e-16)
(-2.485062e-15 2.8178417e-16 -5.4749215e-16)
(-1.8307085e-15 4.4562511e-16 -1.4619564e-16)
(-1.4586292e-15 4.0358521e-16 -4.0281137e-16)
(34.292669 -22.322496 -48.714314)
(40.503751 -27.35189 -34.007426)
(47.026857 -28.617344 -19.556618)
(49.331144 -30.06312 -7.5447998)
(47.664672 -27.687793 4.8467669)
(44.499129 -28.448765 18.236452)
(35.753501 -19.434751 32.962683)
(62.886844 -108.97454 -83.378929)
(77.359932 -116.75495 -51.386419)
(83.692194 -109.20946 -28.92243)
(84.700529 -105.66501 -11.23965)
(85.446279 -110.68701 6.7902564)
(76.924569 -108.56467 27.655879)
(68.083012 -106.95607 54.597666)
(88.696111 -154.27435 -94.115289)
(106.55072 -146.39699 -70.990982)
(118.43222 -149.98609 -42.460588)
(120.93113 -149.05845 -20.038703)
(120.06342 -145.54142 5.351624)
(111.76594 -145.94806 24.812249)
(100.15445 -149.45749 56.73271)
(141.34909 -219.48673 -101.8919)
(158.55546 -219.98727 -78.360272)
(169.03536 -216.38386 -50.095842)
(174.16525 -215.24609 -27.876281)
(173.22259 -214.79929 -3.2319839)
(166.84572 -215.85816 23.278507)
(151.94567 -209.4133 46.53534)
(200.72408 -273.37819 -109.28659)
(219.12992 -269.52377 -86.289126)
(232.65653 -269.5105 -59.942931)
(237.59036 -267.50297 -35.208729)
(238.46036 -267.06016 -10.148067)
(231.90717 -265.3352 12.688485)
(220.91593 -263.78232 40.318444)
(277.05429 -328.58402 -112.3654)
(294.0947 -326.33922 -90.689298)
(306.69384 -324.36057 -65.642231)
(313.20424 -324.45819 -44.024301)
(313.74913 -322.34181 -18.817665)
(308.93046 -319.7963 4.6757333)
(297.69037 -315.64076 26.91052)
(363.38579 -378.51317 -116.25908)
(381.17859 -378.09914 -95.055204)
(394.52285 -378.78519 -72.502364)
(401.23651 -377.63302 -50.961998)
(403.44471 -377.24886 -27.564802)
(400.08169 -376.3751 -6.923731)
(391.52336 -371.50655 17.362047)
(463.11059 -430.2662 -117.76369)
(480.2835 -430.25387 -99.025237)
(493.33939 -429.5316 -77.482786)
(500.88059 -429.86044 -57.464439)
(503.11166 -427.80682 -36.817379)
(501.10578 -425.3085 -15.326985)
(493.1778 -420.53187 4.2211127)
(573.09295 -477.26216 -118.95725)
(589.75955 -478.28087 -100.58019)
(602.58201 -480.15374 -82.170582)
(610.50122 -479.66005 -63.730306)
(614.16764 -480.56004 -44.256056)
(613.3585 -477.45419 -25.594877)
(608.0593 -474.56148 -5.0689034)
(693.34534 -524.01742 -118.1477)
(709.63609 -526.00977 -102.7529)
(722.4128 -526.63231 -85.302929)
(730.79945 -528.72238 -67.811532)
(734.44873 -527.88999 -50.653718)
(735.09329 -525.76403 -33.256733)
(730.66632 -521.8268 -15.861041)
(823.42916 -567.5298 -116.07149)
(838.47428 -570.25767 -101.96123)
(850.74432 -573.251 -86.37994)
(858.66313 -573.6502 -72.49223)
(863.97032 -575.11419 -56.31466)
(865.13498 -573.47405 -41.599452)
(862.65121 -571.91917 -23.840315)
(961.27088 -608.79713 -112.94829)
(975.70901 -613.01672 -100.22389)
(987.17053 -616.13793 -88.210157)
(996.2523 -618.97211 -74.498397)
(1001.1468 -620.24645 -60.636564)
(1003.2353 -619.00747 -47.677362)
(1003.5 -617.6377 -33.392172)
(1106.647 -648.15168 -107.20026)
(1119.3337 -652.48332 -97.04407)
(1130.6396 -657.03856 -86.477446)
(1138.8549 -659.24246 -75.537034)
(1144.5526 -661.72886 -63.999901)
(1148.1398 -662.14878 -53.06025)
(1149.2461 -661.22246 -40.697733)
(1257.6392 -683.86585 -100.66473)
(1269.6137 -689.75059 -92.493382)
(1280.4487 -694.99491 -84.288621)
(1288.5281 -698.76718 -75.239694)
(1294.9806 -702.50813 -65.52402)
(1299.1444 -703.14475 -56.749227)
(1302.0644 -703.60425 -46.23293)
(1413.9319 -717.69364 -91.949159)
(1424.6137 -724.32127 -85.675941)
(1434.0807 -730.20179 -79.761591)
(1442.0357 -734.61895 -72.424659)
(1448.2955 -738.60481 -65.668936)
(1453.5411 -740.36452 -58.292927)
(1457.5638 -742.12536 -50.579845)
(1573.9889 -747.94823 -81.505991)
(1583.0914 -755.48712 -77.635908)
(1591.9028 -762.47764 -73.550745)
(1599.5141 -767.83708 -68.90397)
(1606.0135 -773.03061 -63.585499)
(1612.0769 -776.17507 -58.620001)
(1617.035 -778.96558 -52.803988)
(1736.3116 -775.67152 -69.601921)
(1743.9858 -784.24678 -67.473733)
(1751.6794 -791.8662 -65.669861)
(1758.4896 -797.7687 -62.565957)
(1765.0905 -803.82203 -59.797737)
(1771.3762 -807.55621 -56.577164)
(1777.4519 -811.91391 -53.177748)
(1900.0367 -800.47879 -56.012686)
(1906.2081 -809.7526 -56.155184)
(1912.6386 -818.04715 -55.925406)
(1919.0968 -825.00213 -55.123415)
(1925.3751 -831.662 -54.248322)
(1932.2599 -836.88081 -52.839602)
(1938.8263 -842.17649 -51.599124)
(2063.717 -822.61952 -41.41031)
(2068.0983 -832.44583 -43.095259)
(2073.5383 -841.4222 -44.67537)
(2078.9159 -848.76915 -45.631869)
(2085.1516 -856.24057 -46.601679)
(2091.8725 -862.19116 -46.967956)
(2099.2031 -868.91891 -47.892509)
(2226.0994 -842.11481 -25.621237)
(2229.1455 -852.42468 -28.961506)
(2233.0802 -861.81216 -32.178754)
(2237.9476 -869.96255 -34.772151)
(2243.618 -877.86089 -37.533777)
(2250.536 -885.07545 -39.475526)
(2258.0232 -892.51998 -42.270491)
(2386.3603 -859.31838 -9.2460881)
(2387.6505 -869.85238 -13.976592)
(2390.5446 -879.65431 -18.447871)
(2394.3835 -888.05232 -22.535463)
(2399.7097 -896.52434 -26.748349)
(2406.2345 -904.33889 -30.104638)
(2413.9485 -912.81782 -34.621922)
(2543.2033 -874.35553 7.4570119)
(2543.2092 -885.00801 1.711719)
(2544.7552 -894.95966 -3.9646965)
(2547.8597 -903.83069 -9.2354867)
(2552.4679 -912.47461 -14.730954)
(2558.7618 -921.17545 -19.36074)
(2566.3435 -930.23366 -25.293583)
(2695.9914 -887.67264 24.150278)
(2694.5543 -898.22758 17.610974)
(2695.103 -908.31859 11.006337)
(2697.2814 -917.1926 4.8465107)
(2701.3607 -926.07641 -1.6902552)
(2707.1158 -935.26578 -7.2682469)
(2714.4709 -944.8384 -14.352901)
(2843.9211 -899.51227 40.500553)
(2841.4079 -909.90777 33.433266)
(2840.9681 -919.81284 26.166267)
(2842.2893 -928.74359 19.530645)
(2845.5445 -937.71276 12.195145)
(2850.7382 -947.18559 5.8343253)
(2857.5577 -957.07859 -2.1087256)
(2986.5629 -910.47469 56.272142)
(2983.1187 -920.5133 48.909876)
(2981.7005 -930.08939 41.391486)
(2982.0236 -938.98324 34.308307)
(2984.9594 -947.64843 26.417185)
(2989.2577 -957.33591 19.68284)
(2995.7747 -967.19331 11.252437)
(3123.4936 -920.73934 71.110792)
(3119.4313 -930.26908 63.638284)
(3117.0661 -939.56272 56.167106)
(3117.1485 -948.21864 48.463009)
(3119.1076 -956.61779 41.232752)
(3122.566 -966.17572 33.811909)
(3128.1333 -976.03353 25.618045)
(3254.9458 -931.11378 84.681943)
(3250.1635 -940.05857 77.455523)
(3247.363 -948.64341 70.435587)
(3246.1925 -956.77722 62.721183)
(3247.9402 -964.86927 55.582793)
(3250.3127 -974.48896 47.72597)
(3255.5113 -983.88379 40.186911)
(3380.462 -941.66125 97.078123)
(3375.3811 -949.55181 90.261049)
(3371.835 -957.71491 83.564637)
(3370.5909 -965.30018 76.181786)
(3371.0618 -973.0505 69.223268)
(3373.1698 -981.74545 61.686067)
(3377.3543 -990.99713 54.089336)
(3500.4205 -952.6477 107.8403)
(3495.2027 -959.87667 101.59011)
(3491.4399 -967.15194 95.538832)
(3489.5316 -974.19413 88.610802)
(3489.6759 -981.16474 82.226673)
(3490.9299 -989.66788 75.032133)
(3494.2536 -997.91551 67.9342)
(3615.328 -964.85489 117.01959)
(3610.047 -971.01067 111.49895)
(3606.0695 -977.56819 106.23212)
(3603.9246 -983.81874 99.886772)
(3603.4647 -990.29266 94.196912)
(3604.0398 -997.7889 87.518521)
(3606.6215 -1005.4213 81.054464)
(3725.5226 -978.1841 124.41534)
(3720.4224 -983.46332 119.90297)
(3716.4776 -989.1194 115.27644)
(3714.0355 -994.67284 109.84659)
(3713.1857 -1000.2526 104.88911)
(3713.1208 -1007.0459 98.952944)
(3714.8844 -1013.6528 93.236985)
(3831.72 -993.0364 130.26346)
(3826.9301 -997.32604 126.64498)
(3823.0076 -1002.0926 122.92343)
(3820.453 -1006.7899 118.3488)
(3819.2324 -1011.635 114.24133)
(3818.5987 -1017.4942 109.05792)
(3819.6491 -1023.1472 104.2033)
(3934.5209 -1009.4532 134.40197)
(3930.0899 -1012.8236 131.81115)
(3926.3942 -1016.7386 128.84798)
(3923.7919 -1020.6631 125.27114)
(3922.3172 -1024.6979 121.96445)
(3921.2091 -1029.5995 117.67723)