/*--------------------------------*- C++ -*----------------------------------*\
  =========                 |
  \\      /  F ield         | OpenFOAM: The Open Source CFD Toolbox
   \\    /   O peration     | Website:  https://openfoam.org
    \\  /    A nd           | Version:  6
     \\/     M anipulation  |
\*---------------------------------------------------------------------------*/
FoamFile
{
    version     2.0;
    format      ascii;
    class       pointVectorField;
    location    "0.13";
    object      u;
}
// * * * * * * * * * * * * * * * * * * * * * * * * * * * * * * * * * * * * * //

dimensions      [0 1 0 0 0 0 0];

internalField   nonuniform List<vector> 
625
(
(0 2.4949704e-20 0)
(0 2.2452733e-20 0)
(0.81040249 0.02724887 -0.0017080881)
(0.79740534 -0.13359645 -0.0021676457)
(0 3.2351276e-20 0)
(0 1.7558105e-19 0)
(0.79813721 -0.13156456 -0.0019464686)
(0.81112312 0.029464184 -0.0017910001)
(0 -3.792595e-21 0)
(1.7437711e-20 -4.0504715e-20 0)
(0 8.2864163e-20 0)
(0.80716368 -0.012848193 -0.001733117)
(0.80399228 -0.053112237 -0.0018924816)
(0.80068389 -0.093333687 -0.0019859718)
(0.0035204357 0.011181433 0.009765138)
(0.012022464 0.021816373 0.010195801)
(0.026676613 0.032164318 0.0099576779)
(0.046890593 0.04131909 0.0093586866)
(0.071036717 0.048802365 0.0087551433)
(0.099815362 0.05515912 0.0079908241)
(0.13147858 0.05986055 0.0073536267)
(0.1661573 0.063230004 0.0066414604)
(0.20303279 0.06537791 0.0060469859)
(0.24155515 0.06620887 0.0054022625)
(0.28144004 0.0660827 0.0048435193)
(0.32220842 0.064950885 0.0042734158)
(0.3635276 0.06302845 0.0037281413)
(0.40503461 0.060442546 0.0032197537)
(0.44648754 0.057381128 0.0027706128)
(0.4876928 0.054018839 0.002371779)
(0.528605 0.050492515 0.0020158642)
(0.56920751 0.046974187 0.001613601)
(0.60959646 0.043470234 0.0012011685)
(0.64990867 0.040070648 0.00067918207)
(0.68999344 0.036840558 9.8454655e-05)
(0.73025831 0.033480794 -0.00047857469)
(0.77031839 0.030419734 -0.0011501497)
(-0.0008037578 -0.0087609325 -0.01240692)
(0.0092548435 -0.018434515 -0.0095545585)
(0.023806639 -0.029321901 -0.0098772649)
(0.042349628 -0.038534134 -0.0085048183)
(0.065370097 -0.047218997 -0.0074263139)
(0.092951234 -0.056064481 -0.0062870369)
(0.12292627 -0.063611183 -0.005377848)
(0.15643587 -0.070797327 -0.0042050506)
(0.19208548 -0.077546161 -0.0033541231)
(0.22972536 -0.083485272 -0.002360151)
(0.26888638 -0.089056417 -0.0015332787)
(0.30914218 -0.093989345 -0.0007151418)
(0.35011787 -0.098436324 -2.9029125e-05)
(0.391455 -0.10237326 0.00055276886)
(0.43285355 -0.10589696 0.00097257694)
(0.47409766 -0.10910522 0.0012105526)
(0.51506725 -0.11212332 0.0012407823)
(0.55574634 -0.11506355 0.0010759297)
(0.59619711 -0.11798166 0.00070412847)
(0.63647953 -0.12096674 0.00023962255)
(0.67667663 -0.12396443 -0.00034908894)
(0.71690195 -0.12702731 -0.00094868447)
(0.75706231 -0.13022205 -0.0015479527)
(0 2.2653396e-20 0)
(-3.0956937e-19 -6.6608904e-20 0)
(0 1.6881838e-19 0)
(0.002224059 -0.0056713029 0.0086115836)
(0.010695552 -0.022950878 0.01010386)
(0.025063911 -0.028483582 0.0078833651)
(0.043676692 -0.039036464 0.0067168654)
(0.067594649 -0.048992888 0.0065604352)
(0.094406598 -0.056331686 0.004984228)
(0.12490944 -0.064349833 0.0045601242)
(0.15823658 -0.071692518 0.0037007189)
(0.19400965 -0.078169672 0.0030423782)
(0.23161897 -0.084215489 0.0024962099)
(0.27075123 -0.089541919 0.0019507215)
(0.31095617 -0.094371605 0.0015153683)
(0.35186019 -0.098589819 0.0011110814)
(0.39310234 -0.10229275 0.00078361438)
(0.43437923 -0.10555184 0.00054137124)
(0.47546125 -0.10845668 0.00038625568)
(0.51626834 -0.11115829 0.00028014448)
(0.55681147 -0.11377906 0.00015036893)
(0.59717726 -0.1164286 -6.017165e-05)
(0.63743602 -0.11918363 -0.00038089754)
(0.67763786 -0.12205791 -0.00076143209)
(0.7177835 -0.12508195 -0.0011747742)
(0.75791222 -0.12827656 -0.0015881444)
(0.80143718 -0.091380463 -0.0019253792)
(0.80481416 -0.051028833 -0.0019069886)
(0.80788713 -0.010634518 -0.0018731462)
(0.77099355 0.032685732 -0.0012185005)
(0.73105444 0.035702176 -0.00063042277)
(0.69105413 0.038795365 4.6365013e-06)
(0.65104124 0.04182778 0.00064262281)
(0.61096497 0.044870089 0.0012400183)
(0.57072911 0.047945555 0.0017317352)
(0.53025871 0.051068058 0.002071241)
(0.48948152 0.054201971 0.0022182594)
(0.448379 0.057240895 0.002154799)
(0.40701886 0.060035456 0.0018835675)
(0.36555156 0.062392688 0.0014198684)
(0.32427483 0.064162043 0.00078377274)
(0.28345488 0.065165743 3.3297678e-05)
(0.24348105 0.065243562 -0.00083460651)
(0.20507964 0.064147174 -0.0016711203)
(0.16792547 0.062129041 -0.0027816677)
(0.13333039 0.058813143 -0.0038093646)
(0.10119571 0.053957245 -0.0048317599)
(0.073007369 0.047699221 -0.0059692761)
(0.047955245 0.040024148 -0.0069298689)
(0.027485035 0.031732784 -0.0082988095)
(0.012937086 0.020356871 -0.0088550119)
(0.0061469673 0.010830495 -0.0071054999)
(0 -4.0449498e-20 0)
(0 -4.2180359e-20 -8.7001207e-20)
(0 -1.243155e-19 0)
(0 7.309016e-20 0)
(0 -8.0872858e-21 2.5786584e-20)
(0 5.5669699e-20 0)
(0.79764781 -0.13299653 -0.002065236)
(0.79781875 -0.13249146 -0.0021071746)
(0.7980739 -0.13193779 -0.0020055821)
(0.81057776 0.027797806 -0.0017311277)
(0.81072982 0.028377581 -0.0016823657)
(0.81094896 0.02891051 -0.0017722368)
(-0.00099856243 0.0059329334 0.006797196)
(0.0080006905 0.011504372 0.0050388476)
(0.022473803 0.016635293 0.0053270536)
(0.042559578 0.020912693 0.0048499673)
(0.066795299 0.024397199 0.0046671219)
(0.095529961 0.02694835 0.0043975958)
(0.12720771 0.028448537 0.0040631288)
(0.1618889 0.029240274 0.0038512043)
(0.19872524 0.029081771 0.0035580509)
(0.23739456 0.028217567 0.0033155951)
(0.27737981 0.026711413 0.0030865277)
(0.31826674 0.024597744 0.0028620263)
(0.35971341 0.022060466 0.002635447)
(0.40136792 0.0191798 0.0024170681)
(0.44294837 0.016084577 0.0022112742)
(0.48426964 0.012856204 0.0020080024)
(0.5252386 0.0095790168 0.001779386)
(0.56589141 0.0062964554 0.0014911343)
(0.60629267 0.0030335683 0.0011336334)
(0.64654316 -0.00018450861 0.00063266916)
(0.6866723 -0.0033491747 0.00013545716)
(0.72695106 -0.0065283551 -0.00051332658)
(0.7669727 -0.009610425 -0.001150689)
(-0.0030262846 0.0011056684 0.00034199906)
(0.0066078914 0.0011992664 -0.00017740814)
(0.020913483 0.0018567597 0.00013475291)
(0.040604502 0.0018161664 0.00055073658)
(0.06494418 0.0010019282 0.00063550497)
(0.093091994 -2.6273711e-05 0.00087365971)
(0.12459518 -0.0015680904 0.0010541105)
(0.15904313 -0.0035084436 0.0012419423)
(0.1956646 -0.0058326613 0.0013874839)
(0.23417811 -0.00841772 0.0015594097)
(0.27400843 -0.011301823 0.0016845949)
(0.31482138 -0.014373734 0.0018002541)
(0.35621975 -0.017594068 0.0018718935)
(0.39785367 -0.020886837 0.0019085843)
(0.43943951 -0.024202129 0.0018881252)
(0.48077967 -0.027502142 0.0018018624)
(0.52179308 -0.030764913 0.0016260789)
(0.56249179 -0.033999648 0.0013412252)
(0.60292047 -0.037204278 0.00093571893)
(0.6432625 -0.040386191 0.00046000262)
(0.68342843 -0.043545124 -0.00013470543)
(0.72366118 -0.046743835 -0.00070765672)
(0.76366904 -0.049870554 -0.00128225)
(-0.0038996883 -0.0037013514 -0.0041171898)
(0.0065064938 -0.007318357 -0.0045247781)
(0.020200926 -0.01157016 -0.0041620443)
(0.040168023 -0.016483877 -0.0037415755)
(0.063962293 -0.021491211 -0.0032836352)
(0.091801151 -0.02602139 -0.0026146519)
(0.12305797 -0.031001034 -0.0021153379)
(0.15701977 -0.035616129 -0.0015183919)
(0.19338557 -0.040203536 -0.001011234)
(0.2315863 -0.044675457 -0.00048544965)
(0.27122153 -0.048999264 -1.5979866e-05)
(0.31187566 -0.053173377 0.00042011005)
(0.3531517 -0.057174036 0.00078945831)
(0.39469998 -0.060985495 0.0010806589)
(0.43622429 -0.064611728 0.0012781463)
(0.4775204 -0.068071914 0.0013619927)
(0.51849988 -0.07139851 0.0013124037)
(0.55915618 -0.07462534 0.001114244)
(0.5996013 -0.077799621 0.00080345555)
(0.63985587 -0.080865817 0.00031294027)
(0.68005506 -0.083979199 -0.00015811113)
(0.72021779 -0.087029052 -0.00075135123)
(0.76035907 -0.090089861 -0.0013499998)
(0 -2.5629944e-20 0)
(0 4.2346215e-20 8.8822955e-20)
(0 9.2260924e-20 0)
(-4.6229019e-20 9.2305977e-22 0)
(1.9308805e-20 -2.8609747e-20 -1.4249637e-21)
(-1.2168291e-19 -1.0943391e-19 0)
(0 4.1628038e-20 0)
(0 1.1187639e-19 -2.9754196e-21)
(0 1.2320129e-19 0)
(0.0040926308 -0.0038988453 -0.0053075885)
(0.0054489578 -0.0051285175 -0.00097302423)
(0.0048643426 -0.0036717928 0.0028953037)
(0.015221547 -0.021414411 -0.0048468614)
(0.015130409 -0.02149482 -0.00036955348)
(0.01460793 -0.020579656 0.0051804689)
(0.027373648 -0.029192373 -0.0050737903)
(0.028599948 -0.028589404 -0.00084013043)
(0.028697753 -0.030254895 0.0042089338)
(0.045912665 -0.039311483 -0.004194113)
(0.047409578 -0.039940655 -0.00038526307)
(0.046456419 -0.039203459 0.0034788873)
(0.069137373 -0.048623793 -0.0037823204)
(0.069965257 -0.048536534 -0.00069678237)
(0.069922283 -0.049130527 0.0032119141)
(0.095455273 -0.056858279 -0.0032423841)
(0.096680855 -0.056859561 -0.00015096101)
(0.096414386 -0.056890172 0.0026314579)
(0.12558153 -0.064468857 -0.0025815912)
(0.12664887 -0.064882076 -0.00051070584)
(0.12660919 -0.064963757 0.0024187792)
(0.15861496 -0.071839414 -0.0021170484)
(0.15948 -0.071644943 -6.9561396e-05)
(0.15951308 -0.071924889 0.0019869754)
(0.19391498 -0.078211545 -0.0015211036)
(0.19479655 -0.078436923 -2.1254799e-05)
(0.19485774 -0.078500441 0.0017054989)
(0.23126941 -0.084271283 -0.0010318761)
(0.23203682 -0.084282853 0.00019331561)
(0.23223079 -0.08441412 0.0014678943)
(0.27010696 -0.089650136 -0.00052011077)
(0.27083775 -0.08967459 0.00036906639)
(0.27104013 -0.089746032 0.001258619)
(0.31009383 -0.094504156 -4.9354768e-05)
(0.31073288 -0.094461234 0.00053476227)
(0.31101116 -0.094508411 0.0010915347)
(0.35081398 -0.098810348 0.00035039924)
(0.35139313 -0.098720629 0.00067964671)
(0.35170257 -0.098722266 0.00093744361)
(0.391936 -0.10261576 0.00068765902)
(0.39244537 -0.1024661 0.00079992456)
(0.39277514 -0.10240413 0.00080480645)
(0.43316452 -0.10599359 0.00092598175)
(0.43360934 -0.10578342 0.00087513388)
(0.43394614 -0.10565171 0.00069845224)
(0.47428896 -0.10905447 0.0010507853)
(0.47467309 -0.10878256 0.00090332132)
(0.47499667 -0.10855855 0.00061727626)
(0.51519766 -0.11192818 0.0010355371)
(0.51553054 -0.11159515 0.00084109424)
(0.51582896 -0.11127653 0.00052405778)
(0.55587524 -0.11473082 0.00085632789)
(0.55615397 -0.11435797 0.00066568247)
(0.55643631 -0.11394355 0.00036770033)
(0.59634579 -0.11755474 0.00052894979)
(0.59660469 -0.11714017 0.00034991865)
(0.59687101 -0.11665417 0.00011036127)
(0.63668749 -0.12044605 7.0988281e-05)
(0.63691653 -0.12001401 -7.7838532e-05)
(0.6371734 -0.1194799 -0.00025452379)
(0.67694737 -0.12341529 -0.00046356818)
(0.67715926 -0.1229482 -0.00055747846)
(0.67741362 -0.12240195 -0.00068458051)
(0.71716717 -0.12648437 -0.0010156491)
(0.71735593 -0.12600435 -0.0010665688)
(0.71758786 -0.12543528 -0.0011420286)
(0.75730948 -0.12969085 -0.0015526211)
(0.75753643 -0.12916557 -0.0015493474)
(0.75772741 -0.12865304 -0.0015864353)
(0.80731946 -0.012294261 -0.0017723076)
(0.80749265 -0.01171595 -0.0017858905)
(0.80771712 -0.011180351 -0.0018524661)
(0.8042019 -0.052554103 -0.0018911351)
(0.8043829 -0.052002429 -0.0018646036)
(0.8046575 -0.051516384 -0.0018877176)
(0.80085574 -0.092777102 -0.0019373829)
(0.80105044 -0.092250783 -0.0019389264)
(0.80130227 -0.091746428 -0.0019383859)
(0.0083777128 0.009428596 0.0048283938)
(0.0084849053 0.010178929 0.0014485508)
(0.0092519828 0.0098842415 -0.0025130633)
(0.016251976 0.020726709 0.0051557083)
(0.017041577 0.021120882 0.00017354227)
(0.016550465 0.020709201 -0.0044810642)
(0.03102272 0.032344455 0.0052421375)
(0.031720668 0.031632883 0.0012689174)
(0.031722331 0.032025479 -0.004215839)
(0.050424299 0.040442635 0.0049804408)
(0.051404734 0.040608893 0.0010775637)
(0.051045365 0.040407944 -0.0033747868)
(0.074539788 0.048749755 0.0050010428)
(0.075675198 0.048485865 0.0012859494)
(0.075407674 0.048400711 -0.0024967063)
(0.10284447 0.054757122 0.0046075083)
(0.10356757 0.054411311 0.0017114445)
(0.10368946 0.054386733 -0.0019698853)
(0.13418115 0.059487001 0.0044312913)
(0.13515824 0.059395819 0.0017381804)
(0.13515245 0.059216878 -0.0012826298)
(0.16856187 0.063015164 0.0041839471)
(0.16935297 0.062775212 0.00188015)
(0.16944666 0.062613795 -0.00069012963)
(0.20491203 0.065176423 0.0039822527)
(0.20588829 0.064873925 0.0020916525)
(0.20593572 0.064756309 0.00013611444)
(0.24332025 0.066064351 0.0037907077)
(0.2440546 0.065859715 0.0023381877)
(0.24437633 0.0657087 0.00057220041)
(0.28288573 0.065914951 0.0035564888)
(0.28363686 0.065756821 0.0023502874)
(0.28385416 0.065584824 0.0011062016)
(0.32339405 0.064887357 0.0033494502)
(0.32406094 0.064708631 0.0024821507)
(0.32439379 0.064597499 0.0015829915)
(0.36442599 0.063001439 0.0031173851)
(0.36508137 0.062878441 0.0025165994)
(0.36541732 0.062771967 0.0019566258)
(0.40570886 0.060476215 0.0028752972)
(0.40630964 0.060391201 0.0025115228)
(0.40666229 0.060322433 0.0022236876)
(0.44695699 0.057458813 0.0026304773)
(0.44751881 0.057434615 0.0024412895)
(0.4478789 0.057417012 0.0023485687)
(0.48802301 0.054143291 0.0023818087)
(0.48854696 0.054193256 0.0022969122)
(0.48890152 0.054238403 0.0023329264)
(0.52882995 0.050695306 0.0020926002)
(0.52931842 0.050834669 0.0020735856)
(0.52965952 0.0509453 0.002150162)
(0.56939481 0.047255461 0.0017518005)
(0.56983746 0.047471962 0.0017369424)
(0.57017071 0.047656584 0.0018120243)
(0.6097821 0.04384869 0.0013143541)
(0.61016235 0.044180296 0.0012958254)
(0.61047544 0.044429109 0.001325774)
(0.65004036 0.040588311 0.00074068058)
(0.65034747 0.040978927 0.00077201277)
(0.65064544 0.041279608 0.00072363037)
(0.69019824 0.037384549 0.00017970277)
(0.69043444 0.037865558 0.00015935793)
(0.69074072 0.038200117 8.784945e-05)
(0.73038989 0.034133102 -0.00043442153)
(0.73062591 0.034619478 -0.00047604848)
(0.73085726 0.03505614 -0.00057557372)
(0.77041896 0.031026953 -0.0011569211)
(0.7706235 0.031594625 -0.0011614337)
(0.77081746 0.032098252 -0.0012005075)
(-5.751988e-05 0.0031717939 -0.0047610832)
(0.0093175775 0.012520555 -0.0046629853)
(0.022969604 0.015232654 -0.0036066413)
(0.043927419 0.020080438 -0.0034378809)
(0.068310578 0.023398618 -0.0027844265)
(0.096956447 0.02574077 -0.0021430485)
(0.12892005 0.027451056 -0.0015733338)
(0.16355905 0.028051802 -0.0009662632)
(0.200567 0.028060972 -0.00042004835)
(0.23923711 0.027213459 0.00014276043)
(0.27923258 0.025833287 0.00061441189)
(0.32016816 0.023871721 0.0010485704)
(0.36158866 0.02152208 0.0013922915)
(0.40320841 0.018896981 0.0016183336)
(0.44471499 0.01609922 0.0017241129)
(0.48594199 0.013237274 0.00169805)
(0.52681151 0.010376684 0.001527445)
(0.56734484 0.007534988 0.001223912)
(0.60763016 0.0046937907 0.00079747094)
(0.64773622 0.001803949 0.00028518056)
(0.68775563 -0.0011719867 -0.00027255441)
(0.72781108 -0.0041945692 -0.00079159049)
(0.76768904 -0.0073398658 -0.0013661281)
(-0.0026087506 0.0016390305 0.00037059133)
(0.0072205229 0.0024529665 -0.00036899031)
(0.022121816 0.0012100738 0.00025644233)
(0.042622625 0.0015629619 -0.00013829014)
(0.066597993 0.00068991986 -4.1575964e-05)
(0.095172451 -0.00066763341 0.00022721168)
(0.12668938 -0.0020603932 0.00025326575)
(0.16115066 -0.0040611715 0.00042531941)
(0.19789918 -0.0063571926 0.00063639374)
(0.23632542 -0.0088899328 0.00075808069)
(0.27621567 -0.011677939 0.00094886584)
(0.31698479 -0.014631374 0.0010937354)
(0.35831229 -0.017685021 0.0012084058)
(0.39983696 -0.02076163 0.001278654)
(0.44126506 -0.023837006 0.0013030311)
(0.48242236 -0.026840199 0.0012612884)
(0.52324097 -0.029773174 0.0011363607)
(0.56376072 -0.0326499 0.00091275882)
(0.60405966 -0.035534388 0.00056879222)
(0.64423665 -0.038471552 0.00013253463)
(0.68432184 -0.041489101 -0.00034369123)
(0.72446141 -0.044616631 -0.00088316299)
(0.76434058 -0.04775721 -0.0013945975)
(-0.0037254083 -0.0035059451 0.0038072321)
(0.0081597981 -0.0059266429 0.0038084805)
(0.022383889 -0.013506499 0.005042959)
(0.041876865 -0.015984616 0.0033365468)
(0.065955849 -0.022028162 0.0036935625)
(0.094054509 -0.026745719 0.0031322591)
(0.12502923 -0.031394195 0.0026493465)
(0.15926718 -0.036340298 0.0024865252)
(0.19549181 -0.040803141 0.0021016842)
(0.23375689 -0.045327501 0.0018996263)
(0.27331186 -0.049590303 0.0016905457)
(0.31390897 -0.053667212 0.0014931379)
(0.35510484 -0.057525343 0.0013170961)
(0.39654209 -0.061150116 0.0011452389)
(0.43792751 -0.064555618 0.00098473243)
(0.47905631 -0.067743557 0.0008248625)
(0.51985811 -0.070748761 0.0006404299)
(0.56037366 -0.073618099 0.00039884058)
(0.60069117 -0.076418718 7.6017727e-05)
(0.64089059 -0.07921271 -0.00029175319)
(0.68102605 -0.082091019 -0.00074285471)
(0.72111193 -0.085025075 -0.0011008818)
(0.76117804 -0.088081111 -0.0015950026)
(0.0019265886 0.0028166511 0.0030207379)
(0.0021421799 0.0032173741 0.00087184106)
(0.0029924893 0.0029153183 -0.0017576139)
(0.012051102 0.011487143 0.0023534136)
(0.013323011 0.011400137 5.200583e-05)
(0.012482673 0.01135882 -0.0029541662)
(0.026470632 0.015932585 0.0025529847)
(0.026865918 0.015829038 0.00027176368)
(0.026814624 0.015843863 -0.0017716238)
(0.046018881 0.020745078 0.0024796098)
(0.047283221 0.020658328 0.00041773773)
(0.046792641 0.020245723 -0.0016205889)
(0.07028275 0.024148342 0.0023074082)
(0.071212516 0.023853997 0.00073673058)
(0.071098864 0.023654783 -0.0012888456)
(0.098374935 0.026586954 0.0024559033)
(0.099426215 0.026491561 0.00088440378)
(0.099130325 0.026179018 -0.00072060828)
(0.12980166 0.028269229 0.0023413891)
(0.1307897 0.028077934 0.0010749627)
(0.1307354 0.027770938 -0.00034672335)
(0.16409612 0.02903253 0.0023646608)
(0.16506482 0.028730298 0.0013040545)
(0.16500382 0.028509725 9.1503891e-05)
(0.20066685 0.028863645 0.0023511024)
(0.20151835 0.028696004 0.0014926796)
(0.20160021 0.02847544 0.00043998086)
(0.23901408 0.028086562 0.0023381489)
(0.23985646 0.027901623 0.0016557904)
(0.23997322 0.027637568 0.00084140009)
(0.27870413 0.026603187 0.0023126175)
(0.27947941 0.026396524 0.0018240624)
(0.27963812 0.026251688 0.0012077054)
(0.31932662 0.024561565 0.0023052721)
(0.32004414 0.024401128 0.0019660974)
(0.32029689 0.024290687 0.0014948254)
(0.36053906 0.022077636 0.0022520769)
(0.36119789 0.021944408 0.002048671)
(0.36148024 0.021884886 0.0017314747)
(0.40198332 0.019248856 0.0021868715)
(0.40258016 0.019161827 0.0020905538)
(0.40289255 0.019169417 0.0018827821)
(0.44339738 0.016197379 0.0020968593)
(0.44393592 0.016169886 0.0020676731)
(0.44426517 0.016259078 0.0019349807)
(0.4845947 0.013024156 0.001972337)
(0.48508161 0.013071308 0.0019691048)
(0.48541441 0.013247537 0.0018836562)
(0.52549529 0.0098091488 0.0017895226)
(0.52593664 0.0099461889 0.0017791125)
(0.52626455 0.010212492 0.0017013975)
(0.56611201 0.0066098392 0.0015205548)
(0.56650225 0.0068368299 0.001469655)
(0.56683139 0.0071914421 0.0013917168)
(0.60649991 0.0034246578 0.0011453779)
(0.60686457 0.0037734183 0.0010541168)
(0.6071578 0.0041913245 0.00094388718)
(0.64677382 0.00032264629 0.00065888207)
(0.64703114 0.00074252262 0.00052141303)
(0.6473659 0.0011983561 0.00041262885)
(0.68694433 -0.0027930384 0.00012188427)
(0.68712269 -0.0023537712 -5.9846292e-05)
(0.68745006 -0.0018233594 -0.00016671845)
(0.72711957 -0.0058892536 -0.00053920731)
(0.72736005 -0.0053922154 -0.00065440912)
(0.72760573 -0.0048272412 -0.00072452586)
(0.76714908 -0.0090244157 -0.0011860331)
(0.76734499 -0.0084687352 -0.0012387436)
(0.76754134 -0.0079223725 -0.0013042318)
(-0.00051263341 0.00074764556 -0.00015040234)
(0.00045402731 0.001202126 -0.00028623954)
(0.0010447999 0.0011184716 -4.3772223e-05)
(0.01015172 0.0013505668 -0.00078608709)
(0.011134476 0.0018158037 -0.00067479117)
(0.0099731401 0.0015301595 -0.00064187141)
(0.024696281 0.0017368036 -0.00030544045)
(0.025465512 0.0014861542 0.00031500987)
(0.025261769 0.0014606154 -8.2722992e-05)
(0.044014742 0.0012264406 -0.0001888597)
(0.045741874 0.0010837114 0.00012631353)
(0.044922121 0.00060623072 -9.5235359e-05)
(0.06821429 0.0007241834 0.00018044614)
(0.069339227 0.00040225827 0.00066815932)
(0.068766545 0.00041976065 -7.528154e-05)
(0.095965169 -0.00044730548 0.00042620723)
(0.097217347 -0.00076034744 0.00057296422)
(0.096815904 -0.00095256007 0.00022893333)
(0.12720218 -0.0019129136 0.00058803822)
(0.12832993 -0.0022731596 0.00087849671)
(0.12801812 -0.0024783525 0.00030891002)
(0.16130071 -0.0039049461 0.00089509906)
(0.16230548 -0.0041542758 0.0010021141)
(0.16210133 -0.0042610159 0.00051955146)
(0.19761158 -0.0061105316 0.0010547603)
(0.19856984 -0.0063741613 0.0011106743)
(0.19851553 -0.0065857669 0.00072069917)
(0.23585279 -0.0086814779 0.001284262)
(0.23668355 -0.0089312046 0.001308929)
(0.23673136 -0.009039923 0.00094180389)
(0.27542195 -0.011512645 0.0014666296)
(0.27616602 -0.011686186 0.0014447685)
(0.27631408 -0.011822667 0.0011007756)
(0.31598949 -0.014524724 0.0016283217)
(0.31664567 -0.014640851 0.0015746319)
(0.31688537 -0.014736233 0.0012801315)
(0.35715306 -0.017674314 0.0017435758)
(0.3577279 -0.017738651 0.0016530408)
(0.35803111 -0.01779499 0.0014013031)
(0.39857777 -0.020899891 0.0018181196)
(0.39906683 -0.020895962 0.0016997683)
(0.39942934 -0.020883222 0.0014890629)
(0.4399875 -0.024141424 0.0018294835)
(0.44040325 -0.024060978 0.0016895054)
(0.44079536 -0.023976354 0.0015129411)
(0.48119413 -0.027361251 0.001770965)
(0.48154238 -0.027197718 0.0016110399)
(0.48194934 -0.027026637 0.001475101)
(0.52211081 -0.030540103 0.0016117133)
(0.52241106 -0.030289683 0.0014444995)
(0.52281497 -0.030017903 0.0013404892)
(0.56275395 -0.03368493 0.0013383349)
(0.56301521 -0.03333512 0.0011620172)
(0.56340575 -0.032975535 0.0010968686)
(0.60316242 -0.036799382 0.00093531611)
(0.6034014 -0.036378646 0.00076441797)
(0.60377453 -0.035924623 0.00071975423)
(0.64345624 -0.039923066 0.00043491058)
(0.64368527 -0.039381988 0.00026531117)
(0.64402121 -0.038925563 0.00025073208)
(0.68355795 -0.043012406 -0.00017442812)
(0.6839308 -0.042451385 -0.00022227639)
(0.6841132 -0.041960548 -0.0002856439)
(0.72382375 -0.04616497 -0.00073233337)
(0.72404865 -0.045649641 -0.00082562625)
(0.72429909 -0.045090736 -0.00083081867)
(0.76384899 -0.049297029 -0.0013116391)
(0.76403277 -0.048734003 -0.001364516)
(0.76423143 -0.048236379 -0.0013857539)
(-0.00030069021 -0.0025939627 -0.0017589595)
(-0.00051871664 -0.0022895794 -3.4603289e-05)
(-0.00057207854 -0.0021079352 0.001808985)
(0.01133964 -0.007110433 -0.0024912084)
(0.012173257 -0.0058102522 -2.3848559e-05)
(0.011259785 -0.0063808505 0.0019979749)
(0.024547021 -0.012246086 -0.0021840176)
(0.025538876 -0.01342636 2.6165502e-05)
(0.025499537 -0.013346119 0.0024109261)
(0.044354335 -0.017601778 -0.0019802431)
(0.045084494 -0.017026929 6.0074769e-05)
(0.044931192 -0.017161079 0.0018340749)
(0.067594437 -0.022073498 -0.0015981515)
(0.068514202 -0.022610309 0.00015580107)
(0.068462533 -0.022546872 0.0016068469)
(0.095135174 -0.027104174 -0.0013251715)
(0.095973045 -0.027325677 0.00011941804)
(0.095983809 -0.027312463 0.0014745077)
(0.12592654 -0.031882535 -0.00096874627)
(0.12665584 -0.032063126 0.00037413495)
(0.12683205 -0.031963623 0.0013402245)
(0.15953068 -0.036422599 -0.00058683004)
(0.1602639 -0.036719588 0.00031199842)
(0.16047975 -0.036747325 0.0012192155)
(0.19552626 -0.041014555 -0.00030761853)
(0.19618834 -0.041250182 0.00053774616)
(0.19648041 -0.041181478 0.0012131687)
(0.23337887 -0.04541315 6.6588961e-05)
(0.23401212 -0.045612468 0.00065495479)
(0.2343434 -0.04559192 0.0011303092)
(0.27268101 -0.049654326 0.00035948395)
(0.27327835 -0.049839192 0.00078462824)
(0.27364813 -0.049791067 0.0011365636)
(0.31303179 -0.053740153 0.00065129543)
(0.31357637 -0.053880769 0.00092094823)
(0.31397314 -0.053814727 0.0011230489)
(0.35402671 -0.057629614 0.00089645422)
(0.3545342 -0.057723463 0.0010223509)
(0.3549455 -0.057626866 0.0011040817)
(0.39533502 -0.061326645 0.0010869023)
(0.39580112 -0.061353569 0.0011005267)
(0.39620538 -0.061217834 0.0010837127)
(0.43666121 -0.064821873 0.001214718)
(0.43709178 -0.064775818 0.0011398047)
(0.43746899 -0.064596202 0.0010448664)
(0.47781359 -0.068142954 0.0012597681)
(0.47820708 -0.068016942 0.0011257493)
(0.47854153 -0.067782207 0.00098812913)
(0.51869797 -0.071321294 0.0011967896)
(0.51906588 -0.071111404 0.0010361688)
(0.51934411 -0.070809806 0.00087522398)
(0.55932373 -0.074406305 0.001014963)
(0.55966332 -0.074106005 0.00083266495)
(0.55988841 -0.073740774 0.00067871818)
(0.59974181 -0.077419166 0.00069270422)
(0.60006941 -0.077048571 0.00051765088)
(0.60026283 -0.076627462 0.00037263397)
(0.64003265 -0.080405812 0.00025214246)
(0.64034021 -0.07998242 9.4170537e-05)
(0.64051079 -0.079516481 -2.7177625e-05)
(0.68025338 -0.083426777 -0.00022153736)
(0.6805313 -0.082951723 -0.00038708497)
(0.68069266 -0.082479996 -0.0004957952)
(0.72043415 -0.086451054 -0.00080019197)
(0.72067463 -0.085948293 -0.00092390748)
(0.72083012 -0.085449383 -0.00098511582)
(0.76058095 -0.08950069 -0.0013561383)
(0.76081306 -0.089010775 -0.0014303562)
(0.76099222 -0.088483284 -0.0014597514)
)
;

boundaryField
{
    free
    {
        type            calculated;
    }
    fixed
    {
        type            calculated;
    }
    freeTop
    {
        type            calculated;
    }
}


// ************************************************************************* //
