/*--------------------------------*- C++ -*----------------------------------*\
  =========                 |
  \\      /  F ield         | OpenFOAM: The Open Source CFD Toolbox
   \\    /   O peration     | Website:  https://openfoam.org
    \\  /    A nd           | Version:  6
     \\/     M anipulation  |
\*---------------------------------------------------------------------------*/
FoamFile
{
    version     2.0;
    format      ascii;
    class       pointVectorField;
    location    "0.74";
    object      u;
}
// * * * * * * * * * * * * * * * * * * * * * * * * * * * * * * * * * * * * * //

dimensions      [0 1 0 0 0 0 0];

internalField   nonuniform List<vector> 
625
(
(0 1.4211152e-19 0)
(0 1.2788897e-19 0)
(1.2141584 0.0079788969 0.086971776)
(1.1815475 -0.24499158 0.074662341)
(0 1.8427028e-19 0)
(0 1.0000956e-18 0)
(1.1884507 -0.26747197 0.074306352)
(1.2210516 -0.01455331 0.086757864)
(0 -2.1602317e-20 0)
(9.9323805e-20 -2.3071161e-19 0)
(0 4.7198764e-19 0)
(1.2060145 -0.055252728 0.083862502)
(1.1978033 -0.11842348 0.080828413)
(1.1897092 -0.18167998 0.07773664)
(0.0055196844 0.016109026 0.014455952)
(0.018236225 0.032110109 0.014549861)
(0.03937168 0.046895746 0.015861509)
(0.06915704 0.059800914 0.015796681)
(0.10340374 0.070113814 0.016866851)
(0.14506711 0.078435382 0.017798887)
(0.18993838 0.08440454 0.01944698)
(0.23931986 0.088168332 0.021142305)
(0.29182783 0.090425073 0.023611894)
(0.34677089 0.090470322 0.025978607)
(0.40391507 0.089473404 0.02896203)
(0.46272436 0.087005729 0.032167481)
(0.52283324 0.083479904 0.035715267)
(0.58389472 0.079057543 0.039543931)
(0.64578753 0.073852403 0.043635)
(0.70817466 0.068004192 0.047989908)
(0.77101019 0.061653771 0.052496743)
(0.83409814 0.054773055 0.057255849)
(0.89740313 0.047616549 0.062018512)
(0.96072543 0.040092658 0.067010245)
(1.0241802 0.032299057 0.071972233)
(1.0875244 0.024371926 0.076984357)
(1.1508605 0.016195556 0.082026886)
(-0.0019366564 -0.012276253 -0.018342141)
(0.012765627 -0.025351724 -0.013148933)
(0.033054894 -0.040547224 -0.013800399)
(0.059778219 -0.053891164 -0.010191297)
(0.091714559 -0.065434409 -0.0077925405)
(0.13097913 -0.079370521 -0.0043048239)
(0.17259018 -0.089826838 -0.0014699818)
(0.21963236 -0.10149131 0.0023580578)
(0.26949705 -0.11248745 0.0057473678)
(0.32235835 -0.12247938 0.0097124635)
(0.37762349 -0.13283795 0.013605007)
(0.43476152 -0.14240873 0.017735908)
(0.49357 -0.1518545 0.021936598)
(0.55353882 -0.16098733 0.026279473)
(0.61458219 -0.16989956 0.030756821)
(0.67633458 -0.17862362 0.035323891)
(0.73870897 -0.18720858 0.040037792)
(0.80149662 -0.19563509 0.044805857)
(0.86460986 -0.20402781 0.049729296)
(0.9278927 -0.21224706 0.054627722)
(0.99135496 -0.22053187 0.059683097)
(1.0547477 -0.22866644 0.064658942)
(1.1182278 -0.23684392 0.069678893)
(0 1.2903193e-19 0)
(-1.7632823e-18 -3.7939898e-19 0)
(0 9.6157597e-19 0)
(0.0037285807 -0.0087023431 0.012672736)
(0.015951497 -0.035436233 0.015211331)
(0.037030203 -0.043217848 0.012340137)
(0.062826206 -0.059624426 0.011361161)
(0.097146736 -0.076293023 0.012869226)
(0.13462908 -0.087173092 0.011646899)
(0.17742221 -0.10146667 0.013458965)
(0.22429456 -0.11370482 0.014129839)
(0.27426305 -0.12569701 0.0159672)
(0.32746149 -0.13750178 0.017999284)
(0.38263908 -0.14818844 0.020269164)
(0.44011579 -0.15925719 0.023076944)
(0.49894513 -0.1693735 0.026080091)
(0.55916256 -0.17946402 0.029428843)
(0.62034832 -0.1892133 0.033079136)
(0.68228452 -0.19861414 0.036964293)
(0.74483502 -0.20788203 0.041096877)
(0.80779613 -0.21685837 0.045441354)
(0.87105162 -0.22567706 0.049960942)
(0.93450439 -0.23428069 0.05463247)
(0.99802155 -0.24275171 0.059435326)
(1.0615743 -0.25108244 0.064341021)
(1.1250689 -0.25927899 0.069309954)
(1.1965894 -0.20414709 0.077410639)
(1.2046226 -0.14092199 0.080530516)
(1.2128781 -0.077849018 0.083668315)
(1.1577287 -0.0063427322 0.081648025)
(1.0942028 0.0019036137 0.076436098)
(1.0306295 0.010005909 0.07120695)
(0.9669562 0.018102526 0.065882069)
(0.90328284 0.026008711 0.06059373)
(0.83969909 0.03371543 0.055310411)
(0.77627021 0.04117446 0.050085964)
(0.7131331 0.04823866 0.04494579)
(0.65042339 0.05488144 0.039894095)
(0.58826754 0.060941682 0.034952247)
(0.52688916 0.066274791 0.030127692)
(0.4665679 0.070787071 0.025420633)
(0.40744097 0.074298647 0.020799634)
(0.35002699 0.076488008 0.016383523)
(0.29496975 0.077092693 0.012144763)
(0.24198816 0.076433703 0.0078829178)
(0.19254951 0.074063929 0.0038117917)
(0.1466297 0.069065147 0.00024491528)
(0.10598122 0.062387782 -0.0035823649)
(0.069776315 0.053076878 -0.0064033169)
(0.040207948 0.042893095 -0.0097186952)
(0.01820199 0.02772847 -0.011913803)
(0.0084964983 0.014902364 -0.009775021)
(0 -2.303971e-19 0)
(0 -2.4025595e-19 -4.9555191e-19)
(0 -7.0809111e-19 0)
(0 4.163157e-19 0)
(0 -4.6064532e-20 1.4687832e-19)
(0 3.1709015e-19 0)
(1.183279 -0.25059877 0.074568778)
(1.1850143 -0.25622 0.074513478)
(1.1866977 -0.26184225 0.074405118)
(1.2158782 0.0024018038 0.086904714)
(1.2176388 -0.0031989923 0.086814291)
(1.2193502 -0.0088250057 0.086818011)
(-0.0013862247 0.0088657696 0.010171381)
(0.011991718 0.017549311 0.0077951984)
(0.033170451 0.025174761 0.0092127818)
(0.062195384 0.031204748 0.0094954527)
(0.096692013 0.036114365 0.010866114)
(0.1379482 0.039155223 0.012440844)
(0.18252646 0.040587746 0.014204295)
(0.23186078 0.040824588 0.016569748)
(0.28388228 0.039636133 0.019026072)
(0.33878138 0.037167589 0.021940117)
(0.3958401 0.033949226 0.025092208)
(0.45448304 0.029588138 0.028549248)
(0.51449283 0.024653938 0.032253198)
(0.57553414 0.019037965 0.036193557)
(0.63736202 0.01291249 0.040398188)
(0.69974964 0.0063595672 0.044765776)
(0.76260201 -0.00059300288 0.049351689)
(0.82569801 -0.0078279111 0.054075174)
(0.88904741 -0.015302821 0.058900574)
(0.95241632 -0.023051141 0.063899289)
(1.0159197 -0.030931584 0.068821898)
(1.0792914 -0.038938799 0.073911898)
(1.1427263 -0.047095936 0.078908004)
(-0.0046745329 0.0020575716 0.0004924518)
(0.01017489 0.0026634472 2.9411066e-05)
(0.030233084 0.0038691159 0.0014015428)
(0.058723793 0.0040719088 0.0030233743)
(0.09337671 0.0025304637 0.0047721047)
(0.13325662 0.00064627567 0.0068315767)
(0.17769454 -0.0021188004 0.0091700918)
(0.22633414 -0.0060511163 0.011952172)
(0.27781424 -0.010406129 0.01481979)
(0.33239072 -0.015615297 0.018027268)
(0.38882252 -0.02121946 0.021440546)
(0.447184 -0.027389203 0.025109814)
(0.50689832 -0.033904802 0.02897458)
(0.56771084 -0.040733159 0.033070318)
(0.62935102 -0.047855801 0.037347358)
(0.69162683 -0.055167992 0.041789617)
(0.75437608 -0.062684625 0.046412869)
(0.81743273 -0.070325092 0.05113409)
(0.88075745 -0.078131337 0.055997852)
(0.94411848 -0.086032683 0.060910513)
(1.0076561 -0.094039277 0.065878632)
(1.0710714 -0.10208665 0.070888084)
(1.1345689 -0.110264 0.075850391)
(-0.006054876 -0.0048232881 -0.0060083107)
(0.009600965 -0.0098016944 -0.0057722374)
(0.028509812 -0.014892991 -0.0049515947)
(0.057656666 -0.021977177 -0.0030133223)
(0.091065067 -0.029494204 -0.0011183983)
(0.13042094 -0.035779533 0.0013152772)
(0.17446592 -0.044152147 0.0042701621)
(0.22201443 -0.051493204 0.0071468344)
(0.27306518 -0.059331627 0.010363766)
(0.32688261 -0.067497776 0.013920324)
(0.38284483 -0.075387529 0.017517822)
(0.44077192 -0.083663156 0.02143942)
(0.50003869 -0.091752886 0.025448193)
(0.56053373 -0.099940597 0.02966453)
(0.62187408 -0.1081099 0.034021814)
(0.68395299 -0.11624456 0.038530461)
(0.74650757 -0.12441218 0.043178432)
(0.80947655 -0.13255047 0.047937498)
(0.87266965 -0.14070081 0.052793338)
(0.93605756 -0.14889028 0.057754927)
(0.99951263 -0.15704715 0.062694905)
(1.0629542 -0.16525878 0.067747789)
(1.1263995 -0.17350172 0.072730167)
(0 -1.4598611e-19 0)
(0 2.4120065e-19 5.0592844e-19)
(0 5.2551083e-19 0)
(-2.6331679e-19 5.2576746e-21 0)
(1.0998141e-19 -1.6295883e-19 -8.1164791e-21)
(-6.9309609e-19 -6.2332679e-19 0)
(0 2.3710997e-19 0)
(0 6.3723897e-19 -1.6947752e-20)
(0 7.017447e-19 0)
(0.0055957025 -0.0053490103 -0.0082277872)
(0.0078788483 -0.0074337909 -0.0019290564)
(0.0074303843 -0.0054105228 0.0038610022)
(0.021665652 -0.031074043 -0.0068209328)
(0.021698358 -0.032040615 -0.0006195268)
(0.021430981 -0.031268664 0.0077395428)
(0.0386721 -0.041324137 -0.0070821364)
(0.041078291 -0.041183077 -0.00093805258)
(0.041700543 -0.045532916 0.0068203535)
(0.065031332 -0.056255611 -0.0042203934)
(0.06740629 -0.059057782 0.00080932317)
(0.066464169 -0.058765196 0.0065311085)
(0.097775539 -0.070035869 -0.0027314981)
(0.099380591 -0.071316852 0.0014905385)
(0.099893649 -0.074702599 0.0076420367)
(0.1346477 -0.082075907 -0.000336934)
(0.13686787 -0.084517112 0.0039893848)
(0.13702233 -0.086609943 0.0082150493)
(0.17700022 -0.09410811 0.0025434292)
(0.17884622 -0.09722145 0.0052981263)
(0.17933111 -0.10018535 0.010045597)
(0.22320559 -0.10582306 0.0052273018)
(0.22499299 -0.10815678 0.0079352929)
(0.22570052 -0.11173494 0.011376622)
(0.27269701 -0.11637538 0.0084576781)
(0.27450385 -0.12009881 0.010615206)
(0.27502086 -0.12334376 0.013650428)
(0.32539426 -0.127359 0.011729488)
(0.32695889 -0.13074194 0.013474568)
(0.32797906 -0.13469009 0.016009319)
(0.38017522 -0.13723795 0.015280646)
(0.38191691 -0.1411823 0.016713855)
(0.38277465 -0.14520835 0.018739196)
(0.43728574 -0.14728833 0.01907163)
(0.4388004 -0.15140768 0.020104281)
(0.43991342 -0.155668 0.021771056)
(0.49575859 -0.15667681 0.022924554)
(0.49738303 -0.16104793 0.023728548)
(0.49854142 -0.1656532 0.025105519)
(0.55568222 -0.1660331 0.027048683)
(0.55723105 -0.17063865 0.02765496)
(0.55846871 -0.17532702 0.028662752)
(0.61655465 -0.1750177 0.031300982)
(0.61812726 -0.17981225 0.031670603)
(0.61947659 -0.18481058 0.032489573)
(0.67824281 -0.18388195 0.035687379)
(0.67984007 -0.18889105 0.035966475)
(0.68123504 -0.19398383 0.03656073)
(0.74054827 -0.19255887 0.040264983)
(0.74214888 -0.19769986 0.04041195)
(0.74361701 -0.20297305 0.040814349)
(0.80328994 -0.20108326 0.044935743)
(0.80492472 -0.20638516 0.044994908)
(0.80645042 -0.21178472 0.045272661)
(0.86635572 -0.2095248 0.049744224)
(0.86801072 -0.2149343 0.049749864)
(0.86958855 -0.22041276 0.049888256)
(0.9296453 -0.21783608 0.054619921)
(0.93133012 -0.22333313 0.054586701)
(0.93293876 -0.22889272 0.054630342)
(0.9930317 -0.22609505 0.059602213)
(0.99471742 -0.23164023 0.05952001)
(0.99638116 -0.23723935 0.059485191)
(1.0564651 -0.23427357 0.064570991)
(1.0581982 -0.23990178 0.064483862)
(1.0598822 -0.24552648 0.06442118)
(1.1199399 -0.24244662 0.069580631)
(1.1216411 -0.24805685 0.069480961)
(1.1233599 -0.2536645 0.069409855)
(1.2077358 -0.060847566 0.083819565)
(1.2094722 -0.066474549 0.083750999)
(1.2111727 -0.072121178 0.083728699)
(1.1995147 -0.12402427 0.080763162)
(1.2012522 -0.12964047 0.080663841)
(1.2029076 -0.13523252 0.080602006)
(1.1914601 -0.18732718 0.077656706)
(1.1931745 -0.19293329 0.077579274)
(1.1948765 -0.19855088 0.077493353)
(0.012471942 0.013602347 0.0072038901)
(0.012051142 0.014403219 0.0022573748)
(0.013469697 0.01361394 -0.0033985232)
(0.023747716 0.02982766 0.0074289832)
(0.02487055 0.029756389 0.00041244566)
(0.023731638 0.028754819 -0.0060379346)
(0.045962446 0.046316657 0.0089019833)
(0.046168522 0.044621184 0.0033241503)
(0.046342764 0.044233734 -0.0042307873)
(0.073711112 0.057064432 0.0093788124)
(0.074962916 0.055997671 0.0044419291)
(0.074329235 0.054631219 -0.0019109369)
(0.10866734 0.068423087 0.011489699)
(0.10991063 0.066515293 0.006036159)
(0.10948311 0.064934415 0.00098595075)
(0.14930809 0.075721914 0.012701818)
(0.14996839 0.073088884 0.009068771)
(0.15016347 0.071535447 0.0038645732)
(0.19386187 0.081446591 0.014986611)
(0.19507702 0.079184828 0.01127072)
(0.19520254 0.076752789 0.0070913859)
(0.24301011 0.085175936 0.017368165)
(0.24404278 0.082068528 0.014304681)
(0.24422131 0.07959377 0.010546246)
(0.29481889 0.086991147 0.020272218)
(0.29610399 0.083585923 0.01720977)
(0.29628118 0.080776053 0.014517098)
(0.34973858 0.086918285 0.023142906)
(0.35075973 0.083277281 0.021285713)
(0.35141059 0.080133789 0.018274118)
(0.40653923 0.085547323 0.026536798)
(0.40768474 0.081739999 0.024477249)
(0.40816882 0.078295589 0.022358315)
(0.46514366 0.082893938 0.030073171)
(0.4661695 0.078751996 0.028593332)
(0.46699611 0.075105165 0.026725465)
(0.52496156 0.079096812 0.034004538)
(0.52618134 0.074807211 0.032647954)
(0.52699409 0.070845665 0.031155158)
(0.58595783 0.074477627 0.038058333)
(0.58712232 0.069947456 0.03702288)
(0.58807661 0.065742282 0.035786538)
(0.64765388 0.069044577 0.042450164)
(0.64892269 0.064317016 0.041546743)
(0.64997968 0.059902498 0.040562843)
(0.70998865 0.063003815 0.046950576)
(0.71131112 0.058116161 0.046254882)
(0.71245576 0.053470765 0.045461417)
(0.77275075 0.056460646 0.051710328)
(0.77413731 0.051396005 0.051115795)
(0.77538894 0.046562267 0.050503351)
(0.83581507 0.049463472 0.056548825)
(0.83727657 0.044287516 0.056090386)
(0.83861045 0.039274892 0.055625142)
(0.89906642 0.042170102 0.061539648)
(0.9005958 0.03683266 0.061194655)
(0.90203865 0.031648574 0.06083967)
(0.96241957 0.034541889 0.066642854)
(0.96405188 0.029150485 0.066298996)
(0.96554091 0.023841433 0.06607119)
(1.025864 0.026698632 0.071692256)
(1.0275197 0.021187799 0.071489671)
(1.029084 0.015778424 0.071341769)
(1.0892345 0.018724763 0.076785038)
(1.0909049 0.013218988 0.076661937)
(1.092559 0.0076835233 0.076552234)
(1.1526183 0.010576757 0.081928183)
(1.1543215 0.0049926832 0.081831737)
(1.1560369 -0.0006052165 0.081733147)
(-3.0937312e-05 0.0042192889 -0.0061759438)
(0.01342714 0.017048936 -0.0057750611)
(0.033604928 0.018853518 -0.0028983219)
(0.063992657 0.025002949 -0.0017341579)
(0.09891596 0.027903914 0.00080517445)
(0.13993448 0.029206867 0.0036485273)
(0.18543124 0.02974895 0.0066098108)
(0.23459795 0.028217936 0.0099137757)
(0.2871545 0.026142711 0.013371189)
(0.34222359 0.022400528 0.017150558)
(0.39942446 0.018187776 0.020954007)
(0.45837117 0.012729167 0.025120661)
(0.51864629 0.0068890244 0.029369817)
(0.57992378 0.00038029199 0.033791647)
(0.64205344 -0.0065915578 0.03840576)
(0.70473638 -0.013883723 0.04311995)
(0.76786701 -0.021489429 0.048002566)
(0.83130291 -0.029293479 0.052966578)
(0.89491072 -0.037241785 0.058035179)
(0.95860884 -0.045295562 0.063139578)
(1.0223443 -0.053414772 0.068304114)
(1.0859297 -0.061532243 0.073432145)
(1.1495626 -0.069700698 0.078583425)
(-0.0037038505 0.0021559397 0.0010511547)
(0.010617124 0.001936352 0.00050077533)
(0.032726359 -0.0013636848 0.0022695237)
(0.062043932 -0.0017121694 0.0026914384)
(0.096158338 -0.0048203913 0.0041781615)
(0.13705837 -0.0089236031 0.006649896)
(0.18141481 -0.012554714 0.0084508952)
(0.23033622 -0.017992107 0.011280294)
(0.28213333 -0.023578985 0.014124712)
(0.33672158 -0.029902185 0.017298392)
(0.39339368 -0.036548365 0.020667498)
(0.45201913 -0.043870183 0.024370242)
(0.51182969 -0.05123164 0.028182403)
(0.57289486 -0.059067906 0.032313983)
(0.63473684 -0.066941303 0.036557499)
(0.69722148 -0.075064984 0.041037787)
(0.76020022 -0.083219149 0.045666811)
(0.82349663 -0.091462463 0.050414794)
(0.88699759 -0.099730509 0.055324314)
(0.95061945 -0.10798267 0.060273872)
(1.0142712 -0.1162743 0.065328253)
(1.0778069 -0.12446708 0.070380127)
(1.1414744 -0.13272513 0.075472977)
(-0.0054533154 -0.0056139265 0.0059973351)
(0.012538348 -0.0093265244 0.0061986895)
(0.033012153 -0.022384757 0.0090264779)
(0.06055523 -0.025721359 0.0071229457)
(0.095144907 -0.036912894 0.0094690248)
(0.13482074 -0.045164214 0.010102782)
(0.17839489 -0.053530862 0.011497322)
(0.22679623 -0.063546938 0.013604897)
(0.27752558 -0.071922857 0.01565033)
(0.33174732 -0.081535532 0.018217592)
(0.38773931 -0.09057038 0.021058161)
(0.44581843 -0.099772262 0.024128229)
(0.50526141 -0.10897625 0.027593599)
(0.56592636 -0.11798966 0.031204778)
(0.62748214 -0.12705814 0.035143592)
(0.6897286 -0.13598061 0.039269408)
(0.752521 -0.1448229 0.043613747)
(0.81565318 -0.15357752 0.048120948)
(0.87906599 -0.16224237 0.052808587)
(0.94259844 -0.17079974 0.057576467)
(1.0061852 -0.17926961 0.062494891)
(1.0697604 -0.18765055 0.06741088)
(1.133252 -0.19596201 0.072456452)
(0.0031329539 0.0041442389 0.0046651495)
(0.0030726792 0.0045779797 0.0014562826)
(0.0045273924 0.0039184218 -0.002370292)
(0.017770663 0.017110301 0.0037121513)
(0.019671164 0.01650463 0.00033065918)
(0.018109562 0.015838552 -0.003729148)
(0.03910255 0.022900746 0.0051371699)
(0.038875512 0.021927427 0.0020637672)
(0.039123619 0.021050271 -0.00065223807)
(0.067012207 0.029665948 0.0060984724)
(0.068797044 0.028445113 0.0031006679)
(0.068239336 0.026165867 0.00051445805)
(0.10196121 0.033896004 0.0073349079)
(0.10293473 0.031687153 0.0053235157)
(0.10289675 0.029934259 0.0026260596)
(0.14209513 0.036307029 0.0096039704)
(0.14337965 0.034421507 0.0074620862)
(0.14309744 0.031856069 0.0053089386)
(0.18657851 0.037728619 0.011696972)
(0.18776417 0.035307497 0.0098514152)
(0.18804923 0.032393571 0.008071118)
(0.23529543 0.037724587 0.014250684)
(0.23670284 0.034457425 0.012732909)
(0.23673287 0.031475559 0.011174582)
(0.28717851 0.035817818 0.017122944)
(0.2882718 0.032863234 0.015955701)
(0.28870497 0.02956435 0.014467996)
(0.34166498 0.033434308 0.020281064)
(0.34293594 0.030043763 0.019106573)
(0.34343104 0.026161098 0.017999641)
(0.3984158 0.029821963 0.023669731)
(0.39960088 0.025989736 0.022731807)
(0.40015925 0.022177852 0.021808733)
(0.45677557 0.025244644 0.027338326)
(0.45803283 0.021317592 0.026578858)
(0.45880026 0.017142615 0.025729286)
(0.51662874 0.020131288 0.031224247)
(0.51790866 0.015874142 0.030527282)
(0.51873596 0.011471536 0.029923356)
(0.57750398 0.014275106 0.035322871)
(0.57879733 0.0098314652 0.03481837)
(0.57973974 0.0052030533 0.034253349)
(0.63919532 0.0079685949 0.039658835)
(0.64054424 0.0032745673 0.03919843)
(0.64159666 -0.0015284983 0.038768937)
(0.70152578 0.0012125712 0.044153419)
(0.70291882 -0.0036248399 0.043809228)
(0.70405658 -0.0086408132 0.043438189)
(0.7642874 -0.0058598805 0.048841948)
(0.76573511 -0.010905485 0.048549141)
(0.76698062 -0.016072698 0.048260348)
(0.82738545 -0.01324491 0.053648283)
(0.82889045 -0.018427199 0.053431397)
(0.83020615 -0.023732405 0.053182579)
(0.8906855 -0.020807117 0.058581657)
(0.89223092 -0.026146131 0.058406427)
(0.89367725 -0.031582196 0.058221525)
(0.95405809 -0.028647988 0.063608273)
(0.95572206 -0.034080643 0.06347285)
(0.95718399 -0.039560744 0.063291651)
(1.0175567 -0.036560958 0.068627028)
(1.0192899 -0.042022652 0.068551376)
(1.0208089 -0.047625649 0.068432591)
(1.0809899 -0.044609727 0.073767331)
(1.0826508 -0.050139798 0.073672721)
(1.0842815 -0.055792489 0.073544404)
(1.1444394 -0.052700518 0.078821548)
(1.1461538 -0.058304299 0.078723269)
(1.1478581 -0.063957804 0.078644699)
(-0.00078670629 0.0012919123 -0.00038363896)
(0.0005326793 0.0018127486 -0.00054914311)
(0.0016954443 0.0014991596 -9.7252433e-05)
(0.014924841 0.0023325704 -0.0013399353)
(0.016309181 0.0023732752 -0.0010880408)
(0.014469511 0.0013759528 -0.00051851952)
(0.035943346 0.0026829211 0.00067242066)
(0.03701112 0.0012851858 0.0019564261)
(0.036913406 0.00025847635 0.0014600945)
(0.063349686 0.0017231221 0.0015497975)
(0.066043219 -0.00010607394 0.0022266134)
(0.065015142 -0.0023219744 0.0020905888)
(0.098156031 0.00044231406 0.0038846894)
(0.099846642 -0.0018902411 0.0050088972)
(0.099003986 -0.0032548665 0.0036888058)
(0.13744765 -0.0021413529 0.0059591861)
(0.13925218 -0.0049066381 0.0062367354)
(0.13901256 -0.0071893727 0.006077947)
(0.18151514 -0.0049898217 0.0081142052)
(0.18337367 -0.0082284448 0.009006747)
(0.18301977 -0.010967044 0.0080683824)
(0.2298413 -0.0095306839 0.01123887)
(0.23142928 -0.012919526 0.011685952)
(0.23136311 -0.015340224 0.010942834)
(0.28088937 -0.013913586 0.01402823)
(0.28255666 -0.017499543 0.014251089)
(0.28272456 -0.020910056 0.013727833)
(0.33521208 -0.019305837 0.017315532)
(0.33673971 -0.023433302 0.017708141)
(0.33704582 -0.026654418 0.017141146)
(0.39139022 -0.025328531 0.020804093)
(0.39288187 -0.029426659 0.021066843)
(0.3933575 -0.033212139 0.020399658)
(0.44953739 -0.031620137 0.024509039)
(0.45101488 -0.036030348 0.02467011)
(0.45168317 -0.039934539 0.024197574)
(0.50908724 -0.038380122 0.02843924)
(0.51056721 -0.042907242 0.028604003)
(0.51130178 -0.047221638 0.028061733)
(0.56971803 -0.045414706 0.032571093)
(0.57118679 -0.050218034 0.032637811)
(0.57208419 -0.054633815 0.032191339)
(0.63127519 -0.052729776 0.036905917)
(0.63276755 -0.057602596 0.036937792)
(0.63378409 -0.062332723 0.036508147)
(0.69345359 -0.060207624 0.041383283)
(0.69496847 -0.06528572 0.041383921)
(0.6960972 -0.070172969 0.041000695)
(0.75615137 -0.067875744 0.046059762)
(0.75769548 -0.073060284 0.046013116)
(0.75892308 -0.07817482 0.045664977)
(0.81918559 -0.075656056 0.050821366)
(0.82075146 -0.080991464 0.05075453)
(0.82210557 -0.086207924 0.050448187)
(0.8824535 -0.083565151 0.055731025)
(0.88407788 -0.08896107 0.055644136)
(0.88550497 -0.094362333 0.055381278)
(0.9458763 -0.09152785 0.060691843)
(0.94750701 -0.097074773 0.06058279)
(0.9490284 -0.10249881 0.060342847)
(1.0094193 -0.099580536 0.065723879)
(1.0109595 -0.10518058 0.065554943)
(1.0126499 -0.11068394 0.065434014)
(1.072769 -0.10770473 0.070726549)
(1.0744844 -0.113239 0.070642675)
(1.0761136 -0.1188793 0.070460619)
(1.1363042 -0.1158479 0.075756428)
(1.1380265 -0.12146309 0.075662864)
(1.139742 -0.12706077 0.075576244)
(-0.00074041432 -0.0036513492 -0.0027558972)
(-0.001028309 -0.0034138571 -0.00029780265)
(-0.0008978622 -0.0031784664 0.0026706648)
(0.01656656 -0.0098613992 -0.0031818119)
(0.018089836 -0.0081731323 0.00036509382)
(0.016864758 -0.0099184022 0.0033650526)
(0.034934497 -0.016971947 -0.002174296)
(0.036576035 -0.02050088 0.0013568323)
(0.037172296 -0.021034642 0.004967965)
(0.063769215 -0.025229934 -0.00083399983)
(0.064707435 -0.024987352 0.0020302594)
(0.065038808 -0.026919291 0.0045477204)
(0.096326227 -0.031705815 0.0012534041)
(0.098019725 -0.034702664 0.0038570449)
(0.098472844 -0.036017356 0.0062354199)
(0.13543656 -0.039708732 0.0029047608)
(0.13679217 -0.041925661 0.0052072802)
(0.13733473 -0.044239193 0.0071457947)
(0.17880592 -0.047805323 0.005813107)
(0.17994665 -0.050335265 0.0079137851)
(0.18093033 -0.052522979 0.0094004261)
(0.22592156 -0.055275278 0.0084087114)
(0.22733158 -0.058533394 0.0097538095)
(0.22822465 -0.061439491 0.011267446)
(0.27666701 -0.063607241 0.011295215)
(0.27781349 -0.066812323 0.012843337)
(0.27898331 -0.069921958 0.014043422)
(0.33004153 -0.071816499 0.014741645)
(0.33136055 -0.075393097 0.015818965)
(0.33245625 -0.078839233 0.016664272)
(0.38570203 -0.079930733 0.018112918)
(0.38693465 -0.083812321 0.018969055)
(0.38827058 -0.087576088 0.019793538)
(0.44337082 -0.08833112 0.021871996)
(0.44466928 -0.092375717 0.022593709)
(0.44595369 -0.096365531 0.023144926)
(0.50241457 -0.096553779 0.025747162)
(0.50368729 -0.10092333 0.026267117)
(0.50513169 -0.10523007 0.026700841)
(0.56273801 -0.10491508 0.029848393)
(0.56408232 -0.10943012 0.030227369)
(0.56551102 -0.11392393 0.030571113)
(0.62396235 -0.11319175 0.034107363)
(0.62531434 -0.11792433 0.034396925)
(0.62685364 -0.1226785 0.034609209)
(0.68591751 -0.1214758 0.03855081)
(0.68734857 -0.12639239 0.038726793)
(0.68887856 -0.13133882 0.038863697)
(0.74842134 -0.12975461 0.04313993)
(0.74986772 -0.13482695 0.043237414)
(0.75148002 -0.13995223 0.043324511)
(0.81130722 -0.13799419 0.047855749)
(0.81284403 -0.14323351 0.047909825)
(0.8144647 -0.148485 0.047919583)
(0.87448961 -0.14625009 0.052699706)
(0.87604083 -0.15157077 0.052687824)
(0.8777028 -0.15696836 0.052670018)
(0.93782107 -0.15447176 0.057632536)
(0.93946173 -0.1599374 0.057578407)
(0.94113487 -0.16540024 0.057528765)
(1.0012494 -0.16268461 0.062575203)
(1.0028922 -0.168181 0.062535643)
(1.0045936 -0.17370569 0.062468943)
(1.0646916 -0.17090928 0.067638123)
(1.0664016 -0.17648543 0.067571987)
(1.0681353 -0.18205355 0.067484599)
(1.1281214 -0.17911307 0.072640951)
(1.1298276 -0.18471809 0.072558298)
(1.131536 -0.19033985 0.072468355)
)
;

boundaryField
{
    free
    {
        type            calculated;
    }
    fixed
    {
        type            calculated;
    }
    freeTop
    {
        type            calculated;
    }
}


// ************************************************************************* //
