/*--------------------------------*- C++ -*----------------------------------*\
  =========                 |
  \\      /  F ield         | OpenFOAM: The Open Source CFD Toolbox
   \\    /   O peration     | Website:  https://openfoam.org
    \\  /    A nd           | Version:  6
     \\/     M anipulation  |
\*---------------------------------------------------------------------------*/
FoamFile
{
    version     2.0;
    format      ascii;
    class       pointVectorField;
    location    "0.72";
    object      lm;
}
// * * * * * * * * * * * * * * * * * * * * * * * * * * * * * * * * * * * * * //

dimensions      [1 -2 -1 0 0 0 0];

internalField   nonuniform List<vector> 
28033
(
(-1.780536e-14 4.8656612e-16 1.3104288e-15)
(-5.4375576e-15 3.3318594e-15 9.9433006e-16)
(-7099.9243 221.17602 -55.312496)
(-6598.8548 2943.0139 68.753466)
(-1.338461e-14 3.0090723e-15 -2.870051e-16)
(-1.2587315e-14 4.9008913e-15 -4.4266115e-15)
(-6630.8395 2999.1756 -15.996086)
(-7148.5669 248.00664 34.183306)
(-5.6329745e-15 1.0535579e-15 6.7193838e-16)
(-2.4534443e-15 3.0423504e-16 5.8836893e-16)
(-5.4923298e-15 2.4302826e-15 8.9528572e-16)
(-2.6209443e-15 -1.1537891e-15 -6.7979696e-16)
(-7.2548563e-15 1.5542294e-15 1.0013199e-15)
(-4.7613589e-15 -9.2108094e-16 -7.3952737e-16)
(-1.132389e-15 -2.2256662e-17 -6.4484848e-16)
(-7.4239857e-16 -2.4218299e-16 -3.6669977e-16)
(-1.1196198e-15 4.5550132e-16 8.383863e-16)
(-2.3465882e-16 2.2667819e-16 1.4996246e-15)
(-4.0583243e-15 -8.7236639e-16 -1.3429605e-15)
(-5.8237189e-15 8.4462789e-16 7.5519031e-16)
(-5.1611762e-15 1.0100276e-15 9.7613867e-16)
(-1.7679952e-15 -8.1010255e-16 4.5192313e-16)
(-4.4158752e-15 1.0299569e-15 -9.452958e-16)
(-6951.1197 391.6353 -38.60875)
(-6760.7655 551.90532 -23.629912)
(-6611.5134 706.40624 -11.459703)
(-6520.2015 859.51379 -2.4967915)
(-6494.2661 1018.6527 4.5794163)
(-6530.6982 1187.896 9.6436636)
(-6618.0056 1369.7809 14.174619)
(-6736.4215 1564.3196 18.117281)
(-6862.1099 1767.7368 21.246627)
(-6969.7243 1974.1264 24.667181)
(-7038.3113 2175.7719 28.647028)
(-7051.6616 2365.6807 33.364708)
(-7002.9652 2536.3688 40.085003)
(-6895.5044 2685.9495 47.908606)
(-6747.1233 2816.5708 57.616825)
(12.776159 -4.0423911 -16.673414)
(43.982084 -10.583927 -39.178902)
(75.231662 -24.662808 -60.889777)
(101.91636 -43.350227 -79.321349)
(122.41561 -66.077431 -93.494617)
(134.98179 -91.100165 -103.57026)
(138.55806 -117.68931 -108.94806)
(133.08627 -144.49579 -109.71465)
(118.28481 -170.90678 -106.31235)
(94.753154 -195.93732 -98.668221)
(63.109327 -218.77808 -87.360279)
(24.334306 -239.15604 -73.181858)
(-20.267188 -256.39411 -56.98139)
(-69.486773 -270.30826 -39.27076)
(-121.43551 -280.80496 -21.298665)
(-175.00576 -288.13711 -3.6369053)
(-228.58479 -292.47638 12.363854)
(-281.31487 -293.91217 26.590565)
(-331.89269 -293.10989 38.0993)
(-379.64602 -290.46957 46.516472)
(-424.20472 -286.44475 51.59192)
(-465.47972 -281.41987 53.373204)
(-503.49744 -275.92062 51.878195)
(-538.89743 -270.16237 47.647167)
(-572.15146 -264.56652 40.793036)
(-604.18215 -259.13384 32.303368)
(-635.95677 -254.09188 22.67298)
(-668.39098 -249.43772 12.633455)
(-702.58382 -245.04452 2.7803286)
(-739.42772 -240.75173 -5.9097295)
(-779.65726 -236.50812 -13.190108)
(-823.93388 -231.90281 -18.477168)
(-872.68163 -226.79147 -21.488284)
(-926.11103 -221.06763 -22.128348)
(-984.01082 -214.53001 -20.263448)
(-1046.335 -206.99915 -16.170548)
(-1112.4531 -198.40807 -10.318557)
(-1182.0547 -188.96215 -2.9966447)
(-1254.0191 -178.3752 5.547914)
(-1327.9455 -167.15331 14.224979)
(-1402.5993 -155.30879 22.765961)
(-1477.4587 -143.14675 30.458058)
(-1551.5971 -130.92457 36.809989)
(-1624.3765 -119.00526 41.172002)
(-1695.1621 -107.65966 43.297338)
(-1763.631 -97.264092 42.783533)
(-1829.472 -88.093412 39.503151)
(-1892.729 -80.451892 33.387123)
(-1953.4713 -74.56624 24.529482)
(-2012.0998 -70.652823 13.128235)
(-2069.0714 -68.852335 -0.49972674)
(-2125.0903 -69.26736 -15.943535)
(-2180.9345 -71.914911 -32.712741)
(-2237.5298 -76.76395 -50.253782)
(-2295.8605 -83.686144 -67.973284)
(-2356.9603 -92.495629 -85.25533)
(-2421.871 -102.90766 -101.48885)
(-2491.595 -114.581 -116.07726)
(-2567.0545 -127.08775 -128.47516)
(-2649.0594 -139.94309 -138.21061)
(-2738.2287 -152.62577 -144.88466)
(-2835.0094 -164.5966 -148.23607)
(-2939.5357 -175.29126 -148.13686)
(-3051.7667 -184.19437 -144.54696)
(-3171.2156 -190.81238 -137.82709)
(-3297.2731 -194.8777 -128.11138)
(-3428.9139 -195.92192 -115.97969)
(-3564.993 -193.77311 -102.26251)
(-3703.8187 -188.90002 -87.490845)
(-3843.9472 -180.93101 -72.800606)
(-3983.7495 -170.58019 -59.316234)
(-4121.6962 -157.98986 -47.546213)
(-4256.3546 -143.79118 -38.368927)
(-4386.5681 -128.64041 -32.539808)
(-4511.498 -113.12274 -30.496443)
(-4630.7038 -97.835742 -32.466625)
(-4744.2037 -83.360518 -38.401992)
(-4852.4476 -70.138572 -47.944708)
(-4956.2698 -58.498842 -60.550859)
(-5056.9366 -48.565305 -75.340007)
(-5155.9402 -40.357166 -91.361177)
(-5254.8248 -33.587995 -107.62582)
(-5355.3267 -28.022808 -122.84729)
(-5459.0049 -22.831449 -136.18277)
(-5567.1249 -17.658675 -146.62218)
(-5680.8581 -11.580089 -153.51691)
(-5800.4505 -3.7747249 -156.29825)
(-5926.4861 6.3449203 -154.97414)
(-6057.9071 19.719517 -149.46189)
(-6194.3439 36.512673 -140.70814)
(-6333.7312 57.441931 -128.33697)
(-6475.418 82.6798 -115.01674)
(-6615.8003 111.03179 -99.106681)
(-6754.6317 144.23262 -85.076349)
(-6893.1064 180.40957 -69.084691)
(21.853037 -12.545789 -11.36991)
(63.329522 -15.82236 8.6178886)
(108.98902 -9.1364987 31.171444)
(148.98599 0.95810023 51.511407)
(177.73435 19.682943 68.91937)
(197.47657 40.000139 81.915145)
(206.65363 63.111177 92.104606)
(204.97571 88.171984 97.739616)
(192.94526 113.90914 100.83286)
(171.52052 139.58526 99.944257)
(141.03265 164.98809 97.104394)
(103.36031 188.72458 91.564989)
(59.418698 210.91216 84.499537)
(10.882463 230.94683 76.54852)
(-40.635292 248.25219 67.843711)
(-93.96615 263.39563 59.354537)
(-147.775 275.61764 51.111142)
(-200.30966 285.7456 43.845946)
(-251.40999 293.89931 37.592482)
(-300.07711 300.22923 32.504206)
(-345.53527 305.7422 28.944563)
(-388.19713 310.57073 26.452344)
(-427.64576 315.36225 25.492698)
(-464.28529 320.80206 25.490479)
(-498.84071 327.1054 26.335877)
(-531.50439 335.0697 28.177286)
(-563.33485 344.58813 30.3245)
(-594.99315 356.25625 32.857767)
(-627.31259 369.76944 35.365433)
(-661.01804 385.43034 37.760883)
(-696.89136 402.77062 39.81121)
(-735.32345 421.89792 41.461379)
(-776.79651 442.20981 42.612317)
(-821.62689 463.43275 43.227086)
(-869.79354 485.19086 43.23045)
(-921.35222 506.9795 42.990225)
(-976.13085 528.47524 41.854854)
(-1033.7697 549.28032 40.621391)
(-1093.7133 569.18362 39.081727)
(-1155.6268 587.81443 37.412181)
(-1218.9317 605.23639 35.64926)
(-1283.1152 621.36352 33.913349)
(-1347.5827 636.32397 32.336428)
(-1411.879 650.3061 31.008044)
(-1475.5173 663.61224 30.056257)
(-1538.1484 676.61174 29.598244)
(-1599.4562 689.74321 29.771801)
(-1659.2645 703.48405 30.709037)
(-1717.4768 718.34831 32.556016)
(-1774.1332 734.84217 35.444375)
(-1829.3902 753.47348 39.496319)
(-1883.5377 774.7071 44.803865)
(-1937.0003 798.96907 51.418437)
(-1990.3293 826.619 59.336393)
(-2044.2058 857.94316 68.48701)
(-2099.4171 893.14135 78.724819)
(-2156.8422 932.32228 89.822386)
(-2217.4225 975.48731 101.47749)
(-2282.1175 1022.5405 113.31735)
(-2351.8698 1073.2727 124.91592)
(-2427.5462 1127.3722 135.82037)
(-2509.886 1184.4276 145.57057)
(-2599.4478 1243.9367 153.74356)
(-2696.568 1305.3221 159.96504)
(-2801.2949 1367.9464 163.9753)
(-2913.4266 1431.1752 165.60025)
(-3032.3396 1494.302 164.85367)
(-3157.2452 1556.6972 161.85052)
(-3287.1002 1617.7633 157.04051)
(-3420.4536 1677.0387 150.19099)
(-3555.8567 1734.6775 142.74846)
(-3691.5996 1789.4825 134.81896)
(-3826.5025 1842.4033 127.11022)
(-3958.9671 1893.1015 120.2309)
(-4087.7843 1942.0799 114.87045)
(-4212.1168 1989.7143 111.4349)
(-4331.3902 2036.5666 110.29533)
(-4445.525 2083.2686 111.6235)
(-4554.735 2130.3753 115.36665)
(-4659.7896 2178.4873 121.31749)
(-4761.7034 2228.03 129.00199)
(-4861.8244 2279.3121 137.82679)
(-4961.6548 2332.4608 147.04084)
(-5062.7716 2387.371 155.83574)
(-5166.6591 2443.7325 163.37055)
(-5274.6194 2500.9954 168.88002)
(-5387.6205 2558.4239 171.68737)
(-5506.231 2615.0993 171.32812)
(-5630.521 2670.0143 167.49234)
(-5760.0775 2722.0864 160.18255)
(-5893.9456 2770.2712 149.57864)
(-6030.7268 2813.6769 136.09417)
(-6168.6916 2851.4905 120.47619)
(-6305.7352 2883.5597 103.37335)
(-6448.9864 2913.5379 85.563539)
(3.2927448e-15 -1.3239155e-15 2.3845803e-16)
(2.4470133e-15 -9.6672015e-16 3.215493e-17)
(-9.0574249e-15 9.0550918e-16 6.4029168e-16)
(-1.2642219e-16 -5.721845e-16 4.4370095e-16)
(-7.6811722e-15 -4.9270561e-16 4.1193361e-16)
(-7.3893964e-15 2.7533729e-15 -1.0951501e-15)
(-3.2915852e-15 -8.1743692e-16 3.8364228e-16)
(-1.9032499e-15 5.3200654e-16 -8.2319016e-17)
(-4.7409759e-15 -4.8623412e-16 4.3918642e-16)
(-1.2869644e-14 1.1845665e-15 6.4228907e-16)
(-9.6157521e-15 1.4157374e-15 5.9836601e-16)
(-9.4077204e-15 4.9518432e-16 1.1192419e-15)
(-5.982767e-15 2.6210694e-16 3.0473736e-16)
(-1.1478475e-14 -5.3386198e-16 1.6580808e-15)
(-5.257323e-15 3.6289085e-16 2.8600704e-16)
(15.683102 -8.4573461 10.549015)
(53.499231 -6.0649421 -15.613141)
(101.22941 -7.0910054 -40.084477)
(135.72358 11.949584 -62.105001)
(166.61259 27.723811 -78.220049)
(182.04513 47.82201 -90.72302)
(192.43848 70.786235 -97.507354)
(187.29001 95.558028 -101.09749)
(175.8169 119.95886 -97.62197)
(152.06979 148.09758 -92.039922)
(119.88005 174.48529 -81.752087)
(81.599701 198.9313 -69.102821)
(36.271572 226.61715 -54.186591)
(-13.293607 248.41084 -38.837045)
(-64.705953 273.30178 -22.806873)
(-118.20728 292.57722 -8.8691471)
(-171.37291 312.11768 4.0212195)
(-221.85756 329.57532 14.983013)
(-271.73914 344.96394 21.817028)
(-316.22243 358.59652 26.586676)
(-358.52892 371.17267 27.242851)
(-397.12898 383.44473 24.879676)
(-432.08611 393.444 20.271071)
(-464.24865 403.94812 12.970778)
(-494.14648 414.45539 4.0390552)
(-522.7998 424.76036 -5.7730954)
(-550.25549 437.42309 -15.970948)
(-579.81548 448.8579 -25.901087)
(-609.04617 463.03334 -33.992406)
(-642.38574 477.42462 -41.063268)
(-678.09492 493.63112 -45.380925)
(-717.54396 510.93006 -47.500228)
(-761.07418 529.33712 -46.655697)
(-808.59752 548.85563 -43.268177)
(-861.58913 570.73898 -37.781955)
(-915.02888 588.63103 -29.184639)
(-974.77703 611.57457 -19.495425)
(-1036.0261 632.84994 -8.6193691)
(-1099.5019 654.11251 2.7605925)
(-1164.1773 675.04791 14.061713)
(-1229.3651 695.49209 24.620989)
(-1294.347 715.36814 33.859312)
(-1358.4716 734.62073 41.268062)
(-1421.2105 753.29227 46.441493)
(-1482.1433 771.48705 49.056592)
(-1540.998 789.36784 48.942183)
(-1597.6548 807.17443 46.021295)
(-1652.1413 825.18868 40.35195)
(-1704.6372 843.74835 32.091096)
(-1755.471 863.22271 21.508811)
(-1805.1016 884.00521 8.9498355)
(-1854.1167 906.50072 -5.1526811)
(-1903.2107 931.11351 -20.320789)
(-1953.1738 958.22495 -36.022097)
(-2004.865 988.19165 -51.708571)
(-2059.2002 1021.3143 -66.814134)
(-2117.1072 1057.8359 -80.791188)
(-2179.5146 1097.9168 -93.116933)
(-2247.2913 1141.6254 -103.32122)
(-2321.2275 1188.9249 -111.01102)
(-2401.9696 1239.6676 -115.88672)
(-2489.9979 1293.5793 -117.76828)
(-2585.5583 1350.2874 -116.62121)
(-2688.6718 1409.2898 -112.5401)
(-2799.0368 1470.0066 -105.81138)
(-2916.0937 1531.8194 -96.817876)
(-3039.1428 1594.0222 -86.302969)
(-3167.9502 1657.5848 -74.739868)
(-3297.8603 1715.1037 -63.588407)
(-3431.0299 1776.921 -51.701008)
(-3564.8778 1833.7659 -42.577273)
(-3697.2765 1889.122 -35.157188)
(-3827.6317 1941.9512 -30.883621)
(-3954.1365 1992.3293 -30.059688)
(-4076.202 2040.4981 -32.872714)
(-4193.234 2086.8241 -39.472395)
(-4305.061 2131.7596 -49.572566)
(-4412.0293 2175.9014 -62.688575)
(-4514.8347 2219.86 -78.088302)
(-4614.5747 2264.2623 -94.831924)
(-4712.6352 2309.6586 -111.83959)
(-4810.6137 2356.4986 -127.95643)
(-4910.1677 2405.0618 -142.04188)
(-5012.9174 2455.4426 -153.05424)
(-5120.2707 2507.4964 -160.13022)
(-5233.3448 2560.8631 -162.66452)
(-5352.8064 2614.9389 -160.35829)
(-5478.8584 2668.9328 -153.25835)
(-5611.1296 2721.8803 -141.75399)
(-5748.7595 2772.7242 -126.56828)
(-5890.34 2820.3667 -108.66745)
(-6034.1383 2863.7547 -89.237796)
(-6178.049 2902.0019 -69.483423)
(-6320.125 2934.3008 -50.348138)
(-6446.3917 2955.5046 -33.117319)
(-6786.6372 2869.2499 -6.5312582)
(-6947.8794 2739.5237 1.864485)
(-7040.3556 2578.5348 7.8821382)
(-7082.1279 2401.2051 12.408499)
(-7067.7066 2206.6554 14.418589)
(-6990.7219 1999.304 15.802267)
(-6887.5938 1790.7915 15.030794)
(-6779.1167 1589.0523 14.648159)
(-6641.1242 1388.0763 13.775595)
(-6550.4356 1205.3394 12.584373)
(-6534.1915 1039.3093 11.947576)
(-6566.6796 881.37718 12.687313)
(-6663.6083 729.70884 14.297501)
(-6821.7716 577.65636 18.366264)
(-7035.83 420.0575 25.584706)
(-6951.3618 207.14584 47.462622)
(-6830.6765 172.38799 61.3217)
(-6691.4338 139.42904 74.965018)
(-6549.2799 111.28374 88.966031)
(-6406.4206 88.112244 100.91323)
(-6264.3028 69.998604 111.35191)
(-6124.8338 56.884366 119.25561)
(-5989.3952 48.254303 124.36381)
(-5858.8701 43.454115 126.61569)
(-5733.7527 41.554709 125.99858)
(-5614.0938 41.48754 122.9453)
(-5499.4107 42.401739 117.66822)
(-5388.932 42.973861 110.96831)
(-5281.6967 42.69622 103.19972)
(-5176.4049 40.537331 95.15146)
(-5071.5883 36.027254 87.407978)
(-4965.7749 28.941641 80.723242)
(-4857.6747 19.183179 75.575876)
(-4746.2386 6.965496 72.289747)
(-4630.6711 -7.2652517 71.115802)
(-4510.5481 -22.911874 72.055761)
(-4385.8313 -39.19641 74.989371)
(-4256.7942 -55.316337 79.638317)
(-4124.1525 -70.356311 85.65892)
(-3988.7341 -83.67751 92.442282)
(-3852.0788 -94.277793 99.666283)
(-3715.3453 -101.23327 106.52564)
(-3579.2799 -105.27884 113.15)
(-3444.7449 -106.14899 118.97414)
(-3315.2767 -101.98939 122.69282)
(-3189.9207 -94.849189 125.38227)
(-3070.2264 -84.389096 126.35613)
(-2956.6514 -71.183214 125.82759)
(-2849.6146 -55.931024 123.83207)
(-2749.2227 -39.344035 120.55649)
(-2655.4047 -22.180905 116.2119)
(-2567.8718 -5.2080669 111.03734)
(-2486.1698 10.831274 105.26539)
(-2409.7186 25.28063 99.118483)
(-2337.8388 37.555995 92.785405)
(-2269.7975 47.201641 86.415291)
(-2204.8296 53.870817 80.117214)
(-2142.1786 57.363614 73.958852)
(-2081.1115 57.595426 67.974761)
(-2020.9488 54.62664 62.167855)
(-1961.0784 48.617062 56.532498)
(-1900.9674 39.853804 51.040993)
(-1840.1916 28.686697 45.683666)
(-1778.4092 15.57857 40.434467)
(-1715.4208 0.96378594 35.322351)
(-1651.1335 -14.54593 30.300117)
(-1585.5242 -30.567994 25.496468)
(-1518.8626 -46.438178 20.810261)
(-1451.1854 -61.862326 16.426697)
(-1382.9808 -76.277361 12.356634)
(-1314.7871 -89.410509 8.5289574)
(-1247.0042 -100.95758 5.1168202)
(-1182.5449 -110.90264 2.3892317)
(-1114.0655 -119.93245 -0.038616487)
(-1050.747 -126.11204 -2.1272495)
(-991.53397 -131.73291 -3.677468)
(-930.9445 -136.2038 -4.7354617)
(-875.78486 -139.305 -5.1857857)
(-823.65327 -142.3175 -5.5495022)
(-775.7799 -146.14532 -5.2158538)
(-728.48091 -149.04221 -4.7810068)
(-685.96336 -154.16897 -3.4409203)
(-644.05827 -158.87997 -2.2075893)
(-604.69374 -165.80371 -0.14578869)
(-566.40179 -174.07294 2.3725424)
(-528.19873 -183.61252 5.4366482)
(-490.34202 -194.75819 9.0910209)
(-450.95973 -205.58235 13.118259)
(-410.75663 -218.22186 18.243656)
(-368.64188 -229.67268 23.622554)
(-325.03673 -241.08291 29.687554)
(-279.40314 -250.1148 36.292306)
(-232.82178 -258.51215 43.216865)
(-184.67395 -262.35309 50.548724)
(-137.1878 -263.98283 57.444622)
(-90.216455 -262.50931 64.589959)
(-44.742281 -255.88545 70.970239)
(-2.2552126 -243.89671 76.347602)
(35.785506 -230.46383 81.237186)
(68.942413 -211.58547 84.598431)
(96.030411 -188.49178 85.90778)
(115.54093 -164.80507 86.283733)
(128.11274 -138.00674 84.170663)
(132.02701 -110.70046 80.069409)
(128.12966 -83.73559 73.454632)
(116.38096 -58.078491 64.717115)
(97.569077 -35.487604 53.674616)
(72.339613 -16.489394 40.18648)
(42.033721 -4.2330312 24.271437)
(12.500866 3.024987 5.0174949)
(-6.8708141e-15 1.5083581e-15 1.9262289e-16)
(-1.2504183e-14 5.7375616e-16 8.4327435e-16)
(-8.3449101e-15 1.4891922e-15 5.3018253e-16)
(-4.9731758e-15 1.4991158e-15 6.2376313e-16)
(-3.4146159e-15 1.5624416e-15 3.1576894e-17)
(2.0582335e-15 9.3962624e-16 -5.746342e-16)
(2.2101935e-15 3.7457559e-17 -1.1841335e-16)
(2.4553765e-15 -8.5141669e-16 -9.3419562e-16)
(1.2987427e-15 1.0081898e-16 1.7950851e-15)
(-4.5074861e-15 9.063971e-16 1.0710522e-15)
(-5.2682467e-15 2.1856155e-15 1.0652666e-15)
(-7.4917339e-15 1.915055e-15 2.2418828e-16)
(-9.400838e-15 1.3708275e-15 6.2833768e-16)
(-6.2048683e-15 1.3247981e-15 5.4317906e-16)
(-6.971104e-15 1.5128103e-15 7.5678131e-16)
(-1.2693866e-14 6.2923345e-15 -2.1364834e-15)
(-5.2452578e-15 2.6791924e-15 -5.3037742e-16)
(-1.0752404e-15 9.8318743e-16 -1.0111087e-16)
(-2.7353382e-15 1.7746034e-15 7.3085398e-17)
(1.0178949e-15 -1.5450237e-16 -4.119182e-16)
(-1.4303492e-15 4.136346e-16 -3.3264033e-16)
(-1.0059749e-14 4.7133437e-15 -1.6449855e-15)
(2.9801421e-15 -1.9180379e-15 -8.3172098e-16)
(-4.79756e-15 2.8035442e-15 1.1420498e-15)
(-5.4778068e-15 3.5047253e-15 -3.934403e-16)
(-1.8117877e-15 1.1581936e-15 -9.1309836e-16)
(-3.9812639e-16 4.7407236e-16 -2.2932148e-16)
(-1.5272242e-15 1.100363e-15 -2.2557932e-16)
(-4.1024849e-15 1.9838802e-15 2.8069696e-17)
(-5.3424143e-16 2.551799e-16 -1.9455919e-16)
(-6605.6217 2960.818 70.426315)
(-6614.9603 2976.728 69.627211)
(-6624.6738 2991.865 65.993685)
(-6635.1997 3006.5763 60.257313)
(-6645.1416 3020.1993 52.276599)
(-6653.9005 3032.6122 42.82104)
(-6660.7252 3043.2484 32.341538)
(-6665.1759 3051.4247 21.631327)
(-6666.9884 3056.8465 11.217772)
(-6666.2388 3059.0811 1.7580323)
(-6662.9778 3057.8224 -6.1170504)
(-6657.8094 3053.2266 -12.160402)
(-6651.1222 3045.1213 -15.884417)
(-6644.2343 3033.0384 -17.581293)
(-6636.4118 3018.3392 -16.561749)
(-7118.1655 211.08261 -56.294282)
(-7136.1443 204.25625 -56.240268)
(-7153.4164 199.45764 -53.978733)
(-7169.1902 196.55389 -49.450334)
(-7183.1427 195.15606 -42.923871)
(-7194.3279 195.11346 -34.481449)
(-7202.2203 196.24502 -24.676235)
(-7206.4923 198.44913 -14.029094)
(-7207.0881 201.5547 -3.1554584)
(-7204.2433 205.4568 7.3218536)
(-7198.4044 210.01759 16.767969)
(-7190.2094 215.32463 24.539189)
(-7180.6399 221.12698 30.327633)
(-7170.2339 228.30448 33.60334)
(-7159.5307 236.63964 34.356657)
(13.761947 -18.034957 -21.831311)
(45.00117 -31.39459 -37.686234)
(76.488235 -45.131581 -54.649821)
(104.13583 -60.321489 -69.100594)
(126.00977 -77.019307 -81.189657)
(140.24337 -95.165998 -89.837336)
(146.27881 -114.24791 -94.870513)
(143.30994 -133.69135 -96.208274)
(131.6637 -152.87207 -93.810692)
(111.08982 -171.31077 -88.03905)
(82.414664 -188.31743 -78.979022)
(46.251202 -203.85794 -67.41758)
(4.0734437 -217.29379 -53.652547)
(-43.330694 -228.79471 -38.628748)
(-94.17849 -237.9533 -22.813074)
(-147.57796 -245.04336 -7.3383056)
(-201.69698 -250.00557 7.4339354)
(-255.43028 -253.06834 20.632951)
(-307.76579 -254.41603 31.808357)
(-357.90675 -254.40218 40.358031)
(-405.04647 -253.08469 46.091641)
(-449.02515 -250.7962 48.931163)
(-489.81649 -247.84889 48.823971)
(-527.63076 -244.23259 46.064403)
(-563.11172 -240.29254 40.944538)
(-596.86211 -235.90046 33.984751)
(-629.91451 -231.17627 25.737628)
(-663.25764 -226.16138 16.869065)
(-697.85156 -220.71616 8.0201794)
(-734.76626 -214.67773 -0.18203612)
(-774.90262 -208.23009 -7.1789188)
(-818.99517 -200.95605 -12.519585)
(-867.54191 -192.98111 -15.811635)
(-920.88117 -184.16703 -16.986983)
(-979.14343 -174.52314 -15.832431)
(-1042.1034 -163.9344 -12.662083)
(-1109.3504 -152.69219 -7.6761103)
(-1180.2791 -140.78961 -1.1427089)
(-1254.1849 -128.31697 6.2958)
(-1330.2174 -115.66452 14.20261)
(-1407.3044 -102.95232 21.902877)
(-1484.6229 -90.369647 29.051139)
(-1561.2001 -78.488645 34.667499)
(-1636.333 -67.219657 38.707694)
(-1709.1821 -57.035726 40.519196)
(-1779.363 -48.073936 39.933126)
(-1846.5063 -40.551906 36.760096)
(-1910.5545 -34.609934 30.973049)
(-1971.5978 -30.347367 22.680495)
(-2029.9968 -27.825259 12.092765)
(-2086.2637 -27.045369 -0.45748723)
(-2141.1267 -27.958531 -14.56015)
(-2195.4432 -30.45581 -29.722655)
(-2250.2089 -34.378552 -45.408434)
(-2306.4956 -39.499229 -61.046215)
(-2365.4239 -45.545888 -76.06121)
(-2428.1173 -52.1874 -89.887543)
(-2495.6495 -59.057183 -101.99764)
(-2569.005 -65.750558 -111.92855)
(-2649.0172 -71.853888 -119.28774)
(-2736.3414 -76.962967 -123.78318)
(-2831.3694 -80.693156 -125.25654)
(-2934.258 -82.709391 -123.66376)
(-3044.8183 -82.700317 -119.14652)
(-3162.5698 -80.655436 -111.89928)
(-3286.9177 -76.301093 -102.37652)
(-3416.1269 -69.807909 -91.181033)
(-3549.803 -61.591124 -78.84378)
(-3685.6488 -51.196304 -66.0627)
(-3822.3844 -39.526423 -53.798491)
(-3958.1628 -26.752923 -42.890673)
(-4091.5594 -13.240632 -33.710075)
(-4221.1249 0.48051178 -27.064189)
(-4345.8033 13.997791 -23.404831)
(-4464.8259 27.070042 -22.970516)
(-4577.8995 39.399924 -25.871293)
(-4685.1221 50.831841 -31.888654)
(-4787.0351 61.346595 -40.714357)
(-4884.6184 70.94446 -51.719039)
(-4979.0913 79.880528 -64.28098)
(-5072.0372 88.27219 -77.455366)
(-5165.0257 96.633491 -90.598419)
(-5259.3894 105.25296 -102.5551)
(-5356.781 114.57935 -112.63314)
(-5459.9932 125.15416 -120.36424)
(-5568.0814 137.49833 -124.98605)
(-5682.0017 151.71216 -126.60714)
(-5802.2193 168.32727 -124.80073)
(-5928.2464 187.39461 -119.9518)
(-6058.9877 209.05194 -112.26506)
(-6193.8554 233.27536 -102.35384)
(-6330.4369 260.05889 -90.850834)
(-6467.448 288.76131 -78.1409)
(-6603.1532 319.89792 -65.683497)
(-6749.6257 353.74914 -52.142228)
(20.692493 -18.349827 -24.494881)
(49.945179 -32.004247 -35.769535)
(79.662415 -46.752342 -49.507792)
(106.96248 -61.055991 -61.164157)
(129.10404 -75.48941 -70.959983)
(144.52054 -90.557264 -78.194484)
(152.07704 -105.71781 -82.690701)
(151.37298 -120.9404 -84.102786)
(141.83997 -135.83379 -82.557431)
(123.87347 -150.1576 -77.942249)
(97.70993 -163.5216 -70.78013)
(63.934005 -175.85115 -60.987353)
(23.581971 -186.83812 -49.549315)
(-22.360708 -196.33603 -36.491917)
(-72.50356 -204.33908 -22.911126)
(-125.75132 -210.88901 -8.904022)
(-180.37014 -215.90577 4.3747451)
(-235.59411 -219.57239 16.707605)
(-289.84794 -221.93659 27.273256)
(-342.40689 -223.15958 35.847768)
(-392.32546 -223.3421 41.979749)
(-439.41514 -222.61737 45.544541)
(-483.26348 -221.05547 46.434889)
(-524.17914 -218.66985 44.860048)
(-562.40621 -215.50789 41.025141)
(-598.69571 -211.65192 35.349066)
(-633.81737 -206.96134 28.292249)
(-668.8073 -201.40071 20.48692)
(-704.70631 -194.94751 12.468517)
(-742.55614 -187.57059 4.8871653)
(-783.34163 -179.09114 -1.8050957)
(-827.88666 -169.59418 -7.018689)
(-876.85537 -159.04481 -10.475451)
(-930.66802 -147.46385 -11.998006)
(-989.46445 -134.94296 -11.403214)
(-1053.1326 -121.63182 -8.8184661)
(-1121.2637 -107.69705 -4.5157536)
(-1193.3041 -93.324041 1.1550724)
(-1268.3962 -78.791676 7.8639265)
(-1345.7575 -64.424187 14.975447)
(-1424.1959 -50.432311 22.035002)
(-1502.7267 -37.063375 28.393625)
(-1580.4813 -24.699326 33.660061)
(-1656.3099 -13.451546 37.126704)
(-1729.6396 -3.5422474 38.707184)
(-1799.7941 4.8822356 37.998485)
(-1866.4592 11.75205 34.921557)
(-1929.4867 17.028489 29.435231)
(-1989.0033 20.746958 21.699698)
(-2045.3571 22.957641 11.914428)
(-2099.1149 23.79877 0.44672697)
(-2151.0508 23.4186 -12.308503)
(-2202.0956 22.036424 -25.855576)
(-2253.3154 19.885663 -39.685034)
(-2305.8625 17.260505 -53.257765)
(-2360.9289 14.45723 -66.045453)
(-2419.7013 11.81746 -77.545194)
(-2483.3006 9.6735135 -87.311176)
(-2552.7346 8.3657679 -94.953626)
(-2628.8473 8.205136 -100.18443)
(-2712.251 9.4665928 -102.80392)
(-2803.3118 12.369718 -102.74676)
(-2902.0999 17.087451 -100.07975)
(-3008.3175 23.611921 -94.91041)
(-3121.4215 31.951705 -87.660674)
(-3240.6884 42.083355 -78.71109)
(-3363.317 53.686467 -68.627631)
(-3500.9091 67.193962 -58.063198)
(-3634.1212 80.958344 -47.286568)
(-3765.3555 95.145888 -37.204179)
(-3894.9937 109.38749 -28.437121)
(-4021.833 123.57044 -21.446283)
(-4144.5744 137.1127 -16.740009)
(-4262.2686 150.01611 -14.580582)
(-4374.3683 162.12086 -15.134461)
(-4480.6586 173.40472 -18.369846)
(-4581.4269 183.95952 -24.056707)
(-4677.3026 193.94803 -31.872426)
(-4769.3654 203.57917 -41.24853)
(-4858.8104 213.21596 -51.68417)
(-4947.35 223.07413 -62.370481)
(-5036.3024 233.72478 -72.877505)
(-5128.097 245.22448 -82.058383)
(-5207.2699 257.54035 -89.986332)
(-5293.8844 271.32715 -95.298793)
(-5397.7251 287.26569 -98.792126)
(-5509.2175 305.29131 -99.536946)
(-5627.2456 325.29409 -97.818)
(-5751.4688 347.30946 -93.557931)
(-5880.9501 371.11123 -87.297855)
(-6014.9374 396.9193 -78.964819)
(-6151.7686 424.31414 -69.732667)
(-6289.7047 452.86859 -58.90637)
(-6427.7485 483.42006 -48.429782)
(-6575.0138 516.02494 -36.254723)
(26.543603 -17.667582 -25.314654)
(56.600168 -30.351684 -34.571036)
(85.643579 -44.381231 -46.075471)
(112.42218 -57.960484 -55.146399)
(134.45558 -71.06067 -62.923765)
(150.41056 -84.211949 -68.90543)
(159.16929 -96.993459 -72.609119)
(159.6829 -109.64202 -73.860388)
(151.92457 -121.78837 -72.52819)
(135.56399 -133.43486 -68.833577)
(110.9009 -144.20482 -62.553291)
(78.416551 -154.21322 -54.384098)
(39.067695 -163.04044 -44.223307)
(-6.3651458 -170.91351 -32.995441)
(-56.543094 -177.53992 -20.700932)
(-110.27567 -183.04782 -8.3456182)
(-166.19349 -187.4311 3.8323537)
(-223.00711 -190.74303 15.100446)
(-279.44817 -193.04904 25.048547)
(-334.54925 -194.40008 33.247979)
(-387.39953 -194.85412 39.277752)
(-437.4468 -194.41991 43.069534)
(-484.33588 -193.13413 44.439472)
(-528.1199 -190.97213 43.554298)
(-569.08945 -187.92441 40.520281)
(-607.79817 -183.88095 35.743871)
(-645.03049 -178.74641 29.59334)
(-681.77377 -172.51403 22.638634)
(-719.04418 -165.063 15.385867)
(-757.95254 -156.29063 8.3840832)
(-799.49699 -146.27379 2.1977701)
(-844.57083 -134.95324 -2.7547906)
(-893.94337 -122.35847 -6.1650596)
(-947.99172 -108.67916 -7.722608)
(-1006.9247 -94.026295 -7.394074)
(-1070.7547 -78.550933 -5.2855292)
(-1138.9724 -62.654001 -1.5186563)
(-1211.0377 -46.506619 3.6142725)
(-1286.2083 -30.405323 9.6077288)
(-1363.3466 -14.636493 16.075934)
(-1441.4682 0.35772925 22.396429)
(-1519.4712 14.41763 28.209848)
(-1596.2621 27.272428 32.831853)
(-1670.8835 38.696195 35.934831)
(-1742.5431 48.674679 37.224144)
(-1810.6216 57.014519 36.469717)
(-1874.7519 63.782405 33.547167)
(-1934.8048 69.011713 28.490862)
(-1990.9154 72.823858 21.431043)
(-2043.4608 75.364841 12.611988)
(-2093.0561 76.851489 2.3770127)
(-2140.5174 77.501607 -8.8817742)
(-2186.8328 77.599238 -20.694177)
(-2233.1206 77.415635 -32.589827)
(-2280.5847 77.27138 -44.074567)
(-2330.4581 77.462552 -54.680868)
(-2383.961 78.314265 -63.982298)
(-2442.2269 80.108771 -71.598928)
(-2506.2729 83.123751 -77.236519)
(-2576.9096 87.575811 -80.680902)
(-2654.738 93.640734 -81.820247)
(-2740.0596 101.42309 -80.665813)
(-2832.8904 110.91337 -77.291184)
(-2932.8919 122.07558 -71.923899)
(-3039.4285 134.77258 -64.972951)
(-3153.1913 148.81569 -56.61475)
(-3259.1582 163.30287 -47.566114)
(-3403.5147 179.36762 -38.057943)
(-3528.938 195.90786 -29.113139)
(-3652.2763 212.02332 -20.855261)
(-3773.4832 227.8812 -13.939156)
(-3891.8826 243.17635 -8.7042118)
(-4006.396 257.69494 -5.4294718)
(-4116.3859 271.37625 -4.3836348)
(-4221.2295 284.24458 -5.5868939)
(-4321.0034 296.37216 -8.952067)
(-4416.0573 307.91331 -14.220158)
(-4507.1609 319.12515 -21.083986)
(-4595.3873 330.26475 -29.06514)
(-4682.0054 341.68786 -37.719224)
(-4768.5362 353.671 -46.415269)
(-4856.4345 366.59999 -54.78658)
(-4947.5958 380.66314 -62.093686)
(-5042.7502 396.24528 -68.271903)
(-5117.9129 411.49107 -71.905603)
(-5219.7767 429.81147 -74.298227)
(-5333.4277 450.4469 -74.586213)
(-5454.6669 473.02449 -73.06652)
(-5582.6677 497.27602 -69.524151)
(-5716.6387 523.18549 -64.460935)
(-5856.1187 550.53589 -57.798042)
(-5999.1792 579.28784 -50.286276)
(-6144.5956 608.84596 -41.640411)
(-6291.3597 640.03146 -32.731494)
(-6443.7244 672.75583 -22.660993)
(31.980001 -16.627353 -24.766264)
(63.433389 -27.688724 -32.23253)
(92.866838 -40.125384 -41.873518)
(119.87389 -52.433113 -49.211691)
(142.03795 -64.278829 -55.608489)
(158.50517 -75.996049 -60.310609)
(167.62781 -87.260445 -63.108454)
(168.96705 -98.076183 -63.870918)
(161.80669 -108.27197 -62.608953)
(145.97859 -117.89554 -59.009048)
(121.68591 -126.72459 -53.567594)
(89.378949 -134.74928 -46.0878)
(49.712896 -141.80031 -37.273777)
(3.6779591 -147.99435 -27.076051)
(-47.496029 -153.06369 -16.30117)
(-102.64192 -157.34901 -5.1509624)
(-160.26996 -160.54529 5.6946485)
(-219.14266 -162.97926 15.885633)
(-277.87688 -164.46716 24.877373)
(-335.44519 -165.21748 32.329713)
(-390.81051 -165.1165 37.926861)
(-443.42008 -164.25292 41.492073)
(-492.812 -162.50761 42.910459)
(-539.01285 -159.89116 42.268432)
(-582.17277 -156.21547 39.71459)
(-622.86962 -151.48661 35.561939)
(-661.83022 -145.51573 30.170838)
(-700.02462 -138.2484 24.039958)
(-738.47446 -129.54643 17.597831)
(-778.30379 -119.43979 11.413609)
(-820.48581 -107.84451 5.9223644)
(-866.00816 -94.819398 1.4881959)
(-915.4951 -80.506991 -1.4700819)
(-969.48917 -65.026307 -2.8695714)
(-1028.1405 -48.595389 -2.5478756)
(-1091.4561 -31.489272 -0.64493914)
(-1158.7961 -14.066385 2.7719164)
(-1229.7706 3.358779 7.2918969)
(-1303.5925 20.489612 12.560337)
(-1379.0484 37.046038 18.221398)
(-1455.1169 52.615432 23.732052)
(-1530.7287 67.074516 28.647851)
(-1604.7427 80.025486 32.577038)
(-1676.2252 91.484572 35.118675)
(-1744.376 101.31946 36.001307)
(-1808.611 109.54249 35.079452)
(-1868.5793 116.21237 32.266046)
(-1924.1643 121.46366 27.609542)
(-1975.5377 125.47492 21.267425)
(-2023.1047 128.45908 13.478893)
(-2067.5101 130.67958 4.5682739)
(-2109.5972 132.40083 -5.0915837)
(-2150.3804 133.92977 -15.080854)
(-2190.9967 135.54723 -24.978818)
(-2232.6625 137.5701 -34.357626)
(-2276.6175 140.26745 -42.82968)
(-2324.0767 143.92642 -50.040373)
(-2376.1673 148.77139 -55.70209)
(-2433.8807 155.01263 -59.597525)