/*--------------------------------*- C++ -*----------------------------------*\
  =========                 |
  \\      /  F ield         | OpenFOAM: The Open Source CFD Toolbox
   \\    /   O peration     | Website:  https://openfoam.org
    \\  /    A nd           | Version:  6
     \\/     M anipulation  |
\*---------------------------------------------------------------------------*/
FoamFile
{
    version     2.0;
    format      ascii;
    class       pointVectorField;
    location    "0.92";
    object      u;
}
// * * * * * * * * * * * * * * * * * * * * * * * * * * * * * * * * * * * * * //

dimensions      [0 1 0 0 0 0 0];

internalField   nonuniform List<vector> 
3969
(
(0 0 0)
(0 0 0)
(2.8138605 -0.44357527 0.032033336)
(2.5983144 -1.0628978 0.021790137)
(0 0 0)
(0 0 0)
(2.6016444 -1.0750671 0.021201257)
(2.8170886 -0.45592169 0.031440115)
(0 0 0)
(0 0 0)
(0 0 0)
(0 0 0)
(0 0 0)
(0 0 0)
(0 0 0)
(2.7863784 -0.52150198 0.030367179)
(2.7592004 -0.59866481 0.029179303)
(2.7322616 -0.67572834 0.027953683)
(2.7055281 -0.75274386 0.026889121)
(2.6788938 -0.8298625 0.025752457)
(2.6522391 -0.90715165 0.024630779)
(2.6255538 -0.98479696 0.02328909)
(0.0075913168 0.016262162 0.017885816)
(0.012300454 0.029202477 0.021938309)
(0.021739124 0.043410093 0.02469327)
(0.035970476 0.057074914 0.025451418)
(0.053783361 0.070767895 0.026000727)
(0.076193547 0.083462878 0.025854147)
(0.10193397 0.095466942 0.025958107)
(0.13187018 0.10627584 0.025639349)
(0.16504757 0.11597319 0.025605369)
(0.20179997 0.12424731 0.02524539)
(0.24173714 0.13133063 0.025182361)
(0.28481956 0.13689501 0.024888167)
(0.33079573 0.1410424 0.024669327)
(0.37960823 0.14374457 0.024452969)
(0.4310852 0.14485236 0.024165713)
(0.48492088 0.14451796 0.023931024)
(0.5411704 0.14264837 0.023694325)
(0.59954396 0.13928416 0.023450599)
(0.65998307 0.13441241 0.02323603)
(0.72227274 0.12808135 0.023010026)
(0.78632494 0.12028315 0.022830641)
(0.85197109 0.11111624 0.022651007)
(0.9190975 0.10054683 0.022512558)
(0.98758104 0.088699063 0.022395044)
(1.0572588 0.075523893 0.022312898)
(1.1280917 0.06124884 0.022283022)
(1.1998957 0.045773903 0.022300733)
(1.2726305 0.029225108 0.022353968)
(1.3461899 0.011657793 0.022468429)
(1.4204422 -0.0068680174 0.022640412)
(1.4953641 -0.026283113 0.022861072)
(1.5708535 -0.04654203 0.023143539)
(1.6468448 -0.06757606 0.023471009)
(1.7232784 -0.089335102 0.023849548)
(1.8001138 -0.11176625 0.024273569)
(1.8772448 -0.13484519 0.024739246)
(1.9547215 -0.15841085 0.025219128)
(2.0323385 -0.18265335 0.025778135)
(2.1102667 -0.20718063 0.026280097)
(2.1882107 -0.23235527 0.026913464)
(2.2664044 -0.25771798 0.027438238)
(2.3445575 -0.28354988 0.028104302)
(2.422798 -0.30972328 0.028708227)
(2.5010657 -0.33592252 0.029337483)
(2.5792079 -0.36271946 0.030071295)
(2.657407 -0.3893064 0.030734166)
(2.7354185 -0.41614721 0.031583633)
(-0.00021670461 -0.016544813 -0.021687666)
(0.0054061913 -0.026777758 -0.02305737)
(0.011357247 -0.039627524 -0.028298676)
(0.022312706 -0.052376354 -0.027603369)
(0.037422449 -0.066587335 -0.028192338)
(0.055452648 -0.080989855 -0.027243159)
(0.077130367 -0.095733173 -0.026699998)
(0.10159964 -0.1109495 -0.025759622)
(0.12926207 -0.12644954 -0.024928701)
(0.15994282 -0.14267559 -0.023967295)
(0.19319225 -0.15895908 -0.023090851)
(0.2294622 -0.17615741 -0.022173354)
(0.26811609 -0.1935812 -0.021227671)
(0.30952107 -0.21166003 -0.020228464)
(0.35329028 -0.23033011 -0.019263852)
(0.39951729 -0.24948425 -0.018225116)
(0.44806355 -0.26935325 -0.017181239)
(0.49872074 -0.28960106 -0.016110211)
(0.55158015 -0.31062508 -0.014989889)
(0.6063674 -0.33203028 -0.013880318)
(0.66304224 -0.35412013 -0.012700423)
(0.72158415 -0.37661811 -0.011553572)
(0.78173852 -0.39972827 -0.010305041)
(0.84355734 -0.42328864 -0.0091006519)
(0.90680441 -0.44724606 -0.0078808816)
(0.97151735 -0.47166837 -0.0066220931)
(1.0374304 -0.49638623 -0.0053535687)
(1.1046805 -0.52164629 -0.0040536001)
(1.1730631 -0.54714822 -0.0027922335)
(1.2424768 -0.57296802 -0.0014726389)
(1.3128841 -0.59910684 -0.00017265126)
(1.3841645 -0.62549124 0.0011582083)
(1.4562918 -0.65211941 0.002480443)
(1.5291594 -0.6789595 0.0038166541)
(1.6027366 -0.70597532 0.0051493245)
(1.6769329 -0.7331686 0.0064816844)
(1.7517263 -0.76047626 0.0078165359)
(1.8270231 -0.78788323 0.009145822)
(1.9027923 -0.81540547 0.010471953)
(1.9789995 -0.84294021 0.01177985)
(2.0555515 -0.87054394 0.013093727)
(2.1324409 -0.8981366 0.014373785)
(2.209603 -0.92569824 0.015652798)
(2.286999 -0.95323824 0.016905436)
(2.3645607 -0.98068893 0.018138826)
(2.4423125 -1.0080721 0.019326101)
(2.520104 -1.0354283 0.020528164)
(0 0 0)
(0 0 0)
(0 0 0)
(0 0 0)
(0 0 0)
(0 0 0)
(0 0 0)
(0.0059978112 -0.010887534 0.016633336)
(0.0079112417 -0.033105327 0.023744373)
(0.012994945 -0.036830254 0.024949867)
(0.02542921 -0.055990024 0.025949334)
(0.040135718 -0.068061817 0.026192003)
(0.058775811 -0.083075623 0.024793525)
(0.080746966 -0.098852372 0.024791913)
(0.10546987 -0.11340021 0.023299416)
(0.13343719 -0.13037886 0.023215352)
(0.16396158 -0.14560535 0.021839877)
(0.19741161 -0.16369548 0.022059235)
(0.23383406 -0.17985726 0.020729177)
(0.27276187 -0.19826736 0.020330217)
(0.31438473 -0.21655209 0.019532658)
(0.35829482 -0.23532309 0.018880315)
(0.40467347 -0.25512163 0.01824886)
(0.45329229 -0.27499722 0.017590396)
(0.5040499 -0.29583843 0.016990598)
(0.55691911 -0.31704153 0.016398557)
(0.6117389 -0.33889923 0.015827225)
(0.66844184 -0.36126932 0.015309999)
(0.72690591 -0.38418132 0.014830226)
(0.7870723 -0.40758232 0.01438956)
(0.84878615 -0.43141474 0.014007572)
(0.91202281 -0.45584612 0.013635394)
(0.97678132 -0.48059285 0.013245113)
(1.0424776 -0.50584853 0.013174098)
(1.1095896 -0.53127782 0.013006634)
(1.1777751 -0.55714217 0.012987267)
(1.2470559 -0.58326761 0.012991374)
(1.3172978 -0.60966084 0.01305851)
(1.3884418 -0.63630647 0.013207193)
(1.4604128 -0.66316817 0.01341191)
(1.5331645 -0.69020585 0.013674277)
(1.6066083 -0.71740624 0.013986551)
(1.6807026 -0.74477287 0.014369576)
(1.7554151 -0.77219507 0.014747403)
(1.8305843 -0.79976149 0.015234654)
(1.9063074 -0.82734551 0.01569504)
(1.9824427 -0.85499723 0.016227564)
(2.0589503 -0.88263931 0.016761928)
(2.1358186 -0.91029418 0.017337236)
(2.2129421 -0.93789097 0.017932926)
(2.2903347 -0.96545275 0.018558203)
(2.3678887 -0.99291555 0.019207484)
(2.4456334 -1.020303 0.019906756)
(2.5233587 -1.0476595 0.020592757)
(2.6289409 -0.9970497 0.022278955)
(2.6555358 -0.91938683 0.023523716)
(2.6822082 -0.8421499 0.024921256)
(2.7087914 -0.76502124 0.026316584)
(2.7354843 -0.68805293 0.027825098)
(2.7623964 -0.61097342 0.029147585)
(2.7896417 -0.53389847 0.030479117)
(2.7387838 -0.42855119 0.030021169)
(2.660537 -0.40166964 0.028871062)
(2.5824071 -0.37490943 0.027619642)
(2.5041925 -0.34825823 0.026374843)
(2.4259311 -0.32183389 0.025058924)
(2.3476792 -0.29563616 0.023719474)
(2.2694627 -0.26973927 0.022364818)
(2.1913168 -0.24415581 0.020984541)
(2.113291 -0.21895556 0.019587115)
(2.0354314 -0.19413344 0.018176887)
(1.9577371 -0.16980757 0.016766412)
(1.8803807 -0.14605331 0.015365384)
(1.8032143 -0.12270092 0.013928322)
(1.7264405 -0.10003536 0.012507993)
(1.6500584 -0.07799894 0.011075352)
(1.5741349 -0.056687993 0.0096628842)
(1.4987198 -0.036127189 0.0082521699)
(1.423892 -0.016405811 0.006843055)
(1.3497089 0.0024403094 0.0054565256)
(1.276262 0.020316171 0.0040737101)
(1.2036259 0.037210046 0.002697484)
(1.1318922 0.052988722 0.001350938)
(1.0611626 0.067667218 4.9193415e-06)
(0.9915123 0.081122936 -0.0013265226)
(0.92310208 0.093334222 -0.0026460589)
(0.85600858 0.10422236 -0.0039377172)
(0.79037696 0.1137662 -0.0052344294)
(0.72632926 0.12188199 -0.0064831701)
(0.66401095 0.12856841 -0.0077382212)
(0.60354284 0.13376713 -0.0089575433)
(0.54509535 0.13747357 -0.010166397)
(0.48877305 0.13969847 -0.011371074)
(0.43474699 0.14041499 -0.012531162)
(0.38332793 0.13933228 -0.013552824)
(0.33449622 0.13694735 -0.014796441)
(0.28819881 0.13318069 -0.015719314)
(0.24511047 0.12783496 -0.016910849)
(0.20480556 0.12105951 -0.017858858)
(0.16787962 0.1131838 -0.019077506)
(0.13444574 0.10345075 -0.019864682)
(0.10457251 0.093104536 -0.020837057)
(0.077964257 0.081397507 -0.0216783)
(0.055842266 0.068876982 -0.022407492)
(0.037193857 0.055448935 -0.022500221)
(0.023403283 0.042366384 -0.022036206)
(0.013122654 0.027366185 -0.020084037)
(0.013010924 0.015538145 -0.012897246)
(0 0 0)
(0 0 0)
(0 0 0)
(0 0 0)
(0 0 0)
(0 0 0)
(0 0 0)
(0 0 0)
(0 0 0)
(0 0 0)
(0 0 0)
(0 0 0)
(0 0 0)
(0 0 0)
(2.5986688 -1.0646522 0.021656744)
(2.5990841 -1.066308 0.021584728)
(2.5994982 -1.067881 0.021526085)
(2.5999133 -1.0694458 0.021493842)
(2.6003258 -1.0709594 0.021461098)
(2.6007514 -1.0724058 0.021424342)
(2.6011607 -1.0738772 0.021291145)
(2.8145907 -0.44496661 0.031979317)
(2.8150578 -0.44650347 0.031932723)
(2.8155165 -0.44801183 0.031817978)
(2.8159568 -0.44954389 0.031711593)
(2.8163548 -0.45108109 0.031608843)
(2.8166913 -0.45265722 0.031519744)
(2.8170819 -0.45420861 0.031491455)
(0.00041607327 0.011682719 0.016138651)
(0.003594727 0.021294927 0.016248832)
(0.010556217 0.031994968 0.018842478)
(0.022466479 0.042218498 0.019634537)
(0.038243669 0.052024841 0.01995924)
(0.058812919 0.0616275 0.020270273)
(0.082789328 0.070158352 0.020137059)
(0.11102491 0.07818226 0.02036726)
(0.14281998 0.08480301 0.020052742)
(0.17831143 0.090558182 0.020184706)
(0.21714862 0.09498185 0.020011925)
(0.25931856 0.098099068 0.019870238)
(0.30470484 0.10000556 0.019771338)
(0.35304208 0.10038365 0.019601443)
(0.40426078 0.099369117 0.019481185)
(0.45816855 0.096904404 0.019317803)
(0.51463373 0.092969556 0.019179716)
(0.57341305 0.087534116 0.019047849)
(0.63444974 0.080652001 0.018909122)
(0.69750348 0.072303475 0.018787027)
(0.76245172 0.062543204 0.018692156)
(0.82909459 0.05139991 0.018603346)
(0.8973253 0.038926981 0.018562004)
(0.96690286 0.02518051 0.018541692)
(1.0378016 0.010230499 0.018588533)
(1.1097743 -0.0059004394 0.018622885)
(1.1827108 -0.023078238 0.018748469)
(1.2565212 -0.041256457 0.018917683)
(1.3310384 -0.060397409 0.019141008)
(1.4061598 -0.080358628 0.019417034)
(1.481812 -0.10111765 0.019754588)
(1.557867 -0.12260233 0.020141219)
(1.634259 -0.14472422 0.020583552)
(1.7109158 -0.16745181 0.021075341)
(1.7877634 -0.19070877 0.02160753)
(1.8647308 -0.21442914 0.022183722)
(1.9418124 -0.23859381 0.022783157)
(2.018878 -0.26314852 0.023441323)
(2.0960105 -0.28799517 0.024083494)
(2.1730461 -0.31320115 0.024802128)
(2.2500851 -0.338561 0.025470309)
(2.3269617 -0.36429066 0.026245293)
(2.4038559 -0.39004263 0.026911985)
(2.4805102 -0.41605219 0.027720969)
(2.5571337 -0.44225296 0.028448087)
(2.6335788 -0.46831417 0.029197328)
(2.7098647 -0.49488249 0.029914189)
(-0.0051648761 0.0074735329 0.011220398)
(-0.0031536291 0.012688526 0.010753311)
(0.003414698 0.021288425 0.013074568)
(0.014091493 0.027551338 0.01319398)
(0.029340103 0.034587105 0.013842343)
(0.048315602 0.040814511 0.013759822)
(0.071377437 0.046447778 0.014276683)
(0.098635362 0.051264909 0.013962759)
(0.12934019 0.055025484 0.014404589)
(0.16384001 0.057969391 0.014326667)
(0.20183041 0.059551384 0.014382244)
(0.24320966 0.060164293 0.014434326)
(0.28780984 0.059387985 0.014474097)
(0.33555884 0.057304861 0.014502836)
(0.38624835 0.053885309 0.014520819)
(0.43969234 0.049149319 0.014472166)
(0.49573157 0.043017451 0.014461425)
(0.55422793 0.035493115 0.014448078)
(0.61502663 0.02656801 0.014433987)
(0.67794846 0.016257609 0.014452522)
(0.74280841 0.0045861465 0.014472304)
(0.80947138 -0.0083758986 0.014516371)
(0.87766131 -0.022599357 0.014601836)
(0.94737936 -0.037992257 0.014721555)
(1.0183122 -0.054571978 0.014852618)
(1.0903717 -0.072138839 0.015099907)
(1.1634107 -0.090750231 0.015359418)
(1.2372913 -0.11028115 0.015657739)
(1.3118567 -0.13061042 0.016042319)
(1.3870327 -0.15173918 0.016454368)
(1.4626808 -0.17355302 0.016920576)
(1.538692 -0.19599538 0.017450952)
(1.6150024 -0.21899623 0.018012336)
(1.6915096 -0.24249822 0.018627017)
(1.7681501 -0.26642674 0.01927564)
(1.8448563 -0.29076326 0.019968103)
(1.9216131 -0.31540196 0.020670876)
(1.9982561 -0.34038383 0.021442053)
(2.0749926 -0.36552238 0.022154059)
(2.1514397 -0.39099636 0.02298415)
(2.2279974 -0.41652852 0.023718013)
(2.304223 -0.44230162 0.024560116)
(2.3804933 -0.46813048 0.025327533)
(2.4564432 -0.49409959 0.026175067)
(2.5323841 -0.52016545 0.026963612)
(2.6080694 -0.54625014 0.027747099)
(2.6837484 -0.57257709 0.028505831)
(-0.0085729307 0.0040746058 0.0067925856)
(-0.0055288829 0.0073742295 0.0063777646)
(0.00081890509 0.011712707 0.007110808)
(0.012563695 0.015622667 0.0072147681)
(0.027542898 0.01909522 0.0073216367)
(0.047342121 0.022329636 0.0076306336)
(0.070636595 0.02430421 0.0073060311)
(0.097717671 0.02600533 0.0078181749)
(0.12830035 0.026445016 0.0078509661)
(0.1625715 0.026125861 0.007937247)
(0.1999189 0.024800699 0.0082004789)
(0.24058969 0.022304865 0.0083447816)
(0.28432506 0.01877464 0.008497718)
(0.33101729 0.013991503 0.0087010786)
(0.38055227 0.0080979864 0.0089277819)
(0.43276797 0.00091692903 0.0090312112)
(0.48752804 -0.0075106952 0.0092388182)
(0.54466171 -0.017198646 0.0093647117)
(0.60404231 -0.028170747 0.0095799661)
(0.66543795 -0.040337196 0.0097724365)
(0.72875781 -0.053715961 0.010021898)
(0.79376704 -0.068257135 0.010287451)
(0.8605026 -0.083908611 0.010586519)
(0.92860116 -0.10068929 0.01088303)
(0.99804079 -0.1184212 0.011288519)
(1.0686551 -0.13714887 0.011649581)
(1.1403601 -0.15677968 0.012045697)
(1.2129317 -0.17721221 0.012531828)
(1.286333 -0.19841732 0.013026585)
(1.3604047 -0.2203295 0.01356191)
(1.4350516 -0.24284661 0.014166704)
(1.510198 -0.26596025 0.014794309)
(1.5857442 -0.28957469 0.015469639)
(1.6616212 -0.31364651 0.016182566)
(1.7377547 -0.33814856 0.016934693)
(1.8141058 -0.36297478 0.017701201)
(1.8905644 -0.3881661 0.018518702)
(1.9671999 -0.41357029 0.019325464)
(2.0438402 -0.43926519 0.020168833)
(2.1205027 -0.46514251 0.021061992)
(2.1972347 -0.4911059 0.021872313)
(2.2737979 -0.51736684 0.02285125)
(2.3505059 -0.54355035 0.023632905)
(2.4269605 -0.56998576 0.024627759)
(2.5035412 -0.59643584 0.025418119)
(2.5798964 -0.62288698 0.026334879)
(2.6562548 -0.64949252 0.02717162)
(-0.0078206012 0.00083297533 0.0010008755)
(-0.0033902147 0.0013680902 -0.00070005612)
(0.0043172214 0.003074697 -0.00024469493)
(0.016798553 0.0037563461 -0.00028642022)
(0.033598094 0.0038496879 9.6190286e-05)
(0.054027435 0.0039421308 -8.3779775e-05)
(0.077944454 0.0024150639 0.00070662319)
(0.10542407 0.00094422987 0.0007296502)
(0.13622785 -0.0020794435 0.0011341572)
(0.17015678 -0.0054807503 0.0016146546)
(0.20713867 -0.0102741 0.0019010519)
(0.24723549 -0.0158041 0.0021976186)
(0.2899826 -0.022413037 0.0024670505)
(0.33552069 -0.030180233 0.002861819)
(0.38354468 -0.038787462 0.0030967615)
(0.43412892 -0.048632278 0.0034774062)
(0.48688885 -0.059396352 0.0037926037)
(0.5419199 -0.071349836 0.0041890836)
(0.59889902 -0.084301525 0.0045972362)
(0.65788192 -0.098317792 0.0050116143)
(0.71864672 -0.11338031 0.0054472294)
(0.78123879 -0.12939303 0.0058836742)
(0.84521373 -0.14637746 0.0063539681)
(0.91070995 -0.16422397 0.0069016447)
(0.97754639 -0.18294595 0.0074001516)
(1.0456543 -0.20247521 0.0079617944)
(1.114861 -0.22276384 0.0086172753)
(1.1851214 -0.24379182 0.0092810639)
(1.2563525 -0.26548709 0.0099585766)
(1.3284417 -0.2878249 0.010716421)
(1.4013468 -0.31073837 0.011466351)
(1.4749674 -0.33421823 0.012271221)
(1.5492412 -0.3581831 0.013088655)
(1.6241125 -0.38262652 0.01394618)
(1.6995126 -0.40747634 0.014808407)
(1.775367 -0.43273823 0.01571576)
(1.8516873 -0.45830836 0.016608293)
(1.9283128 -0.48422525 0.017544178)
(2.0052723 -0.51041494 0.018494491)
(2.0825173 -0.53679467 0.019400365)
(2.1600422 -0.56347257 0.020360454)
(2.2376824 -0.59026527 0.021295259)
(2.315615 -0.61718935 0.022203769)
(2.3934891 -0.64429876 0.023194705)
(2.471628 -0.67139545 0.024069831)
(2.5496306 -0.69858426 0.025064381)
(2.6277936 -0.72583591 0.025951701)
(-0.0071224826 -0.0025470197 -0.004299435)
(-0.00050423869 -0.0034581082 -0.0060129139)
(0.0079158658 -0.0052771617 -0.0062703287)
(0.022509174 -0.0077381631 -0.0067160485)
(0.040067209 -0.010805505 -0.006884006)
(0.061784643 -0.014442876 -0.006520581)
(0.08642001 -0.019227327 -0.0063844956)
(0.11473452 -0.024268342 -0.0062336305)
(0.14558661 -0.030733847 -0.0056815889)
(0.1796942 -0.03758825 -0.0054312965)
(0.21633408 -0.045678609 -0.0051087527)
(0.25566095 -0.054173749 -0.0045998356)
(0.29740439 -0.064055847 -0.0040587656)
(0.34164088 -0.074416126 -0.0035551898)
(0.38810623 -0.085945062 -0.0029777109)
(0.43675208 -0.09824243 -0.0023490392)
(0.48752443 -0.11147225 -0.0017869605)
(0.54023762 -0.12555153 -0.001143124)
(0.59489032 -0.14047247 -0.00051929643)
(0.65129733 -0.15626167 0.00014858982)
(0.70949021 -0.17280313 0.000826077)
(0.76914215 -0.19018196 0.0015876808)
(0.83043948 -0.20828493 0.0023409799)
(0.89315969 -0.22721017 0.0030880919)
(0.95735682 -0.24682547 0.0038675263)
(1.0228145 -0.26711327 0.0047004798)
(1.0895709 -0.28810589 0.0055280237)
(1.157517 -0.30971342 0.0063391597)
(1.2265897 -0.33192535 0.0072047997)
(1.2967268 -0.35470625 0.0080652593)
(1.3678829 -0.37804233 0.0089546377)
(1.4399884 -0.40190864 0.0098652888)
(1.5129983 -0.42627478 0.010794174)
(1.5868659 -0.45109425 0.011729203)
(1.6615038 -0.47639269 0.012702214)
(1.7369253 -0.50206373 0.013659213)
(1.8129945 -0.52813992 0.014643569)
(1.8897254 -0.55459665 0.015651707)
(1.9670277 -0.58129979 0.016588297)
(2.0449283 -0.60835167 0.017616146)
(2.1231908 -0.63561818 0.018601557)
(2.2019096 -0.66308732 0.019622916)
(2.2809533 -0.69073694 0.02060661)
(2.3602449 -0.71853187 0.021655575)
(2.439856 -0.74636414 0.022600745)
(2.5195329 -0.77430543 0.023666218)
(2.5993935 -0.8022071 0.024652521)
(-0.0052460058 -0.0063020711 -0.010568194)
(0.0029955594 -0.010594819 -0.012284258)
(0.011845756 -0.015760227 -0.014015934)
(0.026571906 -0.021579637 -0.014485923)
(0.044515865 -0.028083291 -0.01437888)
(0.066042709 -0.03519124 -0.014122866)
(0.090841756 -0.043376031 -0.013796704)
(0.11866958 -0.051852552 -0.013203889)
(0.1492698 -0.061591632 -0.012667161)
(0.18270009 -0.071532304 -0.012079362)
(0.21861614 -0.082701546 -0.011419195)
(0.25701826 -0.094360929 -0.01076754)
(0.29776682 -0.10695485 -0.010163402)
(0.34079413 -0.1201696 -0.0094307561)
(0.38593085 -0.1342074 -0.0087241012)
(0.43321458 -0.1489217 -0.0079508782)
(0.48243292 -0.16441769 -0.0072181286)
(0.53363004 -0.18055152 -0.0063786864)
(0.58659455 -0.1974831 -0.0055681144)
(0.64135526 -0.21499979 -0.0046931377)
(0.69772916 -0.23331165 -0.0038221714)
(0.75591678 -0.25207643 -0.0028801686)
(0.8154164 -0.27162241 -0.0020096705)
(0.87648037 -0.29191255 -0.0010247517)
(0.93898495 -0.31263309 -7.513252e-05)
(1.0028259 -0.33399573 0.00088041007)
(1.0680847 -0.355865 0.0018600452)
(1.1345724 -0.378279 0.002887595)
(1.2023005 -0.40119085 0.003896277)
(1.2712089 -0.42465648 0.0049417503)
(1.3412373 -0.44859616 0.0059880145)
(1.4123521 -0.47302026 0.0070620014)
(1.484503 -0.4978949 0.0081281394)
(1.5576258 -0.52323266 0.0092228334)
(1.6316994 -0.54894955 0.010303486)
(1.7066351 -0.5750901 0.011405831)
(1.7824144 -0.60158729 0.012505817)
(1.8589479 -0.62839322 0.013595668)
(1.9362089 -0.65557939 0.014715921)
(2.0140895 -0.68297243 0.015804324)
(2.0925765 -0.71059757 0.016906088)
(2.1715927 -0.7384267 0.017975135)
(2.2510005 -0.76645923 0.019081197)
(2.3308463 -0.79454593 0.020132204)
(2.4109501 -0.82272744 0.021215181)
(2.491297 -0.85094662 0.022320155)
(2.5718525 -0.87908543 0.023419068)
(-0.0030986362 -0.012391573 -0.014955008)
(0.0039011055 -0.018004194 -0.017655248)
(0.011529444 -0.027129413 -0.02033068)
(0.025535036 -0.035969838 -0.02080424)
(0.041907878 -0.045884919 -0.020902269)
(0.062742314 -0.056668183 -0.02051281)
(0.08614017 -0.068091299 -0.020072501)
(0.11288184 -0.079972195 -0.019367152)
(0.14230598 -0.092812306 -0.018794229)
(0.17453168 -0.10568084 -0.017995314)
(0.20949155 -0.11999562 -0.017237)
(0.24672492 -0.13405424 -0.016589776)
(0.28664048 -0.14948481 -0.015627205)
(0.32864744 -0.16506928 -0.014863591)
(0.37310466 -0.18153315 -0.013944957)
(0.4195796 -0.19849878 -0.013075795)
(0.46825321 -0.21615986 -0.012120571)
(0.51884014 -0.23441826 -0.011171906)
(0.57137475 -0.25329483 -0.01018076)
(0.62572579 -0.27276641 -0.0091765923)
(0.68186343 -0.29280649 -0.0081485055)
(0.7395834 -0.31343029 -0.0070767364)
(0.79907514 -0.33460389 -0.0060198869)
(0.85996016 -0.35636866 -0.004906999)
(0.92235788 -0.37855357 -0.0038524617)
(0.98613485 -0.40128253 -0.0027203959)
(1.0512814 -0.4244664 -0.0015608443)
(1.1177141 -0.44811384 -0.00042835619)
(1.1853674 -0.47221476 0.00071841165)
(1.2541618 -0.49676026 0.0018938601)
(1.3240531 -0.52168669 0.0030631788)
(1.3949936 -0.54702659 0.0042517242)
(1.4669063 -0.57272731 0.0054438799)
(1.5397657 -0.59877596 0.0066389848)
(1.6134861 -0.62515454 0.0078428025)
(1.6880445 -0.65183523 0.0090428559)
(1.7633565 -0.67878358 0.010240155)
(1.8393999 -0.70601606 0.011457581)
(1.9160721 -0.73342639 0.012627897)
(1.9933455 -0.76106142 0.013833787)
(2.0711554 -0.78881144 0.015005987)
(2.149442 -0.81673917 0.016200978)
(2.2281133 -0.84471883 0.017363342)
(2.3071647 -0.87274406 0.01851336)
(2.3864223 -0.90080688 0.019687462)
(2.4659697 -0.92881833 0.020813342)
(2.5456364 -0.95672101 0.021998331)
(0 0 0)
(0 0 0)
(0 0 0)
(0 0 0)
(0 0 0)
(0 0 0)
(0 0 0)
(0 0 0)
(0 0 0)
(0 0 0)
(0 0 0)
(0 0 0)
(0 0 0)
(0 0 0)
(0 0 0)
(0 0 0)
(0 0 0)
(0 0 0)
(0 0 0)
(0 0 0)
(0 0 0)
(0 0 0)
(0 0 0)
(0 0 0)
(0 0 0)
(0 0 0)
(0 0 0)
(0 0 0)
(0 0 0)
(0 0 0)
(0 0 0)
(0 0 0)
(0 0 0)
(0 0 0)
(0 0 0)
(0 0 0)
(0 0 0)
(0 0 0)
(0 0 0)
(0 0 0)
(0 0 0)
(0 0 0)
(0 0 0)
(0 0 0)
(0 0 0)
(0 0 0)
(0 0 0)
(0 0 0)
(0 0 0)
(0.006391522 -0.0047507766 -0.011523105)
(0.0081855336 -0.0062730298 -0.0080861363)
(0.010058395 -0.0066924121 -0.0043222016)
(0.010815617 -0.0070600741 -0.0012307769)
(0.010540924 -0.00658975 0.0019040102)
(0.0098923187 -0.0069393633 0.005322427)
(0.0080497434 -0.0043712284 0.00890695)
(0.012124897 -0.025390737 -0.01926566)
(0.015953131 -0.028629596 -0.011028755)
(0.017769741 -0.026958567 -0.0053940063)
(0.018245195 -0.026266157 -0.00064676342)
(0.018463109 -0.027835139 0.0040448667)
(0.01638216 -0.027421577 0.0095471159)
(0.014254712 -0.027099071 0.016648136)
(0.017507326 -0.036449644 -0.020797538)
(0.022539626 -0.0350195 -0.014939421)
(0.02577555 -0.03684777 -0.0071255324)
(0.026332509 -0.03687215 -0.0014152032)
(0.026176103 -0.036038692 0.0056305962)
(0.023778155 -0.036359269 0.010730204)
(0.020399559 -0.037983272 0.019782497)
(0.02974502 -0.053416093 -0.021054629)
(0.033946859 -0.054766266 -0.014974598)
(0.036761164 -0.054322565 -0.0073934897)
(0.037900888 -0.054487154 -0.0014431988)
(0.037505396 -0.054679457 0.0053635884)
(0.035250541 -0.055632726 0.012689321)
(0.031058104 -0.054289359 0.019096966)
(0.043684841 -0.067781229 -0.021702046)
(0.048656873 -0.067937267 -0.015473178)
(0.052211712 -0.068920148 -0.0080836557)
(0.053140929 -0.06881243 -0.0011762472)
(0.052915979 -0.069255193 0.0058413044)
(0.050588409 -0.069089887 0.012243951)
(0.046842732 -0.069527678 0.020120578)
(0.062098957 -0.082995148 -0.020858295)
(0.066375136 -0.083509628 -0.014901757)
(0.06939576 -0.083633269 -0.0076629371)
(0.07054373 -0.084427969 -0.0016236047)
(0.070124897 -0.08412692 0.0057310544)
(0.067852046 -0.084387235 0.012413858)
(0.063977268 -0.083739616 0.018856637)
(0.08317745 -0.097660231 -0.020591462)
(0.087639294 -0.098611748 -0.014358102)
(0.090844948 -0.099997542 -0.0077343789)
(0.092020429 -0.10026884 -0.0013783925)
(0.091838765 -0.10084674 0.0056182368)
(0.089821973 -0.10124979 0.011772212)
(0.086251499 -0.10058287 0.018874334)
(0.10761803 -0.11335375 -0.019751304)
(0.11192601 -0.11467194 -0.014119247)
(0.11485853 -0.11515686 -0.0072931022)
(0.1160251 -0.11577808 -0.0011970241)
(0.11562025 -0.11566821 0.0052037713)
(0.11378595 -0.11533779 0.011680139)
(0.1101362 -0.11463281 0.017680245)
(0.13516277 -0.12909494 -0.019224215)
(0.13923529 -0.13017304 -0.013197932)
(0.14215496 -0.13160763 -0.0071481476)
(0.14327525 -0.13221132 -0.0012346686)
(0.1431632 -0.13297864 0.0051082978)
(0.14142331 -0.1327453 0.011160731)
(0.13817848 -0.13232166 0.017629818)
(0.16534816 -0.14508175 -0.018383185)
(0.1694193 -0.14677252 -0.012947425)
(0.17219335 -0.14763406 -0.006958197)
(0.17355391 -0.14872791 -0.00083875773)
(0.17317078 -0.14849424 0.0050668742)
(0.17159981 -0.14820053 0.010948321)
(0.16837514 -0.14740164 0.016716841)
(0.1987244 -0.16191548 -0.01764165)
(0.20250838 -0.1633836 -0.012259356)
(0.20530671 -0.16478822 -0.0062113714)
(0.20628526 -0.16515408 -0.00098186633)
(0.20628741 -0.16579712 0.0049939321)
(0.2046768 -0.16568296 0.010429537)
(0.20168413 -0.16517836 0.016674929)
(0.23456435 -0.17871173 -0.017078349)
(0.23839752 -0.1805313 -0.011524431)
(0.24082512 -0.18178518 -0.0063831144)
(0.24218017 -0.1829226 -0.00071400748)
(0.24200385 -0.18318066 0.0049421551)
(0.24038667 -0.18260237 0.010164787)
(0.23797367 -0.18222845 0.015871237)
(0.2732794 -0.1966653 -0.016114754)
(0.27666656 -0.19819933 -0.011027958)
(0.27929227 -0.19977701 -0.0057826544)
(0.28043803 -0.20031379 -0.00052894671)
(0.2803598 -0.20065995 0.0048378804)
(0.27896203 -0.20078461 0.0098694091)
(0.27647635 -0.19985949 0.015394312)
(0.3143155 -0.21450171 -0.015493442)
(0.31768535 -0.21635707 -0.010440943)
(0.32031582 -0.21790805 -0.0056020437)
(0.32131182 -0.21873091 -0.00047644404)
(0.32143086 -0.21949865 0.0047282753)
(0.32005864 -0.21900444 0.0094735385)
(0.31795047 -0.21852389 0.014911096)
(0.35791278 -0.23344839 -0.014662761)
(0.36123935 -0.23524411 -0.00979729)
(0.36361657 -0.23667319 -0.0052096378)
(0.36475378 -0.23761058 -0.00013688985)
(0.36483289 -0.23792888 0.0045810641)
(0.36366795 -0.23779472 0.0093771755)
(0.36159157 -0.23715711 0.014401901)
(0.40398027 -0.25256858 -0.01383976)
(0.4070622 -0.25434738 -0.0092369557)
(0.40948202 -0.25606008 -0.0047941311)
(0.41053278 -0.25691804 -0.00014874555)
(0.4106924 -0.25758014 0.0046091604)
(0.40958461 -0.25742856 0.0089980976)
(0.40772624 -0.25684194 0.013939166)
(0.45218965 -0.27239665 -0.013018812)
(0.45525901 -0.27435751 -0.0085434705)
(0.45752751 -0.27592616 -0.0044504963)
(0.45859241 -0.27682255 0.0002066525)
(0.45879177 -0.27745639 0.0045352003)
(0.45783288 -0.27725009 0.0088402681)
(0.45610156 -0.27678109 0.013518086)
(0.50274528 -0.29278777 -0.012096814)
(0.50560484 -0.29468905 -0.0079871285)
(0.50785535 -0.29636259 -0.0039314545)
(0.50886542 -0.2973706 0.00034993911)
(0.50910847 -0.29800704 0.004526026)
(0.50821923 -0.29795041 0.0086338683)
(0.50664094 -0.29744953 0.013075817)
(0.55530096 -0.31372849 -0.011251267)
(0.5580698 -0.31565771 -0.007250117)
(0.56022807 -0.3173628 -0.0034816423)
(0.5611956 -0.31829938 0.0006294676)
(0.56149967 -0.31903483 0.0045814557)
(0.56070491 -0.31895973 0.008476105)
(0.55927608 -0.31863792 0.012677062)
(0.60989407 -0.33518594 -0.010279372)
(0.61254133 -0.33715756 -0.0065575721)
(0.61459446 -0.33885518 -0.0029837008)
(0.61554711 -0.3399463 0.00091097416)
(0.6158863 -0.34066381 0.0046187357)
(0.61515992 -0.34073787 0.008334882)
(0.6138931 -0.34037531 0.012300172)
(0.66639015 -0.35723383 -0.0093485652)
(0.66888732 -0.3591786 -0.0058302851)
(0.67086005 -0.36094456 -0.0024413523)
(0.67180434 -0.36197427 0.0012175497)
(0.67215647 -0.36278656 0.004727037)
(0.67154122 -0.36284759 0.0082313173)
(0.67039052 -0.36262705 0.011967201)
(0.72467069 -0.37974089 -0.0083621377)
(0.72704914 -0.38173456 -0.0050521391)
(0.72894644 -0.38346489 -0.0018756519)
(0.72983842 -0.38460614 0.0015575458)
(0.73023799 -0.38540467 0.0048626092)
(0.7296679 -0.38559821 0.008160001)
(0.72866485 -0.38542482 0.011680504)
(0.78464961 -0.40280569 -0.0073392672)
(0.78691745 -0.40475242 -0.0042474843)
(0.78870119 -0.40652851 -0.0012928054)
(0.78960142 -0.40765828 0.0019335018)
(0.78998038 -0.40856873 0.0050351706)
(0.78952333 -0.40880984 0.0081126555)
(0.78864171 -0.40871357 0.011429508)
(0.84626213 -0.42626051 -0.0062856642)
(0.84838453 -0.42829547 -0.0034331029)
(0.85010003 -0.43000799 -0.00067799232)
(0.85093415 -0.43125902 0.0023550499)
(0.85138275 -0.43212452 0.0052230975)
(0.85098793 -0.43241756 0.0081325183)
(0.85019897 -0.43240596 0.011237165)
(0.90931329 -0.45021645 -0.005288047)
(0.91140662 -0.4522399 -0.0025679759)
(0.91295689 -0.45390394 -4.6210017e-05)
(0.9138497 -0.45523506 0.002829949)
(0.91423149 -0.45609946 0.0054617815)
(0.91388303 -0.45660468 0.0082021139)
(0.91320717 -0.45670312 0.011029011)
(0.97379713 -0.47457188 -0.0041982728)
(0.97581622 -0.47656629 -0.0017181388)
(0.97722026 -0.47829146 0.00063684558)
(0.97811764 -0.47961909 0.0033883407)
(0.97844255 -0.480493 0.0056771631)
(0.97829593 -0.48109365 0.0082459578)
(0.9777353 -0.48122935 0.010797739)
(1.0396141 -0.49932688 -0.0031152476)
(1.0415104 -0.50131559 -0.00091900076)
(1.0428536 -0.50306476 0.0014693462)
(1.043762 -0.50443148 0.0037016007)
(1.0441684 -0.50541098 0.006123098)
(1.0439923 -0.50606454 0.0084793724)
(1.0434248 -0.5062541 0.010909576)
(1.1067452 -0.52446235 -0.0020135016)
(1.1084193 -0.52641562 5.8611873e-05)
(1.109789 -0.5282255 0.0022277522)
(1.1105612 -0.52952667 0.0042587066)
(1.1110088 -0.53058977 0.0065990593)
(1.1108821 -0.53120718 0.0086250135)
(1.1103883 -0.53164756 0.010960784)
(1.174944 -0.54988008 -0.00091755163)
(1.1765696 -0.55191002 0.0010630886)
(1.1777632 -0.55364769 0.0029362282)
(1.1785954 -0.55502257 0.0049707539)
(1.1789474 -0.55612495 0.0069874122)
(1.1789038 -0.5568839 0.0089222958)
(1.1784708 -0.55734812 0.011086817)
(1.2442498 -0.57569036 0.00027909019)
(1.2457021 -0.57763371 0.0020139728)
(1.246893 -0.57943193 0.0038320909)
(1.2476309 -0.58081161 0.0056000496)
(1.2480094 -0.5820004 0.0075049742)
(1.2480235 -0.58276645 0.0092617951)
(1.2476393 -0.5833626 0.011262047)
(1.3144853 -0.60173123 0.0014049542)
(1.3158763 -0.60372204 0.0030541267)
(1.3169652 -0.60548901 0.0046452622)
(1.317683 -0.60691036 0.0063266752)
(1.3180669 -0.60810253 0.00803865)
(1.3180947 -0.60895793 0.0096561311)
(1.317782 -0.60962786 0.011478361)