/*--------------------------------*- C++ -*----------------------------------*\
  =========                 |
  \\      /  F ield         | OpenFOAM: The Open Source CFD Toolbox
   \\    /   O peration     | Website:  https://openfoam.org
    \\  /    A nd           | Version:  6
     \\/     M anipulation  |
\*---------------------------------------------------------------------------*/
FoamFile
{
    version     2.0;
    format      ascii;
    class       pointVectorField;
    location    "1.65";
    object      u;
}
// * * * * * * * * * * * * * * * * * * * * * * * * * * * * * * * * * * * * * //

dimensions      [0 1 0 0 0 0 0];

internalField   nonuniform List<vector> 
3969
(
(0 -7.309356e-20 0)
(0 -3.9133236e-19 0)
(-1.0519214 -0.21985991 -0.036720614)
(-1.0778487 0.0063568615 -0.04296273)
(0 4.0002935e-18 0)
(0 3.2237781e-18 0)
(-1.073042 0.013149835 -0.042988032)
(-1.0471 -0.21307916 -0.036769537)
(0 1.7115641e-19 0)
(0 1.0313546e-18 0)
(0 4.4866e-19 0)
(-2.5777457e-18 -2.3210654e-19 0)
(0 1.2358043e-18 0)
(0 -7.115752e-19 0)
(0 -6.9495869e-19 0)
(-1.0551656 -0.19157372 -0.03750386)
(-1.0584017 -0.1632941 -0.038283858)
(-1.0616497 -0.13501498 -0.039065798)
(-1.0648959 -0.10673572 -0.039845404)
(-1.0681428 -0.078458136 -0.040627897)
(-1.0713889 -0.050181276 -0.04140233)
(-1.0746244 -0.021900116 -0.042183385)
(-0.0029620297 -0.0080122191 -0.0081701706)
(-0.0046904525 -0.012998669 -0.010253181)
(-0.0083810908 -0.019517541 -0.011235334)
(-0.014209505 -0.025375434 -0.011747306)
(-0.021166465 -0.031911877 -0.011951011)
(-0.030083664 -0.038014915 -0.012058487)
(-0.039964665 -0.044374527 -0.012321114)
(-0.051666825 -0.050447757 -0.012441837)
(-0.064319637 -0.056610676 -0.012877178)
(-0.078482904 -0.062436438 -0.01311418)
(-0.093742414 -0.068506015 -0.013643305)
(-0.11013828 -0.074077327 -0.014121219)
(-0.12771653 -0.079898747 -0.014655314)
(-0.14625053 -0.085382081 -0.015293189)
(-0.16587519 -0.090886197 -0.015902889)
(-0.18632925 -0.096192436 -0.016567776)
(-0.20774029 -0.1014889 -0.017262508)
(-0.22991943 -0.10658194 -0.017955571)
(-0.25292559 -0.11165039 -0.018662549)
(-0.27659062 -0.1165347 -0.019370887)
(-0.30096347 -0.12135158 -0.020069916)
(-0.32589931 -0.12602425 -0.020766059)
(-0.35141187 -0.13060137 -0.021439528)
(-0.37740117 -0.13505396 -0.02210607)
(-0.40385229 -0.13939118 -0.022742841)
(-0.43067529 -0.14363393 -0.023372424)
(-0.45785473 -0.14775563 -0.023976037)
(-0.48532571 -0.15177562 -0.024565309)
(-0.5130553 -0.15570813 -0.025134456)
(-0.54099042 -0.15952575 -0.025696516)
(-0.56910072 -0.16327336 -0.026243594)
(-0.59734421 -0.16692774 -0.026788546)
(-0.62569409 -0.17050934 -0.027329355)
(-0.65411605 -0.17402256 -0.0278716)
(-0.6825895 -0.1774722 -0.028423362)
(-0.71109007 -0.18087309 -0.028974562)
(-0.73960208 -0.18421789 -0.029548352)
(-0.76810693 -0.18753273 -0.03012746)
(-0.79661202 -0.19080787 -0.03072204)
(-0.82506872 -0.19406559 -0.031340418)
(-0.85352549 -0.1972975 -0.031965432)
(-0.88192992 -0.20052234 -0.032616624)
(-0.91032 -0.20373748 -0.033270956)
(-0.93867749 -0.20694974 -0.033949418)
(-0.96701011 -0.21016532 -0.03462996)
(-0.99532491 -0.21338763 -0.035322761)
(-1.0236335 -0.21661317 -0.036017224)
(-0.00095466566 0.0066762134 0.0093141609)
(-0.0053059378 0.011958561 0.0085119042)
(-0.0088766319 0.017167653 0.010533023)
(-0.015058013 0.022892056 0.0093171392)
(-0.023170143 0.028294594 0.0090710534)
(-0.032391128 0.033661628 0.0078241822)
(-0.043615026 0.038596106 0.006850052)
(-0.055966743 0.043413859 0.00548632)
(-0.069894816 0.047715809 0.0042038662)
(-0.085085172 0.051836078 0.0027048323)
(-0.1015116 0.055449523 0.0012483143)
(-0.11918197 0.058838678 -0.00035735063)
(-0.1379156 0.061749312 -0.0019487694)
(-0.15775961 0.06436463 -0.0036244017)
(-0.17854418 0.066562716 -0.0053051155)
(-0.20031028 0.068439717 -0.0070244439)
(-0.22287045 0.06988114 -0.0087446445)
(-0.24630489 0.07105258 -0.010475863)
(-0.27035114 0.071773631 -0.012189774)
(-0.29519784 0.072256248 -0.013892469)
(-0.32048049 0.072330389 -0.015557039)
(-0.34645229 0.072143745 -0.017188844)
(-0.37276448 0.071619694 -0.018775328)
(-0.39961723 0.07084594 -0.020312825)
(-0.42671842 0.069754594 -0.021784459)
(-0.45422165 0.068442521 -0.023208723)
(-0.48190262 0.066865702 -0.024564815)
(-0.50989116 0.065083791 -0.025861695)
(-0.538015 0.063075588 -0.027086283)
(-0.566287 0.060883867 -0.028261926)
(-0.59468052 0.058524529 -0.029373845)
(-0.6231373 0.056009488 -0.030432017)
(-0.65165855 0.053357668 -0.031436597)
(-0.68020168 0.050586319 -0.03239352)
(-0.70875874 0.047707758 -0.033302573)
(-0.73731108 0.044747052 -0.034173753)
(-0.76585237 0.041703555 -0.03501356)
(-0.79435373 0.038604907 -0.035805943)
(-0.82283537 0.035456694 -0.036592354)
(-0.85127806 0.03227249 -0.037338876)
(-0.87969609 0.029064394 -0.038080719)
(-0.90806478 0.025832437 -0.038794973)
(-0.93642123 0.022594279 -0.03951002)
(-0.9647334 0.01934605 -0.040202821)
(-0.99303651 0.016098395 -0.040898998)
(-1.0213167 0.012851489 -0.041585783)
(-1.0495908 0.0096036346 -0.04227428)
(0 -4.461793e-20 0)
(0 5.264859e-19 0)
(0 -6.2348052e-19 0)
(1.2701773e-18 -1.2929197e-19 0)
(0 -1.0686727e-18 0)
(0 -4.9520596e-19 0)
(0 -4.1680154e-19 0)
(-0.0039437438 0.0049032601 -0.0075792906)
(-0.0066972747 0.015894193 -0.010381447)
(-0.0096745323 0.017664847 -0.010856603)
(-0.016315936 0.02689985 -0.01193621)
(-0.023760842 0.031597903 -0.012466258)
(-0.033097113 0.038259668 -0.012672679)
(-0.044013379 0.043671418 -0.013401932)
(-0.056182284 0.049098443 -0.013656344)
(-0.070007705 0.054115378 -0.01444698)
(-0.084876943 0.058678629 -0.014948217)
(-0.10120585 0.062916301 -0.015833)
(-0.11860593 0.066669621 -0.016557427)
(-0.1371728 0.069833908 -0.017338594)
(-0.15685043 0.073018096 -0.018282801)
(-0.17738118 0.075156623 -0.019043351)
(-0.19895838 0.077554066 -0.020082426)
(-0.22126621 0.078907697 -0.020881152)
(-0.2444658 0.080367371 -0.02188384)
(-0.2682983 0.081045985 -0.022737895)
(-0.29286565 0.081612384 -0.023676236)
(-0.31797273 0.081617196 -0.024536465)
(-0.34366583 0.081399529 -0.025419036)
(-0.36981225 0.080757929 -0.026244965)
(-0.39640066 0.079846067 -0.027063223)
(-0.42338176 0.078631899 -0.027828454)
(-0.4507039 0.077121219 -0.028556601)
(-0.47824343 0.075427555 -0.029323861)
(-0.50603876 0.073431713 -0.030009219)
(-0.5340315 0.071258082 -0.030697204)
(-0.56218375 0.068882244 -0.031351879)
(-0.59045198 0.066340643 -0.031987388)
(-0.61881706 0.063661466 -0.032616158)
(-0.64724737 0.060855061 -0.033231741)
(-0.67571453 0.057940978 -0.033844181)
(-0.70420724 0.05493938 -0.03444858)
(-0.73270579 0.051876228 -0.035070809)
(-0.76120258 0.048739136 -0.035674264)
(-0.78966798 0.045577154 -0.036310241)
(-0.81811242 0.04236185 -0.036931536)
(-0.84653798 0.039142779 -0.037579857)
(-0.87492467 0.035896773 -0.038228045)
(-0.90328895 0.032646057 -0.038890104)
(-0.93161934 0.029392502 -0.039561104)
(-0.95993261 0.02613762 -0.040237201)
(-0.98822398 0.022888064 -0.040922132)
(-1.0165039 0.019637504 -0.041608303)
(-1.0447833 0.016396354 -0.042294254)
(-1.0698197 -0.015109898 -0.042208778)
(-1.066564 -0.043401933 -0.041429976)
(-1.0633369 -0.071671381 -0.040648791)
(-1.0600723 -0.099968226 -0.039870682)
(-1.05684 -0.12823876 -0.03909139)
(-1.0535841 -0.15652892 -0.038316237)
(-1.0503426 -0.18480185 -0.037541822)
(-1.0188171 -0.20983561 -0.03609906)
(-0.99052242 -0.20661593 -0.035433178)
(-0.96222772 -0.2033903 -0.034770053)
(-0.93391485 -0.20017521 -0.034106319)
(-0.90559285 -0.19695469 -0.033442557)
(-0.87724736 -0.19373009 -0.032773332)
(-0.84888691 -0.1904883 -0.032097776)
(-0.82050506 -0.18722808 -0.03141144)
(-0.79211305 -0.18393605 -0.030716359)
(-0.76370551 -0.18060584 -0.029998232)
(-0.73530231 -0.17722946 -0.029263916)
(-0.70690166 -0.17380302 -0.028511275)
(-0.67852127 -0.17029218 -0.027711019)
(-0.65018609 -0.16672492 -0.026891465)
(-0.62190278 -0.16307311 -0.026026682)
(-0.59370497 -0.15933276 -0.025122824)
(-0.56561651 -0.15550115 -0.024173272)
(-0.53766431 -0.15156976 -0.02317323)
(-0.50988489 -0.14754209 -0.022120992)
(-0.48231654 -0.14340383 -0.02101969)
(-0.45499081 -0.13917432 -0.019855377)
(-0.42796206 -0.13482687 -0.018646649)
(-0.4012542 -0.13039894 -0.017367747)
(-0.37493525 -0.12584972 -0.016055193)
(-0.34904263 -0.1212327 -0.01467104)
(-0.32363001 -0.1165023 -0.013262817)
(-0.29874815 -0.11171969 -0.011790601)
(-0.27445414 -0.10682233 -0.010309096)
(-0.25080763 -0.10190704 -0.0087742317)
(-0.22784852 -0.096859485 -0.0072554463)
(-0.20565748 -0.09184199 -0.0056770534)
(-0.18426048 -0.086687526 -0.0041610753)
(-0.16376312 -0.08156718 -0.0026086041)
(-0.14422241 -0.076246423 -0.0011407426)
(-0.12567511 -0.071115643 0.00042426644)
(-0.10809451 -0.065703398 0.0017125524)
(-0.091690165 -0.060557093 0.0032338124)
(-0.076421401 -0.054991805 0.0043892638)
(-0.062283984 -0.049745797 0.0058089592)
(-0.049637476 -0.044009176 0.0068692053)
(-0.038124602 -0.039013123 0.0080400064)
(-0.027931282 -0.032942448 0.0088737045)
(-0.01938628 -0.027828961 0.0098760819)
(-0.01224322 -0.021957386 0.01018566)
(-0.0069657037 -0.01692407 0.010259129)
(-0.0033442627 -0.010694295 0.0094822103)
(-0.0046010315 -0.0068305865 0.005868396)
(0 5.4088132e-19 0)
(0 4.2284617e-19 0)
(0 -2.1911893e-19 0)
(0 -1.4397973e-18 7.2054363e-19)
(0 -1.2641547e-18 0)
(0 -2.7794339e-19 0)
(0 1.3291561e-18 0)
(0 1.8401608e-18 0)
(0 1.7541387e-18 0)
(0 1.6667307e-18 0)
(0 1.4394854e-18 -1.7683473e-19)
(0 3.8886662e-18 0)
(0 1.7047375e-18 0)
(0 -3.1410151e-19 0)
(-1.0772486 0.0072084978 -0.042969052)
(-1.076647 0.0080598792 -0.042974985)
(-1.0760419 0.0089145975 -0.04297262)
(-1.0754408 0.0097612616 -0.042974586)
(-1.074838 0.01061042 -0.042974537)
(-1.0742379 0.011455021 -0.042971099)
(-1.0736398 0.01229818 -0.042980661)
(-1.0513205 -0.21899877 -0.036724617)
(-1.0507169 -0.21814704 -0.036731577)
(-1.0501134 -0.21729448 -0.036742612)
(-1.0495108 -0.21644205 -0.03675003)
(-1.0489068 -0.21559216 -0.036758142)
(-1.0483045 -0.21474767 -0.036763519)
(-1.0477021 -0.21390777 -0.03676512)
(-0.00088687132 -0.013203333 -0.0072314829)
(-0.0033451568 -0.023599453 -0.0072629415)
(-0.0067315749 -0.035251067 -0.0085501239)
(-0.012487809 -0.046034626 -0.0089593637)
(-0.019054779 -0.056456079 -0.0093172591)
(-0.027869253 -0.06674898 -0.0096076108)
(-0.037291332 -0.075898779 -0.0099041193)
(-0.04868962 -0.084913292 -0.010266548)
(-0.060960697 -0.092597222 -0.010619529)
(-0.074771463 -0.099753425 -0.011124001)
(-0.089630597 -0.10580987 -0.011661611)
(-0.10582631 -0.11092363 -0.012216253)
(-0.1231449 -0.1151888 -0.012899695)
(-0.14164358 -0.11833432 -0.013569644)
(-0.16125039 -0.12065277 -0.014340065)
(-0.18192466 -0.12196975 -0.015126311)
(-0.20367164 -0.12250436 -0.015944055)
(-0.22635638 -0.12214589 -0.016790595)
(-0.24999153 -0.12114894 -0.017641535)
(-0.27447781 -0.11945112 -0.018493366)
(-0.29975909 -0.11725658 -0.019354251)
(-0.32575124 -0.11460772 -0.020187927)
(-0.35239524 -0.11165723 -0.021020592)
(-0.37958593 -0.10849557 -0.021823405)
(-0.40727241 -0.10527801 -0.022613159)
(-0.43536019 -0.10209716 -0.02335979)
(-0.46376665 -0.099091285 -0.02409406)
(-0.49242821 -0.096387007 -0.024797136)
(-0.52127021 -0.094076121 -0.025480793)
(-0.55021833 -0.092286004 -0.026142838)
(-0.57922126 -0.091107198 -0.026788172)
(-0.60822301 -0.090618334 -0.027419181)
(-0.63717437 -0.090905026 -0.028041485)
(-0.66604138 -0.092018998 -0.028656875)
(-0.69478943 -0.094008037 -0.029266674)
(-0.72339774 -0.09690608 -0.029876838)
(-0.75184831 -0.10071106 -0.030492255)
(-0.78012829 -0.10544108 -0.031097592)
(-0.80823851 -0.11106357 -0.03172209)
(-0.8361719 -0.11754462 -0.032344148)
(-0.86395554 -0.12483557 -0.032972523)
(-0.89157258 -0.13287169 -0.033605494)
(-0.91906719 -0.14157078 -0.03424427)
(-0.94643493 -0.1508484 -0.034888626)
(-0.97370499 -0.16059683 -0.035534257)
(-1.0009062 -0.17071291 -0.036187375)
(-1.0280506 -0.18107698 -0.036840961)
(0.0009881547 -0.014308506 -0.0047740181)
(-0.0015412709 -0.02568117 -0.005227109)
(-0.0055235397 -0.039775908 -0.0059371268)
(-0.010905031 -0.051182744 -0.0064977086)
(-0.018074599 -0.063381574 -0.0067654468)
(-0.026175702 -0.074059329 -0.0070723011)
(-0.035956287 -0.084372859 -0.0075475847)
(-0.046984666 -0.093331961 -0.0077745435)
(-0.059260971 -0.10132901 -0.0085112205)
(-0.072880191 -0.10804638 -0.0089449427)
(-0.087775857 -0.11355868 -0.009646111)
(-0.10387059 -0.11771412 -0.010346389)
(-0.12124466 -0.12063046 -0.011146247)
(-0.13982364 -0.12213654 -0.011988608)
(-0.15959263 -0.12246731 -0.012901179)
(-0.18049541 -0.12152206 -0.013790831)
(-0.20247553 -0.11947637 -0.014761396)
(-0.22549386 -0.11633664 -0.015738182)
(-0.24953734 -0.11229367 -0.016721133)
(-0.27446689 -0.10739857 -0.017731055)
(-0.30027604 -0.10185284 -0.01871808)
(-0.3268181 -0.095773017 -0.01969837)
(-0.35404063 -0.089326896 -0.020667355)
(-0.38183698 -0.082708645 -0.021602492)
(-0.41013704 -0.076052741 -0.022507281)
(-0.43880952 -0.069554231 -0.023396916)
(-0.46780521 -0.063386872 -0.024243374)
(-0.49701876 -0.057686855 -0.025057589)
(-0.52635671 -0.052650514 -0.025846481)
(-0.55577097 -0.048394405 -0.026599858)
(-0.58517584 -0.045064669 -0.027326788)
(-0.61451334 -0.042771605 -0.028033318)
(-0.64373998 -0.041616982 -0.028718109)
(-0.67280418 -0.041680849 -0.029383718)
(-0.70168447 -0.043018581 -0.030041048)
(-0.73034323 -0.045667348 -0.030685736)
(-0.75877744 -0.049642124 -0.031323512)
(-0.78696953 -0.054937393 -0.031953566)
(-0.81493285 -0.061513511 -0.032589002)
(-0.84265257 -0.069321616 -0.033213167)
(-0.87016385 -0.078283608 -0.033843564)
(-0.89745838 -0.088307341 -0.03447287)
(-0.9245826 -0.099273574 -0.035104607)
(-0.95154088 -0.11105539 -0.035735924)
(-0.97837577 -0.12351076 -0.036370433)
(-1.0051129 -0.13647778 -0.037005436)
(-1.0317747 -0.149796 -0.037643348)
(0.0024442997 -0.0093642601 -0.00303745)
(-0.00036181065 -0.017729023 -0.003041713)
(-0.0037317891 -0.026518573 -0.0034595075)
(-0.0098784198 -0.034825789 -0.0038735816)
(-0.016622516 -0.042535772 -0.0041520942)
(-0.025657973 -0.05023632 -0.0046579258)
(-0.035572809 -0.056652427 -0.0049586605)
(-0.047111035 -0.062974839 -0.0057023857)
(-0.059794041 -0.068097973 -0.0062978962)
(-0.073999346 -0.072683942 -0.0069593208)
(-0.089153083 -0.076347286 -0.0078429323)
(-0.10579367 -0.079103772 -0.0086572342)
(-0.12345415 -0.081086442 -0.0095926863)
(-0.14238753 -0.082098082 -0.010573863)
(-0.16238679 -0.082399272 -0.011605012)
(-0.18350538 -0.081798116 -0.012638742)
(-0.20564243 -0.080521389 -0.013749041)
(-0.22879326 -0.078497952 -0.014809746)
(-0.25283526 -0.075912424 -0.015951152)
(-0.27773175 -0.072768383 -0.01704105)
(-0.3033865 -0.069234729 -0.018158256)
(-0.32973849 -0.065350956 -0.019243199)
(-0.35671905 -0.061316623 -0.020310872)
(-0.38424041 -0.057164976 -0.021331526)
(-0.41220521 -0.053063975 -0.022352403)
(-0.44055125 -0.049120641 -0.023302722)
(-0.4692056 -0.045450949 -0.024224838)
(-0.49806066 -0.042160218 -0.025119205)
(-0.52708343 -0.039373645 -0.025965886)
(-0.55618623 -0.037166164 -0.026782485)
(-0.58531283 -0.03564582 -0.027573465)
(-0.61441851 -0.034882418 -0.028331717)
(-0.64345736 -0.034942023 -0.02906871)
(-0.67239057 -0.035884735 -0.029783501)
(-0.70119274 -0.037732838 -0.030486803)
(-0.72983888 -0.040531465 -0.031168654)
(-0.75831832 -0.044264501 -0.031846459)
(-0.78662296 -0.048944451 -0.032511305)
(-0.81474154 -0.054530725 -0.033175012)
(-0.84268801 -0.060991345 -0.0338317)
(-0.8704684 -0.068269261 -0.034488934)
(-0.89809009 -0.076303313 -0.035140293)
(-0.9255781 -0.084996632 -0.03579372)
(-0.95294484 -0.094281294 -0.03644483)
(-0.98020804 -0.10403062 -0.037097417)
(-1.007402 -0.11414973 -0.037752516)
(-1.0345349 -0.12451663 -0.038405007)
(0.0032866947 -0.00054888428 -0.00057762244)
(0.00059877447 -0.00032143422 -0.00033791475)
(-0.0031751522 -0.0012365428 -0.00060140732)
(-0.0089622379 -0.0011274682 -0.0012139583)
(-0.016805943 -0.0018361386 -0.0016075024)
(-0.025845998 -0.0021787341 -0.0021784568)
(-0.036635821 -0.0027261011 -0.0030188131)
(-0.048652603 -0.003466226 -0.0036632408)
(-0.062271352 -0.0041632757 -0.0045548212)
(-0.076974823 -0.0051517543 -0.0055180115)
(-0.093085684 -0.0061397102 -0.0064641185)
(-0.11036127 -0.0073441815 -0.0074573414)
(-0.1286865 -0.0087026844 -0.0085202412)
(-0.14818013 -0.010102388 -0.0096404151)
(-0.16856724 -0.011778709 -0.010741774)
(-0.18997357 -0.013477637 -0.011920883)
(-0.21218462 -0.0153957 -0.013066856)
(-0.2352205 -0.017371702 -0.014270202)
(-0.25900202 -0.019500705 -0.015452459)
(-0.28344067 -0.021732332 -0.016619488)
(-0.30854865 -0.024073375 -0.017789237)
(-0.33419903 -0.026551601 -0.018906376)
(-0.36034788 -0.029105801 -0.020015932)
(-0.38692117 -0.031732742 -0.02110814)
(-0.41389665 -0.034469066 -0.022149449)
(-0.44121528 -0.037266218 -0.023154504)
(-0.46881638 -0.040143741 -0.024147537)
(-0.49667029 -0.043068096 -0.025089246)
(-0.52472781 -0.046063317 -0.02599248)
(-0.55294682 -0.049091552 -0.026874318)
(-0.58129889 -0.052171347 -0.027710581)
(-0.60974465 -0.055284754 -0.028520765)
(-0.63826488 -0.05842165 -0.02930514)
(-0.66681792 -0.061592865 -0.030062908)
(-0.69540451 -0.06477248 -0.030803201)
(-0.72398341 -0.067976596 -0.031521725)
(-0.75256135 -0.071184313 -0.032235313)
(-0.78110711 -0.074405579 -0.032930789)
(-0.8096303 -0.077624388 -0.033627518)
(-0.83811452 -0.080854011 -0.034310375)
(-0.86656894 -0.084087062 -0.03499943)
(-0.89497894 -0.087319095 -0.035681135)
(-0.92336292 -0.090550444 -0.036374678)
(-0.95170488 -0.093788183 -0.037056958)
(-0.98002655 -0.097016792 -0.037756448)
(-1.0083324 -0.10025771 -0.038443337)
(-1.0366111 -0.10349599 -0.039145396)
(0.0038213359 0.0085738956 0.001802847)
(0.00070708875 0.016535756 0.0020310084)
(-0.0024805473 0.024891441 0.0017197247)
(-0.0092761624 0.032559008 0.0013123127)
(-0.017060924 0.03995909 0.00085121892)
(-0.027053074 0.046375092 -6.2639675e-05)
(-0.038376061 0.052236031 -0.00076117414)
(-0.051456702 0.05683946 -0.0016492569)
(-0.065658657 0.060751237 -0.0027560876)
(-0.081390486 0.063292948 -0.0037338733)
(-0.09819466 0.064909186 -0.0048582678)
(-0.11612733 0.065169481 -0.0060422696)
(-0.13507012 0.064461245 -0.0073093277)
(-0.15495265 0.062467996 -0.0085286326)
(-0.1756492 0.059390212 -0.0098451015)
(-0.19717802 0.055277842 -0.011111447)
(-0.2193427 0.050065347 -0.012415986)
(-0.24220952 0.04400529 -0.013672969)
(-0.26559309 0.037016852 -0.01494766)
(-0.2895447 0.02934239 -0.016174662)
(-0.31394942 0.020996831 -0.017410502)
(-0.33877755 0.012178855 -0.018594559)
(-0.36399211 0.0029668691 -0.01977617)
(-0.38959974 -0.0064937691 -0.020890419)
(-0.4155602 -0.016081547 -0.021979518)
(-0.44181928 -0.02565352 -0.023035634)
(-0.46839347 -0.035077599 -0.024056308)
(-0.49524112 -0.044230861 -0.025024899)
(-0.52234932 -0.052997748 -0.025973563)
(-0.54969881 -0.061255871 -0.026880327)
(-0.57728202 -0.068919343 -0.027756746)
(-0.60507822 -0.075885717 -0.028607326)
(-0.63308047 -0.082079445 -0.029435384)
(-0.66126274 -0.087456591 -0.030230656)
(-0.68963047 -0.091937471 -0.031020591)
(-0.71814673 -0.095529416 -0.031782852)
(-0.74681723 -0.098185506 -0.032539774)
(-0.77561809 -0.099932412 -0.0332821)
(-0.80453903 -0.10077501 -0.034015504)
(-0.83357852 -0.10076617 -0.034748647)
(-0.86269375 -0.099931127 -0.035478597)
(-0.89189353 -0.098355098 -0.036211459)
(-0.92116016 -0.096110777 -0.036939675)
(-0.95048583 -0.093295458 -0.037672692)
(-0.97985948 -0.090004696 -0.03840707)
(-1.009265 -0.086359883 -0.039142382)
(-1.0386872 -0.082466147 -0.039886064)
(0.0031951824 0.013084493 0.0044904349)
(-0.00028455544 0.026101953 0.004358608)
(-0.003849607 0.038620123 0.0046975145)
(-0.010593446 0.050988754 0.004097023)
(-0.018797562 0.062180943 0.0033943386)
(-0.028923591 0.072637631 0.002470362)
(-0.040765515 0.081772068 0.0015515031)
(-0.054019357 0.089606249 0.00034348153)
(-0.068773738 0.096036849 -0.00077849803)
(-0.084769827 0.10084579 -0.0020379688)
(-0.10197773 0.10415405 -0.0033390517)
(-0.12022556 0.10578733 -0.0046843968)
(-0.13945276 0.10580387 -0.0060206147)
(-0.15956244 0.10420774 -0.0074192418)
(-0.18041689 0.10100429 -0.0088060451)
(-0.20202408 0.096339649 -0.010210086)
(-0.22420998 0.09019508 -0.011583786)
(-0.24699472 0.082799709 -0.012967639)
(-0.27025757 0.074170597 -0.014326405)
(-0.29399525 0.064563749 -0.015651764)
(-0.31813202 0.054043848 -0.016967402)
(-0.34267343 0.04281966 -0.018226105)
(-0.36753554 0.031067641 -0.019461813)
(-0.39278142 0.019045246 -0.020652848)
(-0.41831009 0.0068025305 -0.021828101)
(-0.44415064 -0.0053598331 -0.022933223)
(-0.47028907 -0.017356323 -0.024017334)
(-0.49671602 -0.028935541 -0.025067613)
(-0.52341479 -0.039971816 -0.026077176)
(-0.55040155 -0.050279963 -0.027052481)
(-0.57765242 -0.059738244 -0.027993594)
(-0.60516728 -0.068211272 -0.028907045)
(-0.63294319 -0.075600894 -0.029786144)
(-0.66096105 -0.08181439 -0.030640715)
(-0.68922732 -0.086787612 -0.031476943)
(-0.71769942 -0.090490968 -0.03227973)
(-0.74640782 -0.092885326 -0.033080773)
(-0.77528947 -0.09399364 -0.033853066)
(-0.80437145 -0.093831138 -0.034628668)
(-0.83360731 -0.092455809 -0.035386193)
(-0.86299693 -0.089931237 -0.03614621)
(-0.89251461 -0.086362368 -0.036891742)
(-0.92215137 -0.081847459 -0.037644884)
(-0.95187722 -0.0765281 -0.038390068)
(-0.98168527 -0.07053546 -0.039145008)
(-1.0115457 -0.064038413 -0.039892729)
(-1.0414534 -0.057192625 -0.040649655)
(0.0014869559 0.012193395 0.0064534987)
(-0.0021533916 0.023080426 0.006624688)
(-0.0056201374 0.034543107 0.0072854057)
(-0.012541683 0.045283012 0.0066375945)
(-0.020281867 0.055574303 0.0060269821)
(-0.03056008 0.065089599 0.0049952361)
(-0.041944391 0.073672832 0.0039635081)
(-0.055149873 0.081134862 0.002724796)
(-0.069609019 0.087562671 0.0014880199)
(-0.0854343 0.092606429 0.00010815326)
(-0.10248837 0.09657287 -0.0013188263)
(-0.12056321 0.099055679 -0.002713131)
(-0.13973093 0.1003917 -0.0042537461)
(-0.15978911 0.10037535 -0.0057739553)
(-0.18068524 0.099117487 -0.0073034431)
(-0.20238145 0.096655518 -0.0088585694)
(-0.22472157 0.093054534 -0.010391161)
(-0.24774801 0.088399112 -0.011930027)
(-0.27127667 0.082797102 -0.013425666)
(-0.2953755 0.076332079 -0.014920276)
(-0.31989317 0.069139914 -0.016354803)
(-0.34486008 0.061358977 -0.01778884)
(-0.37021303 0.053079129 -0.019149226)
(-0.39592982 0.044490458 -0.020488877)
(-0.42195234 0.035687641 -0.021767789)
(-0.4482871 0.026826658 -0.023007855)
(-0.47492069 0.018031278 -0.024217896)
(-0.50181173 0.0094428161 -0.025363458)
(-0.52896035 0.00117424 -0.02646551)
(-0.55634603 -0.0066407213 -0.027527738)
(-0.58394354 -0.013922051 -0.028541281)
(-0.61176116 -0.020554763 -0.029521921)
(-0.63976368 -0.026474829 -0.030458553)
(-0.66795425 -0.031606931 -0.031367495)
(-0.69630943 -0.035904174 -0.03224028)
(-0.7248153 -0.039340272 -0.03308351)
(-0.75347916 -0.041874031 -0.033912032)
(-0.78225063 -0.043534436 -0.034704809)
(-0.8111582 -0.044310649 -0.035492276)
(-0.84015542 -0.044249924 -0.036259058)
(-0.86925567 -0.04339244 -0.037016863)
(-0.89844003 -0.041800676 -0.037765862)
(-0.92769034 -0.039552688 -0.038506775)
(-0.95700441 -0.036733918 -0.039247146)
(-0.98636405 -0.033448217 -0.039980067)
(-1.0157619 -0.029803079 -0.040714678)
(-1.0451886 -0.025913296 -0.041449484)
(0 -1.6340839e-19 0)
(0 9.1414916e-19 0)
(0 7.9052492e-19 0)
(0 6.9762439e-19 -2.391366e-19)
(0 2.7559854e-19 0)
(0 -9.6794158e-21 0)
(0 1.339713e-19 0)
(0 5.0195982e-20 0)
(0 -3.2615592e-19 0)
(0 -8.040723e-19 0)
(0 -9.9890235e-19 -1.6586365e-19)
(0 -1.63761e-19 0)
(0 2.0172392e-19 0)
(0 3.8965518e-19 0)
(0 3.1367143e-19 0)
(0 4.9407602e-19 0)
(0 9.023658e-19 0)
(0 9.0480465e-19 4.5575204e-19)
(0 7.7967164e-19 0)
(0 9.0784306e-19 0)
(0 3.0743187e-19 0)
(-5.2654943e-18 2.4805546e-19 0)
(2.2426154e-18 -5.6159794e-19 0)
(-1.3043552e-19 -2.2568279e-19 0)
(4.0491267e-19 -3.9755879e-19 -3.0169393e-19)
(-7.5630127e-19 -5.5501739e-19 0)
(-1.9357701e-18 -7.9337377e-19 0)
(2.9584224e-19 -6.5509613e-19 0)
(0 4.8748999e-19 0)
(0 1.743063e-19 0)
(0 -3.382246e-19 0)
(0 3.2972559e-20 8.6287765e-19)
(0 3.7191426e-19 0)
(0 5.4167554e-19 0)
(0 -1.504956e-19 0)
(0 -3.9280732e-19 0)
(0 -3.2113781e-19 0)
(0 7.5537357e-20 0)
(0 3.7688999e-19 -8.5880681e-20)
(0 2.7885565e-19 0)
(0 -1.0106789e-19 0)
(0 2.6095086e-19 0)
(0 4.8284955e-20 0)
(0 -2.8471012e-19 0)
(0 4.1682684e-19 0)
(0 2.6543728e-20 3.0511244e-19)
(0 4.1296238e-19 0)
(0 6.5307574e-19 0)
(0 5.914673e-19 0)
(-0.0035928578 0.0022443837 0.0048007902)
(-0.0044621413 0.0029170967 0.0033667282)
(-0.0053571421 0.0030422313 0.0017510552)
(-0.0057515469 0.0032467288 0.00047435332)
(-0.0056706484 0.0030376067 -0.00085510809)
(-0.0055762024 0.0032325084 -0.0022800834)
(-0.0046489249 0.0023297753 -0.0038815482)
(-0.0077902292 0.012251495 0.0069161286)
(-0.009348062 0.013347381 0.0038387929)
(-0.010012414 0.012587245 0.0016520077)
(-0.010249814 0.012296596 -0.00020696822)
(-0.01042923 0.01308023 -0.0020131657)
(-0.0096764062 0.013185388 -0.0043428726)
(-0.008801488 0.013409887 -0.0071907833)
(-0.010926335 0.015986109 0.0074061962)
(-0.012891364 0.01533847 0.005199092)
(-0.014146831 0.016146179 0.0020264796)
(-0.014397567 0.016318152 -0.00014282777)
(-0.014318015 0.016129877 -0.0029475168)
(-0.013506851 0.016581438 -0.0050357296)
(-0.012375083 0.01777567 -0.0086534145)
(-0.018020629 0.023644055 0.0067220058)
(-0.019474615 0.024180741 0.0043223732)
(-0.02052725 0.02424659 0.0014528765)
(-0.020874561 0.024328363 -0.00080692547)
(-0.020802035 0.024684291 -0.0034795493)
(-0.019945744 0.025574987 -0.0063359905)
(-0.018432262 0.025537673 -0.0089607062)
(-0.025296155 0.028582717 0.0064007638)
(-0.027082591 0.028619955 0.0040234537)
(-0.028328073 0.028951991 0.0011899035)
(-0.028607259 0.029273838 -0.0014587676)
(-0.028511336 0.029768876 -0.0041254439)
(-0.027645913 0.030253488 -0.0067034488)
(-0.026253398 0.031063545 -0.0098421476)
(-0.034968316 0.034584959 0.0052465026)
(-0.036381382 0.034960536 0.0029942003)
(-0.037517363 0.035298076 0.00022214502)
(-0.037791333 0.035807492 -0.002059767)
(-0.037664171 0.036181117 -0.0048764087)
(-0.036700839 0.036800806 -0.0075325947)
(-0.035246647 0.037455655 -0.010104753)
(-0.045787253 0.039318423 0.0043855124)
(-0.047320166 0.039658431 0.0019476476)
(-0.048330859 0.040228701 -0.00054375652)
(-0.048661735 0.040668764 -0.0029437171)
(-0.048461455 0.041305458 -0.0055866085)
(-0.047629469 0.042216759 -0.0079836899)
(-0.046257156 0.042921776 -0.010859272)
(-0.058169953 0.04434508 0.0030624674)
(-0.05958589 0.045024542 0.0010086365)
(-0.060617138 0.045589872 -0.00164239)
(-0.060838715 0.046217264 -0.0039083905)
(-0.060566478 0.04677521 -0.0062996535)
(-0.059766288 0.047531547 -0.008894649)
(-0.058246329 0.048232797 -0.011291989)
(-0.071985201 0.048699541 0.0019299914)
(-0.073331807 0.049230878 -0.00040649585)
(-0.074170263 0.049823991 -0.0026715018)
(-0.074406935 0.050525544 -0.0048513876)
(-0.074189069 0.051386468 -0.0072691895)
(-0.07336618 0.052214088 -0.0095271313)
(-0.072031091 0.053260748 -0.012098266)
(-0.087018426 0.052834968 0.00048538521)
(-0.088283769 0.053663559 -0.0015012471)
(-0.089165572 0.05438222 -0.0037790162)
(-0.08939706 0.055254926 -0.0060444571)
(-0.089108417 0.055997837 -0.0082144129)
(-0.088247635 0.056856428 -0.010517253)
(-0.086902218 0.05766663 -0.012818258)
(-0.10342034 0.056566515 -0.00090688076)
(-0.10459096 0.057288004 -0.0028974697)
(-0.10533516 0.058058055 -0.0052067257)
(-0.10546245 0.058762048 -0.0070581763)
(-0.10520524 0.059673696 -0.0093059106)
(-0.10437502 0.060574952 -0.011364415)
(-0.10306451 0.061846421 -0.01367719)
(-0.12091652 0.059921718 -0.002352537)
(-0.12203366 0.060785673 -0.0043462926)
(-0.12272725 0.061704469 -0.0062783112)
(-0.12291896 0.062722614 -0.0082788842)
(-0.1226338 0.063609141 -0.010436429)
(-0.12171832 0.06466566 -0.012341167)
(-0.12055972 0.065648643 -0.01460072)
(-0.13964152 0.062974431 -0.0038826136)
(-0.14056997 0.063792161 -0.0058123485)
(-0.14120045 0.06471838 -0.007666276)
(-0.14129163 0.065470727 -0.0096236399)
(-0.14096413 0.066466846 -0.011518862)
(-0.14011506 0.067541136 -0.013400129)
(-0.13894832 0.068667358 -0.01543231)
(-0.15931961 0.065570306 -0.0054501133)
(-0.16017789 0.066503019 -0.0072407063)
(-0.16084786 0.067478682 -0.0090227532)
(-0.16087467 0.068518035 -0.01080688)
(-0.16058092 0.069596096 -0.012725786)
(-0.15975278 0.070721558 -0.014431716)
(-0.15862083 0.071818994 -0.016470896)
(-0.18000763 0.067858436 -0.0070128206)
(-0.18081366 0.068764953 -0.0088194167)
(-0.18133825 0.069751484 -0.010402951)
(-0.18128709 0.070675086 -0.012231309)
(-0.1810131 0.071699289 -0.013890853)
(-0.18012743 0.072793125 -0.015575717)
(-0.17905957 0.073994225 -0.017404987)
(-0.20164146 0.06972676 -0.0086670945)
(-0.20237042 0.070700388 -0.010290003)
(-0.20279151 0.071720963 -0.011840611)
(-0.20284036 0.072783034 -0.013471811)
(-0.20244604 0.073900056 -0.015117026)
(-0.20167733 0.07511013 -0.016671859)
(-0.20059595 0.076253826 -0.018460159)
(-0.22411155 0.07123328 -0.010260285)
(-0.22470311 0.072186768 -0.011859806)
(-0.22515898 0.073257627 -0.013272719)
(-0.22499679 0.074236752 -0.014865745)
(-0.22470282 0.075362931 -0.016371645)
(-0.22385172 0.076467527 -0.017829379)
(-0.22283038 0.077726532 -0.019462657)
(-0.24735738 0.072374846 -0.011925256)
(-0.24796863 0.073401334 -0.013370332)
(-0.24821438 0.074446251 -0.014714299)
(-0.2481656 0.07553343 -0.016176558)
(-0.24776743 0.076664227 -0.017571649)
(-0.2469915 0.077893401 -0.018960763)
(-0.24596607 0.079069557 -0.020496734)
(-0.27138106 0.07316201 -0.013527328)
(-0.27177713 0.074146879 -0.014891433)
(-0.27209589 0.075244708 -0.016165877)
(-0.27187748 0.076282676 -0.017514446)
(-0.27153226 0.077435341 -0.018834444)
(-0.27070999 0.078574217 -0.020112716)
(-0.26974862 0.079846146 -0.021503589)
(-0.29598924 0.073606724 -0.015145487)
(-0.29641636 0.074632424 -0.016412198)
(-0.29655708 0.07571499 -0.017558551)
(-0.2963919 0.07681668 -0.018828643)
(-0.2959813 0.077938125 -0.020023503)
(-0.29521364 0.079178196 -0.021219155)
(-0.29424678 0.080357487 -0.022510191)
(-0.32126749 0.073699979 -0.016719399)
(-0.3215167 0.074717616 -0.017867729)
(-0.32167308 0.075826891 -0.018966533)
(-0.32140437 0.076877069 -0.020117845)