/*--------------------------------*- C++ -*----------------------------------*\
  =========                 |
  \\      /  F ield         | OpenFOAM: The Open Source CFD Toolbox
   \\    /   O peration     | Website:  https://openfoam.org
    \\  /    A nd           | Version:  6
     \\/     M anipulation  |
\*---------------------------------------------------------------------------*/
FoamFile
{
    version     2.0;
    format      ascii;
    class       pointVectorField;
    location    "0.12";
    object      lm;
}
// * * * * * * * * * * * * * * * * * * * * * * * * * * * * * * * * * * * * * //

dimensions      [1 -2 -1 0 0 0 0];

internalField   nonuniform List<vector> 
28033
(
(0 0 0)
(0 0 0)
(2804.3443 256.81618 -3.2651867)
(2734.1713 -577.88967 8.0165787)
(0 0 0)
(0 0 0)
(2735.4778 -576.07392 -7.405111)
(2802.1383 252.85584 10.089486)
(0 0 0)
(0 0 0)
(0 0 0)
(0 0 0)
(0 0 0)
(0 0 0)
(0 0 0)
(0 0 0)
(0 0 0)
(0 0 0)
(0 0 0)
(0 0 0)
(0 0 0)
(0 0 0)
(0 0 0)
(2788.0249 204.42027 -1.9982103)
(2769.4153 152.35295 -0.94541162)
(2754.8541 100.82441 -0.006956817)
(2745.6229 49.526844 0.70017612)
(2742.4704 -1.7200863 1.3596849)
(2745.0822 -53.278542 1.965144)
(2752.2268 -105.43489 2.7551273)
(2761.9838 -158.26194 3.4469444)
(2772.1703 -211.73767 4.1546661)
(2780.5108 -265.574 4.7878833)
(2785.0181 -319.49435 5.2467013)
(2784.395 -372.96842 5.7177421)
(2778.0634 -425.78413 6.1436831)
(2766.1792 -477.41473 6.5496558)
(2750.3147 -527.95693 7.1919141)
(2.403365 1.7692955 4.9908504)
(6.5022835 4.4920687 5.5195692)
(11.189303 2.9320983 3.9406017)
(15.92546 -0.45651341 0.28160922)
(21.191406 -4.090133 -5.4900922)
(26.254989 -9.2223767 -13.354835)
(29.83518 -14.58426 -21.034142)
(30.785611 -20.361897 -28.090883)
(27.469002 -26.41068 -32.322478)
(18.552752 -32.569441 -32.528717)
(3.4267986 -38.311486 -27.734065)
(-18.214844 -43.633121 -17.827678)
(-45.835007 -48.004654 -2.9167047)
(-78.051859 -51.095018 15.774785)
(-112.27858 -52.323092 36.003333)
(-146.22929 -51.940668 55.788689)
(-177.29962 -49.753371 73.190465)
(-203.44932 -45.951665 86.135969)
(-223.02902 -40.815237 92.94049)
(-234.90366 -34.77499 93.550532)
(-239.5865 -27.969423 88.115951)
(-238.48534 -21.127016 77.57282)
(-233.2753 -14.225613 64.017718)
(-226.25132 -7.0735199 49.322528)
(-220.23709 0.22887471 35.682448)
(-216.95215 8.4110248 25.188821)
(-217.82613 17.731359 19.079592)
(-223.03491 29.368273 17.972475)
(-231.99328 43.333838 21.772789)
(-243.10268 60.361968 29.504093)
(-253.4659 80.831804 39.612826)
(-261.33518 103.9643 50.771848)
(-263.89403 129.59353 61.096216)
(-258.61058 156.97672 69.288011)
(-244.60056 185.54137 74.052441)
(-221.38999 213.45578 75.530967)
(-188.72367 240.79558 73.409144)
(-147.77789 265.98301 68.04463)
(-100.16195 288.67268 60.491367)
(-47.356963 308.46983 51.675143)
(8.8347449 325.04245 42.204358)
(66.879752 338.46679 33.002061)
(125.48377 348.81899 24.488528)
(183.69655 356.41487 17.029754)
(240.89483 361.56043 10.713746)
(296.70181 364.65002 5.5842969)
(350.92179 366.03456 1.5548754)
(403.52569 366.08757 -1.4670528)
(454.48172 365.12698 -3.5520359)
(503.85693 363.47198 -4.7646711)
(551.68818 361.3937 -5.1352206)
(598.08951 359.15138 -4.7007328)
(643.19098 356.95968 -3.5075639)
(687.20673 355.00217 -1.6408726)
(730.4015 353.41672 0.77150967)
(773.10439 352.2902 3.5594218)
(815.677 351.66459 6.5187987)
(858.488 351.5359 9.431454)
(901.88405 351.85798 12.089821)
(946.161 352.55988 14.311611)
(991.53849 353.54896 15.964897)
(1038.1676 354.72853 16.961055)
(1086.0906 355.98737 17.28721)
(1135.3221 357.22149 16.948898)
(1185.7299 358.35674 16.032276)
(1237.2332 359.27247 14.62554)
(1289.599 359.90742 12.860257)
(1342.6441 360.1849 10.806981)
(1396.1403 360.0928 8.6342795)
(1449.8708 359.58365 6.4954873)
(1503.6328 358.63417 4.4401671)
(1557.2674 357.32366 2.5579433)
(1610.7004 355.65208 0.88272745)
(1663.8088 353.61856 -0.52122857)
(1716.6539 351.36627 -1.7149169)
(1769.2247 348.70458 -2.6609626)
(1821.5876 345.9675 -3.492772)
(1873.8348 342.7 -4.1259514)
(1925.903 339.45164 -4.7371067)
(1977.9389 335.58187 -5.1540717)
(2029.7662 331.71548 -5.5695854)
(2081.477 327.30931 -5.7598929)
(2132.9931 322.82312 -5.9471634)
(2184.3007 317.96571 -5.9370114)
(2235.529 313.03146 -5.9694175)
(2286.621 307.93269 -5.9110702)
(2337.7916 302.66234 -5.9620961)
(2388.956 297.48735 -6.0570276)
(2440.2933 292.09977 -6.2326073)
(2491.6301 286.9025 -6.4134102)
(2543.0377 281.56888 -6.5275868)
(2594.3687 276.47621 -6.4693557)
(2645.5613 271.34599 -6.1158349)
(2696.6643 266.40498 -5.520235)
(2747.4153 261.43215 -4.4814539)
(2.3086532 0.72710715 -0.73939015)
(5.3475006 -1.9592562 -1.157893)
(15.047369 -0.41693736 7.0093922)
(21.62858 -0.21027984 10.723924)
(27.863482 4.0399381 17.11642)
(32.602437 8.1813186 22.106514)
(34.932708 12.843426 26.413794)
(33.271309 18.852478 27.917404)
(26.397448 25.544774 26.564079)
(14.36437 32.246948 21.376406)
(-3.9831255 39.246777 12.350443)
(-27.403979 45.316609 -0.51284699)
(-55.728163 50.600056 -16.40581)
(-87.174364 54.206098 -34.023315)
(-119.71489 56.10774 -52.36541)
(-151.27555 55.845155 -69.026888)
(-179.69502 53.610716 -82.633634)
(-202.42422 49.720629 -91.550564)
(-218.98412 44.11273 -94.975531)
(-228.78461 37.938803 -92.469488)
(-231.99097 30.865412 -84.688742)
(-230.21385 23.827975 -73.260547)
(-225.82627 16.737348 -59.287932)
(-220.6799 9.6801046 -45.737434)
(-216.92709 2.683369 -33.952042)
(-216.53402 -5.143472 -25.61332)
(-220.3192 -14.079967 -21.896137)
(-228.1501 -24.684762 -23.020676)
(-239.20715 -37.783377 -28.293037)
(-251.54304 -53.324305 -36.997504)
(-263.00177 -71.912874 -47.390829)
(-271.12235 -93.053254 -57.944194)
(-273.57576 -116.86367 -67.306603)
(-268.68196 -142.47541 -74.255164)
(-255.12621 -169.33427 -78.082886)
(-232.78828 -196.44154 -78.666707)
(-201.52379 -222.78108 -75.778701)
(-162.13986 -248.02752 -70.143468)
(-116.14495 -271.1787 -62.252982)
(-64.907823 -291.92646 -53.064023)
(-10.124569 -309.91237 -43.317326)
(46.768201 -325.05295 -33.694392)
(104.45283 -337.42605 -24.727186)
(161.91159 -347.21118 -16.780307)
(218.39881 -354.68347 -10.040346)
(273.44873 -360.16091 -4.5653068)
(326.79756 -363.97999 -0.31374467)
(378.35734 -366.47426 2.8101588)
(428.13686 -367.96652 4.9154822)
(476.21254 -368.75605 6.1053295)
(522.69764 -369.12387 6.4616818)
(567.73067 -369.32372 6.0506557)
(611.48298 -369.58451 4.9343715)
(654.16226 -370.10478 3.1886855)
(696.02582 -371.0504 0.91955779)
(737.37744 -372.55069 -1.7284979)
(778.56072 -374.70035 -4.5715779)
(819.9383 -377.55466 -7.3997057)
(861.86192 -381.13833 -9.9993332)
(904.64764 -385.4421 -12.172857)
(948.53661 -390.42986 -13.774661)
(993.69423 -396.04058 -14.713392)
(1040.1789 -402.188 -14.976303)
(1087.9713 -408.77169 -14.605648)
(1136.9631 -415.66913 -13.704483)
(1187.0039 -422.75858 -12.39189)
(1237.8886 -429.90725 -10.814959)
(1289.4099 -437.01592 -9.0694706)
(1341.367 -443.94985 -7.3234108)
(1393.574 -450.67904 -5.5618389)
(1445.8114 -457.1826 -3.9387411)
(1498.0344 -463.39344 -2.4282805)
(1550.1252 -469.39192 -1.0700494)
(1602.0475 -475.16612 0.12672425)
(1653.8246 -480.77987 1.1711563)
(1705.4705 -486.23625 2.0564974)
(1757.0651 -491.56318 2.8327451)
(1808.6458 -496.74174 3.4941942)
(1860.2522 -501.77268 4.0955981)
(1911.88 -506.61117 4.6330171)
(1963.5062 -511.27579 5.1376771)
(2015.0819 -515.72965 5.6000709)
(2066.5546 -520.02284 6.0359148)
(2117.9144 -524.17605 6.444819)
(2169.1371 -528.2421 6.8402417)
(2220.2938 -532.3038 7.2462716)
(2271.4076 -536.37611 7.6678846)
(2322.5726 -540.54852 8.1193314)
(2373.7858 -544.80219 8.5770003)
(2425.0908 -549.1771 8.9993597)
(2476.4133 -553.63894 9.3288894)
(2527.7273 -558.20426 9.4929015)
(2578.9667 -562.84303 9.4444532)
(2630.1184 -567.57991 9.1773831)
(2681.9815 -572.55007 8.6509442)
(0 0 0)
(0 0 0)
(0 0 0)
(0 0 0)
(0 0 0)
(0 0 0)
(0 0 0)
(0 0 0)
(0 0 0)
(0 0 0)
(0 0 0)
(0 0 0)
(0 0 0)
(0 0 0)
(0 0 0)
(1.1461385 -1.296028 4.4705512)
(3.3186411 1.1350635 2.9135048)
(13.258144 -4.5281196 -1.9400666)
(18.519653 4.8654871 -7.0905209)
(24.880022 5.9398614 -13.421736)
(29.349443 11.314507 -19.704653)
(32.396377 17.303094 -24.670609)
(30.320995 23.586365 -29.565776)
(25.240703 29.539133 -28.795819)
(13.612598 36.951066 -26.194257)
(-3.6698073 42.155158 -19.177875)
(-25.390421 46.996433 -7.3226664)
(-53.017631 52.308928 7.1026499)
(-83.272436 53.847659 24.284812)
(-115.06539 56.377375 42.11146)
(-146.63477 56.103469 58.872507)
(-175.27938 53.630418 72.02503)
(-198.26898 50.644387 82.746297)
(-217.14081 46.415545 85.605573)
(-227.03407 40.107669 84.460426)
(-232.20975 34.904194 77.439983)
(-232.31765 28.874418 66.015973)
(-228.9776 21.840081 52.043997)
(-224.11358 15.099087 37.628413)
(-220.20725 7.5357801 24.99521)
(-219.45663 -1.1312574 14.792623)
(-221.1121 -10.122907 10.405427)
(-228.43407 -21.317325 8.7029716)
(-237.02186 -35.494584 13.683498)
(-248.10889 -51.695035 20.942342)
(-258.03804 -70.71906 31.441296)
(-265.25823 -92.395626 42.534362)
(-267.34544 -116.30742 53.451622)
(-262.79578 -141.84139 62.390813)
(-249.31363 -167.90014 69.000988)
(-228.54768 -195.39355 71.5305)
(-197.68266 -221.51432 71.798505)
(-159.65763 -246.19782 68.457498)
(-114.81953 -269.04584 62.785303)
(-64.638728 -289.48462 55.09805)
(-10.731231 -307.34232 46.426123)
(45.455582 -322.41945 37.374752)
(102.61239 -334.82666 28.572399)
(159.71288 -344.72858 20.489416)
(215.97528 -352.38188 13.41741)
(270.91641 -358.08498 7.4947821)
(324.26716 -362.16256 2.7437026)
(375.92777 -364.93342 -0.89979957)
(425.91439 -366.71331 -3.5382254)
(474.2999 -367.7998 -5.2746869)
(521.18822 -368.47429 -6.1932482)
(566.69513 -368.99578 -6.3503926)
(610.95673 -369.59746 -5.7861873)
(654.13851 -370.47993 -4.5436295)
(696.45541 -371.80651 -2.694055)
(738.17823 -373.69959 -0.35394407)
(779.63172 -376.23805 2.3072584)
(821.17574 -379.46171 5.0769541)
(863.1762 -383.37292 7.7207977)
(905.96798 -387.94521 10.016132)
(949.82172 -393.12696 11.780511)
(994.92037 -398.84658 12.896706)
(1041.3454 -405.01976 13.327421)
(1089.0835 -411.54371 13.099896)
(1138.0422 -418.3122 12.307031)
(1188.0594 -425.21661 11.063797)
(1238.977 -432.1335 9.5049165)
(1290.6759 -439.12019 7.7762223)
(1342.5506 -445.47371 5.8972057)
(1394.9422 -452.18733 4.0170323)
(1447.4531 -458.3625 2.2238906)
(1499.8766 -464.36706 0.5197264)
(1552.226 -470.13784 -1.0371112)
(1604.381 -475.73364 -2.4098001)
(1656.341 -481.18175 -3.5813478)
(1708.1164 -486.50814 -4.5356602)
(1759.735 -491.71905 -5.2788952)
(1811.2388 -496.80498 -5.8183554)
(1862.6481 -501.74473 -6.1746173)
(1913.9724 -506.50825 -6.3666068)
(1965.2022 -511.08771 -6.4224886)
(2016.3199 -515.46941 -6.3647108)
(2067.3208 -519.6858 -6.2406327)
(2118.2225 -523.76234 -6.0908146)
(2169.0753 -527.75959 -5.9852235)
(2219.9472 -531.72288 -5.9694238)
(2270.9143 -535.69883 -6.1050032)
(2322.0353 -539.72705 -6.3883148)
(2373.3061 -543.80517 -6.8067604)
(2424.7033 -547.96587 -7.2874929)
(2476.1377 -552.18589 -7.7464547)
(2527.5181 -556.49994 -8.0715619)
(2578.7592 -560.89989 -8.2225242)
(2629.8928 -565.47503 -8.1336914)
(2679.9281 -569.98907 -7.8343639)
(2752.7747 -526.54956 -5.9461509)
(2769.2347 -476.2537 -4.6998143)
(2779.0629 -424.45583 -3.6585653)
(2784.511 -371.87157 -2.703617)
(2784.4462 -318.70039 -1.729297)
(2778.4626 -265.09593 -0.75204982)
(2770.329 -211.85496 0.27707516)
(2761.0925 -159.03197 1.3354391)
(2749.2009 -106.71365 2.4744706)
(2741.5472 -55.048202 3.445524)
(2740.5978 -4.0582089 4.4098408)
(2744.3424 46.832578 5.3378561)
(2753.5492 97.795491 6.273023)
(2769.2059 149.20257 7.3245111)
(2789.5329 201.02561 8.6014748)
(2746.8982 257.68031 10.872698)
(2696.8613 262.78784 11.464254)
(2646.1184 267.90002 11.962747)
(2595.1976 273.12273 12.060372)
(2544.2236 278.37744 12.018208)
(2493.094 283.73677 11.710918)
(2441.9304 289.06423 11.26457)
(2390.6919 294.46347 10.684312)
(2339.4466 299.81784 10.073744)
(2288.1467 305.18547 9.4432442)
(2236.7911 310.46582 8.8576044)
(2185.3275 315.64286 8.3015727)
(2133.7462 320.61745 7.790007)
(2082.0074 325.34746 7.2769321)
(2030.1515 329.75608 6.7436526)
(1978.1562 333.8485 6.1475325)
(1926.0417 337.59814 5.4590148)
(1873.8058 341.02637 4.6388609)
(1821.4369 344.17113 3.6737426)
(1768.9014 347.04234 2.5485273)
(1716.1586 349.66701 1.2630056)
(1663.1864 352.01074 -0.17224837)
(1609.9706 354.05319 -1.736768)
(1556.5522 355.72559 -3.407862)
(1503.0081 356.99071 -5.1333337)
(1449.4595 357.78323 -6.896556)
(1396.1268 358.07641 -8.6350307)
(1342.8916 357.9497 -10.443771)
(1290.282 357.44623 -11.939034)
(1238.4353 356.52916 -13.239363)
(1187.4166 355.39511 -14.229337)
(1137.4356 354.11021 -14.796163)
(1088.5916 352.78282 -14.85342)
(1040.9484 351.51842 -14.353436)
(994.49718 350.42533 -13.281742)
(949.15566 349.60514 -11.691059)
(904.76011 349.15718 -9.6876563)
(861.07348 349.17274 -7.4248795)
(817.80075 349.71978 -5.0865886)
(774.61059 350.83986 -2.862796)
(731.16927 352.52795 -0.92314729)
(687.16261 354.73227 0.59654509)
(642.32466 357.33935 1.6055416)
(596.44165 360.18634 2.0530569)
(549.35849 363.05393 1.9141523)
(500.95839 365.68609 1.1689488)
(451.15753 367.78882 -0.21846369)
(399.88238 369.04207 -2.3132427)
(347.07212 369.10964 -5.2235083)
(292.7248 367.63474 -9.0670712)
(236.8572 364.2195 -13.957127)
(179.70776 358.59426 -20.02002)
(121.64469 350.25317 -27.14361)
(63.360024 339.06243 -35.278384)
(5.7973929 324.75633 -44.077108)
(-49.786308 307.31497 -53.021426)
(-101.74111 286.94274 -61.425799)
(-149.02648 263.84342 -68.410512)
(-188.01486 237.63711 -73.669605)
(-220.67747 211.12961 -76.015255)
(-243.88529 184.28084 -75.050688)
(-256.29379 154.47977 -70.790994)
(-261.73306 129.75078 -63.788487)
(-259.53346 105.02315 -55.091504)
(-251.68624 83.764472 -45.182329)
(-240.9562 62.732764 -35.103699)
(-228.92674 48.239678 -28.562266)
(-220.13093 33.850891 -23.773337)
(-213.42912 22.946903 -24.560524)
(-211.35223 12.853486 -28.99906)
(-213.31242 4.4402208 -38.020997)
(-218.11256 -3.8022815 -50.295149)
(-224.5786 -9.2674536 -64.568996)
(-230.27088 -17.316024 -77.589768)
(-232.72322 -24.084433 -88.585703)
(-229.24252 -29.496752 -96.815636)
(-220.93034 -34.951647 -97.053673)
(-203.13156 -39.743428 -93.816513)
(-180.64132 -41.452158 -82.267913)
(-151.3444 -44.112263 -67.158744)
(-118.97961 -43.827015 -48.219231)
(-85.15299 -41.624551 -28.461088)
(-52.789079 -39.288529 -8.9843109)
(-24.2353 -35.761077 8.3793889)
(0.42373594 -31.910392 20.46764)
(18.245596 -27.684097 27.444375)
(29.394644 -21.09604 29.838057)
(35.61882 -17.575792 27.448113)
(36.571974 -12.058225 21.565115)
(34.224887 -6.9915875 14.164696)
(29.752016 -1.5755197 5.9964041)
(23.207658 2.1173661 -0.27708409)
(18.912341 3.7847644 -3.1223608)
(11.653016 8.0594833 -5.9744083)
(4.1923552 5.1891033 -8.0856787)
(0 0 0)
(0 0 0)
(0 0 0)
(0 0 0)
(0 0 0)
(0 0 0)
(0 0 0)
(0 0 0)
(0 0 0)
(0 0 0)
(0 0 0)
(0 0 0)
(0 0 0)
(0 0 0)
(0 0 0)
(0 0 0)
(0 0 0)
(0 0 0)
(0 0 0)
(0 0 0)
(0 0 0)
(0 0 0)
(0 0 0)
(0 0 0)
(0 0 0)
(0 0 0)
(0 0 0)
(0 0 0)
(0 0 0)
(0 0 0)
(2733.3801 -577.31259 8.0491952)
(2732.2458 -576.6926 8.0012198)
(2730.7247 -575.80509 7.639878)
(2728.9157 -574.73838 6.9253345)
(2727.1078 -573.63648 5.7915058)
(2725.5081 -572.61189 4.3294291)
(2724.4103 -571.85158 2.5807313)
(2723.9818 -571.46513 0.70703013)
(2724.2916 -571.50266 -1.201125)
(2725.2722 -571.89418 -2.9651729)
(2726.8023 -572.6107 -4.4976776)
(2728.6484 -573.41727 -5.7127048)
(2730.5679 -574.2661 -6.5779785)
(2732.3973 -574.96128 -7.0945944)
(2733.971 -575.59434 -7.373624)
(2803.2478 255.63291 -3.378487)
(2801.6418 254.59649 -3.3467385)
(2799.6566 253.44915 -3.0865414)
(2797.3883 252.20203 -2.4852314)
(2795.0605 250.98902 -1.534789)
(2792.9894 249.9184 -0.26106438)
(2791.5104 249.15987 1.2871761)
(2790.838 248.77743 2.9805174)
(2791.0395 248.79538 4.7203805)
(2792.0399 249.1339 6.3391568)
(2793.6298 249.69481 7.7528965)
(2795.5404 250.33553 8.8296613)
(2797.5121 250.98169 9.5857366)
(2799.2846 251.57343 9.9458628)
(2800.8701 252.08839 10.137947)
(1.4738326 -0.16852005 3.3132431)
(6.7624804 0.57834031 3.3043876)
(12.597871 -2.3944234 1.023591)
(17.315647 -5.3669923 -1.5706363)
(23.231759 -8.5928324 -7.4103592)
(27.935041 -12.077984 -13.218554)
(31.664647 -14.753216 -19.667869)
(32.173976 -17.12174 -24.669321)
(28.955709 -18.597626 -27.633089)
(20.049722 -19.420636 -27.438657)
(4.9813315 -19.939125 -23.169115)
(-16.4602 -20.298744 -15.014458)
(-43.671836 -20.571817 -3.1312511)
(-75.348543 -21.304296 11.58004)
(-109.2898 -22.481339 27.810677)
(-143.23046 -23.885635 43.650126)
(-174.85191 -25.424489 57.633451)
(-201.62068 -26.671653 68.389807)
(-221.82358 -27.419797 74.738685)
(-234.83688 -27.128376 76.061963)
(-240.7975 -25.424649 72.763444)
(-240.72155 -22.299472 65.411773)
(-236.47124 -17.092042 55.502745)
(-230.48019 -10.135124 44.35145)
(-225.14274 -1.29396 33.848529)
(-222.31737 9.3939322 25.504832)
(-223.60264 21.933062 20.214363)
(-229.33303 35.742874 18.791281)
(-238.73442 51.191284 21.170724)
(-250.48393 67.778565 26.69476)
(-262.02469 85.364227 34.487176)
(-270.79309 104.11239 43.084825)
(-274.35027 123.50419 51.427861)
(-270.4101 143.48022 58.213681)
(-257.36691 163.83506 62.593865)
(-234.60075 184.09773 64.279962)
(-202.21987 204.00238 63.099005)
(-161.22911 223.00149 59.252691)
(-112.87632 241.06375 53.470265)
(-59.135379 257.46727 46.434797)
(-1.6822336 272.02718 38.68794)
(57.806364 284.54591 30.924446)
(117.96645 294.89016 23.594012)
(177.72954 303.0928 17.025871)
(236.38277 309.25509 11.358226)
(293.53304 313.55003 6.674951)
(348.94462 316.22646 2.934075)
(402.55786 317.57345 0.10258235)
(454.36256 317.87763 -1.891222)
(504.41084 317.42723 -3.092222)
(552.77039 316.47776 -3.5488666)
(599.55721 315.24949 -3.3017202)
(644.92874 313.92098 -2.4089408)
(689.11072 312.62564 -0.95033504)
(732.38983 311.45669 0.96185391)
(775.11017 310.46891 3.1867302)
(817.64805 309.69225 5.5570182)
(860.38604 309.12802 7.8992838)
(903.67861 308.76673 10.046268)
(947.8282 308.58437 11.851808)
(993.06007 308.55029 13.204015)
(1039.5231 308.63021 14.03547)
(1087.2731 308.76877 14.324607)
(1136.2999 308.92558 14.080383)
(1186.501 309.05978 13.352778)
(1237.7869 309.0594 12.233008)
(1289.9242 308.95752 10.761309)
(1342.7168 308.63851 9.1317844)
(1395.9358 308.09204 7.3577681)
(1449.3223 307.24642 5.6062199)
(1502.7485 306.12877 3.9059787)
(1555.989 304.71418 2.3363079)
(1608.9909 303.0105 0.93100981)
(1661.623 300.99595 -0.2671627)
(1713.96 298.71769 -1.2905829)
(1765.9792 296.08553 -2.13473)
(1817.7767 293.23618 -2.8552066)
(1869.4071 289.97002 -3.4336612)
(1920.8769 286.57012 -3.9611551)
(1972.2576 282.6989 -4.3260994)
(2023.4403 278.73366 -4.6693668)
(2074.4975 274.38107 -4.8463742)
(2125.3225 269.86585 -4.9670716)
(2175.9585 265.08804 -4.9727086)
(2226.4502 260.16963 -4.9934833)
(2276.8467 255.01915 -4.9779203)
(2327.2834 249.81934 -5.0463164)
(2377.7173 244.49906 -5.1330056)
(2428.3209 239.17841 -5.2604973)
(2478.9214 233.89525 -5.3766444)
(2529.6561 228.69099 -5.3842265)
(2580.2391 223.62022 -5.2190572)
(2630.7875 218.64684 -4.8197937)
(2681.31 213.83282 -4.1365552)
(2732.2724 209.03122 -3.174462)
(3.3276283 -2.4285914 1.6746123)
(8.7921753 -0.049647929 1.113849)
(13.839118 -4.4163291 0.17662575)
(20.081437 -5.2142259 -3.6297632)
(25.075196 -8.3551983 -8.1233535)
(30.239727 -10.272843 -13.52711)
(32.999269 -12.085241 -18.695303)
(33.326808 -12.747293 -23.161598)
(29.26586 -12.712925 -25.524008)
(20.141035 -11.862323 -25.235366)
(5.0841697 -10.60605 -21.702564)
(-15.860168 -9.2921558 -14.837655)
(-42.202308 -8.330855 -4.8936308)
(-72.731632 -8.0585324 7.3293579)
(-105.64632 -8.6428205 20.665963)
(-138.63803 -10.160796 33.895411)
(-169.38066 -12.313705 45.717287)
(-195.96851 -14.995469 54.838324)
(-216.74958 -17.494402 60.391833)
(-230.80447 -19.370487 62.02325)
(-238.29871 -19.987164 59.829879)
(-240.13216 -18.818624 54.388292)
(-237.98668 -15.555481 46.70068)
(-233.9606 -9.8687221 38.059851)
(-230.22858 -1.8536676 29.826441)
(-228.89802 8.4749569 23.060794)
(-231.07514 20.588828 18.846098)
(-237.27356 34.396616 17.59434)
(-247.04891 49.274675 19.29433)
(-258.75293 64.900402 23.685273)
(-270.31615 80.877914 29.842459)
(-279.27144 96.948676 36.828904)
(-283.07371 113.03714 43.616764)
(-279.45778 128.9788 49.247027)
(-266.83961 144.66973 53.051983)
(-244.48771 160.10079 54.656521)
(-212.56995 175.14187 53.806825)
(-171.67856 189.70701 50.889145)
(-123.34643 203.66707 46.313593)
(-69.2686 216.71006 40.501812)
(-11.110922 228.62913 34.124517)
(49.281007 239.23365 27.584005)
(110.58409 248.2958 21.401528)
(171.58481 255.8105 15.735226)
(231.53399 261.72362 10.790273)
(289.9264 266.09807 6.673848)
(346.4737 269.08065 3.3553699)
(401.07237 270.88398 0.8251133)
(453.70002 271.72229 -0.97492908)
(504.40455 271.83918 -2.0781596)
(553.27157 271.44134 -2.5361875)
(600.43736 270.7191 -2.3866845)
(646.08466 269.81571 -1.6904379)
(690.46183 268.83684 -0.51819521)
(733.87341 267.85088 1.0313386)
(776.67478 266.89757 2.8377777)
(819.2484 265.99473 4.7633245)
(861.97723 265.14773 6.6663566)
(905.21276 264.35789 8.4068093)
(949.2552 263.62032 9.867534)
(994.32792 262.93225 10.957925)
(1040.5812 262.28707 11.623098)
(1088.0707 261.65881 11.850471)
(1136.7871 261.05933 11.63324)
(1186.6581 260.43002 11.048661)
(1237.5719 259.7516 10.122375)
(1289.2817 259.00005 9.0027902)
(1341.6461 258.07969 7.658829)
(1394.465 257.06597 6.2359197)
(1447.4835 255.86907 4.8069567)
(1500.4802 254.48466 3.440997)
(1553.2942 252.85342 2.1684569)
(1605.8365 251.01389 1.0172371)
(1658.016 248.86025 0.033705784)
(1709.877 246.50755 -0.85431469)
(1761.4085 243.73951 -1.5412581)
(1812.7128 240.83476 -2.2050214)
(1863.8187 237.43866 -2.6608054)
(1914.7651 234.00356 -3.1596372)
(1965.5734 230.02055 -3.4069544)
(2016.2133 226.09583 -3.7604156)
(2066.6676 221.66583 -3.8443745)
(2116.9245 217.21137 -3.9844894)
(2166.1458 212.35533 -4.0098606)
(2215.5984 207.41904 -4.0617006)
(2265.3434 202.31753 -4.048633)
(2315.135 197.13665 -4.1345174)
(2364.9337 191.87953 -4.1843889)
(2414.8914 186.56786 -4.3159199)
(2464.8667 181.411 -4.3616793)
(2514.9628 176.23346 -4.3231175)
(2564.9405 171.28869 -4.131879)
(2614.9711 166.41458 -3.6823221)
(2664.9134 161.64117 -3.032563)
(2715.4 156.94408 -2.0568951)
(4.4671596 -0.97013462 0.88737768)
(8.5985518 -0.47399859 0.98360832)
(15.778361 -3.1026885 -1.0358664)
(20.894277 -4.6680541 -3.548734)
(26.705416 -6.1362138 -7.8332953)
(31.11117 -7.5163166 -12.008268)
(33.808912 -7.8771848 -16.78491)
(33.475987 -7.5343493 -20.326319)
(29.146686 -6.3144154 -22.338832)
(19.779048 -4.6147454 -22.18967)
(4.9347409 -2.53109 -19.356541)
(-15.565834 -0.66757762 -13.855685)
(-41.128897 0.72559697 -5.9101975)
(-70.627358 1.1964516 3.838668)
(-102.32072 0.63385651 14.621079)
(-134.2523 -1.0680404 25.32051)
(-164.32832 -3.7056956 34.895049)
(-190.6027 -6.8652251 42.400391)
(-211.5326 -10.120034 47.192485)
(-226.38569 -12.806082 48.889696)
(-235.214 -14.306453 47.581931)
(-238.70302 -14.158299 43.66793)
(-238.46149 -11.818048 37.968714)
(-236.36275 -7.2418691 31.390335)
(-234.49423 -0.23215643 24.949111)
(-234.55602 8.846723 19.693197)
(-237.81098 19.835814 16.246059)
(-244.70068 32.131249 15.093762)
(-254.63087 45.326375 16.348001)
(-266.35407 58.874107 19.666398)
(-277.80954 72.449503 24.473185)
(-286.54224 85.797207 30.05977)
(-290.17889 98.722936 35.580798)
(-286.5805 111.15585 40.31338)
(-274.15796 123.23992 43.631794)
(-252.20442 134.94439 45.170582)
(-220.62102 146.3652 44.91172)
(-180.14068 157.48851 42.911914)
(-131.96555 168.28183 39.4041)
(-77.746368 178.57584 34.858563)
(-19.316594 188.20911 29.720713)
(41.65832 196.97046 24.327839)
(103.67538 204.67322 19.156693)
(165.58274 211.16006 14.36453)
(226.50934 216.4093 10.114235)
(285.85567 220.41028 6.5211032)
(343.30121 223.24315 3.5914452)
(398.68369 225.05308 1.3252215)
(451.96599 226.00405 -0.31067498)
(503.18187 226.28462 -1.3505702)
(552.43503 226.0678 -1.8365556)
(599.87276 225.5094 -1.8063125)
(645.70585 224.72674 -1.3151468)
(690.19941 223.80785 -0.42267701)
(733.67584 222.80843 0.7865628)
(776.49882 221.75916 2.2156995)
(819.05508 220.67771 3.7544832)
(861.72485 219.57165 5.2849563)
(904.85784 218.45012 6.6953224)
(948.74998 217.31716 7.8906527)
(993.62584 216.18433 8.791769)
(1039.6315 215.05038 9.3591554)
(1086.8307 213.9249 9.5670943)
(1135.2279 212.80339 9.4264813)
(1184.7438 211.65224 8.9857167)
(1235.2461 210.47669 8.2729533)
(1286.5862 209.28551 7.3343708)
(1338.9936 207.98209 6.2833021)
(1391.2871 206.53974 5.1642061)
(1443.851 204.99303 4.0569797)
(1496.4239 203.25566 2.9786713)
(1548.7919 201.34616 1.9699001)
(1600.9146 199.21781 1.043392)
(1652.6767 196.87925 0.23999396)
(1704.1438 194.25858 -0.46531729)
(1755.2694 191.38868 -1.0553719)
(1806.1984 188.25383 -1.577463)
(1856.879 184.83836 -1.9850841)
(1907.4408 181.2073 -2.3449085)
(1957.8127 177.30398 -2.6001089)
(2008.0426 173.25509 -2.815326)
(2058.0869 168.88004 -2.8895226)
(2107.9188 164.48822 -3.0192033)
(2157.6388 159.75531 -2.9874477)
(2205.9227 154.91987 -3.0276493)
(2255.3785 149.85934 -3.0267589)
(2304.8486 144.82786 -3.1315838)
(2354.3585 139.59276 -3.1910709)
(2404.0026 134.51901 -3.3151949)
(2453.6649 129.36201 -3.3055384)
(2503.4451 124.36907 -3.2781417)
(2553.1631 119.50742 -3.0143294)
(2602.9108 114.70326 -2.6078897)
(2652.6948 110.01773 -1.9451304)
(2702.7722 105.40298 -1.0523462)
(5.547287 -2.0053735 0.3555214)
(10.606935 -0.70042214 -0.19433376)
(16.744221 -3.0975343 -1.1469167)
(22.450764 -3.7313374 -3.5878899)
(27.772461 -4.6959578 -7.1176828)
(32.351176 -5.2474504 -10.964814)
(34.540137 -4.9988204 -14.910343)
(34.023481 -3.9506098 -17.902247)
(29.291745 -2.4328864 -19.689443)
(19.866141 -0.32865735 -19.622746)
(5.0490757 1.8698133 -17.426583)
(-15.066003 3.8510917 -13.066553)
(-39.970324 5.2327964 -6.7958711)
(-68.563465 5.735172 0.97772379)
(-99.300708 5.1444398 9.4684443)
(-130.32617 3.4703505 17.93209)
(-159.66912 0.9059696 25.526538)
(-185.54204 -2.2863671 31.549751)
(-206.58192 -5.5289363 35.450467)
(-222.06603 -8.3444383 36.987096)
(-231.91482 -10.130231 36.205201)
(-236.91718 -10.391455 33.437302)
(-238.40267 -8.7948135 29.257419)
(-238.11943 -5.0619001 24.358803)
(-237.90639 0.73094849 19.608178)
(-239.42347 8.4778514 15.627801)
(-243.75498 17.80076 13.045658)
(-251.24972 28.276904 12.207393)
(-261.46366 39.418518 13.145906)
(-273.08982 50.784773 15.678349)
(-284.21162 61.98072 19.432121)
(-292.56601 72.742271 23.786806)
(-295.86763 82.938162 28.166708)
(-292.03264 92.611997 31.937911)
(-279.59382 101.73632 34.68968)
(-257.70595 110.49263 36.091069)
(-226.19497 118.95859 36.049534)
(-185.78339 127.31933 34.538608)
(-137.93024 135.39151 31.960114)
(-83.911264 143.13789 28.489131)
(-25.506418 150.43386 24.434661)
(35.647488 157.15798 20.229163)
(98.020712 163.14883 16.028817)
(160.39715 168.27485 12.123476)
(221.8823 172.46489 8.6398096)
(281.82869 175.68684 5.6620629)
(339.84924 177.98561 3.2217726)
(395.73738 179.45365 1.3209713)
(449.42778 180.20869 -0.060459084)
(500.95052 180.39437 -0.95458724)
(550.41105 180.14462 -1.3945258)
(597.97265 179.58082 -1.4191488)
(643.863 178.79536 -1.0733854)
(688.36203 177.85884 -0.40874065)
(731.80384 176.81098 0.50812644)
(774.55716 175.67659 1.6038572)
(817.00798 174.46779 2.7899241)
(859.53523 173.19074 3.9780492)
(902.48416 171.85379 5.0812612)
(946.14981 170.46504 6.0225403)
(990.75462 169.03251 6.7446775)
(1036.4522 167.57566 7.2071862)
(1083.3123 166.08955 7.3979485)
(1131.3532 164.5843 7.3228283)
(1180.4776 163.04675 7.0214454)
(1230.6138 161.49699 6.4861824)
(1281.5612 159.86718 5.836864)
(1333.147 158.20261 5.1002063)
(1385.1549 156.41327 4.2720591)
(1437.3453 154.52812 3.4495969)
(1489.5906 152.48003 2.6572672)
(1541.6549 150.28946 1.8940742)
(1593.4755 147.89273 1.2130186)
(1645.0171 145.27091 0.57193979)
(1696.286 142.4426 0.0056808497)
(1747.2486 139.37232 -0.47805028)
(1798.0244 136.10035 -0.92190694)
(1848.5535 132.5578 -1.2498327)
(1899.0009 128.88688 -1.5877711)
(1949.22 124.91271 -1.75686)
(1999.3714 120.87164 -1.9599209)
(2049.2771 116.52503 -2.0089342)
(2099.1096 112.1775 -2.1046944)
(2148.7138 107.45727 -2.0631451)
(2198.2807 102.80597 -2.14479)
(2247.7491 97.852703 -2.1208487)
(2297.3301 92.870595 -2.2354126)
(2346.8692 87.885928 -2.2822316)
(2396.5876 82.812961 -2.3581686)
(2446.2695 77.83907 -2.3555871)
(2496.1455 72.953921 -2.2910332)
(2545.8598 68.127817 -2.0166224)
(2595.7528 63.432909 -1.6333941)
(2645.5741 58.76272 -0.98902026)
(2695.6099 54.193886 -0.20625744)
(6.453336 -0.77380927 0.1802694)
(11.064631 0.05250334 1.0186403)
(17.654339 -1.4163926 -0.59276007)
(23.035685 -2.302939 -2.2133318)
(28.686159 -2.5856201 -5.6150765)
(32.757765 -2.8717149 -8.4718391)
(34.890293 -2.1896951 -11.849723)
(33.935731 -1.1643172 -14.391339)
(28.984307 0.48250151 -15.938271)
(19.303433 2.3461934 -16.047308)
(4.4979674 4.3605798 -14.446646)
(-15.402504 5.996376 -11.214813)
(-39.844542 7.147459 -6.4212593)
(-67.768962 7.4344891 -0.59169998)
(-97.722801 6.8214553 5.8718921)
(-127.92395 5.2481832 12.240775)
(-156.5652 2.9144165 17.980694)
(-181.98894 0.10322936 22.483756)
(-202.93879 -2.7784562 25.432407)
(-218.69377 -5.2837322 26.602926)
(-229.29156 -6.928426 26.071667)
(-235.37501 -7.3485248 24.055691)
(-238.21653 -6.178761 20.993233)
(-239.41107 -3.3368421 17.42843)
(-240.67699 1.2604176 13.906473)
(-243.48063 7.395851 10.969083)
(-248.79688 14.835619 9.0484108)
(-256.93023 23.184426 8.3821634)
(-267.3706 32.060652 9.0460481)
(-278.88932 41.046544 10.940095)
(-289.65968 49.824545 13.733931)
(-297.5319 58.169601 17.050449)
(-300.31894 65.975943 20.41706)
(-296.07137 73.176924 23.421864)
(-283.34828 79.90201 25.695283)
(-261.381 86.186769 26.980838)
(-230.01362 92.334491 27.193105)
(-190.32794 98.096048 26.434927)
(-142.73544 103.46894 24.662617)
(-88.885081 108.79655 22.184283)
(-30.587294 113.85937 19.288617)
(30.539659 118.58299 16.107127)
(93.020959 122.81292 12.951957)
(155.63675 126.44461 9.9636651)
(217.4088 129.40613 7.2537988)
(277.67004 131.66059 4.9107259)
(335.98877 133.23319 2.9688251)
(392.12788 134.17227 1.4352449)
(446.00379 134.56698 0.29791139)
(497.63986 134.51472 -0.46638071)
(547.144 134.11591 -0.8843468)