/*--------------------------------*- C++ -*----------------------------------*\
  =========                 |
  \\      /  F ield         | OpenFOAM: The Open Source CFD Toolbox
   \\    /   O peration     | Website:  https://openfoam.org
    \\  /    A nd           | Version:  6
     \\/     M anipulation  |
\*---------------------------------------------------------------------------*/
FoamFile
{
    version     2.0;
    format      ascii;
    class       pointVectorField;
    location    "0.91";
    object      u;
}
// * * * * * * * * * * * * * * * * * * * * * * * * * * * * * * * * * * * * * //

dimensions      [0 1 0 0 0 0 0];

internalField   nonuniform List<vector> 
3969
(
(0 0 0)
(0 0 0)
(2.8260813 -0.4513415 0.031788947)
(2.6064319 -1.0758068 0.021133259)
(0 0 0)
(0 0 0)
(2.6100662 -1.0881979 0.020526221)
(2.8296165 -0.4639042 0.031199078)
(0 0 0)
(0 0 0)
(0 0 0)
(0 0 0)
(0 0 0)
(0 0 0)
(0 0 0)
(2.7980838 -0.52990828 0.030075185)
(2.7703939 -0.60771329 0.028835681)
(2.7429431 -0.68542472 0.027557622)
(2.7156975 -0.76308825 0.026438707)
(2.6885505 -0.84085256 0.025249147)
(2.6613848 -0.91878749 0.024075567)
(2.6341833 -0.99707478 0.022681765)
(0.0075272604 0.016199791 0.017822865)
(0.01220875 0.029067633 0.021871412)
(0.021603785 0.043203461 0.024624028)
(0.035773063 0.056790527 0.02539131)
(0.053507887 0.070403465 0.025947344)
(0.075817949 0.083018477 0.025805348)
(0.101439 0.094946518 0.025915915)
(0.13123323 0.10568448 0.025596209)
(0.1642484 0.11532009 0.02556332)
(0.20081922 0.1235484 0.025198254)
(0.24055961 0.13060001 0.025128672)
(0.28342953 0.13615195 0.0248266)
(0.32918848 0.14030931 0.02459654)
(0.37777827 0.14304477 0.024369429)
(0.42903802 0.14420942 0.024071023)
(0.48266699 0.14395685 0.023825109)
(0.53872755 0.14219196 0.023580471)
(0.59693801 0.13895389 0.023330314)
(0.65724905 0.13422623 0.02311244)
(0.71945243 0.12805228 0.022886459)
(0.78346941 0.12041929 0.022709758)
(0.84913727 0.11141821 0.022536474)
(0.91634947 0.10100849 0.022406778)
(0.98498627 0.089304363 0.02230054)
(1.0548894 0.076250799 0.022231329)
(1.1260199 0.062065274 0.022215765)
(1.1981941 0.046639368 0.022247748)
(1.2713695 0.030092494 0.022314148)
(1.3454351 0.012472816 0.022440943)
(1.4202537 -0.0061635288 0.022621689)
(1.4957947 -0.025751148 0.02284786)
(1.5719479 -0.046245555 0.023131063)
(1.6486381 -0.06757731 0.023454433)
(1.7257971 -0.089692737 0.023823194)
(1.8033737 -0.1125347 0.024233042)
(1.881255 -0.13607331 0.024679952)
(1.9594815 -0.16013647 0.02513676)
(2.0378406 -0.18491063 0.025671896)
(2.1165007 -0.20998888 0.026148561)
(2.1951598 -0.23573167 0.026757487)
(2.2740545 -0.26166601 0.027259939)
(2.3528888 -0.28806946 0.027906142)
(2.4317978 -0.31481282 0.028494735)
(2.51072 -0.34156129 0.029111399)
(2.589508 -0.36891308 0.02983762)
(2.6683482 -0.39602838 0.030493803)
(2.7470001 -0.4233956 0.031341888)
(-0.00020669248 -0.016542473 -0.021675125)
(0.0054378072 -0.026753509 -0.023008173)
(0.011394778 -0.039596664 -0.028235846)
(0.02231725 -0.052317561 -0.027519754)
(0.037389725 -0.066516312 -0.028104888)
(0.055362692 -0.080900289 -0.027148985)
(0.076961122 -0.095617923 -0.026609832)
(0.10133598 -0.11081385 -0.025679182)
(0.12888132 -0.12628414 -0.024866748)
(0.15942259 -0.14247864 -0.023933508)
(0.19251562 -0.15873105 -0.023094721)
(0.2286062 -0.17589252 -0.02222473)
(0.26706493 -0.19328513 -0.021338765)
(0.30825903 -0.21133272 -0.020406066)
(0.35180497 -0.2299782 -0.019517393)
(0.39780027 -0.24911574 -0.018561168)
(0.44611004 -0.26898095 -0.017605175)
(0.49653413 -0.28924483 -0.016625611)
(0.54916524 -0.31030353 -0.015598819)
(0.60373983 -0.33177347 -0.014581792)
(0.66022102 -0.35395942 -0.013492344)
(0.71859882 -0.37658965 -0.012430701)
(0.77862274 -0.39987629 -0.011258117)
(0.84035428 -0.42365541 -0.010120902)
(0.9035609 -0.44788132 -0.0089565057)
(0.96828932 -0.47261915 -0.007740409)
(1.0342738 -0.49770094 -0.0064967213)
(1.1016616 -0.52337828 -0.0052060185)
(1.1702486 -0.5493433 -0.0039399617)
(1.2399325 -0.57566838 -0.0025994193)
(1.3106755 -0.60235022 -0.0012653408)
(1.3823539 -0.62930988 0.00011149471)
(1.4549376 -0.65653775 0.0014882326)
(1.5283144 -0.68399469 0.0028850117)
(1.6024467 -0.71163674 0.004279786)
(1.6772365 -0.73945919 0.0056745127)
(1.7526547 -0.76738962 0.0070662435)
(1.8285979 -0.79541143 0.0084467751)
(1.9050274 -0.82353259 0.0098146393)
(1.9819046 -0.85165107 0.011155266)
(2.0591263 -0.87981982 0.012491091)
(2.1366836 -0.90796279 0.013782861)
(2.2145076 -0.93605649 0.015063817)
(2.2925579 -0.96411807 0.016310345)
(2.3707667 -0.99208035 0.017531203)
(2.4491593 -1.0199713 0.018703481)
(2.5275892 -1.0478316 0.019887686)
(0 0 0)
(0 0 0)
(0 0 0)
(0 0 0)
(0 0 0)
(0 0 0)
(0 0 0)
(0.0060176182 -0.010895772 0.016630226)
(0.0079520251 -0.03310943 0.023734208)
(0.013040094 -0.036794718 0.024937134)
(0.025435024 -0.055930775 0.025942066)
(0.040118199 -0.067977627 0.02618545)
(0.058689143 -0.082941951 0.024796727)
(0.080596263 -0.098681691 0.024790357)
(0.10522477 -0.11317377 0.023311538)
(0.13308748 -0.13009918 0.023216811)
(0.16348992 -0.14527593 0.021852042)
(0.19679737 -0.1632932 0.022059333)
(0.23305167 -0.17941016 0.0207405)
(0.27180535 -0.19776029 0.020332729)
(0.31323234 -0.21600085 0.019538339)
(0.35694007 -0.23473885 0.018883565)
(0.40310094 -0.25451392 0.018254032)
(0.45150137 -0.27439309 0.01759651)
(0.50203711 -0.2952549 0.016999955)
(0.55469097 -0.31651204 0.016410891)
(0.60930608 -0.33845447 0.015843536)
(0.66582259 -0.36094857 0.015329416)
(0.72412556 -0.38402615 0.014851687)
(0.78416396 -0.40763847 0.014410757)
(0.84578907 -0.43173041 0.014025996)
(0.90898503 -0.45647396 0.01364449)
(0.97376621 -0.4815898 0.013234907)
(1.0395331 -0.50725746 0.013145492)
(1.1067751 -0.53314807 0.012957872)
(1.1751577 -0.55951521 0.012911873)
(1.2447028 -0.586182 0.012884031)
(1.3152756 -0.61314842 0.012914068)
(1.3868151 -0.64039255 0.013021666)
(1.4592422 -0.66786981 0.013181764)
(1.5325057 -0.69553373 0.013396799)
(1.6065106 -0.72336187 0.013660107)
(1.6812042 -0.75135751 0.01399552)
(1.7565559 -0.77939579 0.014324248)
(1.8323763 -0.80756644 0.014768193)
(1.9087756 -0.83573831 0.015186592)
(1.9855917 -0.86396215 0.01568295)
(2.0627811 -0.8921575 0.016186536)
(2.1403283 -0.92035151 0.016736618)
(2.218123 -0.94847328 0.017312393)
(2.2961784 -0.97655038 0.017922306)
(2.3743861 -1.0045225 0.018559834)
(2.4527771 -1.0324167 0.01924962)
(2.5311449 -1.0602791 0.019926597)
(2.6378751 -1.0095453 0.021661269)
(2.6649863 -0.93124038 0.022960055)
(2.6921756 -0.85335729 0.024409289)
(2.7192696 -0.77557583 0.02585759)
(2.7464791 -0.69796615 0.027416951)
(2.7739024 -0.62023238 0.028791469)
(2.8016567 -0.54251777 0.030179774)
(2.7506735 -0.43601978 0.029802075)
(2.6717881 -0.40861294 0.028675605)
(2.5930188 -0.38132965 0.027447225)
(2.5141586 -0.35414352 0.026224337)
(2.4352397 -0.32717518 0.024921644)
(2.3563162 -0.30042628 0.023588448)
(2.2774096 -0.27397178 0.022229052)
(2.1985529 -0.24782896 0.020832067)
(2.1197966 -0.2220718 0.019404016)
(2.0411888 -0.19670211 0.017953086)
(1.9627286 -0.17184765 0.016488449)
(1.8846042 -0.14759166 0.015025842)
(1.8066602 -0.12376321 0.013516573)
(1.7291223 -0.10066668 0.012024753)
(1.6519923 -0.078244397 0.010517738)
(1.5753495 -0.05660061 0.0090358928)
(1.4992535 -0.035762987 0.0075630657)
(1.4237934 -0.015824245 0.0061025552)
(1.3490353 0.0031808511 0.0046779204)
(1.2750778 0.021156757 0.0032726377)
(1.2020017 0.038096736 0.0018901698)
(1.1299016 0.053871234 0.00055413598)
(1.0588821 0.068501135 -0.00076434876)
(0.9890161 0.081872599 -0.0020543984)
(0.92046321 0.093970334 -0.0033194531)
(0.85329617 0.10472428 -0.0045453907)
(0.78765428 0.11412097 -0.0057682355)
(0.72365275 0.12208461 -0.0069372145)
(0.66142986 0.12862024 -0.0081093216)
(0.60109782 0.13367559 -0.0092444838)
(0.54281931 0.13725127 -0.010370996)
(0.48668832 0.13936023 -0.011496131)
(0.43287274 0.13998046 -0.012584249)
(0.38166525 0.13882931 -0.013539776)
(0.3330525 0.13638732 -0.014722096)
(0.28696744 0.13258653 -0.015598351)
(0.24407997 0.12722818 -0.01675014)
(0.20396076 0.12045908 -0.017668524)
(0.16720511 0.11260411 -0.018870199)
(0.1339165 0.10291529 -0.019645696)
(0.10416831 0.092618596 -0.020619633)
(0.077668041 0.080964541 -0.021464163)
(0.055625951 0.068518948 -0.022207865)
(0.037039181 0.055155672 -0.022319677)
(0.023294724 0.042146785 -0.021877954)
(0.0130365 0.027218757 -0.019961247)
(0.012923815 0.01546169 -0.012827637)
(0 0 0)
(0 0 0)
(0 0 0)
(0 0 0)
(0 0 0)
(0 0 0)
(0 0 0)
(0 0 0)
(0 0 0)
(0 0 0)
(0 0 0)
(0 0 0)
(0 0 0)
(0 0 0)
(2.6068227 -1.0775851 0.021000622)
(2.6072729 -1.0792656 0.020927287)
(2.6077234 -1.0808661 0.020865843)
(2.6081752 -1.0824578 0.02082942)
(2.6086266 -1.0839999 0.020792585)
(2.6090913 -1.0854741 0.020753242)
(2.6095412 -1.086975 0.020616994)
(2.8268429 -0.45276624 0.031734277)
(2.8273446 -0.45433183 0.031686837)
(2.8278393 -0.45586795 0.031574657)
(2.8283166 -0.45742781 0.031470623)
(2.8287527 -0.45899282 0.031369454)
(2.8291297 -0.46059439 0.031281378)
(2.829563 -0.46217186 0.031251483)
(0.00037980342 0.011467789 0.016066585)
(0.0035325234 0.020861759 0.01617501)
(0.01043663 0.031343648 0.018776138)
(0.022267607 0.041355524 0.019575301)
(0.037937631 0.050959166 0.019909331)
(0.058377152 0.060377331 0.020227565)
(0.082196796 0.068741503 0.020098725)
(0.11025497 0.07662566 0.020329287)
(0.14185106 0.083137641 0.020013633)
(0.17712558 0.088815633 0.020138993)
(0.21573513 0.09319837 0.01995809)
(0.25766719 0.09631567 0.019804929)
(0.30281385 0.098260509 0.019693071)
(0.35091418 0.098718941 0.019508262)
(0.4019076 0.097825165 0.019372343)
(0.45560744 0.09551907 0.019193717)
(0.51189049 0.091777265 0.019040102)
(0.57051991 0.086565841 0.018894659)
(0.63144794 0.079930915 0.018744031)
(0.69444004 0.071846285 0.018612195)
(0.75938177 0.06235793 0.018510071)
(0.82607825 0.051484572 0.018416521)
(0.89442805 0.03926955 0.018372706)
(0.96419348 0.02575844 0.018352556)
(1.0353513 0.011010588 0.018401707)
(1.1076543 -0.00496153 0.018439307)
(1.1809917 -0.022032789 0.018570798)
(1.2552699 -0.040164293 0.018746419)
(1.3303181 -0.059325364 0.018975822)
(1.4060262 -0.079377204 0.01925793)
(1.4823143 -0.10030009 0.019600419)
(1.5590455 -0.12202186 0.019990145)
(1.636145 -0.14445153 0.020432914)
(1.7135304 -0.167554 0.020922382)
(1.791119 -0.19124676 0.021449182)
(1.8688295 -0.21545572 0.02201659)
(1.9466493 -0.24015447 0.022604349)
(2.0244394 -0.26528034 0.023249936)
(2.1022793 -0.2907251 0.023876604)
(2.1799992 -0.31654998 0.024580975)
(2.2576983 -0.34253955 0.025233347)
(2.3352098 -0.36890671 0.02599591)
(2.4127169 -0.39529776 0.026649656)
(2.48996 -0.42194285 0.027449846)
(2.5671614 -0.44878238 0.02816826)
(2.6441685 -0.47547051 0.028910932)
(2.7210138 -0.50266537 0.029622422)
(-0.0051754495 0.0072168511 0.011159933)
(-0.003191224 0.01216619 0.010704261)
(0.0033195761 0.020500502 0.013026819)
(0.013909989 0.026508358 0.013154003)
(0.029046893 0.033303468 0.013808399)
(0.047881903 0.039310991 0.013730116)
(0.070779666 0.044749947 0.014248457)
(0.097846684 0.049407991 0.013933202)
(0.12834121 0.05304252 0.014369546)
(0.16261463 0.055900842 0.014282559)
(0.20036486 0.057441454 0.014326022)
(0.24149584 0.05805635 0.014362087)
(0.28584686 0.057328382 0.014382895)
(0.33335134 0.0553408 0.014389296)
(0.38380867 0.052060425 0.014384627)
(0.43703951 0.047503846 0.014311271)
(0.49289076 0.041588961 0.014277135)
(0.55123375 0.034312673 0.014240066)
(0.61191915 0.02565884 0.014204145)
(0.67477615 0.015635382 0.014202386)
(0.73962603 0.0042559731 0.014204241)
(0.80633884 -0.0084188476 0.014232968)
(0.87464393 -0.022370953 0.014306441)
(0.94454539 -0.037519195 0.014417407)
(1.0157327 -0.053892021 0.014542299)
(1.0881174 -0.071298488 0.014787833)
(1.1615503 -0.089807717 0.015049092)
(1.2358929 -0.10929962 0.015350579)
(1.3109816 -0.12966093 0.015742142)
(1.3867368 -0.15089499 0.016162286)
(1.4630125 -0.17289021 0.016637873)
(1.5396916 -0.19558872 0.017177111)
(1.6166995 -0.21891796 0.017746881)
(1.6939259 -0.24281655 0.018368114)
(1.7712957 -0.26720175 0.019020634)
(1.8487334 -0.29205036 0.019714784)
(1.9262146 -0.31724591 0.020415719)
(2.0035673 -0.34282187 0.021183013)
(2.080994 -0.36858289 0.02188802)
(2.1581054 -0.394701 0.022709471)
(2.2353043 -0.42089112 0.02343305)
(2.3121394 -0.44733093 0.024264601)
(2.3889986 -0.47383349 0.025021506)
(2.4655103 -0.50047173 0.025857596)
(2.5419987 -0.52721525 0.026637835)
(2.6182148 -0.5539643 0.02741122)
(2.6944183 -0.58096005 0.028165351)
(-0.0085534987 0.0038865647 0.0067412254)
(-0.0055337192 0.0070075518 0.0063322997)
(0.00076319893 0.011157073 0.0070723981)
(0.012435026 0.014887261 0.0071845543)
(0.027319644 0.018186126 0.0072999298)
(0.046997762 0.021264085 0.0076125521)
(0.070145265 0.023102678 0.0072923242)
(0.097057853 0.02468847 0.0077993392)
(0.12745226 0.025041254 0.0078272347)
(0.16151354 0.02466357 0.0079022761)
(0.19863895 0.023311809 0.0081497252)
(0.23907552 0.020822421 0.0082739921)
(0.28257153 0.017333377 0.0084023558)
(0.32902196 0.012625994 0.008578321)
(0.37832239 0.0068399678 0.0087753118)
(0.43031398 -0.00020285686 0.0088487509)
(0.48487011 -0.0084661662 0.0090235862)
(0.54182548 -0.017969024 0.0091173109)
(0.60106179 -0.028740729 0.0093008077)
(0.66235421 -0.040700699 0.0094632228)
(0.72561818 -0.053873124 0.0096848228)
(0.79062605 -0.068218784 0.009925716)
(0.85742076 -0.083694461 0.010203714)
(0.92564193 -0.10032924 0.010482188)
(0.99527133 -0.11795268 0.010875539)
(1.0661457 -0.13662036 0.011228072)
(1.1381804 -0.15624552 0.011619145)
(1.211151 -0.17673236 0.012105274)
(1.2850145 -0.19805622 0.01260439)
(1.3596082 -0.22015427 0.013147139)
(1.4348309 -0.24292462 0.013761933)
(1.5105978 -0.26635795 0.014401452)
(1.586802 -0.29035439 0.015089249)
(1.6633644 -0.31486572 0.015813941)
(1.7402015 -0.3398584 0.016576841)
(1.8172653 -0.36521884 0.017351748)
(1.8944366 -0.39097912 0.018175098)
(1.9717785 -0.41698044 0.018985067)
(2.0491114 -0.44329193 0.019827931)
(2.1264489 -0.46979794 0.020719342)
(2.2038342 -0.49639697 0.021524372)
(2.2810272 -0.52329622 0.022498783)
(2.3583474 -0.55011613 0.023271007)
(2.4353881 -0.57718377 0.024260436)
(2.5125461 -0.60426573 0.025041252)
(2.5894606 -0.63133945 0.025951179)
(2.6663763 -0.65856867 0.026779963)
(-0.0078108673 0.00080982118 0.00097467718)
(-0.0033920985 0.0013330485 -0.00071417788)
(0.0042939232 0.0030102975 -0.00025516324)
(0.016730594 0.0036591892 -0.00028826333)
(0.033472857 0.0037215846 9.9591336e-05)
(0.053817641 0.0037786772 -7.3749235e-05)
(0.077637635 0.0022227627 0.00071258705)
(0.10499239 0.00072416321 0.00073249677)
(0.13565292 -0.0023167982 0.001126586)
(0.16941605 -0.0057310631 0.0015896172)
(0.20621438 -0.01052263 0.0018557626)
(0.24610614 -0.016043559 0.0021255076)
(0.28863631 -0.02262799 0.0023646327)
(0.33394551 -0.03036072 0.0027236263)
(0.38173641 -0.038923147 0.0029208926)
(0.43208688 -0.048712203 0.0032588584)
(0.48461985 -0.059416345 0.0035312881)
(0.53943749 -0.071304193 0.0038835985)
(0.59622447 -0.084193078 0.004248258)
(0.65504349 -0.098152182 0.0046207335)
(0.71568196 -0.11316838 0.0050161492)
(0.77819202 -0.12915507 0.0054169213)
(0.84213375 -0.14613837 0.0058548276)
(0.9076561 -0.16401209 0.0063757229)
(0.97458277 -0.18279951 0.0068520734)
(1.0428464 -0.20243497 0.0073981553)
(1.1122771 -0.22287739 0.0080463642)
(1.1828302 -0.24410892 0.0087090597)
(1.2544222 -0.26606108 0.0093920018)
(1.326938 -0.28870884 0.010160471)
(1.4003304 -0.31198442 0.010925949)
(1.4744933 -0.33587696 0.011750006)
(1.5493574 -0.36029801 0.012587836)
(1.624859 -0.38523938 0.013467303)
(1.7009206 -0.41061803 0.014349867)
(1.7774593 -0.43643576 0.015276628)
(1.854479 -0.4625784 0.016184484)
(1.9318096 -0.48907893 0.017133456)
(2.0094739 -0.51585418 0.018092598)
(2.0874193 -0.54281848 0.01900295)
(2.1656364 -0.57007339 0.019963686)
(2.2439566 -0.597432 0.020895601)
(2.3225592 -0.62491148 0.02179825)
(2.4010877 -0.65256148 0.022782076)
(2.4798786 -0.68019286 0.023646717)
(2.5585189 -0.70790073 0.024631676)
(2.6373219 -0.73566976 0.025508706)
(-0.0071120741 -0.0024150356 -0.0043193504)
(-0.00048297451 -0.003182027 -0.0060263249)
(0.007932739 -0.0048894988 -0.0062732758)
(0.02251168 -0.0072389514 -0.0067069666)
(0.040044285 -0.010214533 -0.0068635309)
(0.061717494 -0.013769011 -0.0064971363)
(0.086295449 -0.018482374 -0.0063589847)
(0.1145248 -0.02346561 -0.0062126161)
(0.14527676 -0.029881313 -0.0056727504)
(0.17925486 -0.036700461 -0.005439339)
(0.21574513 -0.044762247 -0.0051404011)
(0.2548964 -0.053244836 -0.0046634485)
(0.29644485 -0.06311716 -0.0041602726)
(0.34046456 -0.073484541 -0.0036991601)
(0.38669874 -0.085024712 -0.0031700797)
(0.43510243 -0.097347679 -0.00259288)
(0.48562642 -0.11061259 -0.0020842633)
(0.53809297 -0.12474211 -0.0014951588)
(0.59250678 -0.13972847 -0.00092604817)
(0.64869281 -0.15560239 -0.00031069077)
(0.70669019 -0.1722484 0.00031535632)
(0.76617762 -0.18975967 0.0010328138)
(0.82735628 -0.20802177 0.0017450256)
(0.89000715 -0.22714067 0.0024574669)
(0.95419164 -0.24698543 0.0032109835)
(1.0197003 -0.26754203 0.0040252918)
(1.0865761 -0.28884426 0.0048420475)
(1.1547125 -0.3108026 0.0056494884)
(1.2240476 -0.333407 0.0065195088)
(1.294518 -0.35662038 0.0073912879)
(1.3660766 -0.38042718 0.0082981957)
(1.4386482 -0.40479805 0.0092309112)
(1.5121841 -0.429697 0.010184723)
(1.5866287 -0.45507263 0.011146742)
(1.6618883 -0.48094132 0.012146244)
(1.7379678 -0.50719143 0.013128293)
(1.8147232 -0.53384654 0.014134894)
(1.8921599 -0.56087635 0.015162359)
(1.9701812 -0.5881395 0.016111139)
(2.0488108 -0.61573324 0.017149488)
(2.1278016 -0.64352025 0.018139891)
(2.2072488 -0.67148759 0.019163023)
(2.2870171 -0.69961153 0.020143746)
(2.3670296 -0.7278596 0.021187802)
(2.4473604 -0.75612682 0.022124224)
(2.5277499 -0.78448525 0.023182241)
(2.6083292 -0.81279612 0.024157693)
(-0.0052372603 -0.0061060976 -0.0105787)
(0.0030161912 -0.010191232 -0.012275686)
(0.011876115 -0.015182336 -0.013990376)
(0.02660082 -0.020830979 -0.014446596)
(0.044535699 -0.027187266 -0.014327799)
(0.066037388 -0.034157573 -0.014067014)
(0.090796696 -0.042223771 -0.01373912)
(0.1185641 -0.0506025 -0.013154266)
(0.14908337 -0.06025683 -0.012632242)
(0.18240679 -0.070140374 -0.012065935)
(0.2181915 -0.08126408 -0.011437424)
(0.25643493 -0.092902451 -0.010822728)
(0.29700122 -0.1054933 -0.010263869)
(0.33982125 -0.11872489 -0.009583813)
(0.38473144 -0.13280126 -0.0089341701)
(0.43177049 -0.14757572 -0.0082241188)
(0.48073332 -0.16315452 -0.0075565098)
(0.53166829 -0.17939516 -0.0067854103)
(0.58437326 -0.1964588 -0.0060426245)
(0.63888401 -0.21413586 -0.0052344694)
(0.69502449 -0.23263591 -0.0044285363)
(0.75301248 -0.2516198 -0.0035419444)
(0.81234137 -0.27142045 -0.0027285149)
(0.87328154 -0.29200383 -0.0017863076)
(0.93571401 -0.31305191 -0.00087461062)
(0.99954503 -0.33477985 5.4216599e-05)
(1.0648596 -0.35705215 0.0010187279)
(1.131472 -0.37990662 0.002040269)
(1.1993981 -0.40329391 0.0030535721)
(1.268578 -0.42727 0.0041134561)
(1.3389495 -0.45174976 0.005182435)
(1.4104766 -0.47673944 0.0062862946)
(1.4831046 -0.50219816 0.0073867471)
(1.5567621 -0.5281336 0.008519441)
(1.6314234 -0.55445092 0.0096373921)
(1.7069896 -0.58119206 0.010777419)
(1.7834358 -0.608278 0.011911041)
(1.8606642 -0.63565747 0.013030575)
(1.9386422 -0.66339485 0.014175634)
(2.0172521 -0.69131356 0.01528176)
(2.0964806 -0.71943265 0.016393989)
(2.176241 -0.74772981 0.017469386)
(2.2563961 -0.77619975 0.018574346)
(2.336989 -0.80469981 0.019621067)
(2.417841 -0.83327087 0.020694944)
(2.4989356 -0.86186336 0.021789183)
(2.5802429 -0.89036561 0.022874153)
(-0.0030890834 -0.012234102 -0.01495648)
(0.0039325777 -0.017701087 -0.017633625)
(0.011570156 -0.026704376 -0.020294398)
(0.025567968 -0.035423596 -0.020750072)
(0.041925621 -0.045230226 -0.020834665)
(0.062723713 -0.05591003 -0.020442468)
(0.086073049 -0.067245233 -0.01999945)
(0.11274313 -0.079046935 -0.019305709)
(0.14207672 -0.091818662 -0.018746119)
(0.17418757 -0.10463918 -0.017973134)
(0.20900599 -0.11890535 -0.017249404)
(0.24607795 -0.1329461 -0.016642488)
(0.28580435 -0.14835869 -0.015734272)
(0.32760432 -0.16395191 -0.015027186)
(0.37183249 -0.18043633 -0.014176171)
(0.418065 -0.19744427 -0.013377849)
(0.46648462 -0.21516728 -0.012499011)
(0.51681388 -0.23351082 -0.01162897)
(0.56909308 -0.25249958 -0.010716698)
(0.62319732 -0.27210992 -0.0097915098)
(0.67910834 -0.29232187 -0.0088377083)
(0.73662489 -0.31314912 -0.007836749)
(0.79595344 -0.33456556 -0.0068431015)
(0.85671386 -0.35661161 -0.0057842522)
(0.9190411 -0.37911746 -0.0047752421)
(0.9828042 -0.40220876 -0.003675785)
(1.0479996 -0.42579587 -0.0025370475)
(1.1145534 -0.44988763 -0.0014136361)
(1.1823983 -0.47447261 -0.00026258632)
(1.2514558 -0.49954031 0.00092920693)
(1.3216802 -0.52502074 0.0021253616)
(1.3930212 -0.55094214 0.0033495643)
(1.4653972 -0.57724504 0.004583572)
(1.5387761 -0.60390969 0.0058249402)
(1.613067 -0.63090935 0.0070757696)
(1.6882369 -0.65821082 0.008323086)
(1.7641951 -0.68576917 0.0095633741)
(1.840912 -0.7135976 0.010819262)
(1.9182756 -0.74158138 0.012020599)
(1.9962539 -0.76976545 0.013251135)
(2.0747767 -0.79803761 0.014440128)
(2.1537788 -0.82646054 0.015644363)
(2.2331667 -0.8549092 0.016808328)
(2.3129333 -0.88338007 0.017954641)
(2.392906 -0.91186828 0.019119045)
(2.4731676 -0.94029282 0.020233577)
(2.5535497 -0.96859922 0.021404628)
(0 0 0)
(0 0 0)
(0 0 0)
(0 0 0)
(0 0 0)
(0 0 0)
(0 0 0)
(0 0 0)
(0 0 0)
(0 0 0)
(0 0 0)
(0 0 0)
(0 0 0)
(0 0 0)
(0 0 0)
(0 0 0)
(0 0 0)
(0 0 0)
(0 0 0)
(0 0 0)
(0 0 0)
(0 0 0)
(0 0 0)
(0 0 0)
(0 0 0)
(0 0 0)
(0 0 0)
(0 0 0)
(0 0 0)
(0 0 0)
(0 0 0)
(0 0 0)
(0 0 0)
(0 0 0)
(0 0 0)
(0 0 0)
(0 0 0)
(0 0 0)
(0 0 0)
(0 0 0)
(0 0 0)
(0 0 0)
(0 0 0)
(0 0 0)
(0 0 0)
(0 0 0)
(0 0 0)
(0 0 0)
(0 0 0)
(0.0063982871 -0.0047475828 -0.011511505)
(0.0081868624 -0.0062728942 -0.0080748115)
(0.010060665 -0.0066898859 -0.0043124451)
(0.010818639 -0.0070574128 -0.0012215149)
(0.010544065 -0.0065877116 0.0019094256)
(0.0098998726 -0.0069396061 0.0053235137)
(0.0080658081 -0.004370006 0.0089039129)
(0.012139488 -0.025394354 -0.019227417)
(0.015959157 -0.028637089 -0.010996404)
(0.017774084 -0.0269549 -0.0053688908)
(0.018249748 -0.026260255 -0.00062686544)
(0.018471412 -0.027831835 0.0040569173)
(0.016395882 -0.027419474 0.0095517461)
(0.014277494 -0.027106149 0.016646429)
(0.017518244 -0.036420131 -0.02074107)
(0.022545983 -0.034981605 -0.01489499)
(0.025774007 -0.036808645 -0.0070901533)
(0.026330954 -0.036830471 -0.0013819022)
(0.026177438 -0.035997139 0.0056503556)
(0.023789069 -0.036315316 0.01074231)
(0.020423883 -0.037951291 0.019785615)
(0.029719485 -0.053361538 -0.020981053)
(0.033911974 -0.054706789 -0.01491648)
(0.036717359 -0.054258143 -0.0073377345)
(0.037858092 -0.054418546 -0.0014030771)
(0.037466206 -0.054608187 0.0053932947)
(0.035221615 -0.055564381 0.012710341)
(0.031042281 -0.054233396 0.019100419)
(0.043632215 -0.067710639 -0.021622563)
(0.048589057 -0.067853817 -0.015400713)
(0.052136174 -0.068828071 -0.0080261858)
(0.053064224 -0.06871533 -0.0011281854)
(0.052842538 -0.069155718 0.0058766152)
(0.050526959 -0.068987252 0.012268296)
(0.046797125 -0.069433915 0.020127312)
(0.061978124 -0.082883057 -0.020769741)
(0.066244249 -0.083391783 -0.014823644)
(0.069256281 -0.083506636 -0.0075946762)
(0.07040592 -0.084291287 -0.0015651761)
(0.069989786 -0.08399021 0.005772119)
(0.067733298 -0.084250211 0.012446881)
(0.063869983 -0.083608662 0.01887312)
(0.082989119 -0.097531057 -0.020507197)
(0.08743898 -0.098465288 -0.014279574)
(0.090635799 -0.099832975 -0.0076653895)
(0.091809408 -0.10009525 -0.0013226107)
(0.091633413 -0.10066515 0.0056632899)
(0.089625302 -0.10105919 0.011803431)
(0.086074784 -0.10040444 0.018885713)
(0.10733273 -0.11318045 -0.019672174)
(0.11163089 -0.11448231 -0.014046768)
(0.11455903 -0.11495643 -0.0072299326)
(0.11572785 -0.11556149 -0.0011434394)
(0.1153291 -0.11544833 0.0052474845)
(0.11350738 -0.11511259 0.011713383)
(0.10987371 -0.11440758 0.017703529)
(0.13476558 -0.12889053 -0.01916204)
(0.13883319 -0.12994864 -0.013139672)
(0.14174858 -0.13135393 -0.0070930427)
(0.14286915 -0.13194539 -0.0011866537)
(0.14276395 -0.1326954 0.005146746)
(0.14103414 -0.13245558 0.01118967)
(0.13780547 -0.13203421 0.017641461)
(0.16482145 -0.14483529 -0.018344898)
(0.16888901 -0.14650044 -0.012908852)
(0.17166241 -0.14734538 -0.0069227766)
(0.17302612 -0.14841533 -0.00080731877)
(0.17265267 -0.14817237 0.0050923879)
(0.1710915 -0.14786859 0.010972213)
(0.16788385 -0.14706624 0.016732002)
(0.19804336 -0.1616272 -0.017637957)
(0.20183121 -0.16307017 -0.012253506)
(0.20463365 -0.16444408 -0.0062023841)
(0.20562029 -0.16479406 -0.00096828151)
(0.2056291 -0.16541616 0.00500678)
(0.20403036 -0.16528784 0.010444281)
(0.20105246 -0.16477678 0.01667776)
(0.2337166 -0.17838797 -0.017115708)
(0.23755926 -0.18017372 -0.011555965)
(0.23999644 -0.18140049 -0.0064009781)
(0.24135593 -0.18251305 -0.00072695724)
(0.24119252 -0.18275206 0.0049331595)
(0.23958757 -0.18216336 0.010165651)
(0.23718172 -0.18177288 0.01587687)
(0.2722464 -0.19629662 -0.01620869)
(0.27565143 -0.19780334 -0.011105218)
(0.27828775 -0.19934911 -0.0058423959)
(0.27944666 -0.19986399 -0.00057428051)
(0.27938042 -0.20018919 0.0048081933)
(0.2779894 -0.20029036 0.0098556602)
(0.27551469 -0.19935575 0.015386268)
(0.31308578 -0.21410577 -0.015644288)
(0.31647668 -0.21592799 -0.010568894)
(0.31912576 -0.21744701 -0.0057036632)
(0.32013511 -0.21824614 -0.00055516118)
(0.3202651 -0.21898475 0.0046714475)
(0.31890244 -0.21847684 0.0094400478)
(0.31679901 -0.21797417 0.01489596)
(0.35647138 -0.23302159 -0.014883292)
(0.3598281 -0.23478776 -0.0099852506)
(0.36222942 -0.2361893 -0.0053630936)
(0.36338224 -0.23709971 -0.00025804759)
(0.36347693 -0.23739591 0.0044938708)
(0.36231676 -0.237238 0.0093217352)
(0.3602451 -0.23657792 0.014376175)
(0.40232048 -0.25213054 -0.014133463)
(0.40544038 -0.25388353 -0.0094875862)
(0.40788774 -0.25556442 -0.0050017101)
(0.40896004 -0.25639977 -0.00031041521)
(0.40913238 -0.25703264 0.0044887447)
(0.40802998 -0.2568577 0.0089219464)
(0.40617122 -0.25624442 0.013903958)
(0.45030807 -0.27195984 -0.013391235)
(0.45342178 -0.27389539 -0.0088634791)
(0.45572545 -0.27544076 -0.0047147184)
(0.45681326 -0.27631348 -3.6667938e-06)
(0.45702746 -0.27691994 0.0043811687)
(0.45607111 -0.27668918 0.0087398186)
(0.45433603 -0.27618886 0.013472656)
(0.50064145 -0.29237191 -0.01255142)
(0.50355394 -0.29425588 -0.008376034)
(0.50584372 -0.29590753 -0.0042563969)
(0.50688097 -0.29689289 9.4233757e-05)
(0.50713805 -0.29750313 0.0043369139)
(0.5062498 -0.29741851 0.008510499)
(0.5046633 -0.29688468 0.013021604)
(0.55298275 -0.31335971 -0.011787752)
(0.55581028 -0.31527694 -0.0077120797)
(0.55801464 -0.31696561 -0.0038661252)
(0.55901105 -0.3178841 0.00032508241)
(0.55932941 -0.31859324 0.004356614)
(0.55853337 -0.3184904 0.0083288207)
(0.55709168 -0.31813106 0.012613804)
(0.60737309 -0.33489337 -0.010899268)
(0.61008582 -0.33685986 -0.0070900975)
(0.61218979 -0.33854854 -0.0034281855)
(0.61317343 -0.33962248 0.00055936535)
(0.61352726 -0.34031703 0.0043592053)
(0.61279675 -0.34036078 0.0081648487)
(0.61151295 -0.33995969 0.012228654)
(0.66368556 -0.35705144 -0.010048006)
(0.66625359 -0.35900099 -0.0064316423)
(0.66828192 -0.36076333 -0.002943589)
(0.66925895 -0.36178124 0.00082002353)
(0.66962529 -0.36257231 0.0044334089)
(0.66900372 -0.36260352 0.0080383383)
(0.66783177 -0.36234161 0.011887259)
(0.72180834 -0.37970891 -0.0091365631)
(0.72426231 -0.38171471 -0.005718414)
(0.72621928 -0.38344992 -0.0024325446)
(0.727145 -0.38458269 0.001115694)
(0.72755942 -0.3853644 0.0045361125)
(0.72697997 -0.38552691 0.0079451881)
(0.72595181 -0.38531156 0.011591863)
(0.78166199 -0.40296554 -0.0081813252)
(0.78400944 -0.4049346 -0.0049729861)
(0.78585584 -0.40672198 -0.001899787)
(0.78679043 -0.40784973 0.0014509353)
(0.78718313 -0.40874703 0.0046785057)
(0.78671446 -0.4089581 0.007875781)
(0.78580508 -0.40881886 0.011331158)
(0.84318916 -0.42665813 -0.0071868583)
(0.8453935 -0.42872558 -0.00421089)
(0.84717289 -0.43045672 -0.0013292642)
(0.84804166 -0.4317119 0.0018347675)
(0.84850625 -0.4325672 0.0048362625)
(0.84809797 -0.43283087 0.0078745098)
(0.84727879 -0.43277666 0.011127913)
(0.90620003 -0.45089983 -0.0062398748)
(0.90837786 -0.45296487 -0.00338887)
(0.90999313 -0.4546526 -0.0007365555)
(0.91092358 -0.45599633 0.0022773339)
(0.91131617 -0.45685343 0.0050492242)
(0.91095303 -0.4573351 0.0079234958)
(0.91024239 -0.45739288 0.010904568)
(0.97069531 -0.47558926 -0.0051872838)
(0.97280011 -0.47763289 -0.0025730777)
(0.97426822 -0.47939104 -8.5026944e-05)
(0.97519961 -0.48073367 0.0028148737)
(0.97553632 -0.4816049 0.0052346735)
(0.97537863 -0.48218821 0.0079461086)
(0.97478631 -0.48228502 0.010649574)
(1.0365793 -0.50072443 -0.0041287995)
(1.0385618 -0.50277153 -0.0018003253)
(1.0399658 -0.50455999 0.00072675274)
(1.0409153 -0.5059529 0.0030994611)
(1.0413289 -0.50693432 0.0056615212)
(1.0411455 -0.50757032 0.0081638925)
(1.0405401 -0.50772331 0.010741138)
(1.1038418 -0.52629099 -0.0030386182)
(1.1055952 -0.52830886 -0.00083389977)
(1.1070308 -0.53016635 0.0014722731)
(1.1078361 -0.53149317 0.0036403642)
(1.1082998 -0.53256358 0.0061244664)
(1.10816 -0.53316774 0.0082887259)
(1.1076317 -0.53357723 0.010774689)
(1.1722341 -0.5521822 -0.001941036)
(1.1739378 -0.55428332 0.00017157884)
(1.1751905 -0.55607118 0.0021734428)
(1.1760595 -0.55747771 0.0043459672)
(1.1764222 -0.55859267 0.0064976251)
(1.1763703 -0.55934167 0.008568548)
(1.1759037 -0.55978145 0.010878545)
(1.2417995 -0.5785063 -0.00072785541)
(1.2433233 -0.58052369 0.0011318311)
(1.2445723 -0.58237743 0.0030732753)
(1.2453437 -0.58379175 0.0049717715)
(1.245735 -0.58499738 0.007004979)
(1.2457431 -0.58575823 0.0088915589)
(1.2453276 -0.58633519 0.011029513)
(1.312358 -0.60509512 0.00042480976)
(1.3138157 -0.60716306 0.0021913922)
(1.3149581 -0.60898687 0.003896796)
(1.3157089 -0.61044602 0.0057004736)
(1.3161059 -0.61165861 0.0075307785)
(1.3161306 -0.61251287 0.009269293)
(1.3157907 -0.61317023 0.011218282)