/*--------------------------------*- C++ -*----------------------------------*\
  =========                 |
  \\      /  F ield         | OpenFOAM: The Open Source CFD Toolbox
   \\    /   O peration     | Website:  https://openfoam.org
    \\  /    A nd           | Version:  6
     \\/     M anipulation  |
\*---------------------------------------------------------------------------*/
FoamFile
{
    version     2.0;
    format      ascii;
    class       pointScalarField;
    location    "1.04";
    object      p;
}
// * * * * * * * * * * * * * * * * * * * * * * * * * * * * * * * * * * * * * //

dimensions      [1 -1 -2 0 0 0 0];

internalField   nonuniform List<scalar> 
3969
(
-403628.74
694844.17
26.183847
-764.72476
-831660.32
1312049.3
-885.29665
516.09617
-345138.31
-226566.24
-102511.93
27063.686
121688.89
265367.82
271321.17
1106.7826
2059.9738
1802.2552
540.8526
-780.82025
-1602.1512
-1413.4155
-125256.82
-141847.12
-139369.73
-145023.35
-141898.67
-141427.13
-138462.52
-134444.28
-132152.4
-128258.16
-126092.11
-123430.48
-122141.31
-120061.72
-118966.16
-117823.93
-116958.5
-116233.82
-115225.44
-114381.39
-113061.54
-111554.44
-109583.51
-107640.32
-104348.76
-100895.61
-96906.802
-92705.291
-87880.602
-82891.964
-77316.171
-71631.422
-65796.323
-59630.661
-53494.532
-47597
-41378.74
-35325.597
-29465.693
-24107.091
-18873.368
-14157.955
-10033.818
-5980.9174
-3471.1336
-753.96349
-68.644137
159478.07
144065.74
162279.1
150615.54
163530.59
154320.4
157042.04
151246.95
150528.57
146431.88
144572.01
142294.73
139668.74
138434.23
136249.91
134434.06
133024.12
130703.48
129597.47
127190.18
125368.15
123307.98
120724.14
118084.87
115228.3
111254.59
107844.16
102732.12
98467.497
93256.406
88385.375
82765.504
77196.57
71260.536
65312.776
59247.829
53194.356
46769.474
40718.66
34258.518
28234.823
22555.25
16991.558
11933.121
7299.6354
3433.1416
796.93328
-609793.51
-443606.76
-174588.74
49867.315
239403.86
472361.01
380640.08
175385.2
203415.29
128266.02
182257.86
155310.31
163903.73
154443.99
155558.58
146741.17
146364.02
147238.34
139578.99
142875.28
137688.84
138766.35
134846.88
135125.01
132204.61
131851.15
129124.1
128222.12
125628.01
123840.58
120631.03
118086.84
115046.04
110957.86
105793.8
101407.69
95660.13
89834.789
83479.806
76802.984
70187.46
63550.88
56867.952
48242.868
43168.616
36503.633
30199.5
24282.792
18873.617
13840.194
9359.4177
5488.5151
2394.9686
-137.98145
-2006.8013
-1287.0385
-1538.5976
1138.4303
1573.354
1965.3003
1678.2656
-656.13298
-1673.8534
-4427.2848
-8754.0015
-13425.628
-18829.437
-24549.866
-30565.911
-36715.954
-42712.716
-47884.905
-57401.457
-61955.25
-68439.765
-74722.106
-80815.254
-86533.373
-92194.038
-97401.433
-102321.2
-106588.94
-110801.65
-114545.38
-118382.39
-120918.21
-124179.65
-126281.51
-128938.92
-130523.09
-132529.36
-134144.8
-134429.89
-134496.55
-139067.54
-144908.44
-139672.77
-145928.24
-144473.98
-146815.16
-153658.09
-158512.9
-153620.01
-163214.08
-157208.13
-150470.51
-160751.47
-156279.35
-343825.02
-383802.72
-407216.15
-405571.25
-399994.09
-395092.89
-314783.89
560411.8
688682.62
776800.72
823494.08
770327.44
768753.39
603894.14
-878.19423
-1125.2062
-1363.7972
-1509.8393
-1134.2326
-581.48575
-872.86797
-86.025003
305.47971
540.66813
943.09658
875.66747
464.44299
507.16416
-105022.29
-108147.11
-109130.69
-110225.16
-109538.23
-108414.71
-105262.48
-104584.59
-100489.24
-100123.26
-96550.569
-95422.151
-93918.561
-93073.196
-91803.204
-91454.026
-90490.856
-90168.535
-89152.349
-88587.981
-87426.13
-86189.37
-84560.928
-82626.871
-80388.13
-77602.48
-74376.129
-70943.976
-67120.484
-62990.135
-58638.067
-54188.243
-49486.203
-44640.919
-39986.682
-35056.773
-30258.016
-25584.516
-21427.164
-17413.943
-13561.334
-10481.809
-7424.3733
-5148.6668
-3275.5945
-1158.052
-122.59373
-64222.819
-61598.513
-62784.196
-66204.475
-65660.652
-68557.943
-66064.236
-65064.936
-63603.118
-62232.045
-61019.512
-59923.313
-58460.892
-57624.753
-56916.247
-56399.951
-55842.738
-55671.314
-54990.842
-54583.985
-53584.057
-52628.721
-51468.691
-50146.788
-48471.253
-46897.758
-45196.764
-42675.444
-40447.316
-37893.726
-35207.37
-32479.901
-29505.598
-26633.42
-23652.448
-20667.643
-17783.799
-15064.758
-12551.214
-10117.367
-7896.317
-6185.9302
-4423.0961
-3112.8959
-2179.0883
-510.70392
-155.42508
-24547.633
-28007.252
-25591.904
-27609.751
-26217.316
-28784.69
-27213.253
-28040.406
-26400.28
-25939.772
-25137.436
-24811.64
-23794.18
-22914.615
-21688.666
-22167.884
-21813.386
-22347.58
-22090.923
-22649.682
-22739.217
-23343.763
-22786.623
-22630.27
-22270.472
-21420.075
-20254.718
-19372.442
-18065.046
-16763.461
-15211.727
-13770.667
-12123.17
-10573.949
-8939.6309
-7323.2804
-5812.7317
-4273.1556
-2835.9509
-1925.6656
-1031.8992
-690.38835
-47.189098
-207.05335
-62.059707
371.29781
-11.591568
8804.2451
12256.977
14786.963
12607.67
16046.053
13915.364
16167.896
14957.033
14835.877
14187.138
14036.937
13828.151
14120.023
13456.645
13463.23
12427.959
12670.443
11721.263
11696.79
11149.928
11224.637
11792.967
12492.453
11835.73
12009.126
11802.777
11578.765
11297.018
11143.507
10832.687
10669.047
10222.533
10014.411
9612.9643
9230.9036
8784.4487
8261.0999
7725.5823
6604.5197
5561.6812
4766.9575
3788.5792
2992.6253
1944.279
1286.8001
821.68027
-38.855205
52385.259
49029.04
50536.019
52395.991
54235.267
53648.849
53888.826
53394.244
52788.662
51312.676
50740.149
49573.654
49162.359
47867.394
47177.461
46042.143
45652.815
44212.561
43885.168
42674.33
41329.1
39033.87
37835.92
36024.626
35198.31
34646.054
33441.531
31881.093
30864.517
29330.6
28057.256
26361.993
24996.815
23239.538
21596.642
19940.662
18257.574
16455.95
15561.986
13400.494
11593.937
9462.3568
7622.0738
5499.3084
3832.4305
2081.7119
205.92785
94556.653
90117.189
91946.232
95508.895
97401.93
96252.901
95911.882
94023.01
93042.539
90394.019
89612.033
87501.682
87239.901
85657.574
84871.304
83189.259
82272.324
80634.702
79835.044
78114.093
76347.112
74957.518
71387.843
68637.291
66591.909
64079.286
62518.174
59800.551
57293.999
54541.22
51711.851
48627.965
45509.942
42172.083
38946.097
35415.106
31939.409
28406.192
24570.438
21317.54
17926.011
14313.409
10899.566
7556.1497
4749.3418
2338.9724
279.79478
149887.5
113835.83
131373.58
131464.77
134926.96
133206.66
132410.3
130948.27
129015.16
126894
125787.87
123277.33
121939.06
120229.55
118177
116589.2
114515.41
113614.44
111073.23
109925.99
107613.73
105521.32
103126.96
101007.16
98046.786
94774.578
92511.051
88212.343
84166.355
79936.82
75391.423
70617.996
65655.786
60514.266
55312.784
49955.836
44619.447
39492.555
34228.73
28684.546
23700.081
18728.426
14303.708
9963.911
6486.085
3241.1459
808.21412
-247148.64
-243369.13
-254760.87
-255871.19
-257161.58
-250499.17
-235282.46
-163041.95
-186364.55
-174371.78
-181407.58
-182996.21
-178900.7
-177904.23
-73483.604
-88586.257
-73292.115
-85140.528
-79239.077
-79213.789
-90020.478
3429.9784
16833.909
17734.822
9079.7202
9378.2671
20213.964
-15163.83
78827.354
78930.508
83739.391
75428.964
75748.503
74573.748
44853.223
197415.03
213766.03
208027.33
211357.17
214054.99
210773.72
193350.41
245179.39
213320.45
191575.81
195869.89
183666.41
168989.95
189196.85
242156.59
243231.7
270701.56
276507.47
281678.18
279060.28
219865.34
194556.81
220177.93
217766.53
219678.65
229168.8
218768.33
201037.79
158965.22
174757.45
182751.34
183090.91
181294.26
170555.26
178282.56
168191.1
180869.1
176048.65
183977.84
176912.15
175730.91
164096.75
165541.12
171267.57
174264.78
173543.33
173468.16
166408.28
167445.98
165075.91
160986.05
162538.65
163674.99
161748.22
158117.4
155818.73
158727.91
160432.97
160828.38
160655.23
158836.4
157853.58
156796.91
158342.26
154176.39
153886.1
153473.89
150267.66
151239.36
149408.4
153682.9
152214.39
151127.09
149581.37
149585.25
148098.96
148187.74
152466.26
148275.31
146162.27
146527.99
144595.48
143063.29
142013.06
148964.49
146285.37
143843.98
143288
141776.73
139315.35
142614.54
146430.8
143344.01
141237.71
141402.95
139427.51
135421.25
138694.19
144518.13
140195.45
140237.55
138037.91
137804.51
134747.07
137519.55
141836.87
138253.86
138212.18
135724.01
136175.41
132011.72
134796.42
140652.41
136333.84
137169.5
134385.57
134633.59
130933.52
133616.41
138572.28
134498.89
135852.04
132395.68
133424.02
129217.06
131936.68
136793.18
133694.68
134592.59
131271.38
132516.12
128302.08
130556.58
135249.66
132050.81
133276.97
129669.85
131251.49
126499.93
129077.32
133477.21
130883.14
132098.52
128480.47
130225.51
125656.37
128413.25
131586
129118.09
130537.16
126879.71
128813.58
124066.4
126750.58
129835.45
127549.59
128905.64
125366.6
127261.04
122719.58
125466.31
127576.81
125246.66
126916.12
123316.39
125386.99
120731.57
123453.34
125257.06
123341.59
124732.05
121282.02
122950.61
118675.24
121299.84
122630.44
120762.46
121661.62
118386.82
120558.07
116197.88
118994.31
119196.27
118443.3
117419.69
116457.97
116685.25
113481.87
115843.85
115292.91
114864.16
112768.7
114192.31
113250.11
111347.73
112864.28
111893.3
111205.88
109578.79
109895.94
109353.63
106718.01
109386.48
108083.52
106771.75
105593.84
105184.12
104206.84
102696.56
103925.41
102944.16
101770.46
100606.06
99990.376
99052.444
97996.479
98628.934
97858.459
96378.289
95642.503
94560.778
93902.879
92596.747
92961.397
92230.812
91017.349
89835.502
88807.495
87990.929
86723.543
87075.753
86512.692
84984.17
83897.034
82766.934
81973.521
80736.478
81042.338
80314.337
78844.028
77690.827
76525.374
75697.666
74504.648
74671.678
74066.74
72491.671
71317.832
70070.785
69191.033
68027.37
68104.221
67577.936
65955.114
64818.783
63481.391
62618.343
61646.149
61671.495
60929.204
59416.882
58138.954
56969.242
55993.981
55122.393
54918.279
54693.334
52652.604
51844.114
50049.259
49622.899
48809.729
48348.109
47930.791
46137.085
44641.732
43702.814
42517.029
41519.878
41770.913
41140.495
39348.749
38382.418
37031.782
36299.341
35578.526
35686.471
34709.123
32954.179
31985.743
30635.399
29923.65
29331.18
29480.241
28139.033
26603.54
25556.715
24323.096
23763.369
23339.368
23422.327
22137.124
20538.063
19565.746
18611.061
17960.03
17786.987
17874.985
16229.195
14678.575
13864.015
12962.832
12359.212
12551.577
12568.29
11081.041
9665.7444
8935.6853
8153.0136
7648.4499
8071.5545
7993.0956
6322.3793
5023.9448
4413.6852
3778.4858
3464.9046
4006.7124
3862.335
2649.595
1711.9721
1249.2857
821.96122
614.96372
1192.809
1169.0628
455.24433
-78.499684
-552.0806
-682.41426
-649.32392
-262.05484
-172.32292
1330.2646
1258.8237
1529.9684
1812.1174
1952.3043
1971.9736
2154.2928
3209.2504
3165.9482
3263.2005
3618.9306
3783.8724
3586.3139
3672.0481
1442.1322
1636.7861
1609.9614
1966.3859
2208.7845
2341.5722
2207.9532
49.113713
186.64256
337.1687
669.36969
742.92666
1031.7455
682.48635
-1949.3818
-1891.6978
-2258.2833
-1960.5049
-1826.3805
-1548.4546
-1492.8412
-2839.7587
-3070.1213
-2991.5821
-2707.4413
-2678.8704
-2121.162
-2514.6999
-2456.5105
-2612.8371
-2782.3813
-2573.2444
-2337.1459
-2001.5937
-2196.7492
-158085.73
-158691.87
-183029.17
-179067.33
-184956.66
-176304.07
-169230.88
-168042.74
-172472.88
-183475.63
-183125.55
-187165.74
-174887.48
-173410.89
-163567.26
-167190.91
-173289.51
-175587.49
-175410.15
-165118.41
-166616.75
-153593.68
-158942.86
-165043.81
-167718
-166409.51
-163075.68
-165702.91
-151817.99
-154536.12
-157685.59
-159614.99
-160716.07
-156763.05
-156859.22
-145185.74
-147114.44
-151361.07
-151494.68
-154056.75
-150736.36
-154212.9
-142627.87
-144017.9
-146471.53
-146785.78
-150562.79
-148890.07
-152537.52
-137536.4
-137961.2
-141856.23
-139871.61
-144076.02
-142583.2
-146757.9
-134956.55
-136164.6
-138007.19
-139099.36
-142333.79
-140443.71
-146426.76
-132167.37
-131364.45
-134699.91
-133626.5
-137996.79
-136295.7
-142855.81
-129466.65
-129427.72
-132919.77
-131796.97
-136215.29
-135258.28
-139875.28
-126499.7
-127471.3
-129975.83
-129284.04
-133091.12
-131885.42
-138259.37
-125584.1
-125203.56
-128001.47
-127751.76
-131766.68
-130825.73
-132464.18
-123392.71
-124028.76
-126646.18
-125832.27
-129692.67
-128821.83
-133387.94
-122054.19
-122785.33
-124114
-125574.97
-127550.13
-128077.25
-132525.56
-122203.23
-121360.99
-123743.62
-123577.19
-127646.48
-125896.88
-130357.05
-120811.1
-120720.11
-122297.56
-122988.79
-125503.65
-124279.31
-128943.11
-119997.29
-119484.76
-122054.8
-121519.65
-124602.3
-123413.52
-127490.37
-118731.21
-118428
-120564.59
-120269.21
-123220.06
-121659.8
-125698.11
-117852.37
-117122.11
-119635.35
-119078.66
-121949.21
-120303.03
-124285.48
-116372.68
-115387.12
-118135.12
-117270.55
-120190.98
-118247.22
-122081.46
-114745.43
-113750.54
-116530.62
-115552.03
-118449.86
-116263.75
-120202.31
-112690.14
-111530.72
-114559.05
-113392.04
-116157.72
-113902.79
-117535.39
-109976.51
-109380.11
-112090.44
-110934.56
-113562.02
-111170.79
-114738.5
-107257.99
-106094.13
-109111.91
-107749.51
-110362.04
-107852.99
-111520.04
-103767.76
-102666.23
-105826.93
-104357.24
-106899.57
-104460.25
-107957.59
-99874.069
-98750.103
-101780.57
-100308.89
-102726.24
-100316.71
-104028.15
-95414.114
-94503.528
-97433.611
-96095.593
-98475.005
-96344.149
-99546.578
-90453.931
-89572.935
-92432.825
-91201.949
-93460.48
-91278.773
-94685.517
-85176.412
-84513.093
-87219.121
-86139.551
-88188.369
-86373.369
-89643.175
-79467.232
-79021.7
-81548.282
-80595.878
-82593.199
-80940.415
-84081.487
-73650.916
-73270.546
-75614.782
-74849.914
-76753.891
-75238.362
-78387.44
-67496.788
-67265.655
-69498.22
-68929.898
-70552.36
-69490.124
-72534.276
-61195.778
-61215.636
-63338.922
-62763.23
-64421.511
-63516.943
-66320.197
-54981.273
-55076.961
-56797.57
-56632.219
-57991.811
-57878.84
-60244.475
-48633.303
-48856.895
-50687.733
-50400.332
-51957.74
-51489.502
-53475.368
-42359.226
-42917.58
-43898.755
-44387.383
-45248.251
-45369.047
-47706.159
-36295.283
-36749.893
-37580.558
-38060.025
-39141.513
-38894.29
-41691.517
-30344.991
-30850.012
-31546.631
-32004.936
-32965.819
-32977.85
-35366.608
-24710.566
-25053.894
-25719.352
-26101.692
-26989.734
-27085.244
-29341.326
-19202.846
-19505.334
-19961.492
-20285.203
-21117.987
-21388.85
-23430.881
-14212.598
-14219.571
-14610.192
-14862.884
-15683.404
-16018.148
-17846.111
-9633.5505
-9610.6829
-9719.6422
-9999.8021
-10652.841
-11054.293
-12573.181
-5516.2384
-5106.0395
-5222.7794
-5348.9144
-6001.346
-6442.3313
-7891.7929
-2413.893
-2150.4416
-2071.0008
-2280.0309
-2684.367
-3110.457
-4110.5981
-235.12037
21.861508
175.33573
188.83295
-62.709428
-410.63822
-1126.9266
118.81092
143.07883
413.95182
406.47714
280.01485
67.083299
-209.70634
-166992.66
-125607.1
-121113.4
-121229.62
-124942.92
-126835.1
-122049.82
-122122.29
-120314.51
-118808.87
-115646.45
-114644.31
-112134.71
-110092.59
-109475.47
-107835.8
-105619
-104142.67
-102670.61
-100925.22
-99144.109
-97150.856
-95095.981
-92788.283
-90212.412
-87528.302
-84262.348
-80767.315
-76978.844
-72857.706
-68623.958
-64080.595
-59350.776
-54384.374
-49980.394
-43796.184
-39677.154
-35076.404
-29837.001
-25014.905
-20410.392
-15968.043
-11932.866
-8227.1921
-5077.9398
-2588.3894
-182.28457
-93559.206
-95977.43
-69525.566
-85694.754
-96172.108
-88142.645
-93429.335
-88347.468
-88786.659
-85938.827
-85421.931
-83490.363
-81087.938
-79824.239
-78880.808
-78597.374
-76927.846
-76264.643
-74686.189
-73801.698
-72017.998
-70978.152
-69045.955
-67456.571
-65406.626
-62638.004
-61688.819
-58737.834
-56067.084
-53143.116
-50121.779
-46862.268
-43517.231
-40208.065
-36499.999
-32973.265
-29760.219
-25884.584
-22671.582
-18794.854
-15445.053
-11889.289
-8722.9433
-5708.808
-3165.8344
-688.04912
385.52324
-42130.172
-53819.223
-26758.605
-48797.108
-39825.599
-38272.617
-39639.05
-39004.766
-38071.089
-38010.473
-38313.357
-38387.359
-39106.174
-39174.824
-38982.565
-39158.566
-38133.775
-37342.209
-36703.454
-35419.716
-34561.425
-33492.138
-32414.507
-31493.493
-30363.886
-29475.204
-28525.244
-27182.875
-26025.967
-24564.697
-23184.581
-21629.695
-20184.523
-18598.278
-17052.96
-15503.813
-14001.245
-12365.655
-10700.264
-9166.0077
-7493.6977
-5832.7899
-4291.949
-2845.4026
-1551.6203
-697.20454
659.15852
10874.584
-7527.1524
5496.2569
-7272.3288
1026.429
-5922.2803
-2460.2844
852.78727
-2438.7649
-1624.043
-1455.0602
-3471.914
-2316.0025
-5698.3625
-5513.397
-6788.3599
-5719.3582
-6148.736
-5335.2982
-5270.046
-4705.8792
-4661.1601
-4292.9506
-4385.0187
-4005.0196
-3940.5738
-3612.9851
-3639.407
-3394.4109
-3492.7733
-3406.6842
-3301.0069
-3296.2113
-3197.9766
-3175.3778
-3067.3456
-2923.2186
-2722.9521
-2508.2821
-2141.2851
-1648.3913
-1122.853
-568.61514
62.047172
307.03335
928.60811
876.27434
76661.582
38392.779
43752.356
28141.063
40893.399
29563.117
37556.869
32886.6
32018
31525.532
29449.063
29886.852
28672.329
30285.25
29729.701
29586.663
29421.93
29531.999
29370.274
29486.195
29511.762
29311.495
29092.587
28738.898
28527.609
28464.375
26979.214
25965.217
24604.187
23210.633
21739.682
20198.943
18417.186
16706.09
14941.794
13240.929
11421.04
9745.2124
8254.3097
6787.0582
5507.1632
4472.5359
3573.4152
2732.9163
2149.9031
1178.3724
1097.0772
115076.02
89665.147
72877.084
74666.865
78940.155
75216.58
78817.786
71575.017
77051.928
74668.657
76520.949
73631.413
73614.758
72198.596
71609.587
69664.534
69604.408
68010.956
67821.658
66946.018
66554.319
65153.222
64211.252
61534.718
58680.234
54969.44
53268.092
50460.863
48087.798
45229.461
42433.613
39354.533
36117.718
32915.992
29594.458
26250.508
22901.147
19838.463
16818.681
13863.644
11446.352
9108.6552
7002.6665
5343.4448
3569.1507
2126.6428
496.54796
147996.75
119313.84
119059.91
114688.68
126423.16
119947.06
123274.4
118329.69
119804.46
115110.06
113546.36
112224.6
110182.37
108895.77
107702.8
107254.88
106436.47
105926.12
105155.21
104439.65
103102.11
101882.83
99780.604
97407.34
95099.976
89587.266
85718.514
81898.224
77888.688
73741.91
69165.702
64367.299
59430.947
54151.245
48816.79
43672.92
38902.044
33494.52
28422.583
23970.841
19654.778
15654.452
12231.481
9039.997
6317.9196
3552.2672
1541.5058
-193344.17
-211199.38
-208537.4
-217089.92
-216975.83
-206240.63
-192274.71
-134688.63
-159849.19
-159200.04
-165469.95
-161662.55
-153535.56
-139309.51
-126973.72
-139923.63
-149966.12
-151852.16
-148793.91
-149395.07
-143404.37
-121398.27
-127532.69
-131623.52
-135904.4
-131685.03
-135668.83
-120924.37
-116737.01
-123089.35
-129664.33
-128863.68
-130885.42
-128697.88
-121760.2
-114414.35
-121121.48
-120167.32
-126022.78
-122195.46
-124348.97
-124098.17
-111216.84
-114571.59
-117191.39
-119009.28
-117572.04
-120208.83
-118781.79
-108054.77
-115248.94
-112506.38
-118187.7
-117357.28
-118097.61
-118212.46
-106625.64
-109019.77
-108622.56
-113396.61
-110586.36
-115128.72
-115093.91
-103078.5
-108361.46
-107709.96
-112345.58
-110054.54
-114418.37
-112446.69
-101561.8
-105322.33
-104543.64
-108455.11
-107475.07
-110137.74
-111548.53
-101207.17
-103242.53
-103925.97
-106913.99
-106706.39
-109438.3
-108588.27
-98238.361
-101257.95
-102060.98
-104792.41
-104751.04
-106274.86
-109213.7
-97957.69
-100297.97
-100179.48
-104265.94
-103009.91
-105913.65
-107694.15
-97248.889
-98183.152
-101342.57
-101500.03
-102779.08
-104085.4
-104589.61
-95050.815
-97975.901
-99111.013
-101059.39
-101135.17
-102667.17
-104234.65
-94857.821
-96434.113
-98658.096
-99932.768
-100101.05
-102113.4
-103074.56
-93531.91
-96134.251
-97374.983
-98698.689
-99155.779
-100412.76
-101343.07
-92895.445
-95161.13
-96511.311
-97910.304
-98081.993
-99201.42
-100294.52
-91446.524
-94212.465
-95241.131
-96404.281
-96538.481
-97698.667
-98359.082
-90055.839
-93349.671
-93945.392
-95223.101
-95302.192
-96238.767
-96991.198
-88365.683
-91908.982
-92222.141
-93438.391
-93293.27
-94371.61
-94760.889
-86463.741
-90402.954
-90230.442
-91556.277
-91415.868
-92427.961
-92850.231
-84231.931
-88094.723
-87781.746
-89007.907
-88936.18
-89906.721
-90249.992
-81341.11
-86107.02
-84843.794
-86912.161
-86338.922
-87757.715
-88032.093
-78669.112
-82761.03
-82200.714
-83551.187
-83438.411
-84625.841
-84872.313
-75687.462
-79560.173
-79187.783
-80415.95
-80499.546
-81902.763
-81685.433
-71983.753
-75775.756
-75178.105
-76624.028
-76787.389
-77717.216
-78240.39
-68175.942
-71785.83
-71617.878
-72731.434
-72963.445
-74205.735
-74718.261
-63885.598
-67581.686
-67237.79
-68327.161
-68872.309
-70045.391
-70582.281
-59677.237
-62916.22
-62726.775
-63845.68
-64503.775
-65619.73
-66317.601
-54977.875
-58107.712
-58038.73
-59173.202
-59820.044
-61048.48
-61872.488
-50216.147
-53209.284
-53257.675
-54213.511
-55084.87
-56340.423
-57291.612
-45410.474
-48149.831
-48161.903
-49140.798
-50289.864
-51541.98
-52325.275
-40675.15
-43069.156
-43157.357
-44164.937
-45318.759
-46130.086
-47522.532
-35491.486
-37587.808
-38158.352
-38965.722
-40178.111
-41745.191
-42973.383
-31010.174
-33274.958
-33230.134
-33871.131
-35589.816
-35770.843
-38293.166
-26485.14
-27459.607
-28556.569
-29029.77
-29906.584
-32105.308
-32414.56
-22037.61
-22809.312
-23628.515
-24236.809
-25552.439
-26628.218
-28239.552
-17714.836
-18577.227
-19043.337
-19747.978
-20500.469
-22095.815
-23229.485
-13866.999
-14213.603
-14798.676
-15207.823
-16295.414
-17406.974
-18835.458
-10330.432
-10663.494
-10995.215
-11372.329
-12203.133
-13201.695
-14477.52
-7070.3179
-7140.9107
-7316.2432
-7571.0584
-8306.418
-9145.3676
-10429.14
-4696.3247
-4554.4164
-4724.6046
-4788.5485
-5424.3631
-6001.3867
-7006.0181
-2138.5844
-2285.0829
-2040.7766
-2156.1084
-2499.5452
-2921.07
-3731.4005
-1007.887
-703.74322
-636.48512
-548.06564
-814.44814
-1138.8593
-1482.2176
741.71347
746.17319
1070.39
1066.5174
1034.4323
934.83489
433.11925
-118613.63
-123585.98
-136672.31
-135047.33
-141809.82
-129126.45
-131489.29
-89081.46
-113025.25
-118427.17
-123537.67
-124215.11
-115790.99
-109065.54
-91224.995
-84997.714
-97196.8
-93139.092
-99173.246
-89064.89
-93679.235
-75899.741
-82411.541
-89602.444
-88770.733
-92716.788
-90270.836
-79490.021
-79930.077
-82214.031
-88579.768
-86144.567
-92199.196
-84542.876
-86686.294
-74607.417
-76504.823
-80299.272
-79800.621
-80714.612
-83745.61
-82508.331
-73650.744
-77046.997
-82922.903
-80090.446
-85351.819
-84778.919
-81807.945
-71460.626
-72600.882
-75857.438
-75168.917
-78790.366
-78000.868
-80547.193
-69725.332
-71520.233
-77528.791
-75615.893
-78290.847
-79715.331
-79239.742
-67577.046
-69854.362
-73383.117
-70854.6
-75770.342
-75395.113
-77835.687
-66591.596
-68357.203
-72002.439
-71401.387
-74546.103
-75707.113
-75788.124
-64750.719
-66320.548
-71278.689
-68838.3
-73631.607
-72763.592
-76362.175
-63827.47
-65669.312
-70117.83
-67784.24
-72395.525
-71912.399
-73886.834
-62474.994
-65049.359
-69279.178
-67232.971
-71193.73
-70981.518
-72110.591
-61559.538
-64909.152
-67068.233
-66009.207
-70144.959
-69735.086
-71348.235
-61233.745
-64683.585
-66352.387
-66212.979
-69200.939
-69222.501
-70245.465
-60717.745
-63589.144
-65476.101
-64941.682
-68193.123
-68208.045
-69588.543
-60249.866
-63742.068
-65202.49
-65002.331
-67709.787
-67730.769
-68411.13
-60014.704
-62642.944
-64399.524
-63858.528
-66780.97
-66294.684
-67443.925
-59586.09
-62436.11
-63926.743
-63588.831
-66171.138
-65746.82
-66659.043
-59344.042
-61324.746
-63069.677
-62365.928
-65155.721
-64307.872
-65323.541
-58903.783
-60727.867
-62192.938
-61661.592
-64324.818
-63429.829
-64278.991
-58270.618
-59154.841
-60988.367
-60228.963
-63123.22
-61697.225
-62884.455
-57021.493
-58037.315
-59902.426
-59462.245
-61821.849
-60757.65
-61564.293
-55738.566
-56459.979
-58363.672
-57483.25
-60340.3
-58620.289
-59608.778
-53979.303
-54923.099
-55686.431
-57481.789
-57681.724
-57418.781
-58396.579
-51395.829
-53212.846
-54322.51
-53010.01
-56814.659
-54030.888
-55638.539
-49575.795
-49888.301
-52179.242
-51965.679
-53727.292
-52696.048
-53362.985
-46797.842
-47870.938
-49590.954
-48978.847
-51474.114
-49915.223
-50915.906
-44029.856
-45267.061
-46414.705
-46356.751
-48535.189
-47180.177
-48193.365
-40957.703
-42157.033
-43427.061
-43569.804
-45569.28
-44292.169
-45328.842
-37714.641
-39185.259
-40288.911
-40432.183
-42306.56
-41237.133
-42392.151
-34388.275
-35984.807
-36789.29
-37247.22
-39022.501
-38239.254
-39113.816
-31120.74
-32696.448
-33421.145
-34021.693
-35634.973
-34715.415
-35971.49
-27509.378
-29275.601
-29864.378
-30777.809
-32038.506
-31814.417
-32985
-24170.042
-26039.267
-26480.326
-27330.126
-28626.768
-28210.033
-29485.183
-20775.003
-22795.078
-22950.412
-24157.988
-24932.304
-25223.614
-25805.306
-17574.317
-19508.095
-19516.119
-20667.187
-21677.44
-21660.575
-22936.983
-14296.951
-16178.519
-16326.878
-17234.478
-18198.549
-18575.422
-19241.274
-11456.307
-13407.387
-13363.848
-14173.864
-15089.693
-15211.316
-16134.754
-8952.6696
-10378.114
-10256.672
-11039.885
-11824.196
-12091.981
-12934.824
-6437.6785
-7832.885
-7591.7831
-8256.0814
-8915.2559
-9024.9868
-10055.877
-4497.0407
-5451.2049
-5024.1475
-5634.2755
-6092.2987
-6341.3876
-7264.4181
-2614.855
-3223.0916
-2819.4774
-3149.3489
-3630.7751
-3707.5033
-4738.7694
-1195.6284
-1767.7346
-1016.7423
-1432.7204
-1693.6375
-1737.1959
-2701.7411
160.54972
260.17708
811.02227
661.29718
557.66631
507.06701
-493.69854
683.93945
386.32838
1095.2356
971.87216
972.40161
991.0937
512.12292
-62277.695
-63007.473
-60004.756
-67663.153
-64733.132
-62327.745
-61068.315
-44249.614
-69487.637
-64032.488
-71976.122
-63440.206
-65917.464
-54893.989
-43668.445
-39506.952
-43809.945
-45550.748
-44083.798
-41066.602
-43134.368
-32177.374
-43123.397
-46530.776
-51920.719
-47107.455
-51328.717
-40573.647
-37499.955
-37001.063
-40285.027
-38303.567
-40629.203
-36687.609
-40764.303
-31675.411
-39096.991
-37381.24
-40774.229
-41142.074
-41536.31
-42334.611
-31785.222
-36678.749
-33233.475
-37753.79
-38972.182
-37151.612
-39334.327
-30499.901
-37870.754
-33182.046
-38564.869
-38161.319
-36872.963
-40940.083
-30488.856
-36732.779
-31019.134
-35951.745
-36272.095
-36728.742
-39523.572
-30078.002
-35583.313
-30280.865
-35458.646
-36547.369
-36590.972
-38899.169
-28930.002
-34609.419
-29689.373
-35266.776
-35652.309
-35778.243
-38516.174
-28433.661
-34093.458
-28550.947
-34379.438
-34368.979
-35865.102
-37912.104
-26625.978
-33815.019
-28888.967
-33375.118
-35310.475
-34225.581
-37118.776
-26629.121
-33147.456
-28682.295
-33472.169
-34791.401
-32700.512
-38400.445
-27703.779
-31436.969
-29103.647
-32499.852
-34377.638
-33026.112
-37508.681
-26540.803
-30877.565
-28861.273
-31925.406
-33954.168
-32257.05
-37067.026
-26594.836
-30342.309
-29306.264
-31833.103
-33623.633
-31976.039
-36955.439
-25907.229
-30418.987
-28624.504
-31469.409
-32840.015
-31601.076
-35699.583
-26153.619
-29920.034
-28556.302
-30933.614
-32648.283
-30832.051
-35543.011
-25548.412
-29825.635
-27970.053
-30718.175
-31623.732
-30328.311
-34475.346
-25404.351
-29305.789
-27813.147
-29947.609
-31223.067
-29661.768
-33860.956
-24595.38
-28799.26
-26932.038
-29500.01
-30272.885
-28755.413
-32839.388
-24182.347
-27897.469
-26645.437
-29035.946
-29339.568
-28218.697
-32034.799
-23226.938
-27146.216
-26001.145
-27627.582
-28296.039
-27027.295
-30602.691
-22601.534
-26269.367
-24934.819
-26833.459
-27166.532
-26248.134
-29857.956
-21476.902
-24675.585
-24258.6
-25043.726
-26032.615
-25124.123
-28288.836
-20652.564
-23814.536
-22829.64
-24454.168
-24609.313
-24188.27
-27096.295
-19152.804
-22808.183
-21324.544
-23289.477
-23332.103
-22995.9
-26119.894
-18107.643
-21176.428
-20168.157
-21538.747
-22000.645
-21650.047
-24906.308
-16511.398
-19727.73
-18399.46
-20387.223
-20551.313
-20416.921
-23577.382
-15290.849
-17999.293
-17077.418
-18832.618
-18972.223
-18986.267
-22264.231
-13640.405
-16430.271
-15388.353
-17230.209
-17391.536
-17676.379
-20845.001
-12265.736
-14692.297
-13815.389
-15634.124
-15867.524
-16160.143
-19330.065
-10618.333
-12890.975
-12186.818
-14020.88
-14237.361
-14816.218
-17907.217
-9151.1451
-11248.815
-10635.746
-12329.11
-12633.044
-13261.904
-16198.232
-7644.8765
-9468.6816
-9033.7145
-10670.19
-11003.433
-11898.569
-14674.837
-6291.3168
-7872.9245
-7517.4515
-8991.7304
-9610.3809
-10202.645
-13137.012
-4849.8211
-6249.4216
-5928.0258
-7556.42
-7820.7149
-8881.2717
-11484.772
-3874.1793
-4764.7076
-4645.2065
-6025.785
-6443.4535
-7506.4963
-9778.2721
-2796.6367
-3605.5359
-3318.6193
-4695.531
-5024.9405
-5930.2292
-8107.9404
-1928.6476
-2150.7551
-2130.3756
-3218.4076
-3598.123
-4580.4722
-6577.7017
-1146.8928
-1536.0802
-1421.6326
-2314.5498
-2634.3183
-3378.249
-4974.8498
-453.41324
-378.91336
-266.86308
-948.95343
-1218.9714
-1986.4
-3426.2657
-268.84704
-325.31824
-240.11104
-734.87693
-941.16478
-1474.6297
-2312.9359
492.12566
480.56188
810.61282
434.42216
360.19715
-65.388357
-627.95656
302.0108
70.691002
373.66602
9.7879791
113.38841
-143.73025
-366.57226
815.43632
1128.485
1374.9576
1262.4248
1556.1298
1144.8968
1284.5319
11089.2
15544.845
12077.82
12148.249
10958.726
11561.967
1712.5366
11710.011
9664.2045
9725.7865
5504.7127
6614.1258
3969.4837
4171.7585
2373.5541
14454.66
10191.743
13136.531
9641.5486
10405.852
1641.593
9909.7651
9950.8685
2359.1588
4562.9081
2499.4413
-1849.0029
5078.5844
5322.2753
4342.8097
2392.255
7418.076
-169.34346
8970.8204
-2505.7795
6317.9769
9245.6885
6686.9453
3491.4354
2223.6668
303.50863
1931.2826
6753.1186
3605.7802
-194.6016
2475.066
-1406.9973
2120.3962
-2397.9013
5723.099
6603.9837
4849.1936
2859.9282
1853.5016
-664.89361
-948.02086
7379.679
6110.6118
865.84419
3190.57
-1928.0199
-150.90845
442.66411
7505.8762
4944.3616
3406.1136
3333.1896
818.27886
608.20156
-1337.0577
7139.1877
6002.9109
2973.7961
3524.3499
324.43366
119.54165
-1079.3656
8484.5514
5344.2319
4223.1867
3039.6557
1267.1564
-410.68788
-717.88777
7548.7799
6542.7112
4164.3953
3814.2336
150.05057
918.45624
-1900.6547
8043.6971
5925.6615
3302.2273
1604.2124
2922.4485
-826.26434
-63.845801
7229.7064
5444.0894
6183.3141
2448.5989
2563.1752
-258.33338
-271.64567
8538.4089
4952.2223
5896.1565
1272.2135
3243.7836
-511.50805
-43.889906
7827.7891
5812.5442
5413.0443
1699.5924
3392.3724
7.3542078
-70.249923
8029.4053
4951.3606
5351.2664
1345.0712
3435.6589
-438.001
380.41883
7420.5328
5300.8707
5122.8527
1763.2567
3401.5757