/*--------------------------------*- C++ -*----------------------------------*\
  =========                 |
  \\      /  F ield         | OpenFOAM: The Open Source CFD Toolbox
   \\    /   O peration     | Website:  https://openfoam.org
    \\  /    A nd           | Version:  6
     \\/     M anipulation  |
\*---------------------------------------------------------------------------*/
FoamFile
{
    version     2.0;
    format      ascii;
    class       pointVectorField;
    location    "1.82";
    object      u;
}
// * * * * * * * * * * * * * * * * * * * * * * * * * * * * * * * * * * * * * //

dimensions      [0 1 0 0 0 0 0];

internalField   nonuniform List<vector> 
3969
(
(0 -8.0598345e-20 0)
(0 -4.316539e-19 0)
(-0.036980315 -0.011186125 -0.059536671)
(-0.037110835 0.0066361785 -0.056402252)
(0 4.4112221e-18 0)
(0 3.555945e-18 0)
(-0.040543396 0.022601958 -0.05652211)
(-0.040400911 0.0048005016 -0.059686961)
(0 1.8877034e-19 0)
(0 1.1376903e-18 0)
(0 4.9500556e-19 0)
(-2.8439089e-18 -2.5607253e-19 0)
(0 1.3631062e-18 0)
(0 -7.8473251e-19 0)
(0 -7.6634493e-19 0)
(-0.03699875 -0.0089162993 -0.059132976)
(-0.036988568 -0.0066842088 -0.058737929)
(-0.037002993 -0.0044606479 -0.058355824)
(-0.037020599 -0.0022479024 -0.057974997)
(-0.037043194 -3.7197143e-05 -0.057594945)
(-0.037079868 0.0021812461 -0.057206095)
(-0.037104748 0.0044225473 -0.056806732)
(0.00032498538 0.00029711997 0.00035585456)
(0.00023521073 0.00067453917 0.00046033665)
(0.00041772279 0.00043116957 0.00067311188)
(0.00033264432 0.00086812537 0.0006339628)
(0.00054432229 0.00067033122 0.00073454731)
(0.00052900446 0.0009677699 0.00062854897)
(0.00080274531 0.00080113535 0.00057283162)
(0.00087169782 0.00097755871 0.00037036231)
(0.0011642652 0.00077222596 0.00013387387)
(0.0013565929 0.00087789625 -0.0002027333)
(0.0016488785 0.00060316757 -0.00062860398)
(0.0019386375 0.0006323986 -0.0011667777)
(0.0022485739 0.00031779212 -0.0017619795)
(0.0025770703 0.00020678185 -0.0025108658)
(0.0028692964 -0.00011619597 -0.0033188855)
(0.0031969289 -0.00033808128 -0.0042451111)
(0.0034560544 -0.00070662198 -0.0052595819)
(0.0037133253 -0.0010190796 -0.0063637572)
(0.003883683 -0.0014406337 -0.0075566029)
(0.0040256039 -0.0018337515 -0.0088328189)
(0.0040515548 -0.0023009203 -0.010179279)
(0.0040168425 -0.0027593152 -0.011603073)
(0.0038507729 -0.0032672957 -0.013080832)
(0.0035888277 -0.0037732418 -0.014623921)
(0.0031827447 -0.0042926956 -0.01621018)
(0.0026623129 -0.0048357326 -0.01785001)
(0.001987589 -0.0053783495 -0.019524995)
(0.0011742694 -0.0059072503 -0.021238489)
(0.00020910473 -0.0064496441 -0.022984083)
(-0.00089395604 -0.006958754 -0.024759116)
(-0.0021464832 -0.0074688361 -0.02655965)
(-0.0035377359 -0.00794485 -0.028384477)
(-0.0050623909 -0.0084009716 -0.030230647)
(-0.0067132832 -0.0088262003 -0.032092996)
(-0.0084827969 -0.0092123611 -0.03398319)
(-0.010359662 -0.0095719038 -0.035872236)
(-0.012329131 -0.0098884324 -0.037795936)
(-0.014387997 -0.010163394 -0.039722511)
(-0.016523519 -0.01040523 -0.04165786)
(-0.018703334 -0.010601919 -0.043617372)
(-0.020952243 -0.010766516 -0.04557257)
(-0.023209301 -0.010899063 -0.047551909)
(-0.025521883 -0.010983678 -0.049526955)
(-0.027806949 -0.011074157 -0.05151777)
(-0.030137329 -0.011096864 -0.053515802)
(-0.032416675 -0.011148421 -0.055515684)
(-0.034714284 -0.011153759 -0.057529436)
(-0.00011973422 0.00023987398 0.0003530692)
(-3.6577884e-05 0.00031190783 0.00049002731)
(0.00013075607 0.00015983432 0.00089199101)
(0.00023736741 0.00030345088 0.00090916915)
(0.00045053759 6.6917571e-05 0.00121907)
(0.00066325671 0.00012138057 0.0012124415)
(0.00090432839 -0.00011329181 0.0013552882)
(0.0011833919 -0.00014097864 0.0012895636)
(0.0014701595 -0.00036951326 0.0012624933)
(0.0017763481 -0.0004376189 0.0010842831)
(0.0021119631 -0.00066927876 0.00086797131)
(0.0024348348 -0.00073066361 0.00055839216)
(0.0027957022 -0.00092919292 0.00014259195)
(0.0031176377 -0.00098672807 -0.00033863972)
(0.0034646719 -0.0011041145 -0.00092394681)
(0.0037314498 -0.0010967611 -0.0016051737)
(0.0040439992 -0.00115794 -0.0023723865)
(0.0041985655 -0.0010433466 -0.0032448875)
(0.0044352819 -0.0010312325 -0.0041913784)
(0.0044309778 -0.00081504343 -0.0052541609)
(0.0045204042 -0.0006987812 -0.0063746549)
(0.0043438881 -0.00040823854 -0.0076063481)
(0.0042017672 -0.00017153273 -0.0089018454)
(0.0038234428 0.0001839067 -0.010289704)
(0.0034164512 0.00051299371 -0.011734558)
(0.0027852756 0.00092467406 -0.013272184)
(0.0021094159 0.0013081419 -0.014860762)
(0.0012137217 0.001764054 -0.016522163)
(0.00020966039 0.0021948405 -0.018234962)
(-0.00094351365 0.0026441676 -0.020004254)
(-0.0022487145 0.0030909071 -0.021827368)
(-0.0036765151 0.0035282513 -0.023692266)
(-0.0052487907 0.0039538791 -0.025604964)
(-0.0069337744 0.0043602561 -0.027551441)
(-0.0087386459 0.0047398153 -0.029534703)
(-0.010642629 0.0050976005 -0.031542858)
(-0.012645962 0.0054174914 -0.033586331)
(-0.014714679 0.0057045904 -0.035631457)
(-0.016860373 0.0059585431 -0.037711887)
(-0.019054815 0.0061684462 -0.039787562)
(-0.021295547 0.0063516007 -0.041885776)
(-0.023555041 0.0064879201 -0.043971034)
(-0.025842323 0.0065957221 -0.046071636)
(-0.028121664 0.006661411 -0.048152595)
(-0.030406037 0.006700883 -0.050235917)
(-0.032667846 0.0067116125 -0.052304128)
(-0.034913635 0.0066865982 -0.05435946)
(0 -4.9210405e-20 0)
(0 5.807399e-19 0)
(0 -6.8781055e-19 0)
(1.4012963e-18 -1.4263864e-19 0)
(0 -1.1787205e-18 0)
(0 -5.4612398e-19 0)
(0 -4.5965854e-19 0)
(-0.00020921072 8.5048688e-05 -2.6118785e-05)
(-0.00043270255 0.00026536298 0.00024666539)
(-0.0005835145 0.00027809152 0.00044832569)
(-0.00074967804 0.00062124386 0.00067826112)
(-0.00079179508 0.00065826239 0.00078700497)
(-0.00088419556 0.0010903912 0.00094572058)
(-0.0008588625 0.0012492467 0.00092062939)
(-0.000834236 0.0016745166 0.00095621934)
(-0.00077195051 0.0020106557 0.00077263489)
(-0.000680981 0.0024328484 0.00062289065)
(-0.00048974576 0.0028244404 0.00029943205)
(-0.00044207764 0.0034341414 -0.00011584798)
(-0.0001197709 0.0037175512 -0.00057102571)
(-6.3402954e-05 0.004577883 -0.0012599113)
(0.00026878338 0.0048153642 -0.001882766)
(0.00036177488 0.0057668203 -0.0027928055)
(0.00062267065 0.0061300044 -0.0036312252)
(0.00070250591 0.0070438827 -0.0047027938)
(0.0008500104 0.0075790026 -0.005759903)
(0.00084884336 0.0084520327 -0.006979448)
(0.00084074393 0.0091173842 -0.0082250253)
(0.00069491161 0.009973763 -0.0095854609)
(0.00048506937 0.010721691 -0.010984427)
(0.00014379161 0.011566223 -0.012469578)
(-0.0003073407 0.012364775 -0.013992756)
(-0.00090692581 0.013195802 -0.015569861)
(-0.0016251857 0.014025642 -0.01720691)
(-0.0024884688 0.014828856 -0.018866174)
(-0.0034923974 0.015628217 -0.020574362)
(-0.0046428771 0.0164054 -0.022313808)
(-0.0059263408 0.017146196 -0.024076687)
(-0.0073484093 0.017861818 -0.025872442)
(-0.0088998816 0.018538567 -0.027689328)
(-0.010570745 0.0191676 -0.029529252)
(-0.01235305 0.019750322 -0.031382929)
(-0.014241615 0.020290304 -0.033265646)
(-0.016223148 0.020763397 -0.035140726)
(-0.018273125 0.021199199 -0.037058556)
(-0.020391968 0.021558349 -0.038965179)
(-0.022572765 0.021877115 -0.040894789)
(-0.024786146 0.022131299 -0.042826285)
(-0.027038362 0.022334696 -0.044768094)
(-0.029299409 0.022485864 -0.046717278)
(-0.031574421 0.022586634 -0.048669331)
(-0.033841024 0.022646232 -0.050630433)
(-0.036096337 0.022659546 -0.052592139)
(-0.038338649 0.022647572 -0.054557397)
(-0.040530182 0.020388213 -0.056915762)
(-0.040491696 0.018158779 -0.057305373)
(-0.040476297 0.015956685 -0.0577086)
(-0.040427338 0.013731057 -0.058112554)
(-0.040435693 0.011544439 -0.058517649)
(-0.040407797 0.0092973654 -0.058915582)
(-0.040421884 0.0070692819 -0.059308119)
(-0.038143253 0.0048344119 -0.057675511)
(-0.035838595 0.0048423574 -0.055662295)
(-0.033538367 0.0048772551 -0.053631336)
(-0.031209071 0.004903451 -0.0515872)
(-0.028880802 0.0049494254 -0.049530726)
(-0.026556793 0.00500417 -0.047467235)
(-0.024251536 0.0050768329 -0.045400911)
(-0.021977128 0.0051665464 -0.043335552)
(-0.019744545 0.005273831 -0.041275348)
(-0.017566704 0.0053994634 -0.039221349)
(-0.015456096 0.0055438029 -0.037184159)
(-0.013447806 0.0057183838 -0.035172376)
(-0.011495189 0.0058838703 -0.033166477)
(-0.0096619788 0.0060755735 -0.031193784)
(-0.0079427126 0.0062746038 -0.029248237)
(-0.006341193 0.0064776337 -0.027339463)
(-0.0048699494 0.0066811609 -0.025467074)
(-0.0035308993 0.0068804067 -0.023636103)
(-0.0023320839 0.0070684969 -0.021852178)
(-0.0012732576 0.0072437577 -0.020118722)
(-0.00035427183 0.0073887778 -0.018432457)
(0.00042723223 0.0075170662 -0.016813377)
(0.0010740163 0.007596345 -0.015241552)
(0.0015921595 0.0076607795 -0.013748131)
(0.0019855655 0.0076478431 -0.012303485)
(0.0022703691 0.0076312367 -0.010953069)
(0.0024518163 0.0075107119 -0.0096440778)
(0.002539241 0.0074041294 -0.0084527851)
(0.0025504893 0.0071698536 -0.0072935982)
(0.0024876612 0.0069697008 -0.0062716766)
(0.0023827012 0.0066294713 -0.0052721262)
(0.0022189574 0.0063296417 -0.0044190957)
(0.0020322809 0.0059169278 -0.0036194914)
(0.0018205301 0.0055657214 -0.0029121283)
(0.0016131938 0.0050300659 -0.002269624)
(0.0013780361 0.0046555361 -0.0017904764)
(0.0012018406 0.0040524468 -0.0012746694)
(0.00096242892 0.0036781237 -0.00097771011)
(0.00082911897 0.0030951391 -0.000644091)
(0.00060603664 0.0027659818 -0.00044318116)
(0.00055530021 0.002052184 -0.0002616821)
(0.00037164206 0.0018808818 -0.00023251499)
(0.00036711886 0.0012300618 -0.00011854266)
(0.00027631917 0.0010704408 -0.0001750333)
(0.00022276182 0.00064299346 -0.00016424199)
(0.00023635921 0.00042397335 -0.00016053787)
(0.00019698706 0.00025637045 -0.00016723898)
(0 5.9646062e-19 0)
(0 4.6628423e-19 0)
(0 -2.4162845e-19 0)
(0 -1.5877039e-18 7.9456318e-19)
(0 -1.394018e-18 0)
(0 -3.0649578e-19 0)
(0 1.4656949e-18 0)
(0 2.0297647e-18 0)
(0 1.9348791e-18 0)
(0 1.8384649e-18 0)
(0 1.587805e-18 -1.9505517e-19)
(0 4.2893409e-18 0)
(0 1.8803878e-18 0)
(0 -3.4646545e-19 0)
(-0.037551301 0.0086741138 -0.056413258)
(-0.037988145 0.010695625 -0.056430471)
(-0.038414686 0.012706994 -0.056441147)
(-0.038843646 0.014700316 -0.056459897)
(-0.039265315 0.016689241 -0.056477651)
(-0.03968751 0.018663144 -0.056496869)
(-0.040111445 0.020639737 -0.056507761)
(-0.037414856 -0.0091808179 -0.059556416)
(-0.037849797 -0.0071777863 -0.059568947)
(-0.038281893 -0.005182598 -0.059585963)
(-0.038715107 -0.0031905626 -0.059600111)
(-0.039142736 -0.0011975502 -0.059619258)
(-0.03956797 0.00079459264 -0.059640474)
(-0.03998667 0.0027953846 -0.059667656)
(3.0021561e-05 -0.0023905604 0.00038194974)
(-6.6307377e-05 -0.0048532568 0.00045669753)
(-2.9210204e-05 -0.0073021822 0.00061110447)
(-0.00020673375 -0.0095236901 0.00064318587)
(-0.00012999573 -0.011713302 0.0007102411)
(-0.00026882099 -0.013683517 0.00067412738)
(-4.3767346e-05 -0.015380157 0.00057094973)
(-0.000115381 -0.01695148 0.00044625907)
(0.00016544207 -0.018121653 0.00020879176)
(0.0002624352 -0.019081579 -0.00010223622)
(0.00058761479 -0.019720412 -0.00050634107)
(0.00082266404 -0.020011933 -0.00097276847)
(0.00120296 -0.02006635 -0.0015833205)
(0.0015356177 -0.019699898 -0.0022628831)
(0.0019333285 -0.019118414 -0.0030423839)
(0.0023266115 -0.018172805 -0.0039392311)
(0.0026996926 -0.017012997 -0.0049146745)
(0.0030606996 -0.015542359 -0.0059920489)
(0.0033804952 -0.01390218 -0.0071618899)
(0.0036406367 -0.012026026 -0.0084097661)
(0.0038316135 -0.010023565 -0.0097515459)
(0.0039311499 -0.0078841217 -0.011153855)
(0.0039222022 -0.0056804551 -0.012636532)
(0.0038006357 -0.0034246327 -0.014174373)
(0.0035352445 -0.0011919501 -0.015779277)
(0.0031281873 0.001008166 -0.017414186)
(0.0025736493 0.0031169461 -0.019113356)
(0.0018535712 0.0050945988 -0.0208446)
(0.00097207747 0.0069159452 -0.022608071)
(-6.6409896e-05 0.0085318367 -0.024405383)
(-0.0012721753 0.0099189555 -0.026227299)
(-0.0026326822 0.011051751 -0.028073022)
(-0.0041418034 0.011901123 -0.029938118)
(-0.0057952865 0.012457984 -0.031825015)
(-0.0075795417 0.012700869 -0.033720933)
(-0.0094836631 0.012622514 -0.035634261)
(-0.0114966 0.012237078 -0.037562244)
(-0.013604214 0.011522182 -0.039490431)
(-0.015795399 0.010501474 -0.041434568)
(-0.01804547 0.0091886305 -0.043387351)
(-0.020362734 0.0075912623 -0.045337874)
(-0.022705043 0.0057486725 -0.047304533)
(-0.02509292 0.0036704894 -0.049264807)
(-0.027472498 0.0014006429 -0.051240625)
(-0.029885726 -0.001024757 -0.053209919)
(-0.032260202 -0.0035881225 -0.055185282)
(-0.034653397 -0.0062217611 -0.057159463)
(-9.181963e-05 -0.003518655 0.00040979151)
(-0.00027877374 -0.0069854151 0.00046158252)
(-0.00031639707 -0.010622112 0.00069213554)
(-0.00050765742 -0.01369093 0.00063861085)
(-0.00055789386 -0.016956413 0.00077116147)
(-0.00052363162 -0.019579806 0.00064164211)
(-0.00053859908 -0.022211715 0.00064530198)
(-0.00043914099 -0.024226299 0.00049297867)
(-0.00028003189 -0.026033424 0.00025155194)
(-8.1471772e-05 -0.027262458 -6.15713e-06)
(0.00015538528 -0.028199323 -0.00036583019)
(0.00047752314 -0.028509923 -0.00084715036)
(0.00081283398 -0.028512292 -0.0013876296)
(0.001185422 -0.027898314 -0.002036738)
(0.0015943122 -0.02696087 -0.0027987237)
(0.0020174423 -0.02548288 -0.0036390212)
(0.0024355712 -0.02367943 -0.0045874639)
(0.0028601483 -0.021434838 -0.0056384795)
(0.0032125908 -0.018908321 -0.0067676046)
(0.0035501003 -0.016049971 -0.0080032746)
(0.0037774449 -0.012981975 -0.0093102416)
(0.0039479916 -0.0097146502 -0.010697702)
(0.0039927247 -0.0063266997 -0.012163694)
(0.0039271596 -0.0028843861 -0.013690164)
(0.0037080065 0.00057052892 -0.015272805)
(0.0033675407 0.0039596461 -0.01692555)
(0.0028458793 0.0072257797 -0.018620535)
(0.0021647899 0.010320961 -0.020349451)
(0.0013250229 0.013164074 -0.022131322)
(0.00030524754 0.015733111 -0.023935407)
(-0.00088176157 0.017959538 -0.025772134)
(-0.0022279265 0.019814085 -0.027634203)
(-0.0037361202 0.021261376 -0.029519232)
(-0.0053898829 0.022266071 -0.031416452)
(-0.0071819875 0.022817229 -0.03333447)
(-0.009098298 0.022902904 -0.035264465)
(-0.01113052 0.022509227 -0.037200148)
(-0.013256998 0.021650292 -0.039146111)
(-0.015477888 0.020331343 -0.041100651)
(-0.017755366 0.018578514 -0.043053658)
(-0.020110485 0.016409072 -0.045013036)
(-0.02248112 0.013868983 -0.046975011)
(-0.024913893 0.010990368 -0.048937063)
(-0.0273288 0.0078198952 -0.050895562)
(-0.029788781 0.0044168204 -0.052861401)
(-0.032202265 0.00081651135 -0.054815266)
(-0.03463188 -0.0028960464 -0.056783561)
(-1.9939633e-05 -0.0023769053 0.00035707997)
(-0.00017099878 -0.0048970662 0.00047371545)
(-0.00013061501 -0.0073482846 0.00063523928)
(-0.00030351403 -0.0096176344 0.00068028675)
(-0.00011154436 -0.011796806 0.00072038638)
(-0.00028503751 -0.013834802 0.00074329713)
(-4.4163637e-05 -0.015542222 0.00069526495)
(-5.9376212e-05 -0.017156113 0.00053961687)
(0.0002359763 -0.018329482 0.00036288902)
(0.00031454571 -0.019347644 0.00013107085)
(0.00070638474 -0.019973497 -0.00026964938)
(0.00094004608 -0.020279164 -0.0006947016)
(0.0013419569 -0.020309985 -0.0012194651)
(0.0016970881 -0.019932242 -0.0018718457)
(0.002133096 -0.019304135 -0.0025959788)
(0.002521311 -0.018305865 -0.0034103655)
(0.0029365833 -0.017067669 -0.0043496099)
(0.0032850639 -0.015505126 -0.005339677)
(0.0036241465 -0.013745598 -0.0064636084)
(0.003882653 -0.011733081 -0.007639859)
(0.0040881433 -0.0095776448 -0.0089257498)
(0.0041910205 -0.0072560494 -0.010272248)
(0.0041807646 -0.004872881 -0.01170574)
(0.0040483379 -0.0024010465 -0.013186678)
(0.0037902634 5.434502e-05 -0.014760535)
(0.003376046 0.0024840353 -0.016363476)
(0.0027965998 0.0048275048 -0.018019622)
(0.0020745682 0.0070499462 -0.019736073)
(0.0011722308 0.0091056708 -0.021481513)
(0.00011064744 0.010963336 -0.023264546)
(-0.0011120209 0.012582108 -0.025088302)
(-0.0024918256 0.013938616 -0.026936301)
(-0.0040274773 0.015005196 -0.028811464)
(-0.0056980256 0.015754753 -0.030708245)
(-0.0075068212 0.016193695 -0.032631497)
(-0.0094311373 0.016280997 -0.034560973)
(-0.01146382 0.016047054 -0.036513695)
(-0.013593924 0.015465108 -0.038474612)
(-0.015797849 0.014564696 -0.040444902)
(-0.018070266 0.013348745 -0.042426622)
(-0.020391179 0.011837678 -0.044408766)
(-0.022748221 0.010060976 -0.046404262)
(-0.025138439 0.0080362093 -0.048387809)
(-0.027525531 0.005807129 -0.050391718)
(-0.029932835 0.0034018047 -0.052379082)
(-0.032303719 0.00086195593 -0.054378286)
(-0.034690058 -0.0017681657 -0.056365763)
(9.0042252e-05 0.0002096884 0.00042150683)
(3.2819516e-07 0.00037455954 0.00049920986)
(0.00018102799 0.00030256745 0.00075715438)
(0.00026135904 0.00054732455 0.00068295846)
(0.00036977528 0.00037600051 0.00089549825)
(0.00057892932 0.00053000738 0.00076894846)
(0.00074615073 0.00039793176 0.00078173539)
(0.0010397471 0.00038585416 0.0006150655)
(0.0012435147 0.00026799756 0.0004744548)
(0.0015992428 0.00017360576 0.00014096663)
(0.0018984848 3.89175e-05 -0.00017902176)
(0.0022287257 -8.8042134e-05 -0.00060268965)
(0.0025992418 -0.00029131733 -0.0011318152)
(0.0029351249 -0.00038235784 -0.0017632275)
(0.00329043 -0.00061391889 -0.0024346522)
(0.0036088366 -0.0007228653 -0.0032525601)
(0.0039108699 -0.00092956737 -0.0041191359)
(0.0041759377 -0.001054268 -0.0051119038)
(0.0043687528 -0.0012225116 -0.0061712137)
(0.0045173246 -0.0013492359 -0.0073176168)
(0.0045474058 -0.0014781653 -0.0085522099)
(0.0045013014 -0.001600072 -0.0098391143)
(0.004329521 -0.0016975944 -0.011217038)
(0.0040610536 -0.001785212 -0.012659715)
(0.0036433557 -0.0018766395 -0.014159518)
(0.0030922912 -0.0019420533 -0.015707984)
(0.0024041914 -0.0020116912 -0.017339904)
(0.0015669535 -0.0020559265 -0.01900232)
(0.00057837492 -0.0021038745 -0.02071548)
(-0.00055615658 -0.0021352429 -0.022478299)
(-0.001839974 -0.0021612251 -0.024276329)
(-0.0032649613 -0.002183913 -0.026107593)
(-0.0048281289 -0.0021934705 -0.027977926)
(-0.0065141938 -0.0022058642 -0.029873111)
(-0.0083251386 -0.0022071232 -0.031797346)
(-0.01023563 -0.0022094641 -0.033742074)
(-0.01225038 -0.0022056661 -0.035713068)
(-0.014337475 -0.0022011576 -0.037694589)
(-0.016499605 -0.0021884504 -0.039699302)
(-0.018709485 -0.0021826204 -0.041705876)
(-0.020980396 -0.0021773442 -0.043731614)
(-0.023264602 -0.0021728537 -0.045754747)
(-0.025586909 -0.0021698122 -0.047795573)
(-0.027890007 -0.0021736834 -0.049826165)
(-0.0302212 -0.0021764528 -0.051868122)
(-0.032511803 -0.0021940266 -0.053897021)
(-0.034805659 -0.0022164677 -0.055938124)
(0.00015579683 0.0029151957 0.00040860729)
(0.00028505625 0.0056452684 0.00051379893)
(0.00065015241 0.0081785402 0.00067950856)
(0.00073240493 0.010647797 0.00079675721)
(0.0012008635 0.012831691 0.00086432802)
(0.0013238273 0.014794811 0.00086734352)
(0.00179488 0.016539694 0.00083872388)
(0.0019605771 0.017835087 0.00077628048)
(0.002440607 0.019011789 0.00054534022)
(0.0026964077 0.019659468 0.00033804824)
(0.0031165932 0.020090454 1.5205137e-05)
(0.0034295338 0.020059108 -0.00041009413)
(0.0038070857 0.019784191 -0.00093609352)
(0.0041082347 0.019097756 -0.0015065775)
(0.0044371994 0.018088444 -0.0022149135)
(0.0046763567 0.01681507 -0.0029806628)
(0.0049160534 0.015176926 -0.0038601821)
(0.005040179 0.013364609 -0.004794839)
(0.0051475035 0.011236625 -0.0058353706)
(0.0051222516 0.0089859758 -0.0069379091)
(0.0050455652 0.006521338 -0.0081303362)
(0.004835833 0.0039723039 -0.0093796644)
(0.0045326781 0.0013566766 -0.010732877)
(0.0041157164 -0.0013030776 -0.012113782)
(0.0035580778 -0.0039314276 -0.013576719)
(0.0028926417 -0.0065140259 -0.015097733)
(0.0020780382 -0.0089782858 -0.016679736)
(0.001133696 -0.011304369 -0.018294731)
(5.0318532e-05 -0.013449276 -0.019979077)
(-0.0011652 -0.015370056 -0.021696619)
(-0.0025146218 -0.017043073 -0.023465453)
(-0.0039909151 -0.018435617 -0.025272141)
(-0.0055897273 -0.019516751 -0.027126099)
(-0.0072985194 -0.020291771 -0.029003152)
(-0.0091174246 -0.020712172 -0.0309294)
(-0.011026584 -0.020807325 -0.032875204)
(-0.013021217 -0.020546989 -0.03485473)
(-0.01508923 -0.019950241 -0.036859744)
(-0.017215581 -0.019022157 -0.038879714)
(-0.019408364 -0.017793117 -0.040923744)
(-0.021611616 -0.016257104 -0.042979106)
(-0.023843417 -0.014454811 -0.045058304)
(-0.026079865 -0.012418401 -0.047132724)
(-0.028315318 -0.010176938 -0.049225018)
(-0.030548181 -0.0077761019 -0.051311166)
(-0.032735688 -0.0052547825 -0.053406721)
(-0.034922497 -0.0026614329 -0.055500345)
(0.00022012691 0.0039504908 0.00041454625)
(0.00040193592 0.0078060754 0.00046099346)
(0.00073666037 0.011247777 0.00083684031)
(0.0010400866 0.014836313 0.00077850762)
(0.0013846443 0.01773427 0.0010424277)
(0.0017507537 0.020697501 0.00093399872)
(0.0020996531 0.022964887 0.0010439466)
(0.0024929518 0.025041317 0.00087003753)
(0.0028690464 0.026551941 0.00075856964)
(0.0032413952 0.027638181 0.00053098278)
(0.0036148423 0.028228023 0.00021494894)
(0.0039651437 0.028358499 -0.00019504655)
(0.0043102779 0.027954867 -0.00065817661)
(0.0046050108 0.027134715 -0.0012405735)
(0.0048930993 0.02578069 -0.0018926161)
(0.0050987603 0.024066224 -0.0026460096)
(0.0052771008 0.021865943 -0.0034678561)
(0.0053681268 0.019375914 -0.0043897367)
(0.0053942197 0.016487452 -0.0053924619)
(0.0053249189 0.013398455 -0.0064647272)
(0.0051737411 0.010021855 -0.0076267866)
(0.0048971696 0.0065274091 -0.008853424)
(0.0045476936 0.0029137517 -0.010167206)
(0.0040308619 -0.00071496376 -0.011510281)
(0.0034365867 -0.0043705804 -0.012965229)
(0.0026912728 -0.0078901591 -0.014444593)
(0.0018239025 -0.011310324 -0.01599788)
(0.00082861295 -0.014507558 -0.017602668)
(-0.00029231301 -0.017463286 -0.01926562)
(-0.0015478509 -0.020101012 -0.020976355)
(-0.0029235453 -0.022391559 -0.022741167)
(-0.0044190733 -0.024289086 -0.024549362)
(-0.0060303966 -0.025762275 -0.026403623)
(-0.0077457225 -0.026786345 -0.028294252)
(-0.0095639691 -0.027337127 -0.030232171)
(-0.011460874 -0.027418272 -0.032191329)
(-0.013449568 -0.027008633 -0.03419642)
(-0.015488188 -0.026132294 -0.036217058)
(-0.017599406 -0.024787699 -0.038273697)
(-0.019737474 -0.023008162 -0.04034116)
(-0.021912248 -0.020819755 -0.042436869)
(-0.024102337 -0.018261553 -0.044531396)
(-0.026305749 -0.015365815 -0.046645607)
(-0.028499921 -0.012194628 -0.04875539)
(-0.030682756 -0.0087891274 -0.050876134)
(-0.032838069 -0.0052189266 -0.052983362)
(-0.034987722 -0.0015382631 -0.055093511)
(4.5918036e-05 0.0029419947 0.00035010215)
(0.00024312699 0.0055876969 0.00058051491)
(0.00054576208 0.0081606635 0.00076247407)
(0.00073988502 0.010521899 0.00093506804)
(0.0011647652 0.012698328 0.0010699492)
(0.0013661313 0.014631231 0.0011032609)
(0.0018124541 0.016298664 0.0011748302)
(0.0020781386 0.017639793 0.0010728386)
(0.0025008763 0.01872227 0.0010052856)
(0.002812386 0.019384874 0.00078731072)
(0.0032007459 0.019835126 0.00051219159)
(0.0035441008 0.019806756 0.00017362775)
(0.0038920066 0.019542771 -0.00029085559)
(0.0041929042 0.018899532 -0.00083340052)
(0.0045060942 0.017947928 -0.0014409638)
(0.0047203807 0.016709764 -0.002177772)
(0.0049476173 0.015190448 -0.0029653936)
(0.0050459742 0.013432095 -0.0038798739)
(0.0051351945 0.011466744 -0.0048391665)
(0.0050912811 0.0093091593 -0.0059139755)
(0.0049868373 0.0070315735 -0.0070461428)
(0.00477101 0.0046346631 -0.0082723185)
(0.004445183 0.0021924845 -0.0095635337)
(0.0039937486 -0.00026040431 -0.010934025)
(0.003437662 -0.0026961763 -0.012363253)
(0.0027324107 -0.0050535342 -0.013852342)
(0.0019092187 -0.0073064218 -0.015422805)
(0.00095336499 -0.0094075457 -0.017038039)
(-0.00014561562 -0.011325211 -0.018716241)
(-0.0013721825 -0.01301813 -0.020448109)
(-0.0027256463 -0.014468954 -0.022226528)
(-0.0042095699 -0.015639635 -0.024056008)
(-0.0058062488 -0.016517434 -0.025926917)
(-0.0075202038 -0.017082542 -0.02784025)
(-0.0093316445 -0.017320155 -0.02979208)
(-0.011237536 -0.017240751 -0.031771509)
(-0.013228458 -0.016814931 -0.03379214)
(-0.015284061 -0.016081478 -0.035828734)
(-0.017401599 -0.015024323 -0.037891368)
(-0.019560971 -0.013676841 -0.03997266)
(-0.021752923 -0.012053585 -0.042066684)
(-0.023971975 -0.010174999 -0.044174624)
(-0.026194683 -0.0080815181 -0.046281952)
(-0.028418145 -0.0057946913 -0.048399273)
(-0.030627414 -0.0033648024 -0.050503961)
(-0.032820368 -0.00081958018 -0.052610171)
(-0.034983527 0.0017935068 -0.054709081)
(0 -1.8022492e-19 0)
(0 1.0082198e-18 0)
(0 8.7187852e-19 0)
(0 7.6941751e-19 -2.6374636e-19)
(0 3.0396062e-19 0)
(0 -1.0675533e-20 0)
(0 1.4775832e-19 0)
(0 5.5370441e-20 0)
(0 -3.5977774e-19 0)
(0 -8.8696018e-19 0)
(0 -1.1018743e-18 -1.8296172e-19)
(0 -1.8064232e-19 0)
(0 2.2251865e-19 0)
(0 4.2982169e-19 0)
(0 3.4606369e-19 0)
(0 5.4509832e-19 0)
(0 9.955514e-19 0)
(0 9.9825893e-19 5.0282516e-19)
(0 8.6018685e-19 0)
(0 1.0015943e-18 0)
(0 3.3917879e-19 0)
(-5.8092003e-18 2.7366924e-19 0)
(2.4740687e-18 -6.195587e-19 0)
(-1.4390045e-19 -2.4898016e-19 0)
(4.4670625e-19 -4.3859332e-19 -3.3283365e-19)
(-8.3437469e-19 -6.1231216e-19 0)
(-2.1356008e-18 -8.7527421e-19 0)
(3.2638195e-19 -7.2272153e-19 0)
(0 5.3769777e-19 0)
(0 1.9226127e-19 0)
(0 -3.7306161e-19 0)
(0 3.6368721e-20 9.5175375e-19)
(0 4.102213e-19 0)
(0 5.9746795e-19 0)
(0 -1.6599653e-19 0)
(0 -4.3319341e-19 0)
(0 -3.5415527e-19 0)
(0 8.3303655e-20 0)
(0 4.1563956e-19 -9.4710417e-20)
(0 3.0752592e-19 0)
(0 -1.1145909e-19 0)
(0 2.8777968e-19 0)
(0 5.324898e-20 0)
(0 -3.139745e-19 0)
(0 4.5967106e-19 0)
(0 2.9272067e-20 3.3647391e-19)
(0 4.5540939e-19 0)
(0 7.2020319e-19 0)
(0 6.5226201e-19 0)
(-0.00012420415 3.315259e-05 0.00023287244)
(-0.00017207631 2.4829748e-05 0.00029124636)
(-0.00017290581 4.840037e-05 0.00027519713)
(-0.0002088298 5.0899216e-05 0.00027204799)
(-0.00023001048 7.6224427e-05 0.00022374286)
(-0.00024067986 9.4432188e-05 0.00017529687)
(-0.00023276878 0.00011735697 6.4141154e-05)
(-8.9559028e-05 6.1046409e-05 0.00059186367)
(-9.8387136e-05 0.00012036231 0.0005138167)
(-0.00015697394 0.00017271894 0.00053104309)
(-0.00022320915 0.00025123803 0.00046944541)
(-0.00026376028 0.00031048651 0.00045585858)
(-0.00032834569 0.0003643512 0.00038201749)
(-0.00037532277 0.00041093006 0.00030631688)
(5.2808328e-05 2.4442267e-05 0.00084646466)
(-5.4207732e-05 -1.2390432e-05 0.00084722324)
(-0.00013567522 6.6872776e-05 0.00076100492)
(-0.00022732775 0.00015628045 0.00078594101)
(-0.00032310125 0.00026530104 0.00065462746)
(-0.0004126143 0.00030563931 0.00060879869)
(-0.00047495478 0.00046348638 0.00051681303)
(0.00011232972 0.0001429989 0.00096192284)
(6.0141366e-05 0.00023914256 0.00097711706)
(-8.7652482e-05 0.00034772152 0.00097649046)
(-0.00019129443 0.00046235633 0.00092484714)
(-0.00033417819 0.00056222403 0.00087050523)
(-0.00043033074 0.0007159693 0.00083204296)
(-0.00060573254 0.00071645352 0.00074326469)
(0.0003618283 -3.317681e-05 0.0012374204)
(0.00018631722 6.2123827e-05 0.0012396111)
(4.0093821e-05 0.00013762603 0.0011804405)
(-0.00011644997 0.00029801803 0.0011409236)
(-0.0002808951 0.00051301112 0.0010652172)
(-0.00045533679 0.00060113451 0.00098751491)
(-0.00059861546 0.00077589591 0.0008927839)
(0.00047792114 0.00013366804 0.0012543185)
(0.00032511033 0.00027286768 0.0013190555)
(0.00010279827 0.00045800031 0.0012556217)
(-4.1984665e-05 0.00065541992 0.0012917321)
(-0.00028171951 0.0008132112 0.0011695779)
(-0.00041259965 0.00097395358 0.0011324143)
(-0.00066550388 0.0011096885 0.0010455137)
(0.00075072857 -0.00012062768 0.0014052301)
(0.00053245512 2.8385102e-05 0.0013936514)
(0.00035588341 0.00026626228 0.0013948478)
(0.00010423356 0.00044394632 0.0013227082)
(-9.0437828e-05 0.00074826191 0.0012675996)
(-0.00036193084 0.00098120069 0.0011932184)
(-0.00058546134 0.0012192327 0.0010570552)
(0.00094771501 -1.2550296e-05 0.0013343428)
(0.00070350034 0.00027855657 0.001425579)
(0.0003905192 0.00056396212 0.0013330115)
(0.00020945644 0.00085534477 0.0013212917)
(-7.4249288e-05 0.0011006478 0.0012766469)
(-0.00031184388 0.0013774591 0.0011563177)
(-0.00055560171 0.0015660345 0.0010669908)
(0.0012205845 -0.00020251617 0.0013325927)
(0.000953014 4.3103568e-05 0.0013044234)
(0.0007319505 0.00031606735 0.0012890099)
(0.00043209863 0.0007086972 0.0012785801)
(0.00017670764 0.0010995558 0.0011640994)
(-0.00015370332 0.0014479489 0.0010942587)
(-0.00043683447 0.0018458014 0.0009582367)
(0.0015037237 -0.00020587063 0.0011345526)
(0.0011891892 0.0002511895 0.0011867544)
(0.00084535904 0.00064405691 0.0011792818)
(0.00056166988 0.0010836798 0.0010615335)
(0.00021922074 0.0014808615 0.0010457536)
(-6.1363277e-05 0.0018578191 0.00089161545)
(-0.00038055589 0.0021499087 0.00076790698)
(0.001781541 -0.00031587417 0.00091929325)
(0.0014593293 8.1052166e-05 0.00095362978)
(0.0011720202 0.00049727995 0.00082796674)
(0.00084444573 0.00094085116 0.0008565622)
(0.00055925022 0.0014431442 0.0007412284)
(0.00020403028 0.0018892762 0.00061000643)
(-0.00011250389 0.002462538 0.00050628486)
(0.0021171121 -0.00037516697 0.00061595531)
(0.0017409784 0.00018343806 0.00061467943)
(0.0013530652 0.00077619556 0.00058582868)
(0.00099645144 0.0014132368 0.00053474764)
(0.00061468635 0.0019591975 0.00036428629)
(0.00027328335 0.0025191198 0.00029222216)
(-8.1170284e-05 0.0029879803 8.8992386e-05)
(0.0024029655 -0.00040313374 0.00017971055)
(0.0020466766 0.00016675827 0.00015912646)
(0.001688266 0.00074996204 0.00011669005)
(0.00133174 0.0012848779 1.4316489e-05)
(0.00096766375 0.0019177493 -5.0538199e-05)
(0.00063043434 0.0024959715 -0.00021856294)
(0.00024506085 0.0031771853 -0.00035646002)
(0.0027126388 -0.00042359952 -0.00031138416)
(0.0023070662 0.00028141429 -0.00031504608)
(0.0018816451 0.00099589192 -0.00039626874)
(0.0014591525 0.0017834308 -0.00044672314)
(0.0010953254 0.0024971641 -0.00064640744)
(0.00067790049 0.0032421897 -0.00076067328)
(0.00032318539 0.0038745298 -0.00099444805)
(0.0030137355 -0.0004081395 -0.00089748272)
(0.0026041718 0.00032537208 -0.00098845617)
(0.0021585276 0.0011042305 -0.0010187779)
(0.0018117435 0.0017956808 -0.0011861321)
(0.0013692504 0.002580311 -0.0012907231)
(0.0010405852 0.0032838888 -0.0014650822)