/*--------------------------------*- C++ -*----------------------------------*\
  =========                 |
  \\      /  F ield         | OpenFOAM: The Open Source CFD Toolbox
   \\    /   O peration     | Website:  https://openfoam.org
    \\  /    A nd           | Version:  6
     \\/     M anipulation  |
\*---------------------------------------------------------------------------*/
FoamFile
{
    version     2.0;
    format      ascii;
    class       pointVectorField;
    location    "1.16";
    object      u;
}
// * * * * * * * * * * * * * * * * * * * * * * * * * * * * * * * * * * * * * //

dimensions      [0 1 0 0 0 0 0];

internalField   nonuniform List<vector> 
625
(
(0 2.2847402e-19 0)
(0 2.0048441e-19 0)
(-1.2885322 -0.3255604 0.020278183)
(-1.3386299 -0.013744398 0.043420232)
(0 2.9741594e-19 0)
(0 1.5677942e-18 0)
(-1.3605567 -0.021743454 0.043454465)
(-1.310434 -0.3334654 0.019932533)
(0 -3.4810996e-20 0)
(1.5238127e-19 -3.5395472e-19 0)
(0 7.2053385e-19 0)
(-1.301108 -0.24747859 0.02617051)
(-1.3134697 -0.16952478 0.03195487)
(-1.3259739 -0.091767486 0.037671224)
(-0.00032163722 -0.010768808 -0.011601505)
(-0.0076762736 -0.021790011 -0.011711623)
(-0.0225181 -0.033850148 -0.010770859)
(-0.044141584 -0.046424744 -0.0086579676)
(-0.071078019 -0.058538138 -0.00658529)
(-0.10422457 -0.071883659 -0.0038766487)
(-0.14230694 -0.084868032 -0.0015676446)
(-0.18548459 -0.098635294 0.0010765624)
(-0.23352336 -0.11263372 0.0033519404)
(-0.28571543 -0.12691482 0.005898061)
(-0.34215671 -0.14165317 0.0079828461)
(-0.40224493 -0.15653105 0.01000204)
(-0.46586172 -0.17160306 0.011778801)
(-0.5324513 -0.18670821 0.013359623)
(-0.60181403 -0.20181091 0.014728109)
(-0.67345975 -0.21676866 0.01588945)
(-0.74709616 -0.23154332 0.016910425)
(-0.82229922 -0.24601766 0.01770745)
(-0.89878985 -0.26016617 0.018455844)
(-0.97601855 -0.27396114 0.019004295)
(-1.0540491 -0.28730845 0.019463308)
(-1.1320866 -0.30043363 0.019844056)
(-1.2104095 -0.31305433 0.02002862)
(3.0401421e-05 0.011767545 0.015501401)
(-0.011850069 0.02590659 0.014323534)
(-0.02844808 0.039735589 0.017380835)
(-0.051336322 0.0523492 0.019312556)
(-0.080846649 0.063127072 0.021677852)
(-0.11683252 0.073155104 0.024249855)
(-0.15758766 0.080814388 0.027070825)
(-0.20420906 0.087009963 0.029589771)
(-0.25554623 0.09154902 0.032309271)
(-0.31127045 0.093994904 0.034610651)
(-0.37110689 0.094940694 0.036817595)
(-0.4346808 0.094047691 0.038650252)
(-0.50140423 0.091470172 0.040252975)
(-0.57101286 0.087281258 0.041472778)
(-0.6430134 0.081599448 0.042420628)
(-0.71701036 0.074502731 0.04305931)
(-0.7926064 0.0661781 0.043452823)
(-0.86941035 0.05671806 0.043656755)
(-0.94708816 0.046378911 0.043671346)
(-1.0252995 0.035170269 0.043635063)
(-1.1037856 0.02345465 0.043517514)
(-1.1822605 0.011289989 0.043419208)
(-1.2606019 -0.001227486 0.043432867)
(0 2.0905393e-19 0)
(-2.7245508e-18 -5.8623159e-19 0)
(0 1.4744639e-18 0)
(-0.0023050297 0.0058578358 -0.0092630188)
(-0.012906249 0.025676759 -0.0095912279)
(-0.030423228 0.032309676 -0.0053687447)
(-0.054751017 0.044997829 -0.0021419034)
(-0.086156579 0.054988182 0.00087863225)
(-0.12276149 0.063219259 0.0052260611)
(-0.16519159 0.070362043 0.0085753854)
(-0.2130772 0.076454178 0.012577256)
(-0.26582274 0.08056046 0.016209799)
(-0.32289671 0.083208998 0.019784811)
(-0.38413459 0.08427018 0.023107435)
(-0.44889102 0.08357444 0.026265421)
(-0.51694996 0.081442508 0.029071882)
(-0.58764222 0.077540747 0.031690084)
(-0.66076041 0.072300221 0.033953809)
(-0.73567365 0.065526734 0.035965495)
(-0.81211778 0.057533578 0.037680394)
(-0.88961586 0.048349196 0.039124456)
(-0.96785686 0.038176117 0.040331393)
(-1.0464978 0.027153545 0.041295092)
(-1.1252883 0.015501182 0.042058877)
(-1.2039754 0.0033221593 0.042636211)
(-1.2823974 -0.0091714161 0.043030088)
(-1.3478112 -0.099815994 0.037535507)
(-1.3352533 -0.17739912 0.031617323)
(-1.3230267 -0.25530993 0.025704768)
(-1.2322881 -0.32094632 0.019881231)
(-1.1537708 -0.30827562 0.019969703)
(-1.0752927 -0.29526394 0.020233918)
(-0.99696109 -0.28193915 0.020624253)
(-0.91905526 -0.26827586 0.021097923)
(-0.8419495 -0.25429373 0.021573962)
(-0.76593712 -0.24003448 0.022026995)
(-0.69141856 -0.22557116 0.022395854)
(-0.61876129 -0.21093157 0.022627428)
(-0.54836484 -0.19624825 0.022694037)
(-0.48062987 -0.18148656 0.022525637)
(-0.41591633 -0.16687365 0.022183927)
(-0.3546196 -0.1523244 0.021568193)
(-0.29700214 -0.13783682 0.020701439)
(-0.24417598 -0.12346742 0.019565724)
(-0.19475883 -0.10956743 0.018540265)
(-0.15080929 -0.095691349 0.017188878)
(-0.11154428 -0.081666233 0.015859762)
(-0.078315429 -0.067956351 0.014695835)
(-0.049923816 -0.05393621 0.013411852)
(-0.027355981 -0.040651269 0.012990919)
(-0.012393939 -0.025355287 0.011858032)
(-0.0067003053 -0.012956231 0.0082551341)
(0 -3.7256938e-19 0)
(0 -3.8769447e-19 -7.996586e-19)
(0 -1.1427662e-18 0)
(0 6.5263492e-19 0)
(0 -7.2212801e-20 2.3025296e-19)
(0 4.9708456e-19 0)
(-1.3441466 -0.015579546 0.043491715)
(-1.349643 -0.017608617 0.04339937)
(-1.3550586 -0.019548454 0.043438248)
(-1.2939952 -0.32762701 0.020194222)
(-1.2995053 -0.32964427 0.020157829)
(-1.3049531 -0.33161017 0.020012502)
(-0.0010190961 -0.011567882 -0.0065799878)
(-0.013207602 -0.021930204 -0.0045680524)
(-0.031514148 -0.032418084 -0.0038277173)
(-0.055874353 -0.042477362 -0.0018277643)
(-0.084625339 -0.051684916 0.00026296749)
(-0.11871216 -0.060301781 0.0025656561)
(-0.15669878 -0.067364142 0.0051087103)
(-0.19899435 -0.073889 0.0076591986)
(-0.24530789 -0.079177706 0.010242813)
(-0.29574727 -0.084034605 0.012702619)
(-0.3499954 -0.088485594 0.015014945)
(-0.40796656 -0.092944596 0.017166094)
(-0.46953267 -0.097884737 0.019071912)
(-0.53447367 -0.10369851 0.020741627)
(-0.60257346 -0.11074972 0.022130603)
(-0.67349081 -0.1193583 0.023274606)
(-0.74697931 -0.12975435 0.02416046)
(-0.82258334 -0.14203377 0.024821476)
(-0.90003323 -0.15623424 0.02530618)
(-0.97884871 -0.17216275 0.025587183)
(-1.058792 -0.18963283 0.025825307)
(-1.1392429 -0.20827843 0.025906209)
(-1.2202618 -0.22768339 0.025999421)
(0.005705742 0.00044867372 0.00087140678)
(-0.0042444429 0.0021812577 0.0024434242)
(-0.019464303 0.0027287844 0.0039154169)
(-0.041843232 0.0028962874 0.0056672227)
(-0.070656417 0.0025330277 0.0079939777)
(-0.10508457 0.00085307464 0.010477815)
(-0.14505878 -0.001600211 0.013056729)
(-0.19031788 -0.0053112144 0.015597888)
(-0.24034785 -0.009866536 0.018008877)
(-0.29480899 -0.01570758 0.020381029)
(-0.35333342 -0.022486838 0.022494277)
(-0.4155568 -0.030369823 0.02436993)
(-0.48111461 -0.039164703 0.025986735)
(-0.54959393 -0.048854594 0.027332856)
(-0.62058602 -0.05929744 0.028436912)
(-0.69371583 -0.070418679 0.029302089)
(-0.76859893 -0.082073049 0.029969611)
(-0.84482294 -0.094148391 0.030469019)
(-0.92213247 -0.10654432 0.030835632)
(-1.0000436 -0.11907578 0.031141075)
(-1.0784553 -0.13176032 0.031351109)
(-1.1569159 -0.14441327 0.031547602)
(-1.2355268 -0.15706002 0.031759128)
(0.0095304453 0.012900327 0.0070188128)
(0.0021897173 0.025867972 0.0089483586)
(-0.0098601036 0.038331381 0.010907581)
(-0.031175635 0.049034348 0.01312065)
(-0.059189593 0.057490155 0.01572113)
(-0.094279985 0.062320274 0.018244838)
(-0.13613831 0.064610646 0.020822032)
(-0.18378883 0.063333416 0.023248814)
(-0.23699793 0.059119704 0.025670612)
(-0.29512657 0.052001824 0.027792884)
(-0.35762251 0.042502222 0.029688494)
(-0.42376416 0.031039744 0.031362354)
(-0.49307952 0.018244109 0.032772379)
(-0.56487976 0.004622129 0.033961904)
(-0.63870185 -0.0092032402 0.034907004)
(-0.71400109 -0.022735546 0.035651462)
(-0.79029944 -0.035510827 0.036210527)
(-0.86723607 -0.047201048 0.036603902)
(-0.94436128 -0.057620037 0.036917817)
(-1.0215214 -0.06658629 0.037052438)
(-1.0983536 -0.074347069 0.037265457)
(-1.1747854 -0.080826408 0.037356207)
(-1.2507337 -0.086552949 0.037532341)
(0 -2.3402134e-19 0)
(0 3.8950259e-19 8.1699796e-19)
(0 8.4696886e-19 0)
(-4.0493595e-19 8.0853994e-21 0)
(1.6913249e-19 -2.5060266e-19 -1.2481749e-20)
(-1.0658734e-18 -9.5857913e-19 0)
(0 3.6229149e-19 0)
(0 9.7366743e-19 -2.5895268e-20)
(0 1.0702499e-18 0)
(-0.0052370391 0.0049156922 0.0065713298)
(-0.0064002717 0.0060870221 0.0014333167)
(-0.0054108864 0.0042364907 -0.0030809355)
(-0.018348227 0.02675266 0.0082020138)
(-0.018302521 0.025820003 0.002695036)
(-0.017518253 0.024126944 -0.0038549484)
(-0.032687017 0.036704525 0.011015089)
(-0.03437531 0.034576162 0.0053950804)
(-0.034530046 0.035389993 -0.00075436092)
(-0.056625273 0.049827193 0.013151684)
(-0.05874237 0.04891258 0.0078747556)
(-0.058139977 0.046645419 0.0024453839)
(-0.086440114 0.060643211 0.016057371)
(-0.088264127 0.05818167 0.01124371)
(-0.08895429 0.057196464 0.0056627859)
(-0.12176387 0.069806335 0.0191088)
(-0.12453753 0.067687847 0.014041456)
(-0.12502732 0.065616792 0.0093711696)
(-0.16323417 0.07750639 0.021986849)
(-0.16599667 0.075242712 0.017938258)
(-0.16730622 0.073234407 0.012642725)
(-0.20987057 0.083748475 0.025099242)
(-0.21274798 0.080809819 0.020949797)
(-0.21434022 0.078911295 0.016451406)
(-0.26115479 0.087906894 0.027931372)
(-0.26449622 0.085475775 0.024238248)
(-0.2664673 0.083297477 0.019844757)
(-0.3170353 0.090688308 0.030722149)
(-0.32063386 0.088001084 0.027210087)
(-0.32307509 0.085795051 0.023196231)
(-0.37704108 0.091658777 0.03315828)
(-0.38093374 0.089004788 0.029974984)
(-0.38366124 0.086829071 0.026260918)
(-0.44060853 0.090857831 0.035344432)
(-0.44470279 0.088238181 0.032499346)
(-0.44787967 0.086084976 0.029108309)
(-0.50745334 0.088498152 0.037257494)
(-0.5118556 0.08596009 0.034683458)
(-0.51533836 0.083830312 0.031640217)
(-0.57708811 0.084494573 0.038829962)
(-0.58165558 0.081961941 0.036573046)
(-0.58548965 0.079927616 0.033912233)
(-0.64910468 0.079008249 0.040116033)
(-0.65390105 0.076592458 0.038158748)
(-0.65802402 0.074576955 0.035879686)
(-0.7230862 0.072118521 0.041106389)
(-0.7280367 0.06972777 0.039460384)
(-0.73244536 0.067799439 0.037548666)
(-0.79863628 0.063946722 0.041854735)
(-0.80373377 0.061666971 0.040490962)
(-0.808383 0.059742845 0.03896634)
(-0.87536717 0.054669201 0.042365679)
(-0.88059164 0.052409303 0.041305973)
(-0.88545857 0.050541298 0.040109565)
(-0.95296273 0.044387687 0.042732025)
(-0.95826387 0.042225766 0.041913793)
(-0.9633071 0.040351751 0.041048752)
(-1.031054 0.033315478 0.042931272)
(-1.0364249 0.031180065 0.042367681)
(-1.0416298 0.029303691 0.041784114)
(-1.1094211 0.021607093 0.043075095)
(-1.1148577 0.01953205 0.042730336)
(-1.1201643 0.01763238 0.042345915)
(-1.1878224 0.0094354175 0.043197659)
(-1.1932782 0.007381746 0.042988482)
(-1.1986846 0.0054692061 0.042778454)
(-1.2661237 -0.0030952045 0.043318404)
(-1.2715678 -0.0050910075 0.043220649)
(-1.2770278 -0.0070907982 0.043106283)
(-1.3065894 -0.24951969 0.026039324)
(-1.3120992 -0.25150327 0.025946782)
(-1.3175378 -0.25344968 0.025812221)
(-1.31895 -0.17151982 0.031844063)
(-1.3244346 -0.17350679 0.031797583)
(-1.3298154 -0.17548665 0.031716724)
(-1.3314789 -0.093682923 0.037653056)
(-1.3369964 -0.095682619 0.037587559)
(-1.3423946 -0.097675868 0.037571721)
(-0.0068176648 -0.0090204263 -0.0060930232)
(-0.0079735033 -0.010968053 -0.0023987313)
(-0.0095821514 -0.011103301 0.0022812834)
(-0.014364499 -0.022016317 -0.0058481165)
(-0.016276661 -0.024172213 -0.00017720035)
(-0.01630319 -0.02438915 0.0062268329)
(-0.029358962 -0.036567279 -0.0050485873)
(-0.031243207 -0.037737032 3.8371433e-06)
(-0.032067179 -0.039837707 0.0074365393)
(-0.050527584 -0.048196933 -0.003028712)
(-0.052751065 -0.050970231 0.0018755404)
(-0.05333353 -0.052616591 0.0083429941)
(-0.077399482 -0.062125442 -0.0014498379)
(-0.080154673 -0.06459144 0.0038741109)
(-0.080836425 -0.066837851 0.0096139251)
(-0.11057483 -0.075040158 0.0011626735)
(-0.1128578 -0.077678749 0.0052830816)
(-0.11424083 -0.080352558 0.011420442)
(-0.148507 -0.08831661 0.0032053483)
(-0.15133897 -0.091452079 0.0075603716)
(-0.152703 -0.094128927 0.012903933)
(-0.1917879 -0.10217344 0.0055518643)
(-0.19452359 -0.10534022 0.0094833476)
(-0.19625334 -0.10808037 0.014697681)
(-0.23925664 -0.11633049 0.0074293662)
(-0.24288627 -0.1193402 0.011684859)
(-0.24454772 -0.12219575 0.015844717)
(-0.29193975 -0.13066042 0.0098053258)
(-0.29510743 -0.13359654 0.012837032)
(-0.29757726 -0.13651397 0.017563433)
(-0.34821085 -0.14513487 0.011521898)
(-0.35180892 -0.14815605 0.014819505)
(-0.35428368 -0.15097239 0.018631473)
(-0.40836375 -0.16001376 0.013269105)
(-0.4120858 -0.16284409 0.01607085)
(-0.41502702 -0.16567411 0.019592374)
(-0.47187335 -0.17488934 0.014678209)
(-0.47590773 -0.17766721 0.017253951)
(-0.47910651 -0.18035973 0.020270529)
(-0.53847638 -0.18988191 0.015935783)
(-0.5427297 -0.19251184 0.01812763)
(-0.54625236 -0.19510468 0.020756501)
(-0.6077612 -0.20480917 0.016943963)
(-0.61224905 -0.20730117 0.018834663)
(-0.61606061 -0.20981499 0.021014276)
(-0.67935393 -0.2196092 0.017770707)
(-0.68407038 -0.22200078 0.019306037)
(-0.6881599 -0.22440618 0.021089393)
(-0.75291203 -0.23423732 0.018409113)
(-0.75781833 -0.23648581 0.019640849)
(-0.76216603 -0.23881844 0.021017559)
(-0.82804183 -0.24854528 0.018900541)
(-0.83311533 -0.25073704 0.019810117)
(-0.83770036 -0.25298034 0.020835899)
(-0.90438058 -0.26259372 0.019262213)
(-0.90961398 -0.264668 0.019905471)
(-0.91441582 -0.26686471 0.020604715)
(-0.98161121 -0.27620237 0.019470632)
(-0.98698299 -0.27829155 0.019947784)
(-0.99195681 -0.28040393 0.020335361)
(-1.0594913 -0.28950229 0.019723995)
(-1.064935 -0.29150241 0.019943053)
(-1.0700477 -0.29359301 0.020123707)
(-1.1375674 -0.30247629 0.019914187)
(-1.1429888 -0.30448531 0.019957713)
(-1.1483056 -0.30651456 0.019966517)
(-1.2158981 -0.31511045 0.019987143)
(-1.2213677 -0.31710923 0.019959393)
(-1.2267914 -0.31910171 0.019939662)
(-0.0040074941 -0.010020175 0.0059274807)
(-0.016959062 -0.028290049 0.0075492784)
(-0.035052904 -0.03742853 0.0080246035)
(-0.061094032 -0.049924075 0.0097418199)
(-0.090717232 -0.060531185 0.011549355)
(-0.12565665 -0.069529628 0.013195102)
(-0.16476239 -0.077628407 0.015009532)
(-0.20811032 -0.084198193 0.016911188)
(-0.25566853 -0.089813978 0.0185829)
(-0.30715053 -0.094419569 0.020178506)
(-0.3625003 -0.098723502 0.021703082)
(-0.42172261 -0.10278535 0.022841089)
(-0.48444533 -0.10736127 0.023872792)
(-0.55052708 -0.112764 0.024663257)
(-0.61968968 -0.1194141 0.02524878)
(-0.6916235 -0.12766633 0.025646963)
(-0.76597508 -0.13776781 0.025891287)
(-0.84240053 -0.14983388 0.026003705)
(-0.92049151 -0.16386301 0.026017052)
(-0.99991208 -0.17973972 0.025966372)
(-1.0802216 -0.19723094 0.025883781)
(-1.1610437 -0.21590603 0.025835139)
(-1.242184 -0.23549197 0.025729708)
(0.0039622615 -0.0020281841 0.00025857816)
(-0.0060156058 -0.00392728 0.0024100017)
(-0.023175647 -0.0030156632 0.0031641198)
(-0.046885152 -0.0054991794 0.0058052145)
(-0.076075355 -0.0070902162 0.0080275739)
(-0.11199991 -0.0091500058 0.010102198)
(-0.1528727 -0.012663626 0.012785022)
(-0.19925719 -0.016582543 0.015277197)
(-0.2505645 -0.021238681 0.017585509)
(-0.30614108 -0.02711231 0.020027531)
(-0.36602379 -0.033634617 0.022084679)
(-0.42956864 -0.041197225 0.024038109)
(-0.49639771 -0.049561226 0.02573296)
(-0.56609519 -0.058875818 0.027171274)
(-0.63823183 -0.068852021 0.028337481)
(-0.71237588 -0.079600379 0.029279777)
(-0.7881433 -0.090896357 0.02998159)
(-0.86513149 -0.10266967 0.030503161)
(-0.94299813 -0.11483343 0.030846181)
(-1.0214048 -0.12722113 0.031097375)
(-1.1000825 -0.13977164 0.03125219)
(-1.1787041 -0.15236986 0.031358873)
(-1.2574347 -0.16502087 0.031475339)
(0.0092236979 0.010164979 -0.0040966348)
(-0.00014787092 0.019358488 -0.002842913)
(-0.013762293 0.032808625 -0.0022671197)
(-0.03546359 0.039292426 0.0017250845)
(-0.064827912 0.047795771 0.0037714271)
(-0.10144635 0.051504151 0.0072390906)
(-0.14402439 0.053097485 0.010564976)
(-0.19324578 0.051649602 0.013590552)
(-0.2475602 0.047227933 0.01677628)
(-0.30698505 0.040224692 0.01967508)
(-0.37063943 0.030955801 0.022316778)
(-0.43794179 0.019807802 0.024786507)
(-0.50837652 0.0073705144 0.026897738)
(-0.58126008 -0.0058178622 0.028783658)
(-0.65608865 -0.019225063 0.030393878)
(-0.73231811 -0.032324868 0.031768718)
(-0.80947534 -0.044713172 0.032932097)
(-0.88712743 -0.056051396 0.033908845)
(-0.96492632 -0.066151665 0.034731)
(-1.0425434 -0.074917714 0.035451874)
(-1.1197617 -0.082468349 0.036020928)
(-1.1964433 -0.088859764 0.036617755)
(-1.2725197 -0.094555272 0.037007917)
(-0.0051698576 -0.0088343376 -0.0032654005)
(-0.0058484513 -0.0094213838 -0.0011632422)
(-0.0072409602 -0.0094921231 0.001744424)
(-0.018795486 -0.023337887 -0.0019708621)
(-0.021107862 -0.024463642 0.00080688502)
(-0.020573697 -0.025054903 0.0050032981)
(-0.037668723 -0.033885771 -0.0010239473)
(-0.038807331 -0.035257083 0.0021302013)
(-0.039440599 -0.037031521 0.0051809826)
(-0.06152159 -0.045068747 0.0009361172)
(-0.0641515 -0.047308943 0.0039435264)
(-0.064417183 -0.048362755 0.0070549711)
(-0.090870661 -0.054783762 0.0031563386)
(-0.093087496 -0.056899025 0.0056562235)
(-0.093928158 -0.058894219 0.0089760572)
(-0.12456203 -0.063342477 0.0052721865)
(-0.12723534 -0.066217671 0.0079259361)
(-0.12812698 -0.068169727 0.010822905)
(-0.16264781 -0.070968126 0.0077228031)
(-0.16543679 -0.073836972 0.010237883)
(-0.16676684 -0.075930703 0.012830735)
(-0.20486744 -0.077523738 0.01021977)
(-0.20798448 -0.080316453 0.012401665)
(-0.2095698 -0.082642609 0.014904084)
(-0.25140429 -0.082761137 0.012607053)
(-0.25458995 -0.085838786 0.014613826)
(-0.25651853 -0.088236273 0.016939458)
(-0.30173019 -0.087620261 0.014898056)
(-0.30509915 -0.090728549 0.016768154)
(-0.30747746 -0.092854777 0.018683484)
(-0.35592596 -0.092015445 0.017014199)
(-0.35959845 -0.09485407 0.018716781)
(-0.36220929 -0.097250289 0.020335769)
(-0.41386564 -0.096330761 0.018984019)
(-0.41776187 -0.099211626 0.020363766)
(-0.42078901 -0.1014725 0.021807603)
(-0.47542223 -0.10116029 0.020639863)
(-0.47955962 -0.10384961 0.021856589)
(-0.48290627 -0.10607187 0.02296408)
(-0.54032533 -0.10678448 0.022108258)
(-0.54469972 -0.10936765 0.023038314)
(-0.54838189 -0.11150941 0.023955953)
(-0.60838763 -0.11365449 0.023250923)
(-0.61297098 -0.11610338 0.023988256)
(-0.61695082 -0.11820898 0.0246818)
(-0.67926573 -0.12208104 0.024181657)
(-0.68406066 -0.12442103 0.024708424)
(-0.68832269 -0.12644273 0.025226898)
(-0.75268897 -0.13230262 0.02485277)
(-0.75765091 -0.13452307 0.025211907)
(-0.7621713 -0.13652495 0.025570098)
(-0.82825319 -0.14441629 0.025336986)
(-0.83339074 -0.14657688 0.025544871)
(-0.83811452 -0.14852574 0.025791388)
(-0.90564316 -0.15850168 0.02563812)
(-0.91087751 -0.16053427 0.025747518)
(-0.91584196 -0.16249424 0.02587187)
(-0.98440409 -0.17425352 0.025823674)
(-0.98984953 -0.17633537 0.025827369)
(-0.99487731 -0.17825206 0.025903967)
(-1.0642795 -0.19165926 0.025935116)
(-1.0697539 -0.19375369 0.025865049)
(-1.0749578 -0.19563876 0.025871615)
(-1.1448031 -0.21024625 0.02592547)
(-1.1502197 -0.21227575 0.025876334)
(-1.155589 -0.2141796 0.02585904)
(-1.2257525 -0.22971471 0.025941504)
(-1.2312353 -0.23169348 0.025897315)
(-1.2366829 -0.23364542 0.025806235)
(0.0022780323 -0.00015834167 0.00065303023)
(0.00093563658 -0.0010303925 0.00039845823)
(-8.3600672e-05 -0.0012208445 0.00033639224)
(-0.0090167818 0.00064651279 0.0026937856)
(-0.010410934 -0.0010435541 0.0023972358)
(-0.0095376791 -0.0017690306 0.0026595422)
(-0.024839815 0.00042600229 0.0040195461)
(-0.026470707 -0.00094415053 0.0032413815)
(-0.026658904 -0.002437338 0.0036710318)
(-0.047280288 0.00070687125 0.0062199063)
(-0.049958722 -0.0015645952 0.0056459745)
(-0.04978586 -0.0027311717 0.0059465403)
(-0.076105135 -0.0006973555 0.0083228651)
(-0.078565316 -0.0029158611 0.0075419739)
(-0.078771863 -0.0051214812 0.0083668476)
(-0.11057712 -0.0023713492 0.010909754)
(-0.11339517 -0.0049496568 0.01046799)
(-0.1139645 -0.0070116311 0.010675988)
(-0.15061953 -0.0052451556 0.01354228)
(-0.15362306 -0.0078341505 0.012724159)
(-0.15456358 -0.010059673 0.013182086)
(-0.19590425 -0.0088291574 0.016027762)
(-0.19908045 -0.011718622 0.015384533)
(-0.20030022 -0.014159304 0.015830608)
(-0.24584706 -0.013634065 0.018443022)
(-0.24941943 -0.016443596 0.017908409)
(-0.25102741 -0.018779826 0.018111863)
(-0.30041451 -0.019424903 0.020807195)
(-0.30414939 -0.022172323 0.020183132)
(-0.30608613 -0.024657374 0.020407526)
(-0.35901423 -0.026087514 0.022893365)
(-0.36304422 -0.028850376 0.022218077)
(-0.36534525 -0.031207068 0.022558967)
(-0.42132836 -0.033826335 0.024721327)
(-0.42557795 -0.036541986 0.024124648)
(-0.42824302 -0.038858385 0.024395908)
(-0.48692941 -0.042472141 0.026310386)
(-0.49146851 -0.045042895 0.025739409)
(-0.49446484 -0.047285321 0.026041747)
(-0.55546044 -0.051950872 0.027612835)
(-0.56020252 -0.054453558 0.027085238)
(-0.56353207 -0.056657286 0.027407686)
(-0.62648266 -0.062224282 0.02867394)
(-0.63142708 -0.064595231 0.02822583)
(-0.63509759 -0.066729812 0.028539815)
(-0.69962249 -0.073151512 0.029500883)
(-0.70472622 -0.075427844 0.029099791)
(-0.70871255 -0.077511512 0.02941803)
(-0.77449294 -0.084633074 0.030122996)
(-0.77971731 -0.086812201 0.02980797)
(-0.78400943 -0.088853992 0.030102581)
(-0.85068581 -0.096569847 0.03058333)
(-0.85601949 -0.098644613 0.030323139)
(-0.86059088 -0.10067883 0.030593638)
(-0.92794581 -0.10880427 0.030911202)
(-0.93332757 -0.11086168 0.030727622)
(-0.93814582 -0.11282715 0.030924085)
(-1.0057867 -0.12132288 0.031165624)
(-1.0112568 -0.1231866 0.031001846)
(-1.0162651 -0.12525637 0.031179667)
(-1.0842445 -0.1338774 0.031309278)
(-1.0894275 -0.13579117 0.031291013)
(-1.094818 -0.13780365 0.031310929)
(-1.162515 -0.14644638 0.031512769)
(-1.1679737 -0.14843987 0.031435377)
(-1.1733086 -0.15039773 0.031441177)
(-1.241044 -0.15906651 0.031696657)
(-1.2465248 -0.16104307 0.031609901)
(-1.2519436 -0.16304413 0.03155961)
(0.0055298474 0.010195365 0.0030563934)
(0.0055475795 0.0095290425 0.00067137797)
(0.0056348742 0.0090073775 -0.0017712339)
(-0.0036888903 0.023565892 0.0056136524)
(-0.0050231336 0.021178586 0.0022367396)
(-0.0037733957 0.020979845 -0.00041942199)
(-0.01564742 0.036002831 0.0074026636)
(-0.017199341 0.035460339 0.0042064019)
(-0.017211364 0.033909659 0.0010059356)
(-0.037306312 0.046568342 0.009891492)
(-0.038863344 0.043792906 0.0067556398)
(-0.039121217 0.042288023 0.0041119671)
(-0.065071885 0.053979885 0.012495806)
(-0.067191826 0.052155524 0.0095766325)
(-0.067674679 0.050025855 0.0069011306)
(-0.10039885 0.059117981 0.015394768)
(-0.10279748 0.056599085 0.012481309)
(-0.10359226 0.054361855 0.0099637312)
(-0.14216287 0.061037218 0.018109728)
(-0.14465222 0.05836887 0.015254567)
(-0.14595185 0.055763993 0.013086458)
(-0.18984234 0.059603244 0.020765655)
(-0.19272997 0.056983264 0.018413744)
(-0.19442477 0.054492569 0.01614346)
(-0.24316841 0.055416378 0.023441156)
(-0.24630884 0.052743574 0.021011428)
(-0.24829973 0.049942426 0.018992602)
(-0.3013474 0.048380554 0.025760811)
(-0.30466361 0.045595032 0.02362529)
(-0.30711112 0.042965402 0.021842517)
(-0.36380935 0.038936976 0.02787634)
(-0.36747374 0.036299125 0.025987161)
(-0.37027756 0.033580594 0.024318871)
(-0.43001559 0.02762026 0.02978822)
(-0.43384103 0.025023747 0.028106751)
(-0.43704675 0.022361799 0.026624042)
(-0.49932217 0.014977804 0.031399555)
(-0.50339754 0.012446377 0.02991942)
(-0.50695863 0.0098381379 0.028632236)
(-0.57113754 0.0015408163 0.032789636)
(-0.57539886 -0.00090507271 0.031528367)
(-0.57932086 -0.0034311127 0.030371109)
(-0.64494426 -0.012091751 0.033918893)
(-0.64940813 -0.014475524 0.032832449)
(-0.65363429 -0.016907073 0.031842057)
(-0.72020219 -0.025425538 0.034837366)
(-0.72483867 -0.027720224 0.033924195)
(-0.72936738 -0.030069585 0.033074159)
(-0.79645838 -0.038010454 0.035543255)
(-0.80126781 -0.040248483 0.034795704)
(-0.80603153 -0.042506634 0.034076913)
(-0.87329388 -0.049539266 0.036093684)
(-0.87825701 -0.051703582 0.035478868)
(-0.88325102 -0.053892404 0.034888511)
(-0.95036456 -0.059774688 0.036499543)
(-0.95547565 -0.061891116 0.036010884)
(-0.96060412 -0.064015812 0.035547371)
(-1.0273817 -0.068648813 0.036782574)
(-1.03257 -0.07074761 0.036440339)
(-1.0378653 -0.072822983 0.036069132)
(-1.1040862 -0.076286926 0.037054833)
(-1.1094069 -0.078339035 0.036742157)
(-1.1147876 -0.080399384 0.036506676)
(-1.1803894 -0.082754477 0.037222024)
(-1.1858113 -0.084780241 0.037040915)
(-1.1912464 -0.086801156 0.03686669)
(-1.2562687 -0.088439034 0.037447418)
(-1.2616894 -0.09046703 0.037321698)
(-1.2671623 -0.092435136 0.037210443)
)
;

boundaryField
{
    free
    {
        type            calculated;
    }
    fixed
    {
        type            calculated;
    }
    freeTop
    {
        type            calculated;
    }
}


// ************************************************************************* //
