/*--------------------------------*- C++ -*----------------------------------*\
  =========                 |
  \\      /  F ield         | OpenFOAM: The Open Source CFD Toolbox
   \\    /   O peration     | Website:  https://openfoam.org
    \\  /    A nd           | Version:  6
     \\/     M anipulation  |
\*---------------------------------------------------------------------------*/
FoamFile
{
    version     2.0;
    format      ascii;
    class       pointScalarField;
    location    "1.13";
    object      E;
}
// * * * * * * * * * * * * * * * * * * * * * * * * * * * * * * * * * * * * * //

dimensions      [1 -1 -2 0 0 0 0];

internalField   nonuniform List<scalar> 
3969
(
58057.204
65478.941
-1449551.4
-746069.93
64586.92
73277.765
-1104737.3
-2201543.2
29707.157
12811.705
5271.0197
3786.169
10693.632
27773.752
56926.95
-775475.07
-755909.21
-774298.05
-800813.58
-824083.66
-836904.39
-629918.36
62278.243
50049.167
49424.655
49235.875
47444.032
46970.99
44630.916
43880.323
41948.606
41108.176
40450.016
39832.602
39466.589
38915.138
38529.506
38216.839
37652.502
36789.553
35791.459
34206.845
32294.923
29865.343
26885.03
23377.414
19642.312
15168.783
10118.073
5016.7755
-609.4386
-6321.3746
-11958.157
-17475.258
-22647.203
-27353.528
-30837.369
-34534.995
-35988.513
-38161.331
-37478.188
-37708.724
-35312.915
-32950.934
-30121.111
-24893.666
-21471.07
-16597.285
4831.5786
60903.202
41884.117
50406.054
45109.747
44446.288
40914.954
38319.711
34919.034
31760.51
29078.153
25733.337
23689.894
20763.337
18756.063
16829.864
15369.31
14346.158
13178.061
12922.571
12463.421
12520.418
13348.575
13403.577
14819.69
16146.976
18221.336
19450.151
21182.271
23524.941
26512.287
29592.417
32558.997
35415.709
38112.267
40310.575
42446.581
42981.921
43530.478
43117.532
41467.823
39192.732
36267.197
31719.921
27055.613
21653.017
15745.342
4518.2984
32318.993
14204.471
5116.577
6462.4036
9769.0625
25043.067
49510.909
100096.48
63416.312
47469.678
58834.146
49758.913
48144.058
45451.993
39160.137
39240.324
30415.16
32050.476
27949.729
26562.725
24476.193
22688.235
22282.983
20745.427
20768.993
20189.738
20046.742
20219.184
20580.18
21293.221
22162.34
23118.83
24059.085
25588.809
26576.711
28059.838
28928.384
29750.516
30550.195
30957.986
31367.475
31213.009
29990.149
34658.209
28303.254
27420.017
25312.698
22510.414
19744.146
15763.341
11807.54
7117.0882
2746.4961
576.70949
-1785466.6
-1497662.9
-1747042.6
-1567429.6
-1516765.2
-1345862.5
-1694919
4555.5154
-6150.9552
-6418.3443
-9380.9192
-12635.142
-15607.276
-17905.091
-20044.031
-21473.499
-20965.494
-19751.543
-24382.65
-21217.79
-19170.276
-16886.05
-13573.266
-10329.272
-6242.2639
-2156.6306
2080.6286
6244.053
10429.303
14469.687
17945.1
21208.847
23941.819
26517.753
28535.699
30494.056
31782.165
33320.102
33524.916
35263.966
37657.259
37481.822
37883.991
39434.097
40257.804
41741.342
42773.08
46194.677
45884.672
49576.19
48575.651
49161.821
51386.975
69367.044
46829.516
45232.763
44531.235
44188.331
43914.905
43330.073
46165.89
41999.489
44678.117
48685.513
50602.368
50762.958
54075.271
45448.186
-837326.45
-836646.9
-836629.75
-836568.65
-836462.85
-836523.19
-836695.67
-1637435.2
-1634405.3
-1634435.9
-1634277.5
-1634374.6
-1634924.4
-1638153.6
38499.828
32067.959
33470.679
33039.782
33288.197
32952.314
32325.194
31870.371
31113.708
30667.731
29957.383
29213.961
28479.3
27606.071
26559.667
25518.968
24306.682
22802.711
21253.574
19521.477
17621.955
15566.155
13533.431
11263.054
9118.2307
6893.5578
4795.983
2865.9259
999.03212
-556.68819
-1872.8574
-3054.5693
-3983.2033
-4709.585
-5017.8752
-5406.2954
-5211.7319
-5016.7305
-4579.24
-3493.3806
-2415.2219
-1309.7357
958.75658
1584.4973
4477.2105
8687.0451
14007.999
17474.159
15496.412
17476.566
17472.547
18036.601
18195.429
17797.269
17914.976
17476.773
17116.738
16608.829
16047.799
15698.31
15254.563
14766.957
13950.323
13020.626
12027.306
10966.88
9938.3309
8917.3174
7887.1061
6847.646
5966.5213
5074.044
4222.2692
3533.4262
2911.5422
2267.0505
2058.6506
2000.5396
2061.4819
2370.1112
2930.6593
3684.6158
4315.8025
5972.3157
6102.0992
8385.2369
8431.5778
10596.654
11103.504
12893.642
13285.492
15560.213
13889.82
6394.647
6801.5132
4152.9306
6216.6973
5620.8201
6112.6803
6044.7015
5852.2045
5750.7065
5167.3701
5458.3105
4933.7967
4678.444
4229.4634
3360.6572
3493.4614
2988.5193
2757.4578
2297.9575
2113.47
1752.747
1479.6033
1429.6291
1743.4313
2060.3683
2652.0745
3129.2158
4124.3783
5177.8645
6350.0766
7605.2625
8889.0325
10247.251
11692.923
13052.127
14459.381
16010.575
17024.705
18924.921
19971.107
20877.959
22394.013
21865.643
23342.147
22469.942
23923.141
20332.879
3336.4969
3694.6522
406.63958
1380.3187
1020.0964
1023.0459
1099.3143
614.80203
1103.3259
333.83716
382.26625
51.234665
166.70367
-136.83399
-306.96301
-548.3245
-210.82758
-169.02924
331.19235
538.70034
992.33731
1445.5454
2340.9456
3368.91
4093.9196
4659.5058
5618.1835
6260.3897
7171.1253
8262.6362
9527.3296
10888.638
12547.785
13949.365
15694.594
17329.752
18418.326
20225.05
21047.615
22361.486
23259.708
23286.886
22791.561
22853.076
20792.344
21028.933
16118.682
3975.4943
9666.0842
5343.3832
6240.3407
5169.5761
5505.0852
5608.863
4865.2368
5212.7331
4232.6115
4431.4476
4280.8242
3987.6335
3819.963
3504.8935
3740.9976
3600.8077
3753.3788
3835.4539
3934.7651
4059.7774
4703.9234
5016.0892
5531.0213
5078.1006
4919.8425
4560.8289
4201.9946
3805.6592
3328.9172
2796.5587
2289.2135
1750.1816
1232.846
821.25054
263.79911
224.98336
-377.91668
643.85063
8437.9143
14540.931
13192.73
12943.818
11602.263
10415.863
8769.8473
8172.817
9196.3043
23429.671
18945.104
19390.596
18786.599
19314.963
18609.281
17866.221
17094.547
15698.588
15034.26
14251.603
13634.404
12455.156
11903.859
11311.726
11002.051
10579.769
10384.637
10137.425
9907.3426
9487.3783
9687.483
7931.3988
6899.4904
6044.4702
5178.3822
3969.6053
3209.189
2198.0065
1292.2699
265.66982
-628.08448
-1588.5719
-2356.2215
-3240.8885
-3725.6933
-4242.6636
-4861.8308
-4246.9697
-2133.0857
-3967.192
-3650.4661
-4143.8214
-3430.909
-3213.7692
-3597.2851
6224.8376
36070.536
31741.194
31958.825
31520.741
32088.513
30149.699
29088.908
26430.321
25740.354
22792.548
22751.457
20375.151
19546.324
18313.81
17577.856
16814.771
16151.912
15585.993
14983.658
14286.961
14032.897
12775.451
12299.74
10888.672
10775.485
10184.576
8942.1212
8194.723
7163.9033
6024.7563
4629.2337
3841.1467
2657.8529
2073.3446
1159.1053
1241.4055
703.25834
1443.0348
1023.6013
-3673.2897
-4276.1256
-2609.7709
-917.7278
1731.9055
3183.643
7799.6514
11656.683
18200.304
18533.065
15459.431
15251.535
15461.558
15765.426
20284.58
7918.5956
6520.8033
5744.0794
5482.0441
5697.4935
6185.7559
8474.0116
2866.6238
1796.3201
989.65729
1103.5778
961.53145
1304.7942
2455.1912
1717.0678
719.48712
488.27008
423.7584
748.20645
1633.9281
3245.4917
3858.3649
2479.1875
1804.6692
1684.7359
2096.8768
3052.1819
5019.1842
14915.17
11237.679
10011.464
9635.3565
10231.833
11976.893
16621.199
25946.929
27178.052
22114.709
23054.527
22745.561
24748.471
32974.387
73677.684
65768.18
70560.978
75561.577
76055.604
81487.129
79835.931
60911.14
61452.138
58256.415
57471.705
62922.534
64667.196
66841.579
55493.503
58160.52
59840.796
59182.876
59494.24
59929.897
61136.707
53117.53
57858.858
56956.591
59131.42
59287.863
59548.809
55202.485
49643.802
51957.52
55270.45
54896.557
54880.583
53583.524
53085.625
46522.888
47441.648
48133.956
49685.399
49039.095
48136.099
47022.36
41790.471
43072.335
45565.704
45646.209
46197.223
45743.511
45389.57
38641.663
39290.342
39521.237
40011.011
39480.329
38882.627
38674.86
34860.361
35103.96
36536.143
37167.677
37738.281
38031.373
38697.191
31378.844
31992.014
32174.275
33348.696
31835.823
31579.749
31935.613
28929.736
28959.112
29671.96
29314.68
30565.938
30999.736
29992.547
25651.923
26022.122
26208.279
27296.182
26961.845
25295.787
27273.063
23758.941
23387.877
24520.652
23869.388
24272.231
24819.871
25061.897
20847.998
21327.41
22252.496
21761.596
23115.219
21418.791
23000.863
19651.748
19930.593
20510.132
20235.761
20439.008
20038.783
21119.253
18015.787
17970.328
19378.686
18433.604
19639.488
18758.87
20194.555
16898.88
17400.698
18064.594
17551.943
18338.428
17382.532
18766.176
16353.106
16248.598
17497.524
16767.585
17723.986
16824.331
18246.653
15832.897
15948.722
17254.41
16185.514
17334.894
16170.045
17763.488
15836.991
15764.725
17216.06
16143.416
17382.99
16124.261
17726.823
16210.342
15916.124
17615.017
16311.654
17584.4
16211.049
17859.074
16838.718
16419.919
18285.664
16826.723
18148.059
16686.875
18416.628
17672.867
17244.932
19023.416
17705.459
18921.548
17724.792
19287.293
18911.916
18485.787
20260.471
18764.173
19945.454
18721.664
20138.075
20393.267
20057.491
21143.225
20684.193
21257.414
20257.376
21293.556
22130.521
21857.568
22489.512
22189.672
22812.739
21960.407
22931.96
25011.207
24062.331
24464.345
23291.837
24639.404
23692.969
24928.856
27334.501
25992.767
26788.668
25259.71
26411.579
25001.738
26443.906
29296.157
28573.757
28631.065
27511.422
28394.92
27644.325
28317.333
32290.15
30513.72
31601.803
29193.834
30773.087
29144.064
30176.143
34380.43
33309.557
33640.905
31386.993
32596.143
31002.45
32120.813
37063.252
35371.393
35955.12
33210.568
34657.615
32772.282
34051.325
38995.606
37577.321
38008.498
35176.819
36380.653
34364.689
35635.474
40782.619
39236.252
39729.6
36532.096
37850.858
35634.899
37112.298
41969.14
40752.656
41000.883
37927.467
38928.123
36854.078
38210.999
43188.896
41428.847
42113.29
38531.389
40056.039
38702.881
38760.031
43009.818
41859.341
42151.159
39389.399
40108.649
33575.643
35628.181
38108.504
38133.071
37557.509
35740.079
35663.769
39256.163
38381.564
41061.303
39843.053
40430.827
37521.899
38506.262
36315.074
37270.76
39279.206
37966.673
38513.778
36036.118
36738.968
34789.929
35497.085
35923.445
34863.651
35664.371
33242.726
34173.552
32397.923
32893.405
32305.063
31576.57
32142.193
30442.266
30971.261
29426.553
29475.631
27532.217
26706.372
27578.403
26020.429
26651.932
25426.951
25415.354
22510.379
22164.78
22723.745
21770.291
22108.229
21129.556
20535.075
16831.232
16448.341
16966.15
16278.665
16673.561
15978.615
15331.938
11141.652
11044.248
11685.758
11320.207
11610.223
11022.973
10069.243
2387.725
2745.9107
2560.0491
2838.181
2507.1075
2236.8088
2332.9811
-959383.68
-1051874
-1051897.1
-1052005.1
-1051722
-1050931.3
-1050539.5
-1011148.1
-1009062.2
-1008860.4
-1008998.6
-1008757.6
-1086307.2
-1008506.5
-1098754.9
-1021483
-1021433.8
-1021370.2
-1020956.2
-930569.49
-1019925.9
-1059145.1
-1059306.9
-1060220.9
-1059368.1
-1060341.8
-1058497.7
-1058832.7
-1092489.4
-985079.75
-1089231.7
-1089704.9
-1087902.7
-1088653.7
-1088660.5
-1012403.1
-1202004.9
-1117916.3
-1117463.4
-1207764
-1117302.1
-1118011.9
-1201377.4
-1113426.2
-1113670.3
-1113733.6
-1008640
-1113304.6
-1112216.1
60349.365
54528.233
51157.842
49347.036
50059.487
51557.312
51851.863
55417.967
51487.129
50651.881
49824.997
50152.935
50878.361
52419.77
53361.59
53727.489
52721.191
51890.962
52610.115
52013.671
51622.969
51581.73
51713.665
51280.205
51428.003
50750.931
49475.646
49755.077
50046.179
49547.346
50190.992
49510.772
49311.243
48301.502
47681.762
47428.896
47155.811
46901.404
46144.316
46479.805
45536.254
45877.983
46261.052
45303.323
45333.423
44330.402
44932.939
44288.126
44525.528
43810.919
42831.555
42985.255
42286.152
42092.585
41784.919
42283.641
42956.237
42052
42029.464
40898.21
41777.013
40791.62
42012.708
41618.008
40292.156
40309.769
39304.38
39939.676
39229.473
40226.599
40690.482
39550.255
40110.155
38664.214
39731.137
38587.806
39574.521
39681.152
38970.791
38666.292
38156.093
38296.775
38038.393
38822.885
39255.287
38102.366
37988.258
37219.029
37509.252
37034.288
37325.983
38715.323
37819.237
37925.42
36761.533
37307.649
36691.846
37003.452
37594.76
37168.919
37109.363
36586.495
36776.531
36003.188
36548.578
37663.344
36417.365
36195.229
35602.474
35928.591
35955.656
35862.731
37407.208
36145.955
35817.45
35288.557
35344.453
34510.469
34805.441
36350.835
35021.69
35136.236
34210.855
34256.44
33708.284
33606.844
35050.65
34027.556
33879.701
33127.768
33089.646
32535.994
32405.941
33531.12
32563.944
32347.806
31701.332
31387.232
30929.095
30681.346
31515.246
30801.148
30428.197
29762.071
29359.334
28994.778
28674.692
29097.022
28545.16
27921.213
27437.124
26943.438
26605.829
26184.466
25983.498
25681.826
24927.674
24642.468
23983.523
23729.194
23279.771
22501.337
22670.48
21643.923
21489.84
20901.26
20522.131
19976.029
18557.557
19112.325
17682.787
17978.778
17117.14
16808.454
16219.346
14292.06
15078.768
13627.769
13847.127
13159.65
12652.759
12174.953
9331.4194
10563.68
9088.41
9340.8833
8787.9592
8198.4322
7671.8292
4495.9833
5568.195
4333.5105
4662.9519
4066.4608
3516.5591
3025.4637
-693.39012
750.54823
-790.26179
-159.70782
-832.24103
-1292.9664
-1678.7297
-5946.6819
-4283.4227
-5795.1946
-5156.894
-5607.9214
-6110.3811
-6348.6905
-10822.406
-9507.2825
-10766.187
-9894.459
-10455.551
-11010.419
-10858.976
-15719.069
-14247.813
-15268.598
-14680.103
-15103.084
-15412.377
-15092.344
-19966.156
-18701.646
-19680.996
-18910.967
-19209.381
-19686.275
-18727.632
-23696.967
-22747.206
-23308.377
-22614.973
-22886.984
-23140.967
-22169.58
-26686.596
-25919.123
-26354.101
-25867.335
-26258.179
-26702.033
-24729.985
-29219.082
-28581.782
-28625.488
-28372.533
-28356.553
-31369.044
-29569.982
-33377.829
-34006.19
-33773.835
-34043.509
-33658.26
-31519.82
-26076.912
-30762.466
-30471.71
-30451.875
-30377.293
-30601.384
-31526.125
-28437.104
-31125.296
-30649.242
-30699.225
-30522.583
-31017.472
-31108.782
-28123.23
-29840.507
-30155.614
-30026.053
-29896.028
-30354.523
-30583.06
-27303.434
-28208.123
-28200.281
-28108.385
-28106.833
-28589.418
-29003.78
-25544.822
-25333.754
-25477.911
-25577.359
-25320.803
-26043.758
-26426.122
-23242.106
-22788.56
-23333.838
-23063.595
-23129.296
-23637.405
-23761.146
-20392.758
-18573.116
-18323.145
-18577.754
-18345.722
-19131.912
-19369.983
-16979.168
-14342.088
-15137.051
-14832.049
-14937.155
-15429.975
-15684.43
-13447.534
-11976.203
-11230.588
-11800.132
-11302.913
-11655.007
-11710.5
-10964.218
8715.8877
7081.2726
7617.6822
7384.3207
7129.4216
7729.7772
7346.2744
58119.128
42740.289
38944.725
38087.113
37997.626
35754.18
35597.834
32862.302
32007.944
30693.678
29224.898
27614.102
26553.121
25022.898
24033.231
22892.282
21583.485
20761.245
19843.171
19212.501
18549.321
18245.698
18031.592
17926.022
18201.272
18084.531
19339.048
19520.587
20151.905
20757.205
21220.579
21697.908
21794.67
21889.12
21185.916
21093.679
22722.51
20738.654
18724.688
17517.6
16381.563
14937.366
13574.987
11974.991
10842.225
9254.5764
19828.283
23953.097
25678.588
20190.715
21340.507
22195.845
21059.516
21867.678
21501.526
21835.723
21306.826
21304.419
20828.318
20298.5
19539.759
18667.454
18643.807
17989.074
17201.916
16865.072
15946.272
15263.858
14502.825
13526.642
12704.758
11851.812
9831.4942
8786.5074
9149.9802
8112.6713
7295.5178
6592.7041
6087.8121
5477.443
5185.3464
4780.2789
4769.8543
4045.6758
3746.2938
3700.5052
3359.3998
3296.7745
2815.2182
2617.3432
2043.4876
2026.6402
203.33325
5655.6436
8541.8689
9390.7064
7320.3148
9528.4454
8172.448
7104.028
8980.9213
6933.8212
8256.1514
7222.0954
7393.2338
7331.268
8439.9218
10203.555
9865.7009
10161.433
10039.811
9756.4073
9854.5964
9158.023
8799.9178
8026.2894
7144.7337
5993.7489
4909.8612
3380.0648
2107.2966
90.461424
-1535.3577
-3435.2674
-5086.5954
-6913.8236
-8190.0667
-9467.053
-10384.184
-10950.473
-10907.984
-10686.157
-10232.568
-9061.2908
-7805.3255
-6217.9267
-4510.4377
-2048.0878
-476.13302
3015.6125
-2058.106
3499.6689
3278.5351
161.69421
5519.389
577.05012
4002.2864
137.23503
1480.7033
2477.333
1024.2898
3484.0597
1915.929
4422.3759
6252.0627
6665.3002
7473.1223
7419.4209
7561.3867
7493.8478
7091.3673
6488.1399
5802.8498
4562.69
3671.8071
2112.9176
1122.6578
-832.49708
-2182.9635
-3825.2684
-5219.2904
-6644.4184
-7825.5016
-8791.0702
-9924.3302
-10325.824
-10803.35
-10880.029
-10779.458
-9899.2579
-9161.8205
-7448.8254
-6075.7871
-3181.0651
-1184.1463
2588.2787
6343.577
-32.096751
9730.8563
2668.9068
4430.3445
4076.7661
3645.8574
4658.5829
4897.5935
5357.0653
3976.8597
5920.9241
3894.5426
5894.1078
5097.099
5340.8221
5795.7085
5540.235
5848.4204
5634.9582
5612.5279
5163.1876
4759.9842
4009.4354
3353.5966
2135.0029
882.90208
-406.39477
-1757.1899
-2972.845
-4299.9698
-5547.081
-6599.1197
-7407.9659
-8127.9797
-8463.4751
-8402.5894
-8380.7237
-7563.8796
-6883.195
-5760.5265
-4087.2834
-2595.1058
-369.2646
1690.3309
4100.0426
6577.7056
10820.778
8840.6749
23392.741
18160.115
12968.029
18016.055
13590.953
16884.645
15714.079
13356.092
15803.946
12870.914
14647.273
13122.149
12566.922
12352.007
11251.467
11020.056
10292.345
9934.6491
9401.4279
9031.8787
8550.0351
8188.6792
7777.1055
7102.2836
5365.0027
5053.7718
4799.9589
4447.706
4113.7886
3777.3802
3627.6666
3395.1772
3312.003
3441.2908
3614.113
3560.0875
4275.4501
4660.0735
6007.4963
6402.8561
7612.0103
8508.0155
9524.3322
10468.825
11437.424
12387.245
10275.752
58977.141
33094.555
38468.262
33208.965
36097.898
33557.51
32087.677
30743.074
28393.157
26225.804
24767.32
26159.395
23517.367
22374.728
20955.717
19632.146
18500.2
17256.417
16264.534
15038.096
13820.891
12329.57
10829.999
8594.9341
7456.1776
5231.9419
4572.9273
3530.1625
2426.1165
1794.5374
1132.0086
646.30638
467.82069
489.26606
746.55148
2443.1809
1914.0279
2722.2239
3419.6126
4644.7224
6004.089
7385.5488
8893.0283
10752.237
12032.886
14504.103
13250.814
47625.575
40168.436
38885.124
38027.177
38106.822
37824.939
38356.43
42120.797
42761.145
39635.562
39072.045
38303.665
39026.385
39518.612
38937.995
40850.086
40729.857
39980.391
39634.207
39425.937
38506.137
38065.843
38694.571
38696.688
38638.438
37959.236
37494.581
35890.936
36746.794
37831.554
37876.325
37649.933
37308.784
36799.65
35527.521
35184.4
35273.613
34936.793
35321.054
34447.143
34346.074
33873.48
34583.314
34601.298
34451.429
33877.699
33464.617
33610.29
33107.929
32797.417
32610.504
31949.939
32496.545
31885.535
31647.868
31238.443
32173.851
32072.627
31107.703
31514.167
30705.592
31117.59
30865.092
30650.585
30229.629
29650.736
29811.124
29081.14
29574.124
28996.774
29781.05
29430.299
28725.747
28886.514
28510.559
28633.926
28547.12
28763.553
27975.131
27452.311
27668.743
26914.981
27485.041
26970.126
27730.588
27054.962
26486.687
26599.705
26252.102
26497.137
26144.919
26569.183
25707.047
25400.759
25252.9
25085.895
25173.584
25101.885
25276.417
24724.117
24149.482
24235.785
23729.161
24330.997
23711.583
23989.88
23341.92
22988.898
22927.677
22866.423
23147.172
22746.265
22766.245
22058.791
21643.788
21548.139
21490.806
21802.633
21497.886
21295.94
20693.81
20354.894
20230.174
20326.441
20734.883
20287.402
19983.244
19293.144
19036.003
18967.589
19142.237
19444.293
19156.775
18639.416
17958.472
17810.891
17709.035
17871.095
18318.587
18107.529
17440.433
16595.757
16625.963
16439.083
16785.401
17211.685
17027.672
16308.535
15306.976
15508.248
15352.909
15765.141
16152.143
16073.951
15327.789
14109.34
14679.704
14383.187
14784.608
15086.331
15262.821
14437.383
13096.389
13982.823
13421.129
13920.97
14271.543
14592.011
13752.855
12059.66
12946.299
12675.925
12964.262
13233.762
13988.133
12676.121
11346.412
12736.633
11855.761
12139.125
12578.9
13079.142
12454.623
10598.423
11726.826
11473.753
11596.153
12085.567
13246.977
11966.804
10462.547
11402.111
11153.95
11168.026
11502.172
12926.324
11446.449
9878.5282
11560.158
10688.4
10861.013
11142.869
12796.682
11209.416
9959.2731
11258.439
10534.11
10730.209
10899.758
12767.609
11093.814
9864.2752
11174.146
10645.79
10588.304
10733.062
12750.738
10891.36
9988.1058
11265.145
10573.354
10466.661
10651.002
12765.158
10831.61
10254.767
11150.446
10743.046
10596.698
10704.985
13011.002
10829.151
10338.582
11302.967
10915.013
10690.632
10876.274
12872.204
10794.954
10743.169
11297.17
11045.726
10780.553
10692.672
13137.79
10968.358
10712.394
11359.537
11178.246
10788.985
10827.685
11576.07
10137.824
10686.536
10749.634
10780.424
10724.057
10607.323
16138.836
10998.08
12752.115
13475.981
13506.388
12759.448
13304.792
13038.833
10415.11
11183.309
11388.009
11589.638
11591.392
11621.934
13443.164
11444.986
11314.944
11545.613
11798.573
11387.55
11597.17
12844.688
10803.78
10928.813
11224.681
11480.029
11427.017
11566.695
12877.761
11276.792
11156.246
11408.812
11652.194
11353.851
11638.001
12518.011
11588.211
11373.611
11777.572
11916.774
11989.611
11927.132
12344.031
10662.019
10576.456
10848.203
11261.513
10988.928
11045.376
11529.815
11872.334
11271.48
12261.877
12049.866
12227.031
12228.305
11989.172
12771.957
13570.916
13399.88
13465.627
13520.041
13451.206
12685.023
19854.017
19703.158
20293.821
19791.916
20124.215
19951.537
19989.28
20959.212
16987.507
15352.315
14796.604
14357.331
14537.887
15068.165
21748.797
23236.768
21802.852
21758.518
21583.4
21632.674
22015.183
21001.839
21303.812
21431.894
20849.942
20767.552
19776.759
19485.603
21229.835
22108.342
22375.5
22349.74
21591.465
21160.568
19734.713
20921.019
20775.105
21254.753
20510.755
20706.439
19739.018
19649.352
20754.942
20912.921
20133.685
20183.743
19630.807
19369.221
19052.736
20144.042
20114.628
20094.665
19599.921
19587.686
19231.192
19009.858
19998.84
20115.638
19247.627
19179.452
18940.168
18622.388
18800.115
19644.592
19681.272
19177.317
18806.468
18470.178
18566.922
18582.086
19288.111
19293.737
18566.637
18284.274
18385.645
18074.216
18203.732
18721.166
19033.908
18198.197
18155.494
17759.047
17875.783
17811.172
18085.264
18440.01
17733.633
17391.276
17301.163
17183.583
17142.435
17553.218
17990.389
17439.746
17228.515
16857.855
17039.044
16616.754
17189.032
17106.954
16875.641
16318.041
16257.124
16048.495
15977.692
16769.706
16532.137
16154.823
15871.441
15824.888
15414.715
15287.89
16034.243
15611.4
15436.309
15236.636
14965.733
14758.698
14552.9
15101.715
15172.547
14715.801
14464.595
14258.46
14011.424
14000.881
14382.672
14347.917
13962.853
13915.602
13557.405
13296.981
12960.231
13541.809
13616.748
13304.302
13106.636
12792.6
12465.694
12396.418
12701.529
12885.25
12526.659
12441.316
12002.564
11732.494
11596.868
11849.208
12085.413
11808.884
11623.977
11206.29
10981.555
10787.793
11043.167
11423.609
11099.285
10943.242
10552.993
10152.339
10132.724
10376.176
10591.52
10313.774
10162.551
9587.54
9442.2768
9441.0745
9774.0427
9897.7352
9710.8429
9347.9139
9090.6837
8987.7367
8958.1254
9207.7213
9270.3729
8830.5758
8746.9409
8556.6421
8241.575
8305.4549
8800.9333
8900.7455
9122.8619
8526.8509
7954.7208
7933.1145
8166.8645
8783.3833
8671.8778
8168.9378
8042.4431
8130.2119
7822.9076
8099.0821
8927.1513
8065.1964
7426.8125
7616.3431
7609.2212
7669.8594
7725.3576
8438.1161
7837.1451
8210.6048
7551.2286
7599.5582
7706.1955
7561.6159
8826.6509
7924.8469
7793.9023
7650.9541
7665.9714
7744.4348
7699.4242
9084.3633
7829.2077
8043.3603
7849.6448
7760.3125
7908.8466
7834.3666
9420.6244
8177.0229
8302.5525
8111.6001
8023.2759
8312.9304
8286.8945
9946.1548
8480.6915
8607.9466
8480.1148
8470.002
8749.9799
8462.993
10463.039
8869.1622
9086.0686
9015.9766
8892.3749
8898.7841
8984.0956
11040.77
9396.4298
9541.3699
9524.0578
9163.081
9664.9511
9443.1591
11455.116
9684.0348
10136.6
9910.1754
9995.9758
10013.108
10212.756
12322.224
10745.387
10645.097
10771.537
10145.729
10518.228
9924.384
12426.471
10150.009
10860.537
10621.775
10582.419
10766.167
10716.124
13066.395
11559.844
11808.719
11469.352
11246.327
11325.686
10907.995
13112.933
10771.236
11692.703
11205.552
11319.189
11308.777
11040.274
13276.901
11803.142
12053.715
11813.494
11585.352
11544.84
11261.655
13402.834
11114.688
11816.662
11291.409
11364.818
11399.83
11150.26
12994.248
11517.694
11794.642
11633.988
11677.472
11553.623
11034.775
12376.962
10585.783
11017.58
10686.091
10481.119
10418.284
10162.893
12641.657
11330.351
11406.62
11102.838
11244.849
11449.301
10853.768
9723.5086
8220.0116
8329.9888
8148.1013
8057.0845
8014.0967
7664.3955
7968.2863
6577.1479
6565.9119
6155.5448
6243.9824
5915.5815
6546.2501
8338.7019
6661.9217
5724.1748
5407.2927
4985.5514
5169.5115
4988.8046
7225.3361
8040.5656
7651.9407
7565.7607
7535.558
7026.3846
7278.54
8532.1471
8137.7067
8019.0007
7988.5576
7632.7363
7268.7539
7130.1728
7676.3333
8499.2869
9364.0983
9507.8926
9109.6902
9165.1889
7800.019
8499.6547
8469.6804
8195.7025
7481.2184
7573.6873
6577.2514
7476.1523
7798.5439
6551.7408
6595.6453
7321.2955
6738.9836
6777.1032
6644.5186
8783.2469
7486.7592
8233.8749
7800.6896
7525.2673
7913.6316
7533.117
8433.3542
6698.1555
6299.1088
5669.0688
5706.0397
5747.6542
5735.6554
8138.1423
6438.6221
7004.0369
6807.3261
6822.2946
7139.9186
7021.9545
8196.3306
6010.5306
6169.2449
5425.2078
5391.193
5745.6433
5843.8876
7943.7177
5738.9104
6245.4925
5599.0233
5712.7212
5872.8706
5971.558
8242.9325
5248.8455
5990.3586
5160.7002
5672.6108
5562.8921
6271.6773
7877.9195
5169.3419
5369.9945
5613.2444
5449.7726
5551.8262
6081.1026
6724.24
5594.1034
5688.4822
5019.8778
5351.4323
5604.9732
5691.2628
6101.2847
5610.3586
5723.0314
5209.8423
4951.0196
5435.2637
5634.9867
5911.4119
5450.8015
5558.7774
4939.3386
5058.596
5286.4919
5487.5514
5898.2909
5384.5443
5571.4692
5010.3722
4916.3266
5285.0048
5588.9069
5679.533
5200.4911
5416.7336
4869.5078
4942.8889
5171.1871
5343.6309
5601.3302
5195.0377
5410.0171
4892.8338
4939.6236
5031.2031
5502.6529
5407.1184
5002.7782
5261.8101
4802.9399
4904.1887
5001.8695
5363.5487
5320.7681
5056.7789
5321.1142
4879.6989
5051.112
4934.7996
5320.0473
5175.9646
4894.4145
5184.0938
4894.6669
4980.4213
4855.9222
5270.1725
5096.9808
4882.1833
5325.8106
4916.9619
5076.786
4901.5925
5279.7071
5032.1684
4857.3861
5234.0208
4936.1152
5172.1436
4747.7537
4879.4968
5106.0726
4687.3741
5252.5116
5081.2235
5099.5272
4612.7353
5134.6661
4992.5406
4449.3579
5360.5012
4733.4184
4996.0322
4724.3458
4569.6195
5256.0513
4610.0418
5327.8734
4988.6854
5231.2073
4463.3587
4857.6204
5274.7437
4449.5136
5134.3462
4816.1712
5071.9182
4244.9808
4706.5886
5550.638
4493.2029
5365.0679
4619.2906
5106.3692
4146.0092
4710.5871
5910.5389
4508.4934
5047.9773
4683.4727
5135.7332
3924.989
4776.9702
6256.7217
4454.1676
5229.6388
4727.1254
5103.0099
4035.9344
4966.6276
6781.0797
4653.7155
5315.1306
4611.3569
5303.6211
4024.9374
5050.7171
7329.8458
4816.1907
5364.9597
4861.1147
5399.7564
4042.9057
5311.6984
7833.8738
5030.972
5709.8638
5051.6483
5705.681
4599.2182
5814.557
8515.1512
5497.3024
6065.5839
5434.5833
6157.8876
4924.6237
5927.0478
9227.7763
6060.1936
6614.429
5913.3914
6663.5727
5494.6161
6439.0229
9649.5389
6503.2963
7002.4754
6558.1986
7336.9706
6223.2378
7086.7547
10672.812
7406.1701
8184.3402
7352.106
8319.1202
7016.2955
7476.4159
10718.618
8356.5224
8321.7627
8253.7829
8757.982
7868.5213
8043.3053
11794.696
8773.2415
9448.7783
9041.3504
9840.3209
8849.1817
8625.3671
11999.19
10308.042
10195.972
10291.878
10522.503
9678.6869
9066.9587
12335.882
9887.9054
10422.373
10301.75
10746.589
10440.785
9674.5395
12698.963
11462.022
11503.2
11583.631
11764.267
11310.213
9720.5939
12813.745
11249.028
11270.909
11350.517
11378.32
11154.533
10353.642
13191.031
11827.496
11704.354
11918.179
11767.095
12164.093
10421.907
11670.992
10633.494
10613.032
10931.847
10848.745
10932.58
10389.072
24.850915
-1535.8914
-1626.5924
-1796.957
-1554.4257
-1640.3749
-1363.9179
3298.138
2812.5299
2329.5521
2278.5386
2010.6838
1929.5615
1098.5441
1905.1845
3705.456
3897.8969
4291.2861
4103.1216
3711.4414
3308.9553
1944.081
1845.418
1330.0515
1494.0286
1317.269
1138.1742
564.86437
2021.3935
4594.0567
5976.0187
6902.243
6542.1034
6103.8818
4564.7681
1712.2521
1766.3219
419.7811
-37.997287
-366.48697
-562.46964
275.37498
1629.0303
2967.9337
3026.4061
4098.2913
4226.2128
4619.9461
3233.0638
1743.2032
1500.5227
1173.7207
1242.6127
1021.5809
144.98181
1529.5685
2654.1275
2185.7281
1464.984
2136.9735
1455.9224
2123.8834
1769.6915
2589.3169
2226.6587
2288.5648
1934.3304
2740.2835
1946.2596
2820.213
3116.4764
2888.266
1308.0916
1931.3407
1315.0414
1277.6488
1419.1725
3455.0133
2713.9114
3032.2144
2732.4112
3490.5233
2933.6508
3446.3394
3642.3991
3777.441
2593.7735
2319.4229
2745.6866
2133.9647
2515.4203
4129.1456
3590.5331
2635.7019
3635.1156
4036.8105
3163.0947
3976.6051
4082.2542
4750.0867
2427.3833
3283.8738
3795.1327
3390.1084
3692.9041
3304.059
4328.5668
4281.5274
3726.2083
4407.9484
3506.9765
4090.3805
3639.8828
4541.7203
4524.5119
4163.8314
4594.9861
4172.5875
4465.6564
3961.5331
4726.0935
5028.2841
4569.6864
5138.5059
4391.7608
4770.936
4372.011
5058.4252
5330.0511
4928.468
5314.1927
4845.683
4973.9913
4644.7333
5090.3326
5658.7254
5161.1751
5631.2436
5043.5499
5163.2913
5022.1423
5264.6645
5762.3986
5378.0906
5733.738
5231.5734
5297.2366
5333.6519
5098.4333
5933.2711
5492.5707
5693.2195
5274.1999
5154.3717
5465.1227
5080.9112
5918.823
5313.9953
5638.6243
5257.7564
5130.8674
5580.0655
4869.8004
5732.9912
5246.2489
5440.8708
5059.545
4545.1255
5729.4227
4573.4055
5554.8025
4955.9292
5219.2061
4887.1316
4549.851
5586.6524
4381.9371
5293.147
4623.2022
4761.2497
4707.3681
3993.021
5381.4089
4252.4719
4950.4988
4417.1878
4673.1213
4482.4317
3832.1431
4995.1369
3864.6324
4585.2588
4037.058
4335.226
4201.9703
3392.4562
5045.7374
3221.8501
4427.3401
3773.5231
3951.1421
4156.2026
3041.3722
4946.7377
3104.0519
4026.9685
3728.591
3547.7708
4057.3151
2564.6675
4799.6128
2906.0826
3741.5837
3514.6564
3410.4718
4029.2053
2217.8776
4860.8846
2838.7721
3632.3319
3554.723
3206.6372
4012.4359
1919.5226
5018.3914
2865.4203
3516.9178
3488.688
2965.9553
3991.4649
1633.375
5176.0709
2835.9678
3454.9486
3519.2878
3026.9709
4268.8689
1683.8023
5579.7864
3051.804
3563.5227
3617.0748
3083.3326
4144.2318
1523.1553
5966.6121
3324.8863
3592.011
3743.2478
3047.3938
4344.3442
1611.4315
6333.86
3402.2985
3610.583
3719.3058
3289.8732
4235.3447
1945.8205
7154.1514
4038.3268
3934.1882
4208.9841
3217.7905
4649.7593
2030.7977
6912.0149
4057.9402
3993.2618
3850.7842
3534.4957
4358.7997
2565.6796
7262.6909
4832.9011
4328.4198
4487.1892
3742.4236
4881.5633
3015.1931
7256.4544
4930.5038
4795.7246