/*--------------------------------*- C++ -*----------------------------------*\
  =========                 |
  \\      /  F ield         | OpenFOAM: The Open Source CFD Toolbox
   \\    /   O peration     | Website:  https://openfoam.org
    \\  /    A nd           | Version:  6
     \\/     M anipulation  |
\*---------------------------------------------------------------------------*/
FoamFile
{
    version     2.0;
    format      ascii;
    class       pointScalarField;
    location    "1.36";
    object      p;
}
// * * * * * * * * * * * * * * * * * * * * * * * * * * * * * * * * * * * * * //

dimensions      [1 -1 -2 0 0 0 0];

internalField   nonuniform List<scalar> 
625
(
675838.4
-811995.89
8276.5734
8537.4237
996147.89
-1928132
7518.7408
1947.6077
494691.68
48928.485
-32812.58
-13211.148
4473.5449
6921.2623
274121.05
298843.46
286309.04
286967.43
249652.69
243838.23
219582.77
199881.09
189678.51
166047.9
153402.57
139036.2
124089.14
112240.38
99576.424
89727.894
76799.682
69945.136
58729.129
49105.807
40315.221
28060.164
19122.427
-291002.74
-182056.8
-251370.91
-194579.44
-182346.07
-180763.61
-154667
-145902.18
-133613
-120608.1
-110209.06
-96905.035
-89710.715
-77515.884
-69534.782
-61452.372
-52830.204
-46631.652
-38595.127
-33139.354
-25206.894
-17804.383
-7610.1887
600127.01
-132448.33
-248720.8
-355094.96
-444073.79
-317900.08
-277788.74
-329665.28
-234282.92
-227642.39
-208174.52
-189875.12
-178796.16
-151087.57
-142980.72
-121930.42
-110688.39
-96687.713
-83921.393
-73627.34
-62225.561
-52084.885
-42310.704
-31307.866
-21729.619
-7801.7683
7138.9502
3658.419
-5273.6837
25324.558
31504.687
38896.936
48973.134
59307.811
68462.473
78488.351
88602.971
99423.881
111183.07
122213.81
137555.56
148170.53
163837.67
169667.71
203251.99
210209.95
216684.4
265631.06
240012.83
308990.95
241186.7
285914.54
689294.86
636193.62
630581.72
-968144.75
-1039566
-1026216.5
16006.866
15521.682
18224.457
-3925.7611
3035.036
-1310.2392
176919.49
188954.02
189940.14
167251.25
157217.73
153896.86
134145.27
129572.82
115806.52
105163.63
97750.49
87673.497
78689.72
70926.643
63686.14
55600.961
49513.27
43425.992
35679.918
32039.112
24144.965
15125.25
10793.842
-1719.51
10984.711
-7263.9227
11264.39
-2135.4697
2730.1243
1076.5209
3488.353
1492.5091
2415.8322
2830.254
2473.2042
2551.074
3794.6197
2900.6126
3357.033
3495.1281
3005.11
2865.3282
3033.9269
1046.0437
4837.0719
4525.3736
-173120.35
-136780.02
-129651.27
-106670.47
-129071.13
-96959.565
-98976.795
-87655.044
-79698.02
-71887.044
-64198.08
-58402.415
-50719.169
-45524.259
-39947.003
-34466.755
-30077.286
-24840.04
-21007.065
-15561.049
-10895.336
-7738.1891
-548.44396
443314.96
365017.53
368074.62
-10459.649
-8686.4552
-62714.145
-26580.432
-88186.571
-197104.67
-448210.18
-454942.52
-494990.16
-349307.6
-346265.59
-347509.77
-286831.5
-283257.34
-309359.38
-222909.09
-235978.8
-247966.85
-220454.39
-234077.45
-255817.6
-198478.38
-196362.89
-211154.19
-185436.12
-192232.54
-208680.68
-168533.46
-167397.63
-183866.46
-154915.93
-153962.38
-166004.13
-139182.88
-137196.96
-152242.31
-124310.73
-123656.2
-135428.01
-113496.44
-111672.89
-121923.48
-99720.455
-98199.669
-108360.35
-89024.078
-87502.027
-96089.539
-78823.328
-77040.845
-85611.716
-68963.504
-67748.446
-74304.581
-60374.564
-58280.116
-65002.064
-51624.706
-50861.635
-56120.312
-44007.763
-42144.911
-46447.129
-35891.859
-34840.727
-38728.789
-26477.516
-25769.014
-28751.717
-19653.14
-21278.098
-22036.781
-12933.173
-9436.0731
-11833.699
-17774.986
-18829.905
-19575.842
3177.6124
3204.3866
5557.2422
9620.5828
11472.619
10169.25
351180.16
308520.78
312396.19
323783.09
293581.18
312781.4
334678.25
280965.79
281046.92
283536.05
250226.29
264794.34
275015.47
253219.49
243664.61
256874.8
216692.01
224465.47
231333.37
208727.63
213302.11
218914.38
191033.54
188994.47
199443.59
174192.98
178176.87
178424.05
159444.24
163343.26
166154.38
144789.59
145687.65
148640.55
130040.63
133709.03
133397.57
118047.94
119779.42
120085.59
106154.87
107471.33
106852.7
94913.097
96386.449
94407.519
84463.788
85378.395
83065.944
74701.901
75900.568
72699.532
65361.766
66305.297
60712.031
55803.966
56838.408
51974.424
45743.448
49011.311
42046.763
37505.106
39324.414
31537.313
30827.064
30083.605
27976.821
28650.959
30128.557
127664.16
175283.91
137330.72
153463.12
137872.31
133860.18
129247.06
111259.92
110071.95
96946.781
92179.508
82006.208
74120.132
68231.833
60202.033
55061.454
48092.596
42707.309
36765.81
30025.856
23629.293
15580.146
4801.2544
-56090.576
-12244.366
-10417.409
8388.9011
14179.66
11919.136
13912.272
18681.512
11440.205
16913.045
15654.601
14629.623
15134.773
13323.708
13592.875
12873.985
12059.848
12508.288
10819.446
10995.646
11042.583
8921.9675
7013.6912
-140211.3
-140610.48
-182266.26
-160046.64
-153883.4
-155860.57
-130057.88
-126660.87
-108171.78
-100148.75
-90163.293
-79290.06
-71765.48
-61780.831
-55267.45
-47426.69
-40736.437
-34518.176
-28997.393
-22145.732
-17506.764
-10022.034
-8513.5988
236048.56
256427.06
204831.48
218578.13
211468.44
172070.85
157985.16
157135.5
166218.39
145316.2
174804.62
135648.56
163679.31
131947.03
131282.23
119799.4
135468.94
128289.48
123388.73
130278.17
111004.27
117097.63
110534.9
107040.61
98460.029
103620.37
102042.3
96615.865
99825.223
87851.482
85625.605
87173.03
83129.953
76610.124
81156.847
76149.006
71789.943
72617.639
69413.51
63846.021
65814.239
63142.173
57695.296
58519.232
56900.701
51085.18
53230.447
50973.223
46336.086
46680.629
45577.414
39574.345
41265.653
39528.956
34044.61
34725.487
34593.775
28349.96
32007.501
29452.592
21167.089
22555.605
21176.17
16219.009
15095.991
17534.838
5947.4305
2672.4355
3287.1443
-15094.76
-48187.686
-55357.638
5741.5406
5515.6298
-15800.509
23441.349
7160.1905
-14973.301
25491.117
3581.4567
-25026.3
18895.881
11728.703
2503.1336
19087.536
20088.146
-9410.7098
28512.693
15583.346
-4835.3407
14221.958
17527.099
-832.95293
22969.638
20595.449
-2230.5762
20354.875
17102.627
785.64094
17549.981
16829.906
777.04282
18452.147
18240.982
2372.2768
17293.669
16387.92
2294.2713
16149.945
15369.58
3222.4418
14453.519
15233.84
4080.1239
14350.726
14322.055
3643.9585
12878.415
12630.569
4463.9181
11192.44
12274.318
3651.2298
11395.296
10217.642
5586.9285
10450.364
9891.0124
2626.2384
8271.1583
4414.7631
3671.9848
9131.1257
9340.1299
5597.136
8353.5117
8861.6223
8923.0088
-174090.62
-223814.05
-267178.92
-118235.56
-107528.68
-175423.17
-114268.94
-188871.29
-190753.77
-151746.63
-138673.75
-162989.63
-110313.89
-143339.15
-151397.77
-104293.11
-134441.89
-145080.38
-102635.11
-121669.03
-129677.36
-87273.445
-113216.14
-123690.02
-79096.392
-103272.42
-110055.92
-73483.105
-94910.489
-98814.213
-65013.906
-83473.072
-89117.671
-57052.907
-74728.304
-78650.405
-50460.543
-68410.658
-70395.391
-45037.525
-59176.746
-61088.136
-38285.192
-52733.415
-53205.288
-33798.88
-45797.489
-46932.715
-28742.511
-40276.019
-39344.842
-24603.175
-33467.353
-33131.661
-19733.162
-28794.912
-27899.944
-16363.278
-23233.68
-21047.334
-12106.285
-18265.863
-15781.99
-6036.2427
-8834.1693
-4434.1542
-1313.1715
-6955.7928
-6087.3792
)
;

boundaryField
{
    free
    {
        type            calculated;
    }
    fixed
    {
        type            calculated;
    }
    traction
    {
        type            calculated;
    }
}


// ************************************************************************* //
