/*--------------------------------*- C++ -*----------------------------------*\
  =========                 |
  \\      /  F ield         | OpenFOAM: The Open Source CFD Toolbox
   \\    /   O peration     | Website:  https://openfoam.org
    \\  /    A nd           | Version:  6
     \\/     M anipulation  |
\*---------------------------------------------------------------------------*/
FoamFile
{
    version     2.0;
    format      ascii;
    class       pointScalarField;
    location    "1.46";
    object      p;
}
// * * * * * * * * * * * * * * * * * * * * * * * * * * * * * * * * * * * * * //

dimensions      [1 -1 -2 0 0 0 0];

internalField   nonuniform List<scalar> 
3969
(
-1039608
1487213
312.30764
-519.6302
-2068058.5
2846928.7
-1531.5784
604.69309
-870429.12
-618126.7
-296706.97
-23300.738
222029.36
530547.03
599048.49
1609.9853
2038.3904
1916.8338
314.58431
-1186.793
-1725.397
-1515.4667
-297006.3
-359288.76
-344547.23
-373526.29
-362188.41
-369317.82
-357233.97
-355440.23
-343701.67
-334090.02
-326305.93
-316718.23
-306464.04
-298182.04
-287882.91
-276256.08
-268408.89
-256277.66
-247749.36
-235849.05
-226532.58
-215733.37
-205730.59
-195963.02
-185138.97
-174766.67
-164117.7
-154309.48
-145297.96
-134914.68
-125517.1
-116002.26
-106277
-96424.456
-87370.095
-77577.072
-67880.169
-58928.202
-49247.911
-40623.798
-32360.549
-24364.117
-17482.893
-11053.9
-6266.4893
-2626.1424
-79.88661
363194.83
324800.1
371327.53
338193.68
372866.16
345913.04
355008.55
339830.71
337061.73
324707.14
317354.14
309417.96
298253.24
289282.02
279186.82
268097.72
258118.85
247023.15
236336.45
226671.13
214188.38
206133.09
193588.09
184976.64
173890.43
163974.64
152976.52
142862.44
133560.61
123342.54
115286.79
105189.99
96654.216
87033.145
78458.998
69095.699
60494.138
51762.535
43736.016
35562.532
27788.153
21733.297
15451.211
10707.259
6079.3503
2755.077
406.2338
-1510151.4
-1144218.8
-490360.04
27251.835
489645.18
998760.32
864610.94
388747.79
478664.51
304484.31
420665.11
376946.36
386998.64
377695.37
368580.05
362976.42
343147.89
349185.23
330979.28
328552.45
319698.27
305936.45
301238.43
285396.74
278192.43
264790.62
254634.58
244004.97
234078.09
223572.97
213532.05
204128.84
196145.5
185046.5
172951.69
163028.54
151904.76
140092.59
128951.29
117328.36
105602.08
94391.227
83281.316
70876.961
60619.362
51409.469
41552.153
32479.451
24712.409
17283.095
11099.416
5810.107
1762.0647
-1299.3982
-2346.3836
-1944.0128
-2286.9082
1446.9328
649.19088
2281.7042
2686.5126
-1319.4091
-2507.5772
-5088.7106
-9856.6859
-14988.163
-21338.861
-28386.728
-35495.642
-44107.058
-51735.552
-58865.879
-75011.082
-81179.078
-91078.441
-101896.96
-111717.83
-121496.12
-131632.59
-141225.63
-151301.18
-161478.25
-171296.99
-182117.69
-192763.37
-203880.13
-215460.98
-226782.32
-237790.76
-249980.74
-260854.68
-274095.25
-282388.82
-291150.01
-303808.46
-326092.97
-323506.33
-340222.61
-342770.54
-347434.98
-371157.22
-384158.55
-368816.96
-388917.79
-376648.42
-347157.02
-368923.33
-388876.41
-830582.17
-940024.08
-994084.81
-990474.42
-955256.35
-964482.71
-686392.04
1190814.1
1471564.7
1676122.6
1784769.9
1682787
1693291.6
1346293.8
141.93479
225.55302
-590.86148
-884.73558
-1139.5836
-888.46708
-899.71214
982.60714
1247.9755
1311.3244
1521.309
912.28714
223.43175
758.42652
-262729.94
-271420.39
-273118.25
-280978.25
-285375.82
-287721.39
-284136.89
-283754.21
-274969.55
-272620.62
-265029.3
-254795.05
-252662.51
-242135.17
-236633.36
-228847.92
-221986.69
-213425.08
-205349.07
-196866.88
-188936.32
-179701.6
-171450.27
-162827.75
-154902.08
-145206.94
-136339.39
-127967.51
-118584.29
-109411.21
-100577.31
-91334.322
-82344.376
-73756.278
-65186.572
-56824.834
-48634.514
-41324.997
-34152.197
-28169.451
-21808.925
-17027.164
-12099.569
-8675.1186
-5289.5019
-2455.4072
191.44439
-170332.65
-178261.64
-167330.4
-183149
-186818.37
-194985.81
-190771.52
-190326.66
-186620.28
-185106.44
-179683.11
-176695.19
-170245.2
-164325.58
-160490.02
-154040.31
-149306.39
-142765.88
-137369.01
-131030.91
-124334.89
-117577.77
-110915.33
-104486.04
-97612.398
-91784.391
-86168.858
-79181.203
-74000.657
-67984.555
-62540.531
-57096.306
-51989.217
-46976.899
-42074.319
-37340.705
-32712.336
-28857.088
-24402.025
-20629.826
-16643.091
-13432.319
-9931.4043
-7199.7837
-4456.8065
-1983.7445
-50.08436
-73098.745
-92364.623
-74263.436
-90330.009
-88424.291
-96442.094
-94778.513
-97025.919
-96004.489
-93375.338
-93977.814
-90135.401
-88774.817
-83324.073
-80292.814
-77658.688
-75809.787
-72840.867
-71230.451
-67919.001
-66399.651
-63722.113
-61155.419
-58172.129
-55786.766
-52557.505
-49422.831
-46844.029
-43804.005
-40490.608
-37295.864
-33981.36
-30628.957
-27270.671
-24246.055
-21060.775
-17981.92
-15326.864
-12161.67
-10086.024
-7486.9421
-5987.2518
-3652.5868
-2855.6151
-1404.7539
-550.53625
70.340048
9354.8992
-574.85467
12639.446
655.93227
6793.4671
2390.5531
8326.9711
3407.5234
6292.4265
1032.8161
4149.2251
804.01794
2193.3759
684.12615
-27.775831
-326.54506
-771.07235
-1232.7362
-1466.6869
-963.04257
-1524.6016
-628.6221
750.12697
752.97447
318.13188
515.39084
9.8791938
-185.359
-289.79208
-536.85902
-738.19227
-829.97343
-837.22983
-1028.3877
-1053.6696
-1241.9955
-814.41311
-837.19807
-1343.5999
-1686.8082
-1420.2409
-1275.3775
-728.83851
-933.30481
-116.73014
-238.17105
-212.66588
112718.22
94579.738
107841.76
105299.74
110761.29
109176.86
107956.46
104936.06
103134.44
96838.198
96518.531
89543.426
89199.749
82915.226
80343.372
76430.623
72299.835
69306.496
65103.906
62388.559
56572.455
50395.631
46540.401
40884.439
39562.148
38659.789
35023.685
32241.265
30074.122
27745.273
25400.087
23425.093
21191.395
19179.222
17108.784
15121.783
13731.161
11519.867
11726.798
10111.902
9257.5433
7546.0713
6318.6982
4683.3836
3612.8724
1993.1374
40.6468
205706.36
191321.9
202389.58
207648.98
210325.89
206907.65
206401.65
199568.28
198678.96
189365.66
188424.61
179670.76
175781.42
170066.19
163606.92
156880.75
150073.13
143865.91
136595.63
131078
122433.46
117168.48
105918.39
98508.009
91294.937
85263.293
79857.303
74340.884
68981.326
63751.28
59373.36
54344.707
49892.174
45374.759
41047.395
36433.878
32005.152
28147.655
24226.869
20948.058
17095.691
13582.218
10245.556
6883.8642
4474.7044
2030.6248
87.033205
334491
261160.22
304026.75
300633.87
306098.41
300581.37
299100.84
290782.98
288712.84
277100.47
273101.49
264767.66
256564.4
245786.62
236848.53
226391.83
216669.25
207205.09
198262.22
188452.84
180490.85
170354.48
161513.01
152891.48
143993.46
135737.52
129148.77
119911.29
111614.09
103544.49
95860.985
87864.376
80176.984
72659.65
65195.69
57739.874
50570.884
43434.67
37100.023
29785.208
24021.491
18281.082
13621.52
9137.9579
5968.5813
2859.596
934.72495
-588063.12
-582858.73
-608357.07
-602754.07
-610986.25
-602347.95
-537810.65
-405402.97
-493988.57
-444458.98
-470618.75
-462993.03
-452492
-420960.8
-203266.18
-242414.33
-194026.77
-219202.89
-197599.22
-201582.75
-216150.39
-41534.345
-21258.937
-9653.9444
-30408.063
-19911.834
10290.462
-60722.013
145882.28
140918.65
159296.82
148568.03
149659.41
154649.6
102763.73
417576.08
426807.31
426106.95
432433.62
444712.66
434670.93
409385.16
587194.08
505465.57
457265.3
464722.33
448468.09
411919.46
463289.9
506723.87
515954.62
578516.91
600460.17
606521.47
605314.01
482431.26
439357.63
490193.43
482969.31
489250.19
509108.9
494123.91
456574.88
364839.17
402739.84
420312.72
421058.31
416070.42
397407.11
410114.49
384836.44
404467.2
397545.01
413706.26
400352.29
399952.28
378939.99
377013.58
392855.11
405164.59
405502.02
403992.84
394528.2
391448.04
376440.98
367720.85
372552.59
378074.04
377474.67
370271.86
370305.42
362198.52
368243.58
372267.16
375709.14
375794.62
373607.75
375522.75
360235.59
353215.65
355258.02
357617.17
350961.54
356762.48
355019.07
347098.35
347534.4
347738.29
349270.29
350493.53
353482.3
356378
342810.61
336185.72
333932.23
337962.34
335988.68
337120.04
338560.77
332249.82
328145.26
325414.88
328428.76
328421.74
328957.25
337096.73
320703.82
317381.98
315992.18
321018.25
319003.98
316139.69
323284.22
312499.44
303754.21
308077.6
305557.73
310143.46
306827.16
316795.67
300091.06
294092.97
300581.18
298696.39
302546.44
299076.65
306263.15
290524.37
284028.69
289494.34
285830.33
289772.01
287050.24
295454.58
279665.25
272745.18
279753.97
277300.29
282752.44
280497.8
288055.89
267597.77
263804.81
269348.5
266736.52
271581.49
268659.33
275182.54
256852.59
253770.12
259241.92
256625.78
262865.9
259890.45
267120.29
245515.69
243190.23
248875.94
245924.69
252114.46
248820.56
256137.14
234268.64
233337.34
238772.52
236233.8
242983.01
239894.88
247110.83
223959.61
222280.36
228157.85
225217.66
231967.35
228930.84
235972.16
213020.86
212227.63
217748.94
215667.59
222439.04
219465.27
226748.06
202689.32
201330.28
207815.6
205312.37
211235.47
209157.27
215957.08
191543.48
192105.27
197071.72
194577.34
201571.59
199668.84
206505.58
180809.69
182478.96
184887.21
185461.34
190421.53
189645.76
196077.7
168936.86
172710.18
172763.85
176490.18
179986.83
181294.11
186646.85
160727.38
162499.39
163497.3
166126.93
168701.37
170028.19
175284.23
151028.39
152289.7
153424.67
155621.74
157853.32
160064.4
162857.81
140503.16
142121.18
142880.25
144372.3
146016.34
149494.99
151392.11
130782.1
131970.9
132958.09
134030.5
136155.03
139144.07
140513.8
120245.5
122708.08
122290.77
123641.76
124811.81
127836.33
129011.95
110891.53
112517.65
112028.47
113121.95
114074.43
117118.41
118233.89
100491.47
102779.05
101560.24
102733.59
103199.09
106385.41
107274.5
91075.178
92976.419
91531.705
92541.727
92705.732
95644.412
96105.432
81304.511
83160.483
81330.407
82093.503
81918.053
85285.729
85481.11
71870.858
73446.953
71347.367
72346.421
71759.539
73248.805
75271.876
63266.623
63027.109
62636.074
61128.442
62557.291
65751.27
64836.941
54085.459
55684.175
52430.662
53917.769
52043.939
54622.391
54934.028
45304.047
45659.949
43514.183
43908.755
43073.849
45410.713
45452.779
36822.562
37234.062
35434.703
35328.118
34570.278
36893.705
37031.469
29053.238
29323.518
27336.8
27133.262
26714.436
28631.448
28646.445
22172.685
22207.018
20283.156
20428.827
19643.802
21499.021
21581.993
15540.946
15246.999
13657.625
13563.689
12846.214
14735.601
14780.862
10451.794
9896.6236
8665.5664
8449.657
7881.8852
9498.2736
9398.0185
5570.9536
4784.0164
3797.9701
3426.1241
3038.4767
4361.4408
4259.6904
2339.639
1596.7094
1034.6332
665.65149
465.72801
1366.0304
1498.966
209.37695
-677.59033
-690.98045
-1262.9787
-1074.5793
-711.74363
-671.12707
2333.3823
2781.0228
2663.6339
2654.6577
2078.1059
2018.2055
1943.6302
4268.3515
4050.923
3489.6276
3779.3868
3240.1675
2754.2085
3277.278
2166.4048
2567.6209
2022.2181
1982.4394
1611.1511
1761.5992
1889.7976
571.02159
763.55067
700.31949
679.78545
196.96606
457.84947
97.089499
-1771.8349
-1407.5972
-2257.3807
-2207.9226
-2741.0199
-2551.5998
-2334.6463
-2622.0768
-2596.1362
-2504.5156
-2803.5654
-3203.0665
-2894.123
-2922.4208
-1910.6706
-2195.2931
-2148.304
-2570.5632
-2755.0528
-2380.908
-3012.2493
-376150.17
-383507.06
-442170.94
-426389.49
-444521.04
-420750.38
-409551.36
-414519.26
-427958.46
-454984.64
-456754.86
-456522.77
-424490.74
-414719.82
-402284.76
-415093.06
-424364.59
-429022.42
-427691.79
-399702.04
-401578.88
-383347.3
-405646.33
-413846.49
-423344.17
-415725.63
-400784.57
-400117.23
-385894.72
-392900.76
-397540.91
-402056.54
-399656.61
-388000.73
-377661.66
-369040.62
-378396.8
-385468.19
-383315.25
-382737.99
-369370.8
-371010.55
-369174.61
-370822.97
-374250.77
-372535.31
-378367.99
-368033.53
-374659.9
-352872.18
-355886.18
-362267.07
-351505.1
-359850.95
-351106.39
-352297.56
-350538.49
-352156.84
-354429.15
-350208.09
-357639.76
-345775.56
-355766.82
-340289.5
-337544.96
-340019.75
-334863.59
-341151.85
-332079.22
-339815.97
-332044.4
-329056.91
-337140.37
-327788.74
-336721.61
-325254.25
-333941.55
-319618.98
-321481.37
-321673.02
-315357.54
-320610.46
-312973.61
-321039.58
-314796.43
-308595.79
-313529.98
-306414.08
-312657.13
-304167.81
-304430.69
-301618.05
-301122.45
-300722.78
-297366.12
-299949.31
-294003.79
-299960.77
-292724.38
-290463.68
-288535.91
-288697.76
-288316.89
-285059.85
-289102.64
-285759.02
-278608.56
-280145.87
-274969.79
-279262.61
-272018.94
-275101.36
-273655.78
-269126.64
-268792.86
-266858.18
-267280.9
-262174.18
-264298.83
-264061.27
-257365.74
-259116.34
-254550.4
-255562.99
-250955.43
-252427.58
-252586.86
-247678.98
-248133.12
-243682.52
-245061.63
-240236.14
-241666.73
-243263.37
-236222.22
-237179.88
-232811.03
-233951.06
-228984.89
-230150.58
-232718.31
-225181.5
-226842.02
-221988.16
-223106.34
-218125.9
-219320.75
-222486.91
-214629.77
-216513.47
-211376.44
-212235.86
-206882.1
-208380.03
-212308.28
-203947.6
-206241.71
-200637.84
-201384.2
-196339.84
-198130.16
-201937.91
-193717.14
-195712.94
-190001.62
-190555.14
-185419.38
-187285.39
-192109.26
-182252.46
-185447.35
-179022.33
-179771.97
-174822.06
-177166.73
-181788.65
-171632.95
-175031.51
-168533.13
-168980.12
-164570.24
-166508.61
-170982.36
-161774.55
-164190.77
-158251.45
-158053.95
-153913.75
-156742.32
-161178.77
-151748.55
-153615.16
-148519.63
-147989.21
-144637.06
-146799.52
-149903.39
-140944.7
-143770.5
-138156.16
-137165.01
-134159.46
-136547.24
-139288.39
-132071.63
-133033.96
-128382.09
-127121.11
-124882.33
-126905.26
-128891.93
-121974.61
-123059.73
-118951.21
-117155.73
-115141.58
-117064.01
-117987.93
-112504.57
-112720.9
-109070.05
-106914.64
-105281.93
-107354.21
-107289.67
-102927.99
-102714.23
-99608.054
-96939.488
-96207.596
-98067.938
-96821.92
-93413.771
-92741.709
-90068.114
-87789.04
-87030.206
-88359.017
-86383.913
-84016.988
-82802.536
-80829.5
-77631.604
-77664.882
-78225.091
-75706.829
-74111.047
-73034.218
-70974.916
-68858.974
-69056.953
-69733.986
-66483.559
-65831.104
-63243.352
-62627.178
-59779.465
-58393.52
-61047.407
-55798.217
-56089.183
-54057.345
-52890.183
-51137.802
-50036.896
-52425.849
-46358.281
-46969.198
-44130.594
-44320.868
-41817.325
-41666.101
-43564.915
-37856.589
-38599.653
-36235.617
-36458.482
-34013.778
-34088.006
-35348.345
-29236.909
-30113.562
-27815.905
-28214.87
-26003.631
-26737.989
-27423.821
-21745.756
-22556.002
-20547.864
-21035.327
-19292.314
-20035.43
-20658.83
-15053.034
-15487.801
-13750.488
-14374.466
-12858.2
-13940.729
-14256.818
-9219.4171
-9406.08
-8221.1726
-8771.1276
-7830.6309
-8927.2897
-9024.2911
-4565.4501
-4620.8653
-3854.1313
-4159.6508
-3457.154
-4281.2849
-4503.7368
-1587.0526
-1736.2715
-1083.2994
-1404.0954
-1214.1414
-2053.399
-2259.1775
-209.71182
-482.21468
-248.3228
-485.47358
-193.07674
-742.67635
-547.24292
-444514.57
-291031.03
-298523.63
-287255.15
-306782.96
-313855.14
-303030.06
-302025.23
-298877.87
-293294.43
-284306.49
-276159.96
-266322.26
-257860.87
-247441.2
-239917.79
-228093.26
-218579.9
-209081.99
-198478.09
-188419.47
-177698.26
-167498.19
-157419.91
-147230.85
-137261.92
-126985.13
-117348.76
-107861.87
-98592.142
-89553.987
-80939.71
-72349.237
-64171.09
-57929.814
-48031.392
-42556.177
-36619.126
-29768.872
-24802.784
-20023.75
-15386.458
-11583.019
-8141.7863
-5177.7166
-2719.6304
407.57067
-270383.84
-235327.35
-178733.71
-203015.75
-243312.01
-219168.55
-238339.28
-221176.54
-228300.8
-212878.57
-215326.25
-202753.15
-196833.21
-188297.33
-182288.57
-174629.36
-166577.33
-156688.35
-150513.03
-141101.58
-133411.16
-125410.19
-117821.05
-109872.6
-102614.05
-93735.922
-89374.579
-82004.718
-75995.831
-70073.508
-64275.995
-58756.769
-53041.601
-48451.971
-42300.97
-37714.755
-33011.788
-27959.525
-23571.174
-19848.313
-15511.013
-11927.049
-8755.4495
-5914.3656
-3404.2952
-1085.3842
527.82408
-131191.45
-134513.32
-77870.405
-111811.41
-106384.26
-95417.128
-107959.44
-98807.329
-101602.92
-94656.734
-99892.141
-94244.002
-96997.781
-91634.963
-90268.531
-87397.969
-83582.479
-79001.431
-76374.365
-70286.121
-66682.189
-62103.187
-57612.55
-53278.015
-49184.338
-44775.078
-41323.763
-36511.107
-32507.447
-28849.426
-25193.058
-21844.77
-18931.827
-16002.552
-13216.112
-11245.093
-9252.502
-7554.6344
-5942.8858
-5322.0889
-3924.0982
-3267.3831
-2690.457
-2012.9443
-1481.1032
-1213.0523
773.93309
4781.5224
-24800.004
3274.2612
-16449.216
-8843.9097
-12206.001
-13877.138
-6.0495296
-11526.005
-5547.0744
-7540.4144
-5275.1346
-6643.7581
-9401.8194
-10990.04
-9397.3783
-9031.292
-8055.9731
-7379.568
-5717.1725
-5598.6036
-4541.2734
-3743.0657
-3256.5867
-1956.0222
-1249.6698
-563.28507
-253.17583
456.42924
283.4042
619.66347
-101.04281
-122.01972
-410.85431
-733.18134
-1067.4088
-940.12461
-1159.072
-1221.1238
-1454.4659
-1176.8398
-1156.8053
-1082.2464
-698.00105
-1075.8964
-201.47405
-69.961691
154592.65
84985.254
94182.067
73258.596
84754.161
75214.049
84816.441
82979.381
73074.351
82137.94
70115.873
78071.526
70738.914
76344.159
69513.932
70667.209
66600.779
65918.079
62921.261
61312.506
58636.565
56968.155
54543.763
52858.446
50480.574
49097.26
46257.044
43993.429
42045.577
39869.85
37783.768
35235.046
32847.785
29911.649
27378.517
24647.686
21757.797
18759.527
16328.561
13231.963
10729.453
8178.9427
6009.0359
3820.8311
2234.9008
556.95836
482.46771
237480.98
197726.83
172965.47
176760.9
185741.94
183554.15
186210.13
174086.61
178585.07
178089.72
176802.9
178227.34
168268.73
169034.15
160370.55
157421.58
150020.11
144844.98
138400.35
133465.67
128277.42
122685.01
117358.27
109718.04
102899.9
95146.12
90511.866
84711.141
79435.222
73649.415
68663.937
62885.72
57367.855
51894.221
46550.482
41287.43
35905.137
31059.189
26366.598
21561.383
17446.652
13496.194
9645.6603
6733.2064
3690.6029
1519.1873
-317.88986
324723.09
288910.36
291236.46
288663.58
307705.14
294986.14
300641.97
291263.76
291087.03
280205.77
280256.74
270395.78
261981.35
254819.37
245417.74
238908.28
231291.7
223075.91
216117.93
207260.02
199191.67
190231.53
181957.41
172563.43
164775.56
150737.7
143695.7
135891.8
128228.46
120866.19
113357.56
105244.91
97805.943
89782.712
81657.039
73912.151
65692.422
57826.863
49787.37
41834.272
34677.765
27091.542
20910.182
14711.763
9683.8569
4730.4697
2025.8176
-512441.77
-546528.1
-540692.72
-558577.69
-558490.25
-523888.32
-486312.59
-342523.34
-401039.72
-395592.48
-406187
-397427.86
-376812.24
-339641.51
-334381.06
-366185.96
-393722.58
-391060.71
-386307.36
-382396.68
-358635.85
-319503.54
-327255.26
-338995.98
-348082.14
-335346.23
-333857.91
-303965.81
-312130.54
-324191.58
-345009.36
-338126.44
-333529.57
-329956.09
-299791.49
-307248.98
-319548.49
-316184.44
-325430.54
-320278.76
-313226
-313569.46
-304050.18
-308981.05
-313162.94
-317858.72
-304448.23
-313735.67
-299321.01
-295456.16
-307879.28
-303362.73
-308557.3
-307127.86
-298565.81
-294806.22
-293372.81
-298420.27
-288388.34
-304306.9
-288882.55
-296398.61
-289025.24
-285253.82
-286711.96
-290894.12
-294379.82
-285666.29
-288810.23
-283336.21
-276034.48
-286487.66
-276597.03
-284575.7
-274721.73
-280369.55
-273994.88
-275370.07
-272146.81
-272495.54
-275524.68
-272214.05
-270705.03
-268079.94
-263625.01
-268314.64
-263602.5
-270497.16
-261428.32
-264233.51
-261235.66
-258187.49
-255570.46
-257894.07
-259095.33
-253209.48
-254106.74
-250911.06
-250422.92
-249543.58
-250400.45
-248258.73
-245332.67
-245764
-241517.77
-240866.36
-240280.8
-241918.37
-240553.02
-237381.95
-234137.28
-232390.71
-231355.17
-232293.91
-231286.67
-231950.4
-226355.93
-225680.84
-224120.95
-222892.47
-223746.76
-223579.28
-221033.7
-217563.27
-215833.13
-213037.74
-213609.53
-215624.48
-212464.55
-212588.45
-208110.74
-205751.88
-202666.1
-204678.81
-205607.59
-203761.98
-202682.05
-197977.77
-195515.99
-193000.98
-193685.87
-197543.83
-193750.38
-192946.63
-187954.88
-185814.97
-182474.61
-184382.68
-188387.53
-183725.53
-182682.78
-178082.23
-175558.17
-172790.44
-174040.57
-179092.26
-172962.33
-172732.37
-167633.14
-166117.92
-162002.65
-163835.02
-169292.91
-163072.64
-162636.97
-158342.94
-155911.83
-151974.67
-152664.66
-160805.02
-152581.61
-153487.39
-148072.19
-146853.7
-142241.48
-144264.51
-150555.53
-144060.93
-142512.73
-139829.9
-136470.9
-132913.69
-135230.6
-140469.58
-134174.44
-133492.42
-130631.68
-127851.27
-123263.87
-125186.54
-129419.21
-126067.62
-123199.21
-120845.45
-117946.32
-113675.75
-115309.6
-121770.36
-115176.66
-113671.37
-112173.06
-109287.2
-104985.27
-106958.58
-110371.09
-106665.99
-104608.05
-103349.24
-100344.88
-96101.74
-97394.525
-100925.25
-97064.386
-94809.218
-94114.382
-91336.611
-87333.823
-88504.318
-90912.054
-88214.4
-85840.107
-85486.277
-83185.894
-79250.383
-79874.174
-81413.517
-79218.614
-76695.883
-77234.095
-74998.907
-71185.941
-71420.07
-72061.947
-70410.197
-68047.736
-68543.067
-66570.516
-62654.123
-63088.341
-62710.991
-61938.229
-59413.931
-60720.711
-58530.024
-55850.138
-55001.766
-54403.153
-53908.415
-51599.382
-52418.61
-52209.727
-48797.347
-48135.55
-46569.287
-46139.87
-43423.344
-45706.8
-43076.653
-42340.438
-40612.839
-37808.623
-38394.407
-36745.452
-36683.511
-38091.142
-35715.07
-34243.797
-30882.051
-32233.441
-29693.705
-31700.697
-31256.415
-29540.954
-27790.918
-25015.264
-25698.477
-23964.824
-24699.719
-25130.252
-23709.903
-22138.259
-18664.932
-19913.512
-17549.093
-19239.654
-19300.904
-18822.638
-16863.069
-14278.872
-14885.67
-13314.893
-14516.694
-14625.368
-14267.75
-12186.583
-9315.7481
-10185.565
-8448.3182
-9611.9909
-9780.0402
-9964.8246
-8223.5301
-6334.0785
-6819.5731
-5362.9287
-6382.7245
-6373.7475
-6524.923
-4392.3934
-3006.0518
-3016.7916
-2076.1971
-2817.3547
-2771.8501
-3377.8735
-1878.1512
-923.99396
-1016.6283
-386.79447
-846.42262
-1030.3325
-865.64044
579.24277
1289.2417
1449.0411
1807.9577
1235.9542
1594.0018
760.51678
-336130.36
-337825.03
-369950.71
-361799.94
-374779.5
-340590.21
-340840.14
-244685.65
-310028.96
-316043.4
-331107.43
-327850.25
-301770.76
-282023.32
-252776.01
-238712.64
-269945.14
-259965.51
-270454.19
-241649.95
-239531.16
-214400.08
-233176.26
-248261.49
-246839.4
-250449.78
-237868.76
-211879.51
-225475.55
-231510.44
-247133.38
-239683.71
-248618.66
-234410.67
-221482.34
-215337.18
-220725.69
-229574.41
-224193.03
-225780.15
-224468.64
-214750.65
-213717.28
-221869.32
-235134.37
-227212.9
-233040.52
-228744.85
-215966.85
-211656.54
-212104.83
-219034.31
-211469.67
-219472.71
-210470.01
-211399.62
-207017.97
-208186.42
-221661.38
-214825.55
-216469.74
-214693.99
-209391.73
-200280.86
-203946.49
-211934.95
-199427.63
-207931.15
-203019.46
-203362.64
-197641.98
-199507.02
-204654.62
-198832.18
-204332.32
-201188.9
-196402.05
-192742.78
-189855.65
-201308.45
-190072.98
-198460.58
-189496.5
-194064.77
-185627.34
-186680.54
-195243.63
-183679.79
-190785.29
-184445.45
-183725.3
-180048.84
-180895.92
-186527.91
-176607.51
-183119.37
-177228.81
-174028.9
-173958.28
-176815.08
-177734.03
-171765.69
-176354.06
-170869.1
-167569.86
-168376.31
-168400.85
-169885.37
-164787.42
-166524.97
-162925.71
-158563.58
-161811.67
-162862.04
-163809.95
-157567.43
-159679.97
-157166.25
-153992.18
-155265.93
-155569.28
-155050.37
-150650.59
-151902.97
-148792.11
-144388.81
-149254.44
-148116.38
-148121.27
-143719.12
-144103.78
-141085.06
-137798.12
-141938.06
-140660.8
-140879.43
-136193.02
-136115.47
-133254.61
-130187.29
-135842.25
-133894.31
-133448.55
-128848.49
-128647.81
-126022.85
-122908.86
-129868.83
-126347.82
-125750.06
-121578.89
-121191.7
-118383.33
-115007.57
-123673.24
-118905.72
-118874.76
-114915.52
-114427.78
-110823.47
-108183.71
-117330.28
-112054.96
-112263.82
-108379.91
-107127.7
-103718.33
-101218.59
-110968.75
-105500.23
-105320.72
-101361.2
-100351.86
-96533.761
-94230.159
-104506.2
-99240.334
-97276.423
-96787.846
-92561.346
-89589.202
-88837.209
-97141.509
-92777.691
-91214.568
-87714.852
-86839.85
-82021.678
-80599.586
-91343.957
-86284.361
-84388.359
-82354.804
-80085.499
-76564.794
-74551.23
-84502.23
-79699.537
-78975.261
-75966.616
-74347.267
-70039.185
-68180.325
-78127.325
-74250.12
-71895.681
-70114.67
-67527.323
-64232.965
-61917.269
-71625.697
-68324.711
-66157.765
-64527.97
-61918.635
-58781.078
-56214.319
-65215.56
-62939.726
-60076.151
-59120.664
-56219.495
-53570.638
-50698.081
-59122.105
-57525.616
-54335.984
-53670.494
-50776.077
-48140.014
-44700.923
-52911.245
-52033.468
-48563.914
-48565.833
-45314.827
-42780.928
-40123.749
-46810.383
-46895.479
-43428.038
-43428.373
-40430.846
-38754.047
-35792.252
-41263.495
-41985.024
-37871.944
-38553.454
-35391.435
-33291.36
-30077.922
-35710.044
-36551.476
-32901.766
-33504.788
-30618.246
-28972.744
-25936.675
-30041.756
-31967.825
-27863.092
-28958.783
-26035.028
-24985.243
-22621.831
-25015.798
-27237.672
-23518.931
-24296.557
-21916.563
-21224.781
-17783.428
-20243.031
-22846.876
-18583.406
-19808.114
-17446.117
-16589.018
-14390.969
-16155.18
-18171.488
-14610.259
-15881.392
-13770.592
-13515.199
-11505.34
-11883.031
-14282.89
-10596.039
-12169.192
-10077.231
-10074.615
-8422.9641
-8782.2247
-10256.397
-7173.9715
-8522.7538
-6701.8476
-6992.0814
-5884.3896
-5387.2535
-6727.9447
-3950.367
-5344.3126
-3926.6478
-4451.8342
-3767.1475
-3015.6431
-3777.6557
-1597.6812
-2701.445
-1587.1167
-2124.2136
-1944.1166
-635.62798
-917.6983
787.53782
-78.625039
475.60168
46.88964
-172.65805
721.41343
850.76592
1930.4337
1348.1591
1383.9755
1591.1976
893.14285
-194836.14
-185477.84
-179071.01
-191975.01
-184693.6
-172931.37
-172882.43
-129641.37
-190604.84
-174855.69
-192132.28
-166952.95
-171918.42
-144753.73
-138132.25
-126319.23
-143467.69
-141799.32
-135616.05
-124639.45
-120798.61
-108646.82
-127303.26
-138812.82
-145542.78
-131462.69
-134697.72
-113138.33
-123821.78
-116278.78
-129943.01
-123714.29
-122101.8
-113176.44
-107402.66
-109627.95
-119631.94
-118924.54
-118669.33
-122577.27
-110694.34
-110081.08
-115870.24
-120147.67
-112152.63
-118417.28
-117588.83
-111595.28
-110005.67
-111286.85
-118399.99
-109724.39
-114635.72
-113257.09
-105008.03
-107971.87
-111260.84
-120903.78
-106270.03
-115034.5
-110992.04
-108730.81
-107642.21
-111051.2
-114707.66
-102151.16
-107639.14
-108644.54
-102152.31
-103778.94
-106752.61
-115391.88
-99382.715
-110654.15
-105994.52
-103187.01
-100737.93
-102635.95
-109369.57
-95667.669
-102925.71
-101375.65
-95804.585
-98977.657
-97233.174
-110924.53
-92379.937
-102084.75
-98893.122
-95393.81
-96165.835
-96468.458
-103202.25
-92355.776
-97499.305
-98194.305
-87675.064
-95339.533
-93853.706
-98049.792
-89223.231
-95175.553
-92528.845
-85716.535
-90153.317
-90524.329
-93118.62
-87995.858
-88407.948
-89581.146
-81444.63
-86653.316
-85516.999
-91053.797
-83289.227
-86804.664
-85147.472
-78943.854
-80869.541
-83310.277
-85584.671
-80668.267
-82090.956
-80989.981
-74306.637
-76105.568
-78197.334
-83287.818
-76815.023
-79055.165
-76319.345
-71171.293
-71246.898
-75504.508
-79355.79
-73516.356
-74719.355
-72348.717
-67110.623
-67208.037
-71236.935
-75985.785
-69401.961
-70992.792
-67779.947
-63780.843
-61632.155
-67769.542
-71677.344
-65991.592
-67008.85
-64223.03
-59078.48
-57680.385
-63999.675
-67992.286
-62176.471
-63720.128
-58851.863
-55622.058
-53168.757
-60373.237
-63532.654
-58727.989
-58495.153
-54431.987
-51514.047
-48357.315
-56958.527
-59612.987
-54676.784
-54627.11
-50362.345
-47914.698
-44503.488
-53853.989
-54089.068
-51452.67
-49606.59
-45886.258
-43947.819
-39937.517
-50321.979
-51051.747
-47295.342
-46888.587
-41529.737
-40912.229
-35641.452
-46922.94
-47993.242
-43435.602
-42706.219
-38632.582
-36465.237
-33361.721
-43442.226
-43311.473
-39568.53
-38014.919
-34635.913
-32284.504
-30102.496
-40334.957
-39177.335
-35816.857
-34433.048
-31266.502
-28997.635
-27128.144
-37069.741
-35037.828
-32062.507
-30707.15
-27501.785
-25551.81
-24485.783
-33753.323
-31193.528
-28385.462
-26971.897
-24003.512
-22348.36
-21318.742
-30610.852
-27162.336
-24639.715
-23245.828
-20647.255
-18857.045
-19300.809
-27218.478
-23505.888
-21219.103
-20118.161
-17439.195
-16672.576
-16981.302
-24288.122
-20060.6
-17989.583
-16607.413
-14609.02
-13301.513
-14465.989
-20944.91
-16737.385
-14590.714
-13873.952
-11565.927
-11296.411
-12603.411
-18234.713
-13592.641
-12102.662
-10895.173
-9492.8407
-8545.7535
-11013.623
-15080.914
-11211.047
-9183.555
-8848.9703
-6833.7297
-7042.2478
-9126.1972
-12919.931
-8416.7181
-7026.9401
-6381.3251
-5069.5779
-5410.5243
-7110.7865
-10644.593
-6723.2694
-5133.8748
-5179.6255
-3510.6613
-3906.3229
-5763.1291
-8264.4444
-3882.6549
-3581.6158
-2826.5074
-2026.5814
-2688.0273
-4693.8243
-6216.5374
-3475.6869
-2647.5828
-2271.7393
-1460.5296
-1932.8023
-3217.1065
-4389.7063
-1132.7612
-993.01348
-430.0045
22.416758
-607.25637
-2388.5691
-2843.2683
-1156.7248
-1084.1284
-792.30855
-280.22047
-1161.9614
-1713.8722
-1321.009
115.09934
173.79441
739.59436
788.29531
335.00923
-112.93916
-501.41292
-166.86157
213.92806
-109.30355
126.86284
-288.65854
-473.19368
718.30855
1656.7393
1333.1132
1314.609
1429.3674
1062.8519
554.05992
-10507.989
7130.3478
-131.73719
416.90322
742.90906
3479.4803
-12972.813
-55.658936
-11151.19
-11066.184
-21145.785
-11959.272
-16027.32
-7071.0628
-21823.742
3634.743
-7228.751
2591.0786
-3630.3058
1717.0673
-7511.221
-5843.941
-5107.4783
-19615.224
-15336.388
-14974.057
-21209.184
-876.75695
-11503.574
-12717.598
-20303.562
-5120.0427
-19995.471
535.94643
-10423.859
-8990.9673
-8716.9378
-14375.047
-15146.104
-15270.93
-15418.98
-9110.4951
-12138.163
-16245.18
-25802.572
-14766.625
-20633.129
-11336.943
-11600.693
-12578.795
-15774.328
-13181.795
-17682.189
-14591.78
-15069.96
-10733.638
-11740.69
-12044.558
-20110.398
-15540.327
-18504.392
-14531.455
-6506.3468
-7817.4252
-15280.743
-15525.163
-13386.88
-14402.038
-9875.8141
-8956.5161
-9687.3627
-12977.071
-14863.741
-12929.809
-13101.28
-12519.986
-7515.8957
-6931.3091
-12450.904
-12064.745
-11440.398
-11803.822
-10120.222
-6450.5948
-9796.4075
-11271.419
-12772.983
-11417.208
-12394.317
-9648.553
-4441.169
-7968.8528
-8248.4307
-14733.058
-10292.406
-7460.6768
-8329.4117
-1385.2028
-9035.3165
-12245.559
-8011.079
-10846.245
-6212.249
-7982.9754
-2851.5
-7441.7453
-10030.743
-7831.6295
-9680.9467
-4661.695
-6290.8745
-1501.8941
-8495.5432
-9112.8936