/*--------------------------------*- C++ -*----------------------------------*\
  =========                 |
  \\      /  F ield         | OpenFOAM: The Open Source CFD Toolbox
   \\    /   O peration     | Website:  https://openfoam.org
    \\  /    A nd           | Version:  6
     \\/     M anipulation  |
\*---------------------------------------------------------------------------*/
FoamFile
{
    version     2.0;
    format      ascii;
    class       pointScalarField;
    location    "1.46";
    object      E;
}
// * * * * * * * * * * * * * * * * * * * * * * * * * * * * * * * * * * * * * //

dimensions      [1 -1 -2 0 0 0 0];

internalField   nonuniform List<scalar> 
625
(
28681.764
24137.769
13573.756
-4530.5509
29401.295
22105.616
-4373.4372
10268.805
4577.4244
2779.8542
14602.004
-9790.7932
-15645.52
22248.238
34300.604
28420.187
28698.825
29128.978
26896.099
28252.711
26930.257
24189.394
22654.4
15677.586
9816.5115
802.05351
-8292.2316
-19814.392
-30214.741
-41861.06
-51050.14
-59367.917
-60233.878
-58712.203
-49369.844
-39674.846
-14923.619
41719.621
22583.422
31570.378
21653.492
12281.601
11359.098
117.12901
-1738.5311
-4114.9784
-4912.065
457.17676
6021.1601
17173.211
29842.6
45655.06
61185.47
76717.661
87858.656
95258.745
93829.211
84895.059
68525.75
37465.023
7025.1563
2390.2897
13966.167
48848.572
60672.664
29753.056
33595.209
29936.851
11436.44
10634.348
7599.271
2879.3157
4852.8509
4030.9612
12160.333
18748.4
30573.267
43693.167
55465.092
67657.29
74719.141
77629.151
73934.876
63907.673
47559.534
33025.987
15168.281
-13499.755
-9593.4695
-9305.661
-19053.719
-27519.647
-34148.068
-36925.394
-35572.82
-32612.125
-26941.685
-20887.486
-13940.946
-7997.5609
-1137.4109
4234.7586
10894.805
11058.028
14281.799
19513.064
19997.147
23949.511
20695.127
30744.309
29563.525
41473.168
20506.141
21486.405
19769.636
18974.702
16338.146
15336.188
-5546.2659
-4228.3112
-5409.7432
12108.935
13009.268
12064.529
12776.13
7446.7639
9297.4964
6617.9552
3694.1228
2555.0051
-1865.7071
-3897.1101
-5688.4869
-6564.6013
-4071.1634
-595.53843
6112.8995
14825.666
25207.993
35712.708
45612.892
52849.782
56932.279
54864.53
51282.532
39218.879
21603.196
6152.559
4194.7025
4866.7661
2255.1981
2263.3187
1067.7469
-1107.2918
231.61744
-324.91524
2074.5919
3805.7907
6985.2681
10546.883
14064.745
17264.284
19614.522
21040.546
20306.672
19253.297
13769.36
10113.182
2263.9717
-2816.8523
16231.715
13718.464
14527.578
14327.422
16433.164
15311.742
17831.347
15590.033
13926.802
11198.784
5289.975
-91.075022
-8988.2678
-18341.503
-29999.504
-41769.571
-54518.285
-64272.735
-72846.533
-72048.489
-65785.259
-50299.896
-20593.009
2453.6937
3047.6631
3200.4555
1649.3449
993.50874
2966.2362
8146.5241
7841.1129
8516.1159
44655.674
46423.303
46165.428
48354.573
43569.33
45196.358
30286.611
25600.761
33476.823
25732.889
27659.195
25056.133
21821.396
15613.978
24758.364
12430.11
14234.588
12884.303
9824.4586
4990.8701
10779.106
4902.8277
-1423.303
5752.4682
1483.6908
-1157.614
1719.4147
4207.3215
-2449.9061
4061.3657
4966.4977
1412.1825
4889.1036
13962.879
7914.5138
13033.91
22712.068
18601.109
23090.034
37051.837
31991.712
35626.476
51516.317
47607.303
51729.132
67163.785
63877.028
66598.069
81002.993
78305.719
80511.424
90778.387
88707.252
90625.174
95145.61
93857.405
94893.111
91843.744
90424.63
91258.289
80494.285
79954.092
80632.201
61291.841
62091.97
62840.484
37232.912
35921.251
37893.03
-10766.68
-9993.7831
-10241.098
-12201.989
-12874.568
-16037.833
21510.249
21303.075
19611.326
36426.612
31513.676
30796.356
35102.653
29896.588
31535.076
35341.061
32882.743
33528.839
29905.65
26295.092
25012.671
31760.005
29167.958
28200.773
28600.749
23140.066
24084.119
26808.763
25568.077
23750.103
25205.027
20892.45
21033.514
21151.949
19169.45
18054.303
15818.202
12293.017
14697.599
9874.4895
8635.1479
9162.2266
3226.8473
246.62028
3352.783
-6111.4704
-7381.987
-4128.0755
-14896.013
-17023.052
-12408.131
-24808.445
-26504.654
-21093.361
-34437.713
-36262.847
-30182.877
-42814.188
-44636.874
-37996.042
-48971.316
-50692.833
-44591.808
-51431.863
-54184.561
-47068.304
-49021.387
-54356.879
-46470.579
-39875.902
-45223.489
-39406.867
-32319.921
-33237.099
-30810.507
-12218.46
-12555.973
-11620.008
22216.664
17478.263
14232.265
12717.69
11073.269
5438.7857
5549.405
322.04092
-1025.8631
-2546.8637
-479.05808
2645.2201
8046.4812
15554.287
24652.677
33718.862
41803.217
47780.308
49738.868
48451.989
42406.619
30843.116
26557.755
2522.7831
11590.599
1698.2196
8012.5304
5242.1133
7493.0546
7921.4899
8847.6876
11223.52
10475.196
10422.924
9864.921
6645.8272
4213.7092
-73.898641
-5292.8017
-10813.821
-17106.638
-22705.803
-27019.557
-28796.311
-29351.834
-15882.594
20690.833
10413.137
18792.276
12672.86
21389.848
19390.961
18831.549
21087.45
14733.924
12896.316
4286.3317
-3515.7236
-14666.455
-26730.057
-39843.482
-52873.234
-64297.347
-73005.095
-76219.087
-72925.448
-61968.837
-42194.573
-15994.714
16961.462
15701.465
15655.642
14728.064
14733.26
13901.394
13587.26
13572.334
13938.596
10779.646
11026.371
9578.4557
9632.3022
8954.2103
9250.6499
6649.0837
5713.4478
4329.3424
2858.1024
2591.4429
2442.7357
1377.014
613.1117
-625.39012
-914.52506
-3062.7946
-3236.9399
-1257.5512
-2262.1266
-2705.5903
895.77138
-1240.4729
-1994.1759
4212.2961
2575.0417
2785.0629
11575.634
9258.3359
9209.7613
20367.371
17843.128
18134.629
30732.126
27851.627
28438.066
41265.789
38554.491
39074.535
50624.9
47772.109
48502.577
57225.58
55317.921
55255.655
60065.995
57637.949
58948.065
54621.771
59657.583
56655.244
50200.602
53015.619
50229.998
38954.751
37752.908
37448.361
23958.642
24564.391
24971.842
4008.2259
3974.575
3483.8812
7410.4643
10696.907
10878.932
3907.1036
1032.6864
2340.0134
4527.4769
5827.6786
7349.4562
5086.1136
1811.6721
3007.6933
4165.052
1966.2176
4293.5012
4764.8995
2411.2895
4305.2867
6277.7588
2820.6886
4061.395
5717.1524
3851.5772
5889.2245
8052.9109
5711.1485
6956.566
8537.8473
6483.2533
7404.9895
9377.5159
7873.0397
8590.7659
10250.679
9192.006
8508.1858
10018.084
9133.3654
8070.0254
10008.815
9259.4271
7417.2537
8576.9172
7554.556
5463.2449
6851.1545
5487.9138
2992.1741
3484.7845
1360.7282
-559.91279
494.20814
-2319.9002
-4270.5398
-4824.2286
-6639.8985
-8784.7837
-12484.384
-2437.2204
-10373.691
-12938.909
-15832.724
-16427.122
-11654.472
-13244.72
-12616.98
17815.871
18296.692
19560.674
11339.675
10771.312
13743.26
15085.929
20425.031
20345.607
16470.991
15144.156
15767.661
16324.151
20400.169
20432.863
17763.316
19584.251
19753.036
19556.459
20646.764
20383.731
16367.114
19367.316
19833.12
16269.025
16843.618
17616.649
11441.271
13234.258
13418.086
5780.1786
6189.1295
7528.4672
-991.60736
-1321.2315
-71.254544
-10537.327
-12068.937
-9239.6469
-20709.001
-23281.5
-20165.85
-32426.871
-36434.047
-31975.854
-44609.418
-49040.361
-44298.34
-55934.476
-61194.797
-55784.689
-65626.832
-70035.923
-64949.807
-70847.642
-74527.396
-70299.714
-69728.495
-72667.564
-69124.195
-62428.427
-63360.062
-61789.081
-45199.427
-44835.029
-44180.317
-18132.181
-18001.518
-17052.838
)
;

boundaryField
{
    free
    {
        type            zeroGradient;
    }
    fixed
    {
        type            zeroGradient;
    }
    freeTop
    {
        type            zeroGradient;
    }
}


// ************************************************************************* //
