/*--------------------------------*- C++ -*----------------------------------*\
  =========                 |
  \\      /  F ield         | OpenFOAM: The Open Source CFD Toolbox
   \\    /   O peration     | Website:  https://openfoam.org
    \\  /    A nd           | Version:  6
     \\/     M anipulation  |
\*---------------------------------------------------------------------------*/
FoamFile
{
    version     2.0;
    format      ascii;
    class       pointScalarField;
    location    "1.85";
    object      E;
}
// * * * * * * * * * * * * * * * * * * * * * * * * * * * * * * * * * * * * * //

dimensions      [1 -1 -2 0 0 0 0];

internalField   nonuniform List<scalar> 
3969
(
3595.3468
-2329.5931
48579.375
-2593.5807
4122.6222
1073.7396
2826.3615
41434.636
1226.5924
853.46385
-333.66753
-170.2413
-824.99615
-2788.8526
-2908.9603
28487.987
11729.467
16383.089
27724.213
41612.866
50114.033
45199.259
2033.7992
1944.5159
1373.1273
1453.9326
1972.9619
2138.475
2585.0239
3540.4898
3321.4996
4258.732
5402.0391
5145.2288
6748.5969
6762.3802
7896.964
7441.4487
8424.4246
7888.6837
8048.2778
7115.8854
6316.2112
4864.4185
3182.4332
1227.0538
-1519.6512
-4167.3162
-7601.6921
-11443.056
-15144.41
-19517.34
-23932.153
-28268.719
-32581.699
-36722.177
-40046.436
-42655.326
-44382.364
-45584.372
-45137.887
-44200.846
-40470.555
-37367.936
-29925.671
-24511.248
-13960.421
-5617.8586
20260.271
4426.6169
-4878.1903
3654.8445
-1438.0314
2276.9252
-1208.1613
261.59287
-1214.597
-1668.397
-1956.8734
-3622.6668
-3742.523
-4841.7856
-5141.3261
-5651.1111
-5737.4329
-5337.0495
-5221.693
-4214.6823
-2874.4865
-1151.7411
1316.698
4276.1632
8514.7574
12716.437
18455.924
22150.772
29121.909
35846.301
41675.793
49596.101
56227.902
63710.627
70163.21
76577.472
82486.075
85999.144
88989.677
90691.479
89960.313
88600.156
84433.269
78496.842
70703.08
62313.997
52489.255
33152.117
2246.4881
1093.1362
-173.90942
378.85997
-433.79044
-1328.151
-1920.1615
5013.7966
9487.5605
-11831.782
5280.3334
-416.97144
-933.73841
1481.7466
-3691.8701
996.10493
-4936.8083
1259.5388
-1691.4159
-643.82401
-616.81824
-2291.2517
-812.16136
-2008.797
-914.3417
-411.74597
510.23602
2202.3326
3507.1939
5890.8739
7631.2464
11338.418
16418.445
22680.694
28267.635
34540.479
40666.002
46702.765
53144.156
58829.753
64050.203
67957.448
72966.852
77044.778
74464.086
73877.018
71932.602
67748.931
63300.019
56693.972
49540.394
41618.491
32156.185
36968.724
46211.726
45997.793
41778.139
33428.037
22802.455
10858.635
28085.363
20599.8
17586.702
13787.433
6430.9035
593.2936
-4599.4718
-8933.4095
-12430.607
-14846.966
-16705.157
-16662.273
-17506.834
-18866.193
-16792.759
-15821.379
-14195.618
-12502.345
-10546.679
-8812.0206
-6735.4993
-5256.2274
-3387.0144
-2532.519
-1291.6112
-468.32375
416.15679
982.74816
1410.608
1925.329
1871.2587
2530.6478
2348.8963
3726.1223
2001.4273
2484.9887
1775.329
2393.4318
1177.8867
2114.9432
1622.9533
2369.2118
-227.83287
3270.1907
-899.27176
3690.495
-994.69275
5509.1886
1861.8406
2237.2651
1554.7927
2573.0787
1909.1862
2247.6531
-85.256439
-2664.9115
-1772.5077
-2843.1735
-3144.123
-2138.854
-2089.2592
-3613.5928
-1077.7129
-639.90778
-742.37956
-619.03419
-800.11441
-636.03986
410.19801
48200.818
47352.252
47424.676
47530.591
47475.866
47579.076
46101.456
4466.2287
572.38117
1949.4488
858.46421
99.996541
856.00297
-1040.7238
-8.2593976
-1472.2237
-831.469
-1384.705
-1752.3985
-1419.8355
-2007.7852
-1952.6678
-2295.8156
-1665.0673
-2389.9382
-1964.445
-2515.013
-2451.4189
-2865.4038
-2847.2554
-3453.3675
-3577.1818
-3778.3468
-3966.4937
-4013.4643
-3432.8985
-3156.6656
-2373.1988
-1296.4777
-388.4934
1200.967
2910.945
4473.8567
6847.4579
8840.2626
11539.029
14221.247
16989.618
20252.812
23478.913
26085.326
30675.838
32780.944
38545.108
1712.1048
423.2827
612.84364
40.463932
-92.408494
-11.564547
-980.82527
-764.31947
-1930.8895
-1981.1298
-2719.7389
-2989.7134
-3689.8889
-4173.4062
-4399.3926
-4706.0256
-5049.5305
-5408.6856
-5265.9423
-5247.1895
-4794.6633
-4105.7809
-3531.93
-2408.9373
-1066.0051
170.88705
1918.5595
4018.201
5950.3794
8401.1192
11010.043
13528.043
16239.667
18944.544
21445.653
24080.195
26758.691
28461.429
31171.516
32369.442
35146.737
35589.455
38111.256
37797.041
40391.376
37942.433
34368.519
1420.8226
-891.21759
808.61169
-837.67252
-646.40302
-1098.0212
-1046.1599
-1284.001
-1523.563
-1550.6152
-2334.3209
-2336.9519
-3288.3956
-3234.4912
-4370.2983
-4667.1529
-4708.1946
-4743.3934
-4187.3079
-4102.1991
-3423.1951
-3189.3554
-1851.1909
-404.77108
1277.7514
3405.1679
6497.6845
9073.9767
12822.99
16538.873
20237.365
24318.637
28116.739
31998.48
35637.885
38975.666
41976.901
44731.283
47071.993
48390.257
49067.711
48839.152
48430.342
46132.751
44962.224
39559.333
30691.739
518.82517
-612.98117
225.80431
-215.5725
-505.39867
-410.83638
-1124.0755
-2116.1513
-2114.9945
-3903.3928
-3942.5406
-4323.0723
-5280.646
-4700.2849
-5817.2017
-4627.7853
-5340.807
-4406.884
-4382.6265
-3538.7138
-2248.7157
-258.32193
1533.3358
3005.9071
4671.6262
6930.0071
8758.2432
10914.672
13282.982
15532.979
17995.33
20548.726
22856.672
25516.275
27643.206
29953.207
32058.33
33686.423
36538.282
37931.84
39344.933
38700.087
39240.725
37140.163
37384.176
32189.175
26689.671
505.85739
-2222.1774
-216.21367
-2161.7044
-1545.7816
-2502.3177
-2249.0719
-2936.1889
-2081.0443
-3156.5957
-1063.2277
-2286.6744
-1264.2808
-1619.2732
-1327.6526
-1131.0844
-1083.1286
-627.98435
-435.30506
31.737974
229.33447
721.54196
1270.1231
530.40665
-102.13735
-1263.508
-2433.9252
-3329.77
-4424.6872
-5497.1803
-6620.5642
-7506.011
-8562.615
-9135.6445
-9858.9866
-9971.198
-9881.6556
-9000.9247
3323.215
19590.531
19677.241
21134.88
21917.217
22597.205
23193.686
21672.036
26243.097
557.73335
-2819.8623
-613.9095
-534.17251
-93.642836
670.23891
1242.4545
1305.0605
2916.8572
2452.3363
4214.6848
4110.163
5661.1379
6209.1143
6617.0734
7564.9439
7534.4388
8056.2391
7842.1162
7647.9819
7452.1483
6269.7754
3972.5033
3361.4961
1715.0534
177.0151
-1191.9425
-3269.9473
-5538.1481
-7558.1491
-9558.3211
-11660.962
-13308.551
-14498.269
-15964.511
-15815.859
-16145.346
-15560.768
-14152.197
-8567.1679
-8248.3825
-5918.1302
-2611.0407
960.16192
5460.7379
11134.746
28279.336
25.521475
-5085.8538
-2153.6498
-3011.321
-2533.8207
-1795.257
-1096.9113
-895.79402
1362.3583
602.08334
3388.789
1954.1769
4015.4831
3219.4802
4328.756
3927.9637
4211.0245
3796.9307
3292.9799
2637.7747
1150.2387
248.45586
-1906.8473
-3523.6241
-5642.277
-7055.2391
-8144.7958
-9349.0889
-10483.062
-10862.492
-11474.722
-11666.757
-11647.8
-11159.626
-10735.221
-9046.6867
-7921.5732
-4701.7778
-2697.0756
-9626.086
-6903.069
-713.02412
5874.1468
13017.473
20694.586
30014.932
42316.816
357.12411
194.06552
-192.85047
-217.95125
77.73124
477.04582
468.60606
546.91724
822.73745
369.17047
706.44145
658.07599
996.59865
520.17357
-360.71006
-586.17154
-901.68667
-788.46221
-849.43556
-723.50221
-746.99659
-184.45788
-406.78541
-305.39834
-319.88962
-259.94228
-7.9580252
13.118054
-740.13521
-1010.4357
-917.99344
-1027.2443
-1004.7831
-895.2858
-592.90615
-2210.5937
-3077.0891
-2738.6349
-3234.1077
-3096.3343
-3115.2603
-2534.6797
-2586.7493
-2943.9901
-3359.6899
-3783.5031
-3819.0242
-3670.8332
-3454.3528
4107.1909
6353.4886
6700.5964
7887.3792
7780.7702
6450.9501
4649.9121
2847.6049
4669.55
254.21346
-1362.9999
3254.169
880.40414
4890.3698
-3452.5344
-3194.7583
406.27039
-1229.464
-2692.6517
-3565.4464
968.42108
2737.5301
3326.9405
236.58632
574.32018
1107.7382
3011.6577
633.60666
-100.94155
-66.590717
1820.1901
828.00308
491.08137
-225.80135
2577.662
1927.2873
123.83844
-967.61677
-565.08962
-1219.1318
111.61018
-771.03076
417.86682
-352.89583
922.25462
109.51415
572.8122
632.67072
2241.2385
521.2168
-263.3495
-384.23541
-1041.1846
-2526.7624
-1891.5631
-2291.4371
442.0368
-1216.509
-1332.4634
-1685.3091
-235.73042
-897.5096
1585.2653
-1361.8366
-2076.938
-2818.081
-968.75651
-3178.0405
-3212.9143
-2957.393
-423.81527
-1911.458
-1114.5492
-3986.4723
-2530.4235
-3791.7201
-351.64417
-2503.2099
-2098.3928
-3560.252
-1892.8105
-2534.4439
-5137.8765
-1373.8241
-1792.9906
-3912.6713
-3250.6224
-4987.3713
-4760.2575
-4693.2538
-2767.2242
-3445.9188
-4246.1898
-2959.8221
-4704.305
-2789.0856
-5299.8411
-920.02889
-3115.7594
-3514.4917
-4381.9949
-4973.0789
-5090.3633
-6246.018
-3304.2304
-2988.7393
-4719.8374
-3731.7425
-5185.7435
-3832.2623
-5593.5185
-1810.1502
-3524.9937
-3992.9332
-3764.55
-5548.6658
-4275.0133
-6250.0394
-2796.916
-2495.9452
-3843.2893
-3223.1078
-4733.9572
-3422.7817
-5348.1163
-2060.0065
-1702.5124
-3336.596
-2232.3772
-4398.711
-2880.2757
-4845.9598
-1237.2098
-437.72369
-1823.4219
-1115.6633
-2735.7142
-1374.4783
-3305.409
-296.98659
1721.9585
-190.41726
848.54187
-1168.728
127.82408
-1839.2278
1472.7266
3967.3181
2234.5916
2878.865
1035.3048
2518.6082
466.51264
3503.3715
7370.8371
5215.5563
5814.5591
4239.8149
5511.2093
3564.5909
6458.6384
11057.893
9057.5916
9235.6493
7875.9501
8941.658
6649.0393
9196.386
15468.967
13908.739
12619.415
12856.454
12786.908
11594.068
13923.794
20890.926
18573.491
17820.898
16913.967
16004.076
16527.298
19533.823
25259.096
24138.88
23551.704
23297.057
24131.11
22990.16
25598.379
31547.412
29492.066
30384.923
29058.546
29437.192
26924.188
31491.296
36131.57
36554.816
34974.928
36417.537
35522.881
35584.266
37704.967
43796.835
41594.647
42721.716
42730.158
42750.135
41661.657
44341.45
49174.612
49518.587
48776.5
50214.908
49159.908
49116.562
51018.447
56790.922
55507.375
55724.65
56932.127
56301.891
56281.285
58028.823
62470.359
62217.109
62109.036
64036.602
63028.802
63379.418
65054.886
68944.971
68395.934
68480.083
70238.265
68893.495
69634.374
71253.257
74053.234
73809.248
73497.833
75770.976
74886.691
76133.945
76468.9
79362.259
78505.271
78438.43
80522.973
78612.895
80364.75
81399.022
81066.503
80810.794
81143.181
83079.211
82601.946
77383.328
79160.198
78135.549
76841.497
77530.756
78894.551
77868.265
86473.689
85698.24
84208.596
83451.903
84147.379
84889.993
84240.749
85115.457
86458.45
83639.556
82801.157
82166.121
84017.696
82452.867
83936.367
84907.86
80566.998
79323.308
79567.18
80308.356
79503.886
80556.595
81025.332
75984.777
74865.816
74414.216
75668.597
74480.466
75660.579
75941.419
69519.237
68580.78
68859.863
69317.62
68475.279
69519.296
69411.371
61656.197
61363.053
60901.353
61492.889
60685.066
61782.777
61216.343
53139.538
52675.937
52600.491
52920.651
52518.961
53301.794
52395.559
43244.624
43481.03
43103.082
43558.95
43060.555
43658.292
42474.786
33905.927
34046.426
34009.051
34043.454
34190.28
34313.819
34388.192
23621.372
26336.439
26318.733
26476.914
26371.786
26290.791
26254.77
6336.4942
10321.585
9888.7689
10015.781
9730.8765
11275.875
8731.7956
19867.007
19768.542
20166.471
20115.798
20059.69
18592.117
18570.89
29422.794
29833.255
29599.893
29833.337
29132.467
29936.255
28406.733
44214.008
50444.031
46810.793
46375.416
46973.417
46214.312
45052.679
52935.092
51486.791
50347.748
50731.865
48346.931
50457.584
48052.693
44696.92
45934.189
46133.319
45905.016
47902.127
46233.098
46144.289
1819.9935
3023.8956
2707.9039
2469.9664
3291.9312
3802.5845
3117.3502
659.73753
346.55327
1371.9268
2386.4951
1607.9205
649.70692
1568.8785
2749.496
3427.0703
2708.4501
2254.5376
4519.8054
3103.6082
4771.6062
1051.4828
826.62121
1029.9286
2061.9592
1115.4842
520.10163
1577.0109
4332.9294
3402.3969
3964.8733
3673.1374
4714.1748
4467.8158
4746.7045
1164.3585
1335.5376
953.67271
1064.8548
1070.0056
-186.73326
1435.6603
4980.5639
3850.7655
4208.841
4895.2876
4537.6444
4952.411
5064.5277
2270.3848
2282.7814
1802.1037
1521.0942
1715.8237
1550.6152
2279.3975
4546.218
3907.1836
4375.2213
4063.2671
4852.8244
3434.0012
4671.5143
4689.5774
3543.4905
3697.3305
3523.0088
3372.0844
3285.7945
3387.5043
4664.4344
4574.3675
4560.9998
4596.6671
4615.0717
4065.8509
4264.3707
5632.9774
4749.9675
4653.1379
5202.1665
5005.9893
4924.8222
5160.4663
5897.5279
5167.8022
5867.7033
5061.897
5967.573
4614.8537
5447.2334
6344.1829
5894.3254
6028.4117
5919.0769
6132.8691
6190.2689
6250.0085
6663.2679
6103.644
6709.6979
7135.2244
7419.476
5609.6906
6233.3071
6981.0474
6179.8839
7036.2684
5485.7917
7204.9639
6555.1515
6213.2132
7155.238
7249.8871
7135.7331
7337.4759
7789.3311
6612.5657
7160.4232
7543.4346
6489.4492
7393.2919
6658.9539
7436.336
6551.4402
6722.1054
6774.1372
6765.3135
7017.854
6396.8286
7638.8718
6395.4774
6794.1596
6579.4087
5945.2365
6353.611
6079.0838
6927.3813
5771.0359
6225.139
5434.6448
4954.298
5718.7167
4984.6307
6240.5912
5168.8259
5746.4934
4383.1181
3907.3864
4350.2238
3887.5279
5095.0885
3828.0288
4825.6027
2903.9875
2045.7983
2896.6765
2251.9999
3464.8852
2461.4888
3970.577
1355.0753
418.6501
1096.65
386.88155
1713.1786
908.59635
2817.159
-616.18417
-1798.6902
-1087.9724
-1668.876
-426.50195
-1257.1076
1298.6418
-2579.3234
-4308.4067
-3216.5681
-4055.4003
-2820.8859
-3373.6357
-220.91085
-5259.0717
-6767.9941
-6100.3284
-6852.6197
-5630.0353
-6200.1815
-2501.455
-7976.592
-9863.045
-9201.2806
-9615.6791
-8474.0349
-8998.2178
-4717.0713
-11516.624
-13502.714
-12055.6
-13324.341
-12051.877
-12566.099
-7843.4484
-15097.537
-16466.199
-16133.661
-16848.75
-15533.355
-15988.047
-10902.057
-18687.347
-20397.516
-19640.47
-20336.357
-19173.499
-19706.236
-14170.053
-22391.997
-23782.072
-23298.424
-23919.393
-22985.035
-23355.759
-17483.035
-25886.922
-27141.502
-26827.613
-27519.636
-26614.329
-26749.365
-20609.653
-28940.27
-30121.084
-29973.61
-30242.495
-29453.526
-29657.865
-23266.384
-31468.835
-32773.112
-32595.503
-32834.105
-32693.792
-31999.232
-26190.438
-33339.75
-34414.195
-34190.153
-34838.715
-33962.942
-40679.197
-33803.599
-40986.238
-41644.647
-42150.836
-41769.352
-41680.125
-34658.328
-24936.449
-34077.22
-35584.542
-35785.012
-35655.036
-35067.352
-35994.63
-29164.863
-33745.24
-34581.695
-34677.026
-34660.348
-34568.154
-34534.226
-27235.474
-31803.941
-33204.051
-33364.325
-33116.19
-32937.721
-32599.223
-26044.755
-28501.704
-29513.306
-29311.883
-29177.59
-29209.445
-29247.429
-23328.55
-25130.881
-26217.219
-26170.686
-26279.462
-26146.304
-25663.73
-19635.573
-18699.514
-19265.165
-19454.052
-19133.214
-19153.367
-18975.695
-14552.956
-13635.265
-14604.375
-14455.143
-14519.416
-14642.393
-14345.818
-9279.8661
-4489.9424
-4576.763
-4769.4453
-4676.8008
-4814.8545
-4103.3859
-663.46053
2337.0919
1995.3566
1931.8742
1775.811
1971.1013
1991.3814
3985.9773
20316.388
20510.981
20080.435
20240.685
20212.819
20273.374
20565.264
5967.2586
960.96758
600.79584
-487.48328
126.02119
841.72218
-2059.1955
-249.40205
-2518.0997
-2118.0102
-3163.3338
-4606.2131
-4888.6275
-6257.8694
-7181.8186
-6474.3696
-7555.8511
-6854.0363
-7245.334
-6304.1292
-6090.8148
-4815.6387
-4091.1338
-2659.9608
-1621.5827
447.01128
2575.964
5094.6236
8220.4682
11665.58
15660.624
19714.598
23891.927
27790.031
32223.346
34722.488
42717.058
41204.718
43332.4
44762.704
46105.279
46670.358
46726.647
45922.055
44762.827
41124.48
47543.04
4000.1738
2813.3609
-112.61154
247.79527
2343.5965
-1716.595
878.24436
-1026.4652
-947.72862
-1358.9822
-2459.914
-2439.9535
-2880.5949
-3513.2728
-2896.6428
-3430.9539
-3061.6732
-2910.307
-2168.5056
-1453.5125
-333.34345
901.93625
2339.8433
4194.8058
6109.3658
7487.0259
9531.9794
13836.083
16445.223
19175.173
21581.257
23850.142
25716.611
27717.835
28791.528
30457.828
30378.613
30800.018
31331.824
30284.714
29860.69
28353.617
27203.228
24660.94
24186.732
19096.315
30482.713
1279.2251
-231.49366
-285.86312
-564.18946
-1318.1472
-656.88402
-1863.7687
-1296.7959
-1632.1432
-1458.2686
-2163.0769
-422.30049
-538.35469
1489.0613
2433.7789
2431.4511
3421.8196
4081.1532
3831.7809
4846.3875
4554.1373
4912.5004
4787.7497
4547.8926
4421.7757
3818.381
4133.789
2778.5927
2780.4656
2152.9077
1884.2039
1340.3726
1230.5796
919.69255
766.00836
1009.5177
1075.6347
1709.1232
2398.4292
3253.6787
4482.8948
6220.277
7618.5815
10263.828
12572.725
15405.103
23241.105
245.23803
1154.2371
-1533.2049
1331.0702
-2023.5144
2169.595
-3386.7697
2962.2006
-2568.4077
1110.0145
-81.685533
99.094876
7.2981632
5868.9814
4311.2656
5131.9754
5459.843
4887.924
5260.0874
4828.7901
4482.4748
3784.6473
2985.1244
2368.8092
1379.9299
647.12347
-737.77454
-1828.1832
-3286.4258
-4673.5688
-6011.4392
-7300.465
-8227.2306
-9376.7952
-9772.7948
-10162.149
-10210.303
-9935.273
-8750.0822
-7788.7671
-5546.4387
-3576.3447
138.25673
2994.8384
9089.328
11689.284
19481.296
552.22813
-378.86217
258.12135
67.294283
771.00837
620.3761
214.50082
4481.6775
-84.033719
6023.964
1363.3872
5799.2007
4144.0643
5985.555
5569.0782
6639.2581
5958.7717
6283.724
5612.054
5281.4543
4348.9467
3355.0833
2452.0732
778.26666
-1298.9938
-4058.0473
-6543.3183
-8921.2475
-11173.192
-13563.331
-15826.771
-17858.239
-19797.541
-21123.273
-21866.798
-22472.218
-21945.492
-20549.601
-19025.756
-15439.974
-12128.432
-6506.8247
-1378.956
5955.6251
13161.913
21243.596
23495.473
-1166.5461
1375.9775
-2341.0249
2956.6888
-1365.4692
1928.1834
2613.1329
1295.9941
4140.6216
3431.0203
2745.102
5835.304
2263.2832
5557.7788
4143.1021
4632.7811
4733.0352
4374.0952
4534.0437
3820.1363
3552.3554
2710.5736
2164.5857
1088.0725
-220.35844
-1841.014
-1315.0902
-1917.9885
-2021.3461
-2333.4
-1728.6409
-1797.1197
-1036.4618
162.76012
1357.5229
2902.7457
5257.3097
7000.8813
10664.589
12967.699
16568.32
19875.095
23784.024
27225.769
32162.344
34400.431
35371.522
-993.04642
-4134.4066
-703.09661
-5815.1563
-147.09015
-3109.4169
-196.43528
-1743.8447
1183.2158
679.75337
477.27938
3259.1288
1168.3583
5059.8448
2304.6273
5278.1835
3846.5481
4659.7036
3676.8503
3203.3141
1883.6028
621.49526
-1123.5906
-3180.3506
-5321.7883
-5968.368
-8935.7947
-10165.153
-12227.134
-13037.522
-14682.314
-15841.514
-16324.55
-16496.424
-16076.841
-11796.251
-12846.044
-9018.7182
-5834.4328
96.804087
5835.4356
12486.594
19410.063
26644.615
33639.544
40074.408
47907.192
2665.4528
3049.5479
3160.8394
3095.3145
3274.9852
2538.1024
3479.2823
975.37899
1281.8774
460.91711
797.86932
320.1932
595.72635
1104.9687
1188.1669
1097.0512
1757.8836
1537.0369
1704.1822
1614.1023
2538.9443
1351.2937
538.41849
226.78297
624.67232
353.01697
697.64011
957.55166
399.18773
3.3606893
1570.9067
194.18674
1259.6867
474.95712
1028.5449
812.25475
655.71601
-187.90674
854.03808
658.93713
696.05095
1914.4796
-475.51223
-1596.8887
188.43015
-994.80993
-674.4833
-349.51521
-700.17387
-396.3084
-300.65165
-466.74724
-560.8912
528.49456
-545.41139
841.49036
-1533.7783
-2026.8574
-1614.5723
-1017.4328
-1793.3457
-923.0765
-1437.7549
-1596.6195
-2244.7172
-1278.1237
-2487.605
-1164.0766
-1882.5196
-1132.4309
-3021.4584
-2432.5514
-2745.7905
-2129.2021
-2014.5909
-1925.7138
-1838.8204
-2641.1309
-3694.1856
-2350.0557
-3732.0199
-2644.4359
-3342.1535
-2687.4562
-3920.7002
-3622.8404
-3714.9776
-3652.0553
-3069.462
-3316.0476
-3154.4376
-3854.0397
-4590.8031
-3226.6545
-4437.5754
-3046.228
-4765.8212
-3714.2292
-4739.4768
-4283.3379
-5126.2855
-4736.7428
-5021.7603
-4265.6462
-4749.6272
-4363.168
-4961.4676
-4400.3795
-4361.5097
-4053.1715
-4729.2601
-4935.8888
-5252.9912
-5384.4381
-5331.9429
-5258.3737
-5294.7396
-5459.7273
-5393.0967
-5191.4672
-5428.3111
-4995.3444
-4997.8555
-4787.9344
-4760.561
-5179.3279
-5052.3997
-5355.1573
-5256.4926
-5251.0164
-4968.5676
-5432.3519
-5698.2333
-5089.9582
-5228.5339
-4999.7138
-4738.9207
-4785.9782
-4925.8341
-5066.6663
-4494.228
-4799.2241
-4526.6453
-4638.5238
-4551.7849
-4840.3104
-5108.267
-4150.9778
-4431.2642
-4039.0925
-4028.3052
-3958.8927
-4179.9324
-4299.3236
-3302.7334
-3572.0502
-3132.6443
-3356.9179
-3294.5048
-3844.5835
-3713.1162
-2585.0814
-3014.1628
-2353.4988
-2491.2981
-2410.4454
-2808.1172
-2624.137
-1363.6933
-1949.5393
-1236.5949
-1405.7822
-1370.1649
-2132.1205
-1695.6294
-376.99864
-952.00843
-56.77135
-566.81985
-267.68178
-1070.2447
-154.47346
1136.6317
445.39066
1423.5448
1108.2445
1164.0576
650.98303
1417.7394
2976.7856
2229.8116
2748.6152
2816.38
2785.4038
1925.2511
3248.7743
5001.6898
3667.7944
5440.5025
4780.4558
4738.6941
4157.9114
5716.0877
7396.8127
6872.0692
7246.3599
6870.096
7272.1456
6355.3283
8225.083
10220.439
8797.0777
9904.3097
9846.3365
9796.597
8782.6815
11227.813
12868.156
11952.921
12825.833
12391.276
12283.066
11661.817
14347.001
16016.145
14950.987
15641.533
15498.429
15571.279
14755.008
17884.827
19165.11
18037.428
18727.763
18677.411
18430.529
18030.351
20851.8
22335.222
21348.568
21871.567
21748.749
21597.194
20405.067
24549.322
25377.602
24250.241
24761.154
24761.048
24279.718
24680.829
26853.528
27959.124
26861.64
26755.953
27059.903
27126.877
25746.018
35781.59
30575.914
33109.138
33726.037
33749.017
33186.286
33723.917
33076.377
33285.779
32978.122
32724.532
33265.056
32436.947
32315.342
36723.3
35820.937
34894.906
34414.367
35289.17
34283.359
34857.076
38255.672
37498.169
36837.882
36368.52
37251.731
36228.235
36623.226
40148.818
39477.558
38670.711
38078.135
38869.252
37904.819
38662.751
41560.041
40633.936
40188.829
39502.885
40556.92
39635.865
40290.107
42490.593
41436.634
40547.424
40275.989
40930.459
40038.2
40788.259
43061.395
42878.244
42544.292
42111.094
42777.277
42122.154
43344.774
43959.91
42115.253
41379.424
41251.844
41716.6
41384.797
41609.783
41683.721
44750.745
44535.532
44301.716
44528.427
44266.691
44441.726
44651.719
995.67287
1416.1418
1177.4432
1260.8989
987.015
1240.0037
1048.9739
968.66504
1644.8555
1240.9343
1910.5311
1914.2743
2221.6119
2068.5618
810.1553
398.96374
437.27394
157.41499
735.50652
225.36503
1583.1985
339.82294
777.72886
1069.7347
1444.0041
999.14945
1603.4046
255.49933
1110.6997
606.88191
1558.2721
703.7393
2030.4854
841.85589
1792.7179
245.21276
173.15846
-630.92351
-149.21754
-1040.4902
-369.24711
-237.8418
442.53339
-260.30356
929.92002
484.9499
992.12351
974.89138
58.880527
-275.77046
-111.36739
-1199.3374
-634.06042
-1020.9724
-1290.694
-800.43453
-531.67169
-1479.9429
-780.68196
-620.99876
-1364.9839
-675.8701
-1371.4902
-1205.6483
-1172.9425
-1318.4982
-1420.7598
-1207.7586
-1509.6729
-1431.1827
-1570.5241
-2087.0508
-2047.5066
-1505.251
-2432.2781
-2233.5538
-2641.2874
-2251.6083
-2152.4503
-2615.8002
-2277.9461
-2566.9005
-2427.1039
-2583.8522
-2650.2142
-2937.874
-2654.1297
-2023.3588
-2744.9942
-2587.8264
-3612.7424
-3265.0481
-3702.5842
-3176.2445
-3654.8245
-3771.6463
-3971.5065
-3694.788
-3438.474
-3756.3383
-3309.5922
-3477.231
-2821.8725
-3515.7861
-3848.5801
-3553.6648
-4642.0624
-3654.6437
-4298.0591
-3710.141
-4618.5489
-4446.3116
-4261.3346
-4121.7557
-3766.3162
-3950.187
-3548.8854
-4084.0512
-3909.5263
-3650.1378
-4331.1723
-3773.6908
-4061.5677
-3559.6408
-4192.7604
-4078.2541
-3973.5809
-3997.2941
-3560.7167
-3754.059
-3240.2811
-3932.5069
-3659.7261
-3150.5829
-3530.4824
-3175.7425
-3164.9948
-2854.0428
-3441.6837
-3006.495
-2887.9704
-2893.4512
-2481.933
-2603.9856
-2204.4605
-2459.597
-2216.5408
-1752.4926
-1529.3842
-1538.7557
-1496.9872
-947.338
-1576.5338
-1038.9351
-608.79912
-478.24484
-487.10814
-140.68081
-192.5468
-5.1317082
406.88198
1205.0464
1305.1404
1328.8055
1164.5083
1592.5888
2002.3874
2333.7873
3103.5724
3185.7162
3059.25
2916.5892
3440.3458
3530.5212
3846.4685
5698.7153
5441.4572
5613.3473
5331.1949
5134.7927
5802.6858
6935.821
8361.8325
7912.5785
7567.2216
7446.6385
8538.0891
8893.81
9578.7816
11849.811
9675.9548
10540.919
10554.463
10641.53
11554.268
12084.856
14026.627
13898.221
13694.399
13047.348
13467.551
14827.151
14913.262
17552.004
16613.118
16159.573
16093.627
16667.485
17847.172
18023.895
20741.528
19368.329
19278.099
19416.532
19423.761
21014.596
21334.638
23947.91
22704.214
22498.124
22418.957
22620.414
24529.25
24697.97
27399.326
25472.801
25250.578
25413.415
25645.685
27674.468
27580.811
30453.947
28294.31
28269.266
28442.749
28454.503
30142.93
30722.286
33352.24
30774.825
30775.459
31009.43
30833.188
33736.549
33871.361
36028.717
33013.422
33114.498
33335.935
33667.967
35244.278
35736.275
38511.894
35195.969
35220.472
35769.029
34830.732
38078.896
38047.493
40164.506
36119.45
36535.026
37061.775
36835.392
39507.541
39378.597
41847.867
37829.567
38414.877
38463.849
38222.221
40190.119
40820.712
42312.154
37488.053
38717.691
38364.292
38670.745
40733.842
41089.357
43025.464
38694.905
39794.268
39414.701
39535.289
40796.588
41015.055
41891.032
37381.199
38570.887
37943.335
38204.807
39481.731
40265.923
41741.022
37971.178
38878.513
38604.281
38857.25
39609.188
39619.788
39197.655
35546.462
36296.677
35867.673
35779.866
36161.686
36807.907
38876.954
36216.149
36497.575
36369.913
36471.791
37115.075
36721.367
34018.628
31147.679
31443.271
31131.795
31246.653
30758.199
30321.733
32982.286
32063.745
31242.392
31343.315
31242.465
31496.825
31977.99
894.84468
1392.9112
1130.8984
1161.7521
1089.1571
1114.7918
810.68712
-783.67645
-745.12888
-1046.5218
-946.39041
-796.50665
-914.56519
-440.0662
777.28118
504.58497
493.63693
410.79003
200.99824
180.17757
572.24992
-721.53641
-755.28803
-114.91538
311.32188
194.17424
486.46152
-82.488768
816.70144
383.65678
579.78641
-610.63424
-324.41522
-1454.6646
-267.71434
-367.74957
-1935.2155
-1507.864
-1105.1828
-1120.7651
-602.07511
-965.01027
-259.6322
-978.06796
263.4212
-376.46595
406.79076
-1132.9138
-449.51692
-470.28118
-1613.2721
-1851.3671
-2046.1348
-2540.928
-1841.0309
-1914.1144
-1064.041
-1894.591
-1060.2281
-1060.7763
-150.77864
-988.98397
-1239.4374
-415.21912
-1284.5992
-1711.9967
-1576.4164
-2417.7055
-2220.4679
-2427.2247
-1244.405
-2434.2643
-1982.7017
-2342.9828
-1624.8573
-2089.0073
-2094.403
-966.89564
-1625.5588
-1864.5841
-1511.0533
-1778.8732
-1676.6167
-2354.0405
-942.20149
-2636.2934
-1896.616
-2256.3621
-1731.393
-2529.7511
-1726.3296
-1648.6128
-1287.9706
-1258.973
-1683.8928
-1228.8669
-1324.9422
-1539.2696
-1158.1861
-1668.8598
-1626.0653
-1322.8376
-1683.6528
-1659.7157
-1618.5975
-1674.3959
-1292.1637
-1048.9343
-913.71508
-1084.1145
-1371.6802
-775.13235
-919.03154
-1322.9698
-856.45736
-551.23039
-1206.9999
-975.63511
-1069.6754
-886.96041
-1205.2078
-244.11164
-509.92401
-665.07529
-464.89112
-217.93121
-170.30276
-571.08799
106.62953
187.22795
-325.07049
-107.8581
-235.6898
369.90515
-403.94112
680.33237
519.76924
102.21068
667.22007
711.41992
1357.9119
577.06586
1498.3014
1320.9603
974.49681
1118.8464
1235.6667
2556.9344
1055.1843
2089.9494
2060.2016
1402.6908
2004.2561
2269.8768
3739.3056
2109.1303
3375.7497
2594.1553
2809.8816
2782.9219
3319.6313
5299.695
3130.7944
4133.9471
3914.5685
4102.6513
3526.0678
4174.8138
6884.5161
4169.2011
5591.0057
5426.5854
5382.9088
4603.6589
6197.1427
8655.3895
5549.1018
7069.6876
6200.4284
6586.7895
5995.0093
6648.7166
11266.443
7139.5535
8560.029
7724.7727
8912.4608
7133.2008
9234.212
13030.586
8850.2792
9973.7192
9956.6859
10035.286
8590.1692
10655.499
15617.821
11177.536
12555.022
11063.402
12532.502
10260.428
12877.46
18109.794
12741.91
13627.067
13041.74
14233.197
11651.651
14714.427
20437.109
14944.459
16205.89
15448.084
16512.35
13888.364
16991.019
23069.465
17154.396
18174.572
17126.911
18309.258
15689.472
18632.277
25385.094
19301.092
20145.476
19344.573
20477.645
17444.265
20718.359
27689.844
21356.008
22272.279
21281.861
22223.916
19871.258
22665.235
29795.357
23447.581
24110.158
22984.04
24259.774
21308.221
23858.382
31673.809
25229.207
25973.552
24888.987
25716.762
23499.34
25649.401
33116.114
26813.495
27376.885
26154.321
27497.653
24740.461
26901.543
34256.716
28018.484
28938.335
27521.499
28598.294
26344.547
27530.286
34609.506
29515.728
29652.098
28670.273
29365.031
27412.379
28576.169
35196.811
30344.607
30161.396
29821.491
30141.808
29013.84
28959.134
34730.625
30992.805
30353.106
30254.787
30223.863
29033.881
28780.269
34668.083
30965.428
30373.709
30590.833
30187.929
30184.786
29116.046
33555.552
30997.455
30331.916
30605.156
30215.471
30189.358
28057.446
32388.953
29958.528
29354.3
29890.695
28974.529
29514.39
27667.795
31385.696
29744.2
29406.39
29850.87
28942.569
30507.6
27158.365
28383.735
27166.859
27179.269
27476.097
26824.223
27465.821
24577.546
25330.295
24732.18
24460.169
24731.14
24263.655
25146.515
24623.481
152.43021
528.99409
284.93764
426.98292
274.80014
345.73009
-177.76723
-349.75151
-189.20477
105.0375
573.83709
671.01421
968.49515
1157.765
-159.69659
-1052.0336
-1155.8882
-1251.386
-1146.2531
-1141.3411
-1417.8773
348.19226
510.05223
1062.6751
1021.0221
1491.3183
1526.1927
1276.9781
-180.35545
-1087.2064
-1266.8213
-2316.4404
-2169.7447
-2205.6978
-1786.2436
989.05461
167.11919
897.14331
1386.1445
1701.82
1450.6362
1971.7367
108.98958
-637.98713
-1802.4356
-1431.8948
-2285.3055
-1825.4919
-1941.2316
854.0061
191.67218
747.7354
608.23056
1068.807
1663.5589
1665.0602
830.61995
183.20853
-442.57727
-744.69969
-452.98668
-1290.9977
-331.38537
617.0166
-227.75417
-46.674691
-175.46819
-49.457373
940.76588
1244.9876
902.73761
-547.86748
937.81851
-370.07068
1028.9641
325.37842
271.22455
1175.6599
134.44055
835.08906
-775.90794
607.53878
277.84972
2095.1755
1412.7673
-599.83514
425.48762
-25.317835
1271.3235
761.29752
44.208789
1794.0337
-307.09441
-659.93529
-631.68289
424.89257
31.393661
838.26696
-195.21375
-566.9182
1412.5674
-696.59557
1228.5528
57.99212
535.5765
363.63879
-316.80533
1215.5431
-30.064081
596.83245
130.99356
1021.3457
520.06703
-100.51868
1385.0519
87.269082
1104.6244
859.23008
1630.3153
1051.0691
625.2505
1886.2268
522.29313
1381.3068
620.08015
1892.8012
1042.8026
793.88003
1963.164
632.57735
1736.9288
1314.0349
2345.0424
1670.2628
1450.3829
2485.7133
1087.0269
2299.7657
1214.1086
2619.1731
1835.8648
1550.9039
2637.7252
1502.6017
2333.0324
1886.898
3022.7093
2376.8636
2124.4892
3200.4798
1581.6455
2906.1677
2188.6079
3256.9829
2923.2244
2544.3673
2818.9832
2643.382
3097.1813
2717.7563
3341.4368
3618.5407
2642.2467
3580.9799
3164.4803
3003.8053
3128.7571
4122.5509
4383.9511
2995.2885
4198.2792
2900.5359
2915.3178
3920.5081
3488.5209
5622.0876
3586.5975
4343.9756
3531.1837
3657.867
4207.686
4451.7411
5886.7942
3771.1777
4734.4331
4417.766
3547.2976
4985.0125
4009.4731
6897.6305
4232.8127
5573.6828
4455.3376
4407.695
5508.3772
4450.404
7843.0437
4738.2008
5547.4174
5321.9496
3992.253