/*--------------------------------*- C++ -*----------------------------------*\
  =========                 |
  \\      /  F ield         | OpenFOAM: The Open Source CFD Toolbox
   \\    /   O peration     | Website:  https://openfoam.org
    \\  /    A nd           | Version:  6
     \\/     M anipulation  |
\*---------------------------------------------------------------------------*/
FoamFile
{
    version     2.0;
    format      ascii;
    class       pointVectorField;
    location    "1.85";
    object      lm;
}
// * * * * * * * * * * * * * * * * * * * * * * * * * * * * * * * * * * * * * //

dimensions      [1 -2 -1 0 0 0 0];

internalField   nonuniform List<vector> 
3969
(
(-4.0340813e-15 -4.7705825e-17 1.3312818e-16)
(9.2297575e-16 -2.6090405e-16 -6.0252577e-16)
(8391.5882 844.25113 67.96178)
(8343.1502 -1602.279 113.52813)
(-7.1783695e-15 2.6020842e-15 -1.0366567e-15)
(-4.622429e-15 2.1493156e-15 -1.5432914e-15)
(8336.1979 -1608.0428 112.78748)
(8384.4909 838.26543 69.023056)
(-6.09887e-15 1.0869625e-16 -2.0095736e-16)
(-3.193382e-15 6.5333688e-16 6.3735029e-17)
(-2.9260211e-15 2.9260844e-16 -4.8432863e-17)
(-1.7497804e-15 -1.5755452e-16 -2.074758e-16)
(-4.3254872e-15 8.6218995e-16 7.3228779e-16)
(-2.4697388e-15 -4.9707839e-16 4.8086129e-16)
(5.2680668e-16 -4.7467027e-16 -5.3018058e-16)
(8283.9383 532.17055 72.105426)
(8195.832 228.83612 76.347858)
(8205.5351 -69.134231 82.377997)
(8298.0803 -371.96648 89.396676)
(8410.7286 -683.99111 97.068529)
(8469.4275 -999.50161 103.97892)
(8433.557 -1306.6236 109.33528)
(4.1563459 17.830066 23.023068)
(11.282888 32.141798 24.733719)
(26.518161 51.234606 20.308388)
(49.813976 68.443992 12.600266)
(77.480675 87.873875 3.3574838)
(111.3433 107.23649 -6.9927555)
(148.48202 127.86762 -16.236135)
(190.83947 149.18992 -25.711977)
(236.72598 171.92614 -33.092767)
(287.15043 195.50025 -40.168579)
(342.1138 221.36267 -44.536155)
(401.68903 248.19445 -47.896122)
(467.20411 277.60482 -49.317251)
(538.31155 308.74671 -48.732768)
(617.1589 341.88494 -46.614478)
(702.95274 376.85875 -42.876012)
(797.76179 413.70599 -37.472055)
(901.72771 452.05881 -30.948132)
(1016.1281 491.8417 -23.208024)
(1141.2507 532.36368 -14.640233)
(1278.2206 573.56911 -5.4382994)
(1427.1455 614.77139 4.1842047)
(1588.7441 655.62912 13.901291)
(1763.1576 695.45919 23.568569)
(1950.4125 733.95199 32.854105)
(2150.4959 770.65381 41.705664)
(2363.0689 804.95855 49.844695)
(2587.9234 836.58266 57.122129)
(2824.3407 865.11176 63.497131)
(3071.5302 890.24799 68.905882)
(3328.765 911.8969 73.263336)
(3595.0763 929.82455 76.628995)
(3869.4226 943.98178 79.034454)
(4150.857 954.50691 80.459862)
(4438.1639 961.37789 81.094882)
(4730.6058 964.68068 81.021476)
(5026.8493 964.94982 80.024064)
(5326.2665 961.95442 78.659185)
(5627.7007 956.53628 76.859882)
(5930.6331 948.50551 74.803503)
(6234.2963 938.69415 72.493867)
(6537.928 926.97906 70.326722)
(6841.4311 913.86509 68.367172)
(7143.5776 900.04056 66.741766)
(7445.2761 884.82031 65.945011)
(7744.7642 869.89248 65.720601)
(8041.5554 853.98993 66.573996)
(10.842883 -36.530351 -43.572387)
(24.656673 -59.929447 -50.175852)
(39.5952 -84.653375 -62.973613)
(58.586743 -109.77525 -70.816785)
(84.304911 -132.71564 -81.04731)
(113.01111 -155.92528 -89.807299)
(147.29795 -177.43892 -99.914496)
(184.78451 -198.46432 -109.68433)
(227.01817 -219.00752 -119.91044)
(273.20848 -239.63085 -129.60458)
(323.99921 -260.73146 -139.12902)
(379.74815 -282.85652 -148.20983)
(440.76671 -306.21629 -156.13363)
(508.00313 -331.43077 -163.11559)
(582.11226 -358.98254 -168.83409)
(663.8842 -388.81207 -173.05436)
(754.11889 -421.31358 -175.69594)
(853.69426 -456.54085 -176.61868)
(963.31539 -494.61498 -175.69378)
(1083.9005 -535.23245 -172.98823)
(1215.7455 -578.95938 -168.34194)
(1360.0405 -624.41321 -162.05255)
(1516.5934 -672.85417 -153.69851)
(1686.3953 -722.77454 -143.93115)
(1868.7512 -774.19281 -132.71696)
(2064.4114 -826.5739 -120.24028)
(2272.2349 -879.61922 -106.50738)
(2493.666 -933.00892 -91.868627)
(2727.1279 -985.89962 -76.856379)
(2972.1508 -1038.0371 -61.166209)
(3228.2082 -1089.0844 -45.392675)
(3494.1784 -1138.5911 -29.592467)
(3769.4095 -1186.2393 -14.073333)
(4052.6738 -1231.6898 0.97995663)
(4343.0895 -1274.7301 15.339452)
(4639.5355 -1315.2353 28.957996)
(4940.8928 -1352.8209 41.473634)
(5246.121 -1387.6666 53.076475)
(5554.2685 -1419.7466 63.461585)
(5864.3503 -1448.8511 72.732962)
(6175.5357 -1475.3261 80.994123)
(6486.8873 -1499.1628 88.0378)
(6797.7755 -1520.4682 94.184855)
(7107.4472 -1539.5197 99.300007)
(7415.5072 -1556.5662 103.69313)
(7721.3785 -1571.9376 107.37587)
(8031.5596 -1587.1017 110.61108)
(-3.9179893e-16 -2.8384427e-17 -1.6191597e-16)
(6.8869455e-16 3.3255846e-16 -2.9305012e-16)
(-3.0379221e-16 -4.0639439e-16 3.7376104e-16)
(8.6048107e-16 -8.7588792e-17 1.0515471e-16)
(5.0258192e-16 -7.4376592e-16 6.4035694e-16)
(-2.9679417e-15 -3.4669267e-16 7.3060073e-16)
(8.9003905e-16 -2.834795e-16 1.0120244e-16)
(6.0829412 -12.002743 23.238402)
(12.739906 -38.579306 25.035952)
(27.919499 -48.555163 18.001599)
(53.624748 -71.46559 9.8894684)
(81.342059 -87.653608 -0.43208009)
(116.11342 -109.69263 -11.906322)
(153.8378 -129.45265 -21.495026)
(195.98017 -151.95553 -32.435675)
(242.05005 -175.4797 -39.605453)
(291.75334 -199.83322 -47.978703)
(346.1097 -227.95391 -51.901287)
(403.92432 -255.54857 -55.890646)
(468.0668 -287.15543 -57.43302)
(537.29214 -320.96604 -56.931252)
(613.10701 -356.36956 -55.114722)
(696.03234 -395.72886 -50.903128)
(787.11029 -436.48868 -45.657107)
(887.03959 -480.51859 -38.622716)
(996.74466 -526.47627 -30.586542)
(1116.9193 -574.74394 -21.396265)
(1248.2756 -624.82376 -11.452726)
(1391.4072 -676.44359 -0.86286839)
(1546.8111 -729.29314 10.022194)
(1714.7379 -782.78314 21.08318)
(1895.8482 -837.19514 31.768839)
(2090.7923 -891.17963 41.597686)
(2297.2787 -945.61052 51.83996)
(2516.1878 -998.52805 61.331191)
(2747.3214 -1050.4476 70.242497)
(2989.9474 -1100.5256 78.202031)
(3243.336 -1148.7048 85.256039)
(3506.7182 -1194.6588 91.470487)
(3779.1028 -1238.1227 96.756308)
(4059.5519 -1278.9488 101.16956)
(4346.9878 -1316.9649 104.67528)
(4640.9033 -1352.6452 107.56485)
(4939.4457 -1384.4902 109.25424)
(5241.4544 -1414.9719 110.84192)
(5546.8907 -1441.8425 111.43976)
(5854.511 -1466.683 111.68067)
(6163.3177 -1489.1355 111.47806)
(6472.6395 -1509.5765 111.10797)
(6781.6519 -1528.1533 110.62512)
(7089.8143 -1545.1024 110.24856)
(7396.5173 -1560.7431 110.16488)
(7701.3101 -1575.1581 110.48076)
(7997.4394 -1587.5509 111.2629)
(8431.73 -1313.0407 107.94605)
(8458.0409 -1004.355 102.33117)
(8386.3362 -687.69128 95.937756)
(8260.4023 -375.01741 89.535468)
(8186.563 -73.739441 83.717227)
(8193.5767 224.61217 78.687091)
(8295.0749 528.43011 74.138129)
(8048.1631 849.30998 66.144263)
(7755.1896 865.21991 64.138849)
(7456.0337 879.44964 61.80318)
(7155.5323 892.69306 59.259471)
(6854.0627 904.40914 56.196759)
(6551.8777 914.32722 52.551151)
(6249.3243 922.17877 48.199526)
(5946.8421 927.65148 43.015979)
(5644.9894 930.5565 36.83972)
(5344.4427 930.85576 29.755211)
(5044.3341 927.62577 21.539735)
(4751.1691 921.82384 12.966554)
(4458.2646 912.71053 2.2994426)
(4171.3496 900.26356 -8.4403432)
(3889.9079 884.66018 -20.322161)
(3615.3143 865.84902 -32.67484)
(3348.5119 843.96855 -45.52225)
(3090.5539 819.20614 -58.642507)
(2842.3311 791.87045 -71.811462)
(2604.7726 762.11536 -84.795339)
(2378.5118 730.55905 -97.463208)
(2164.3152 697.30513 -109.45433)
(1962.5576 663.04272 -120.5923)
(1773.4147 628.04511 -130.7881)
(1597.1565 592.81974 -139.79956)
(1433.7376 557.81125 -147.41868)
(1282.878 523.36063 -153.58355)
(1144.2855 489.8666 -158.15959)
(1017.5026 457.6208 -161.09327)
(901.84195 426.76069 -162.29437)
(796.66902 397.7109 -161.96705)
(701.15631 370.17449 -159.90487)
(614.87905 345.04893 -156.34789)
(536.23832 319.68159 -151.00611)
(465.52725 297.64029 -145.16821)
(400.58845 276.26784 -137.055)
(341.95676 256.15499 -129.51212)
(288.18131 235.80625 -120.35231)
(239.31035 216.45716 -111.43363)
(195.61833 195.73661 -101.55871)
(155.95616 176.9324 -92.543243)
(120.38843 153.63133 -82.89531)
(90.069069 133.08854 -74.320606)
(64.087786 108.09694 -65.009591)
(44.518628 84.432155 -55.702229)
(28.819576 58.058234 -44.66021)
(31.703628 34.216915 -25.438659)
(-6.7652979e-16 3.5118239e-16 1.2802193e-16)
(-2.3129286e-15 2.7505878e-16 1.3239036e-16)
(-3.6393531e-15 -1.4253491e-16 -1.5464221e-16)
(-4.9195801e-15 -9.3657526e-16 4.6870719e-16)
(-4.0844143e-15 -8.2232132e-16 1.723462e-16)
(-2.0271537e-15 -1.8079967e-16 2.6438577e-16)
(-2.0670014e-15 8.6459225e-16 1.4474963e-15)
(-4.5036838e-15 1.2268482e-15 -2.065022e-16)
(-1.9919023e-15 1.1694967e-15 -1.6367101e-16)
(-2.9438013e-15 1.1112212e-15 -1.969436e-16)
(-2.4504202e-15 9.597151e-16 -1.1789697e-16)
(-5.2893259e-15 2.5926013e-15 -8.0820905e-16)
(-1.8775489e-15 1.1365606e-15 -5.8525306e-16)
(-7.4714327e-17 -2.094137e-16 9.7564992e-17)
(8342.4461 -1603.6745 113.43709)
(8341.8073 -1605.1031 113.39213)
(8341.1727 -1606.3924 113.41438)
(8340.4861 -1607.4481 113.39673)
(8339.6112 -1608.2189 113.39195)
(8338.5499 -1608.4973 113.26977)
(8337.3397 -1608.5316 112.91924)
(8391.3478 844.60255 68.282376)
(8390.8744 844.37292 68.639768)
(8390.1476 843.77876 68.978143)
(8389.1937 842.80796 69.103956)
(8388.0472 841.63127 69.070839)
(8386.8055 840.4514 69.026667)
(8385.6433 839.33559 68.970458)
(-1.5899452 12.66868 16.515267)
(4.3574599 21.022403 13.386372)
(18.262173 33.100697 8.9266383)
(39.833092 44.804059 2.1449941)
(66.321003 58.098743 -6.8628215)
(99.173331 73.574474 -15.874725)
(134.73536 88.354914 -25.14131)
(176.25049 106.3267 -33.862411)
(220.80063 123.60129 -41.919199)
(270.39022 143.34798 -48.541987)
(324.00661 163.93819 -53.985137)
(382.76918 185.82371 -58.194572)
(447.24476 209.79298 -60.324925)
(517.72509 234.413 -61.152855)
(595.66998 260.81605 -60.126446)
(681.35616 288.36837 -57.637328)
(776.17476 317.21119 -53.587962)
(880.57859 346.68943 -48.153626)
(995.80302 376.97808 -41.494422)
(1122.4307 407.36648 -33.849523)
(1261.1999 437.82974 -25.307684)
(1412.5686 467.67624 -16.2571)
(1577.0416 496.75171 -6.7608902)
(1754.5584 524.44558 2.8042554)
(1945.394 550.62871 12.378879)
(2149.2418 574.61182 21.427606)
(2365.4709 596.35852 30.180736)
(2593.7119 615.64192 38.218074)
(2833.1205 632.03564 45.536356)
(3082.6237 645.61603 51.991787)
(3341.3402 656.23458 57.605761)
(3608.1055 663.84435 62.311938)
(3881.7506 668.60989 66.134827)
(4161.1736 670.55241 69.092951)
(4445.264 669.83053 71.295983)
(4732.9431 666.76319 72.688744)
(5023.4005 661.3902 73.43509)
(5315.7051 654.06267 73.63077)
(5609.2045 645.19221 73.356798)
(5903.3021 634.76669 72.800664)
(6197.5463 623.38893 71.896595)
(6491.5983 610.94655 71.13644)
(6785.2912 598.09909 70.265357)
(7078.2348 584.69562 69.850807)
(7371.0466 571.01369 69.717535)
(7662.7686 557.49882 70.059579)
(7961.0309 543.90119 70.914992)
(-6.7951642 4.5769435 7.2346484)
(0.02068451 7.5365857 2.8933969)
(14.075969 15.626937 -2.2297053)
(34.937426 21.363734 -9.5390057)
(61.204267 30.503132 -17.669519)
(91.576044 39.434758 -26.807183)
(127.42649 50.068887 -35.173032)
(167.10178 61.874523 -44.719796)
(211.113 74.290154 -51.660871)
(259.3691 88.448384 -59.497411)
(312.59846 102.96394 -65.071741)
(370.59993 119.24295 -69.996432)
(434.45888 136.11869 -73.003168)
(504.78684 154.04546 -74.66448)
(582.34462 172.82463 -74.603145)
(667.73866 192.48122 -73.307227)
(762.14598 212.58564 -70.230191)
(866.39125 233.03591 -65.819531)
(981.62285 253.50798 -60.121508)
(1108.3617 273.72124 -53.172367)
(1247.5214 293.3695 -45.361072)
(1399.4512 312.18851 -36.73078)
(1564.3024 329.80333 -27.545914)
(1742.5616 346.15532 -17.965178)
(1933.9465 360.62663 -8.3878631)
(2138.0577 373.35475 1.3580307)
(2354.6223 383.86385 10.819832)
(2582.9466 392.1435 19.683748)
(2821.9649 398.18574 28.19351)
(3070.9236 401.8861 35.941666)
(3328.6583 403.2975 42.974578)
(3593.999 402.51148 49.212091)
(3865.8023 399.61458 54.643269)
(4142.9762 394.75704 59.262726)
(4424.3857 388.16257 63.076091)
(4709.1566 379.92695 66.160478)
(4996.3755 370.34872 68.494312)
(5285.2933 359.6032 70.238585)
(5575.3974 347.99188 71.421204)
(5866.1252 335.5089 72.171038)
(6157.3851 322.74642 72.560763)
(6448.5773 309.38886 72.845421)
(6740.1564 296.08348 72.993415)
(7031.3575 282.58178 73.250393)
(7323.3142 269.08556 73.787848)
(7614.8016 255.88311 74.390792)
(7910.2664 242.28793 75.658117)
(-10.960831 -2.0559002 -0.063267155)
(-3.6982421 -2.4939407 -5.0790858)
(10.154194 -0.71295621 -12.248936)
(31.681386 1.0345238 -19.148684)
(56.851254 4.0727968 -28.147124)
(89.484441 8.8596304 -36.879605)
(124.66327 13.259426 -46.684602)
(165.23306 20.150102 -54.99207)
(209.2549 26.531253 -63.451139)
(258.32535 34.536409 -71.181078)
(310.70899 43.463597 -77.26185)
(368.53413 52.579326 -82.65812)
(431.54682 62.948468 -86.364707)
(500.69165 73.18896 -88.759)
(576.79803 84.320505 -89.457882)
(660.89815 95.417451 -89.031909)
(753.77007 106.60301 -86.760487)
(856.42953 117.45798 -83.429352)
(969.57152 127.90393 -78.391445)
(1093.8907 137.61648 -72.328056)
(1230.0573 146.53374 -65.011324)
(1378.5369 154.17331 -56.79328)
(1540.1629 160.81746 -47.782975)
(1714.7083 165.65697 -38.431268)
(1902.141 169.08648 -28.396804)
(2102.6218 170.79505 -18.54781)
(2315.6297 170.75453 -8.7351515)
(2540.4909 169.00401 0.96306826)
(2776.5072 165.58888 10.282656)
(3022.8657 160.40212 19.113912)
(3278.5824 153.73367 27.420272)
(3542.7075 145.51848 35.076164)
(3814.2016 135.98847 42.047953)
(4092.0396 125.26738 48.267091)
(4375.2554 113.45725 53.791435)
(4662.8992 100.81887 58.522063)
(4954.168 87.393727 62.590481)
(5248.3439 73.510992 65.958538)
(5544.7306 59.190484 68.676697)
(5842.7288 44.649433 70.993122)
(6141.8931 30.013755 72.746409)
(6441.8972 15.262057 74.401598)
(6742.5505 0.84989213 75.575373)
(7043.3628 -13.664912 77.049921)
(7344.8006 -27.774636 78.229981)
(7645.8809 -41.823537 79.798118)
(7945.5195 -55.885878 81.304806)
(-10.724518 -7.2874407 -9.7829647)
(-1.688925 -12.2829 -17.353684)
(12.432769 -15.362221 -24.670188)
(33.813492 -19.897517 -32.288641)
(61.400584 -21.922501 -41.106646)
(92.618861 -23.783147 -50.291491)
(128.97962 -24.944945 -58.558034)
(168.69348 -24.090788 -67.766481)
(213.14007 -23.829959 -75.517146)
(260.71794 -21.491207 -82.820565)
(313.06517 -19.795149 -89.300602)
(370.45735 -16.877139 -94.997369)
(432.64911 -13.905987 -99.340043)
(501.26699 -11.18516 -102.12066)
(576.22984 -8.071369 -103.97471)
(658.97093 -5.436703 -104.00636)
(749.73749 -3.1746657 -102.81085)
(849.82681 -1.6107454 -99.95431)
(959.75164 -0.96882316 -95.801768)
(1080.4507 -1.2493741 -90.41584)
(1212.773 -2.6431895 -83.924952)
(1357.4509 -5.2326159 -76.364258)
(1513.8595 -9.3927164 -68.129942)
(1683.0258 -14.67293 -58.877533)
(1865.0863 -21.301163 -49.453855)
(2059.8924 -29.323862 -39.474402)
(2267.1564 -38.76163 -29.071362)
(2486.7666 -49.566336 -18.67296)
(2718.2563 -61.664695 -8.4042398)
(2961.0695 -74.93796 1.7116282)
(3214.5511 -89.255643 11.408089)
(3477.9343 -104.60409 20.703956)
(3750.3771 -120.67994 29.375556)
(4031.0324 -137.51103 37.488115)
(4318.9568 -154.82813 44.870501)
(4613.283 -172.58218 51.579361)
(4913.1374 -190.53734 57.521895)
(5217.5056 -208.64761 62.761846)
(5525.6042 -226.82016 67.345091)
(5836.7811 -244.83166 71.173603)
(6150.3849 -262.43314 74.458778)
(6465.3263 -279.78884 77.27629)
(6781.402 -296.59074 79.689002)
(7097.4273 -313.1103 81.916071)
(7413.7675 -329.00487 83.901481)
(7728.7888 -344.56387 85.920059)
(8037.4335 -359.46832 87.948001)
(-9.6471107 -14.987521 -18.952395)
(0.27585678 -24.114521 -25.71316)
(14.385139 -33.953538 -34.410207)
(37.77506 -43.724018 -42.377505)
(63.875776 -51.98032 -51.756015)
(97.04443 -59.269622 -60.329697)
(132.73009 -66.048069 -69.985703)
(173.78414 -70.851802 -79.215258)
(217.4089 -76.36898 -87.418969)
(265.93218 -80.241037 -95.852072)
(318.1504 -84.295354 -103.30211)
(374.7393 -87.372909 -109.41706)
(436.50991 -91.610402 -113.93435)
(503.89293 -95.369453 -117.64403)
(577.54835 -100.02127 -119.54263)
(658.49328 -105.29578 -120.21714)
(747.37177 -111.32059 -119.42165)
(845.0925 -118.47068 -117.24507)
(952.30916 -126.63391 -113.69939)
(1069.8418 -136.06057 -108.85119)
(1198.4884 -146.52353 -102.80606)
(1338.7633 -159.08221 -95.394659)
(1491.9804 -172.422 -87.120287)
(1656.4765 -187.49921 -78.055179)
(1833.7347 -203.75143 -68.102964)
(2023.6817 -221.4208 -57.571606)
(2226.7122 -240.30256 -46.738753)
(2442.5066 -260.31097 -35.806215)
(2670.8078 -281.2875 -24.71292)
(2911.2863 -303.12464 -13.724048)
(3163.5169 -325.71832 -2.8780639)
(3426.8593 -348.94763 7.6693892)
(3700.6756 -372.54058 17.762788)
(3984.1249 -396.49612 27.394257)
(4276.3979 -420.51015 36.385808)
(4576.5797 -444.48055 44.712482)
(4883.6988 -468.26958 52.308134)
(5196.7476 -491.76366 59.206891)
(5519.2819 -515.17737 65.121448)
(5844.7513 -537.52904 70.625015)
(6170.4783 -559.3035 75.307959)
(6498.091 -580.1916 79.466724)
(6826.4459 -600.1984 82.978021)
(7154.5942 -619.4076 86.262922)
(7481.8244 -637.53008 89.053006)
(7806.7603 -654.95385 91.973656)
(8123.6487 -670.79634 94.578166)
(-6.2215173 -19.964793 -27.80608)
(6.1554698 -34.359256 -35.46405)
(21.62331 -49.69446 -45.957701)
(43.893861 -65.672756 -53.92466)
(71.246231 -78.912802 -63.500365)
(102.86656 -92.530788 -72.236039)
(139.24313 -104.55524 -81.893743)
(179.10218 -115.64433 -90.882972)
(222.99671 -126.63624 -99.72497)
(270.85559 -136.47484 -108.17444)
(322.56358 -146.72428 -115.73568)
(379.02881 -156.9478 -122.22907)
(440.40962 -167.87824 -127.96196)
(507.38621 -179.20205 -132.21368)
(580.60548 -191.4994 -135.25739)
(661.08519 -204.75021 -136.83648)
(749.35439 -219.26613 -137.07423)
(846.35718 -235.07716 -135.68887)
(952.7842 -252.42579 -132.95177)
(1069.4219 -271.23105 -128.69429)
(1196.7367 -291.90428 -123.25647)
(1336.6145 -313.16486 -115.97378)
(1487.0295 -336.80429 -108.62536)
(1650.8331 -362.80478 -99.156381)
(1826.6474 -389.33529 -89.294067)
(2015.4796 -417.2718 -78.660039)
(2217.46 -445.95503 -67.313457)
(2432.3161 -475.71516 -55.441377)
(2659.9692 -506.09384 -43.364488)
(2900.3583 -537.21519 -31.020539)
(3152.8436 -568.70471 -18.726583)
(3416.9729 -600.40213 -6.5167176)
(3692.0882 -632.06 5.3204605)
(3977.3585 -663.58183 16.82159)
(4271.9578 -694.52272 27.630802)
(4574.9032 -725.00331 37.899359)
(4885.1531 -754.58194 47.358204)
(5201.5603 -783.25497 56.020023)
(5523.2761 -810.83692 63.910139)
(5854.7759 -838.08343 70.966623)
(6183.166 -862.90618 77.004908)
(6512.9969 -886.46167 82.35107)
(6843.284 -908.61814 86.986857)
(7172.7795 -929.35938 91.024565)
(7500.6714 -948.64547 94.573697)
(7825.8639 -966.70598 97.76491)
(8145.5266 -983.00898 100.72734)
(1.0228947 -28.737228 -33.820057)
(13.945707 -46.163547 -43.7112)
(28.703933 -68.478207 -54.039721)
(51.033755 -88.414061 -62.746998)
(75.925381 -107.58699 -72.082534)
(107.81878 -126.14639 -80.951652)
(142.13393 -143.45342 -91.004395)
(181.5955 -160.03228 -100.17288)
(224.38017 -176.23884 -109.94388)
(271.44013 -191.87353 -118.81184)
(322.7566 -208.16557 -127.38392)
(378.54922 -224.39422 -135.18739)
(439.78498 -241.86064 -141.61402)
(506.53863 -260.04311 -147.1413)
(579.95789 -279.66505 -151.25824)
(660.71959 -300.83887 -153.99255)
(749.53125 -323.77512 -155.0981)
(847.38228 -348.5636 -154.74225)
(954.83476 -375.38669 -152.69379)
(1072.7811 -404.18574 -149.15467)
(1201.9135 -434.75821 -144.0196)
(1342.3408 -467.59815 -137.31556)
(1495.8291 -501.85516 -129.33602)
(1661.3859 -538.32088 -119.94148)
(1839.8814 -575.8726 -109.68984)
(2031.3164 -614.80307 -98.199897)
(2235.8433 -654.67659 -85.719916)
(2453.5179 -695.09729 -72.831129)
(2683.8996 -735.97933 -59.423952)
(2926.6218 -777.12845 -45.667004)
(3181.0029 -818.0901 -31.822782)
(3446.5373 -858.67468 -18.030948)
(3722.3183 -898.53837 -4.52092)
(4007.5045 -937.46899 8.6030358)
(4301.1643 -975.10239 21.07141)
(4602.1657 -1011.4173 32.938025)
(4909.5362 -1046.0356 43.894052)
(5222.1939 -1078.9057 53.97948)
(5538.833 -1109.8725 63.043773)
(5858.4547 -1138.8119 71.178869)
(6180.1275 -1165.7256 78.400948)
(6502.6714 -1190.6299 84.723205)
(6825.0756 -1213.5685 90.128517)
(7146.4506 -1234.5904 94.860706)
(7465.9837 -1253.7857 98.830239)
(7782.9724 -1271.4565 102.44441)
(8094.1106 -1287.18 105.61989)
(-1.8726199e-15 -1.0357256e-16 4.2324109e-16)
(-4.3693994e-15 5.8098526e-16 1.0825799e-16)
(-1.86708e-15 5.0203615e-16 5.7484399e-16)
(-1.1298519e-15 4.4303811e-16 -1.5186772e-16)
(-1.5283164e-15 1.7502349e-16 4.7144117e-17)
(-3.9278597e-15 -6.147074e-18 -1.0233878e-17)
(-3.270765e-15 8.5080195e-17 2.8271762e-17)
(-1.444637e-15 3.1767481e-17 -1.0328492e-16)
(-1.9600489e-15 -2.0641393e-16 2.5996682e-17)
(-1.0758982e-15 -5.0887233e-16 -1.6282415e-16)
(-1.1902312e-15 -6.3217422e-16 -1.0496995e-16)
(-2.2455722e-15 -1.0363924e-16 3.7607835e-16)
(-1.7254929e-15 1.2766475e-16 7.9907906e-17)
(-6.542485e-16 2.4659353e-16 4.7610311e-16)
(-1.0183069e-15 2.0413811e-16 3.0876606e-16)
(-1.2825224e-16 3.2154578e-16 2.6910031e-16)
(-2.4669526e-15 5.8726168e-16 -3.2350189e-17)
(-1.9694108e-15 5.8752001e-16 2.9593509e-16)
(-1.9972486e-15 5.0741204e-16 1.6376266e-16)
(-5.0142844e-16 5.9082617e-16 -1.5096731e-17)
(2.8672985e-17 2.0007103e-16 -2.079567e-16)
(-3.5598279e-15 1.6770216e-16 6.1584209e-17)
(1.5219227e-15 -3.8112137e-16 -3.4960392e-16)
(-8.8364966e-17 -1.5289127e-16 1.7491834e-16)
(2.7397895e-16 -2.6900304e-16 -2.0413732e-16)
(-5.1236454e-16 -3.7600259e-16 -4.411389e-17)
(-1.3114086e-15 -5.3747975e-16 1.2489795e-16)
(2.0041989e-16 -4.4379834e-16 -1.4360784e-16)
(-1.3448657e-15 3.3966264e-16 -2.7012678e-16)
(-2.2010094e-15 1.2158219e-16 1.1470551e-16)
(-1.2722141e-15 -2.3577892e-16 -7.7366055e-17)
(-2.6936153e-15 2.298542e-17 6.0151854e-16)
(-1.8084585e-15 2.5926424e-16 8.2177642e-17)
(-1.0121806e-15 3.7760621e-16 1.5728837e-17)
(-3.5076342e-15 -1.049112e-16 -1.8966684e-16)
(-1.2388067e-16 -2.746004e-16 -1.3203227e-16)
(-1.1077126e-15 -2.2449831e-16 5.9960705e-17)
(-7.9462407e-16 5.2806017e-17 1.8160622e-16)
(-1.481116e-15 2.6347307e-16 -6.003674e-17)
(5.3541372e-16 1.9494005e-16 5.7756958e-17)
(-2.5861876e-15 -7.0653702e-17 -1.8824779e-16)
(-1.6152529e-15 1.8241927e-16 3.8488004e-16)
(-1.0389662e-15 3.299921e-17 2.9700946e-16)
(-3.8817577e-15 -1.9427146e-16 -1.2145786e-15)
(-1.6161979e-15 2.8442108e-16 -1.856842e-16)
(8.1577518e-16 1.8112067e-17 2.0819295e-16)
(-2.485062e-15 2.8178417e-16 -5.4749215e-16)
(-1.8307085e-15 4.4562511e-16 -1.4619564e-16)
(-1.4586292e-15 4.0358521e-16 -4.0281137e-16)
(20.311895 -11.55018 -21.609222)
(21.83483 -12.678524 -14.708346)
(22.797992 -12.651707 -8.4145249)
(22.404123 -12.626669 -3.4749845)
(20.524513 -11.068623 1.8629156)
(17.548608 -10.459458 6.8355963)
(12.372709 -7.2378001 13.381816)
(33.745137 -50.660017 -42.524928)
(37.810976 -50.62802 -27.00167)
(38.696471 -46.002592 -17.314037)
(37.287893 -43.419698 -9.7035061)
(35.768255 -43.202645 -2.7678431)
(30.411977 -40.52214 5.5293516)
(25.00011 -38.000699 15.586112)
(45.686728 -72.996825 -49.374558)
(50.639238 -66.8378 -39.127136)
(53.791325 -64.649445 -27.531903)
(53.135971 -62.081679 -18.561611)
(51.217006 -59.717021 -7.9265491)
(45.97603 -57.183037 -0.25903002)
(39.509835 -55.90389 10.584792)
(68.049687 -101.13023 -59.953375)
(73.523972 -97.46155 -49.43001)
(76.426431 -93.006906 -38.159573)
(76.770483 -89.544539 -27.92051)
(74.664572 -86.709426 -18.344925)
(70.466943 -83.457846 -8.7540354)
(63.288266 -78.711998 0.9652675)
(92.106749 -123.32912 -69.940597)
(97.992142 -117.18782 -59.669973)
(101.79334 -112.43586 -48.726971)
(102.5597 -108.52442 -38.854215)
(101.58129 -105.74274 -28.069587)
(97.195956 -101.28335 -19.192309)
(91.168503 -97.459805 -8.8807877)
(122.40753 -147.8002 -79.330501)
(128.36424 -142.04696 -70.284002)
(132.94693 -137.22122 -58.996474)
(133.89272 -132.93019 -50.148402)
(133.38595 -128.86729 -39.26789)
(129.65006 -123.32982 -29.800353)
(124.02225 -118.67241 -20.719431)
(156.30293 -167.79644 -90.102996)
(163.28938 -162.07247 -80.278398)
(167.62876 -157.15964 -70.356729)
(169.81729 -152.5546 -60.508811)
(169.37267 -148.95845 -50.497923)
(166.83027 -144.75428 -41.216782)
(161.49103 -138.97071 -30.655577)
(194.7415 -190.0262 -99.975194)
(201.88003 -184.55303 -91.460989)
(207.86675 -179.7498 -80.434873)
(209.80761 -175.40285 -70.954503)
(209.99404 -170.79932 -61.036828)
(207.60609 -165.82536 -50.897665)
(202.57713 -160.09707 -41.663592)
(237.5466 -210.27727 -110.53171)
(245.71141 -204.6532 -100.73786)
(251.11192 -200.25758 -90.765147)
(254.20694 -196.11191 -81.313142)
(254.83226 -192.79283 -70.689009)
(253.25291 -188.31968 -60.740386)
(248.74938 -183.63614 -49.931112)
(284.38935 -231.76204 -120.01337)
(292.89179 -227.07836 -111.02302)
(299.63558 -222.58153 -100.44992)
(303.16741 -219.79727 -89.788586)
(304.03707 -215.59055 -79.716149)
(302.4246 -211.28732 -68.624529)
(298.14164 -205.97533 -58.424159)
(336.17731 -253.24165 -129.2931)
(345.70261 -248.84923 -119.82339)
(352.66467 -245.55052 -108.02814)
(356.46418 -241.95212 -98.28325)
(357.75626 -239.01372 -86.492749)
(356.46145 -235.64787 -75.765453)
(352.55264 -232.63132 -63.895162)
(392.90998 -276.32028 -138.05964)
(402.98074 -272.9267 -127.26273)
(410.40793 -270.18146 -116.12704)
(415.18017 -268.51453 -104.58741)
(416.75755 -265.73049 -92.378229)
(415.19728 -263.06466 -81.152377)
(411.63313 -259.3767 -67.9768)
(455.53436 -300.96483 -145.11856)
(465.71132 -298.01291 -133.6764)
(474.30135 -296.69 -121.91149)
(478.93729 -294.15643 -109.50248)
(480.74215 -292.47483 -96.864204)
(479.28967 -290.75979 -84.563217)
(475.37924 -288.35019 -70.927526)
(523.81253 -327.37794 -151.47964)
(534.75628 -325.79104 -139.12911)
(544.23636 -324.95209 -126.53688)
(549.00487 -324.14009 -113.2656)
(551.28405 -323.55588 -99.451911)
(549.69981 -322.61433 -86.543956)
(545.69022 -321.0228 -71.18303)
(599.15762 -356.50573 -156.26815)
(610.97484 -355.67111 -142.59436)
(620.77914 -355.81027 -129.46048)
(625.82584 -355.60849 -114.75377)
(628.24934 -355.31599 -100.50861)
(626.33212 -355.33099 -86.200799)
(621.90009 -354.67397 -70.213005)
(682.09692 -387.72484 -159.38848)
(694.5078 -388.07238 -144.97956)
(704.81813 -389.22668 -130.71256)
(710.33201 -390.01704 -115.29279)
(712.61575 -390.97327 -99.669395)
(710.61323 -392.07993 -84.661142)
(705.73144 -392.3686 -67.162862)
(773.41365 -421.90077 -161.06337)
(786.4851 -423.38541 -145.38453)
(797.49481 -425.42066 -130.21527)
(802.76425 -427.10833 -113.51554)
(805.33905 -428.71711 -97.151887)
(802.87575 -430.63299 -81.019151)
(797.50622 -431.962 -62.538274)
(873.96341 -458.7998 -160.83597)
(887.76491 -461.25714 -144.28874)
(898.87292 -464.36194 -128.04328)
(904.51426 -466.91866 -110.50406)
(906.95418 -469.52113 -93.184389)
(904.10967 -472.41193 -76.035542)
(898.26675 -474.62207 -56.524674)
(984.57261 -498.43935 -158.9192)
(998.62194 -502.06124 -141.34637)
(1010.3002 -505.92641 -124.12273)
(1015.7731 -509.4445 -105.68358)
(1018.2241 -512.67454 -87.415943)
(1014.9514 -516.42405 -69.46843)
(1008.6684 -519.60674 -49.105991)
(1105.7131 -540.94115 -155.18367)
(1120.363 -545.29081 -136.72433)
(1132.0644 -550.25567 -118.76437)
(1137.6475 -554.44992 -99.452932)
(1139.9839 -558.54192 -80.494649)
(1136.3082 -563.12518 -61.72895)
(1129.5253 -566.93877 -40.594089)
(1238.3649 -585.79015 -149.71677)
(1253.1137 -591.34966 -130.52463)
(1264.9899 -596.91781 -111.70813)
(1270.4974 -601.84754 -91.784909)
(1272.6484 -606.58647 -72.133069)
(1268.6283 -611.72108 -52.809116)
(1261.381 -616.30353 -31.0501)
(1382.8164 -633.25211 -142.56345)
(1397.7432 -639.41716 -122.71191)
(1409.6261 -645.71045 -103.36036)
(1415.005 -651.24706 -82.989942)
(1417.0476 -656.53558 -62.80288)
(1412.5879 -662.31104 -42.991612)
(1404.9445 -667.43151 -20.791561)
(1539.59 -682.60797 -133.6668)
(1554.585 -689.58975 -113.46766)
(1566.2534 -696.3579 -93.757663)
(1571.5706 -702.46848 -73.040051)
(1573.2767 -708.36429 -52.459058)
(1568.6181 -714.56061 -32.517246)
(1560.6089 -720.04968 -9.9847099)
(1709.1055 -733.68493 -123.35948)
(1724.0188 -741.38639 -103.05784)
(1735.3287 -748.37725 -83.129315)
(1740.4757 -755.14691 -62.217974)
(1742.0774 -761.10173 -41.687399)
(1737.0814 -767.55926 -21.459102)
(1728.7227 -773.42832 1.1162517)
(1891.1649 -786.08894 -112.12959)
(1906.2698 -794.15646 -91.432858)
(1916.6813 -801.29558 -71.700673)
(1922.2798 -808.61585 -50.617791)
(1922.9631 -814.76171 -30.36376)
(1918.101 -822.05458 -10.07974)
(1909.5162 -828.12479 12.015101)
(2086.2245 -839.52856 -99.552982)
(2100.9295 -847.5277 -79.134325)
(2110.8249 -855.42936 -59.598562)
(2116.0683 -862.4703 -38.071615)
(2116.225 -868.9717 -19.237983)
(2112.098 -876.10138 1.1436111)
(2103.3476 -882.22956 22.161043)
(2293.8333 -893.06329 -86.243269)
(2308.1302 -901.44023 -66.524757)
(2317.6447 -909.45577 -46.514655)
(2323.0667 -916.59599 -26.943619)
(2323.1918 -923.14868 -7.0518864)
(2318.5817 -930.27802 12.86011)
(2309.3956 -936.7495 32.967163)
(2514.4884 -946.60582 -72.233291)
(2527.4505 -955.23095 -52.664138)
(2537.1875 -963.13792 -33.452676)
(2541.3392 -970.05273 -14.557362)
(2541.7196 -976.66799 5.0647015)
(2536.8265 -983.50635 23.529034)
(2528.0709 -990.26444 43.458437)
(2746.7086 -999.56369 -57.814315)
(2759.3293 -1008.2639 -38.536403)
(2767.857 -1016.0046 -20.733212)
(2772.1062 -1022.914 -1.8032467)
(2771.9349 -1029.6614 16.293197)
(2767.3101 -1036.2581 34.30053)
(2758.6175 -1042.8167 53.242976)
(2990.6866 -1051.7364 -42.787674)
(3002.0152 -1060.1913 -24.696639)
(3010.2777 -1067.8256 -7.4373639)
(3013.8487 -1074.5298 10.233082)
(3013.6694 -1081.0543 27.521049)
(3009.0631 -1087.2714 44.47455)
(3000.6777 -1093.6876 62.349334)
(3245.1178 -1102.5039 -28.048815)
(3255.8005 -1110.7786 -10.751603)
(3263.1371 -1118.0123 5.2710447)
(3266.3473 -1124.4896 22.072192)
(3265.9302 -1130.6813 38.109937)
(3261.4272 -1136.6216 54.025607)
(3253.4183 -1142.6997 70.572845)
(3509.7044 -1151.6493 -13.252686)
(3519.2363 -1159.3739 2.7725691)
(3525.8638 -1166.3094 17.790387)
(3528.6162 -1172.405 33.269085)
(3528.0695 -1178.2895 48.145549)
(3523.7489 -1183.8339 62.822769)
(3516.1825 -1189.5027 78.03646)
(3783.1628 -1198.6087 1.0178497)
(3791.7252 -1205.9123 15.873006)