/*--------------------------------*- C++ -*----------------------------------*\
  =========                 |
  \\      /  F ield         | OpenFOAM: The Open Source CFD Toolbox
   \\    /   O peration     | Website:  https://openfoam.org
    \\  /    A nd           | Version:  6
     \\/     M anipulation  |
\*---------------------------------------------------------------------------*/
FoamFile
{
    version     2.0;
    format      ascii;
    class       pointScalarField;
    location    "0.81";
    object      p;
}
// * * * * * * * * * * * * * * * * * * * * * * * * * * * * * * * * * * * * * //

dimensions      [1 -1 -2 0 0 0 0];

internalField   nonuniform List<scalar> 
625
(
1207492.7
-1707534.7
10605.817
15055.326
1963278.6
-3456249.6
12850.145
5055.4307
789523.4
-38884.582
-183199.56
-9852.1998
5419.7484
11033.672
510747.45
551327.07
542122.46
533985.72
470302.89
459984.29
415720.51
380682.39
362782.57
318909.17
295591.05
267745.57
238897.69
213004.55
187164.19
162365.18
136198.31
115649.59
91350.259
69726.857
51127.418
31154.517
20651.204
-590511.57
-367066.05
-518047.16
-405050.69
-378426.09
-386608.88
-337410.39
-320050.7
-305062.86
-278125.6
-259479.56
-235667.52
-215821.2
-190293.4
-167707.63
-143992.3
-119623.02
-98406.145
-74040.199
-57450.377
-36759.728
-20443.576
-4031.489
1251472.5
-144557.05
-423882.54
-629257.5
-815964.97
-607358.47
-529810.61
-648317.87
-492999.03
-473063.82
-461728.62
-431847.79
-401162.15
-355903.48
-324765.37
-280352.67
-244376.63
-206905.48
-170338.31
-138618.02
-107407.82
-80008.151
-56679.019
-33510.276
-16289.543
945.88652
11277.119
4426.9816
-2987.4273
25294.483
36302.894
51869.48
72813.186
95977.191
120666.19
146354.88
174926.38
203356.65
233631.6
262455.82
296570.67
322842.56
355341.66
365963.43
433850.82
444344.24
459134.48
542567.49
497118.5
625439.44
513396.61
571930.54
1217867.3
1204235.3
1170198.5
-1909506.9
-1897659.4
-1891217.2
23881.011
22192.344
26163.51
-1389.073
4200.2136
2273.2461
279395.99
306989.62
320632.77
291369.07
283241.12
285614.92
257031.92
252225.28
229141.98
211328.41
195374.48
173552.71
152405.06
132845.03
113416.32
93733.946
77772.416
62818.175
47475.364
39502.552
27619.121
17378.93
12731.682
-40227.845
-24374.743
-44553.497
-9350.9067
-30166.676
-19348.855
-23025.799
-18478.95
-23164.851
-21824.786
-23297.562
-22889.095
-21587.312
-18166.29
-15841.234
-11871.366
-7691.3723
-3862.9907
-1412.4249
2536.1928
1339.6923
7656.3027
7404.5496
-385394.13
-334443.67
-315726.48
-280062.66
-321957.29
-259640.57
-261149.45
-237026.9
-213993.84
-192445.19
-171141.04
-148645.26
-128142.61
-108856.98
-90737.52
-74231.609
-59334.259
-45114.582
-34903.627
-21364.61
-12335.494
-7272.9119
1880.8536
767162.49
671720.51
700913.44
-86668.4
-45906.052
-105477.96
-120177.28
-197489.77
-342607.89
-887466.07
-887232.71
-933843.34
-710255.24
-663693.28
-635710.39
-590645.89
-550296.74
-581799.1
-479708.38
-479396.9
-482628.29
-484233.87
-484897.31
-505923.6
-448604.44
-432992.35
-437421.78
-422007.53
-422696.5
-446007.13
-401259.28
-380388.29
-400308.29
-369845.93
-358485.8
-373986.2
-338248.72
-327061.01
-345975.2
-305759.59
-297406.35
-312399.93
-274837.57
-266297.77
-281252.65
-240710.37
-234327.58
-248561.35
-208565.91
-202593.78
-215342.67
-177474.62
-172168.34
-184864.86
-147079.18
-143174.42
-153155.71
-119556.47
-114764.69
-124773.32
-92811.141
-90421.218
-98243.786
-70522.174
-66738.715
-72952.41
-49181.215
-46409.422
-51775.648
-29572.863
-27726.597
-32383.206
-14662.42
-17721.836
-17802.955
-8364.0627
-2631.8061
-7529.3357
-13323.099
-14086.824
-15726.75
4364.3898
3762.2636
4921.5341
12668.028
15207.059
13245.008
633772.11
605944.29
607854.92
594630.68
579999.32
599623.47
619706.05
556438.36
563421.29
530441.7
491761.19
526005.06
515795.29
503851.52
489825.64
492551.84
426814.55
459293.63
447205.79
413677.52
435302.38
427046.22
380009.93
390805.5
389558.42
348905.74
376379.66
360565.86
315350.33
344628.6
332460.38
287690.89
312754.03
299857.24
258193.23
285970.99
267276.88
232208.96
255836.3
237319.25
205820.46
225961.13
206287.87
180230.65
197155.59
176001.12
155625.87
168374.97
147798.45
132081.16
141250.72
120850.2
109143.62
115100.47
93294.507
86999.964
90323.858
72104.992
64836.777
69691.009
50715.648
46732.708
48676.663
32372.426
32025.678
31680.125
27587.559
28135.92
28533.169
308249.18
403326.55
320343.83
352158.11
332248.21
312967.3
300800.94
264900
251487
219328.86
200190.69
171110.99
148084.27
127985.44
107839.78
91602.774
75900.011
63161.558
51038.324
39569.066
29382.502
19707.212
8803.2453
-63914.809
12598.806
-13972.755
19270.154
14123.203
10035.836
7343.0852
12827.724
5627.4135
14363.741
16945.799
19567.283
24032.69
26479.7
28862.979
30510.057
29878.105
29855.518
25761.046
23880.992
20619.447
15137.185
10617.34
-255154.02
-246034.36
-335829.31
-299476.76
-280137.71
-281859.24
-237877.38
-223791.39
-192713.77
-178919
-160847.29
-144502.34
-132467.94
-118145.38
-107185.85
-94767.029
-82110.561
-70306.655
-57563.825
-43522.766
-31949.524
-18168.562
-10289.136
403886.97
447044.79
387835.68
393182.76
384494.35
339812.23
294009.12
287883.55
335540.7
284801.06
341013.55
287714.52
323503.76
265501.84
287039.93
251274.49
281008.4
286498.45
258555.29
272415.15
256298.6
242368.98
240900.75
248612.13
211341.03
226380.34
231309.4
193992.7
214583.29
201998.37
169120.82
188001.49
184878.01
144331.24
169252.7
164475.63
126885.48
147018.56
142689.81
106775.86
126117.81
123264.82
88838.907
106174.56
104393.23
74208.848
89127.168
87151.405
61612.852
72143.804
72017.095
49538.437
57812.773
57697.194
40041.035
44705.437
46837.645
32251.627
37762.665
36458.255
23112.399
24443.671
26002.515
19758.724
18628.217
21532.146
7570.7675
3847.8281
5446.8749
-79079.869
-101184.56
-62706.626
-48760.069
-6772.5839
-18605.956
-9059.9306
-16918.26
-13014.307
-18671.416
-24238.144
-36741.9
-24910.735
-17746.185
7109.5105
-27153.373
-1325.0095
-16424.244
-10623.84
-11701.151
-12116.015
-28187.952
-5025.6837
-10598.897
-12332.943
-1042.7237
-14573.537
-9140.7643
-1343.4154
-11381.295
-6828.8442
2773.1958
-13203.302
1109.5954
9171.2548
-11393.845
6934.4356
12215.118
-10138.436
11170.857
15568.244
-7203.2938
14794.083
19959.542
-3448.4627
18618.178
22888.227
-1154.9106
20288.628
23166.241
2610.4425
19349.658
24110.895
4556.6192
20777.948
22435.009
8783.8588
18384.3
20643.689
5856.5355
17823.716
8894.1267
8234.4535
13989.665
13929.355
9774.0566
12010.978
12260.473
12762.591
-427970.01
-462284.77
-531153.12
-308116.94
-248234.87
-388645.13
-295266.71
-396198.22
-396295.77
-376742.15
-289363.71
-359909.11
-290155.55
-289464.78
-332342.49
-278862.79
-269108.64
-315261.47
-267236.89
-240187.69
-285722.48
-230031.83
-219943.75
-270753.84
-207298.59
-202991.27
-236719.8
-189008.05
-181860.23
-212923.93
-162414.94
-165636.87
-189608.62
-141447.42
-150531.16
-165334.36
-121486.97
-138649.76
-145282.97
-103611.83
-124956.46
-125124.65
-86799.249
-112280.1
-107011.82
-72286.405
-99372.189
-92036.392
-59225.422
-86936.904
-76334.181
-47733.177
-72514.727
-61772.364
-36575.751
-58437.397
-50542.1
-25772.389
-46846.772
-36217.814
-21199.379
-30834.825
-23790.407
-7264.813
-14438.522
-5155.9478
-1212.1745
-8191.0505
-6338.9061
)
;

boundaryField
{
    free
    {
        type            calculated;
    }
    fixed
    {
        type            calculated;
    }
    traction
    {
        type            calculated;
    }
}


// ************************************************************************* //
