/*--------------------------------*- C++ -*----------------------------------*\
  =========                 |
  \\      /  F ield         | OpenFOAM: The Open Source CFD Toolbox
   \\    /   O peration     | Website:  https://openfoam.org
    \\  /    A nd           | Version:  6
     \\/     M anipulation  |
\*---------------------------------------------------------------------------*/
FoamFile
{
    version     2.0;
    format      ascii;
    class       pointVectorField;
    location    "1.33";
    object      u;
}
// * * * * * * * * * * * * * * * * * * * * * * * * * * * * * * * * * * * * * //

dimensions      [0 1 0 0 0 0 0];

internalField   nonuniform List<vector> 
625
(
(0 2.6212547e-19 0)
(0 2.2986828e-19 0)
(-1.7855922 -0.51880571 -0.010285582)
(-1.8686771 -0.11947947 -0.0044026026)
(0 3.4121849e-19 0)
(0 1.7975769e-18 0)
(-1.8725575 -0.12598245 -0.0041783447)
(-1.7893404 -0.52521341 -0.010374036)
(0 -3.9914956e-20 0)
(1.7462111e-19 -4.0561391e-19 0)
(0 8.2601731e-19 0)
(-1.8064608 -0.41885758 -0.0087427273)
(-1.8271324 -0.31895687 -0.0072377354)
(-1.8477804 -0.21929034 -0.005777018)
(-0.0038100332 -0.02188883 -0.02121377)
(-0.018701429 -0.042101534 -0.021173246)
(-0.044820303 -0.064527771 -0.021499948)
(-0.081532539 -0.086300854 -0.020728667)
(-0.12552945 -0.10717548 -0.020746215)
(-0.17882872 -0.12931786 -0.020373976)
(-0.23819438 -0.15052181 -0.020813883)
(-0.30447002 -0.17212148 -0.0208893)
(-0.37645173 -0.19415276 -0.021433332)
(-0.45334844 -0.21575141 -0.021542349)
(-0.53487067 -0.23799762 -0.021825604)
(-0.62023096 -0.26000359 -0.021896052)
(-0.70907045 -0.28217681 -0.021806662)
(-0.8006591 -0.30425225 -0.02147977)
(-0.89469599 -0.3262987 -0.020933021)
(-0.99054519 -0.34823919 -0.020167357)
(-1.087952 -0.37006875 -0.019164513)
(-1.1863788 -0.3917428 -0.018030245)
(-1.2857264 -0.41330166 -0.016682266)
(-1.3853607 -0.43468535 -0.015351391)
(-1.4854953 -0.45592705 -0.013952977)
(-1.5855174 -0.47704009 -0.012638103)
(-1.6856252 -0.49796246 -0.01145126)
(-0.00056033134 0.017650969 0.023501732)
(-0.024372283 0.039885589 0.016843259)
(-0.055047084 0.058765989 0.017103679)
(-0.096263712 0.07580847 0.013174241)
(-0.14685231 0.087990561 0.010513696)
(-0.20689535 0.098617571 0.0072371299)
(-0.27268541 0.10421078 0.0045704811)
(-0.34604517 0.10742075 0.0015342069)
(-0.4243961 0.10724436 -0.00075853662)
(-0.50746977 0.10388717 -0.0032224227)
(-0.59469393 0.098133345 -0.0051498826)
(-0.68507898 0.0897661 -0.0068642742)
(-0.77825551 0.079163303 -0.0081856631)
(-0.87352082 0.066647624 -0.0091288013)
(-0.97051015 0.052360608 -0.0097325635)
(-1.0687167 0.036601239 -0.0099543132)
(-1.1678844 0.019599262 -0.0098880126)
(-1.2676169 0.0014794602 -0.009488235)
(-1.3677891 -0.017412612 -0.0089371763)
(-1.468085 -0.03712067 -0.0081264685)
(-1.5684791 -0.057270673 -0.0072707891)
(-1.6687104 -0.077816058 -0.0063357677)
(-1.768769 -0.098638497 -0.0052594262)
(0 2.3973393e-19 0)
(-3.1227638e-18 -6.7191362e-19 0)
(0 1.6903121e-18 0)
(-0.0065120465 0.011623225 -0.016907989)
(-0.026781674 0.049430541 -0.0206384)
(-0.056781737 0.058772546 -0.017605992)
(-0.097635609 0.080612324 -0.018296679)
(-0.14965772 0.093286131 -0.019235469)
(-0.20827561 0.10323473 -0.018393489)
(-0.27487894 0.10927082 -0.019626082)
(-0.34810026 0.11262349 -0.019626787)
(-0.42670096 0.11150874 -0.019778554)
(-0.5100281 0.10805565 -0.019975355)
(-0.59712021 0.10120975 -0.019785001)
(-0.68773908 0.092015238 -0.019476176)
(-0.78092205 0.080364039 -0.01889515)
(-0.87631572 0.066650666 -0.018062113)
(-0.97344955 0.051252539 -0.017031901)
(-1.0717736 0.034301242 -0.015781556)
(-1.1710987 0.016229704 -0.014391814)
(-1.2709817 -0.0028209151 -0.012893516)
(-1.3712612 -0.022555531 -0.011330189)
(-1.4716858 -0.042823126 -0.0097578299)
(-1.5721432 -0.06340775 -0.0082234922)
(-1.672475 -0.084213998 -0.0067738251)
(-1.7725497 -0.10512295 -0.0054660416)
(-1.8515332 -0.22589681 -0.0057588254)
(-1.8308127 -0.32541708 -0.0073666153)
(-1.8101956 -0.42527484 -0.0089044433)
(-1.6894137 -0.50437905 -0.011448235)
(-1.5892977 -0.48344662 -0.01257172)
(-1.4892759 -0.46221267 -0.013542426)
(-1.3893454 -0.44068 -0.014373691)
(-1.2897246 -0.41880858 -0.015008824)
(-1.1906596 -0.39657239 -0.015363142)
(-1.0923363 -0.3740248 -0.015405301)
(-0.99512131 -0.35116845 -0.015089558)
(-0.89931282 -0.32807048 -0.014379007)
(-0.80533254 -0.30480764 -0.013289994)
(-0.71361087 -0.28142223 -0.011790925)
(-0.62465784 -0.25812181 -0.009940766)
(-0.53892687 -0.23488047 -0.0077792728)
(-0.45701825 -0.21177148 -0.0052843302)
(-0.38006996 -0.18902413 -0.0027183217)
(-0.30724487 -0.16656584 0.00033411048)
(-0.2406562 -0.1449291 0.0034227163)
(-0.18033699 -0.12268872 0.0063284977)
(-0.12719226 -0.1020512 0.010147819)
(-0.081638722 -0.080054523 0.012540163)
(-0.044145024 -0.060697716 0.01643961)
(-0.01788042 -0.036940708 0.018621843)
(-0.0083874622 -0.02042817 0.014773582)
(0 -4.2742733e-19 0)
(0 -4.4478554e-19 -9.1741462e-19)
(0 -1.3110599e-18 0)
(0 7.4828794e-19 0)
(0 -8.2796623e-20 2.6399983e-19)
(0 5.6993944e-19 0)
(-1.8696585 -0.12100156 -0.004300924)
(-1.8706558 -0.12264063 -0.0043583459)
(-1.8716268 -0.12417275 -0.0042346718)
(-1.7865066 -0.52049802 -0.010313064)
(-1.7874635 -0.52210087 -0.010361848)
(-1.7884003 -0.52363977 -0.010366622)
(0.00018405766 -0.029972267 -0.012183244)
(-0.017873235 -0.056705418 -0.0096918179)
(-0.044404606 -0.083276541 -0.011633165)
(-0.081368293 -0.10651815 -0.011727064)
(-0.12512131 -0.12677153 -0.012787904)
(-0.17833254 -0.14333592 -0.013649236)
(-0.23784236 -0.1551867 -0.014579683)
(-0.30522906 -0.1637273 -0.015500092)
(-0.37884366 -0.16847156 -0.016381143)
(-0.4589206 -0.17055213 -0.017116066)
(-0.54430849 -0.17107467 -0.017681983)
(-0.63429447 -0.17074402 -0.018076489)
(-0.72799759 -0.17112273 -0.018185114)
(-0.82447774 -0.17324261 -0.01803541)
(-0.92287587 -0.1782677 -0.017664637)
(-1.0223222 -0.18714055 -0.017028611)
(-1.1222151 -0.20055275 -0.016231987)
(-1.2219311 -0.2189927 -0.015265388)
(-1.3211567 -0.24256309 -0.01421788)
(-1.4196008 -0.27095158 -0.01316031)
(-1.5173113 -0.30378339 -0.012010029)
(-1.6141834 -0.34006244 -0.010934953)
(-1.7105482 -0.37881633 -0.0098460394)
(0.0084421907 -0.001886394 -0.0014164497)
(-0.011443245 -0.0017308995 -0.0015143397)
(-0.039103359 -0.0038479016 -0.0025476085)
(-0.078457898 -0.0061707887 -0.0040934695)
(-0.1272968 -0.0099989432 -0.0052882096)
(-0.18400197 -0.015585 -0.006611727)
(-0.24809899 -0.022958517 -0.007972061)
(-0.31887251 -0.032003317 -0.0094326891)
(-0.39495781 -0.042685898 -0.010799894)
(-0.47613926 -0.05501218 -0.011974588)
(-0.56122278 -0.068829046 -0.013110511)
(-0.64990802 -0.083953566 -0.014006444)
(-0.74149411 -0.10030222 -0.01466555)
(-0.83543419 -0.11769196 -0.015088627)
(-0.93129846 -0.13593779 -0.015213523)
(-1.0286232 -0.15492938 -0.015045724)
(-1.127109 -0.17450694 -0.014624194)
(-1.2263584 -0.19454094 -0.013933886)
(-1.3262255 -0.21495709 -0.01306162)
(-1.426354 -0.23551542 -0.012011263)
(-1.5267065 -0.25638788 -0.010804837)
(-1.6270009 -0.2772068 -0.0096819944)
(-1.72732 -0.29814051 -0.0084157111)
(0.010454348 0.02783547 0.0096568424)
(-0.011949538 0.055947971 0.0088819689)
(-0.040561181 0.081070255 0.0074463212)
(-0.084486351 0.10053821 0.0051603072)
(-0.13645975 0.11341551 0.0030958291)
(-0.19711088 0.11717592 0.00068508026)
(-0.26468417 0.11418987 -0.0017222893)
(-0.33733713 0.10288473 -0.0039674006)
(-0.41452598 0.085003031 -0.0059281616)
(-0.49544519 0.061239209 -0.0077972254)
(-0.579299 0.032914196 -0.0093490422)
(-0.66592226 0.0016143183 -0.010617161)
(-0.75485682 -0.03125351 -0.011604972)
(-0.84602595 -0.064143852 -0.012271942)
(-0.9393054 -0.095644681 -0.012643422)
(-1.0345984 -0.12463137 -0.01271071)
(-1.1318 -0.15007997 -0.012501364)
(-1.2307899 -0.1714195 -0.012021584)
(-1.3313344 -0.18835958 -0.011281402)
(-1.4332668 -0.20086076 -0.010412734)
(-1.5362366 -0.20952202 -0.0092873022)
(-1.6399 -0.21471584 -0.008189383)
(-1.7439146 -0.21770994 -0.0069322065)
(0 -2.6832582e-19 0)
(0 4.4661205e-19 9.3678743e-19)
(0 9.7116295e-19 0)
(-4.6406417e-19 9.2660191e-21 0)
(1.93829e-19 -2.8719534e-19 -1.4304318e-20)
(-1.2215118e-18 -1.0985504e-18 0)
(0 4.1531381e-19 0)
(0 1.1161663e-18 -2.9685109e-20)
(0 1.2268211e-18 0)
(-0.0091088968 0.0077902236 0.009937799)
(-0.011809302 0.010420876 0.0017860878)
(-0.0107152 0.007441518 -0.0056737249)
(-0.034562521 0.04482775 0.0080046011)
(-0.034759931 0.045168333 -0.00068863473)
(-0.03369657 0.043761224 -0.010695333)
(-0.061137598 0.057282409 0.007760601)
(-0.063593221 0.055875428 -0.00061962194)
(-0.063432989 0.060074627 -0.010468195)
(-0.10308143 0.07620287 0.0046821827)
(-0.10524092 0.078454324 -0.0029621014)
(-0.10333425 0.077856747 -0.011039083)
(-0.15366025 0.08893444 0.0028635478)
(-0.15500043 0.088810929 -0.0038180954)
(-0.15494576 0.091430789 -0.012124967)
(-0.21188006 0.098561279 0.00058758549)
(-0.21412181 0.10008417 -0.0063176783)
(-0.21290128 0.10107247 -0.012669143)
(-0.2782665 0.10481741 -0.0019278669)
(-0.27961027 0.10582174 -0.007026531)
(-0.27954157 0.10743927 -0.014083625)
(-0.35078625 0.10786029 -0.0039502282)
(-0.35205873 0.10862107 -0.0089497796)
(-0.35196526 0.11021538 -0.014760339)
(-0.42855838 0.10723963 -0.0059961728)
(-0.43007865 0.10843603 -0.01035647)
(-0.42979741 0.10978903 -0.015558395)
(-0.51150022 0.10421949 -0.0077209046)
(-0.51264371 0.10507211 -0.011561094)
(-0.51285339 0.1061907 -0.016183986)
(-0.59808358 0.098187815 -0.0092039853)
(-0.59942413 0.098794023 -0.012648263)
(-0.59947416 0.099832202 -0.016605823)
(-0.68827318 0.089681242 -0.010464203)
(-0.68936738 0.090126212 -0.013339175)
(-0.68962173 0.090871824 -0.016768517)
(-0.78100452 0.078949833 -0.01127298)
(-0.78215085 0.079103565 -0.013794407)
(-0.78246028 0.079658821 -0.0166974)
(-0.87604129 0.066226438 -0.011801482)
(-0.87706137 0.066083788 -0.013956734)
(-0.87744207 0.066370506 -0.016304024)
(-0.97271518 0.05172619 -0.011968762)
(-0.97372942 0.051346938 -0.013761801)
(-0.97421603 0.051377573 -0.015647832)
(-1.0707197 0.03577625 -0.011797496)
(-1.0716929 0.035108589 -0.013301337)
(-1.0722409 0.034862493 -0.014758577)
(-1.1696625 0.018532142 -0.011351617)
(-1.1706056 0.017649475 -0.012578715)
(-1.1712347 0.017128017 -0.013638381)
(-1.2692233 0.00026547795 -0.010656839)
(-1.2701647 -0.00083662975 -0.011614336)
(-1.2708822 -0.0015962977 -0.012370737)
(-1.3692252 -0.018831725 -0.0097665016)
(-1.3701594 -0.020093621 -0.010508263)
(-1.3709214 -0.021098579 -0.010992993)
(-1.4693982 -0.038607308 -0.0087483067)
(-1.4703118 -0.040009636 -0.0092852264)
(-1.4711509 -0.041187364 -0.0095560337)
(-1.569621 -0.058847313 -0.0076660673)
(-1.5705627 -0.060324493 -0.0080023026)
(-1.5714458 -0.061678931 -0.0081227057)
(-1.6697855 -0.079409188 -0.0065301488)
(-1.6707425 -0.080972036 -0.0067056066)
(-1.6716707 -0.082429427 -0.0067474814)
(-1.769828 -0.10026358 -0.0053453845)
(-1.7707269 -0.10183231 -0.0054249526)
(-1.7716908 -0.10340152 -0.0054393598)
(-1.8073642 -0.42053676 -0.0087998054)
(-1.8083387 -0.42213516 -0.0088721767)
(-1.8092598 -0.42369859 -0.0088762139)
(-1.8280492 -0.32061478 -0.0073117508)
(-1.8290272 -0.32221779 -0.0073690133)
(-1.8299094 -0.32381585 -0.0073148835)
(-1.8487147 -0.22093607 -0.0057838133)
(-1.8497143 -0.2225112 -0.0058512001)
(-1.8506218 -0.22415666 -0.0057715828)
(-0.014616256 -0.017835484 -0.0097540474)
(-0.01468882 -0.019973648 -0.0029570185)
(-0.016073522 -0.018235638 0.0057954867)
(-0.027720253 -0.04086102 -0.010008303)
(-0.029051922 -0.040753839 -0.00040065529)
(-0.02681941 -0.038972116 0.010240593)
(-0.053848627 -0.065775707 -0.011091034)
(-0.054539342 -0.064442136 -0.0033535986)
(-0.053580278 -0.06443187 0.008665111)
(-0.088509854 -0.085330697 -0.011475815)
(-0.090391537 -0.084756271 -0.0037631094)
(-0.088514617 -0.083451975 0.0057030256)
(-0.13250472 -0.10843988 -0.012820875)
(-0.13421733 -0.10763317 -0.0052970155)
(-0.13278992 -0.1061035 0.0032848218)
(-0.18475389 -0.12940094 -0.013337067)
(-0.18608146 -0.12769389 -0.0075532263)
(-0.18553104 -0.12698247 0.00058948502)
(-0.24374281 -0.15059725 -0.014638272)
(-0.24543301 -0.15029258 -0.0088687)
(-0.24482485 -0.14858231 -0.0019566176)
(-0.30965749 -0.17263192 -0.015633859)
(-0.31109662 -0.1715379 -0.010660543)
(-0.31078437 -0.17029608 -0.0043192237)
(-0.38072645 -0.19427723 -0.016930276)
(-0.38270529 -0.19370959 -0.011993825)
(-0.38235152 -0.19249974 -0.0071003334)
(-0.45765476 -0.21642291 -0.017623892)
(-0.45908764 -0.21572572 -0.014137841)
(-0.4594366 -0.21495193 -0.008983022)
(-0.53873859 -0.23839489 -0.018494893)
(-0.54029822 -0.23820835 -0.014931876)
(-0.54051235 -0.23741142 -0.01104161)
(-0.6238119 -0.26075774 -0.019033306)
(-0.62524513 -0.26062891 -0.016212716)
(-0.62576735 -0.26026078 -0.012769674)
(-0.71221432 -0.28299035 -0.019449277)
(-0.71369188 -0.28323003 -0.016966356)
(-0.71427782 -0.2830693 -0.01419398)
(-0.80350397 -0.30530672 -0.019510504)
(-0.80490696 -0.30577672 -0.017566934)
(-0.80562726 -0.30587515 -0.015288492)
(-0.89713288 -0.32752815 -0.01937918)
(-0.89852998 -0.32821769 -0.017805936)
(-0.89930019 -0.32861 -0.016006485)
(-0.99268616 -0.34962246 -0.018933445)
(-0.99401098 -0.35056068 -0.017761976)
(-0.99483937 -0.35120201 -0.016371493)
(-1.0897117 -0.37161751 -0.01827143)
(-1.0910065 -0.37271784 -0.017418715)
(-1.0918759 -0.37359434 -0.016377839)
(-1.1879169 -0.39339125 -0.017379168)
(-1.1891376 -0.39467243 -0.016804531)
(-1.1899995 -0.39576148 -0.01606445)
(-1.2869052 -0.41503131 -0.016317426)
(-1.2880583 -0.41641193 -0.015987923)
(-1.2889912 -0.41766493 -0.015476701)
(-1.3864176 -0.43643372 -0.015205128)
(-1.3875952 -0.43793772 -0.014967346)
(-1.3884796 -0.43931692 -0.014659371)
(-1.4864056 -0.45766536 -0.013902153)
(-1.4874684 -0.45919962 -0.01385116)
(-1.4883771 -0.46067205 -0.013670214)
(-1.5863635 -0.47873538 -0.012685456)
(-1.5873632 -0.48030807 -0.012681649)
(-1.5883305 -0.48185417 -0.012609068)
(-1.6865183 -0.49965682 -0.011468777)
(-1.6874977 -0.50126352 -0.011461766)
(-1.6884466 -0.50280542 -0.011438328)
(-0.00060015041 -0.024053034 0.0085284162)
(-0.017449984 -0.058122946 0.0090446273)
(-0.042844365 -0.076469792 0.006874809)
(-0.08203876 -0.10110073 0.0055682513)
(-0.12613486 -0.12061262 0.0041357937)
(-0.18002282 -0.13589033 0.0012790497)
(-0.24046521 -0.14878968 -0.0010344149)
(-0.30811756 -0.15719052 -0.0036048185)
(-0.38229474 -0.16283077 -0.0060067224)
(-0.46265618 -0.16572447 -0.0084650314)
(-0.54814504 -0.16730971 -0.010502539)
(-0.63833293 -0.16828146 -0.012300543)
(-0.73207302 -0.16994535 -0.013727743)
(-0.82855442 -0.17344352 -0.014687531)
(-0.92689849 -0.17977502 -0.015221533)
(-1.0262944 -0.18984587 -0.015341593)
(-1.1260948 -0.20433279 -0.015098088)
(-1.2257662 -0.22363791 -0.014552567)
(-1.3249475 -0.24786633 -0.013799815)
(-1.4234257 -0.2767906 -0.012867466)
(-1.5211125 -0.30992606 -0.011899647)
(-1.6180059 -0.34640686 -0.010835407)
(-1.7143522 -0.38524513 -0.0098405995)
(0.0063379427 -0.0025695202 -0.00054360211)
(-0.011440559 -0.00094519907 -0.00010402829)
(-0.041196058 0.00082153819 -0.0028431668)
(-0.080643642 -0.0022159503 -0.0032757956)
(-0.12841101 -0.0058390912 -0.0049195883)
(-0.18620182 -0.010004106 -0.0075296367)
(-0.24983771 -0.018670692 -0.008630734)
(-0.32077006 -0.027390613 -0.010419658)
(-0.397275 -0.038902775 -0.011844153)
(-0.47850425 -0.051818024 -0.013011454)
(-0.56402123 -0.066585745 -0.013860555)
(-0.65311528 -0.082677036 -0.014598917)
(-0.74494381 -0.10007996 -0.014970302)
(-0.83920002 -0.11862864 -0.015136241)
(-0.93522829 -0.13799113 -0.015051113)
(-1.0326873 -0.15804612 -0.014745906)
(-1.1312049 -0.17859067 -0.014226422)
(-1.2304749 -0.19945576 -0.013522994)
(-1.3302753 -0.22048773 -0.012667123)
(-1.4303626 -0.24161297 -0.011698099)
(-1.530613 -0.26269059 -0.010649765)
(-1.6308145 -0.28370934 -0.009557814)
(-1.7311054 -0.30470104 -0.0084767597)
(0.0096964242 0.02860425 -0.010148061)
(-0.015040495 0.05584366 -0.010476729)
(-0.044346991 0.087958636 -0.013543264)
(-0.086737228 0.10285714 -0.011498188)
(-0.13920222 0.11915574 -0.013788738)
(-0.2008468 0.12239252 -0.013896983)
(-0.26721759 0.11913837 -0.014311782)
(-0.34101474 0.1078378 -0.015317379)
(-0.41774496 0.089239608 -0.015723407)
(-0.49887767 0.064756551 -0.016220057)
(-0.58265759 0.035625362 -0.016671115)
(-0.66917993 0.0032912342 -0.016901506)
(-0.75809072 -0.030639509 -0.017020433)
(-0.84921251 -0.06467274 -0.016895435)
(-0.94249313 -0.097311569 -0.016579308)
(-1.037816 -0.12736711 -0.015997238)
(-1.1350841 -0.15385748 -0.01519299)
(-1.2341407 -0.17607488 -0.014151215)
(-1.3348013 -0.19373181 -0.012937369)
(-1.4367929 -0.20683496 -0.0115587)
(-1.5398158 -0.21579531 -0.010114753)
(-1.6435637 -0.22123901 -0.0086057028)
(-1.7475986 -0.22423887 -0.0071776571)
(-0.0054392209 -0.023435073 -0.0052784651)
(-0.0060018578 -0.024356964 -0.001996471)
(-0.0073875589 -0.023416014 0.0030283489)
(-0.025096803 -0.057221886 -0.0049857137)
(-0.027949145 -0.056944379 -0.00025837315)
(-0.025012622 -0.056623191 0.0062122818)
(-0.052258286 -0.082060884 -0.0065611212)
(-0.05214315 -0.081184643 -0.0016373926)
(-0.051334342 -0.081016464 0.0030619118)
(-0.087684091 -0.10682952 -0.0072145587)
(-0.090355666 -0.10650696 -0.0024852387)
(-0.088567564 -0.10435597 0.0020829171)
(-0.13209051 -0.12687636 -0.008083192)
(-0.13349767 -0.12568257 -0.004443015)
(-0.13248919 -0.12442824 0.00056263092)
(-0.18413294 -0.14307417 -0.0097274438)
(-0.18618874 -0.14258244 -0.0058059341)
(-0.18490683 -0.14080316 -0.001740786)
(-0.24356873 -0.15530477 -0.01089799)
(-0.24523026 -0.15470144 -0.0074849427)
(-0.24468099 -0.15264484 -0.0039872649)
(-0.31027957 -0.16391372 -0.012246972)
(-0.31219571 -0.16295646 -0.009393509)
(-0.31169735 -0.16126871 -0.0061901134)
(-0.38381571 -0.16845931 -0.013573015)
(-0.38530109 -0.16802323 -0.011083003)
(-0.38511637 -0.16642614 -0.0082610494)
(-0.46326316 -0.17091681 -0.014749001)
(-0.4647159 -0.17064504 -0.012597361)
(-0.46495352 -0.16892998 -0.010356232)
(-0.5481849 -0.17145447 -0.015709372)
(-0.54962396 -0.17111945 -0.013939046)
(-0.54987344 -0.16996442 -0.012232947)
(-0.63769709 -0.17131294 -0.016478694)
(-0.63903995 -0.17139987 -0.015167981)
(-0.63957044 -0.1704683 -0.013678971)
(-0.73096653 -0.17192655 -0.01696206)
(-0.73225752 -0.17214733 -0.015898272)
(-0.73289178 -0.1715707 -0.014872162)
(-0.827025 -0.17421102 -0.017111227)
(-0.82825975 -0.17472749 -0.016423337)
(-0.829014 -0.17444845 -0.015618609)
(-0.92503238 -0.17943057 -0.017023755)
(-0.9262332 -0.18014332 -0.016530333)
(-0.92703449 -0.18025715 -0.015963371)
(-1.0241548 -0.18844348 -0.016608171)
(-1.0253102 -0.18941304 -0.016322568)
(-1.026158 -0.18981494 -0.015916979)
(-1.1237412 -0.20201047 -0.015989066)
(-1.1248624 -0.20315821 -0.015816622)
(-1.1257416 -0.20386221 -0.015540571)
(-1.2232379 -0.22054534 -0.015141316)
(-1.2243451 -0.22184749 -0.015067361)
(-1.2252134 -0.22279574 -0.014877035)
(-1.3222772 -0.24416069 -0.014186806)
(-1.3233274 -0.24558615 -0.014151624)
(-1.3242675 -0.24674066 -0.014026404)
(-1.4206065 -0.27259342 -0.013131105)
(-1.4217504 -0.27413428 -0.013101609)
(-1.4226078 -0.27545024 -0.01301212)
(-1.5182669 -0.3054225 -0.012010247)
(-1.5192913 -0.30704397 -0.012003109)
(-1.5202069 -0.30844161 -0.011973688)
(-1.6151145 -0.34171367 -0.010961037)
(-1.6160768 -0.34332767 -0.010918758)
(-1.6170613 -0.34482619 -0.010874195)
(-1.7114804 -0.38049716 -0.0098507585)
(-1.7124572 -0.38209938 -0.0098242317)
(-1.7134076 -0.3836506 -0.0098357929)
(0.0022717726 -0.0010524547 -0.00018654532)
(0.00067854505 -0.0024220898 0.00020824363)
(-0.00071938933 -0.0016821925 0.000726091)
(-0.018407603 -0.0017373049 0.00012607504)
(-0.019741074 -0.0025047872 0.00060211361)
(-0.017207875 -0.001654649 0.00088187721)
(-0.046820178 -0.0041465828 -0.0014710803)
(-0.047755321 -0.0039516536 -0.002458032)
(-0.047380329 -0.0023708321 -0.0015825878)
(-0.085218406 -0.005487128 -0.0025514801)
(-0.087776464 -0.0053672743 -0.0030028455)
(-0.086236206 -0.0025639908 -0.0024735327)
(-0.13378467 -0.010414834 -0.0043717943)
(-0.13507864 -0.0098781372 -0.0052769408)
(-0.13396612 -0.0082232768 -0.0041138876)
(-0.18967564 -0.015567615 -0.0058039561)
(-0.19142378 -0.014923839 -0.0062003161)
(-0.190598 -0.012426524 -0.0061876079)
(-0.25342318 -0.023270449 -0.0071899192)
(-0.25481028 -0.022569692 -0.0083204673)
(-0.25438034 -0.020072567 -0.0079286697)
(-0.32351331 -0.032084079 -0.0090081881)
(-0.32497462 -0.031402577 -0.0098162238)
(-0.32440811 -0.029443383 -0.0094498262)
(-0.39909538 -0.042980711 -0.010421672)
(-0.40054984 -0.042543737 -0.011113025)
(-0.40039008 -0.040330541 -0.01114776)
(-0.47979848 -0.055455424 -0.011734077)
(-0.48126517 -0.054844958 -0.012639789)
(-0.48117136 -0.053166601 -0.012531922)
(-0.56457952 -0.069240724 -0.012975203)
(-0.56608237 -0.068971379 -0.013779388)
(-0.566097 -0.067429251 -0.013512177)
(-0.65293629 -0.084533621 -0.013954652)
(-0.65441867 -0.084447181 -0.01467445)
(-0.65455937 -0.083323889 -0.014417606)
(-0.74420258 -0.10103596 -0.014670752)
(-0.74573705 -0.10115793 -0.015298251)
(-0.74594813 -0.10028094 -0.014952335)
(-0.83786504 -0.11855303 -0.015126084)
(-0.83939278 -0.11888455 -0.015652441)
(-0.83967189 -0.11847985 -0.015252774)
(-0.93347408 -0.13699476 -0.015281172)
(-0.93495674 -0.13758067 -0.015669213)
(-0.93534196 -0.13749973 -0.015235384)
(-1.0305614 -0.15615482 -0.015113277)
(-1.0319905 -0.15694048 -0.015409677)
(-1.0324651 -0.15724615 -0.0149866)
(-1.1288272 -0.17589275 -0.014694092)
(-1.1301756 -0.17690124 -0.014875761)
(-1.1307548 -0.1774896 -0.014464952)
(-1.2278885 -0.19609665 -0.013993688)
(-1.2291693 -0.19721851 -0.014100528)
(-1.2298378 -0.19814425 -0.013751534)
(-1.3275958 -0.21654119 -0.013107628)
(-1.3287746 -0.21788869 -0.013149355)
(-1.3295315 -0.21900116 -0.012854337)
(-1.4275591 -0.23733603 -0.012057736)
(-1.4287325 -0.23866615 -0.012048659)
(-1.4295251 -0.23998749 -0.011827961)
(-1.5279471 -0.25813888 -0.010862243)
(-1.5287005 -0.25953665 -0.010848713)
(-1.5297582 -0.26104287 -0.010744069)
(-1.6280239 -0.27893167 -0.0097076761)
(-1.6290358 -0.28049921 -0.0096659682)
(-1.6299425 -0.28203107 -0.0096062646)
(-1.7282751 -0.29985981 -0.0084403401)
(-1.7292624 -0.30144543 -0.0084411883)
(-1.7301797 -0.3030161 -0.0084609177)
(0.0036813865 0.026048969 0.0043682477)
(0.0036873143 0.025334 7.55396e-05)
(0.0036110745 0.025117368 -0.0042396353)
(-0.021492152 0.055166905 0.0043505152)
(-0.023247623 0.052854217 -0.00097303579)
(-0.020920475 0.055045266 -0.0053402879)
(-0.049167965 0.081626954 0.0026803634)
(-0.050613879 0.084372883 -0.0024821994)
(-0.05049357 0.085120806 -0.0074454318)
(-0.092834751 0.10151276 0.00087954769)
(-0.094045269 0.10093225 -0.0036408908)
(-0.093335625 0.10256028 -0.0075806315)
(-0.14368467 0.11327701 -0.0011282211)
(-0.14522932 0.11531421 -0.0053707672)
(-0.14443267 0.11629382 -0.0090515495)
(-0.20398223 0.11807504 -0.0029067126)
(-0.20561416 0.11914494 -0.0068098752)
(-0.20490173 0.12070383 -0.010204185)
(-0.27069377 0.11459977 -0.0051090522)
(-0.27194589 0.11597488 -0.0088032002)
(-0.27155234 0.11688853 -0.011518635)
(-0.34273077 0.10324814 -0.0070149481)
(-0.34436258 0.10459585 -0.0098289434)
(-0.3438916 0.1058057 -0.012508194)
(-0.4195498 0.085314886 -0.0085968823)
(-0.42084366 0.086544142 -0.011419075)
(-0.42072296 0.087361304 -0.013731274)
(-0.49983797 0.061414314 -0.010231004)
(-0.50123936 0.062371484 -0.012549723)
(-0.50111412 0.063178984 -0.014356005)
(-0.58325694 0.032928329 -0.011477227)
(-0.58458288 0.033791368 -0.013403242)
(-0.58469405 0.034263502 -0.015073546)
(-0.66944971 0.001422518 -0.012464095)
(-0.6706528 0.0019770489 -0.014137473)
(-0.67086262 0.0022749425 -0.01550624)
(-0.75797788 -0.031671019 -0.013212022)
(-0.75912837 -0.031321514 -0.014585424)
(-0.75952317 -0.031281726 -0.015728659)
(-0.84882749 -0.064758572 -0.013650837)
(-0.84987803 -0.064721306 -0.014776939)
(-0.85035788 -0.06493277 -0.015758978)
(-0.94179375 -0.096508124 -0.01381372)
(-0.94277774 -0.09675367 -0.014734024)
(-0.94337957 -0.097196443 -0.015543017)
(-1.0368065 -0.12568716 -0.013694635)
(-1.037754 -0.12619855 -0.014428656)
(-1.0384223 -0.12686759 -0.01509414)
(-1.1337754 -0.15133787 -0.013313242)
(-1.1346908 -0.15210524 -0.013871171)
(-1.1354212 -0.15300313 -0.014419786)
(-1.2325233 -0.17283847 -0.01265904)
(-1.2334443 -0.17382365 -0.01308812)
(-1.2342128 -0.17493419 -0.013525737)
(-1.3328955 -0.18988745 -0.011795038)
(-1.3338178 -0.19107156 -0.012107835)
(-1.3346195 -0.19233641 -0.01242057)
(-1.4346452 -0.20249502 -0.010754683)
(-1.4355544 -0.20382551 -0.010926042)
(-1.4363792 -0.20525468 -0.011197648)
(-1.5374198 -0.21114218 -0.00952085)
(-1.5383561 -0.21259566 -0.0097009685)
(-1.5392149 -0.21412563 -0.0098412987)
(-1.6409538 -0.21639821 -0.008324143)
(-1.6419142 -0.21790091 -0.0084145409)
(-1.6428363 -0.2195072 -0.0084799721)
(-1.7449107 -0.21931486 -0.006984816)
(-1.7458517 -0.22089128 -0.0070165048)
(-1.7467684 -0.22248548 -0.0070750518)
)
;

boundaryField
{
    free
    {
        type            calculated;
    }
    fixed
    {
        type            calculated;
    }
    freeTop
    {
        type            calculated;
    }
}


// ************************************************************************* //
