/*--------------------------------*- C++ -*----------------------------------*\
  =========                 |
  \\      /  F ield         | OpenFOAM: The Open Source CFD Toolbox
   \\    /   O peration     | Website:  https://openfoam.org
    \\  /    A nd           | Version:  6
     \\/     M anipulation  |
\*---------------------------------------------------------------------------*/
FoamFile
{
    version     2.0;
    format      ascii;
    class       pointScalarField;
    location    "1.41";
    object      p;
}
// * * * * * * * * * * * * * * * * * * * * * * * * * * * * * * * * * * * * * //

dimensions      [1 -1 -2 0 0 0 0];

internalField   nonuniform List<scalar> 
28033
(
648198.56
-848764.07
7195.1837
2558.2809
1156709.3
-1268305.3
3463.3302
766.30544
535153.8
480472.34
418016.92
342682.57
259822.15
183818.82
104416.5
17721.839
-66830.108
-146976.09
-235835.81
-286681.26
-392959.79
-477470.4
-460460.51
-13954.46
-8022.6704
-8764.498
-5347.034
-4702.8221
-2496.6159
-403.91022
1895.6539
3920.3636
6218.8992
8633.1751
9947.0081
11657.846
12766.064
11342.033
160498.16
178251.01
162834.36
176308.06
169280.52
176165.97
176275.53
177476.99
177039.22
178995.49
176663.02
175838.5
175684.58
174752.41
172650.23
170664.5
170550.54
168129.2
166682.42
164695.63
163355.16
160963.06
160287.12
157872.49
156111.06
154483.83
152748.47
150606.56
149000.84
146969.25
145232.23
143019.19
141410.48
139525.15
137184.07
135383.18
133556.06
132250.67
129517.96
128131.15
125779.97
123694.81
121559.4
119712.05
117366.31
115490.25
113143.21
111132.29
108740.53
106664.02
104207.53
102031.37
99611.793
97319.949
94965.913
92647.371
90359.869
88120.016
85911.1
83828.528
81791.002
79865.149
78005.708
76406.097
74763.952
73368.888
72268.879
70872.981
69342.245
68276.45
67049.827
66079.333
64759.387
63763.628
62177.951
61174.599
59213.021
58046.638
55720.652
54232.532
51638.819
49731.575
46828.367
44117.314
41110.461
37988.099
34999.276
31951.594
27770.947
25003.195
22258.706
16868.51
17286.868
15117.955
12049.222
-158354.45
-134251.98
-155895.99
-140465.66
-159310.57
-154121.11
-161991.84
-156817.12
-162851.36
-158219.23
-161787.44
-158021.09
-158939.59
-157486.38
-156841.13
-155025.57
-154336.19
-152106.02
-151688.23
-149850.12
-148353.69
-147800.05
-145396.78
-145415.74
-142829.29
-142191.91
-140415.79
-138991.44
-137715.01
-135896.71
-134179.58
-132958.02
-130716.24
-129667.81
-127717.63
-126535.28
-124053.18
-122940.91
-120675.54
-119257.86
-117361.83
-115614.04
-113779.99
-112011.49
-110092.57
-108290.15
-106322.76
-104395.12
-102381.32
-100349.77
-98232.25
-96107.222
-93894.047
-91707.907
-89418.381
-87180.387
-84894.504
-82643.713
-80394.742
-78209.39
-76044.827
-73967.994
-71949.706
-69996.379
-68132.647
-66315.905
-64678.516
-63047.713
-61722.81
-59913.186
-58584.462
-57043.539
-55720.976
-54204.502
-52786.26
-51277.155
-49647.959
-48058.275
-46238.124
-44408.853
-42406.191
-40315.268
-37984.742
-35713.896
-33095.636
-30497.405
-27739.768
-24992.672
-21881.936
-19214.967
-16363.225
-13264.541
-10879.112
-9463.4561
-6569.8183
948733.2
898293.26
641314.97
653700.16
442658.77
258654.94
155900.43
-31137.577
-166793.34
-347143.78
-465626.27
-631606.3
-788181.07
-911406.13
-963154.86
-254574.52
-201896.57
-98117.632
-191615.15
-163066.86
-171578.47
-167322.3
-175781.47
-170027.86
-175371.98
-177480.27
-167839.62
-175955.21
-165257.35
-174690.77
-168436.91
-169060.12
-161414.2
-163515.61
-158500.24
-157176.93
-153578.59
-156065.4
-153358.61
-150292.41
-150793.73
-144757.83
-147536.11
-141131.02
-142989.19
-139730.08
-138957.6
-136070.22
-135080.19
-133229.01
-128368.15
-128753.04
-126915.48
-124760.07
-122922.79
-120823.69
-118875.93
-116857.44
-114807.68
-112700.78
-110706.87
-108448.89
-106343.88
-104046.12
-101842.71
-99508.973
-97228.677
-94867.756
-92564.54
-90218.863
-87874.446
-85633.794
-83350.252
-81172.697
-79072.122
-77023.114
-75106.073
-73266.127
-71545.463
-69920.273
-68439.657
-67123.447
-65972.79
-63717.628
-63371.914
-62246.988
-61083.95
-59938.217
-58840.298
-57572.57
-56323.291
-54879.617
-53433.392
-51710.507
-49887.629
-47782.45
-45618.094
-43033.746
-40504.543
-37569.099
-34631.512
-31345.177
-28202.926
-24688.507
-21400.923
-18059.959
-14782.833
-12575.323
-9958.8037
-8587.8172
14271.585
14586.527
11312.252
12064.182
7704.4466
7921.9829
3796.9979
2056.9997
-786.74117
-3384.5004
-3249.9072
-7664.1699
-6731.6071
-12241.747
-9744.0603
21269.815
16730.177
16831.906
19618.573
21679.87
24896.429
27826.121
31002.009
33859.526
37013.626
39781.33
42366.464
45083.388
47598.704
49989.385
52101.763
54237.508
56082.205
57875.01
59593.217
61141.081
62735.329
64222.49
65679.739
67117.44
68584.417
69261.191
72486.312
73204.464
75201.211
76956.332
78936.433
80917.803
83054.999
85239.125
87510.156
89862.335
92220.694
94665.674
97095.195
99542.98
101965.82
104406.86
106749.85
109115.08
111384.37
113631.4
115805.5
117942.97
120006.07
122052.13
124017.34
125921.34
127995.14
129649.45
131721.42
133142.53
133741.63
138446.92
138573.56
139410.25
144601.02
143569.07
146528.68
145829
151498.76
148163.81
154621.52
153544.86
156706.31
157358.57
156983.69
162376.67
161455.79
162018.42
165572.41
165090.95
167823.48
168108.08
171705.96
174916.9
169853.34
172831.3
175151.74
178291.79
175185.16
177962.21
175218.44
174065.74
170272.36
167984.63
175358.68
168186.99
150700.86
192607.15
449212.68
487666.72
515996.14
537367.45
545644.39
563226.91
559435.91
568383.23
557610.45
542942.23
552422.2
510900.15
492363.79
514609.36
393426.23
-683658.15
-869874.91
-867575.16
-935469.79
-920449.76
-874811.83
-1009011.5
-1083017
-1015914.3
-1024996.4
-987449.03
-956407.74
-900610.15
-897964.83
-845578.73
2117.5722
2178.6891
2944.3728
3402.8946
4528.68
5146.5064
5410.965
5538.2451
5540.2778
5249.7571
4896.866
4012.3033
3439.8804
2938.1071
2865.0527
-252.89803
2503.4588
1794.7179
1091.4772
230.55242
98.405993
-401.74919
-296.50218
-66.687662
172.9389
1169.6845
1827.2394
2153.6519
5698.1096
249.87109
157418.74
166672.31
148444.77
149627.32
154075.69
156737.69
157800.56
159529.63
160237.95
159849.41
159090.72
160494.06
158124.11
157441.23
155433.62
156235.92
152997.3
152488.17
150158.44
149420.63
147459.74
146731.06
144328.41
142789.93
141071.58
139916.71
137753.69
136257.85
134556.88
132933.79
130825.98
129281.62
127864.46
125927.48
124126.67
122432.42
120709.46
118438.71
116900.6
115333.92
113551.76
111711.39
109926.65
107975.55
106058.91
104224.53
102135.79
100310.52
98193.508
96253.306
94141.549
92146.939
90025.445
87990.95
85912.664
83875.915
81863.275
79878.762
77961.249
76101.31
74294.613
72556.892
70955.926
69430.502
67833.544
66509.048
64824.387
63676.611
62623.825
61503.31
60356.337
59372.32
58160.331
57214.426
55877.591
54798.938
53247.691
52030.602
50111.399
48711.392
46574.529
44589.385
42413.065
40162.582
37483.392
34807.739
32131.974
28883.111
26117.062
23641.29
19626.315
17285.29
14980.418
8653.5103
3287.7889
150495.14
139816.24
122737.85
128264.15
129301.37
130681.94
131449.16
133633.64
133855.98
135390.8
134514.91
135009.53
133849.17
134247.4
132653.11
131809.2
130353.32
129946.24
128156.97
127114.73
125770.12
123813.67
122797.15
121436.23
120263.49
118298.92
117368.41
115797.96
114362.71
112808.09
111609.89
110049.85
108517.62
106997.79
105601.45
104078.53
102543.9
101092.92
99605.735
98051.101
96361.811
95052.292
93083.954
91597.906
89865.704
88295.349
86528.801
84953.122
83130.863
81503.886
79693.266
78021.349
76217.477
74527.396
72781.518
71091.2
69408.218
67790.134
66188.088
64669.164
63182.491
61791.277
60503.016
59253.332
58114.871
57535.481
57021.165
56176.461
55600.88
54623.363
53732.488
53052.306
51852.356
51171.425
49664.844
49095.882
47230.997
46606.558
44454.903
43625.64
41349.194
39774.49
37779.392
34907.35
32341.268
29965.284
27003.256
24807.571
22122.969
19007.48
16268.387
13649.258
9501.1536
5359.504
-1657.5174
116882.12
120749.55
101911.81
108741.07
106994.1
109266.89
110713.15
112748.31
112628.65
113212.63
112889.58
113551.73
112477.36
112058.58
110931.96
110869.28
109249.67
108672.2
107123.02
106579.96
105086.37
104296.35
103201.88
102036.23
100514.73
99666.503
98364.232
96944.13
95892.648
94603.37
93321.042
92043.682
90876.268
89668.357
88417.25
87153.118
86057.384
84864.711
83668.814
82360.293
80881.636
79627.321
78411.489
77133.24
75803.496
74446.305
73011.052
71642.59
70180.995
68776.391
67302.424
65893.124
64399.438
63004.476
61547.985
60144.493
58756.634
57410.236
56069.598
54808.206
53568.036
52380.249
51271.146
50113.128
49207.963
48455.623
47925.432
47214.841
46647.104
46161.997
45455.795
44675.968
43790.101
42972.787
42159.638
41179.342
40276.32
39059.383
38033.641
36595.047
35181.615
33821.699
31739.952
30056.299
28102.378
25932.823
23489.679
21649.135
19073.665
16792.443
14508.217
10855.707
8420.2814
2650.4633
-363.12953
96358.861
98723.21
79725.106
87419.924
83301.715
86566.548
86833.038
88704.889
88080.378
90042.695
89462.531
90366.77
88865.759
89997.173
88390.548
88717.66
86996.017
87409.286
85719.201
85479.597
83975.116
83439.539
82203.385
81150.643
80432.045
79306.363
78368.405
77481.043
76533.146
75385.204
74654.459
73466.589
72606.44
71450.851
70776.491
69327.568
68703.864
67018.794
65927.454
64779.322
64038.953
62915.444
61778.776
60575.596
59457.878
58357.367
57178.659
56096.797
54919.367
53804.809
52621.162
51525.269
50335.575
49266.394
48108.287
47058.052
45969.822
44963.603
43935.554
43013.28
42083.302
41217.86
40406.207
39668.059
38975.087
38277.376
37928.172
37138.224
36393.206
35996.742
35504.657
34880.326
34491.642
33868.741
33203.411
32490.683
31700.581
30947.664
29927.605
29000.292
27853.219
26755.301
25232.165
23782.694
22173.472
21093.225
19223.622
17454.122
15489.242
13629.424
11032.013
8858.5985
5774.572
2382.8771
-1946.0341
78474.025
74177.793
61149.937
66036.578
64748.08
65985.642
66990.174
67905.349
67619.137
68507.854
68324.154
68121.959
68080.983
67914.48
67036.849
67148.752
65740.624
65995.091
64455.295
64484.249
63351.389
63163.368
61868.634
61783.107
60639.435
60041.482
59249.053
58420.622
57609.017
56953.546
56131.958
55331.155
54635.363
53962.193
53116.947
52362.536
52500.823
52347.699
51726.193
52334.539
50942.061
50275.286
49562.716
48750.358
47943.588
47090.335
46137.59
45273.415
44359.112
43427.143
42517.17
41636.083
40701.167
39845.662
38951.969
38110.824
37275.42
36468.441
35691.378
34941.483
34243.001
33500.276
32959.471
32269.731
31636.052
31285.61
30634.823
30229.725
29705.384
29289.586
28867.436
28161.967
27075.537
26479.332
25690.607
25151.733
24642.494
23978.116
23331.57
22677.474
21686.776
21039.05
19796.006
19088.506
17620.75
16821.704
15032.692
13977.532
12165.646
10526.142
8800.7176
6898.3325
4975.1167
1746.6407
-1163.9893
49959.268
53292.363
39947.062
46260.192
43213.536
44319.192
44467.462
45983.325
44659.102
46660.298
45257.496
46575.207
45133.092
46223.36
44737.244
45484.236
44145.324
45053.363
43143.192
43999.155
42434.57
42508.789
41542.968
41415.024
40421.834
40272.441
39524.317
39103.23
38645.953
37981.569
37555.333
36909.344
36596.762
35801.308
35470.082
34984.133
34951.229
34841.726
34965.176
34752.411
34940.39
34276.588
33648.317
33097.152
32479.051
31861.977
31202.097
30604.489
29942.913
29324.896
28693.997
28094.295
27459.341
26890.848
26308.071
25741.717
25213.282
24701.976
24202.615
23746.228
23304.193
22915.701
22511.75
22163.091
21914.51
21508.341
21368.557
21099.392
20873.395
20646.146
20394.912
19882.357
19577.877
18768.324
18099.2
17861.44
17488.068
17149.338
16677.556
16401.214
15519.34
15436.67
14173.6
14040.276
12639.649
12411.039
10848.645
10507.287
8962.1303
8406.3145
7079.4067
5629.6732
4097.4779
1689.2446
321.03441
30020.814
28080.751
22620.185
26122.187
23524.889
23684.511
24525.614
24665.009
24078.793
24175.489
24616.951
23775.276
24175.577
24125.119
23367.968
23938.638
22924.916
23250.316
22231.499
23073.931
21616.069
22520.195
21310.323
21740.596
20864.358
21070.427
20263.551
20359.834
19702.072
19597.992
19228.963
19031.221
18633.542
18420.132
18201.138
17841.028
17613.576
17555.568
16955.304
16344.858
16190.157
15974.476
15559.736
15394.154
15082.236
14857.571
14467.328
14259.893
13890.275
13644.504
13327.172
13078.243
12768.804
12570.482
12286.811
12089.518
11870.567
11705.212
11500.563
11387.04
11237.092
11113.111
11035.779
10975.253
10857.478
10880.646
10813.955
10782.424
10780.055
10786.301
10755.805
10754.41
10601.226
10858.393
10886.543
10877.516
10704.001
10560.765
10410.831
10144.667
9865.0675
9656.6563
9014.1615
9029.4145
8056.5528
8134.2623
7051.727
7065.4444
5965.4491
5581.2002
4386.3892
3617.2209
3104.6675
2044.2681
1486.4282
1543.5252
6602.3858
958.91631
4947.9297
2765.3431
3853.1103
2938.4451
3995.1
1643.1135
3720.5154
1961.7029
2873.5177
1982.8327
2534.7133
1659.4825
2632.5312
1255.6003
2663.0596
1293.011
2243.2199
1162.1996
2066.6583
808.89271
1691.3294
794.37421
1281.9829
837.3762
1031.4699
747.38185
796.18634
722.82406
491.73668
621.74594
465.0044
528.68801
297.12447
657.65636
294.64045
549.09255
220.75545
328.95671
350.13852
230.09126
139.26389
169.85552
66.234895
9.0583338
28.476847
-23.848704
-33.338945
-42.360239
-20.413933
-24.438596
31.175736
57.954002
125.79102
194.13169
290.66422
365.0007
512.30179
592.55842
755.64684
895.50783
1034.5695
1230.9108
1394.3075
1594.5435
1795.799
2001.4709
2210.4769
2373.5418
2531.247
2630.0309
2859.2053
3015.7604
3222.2569
3272.5316
3480.3114
3504.158
3643.2908
3702.8586
3621.7468
3771.1379
3601.6473
3522.6843
3604.7033
3079.0744
3542.6089
2645.4569
3323.1377
2868.4215
3385.2167
3267.7296
2616.739
3092.8746
-17835.906
-17519.826
-16257.445
-15114.564
-15646.279
-16982.29
-16984.922
-17926.87
-18143.082
-19134.259
-18511.327
-19552.708
-19299.345
-19144.542
-19375.575
-19234.371
-19452.265
-18687.966
-19920.444
-18320.425
-19511.626
-18372.593
-19237.21
-18050.651
-19004.974
-17810.079
-18630.503
-17742.905
-18173.458
-17536.64
-17800.706
-17318.746
-17267.508
-17035.321
-16888.541
-16558.712
-16504.624
-16184.047
-15965.728
-15694.441
-15518.73
-15228.678
-15103.432
-14766.446
-14560.568
-14311.28
-14125.088
-13801.613
-13612.313
-13330.082
-13064.235
-12747.776
-12494.355
-12136.853
-11832.664
-11481.358
-11137.631
-10750.589
-10408.373
-9996.6916
-9621.9135
-9224.8562
-8840.9052
-8420.3665
-8062.6568
-7635.3569
-7244.5009
-6850.3624
-6433.4911
-6031.6494
-5637.8628
-5182.9836
-4818.7577
-4421.7081
-4086.7441
-3821.8189
-3378.9859
-3084.8132
-2732.9132
-2462.58
-2133.2009
-1939.9902
-1584.2807
-1397.312
-1214.7808
-651.74645
-885.14595
233.39211
-327.66878
975.02142
503.29157
1103.8536
1191.0999
2458.0957
4183.3431
-43751.432
-41627.945
-36421.33
-35354.407
-37498.844
-37685.228
-39242.501
-38633.184
-41357.824
-40327.685
-41358.39
-41653.253
-41617.443
-41243.772
-42066.457
-40881.304
-41416.728
-40606.907
-40915.817
-39730.075
-40617.955
-38590.78
-39160.269
-37896.44
-38394.816
-37382.637
-37657.778
-36738.453
-36707.793
-36179.82
-35909.843
-35428.305
-35119.108
-34723.638
-34103.231
-33947.656
-33200.007
-32993.003
-32339.893
-32046.936
-31513.114
-31107.098
-30550.113
-30171.295
-29633.618
-29159.487
-28655.678
-28095.898
-27592.547
-27032.441
-26446.821
-25869.299
-25290.639
-24648.924
-24039.519
-23410.289
-22760.609
-22108.466
-21490.289
-20794.442
-20185.396
-19534.858
-18890.553
-18277.019
-17673.055
-17041.051
-16445.135
-15863.052
-15260.141
-14710.156
-14112.747
-13550.908
-12989.579
-12062.494
-10796.164
-10099.519
-9431.3488
-8988.5543
-8219.5257
-8037.3785
-6954.186
-7061.9649
-5837.3079
-5880.5212
-4917.136
-4423.7667
-4061.2516
-2694.1025
-2980.0824
-964.11727
-1115.6826
198.30309
1453.8667
3130.9347
5096.5977
-69321.565
-56665.121
-50906.66
-51735.969
-54013.128
-54260.056
-55938.563
-56954.416
-58223.414
-58718.985
-59083.201
-59596.089
-59302.722
-59334.554
-59334.758
-58210.101
-59118.063
-57383.01
-58203.099
-57094.876
-57931.314
-57910.727
-58644.93
-57683.428
-58526.889
-56764.378
-57381.092
-55647.596
-55999.394
-54617.011
-54520.899
-53546.785
-53218.693
-52265.929
-51805.676
-50963.129
-50381.55
-49626.976
-48943.809
-48206.716
-47531.286
-46715.725
-46037.676
-45269.816
-44515.337
-43714.882
-42995.358
-42148.914
-41385.953
-40529.904
-39707.549
-38831.638
-37982.307
-37060.965
-36181.263
-35262.351
-34346.016
-33420.511
-32511.124
-31574.594
-30686.215
-29759.423
-28884.48
-28004.244
-27184.777
-26325.175
-25523.123
-24703.579
-23909.188
-23098.209
-22305.845
-21586.086
-20701.06
-19812.626
-18833.582
-17841.325
-16632.401
-15769.865
-14935.189
-14093.252
-13384.23
-12426.265
-11697.428
-10772.681
-9829.3374
-9065.2497
-7833.5456
-7108.4806
-5743.1507
-4535.2003
-3391.5748
-1349.5967
342.31473
2762.4109
7166.852
-86265.309
-81328.814
-74277.419
-71949.156
-74400.259
-74180.301
-77371.935
-77689.904
-79378.29
-79825.019
-80961.498
-80359.37
-81372.194
-80140.947
-80605.905
-79702.304
-79548.426
-78381.869
-78868.936
-76979.231
-77890.221
-76178.072
-77995.325
-77290.823
-77394.63
-76213.718
-76017.303
-74793.812
-74309.55
-73098.503
-72636.943
-71491.963
-70797.642
-69936.741
-68924.314
-68204.359
-67099.845
-66292.539
-65230.963
-64388.004
-63297.276
-62431.633
-61392.222
-60443.005
-59403.917
-58372.746
-57354.793
-56245.366
-55152.689
-54043.806
-52888.497
-51716.22
-50541.895
-49323.854
-48110.352
-46894.116
-45659.69
-44429.146
-43236.13
-42017.663
-40840.622
-39684.307
-38541.192
-37439.57
-36381.513
-35338.66
-34326.859
-33366.545
-32400.353
-31438.165
-30578.525
-29584.259
-28691.506
-27784.704
-26754.479
-26246.208
-25188.67
-24064.073
-22999.191
-21933.488
-20721.429
-19574.391
-18272.637
-17014.854
-15554.071
-14364.354
-12511.966
-11456.154
-9516.6323
-7837.4115
-6471.2152
-3248.4173
-932.64095
3807.3581
8745.2196
-120712.36
-109161.07
-94401.295
-99033.482
-98695.588
-102245.21
-103042.93
-105341.59
-105869.31
-107209.5
-106999.62
-108081.55
-106940.6
-107292.62
-106143.89
-105576.94
-104778.45
-103524.27
-103229.36
-101597.18
-101647.53
-99894.207
-99684.844
-97316.288
-97422.367
-95249.361
-95683.786
-93350.114
-93314.151
-91441.944
-90992.825
-89243.386
-88718.942
-87225.984
-86327.505
-85062.031
-83899.024
-82717.331
-81567.679
-80302.645
-79149.84
-77901.115
-76647.438
-75376.244
-74110.222
-72782.265
-71515.622
-70110.959
-68791.398
-67388.884
-65977.864
-64529.438
-63099.908
-61604.417
-60137.04
-58647.948
-57153.976
-55677.627
-54221.68
-52753.216
-51351.657
-49943.687
-48585.637
-47242.127
-45961.807
-44715.734
-43504.36
-42329.152
-41176.641
-40017.09
-38865.192
-37761.234
-36608.283
-35467.208
-34227.585
-33120.495
-31850.02
-30636.256
-29267.507
-27910.38
-26480.192
-24988.415
-23428.557
-21817.376
-20175.024
-18382.157
-16596.316
-14879.687
-12510.628
-11046.745
-8121.1239
-5776.755
-2887.2184
1451.7819
6862.5908
-134473.36
-128708.16
-109561.18
-117301.62
-118833.88
-122251.84
-123520.77
-126080.87
-127110.17
-127579.6
-129042.94
-128118.33
-128591.18
-127781.58
-126823.66
-125938.69
-125160.33
-123198.9
-123221.01
-121151.27
-120478
-119076.13
-118533.46
-117477.86
-116619.63
-115223.89
-114174.87
-112668.38
-111922.77
-110225.49
-109197.68
-107699.81
-106329.43
-104959.52
-103580.53
-102368.24
-100864.98
-99621.46
-98043.762
-96720.061
-95220.94
-93782.884
-92301.684
-90821.421
-89311.179
-87764.847
-86187.818
-84578.188
-82935.452
-81256.072
-79528.648
-77783.683
-76006.239
-74198.292
-72374.572
-70548.559
-68717.107
-66894.811
-65094.138
-63324.628
-61589.249
-59905.692
-58268.253
-56666.57
-55115.519
-53603.991
-52118.467
-50836.288
-49586.164
-48214.836
-47051.713
-45773.983
-44488.064
-43291.501
-41920.184
-40602.848
-39185.782
-37735.687
-36191.39
-34643.927
-32930.038
-31187.315
-29300.216
-27402.962
-25258.146
-23233.161
-20941.037
-18676.971
-16188.626
-14152.45
-10664.14
-9062.459
-5025.9546
-620.89441
6312.7734
-186386.64
-128522.27
-138379.12
-136319.02
-144308
-141842.72
-146678.97
-147376.86
-148496.76
-149142.63
-149227.55
-149939.6
-148590.19
-147820.11
-146716.7
-145572.37
-145160.84
-142463.21
-142870.33
-139395.59
-139231.47
-136717.8
-137070.7
-134640.02
-135416
-131915.26
-132190.21
-129140.89
-129434.94
-126659.5
-126047.31
-123937.96
-122599
-120717.91
-118957
-117888.91
-116197.08
-114613.76
-112917.23
-111330.8
-109598.75
-107941.69
-106224.85
-104458.61
-102738.87
-100889.22
-99112.461
-97228.95
-95338.771
-93393.673
-91420.8
-89399.535
-87364.398
-85273.901
-83194.746
-81097.687
-78996.027
-76913.424
-74869.353
-72836.952
-70875.297
-68967.25
-67118.094
-65331.881
-63632.078
-61885.627
-60212.897
-58649.384
-57343.404
-55917.757
-54604.394
-53094.352
-51758.865
-50332.775
-48850.673
-47354.952
-45864.619
-44177.501
-42502.212
-40647.796
-38706.642
-36638.097
-34512.849
-32150.513
-29808.982
-27348.23
-24654.489
-22156.088
-19432.96
-16854.322
-13919.006
-12348.946
-8593.4771
-5481.684
1430.7803
342713.63
341525.3
331056.72
339560.79
339952.41
342574.43
352684.15
345977.82
339814.16
341179.4
336445.08
323245.31
320985.78
338303.34
277399.1
319635.44
328790.52
310501.79
319199.79
319157.12
325485.61
315876.15
327107.24
322456.68
324162.12
316692.38
314142.65
313328.04
318506.52
268854.84
248415.92
277020.01
243210.63
253132.2
253418.39
249120.43
251310.26
248461.86
250371.07
245355.89
244539.92
244924.61
228094.21
252085.88
228499.5
213843.32
216260.51
213657.21
208926.23
214829.94
211478.65
215198.97
213152
210934.99
211090.77
210389.57
201352.68
204022.06
216932.37
150831.61
156456.78
173097.11
151259.51
161833.24
153843.73
160820.17
156376.32
156829.05
155221.44
155086.21
151393.89
151303.19
150055.08
153620.85
136198.73
120670.55
123191.09
113166.06
115685.07
115134.77
114337.81
112057.99
111564.3
111933.65
110051.44
105662.57
110202.86
101158.82
108251.6
101289.23
67190.94
66191.694
66527.525
61097.996
63240.573
62922.8
60483.933
59255.578
58160.141
57493.869
55271.161
52016.418
56370.458
50309.092
53035.381
16592.667
16176.084
9608.7705
13000.243
8760.1401
9568.0635
6918.0841
6817.9275
4712.7476
6997.9556
-2095.2743
5186.1997
7981.884
-7890.0799
20691.27
-26428.355
-33859.008
-27880.088
-35413.352
-33646.262
-36006.135
-37109.129
-38861.6
-39958.312
-39865.356
-46519.341
-39879.936
-42740.902
-56339.139
-8754.4011
-72093.76
-88813.314
-82404.822
-85545.687
-87864.579
-88997.631
-92579.501
-92240.478
-96700.109
-91451.093
-105508.51
-91518.323
-91845.892
-115838.77
-56712.593
-120931.57
-151698.19
-127367.26
-145401.55
-137729.28
-145204.41
-143386.93
-146092.16
-146484.17
-143517.21
-148346.16
-144903.51
-140443.96
-158527.04
-93520.675
-181501.7
-171403.37
-179021.8
-170781.42
-183120.52
-182023.71
-186441.19
-187863.6
-190398.79
-189460.7
-200489.31
-178277.77
-188103.21
-213789.7
-139591.91
-211462.76
-240881.15
-209808.41
-225730.2
-214094.1
-224820.54
-222096.58
-222825.17
-222971.64
-222488.93
-226457.15
-227087.46
-210785.02
-253629.22
-131625.52
-264399.13
-308979.45
-279034.76
-295323.62
-308912.75
-306389.75
-309427.82
-325903.35
-319569.68
-327454.37
-308932.28
-304672.27
-311075.32
-310357.92
-270323.64
-288934.02
-251717.67
-225264.89
-227957.19
-238042.95
-256965.12
-246903.36
-239324.73
-228416.96
-228319.16
-233295.55
-236074.96
-239862.72
-266496.97
-242870.64
-257665.13
-245420.59
-289261.67
-307445.33
-316580.24
-347741.05
-335051.44
-312784.43
-357478.36
-350586.34
-339775.24
-323533.74
-312840.46
-296076.92
-257954.17
-183335.87
-186044.09
-206682.38
-211289.82
-220399.95
-227382.01
-234007.76
-243256.67
-250604
-239198.04
-234643.64
-221094.15
-224473.43
-222491.51
-228421.8
-160078.55
-183722.75
-182619.69
-197851.98
-211851.75
-205531.54
-215826.12
-214814.8
-207867
-217274.68
-209559.22
-212172.73
-205510.96
-184479.72
-189666.87
-158457.72
-177863.23
-181232.56
-184460.29
-190685.06
-194038.79
-195795.79
-197234.72
-197056.33
-193156.95
-194056.55
-190538.98
-182609.7
-180791.98
-171273.81
-170340.15
-187879.04
-185662.4
-197334.24
-200509.08
-204750.15
-208403.79
-208502.57
-210024.55
-209875.51
-204660.94
-200980.17
-192530.5
-186642.64
-183100.75
-167196.42
-173438
-176893.53
-184093.29
-187925.64
-192706.57
-192670.97
-194194.54
-195052.64
-192057.29
-191396.11
-187919.01
-182352.28
-178784.71
-170551.44
-165926.14
-178323.87
-179272.14
-185597.77
-188068.2
-192365.59
-193841.82
-194707.86
-195151.55
-193352.11
-190171.09
-188465.06
-183893.69
-178014.78
-179062.58
-168861.08
-171307.67
-176967.07
-178019.21
-184240.9
-184743.86
-187087.69
-188007.52
-187800.2
-186536.77
-184966.53
-182263.59
-179275.94
-174998.14
-171379.74
-165318.49
-173933.89
-174773.41
-180105.84
-180916.23
-185750.19
-184515.12
-186567.89
-186826.6
-184293.64
-183665.47
-181212.22
-178709.27
-176076.1
-172455.7
-167664.4
-168488.16
-171992.48
-172373.67
-175785.34
-176209.48
-178389.16
-178427.24
-177915.24
-179065.49
-176944.67
-176556.58
-174610.01
-172250.9
-171280.09
-164036.44
-169244.79
-169770.83
-173803.2
-174872.71
-177812.48
-177424.92
-179589.43
-179751.02
-178489.59
-178994.74
-178081.59
-175896.31
-175123.86
-173948.41
-165846.86
-165382.9
-168231.33
-168877.35
-170848.47
-170878.86
-173040.34
-173686.83
-174459.86
-174508.43
-174513.39
-173621.71
-173285.37
-171738.34
-171378.63
-164158.84
-165149.21
-165541.23
-167791.16
-168384.92
-170774.75
-170931.61
-172252.01
-172462.25
-172836.6
-172033.28
-172773.1
-170764.91
-171217.54
-170547.31
-162645.19
-162285.22
-164760.93
-164778.32
-166512.11
-166681.21
-167679.48
-168473.23
-169290.61
-168988.01
-169652.3
-169535.17
-169270.56
-169052.05
-169254.45
-161249.27
-161403.56
-162810.94
-163355.67
-165062.86
-164997.31
-166004.48
-167192.44
-167788.09
-168430.88
-168242.3
-168835.16
-167042.67
-168594.42
-168252.49
-159512.14
-159370.74
-161483.97
-160848.37
-162196.26
-161869.55
-164633.13
-163084.56
-163837.41
-163828.94
-164009.05
-164410.24
-162734.54
-163600.31
-162851.58
-158845.69
-157928.43
-159642.39
-158918.38
-160980.82
-161268.6
-161663.22
-162844.08
-162847.4
-163919.4
-163611.14
-164774.72
-164223.45
-164511.4
-165648.81
-157083.4
-156886.48
-157754.21
-157638.82
-158724.17
-158897.53
-160173.02
-159755.29
-160427.02
-160366.96
-160455.44
-160540.86
-161569.58
-159760.4
-160709.86
-155359.32
-155220.86
-156489.68
-156656.7
-157566.22
-157155.85
-157621.63
-158652.26
-158433.78
-159589.69
-158490.71
-160654.48
-159357.71
-161875.84
-160887.12
-153934.03
-153913.33
-154488.73
-154579.02
-155491.13
-155583.68
-156922.19
-156398.68
-157391.95
-156873.18
-157246.67
-157586.92
-157124
-157696.45
-157365.48
-153198.67
-152449.84
-153773.16
-152907.96
-154139.19
-153668.47
-154748.16
-155503.1
-154845.79
-155955.64
-155685.02
-157071.03
-156475.69
-157878.17
-157506.26
-149854.99
-151340.76
-151088.39
-151781.9
-152274.91
-152348.59
-153203.94
-152938.45
-153818.47
-153870.72
-154127.15
-154543.48
-153701.4
-153748.92
-154674.63
-150527.75
-149393.4
-150433.23
-150350.49
-150951.14
-151082.76
-151795.39
-151695.28
-151785.05
-152485.51
-152133.56
-153023.5
-152128.07
-153863.88
-153098.13
-147382.12
-148063.27
-148183.31
-148903.95
-149140.84
-149192.4
-150225.72
-149831.21
-150632.22
-150638.65
-150297.27
-151681.33
-150993.26
-151402.33
-151364.27
-147207.83
-146822.39
-147437.78
-147075.26
-147861.42
-147710.26
-148572.24
-148554.41
-148671.95
-149233.82
-148344.16
-149507.34
-148966.72
-149437.94
-149629.24
-145336.83
-144520.27
-145773.9
-145261.05
-146130.77
-146036.7
-146740.71
-146521.83
-147110.25
-147307.45
-147774.06
-148159.19
-146969.64
-148571.37
-147564.74
-144068.52
-142909.9
-144063.67
-143818.5
-144600.15
-144794.83
-145298.6
-145391
-145466.04
-145744.68
-145331.59
-146367.98
-145026.76
-145748.58
-146291.45
-142450.1
-141364.34
-142081.3
-142369
-143049.34
-142912.43
-143417.4
-143345.83
-143954.42
-143860.98
-144065.28
-144174.17
-143722.64
-145019.23
-143928.63
-140638.13
-140116
-141247.93
-140612.08
-141429.82
-141411.61
-141864.67
-141915.08
-141997.54
-142322.63
-141808.23
-142601.29
-141780.66
-142142.54
-142605.01
-139511.73
-137970.1
-139158.77
-138930.42
-139751.09
-139367.24
-139986.46
-139999.73
-140347.94
-140327.36
-140041.96
-140879.35
-139897.42
-140893.12
-140731.32
-137628.4
-136771.22
-137517.1
-137501.38
-137927.11
-138327.61
-138453.3
-138364.67
-138304.1
-138867.5
-138456.63
-139128.19
-138221.38
-138573.97
-138719.08
-136046.61
-134729.55
-135889.31
-135518.18
-136141.52
-136312.02
-136422.38
-136450.32
-136483.98
-136759.81
-136401
-137190.7
-136285.75
-137072.94
-136871.47
-134440.84
-133260.38
-134082.47
-133932.55
-134573.92
-134498.95
-134814.77
-134727.1
-134943.49
-135076.37
-134773.87
-135277.21
-134561.56
-134927.44
-134777.92
-132532.55
-131404.43
-132318.27
-132103.95
-132584.95
-132614.14
-132903.87
-132849.07
-132938.09
-133100.72
-132668.81
-133424.61
-132609.56
-133136.41
-133076.73
-130580.83
-129846.48
-130555.47
-130309.62
-130850.43
-130961.67
-131076.86
-131182
-131122.75
-131345.07
-130966.67
-131512.37
-130667.08
-131220.9
-130758.5
-128535.25
-128310.15
-128544.18
-129078.86
-128809.62
-129077.79
-129179.37
-129088.51
-129201.23
-129295.91
-128914.17
-129478.07
-128878.67
-129079.57
-129568.26
-127588.25
-126136.97
-126928.37
-126714.56
-127399.47
-127060.7
-127542.74
-127242.09
-127458.87
-127302.47
-127077.49
-127774.37
-126877.88
-127419.91
-127172.36
-125314.38
-124633.08
-125090.89
-125202.88
-125216.03
-125484.9
-125403.34
-125565.95
-125468.64
-125516.39
-125215.52
-125696.97
-125063.91
-125287.12
-125332.15
-123939.15
-122548.32
-123414.2
-123127.01
-123584.32
-123417.22
-123715.01
-123555.7
-123528.34
-123677.26
-123263.33
-123890.47
-123037.45
-123467.22
-123315.45
-121925.61
-120938.33
-121594.71
-121468.17
-121703.33
-121763.74
-121885.47
-121710.62
-121817.95
-121783.51
-121458.3
-121874.51
-121242.13
-121500.39
-121489.36
-120213.16
-119025.72
-119776.34
-119490.35
-119866.55
-119753.67
-119889.62
-119809.13
-119793.63
-119876.11
-119458.24
-119985.63
-119249.58
-119565.91
-119477.52
-118342.18
-117312.42
-117950.35
-117786.66
-118076.52
-117973.72
-118186.88
-117950.79
-118031.18
-117967.54
-117648.23
-118048.66
-117406.48
-117594.18
-117586.23
-116572.91
-115417.87
-116106.95
-115844.74
-116104.22
-116072.24
-116149.55
-116008.19
-116005.39