/*--------------------------------*- C++ -*----------------------------------*\
  =========                 |
  \\      /  F ield         | OpenFOAM: The Open Source CFD Toolbox
   \\    /   O peration     | Website:  https://openfoam.org
    \\  /    A nd           | Version:  6
     \\/     M anipulation  |
\*---------------------------------------------------------------------------*/
FoamFile
{
    version     2.0;
    format      ascii;
    class       pointVectorField;
    location    "1.26";
    object      lm;
}
// * * * * * * * * * * * * * * * * * * * * * * * * * * * * * * * * * * * * * //

dimensions      [1 -2 -1 0 0 0 0];

internalField   nonuniform List<vector> 
625
(
(-3.6361799e-15 2.112754e-16 -3.2990721e-16)
(2.8178306e-17 1.9013092e-16 6.1994168e-17)
(-2974.0964 -1030.386 -115.44311)
(-3144.8432 -583.37686 -193.59468)
(6.5239771e-16 2.739523e-16 -5.5565719e-16)
(-3.7042918e-15 1.4868296e-15 -1.3023874e-15)
(-3024.6224 -674.74528 -195.2192)
(-2852.7936 -1123.2714 -113.91057)
(-1.9658614e-16 -3.2115893e-17 -1.1045223e-16)
(1.4766345e-16 -3.4299605e-16 -2.8648028e-16)
(-1.0135278e-15 7.0169807e-16 1.7538027e-16)
(-3016.9416 -918.54579 -135.76477)
(-3061.1484 -806.21312 -154.514)
(-3103.2259 -694.00187 -174.39554)
(-17.585523 -70.18332 -57.110015)
(-61.346333 -131.51185 -64.959026)
(-125.6144 -196.69299 -82.488386)
(-216.83809 -256.64587 -102.85625)
(-318.92625 -311.86585 -129.26674)
(-444.59484 -369.04942 -157.54976)
(-576.87327 -419.9051 -189.07655)
(-723.87996 -469.14617 -219.28664)
(-876.77067 -517.82116 -249.17168)
(-1036.9215 -560.40048 -276.16951)
(-1198.9643 -601.71662 -298.85558)
(-1362.5787 -638.88367 -317.03845)
(-1524.5398 -672.84426 -329.17712)
(-1683.5403 -704.01874 -334.8997)
(-1837.9152 -732.80623 -333.90689)
(-1986.5055 -760.0793 -326.15235)
(-2128.9441 -786.78151 -312.34506)
(-2264.2443 -814.14952 -292.26443)
(-2393.5812 -842.54662 -268.45042)
(-2517.3034 -874.16425 -240.09041)
(-2634.7682 -908.15444 -209.84045)
(-2750.9711 -945.16371 -178.37396)
(-2862.5764 -987.00009 -145.81891)
(0.21175575 37.905355 58.246446)
(-78.633074 84.543311 19.755828)
(-163.30128 118.32307 -2.7391244)
(-278.91213 145.94497 -44.110156)
(-413.80122 155.40674 -86.871854)
(-568.75809 160.22596 -132.85488)
(-728.48725 147.08654 -178.9771)
(-901.91077 127.55162 -225.47974)
(-1076.4836 97.73018 -268.48749)
(-1252.3545 60.20917 -308.95864)
(-1427.733 17.786943 -343.43779)
(-1597.4699 -29.451406 -372.00871)
(-1762.5174 -78.92646 -393.28937)
(-1919.7661 -129.47383 -406.2923)
(-2069.3531 -180.38292 -411.35112)
(-2210.4498 -230.32778 -407.85545)
(-2343.7993 -278.93521 -396.7572)
(-2469.5886 -325.96347 -378.47444)
(-2589.1709 -371.36871 -354.16468)
(-2703.7565 -414.94336 -325.41447)
(-2814.8197 -457.69772 -293.20466)
(-2924.616 -499.87768 -259.70716)
(-3033.6714 -541.21759 -226.17276)
(-4.8813632e-16 1.9183015e-16 -1.0607077e-16)
(-2.6214496e-15 -5.6404768e-16 7.244144e-16)
(-2.4010456e-15 1.4295629e-15 -1.6975308e-16)
(-35.675413 42.220304 -51.397299)
(-107.51312 170.41575 -79.839597)
(-178.24182 184.06511 -88.684785)
(-296.23612 254.37163 -120.16535)
(-427.19707 274.01845 -154.95855)
(-572.77113 286.3839 -184.20898)
(-732.11799 278.9309 -222.49597)
(-896.99939 259.2611 -257.71947)
(-1063.2373 221.59345 -290.92331)
(-1232.1927 175.84924 -322.30949)
(-1394.7735 117.29186 -348.50193)
(-1555.1622 53.574858 -370.17692)
(-1707.3848 -16.933392 -385.37054)
(-1853.1081 -89.359601 -394.4727)
(-1990.9277 -163.06979 -396.548)
(-2121.2662 -235.57248 -391.95375)
(-2244.9395 -305.4682 -380.95949)
(-2362.7068 -371.56673 -364.09288)
(-2476.0518 -433.0394 -342.28175)
(-2586.3254 -489.53771 -316.33507)
(-2695.0707 -541.32282 -287.57267)
(-2803.7097 -588.63465 -256.85626)
(-2913.3644 -632.33301 -225.32475)
(-2982.884 -785.79954 -174.73951)
(-2940.9487 -900.26137 -153.93598)
(-2895.2032 -1013.0244 -133.29287)
(-2741.9528 -1080.3696 -147.24034)
(-2633.9996 -1038.912 -182.93879)
(-2525.6216 -998.1601 -218.9121)
(-2416.0733 -957.22004 -254.2975)
(-2303.8225 -915.67596 -286.8472)
(-2186.9915 -872.76078 -315.0451)
(-2064.7504 -827.87015 -337.4079)
(-1936.0432 -780.53523 -352.80476)
(-1800.6613 -730.61084 -360.27271)
(-1658.6335 -677.87757 -359.53184)
(-1510.2675 -622.89586 -350.10771)
(-1357.4848 -565.80596 -333.06586)
(-1200.3824 -507.24796 -308.56794)
(-1042.3241 -448.70663 -276.98348)
(-885.09387 -391.85019 -241.56778)
(-730.75311 -332.18693 -202.13423)
(-581.44728 -280.82431 -158.96446)
(-442.14979 -227.33832 -118.04157)
(-314.4162 -181.98302 -73.44159)
(-202.19827 -136.62604 -38.179532)
(-100.82916 -101.32307 -0.81272781)
(-34.380098 -54.557793 30.868367)
(1.6964688 -37.075654 36.205645)
(-1.3028228e-15 -3.4252847e-16 3.3068324e-16)
(-2.0449562e-15 -3.5718549e-16 -7.3673077e-16)
(-1.4121951e-15 -1.0527101e-15 6.223458e-16)
(-1.2019486e-15 6.189313e-16 -3.4292956e-16)
(-1.2511779e-16 -6.848356e-17 2.1836215e-16)
(-3.8898857e-17 4.7141393e-16 -3.1043199e-16)
(-3114.3913 -607.26652 -194.54507)
(-3084.5554 -629.67107 -194.40191)
(-3055.3751 -652.55655 -194.73417)
(-2944.157 -1053.0305 -115.31092)
(-2913.4449 -1075.2911 -116.00926)
(-2883.5385 -1098.0622 -114.3224)
(8.8439953 -40.247358 -41.797349)
(-45.078878 -71.225334 -42.552701)
(-116.77716 -108.51093 -65.976771)
(-217.91099 -145.32465 -88.635422)
(-332.2264 -184.49857 -118.82826)
(-467.2088 -226.1368 -151.20437)
(-610.16086 -267.25122 -184.63355)
(-766.18838 -311.2921 -218.88725)
(-927.2612 -354.45317 -251.42539)
(-1092.9477 -396.92568 -280.68612)
(-1259.9885 -439.99969 -306.00781)
(-1426.2921 -480.28137 -326.58224)
(-1589.7204 -519.40567 -340.77485)
(-1748.6118 -556.43749 -348.50071)
(-1901.6457 -591.75479 -349.34107)
(-2048.0859 -625.68187 -343.29408)
(-2187.2189 -658.66541 -330.68332)
(-2319.7075 -691.69904 -312.08055)
(-2445.3457 -724.89701 -288.76708)
(-2565.6049 -759.89583 -260.70759)
(-2680.8511 -796.13106 -230.99534)
(-2794.8677 -835.02451 -198.53361)
(-2904.7224 -875.92677 -166.3519)
(15.159877 -13.430626 -7.8415544)
(-49.027212 -17.899952 -23.489942)
(-124.53071 -32.93108 -46.828681)
(-230.34387 -48.538717 -77.09385)
(-354.46198 -69.865489 -110.97022)
(-494.46453 -96.978913 -146.73757)
(-646.06548 -129.3148 -184.53574)
(-808.03178 -165.17617 -222.06979)
(-973.65979 -204.96863 -257.35159)
(-1144.5181 -246.62864 -289.88697)
(-1314.2422 -289.87535 -318.13124)
(-1482.6448 -332.79959 -340.63778)
(-1647.0237 -375.65092 -356.72819)
(-1805.7892 -417.28738 -365.91828)
(-1958.2005 -457.6199 -367.79212)
(-2103.1584 -496.48234 -362.3222)
(-2240.805 -534.29018 -350.11338)
(-2371.2692 -571.25964 -331.54815)
(-2494.9177 -607.83598 -307.89016)
(-2613.8666 -645.26433 -280.20642)
(-2727.6082 -682.95418 -249.56844)
(-2839.9078 -722.42088 -217.79754)
(-2948.6746 -763.00787 -185.79968)
(16.321413 9.5767997 14.101467)
(-58.06706 22.894803 -4.2929631)
(-131.7874 33.860972 -28.118925)
(-247.82065 37.645379 -62.284616)
(-375.53533 35.750161 -98.619088)
(-522.40141 20.463319 -139.06745)
(-681.28121 1.7369809 -180.96245)
(-847.40859 -27.355606 -221.94257)
(-1019.6427 -61.204792 -261.23249)
(-1194.1615 -99.650209 -297.45168)
(-1366.9398 -142.04692 -328.41872)
(-1538.0317 -185.84287 -353.87829)
(-1703.3289 -231.02759 -372.5103)
(-1862.7667 -275.89924 -383.80564)
(-2014.5796 -320.11285 -387.34103)
(-2158.5558 -363.35104 -383.29813)
(-2294.5946 -405.41038 -371.92936)
(-2422.9834 -446.40753 -353.98873)
(-2545.0294 -486.72178 -330.67552)
(-2660.9816 -527.02497 -302.42076)
(-2773.4314 -567.15135 -272.09832)
(-2883.3065 -608.53703 -239.29415)
(-2991.885 -650.89702 -206.61739)
(-2.5953868e-15 -2.1703571e-16 4.2716933e-18)
(-3.8783653e-15 3.5858996e-16 7.5215743e-16)
(-9.8459492e-16 7.8127033e-16 2.7525688e-16)
(-3.9146975e-16 7.8165185e-18 1.2560621e-16)
(1.6350797e-16 -2.4226884e-16 -1.2066667e-17)
(-1.0304172e-15 -9.2669207e-16 -7.5672327e-16)
(-6.4481012e-16 3.525084e-16 2.7116342e-16)
(-3.5205005e-15 9.4737515e-16 -2.5196009e-17)
(-3.8147498e-15 1.043275e-15 1.2924308e-16)
(-24.833589 18.511679 26.997112)
(-37.470472 29.971892 5.3655147)
(-40.004829 23.241296 -14.071399)
(-110.72786 117.76924 -2.3888021)
(-114.59701 130.76323 -22.502193)
(-117.53585 133.29567 -48.34629)
(-176.42228 132.36974 -24.565092)
(-186.67133 140.19197 -41.61833)
(-191.92521 169.04241 -70.39685)
(-299.51094 172.94712 -63.943742)
(-306.80912 200.64687 -81.299586)
(-302.81305 214.78954 -99.989324)
(-429.63049 187.45373 -103.83777)
(-431.78432 207.05199 -116.58371)
(-436.34707 239.40983 -137.72504)
(-577.85229 190.72433 -146.38578)
(-583.5473 220.69718 -161.02418)
(-579.78069 247.21453 -172.44772)
(-738.51832 181.61049 -192.14928)
(-738.27762 209.63925 -200.40984)
(-738.08881 240.81744 -213.10615)
(-906.34838 161.18937 -234.72662)
(-904.59931 189.82678 -243.17913)
(-903.0094 220.24319 -251.58315)
(-1076.7041 129.64624 -276.95414)
(-1074.1759 157.74902 -283.40586)
(-1068.7404 186.78128 -288.2634)
(-1250.4637 90.77613 -315.06764)
(-1243.5036 116.66213 -319.07785)
(-1237.9104 143.00777 -321.66917)
(-1419.5785 44.253397 -347.85638)
(-1411.054 66.775045 -350.9901)
(-1402.4126 90.104687 -350.77819)
(-1586.6385 -6.8020581 -375.1279)
(-1574.6695 12.239283 -376.4584)
(-1563.5842 30.979536 -374.05454)
(-1746.71 -61.602422 -394.85123)
(-1731.8417 -47.325093 -394.98532)
(-1718.3271 -33.059052 -391.05532)
(-1900.4736 -117.88626 -407.02488)
(-1882.6006 -108.24522 -406.34359)
(-1866.1208 -99.62334 -401.05337)
(-2046.214 -174.8799 -411.14845)
(-2025.5704 -170.44418 -409.63099)
(-2006.6458 -166.90031 -403.68244)
(-2184.4784 -230.87263 -407.12408)
(-2161.3202 -231.3793 -405.36904)
(-2139.6661 -233.40198 -399.12584)
(-2315.2443 -285.39178 -395.69171)
(-2289.8071 -290.91296 -393.68703)
(-2265.9218 -297.73638 -387.69875)
(-2439.3107 -337.82236 -377.18828)
(-2412.0342 -347.47635 -375.42407)
(-2386.253 -358.91095 -369.9635)
(-2557.716 -387.51052 -353.13174)
(-2529.2073 -401.27069 -351.51683)
(-2501.8245 -416.42878 -347.01001)
(-2672.027 -434.94566 -324.31131)
(-2642.5438 -451.60035 -323.18038)
(-2613.9378 -469.76735 -319.81286)
(-2783.3846 -479.98649 -292.59261)
(-2753.3187 -499.25129 -292.07051)
(-2724.0654 -519.5575 -289.65706)
(-2893.5225 -523.31229 -259.40814)
(-2863.3573 -544.12449 -259.11181)
(-2833.4286 -565.92377 -257.81792)
(-3003.12 -565.12029 -226.11398)
(-2973.0608 -587.23979 -226.19292)
(-2943.2251 -609.29293 -225.53435)
(-2986.5445 -941.51557 -135.11033)
(-2956.0749 -964.43375 -135.14738)
(-2926.0942 -987.8736 -133.80841)
(-3030.8476 -829.75342 -154.12968)
(-3000.5677 -852.58195 -154.85433)
(-2971.447 -875.83806 -154.16892)
(-3072.2737 -717.79412 -174.70406)
(-3042.1717 -740.23073 -175.15281)
(-3012.8936 -763.30125 -174.69722)
(-44.298389 -54.044979 -23.342207)
(-32.609022 -53.788284 -6.4485445)
(-33.595724 -41.830868 21.866419)
(-78.487159 -114.30349 -35.714281)
(-75.047678 -100.35217 -6.9878386)
(-63.501669 -86.342298 15.123764)
(-143.0122 -181.79295 -55.29823)
(-137.34989 -157.81672 -38.126265)
(-129.08637 -142.56995 -11.651088)
(-228.76439 -228.06107 -81.195767)
(-229.70556 -203.55384 -64.480205)
(-219.53446 -179.41229 -46.741903)
(-332.24408 -288.0268 -112.67523)
(-331.66938 -259.29119 -98.073233)
(-325.46237 -230.24597 -83.080414)
(-453.48528 -337.48121 -145.38634)
(-455.077 -303.83756 -135.47398)
(-450.0776 -276.25703 -124.71722)
(-585.94232 -388.55133 -180.46801)
(-587.39022 -360.1729 -172.50272)
(-584.85561 -327.10076 -165.07391)
(-730.03224 -440.5094 -215.36898)
(-732.92984 -407.90845 -209.64354)
(-730.73086 -376.61185 -206.16775)
(-881.77663 -487.86039 -247.80424)
(-883.21471 -460.0324 -247.23271)
(-882.44144 -430.08029 -244.71675)
(-1038.197 -534.68628 -279.38441)
(-1039.9916 -509.91216 -278.22302)
(-1039.1707 -482.99696 -280.13194)
(-1198.2107 -579.21795 -304.23388)
(-1198.3581 -557.88744 -306.17581)
(-1196.9438 -533.74067 -309.56134)
(-1358.2223 -621.01399 -325.05315)
(-1356.8584 -604.1246 -328.5363)
(-1354.4614 -584.99826 -333.66139)
(-1516.8919 -660.27251 -338.96869)
(-1513.2985 -648.62512 -343.87764)
(-1509.311 -634.39416 -349.91751)
(-1672.2504 -697.15716 -345.91901)
(-1666.0263 -690.61169 -351.79089)
(-1659.9976 -681.73716 -358.79933)
(-1822.9748 -731.66695 -345.61704)
(-1813.9424 -730.46402 -352.11596)
(-1805.3856 -726.93938 -359.15384)
(-1968.2274 -764.6225 -337.95398)
(-1955.8354 -768.40521 -344.50099)
(-1944.5843 -770.16544 -351.48929)
(-2107.1318 -796.51979 -323.31707)
(-2091.6224 -805.06627 -329.84286)
(-2077.3598 -811.61017 -336.00867)
(-2239.8852 -828.462 -302.68857)
(-2221.0699 -840.893 -308.36743)
(-2203.9213 -851.84371 -313.75906)
(-2367.0087 -860.64073 -276.6106)
(-2344.9186 -876.70741 -281.64543)
(-2324.7513 -891.29832 -285.73224)
(-2488.313 -895.07531 -246.27322)
(-2463.363 -913.26014 -250.93425)
(-2440.8339 -930.87571 -253.44089)
(-2605.3793 -930.8274 -214.347)
(-2578.2159 -951.31865 -217.16389)
(-2553.4692 -971.06631 -218.48139)
(-2720.0407 -969.13376 -181.17012)
(-2691.9321 -990.55592 -182.44698)
(-2664.4013 -1012.0986 -182.64729)
(-2831.5605 -1009.9515 -146.30196)
(-2802.0921 -1032.5811 -146.89456)
(-2772.6696 -1054.9842 -147.14859)
(16.778017 -3.2713743 11.627991)
(-28.476097 -15.623516 -6.5873938)
(-101.25858 -2.9450422 -36.289569)
(-213.98661 -29.703512 -63.767255)
(-328.64039 -51.680153 -99.355634)
(-468.75407 -83.619392 -137.92775)
(-615.36107 -125.17981 -177.35976)
(-770.99422 -172.01301 -216.33639)
(-930.14813 -225.11745 -252.48839)
(-1092.6573 -282.02524 -286.33533)
(-1253.5871 -342.12832 -315.4583)
(-1412.0534 -404.58735 -337.58683)
(-1565.496 -466.53679 -354.08579)
(-1713.2896 -528.11847 -362.59157)
(-1854.0268 -587.95116 -363.5229)
(-1987.6238 -645.31528 -356.78618)
(-2114.2514 -699.73795 -342.81959)
(-2234.3989 -751.11097 -322.40432)
(-2349.3084 -799.49627 -296.54929)
(-2459.9953 -845.04302 -266.59018)
(-2568.3863 -888.25653 -233.96221)
(-2676.3724 -930.60052 -200.35725)
(-2783.643 -970.8056 -166.02187)
(14.177476 1.1289356 -16.116491)
(-46.946974 42.839895 -28.646905)
(-129.91757 56.680456 -54.244591)
(-239.01239 59.860435 -81.340175)
(-356.96267 51.254781 -112.85873)
(-503.16199 38.16955 -154.11244)
(-649.47967 2.8226261 -188.45174)
(-810.29004 -32.154327 -227.64757)
(-971.41457 -82.279576 -262.88774)
(-1135.7496 -134.64869 -295.90907)
(-1297.5981 -194.91227 -323.35371)
(-1456.7337 -257.07096 -346.27675)
(-1610.0567 -321.49399 -362.30445)
(-1757.5622 -385.98454 -371.22452)
(-1897.6483 -449.63354 -372.91141)
(-2030.7194 -510.83707 -367.31315)
(-2156.7745 -569.33747 -354.68733)
(-2276.6564 -624.59301 -335.88764)
(-2391.4767 -676.10529 -311.61701)
(-2502.566 -724.75026 -283.41537)
(-2611.3771 -770.30412 -252.23589)
(-2720.1948 -814.24406 -219.42121)
(-2827.0041 -855.70872 -186.13352)
(5.8525037 34.777154 -38.367036)
(-75.516604 78.475186 -53.770146)
(-149.06291 132.56664 -85.430649)
(-254.59524 135.50662 -101.69119)
(-383.26708 162.00367 -141.61404)
(-530.33597 151.08073 -173.04683)
(-681.71382 135.9794 -207.93715)
(-848.16981 106.89844 -244.68048)
(-1011.6957 66.10213 -277.78984)
(-1180.1868 16.391454 -308.4979)
(-1344.1527 -40.601122 -335.05336)
(-1505.0126 -103.13632 -356.30555)
(-1659.6573 -168.95258 -371.308)
(-1807.2106 -236.59467 -379.74525)
(-1947.3399 -303.94868 -381.40316)
(-2079.7185 -369.99928 -376.01864)
(-2204.9624 -433.52496 -364.24109)
(-2323.8305 -493.73119 -346.48733)
(-2437.6164 -550.2208 -323.76461)
(-2547.6374 -603.10952 -297.21258)
(-2655.7259 -652.20259 -267.42265)
(-2763.0599 -698.94047 -237.02473)
(-2871.1894 -742.93866 -204.5765)
(-7.3155353 -11.475292 -15.980208)
(-5.0360207 -13.27361 -6.4741019)
(-7.807211 -4.166846 8.2514262)
(-60.392254 -61.082024 -27.53539)
(-65.308007 -47.362963 -13.8639)
(-53.206421 -38.472217 -3.1777944)
(-133.7298 -83.955131 -50.553894)
(-125.03625 -66.209149 -40.818928)
(-123.50414 -45.215057 -36.799054)
(-229.04381 -121.80302 -77.72121)
(-232.19576 -99.358995 -69.361333)
(-228.10278 -69.699172 -65.742435)
(-344.66248 -156.39329 -108.34871)
(-343.49438 -127.53653 -104.60929)
(-341.79639 -97.673173 -99.71329)
(-476.08768 -194.49842 -145.21518)
(-477.78268 -166.47849 -141.28601)
(-474.43447 -132.54577 -139.68266)
(-618.47936 -235.85502 -180.41957)
(-618.64788 -206.14158 -179.67638)
(-618.58771 -170.48917 -178.19977)
(-771.49869 -279.7759 -217.64023)
(-773.11144 -249.39024 -217.89035)
(-771.64974 -216.03038 -218.11995)
(-930.53714 -323.85182 -252.46004)
(-930.19462 -296.05876 -253.88752)
(-929.27057 -264.3238 -254.4986)
(-1093.2911 -370.69811 -283.96023)
(-1092.5157 -344.77499 -286.72369)
(-1091.0483 -316.64078 -287.79767)
(-1257.3769 -416.41962 -310.86647)
(-1255.2333 -394.04109 -314.97515)
(-1251.974 -369.81121 -316.97951)
(-1420.4799 -461.64221 -333.22881)
(-1416.0484 -443.83286 -337.64967)
(-1411.5557 -425.24169 -339.90403)
(-1580.3138 -506.1972 -348.41377)
(-1573.7985 -493.1349 -353.28346)
(-1567.0137 -479.88176 -355.74573)
(-1735.7695 -548.93296 -356.96629)
(-1726.4516 -541.07046 -361.84183)
(-1717.2983 -533.77872 -364.55984)
(-1885.2822 -590.17873 -357.99817)
(-1873.2881 -587.61631 -362.71277)
(-1861.3391 -586.18171 -365.23718)
(-2028.4763 -629.86884 -351.81053)
(-2013.3089 -632.55839 -356.00755)
(-1998.5487 -636.73231 -358.44103)
(-2164.6768 -668.2956 -338.57554)
(-2146.6575 -675.88845 -342.20126)
(-2129.0064 -685.08444 -344.18772)
(-2294.5407 -705.99581 -319.16145)
(-2273.4919 -717.82139 -321.8528)
(-2253.1464 -731.48628 -323.60264)
(-2418.1604 -742.99132 -294.28495)
(-2394.5998 -758.99235 -296.3322)
(-2371.4905 -776.04313 -297.38741)
(-2537.0022 -781.2602 -265.38101)
(-2510.3828 -799.44044 -266.40938)
(-2485.9199 -819.36514 -267.25882)
(-2651.719 -819.52668 -234.01133)
(-2623.4057 -838.95443 -233.89644)
(-2596.7154 -861.38116 -234.37326)
(-2764.0384 -859.27986 -200.26948)
(-2735.4412 -880.88061 -200.3386)
(-2706.7696 -904.19395 -200.57355)
(-2874.5204 -899.34219 -166.53825)
(-2844.6893 -922.13737 -166.74489)
(-2814.7443 -945.32695 -166.40613)
(2.1373215 -4.0477371 -0.020066696)
(-1.5870691 -5.7682069 -0.31128466)
(-5.7669058 1.2245306 -0.48485967)
(-64.294954 -4.7429108 -15.839948)
(-68.482525 3.6149369 -16.37445)
(-57.192998 16.102465 -20.294915)
(-141.52237 -14.316729 -42.497349)
(-142.51014 1.3253381 -49.174353)
(-142.0905 25.682124 -48.098576)
(-243.14073 -21.487378 -71.732676)
(-253.3915 1.3659539 -76.711529)
(-247.52395 32.099049 -75.332914)
(-367.67449 -42.731465 -109.60035)
(-369.79705 -17.215973 -114.37152)
(-365.91579 12.358795 -110.53029)
(-504.13863 -66.22599 -146.05797)
(-509.26047 -36.726308 -148.99684)
(-506.40458 -1.2733729 -149.515)
(-654.32717 -98.092353 -184.87172)
(-655.8065 -68.613106 -189.55042)
(-654.5447 -32.921028 -188.10624)
(-813.02564 -133.96764 -224.65466)
(-814.5209 -103.5622 -227.36041)
(-812.00718 -70.244845 -226.70513)
(-976.8023 -174.94623 -260.56136)
(-975.27057 -147.78557 -263.31046)
(-973.98674 -114.53971 -263.65544)
(-1143.7677 -219.52981 -294.5032)
(-1141.0717 -193.42129 -297.20076)
(-1138.314 -164.55404 -297.41803)
(-1310.5271 -265.76713 -323.70811)
(-1305.0044 -243.85063 -325.28124)
(-1301.3787 -218.84528 -326.14006)
(-1475.2473 -313.55817 -346.87027)
(-1467.2933 -295.51415 -348.44658)
(-1461.7219 -276.03982 -349.42861)
(-1636.0242 -361.41174 -363.50635)
(-1625.0968 -348.4524 -364.68611)
(-1617.5788 -333.94689 -365.77178)
(-1791.1335 -408.66024 -372.88335)
(-1777.531 -400.41639 -373.68038)
(-1767.3812 -392.38745 -375.15143)
(-1940.07 -454.69629 -374.71544)
(-1923.4112 -452.10781 -375.35394)
(-1910.587 -449.73748 -376.73722)
(-2081.7483 -499.37693 -368.93656)
(-2062.3381 -501.76326 -369.26669)
(-2046.6585 -505.27139 -370.94013)
(-2216.5017 -542.50138 -356.11685)
(-2194.4986 -549.87377 -356.38428)
(-2175.961 -558.45756 -357.93124)
(-2344.5243 -584.26474 -336.8053)
(-2320.122 -596.03183 -336.85212)
(-2298.8733 -609.17368 -338.58648)
(-2466.4039 -624.88967 -312.18869)
(-2440.0596 -640.31425 -312.31355)
(-2416.3551 -657.35407 -313.65174)
(-2583.7383 -665.03934 -283.36244)
(-2555.6023 -684.33205 -283.3166)
(-2530.0205 -703.0879 -284.80394)
(-2696.1536 -704.67637 -251.33591)
(-2668.6563 -726.56622 -252.55629)
(-2640.1144 -747.1117 -252.87409)
(-2808.7483 -745.87078 -219.16834)
(-2779.3384 -767.29063 -219.03247)
(-2750.366 -790.28076 -219.7858)
(-2917.9901 -786.36592 -185.96478)
(-2887.7641 -809.15509 -185.97883)
(-2858.0033 -831.88352 -186.07155)
(-3.0697714 14.8199 5.6181933)
(-2.8414374 14.98362 -3.0400052)
(-6.066697 17.308795 -15.292386)
(-82.551183 35.422865 -11.549262)
(-88.813775 36.609387 -23.525426)
(-86.83491 55.299607 -35.812084)
(-153.56409 55.800027 -37.019323)
(-155.90646 81.29416 -49.970804)
(-164.03389 102.47588 -63.462907)
(-267.9413 65.633925 -69.994164)
(-269.13352 81.302027 -79.225482)
(-272.12181 107.87181 -88.744984)
(-391.28258 63.318652 -106.41965)
(-393.30255 92.73522 -115.56437)
(-395.37002 121.58403 -124.49844)
(-536.66972 54.505273 -145.35359)
(-537.49058 81.412731 -152.87315)
(-538.5141 114.5026 -161.00058)
(-691.452 34.991051 -187.18448)
(-689.89863 65.543966 -194.46543)
(-691.21923 96.501875 -199.90508)
(-854.28187 6.6057742 -227.69205)
(-854.06424 36.487633 -232.23414)
(-852.52793 68.578399 -237.22536)
(-1023.4503 -28.096347 -266.22865)
(-1019.7449 0.74950015 -270.85658)
(-1017.7786 30.817766 -274.55012)
(-1193.2419 -69.228642 -302.41399)
(-1189.2756 -42.368044 -305.18585)
(-1184.3672 -15.288301 -307.03176)
(-1362.6672 -114.60421 -332.83191)
(-1356.102 -91.145505 -334.69468)
(-1349.2875 -67.71941 -335.85494)
(-1529.258 -162.89386 -358.08756)
(-1520.5799 -143.74309 -359.14024)
(-1510.6678 -124.58924 -359.08003)
(-1690.3919 -213.24736 -376.41531)
(-1679.2054 -198.45762 -376.40895)
(-1666.9331 -184.37343 -375.66619)
(-1845.7596 -263.81696 -387.42816)
(-1831.9982 -254.39944 -386.82407)
(-1816.4433 -245.71845 -385.44436)
(-1993.7316 -314.26849 -390.65818)
(-1977.1641 -310.1464 -389.54197)
(-1958.997 -306.83233 -387.71087)
(-2134.2392 -363.69729 -386.32836)
(-2115.1539 -364.89392 -384.80843)
(-2094.0983 -366.77436 -382.79399)
(-2267.3427 -411.73811 -374.55496)
(-2245.7457 -417.87883 -372.95735)
(-2222.2928 -424.78997 -370.89418)
(-2393.5714 -458.1379 -356.33967)
(-2369.7278 -468.87874 -354.63454)
(-2343.9603 -480.11531 -352.75267)
(-2513.7019 -503.27692 -332.36839)
(-2487.8882 -517.81623 -330.93136)
(-2460.6534 -532.75533 -329.25201)
(-2629.1056 -547.03191 -304.0386)
(-2601.9378 -564.54258 -302.86028)
(-2573.1665 -582.47313 -301.56301)
(-2741.3159 -589.86007 -273.02719)
(-2712.8258 -609.83024 -271.87031)
(-2683.2778 -629.59306 -270.91407)
(-2851.5367 -632.48148 -239.84725)
(-2822.0512 -653.80243 -239.16546)
(-2792.0958 -675.20892 -238.58611)
(-2960.9029 -674.98993 -206.64102)
(-2931.328 -697.28457 -206.37296)
(-2901.1472 -719.80848 -206.08354)
)
;

boundaryField
{
    free
    {
        type            zeroGradient;
    }
    fixed
    {
        type            fixedValue;
        value           nonuniform List<vector> 
25
(
(-2.5953868e-15 -2.1703571e-16 4.2716933e-18)
(-1.3028228e-15 -3.4252847e-16 3.3068324e-16)
(-1.9658614e-16 -3.2115893e-17 -1.1045223e-16)
(-3.6361799e-15 2.112754e-16 -3.2990721e-16)
(-3.8783653e-15 3.5858996e-16 7.5215743e-16)
(-2.0449562e-15 -3.5718549e-16 -7.3673077e-16)
(-9.8459492e-16 7.8127033e-16 2.7525688e-16)
(-1.4121951e-15 -1.0527101e-15 6.223458e-16)
(-4.8813632e-16 1.9183015e-16 -1.0607077e-16)
(6.5239771e-16 2.739523e-16 -5.5565719e-16)
(-3.9146975e-16 7.8165185e-18 1.2560621e-16)
(1.4766345e-16 -3.4299605e-16 -2.8648028e-16)
(1.6350797e-16 -2.4226884e-16 -1.2066667e-17)
(-1.0304172e-15 -9.2669207e-16 -7.5672327e-16)
(-2.6214496e-15 -5.6404768e-16 7.244144e-16)
(-6.4481012e-16 3.525084e-16 2.7116342e-16)
(-1.0135278e-15 7.0169807e-16 1.7538027e-16)
(-3.5205005e-15 9.4737515e-16 -2.5196009e-17)
(-3.8147498e-15 1.043275e-15 1.2924308e-16)
(-2.4010456e-15 1.4295629e-15 -1.6975308e-16)
(-1.2019486e-15 6.189313e-16 -3.4292956e-16)
(2.8178306e-17 1.9013092e-16 6.1994168e-17)
(-1.2511779e-16 -6.848356e-17 2.1836215e-16)
(-3.8898857e-17 4.7141393e-16 -3.1043199e-16)
(-3.7042918e-15 1.4868296e-15 -1.3023874e-15)
)
;
    }
    freeTop
    {
        type            zeroGradient;
    }
}


// ************************************************************************* //
