/*--------------------------------*- C++ -*----------------------------------*\
  =========                 |
  \\      /  F ield         | OpenFOAM: The Open Source CFD Toolbox
   \\    /   O peration     | Website:  https://openfoam.org
    \\  /    A nd           | Version:  6
     \\/     M anipulation  |
\*---------------------------------------------------------------------------*/
FoamFile
{
    version     2.0;
    format      ascii;
    class       pointVectorField;
    location    "1.43";
    object      lm;
}
// * * * * * * * * * * * * * * * * * * * * * * * * * * * * * * * * * * * * * //

dimensions      [1 -2 -1 0 0 0 0];

internalField   nonuniform List<vector> 
28033
(
(-1.780536e-14 4.8656612e-16 1.3104288e-15)
(-5.4375576e-15 3.3318594e-15 9.9433006e-16)
(2030.0853 1368.8168 -107.18761)
(2389.2044 751.27721 -94.085809)
(-1.338461e-14 3.0090723e-15 -2.870051e-16)
(-1.2587315e-14 4.9008913e-15 -4.4266115e-15)
(2364.7169 804.47994 -97.936018)
(1991.8164 1420.9168 -106.7148)
(-5.6329745e-15 1.0535579e-15 6.7193838e-16)
(-2.4534443e-15 3.0423504e-16 5.8836893e-16)
(-5.4923298e-15 2.4302826e-15 8.9528572e-16)
(-2.6209443e-15 -1.1537891e-15 -6.7979696e-16)
(-7.2548563e-15 1.5542294e-15 1.0013199e-15)
(-4.7613589e-15 -9.2108094e-16 -7.3952737e-16)
(-1.132389e-15 -2.2256662e-17 -6.4484848e-16)
(-7.4239857e-16 -2.4218299e-16 -3.6669977e-16)
(-1.1196198e-15 4.5550132e-16 8.383863e-16)
(-2.3465882e-16 2.2667819e-16 1.4996246e-15)
(-4.0583243e-15 -8.7236639e-16 -1.3429605e-15)
(-5.8237189e-15 8.4462789e-16 7.5519031e-16)
(-5.1611762e-15 1.0100276e-15 9.7613867e-16)
(-1.7679952e-15 -8.1010255e-16 4.5192313e-16)
(-4.4158752e-15 1.0299569e-15 -9.452958e-16)
(1996.5087 1291.2446 -103.21212)
(1945.7531 1206.7608 -98.39891)
(1912.167 1137.3641 -93.66307)
(1904.4623 1086.245 -90.139936)
(1927.2464 1054.1955 -87.634477)
(1980.7689 1038.7435 -86.194806)
(2059.6587 1035.3237 -86.073324)
(2155.894 1037.8114 -86.315163)
(2257.2036 1039.5608 -87.211298)
(2351.4086 1034.0505 -88.221981)
(2427.1799 1017.0795 -89.325377)
(2474.7791 985.58643 -91.077784)
(2490.4791 939.6412 -91.659464)
(2473.5279 881.01122 -92.60992)
(2432.0928 814.87404 -93.330672)
(11.804369 19.389976 18.797457)
(16.945304 29.245935 24.302435)
(26.759059 37.330796 24.520915)
(40.157754 46.332432 21.696497)
(56.71031 54.02721 16.214011)
(76.2053 61.945406 9.10971)
(98.371609 68.238619 0.92341783)
(122.5302 73.628332 -8.1172582)
(148.20315 76.93713 -17.276945)
(174.8548 78.312889 -26.754035)
(201.22598 76.806044 -35.579278)
(226.51312 73.100372 -43.698095)
(250.07983 66.217726 -50.880344)
(271.00946 56.711891 -57.004286)
(288.05138 44.015028 -61.255332)
(300.50153 29.14909 -63.658878)
(308.52389 11.898897 -64.799553)
(311.06539 -6.8475644 -64.095383)
(308.00977 -27.072753 -61.228389)
(299.53852 -47.714099 -56.954337)
(285.92151 -68.563689 -51.418185)
(267.81462 -87.993443 -44.351935)
(245.46408 -106.82694 -36.720921)
(220.01761 -122.70374 -28.187662)
(192.35333 -136.38625 -19.452409)
(163.69023 -146.82059 -10.964997)
(134.79095 -153.67342 -2.6081174)
(106.74496 -156.56982 5.2259088)
(80.894895 -155.85248 12.007099)
(57.745911 -151.07588 18.187774)
(38.187505 -142.70313 23.07384)
(23.003424 -131.06892 27.114899)
(12.057736 -116.4794 30.260362)
(5.9972627 -100.02312 32.79642)
(4.8309616 -81.502596 34.230751)
(8.1754753 -62.059744 35.257985)
(15.847986 -41.85334 36.05095)
(27.482208 -22.05177 36.354753)
(42.324507 -2.6462992 36.779897)
(59.754474 15.859864 37.355996)
(79.127704 33.053588 38.124424)
(99.645176 49.05088 39.286899)
(120.65404 63.517507 40.894355)
(141.45318 76.804457 43.033421)
(161.58328 89.111008 45.594405)
(180.57796 100.79246 48.657228)
(198.22488 112.35176 52.056042)
(214.38447 124.28965 55.716517)
(229.15046 137.21109 59.486779)
(242.69486 151.67155 63.227848)
(255.40262 168.23896 66.784153)
(267.71083 187.38603 70.01245)
(280.1969 209.51077 72.787102)
(293.45586 234.88982 75.000715)
(308.14254 263.65362 76.578629)
(324.88033 295.80548 77.465731)
(344.27285 331.1809 77.637145)
(366.84948 369.48408 77.088453)
(393.05452 410.29199 75.832781)
(423.20185 453.07254 73.885273)
(457.49555 497.21974 71.29193)
(495.99445 542.04969 68.079528)
(538.56819 586.93642 64.275421)
(584.98988 631.20782 60.028082)
(634.79837 674.23399 55.089158)
(687.81439 715.51276 50.011052)
(742.72861 754.51509 44.470624)
(799.65307 791.02106 38.74204)
(857.52646 825.00586 32.109041)
(915.63305 855.95844 25.759486)
(973.39492 884.30515 19.144858)
(1030.2661 910.14332 12.17003)
(1085.6959 933.73438 5.1246712)
(1139.3738 955.42209 -2.1111826)
(1191.0367 975.547 -9.445327)
(1240.5698 994.63935 -16.918991)
(1287.9881 1012.9792 -24.4753)
(1333.3376 1031.0634 -32.085059)
(1376.9007 1049.1088 -39.67724)
(1418.7323 1067.4835 -47.207908)
(1459.2815 1086.1043 -54.540998)
(1498.7898 1105.3519 -61.676928)
(1537.3634 1124.909 -68.340022)
(1575.4079 1144.8731 -74.550815)
(1612.9245 1164.9309 -80.242891)
(1650.2547 1184.8733 -85.206262)
(1687.1855 1204.6355 -89.494381)
(1723.9956 1223.6196 -92.974135)
(1760.2753 1242.045 -95.760449)
(1796.3775 1259.329 -97.980893)
(1831.5728 1275.7882 -99.384628)
(1866.3225 1290.9902 -100.8052)
(1900.3264 1305.3943 -101.45828)
(1932.8806 1319.2003 -102.55278)
(1965.0032 1332.5724 -103.48104)
(14.277785 -20.249609 -28.733481)
(26.337052 -32.585562 -32.192305)
(38.496315 -43.708783 -39.364882)
(51.713189 -51.464981 -42.119133)
(69.156974 -58.939038 -42.09813)
(88.86814 -63.744047 -39.775414)
(111.19739 -66.589699 -34.6676)
(136.01849 -66.820772 -27.292755)
(162.47935 -64.840798 -17.628536)
(189.76957 -59.99422 -6.3549912)
(217.18797 -53.098215 6.380315)
(243.23945 -43.504205 19.462068)
(267.18935 -32.469397 32.706525)
(287.88471 -19.637125 45.019263)
(304.43202 -6.0590638 56.061863)
(315.9102 8.0343757 64.958931)
(321.78042 21.970365 71.204746)
(321.66049 34.831043 74.534027)
(315.29868 46.469492 74.46127)
(303.13626 56.014515 70.986338)
(285.29715 63.012043 64.275288)
(262.51885 67.435757 54.308291)
(235.95479 68.514622 41.755252)
(206.1574 66.813938 26.934789)
(174.58791 61.857849 10.608066)
(142.77142 54.04772 -6.4426801)
(111.56122 43.755797 -23.491227)
(82.567304 31.356109 -39.779147)
(56.591528 17.338484 -54.557889)
(34.908919 2.3648017 -67.124434)
(18.053688 -12.982947 -76.960656)
(6.6489418 -28.204877 -83.644271)
(0.95709523 -42.664011 -86.946876)
(1.074762 -56.033796 -86.761577)
(6.7951151 -67.697264 -83.190884)
(17.642345 -77.65729 -76.520443)
(32.826751 -85.316068 -67.273516)
(51.915549 -91.224318 -55.867312)
(73.730911 -94.9152 -43.044575)
(97.591035 -96.876344 -29.42336)
(122.42353 -97.223207 -15.820946)
(147.46085 -96.335493 -2.9153847)
(171.8906 -94.559648 8.6043423)
(195.17987 -92.287731 18.186222)
(216.83772 -89.897719 25.338737)
(236.68774 -87.726442 29.754313)
(254.6633 -86.066448 31.232795)
(270.97703 -85.116173 29.767821)
(285.98204 -84.998854 25.481256)
(300.249 -85.72008 18.669761)
(314.45458 -87.190542 9.744141)
(329.41976 -89.209331 -0.75390436)
(345.99458 -91.488526 -12.2159)
(365.07394 -93.652967 -23.967162)
(387.4979 -95.276742 -35.334504)
(414.04307 -95.89419 -45.656382)
(445.34161 -95.033641 -54.347599)
(481.88368 -92.246491 -60.907329)
(523.94235 -87.128848 -64.974706)
(571.59838 -79.352039 -66.326644)
(624.69728 -68.676838 -64.912784)
(682.88188 -54.975299 -60.840356)
(745.58427 -38.229726 -54.380986)
(812.08581 -18.543787 -45.952788)
(881.51665 3.8701423 -36.066581)
(952.92343 28.708974 -25.380168)
(1025.3845 55.591746 -14.502378)
(1097.8492 83.977172 -4.1014007)
(1169.3506 113.63369 5.0610149)
(1239.2989 143.78316 12.602166)
(1306.679 174.10528 17.910021)
(1371.3706 204.1335 20.747799)
(1432.7722 233.57644 20.883632)
(1490.7813 262.06279 18.24819)
(1545.4247 289.50051 13.00874)
(1596.8608 315.73371 5.384469)
(1645.3928 340.78518 -4.217813)
(1691.4017 364.72139 -15.323897)
(1735.3559 387.69453 -27.380779)
(1777.7241 409.8958 -39.823024)
(1818.9508 431.55009 -52.081338)
(1859.4649 452.87667 -63.62676)
(1899.5791 474.09599 -74.019922)
(1939.5436 495.36835 -82.896614)
(1979.4611 516.83124 -90.051077)
(2019.3615 538.53013 -95.365112)
(2059.1266 560.48134 -98.893566)
(2098.5822 582.5961 -100.77736)
(2137.4652 604.77501 -101.28597)
(2175.478 626.83189 -100.74627)
(2212.3328 648.58854 -99.55006)
(2247.7634 669.84517 -98.059826)
(2281.6353 690.39773 -96.582763)
(2313.8921 710.14232 -95.42029)
(2349.8866 730.57741 -94.720905)
(3.2927448e-15 -1.3239155e-15 2.3845803e-16)
(2.4470133e-15 -9.6672015e-16 3.215493e-17)
(-9.0574249e-15 9.0550918e-16 6.4029168e-16)
(-1.2642219e-16 -5.721845e-16 4.4370095e-16)
(-7.6811722e-15 -4.9270561e-16 4.1193361e-16)
(-7.3893964e-15 2.7533729e-15 -1.0951501e-15)
(-3.2915852e-15 -8.1743692e-16 3.8364228e-16)
(-1.9032499e-15 5.3200654e-16 -8.2319016e-17)
(-4.7409759e-15 -4.8623412e-16 4.3918642e-16)
(-1.2869644e-14 1.1845665e-15 6.4228907e-16)
(-9.6157521e-15 1.4157374e-15 5.9836601e-16)
(-9.4077204e-15 4.9518432e-16 1.1192419e-15)
(-5.982767e-15 2.6210694e-16 3.0473736e-16)
(-1.1478475e-14 -5.3386198e-16 1.6580808e-15)
(-5.257323e-15 3.6289085e-16 2.8600704e-16)
(12.365944 -6.6618869 13.066492)
(20.638096 -24.170943 15.875628)
(32.485713 -29.428524 12.33464)
(48.993584 -39.908202 9.0481156)
(66.962227 -45.268441 3.0970785)
(88.040601 -51.418707 -3.4570715)
(110.9048 -54.149385 -9.8933148)
(134.81364 -55.744876 -16.477189)
(160.22696 -53.60534 -22.90203)
(184.511 -49.255968 -28.606601)
(207.63476 -40.922276 -33.66426)
(230.33284 -30.668708 -37.908824)
(248.04031 -16.971555 -41.080574)
(264.38159 -1.1785725 -43.376458)
(274.09062 16.820004 -44.280626)
(280.75534 35.529716 -44.398839)
(282.20571 55.111626 -43.425446)
(277.16907 74.908806 -41.253669)
(268.31789 92.939717 -38.548729)
(253.4728 110.05782 -34.762588)
(235.04 123.47294 -30.882341)
(213.11362 135.41715 -26.369784)
(188.15749 143.005 -21.492304)
(161.12371 146.72278 -16.731341)
(133.97384 146.17788 -11.966356)
(106.40189 142.43134 -7.4339483)
(80.908809 134.44927 -3.5059193)
(57.184498 123.9074 0.29112359)
(36.663613 109.72507 3.3779853)
(20.204923 93.842999 6.0145888)
(7.6041325 76.211902 8.1029829)
(-0.19764465 58.212359 9.5271764)
(-3.505777 39.855716 10.702011)
(-2.2550278 22.572107 11.377297)
(3.0352754 6.8631922 11.729814)
(12.280894 -7.7943964 12.214172)
(24.372773 -19.813012 12.521815)
(39.295612 -28.704188 12.913963)
(55.849518 -35.266197 13.380512)
(73.618563 -38.930802 14.105184)
(91.872819 -40.029878 15.06982)
(110.06728 -38.717653 16.267131)
(127.80457 -35.416746 17.719489)
(144.74972 -30.514105 19.351877)
(160.79306 -24.530811 21.146446)
(175.92988 -17.93996 23.012291)
(190.35431 -11.257857 24.905206)
(204.38386 -4.9132298 26.738166)
(218.48084 0.70415472 28.457826)
(233.21352 5.3197804 29.992159)
(249.22166 8.7631255 31.289814)
(267.19845 10.98888 32.303672)
(287.82791 12.088535 32.987184)
(311.77826 12.26481 33.32027)
(339.62136 11.855278 33.272062)
(371.84907 11.264673 32.850005)
(408.78623 11.001877 32.046969)
(450.62236 11.582438 30.900356)
(497.35159 13.563685 29.435186)
(548.8026 17.454194 27.713093)
(604.62156 23.731849 25.789389)
(664.30465 32.772224 23.744178)
(727.21257 44.871813 21.639021)
(792.60377 60.181656 19.572107)
(859.6919 78.756778 17.565921)
(927.65987 100.47007 15.69678)
(995.55682 125.26137 13.936263)
(1063.8547 152.59546 12.419902)
(1129.43 181.19714 11.010381)
(1193.3457 212.93427 9.9668682)
(1255.9661 245.05117 8.501687)
(1315.7811 277.8882 7.4226981)
(1373.0812 310.73062 5.9392175)
(1428.1729 343.10823 4.2986892)
(1480.9585 374.58745 2.3300189)
(1531.7906 404.80568 -0.092202517)
(1581.0033 433.52554 -2.9946395)
(1628.8892 460.56746 -6.4395379)
(1675.8014 485.88849 -10.440417)
(1722.0218 509.51304 -14.975439)
(1767.7679 531.56589 -19.999433)
(1813.1845 552.21665 -25.433657)
(1858.319 571.70019 -31.172896)
(1903.1196 590.25581 -37.102273)
(1947.4556 608.15 -43.091498)
(1991.113 625.60716 -49.015882)
(2033.8269 642.85474 -54.766961)
(2075.31 660.03627 -60.248583)
(2115.2581 677.28868 -65.41584)
(2153.427 694.63632 -70.233934)
(2189.5845 712.10169 -74.750273)
(2223.6716 729.58761 -79.014038)
(2255.6166 747.00364 -83.177012)
(2285.7872 764.18462 -87.414855)
(2308.8785 779.00789 -91.658999)
(2414.5228 869.53738 -102.85584)
(2461.9242 936.79681 -107.64238)
(2468.8418 990.19632 -110.12936)
(2450.0353 1032.6123 -110.62174)
(2400.0723 1060.919 -109.1444)
(2318.8192 1072.6432 -105.76891)
(2226.1928 1076.3012 -101.57348)
(2131.8971 1076.342 -97.124696)
(2024.9164 1066.8601 -92.669007)
(1942.9016 1068.1181 -89.392458)
(1897.9267 1089.0006 -88.549984)
(1876.7261 1124.2764 -88.845435)
(1884.6351 1178.7807 -91.805877)
(1920.2512 1255.3226 -95.908846)
(1978.5876 1351.0787 -102.53161)
(1930.7623 1386.8622 -103.6796)
(1898.8183 1375.2892 -101.73862)
(1861.4051 1360.277 -100.78727)
(1822.6372 1345.3082 -99.859319)
(1782.2307 1330.0279 -99.845504)
(1740.9299 1314.6046 -99.85632)
(1699.0155 1299.104 -99.578446)
(1656.9301 1283.5729 -98.672455)
(1615.1371 1268.1618 -96.674385)
(1573.993 1252.9041 -93.29043)
(1533.7585 1237.8942 -88.32878)
(1494.5845 1223.1159 -81.67917)
(1456.4528 1208.527 -73.429505)
(1419.1106 1194.0041 -63.780831)
(1382.4809 1179.4053 -52.975432)
(1346.0717 1164.5069 -41.46322)
(1309.433 1149.0545 -29.792398)
(1272.0308 1132.7189 -18.508404)
(1233.2397 1115.1713 -8.2912856)
(1192.5306 1096.0496 0.29826301)
(1149.4054 1075.0454 6.6689485)
(1103.4845 1051.8351 10.396688)
(1054.5666 1026.2171 11.15515)
(1002.5813 997.97151 8.8115914)
(947.68203 967.12433 3.1796299)
(890.12033 933.71809 -5.0896093)
(831.52195 897.88486 -16.380166)
(769.22895 859.69344 -29.724244)
(708.90572 818.83686 -44.003212)
(648.01955 777.53997 -59.191499)
(588.79998 734.81829 -74.421039)
(532.20484 691.6838 -88.644434)
(479.02476 648.61406 -101.21826)
(430.15382 606.13898 -111.42179)
(386.2644 564.76243 -118.71862)
(347.83186 524.93682 -122.69899)
(315.10053 487.04399 -123.13667)
(288.09959 451.36336 -120.00789)
(266.59903 418.09075 -113.46638)
(250.16144 387.3028 -103.86119)
(238.12989 358.97876 -91.704205)
(229.69513 332.99419 -77.650615)
(223.90833 309.13814 -62.453893)
(219.76187 287.12629 -46.939156)
(216.21651 266.62093 -31.94327)
(212.28224 247.25727 -18.279497)
(207.06071 228.65803 -6.6851364)
(199.79406 210.47447 2.2170408)
(189.9433 192.38112 7.9617111)
(177.14609 174.118 10.261435)
(161.34235 155.5371 8.9969547)
(142.72783 136.43723 4.3787048)
(121.61907 116.93178 -3.4621784)
(98.873333 96.96859 -13.824313)
(75.074358 76.796842 -26.191106)
(51.541248 56.570089 -39.758481)
(28.780696 36.949988 -53.60395)
(8.946974 17.124868 -66.945102)
(-7.7164108 -1.2393529 -78.978509)
(-20.812501 -18.287419 -88.646643)
(-28.329392 -34.102692 -95.738961)
(-29.502755 -48.023086 -99.623256)
(-25.644641 -58.468228 -98.944462)
(-14.350166 -67.378462 -95.199397)
(2.0292929 -74.619214 -86.680587)
(25.429472 -77.831184 -75.754134)
(52.500999 -78.202562 -59.809608)
(84.659594 -76.643127 -42.887648)
(119.42562 -71.536369 -23.0475)
(155.77724 -65.236426 -2.3484016)
(192.86626 -56.939076 18.598662)
(227.68498 -45.982769 38.531947)
(260.48372 -34.814029 57.323807)
(289.64732 -22.81103 72.837899)
(312.88158 -8.9505955 84.790935)
(330.40764 3.3852604 94.440378)
(341.64341 16.720419 97.737088)
(345.16059 28.651797 98.928504)
(342.08789 39.801284 93.667036)
(332.11478 50.962543 86.024095)
(316.63277 59.079417 74.684161)
(294.85494 66.616834 60.204792)
(269.24678 72.575518 43.514071)
(241.40239 78.05788 26.143491)
(210.29722 80.457513 8.6765742)
(179.67461 81.657048 -8.0547558)
(149.90429 81.913332 -24.152535)
(121.13733 80.768767 -36.903055)
(95.621695 77.77544 -47.128564)
(73.027322 72.773934 -53.26865)
(55.060679 66.351531 -57.075935)
(40.32309 59.81728 -55.997406)
(30.370075 51.776028 -51.271457)
(23.818146 41.248179 -38.744243)
(25.027337 28.56732 -22.210293)
(-6.8708141e-15 1.5083581e-15 1.9262289e-16)
(-1.2504183e-14 5.7375616e-16 8.4327435e-16)
(-8.3449101e-15 1.4891922e-15 5.3018253e-16)
(-4.9731758e-15 1.4991158e-15 6.2376313e-16)
(-3.4146159e-15 1.5624416e-15 3.1576894e-17)
(2.0582335e-15 9.3962624e-16 -5.746342e-16)
(2.2101935e-15 3.7457559e-17 -1.1841335e-16)
(2.4553765e-15 -8.5141669e-16 -9.3419562e-16)
(1.2987427e-15 1.0081898e-16 1.7950851e-15)
(-4.5074861e-15 9.063971e-16 1.0710522e-15)
(-5.2682467e-15 2.1856155e-15 1.0652666e-15)
(-7.4917339e-15 1.915055e-15 2.2418828e-16)
(-9.400838e-15 1.3708275e-15 6.2833768e-16)
(-6.2048683e-15 1.3247981e-15 5.4317906e-16)
(-6.971104e-15 1.5128103e-15 7.5678131e-16)
(-1.2693866e-14 6.2923345e-15 -2.1364834e-15)
(-5.2452578e-15 2.6791924e-15 -5.3037742e-16)
(-1.0752404e-15 9.8318743e-16 -1.0111087e-16)
(-2.7353382e-15 1.7746034e-15 7.3085398e-17)
(1.0178949e-15 -1.5450237e-16 -4.119182e-16)
(-1.4303492e-15 4.136346e-16 -3.3264033e-16)
(-1.0059749e-14 4.7133437e-15 -1.6449855e-15)
(2.9801421e-15 -1.9180379e-15 -8.3172098e-16)
(-4.79756e-15 2.8035442e-15 1.1420498e-15)
(-5.4778068e-15 3.5047253e-15 -3.934403e-16)
(-1.8117877e-15 1.1581936e-15 -9.1309836e-16)
(-3.9812639e-16 4.7407236e-16 -2.2932148e-16)
(-1.5272242e-15 1.100363e-15 -2.2557932e-16)
(-4.1024849e-15 1.9838802e-15 2.8069696e-17)
(-5.3424143e-16 2.551799e-16 -1.9455919e-16)
(2392.3168 751.86431 -94.079943)
(2394.8375 752.57674 -94.875461)
(2397.0445 753.68353 -95.821618)
(2398.3178 755.39682 -96.756057)
(2399.0116 757.77102 -97.595295)
(2398.7996 760.59676 -98.145417)
(2397.6458 764.03232 -98.513124)
(2395.6202 767.83852 -98.673791)
(2392.7439 772.05751 -98.650518)
(2389.2319 776.52853 -98.543924)
(2385.2543 781.24199 -98.369842)
(2380.9046 785.97961 -98.238638)
(2376.6403 790.86177 -98.146241)
(2372.5739 795.4677 -98.11564)
(2368.7043 800.27876 -98.018819)
(2027.7915 1370.224 -107.44359)
(2025.1884 1371.8662 -107.6912)
(2022.8258 1374.4499 -107.91286)
(2020.5432 1377.9446 -108.28325)
(2018.5407 1382.319 -108.7453)
(2016.5545 1387.2148 -109.22644)
(2014.5789 1392.4227 -109.66061)
(2012.5001 1397.6876 -109.98816)
(2010.3015 1402.7459 -110.14245)
(2007.9379 1407.3788 -110.05464)
(2005.435 1411.4564 -109.70469)
(2002.85 1414.7114 -109.11797)
(2000.1157 1417.2846 -108.2639)
(1997.5268 1418.9837 -107.50405)
(1994.7256 1420.0967 -106.76645)
(5.7768187 13.656543 16.437352)
(12.333634 19.126221 18.20372)
(21.94813 24.955156 18.485577)
(34.216964 30.042187 15.824401)
(49.941299 34.71899 11.37922)
(68.341184 39.345086 5.6864227)
(89.793263 43.227373 -0.87963797)
(113.2505 46.807387 -8.0580597)
(138.77921 49.234175 -15.371764)
(164.96979 50.654088 -22.731433)
(191.95563 50.863395 -29.881754)
(217.94175 49.559764 -36.31822)
(242.94443 46.350586 -42.194569)
(265.34825 41.457355 -47.045907)
(284.84217 34.868957 -50.922738)
(299.87904 26.2615 -53.369219)
(310.67415 15.564513 -54.676365)
(316.2873 3.5871629 -54.61586)
(316.19889 -10.020354 -53.2365)
(310.28107 -24.787423 -50.424713)
(299.1408 -40.387449 -46.608676)
(282.48059 -56.136878 -41.614517)
(261.2349 -72.093007 -35.879181)
(236.16161 -87.069125 -29.462029)
(207.9473 -101.15057 -22.628188)
(178.00313 -113.44732 -15.731528)
(147.2657 -123.41497 -8.8753805)
(116.99338 -131.04743 -2.2748136)
(88.376085 -135.68566 3.8311897)
(62.374959 -137.03774 9.2099868)
(40.140086 -135.43881 14.172521)
(22.224172 -130.48425 18.067327)
(9.2349735 -122.53948 21.51106)
(1.5186157 -111.79874 24.221231)
(-0.73014287 -98.864867 26.468384)
(2.4623285 -83.709698 28.090893)
(10.474727 -67.22873 29.633756)
(23.111324 -49.970423 30.907304)
(39.533566 -31.98941 32.116429)
(58.838882 -14.039737 33.534415)
(80.358099 3.4298169 35.142257)
(102.92044 20.379603 37.037509)
(126.10215 36.49885 39.23831)
(148.61361 51.753482 41.837767)
(170.11158 66.244635 44.770531)
(190.05828 80.183192 47.999419)
(208.19749 93.833747 51.414733)
(224.47383 107.6167 54.903138)
(239.0381 121.99281 58.335499)
(252.23355 137.45765 61.563752)
(264.58908 154.51086 64.459269)
(276.74002 173.61989 66.89047)
(289.43166 195.17716 68.76837)
(303.43339 219.48618 70.008813)
(319.52422 246.72127 70.579232)
(338.41997 276.93473 70.455678)
(360.76087 310.0212 69.66094)
(387.04879 345.75921 68.222124)
(417.64418 383.79247 66.190745)
(452.72636 423.66736 63.620307)
(492.30256 464.85018 60.592118)
(536.19584 506.76051 57.14218)
(584.02196 548.81974 53.351007)
(635.28457 590.43961 49.234254)
(689.45486 630.97214 44.892072)
(745.69731 670.23505 40.307531)
(803.1382 707.52867 35.420957)
(861.31577 742.41003 30.451799)
(919.26805 775.1791 25.150861)
(976.30562 805.16645 19.955281)
(1032.0063 832.88204 14.261662)
(1085.8054 858.23742 8.4135483)
(1137.4047 881.49376 2.3100055)
(1186.6488 902.89325 -4.060334)
(1233.4894 922.75899 -10.67157)
(1277.9795 941.46535 -17.555972)
(1320.3057 959.29315 -24.610096)
(1360.6636 976.64864 -31.827813)
(1399.3792 993.6737 -39.085846)
(1436.6839 1010.75 -46.32987)
(1472.9665 1027.8393 -53.372271)
(1508.4196 1045.2349 -60.187301)
(1543.2011 1062.7876 -66.574618)
(1577.5853 1080.524 -72.469969)
(1611.8297 1098.4104 -77.710086)
(1645.6547 1116.2075 -82.193069)
(1679.321 1133.8076 -86.026517)
(1712.6545 1151.0396 -89.086627)
(1745.5866 1167.7781 -91.514747)
(1778.2148 1183.9761 -93.39497)
(1810.018 1199.329 -94.722449)
(1841.5156 1214.2638 -95.974186)
(1872.2125 1228.2126 -96.827369)
(1902.0083 1241.9134 -98.234204)
(1936.7466 1258.3002 -99.818456)
(2.0627679 8.8484294 11.522815)
(8.6276532 10.771449 13.526384)
(18.192183 14.602118 13.340304)
(30.441797 18.220783 11.229478)
(45.236188 21.36066 7.7016867)
(63.052248 24.930081 3.0356244)
(83.341964 27.978239 -2.1249245)
(106.03179 31.102556 -7.9863909)
(130.49361 33.502706 -13.726626)
(156.46841 35.632481 -19.820581)
(183.04773 36.710584 -25.362241)
(209.55733 37.05184 -30.80676)
(235.14029 36.052105 -35.519187)
(259.08335 33.989564 -39.676883)
(280.24968 30.205164 -42.91357)
(297.9606 25.131788 -45.262412)
(311.37302 18.242935 -46.623577)
(319.91045 9.9341079 -46.910119)
(322.9703 -0.094675591 -46.167246)
(320.36773 -11.247899 -44.388977)
(311.81681 -23.94426 -41.631143)
(297.68793 -37.249665 -38.023142)
(278.25823 -51.412359 -33.676652)
(254.23964 -65.44177 -28.77148)
(226.3777 -79.393991 -23.432622)
(195.90505 -92.408753 -17.908226)
(163.8598 -104.29385 -12.324941)
(131.5866 -114.17845 -6.9631768)
(100.28124 -122.03087 -1.8313586)
(71.474372 -127.17548 2.9291568)
(45.907801 -129.48543 7.0884495)
(25.010517 -128.73353 10.860425)
(9.2660835 -124.90053 14.141068)
(-0.73067329 -118.18451 16.930041)
(-4.7402867 -108.73992 19.413545)
(-2.6771806 -96.838335 21.578481)
(5.0466339 -82.956214 23.579808)
(17.968665 -67.549929 25.491707)
(35.327285 -51.008904 27.502331)
(56.056314 -33.958217 29.577011)
(79.356959 -16.777555 31.978474)
(104.05368 0.31211107 34.361317)
(128.97469 16.736008 37.431729)
(153.46943 32.555917 40.41054)
(176.52466 47.728756 43.654042)
(197.75258 62.270449 46.992085)
(216.79296 76.420171 50.339286)
(233.62604 90.515098 53.548801)
(248.47185 104.97808 56.518336)
(261.78965 120.27833 59.105392)
(274.23961 136.91872 61.223849)
(286.60695 155.38098 62.779206)
(299.78855 176.08124 63.728632)
(314.67419 199.36208 64.041706)
(332.14236 225.42863 63.733434)
(352.95739 254.36272 62.834588)
(377.75947 286.08829 61.403847)
(406.99504 320.40427 59.500066)
(440.92576 356.9552 57.202797)
(479.57656 395.30138 54.575553)
(522.78139 434.90141 51.682195)
(570.15247 475.17447 48.564861)
(621.10432 515.52667 45.230073)
(675.06348 555.35926 41.800798)
(731.02123 594.06213 38.088154)
(788.1662 631.49392 34.325216)
(846.01714 666.78522 30.445358)
(905.09301 701.39048 26.159251)
(962.23251 732.4697 21.522706)
(1017.3825 760.90414 16.726034)
(1070.5853 786.82794 11.47453)
(1121.2162 810.56911 5.907361)
(1169.2959 832.17229 0.0076443064)
(1214.7473 852.02114 -6.2074726)
(1257.6357 870.34454 -12.706049)
(1298.1374 887.57104 -19.447479)
(1336.5224 903.93019 -26.329216)
(1373.0456 919.83475 -33.315439)
(1408.0796 935.43072 -40.227186)
(1441.863 951.09466 -47.049758)
(1474.7388 966.74329 -53.555364)
(1506.9141 982.76849 -59.75348)
(1538.6624 998.91192 -65.439238)
(1564.5649 1011.6731 -70.402948)
(1591.7186 1025.6652 -74.828807)
(1622.3632 1041.9512 -78.752559)
(1652.9863 1058.2915 -82.038444)
(1683.5802 1074.4121 -84.655962)
(1713.831 1090.2429 -86.813748)
(1744.1629 1105.6735 -88.462612)
(1773.788 1120.634 -89.78936)
(1803.5056 1135.1313 -91.075895)
(1832.896 1149.1091 -92.026996)
(1861.3912 1162.925 -93.70469)
(1894.8664 1179.0446 -95.089995)
(1.2482001 5.8868015 8.458068)
(7.1871353 6.073158 9.4289307)
(16.36282 8.2925542 8.9821397)
(28.172115 10.341209 7.0199933)
(42.832798 12.535531 3.5917746)
(60.140047 15.212913 -0.28756491)
(80.05764 17.604955 -4.7762254)
(102.19526 20.1916 -9.405639)
(126.66589 22.590143 -14.254758)
(152.30525 24.678213 -18.846835)
(179.18859 26.410002 -23.360418)
(206.00125 27.493785 -27.399882)
(232.59828 27.926291 -31.053669)
(257.39996 27.309721 -34.0346)
(280.23796 25.699205 -36.451087)
(299.61188 22.879612 -38.091137)
(315.18781 18.551147 -39.004735)
(325.76209 12.941706 -39.115514)
(331.23508 5.7052259 -38.522396)
(330.64289 -2.8247963 -37.118555)
(324.18585 -12.95127 -35.079302)
(311.63364 -24.076966 -32.419499)
(293.44774 -36.38647 -29.24979)
(270.01612 -49.226554 -25.693044)
(242.28472 -62.502253 -21.86534)
(211.20611 -75.521133 -17.909244)
(178.01563 -87.991447 -13.944817)
(144.0641 -99.283566 -10.058316)
(110.80664 -109.01611 -6.321601)
(79.513275 -116.63022 -2.8986177)
(51.665499 -121.86076 0.35180669)
(28.319157 -124.29791 3.2964089)
(10.324364 -123.88371 5.9942209)
(-1.4795038 -120.48711 8.57972)
(-6.834411 -114.20656 11.012471)
(-5.6677763 -105.29054 13.449057)
(1.7822261 -94.034188 15.971725)
(14.923829 -80.894971 18.642658)
(32.922166 -66.180396 21.415578)
(54.833869 -50.372087 24.48229)
(79.416306 -34.042133 27.685072)
(105.53687 -17.586716 31.235653)
(131.93316 -1.2485227 34.79497)
(157.6677 14.502375 38.50391)
(181.83721 29.765551 42.087042)
(203.85448 44.425799 45.599569)
(223.41106 58.605554 48.820777)
(240.50796 72.611904 51.661436)
(255.42622 86.784694 54.002989)
(268.72719 101.57718 55.757826)
(281.15698 117.46911 56.885208)
(293.6338 134.94478 57.340883)
(307.13113 154.43757 57.162043)
(322.63339 176.3137 56.372732)
(341.0549 200.80522 55.068233)
(363.17636 228.03076 53.327243)
(389.60168 257.94648 51.261676)
(420.71653 290.37083 48.968751)
(456.67324 324.98267 46.549595)
(497.37989 361.35555 44.060328)
(542.52238 398.96345 41.573799)
(591.57174 437.24561 39.07207)
(643.86689 475.5941 36.603493)
(698.61112 513.44087 34.10935)
(754.78252 550.21008 31.428255)
(812.02648 585.68928 28.85595)
(867.57904 618.09482 25.578314)
(928.17911 652.2876 22.239019)
(983.13059 681.74103 19.030625)
(1035.8033 708.52635 15.02379)
(1086.011 733.18797 10.521753)
(1133.5261 755.6171 5.5645108)
(1178.2903 776.07147 0.14993298)
(1220.3684 794.78515 -5.7133913)
(1259.8954 812.06998 -11.957087)
(1297.1509 828.26773 -18.551974)
(1332.4108 843.66596 -25.316024)
(1366.0141 858.60368 -32.201424)
(1398.2844 873.25938 -39.023514)
(1429.5575 887.92923 -45.696653)
(1460.0913 902.67455 -52.041544)
(1490.1322 917.69602 -58.037668)
(1519.9462 932.92348 -63.411993)
(1549.7261 948.43479 -68.393906)
(1570.8152 959.05731 -72.071681)
(1599.5435 974.57954 -75.622689)
(1629.3492 990.64413 -78.491462)
(1659.1214 1006.6321 -80.882892)
(1689.0156 1022.5442 -82.732344)
(1719.0261 1038.2961 -84.319316)
(1748.7869 1053.6722 -85.480032)
(1778.9188 1069.0358 -86.828489)
(1808.9465 1083.9115 -87.837862)
(1838.3851 1098.9434 -89.489104)
(1871.8269 1115.6049 -91.072866)
(0.98048964 3.4708966 5.5983901)
(7.1336118 3.1007211 5.6725347)
(16.159907 3.9853936 4.8349039)
(28.011801 4.9613755 2.7803198)
(42.821209 6.5536415 -0.24020131)
(60.270732 8.4974699 -3.726449)
(80.336587 10.388522 -7.3636442)
(102.99519 12.902641 -11.510518)
(127.54799 15.01947 -15.094611)
(153.84158 17.365588 -18.954259)
(181.12786 19.329256 -22.182071)
(208.85771 21.099201 -25.273468)
(235.9883 22.214223 -27.692533)
(261.98009 22.740561 -29.758136)
(285.6225 22.344339 -31.154007)
(306.22567 20.95551 -32.034182)
(322.68829 18.250899 -32.270902)
(334.52328 14.407302 -32.029194)
(340.72382 8.8999895 -31.167996)
(341.0507 2.1461854 -29.898286)
(335.0998 -6.2952465 -28.175006)
(322.92833 -15.868263 -26.16318)
(304.69253 -26.907437 -23.844947)
(281.04592 -38.663067 -21.438972)
(252.68694 -51.2605 -18.884744)
(220.73386 -63.920191 -16.389693)
(186.39879 -76.54066 -13.892074)
(151.15032 -88.291425 -11.554836)
(116.35361 -98.995158 -9.3175258)
(83.625939 -107.89768 -7.2042662)
(54.251547 -114.76634 -5.1767376)
(29.522124 -119.12433 -3.2102826)
(10.46585 -120.79073 -1.1639412)
(-2.229639 -119.5924 0.93843689)
(-8.1354271 -115.6079 3.2851536)
(-7.2512593 -108.85227 5.8351974)
(0.44250364 -99.62951 8.6905378)
(13.965327 -88.212196 11.881571)
(32.443195 -75.182851 15.390564)
(54.881974 -60.906012 19.309289)
(80.154645 -45.892735 23.420489)
(106.83466 -30.526153 27.6863)
(133.80221 -15.271096 32.039231)
(159.94677 -0.35594942 36.262566)
(184.4172 14.061521 40.210305)
(206.57621 27.929794 43.805034)
(226.14978 41.303874 46.861003)
(243.16472 54.438767 49.292245)
(257.94511 67.654576 50.997431)
(271.09118 81.36576 51.956579)
(283.40698 96.039408 52.149527)
(295.84116 112.14427 51.629724)
(309.40282 130.1178 50.473665)
(325.09117 150.3213 48.791437)
(343.81669 173.009 46.722641)
(366.34033 198.31149 44.400203)
(393.23214 226.2029 41.972644)
(424.82295 256.53109 39.557833)
(461.20893 288.99661 37.251213)
(502.23379 323.19327 35.119777)
(547.52163 358.63374 33.182536)
(596.50947 394.75219 31.427168)
(648.47981 431.00909 29.827068)
(702.54461 466.79329 28.222552)
(758.03679 501.70329 26.668854)
(813.7506 535.05823 24.860893)
(869.29328 566.79999 22.846303)
(923.30492 596.55085 20.569382)
(976.14675 624.20143 17.790369)
(1026.558 649.38044 14.202003)
(1074.3258 672.42308 10.228782)
(1119.6245 693.53505 5.634737)
(1162.3063 712.91073 0.50372339)
(1202.485 730.77667 -5.1842493)
(1240.191 747.341 -11.288968)
(1275.7963 763.0218 -17.70391)
(1309.6344 778.04341 -24.308556)
(1342.0534 792.7568 -31.000956)
(1373.3752 807.33078 -37.583684)
(1403.9496 822.05272 -44.004121)
(1434.0204 836.95321 -50.070034)
(1463.9209 852.27123 -55.717099)
(1493.7479 867.87729 -60.854727)