/*--------------------------------*- C++ -*----------------------------------*\
  =========                 |
  \\      /  F ield         | OpenFOAM: The Open Source CFD Toolbox
   \\    /   O peration     | Website:  https://openfoam.org
    \\  /    A nd           | Version:  6
     \\/     M anipulation  |
\*---------------------------------------------------------------------------*/
FoamFile
{
    version     2.0;
    format      ascii;
    class       pointScalarField;
    location    "0.52";
    object      E;
}
// * * * * * * * * * * * * * * * * * * * * * * * * * * * * * * * * * * * * * //

dimensions      [1 -1 -2 0 0 0 0];

internalField   nonuniform List<scalar> 
625
(
32645.199
32753.375
4208.9247
-1280.6736
29576.417
31006.518
-1718.1634
2726.9781
6628.1385
4569.3035
20386.322
-1678.8027
-4654.3019
5155.3475
40113.779
34441.406
33007.821
31103.442
28390.392
26560.615
23939.237
20646.979
17301.24
12544.608
8110.2643
2681.5482
-2119.1728
-7177.8155
-11397.181
-15228.775
-17887.111
-19828.293
-19243.024
-18312.903
-15084.444
-11392.457
-3681.9388
41787.444
28403.577
29383.182
22997.798
16987.374
12877.324
7418.2509
5009.4856
2529.2658
1305.4384
1880.8582
2765.2494
5298.2134
8161.6908
11828.097
15334.705
18919.964
21421.656
23487.593
23111.728
21528.611
17693.818
9378.3587
6715.0638
3268.9172
18706.713
57142.91
59841.82
35798.996
36041.068
29209.262
16300.988
16558.931
10496.264
8730.0427
7246.4
6230.9819
6954.5342
7163.742
8500.2695
9934.2774
11368.062
13370.608
15037.029
16229.723
16389.749
15042.535
11836.074
7979.7466
3564.4371
-4302.4237
-1927.238
-2132.1615
-5923.4895
-8834.1123
-11410.779
-12976.527
-13390.269
-13364.899
-12066.101
-10101.47
-7028.7223
-3457.2603
1030.1797
6095.9171
11145.43
13561.805
17705.094
23030.899
24347.382
29495.288
29969.342
34204.608
38826.466
44127.838
22989.97
24699.259
24713.802
24992.953
22777.525
23112.451
-1854.5275
-1326.6099
-1884.9413
3544.1425
3921.0162
3520.2281
15480.623
12265.92
13202.13
10842.356
8886.7559
6710.4964
4336.6672
2012.4204
1035.0796
66.233373
437.35397
1195.2071
2905.5648
5084.3447
7754.3517
10393.465
13080.522
15061.799
16443.357
16053.775
15650.109
12053.37
6999.926
6144.0297
4196.8571
4425.7348
2495.8503
2682.3569
2970.7348
2378.9981
3700.2249
3668.6836
4286.3056
5004.7264
5440.3639
6201.4356
6882.6472
7591.3448
8184.7199
8572.0566
8092.4347
7672.5292
5118.4974
3807.8813
445.93549
-867.25384
16538.279
15534.267
15659.093
14541.399
14624.614
14077.555
12921.56
11675.253
9717.3844
7996.7019
5271.2089
2581.2962
-565.2171
-3830.4113
-7313.1482
-10687.257
-14142.117
-16695.152
-19228.897
-19166.528
-17814.808
-14042.145
-5399.2594
3946.9675
4517.2404
4559.666
2743.2649
2289.3315
4144.0181
10457.967
10948.433
11740.019
48166.659
48918.673
51411.381
52872.754
49716.275
48617.951
34562.353
31292.416
33866.331
30011.459
32262.704
30883.104
24274.212
21203.904
23470.174
17666.647
17823.333
16941.006
14004.547
12298.122
14989.012
10219.071
8009.9451
9008.6703
7502.9486
6665.2819
6919.515
6883
4514.5539
5476.5315
5977.7441
4552.4172
4958.9816
7137.2712
4981.4057
5899.7175
8412.7768
6239.2603
7337.2523
10948.069
8164.0868
9503.3232
13499.199
10432.142
12221.772
16475.03
13256.926
15009.144
19222.152
15998.489
17768.598
21461.79
18572.925
20246.812
22740.452
20402.577
21680.509
22468.98
20618.098
21636.019
20153.558
19056.824
19781.841
15903.02
15548.709
16073.754
9437.6509
8830.0362
9630.5074
-2203.1042
-1758.3134
-1876.2389
-4271.2386
-4153.133
-5141.1558
5084.8961
5266.7195
4773.5093
40144.248
34931.011
35675.624
39468.777
35444.471
36978.471
36267.286
35022.384
34796.696
32551.371
29354.954
30222.993
30518.895
29665.16
29604.897
27802.665
24613.594
25396.981
24606.649
23821.107
23752.882
22085.608
19837.068
20221.031
17643.577
17069.755
16736.501
12628.639
12261.114
12305.813
8046.0675
7960.4918
7878.7741
2880.0876
2678.0668
3176.0457
-2438.5221
-1918.6999
-1442.7249
-6863.9093
-6555.0521
-5699.8327
-10910.356
-10526.794
-9262.2676
-13910.665
-13723.411
-12156.099
-16095.423
-16023.928
-14104.753
-17037.233
-17176.947
-15375.854
-16970.75
-17559.855
-15258.582
-15497.938
-16702.741
-14501.875
-12098.138
-13439.185
-11928.634
-9423.7222
-9638.6484
-9155.5998
-2777.9662
-2946.0343
-2820.7202
24857.724
22365.629
19835.279
16575.457
16589.939
10594.057
10109.891
7126.1946
5465.4464
4099.216
5080.6086
5047.0638
6076.6771
7389.0849
8983.6524
10605.954
12114.712
13297.823
13686.592
13450.585
12037.811
9205.7886
8089.0925
2921.7979
12092.547
3866.7345
9288.4443
8986.9551
9304.3421
11557.581
10992.706
11543.331
10022.323
8801.5883
7109.4515
5228.104
3750.1611
1965.3184
27.693417
-2038.8696
-4251.8875
-6275.4927
-7882.6474
-8676.9125
-9078.637
-4547.6104
23459.893
12419.111
16655.08
14620.34
13503.385
11584.253
9967.3317
8470.3846
5602.6457
3726.0391
1165.72
-1734.0902
-4711.2111
-7778.0111
-10942.875
-13885.047
-16504.741
-18599.314
-19539.329
-18935.331
-16511.176
-11568.924
-4627.5188
20205.834
18364.521
18411.008
18726.818
18453.899
17647.834
17234.561
17819.763
17303.018
14355.657
13668.234
12748.415
12217.638
12770.404
12712.553
9393.589
9161.3548
8380.5902
6847.1332
7011.3651
6375.902
4495.3466
4673.4937
4365.0906
3250.0179
3136.6874
2668.8071
2480.4952
2429.7914
2081.8426
2815.6391
2433.2761
2109.3843
3542.5571
3298.3918
3203.5992
5255.5456
4777.5007
4690.8765
7322.9172
6765.871
6795.3604
9791.2231
9192.2739
9281.1777
12313.765
11819.324
11834.254
14710.997
14299.344
14248.126
16528.72
16311.913
15979.706
17346.042
17028.043
17149.666
16027.109
17919.167
16597.244
15033.376
15912.79
14936.756
11828.423
11600.165
11547.185
7540.474
7623.3116
7798.8717
4605.5664
4167.9692
3319.9998
8134.8358
11169.274
10921.553
4384.5577
2550.2959
2469.8501
4905.8409
6459.531
6579.7567
5582.3807
4855.2473
5251.0177
6065.1516
5442.2557
5574.4671
6242.5303
6331.2488
6796.8151
7320.5701
6498.2638
6688.6343
6920.2732
6808.4774
7283.19
7182.2528
6662.4628
6946.466
6701.9139
6190.5329
6295.2249
6269.1492
5869.3196
5827.5496
5994.3468
5553.3829
4980.5199
5502.5945
5124.4828
4412.6342
5095.9833
4785.5447
3764.523
4415.037
4029.07
2956.6712
3495.8674
3094.8666
1889.0214
2196.6579
1483.7017
576.04714
873.32842
74.516805
-813.65158
-1204.1639
-1402.9679
-2571.964
-3443.634
-1181.6974
-3067.7473
-4091.6718
-4946.3913
-5223.2908
-3304.1374
-3810.2598
-4003.7087
17938.692
18979.755
21200.415
14804.641
15473.881
18438.088
15087.105
18950.16
19229.398
14837.246
14982.505
16015.454
13301.83
14712.95
15473.837
12009.258
12857.608
13326.177
11405.308
11014.618
11286.749
8957.288
9330.6267
10207.335
7652.6025
7650.7905
8088.8761
5409.7839
5463.4925
5706.2999
3019.8636
3033.6327
3491.3259
605.09809
399.56081
839.24496
-2346.468
-2587.1709
-1928.8941
-5333.5565
-5668.639
-4939.9738
-8436.656
-8864.7673
-7964.7217
-11581.774
-12025.398
-11089.687
-14423.451
-15025.282
-13931.763
-16937.209
-17428.379
-16302.857
-18410.335
-18829.745
-17847.432
-18188.137
-18942.257
-17954.35
-16901.361
-16872.743
-16348.25
-12521.813
-12395.724
-11979.696
-4974.0197
-5182.1993
-4813.7063
)
;

boundaryField
{
    free
    {
        type            zeroGradient;
    }
    fixed
    {
        type            zeroGradient;
    }
    freeTop
    {
        type            zeroGradient;
    }
}


// ************************************************************************* //
