/*--------------------------------*- C++ -*----------------------------------*\
  =========                 |
  \\      /  F ield         | OpenFOAM: The Open Source CFD Toolbox
   \\    /   O peration     | Website:  https://openfoam.org
    \\  /    A nd           | Version:  6
     \\/     M anipulation  |
\*---------------------------------------------------------------------------*/
FoamFile
{
    version     2.0;
    format      ascii;
    class       pointVectorField;
    location    "0.19";
    object      u;
}
// * * * * * * * * * * * * * * * * * * * * * * * * * * * * * * * * * * * * * //

dimensions      [0 1 0 0 0 0 0];

internalField   nonuniform List<vector> 
625
(
(0 0 0)
(0 0 0)
(0.40954078 0.053701904 0.0076084857)
(0.39817194 -0.09701146 0.00039809779)
(0 0 0)
(0 0 0)
(0.40519773 -0.10028694 -0.00047969387)
(0.41652855 0.050018982 0.0074632114)
(0 0 0)
(0 0 0)
(0 0 0)
(0.40627232 0.015081953 0.0048881544)
(0.40290901 -0.021587602 0.003796148)
(0.40056195 -0.058253537 0.0019773179)
(-0.0010050731 -0.00083662419 -0.00020568874)
(-0.0026237086 -0.00070824441 0.00035829184)
(-0.0039162711 -7.8849723e-05 0.00091254687)
(-0.0046394571 0.001165548 0.0013188185)
(-0.0045461261 0.003009086 0.0017193018)
(-0.003395932 0.005450678 0.0020072521)
(-0.00074369354 0.0085489265 0.0023904578)
(0.003545613 0.012120225 0.002745783)
(0.0098672881 0.016266426 0.0031839698)
(0.018408069 0.020825045 0.0035374076)
(0.029487816 0.025764095 0.0040859383)
(0.043241658 0.030864086 0.0046344517)
(0.059898109 0.036034498 0.0052134289)
(0.079534416 0.041078765 0.0057984871)
(0.10221013 0.045797619 0.0063463598)
(0.12785797 0.049999746 0.0068472671)
(0.1563645 0.053635453 0.0071606257)
(0.1874779 0.056314306 0.0075293357)
(0.2209991 0.058295588 0.00755283)
(0.25624946 0.05928033 0.0076687111)
(0.29333038 0.059254523 0.0077792002)
(0.3313341 0.05860723 0.0077000864)
(0.36974819 0.056667081 0.0081273421)
(-0.00062320617 0.00035949678 0.00054747984)
(-0.0025844888 0.00018114156 -0.00090867594)
(-0.0038786689 -0.0004443749 -0.0015508979)
(-0.0045716275 -0.0018436325 -0.0025325281)
(-0.0046078038 -0.0037341694 -0.0034564794)
(-0.0035642699 -0.0060422418 -0.0043485581)
(-0.0010845201 -0.0090506639 -0.0052494598)
(0.0029365457 -0.012437964 -0.0060988176)
(0.0089742756 -0.01640429 -0.0069210445)
(0.017081117 -0.020763101 -0.0076513644)
(0.027615764 -0.025617465 -0.0082398314)
(0.040788578 -0.030879627 -0.0086775352)
(0.056694502 -0.036497759 -0.008932867)
(0.075506832 -0.042438322 -0.0089640326)
(0.097249066 -0.048609211 -0.0087807855)
(0.12188604 -0.054924079 -0.0083920851)
(0.1493295 -0.061274735 -0.0077730072)
(0.17939764 -0.06754172 -0.0070147633)
(0.21184387 -0.073614014 -0.0060405976)
(0.24637926 -0.079351813 -0.0050087625)
(0.28267452 -0.084660894 -0.0038007895)
(0.32023521 -0.089428632 -0.0025637083)
(0.35861954 -0.09350977 -0.0013594083)
(0 0 0)
(0 0 0)
(0 0 0)
(-0.00070255315 0.000488522 -0.00051437473)
(-0.0022148639 0.0012366546 -0.0001978747)
(-0.0031329157 -0.0002185841 8.9036623e-05)
(-0.0035703508 -0.00097015095 0.00025464633)
(-0.0033694296 -0.0028895472 0.00021422482)
(-0.0018222402 -0.0053424109 0.00039369172)
(0.00075903869 -0.0082714682 0.00043058221)
(0.005409213 -0.011953174 0.00044830731)
(0.011727934 -0.016137067 0.00058165545)
(0.020342093 -0.020824117 0.00061679319)
(0.031340317 -0.026074872 0.00071048229)
(0.044958281 -0.031766366 0.00079560818)
(0.061330781 -0.037840044 0.00087065036)
(0.080587444 -0.044229153 0.0009205768)
(0.10273188 -0.05081038 0.00094578197)
(0.12774597 -0.057490687 0.00093051738)
(0.15551729 -0.064135102 0.0008663971)
(0.18585383 -0.070633726 0.00077407344)
(0.21850176 -0.07686148 0.00063023075)
(0.25320381 -0.08270003 0.00047414571)
(0.28948365 -0.08807037 0.00031145119)
(0.32720506 -0.092857161 0.0001542387)
(0.36553645 -0.096972044 0.00010290395)
(0.40775677 -0.061157901 0.0015412231)
(0.40947722 -0.025181119 0.0036927003)
(0.41328429 0.011141002 0.0061764836)
(0.37699493 0.053008539 0.0058797329)
(0.3380364 0.054740451 0.0047252058)
(0.29987804 0.055713407 0.0034792741)
(0.26275415 0.055793499 0.0021996587)
(0.22711798 0.054930662 0.00095628065)
(0.19339623 0.053185694 -0.00026676246)
(0.16191946 0.050655132 -0.0013920017)
(0.13303227 0.047384294 -0.0024212109)
(0.1069244 0.043569039 -0.0032848562)
(0.083792558 0.039300889 -0.0039785725)
(0.063678673 0.03476299 -0.0044488996)
(0.046583548 0.0301126 -0.0047265488)
(0.032402228 0.025470202 -0.0047845705)
(0.020966898 0.021028395 -0.0046745842)
(0.012062297 0.016795498 -0.0043059786)
(0.0055658261 0.012851536 -0.0039876467)
(0.00096776528 0.0095001814 -0.0033862316)
(-0.0018988489 0.006562238 -0.0028769131)
(-0.0032308754 0.0039760193 -0.0021507105)
(-0.0035229866 0.0022054408 -0.0015441281)
(-0.0029251122 0.00061369546 -0.00086631735)
(-0.0019357066 -1.7937146e-05 -0.00031517296)
(-0.00069359855 -0.00064221614 0.00031530773)
(0 0 0)
(0 0 0)
(0 0 0)
(0 0 0)
(0 0 0)
(0 0 0)
(0.39979076 -0.098418179 -9.1220651e-05)
(0.40176373 -0.099225645 8.7496911e-05)
(0.40329451 -0.10022365 -0.00019697565)
(0.41165511 0.053428938 0.0076328012)
(0.41348243 0.052300077 0.0074844972)
(0.41515968 0.051579717 0.0074310594)
(-0.0012723925 -0.0081633333 -0.00024922099)
(-0.0036690891 -0.015611073 0.00036429163)
(-0.0053201749 -0.021874253 0.0003562063)
(-0.0066637732 -0.026250076 0.00047727363)
(-0.0070780582 -0.028498554 0.00050945297)
(-0.0063340057 -0.028254626 0.00061331632)
(-0.0040633991 -0.025627675 0.000674274)
(-2.3412205e-05 -0.020530264 0.00077407517)
(0.0061653436 -0.013388473 0.00092287634)
(0.014935723 -0.004487536 0.0010995587)
(0.026330418 0.0056001706 0.0013654172)
(0.04070427 0.016236473 0.0016486011)
(0.058161578 0.026781489 0.0019970277)
(0.078754689 0.036541651 0.0023782717)
(0.10242232 0.044853404 0.0027810731)
(0.1289712 0.051269763 0.003160966)
(0.1582041 0.055225297 0.003561667)
(0.18968673 0.05660026 0.0039391602)
(0.22316605 0.055309847 0.0042083978)
(0.25810923 0.051211908 0.0046525278)
(0.29434589 0.04476542 0.004766022)
(0.33117317 0.036451478 0.0051018977)
(0.36866783 0.025929695 0.0052889211)
(-0.0010424334 -1.2548978e-05 2.4376823e-05)
(-0.0029025361 -6.6358347e-05 -0.00017891523)
(-0.0043206764 -0.00014634842 -0.00045386262)
(-0.0053279834 -0.00017912219 -0.00067431446)
(-0.0055521552 -0.00012911619 -0.00092356209)
(-0.0046808658 -6.3764724e-05 -0.0012276649)
(-0.0024054321 2.2940097e-05 -0.0015078281)
(0.0015805458 0.00011864696 -0.0017351978)
(0.0075590601 0.00017001461 -0.0019382945)
(0.015758479 0.00022443499 -0.0020623466)
(0.02645191 0.00018360491 -0.0021065592)
(0.039861369 4.2028752e-05 -0.002043992)
(0.056124099 -0.00025612295 -0.0018626577)
(0.075373136 -0.00076540003 -0.0015816426)
(0.097612042 -0.0015135829 -0.0012075597)
(0.12285612 -0.0025654146 -0.00073485527)
(0.15093616 -0.0039648779 -0.00019969763)
(0.18167195 -0.0056416318 0.00033655535)
(0.2148719 -0.0077515623 0.00096728572)
(0.24996857 -0.010106946 0.0015031187)
(0.28694811 -0.012704961 0.0020726514)
(0.32504783 -0.015651771 0.0027507671)
(0.36430925 -0.018567464 0.0032643815)
(-0.00035005141 0.0077203971 -9.4535105e-05)
(-0.0021462412 0.014904775 -0.00054983551)
(-0.0030326912 0.02096164 -0.0010336041)
(-0.0038691205 0.025309389 -0.0015877127)
(-0.0037430784 0.027542421 -0.0021957654)
(-0.0026634224 0.027447733 -0.0028155254)
(-0.00024678567 0.025038799 -0.0033372863)
(0.0036820408 0.020274658 -0.0038452278)
(0.0093428478 0.013485819 -0.0042869467)
(0.017054152 0.004972877 -0.0046354981)
(0.026978827 -0.0048345384 -0.0048876707)
(0.039357758 -0.015394381 -0.0050109932)
(0.054397771 -0.026207154 -0.0050232054)
(0.072276356 -0.036686532 -0.0049042399)
(0.093147312 -0.046370609 -0.0046408642)
(0.11710392 -0.054781487 -0.004257895)
(0.14409999 -0.061567276 -0.0037698104)
(0.1741876 -0.06651188 -0.0031386193)
(0.20698852 -0.069414574 -0.0024898406)
(0.24246655 -0.070360397 -0.0016600497)
(0.2800568 -0.06945571 -0.00090587543)
(0.3193434 -0.066836384 -2.2188041e-05)
(0.35981674 -0.062898117 0.00090498827)
(0 0 0)
(0 0 0)
(0 0 0)
(0 0 0)
(0 0 0)
(0 0 0)
(0 0 0)
(0 0 0)
(0 0 0)
(-0.00084198112 0.00027552597 0.00019177925)
(-0.00086322486 0.00039096787 -1.3171021e-05)
(-0.00086311487 0.00024364099 -0.00017884458)
(-0.002511177 0.0011791428 -0.0007591598)
(-0.0021819413 0.0010904448 -0.00044421172)
(-0.0022423006 0.0010475705 -0.00034715543)
(-0.0032153791 -0.00017865933 -0.0011524282)
(-0.0030575343 -0.00037933843 -0.00073630502)
(-0.0029885413 8.0315574e-05 -0.00034162963)
(-0.0038590451 -0.0012969607 -0.0018702839)
(-0.0034306204 -0.001070271 -0.0012238307)
(-0.0032638024 -0.001119256 -0.00042546992)
(-0.0035922297 -0.0031208839 -0.0025214692)
(-0.0030189167 -0.0031543954 -0.001601963)
(-0.0029402001 -0.0028924367 -0.0006110903)
(-0.002201895 -0.0055776811 -0.0031940797)
(-0.0015012695 -0.0055330214 -0.0020083282)
(-0.0013814664 -0.0054072684 -0.00073807534)
(0.00051087679 -0.0085586474 -0.0038158)
(0.001359345 -0.0085802078 -0.0024950493)
(0.0015547482 -0.0083800658 -0.00083204155)
(0.004962205 -0.012119278 -0.0044592516)
(0.0058012878 -0.011966955 -0.0028852772)
(0.00611134 -0.011963143 -0.0011294576)
(0.01118268 -0.016033826 -0.0050369717)
(0.012220355 -0.016170942 -0.0033442238)
(0.012635798 -0.016174048 -0.0011907655)
(0.019608937 -0.020621432 -0.0055763623)
(0.020822666 -0.020771676 -0.0036268308)
(0.021268165 -0.02083467 -0.0013387744)
(0.030443439 -0.025608715 -0.0059482347)
(0.03174867 -0.025852023 -0.0039065314)
(0.032296125 -0.026010874 -0.0014013649)
(0.043820247 -0.031067288 -0.006251533)
(0.045267083 -0.031396767 -0.0040671196)
(0.045916887 -0.031660129 -0.0014291506)
(0.059925914 -0.036892302 -0.0063818144)
(0.0615063 -0.03731086 -0.0041213922)
(0.062237677 -0.037677924 -0.0014155235)
(0.078871547 -0.04304521 -0.0063704914)
(0.080560019 -0.043551676 -0.0040828797)
(0.081381445 -0.044018961 -0.0013715341)
(0.10067334 -0.049420081 -0.0061987925)
(0.10245842 -0.049995067 -0.0039312019)
(0.10338 -0.050551323 -0.0012907154)
(0.12531581 -0.055912018 -0.0058786932)
(0.12719081 -0.05654945 -0.0037000607)
(0.12818983 -0.057198144 -0.0011888994)
(0.15269661 -0.062407307 -0.0054250816)
(0.15460807 -0.063103231 -0.0033814284)
(0.15572313 -0.063809533 -0.0010846035)
(0.18263833 -0.068799522 -0.0048556458)
(0.18461537 -0.069515441 -0.0030153902)
(0.18580462 -0.070277306 -0.00095305305)
(0.21492142 -0.074925321 -0.0041855666)
(0.21686958 -0.075668864 -0.0025696685)
(0.21815598 -0.076484842 -0.00083619184)
(0.24922602 -0.08070023 -0.0034337557)
(0.25118089 -0.081470048 -0.002119083)
(0.25256876 -0.08230094 -0.00070131738)
(0.28521225 -0.086038244 -0.0026148204)
(0.28710322 -0.086785062 -0.0016061299)
(0.28858316 -0.087639456 -0.00055051254)
(0.32253374 -0.090757897 -0.001756495)
(0.3244217 -0.091532995 -0.0010629874)
(0.32600539 -0.092465256 -0.0004057145)
(0.36074753 -0.094959438 -0.00091201559)
(0.36246568 -0.095689347 -0.00061686853)
(0.36422108 -0.096466981 -0.00025122594)
(0.40850488 0.01464322 0.0055714127)
(0.41034483 0.013738467 0.0056413735)
(0.41191086 0.012784067 0.0058546273)
(0.40475889 -0.022371639 0.0039805582)
(0.40666807 -0.023436048 0.0038206009)
(0.40807421 -0.024213453 0.0037396659)
(0.40243143 -0.059339709 0.0017447917)
(0.40439197 -0.060166569 0.0018302302)
(0.40591116 -0.060875912 0.0017201878)
(-0.0012402838 -0.001001873 -4.9689063e-05)
(-0.00098812393 -0.00083715693 0.00011219449)
(-0.0010391939 -0.0007255086 0.00020495861)
(-0.0024095432 -0.00082883528 0.00033282284)
(-0.0021499942 -0.00055448082 0.00021581961)
(-0.0019976589 -0.00039789106 -4.484489e-05)
(-0.0033415525 -0.00023873148 0.00051419102)
(-0.0030085251 2.9978547e-05 4.0534664e-05)
(-0.0027985464 0.00028476826 -0.00039578166)
(-0.0037663534 0.001081265 0.0006607186)
(-0.0034096883 0.0014878568 7.5184543e-05)
(-0.0031416487 0.0016880191 -0.00080887676)
(-0.0035164443 0.0029926648 0.00078549269)
(-0.0029404816 0.0032751505 -0.00027485586)
(-0.002745014 0.0035513101 -0.0012511433)
(-0.0019185355 0.0054762755 0.00077659918)
(-0.0014580652 0.0057907688 -0.00022725068)
(-0.0011324771 0.006095006 -0.0018024939)
(0.00087726147 0.0085016083 0.00094052953)
(0.0015179008 0.0087271663 -0.00040647164)
(0.0018511644 0.0090804769 -0.0020588463)
(0.0054834437 0.011990493 0.0010405213)
(0.0061672687 0.0124006 -0.00045740476)
(0.0064693522 0.012675264 -0.0024419081)
(0.011912453 0.016257833 0.0013292914)
(0.012833642 0.016231929 -0.00054867352)
(0.013260135 0.016548096 -0.0026840703)
(0.020891583 0.020572584 0.0014127335)
(0.021703684 0.02072585 -0.00037573033)
(0.02220359 0.020880867 -0.0028037969)
(0.032099815 0.025351521 0.0018557582)
(0.03309393 0.025408741 -0.00027062212)
(0.033667759 0.025540562 -0.0028056926)
(0.046094004 0.03034532 0.0022349167)
(0.047227913 0.030302646 -5.7746871e-07)
(0.047869412 0.03033292 -0.0026329204)
(0.062931213 0.03538175 0.0027154108)
(0.064187024 0.035216518 0.00040231463)
(0.064919312 0.035152592 -0.0022947153)
(0.082719687 0.040301537 0.0032452079)
(0.084106299 0.040023335 0.00090414546)
(0.0849305 0.039850395 -0.0018060026)
(0.10548581 0.044938204 0.0038110679)
(0.10698468 0.044536716 0.0014875574)
(0.10791932 0.044260039 -0.0011394541)
(0.13115696 0.049106831 0.0043487118)
(0.13277991 0.048596882 0.0021589786)
(0.13379844 0.048208354 -0.00037329816)
(0.15961984 0.052699918 0.0049118611)
(0.16131462 0.052042349 0.0028458295)
(0.16246105 0.051547951 0.00052092128)
(0.19064366 0.055418208 0.0053841337)
(0.19241999 0.0547253 0.0035395733)
(0.19361626 0.054176497 0.0014437374)
(0.22391112 0.057463251 0.0057978527)
(0.22570945 0.056638252 0.0042827423)
(0.22704785 0.055965691 0.0024295526)
(0.25906717 0.058444623 0.0063505718)
(0.2609657 0.057612314 0.004847628)
(0.26236313 0.056859295 0.0034126373)
(0.29591782 0.058535692 0.0065889368)
(0.29778678 0.057582942 0.005526123)
(0.29919348 0.05683466 0.0044130425)
(0.33370313 0.057623683 0.0067762686)
(0.33543006 0.056953547 0.0061843125)
(0.33702145 0.056005205 0.0053769068)
(0.372412 0.056273148 0.0075084766)
(0.37410228 0.055284404 0.0068903368)
(0.37582245 0.054245984 0.0065623579)
(-0.00088079405 -0.0079670722 1.8591666e-05)
(-0.0030209178 -0.01498737 -0.00042611436)
(-0.0043614284 -0.020934875 -0.0007251821)
(-0.0055971344 -0.025249998 -0.0010824606)
(-0.0056904204 -0.027265008 -0.001609716)
(-0.0047622577 -0.027194526 -0.0020008272)
(-0.0022764293 -0.024681801 -0.0024682246)
(0.0021071777 -0.019759296 -0.0028426526)
(0.0086658094 -0.01298897 -0.0031154503)
(0.017669319 -0.0044070123 -0.0033093584)
(0.029489042 0.0052214413 -0.0033573254)
(0.044275558 0.015390053 -0.003219769)
(0.062163504 0.025455292 -0.0029324259)
(0.083185646 0.034754924 -0.0024872485)
(0.10726925 0.042663748 -0.0018886813)
(0.13422669 0.048670923 -0.0011976635)
(0.16378399 0.052369147 -0.0004114283)
(0.19561485 0.05347173 0.00039558298)
(0.22929857 0.051899718 0.0012601051)
(0.2645269 0.047726774 0.0020903762)
(0.30083946 0.041132818 0.0029908188)
(0.33782503 0.032556972 0.003852316)
(0.37554656 0.022154262 0.0049605668)
(-0.00087673478 -8.0058659e-05 -0.00010807184)
(-0.0025107836 0.00034074357 -0.0001463535)
(-0.0035874739 0.00028014418 -0.00035688522)
(-0.0044656255 0.00056185189 -0.00068976608)
(-0.0043189602 0.00048460661 -0.00084627625)
(-0.0032558879 0.00057343429 -0.0011584033)
(-0.0006720028 0.00060242962 -0.0013651224)
(0.0036362497 0.00053168403 -0.0015655515)
(0.0099219748 0.00036301273 -0.0017331382)
(0.018543543 0.00016656174 -0.0018313652)
(0.0296856 -0.00022051516 -0.0018715357)
(0.043571273 -0.00075510308 -0.0018326709)
(0.060351399 -0.0014523402 -0.0017146688)
(0.08011781 -0.0023771594 -0.0015027998)
(0.10288499 -0.0035294606 -0.0012123913)
(0.12858866 -0.0049479403 -0.00085489926)
(0.15710955 -0.0066288358 -0.00041224026)
(0.18819764 -0.00862942 4.8058049e-05)
(0.2216262 -0.010861169 0.00060632786)
(0.25701092 -0.013393834 0.0011318499)
(0.29404531 -0.016110669 0.0017438808)
(0.33217028 -0.019140342 0.0023164075)
(0.37177998 -0.02208214 0.0030022045)
(-8.4112942e-05 0.0081337711 -0.00022247359)
(-0.0017519185 0.015374252 -0.00019800847)
(-0.0022562286 0.022163524 -0.00038105842)
(-0.0027767172 0.026139284 -0.00016513497)
(-0.0023368952 0.028710449 -0.0003024441)
(-0.00097724835 0.028636865 -0.00037786331)
(0.0017933358 0.026056338 -0.00040197216)
(0.0060330156 0.021218056 -0.00051543056)
(0.012140164 0.01421112 -0.0005489158)
(0.020252445 0.0053793215 -0.00055696492)
(0.03059439 -0.0047500132 -0.00052319817)
(0.043415569 -0.015706236 -0.00043845813)
(0.058891093 -0.026922655 -0.0002868098)
(0.077211834 -0.037832714 -0.00010161878)
(0.098499111 -0.047915462 0.00011924069)
(0.12282841 -0.056699229 0.00036388485)
(0.15021711 -0.063840299 0.00059900307)
(0.18054214 -0.069043605 0.00083238319)
(0.21365211 -0.072213723 0.0010525945)
(0.24924975 -0.073330284 0.0012188847)
(0.28688818 -0.072500344 0.0014258901)
(0.32632733 -0.070045066 0.0014866229)
(0.36663629 -0.066067427 0.0017804037)
(-0.0011940863 -0.0080297856 -6.3355042e-05)
(-0.0010748899 -0.0081100355 -3.1428967e-05)
(-0.0012006577 -0.0079609479 0.00012980045)
(-0.0034345584 -0.015725092 0.00029069124)
(-0.0032381658 -0.015559801 0.00012493513)
(-0.002993891 -0.015566178 -0.00012480628)
(-0.0047881128 -0.021797413 0.00017728035)
(-0.0043506051 -0.021606682 -0.0001542483)
(-0.0042415942 -0.02137624 -0.00048061283)
(-0.0058210832 -0.026214976 8.9259448e-05)
(-0.0054408631 -0.025991445 -0.00033283851)
(-0.0052361926 -0.025846468 -0.00074670081)
(-0.0059322297 -0.028424996 1.5291501e-05)
(-0.0054498484 -0.028123013 -0.00053618891)
(-0.0052217943 -0.02788096 -0.001141343)
(-0.0049336296 -0.028242105 -8.799013e-05)
(-0.0043364329 -0.027936975 -0.00079718233)
(-0.0040543369 -0.027755321 -0.0014915154)
(-0.0023966414 -0.025608416 -0.00016424981)
(-0.001733164 -0.025295907 -0.0010443422)
(-0.0014488724 -0.025133607 -0.0018045625)
(0.0019069434 -0.02059807 -0.00023971099)
(0.0026941915 -0.020373465 -0.0011635597)
(0.0030702161 -0.020299755 -0.0021797444)
(0.0084057432 -0.013583972 -0.00024487563)
(0.0093355664 -0.013304446 -0.0013713298)
(0.0097059229 -0.013235802 -0.0023117718)
(0.017363143 -0.004746285 -0.00020060909)
(0.018384906 -0.0046060621 -0.0013737447)
(0.018821699 -0.0046954753 -0.0024592366)
(0.028993486 0.0052358968 -5.7131544e-05)
(0.030123458 0.0052721105 -0.0012960982)
(0.030660306 0.0051323967 -0.0024705924)
(0.043570617 0.015751197 0.00013629542)
(0.044846517 0.015720983 -0.0011311425)
(0.045450739 0.015425739 -0.0023054012)
(0.06119415 0.026203416 0.00044082645)
(0.062582471 0.026032266 -0.00082428092)
(0.063277227 0.025631634 -0.0020013677)
(0.081901975 0.035857557 0.00081914251)
(0.083403919 0.035586494 -0.00041261591)
(0.084199284 0.035069828 -0.0015687798)
(0.10561845 0.044134222 0.0012577557)
(0.107225 0.04373511 9.0812009e-05)
(0.10812466 0.043118325 -0.0010019907)
(0.13218437 0.050474015 0.0017414821)
(0.13387462 0.049956939 0.00067401421)
(0.13487716 0.049247471 -0.00036484825)
(0.16132362 0.054429722 0.0022594055)
(0.16308247 0.053828829 0.0012695339)
(0.1642065 0.053048782 0.00035859507)
(0.19273054 0.055793288 0.002759897)
(0.19455448 0.055097445 0.0019256132)
(0.19573113 0.054275552 0.0010751234)
(0.22602904 0.054496842 0.0032650625)
(0.22780485 0.053729735 0.0025131623)
(0.22918636 0.052790854 0.0018551409)
(0.26072461 0.05041371 0.0038034528)
(0.26272275 0.049570049 0.0031959683)
(0.26403512 0.048674997 0.0025486225)
(0.29668703 0.043980479 0.0040696401)
(0.29873448 0.043257283 0.003822264)
(0.30006077 0.042279746 0.0033344234)
(0.33344342 0.035599631 0.0046748641)
(0.33521194 0.034838066 0.0044522426)
(0.33673824 0.033716641 0.0040309953)
(0.37074971 0.025455991 0.0051301211)
(0.37245271 0.024442887 0.0049860632)
(0.37411703 0.023484078 0.0049080764)
(-0.0010527886 -7.250393e-05 1.157263e-06)
(-0.00096564401 -7.0277436e-05 8.0189547e-05)
(-0.00098061199 1.5119927e-05 -2.0092707e-05)
(-0.002681128 -1.8665669e-05 -0.00011991825)
(-0.0025263082 0.00011713665 -0.00013425959)
(-0.0022243848 0.00026692907 -0.00015487532)
(-0.003854923 -0.00012279561 -0.00050665448)
(-0.0033622633 -5.9143655e-06 -0.00055726183)
(-0.0034349424 0.00023020962 -0.00045332866)
(-0.0045423633 -5.6754631e-05 -0.00071403395)
(-0.004216575 0.00024171425 -0.00069682544)
(-0.0040030396 0.00052937926 -0.00070009132)
(-0.0046457781 9.4007802e-06 -0.0010742797)
(-0.0039207068 0.00019625764 -0.0010480295)
(-0.0038223756 0.00042199381 -0.0010065394)
(-0.0033924517 4.749113e-05 -0.0014181225)
(-0.0027332576 0.00030727503 -0.0013017318)
(-0.0025899381 0.0005503471 -0.0012899603)
(-0.00091495439 0.00014428956 -0.0017110368)
(-6.9293554e-05 0.0003037402 -0.001553851)
(0.0001296296 0.00049816459 -0.0015676438)
(0.0033384198 0.00015974583 -0.0020175582)
(0.0043257383 0.00032943007 -0.0018110329)
(0.0044795917 0.00052299341 -0.0018076943)
(0.0095358772 0.00022399708 -0.0022216866)
(0.010659009 0.00026926534 -0.001967326)
(0.010875637 0.00033311689 -0.0020086346)
(0.017998895 0.00015657287 -0.0023811484)
(0.019265099 0.00013275586 -0.0020812515)
(0.019485037 0.00015734569 -0.0021073664)
(0.028926605 1.3535389e-05 -0.0024280133)
(0.0303357 -8.2941624e-05 -0.0020786714)
(0.030612113 -0.00018478153 -0.0021602413)
(0.042539684 -0.00023709214 -0.0023718299)
(0.044114706 -0.00048551231 -0.0020073631)
(0.044430722 -0.00066538718 -0.0021062362)
(0.058988675 -0.00066266586 -0.0021863007)
(0.060709805 -0.0010281271 -0.0018057544)
(0.061082669 -0.00130448 -0.0019479135)
(0.078377648 -0.0012979774 -0.0019033451)
(0.080229006 -0.0017896376 -0.0015155038)
(0.080681863 -0.0021566967 -0.0016969286)
(0.10073014 -0.0021604828 -0.0015033065)
(0.10268654 -0.0027862552 -0.0011283713)
(0.10324238 -0.003240645 -0.0013512558)
(0.12600898 -0.0033310387 -0.0010257543)
(0.12804852 -0.004059605 -0.00067404372)
(0.12871872 -0.0045827122 -0.00093815251)
(0.15408481 -0.0047843967 -0.00047282954)
(0.15617504 -0.005613447 -0.00016216157)
(0.15696432 -0.0062082174 -0.00044793926)
(0.18477397 -0.0065421486 9.7273807e-05)
(0.18686173 -0.0074800847 0.00037845461)
(0.18781698 -0.0081094712 5.6856648e-05)
(0.2177957 -0.008659202 0.0007265986)
(0.21990574 -0.0096085392 0.00091792985)
(0.22096072 -0.010344934 0.00065316701)
(0.25283277 -0.010974262 0.001275416)
(0.25486491 -0.012188223 0.0015248731)
(0.25606941 -0.012795938 0.0011768585)
(0.28974102 -0.013601645 0.0020725643)
(0.29130821 -0.014694745 0.0019151067)
(0.29292514 -0.015432159 0.0018387608)
(0.32741146 -0.016638421 0.0025696022)
(0.32929559 -0.017492864 0.0026648803)
(0.33069635 -0.018423726 0.0023729996)
(0.36639439 -0.019392291 0.0031755067)
(0.3684238 -0.020477607 0.00315827)
(0.36999435 -0.02118453 0.0030836476)
(-0.00045935577 0.0080126923 1.1931802e-06)
(-0.00018079197 0.0079946863 -7.5600745e-05)
(-0.00031113383 0.0080372102 -0.00010585865)
(-0.0019319861 0.015309652 -0.0003477158)
(-0.0017458473 0.015233819 -0.00027185378)
(-0.0017071359 0.015414094 -0.00019845688)
(-0.0025007924 0.021484218 -0.00078737082)
(-0.0020688791 0.021904988 -0.00055393282)
(-0.0022086936 0.022019994 -0.00039943703)
(-0.0030374476 0.025910594 -0.0011800857)
(-0.0025883488 0.026018856 -0.0008207823)
(-0.0025220235 0.026137149 -0.00049909574)
(-0.0025819165 0.028083815 -0.0017068973)
(-0.0020169298 0.028418671 -0.0012352565)
(-0.0019503566 0.028538326 -0.00066596155)
(-0.001228782 0.028050914 -0.0021711199)
(-0.00053185113 0.028282506 -0.0014585658)
(-0.00041811963 0.028396521 -0.00092924883)
(0.0014710646 0.02553303 -0.0026116774)
(0.0022953872 0.025801784 -0.0018216554)
(0.0024410765 0.02590779 -0.0011488216)
(0.005715257 0.020751422 -0.0030098695)
(0.0065760502 0.020954591 -0.002126617)
(0.0068514982 0.020961812 -0.0013030942)
(0.011669909 0.013859871 -0.0033711903)
(0.012681623 0.013983161 -0.0023473391)
(0.013008539 0.014049337 -0.0014619793)
(0.01967506 0.0052096852 -0.003641487)
(0.020764515 0.0052939729 -0.0025560827)
(0.021189986 0.0052348993 -0.0015775312)
(0.02984331 -0.0047129899 -0.0038361812)
(0.031029249 -0.0047673855 -0.0026667265)
(0.031588555 -0.0048724006 -0.0016341684)
(0.04246384 -0.01546291 -0.0039234168)
(0.043749158 -0.015602176 -0.0027188989)
(0.044419068 -0.015788878 -0.0016394809)
(0.057688968 -0.026451512 -0.0039153498)
(0.059055933 -0.026693819 -0.0026803327)
(0.059858646 -0.026961227 -0.0015637767)
(0.075710594 -0.037132169 -0.0037945609)
(0.077169862 -0.03747615 -0.0025573723)
(0.078098948 -0.037838425 -0.0014363937)
(0.096665797 -0.046999101 -0.0035556233)
(0.098191989 -0.047439955 -0.0023558873)
(0.0992576 -0.047882325 -0.0012426947)
(0.12062667 -0.055582057 -0.00322602)
(0.12223593 -0.056116679 -0.0020670334)
(0.1234178 -0.056635305 -0.0010042772)
(0.14760935 -0.062527646 -0.0027869867)
(0.14925528 -0.063136917 -0.0017280884)
(0.15056381 -0.06371928 -0.00071876819)
(0.17754033 -0.067564608 -0.0022791147)
(0.17925788 -0.068244936 -0.001314086)
(0.18067911 -0.068901299 -0.00041548176)
(0.21022183 -0.070591618 -0.0017073557)
(0.21196028 -0.07135049 -0.00087826978)
(0.21343375 -0.071997352 -8.242349e-05)
(0.24544291 -0.071564473 -0.0010369016)
(0.247184 -0.072316484 -0.00038700655)
(0.24880479 -0.073048288 0.00026367329)
(0.28269199 -0.070645716 -0.00045697159)
(0.28445317 -0.07145629 0.0001037123)
(0.28608566 -0.072159183 0.00060871085)
(0.32174831 -0.068043827 0.0002979526)
(0.32349029 -0.068891855 0.00074485311)
(0.32527371 -0.069635699 0.001029768)
(0.36183182 -0.064224949 0.0010245077)
(0.36350702 -0.064839721 0.0011995594)
(0.36528091 -0.065804941 0.001297061)
)
;

boundaryField
{
    free
    {
        type            calculated;
    }
    fixed
    {
        type            calculated;
    }
    traction
    {
        type            calculated;
    }
}


// ************************************************************************* //
