/*--------------------------------*- C++ -*----------------------------------*\
  =========                 |
  \\      /  F ield         | OpenFOAM: The Open Source CFD Toolbox
   \\    /   O peration     | Website:  https://openfoam.org
    \\  /    A nd           | Version:  6
     \\/     M anipulation  |
\*---------------------------------------------------------------------------*/
FoamFile
{
    version     2.0;
    format      ascii;
    class       pointScalarField;
    location    "0.44";
    object      p;
}
// * * * * * * * * * * * * * * * * * * * * * * * * * * * * * * * * * * * * * //

dimensions      [1 -1 -2 0 0 0 0];

internalField   nonuniform List<scalar> 
625
(
991429.35
-1610536.4
48.813488
1274.7036
1865235.6
-3055960.7
1079.4805
-364.64843
742814.83
-71384.589
-124779.14
-765.37378
244.48847
565.43045
403377.06
432251.3
405111.51
381834.21
323622.67
301041.11
257157.72
220410.09
201310.79
163560.91
142611.35
119936.53
100616.84
82350.389
67210.058
53075.293
40365.618
30257.752
20325.364
13427.869
7283.1378
2382.4507
683.4315
-533547.7
-331975.98
-443520.57
-322666.71
-286666.22
-276180.25
-221826.6
-196482.51
-173684.52
-146288.66
-126619.04
-105807.16
-91068.106
-74373.842
-61067.591
-48462.588
-37016.44
-27434.156
-18491.24
-11852.276
-5883.9835
-2326.8217
-19.406311
1032295.9
-65593.23
-295649.37
-546273.26
-676189.12
-460923.5
-377133.43
-436449.08
-293472.76
-271085.28
-240993.63
-205299.58
-180985.92
-147849.82
-127320.24
-103901.05
-84549.747
-68695.003
-52096.98
-40035.501
-28715.787
-19248.636
-11797.994
-6308.7852
-2136.9976
404.1625
653.25251
-505.32298
-798.32695
821.53894
3912.3208
8674.5112
15790.037
24802.914
35565.655
48064.448
62123.24
78128.997
95531.683
113698.42
137566.25
155675.98
175680.06
223672.75
241198.33
280720.56
306499.11
383783.4
365965.54
448761.62
495365.11
445495.15
1103093.8
1083401.4
1021174.2
-1788562.4
-1788567.4
-1773456.4
679.92564
907.72539
1437.159
-503.5692
-796.83873
-706.83137
247100.77
260222.53
250853.74
214143.6
188905.51
179393.25
143562.99
134477.13
109674.39
94585.277
82747.691
69658.141
57039.017
46994.796
37935.339
29208.673
22377.761
16204.82
10967.533
7484.2782
4086.815
2163.5727
811.29796
-65322.23
-44316.416
-56965.453
-21422.846
-38048.832
-23318.366
-22398.933
-15169.225
-14458.895
-11819.817
-10008.488
-9450.7168
-7906.8094
-6060.0849
-4973.0424
-3847.5914
-2466.0688
-1545.9184
-676.27448
-35.835508
349.27758
943.64482
640.03526
-320603.57
-260450.01
-228262.03
-191674.6
-212244.81
-152780.84
-147828.1
-125460.13
-109814.07
-93627.522
-80630.502
-67262.206
-56341.901
-46283.067
-37653.088
-29575.456
-22561.922
-16313.162
-11220.143
-6610.7859
-3951.0001
-1646.4163
-543.90411
622955.86
610469.46
629980.41
-77522.658
-52348.314
-132463.23
-90000.119
-151682.24
-249616.76
-807404.05
-790707.87
-831822.73
-613073.11
-571298.22
-553318.32
-459174.8
-430370.63
-460792.46
-346322.42
-346537.61
-349178.56
-329839.89
-328776.43
-345808.26
-280718.4
-262060.19
-269959.77
-247541.23
-244324.37
-255067.97
-215894.28
-199963.51
-213281.07
-187160.44
-176317.06
-183494.25
-159672.19
-148052.85
-158768.17
-135773.17
-126920.86
-133568.82
-116351.46
-106542.71
-113126.15
-96310.652
-88482.061
-93504.953
-79672.921
-71941.453
-76351.554
-64335.037
-57863.037
-61765.483
-50677.42
-45170.002
-47852.82
-38561.081
-33559.718
-35702.215
-27866.744
-23955.566
-25698.609
-18686.809
-15592.619
-16616.143
-11472.279
-9131.2867
-9736.2749
-5241.6002
-3799.7395
-4091.7169
-1582.6943
-996.20085
-1154.8883
229.44252
1305.4371
1072.6301
-782.34195
-821.9579
-1145.1623
-568.37971
-686.96512
-587.95339
1289.8054
1446.5881
1724.1929
553696.01
484342.33
539616.26
504624.6
452831.02
486381.81
487059.79
427718.36
462587.16
393669.96
364412.63
392953.35
366414.13
345235.27
347951.41
322487.84
280172.8
305282.12
273183.05
258954.88
274491.06
246058.85
223210.07
233938.25
206535.2
195177.07
198571.21
178061.11
167262.02
177652.07
153625.7
143727.17
147693.68
130966.03
119348.46
128232.25
107012.02
101365.46
107216.27
89738.355
83835.493
89072.259
71941.076
68110.112
72371.491
56658.498
53946.359
57629.375
43297.003
41601.986
44227.751
31379.222
30485.615
32589.692
21127.702
21018.313
22388.095
13157.821
12937.69
14372.505
6619.5008
6042.0598
7510.9694
2232.4034
2396.939
3162.2417
171.75846
25.107193
480.37404
268543.75
295081.06
224528.92
244626.96
216664.1
190186.54
172275.93
149877.67
128038.94
111416.9
101010.24
82876.322
69381.641
58846.963
47737.926
38714.455
30166.045
22939.582
16565.781
11235.195
6807.2484
3562.033
335.02329
-47132.075
26785.763
-547.52245
37907.412
39727.508
29204.195
34679.228
32981.871
24661.818
26373.967
24290.204
21440.935
18920.774
17189.063
14843.096
12754.277
10438.995
8589.9054
6297.7323
4450.4195
2974.1285
1089.2324
317.70049
-175934.27
-164636.78
-251738.74
-206096.64
-196133.69
-190185.38
-149016.56
-138534.21
-113650.32
-97565.933
-83293.473
-68139.422
-57633.595
-45509.289
-37232.918
-28855.757
-21969.272
-15887.652
-11391.457
-7080.4367
-4293.281
-1619.4744
-1145.7374
341461.8
398381.26
329793.87
287959.76
322578.84
292317.68
208086.51
221030.41
260130.91
178309.4
249107.97
196213.65
201057.21
170033.4
186735.49
134791.02
175896.82
178210.11
138538.46
154808.14
143090.46
123284.56
126652.78
129203.51
102625.74
108888.07
121136.3
90378.953
101145.01
97237.411
77819.532
80735.775
85709.929
61780.651
70772.138
74271.618
54026.854
59352.66
62700.448
44130.754
48400.889
51967.828
35027.757
38605.435
43066.686
27617.734
31097.77
34067.916
21294.48
23053.845
26568.378
15237.362
17007.898
19523.523
10942.4
11432.719
13876.937
7110.7576
7561.8142
8950.2246
3552.7743
4589.0078
4908.9738
2244.0351
2190.3184
2786.8917
250.33133
184.67863
66.863101
-82562.622
-107068.39
-68434.976
-32227.46
3594.2818
-27579.076
7957.5947
-2509.1548
-12845.658
2474.8348
-2028.291
-32637.999
90.726158
8870.7854
11637.895
3246.5396
24790.629
-9250.1952
15882.473
14079.663
-4547.7192
1637.2262
16743.322
4524.5094
7080.4445
20704.87
3.3312264
8941.5218
15999.022
4041.6886
4780.6908
13973.736
3098.0511
5946.8782
15404.043
5554.7613
5621.9855
13258.544
3746.6452
4464.6876
10929.227
4882.7585
3310.0907
10688.959
4773.9222
3415.1707
8969.3407
4529.8403
2421.5339
7501.0509
4365.1035
2120.6472
6499.779
3803.3966
1924.3579
4687.9564
3693.7116
1780.4382
3503.4922
2580.8835
1195.7286
1833.2941
2061.0305
394.25848
1663.9431
1336.3741
734.26384
1029.851
1198.195
-320710.59
-354386.83
-402039.08
-218755.79
-179649.32
-275333.12
-199277.95
-316034.84
-281203.97
-258402.86
-208669.96
-234491.89
-172846.26
-210979.04
-211431.73
-160374.26
-187624.21
-191408.23
-150043.87
-164436.62
-162047.55
-121700.48
-140023.43
-147197.57
-102336.22
-124060.88
-123297.91
-91929.964
-105612.3
-105503.8
-75909.717
-88939.212
-87992.542
-64415.397
-74115.901
-74561.326
-53022.292
-63358.794
-61420.784
-44329.47
-51134.481
-50041.084
-35054.967
-41514.714
-39541.856
-28086.463
-32417.823
-31675.454
-21191.065
-24963.984
-23780.169
-15874.093
-17851.836
-17721.891
-10856.463
-12605.962
-12245.706
-7372.4149
-7090.5127
-7978.1059
-4163.3732
-4395.5461
-4708.1938
-1451.883
-865.6298
-1000.6469
-402.65652
-541.81638
-1572.9815
)
;

boundaryField
{
    free
    {
        type            calculated;
    }
    fixed
    {
        type            calculated;
    }
    freeTop
    {
        type            calculated;
    }
}


// ************************************************************************* //
