/*--------------------------------*- C++ -*----------------------------------*\
  =========                 |
  \\      /  F ield         | OpenFOAM: The Open Source CFD Toolbox
   \\    /   O peration     | Website:  https://openfoam.org
    \\  /    A nd           | Version:  6
     \\/     M anipulation  |
\*---------------------------------------------------------------------------*/
FoamFile
{
    version     2.0;
    format      ascii;
    class       pointVectorField;
    location    "0.79";
    object      u;
}
// * * * * * * * * * * * * * * * * * * * * * * * * * * * * * * * * * * * * * //

dimensions      [0 1 0 0 0 0 0];

internalField   nonuniform List<vector> 
625
(
(0 0 0)
(0 0 0)
(2.8408351 -0.45771749 0.06237789)
(2.6168203 -1.0879133 0.056737163)
(0 0 0)
(0 0 0)
(2.6131938 -1.1020747 0.055219622)
(2.8368985 -0.47215695 0.061906782)
(0 0 0)
(0 0 0)
(0 0 0)
(2.784104 -0.61581045 0.060153487)
(2.7280338 -0.77231626 0.059305232)
(2.6729235 -0.92925821 0.057904608)
(0.0084751658 0.028971095 0.026557224)
(0.031341836 0.058165793 0.026521441)
(0.071540213 0.085555948 0.02864639)
(0.12924453 0.10916611 0.028213752)
(0.19820572 0.1268873 0.028988735)
(0.28311679 0.13980958 0.02926404)
(0.3776372 0.14658768 0.030194537)
(0.48315735 0.14698303 0.031031429)
(0.59814904 0.14205369 0.032401376)
(0.72070997 0.13063139 0.03329339)
(0.85073567 0.1139756 0.034845588)
(0.98678885 0.091568973 0.036314097)
(1.1280981 0.064166383 0.037894382)
(1.2738482 0.031943108 0.039617603)
(1.4233165 -0.0046262489 0.041407395)
(1.5757004 -0.045137351 0.04335875)
(1.7306091 -0.089047309 0.045259174)
(1.8871119 -0.13614232 0.047522577)
(2.0452633 -0.18571431 0.049470244)
(2.2038585 -0.23726678 0.05191319)
(2.3632935 -0.29085405 0.054354619)
(2.5227126 -0.34523689 0.056882503)
(2.6816102 -0.40092149 0.060025887)
(-0.0054965001 -0.022659541 -0.034324082)
(0.017149262 -0.047961068 -0.026108608)
(0.052152179 -0.080397675 -0.028801632)
(0.098501717 -0.11022292 -0.02423153)
(0.15600609 -0.13956037 -0.021756086)
(0.22798932 -0.17622176 -0.017701077)
(0.30716404 -0.20959933 -0.014964889)
(0.39808497 -0.24788258 -0.010601639)
(0.49718911 -0.28826633 -0.0072274736)
(0.60487098 -0.33037081 -0.0030329424)
(0.71994006 -0.37563838 0.00093582407)
(0.84188568 -0.42280449 0.0051692818)
(0.96997499 -0.47223655 0.0093520417)
(1.1034785 -0.52361562 0.013657967)
(1.2419334 -0.57668263 0.018001597)
(1.3845497 -0.63120074 0.022335156)
(1.5309216 -0.6869671 0.026768119)
(1.6804184 -0.74352944 0.031078123)
(1.8325111 -0.80088265 0.035537604)
(1.9868439 -0.85844491 0.039793905)
(2.1428049 -0.91620568 0.044126356)
(2.2999734 -0.97383354 0.048354768)
(2.4579761 -1.0308886 0.052318797)
(0 0 0)
(0 0 0)
(0 0 0)
(0.0040381522 -0.015488674 0.023667348)
(0.020592423 -0.064269294 0.029743233)
(0.058038214 -0.082259966 0.02520053)
(0.10127019 -0.11493914 0.02383605)
(0.16224031 -0.15388184 0.025866696)
(0.23180546 -0.18270893 0.023244539)
(0.31064495 -0.22120383 0.025393166)
(0.40108477 -0.25980528 0.025068874)
(0.49965954 -0.30057034 0.02620358)
(0.60645861 -0.34386461 0.027302371)
(0.72085585 -0.38880768 0.028328234)
(0.84203417 -0.43684518 0.029812329)
(0.9694056 -0.48615135 0.031216923)
(1.1023541 -0.53784595 0.032789546)
(1.2401933 -0.59102603 0.03451334)
(1.3823825 -0.64560283 0.036305716)
(1.528318 -0.7014121 0.038260271)
(1.6774557 -0.75805271 0.040362129)
(1.8292945 -0.81526707 0.042553042)
(1.9833529 -0.87289 0.044951673)
(2.1390795 -0.93047312 0.047428976)
(2.2962516 -0.98811795 0.050088839)
(2.45413 -1.0449671 0.052898574)
(2.6696004 -0.94308728 0.056911305)
(2.7238669 -0.78649927 0.058808347)
(2.7800846 -0.63043316 0.060854316)
(2.6779166 -0.41548931 0.057692196)
(2.5186276 -0.3597281 0.053804351)
(2.3593576 -0.30498629 0.049726759)
(2.2002355 -0.25151315 0.045556996)
(2.0415895 -0.19968909 0.04136373)
(1.8838604 -0.15013172 0.037122997)
(1.7275109 -0.10296149 0.032880017)
(1.5730004 -0.058960963 0.028647174)
(1.4209383 -0.018255577 0.02440964)
(1.2719075 0.018468798 0.020229675)
(1.1265806 0.050926383 0.016087996)
(0.98582257 0.078691383 0.012005537)
(0.85015147 0.10131346 0.0079842486)
(0.72088539 0.11890317 0.0039553228)
(0.5983512 0.13047586 0.00047969808)
(0.48441236 0.13594262 -0.0035445808)
(0.37909653 0.13691953 -0.0074290913)
(0.284184 0.13058405 -0.01039969)
(0.20115452 0.11932764 -0.01444377)
(0.12970165 0.10124243 -0.016564658)
(0.073622331 0.082145276 -0.021639997)
(0.030975966 0.053523674 -0.021235602)
(0.014573316 0.025436283 -0.018336191)
(0 0 0)
(0 0 0)
(0 0 0)
(0 0 0)
(0 0 0)
(0 0 0)
(2.61548 -1.0918714 0.056056004)
(2.6147727 -1.0954452 0.056105409)
(2.6135603 -1.0990455 0.055617763)
(2.8404396 -0.46093716 0.062358663)
(2.8394337 -0.4647601 0.062124278)
(2.8384286 -0.46821471 0.06200629)
(-0.0085447796 0.005347352 0.016941877)
(0.0084064366 0.012637889 0.013299377)
(0.041170081 0.019630463 0.015837407)
(0.089939652 0.024845346 0.015899337)
(0.15273718 0.029370732 0.01767664)
(0.23217954 0.030985666 0.018798444)
(0.3227997 0.029696682 0.020307082)
(0.42760508 0.025522394 0.021980703)
(0.5429611 0.017205248 0.023604576)
(0.66901272 0.0043907571 0.025323574)
(0.80382245 -0.012728052 0.027268191)
(0.94576775 -0.035077106 0.029206187)
(1.0936206 -0.06224182 0.031284103)
(1.2457251 -0.09445341 0.033494536)
(1.4006855 -0.13151625 0.035810024)
(1.557261 -0.17298843 0.038196847)
(1.7143072 -0.21884911 0.040785549)
(1.8709717 -0.26828698 0.043392151)
(2.0267634 -0.3210207 0.046103309)
(2.1809041 -0.3766007 0.049081822)
(2.333794 -0.43440546 0.051784466)
(2.48498 -0.49367234 0.05486612)
(2.6348631 -0.5547414 0.057755793)
(-0.011185232 0.0042575102 0.0013523084)
(0.012962786 0.0061223518 -0.00051060458)
(0.048911592 0.0076057366 0.0012044353)
(0.10123368 0.0057302393 0.002908006)
(0.16729274 -0.0011696133 0.0042556938)
(0.24478586 -0.011376325 0.0061304967)
(0.3336645 -0.025568918 0.008061353)
(0.43274416 -0.044917474 0.010390544)
(0.54038007 -0.067952231 0.012558457)
(0.65660618 -0.095550285 0.015217148)
(0.77965851 -0.12701349 0.017810782)
(0.90933599 -0.16246257 0.0206541)
(1.0445764 -0.2014252 0.023589024)
(1.1847437 -0.24370243 0.026655932)
(1.3291497 -0.28889976 0.02975563)
(1.47714 -0.33674387 0.032985884)
(1.6281755 -0.38683493 0.036227399)
(1.7816059 -0.43880458 0.039493833)
(1.9371551 -0.49241981 0.042845182)
(2.0938515 -0.54720619 0.046100833)
(2.2520308 -0.60289167 0.049371937)
(2.4104879 -0.65927733 0.05283814)
(2.5697967 -0.71610482 0.05604841)
(-0.0094860802 -0.0011672499 -0.013000365)
(0.021988282 -0.0029699546 -0.013714646)
(0.06141485 -0.0086711817 -0.012805776)
(0.11900961 -0.021671846 -0.010887153)
(0.18502738 -0.039592394 -0.0087774627)
(0.26225047 -0.060144924 -0.0060277529)
(0.34789 -0.088633127 -0.0028849013)
(0.44065464 -0.12008557 0.00010174813)
(0.54041424 -0.15660694 0.0034284302)
(0.6462411 -0.19741974 0.0068367403)
(0.757835 -0.24150236 0.010212281)
(0.87510659 -0.28891963 0.013757115)
(0.99780401 -0.33868309 0.017241179)
(1.12613 -0.39040268 0.020755042)
(1.2599403 -0.44362862 0.024332181)
(1.3993943 -0.49772877 0.02788409)
(1.5441964 -0.55242701 0.031507355)
(1.6943345 -0.60739432 0.035185055)
(1.8492373 -0.66209231 0.038804769)
(2.0085097 -0.71678203 0.042693868)
(2.1714515 -0.770793 0.046318833)
(2.3371162 -0.82433241 0.050197624)
(2.5047735 -0.87718068 0.05397187)
(0 0 0)
(0 0 0)
(0 0 0)
(0 0 0)
(0 0 0)
(0 0 0)
(0 0 0)
(0 0 0)
(0 0 0)
(0.0084495571 -0.0097346438 -0.015323869)
(0.0124135 -0.013159581 -0.0032446662)
(0.011287208 -0.0090379604 0.0077565795)
(0.033109853 -0.058185279 -0.013968268)
(0.033384046 -0.059526272 -0.00079597798)
(0.031821379 -0.057400574 0.015432933)
(0.06365747 -0.081977766 -0.015381958)
(0.06793229 -0.081174806 -0.0023359466)
(0.067849007 -0.087688109 0.013804478)
(0.10835028 -0.11351118 -0.011596576)
(0.11281495 -0.11773824 0.00033602369)
(0.11005955 -0.11551072 0.013378494)
(0.16786928 -0.14797126 -0.01018952)
(0.17061091 -0.14963874 0.00025463225)
(0.16982591 -0.15335615 0.01404871)
(0.23580286 -0.18060609 -0.0076818186)
(0.23951858 -0.18371541 0.0031927938)
(0.23830493 -0.18481626 0.014520812)
(0.31580066 -0.2166112 -0.0045997782)
(0.31875883 -0.22073316 0.0039511163)
(0.31785684 -0.22266658 0.01610619)
(0.40551796 -0.25504221 -0.0017533216)
(0.40797349 -0.25755443 0.0066483384)
(0.40706621 -0.26020598 0.0168801)
(0.50383943 -0.29467014 0.0014241206)
(0.50579772 -0.2989164 0.00895735)
(0.50502956 -0.30088267 0.018557066)
(0.61063889 -0.33776658 0.004636126)
(0.61237693 -0.34139528 0.011549644)
(0.61168 -0.34398521 0.020279486)
(0.72487023 -0.38242408 0.0080711583)
(0.72629982 -0.38634491 0.014294078)
(0.72544394 -0.38879574 0.022104288)
(0.84605499 -0.42983769 0.011614851)
(0.84710295 -0.43363503 0.017085499)
(0.84636754 -0.43632921 0.024155664)
(0.97333645 -0.47897675 0.01513433)
(0.9742214 -0.48278118 0.020027299)
(0.97331888 -0.48564918 0.026320946)
(1.1062019 -0.53026934 0.018803148)
(1.1067816 -0.53399037 0.023106627)
(1.1058557 -0.53688217 0.028517547)
(1.2439597 -0.58305881 0.022498475)
(1.2443394 -0.58673531 0.026186342)
(1.243339 -0.58984929 0.030870666)
(1.3860139 -0.63737719 0.02620477)
(1.3862053 -0.64102536 0.029377046)
(1.3851352 -0.6441449 0.033299665)
(1.5318521 -0.69280077 0.029983282)
(1.5318284 -0.69636301 0.032635566)
(1.5307331 -0.69961047 0.035804033)
(1.680848 -0.74912224 0.033756653)
(1.6807025 -0.75269667 0.035887115)
(1.6795527 -0.75600471 0.03844503)
(1.8325839 -0.80607877 0.037545763)
(1.8322441 -0.80957235 0.039257443)
(1.8310777 -0.81293807 0.041123989)
(1.9865125 -0.86335319 0.041364863)
(1.9860341 -0.86685926 0.04258301)
(1.9848757 -0.87029238 0.043947129)
(2.1421318 -0.92074983 0.045144939)
(2.1414992 -0.92421802 0.045972462)
(2.1403977 -0.92769108 0.046820672)
(2.2990831 -0.97807424 0.048886823)
(2.298438 -0.98159097 0.049350899)
(2.2973159 -0.9851746 0.049786263)
(2.4570008 -1.0350615 0.052529919)
(2.4560829 -1.0384088 0.052599018)
(2.4552055 -1.0419358 0.052764811)
(2.7837001 -0.61921309 0.06065052)
(2.7827975 -0.62289231 0.060629928)
(2.7816452 -0.6264291 0.060711753)
(2.7272027 -0.77582581 0.059390366)
(2.7263009 -0.77962162 0.059119715)
(2.7251184 -0.78292663 0.058930355)
(2.6719714 -0.93301099 0.057526608)
(2.6711969 -0.93665344 0.057517707)
(2.6701378 -0.93997456 0.057207138)
(0.020722075 0.023137906 0.012446566)
(0.021122269 0.025647648 0.0037806576)
(0.022544976 0.024664329 -0.0058792909)
(0.040768758 0.05437955 0.013218743)
(0.04363712 0.053913425 0.00077911018)
(0.041596169 0.051924519 -0.011022681)
(0.083845132 0.082915697 0.014918578)
(0.083946929 0.081558544 0.0049152893)
(0.084269739 0.081176108 -0.009645381)
(0.13713858 0.10422605 0.015643309)
(0.14006387 0.10261685 0.0048510015)
(0.13878869 0.10220805 -0.0072297741)
(0.20824472 0.12358903 0.01767922)
(0.2108744 0.1211627 0.0069264383)
(0.20923336 0.11970608 -0.0042265717)
(0.29129532 0.13484306 0.018380743)
(0.29232055 0.1319448 0.0097944287)
(0.29215099 0.13075439 -0.001725648)
(0.38521341 0.14135832 0.020441543)
(0.38729735 0.13879114 0.011466985)
(0.38645148 0.13665447 0.0010660451)
(0.49050911 0.14181723 0.022088384)
(0.49194121 0.13872122 0.01383762)
(0.49082492 0.13706121 0.0042853612)
(0.60423514 0.13702188 0.024203359)
(0.60537831 0.13301916 0.01623298)
(0.60486316 0.13091051 0.0074538816)
(0.72660121 0.12515872 0.025839633)
(0.7274863 0.12180621 0.019207197)
(0.72668422 0.11910413 0.010593509)
(0.85583014 0.10834977 0.028036195)
(0.85643418 0.10491629 0.021370171)
(0.8556117 0.10233491 0.01391146)
(0.99121601 0.086153496 0.030126532)
(0.9916439 0.08250161 0.024225971)
(0.99088286 0.079703976 0.017475697)
(1.1319255 0.058826349 0.032337715)
(1.1321803 0.055073377 0.026996066)
(1.1312801 0.052227161 0.020933809)
(1.2771136 0.026739964 0.034617256)
(1.2771262 0.022993732 0.029913492)
(1.2761913 0.020025564 0.024535729)
(1.4260006 -0.0095992141 0.037002075)
(1.4258425 -0.013435019 0.032855607)
(1.4248684 -0.016479047 0.028180548)
(1.5778874 -0.049968987 0.039419187)
(1.5775896 -0.053757851 0.035917619)
(1.5765286 -0.056834124 0.031868231)
(1.7322731 -0.093586026 0.042002336)
(1.7317579 -0.097440007 0.03901159)
(1.7306951 -0.10068546 0.035612747)
(1.888365 -0.14055456 0.044607735)
(1.8877976 -0.1443595 0.042154685)
(1.886664 -0.14745964 0.039356017)
(2.0459531 -0.18970067 0.047265013)
(2.0451755 -0.19347071 0.045454963)
(2.0440752 -0.19686426 0.043142953)
(2.2042394 -0.24122284 0.050356419)
(2.203544 -0.24511672 0.048585461)
(2.2023882 -0.24839483 0.046935898)
(2.3632925 -0.29455593 0.05303709)
(2.3624109 -0.29836377 0.051944246)
(2.3612314 -0.3016802 0.050719311)
(2.5222555 -0.34903809 0.055959003)
(2.5213621 -0.3525405 0.055339157)
(2.5202681 -0.35610264 0.054483155)
(2.6815691 -0.40445225 0.059398538)
(2.6805333 -0.40812521 0.058760776)
(2.6794515 -0.41182249 0.058345882)
(-0.0062769385 -0.0014123114 -0.011158196)
(0.011514955 0.01435525 -0.01242935)
(0.04175376 0.013412132 -0.0089257472)
(0.092612426 0.019426967 -0.0089207056)
(0.15567404 0.021545505 -0.0061002772)
(0.23384766 0.021849995 -0.0037805821)
(0.32538167 0.019912983 -0.00090460519)
(0.42889277 0.014428484 0.0023516806)
(0.54429556 0.0054892438 0.0054893673)
(0.66958589 -0.0077909136 0.0092270214)
(0.8036441 -0.025405571 0.012654953)
(0.9451001 -0.048152078 0.016542848)
(1.0923416 -0.075553418 0.020296213)
(1.2438762 -0.10796837 0.024079794)
(1.3983535 -0.14516578 0.027891618)
(1.5544445 -0.18684753 0.031624205)
(1.7111168 -0.23269985 0.035353882)
(1.8674724 -0.28233217 0.038997506)
(2.0228752 -0.33517662 0.042644107)
(2.17702 -0.39088352 0.046197412)
(2.3296681 -0.44872442 0.049791336)
(2.480789 -0.50823349 0.053281488)
(2.6308726 -0.56923792 0.057029308)
(-0.0094265151 0.0043981436 0.0013636934)
(0.01291831 0.0060853064 0.001144639)
(0.051889715 0.0015039875 0.0038100429)
(0.10409279 -5.4155543e-05 0.0037900984)
(0.169083 -0.0085715063 0.0057718694)
(0.24738954 -0.019783852 0.0077886678)
(0.33528428 -0.035173797 0.0096216327)
(0.43411246 -0.054661846 0.011815276)
(0.54152811 -0.078812606 0.0140821)
(0.65712912 -0.1067763 0.01638738)
(0.77992867 -0.13880899 0.018699942)
(0.90924517 -0.1750201 0.021260294)
(1.0440513 -0.21429639 0.023750773)
(1.1838872 -0.2571608 0.026473903)
(1.3279026 -0.30267138 0.029236273)
(1.4754987 -0.35085011 0.032158207)
(1.6261784 -0.40112512 0.035191031)
(1.7792387 -0.45330652 0.038321095)
(1.9343764 -0.50690882 0.041618344)
(2.0909643 -0.56177641 0.044908111)
(2.248692 -0.61741536 0.048357946)
(2.4069555 -0.67378101 0.051797469)
(2.5664124 -0.73064337 0.055315306)
(-0.0087750752 -0.0019472699 0.01232819)
(0.026975537 1.4950538e-05 0.013087446)
(0.068408378 -0.019836507 0.017322502)
(0.12286077 -0.02507133 0.014118699)
(0.19111852 -0.048182961 0.01664051)
(0.26715413 -0.071284977 0.016677563)
(0.35171658 -0.098564808 0.01740321)
(0.44432644 -0.13272976 0.018946109)
(0.54299041 -0.16902393 0.020017077)
(0.64823388 -0.21067177 0.021720478)
(0.75890444 -0.25496558 0.023439451)
(0.87549095 -0.30252675 0.025327098)
(0.99746665 -0.35241064 0.027470848)
(1.125206 -0.40416794 0.029645575)
(1.2584796 -0.45739625 0.032037384)
(1.3974061 -0.5115543 0.034503725)
(1.5418526 -0.56630796 0.037078432)
(1.6915599 -0.62125812 0.03977681)
(1.846198 -0.67616724 0.042524426)
(2.0051988 -0.73077673 0.045360162)
(2.1678687 -0.78479661 0.048304463)
(2.3334898 -0.83847934 0.051144379)
(2.5009715 -0.89104115 0.054318431)
(-0.00071841932 -0.0023598452 0.0076253231)
(-0.00059315494 -0.0017466034 0.0030818576)
(0.0022320076 -0.0029685097 -0.0044419518)
(0.019308411 0.011880131 0.0060463349)
(0.022977646 0.011216408 4.7098659e-05)
(0.019517525 0.01144287 -0.0072164668)
(0.052270245 0.015762024 0.008188806)
(0.052548079 0.01392658 0.002779755)
(0.052471737 0.013411693 -0.0040921601)
(0.099547982 0.022109136 0.0091988326)
(0.10320721 0.020612712 0.0029215359)
(0.10128296 0.019345903 -0.0036327627)
(0.16320969 0.025225979 0.010228868)
(0.16566177 0.022514989 0.0051181966)
(0.16454558 0.021266573 -0.0010892627)
(0.24075747 0.026197262 0.012384658)
(0.24316357 0.023722189 0.0069883989)
(0.24148482 0.022211 0.00083554297)
(0.33117298 0.024817101 0.014133711)
(0.33364576 0.022135775 0.0088323002)
(0.33287565 0.020103956 0.0036998082)
(0.43504743 0.02039268 0.015971573)
(0.4371927 0.016696781 0.01138548)
(0.43576581 0.014536402 0.0061433237)
(0.54976896 0.011278435 0.018268355)
(0.55152601 0.0083289606 0.013722818)
(0.55055346 0.0061307755 0.0094839441)
(0.67503147 -0.0010603221 0.020335965)
(0.67661524 -0.0046140466 0.016281085)
(0.67547997 -0.00742532 0.012343771)
(0.80908701 -0.018464154 0.022758775)
(0.81011166 -0.022049457 0.0191963)
(0.80904271 -0.024633881 0.015694071)
(0.95027629 -0.040640744 0.025172327)
(0.95117289 -0.044177138 0.021994664)
(0.95012387 -0.047202436 0.01903829)
(1.0974873 -0.067687329 0.027723803)
(1.0980493 -0.071338551 0.024978862)
(1.0969051 -0.074424851 0.022515271)
(1.2489093 -0.099762931 0.030403997)
(1.2491867 -0.10336716 0.028082725)
(1.2480398 -0.10658753 0.02598156)
(1.4032498 -0.13655174 0.033145639)
(1.4032971 -0.14020303 0.031190543)
(1.4021269 -0.14351133 0.029482665)
(1.559249 -0.1778774 0.035985312)
(1.5590652 -0.18153542 0.034422763)
(1.5578355 -0.18489042 0.032979869)
(1.7157221 -0.22342876 0.038935433)
(1.7153572 -0.22704853 0.037613209)
(1.714166 -0.23049593 0.036479252)
(1.8719613 -0.27267559 0.041863776)
(1.8714611 -0.27639525 0.040901862)
(1.8701647 -0.27974726 0.039927071)
(2.0272341 -0.32519245 0.044960929)
(2.0264796 -0.3287619 0.044125943)
(2.0253274 -0.33240665 0.043409049)
(2.1809564 -0.38054054 0.048075143)
(2.1804061 -0.38444525 0.047461245)
(2.1790879 -0.3877693 0.046780409)
(2.3334373 -0.43820351 0.050999975)
(2.3329067 -0.44182047 0.050752174)
(2.3315138 -0.4453003 0.050225739)
(2.4844642 -0.49745162 0.054375428)
(2.4835848 -0.50095536 0.054063761)
(2.4823661 -0.50466548 0.053573334)
(2.6343651 -0.55813223 0.057511229)
(2.63333 -0.56182233 0.057264334)
(2.6322595 -0.56542666 0.057121751)
(-0.0033983241 0.0027488144 -7.6579924e-05)
(-0.0014201339 0.0032069532 -0.0015659778)
(0.00083504968 0.003943955 -0.00015379054)
(0.021914875 0.00522608 -0.0027677264)
(0.024325498 0.0058658876 -0.0020453525)
(0.021300783 0.0045209358 -0.0008209076)
(0.060015231 0.0049142483 -8.6765436e-05)
(0.061373283 0.0036432281 0.001919258)
(0.061636675 0.0028523053 0.0018712974)
(0.11028028 0.0015493762 0.00044522736)
(0.11462805 -0.00050723604 0.0014671284)
(0.1124275 -0.0027784444 0.0023691615)
(0.17679208 -0.0051792297 0.0025938062)
(0.17907149 -0.0076281813 0.004873387)
(0.17714359 -0.008692938 0.0039756735)
(0.25299685 -0.016072433 0.0046692031)
(0.25573879 -0.01878498 0.005609675)
(0.25465043 -0.020936285 0.0063375873)
(0.34141338 -0.030434806 0.0062905158)
(0.34390718 -0.033916391 0.0082629744)
(0.34217968 -0.036375911 0.0079243926)
(0.43967763 -0.050244288 0.0091843823)
(0.44178972 -0.053634627 0.010547312)
(0.44002479 -0.05541773 0.010595338)
(0.54658823 -0.073082945 0.011286642)
(0.5483984 -0.076853024 0.01268557)
(0.54701508 -0.079501937 0.012688294)
(0.66211278 -0.10088146 0.014106381)
(0.66376797 -0.10490985 0.01560624)
(0.66206267 -0.10726725 0.015471457)
(0.78451822 -0.13246554 0.016883809)
(0.78577006 -0.13655499 0.018168525)
(0.78416042 -0.13905365 0.017849188)
(0.91350808 -0.16786927 0.019759638)
(0.91462684 -0.17212495 0.020990985)
(0.91301723 -0.17462249 0.02059715)
(1.0481658 -0.20677456 0.022834925)
(1.0490178 -0.2111784 0.023930988)
(1.0472866 -0.2137017 0.023369871)
(1.1876986 -0.2490036 0.025929545)
(1.1882896 -0.25348029 0.026874986)
(1.1866765 -0.25593602 0.026199656)
(1.3315805 -0.29406585 0.029127042)
(1.3319604 -0.29851654 0.029927595)
(1.3303184 -0.30112413 0.029158831)
(1.4790315 -0.34177345 0.03238455)
(1.4791352 -0.34626575 0.033023867)
(1.4776254 -0.34883833 0.032191555)
(1.6295765 -0.39169777 0.035684105)
(1.6295193 -0.39603445 0.036162195)
(1.6279902 -0.3987968 0.03530497)
(1.7826392 -0.44343994 0.039005566)
(1.7822416 -0.44783453 0.039350549)
(1.7809214 -0.45062963 0.038508857)
(1.9376281 -0.49692755 0.042390341)
(1.9371897 -0.50103134 0.042561709)
(1.93581 -0.50405365 0.041848292)
(2.0942326 -0.55132686 0.045677559)
(2.0934015 -0.55575311 0.045876894)
(2.0922511 -0.55865574 0.045098574)
(2.2521626 -0.60715224 0.049233503)
(2.2506978 -0.61066934 0.048878976)
(2.2499949 -0.6141782 0.048640289)
(2.4100364 -0.66325632 0.052517321)
(2.4092536 -0.66695016 0.05246396)
(2.4080488 -0.6703762 0.051997133)
(2.5691767 -0.71975348 0.055844308)
(2.5683087 -0.72363151 0.055706647)
(2.5673051 -0.72695982 0.055491776)
(0.00087511592 0.0016683788 -0.0062978732)
(0.00049527425 0.0025886392 -0.00037418268)
(0.00032192957 0.0026930884 0.0054019483)
(0.035602818 -0.003161398 -0.0080182055)
(0.038615342 0.0010495352 0.0004893364)
(0.03561363 -0.0020518599 0.0072111151)
(0.074151181 -0.012576124 -0.0065298307)
(0.077496145 -0.01821533 0.0018232394)
(0.077124905 -0.018591192 0.0094529458)
(0.13108471 -0.027985337 -0.005417146)
(0.13328269 -0.026900941 0.0022663526)
(0.13189458 -0.029015389 0.0084471617)
(0.19587325 -0.044167628 -0.0026463248)
(0.19891354 -0.048247642 0.0044017858)
(0.19817001 -0.048884465 0.010419139)
(0.2721994 -0.067352746 -0.0011028482)
(0.27470903 -0.070532468 0.0054788091)
(0.27354418 -0.072377133 0.01068255)
(0.35663694 -0.095412322 0.0020379193)
(0.35885322 -0.098713001 0.0082026552)
(0.35793472 -0.099746625 0.012816465)
(0.44855231 -0.12694575 0.0045973658)
(0.45026294 -0.13101458 0.009517207)
(0.4495875 -0.13297734 0.014120208)
(0.54728476 -0.16387044 0.0073777588)
(0.5488026 -0.16770752 0.012294275)
(0.54816474 -0.16951883 0.016325236)
(0.65224662 -0.20450003 0.010515445)
(0.65344506 -0.20857332 0.014598124)
(0.65280502 -0.21063614 0.018027778)
(0.76299839 -0.24851314 0.0134206)
(0.76380786 -0.25259868 0.017020624)
(0.76334591 -0.25488966 0.020202513)
(0.87950887 -0.29579365 0.01657028)
(0.88007814 -0.29974438 0.019726666)
(0.87959441 -0.3022214 0.022381874)
(1.0015112 -0.34530034 0.019694356)
(1.0017534 -0.3492399 0.022332135)
(1.0013374 -0.35199699 0.024693126)
(1.129176 -0.39688011 0.022845807)
(1.1292256 -0.40064025 0.025113049)
(1.128751 -0.40354427 0.027139378)
(1.2624204 -0.4497958 0.026098487)
(1.2622255 -0.45343731 0.027963834)
(1.2617721 -0.45659771 0.029707771)
(1.4012778 -0.50366775 0.0293481)
(1.4009495 -0.50725694 0.030922918)
(1.4003868 -0.51052798 0.032373813)
(1.5456171 -0.5581259 0.032715245)
(1.5450994 -0.561573 0.03394541)
(1.5445134 -0.56499608 0.035180289)
(1.6952292 -0.61272727 0.036101249)
(1.6946295 -0.61620951 0.037109186)
(1.6939567 -0.61971527 0.038118653)
(1.8497123 -0.66728958 0.039557842)
(1.8489909 -0.67074673 0.040353589)
(1.8482234 -0.67421561 0.041094734)
(2.0085845 -0.72160615 0.043175079)
(2.0077709 -0.72495578 0.043638209)
(2.0070121 -0.72855843 0.044269021)
(2.1710491 -0.77525982 0.046607449)
(2.1702414 -0.7787299 0.047088481)
(2.1693823 -0.78221897 0.0474374)
(2.3364831 -0.828552 0.050340816)
(2.3355966 -0.8320839 0.050638639)
(2.334786 -0.8356699 0.050776812)
(2.5037744 -0.88122889 0.053943024)
(2.5028775 -0.88447757 0.053958372)
(2.50188 -0.88822705 0.053949767)
)
;

boundaryField
{
    free
    {
        type            calculated;
    }
    fixed
    {
        type            calculated;
    }
    traction
    {
        type            calculated;
    }
}


// ************************************************************************* //
