/*--------------------------------*- C++ -*----------------------------------*\
  =========                 |
  \\      /  F ield         | OpenFOAM: The Open Source CFD Toolbox
   \\    /   O peration     | Website:  https://openfoam.org
    \\  /    A nd           | Version:  6
     \\/     M anipulation  |
\*---------------------------------------------------------------------------*/
FoamFile
{
    version     2.0;
    format      ascii;
    class       pointScalarField;
    location    "0.11";
    object      p;
}
// * * * * * * * * * * * * * * * * * * * * * * * * * * * * * * * * * * * * * //

dimensions      [1 -1 -2 0 0 0 0];

internalField   nonuniform List<scalar> 
3969
(
603553.09
-800478.66
415.41564
-616.87717
1153511.6
-1623402
253.63593
-255.81776
489942.3
346773.23
185619.88
23653.914
-97863.022
-291461.87
-292803.38
908.14607
884.03575
1358.6285
-348.97058
-1451.9434
-1987.7221
-1428.0088
188043.25
208447.75
199947.29
205361.82
194528.9
188802.53
175619.98
164383.47
151834.06
140264.09
129927.93
121115
113606.36
106762.93
99954.672
93490.377
86691.488
79126.411
71069.74
62297.015
53340.657
44302.386
35656.614
27468.447
20449.405
14160.247
9011.8134
4193.8512
-402.89848
-4787.7381
-9450.4539
-14236.143
-18958.927
-23188.299
-26625.088
-28839.185
-29044.305
-26923.623
-23197.947
-18370.356
-12344.138
-6279.22
-1759.2752
3652.9045
3237.8899
3854.1462
3365.8032
-188503.12
-157106.66
-183370.1
-160885.75
-171008.76
-152746.64
-148802.57
-132163.49
-124087.32
-111574.47
-102354.1
-94053.397
-86139.591
-80726.427
-74514.456
-68792.969
-62965.369
-55778.482
-48724.375
-40274.368
-31707.212
-23300.306
-15039.792
-7404.5336
-669.93863
4765.2931
9268.866
12995.786
16477.094
19682.043
23079.185
26596.389
30155.54
33332.612
35783.368
36864.149
36420.409
33360.388
29537.934
23382.661
16832.1
10522.56
4580.1626
666.51667
-2133.453
-2986.2786
-1919.4422
850968.6
654597.46
309658.57
25285.648
-218779.76
-536511.34
-423487.05
-218249.17
-245269.51
-152193.4
-209755.77
-171491.16
-172610.05
-156057.76
-146288.55
-131045.35
-119406.13
-114402.01
-101793.58
-98345.581
-89187.119
-83569.369
-76467.867
-68746.531
-61043.311
-52150.788
-42835.346
-33480.988
-24387.349
-15543.716
-7854.5229
-885.87648
4500.5977
9698.1718
14146.259
18386.514
22388.981
26540.959
30839.977
35093.162
38808.265
41691.067
44121.032
39919.222
40279.828
34818.684
28633.642
21702.122
14754.833
8443.4046
3583.3715
390.12676
-985.11205
-1931.8107
-2112.0473
-1408.6198
-1132.0217
1304.5511
107.39706
1778.1264
3102.7599
1020.4234
2904.4576
4280.988
2906.6409
281.24014
-4371.9288
-10114.251
-16191.938
-22055.712
-26245.284
-26923.338
-31996.126
-27374.999
-24287.246
-19881.977
-14595.052
-9416.9446
-4411.8821
26.589095
4597.5199
9029.3207
14186.998
20392.829
27476.052
35821.881
44988.422
54840.146
64787.733
74356.972
83191.072
91463.668
97640.415
102906.36
111376.55
121119.04
124554.2
136311.48
143896.14
154096.4
171291.56
187673.13
189489.55
209240.52
208829.24
203631.64
223337.54
219282.19
529203.48
577315.34
602156.81
595289.23
587281.49
584298.91
486384.13
-648985.94
-827981.24
-946054.78
-1013645.3
-959549.62
-943952.22
-738672.32
2202.0016
2682.9241
4010.2538
3706.959
3254.2874
2228.5727
1893.4128
-273.07997
-1704.0404
-3650.3204
-4091.7441
-4301.6984
-3924.3515
-1824.5846
157199.67
161479.71
158267.86
156492.36
152163.2
146280.54
137724.05
131140.93
121045.35
115032.6
106297.54
99131.606
92624.385
86261.833
80370.495
74629.924
68686.688
62581.365
56141.653
49642.149
42959.898
36316.104
29842.26
23670.387
18091.624
12944.354
8241.5751
4025.6219
54.396294
-3705.2508
-7321.6722
-10653.576
-13624.595
-16022.969
-17819.455
-18484.283
-17926.217
-16707.739
-14573.625
-11752.89
-8001.2151
-5105.833
-1602.8805
430.19118
1598.6206
3030.2031
3925.6764
104068.34
102028.68
100659.54
103891.71
100921.82
101066.97
95277.376
90597.662
85329.754
80340.29
75006.552
70463.774
65356.328
61128.531
56899.566
52857.622
48882.548
44790.034
40739.213
36655.927
32437.952
28294.603
24232.581
20355.874
16753.954
13175.985
9883.7555
6872.812
3894.4948
1270.9175
-1111.8646
-3212.4713
-4907.2743
-6351.3852
-7258.784
-7889.537
-8144.491
-7961.3688
-7282.6569
-6314.3333
-4754.6428
-3481.7085
-1539.9652
198.72432
1199.3208
2336.2491
2940.7229
50972.718
56087.618
52417.064
55138.817
52485.765
54362.105
51104.674
50635.326
47052.402
44917.251
42557.176
40181.391
37704.32
34866.6
32386.25
30405.675
28318.812
26379.048
24445.287
22601.392
20903.391
19167.099
17136.236
15050.596
12843.051
10774.339
8826.9923
6862.9544
5256.1341
3808.62
2542.938
1520.2858
651.91307
9.4876211
-644.21006
-1145.9824
-1426.512
-1533.0747
-1228.2672
-1100.3241
-252.87658
-26.64856
1655.4884
1346.1102
2433.0346
1548.208
1511.8624
7950.7883
6567.7568
2780.895
7577.1971
3235.0454
6834.0788
4655.7584
6701.4599
6688.1803
8611.5019
7938.9013
8752.1033
7978.2712
8569.222
8275.8394
8356.6787
8274.4759
8472.4703
8603.2675
9024.8329
9471.8541
9526.7798
9546.8648
9608.4925
9788.3959
9877.3337
9602.2151
9332.285
9025.2362
8709.3214
8581.3162
8582.7225
8729.7444
8831.7004
8848.2053
8555.9535
8169.3131
7150.6483
5673.8059
4401.3019
3180.8675
1970.6733
1686.3113
413.38058
1453.0303
-215.69722
29.940932
-44729.821
-39701.656
-40094.279
-39894.006
-41471.695
-37738.352
-36700.96
-32994.128
-30488.271
-26018.574
-23832.414
-20168.661
-18746.201
-15748.125
-14303.023
-12002.705
-10323.463
-8204.0816
-6148.0053
-3753.628
-1403.1562
1913.0645
3924.8749
5445.6269
7289.9815
8408.2336
9178.4161
9883.6852
10520.057
11230.238
11979.426
12794.692
13462.472
13992.209
14099.881
13666.695
12753.375
11140.091
10696.849
8547.7442
7326.1526
5467.8037
4656.0799
2868.367
3161.4131
-224.35492
-1155.5862
-98826.284
-91255.356
-91345.824
-92570.746
-91928.937
-86345.748
-81564.602
-74285.077
-69363.71
-61278.052
-56820.9
-50775.013
-46953.71
-42701.419
-39219.959
-35225.538
-31633.915
-27442.484
-23162.278
-18481.38
-13556.136
-9211.1935
-3945.0334
399.91957
3802.5598
6612.5153
8938.2755
10867.812
12636.739
14216.718
15947.519
17691.264
19394.781
20972.843
21982.188
22153.796
21385.444
19898.163
17301.159
14577.55
10794.516
7057.7566
4102.332
1063.5269
64.221405
-2189.642
-2179.3048
-169581.63
-118533.29
-137430.97
-132878.91
-134526.34
-125710.81
-119774.41
-111094.01
-103687.98
-93969.536
-88109.694
-79658.847
-73887.931
-67608.178
-61759.494
-55953.221
-49969.413
-44057.943
-37488.11
-30638.774
-24061.868
-17068.158
-10580.926
-4483.1319
878.54938
5543.8674
9687.3817
13275.024
16348.793
19159.308
22010.653
24701.281
27185.45
29344.66
30623.516
30916.917
30101.053
27971.223
24429.793
19717.526
14479.223
9455.5034
5257.626
1440.8718
-247.97798
-1927.2727
-3430.2794
375225.27
360591.14
377212.25
376745.03
376915.84
366235.33
343455.82
256784.2
290164.84
272730.95
281030.49
278886.74
272805.73
261058.33
135904.52
157681.98
136465.55
147871.1
139467.49
139671.35
142892.12
35193.858
25883.005
18248.859
31077.911
23702.964
12139.641
50475.796
-51159.865
-55015.94
-62151.3
-51853.434
-56975.569
-52033.738
-23285.878
-217227.71
-239642.87
-236299.69
-243986.05
-250069.81
-241564.55
-230989.1
-252919.32
-222892.05
-196796.8
-202029.87
-184747.34
-171942.8
-190310.35
-301653.18
-313045.31
-350351.4
-362829.78
-371443.29
-362311.18
-285884.11
-227278.96
-267506.3
-269330.39
-274175.96
-287244.29
-270045.95
-245358.47
-186683.3
-211907.92
-223812.9
-225967.72
-223769.45
-208009.49
-218903.8
-186227.28
-205968.95
-202078.13
-213931.5
-206120.64
-204442.66
-189098.25
-179897.88
-191620.49
-198041.36
-197757.04
-198431.36
-187440.32
-189572.61
-167923.02
-165433.75
-169063.01
-172482.4
-171058.78
-165959.92
-164294.37
-151796.01
-156313.49
-159748.53
-161385.89
-159552.98
-160365.11
-157508.68
-141623.78
-139329.89
-140447.86
-141261.09
-138889.21
-139088.77
-138076.55
-127591.68
-127399.07
-127989.81
-129244.65
-129342.41
-129133.34
-127818.04
-117446.78
-114814.7
-113790.06
-115375.65
-114378.9
-113990.09
-112440.67
-106911.11
-105646.41
-105071.64
-105618.56
-104947.98
-104655.74
-105794.22
-98417.029
-96494.067
-96363.225
-97584.101
-96615.012
-95144.112
-96232.136
-92177.008
-88897.808
-90882.436
-89378.149
-90784.567
-90177.964
-92090.283
-85302.581
-83557.24
-85474.097
-83964.86
-85727.838
-83208.345
-85335.132
-80317.369
-78124.897
-80331.084
-78365.665
-80094.659
-77673.932
-80837.464
-74159.512
-72433.521
-74894.202
-72772.085
-75151.317
-72005.111
-75511.589
-67590.457
-66613.556
-68363.594
-66444.123
-68694.328
-65094.719
-68477.636
-60246.767
-59194.235
-60948.214
-58894.946
-61250.526
-57385.256
-60897.971
-51794.834
-50968.023
-52393.735
-50400.781
-52491.296
-48986.78
-52232.96
-42515.196
-41601.015
-42919.376
-41054.884
-43068.06
-40087.35
-42669.801
-33035.103
-31902.973
-32968.026
-31271.398
-32997.869
-30766.795
-32734.837
-23459.543
-22180.693
-23212.026
-21681.516
-23220.24
-21836.846
-23196.48
-14562.152
-13175.006
-13998.117
-12696.143
-14099.076
-13565.777
-14338.582
-6737.979
-5219.91
-6016.6729
-4936.2749
-6080.7801
-6092.4288
-6493.8201
-78.151746
1357.6994
1003.4877
1585.1876
521.29171
2.0791178
-365.19838
5210.659
6723.9937
6353.5384
6752.6642
6537.466
5283.9101
4633.4005
9572.8244
10710.438
10768.881
10758.078
10579.573
10039.318
9219.0964
13271.903
14047.03
14238.253
14710.678
14485.815
13856.894
13161.885
16736.454
17539.855
17830.783
18192.124
18000.331
17472.229
16743.685
20251.247
21189.677
21500.42
22084.902
22042.86
21561.095
20668.224
24243.496
25345.64
25850.479
26579.407
26564.112
26151.766
25074.405
28641.62
30005.156
30718.543
31583.228
31613.915
31133.536
29992.52
33193.01
34819.102
35771.824
36727.173
36792.734
36182.898
35197.294
37381.016
39295.266
40471.589
41537.79
41602.769
40706.164
39839.251
40547.876
42650.953
44014.487
45070.442
45132.246
43713.549
43075.854
42070.196
44404.309
45581.182
46834.988
46465.054
45073.536
44685.588
41243.113
42985.536
44846.045
45752.493
45718.042
44588
43282.885
38425.796
40433.389
41467.759
42811.675
42272.765
39789.019
39367.645
33183.496
34773.614
35665.749
36628.671
35925.632
34120.154
33712.178
26432.077
27434.54
28302.877
28966.729
28335.866
27124.15
25957.639
18525.575
19313.177
19980.601
20585.26
20020.693
19107.183
17460.62
10897.265
11455.556
12133.519
12884.771
12010.206
12030.949
9875.0965
4288.5196
4776.7722
5530.2754
6129.8864
5330.0824
6145.9727
3528.0145
195.60265
742.48796
1539.7365
2103.397
1288.787
2508.1545
-368.72798
-2352.3207
-1519.8259
-585.07478
-95.43707
-657.85494
423.01259
-2269.4699
-1853.3427
-819.42123
93.115576
461.44368
-306.58168
285.53266
-1595.1794
-1348.3282
304.62328
1685.5834
1917.1444
1948.3672
1377.5918
-13.784375
865.58387
1202.3894
129.48661
-487.93509
-1310.484
-1571.7009
-790.2269
1871.7669
2405.9034
754.68776
240.76144
-242.3052
-487.29508
999.53396
301.32582
1122.4984
-182.05124
-823.97938
-915.57289
-762.63561
475.12077
249.32067
773.97477
549.69232
661.23115
494.33843
704.09523
908.75718
-1259.1528
-390.82859
-400.87654
-663.31198
-749.4065
-641.47919
-807.59763
-795.22925
378.85928
709.04775
333.31778
269.1894
-302.86268
308.48453
173.12393
1034.253
2064.7994
1868.253
1639.1504
1365.6366
414.53465
228796.25
228145.9
256917.83
252748.21
258284.08
245507.22
236650.77
239236.19
247919.99
258191.67
257491.21
261375.39
244877.68
240472.56
228059.1
232415.68
239880
240773.09
240215.27
225771.83
225934.99
212120.81
221715.17
227554.94
230690.1
227878.66
221531.85
221691.59
206105.96
209268.46
212633.63
213802.61
214735.93
207077.41
205761.16
190977.98
194635.07
197922.2
197697.72
198451.39
192410.4
193685.89
180532.31
181492.56
183495.83
182643.47
186094.42
181979.74
183230.6
165208.57
165886.43
168012.73
165525.4
168249.83
164374.43
166800.16
153826.5
154128.32
154882.23
154234.8
156619.49
152731.21
156411.06
141661.42
140506.29
141404.65
139961.58
141906.56
139290.44
142266.95
131111.66
129994.32
132072.62
129771.66
132072.6
130023.8
131684.95
121946.09
121936.51
121960.49
120063.1
121894.16
119552.19
122510.36
114497.66
113513.15
114254.68
112875.69
114206.33
112592.77
112300.19
107444.21
107485.04
107512.88
106605.74
107870.9
106739.07
108391.48
101667.21
101686.84
101532.11
101145.16
101755.5
100353.67
102719.16
95622.681
95106.191
95940.097
94829.066
96596.61
93684.586
96589.007
88295.199
88603.505
88996.583
88830.674
89713.659
87286.648
90222.769
80862.378
81114.575
81901.804
81194.881
82277.96
79812.898
82474.369
72264.625
72707.443
73071.536
72583.061
73599.821
71171.146
73785.87
63104.178
63248.768
63495.345
63140.187
63877.068
61771.15
64128.791
53349.711
53414.667
53485.718
53108.773
53572.266
51920.374
53948.199
43684.462
43599.743
43411.488
43028.678
43139.475
42037.392
43755.012
34261.828
34240.254
33966.081
33616.697
33445.076
32851.128
34181.493
25832.375
25877.551
25296.07
25068.638
24652.781
24552.902
25781.321
18330.179
18605.162
17904.881
17899.456
17320.134
17584.543
18634.139
12120.344
12746.587
11833.625
12000.602
11447.368
11733.258
12829.023
6944.7135
7776.3157
7036.5093
7014.2063
6858.5503
7093.2176
8389.6229
2474.3887
3342.4106
2813.9427
2766.8504
2917.4397
2929.4911
4501.0118
-1594.292
-562.53065
-1453.6421
-1212.7557
-1000.5623
-1147.22
695.38852
-5823.7048
-4966.4119
-5769.9952
-5554.459
-5247.3038
-5432.0286
-3439.3118
-10478.819
-9751.2701
-10856.696
-10580.948
-10234.581
-10335.61
-8274.1743
-15525.141
-15193.495
-16529.477
-16258.947
-15976.177
-15657.086
-13746.002
-20784.702
-20900.058
-22519.424
-22211.3
-21960.032
-21165.791
-19612.784
-25831.497
-26395.607
-28280.448
-27989.441
-27988.135
-26424.673
-25463.736
-29913.766
-30936.897
-32934.772
-32762.665
-32484.11
-30447.284
-29034.544
-32579.198
-33777.181
-35791.304
-35356.601
-35466.289
-32237.059
-31635.931
-32277.465
-33995.727
-35650.392
-36198.683
-35323.028
-33225.874
-31922.586
-30504.596
-32404.163
-33691.971
-33757.564
-33246.783
-29207.711
-28783.007
-26397.769
-27787.654
-28516
-28629.971
-27665.9
-24465.901
-24045.805
-20349.157
-21484.846
-22175.315
-22120.936
-20820.115
-18287.576
-17005.945
-13025.98
-14025.021
-14083.264
-14298.464
-12550.392
-11395.955
-9338.3379
-6113.464
-6730.3177
-6802.301
-7189.2803
-5240.8571
-5176.1201
-2356.8401
-461.69758
-1494.5228
-1202.7583
-1879.953
507.9499
-399.15442
3097.3504
4403.4621
4175.6397
3733.6954
3109.6873
4932.9634
3379.7844
6298.2027
4024.1863
2458.8019
2003.186
1596.6043
3426.984
2133.7687
5314.0211
4612.873
3546.5326
2719.9434
2396.8544
2424.251
1668.1364
3912.5453
767.80682
-1959.0413
-3150.5713
-3787.5491
-3099.5828
-1523.0397
1159.9855
229180.47
179118.07
167114.34
163066.81
161373.71
158946.05
146976.75
140222.93
132277.95
124357.53
115507.2
107952.95
101013.6
93588.462
87252.881
81044.085
73629.21
67037.419
60206.667
53117.117
46063.392
39230.68
32600.894
26379.156
20530.245
15305.897
10444.316
5575.3075
1200.6593
-2974.2842
-6870.7815
-10338.922
-13309.718
-15378.646
-17374.498
-16849.882
-17314.667
-16875.419
-13530.215
-11117.169
-8413.5662
-5780.1058
-3455.1367
-1555.241
72.431745
1397.5144
2912.2432
141135.14
142081.38
98793.34
119344.59
127033.32
114390.87
115483.4
105056.65
100332.57
92159.421
86174.317
79915.838
73986.405
69469.152
65485.081
61760.661
57212.049
52986.862
48357.833
43175.667
37956.207
32608.001
27284.245
22348.158
17550.458
13523.01
9918.721
6926.1764
4436.9273
1775.7399
-660.54706
-3225.2937
-5771.1543
-8409.4681
-10529.58
-11638.736
-12952.054
-13324.549
-11791.591
-9994.5319
-7115.0834
-4119.3609
-1249.1185
1345.5298
2607.5167
4292.2973
3300.653
74506.143
85200.947
44799.03
74809.084
59950.975
56154.121
54763.57
51261.964
47998.169
44888.651
44320.83
41775.488
41601.022
39547.295
37882.447
36091.875
33419.679
31111.309
28585.038
25597.618
23035.384
20403.25
17991.155
15766.959
13803.28
12041.124
10176.213
8601.9471
7215.0725
5557.5329
3999.6918
2348.0458
791.23366
-467.25321
-1286.7268
-1698.7863
-1567.2157
-1014.3754
-128.90241
639.55327
1666.4878
2047.3259
2119.8675
1669.2447
1260.2484
676.16384
795.45193
9933.7942
28664.586
5354.7934
22981.151
10372.723
19328.379
14809.877
10675.464
12960.361
12583.469
11126.602
13362.618
12456.447
14802.362
14859.101
15104.835
14826.545
14838.059
14402.451
13810.208
13440.394
12810.943
12202.052
11649.328
11089.189
10525.548
10187.068
9748.7678
9367.5192
8812.2832
8307.0937
7526.5002
6812.9277
6008.8556
5192.7446
4531.685
3945.3133
3571.0926
3355.6348
3236.0072
3095.1497
2802.6757
2281.8194
2172.5987
880.75334
1579.1465
-487.39372
-76490.471
-29908.39
-43018.443
-19410.195
-35908.101
-19724.366
-29053.752
-23221.127
-20602.16
-20450.541
-16034.859
-15156.234
-12224.989
-11853.432
-9413.9102
-7990.9048
-5939.3616
-4434.6989
-2845.3455
-1391.3943
204.32634
1666.9483
3269.3562
5180.5655
7252.0092
8599.2056
9828.9531
10961.551
11953.685
12777.394
13301.472
13649.011
13892.17
13860.183
13781.685
13637.019
13422.124
12859.291
12243.711
11021.63
9598.8918
7789.4688
5786.8921
3575.7252
1587.0103
49.157184
-971.24213
-126799.31
-94383.219
-76292.658
-75029.819
-78943.186
-70898.892
-73351.614
-60397.342
-65050.39
-57721.552
-54896.727
-49635.788
-45270.357
-41939.934
-37620.226
-33055.918
-28560.913
-23880.96
-19301.413
-14815.613
-10342.648
-6053.6674
-2026.5605
2033.8851
4826.9231
7530.937
9621.0525
12106.247
14232.837
16102.387
17693.083
19047.721
20057.52
20779.455
21122.521
20910.639
20262.559
19401.765
17552.431
15459.765
12986.008
10129.748
6982.3954
4418.4676
1452.7613
-328.73008
-1884.3902
-169585.6
-125963.18
-131560.76
-121538.73
-133763.06
-122025.7
-120886.03
-111599.87
-106783.88
-96806.71
-89691.753
-82490.105
-74667.751
-67625.477
-60570.215
-54803.549
-49087.502
-43369.991
-37950.801
-32202.218
-26221.869
-19926.677
-13769.852
-7402.6959
-1573.7258
5298.9325
9864.1701
13866.059
17519.181
20692.531
23495.198
25737.992
27557.621
29259.15
29633.506
30388.799
31604.366
29418.411
27933.542
25437.894
21767.027
17456.299
13006.206
8399.849
4222.8287
883.54807
-1461.8298
285185.92
307443.13
305730.89
315317
314221.82
297350.8
275965.81
197022.62
228294.91
228301.99
234523.94
228363.62
217165.72
198840.52
182582.19
197837.27
210594.82
211809.47
207446.55
205889.53
195544.34
170901.89
176380.91
180633.07
184467.48
178961.59
180739.54
163933.01
161477.62
166949.14
173898.53
171434.47
171631.76
167371.12
159173.18
153033.84
158459.97
156248.09
161057.02
156152.66
156612.13
156070.6
144288.37
145700.61
146847.72
147483.13
143742.53
145174.02
143028.55
134312.96
139398.53
135684.08
139958.89
137262.66
136000.96
135338.83
126958.92
127180.09
124278.75
128040.33
123109.3
126854.22
124811.44
116697.97
118633.92
117408.06
119921.6
116351.28
118882.93
116339.55
109143.08
111128.43
108102.12
110274.77
107732.52
109531.88
108828.98
103027.8
102250.5
101553.27
102732.57
101498.99
102656.99
101041.75
95534.344
96128.829
95147.524
96790.264
95003.211
96091.285
96010.231
89484.561
89670.368
89145.063
90416.012
89173.714
90264.213
90504.138
83733.389
83894.072
84160.857
83877.689
84169.837
84044.643
83758.159
77073.264
77956.048
78052.129
78581.271
78235.733
78057.103
79201.552
71195.901
71571.105
72259.042
72171.342
72206.891
72614.239
73313.938
64583.673
65419.004
65684.861
65548.263
65691.134
65757.123
66758.137
57783.162
58306.739
58589.499
58692.286
58780.209
58906.801
60006.668
50497.854
51071.146
51335.947
51397.386
51328.925
51729.774
52823.053
43235.508
43708.449
43870.657
43852.508
43892.381
44446.029
45343.932
36046.895
36360.755
36375.798
36340.906
36558.713
37241.319
37988.295
29316.23
29288.689
29272.692
29187.641
29709.065
30459.428
31062.501
23120.434
22854.123
22835.502
22501.024
23242.112
23918.747
24603.077
17649.425
16907.233
17068.444
16725.328
17695.488
18465.466
18979.584
12465.065
11661.252
12030.765
11456.658
12601.549
13259.144
14107.616
7828.9247
6950.6222
7293.5772
6943.4001
8092.9888
8526.6159
9630.0699
3373.5981
3128.0202
2700.6202
2904.6999
3786.3549
4129.0729
5609.6587
-536.49359
-1371.6075
-995.42534
-1202.7484
-256.41886
139.04133
1905.4838
-4574.9845
-5302.2323
-5228.0287
-5235.0901
-4350.6911
-3898.1276
-1913.2399
-8388.0402
-9379.6419
-9237.7193
-9180.5972
-8531.2428
-7828.2376
-5802.3811
-12003.909
-13235.413
-13244.42
-13132.216
-12558.575
-11649.259
-9686.9922
-15302.009
-16849.923
-16966.398
-16765.219
-16316.864
-15253.29
-13522.654
-17987.542
-19802.577
-20009.893
-19930.277
-19525.702
-18374.333
-16326.218
-19930.065
-21775.02
-22208.573
-22058.629
-21503.448
-19725.66
-18728.408
-20373.71
-22482.103
-23061.83
-23084.822
-22297.978
-22391.22
-20337.77
-20609.963
-22159.425
-22999.692
-22358.536
-22531.072
-19560.84
-19272.533
-18899.677
-20021.598
-20998.924
-20641.837
-19416.888
-20058.723
-17473.756
-16277.304
-17018.294
-17679.013
-17965.906
-16524.48
-17022.343
-15067.739
-12912.3
-13488.541
-13924.612
-14024.43
-12601.935
-13307.903
-10972.749
-9158.9164
-9020.8488
-9378.9724
-9390.6233
-8469.863
-9241.0335
-7131.9289
-6005.8364
-5727.5027
-6271.5685
-5862.971
-5327.2589
-5614.8683
-3244.9684
-2147.8875
-1731.5976
-2003.0701
-1537.1051
-1375.6925
-1650.6086
42.841554
-1026.3034
-709.03133
-1552.5224
-367.18351
-829.62726
-469.23628
1711.5735
1671.7963
1031.6258
1155.6617
1766.1786
1079.0621
2046.1094
3342.4777
1785.1958
1196.1207
623.87992
1181.1401
564.38486
1951.4921
3470.2575
2108.9862
1083.625
587.20186
399.68968
284.23061
1897.9153
1509.4772
186572.23
195583.92
213276.14
209133.05
215750.87
198131.08
194716.63
141061.28
177326.21
183438.56
188526.88
187637.77
173741.06
160584.32
136538.18
128125.31
142678.4
137178.4
143486.18
128499.28
132960.43
114143.87
122911.94
130330.62
128737.83
130774.16
127037.45
110865.65
115372.38
117691.84
123528.4
119944.07
126086.7
115367.77
117871.19
105632.65
107903.86
109878.12
109537.28
108022.6
111030.94
107983.07
101381.67
104304.24
109262.61
104652.36
109134.51
107590.38
103302.12
94824.925
95584.601
96432.035
95164.005
97552.53
95558.595
97015.049
89286.992
89523.049
94144.269
90452.161
91659.294
92022.43
91084.023
82531.323
84300.053
85569.518
81458.141
85332.593
83605.571
84769.367
78037.603
78583.781
79582.125
77379.687
79214.55
78562.853
78328.56
72593.631
73010.507
75305.056
71875.273
74755.309
72753.009
74723.075
67823.446
68797.055
70837.177
66900.738
69679.933
68106.217
68652.681
63814.48
64818.778
65893.9
63317.173
65340.292
64182.009
63937.998
59801.332
61441.507
60934.744
59822.647
61353.601
60051.229
60562.844
55842.162
57405.595
57136.448
56858.287
57249.481
56711.633
56764.932
51540.496
53656.222
53047.165
52888.139
53428.281
53164.985
53357.195
47407.568
49527.549
48849.929
49226.036
49535.289
49090.967
48726.051
43008.408
44964.623
44494.651
44808.603
45127.076
44690.116
44573.823
38340.487
40478.332
39901.507
40219.65
40414.308
40042.604
39715.897
33722.702
35695.159
34932.236
35190.78
35459.551
35146.371
34673.248
29070.408
30881.428
29939.357
30283.33
30478.508
30078.093
29664.061
24488.569
26194.69
25131.286
25526.223
25523.145
25094.599
24799.38
20069.085
21732.513
20620.287
20957.033
20912.831
20444.497
20270.084
15863.987
17548.853
16051.576
16670.799
16743.857
16165.577
16530.116
11909.273
13487.2
12634.609
13002.866
12630.848
12412.296
12372.021
8632.252
10681.111
8470.949
9513.4422
9572.9374
9317.9291
10176.744
5205.3031
6603.059
6032.9003
6346.1259
6369.3501
6193.491
7005.6062
2334.9675
4174.4753
2690.8324
3806.8229
3443.5373
3841.3215
4416.8607
-438.99325
1282.9959
16.097869
1043.6844
848.10316
1186.5996
1870.8683
-3027.5379
-1341.863
-2598.1668
-1500.936
-1829.3481
-1249.5202
-806.7106
-5411.5786
-4101.5298
-5162.7808
-4263.7491
-4488.6124
-3920.2251
-3555.8795
-7697.8063
-6723.0729
-7652.2085
-6979.3413
-7232.7534
-6535.766
-6053.1141
-9727.5781
-9094.7775
-9982.6775
-9507.4006
-9620.8029
-8743.8547
-8503.8121
-11188.583
-11108.038
-12033.959
-11769.392
-11895.127
-11197.346
-10574.31
-12563.805
-12809.267
-13614.695
-13342.787
-13461.011
-12148.581
-11415.201
-12871.342
-13360.997
-14137.591
-14138.682
-13878.343
-13199.968
-11648.643
-12504.041
-13117.238
-14186.652
-13844.257
-13845.838
-12908.998
-10759.679
-11226.696
-12069.403
-13215.855
-12454.41
-12679.908
-11646.031
-8532.2763
-9425.5786
-10559.891
-11357.46
-10380.761
-10480.397
-9241.1847
-5908.8645
-7182.6475
-7993.9427
-8340.704
-7676.9871
-7373.5817
-6648.6246
-3282.6657
-4394.5091
-5340.8238
-5459.3994
-4765.7005
-4384.7591
-3618.4461
-421.34228
-1810.1408
-3029.5949
-2166.6351
-2053.8672
-1078.2972
-968.06017
1528.038
560.33382
132.58374
857.05644
1039.2419
1680.1875
1567.2163
3276.9643
1691.8613
378.94556
1955.0155
1354.9682
2220.4233
2140.228
2946.1223
3433.0057
3618.156
4454.1265
3885.9008
4456.9728
4266.7499
3910.4811
2019.7048
934.01325
1702.3615
1151.3995
1135.1232
1774.9533
1518.4528
116168.16
116049.95
113283.61
122117.1
118118.38
110633.17
105252.65
82646.339
116472.44
110453.85
119470.59
107039.56
107378.41
90867.342
78489.688
70189.803
76866.009
77592.951
74976.13
68924.653
69866.66
59648.744
72807.918
76926.064
82055.27
75039.231
79382.946
63475.301
65100.114
62140.184
65498.574
61041.526
63315.119
57000.961
62006.103
55935.788
63561.317
58980.404
61818.677
60063.23
60690.461
59428.699
55224.042
58397.262
52222.936
55779.151
56280.428
52391.376
54174.711
51671.38
57703.549
49939.001
54269.582
51503.546
49565.015
53178.435
50237.776
54693.458
46182.149
49383.73
48172.024
47971.636
49150.346
47992.565
51018.156
42944.06
46212.645
46216.267
44514.326
46253.211
45186.952
48118.917
40565.818
44872.347
43081.751
42650.873
44007.845
42284.061
44917.209
38068.412
41207.693
40300.412
40284.632
41435.388
39132.609
43483.854
35846.648
39500.676
38958.878
37865.847
39039.719
37240.342
39944.638
34599.71
37370.262
37544.126
35059.626
39018.404
35144.099
36852.19
33243.921
35220.249
35417.883
33949.665
36650.142
32496.578
34186.217
31720.002
32813.99
33559.027
31977.796
35273.108
30199.444
31822.813
30005.122
30997.234
31361.157
30319.996
33038.242
27974.794
29372.646
27795.923
28738.349
29082.999
28158.101
30584.522
25637.496
26920.212
25576.398
26399.927
26605.04
25667.926
28334.05
23323.304
24495.505
23078.557
23910.649
23969.315
23314.646
25708.196
20998.313
21863.069
20522.647
21287.388
21428.135
20753.088
22984.153
18623.43
19378.236
18023.197
18941.765
18855.481
18239.912
20425.989
16450.827
16874.677
15691.011
16479.636
16230.096
16085.313
18022.441
14376.008
14508.783
13317.719
13964.014
13886.683
13925.427
15897.798
12414.137
12372.694
11376.481
12144.947
11799.084
12254.977
14003.114
10613.232
10474.136
9433.0182
10238.665
10108.784
10662.517
12249.628
8774.4731
8713.2907
8040.0583
8749.2568
8672.8942
8930.0423
10710.232
7287.5717
7146.1227
6625.2753
7271.9891
7339.6149
7760.3149
9235.6519
5681.9594
5442.2168
5198.6523
5674.3593
6101.1987
6358.0821
7955.3012
4132.1429
3894.8462
3744.1099
4319.2689
4671.4557
4989.6377
6419.8649
2650.4511
2380.0577
2339.3573
2852.4734
3156.6114
3461.6747
4837.459
1268.4453
837.95514
871.6706
1227.9299
1530.3765
1937.3834
3308.8875
-67.480981
-539.77646
-483.51111
-252.14267
110.96407
559.33504
1629.3145
-1120.7734
-1716.3936
-1705.8514
-1690.0737
-1273.8618
-942.64329
173.66624
-2161.1199
-2683.8448
-2676.2496
-2643.4665
-2230.2784
-1674.3955
-829.58419
-2635.8599
-3042.9003
-2975.2488
-3192.1916
-2645.2356
-2372.005
-1614.5957
-2931.5391
-3004.7031
-3070.6468
-3155.4375
-2729.5492
-2030.966
-1650.1515
-2790.0647
-2641.6785
-2543.4028
-2553.978
-2010.1542
-1283.2564
-1423.9328
-2488.8999
-1819.9076
-1328.6195
-1445.9455
-879.81378
-190.55135
-578.21178
-1846.094
-856.75641
-82.581049
-227.63651
483.9183
1227.7077
392.73195
-854.41784
778.39227
1579.1376
1457.8295
2124.0869
2349.6475
1402.3872
-238.28146
1220.7488
1887.9804
2065.1073
2600.9666
2977.6953
2468.3589
978.77241
2976.0298
3738.5643
3799.1808
4413.9571
3985.2827
3193.1129
520.69183
1992.2829
2103.2693
2492.7439
2647.4261
2115.6463
2790.2092
1815.6988
3158.7186
3349.2849
3530.8234
3426.3332
2955.8556
3637.0128
1001.9239
873.68538
1223.6211
1098.7256
1061.842
1022.1313
2236.4819
1939.8343
2610.1868
1743.9475
1312.8636
1353.2042
543.09424
878.80556
22232.187
15392.667
21193.432
20892.732
19647.313
18020.484
24377.534
10316.915
18680.212
20062.612
24099.771
19560.274
21241.62
14728.882
20339.97
3347.529
9139.5461
3811.2243
8063.6805
4408.1692
14390.533
8219.9524
7962.3327
17301.508
14315.138
14077.68
18697.485
7638.9303
13966.924
13333.66
14075.049
4865.2143
14391.651
1117.9776
16202.418
11703.575
7575.8214
7344.961
11136.381
10283.088
12764.889
10195.601
12322.711
12458.181
16167.699
10106.927
14692.309
10267.371
15045.79
13043.211
10363.21
10577.032
10974.247
11601.518
12936.972
12393.114
12748.871
10252.49
14770.889
10621.595
14662.744
11789.772
11163.256
12299.436
12036.124
13153.134
10810.924
12565.168
11529.762
12603.915
12852.464
11653.207
12946.904
10511.635
12560.265
11253.763
11761.715
12138.049
12236.968
12178.996
11597.242
11997.85
12296.762
10975.619
12313.834
11679.901
11836.873
10968.659
12591.645
11124.385
11828.255
11362.916
11760.339
12676.328
12472.778
10381.024
12699.989
10130.573
11233.773
12525.413
9946.0003
12198.949
10711.398
12076.559
11260.929
10303.775
12134.504
9519.8799
12832.602
9904.1077
12423.711
11085.1
10171.304
11591.164
9774.8214
12508.065
10035.505
12342.086
11235.186
9767.4338
11615.01
9684.3307
12441.486
10051.514
12266.604
10976.267
9887.4809
11518.419
9896.5849
12371.201
10133.365
12202.746
11135.737
9881.3914
11556.174
9999.4666
12333.164
10226.401
12328.321
10945.355
9966.8288
11594.391
10237.268
12362.032
10464.648
12188.179
10839.514
10010.215
11768.92
10498.377
12455.189
10508.385
12178.094
10901.727
10079.56
11725.147
10661.608
12065.467
10495.447
12060.847
10777.788
9901.3578
11750.706
10851.686
12098.748
10909.654
12230.146
10606.329
9801.1809
11369.643
10730.865
11802.151
11070.56
11975.902
10511.04
9286.5869
10890.391
10760.53
11500.371
10896.086
11603.346
10514.744
8829.7777
10727.466
10159.394
11172.364
10508.884
11464.017
10422.404
8440.4881
9997.2249
9652.6996
10827.057
9996.3378
10980.864
10201.298
7911.3199
9577.301
9191.9257
10441.62
9611.3809
10566.557
10130.574
7572.3333
9026.2582
8694.58
10016.808
9203.6349
10015.39
9789.5364
7215.3371
8614.5139
8355.9701
9672.5801
8821.0349
9591.8815