/*--------------------------------*- C++ -*----------------------------------*\
  =========                 |
  \\      /  F ield         | OpenFOAM: The Open Source CFD Toolbox
   \\    /   O peration     | Website:  https://openfoam.org
    \\  /    A nd           | Version:  6
     \\/     M anipulation  |
\*---------------------------------------------------------------------------*/
FoamFile
{
    version     2.0;
    format      ascii;
    class       pointScalarField;
    location    "0.87";
    object      E;
}
// * * * * * * * * * * * * * * * * * * * * * * * * * * * * * * * * * * * * * //

dimensions      [1 -1 -2 0 0 0 0];

internalField   nonuniform List<scalar> 
28033
(
152363.55
164985.65
-3640365.4
-1670988.8
181017.57
195373.68
-2504015.6
-5449195
104158.11
72196.02
49275.213
34114.318
20686.718
13159.993
9228.527
8568.5306
13371.213
19852.965
33216.033
50667.11
73264.627
99301.611
152850.29
-2030936.2
-2016791.4
-2004577.6
-1994538.5
-1984040.9
-1973356.5
-1963788.5
-1953547.5
-1943559.5
-1933604.8
-1923859.4
-1913876.8
-1903745.5
-1894465.3
-1435513.8
128886.14
87978.711
85592.316
85442.489
87533.553
88350.925
88997.133
89031.066
88448.875
87569.813
86299.692
84771.39
83042.273
81173.45
79184.642
77114.779
75133.645
72904.673
70930.209
68661.382
66739.258
64637.157
62626.865
60626.554
58662.695
56923.707
54871.028
53165.282
51418.476
49622.879
48019.008
46417.3
44891.895
43103.924
41638.409
40212.372
38801.2
37465.223
36039.617
34785.995
33445.18
32129.925
30908.138
29660.446
28450.708
27243.297
26037.528
24839.326
23641.816
22454.862
21261.957
20086.962
18914.349
17754.894
16618.197
15492.356
14398.516
13325.85
12291.208
11291.366
10316.451
9413.21
8526.6107
7774.5207
6885.0169
6237.0884
5647.1181
4802.8706
4322.8099
3714.6593
3201.9423
2585.8699
2232.4206
1631.7758
1427.0656
848.04191
753.9466
236.08673
209.76218
-246.59508
-173.48977
-720.34574
-535.41157
-1043.7002
-924.99941
-1183.4204
-902.38505
-1257.6915
-862.26851
-508.1193
-1253.3477
10.700535
-1214.4531
-3156.3433
-1899.4736
123779.45
72621.499
82444.539
80297.023
81915.075
83599.286
83667.158
84271.51
83929.901
82908.87
82155.542
80395.054
78884.346
77210.648
75252.497
73500.15
71253.607
69332.894
67338.509
65408.309
63246.552
61533.643
59339.013
57660.299
55647.527
54013.001
52127.184
50344.167
48632.863
46742.364
45138.614
43463.316
42022.518
40557.798
39207.471
37787.26
36215.584
34857.098
33478.602
32293.981
30991.073
29792.501
28601.459
27418.047
26260.954
25113.323
23970.54
22836.623
21712.275
20579.759
19469.35
18350.584
17249.429
16155.515
15083.062
14018.313
12987.693
11981.741
10991.105
10061.224
9134.0223
8275.9103
7414.9109
6649.3602
5853.6783
5208.1034
4533.7775
4030.5695
3434.3276
2737.3809
2242.178
1666.4659
1351.9052
846.79488
596.01904
128.48337
-28.808478
-410.12328
-580.61793
-810.54008
-971.18411
-1112.6708
-1246.4319
-1282.0479
-1440.7748
-1383.1126
-1440.4886
-1455.3619
-1456.4315
-1186.6383
-1616.1453
-1270.27
-1136.3258
-1140.5892
-1708.7957
119566.51
80178.506
57266.438
43701.401
24909.207
15801.288
11888.663
11360.727
16043.515
27449.932
38449.536
59472.68
83999.556
119521.74
152246.73
247872.51
99149.419
69157.963
92508.309
83320.773
90924.919
88100.121
90607.059
87891.22
88643.236
87025.885
84656.146
83774.641
81158.369
80703.411
78040.521
76660.052
71854.308
72131.62
67583.323
66210.771
64801.661
62467.587
60704.529
58566.13
56058.119
55451.242
51962.565
51656.462
49120.175
47443.261
45877.149
44133.273
42612.772
40072.869
40443.37
37779.927
36549.974
35130.089
33716.901
32390.168
31064.5
29754.174
28479.192
27200.87
25939.338
24664.799
23401.212
22120.77
20852.822
19580.115
18318.201
17065.369
15822.689
14605.324
13394.888
12226.402
11073.335
9962.3845
8882.7368
7849.8198
6848.0301
5908.9465
4998.1922
4134.8446
3373.0342
2545.4905
1025.1946
3025.4618
483.13098
48.810171
-522.62677
-1041.0347
-1483.2476
-1901.4618
-2299.2402
-2629.9202
-2948.4408
-3218.5529
-3447.6663
-3692.5774
-3839.2499
-4057.7378
-4132.9571
-4313.6265
-4310.6186
-4437.3223
-4388.2498
-4376.5173
-4258.0456
-4174.1496
-3772.6524
-3539.3502
-2633.2181
-6238.7245
-4020098.9
-3788989.1
-3384100.9
-4081667.8
-3419264.4
-4124092.1
-3455276.5
-3905835.1
-4188783.9
-3950703
-3528555.4
-4257161.2
-3566782
-4308041.9
-4070899.5
-9090.124
-3680.0769
-911.44452
-883.34093
-1312.8549
-1488.6158
-1737.8259
-1791.6862
-1923.6391
-1896.8776
-1815.9197
-1789.144
-1650.5479
-1658.3833
-1502.1696
-1409.6673
-1164.9615
-964.10777
-664.76984
-354.47749
-12.431317
378.68163
805.55566
1271.3556
1740.2552
2720.2285
3958.7368
2356.8182
4280.4989
4881.0317
5679.3283
6496.6605
7333.9439
8224.2223
9156.1673
10122.481
11130.71
12168.893
13249.008
14344.058
15480.164
16621.145
17795.727
18969.082
20166.157
21362.045
22573.646
23779.311
25008.334
26228.294
27465.786
28697.844
29994.242
31238.57
32543.86
33907.279
35583.475
37222.735
37784.933
39903.988
41657.563
42118.963
44481.639
46405.712
47923.915
49920.131
51294.63
53110.441
55055.637
57302.195
59311.461
61238.215
63284.506
65675.76
67327.406
69848.027
71712.863
74290.27
76153.762
78360.535
81422.952
82825.669
84546.084
87022.256
89053.757
88744.805
91506.424
91177.052
91205.359
88406.159
89465.576
89827.545
88111.005
80473.508
139212.68
114669
106927.86
103925.98
104102.86
106415.61
107790.85
107736.84
108626.24
108708.26
108116.36
105185.76
103342.52
105320.78
107958.37
119604.09
111339.68
114624.72
111480.66
117259.65
117229.87
116834.88
124403.02
132333.34
128604.14
127094.92
120886.35
116003.79
114378.55
111357.5
126318.5
-1878848.7
-1879663.9
-1879213
-1879384.7
-1879405.1
-1879401.7
-1879430.8
-1879395.5
-1879376
-1879432.2
-1879412.1
-1879478.3
-1879390.9
-1879650.5
-1880029.7
-4093421.2
-4093973.9
-4094305.2
-4094389.8
-4093965.1
-4094067.5
-4094096.8
-4094087
-4094131.5
-4094062.7
-4094119.1
-4094303.3
-4094116.2
-4095162
-4093822.1
97308.997
77683.801
72686.78
71777.963
72364.157
72851.721
73533.813
73610.659
73397.865
72944.199
72021.317
70950.702
69578.126
68225.605
66517.835
64986.942
63217.893
61540.78
59769.492
58129.498
56423.621
54691.881
53134.58
51399.771
49916.978
48308.808
46743.528
45322.859
43862.991
42420.524
40962.027
39716.427
38320.148
37134.151
35988.506
34712.916
33664.321
32386.195
31393.177
30289.06
29195.114
28067.336
27157.719
26020.496
25095.42
24013.302
23046.824
22028.749
21043.354
20046.375
19076.862
18091.184
17137.471
16179.638
15248.741
14323.791
13431.202
12552.697
11706.628
10886.486
10091.743
9333.6657
8591.9546
7919.5777
7066.8149
6599.2279
6029.5033
5657.4044
5134.8701
4479.2782
4143.7392
3614.6192
3346.1086
2906.1031
2580.6213
2280.6507
1918.3298
1739.4853
1317.591
1298.3367
842.51973
836.704
826.90693
363.09713
368.18082
4.5511712
207.84229
-232.61989
351.17861
-672.96351
263.17466
-205.62652
-419.48451
2168.4706
1519.7586
65011.152
57113.275
57180.103
55966.284
56166.794
56080.247
56090.041
56119.783
55857.412
55494.51
54662.572
54062.396
52998.889
51982.423
50675.397
49643.875
48289.173
47018.42
45693.319
44390.362
43084.477
41800.439
40601.941
39290.916
38127.647
36933.967
35820.769
34622.78
33549.939
32477.887
31432.901
30425.014
29445.984
28427.939
27470.846
26446.209
25679.573
24693.92
23902.126
23019.104
22286.049
21357.643
20642.917
19793.57
19060.571
18279.626
17516.756
16775.613
16016.249
15292.26
14548.614
13832.073
13116.476
12410.09
11720.876
11038.785
10378.062
9731.5215
9099.9956
8502.6828
7905.2561
7359.6826
6825.7802
6309.7267
5734.5034
5655.999
4793.7996
4713.8339
4240.1936
3939.6221
3607.6155
3162.854
2908.3954
2522.0881
2368.8648
2019.0609
1880.6589
1586.2534
1505.1388
1180.5667
1243.3328
761.99245
1037.3227
663.8711
941.10127
614.13454
922.06766
576.62658
618.8937
662.89732
826.04342
133.63576
1516.4129
461.94586
662.49527
41214.962
37524.826
41108.793
40917.054
41567.112
40889.389
40967.224
40676.636
40396.885
39939.76
39499.01
38908.854
38119.491
37357.545
36542.694
35626.765
34654.849
33735.695
32796.849
31853.4
30965.229
29933.99
29115.132
28078.22
27312.526
26365.704
25535.641
24685.785
23949.802
23110.616
22359.07
21640.23
20911.115
20211.558
19600.991
18852.949
18227.321
17455.837
16960.749
16395.565
15654.367
15208.97
14641.784
14031.714
13519.992
12933.748
12396.065
11877.842
11331.633
10827.962
10304.175
9806.9848
9304.5976
8817.6609
8337.4439
7866.7962
7407.3368
6960.9784
6522.3279
6104.7731
5697.225
5306.9197
4939.4074
4555.1072
4305.7989
3902.0027
4029.2861
3532.9204
3031.215
2658.9095
2407.9246
2098.1161
1898.0846
1640.4121
1491.3368
1212.8282
1107.6623
899.38942
745.75428
623.44811
446.90334
408.2316
181.69283
132.66821
203.54544
346.0526
401.55701
-44.568977
637.18976
-194.85848
390.56964
294.29004
553.48302
479.37346
487.90237
26390.155
23184.743
26220.092
27465.747
28056.527
28092.8
28059.187
28017.237
27580.88
27517.259
26943.411
26711.073
26041.988
25721.596
24924.777
24503.781
23775.318
23185.752
22477.425
21829.113
21161.915
20524.781
19935.898
19288.978
18741.819
18101.218
17608.98
16989.175
16453.315
15912.47
15413.323
14880.248
14404.821
13899.731
13511.618
12837.716
12699.533
12257.576
12097.788
11566.746
11262.939
10778.299
10376.974
9998.1517
9688.2632
9293.1701
8968.4629
8608.3579
8256.7763
7926.9655
7577.4456
7255.6102
6919.5807
6601.4967
6279.5724
5970.3267
5656.6945
5365.4841
5055.9194
4790.9946
4491.8785
4235.8193
3973.881
3744.5905
3448.7881
3325.1781
2963.8516
2979.3564
2689.3709
2565.8981
2493.9346
2335.0072
2052.9757
1850.9519
1758.3907
1545.8359
1649.0289
1235.3527
1487.6883
1017.6431
1327.5675
792.36662
1265.4716
577.50843
784.83367
402.68986
555.94354
431.95394
669.98817
63.773498
1248.2643
-174.69547
1561.5613
50.090738
1042.9167
16355.637
12778.943
15557.983
16217.344
17338.317
17290.28
17495.38
17164.569
17099.852
16855.837
16630.199
16374.457
16047.546
15723.866
15321.792
15001.268
14486.128
14175.546
13723.421
13335.233
12958.669
12512.894
12165.496
11706.492
11374.532
10952.37
10627.919
10220.564
9970.7466
9578.9251
9293.8129
8970.2375
8668.9013
8399.7694
8084.0344
7702.3999
7892.8007
7044.4036
7454.1834
7323.8392
6982.7926
6710.5806
6529.0109
6243.293
5997.9836
5715.4632
5503.4267
5252.0521
5038.1181
4816.9622
4600.7818
4396.0121
4184.9484
3987.5514
3787.2702
3593.2201
3399.5597
3216.8409
3023.9888
2850.7017
2679.17
2494.082
2335.4508
2205.1148
2015.7385
1879.7966
1930.4095
1572.0099
1554.7705
1264.0816
1289.4046
1116.2658
1140.609
1267.3499
1162.2133
1166.7753
1025.6008
988.78273
912.7516
833.56969
692.59296
843.44139
412.45871
699.08246
387.73865
476.28539
604.42675
282.95662
598.20645
424.04275
717.42408
237.87219
1176.9506
-16.56657
1274.3901
9640.2941
6220.1403
7425.2708
7883.6745
8687.5164
9083.6158
9082.4116
9332.3295
9163.3997
9278.515
8990.581
9083.2903
8732.8364
8771.4596
8422.0669
8379.8246
8064.0768
7974.5773
7644.398
7525.0534
7256.7219
7072.2852
6860.4659
6647.1573
6492.3415
6269.9515
6114.1209
5906.1728
5727.9376
5514.2883
5384.8829
5174.0892
5048.8063
4873.4237
4704.0914
4659.7662
4413.8805
4835.2069
4815.8762
4378.4651
4339.82
4119.0476
4035.3559
3903.8799
3774.0908
3654.2915
3541.932
3435.4946
3327.2329
3227.0269
3120.9478
3025.9956
2924.5963
2829.1449
2730.5299
2634.6865
2535.2725
2442.2596
2337.9648
2253.7994
2132.4285
2069.4268
1951.2346
1861.5453
1772.0043
1713.921
1578.5035
1520.4014
1501.312
1422.0504
1255.7136
1221.6308
906.70162
790.49977
989.66636
811.87435
899.67017
637.73432
830.57399
405.57062
825.02206
194.50944
728.14425
245.6443
504.42373
453.45906
418.80967
338.51428
677.44343
60.797219
970.96881
-79.294153
1540.3219
-190.06183
1505.8979
6626.9108
2203.4213
2857.218
2515.3155
3222.6122
3293.7928
3634.6373
3653.4602
3774.9851
3795.9382
3811.996
3847.5056
3775.1135
3784.9941
3635.4579
3660.6641
3437.0146
3450.6949
3246.3272
3208.3527
3047.2887
2965.5386
2841.0459
2738.2389
2658.3709
2520.5715
2476.4987
2350.1039
2320.4175
2217.8268
2162.5609
2063.2802
2019.7879
1905.4893
1908.3814
1754.8234
1822.7629
1625.6867
1756.7145
1484.7366
1707.8908
1605.0287
1636.9628
1602.3169
1574.2253
1540.1347
1537.5361
1508.7601
1504.2701
1492.4676
1489.7678
1481.2001
1478.7792
1470.7399
1465.4792
1453.9931
1442.3811
1432.9501
1407.477
1395.0526
1371.8337
1350.1268
1310.4601
1303.3161
1266.9649
1222.9089
1217.8421
1184.6695
1185.517
1075.6699
1205.0154
1031.9036
1040.7575
991.05937
895.78477
948.44916
722.18554
885.8215
652.1285
836.72953
580.6995
749.3958
615.12849
556.06728
624.67653
407.60606
487.02407
408.27469
542.09631
332.8216
970.28095
248.7539
1376.4183
-237.06784
1942.7015
5609.2499
1116.2356
704.47655
322.81173
455.25358
794.49153
918.67523
1192.2575
1291.7918
1544.3585
1511.9326
1766.8098
1671.7681
1864.3565
1788.5617
1919.7606
1813.0473
1955.5581
1808.1011
1922.6754
1795.0609
1833.1692
1780.8823
1805.932
1772.0693
1754.2544
1744.5403
1697.3727
1683.923
1620.5974
1614.2675
1582.5292
1542.5891
1542.2783
1495.4605
1501.7016
1444.0769
1534.813
1419.6581
1388.8245
1370.2174
1287.3475
1263.3532
1268.6478
1259.8399
1291.5081
1296.9101
1314.6906
1326.5566
1345.401
1355.0138
1375.4272
1381.1114
1396.6753
1401.6398
1403.1172
1405.9712
1401.6937
1381.9575
1389.774
1353.2069
1340.563
1316.2729
1300.9006
1240.1348
1240.2637
1196.0311
1147.4047
1066.6135
1101.2523
930.5429
938.44173
886.04638
802.33921
851.02998
737.04663
765.81218
655.14015
668.9429
468.17171
644.63154
256.20628
592.15502
147.03284
488.11125
248.59074
415.21915
464.19974
423.24911
358.55102
734.43233
-255.19368
1314.9102
-231.49532
2049.485
7735.0052
2317.0387
1618.7819
821.62793
798.16541
936.23443
1055.4847
1174.3519
1331.9339
1458.3983
1567.0748
1673.6789
1727.3384
1816.5972
1775.2176
1868.8613
1755.532
1843.5634
1728.3348
1814.5566
1837.1897
1944.2711
1796.3852
1762.1101
1674.1963
1634.1195
1594.8499
1526.3228
1529.8493
1445.2178
1454.6349
1354.6078
1342.9665
1289.1067
1238.3048
1203.6223
1167.1299
1148.4005
1102.8433
1071.2965
1053.671
1057.1844
1060.1567
1051.6975
1047.392
1020.8414
1028.9175
1021.3726
1035.2749
1037.9539
1058.2156
1063.7813
1079.4802
1090.7146
1097.2165
1102.2771
1107.2565
1097.6109
1096.8203
1088.1156
1060.329
1060.5134
1029.5182
1005.5841
978.65637
972.39806
920.44527
890.92948
930.80271
824.39397
849.81927
842.40456
644.77924
739.91895
535.96082
675.50289
437.84649
612.15024
266.24954
623.38818
207.74297
468.31777
400.30696
161.86403
620.18279
-10.650661
483.78218
76.36957
91.306373
366.04828
227.56139
274.75013
1132.9454
-246.07195
2006.0675
12591.237
6546.7522
5614.8426
4894.2485
4933.6632
4977.56
5100.247
5174.3838
5371.3119
5615.5348
5623.232
5888.5716
5896.8906
5998.8878
6003.1496
6040.4603
5927.2897
6000.3988
5742.7479
5748.3724
5672.2325
5450.5282
5194.1819
5097.1448
5023.5613
4938.0651
4798.4954
4731.8501
4601.4034
4495.025
4386.7389
4273.4744
4183.4677
4054.0391
3985.3345
3874.4799
3771.6521
3700.8196
3574.0507
3526.0953
3420.8108
3364.8417
3238.452
3191.1844
3106.5175
3057.9381
2999.3782
2949.1815
2889.9482
2845.4727
2790.3699
2740.8094
2689.8087
2637.7457
2579.7059
2525.5025
2459.287
2398.1592
2328.2661
2253.109
2182.9983
2113.2176
2015.7159
1963.1508
1852.3545
1785.1363
1674.2066
1648.2954
1493.7464
1449.1346
1385.0352
1237.5408
1220.7005
1241.5871
1023.4184
870.99484
874.15382
706.52893
885.38834
512.34086
738.41517
465.14998
537.5304
393.44829
460.26549
275.99446
400.82998
390.08404
332.0365
382.74968
467.94781
123.99996
621.90266
-355.98766
2141.35
14399.481
10964.992
9687.1327
9695.87
9493.4151
9667.4362
9435.6856
9535.7946
9642.7404
9773.6467
9712.3916
9933.8463
9790.5373
9844.242
9671.8322
9622.3531
9385.9979
9307.9769
9005.5984
8927.8386
8771.2599
9795.8125
9334.168
9232.5266
9030.8867
8708.9778
8526.9854
8194.3622
8000.0608
7705.0691
7503.3831
7276.5761
6993.7041
6811.1868
6540.9607
6318.9209
6108.6582
5881.3868
5693.3455
5469.6958
5290.8674
5073.9537
4920.5561
4725.2647
4569.0704
4383.4999
4231.24
4065.5896
3920.7191
3770.5005
3632.3477
3490.0485
3356.9351
3218.3587
3085.7582
2948.7221
2813.5576
2679.6425
2535.6281
2402.4082
2268.3669
2116.3849
1994.6529
1871.4239
1723.1801
1625.9252
1510.2486
1363.362
1264.4818
1181.2764
1026.1407
985.63979
863.85203
751.98767
1130.0551
907.19164
784.59105
788.47894
537.54993
728.57327
467.1976
624.79613
467.22402
537.18522
519.02744
454.60847
647.56712
412.77018
606.38907
619.71023
407.73993
668.40891
896.82088
620.0941
1820.4678
33097.5
20370.35
21049.732
20365.937
20398.137
19821.564
19940.191
19881.526
19906.166
19960.945
20016.785
19951.415
19857.934
19622.024
19505.263
19055.586
18831.011
18388.157
17998.83
17616.042
17087.445
16686.527
17564.767
17462.154
16949.587
16616.654
16102.386
15702.316
15236.307
14779.869
14394.698
13919.206
13515.074
13116.324
12707.763
12345.835
11932.01
11589.143
11174.021
10857.78
10452.584
10144.043
9771.258
9452.8037
9116.8203
8805.5741
8488.222
8190.3432
7881.2781
7590.5148
7295.3416
7006.3339
6720.7169
6435.9072
6155.0089
5873.4388
5598.0739
5319.8591
5044.4816
4784.0005
4502.0761
4255.0014
3991.1876
3756.6915
3481.7237
3278.8323
3011.62
2828.783
2625.4174
2408.0769
2252.7321
2045.8497
1916.5139
1771.3078
1573.8626
1345.0501
1261.5303
1055.4019
1039.7407
888.11969
773.42148
746.18057
525.97051
630.12397
293.86119
537.2257
110.15079
353.09373
185.66291
202.29739
234.6782
366.29546
276.16049
74.892041
2018.7081
49750.327
39043.629
37716.391
36568.075
35512.23
35105.889
35135.37
34663.422
35081.417
34843.106
34765.808
34572.277
34126.327
33670.373
33143.946
32284.677
31772.398
30788.278
30143.891
29250.275
28506.062
27731.946
26779.492
25972.6
25211.415
24272.628
23640.711
22777.555
22008.127
21329.428
20567.515
19949.842
19239.731
18646.55
17953.379
17281.265
16697.439
16049.46
15505.364
14876.1
14356.833
13770.721
13249.573
12696.523
12179.867
11651.027
11144.516
10638.705
10144.728
9658.1029
9179.9992
8706.2703
8243.9987
7783.8307
7334.9346
6890.4721
6455.404
6026.3544
5612.3242
5197.9821
4802.8392
4416.3112
4034.4984
3684.4883
3334.4518
3043.9179
2734.8263
2442.3695
2118.3846
1897.3433
1594.2126
1431.9558
1170.7435
960.05563
845.37222
587.12847
468.72906
342.06099
187.31126
104.68307
33.460827
-48.804344
-72.434461
-109.05344
-114.72587
-77.686277
-159.16293
176.21931
-254.07666
316.13541
-168.97727
322.69215
-517.31931
787.97355
1769.2388
72526.51
57800.935
54770.786
52338.426
52897.038
52477.286
52627.078
53043.234
53460.927
53210.968
53185.562
52631.903
52044.715
51202.895
50224.731
49154.201
48034.618
46826.968
45567.929
44401.419
43052.178
41885.609
40587.73
39618.697
38349.123
37290.016
36212.278
35088.166
34032.927
32978.758
31953.33
30911.815
29881.727
28995.208
27974.872
27133.739
26221.532
25394.88
24476.573
23684.613
22830.81
22033.91
21230.651
20453.746
19677.486
18923.954
18163.59
17425.188
16682.009
15951.213
15226.897
14505.118
13796.611
13090.034
12400.667
11712.53
11043.854
10389.492
9739.5513
9124.585
8509.1637
7935.2562
7350.6208
6831.762
6260.0979
5789.5097
5288.7589
4853.7099
4459.3641
4023.0924
3716.4247
3301.4314
3032.2498
2689.5078
2499.9456
2143.7417
2012.0582
1731.8973
1569.941
1433.905
1226.9764
1163.7277
960.48086
961.87438
732.91173
774.80212
594.00596
605.17217
304.46063
721.30003
-11.367009
625.62484
74.091172
131.19826
1310.1184
88614.212
69784.589
66098.084
65335.468
67803.94
67140.859
68581.271
69265.613
69413.819
69543.551
68802.399
68361.676
67258.473
65847.757
64709.741
62863.708
61709.383
59841.433
58277.938
56501.137
55107.406
53071.469
52002.777
50007.222
48646.266
47088.271
45478.998
44341.745
42693.069
41747.213
40158.568
38947.763
37554.15
36251.023
35048.903
33825.559
32987.883
31636.778
30692.618
29507.275
28522.014
27453.505
26451.45
25433.892
24443.362
23457.548
22480.038
21519.841
20554.992
19611.292
18665.214
17731.654
16807.976
15895.486
14993.469
14109.2
13247.232
12391.667
11576.458
10770.798
10003.414
9253.6375
8549.9244
7860.7444
7186.6077
6541.6319
5875.0332
5345.823
4756.4622
4531.5962
3857.6016
3565.9984
3076.7025
2746.8299
2363.8411
2080.6712
1766.6969
1535.3105
1310.5634
1069.3392
903.59599
752.15752
598.3217
488.31245
428.80311
342.91287
256.74368
395.088
278.40624
423.28676
639.67922
1094.1203
559.4449
1665.9234
1255.0131
64816.234
60375.195
51163.021
49858.01
48784.075
49068.601
48055.25
48902.158
49169.172
49178.127
49108.428
48967.263
52778.662
56668.808
70425.19
44367.349
35665.023
31115.383
30598.161
28670.796
28524.998
27678.523
28176.375
28578.885
28383.309
28846.677
29735.435
32168.533
36982.515
46941.202
29529.329
22501.267
16763.397
15657.159
14174.627
13795.377
13611.591
13330.692
13473.998
13677.613
14376.164
15127.268
17414.716
22624.923
30435.299
19084.315
14387.229
11092.635
9466.0944
8910.875
8420.068
8282.0916
8024.2189
8359.4322
8584.5614
9099.4368
9780.9123
12285.668
15621.501
20479.834
11821.695
8651.4804
5887.642
5021.5573
4311.5324
4024.3083
3863.142
3776.7774
3867.255
4099.1675
4403.3337
5271.4546
6742.7165
8950.9518
13435.097
8865.3191
5524.1895
3728.3214
3049.7813
2568.4334
2375.4634
2247.9452
2248.6037
2304.1726
2405.4983
2819.1873
3178.8249
4185.9543
6129.2195
9416.8359
5504.2441
3482.8406
2355.5362
1727.0971
1407.0567
1134.3725
1045.0247
986.0474
1040.9425
1156.1876
1389.3912
1852.5411
2546.9492
4092.1863
6910.4661
5624.0422
3372.6733
2111.9731
1587.5052
1186.6769
1002.6185
883.93465
880.85725
945.98591
1066.036
1386.5547
1805.3457
2568.265
4120.0839
7084.3054
6901.2955
4386.3176
2931.7714
2205.2825
1731.7589
1475.5412
1331.2933
1328.7983
1370.529
1650.947
1844.9661
2355.2353
3232.0327
5173.5167
7693.2369
10775.597
7698.7585
4776.7685
3886.0081
3012.3934
2727.4653
2459.7994
2434.9794
2490.7371
2649.9557
3357.5983
3714.3222
5560.8901
8499.9962
12950.224
14865.508
11256.144
7144.6483
6161.9233
4831.5183
4530.7236
4137.2465
4199.3161
4271.4668
4539.7159
5316.5101
6400.4917
8591.6189
12219.808
16911.126
24337.329
16573.837
12282.196
10400.959
8870.7774
8131.8552
7777.738
7634.7859
7847.6549
8158.3826
9316.6987
9464.2428
13309.838
18188.677
25422.003
32368.293
26154.84
19201.371
17072.95
14737.256
14447.811
13532.563
13949.582
13956.916
13834.914
15446.071
16460.43
20099.584
27202.234
31575.659
49955.342
41381.332
32089.129
30111.912
27195.91
26289.955
26432.368
26797.845
26293.81
26763.076
27150.222
28888.896
32844.044
38208.499
54051.397
66828.363
70690.976
54392.434
52726.024
49179.122
45968.438
48660.097
51056.777
47464.361
50474.474
49334.268
51292.938
55260.839
62976.121
77777.074
159418.3
129894.27
129190.3
132525.05
134222.86
133411.84
140718.95
148519.4
151250.28
148726.56
144061.38
136553.86
135062.48
139337.26
134746.13
115970.27
104353.15
97322.046
93889.713
89773.767
91963.405
90753.051
91167.321
97112.927
92417.245
93970.054
92762.314
99080.176
105739.55
121925.84
97671.994
100344.9
94965.807
91660.025
91184.886
84089.997
83673.632
84709.34
81062.054
87329.775
87524.646
95184.169
99197.598
100395.81
102984.91
93766.643
103479.37
102270.18
99070.486
97146.086
95443.582
94774.728
95037.716
95236.075
96345.758
98940.98
102253.48
103464.77
105133.62
97145.401
93856.515
100603.19
102862.15
104461.33
101762.08
100783.47
100569.36
99861.075
100869.82
102682.59
103614.93
105991.43
105563.65
101720.64
94423.943
92644.9
101873.14
103193.06
104218.99
104786.45
104135.76
103571.79
103468.47
103852.29
104193.32
105573.77
106080.23
104677.6
101757.31
93835.016
92320.887
98907.235
101989.01
104704.14
104745.55
105098.64
105360.63
105363.79
105883.68
106336.84
105842.08
105596.58
103362.5
98108.347
93571.744
92220.082
97359.321
100926.18
103121.08
104821.93
104844.19
105155.83
105539.84
105323.35
105571.84
105023.73
103586.42
101490.98
96010.292
89900.137
89837.598
94483.838
97996.044
100342.81
101114.33
102392.28
102730.63
102746.38
103249.59
102303.75
101640.47
100060.15
97538.343
93629.411
90357.867
89335.754
92472.235
95908.902
97868.18
99738.619
100402.13
101033.99
101236.99
100449.6
100894.7
99621.504
98422.896
95825.395
92449.446
88978.392
86671.964
89718.821
92763.177
94738.95
96056.878
97188.382
97776.899
97957.054
98380.435
97258.627
97011.729
94992.306
93216.359
90074.959
87218.513
85857.268
87237.628
90001.415
91763.743
93264.109
94025.778
94650.372
94785.092
94547.34
94177.828
92951.489
91805.947
89612.475
87270.036
85576.489
83388.345
85047.935
87024.302
88601.113
89976.062
90877.545
91497.395
91811.377
92138.868
91444.762
90785.982
89621.686
87696.612
85922.45
83606.73
81286.208
82219.947
84972.358
85774.056
87249.171
87784.083
88347.44
88331.795
88268.887
87693.926
86836.976
85813.807
84056.669
82536.602
81663.445
79240.451
79944.518
81753.236
82949.804
84204.96
84594.395
85765.109
84966.077
85738.665
85301.187
84830.816
83979.207
82191.991
81341.234
79593.406
76833.438
77492.875
79585.59
80153.263
81164.164
81919.576
82776.16
82278.763
82166.653
81495.351
80864.984
80083.487
78659.943
77702.143
76890.847
75253.195
75137.747
76879.59
76983.248
78759.791
78876.451
79533.738
79375.715
79920.334
79464.691
79363.16
78443.207
77880.432
75819.411
76152.58
72653.274
73067.759
74788.047
75185.615
75769.359
76446.797
76621.422
76739.511
76641.704
76104.309
75419.267
74678.826
74035.417
72951.901
72249.205
70793.902
70622.617
72207.547
72800.724
73592.205
73731.874
74243.083
74010.444
74441.168
73982.086
73421.144
73319.994
72530.219
72189.742
71589.084
68536.691
68605.531
69760.428
70060.061
70804.787
71230.294
71963.847
71670.314
71776.894
71277.606
71023.014
70433.839
69742.542
68769.987
68145.56
66445.902
66527.639
67934.344
68085.127
68717.427
68623.13
69338.421
69171.569
69452.175
68811.145
68925.399
68356.167
68268.849
67282.774
67015.27
64264.819
64328.707
65386.961
65826.712
66322.71
66806.648
67041.868
67007.691
66972.705
67177.014
66607.833
66162.933
65211.307
64275.44
64865.215
62616.447
62254.744
63666.945
63666.911
64426.011
64493.381
64906.169
64644.342
64901.684
64491.891
64088.872
63709.428
63292.226
62699.354
62628.94
60254.661
60499.482
61325.354
61782.159
62014.734
62244.069
62654.886
62480.004
62685.89
62364.208
62074.089
61841.134
61743.203
60535.782
60828.548
59015.195
58595.16
59349.152
59387.387
60186.785
60018.205
60820.087
60373.698
60736.094
60370.196
60360.342
59801.859
58989.878
58475.948
58798.713
56393.192
56258.22
57566.951
57415.601
58033.196
58290.53
58651.536
58283.808
58733.14
58162.501
58341.197
58173.736
57631.321
57028.029
56702.295
55129.525
54574.792
55465.488
55431.842
56691.128
56237.239
56734.593
56532.983
56760.323
56454.2
56272.515
55604.823
55378.991
54689.933
55121.077
52872.992
52536.244
53846.018
53609.239
54186.083
54226.461
54676.092
54476.475
54793.753
54408.189
54462.178
54108.567
53714.991
53357.395
52925.657
51550.121
50938.469
51902.88
51797.448
52517.88
52487.241
52870.707
52730.196
52905.542
52615.98
52478.994
52243.216
51540.7
50926.806
51551.412
49588.089
48820.88
50092.127
50019.515
50823.07
50764.375
51037.384
50804.551
50850.152
50640.478
50672.061
50188.274
50166.828
49431.575
49695.813
48018.062
47332.337
48682.114
48317.452
49030.255
48970.511
49312.282
49003.259
49376.987
48878.207
49080.896
48516.194
48480.037
47502.488
48001.583
46639.096
45478.581
46816.102
46515.181
47408.072
47093.892
47674.709
47301.264
47721.683
47219.06
47311.952
46849.274
46740.672
45983.795
46367.116
44849.5
43893.413
45261.243
44943.608
45686.373
45497.904
46080.89
45582.552
46014.972
45495.911
45759.493
45133.489
45179.878
44306.383
44772.266
43307.579
42351.284
43603.879
43227.77
44103.879
43835.855
44407.591
44004.979
44407.702
43955.144
44055.596
43574.077
43583.46
42769.03
43240.155
41649.73
40835.89
42183.884
42077.367
42468.679
42311.215
42804.612
42486.91
42849.326
42492.291
42578.176
42149.438
42100.583
41504.119
41449.272
40425.37
39586.379
40352.276
40316.34
40826.315
40805.022
41178.269
40980.968
41185.487
40587.176
40931.838
40485.045
40449.78
39662.432
40339.21
38599.786
37971.57
39023.022
38817.883
39499.139
39248.816
39772.013
39379.858
39713.662
39404.561
39487.346
39040.336
38993.915
38360.47
38728.744
37466.047
36609.167
37733.109
37552.774
38063.613
37928.426
38372.951
38017.229
38417.1
37907.303
38217.929
37529.839
37796.244
36845.566
37375.725
36355.498
35122.073
36430.756
35961.109
36833.208
36421.069
37082.483
36561.072
37025.39
36513.748
36702.344
36251.044
36343.962
35519.232
36059.199
34897.623
33819.322
35088.649
34733.033
35411.478
35114.759
35713.316
35204.99
35726.288
35126.698
35485.417
34814.009
35060.761
34178.274
34736.6
33706.323
32541.164
33843
33353.338
34181.842
33766.157
34414.125
33903.796
34362.086
33877.396
34137.102
33562.054
33788.08
32876.243
33466.595
32413.848
31302.786
32554.29
32151.1
32888.413
32499.112
33173.347
32580.293
33151.369
32557.241
32879.619
32277.431
32511.246
31616.602
32219.644
31232.082
30067.899
31355.964
30874.836
31636.423
31253.498
31862.936
31357.235
31847.607
31309.752
31628.857
31025.547
31272.374
30373.696
30969.77
30007.137
28881.97
30126.556
29652.268
30423.992
29999.9
30671.169
30100.466
30617.628
30087.293
30385.038
29808.101
30053.252
29155.843
29751.588
28836.066
27679.426
28931.043
28441.828
29171.117
28800.062
29419.035
28871.218
29385.064
28854.431
29153.007
28590.623
28824.488
27939.517
28529.499
27646.703
26500.117
27753.329
27207.524
27967.055
27570.447
28199.145
27650.96
28148.971
27639.999
27925.963
27383.293
27610.412
26737.379
27314.849
26469.454
25328.231
26545.66
26012.806
26745.193
26367.362
26994.918
26426.394
26931.301
26424.361
26698.668
26170.521
26387.961
25529.632
26095.815
25302.282
24138.412
25374.644
24802.508
25528.278
25164.895
25767.621
25201.587
25707.869
25203.135
25474.124
24957.909
25177.668
24325.736
24880.429
24114.69
22973.178
24176.536
23588.668
24323.539
23959.964
24560.161
23990.754
24493.211
23987.715
24250.639
23742.299
23956.467
23106.673
23660.575
22951.627
21792.235
22984.486
22399.332
23108.945
22744.404
23328.921
22750.435
23255.85
22752.489
23013.703
22513.708
22735.349
21890.905
22445.909
21769.625
20610.935
21800.058
21188.58
21888.666
21536.087
22113.434
21540.484
22048.938
21540.598
21792.314
21302.698
21516.571
20672.752
21229.256
20596.68
19444.514
20603.159
19988.374
20684.229
20320.884
20878.85
20300.912
20802.263
20291.282
20550.124
20066.266
20285.033
19453.097
20012.616
19433.889
18269.689
19416.362
18801.687
19472.877
19108.405
19665.33