/*--------------------------------*- C++ -*----------------------------------*\
  =========                 |
  \\      /  F ield         | OpenFOAM: The Open Source CFD Toolbox
   \\    /   O peration     | Website:  https://openfoam.org
    \\  /    A nd           | Version:  6
     \\/     M anipulation  |
\*---------------------------------------------------------------------------*/
FoamFile
{
    version     2.0;
    format      ascii;
    class       pointScalarField;
    location    "0.75";
    object      E;
}
// * * * * * * * * * * * * * * * * * * * * * * * * * * * * * * * * * * * * * //

dimensions      [1 -1 -2 0 0 0 0];

internalField   nonuniform List<scalar> 
3969
(
94888.131
100049.11
-1747498.5
-803998.65
104203.94
112355.23
-1206352.9
-2616657.8
51198.544
21678.691
7796.2435
5652.7243
14944.955
37532.447
83129.932
-964471.56
-952034.03
-942040.17
-932226.9
-924351.57
-916165.68
-690567.24
100325.68
83057.821
83052.335
81925.088
79447.078
76292.638
71652.282
67389.09
62439.023
57844.796
53585.841
49419.407
45445.447
41708.8
38223.708
34835.762
31824.919
28748.55
25981.566
23268.855
20809.86
18456.031
16330.463
14328.145
12694.181
11116.696
9497.1212
8318.0229
7108.2795
6015.9816
5085.2253
4247.8834
3464.7876
2814.6779
2497.6629
1669.2773
1889.7227
914.92429
1532.1341
553.28827
1234.1678
1049.2783
856.70943
1904.5455
1771.2592
318.04974
1455.3768
91237.971
65944.337
75995.158
72753.323
71529.589
67690.944
64683.207
60323.427
56664.455
52470.65
48319.091
44700.367
40911.758
37680.973
33861.98
30894.016
27805.256
24870.271
22515.962
19748.059
17584.347
15863.867
13106.335
11564.887
9743.6397
8588.97
6382.5225
5309.3177
4010.6556
3262.9527
2532.6154
1745.3715
1215.4869
644.08187
342.2412
-76.33706
-107.52065
-674.00033
-510.30369
-796.53318
-497.03737
-395.14977
-375.58196
-63.409232
517.758
869.3106
1670.4872
52950.073
23490.885
7703.7219
9489.5883
14860.747
36084.11
73397.611
149776.6
95899.222
77078.983
95509.117
80299.901
81554.428
75111.55
68264.394
64524.683
57479.649
56807.2
52886.856
50587.11
46103.4
42413.292
39284.023
34955.32
32162.243
28573.207
25552.386
22734.486
20262.917
17988.378
15936.483
13707.324
12301.942
7966.9838
6016.7172
4735.0646
3203.2319
1982.5699
949.77806
-38.071556
-766.23649
-1580.7808
-3326.0548
-136.67625
-3235.2717
-3422.2707
-3783.4685
-4110.3107
-4023.5535
-4359.37
-4184.1849
-3983.5794
-2890.7438
-5838.4764
-1939712.4
-1631529.3
-1974850.5
-1872545
-1893032.9
-1702207.4
-2071682.2
-7104.3579
-2221.4234
424.99237
73.858552
-218.58461
-701.89449
-682.4039
-898.63739
-781.69654
43.088528
1377.3282
-1856.6878
624.0814
975.91849
1642.1339
2490.3068
3203.0771
4299.4517
5286.0853
6574.4995
7810.9067
9363.6647
11077.621
12883.734
14862.61
16932.797
19328.937
21829.58
24673.042
27612.08
30867.875
34642.062
38244.187
41322.654
46127.786
49905.545
55565.699
59475.853
63984.284
68682.835
74893.232
76874.765
84079.878
82844.278
82513.634
86615.786
109038.93
76726.068
74871.67
73941.117
73612.96
73214.282
72399.069
77116.476
64591.387
69707.34
76869.094
79956.702
79948.363
83368.357
69705.445
-904260.94
-904888.87
-904573.19
-905020.88
-905002.51
-905019.67
-905855.91
-1964690.5
-1965298.4
-1965647.6
-1965798.5
-1965948.2
-1966906.2
-1967553.9
63518.3
55308.253
56001.913
54241.835
53906.151
51378.147
48994.242
45949.958
42799.963
40017.473
37074.758
34093.875
31494.614
28814.61
26414.673
24271.24
22195.872
20247.453
18547.138
16931.544
15461.548
14001.223
12740.407
11514.52
10327.716
9367.2409
8184.8847
7620.5923
6606.7143
6011.8775
5380.391
4811.1632
4304.648
3871.5841
3486.7822
3033.1775
3020.8926
2705.5354
2602.0557
2548.3015
2751.6755
2168.1769
3363.4806
2369.5455
3675.9041
4722.5453
5256.228
28633.865
26630.666
28410.926
27937.21
27397.513
26317.169
24420.331
23341.914
21491.16
20167.46
18514.098
17101.184
16107.126
15140.572
14204.814
12999.514
11996.612
10954.311
9986.2206
9127.7111
8387.8645
7667.6679
6958.8825
6375.8878
5911.8552
5452.7159
4813.8657
4604.8311
4111.4566
3909.4979
3620.2679
3403.0493
3214.6443
3118.6266
3073.3251
2895.2438
3213.8894
2364.5665
3452.4377
2564.8098
3459.2643
3188.4182
3752.6975
3204.709
5339.2612
3528.4745
5848.641
10592.457
7231.2708
10066.159
8877.1488
9666.1376
9072.0752
9038.9294
8502.6982
7883.9836
7659.0669
7126.0042
6419.445
5969.5909
5282.2604
4951.4216
4489.7513
4225.1339
3757.2726
3527.3306
3061.715
2540.0057
2032.0219
1634.5922
1460.0104
1108.6209
874.30207
1076.8984
894.31122
836.99486
869.4886
776.98501
904.43104
855.77002
1016.041
986.28878
1293.7146
1224.8999
1992.5338
2133.3616
2132.1368
2884.9613
2409.2933
3324.4602
3269.1971
4660.7314
3640.1499
6314.9382
4809.9484
1126.838
2562.7257
2805.6096
3409.8962
3589.404
3517.1635
3989.3196
3616.4712
3570.5058
3330.7223
3174.5188
3173.3099
2886.8106
2683.9755
2321.365
2175.3486
2052.7384
1867.8492
1750.9842
1925.1293
2188.8288
2560.7334
2722.5017
2661.9447
2652.2938
2383.4236
2389.3581
2400.5596
2417.7895
2382.3593
2491.2037
2422.797
2497.3491
2673.3095
2435.288
2866.397
2564.835
2618.0819
2607.971
2976.3057
2841.0969
3632.8109
3209.9367
4541.2602
3270.4886
6360.5192
12689.779
6710.3739
7327.4555
6516.5036
6700.0794
6940.701
6514.9072
6503.387
6175.4515
6081.8237
5898.5443
5389.3158
4922.992
4494.344
4284.024
3805.2177
3566.7925
3134.2555
2865.4447
2417.1109
2957.539
1631.403
1220.8177
1282.8485
1075.2947
742.95366
843.51594
841.99782
734.63026
724.26658
718.08861
787.98639
822.79194
934.60515
915.1288
1313.9679
1037.4295
1701.0146
1640.3816
1972.1775
1809.4835
2393.2877
2599.0403
3169.2127
3375.1551
3970.7672
6912.9691
32603.158
25907.151
26193.789
25560.746
26490.901
26005.788
25450.668
24563.493
23298.329
22271.334
20723.19
19894.67
17985.153
17080.656
15606.12
14575.508
13307.033
12336.941
11348.968
10384.644
9307.2176
9363.7548
7260.7013
5899.0669
5308.1945
4799.6922
4213.9056
4012.2446
3603.9098
3388.7816
3101.8616
2970.9127
2770.4222
2636.816
2639.7331
2389.2941
2699.4818
2252.3629
2513.8914
2858.9196
3092.1501
3535.9952
3288.411
3778.9604
3713.9942
3470.3009
5892.7271
51963.621
46985.255
46116.63
47760.38
47998.582
47235.603
45315.468
43356.825
41237.279
38490.614
36661.42
34269.929
31857.417
29163.327
27122.901
24823.601
22840.139
20875.364
19060.759
17365.831
16184.493
13846.922
13841.803
11524.313
11286.905
10096.183
9227.425
8527.7287
7770.9362
7043.7852
6277.2102
5843.9991
5167.2234
4821.9252
4230.1017
4008.3815
3558.4296
3693.8387
3326.7211
3287.9655
3180.4902
3201.822
3299.0541
4018.1308
3416.6237
5222.6639
5411.3789
31854.489
32852.536
28012.717
27969.18
28194.555
28946.146
35887.873
13937.655
12369.498
11235.914
11063.529
11373.184
12062.055
15521.824
4367.9018
3025.9073
1807.1722
2135.6101
1836.8882
2322.0105
4233.8758
2526.2643
1221.3874
786.81203
724.95284
1142.6244
2254.3299
4755.2457
5774.7207
3745.0209
2795.8941
2588.4583
3166.5472
4365.3465
7357.9109
19825.771
14595.32
12657.77
12140.213
12868.28
15389.732
22756.892
37188.353
38408.758
31534.369
32963.599
32380.652
35587.891
47559.687
109048.36
96307.316
104286.17
111596.5
112194.32
120252.49
117785.19
94552.909
97202.77
91669.598
89916.746
98194.302
100863.26
103016.46
85675.384
89175.199
90757.035
91125.116
91191.879
92336.734
93819.966
85140.271
94805.162
94529.209
96710.608
97600.863
97261.49
90641.582
80935.674
83786.723
88465.367
89045.158
88741.571
85592.429
84308.121
77385.235
79692.404
82525.436
84330.565
83914.782
81098.878
78612.804
71512.764
73617.057
77329.018
77712.665
77551.271
77502.25
74958.762
68406.828
68489.671
70038.415
70479.565
70275.806
68489.195
67153.758
63016.59
63026.411
65481.824
65711.707
65820.171
64941.295
64376.215
59515.479
58694.014
59039.756
59863.275
58824.609
57691.817
57969.719
54801.495
54249.774
55637.758
54656.932
55019.828
54649.192
54297.125
50919.04
49612.392
49909.988
50490.524
50388.981
47578.589
50281.288
47075.734
45521.288
46806.155
45613.023
45443.49
44975.705
46513.548
42374.026
41536.465
42430.213
41627.637
42883.427
39921.917
42644.516
39593.309
37830.03
38937.356
38196.957
37848.79
36963.944
38897.619
35678.802
33751.877
35926.26
34090.318
35472.649
33611.427
35668.863
32499.687
31321.911
32440.414
31152.135
31842.567
30053.105
31982.544
29535.357
27779.521
29762.615
27997.332
29074.481
27448.958
29181.779
26526.014
25297.178
27062.779
24985.812
26191.719
24317.513
26222.842
23935.156
22582.337
24397.679
22414.672
23649.391
21939.559
23790.801
21518.292
20094.776
21983.165
19798.249
21146.909
19333.389
21268.412
19163.617
17850.463
19624.913
17567.465
18844.116
17089.515
19102.076
16898.245
15758.858
17294.004
15431.383
16579.506
15101.464
17118.068
14806.185
13891.691
15262.898
13478.875
14523.301
13220.072
15039.379
12804.309
12190.352
13127.35
12151.805
12720.179
11261.544
12983.666
11069.846
10782.112
11154.26
10470.795
11020.005
9830.4204
11691.275
10033.86
9324.2419
9867.0776
9024.2039
10692.423
8287.6376
9425.3676
9165.9305
7884.4164
8683.002
7463.4973
8226.4005
6816.2903
7707.1559
7647.1773
6767.7562
7351.8896
6312.5639
6893.3234
5939.907
6369.5578
6794.8679
5481.8233
6517.8104
4985.2407
5903.1367
4519.2197
5128.0684
5532.3736
4642.5301
5345.9858
3989.1989
4755.1549
3498.2284
4112.4894
4734.2366
3718.5157
4462.749
3100.4618
3943.5962
2630.8785
3235.7642
3881.6146
2972.9382
3660.9076
2372.7168
3082.1812
1769.161
2352.1535
3081.428
2246.4686
2894.9564
1620.3479
2354.504
1122.3811
1671.236
2458.3425
1783.5093
2290.546
1149.0631
1682.37
495.7428
1010.9344
1891.9352
1109.7695
1785.8824
481.3453
1296.0234
937.6389
371.40411
1629.9651
927.74208
1118.8483
364.82926
819.12829
-1308.7681
3.0273998
263.03762
365.99045
508.23575
-75.343297
-9.1172625
1.7387234
-484.77339
593.19837
125.65554
574.2258
-498.22366
120.37806
-1031.9148
-702.28194
540.48817
-182.26307
352.10533
-661.63851
-163.58423
-1282.3319
-992.49619
93.844381
-434.83903
76.048982
-948.42345
-415.16506
-1416.6085
-1204.1765
142.35656
-351.81529
186.75883
-690.31564
-298.02159
-1298.3803
-1306.7535
-186.79189
-756.00099
-194.4289
-1060.8834
-641.37053
-1516.7901
-1396.6483
-30.764915
-484.57091
39.292102
-657.24574
-409.94939
-1195.9338
-1394.029
273.72375
-33.120571
409.1722
-260.09242
85.414764
-658.02467
-923.29063
950.02384
476.32725
1055.9795
462.20246
733.67495
103.96989
-2.2079446
-904.8364
-585.2752
-441.75658
-656.0713
-592.18706
-1009.4474
-1198.9115
-1175607.9
-1292425.5
-1292376.9
-1292623.9
-1292783.9
-1292705.7
-1292435.1
-1276882.5
-1275588.1
-1275401.2
-1275740.8
-1275638
-1373225.7
-1275728.7
-1357932.1
-1258715.5
-1258960.1
-1258905.4
-1258808
-1142428.6
-1258761.9
-1247374.4
-1246354.4
-1247379.4
-1247164.2
-1247558.6
-1246966.9
-1247131.1
-1234974.6
-1121924.3
-1234430
-1234344.9
-1233979.2
-1233922.6
-1234024.4
-1112582.7
-1317780.1
-1223873.2
-1223624.8
-1318194.8
-1223386.5
-1223317.1
-1305213.8
-1211024
-1211835.7
-1211484.1
-1100564.9
-1211585
-1211702.2
97218.294
87872.272
82565.206
79847.158
81309.818
83393.105
85710.982
92373.582
86148.988
85576.971
84262.72
85227.923
86720.384
88418.125
89706.801
89465.096
88348.905
87342.717
88097.823
87331.639
86447.18
85855.435
86470.488
86490.041
86414.989
85720.69
84378.244
84707.463
83097.772
82646.11
83059.902
82556.616
82091.488
80757.104
80091.992
77391.53
77413.884
77083.353
76963.778
76770.853
75825.553
76104.251
73757.273
72781.123
72347.397
71401.85
71928.744
71741.113
72155.744
67961.035
67232.399
66891.174
66847.607
66227.623
66173.741
66763.581
63945.881
62937.356
62569.65
62232.125
62474.734
61744.59
63246.878
58757.45
57721.578
57451.394
56943.624
57065.804
56744.894
57882.813
54451.913
53670.107
53844.505
52937.939
53567.773
52762.012
53837.623
50249.521
49440.375
48880.126
48958.278
48548.701
48708.781
49365.088
46123.638
45386.575
45368.581
44844.987
44703.037
44448.444
45600.992
42273.865
41563.751
41495.858
40976.115
41360.107
41569.824
41796.547
38871.804
37981.783
37926.718
37621.828
37858.358
36764.103
37775.426
35186.051
34792.974
34801.59
34190.463
34231.611
33935.991
34442.286
31959.892
31627.326
31440.713
31267.646
31241.184
30838.005
31120.436
29122.735
28642.207
28694.441
28250.487
28265.972
27862.381
28038.921
26211.928
25969.636
25860.182
25569.442
25562.666
25041.43
25237.908
23655.718
23412.034
23276.252
23063.863
22957.261
22520.804
22642.27
21229.218
21005.658
20905.12
20632.275
20556.868
20112.054
20219.621
18955.637
18692.326
18619.631
18437.798
18406.06
17933.787
17928.483
16896.646
16552.77
16574.443
16378.2
16374.311
15838.024
15911.91
14954.709
14676.135
14711.584
14513.471
14600.262
13943.228
13984.241
13326.511
12901.574
12964.988
12838.065
12818.265
12232.316
12269.713
11717.922
11280.952
11443.942
11250.513
11307.11
10675.786
10825.761
10098.833
9814.4419
10040.314
9755.2453
9867.4189
9233.6819
9236.5448
8987.2338
8479.9419
8673.2749
8471.2669
8585.0266
7916.9647
7988.4721
7637.3972
7157.7739
7512.3919
7313.0975
7317.1338
6724.5604
6796.6347
6516.7609
6274.3235
6428.9764
6186.2971
6312.8716
5726.7036
5759.8954
5610.8142
5163.7773
5420.6891
5318.9283
5324.202
4709.4666
4787.3194
4637.7627
4357.331
4594.4264
4403.085
4414.6929
3935.0619
3972.2461
3875.2284
3615.1151
3794.2836
3718.939
3738.9251
3165.9173
3242.1547
3204.3834
2881.4321
3129.9657
3066.01
3013.513
2592.0392
2640.7604
2616.0464
2399.1989
2593.7671
2498.3682
2396.3011
1867.7116
2166.4947
2050.8312
1777.2952
2079.1659
1966.7502
2006.1929
2530.0265
1765.7945
2371.0628
1478.2407
1845.9441
1535.2365
1798.9702
-85.504023
1337.8645
891.80105
1080.7729
1255.7332
1142.2696
1114.6524
1248.6197
1088.8751
1192.6974
1311.0008
1269.1899
1318.6736
1085.4012
832.51022
933.19098
1112.8854
651.44859
897.74442
925.35295
769.31954
588.20582
772.70472
1062.156
1008.3897
1186.9142
1060.3651
951.46112
605.68421
877.05288
1327.9223
1126.0014
1080.6076
1318.5242
1026.9384
819.57423
986.54984
1105.752
501.82751
969.96383
895.96353
827.9147
854.63642
1263.1194
1701.9117
1906.0504
1801.8955
1922.685
1659.5218
1694.9206
1471.7915
2164.5109
1190.6642
1582.9782
1381.9809
1351.561
1347.3037
1411.3089
-1048.0645
-429.52343
-499.3831
-344.76702
-647.46371
-831.59918
-711.40205
-1474.5623
-3059.9589
-3168.1085
-3278.0214
-3506.241
-3219.155
-3393.4341
100028.44
73135.547
67956.115
66523.642
67506.853
63355.374
61901.468
57464.36
54726.739
51223.862
47666.406
44290.441
40833.534
38052.743
34482.475
32831.593
29572.202
27032.222
24762.664
22516.045
20437.09
18528.131
16677.993
14991.265
13513.722
11950.079
10926.674
9511.9429
8543.2467
7586.5508
6700.19
5946.6869
5203.2774
4607.2653
4023.4397
3663.4451
2148.5232
3171.3651
2200.7007
1909.2444
1808.2907
1542.1555
1554.8281
1555.0718
2469.9656
4261.1371
6769.3869
43769.923
44414.706
35693.125
37143.413
36482.433
33511.796
33051.181
30770.773
29709.028
26974.469
25883.791
23335.334
21990.811
20041.209
18190.273
17202.226
15407.39
14121.839
13020.464
11749.969
10677.28
9770.554
8791.8716
8098.205
7256.1506
6545.8786
6211.2577
5597.4804
5207.4883
4781.9637
4466.7804
4243.6004
4010.4893
3875.1387
3771.9558
3622.8758
3688.8292
3670.6931
3790.9174
3853.71
4356.1267
4302.8112
4869.1424
4820.6721
5833.7164
3652.7141
7604.6757
14903.417
16370.887
14095.34
15641.602
14494.119
11016.81
13452.476
10515.494
11215.687
10033.405
9544.739
9373.8221
8039.1644
8924.5013
8081.2812
7566.8502
6931.5125
6287.7332
5989.396
5259.5061
4923.2212
4458.6184
4084.5973
3669.6369
3367.9519
2919.7691
2927.3295
2438.7271
2354.6217
2180.2474
2074.2178
1949.344
1876.047
1815.2734
1759.0104
1747.203
1653.0536
1856.4531
1738.1612
1992.8227
1983.4413
2266.9226
2298.3775
2941.7867
2591.7252
3422.9458
5926.6246
4934.7307
4979.4244
1896.6634
7312.9132
2578.7263
5423.0583
1985.1385
2563.217
3622.1843
1737.5892
3469.659
1470.9707
2585.4025
2275.6176
2389.9985
2536.1547
2080.7836
2050.3603
1896.2222
1714.2385
1551.7461
1527.1073
1262.5905
1379.6703
1202.6692
1379.9676
1309.1355
1419.5617
1455.0106
1530.4542
1546.7295
1658.0287
1805.4534
1809.7399
2062.9056
2102.0565
2406.4926
2520.2403
2867.323
2845.5095
3548.6746
3326.1648
4265.0251
3770.0997
5151.7554
3325.8463
6518.4778
12552.622
2889.7911
5380.1449
4105.4099
4657.749
5028.078
5143.5908
5298.0888
3805.2314
4850.0872
3306.2185
4104.0849
3538.1853
3213.0891
3528.3202
3050.3329
3113.7545
2780.2581
2739.7143
2406.1216
2341.4426
2088.0692
2160.9242
1898.1887
1798.6935
1740.7696
1446.3428
1496.9702
1352.1853
1350.1293
1319.7868
1391.1869
1355.7147
1402.4271
1553.1314
1523.4584
1748.0866
1895.4039
1845.2092
2390.6124
2332.0728
2831.0834
2911.3236
3545.0342
3355.8903
3779.6483
5141.2299
29137.336
23015.842
16563.64
22441.674
17093.02
21100.72
18696.063
17468.936
19189.968
17582.924
19779.477
17338.275
17011.855
15638.504
14485.048
13436.641
12069.53
11118.232
9999.6059
9228.1599
8307.4695
7645.2054
6974.5829
6046.4621
5268.0512
4687.9529
4424.9522
4009.9493
3767.6099
3533.2093
3348.5799
3146.0114
3068.4197
2935.854
2961.6661
2728.5759
3001.243
2626.1879
3204.1331
2888.0755
3310.3957
3220.7867
3721.7292
3634.4508
4374.7687
4245.8951
5078.5566
82532.171
47040.004
54399.637
46806.813
50300.156
48715.509
45663.886
46515.656
40893.51
40480.748
35479.884
35210.461
31096.524
28447.55
26162.535
23382.875
21798.998
19646.93
18030.514
16323.244
14751.182
13089.472
11821.939
9930.3438
10601.414
8043.3946
7327.0879
6698.4443
5949.6509
5361.5137
4778.6645
4317.713
3849.2881
3500.883
3073.9199
2694.1218
2938.6991
2813.8264
2644.3411
2762.355
2940.4713
3155.7566
3501.0219
4074.0108
4187.5874
5563.68
3656.4717
79891.308
67583.663
65909.104
64599.001
65036.611
64777.633
66503.051
70740.877
72284.392
67702.734
67261.885
66351.081
67564.685
68044.578
65415.476
68893.638
68521.734
67701.788
67427.986
67132.321
66046.107
63364.134
64859.033
64834.259
64985.542
64125.102
63710.322
61950.504
60498.099
62402.243
62902.455
62830.897
62454.892
62357.789
61119.617
57321.2
57676.885
57441.378
57657.371
57072.253
56899.253
56994.592
54702.319
55097.353
55004.258
54684.795
54474.378
54948.114
55120.178
50704.246
50594.788
50260.812
50286.37
50091.841
50182.095
50887.047
47876.23
48093.118
47302.131
47381.635
47002.082
47790.415
48642.282
44230.999
44031.104
43686.537
43561.86
43354.824
44076.455
44859.317
41183.503
41290.48
40735.269
40538.34
40764.56
41058.448
42303.935
38156.497
37793.608
37686.687
37570.592
37548.595
38099.831
39180.788
35371.61
35241.102
34795.844
34566.498
35009.368
35097.513
35932.55
32394.323
32351.556
32240.573
32093.843
32336.554
32586.527
33805.477
29863.783
29978.834
29366.539
29485.884
29543.637
30341.998
30655.634
27449.305
27570.09
27177.159
27266.682
27346.318
27541.441
28348.331
25085.386
25220.769
24929.053
24767.428
25097.346
25520.872
26250.675
22882.672
23051.817
22823.667
22699.017
23014.05
23351.41
23815.351
20879.432
20995.073
20845.011
20753.083
21090.533
21318.702
21904.517
19038.708
19107.848
18998.986
18965.338
19158.319
19464.492
19981.858
17353.248
17280.575
17311.314
17228.249
17483.473
17759.325
18191.111
15839.743
15689.439
15743.272
15683.606
15908.584
16134.896
16507.944
14437.399
14143.301
14340.643
14258.962
14384.073
14560.429
14999.189
13161.976
12779.842
13125.028
12900.309
12990.978
13261.776
13545.568
11858.536
11485.92
11670.918
11698.896
11648.393
11863.261
12249.41
10593.276
10317.43
10667.786
10541.207
10448.777
10806.202
10822.075
9621.8835
9246.9589
9428.107
9478.9432
9341.5044
9698.587
9822.8456
8693.1267
8317.6778
8496.7605
8544.7541
8440.112
8695.6778
8800.2438
7697.2996
7352.5086
7717.2184
7596.8718
7565.0892
7809.6453
7867.0168
6915.3268
6583.8253
6882.4873
6834.7418
6776.281
7023.2051
7036.2779
6183.9332
5869.7288
6155.975
6146.9355
6058.2694
6317.3787
6287.1482
5516.4062
5202.0983
5552.6308
5501.2304
5427.4769
5691.0126
5585.3359
4929.4949
4711.6246
4935.0496
4959.578
4859.8894
5085.9817
5034.8659
4434.215
4114.8076
4465.7208
4440.8418
4369.3107
4659.1742
4488.418
3904.447
3840.4645
4010.1533
4048.7564
4012.7785
4102.4022
3970.1161
3683.595
3368.5389
3623.8975
3662.1935
3501.1213
3576.7556
3546.4291
2972.6541
3004.7308
3339.1731
3202.7988
3364.0232
3492.301
3603.0509
3275.1169
2787.1863
3150.9167
3265.0052
2956.9504
3165.6792
2834.6604
2357.9037
2603.5086
2674.4976
2791.3989
2906.158
2927.2704
2904.1256
2898.9375
2595.0845
2785.1632
2833.6964
2622.3407
2830.7864
2373.5198
2246.4089
2332.861
2461.8368
2589.6564
2638.7045
2704.859
2383.3382
2442.3513
2383.4939
2434.2759
2613.0231
2299.145
2581.9084
2223.5407
2987.6388
2715.275
2928.6584
2927.2106
2991.5182
3005.4997
2343.405
2177.0053
2395.1557
2283.3663
2725.0627
2266.0893
2367.8783
2033.9709
3523.4952
2983.2383
3663.6815
3555.8832
3564.1538
3726.144
3097.5273
4368.4978
5239.9019
5010.247
5294.1146
5096.4155
5195.6971
4928.7844
6195.8984
5172.4516
6195.9106
5907.3052
6111.5944
5899.1265
6166.9555
35868.813
28411.892
26007.513
25043.359
24832.473
25037.112
27006.409
37736.077
40212.438
38193.807
38040.252
37949.75
37919.256
38632.472
35087.183
35770.442
36245.89
35488.273
35481.923
34196.447
33655.962
34555.687
35897.938
36573.749
36394.283
35806.585
35054.925
33589.216
32366.154
32713.678
33209.977
32788.105
32863.573
32042.271
31619.028
31102.014
31294.769
30530.658
30406.488
30076.069
29699.642
29710.791
28584.609
28912.472
28865.182
28632.203
28587.203
28510.841
28364.904
27256.901
27240.661
26410.689
26160.011
26202.515
25946.404
26431.236
25366.934
25450.29
25029.504
24766.533
24714.484
24924.602
25219.881
23836.356
23474.904
23014.227
22603.641
23008.954
22872.431
23139.039
22060.248
22077.721
21549.035
21394.38
21446.97
21633.626
21804.288
20581.133
20355.508
19873.073
19561.545
19685.764
19670.759
19848.491
19066.839
18861.843
18515.781
18454.414
18320.054
18547.89
18567.894
17762.168
17368.572
17111.007
16746.758
16903.871
16758.288
17191.79
16592.861
16175.274
15783.335
15559.42
15765.478
15323.171
15724.254
15279.218
14709.093
14505.18
14375.304
14449.96
14185.763
14448.961
14058.739
13678.406
13234.446
13207.273
13209.234
13058.253
13368.423
12951.363
12510.522
12083.17
12256.338
12113.953
11965.124
12011.85
11899.265
11500.915
11128.433
11152.603
11112.258
10880.132
11121.098
10887.037
10558.965
10130.643
10240.042
10096.562
9957.9605
10121.789
9885.0696
9619.5582
9307.2381
9314.0487
9217.6928
9106.0345
9136.3479
8970.5305
8849.7406
8505.6606
8540.8435
8440.5992
8243.0206
8339.9131
8198.6057
7962.9286
7714.1474
7740.6126
7546.5682
7526.1607
7544.2148
7449.0391
7206.6353
7072.9375
6899.2279
6958.3935
7003.6434
6905.0233
6800.6382
6561.3107
6431.7705
6186.8576
6360.4749
6213.5545
6134.6878
6272.0913
5948.6883
5806.2342
5862.0649
5547.2441
5901.065
5755.1457
5465.7538
5747.9403
5462.1971
5130.9318
5457.4091
5414.1382
5320.6958
5347.4223
5019.8622
4765.3771
4756.6982
4858.0428
4950.3691
4823.5239
4868.6268
4502.8901
4716.6905
4323.8227
4475.9047
4621.2119
4366.4303
4575.684
4324.7599
4265.9005
4005.2147
4177.3677
4270.5816
4062.4924
4242.3615
3885.1116
4016.6092
3752.0374
3869.6059
4012.5739
3767.0478
3992.2453
3724.489
3803.158
3524.4512
3611.7213
3799.7176
3548.6837
3786.6814
3472.5393
3572.1797
3303.0575
3452.1809
3643.2691
3376.7441
3616.3968
3347.841
3437.141
3227.3089
3311.1044
3462.162
3200.7395
3563.3077
3236.6985
3301.8182
3124.3741
3111.2042
3347.4833
3193.4301
3321.6463
3014.9763
3222.6723
3008.5042
3094.1186
3416.1309
3198.7502
3592.8806
3437.8754
3273.7002
3179.1463
3068.3308
3341.5472
2982.4699
3406.8215
2639.0517
3229.5794
2819.7893
3128.5172
3297.2514
3173.4297
3839.2101
3589.0623
3558.7291
3343.9809
3235.0511
3528.9654
3293.3854
3624.5411
2816.8044
3352.2343
3020.7325
3197.6957
3486.3265
3228.8439
3872.9057
3752.3105
3818.0535
3649.8011
3594.512
3777.3321
3653.1874
4226.3842
3435.2115
3855.0982
3499.3336
3528.559
3833.8345
3630.1123
4086.3533
3923.9545
4121.1752
3978.9502
4121.151
4314.6939
4097.2055
4108.0564
3656.8333
4018.4493
3777.9135
3601.6556
3828.0237
3783.6264
5523.3421
5282.3184
5370.1649
5042.2473
5199.1859
5754.318
5638.2406
3556.4579
3218.7491
3548.3254
3272.061
3166.8279
3332.7003
2603.0505
7533.5708
6541.126
6583.4099
6199.2636
6357.6398
6118.6661
6740.983
13555.403
10597.073
9209.4736
8805.1832
8271.5578
8616.8581
8601.16
12288.501
13803.096
13138.207
13215.5
12976.065
12556.707
12751.496
13990.604
14032.549
13735.682
13970.774
13483.289
13176.165
12586.066
12345.036
13608.077
14624.854
14976.647
14297.36
14323.664
13016.144
13000.111
13300.398
13029.738
12878.827
12594.784
12125.799
12696.04
11629.736
10562.155
10655.541
11629.437
10857.628
10687.05
10792.235
12519.585
10962.704
11417.484
11464.68
11211.125
12040.614
11583.439
11519.969
9861.3856
9447.1967
9192.8887
9188.0357
9452.4659
9362.7637
10769.541
9165.7075
9431.0089
9480.6962
9407.7459
10080.951
9924.6792
10053.571
8442.3886
8299.9712
8182.6995
8146.0891
8697.2502
8806.1623
9380.1881
7832.9964
7915.1785
7751.2078
7695.7849
8060.4518
8115.323
8770.5898
6900.5384
7051.25
7087.8585
7366.9807
7714.7179
8258.1286
7895.478
6316.7218
6748.1955
6483.2636
6689.2522
6820.7903
7332.5293
7076.2501
6203.5267
6037.1741
5963.0673
6291.4294
6425.8945
6842.368
5820.6969
5586.5558
5733.6123
5612.3059
5478.5445
6033.4842
6526.7387
5275.0776
5037.0654
5230.4937
5081.3765
5216.6862
5431.9812
6044.715
4910.8955
4600.8181
4887.1136
4692.6555
4653.5571
5049.1029
5684.0994
4411.4524
4138.597
4470.6246
4247.7033
4311.6648
4637.7211
5057.8901
4111.4778
3819.9589
4121.6111
3917.7672
3935.4663
4233.2846
4876.9214
3693.224
3376.5495
3701.8101
3549.5628
3548.4801
3898.423
4361.702
3454.6986
3149.8448
3426.3758
3283.1378
3369.6
3579.4861
4107.9789
3158.0882
2854.596
3079.1783
2959.2601
2953.5274
3247.0004
3744.768
2936.0186
2647.7957
2909.1394
2618.3062
2849.3455
3043.3399
3553.5837
2867.856
2483.0697
2717.5569
2546.95
2700.9957
2691.0611
3081.3756
2707.5848
2211.3437
2587.0908
2394.976
2576.8634
2412.5034
3074.0096
2523.912
2141.8232
2508.7429
2127.7168
2516.9282
2220.7167
2674.6741
2496.3672
1964.2371
2187.0689
1995.1247
2398.7789
1938.9687
2536.5384
2188.2977
1861.0702
2200.1055
1975.4636
2172.1614
1892.5281
2328.2241
2234.8185
1765.3345
2094.9374
1763.5351
2213.8417
1783.8117
2191.5593
2125.2136
1728.3172
1866.3221
1767.5546
2048.3708
1626.5042
2102.1122
2022.7646
1555.1702
1930.0868
1710.4177
2010.4452
1655.5138
2021.8105
2024.7296
1601.1443
1885.7985
1601.4319
1976.0343
1560.0347
1945.5573
1961.2233
1547.3508
1825.0495
1633.9461
1973.2911
1551.113
1888.8832
2048.0529
1570.4695
1872.5984
1635.4122
1932.5594
1517.5034
1957.4051
1958.4961
1499.6584
1880.4062
1624.6128
1963.6643
1685.533
1877.4551
2173.8455
1794.7644
2067.8139
1708.8176
2148.3957
1583.1713
1952.962
2031.8037
1542.1144
1852.5618
1752.1897
2046.2478
1696.3532
1974.1069
2323.1869
1938.4022
2347.794
1930.8359
2334.0621
1811.3163
2105.2695
2052.6301
2057.4269
2001.5205
2002.3494
2228.9867
1891.0125
2188.9698
2551.1499
2009.9948
2431.9952
2161.3744
2566.4604
2171.5854
2340.6577
2507.3677
2646.4249
2489.5993
2497.9885
2552.798
2222.3142
2373.6763
2728.8488
2258.9277
2537.6358
2406.4624
2665.2914
2548.186
2721.3787
2922.9466
3034.3909
2886.5854
2921.2161
2955.4338
2760.0783
2614.9936
3422.2368
3215.9365
3234.5468
3250.5409
3243.7563
3121.0774
3290.7656
3804.2674
3589.7267
3466.0186
3580.527
3515.2074
3760.2738
3294.8211
3704.3907
3762.5633
4099.531
4112.7646
4238.8712
4155.7842
3432.319
6287.3425
5360.8795
5383.1301
4943.9198
5380.6189
4807.5516
5161.0639
4573.2203
3781.5566
3174.7356
3063.7435
2744.2085
2592.5978
1533.4567
3426.6745
5670.5696
6012.271
6446.0385
6259.8492
5534.1641
4831.9815
3655.9028
3835.5863
3537.71
3743.3804
3596.4752
3128.5958
1989.492
4059.4189
6545.1843
8120.1776
8874.2637
8743.0385
7947.9227
6654.1471
3818.9051
3857.0032
2663.3038
2248.2705
2021.6928
1935.5961
2053.7548
3943.6917
4896.6815
4992.6144
5633.7294
5829.1997
6063.7786
4999.8758
3683.6806
3507.2482
3224.1573
3346.0051
3105.5528
2565.1955
3482.0587
4281.5934
3766.5468
3207.2583
3470.7492
3065.0694
3328.8916
3361.3406
3777.5889
3664.5194
3453.5939
3477.6093
3877.7863
3377.985
4298.9679
3935.9847
3837.027
2481.4234
2788.5654
2279.6362
2144.0141
2440.6128
3401.5831
3290.8617
3242.6462
3112.0674
3746.3154
3423.7778
4123.904
3427.8181
3653.2713
2485.7062
2438.6664
2592.2393
2218.917
2558.613
3273.2777
3253.4698
2399.4657
2787.1561
3026.059
2437.9894
2906.7487
3205.8168
3674.0683
2137.2489
2461.3103
2451.9334
2552.5841
2411.6126
2769.1904
3117.1309
2750.5544
2170.9499
2565.9487
2167.0751
2295.4507
2657.1916
2906.0651
2345.2769
2021.3603
2310.232
2254.8341
2187.0404
2333.9532
2668.2278
2348.6601
1882.5663
2284.549
1950.444
2075.7995
2233.2086
2553.5367
2103.8058
1754.19
2082.0286
1961.8467
1962.8436
1988.9688
2285.5302
2023.1854
1587.7523
2033.2042
1740.5014
1826.2447
1972.3877
2261.5711
1823.8899
1508.9631
1869.3092
1639.7283
1751.6818
1998.1194
1941.2795
1785.648
1441.2728
1720.6183
1541.6516
1592.331
2025.3581
1925.517
1665.2533
1286.1517
1630.5327
1439.8526
1559.8753
2172.618
1784.1474
1397.0063
1415.6632
1570.679
1369.2157
1354.1906
2124.6082
1462.401
1408.8106
1244.7419
1402.2245
1301.6903
1521.8869
2094.9061
1406.0708
1438.8597
1003.7515
1259.7624
1296.2631
1358.3403
2187.5891
1249.2296
1231.4958
1030.0201
1115.4773
1229.9247
1374.468
2069.2993
1131.4567
1236.7278
1073.6912
1007.5158
1234.265
1304.2065
2089.984
1143.3806
1378.7108
969.62681
1179.0914
1204.0375
1428.7394
2046.7543
1156.9579
1141.3983
1091.4949
960.7528
1203.2298
1381.0489
1994.9492
1164.2807
1328.2932
1103.0588
1093.3764
1305.2658
1427.6127
2024.4551
1233.9039
1269.4946
1161.6423
1093.1926
1324.252
1480.7326
2067.1526
1325.5277
1394.7571
1250.8015
1131.6479
1400.6971
1463.4141
2076.9227
1350.5448
1402.1411
1274.5516
1251.6823
1501.9306
1666.2184
2135.6323
1455.453
1526.8012
1461.9627
1332.263
1608.9815
1670.2228
2258.0559
1622.1938
1679.5845
1528.0934
1470.5838
1713.5655
1829.1105
2189.4627
1631.2354
1606.7377
1642.5317
1558.3596
1767.549
1950.4755
2594.5856
1937.4474
1987.9634
1965.0662
1672.8076
2078.2911
2102.8099
2295.1519
1864.715
1998.6271
1801.029
1852.1338
2037.267
2263.4344
2817.2922
2355.9142
2293.8368
2365.1333
2116.596
2510.4149
2570.4925
2733.3044
2171.0917
2483.7629
2220.2762
2227.0322
2385.6203
2502.5988
3018.0119
2843.5044
2803.293
2864.97
2610.0751
2989.6899
3072.1457
3338.0408
2526.3386
2938.5571
2584.6107
2681.4563
2883.282