/*--------------------------------*- C++ -*----------------------------------*\
  =========                 |
  \\      /  F ield         | OpenFOAM: The Open Source CFD Toolbox
   \\    /   O peration     | Website:  https://openfoam.org
    \\  /    A nd           | Version:  6
     \\/     M anipulation  |
\*---------------------------------------------------------------------------*/
FoamFile
{
    version     2.0;
    format      ascii;
    class       pointVectorField;
    location    "1.71";
    object      u;
}
// * * * * * * * * * * * * * * * * * * * * * * * * * * * * * * * * * * * * * //

dimensions      [0 1 0 0 0 0 0];

internalField   nonuniform List<vector> 
3969
(
(0 0 0)
(0 0 0)
(0.052828841 0.011462497 -0.0012767608)
(0.052520288 -0.01432017 0.00059866501)
(0 0 0)
(0 0 0)
(0.050529268 -0.012380246 0.00064608335)
(0.050890619 0.013269391 -0.0014178001)
(0 0 0)
(0 0 0)
(0 0 0)
(0 0 0)
(0 0 0)
(0 0 0)
(0 0 0)
(0.052649913 0.0074553199 -0.0014533825)
(0.052301794 0.0043032811 -0.0010615406)
(0.052049657 0.0013914899 -0.00081483441)
(0.051960937 -0.001400366 -0.00036367589)
(0.051976415 -0.0042191131 -3.3926473e-05)
(0.052046008 -0.007134675 0.00037465514)
(0.052348879 -0.010318667 0.00056442439)
(0.00015515763 0.00026806932 0.00016229784)
(0.0001428488 0.00031931138 0.00031062476)
(4.9360277e-05 0.00054656337 0.00051792741)
(-8.6251125e-06 0.00058916412 0.00079302743)
(-0.00012100301 0.00080453516 0.0010589487)
(-0.00017751315 0.00084308609 0.0013847447)
(-0.00027099189 0.0010251768 0.0016829677)
(-0.00028516204 0.0010555797 0.0020073376)
(-0.00031525666 0.0012266534 0.0023068301)
(-0.00028423341 0.0012344149 0.0026065919)
(-0.00022884753 0.001395101 0.0028723956)
(-0.00012808757 0.001408351 0.0031332741)
(1.4505276e-05 0.0015444812 0.0033444442)
(0.00020818846 0.0015804843 0.0035463378)
(0.0004553735 0.0017019338 0.0036958152)
(0.00074167891 0.0017590829 0.003824914)
(0.0010961232 0.0018749405 0.0039173514)
(0.001486767 0.0019548953 0.0039798419)
(0.0019446441 0.002069516 0.0040129539)
(0.0024407029 0.0021768588 0.0040164729)
(0.0030011271 0.0022971851 0.0040003512)
(0.0036009881 0.0024273944 0.0039551343)
(0.0042613597 0.0025703532 0.0038968305)
(0.0049580589 0.0027238472 0.0038252218)
(0.0057216316 0.0028867868 0.0037344774)
(0.0065196023 0.0030797513 0.0036435961)
(0.0073799456 0.0032798818 0.0035413576)
(0.0082968046 0.0034995359 0.0034304313)
(0.0092795977 0.0037599768 0.0033175868)
(0.010323806 0.0040242521 0.0032008687)
(0.011453957 0.004334059 0.0030767441)
(0.012663775 0.0046656891 0.0029521044)
(0.013975469 0.0050330543 0.0028155295)
(0.015388533 0.0054254856 0.0026788565)
(0.016936628 0.0058703507 0.002522262)
(0.018602145 0.0063006128 0.0023709125)
(0.020427086 0.0068435804 0.002182284)
(0.022411726 0.0072691685 0.002010747)
(0.024550656 0.0079029353 0.001761385)
(0.026903943 0.0083176847 0.0015849901)
(0.029405219 0.0089661285 0.0012687556)
(0.032122519 0.0094164586 0.001049241)
(0.035049931 0.009896049 0.00073039956)
(0.038101974 0.010462064 0.0003830385)
(0.04142816 0.010688974 0.00011055229)
(0.044851602 0.011169281 -0.00029822578)
(0.048344198 0.011450633 -0.00054528926)
(-0.00024380036 0.00028527093 0.00023880453)
(-0.00028267873 0.00041493808 0.0004325659)
(-0.00041275517 0.00059154206 0.00052572474)
(-0.00039877759 0.00062780113 0.00084264943)
(-0.00042051489 0.00073158438 0.0010490638)
(-0.00041265322 0.00069447708 0.0013726175)
(-0.00038635642 0.00073008317 0.0016332792)
(-0.00034555606 0.00061372213 0.0019528303)
(-0.00028942935 0.00057159384 0.0022269124)
(-0.00018721278 0.00038776563 0.002523262)
(-8.5792124e-05 0.00028282113 0.0027747076)
(7.5710371e-05 4.7363286e-05 0.0030359401)
(0.0002488324 -0.00012666128 0.0032484474)
(0.00048117883 -0.00038051426 0.0034535188)
(0.00073405633 -0.0006082053 0.0036244478)
(0.0010463391 -0.00088154504 0.0037713063)
(0.0013898915 -0.0011319666 0.0038925295)
(0.0017968828 -0.001425127 0.0039850865)
(0.0022225902 -0.0016791256 0.0040531558)
(0.002738454 -0.001986243 0.0040974925)
(0.003248042 -0.0022419786 0.0041156872)
(0.0038637068 -0.0025518517 0.0041152834)
(0.0044755407 -0.0028182641 0.0040911647)
(0.0051825038 -0.0031293868 0.0040508132)
(0.0058941925 -0.0034108363 0.0039831442)
(0.0067068818 -0.003738096 0.0039078224)
(0.0075235468 -0.0040363023 0.0038087874)
(0.0084416156 -0.0043906173 0.0036986904)
(0.0094008581 -0.0047370177 0.0035662772)
(0.010437759 -0.0051182165 0.0034218724)
(0.011551393 -0.0055169836 0.0032610063)
(0.012748843 -0.0059533923 0.0030869903)
(0.014043837 -0.0064071414 0.0028995477)
(0.01544642 -0.0069068881 0.0027000735)
(0.016964921 -0.0074195532 0.0024931773)
(0.01861495 -0.0079794528 0.0022731966)
(0.020413834 -0.008550655 0.0020545975)
(0.022356526 -0.0091479049 0.0018349239)
(0.024487862 -0.0097715056 0.0016181379)
(0.026783086 -0.010381898 0.001408902)
(0.029264119 -0.011003326 0.0012086489)
(0.031955998 -0.01162208 0.0010324643)
(0.034806394 -0.012177469 0.00085263502)
(0.037900184 -0.012741222 0.00073182112)
(0.041115712 -0.013217177 0.00060952025)
(0.04460146 -0.013616032 0.00051190988)
(0.048211748 -0.014061008 0.0004920617)
(0 0 0)
(0 0 0)
(0 0 0)
(0 0 0)
(0 0 0)
(0 0 0)
(0 0 0)
(0.00015209414 -0.00014344867 0.00011777074)
(0.00014921403 -0.00046068997 0.00033663097)
(-2.0518667e-05 -0.00036881213 0.00058128629)
(-0.00014404363 -0.0006675864 0.00088787441)
(-0.00026282397 -0.00071940051 0.0012329285)
(-0.00039788865 -0.00085449724 0.0015504965)
(-0.00047471873 -0.00097884941 0.0019249296)
(-0.00057714073 -0.0010431997 0.0022545417)
(-0.00060374061 -0.0011803069 0.0026106868)
(-0.0006299037 -0.0012351094 0.0029260887)
(-0.0006148221 -0.0013356247 0.0032504175)
(-0.00053775247 -0.0014311256 0.0035376757)
(-0.00046262736 -0.0014623758 0.0037954901)
(-0.00028864354 -0.0016237775 0.0040495508)
(-0.00011588489 -0.0016063526 0.0042247283)
(0.00014870156 -0.0018051635 0.0044336918)
(0.00043044581 -0.001789883 0.0045414724)
(0.00078890641 -0.0019854302 0.0046866613)
(0.0011776567 -0.0020115682 0.0047484617)
(0.0016328277 -0.0021907508 0.0048303265)
(0.0021234808 -0.0022633394 0.004854728)
(0.0026745075 -0.0024385754 0.0048892501)
(0.0032628197 -0.0025526396 0.0048834692)
(0.0039072774 -0.0027354725 0.0048831752)
(0.004594402 -0.0028942989 0.004858425)
(0.005342577 -0.0030947198 0.0048277659)
(0.0061354473 -0.0033015302 0.0047907055)
(0.0069881172 -0.0035374494 0.0047465725)
(0.0078972423 -0.0037956166 0.0047005273)
(0.0088813835 -0.0040830025 0.0046455519)
(0.0099397073 -0.0043973482 0.0045857465)
(0.011083832 -0.0047431593 0.0045175188)
(0.012331573 -0.0051289742 0.0044430182)
(0.013681264 -0.005536293 0.0043544683)
(0.015161847 -0.0059954609 0.0042533242)
(0.016775477 -0.0064678026 0.0041458576)
(0.018516532 -0.0069719307 0.0039987929)
(0.020464642 -0.0075331031 0.0038563826)
(0.022541368 -0.0080799476 0.0036789949)
(0.024830201 -0.0086610424 0.0034781438)
(0.027295378 -0.0092404975 0.0032474109)
(0.029974273 -0.0098153526 0.002991155)
(0.032827334 -0.01036399 0.0027027751)
(0.035910698 -0.010893291 0.0023823994)
(0.039148397 -0.011354448 0.002025457)
(0.042630271 -0.011770193 0.0016596681)
(0.046212431 -0.012220046 0.0012149906)
(0.050468161 -0.0083684585 0.00018813646)
(0.050131749 -0.0052967965 -9.3782351e-05)
(0.050007597 -0.0022824929 -0.00022710463)
(0.050089285 0.00038371842 -0.00040773191)
(0.050053846 0.0032810723 -0.00043573644)
(0.05031478 0.0061061889 -0.0006730665)
(0.050762846 0.0092512922 -0.00083195443)
(0.046570331 0.013294858 -0.0016337459)
(0.042870837 0.012876927 -0.0015178264)
(0.0394558 0.012565188 -0.001431395)
(0.03619436 0.012173099 -0.0012693752)
(0.033122769 0.011705354 -0.0011142233)
(0.030242957 0.011205808 -0.00093286053)
(0.027570453 0.010654619 -0.00071135453)
(0.025085792 0.010093572 -0.00048823296)
(0.022796724 0.0095145324 -0.00023713417)
(0.020691792 0.0089423439 1.061793e-05)
(0.018747967 0.0083883271 0.00027883348)
(0.017008979 0.0078159866 0.00055530505)
(0.015364499 0.0073159133 0.00080625522)
(0.013895645 0.006799175 0.0010735091)
(0.012527317 0.0063383225 0.0013236055)
(0.011284216 0.0058871735 0.0015679572)
(0.010129658 0.0054779551 0.0018012888)
(0.0090742323 0.0050812197 0.0020221385)
(0.0080897638 0.0047230777 0.0022261202)
(0.0071837822 0.0043706594 0.0024222687)
(0.0063394944 0.0040498555 0.0025946337)
(0.0055532978 0.0037318763 0.0027553872)
(0.0048260435 0.0034351574 0.0028937862)
(0.0041495858 0.0031353849 0.0030226164)
(0.0035229705 0.0028544489 0.0031194339)
(0.0029456963 0.0025596249 0.0032092544)
(0.0024140921 0.0022892728 0.0032608242)
(0.0019331812 0.0019918639 0.0033081353)
(0.0014950188 0.0017291438 0.0033090796)
(0.0011059051 0.0014327244 0.0033047145)
(0.00075951411 0.00117668 0.003254651)
(0.00046117352 0.00089183522 0.0031917383)
(0.00019724932 0.00064693321 0.0030859627)
(-1.3346936e-05 0.0003914428 0.0029612191)
(-0.00019402722 0.00017373429 0.0028060287)
(-0.00033223264 -6.9373005e-05 0.0026307326)
(-0.0004476116 -0.00021916023 0.0024073786)
(-0.00051417302 -0.00042495358 0.0022028971)
(-0.00057942455 -0.0005119167 0.0019382335)
(-0.00059492426 -0.00065966542 0.0016889755)
(-0.000606075 -0.00065919966 0.0014262936)
(-0.00059648067 -0.00074511706 0.0011765503)
(-0.00057263038 -0.00067973577 0.00090435136)
(-0.00054335448 -0.00067391783 0.00068885399)
(-0.00048943397 -0.00054313463 0.00045955546)
(-0.00043149094 -0.00046554558 0.00026313872)
(-0.00036172059 -0.00026778427 0.00012314658)
(0 0 0)
(0 0 0)
(0 0 0)
(0 0 0)
(0 0 0)
(0 0 0)
(0 0 0)
(0 0 0)
(0 0 0)
(0 0 0)
(0 0 0)
(0 0 0)
(0 0 0)
(0 0 0)
(0.052344701 -0.014275193 0.0005402112)
(0.052153054 -0.014085689 0.00056692783)
(0.051919364 -0.013861503 0.00057782749)
(0.051689457 -0.013647351 0.00064274952)
(0.051456499 -0.013426588 0.00067443452)
(0.051188735 -0.013151628 0.00072467096)
(0.050938231 -0.012925592 0.00066951104)
(0.05276022 0.011974138 -0.0012759355)
(0.052533212 0.012181078 -0.0012429997)
(0.052293163 0.012418575 -0.0013087608)
(0.05205838 0.012649531 -0.0013468643)
(0.051810534 0.012877184 -0.0013923869)
(0.051548896 0.013063006 -0.0014367313)
(0.051345819 0.013362334 -0.0014305874)
(-0.00027496061 -0.0055579305 0.00025113831)
(-0.00061610764 -0.011065713 0.00033915369)
(-0.0010569583 -0.016364946 0.00055910491)
(-0.0014187983 -0.021415544 0.00077816375)
(-0.0018320746 -0.026082789 0.0010348506)
(-0.0021411978 -0.030327905 0.001319639)
(-0.0024858019 -0.034043882 0.0016103213)
(-0.0026749177 -0.037162424 0.0019051077)
(-0.0028947816 -0.039653457 0.0021986254)
(-0.002959045 -0.041459178 0.0024858366)
(-0.0030155736 -0.042517482 0.0027573072)
(-0.0029162665 -0.042866414 0.003001627)
(-0.0027986668 -0.042431785 0.0032383146)
(-0.0025227834 -0.041278019 0.0034319913)
(-0.0021976513 -0.039368415 0.0036050864)
(-0.001752989 -0.036787448 0.0037483037)
(-0.0012166476 -0.03351833 0.0038557553)
(-0.00059012505 -0.029675817 0.0039339898)
(0.00012892817 -0.025264367 0.0039819418)
(0.00093389022 -0.020405805 0.0040007622)
(0.001817865 -0.015149449 0.0039954392)
(0.0027726913 -0.0095934348 0.0039647285)
(0.0037991072 -0.0038332032 0.003918675)
(0.0048722163 0.0020316954 0.0038545599)
(0.006019076 0.0079293601 0.0037722034)
(0.007202069 0.013723729 0.0036792058)
(0.0084358112 0.019343909 0.003574634)
(0.0097052803 0.024706195 0.0034680547)
(0.011027426 0.029690525 0.0033458944)
(0.012381532 0.034246061 0.0032229127)
(0.013789913 0.038286627 0.0030917364)
(0.015246689 0.041744583 0.0029514374)
(0.016759857 0.044569406 0.002805731)
(0.018341603 0.046722698 0.0026496133)
(0.020004094 0.04815126 0.0024821142)
(0.021731626 0.048854691 0.0023066388)
(0.023588386 0.048827467 0.0021063915)
(0.025512556 0.048018191 0.00191511)
(0.02758804 0.046552523 0.0016839069)
(0.029771709 0.044295786 0.0014661518)
(0.032064982 0.041486343 0.0011951977)
(0.034551977 0.037899979 0.00097001904)
(0.037119051 0.033948399 0.00062542209)
(0.039860469 0.029334529 0.0003770414)
(0.042766942 0.024320811 3.3631583e-05)
(0.04569023 0.019093548 -0.00032940987)
(0.048932515 0.013243552 -0.00074115963)
(-0.00049083344 -0.0079070398 0.00026322018)
(-0.0010004456 -0.015831468 0.00038795247)
(-0.0015357677 -0.023326425 0.00057819708)
(-0.0020552733 -0.030585749 0.00081005222)
(-0.0025405905 -0.037204213 0.001039037)
(-0.0030123646 -0.043301677 0.0013262303)
(-0.0033826409 -0.048542589 0.0015750736)
(-0.0037129749 -0.053066998 0.0018781771)
(-0.0039516825 -0.056589063 0.0021547669)
(-0.0041088303 -0.059222887 0.002444919)
(-0.0041443115 -0.060734757 0.0026851671)
(-0.0041140015 -0.061318684 0.0029663404)
(-0.0039439291 -0.060724382 0.0031737732)
(-0.0036689373 -0.05917173 0.0033834468)
(-0.0032899908 -0.056521883 0.0035592657)
(-0.0027801655 -0.052936882 0.0037040009)
(-0.0021665028 -0.048385941 0.0038143171)
(-0.0014462619 -0.043016651 0.0039039186)
(-0.00060731696 -0.03686286 0.0039520012)
(0.00031572385 -0.030071274 0.0039794193)
(0.0013455199 -0.022727077 0.0039758904)
(0.0024473653 -0.014967017 0.0039448573)
(0.0036278696 -0.0069348731 0.0039027684)
(0.0048737814 0.0012750824 0.0038251477)
(0.0061821985 0.0094715712 0.0037398402)
(0.0075160022 0.017554638 0.0036513953)
(0.0089070254 0.025368336 0.0035461299)
(0.010334801 0.032784782 0.0034178051)
(0.011780949 0.039684636 0.0033030828)
(0.013269267 0.045945596 0.003167998)
(0.014790064 0.051466042 0.0030269175)
(0.016341218 0.056148609 0.002884606)
(0.017938213 0.059925524 0.0027277871)
(0.019585938 0.062724126 0.00256612)
(0.021276382 0.064501741 0.002397899)
(0.023049371 0.065232511 0.0022169197)
(0.0248865 0.064915301 0.0020282757)
(0.02679296 0.063476407 0.0018474618)
(0.028834207 0.061153217 0.001593737)
(0.030908118 0.05762887 0.0014285338)
(0.033181126 0.053397561 0.001140949)
(0.035494774 0.048107431 0.00093526647)
(0.037981182 0.042209055 0.00064068874)
(0.040556751 0.035473479 0.00041363248)
(0.043264696 0.02826477 8.808132e-05)
(0.046132258 0.020514729 -0.00023343005)
(0.049230715 0.012432305 -0.00063906602)
(-0.0004037061 -0.0055295081 0.00029402809)
(-0.00074107643 -0.011041488 0.00041779142)
(-0.0011838752 -0.016361393 0.0006276025)
(-0.0015353517 -0.021399907 0.00083093599)
(-0.001940583 -0.026113235 0.001092754)
(-0.0022283869 -0.030332733 0.0013353725)
(-0.0025476023 -0.034107332 0.0016239766)
(-0.0027379257 -0.037248228 0.001909376)
(-0.0029435207 -0.039805048 0.0021917007)
(-0.0029782696 -0.041622563 0.0024469456)
(-0.0030465422 -0.04277978 0.0027291409)
(-0.0029350775 -0.04318062 0.0029710619)
(-0.0028014343 -0.042811103 0.0031749078)
(-0.0025347555 -0.041749023 0.0033946596)
(-0.0022019033 -0.039915462 0.0035558973)
(-0.0017530741 -0.037421699 0.0036973865)
(-0.0012291422 -0.034249819 0.0038204337)
(-0.00059616204 -0.030496231 0.0038954177)
(0.0001128703 -0.02619136 0.0039606788)
(0.00091151435 -0.02143159 0.0039847971)
(0.0017839022 -0.016277717 0.0039937674)
(0.0027252205 -0.010843914 0.0039798686)
(0.0037421265 -0.0051835793 0.0039410102)
(0.0048087069 0.00056160359 0.0038822074)
(0.0059285477 0.0063201304 0.0038261277)
(0.0070936699 0.01198949 0.0037335072)
(0.0083211122 0.017471402 0.0036261082)
(0.0095722187 0.022670047 0.0035253956)
(0.01087784 0.02749995 0.0034020373)
(0.012225165 0.031875895 0.0032638461)
(0.013614344 0.035721297 0.0031301766)
(0.01505703 0.038980906 0.0029731286)
(0.016564993 0.041584665 0.002813885)
(0.018125599 0.043506871 0.0026420944)
(0.01977943 0.044687578 0.0024664539)
(0.021509493 0.04515603 0.0022660161)
(0.02333276 0.044813367 0.0020832763)
(0.025285059 0.043818809 0.0018473933)
(0.027342399 0.042007019 0.0016467853)
(0.029524928 0.039515694 0.0014356731)
(0.031863407 0.036465729 0.0011515819)
(0.034303317 0.03259721 0.00099557781)
(0.036951112 0.028431833 0.00066023619)
(0.039698984 0.023554759 0.000479457)
(0.042708719 0.018410721 0.000134552)
(0.045779871 0.012920357 -0.0001374272)
(0.048989172 0.0071617672 -0.00043122965)
(-8.4467338e-05 0.00024268937 0.00029173421)
(-8.6518248e-05 0.00034818437 0.00045790451)
(-0.00018682778 0.00055110357 0.00064307363)
(-0.00024496682 0.0006359523 0.00090841227)
(-0.00029812331 0.00078141503 0.0011353332)
(-0.00036752502 0.00082175194 0.001437891)
(-0.00037964017 0.0008982233 0.0017005764)
(-0.00042815628 0.00089080477 0.0020095285)
(-0.00037905512 0.00092303602 0.0022557496)
(-0.00037262317 0.00087089792 0.0025652141)
(-0.00027308002 0.00084500045 0.0028051317)
(-0.00016443262 0.00077988505 0.0030306227)
(-1.4309524e-05 0.00073419603 0.003252404)
(0.00019707129 0.00061645834 0.0034461946)
(0.00042940168 0.00057763292 0.0035878431)
(0.00073741147 0.00044833426 0.0037392258)
(0.0010715549 0.00039301594 0.0038265783)
(0.0014683061 0.00027778029 0.0039150423)
(0.0019106644 0.00020271172 0.0039602622)
(0.0023994233 0.00011407784 0.0039833764)
(0.0029478848 2.1720062e-05 0.0039939116)
(0.003535526 -4.6615727e-05 0.0039608069)
(0.0041787399 -0.00013009776 0.0039256084)
(0.0048602978 -0.00020344795 0.0038719762)
(0.0056026935 -0.00026838086 0.003793171)
(0.0063939575 -0.00033154799 0.0036961337)
(0.0072335326 -0.00039110777 0.0036072819)
(0.0081264939 -0.00045679061 0.00349506)
(0.0090857276 -0.00050472393 0.0033642188)
(0.010107533 -0.00056699142 0.0032439367)
(0.011206601 -0.00061796983 0.003097683)
(0.012395224 -0.00066838298 0.0029490072)
(0.013672372 -0.0007266856 0.0027910264)
(0.01506598 -0.00077319138 0.0026257853)
(0.016574455 -0.00081885477 0.0024431859)
(0.018220305 -0.00088594036 0.0022709907)
(0.020017934 -0.00090457469 0.0020657296)
(0.021972218 -0.00097355022 0.0018755231)
(0.0241051 -0.0010328231 0.0016816087)
(0.026412855 -0.0010432486 0.0014390774)
(0.028948734 -0.0011224992 0.001246999)
(0.031650577 -0.0011817607 0.001021633)
(0.034620188 -0.0011557783 0.00075246247)
(0.0377612 -0.0012997399 0.00059150912)
(0.041127428 -0.0012420202 0.0002954455)
(0.044635122 -0.0013512889 0.00015180965)
(0.048395941 -0.0013874391 -0.00014024995)
(0.00023551812 0.0060147924 0.00030645362)
(0.00057073792 0.011825864 0.0004712508)
(0.00077741074 0.017456953 0.00069868975)
(0.0010852468 0.02276033 0.00093042394)
(0.0012834217 0.027633131 0.0012087901)
(0.0015586985 0.032056694 0.0014796277)
(0.0017373135 0.035845841 0.0017902209)
(0.0019896516 0.039090851 0.0020484576)
(0.0021414487 0.041565411 0.0023598228)
(0.0023528775 0.043387502 0.0026194462)
(0.0024993486 0.044421358 0.0028554482)
(0.0026713216 0.044715958 0.0031026019)
(0.0028137836 0.044210541 0.0033077942)
(0.002966287 0.04297597 0.0034755102)
(0.0030999705 0.040998838 0.003638425)
(0.003255837 0.038300343 0.0037582495)
(0.0033896688 0.034980598 0.0038618897)
(0.0035582997 0.031017726 0.0039326723)
(0.0037126299 0.026569057 0.0039810589)
(0.0039036004 0.02162056 0.0040098721)
(0.0040977646 0.016325849 0.0040174945)
(0.0043256631 0.01073214 0.0039986665)
(0.0045854249 0.0049476533 0.0039821302)
(0.0048756503 -0.00092984929 0.0039257391)
(0.0052235096 -0.006813825 0.0038693659)
(0.0056046894 -0.012589512 0.0037978725)
(0.0060608694 -0.018184256 0.0037177132)
(0.0065807185 -0.023475921 0.0036053092)
(0.0071908326 -0.028402416 0.00350424)
(0.007885457 -0.032869262 0.0033750481)
(0.0086958248 -0.036808511 0.0032408823)
(0.0096167339 -0.040146811 0.0030893638)
(0.01068587 -0.042858178 0.0029408957)
(0.011891293 -0.044838828 0.0027534872)
(0.013278449 -0.046151211 0.0025929641)
(0.01484313 -0.046662632 0.0023833775)
(0.016600003 -0.046466225 0.0021912915)
(0.018604453 -0.045521261 0.0019885794)
(0.020786203 -0.043820014 0.0017484159)
(0.023275221 -0.041436425 0.0015454297)
(0.025978084 -0.038413601 0.0013187117)
(0.028976173 -0.034732965 0.0010823647)
(0.032235411 -0.030568834 0.00087177742)
(0.035747708 -0.025920093 0.00067124816)
(0.039551199 -0.020819603 0.0004325582)
(0.043629169 -0.015490022 0.00026254701)
(0.047876014 -0.0098752273 7.0829523e-05)
(0.00034726559 0.0083982474 0.00027751211)
(0.00082237071 0.016517645 0.00049577367)
(0.0011791781 0.02445874 0.00065972754)
(0.0015969072 0.031833286 0.00096329496)
(0.0019753055 0.038759825 0.001188913)
(0.0023304302 0.044883639 0.001525843)
(0.0026766612 0.050309972 0.0017788312)
(0.0029636531 0.054788066 0.0021058662)
(0.0032547307 0.058347994 0.0023789186)
(0.0034827772 0.060885921 0.0026445002)
(0.0037057612 0.062367501 0.0029036975)
(0.0038803385 0.062758517 0.0031366371)
(0.0040304062 0.06209991 0.0033248848)
(0.0041653048 0.060331533 0.0035157307)
(0.004261624 0.057563276 0.0036550091)
(0.0043553855 0.053762559 0.0037883928)
(0.0044168824 0.049069999 0.0038761768)
(0.0044828141 0.04349978 0.0039524187)
(0.0045319759 0.037196723 0.0040021167)
(0.0045899821 0.030223781 0.004025591)
(0.0046474257 0.022734642 0.0040365483)
(0.0047332983 0.014829281 0.0040195451)
(0.0048242499 0.0066547801 0.0039951351)
(0.0049656142 -0.0016811256 0.0039395875)
(0.0051350922 -0.0099896703 0.0038895156)
(0.0053717259 -0.018189213 0.0038079925)
(0.0056726575 -0.026092958 0.0037150105)
(0.0060495715 -0.033612819 0.0036149728)
(0.006511814 -0.040590563 0.0034984307)
(0.0070864297 -0.046939626 0.0033702395)
(0.0077746642 -0.05253544 0.003229576)
(0.0086026871 -0.057303142 0.0030808427)
(0.0095795732 -0.061148173 0.0029143167)
(0.010726567 -0.064035793 0.0027428717)
(0.012062776 -0.065887198 0.0025574839)
(0.013589771 -0.066708114 0.0023616804)
(0.01535943 -0.066468485 0.0021652591)
(0.017337572 -0.065167652 0.0019445106)
(0.019598566 -0.062869943 0.0017432139)
(0.02212565 -0.059582279 0.0015162621)
(0.024892899 -0.055340369 0.0012965693)
(0.027995108 -0.050248195 0.0010814436)
(0.03133354 -0.044433798 0.00089429861)
(0.035011626 -0.037855311 0.00068289558)
(0.038922582 -0.030751544 0.00052216594)
(0.043140563 -0.023183482 0.00042049389)
(0.047551203 -0.015179917 0.00034316924)
(0.00017514945 0.0060005409 0.00026588495)
(0.00046815779 0.011820942 0.00045532766)
(0.00068551222 0.017435185 0.00064989002)
(0.0010043904 0.022734153 0.00089892239)
(0.0012421046 0.027588322 0.0011657787)
(0.0015382549 0.031966727 0.0014580491)
(0.0017575773 0.035741193 0.0017474157)
(0.0020152332 0.038921815 0.0020510816)
(0.0022130947 0.041364707 0.002331128)
(0.0024234542 0.043140789 0.0026079338)
(0.0026098997 0.044088421 0.0028795909)
(0.0027763942 0.044342528 0.0030887561)
(0.0029446426 0.043761249 0.0033174802)
(0.0031015627 0.042449669 0.0034961013)
(0.0032470481 0.040384216 0.0036541322)
(0.0034055539 0.037615721 0.0037900635)
(0.0035460266 0.034192377 0.0038894647)
(0.0037190242 0.03015858 0.003980461)
(0.0038711885 0.025595675 0.004026368)
(0.004066809 0.020570193 0.0040702255)
(0.0042611595 0.015165822 0.0040752789)
(0.0044894935 0.0094741602 0.0040749775)
(0.0047493096 0.0035838106 0.0040436938)
(0.0050480953 -0.0024088746 0.004007548)
(0.0053863644 -0.0084049402 0.0039452331)
(0.005780007 -0.014301884 0.0038649684)
(0.0062408643 -0.020020233 0.0037884321)
(0.0067628525 -0.025452232 0.0036782008)
(0.0073755262 -0.030517868 0.0035617816)
(0.0080811781 -0.035144712 0.0034312016)
(0.008890245 -0.039248027 0.0032838907)
(0.0098236209 -0.042772304 0.0031261909)
(0.010889803 -0.045668854 0.0029555828)
(0.012106325 -0.047875725 0.0027704327)
(0.01349035 -0.049392816 0.0025804028)
(0.015055376 -0.050165614 0.0023730204)
(0.016817132 -0.050209129 0.002158657)
(0.018802573 -0.049521771 0.0019486066)
(0.02100782 -0.048109816 0.0017212724)
(0.023463078 -0.04602084 0.0015046095)
(0.026153659 -0.043247626 0.0012853278)
(0.02912803 -0.039890521 0.0010887383)
(0.032329565 -0.035973643 0.00090254941)
(0.035824037 -0.031510914 0.00070826444)
(0.039514431 -0.026714702 0.0006141726)
(0.043503704 -0.021453035 0.00046901239)
(0.047635277 -0.015909659 0.0004543881)
(0 0 0)
(0 0 0)
(0 0 0)
(0 0 0)
(0 0 0)
(0 0 0)
(0 0 0)
(0 0 0)
(0 0 0)
(0 0 0)
(0 0 0)
(0 0 0)
(0 0 0)
(0 0 0)
(0 0 0)
(0 0 0)
(0 0 0)
(0 0 0)
(0 0 0)
(0 0 0)
(0 0 0)
(0 0 0)
(0 0 0)
(0 0 0)
(0 0 0)
(0 0 0)
(0 0 0)
(0 0 0)
(0 0 0)
(0 0 0)
(0 0 0)
(0 0 0)
(0 0 0)
(0 0 0)
(0 0 0)
(0 0 0)
(0 0 0)
(0 0 0)
(0 0 0)
(0 0 0)
(0 0 0)
(0 0 0)
(0 0 0)
(0 0 0)
(0 0 0)
(0 0 0)
(0 0 0)
(0 0 0)
(0 0 0)
(-0.00023091418 9.9338201e-05 0.00010262854)
(-0.00017884136 6.651977e-05 4.76442e-05)
(-0.00012669091 5.1830419e-05 4.525449e-05)
(-7.9192953e-05 3.7086136e-05 3.9061865e-05)
(-3.8425028e-05 1.3576884e-05 3.3911759e-05)
(1.9717013e-05 -1.8898805e-05 4.0499608e-05)
(6.868309e-05 -1.4072905e-05 3.1272141e-05)
(-0.00026140501 0.00022272241 0.00036444829)
(-0.00022325255 8.6676586e-05 0.00029603949)
(-0.00017808293 3.0357195e-05 0.00025691504)
(-0.00011554054 -1.2767799e-05 0.00025503702)
(-6.7047811e-05 -8.9738835e-05 0.00024626361)
(-3.0521544e-06 -0.00016023172 0.00025973746)
(5.3619925e-05 -0.00024076344 0.0002814897)
(-0.00035187659 0.00040771672 0.00050125019)
(-0.00027657033 0.00031263077 0.00045337278)
(-0.00022911698 0.0001817563 0.00047541968)
(-0.00018687927 9.9958247e-05 0.00045236867)
(-0.00013789596 4.9262093e-05 0.00047627258)
(-9.3986672e-05 -3.6422058e-05 0.00048285112)
(-5.2312056e-05 -0.00020108745 0.00055426412)
(-0.00034515975 0.00038586497 0.00081244962)
(-0.00033719791 0.00022125632 0.00077714293)
(-0.00030091833 0.00010110787 0.00077613336)
(-0.00026817586 -3.6756904e-07 0.00074758698)
(-0.00022563878 -8.906075e-05 0.00077891911)
(-0.00021345561 -0.0002579603 0.00080065019)
(-0.0001699317 -0.00036075644 0.00083104572)
(-0.00039606369 0.00047915611 0.0010453867)
(-0.00034980979 0.00030161918 0.0010271664)
(-0.00030543985 0.00015254153 0.0010460879)
(-0.00029143308 3.1901321e-05 0.0010788186)
(-0.00027953474 -0.00011216335 0.0010798086)
(-0.00025186816 -0.00024800427 0.0011250891)
(-0.00025894481 -0.00042781236 0.0011803772)
(-0.00037767572 0.00042434106 0.0013745632)
(-0.00036589484 0.00024001406 0.0013659663)
(-0.00036059563 0.00010234963 0.0014013127)
(-0.00035522249 -7.402478e-05 0.0013824808)
(-0.00034535067 -0.00017938586 0.0014394464)
(-0.0003720609 -0.00036826398 0.0014660732)
(-0.00037553488 -0.0005490978 0.001508759)
(-0.000367272 0.00044001493 0.0016535256)
(-0.00036878738 0.00027652159 0.0016910757)
(-0.00035850309 5.6517195e-05 0.00169951)
(-0.00036137066 -7.9960843e-05 0.0017409288)
(-0.00037579393 -0.00025174608 0.0017851122)
(-0.00039717991 -0.00045677215 0.0018148707)
(-0.0004263171 -0.00065537666 0.0018766105)
(-0.00034351521 0.00034783788 0.0019945231)
(-0.00033392711 0.00011447797 0.0019911389)
(-0.00034682059 -3.3326023e-05 0.0020640105)
(-0.00037792094 -0.00020923017 0.0020850836)
(-0.00040872593 -0.00036919333 0.0021142057)
(-0.00044560705 -0.00054365694 0.0021710729)
(-0.00050596943 -0.00073759533 0.0022187409)
(-0.0002665055 0.00026446693 0.0022705441)
(-0.00029794355 0.00011015728 0.0023387106)
(-0.00031771884 -7.83721e-05 0.0023835096)
(-0.00035981197 -0.00026762127 0.0024128984)
(-0.00039654557 -0.0004389213 0.0024762722)
(-0.00045561539 -0.00064726795 0.0025113364)
(-0.00052284129 -0.00086809456 0.0025665788)
(-0.00020860595 0.00016330414 0.0025869582)
(-0.00021793578 -7.5403873e-05 0.0026324607)
(-0.00026237232 -0.00025044137 0.0026693226)
(-0.00028887777 -0.0004242235 0.0027506127)
(-0.00035525778 -0.00058037621 0.0027887918)
(-0.00043606621 -0.00076814125 0.0028413435)
(-0.00051409453 -0.00094505989 0.0028982873)
(-7.6813596e-05 -1.33432e-06 0.0028569313)
(-0.000128133 -0.00016632537 0.0029196941)
(-0.00016147835 -0.00032375172 0.0030101901)
(-0.00023468027 -0.00048009923 0.0030451472)
(-0.00031012269 -0.00065037782 0.0031003534)
(-0.00038937125 -0.00082842717 0.0031598514)
(-0.00049818393 -0.0010469299 0.0032056033)
(3.8149209e-05 -0.00013801747 0.0031112392)
(2.1482701e-05 -0.00033563937 0.0031970757)
(-3.6555643e-05 -0.00051639504 0.003250526)
(-0.00010144883 -0.00069839971 0.0033145761)
(-0.00017587937 -0.0008415165 0.0033947374)
(-0.00028832462 -0.0010159673 0.0034343596)
(-0.00039621962 -0.0011825906 0.0035030947)
(0.00023711645 -0.00034878948 0.0033493774)
(0.00018165607 -0.00050456512 0.0034357079)
(0.00011570154 -0.00063641645 0.0035132694)
(3.5060918e-05 -0.00075491977 0.0035920848)
(-5.962755e-05 -0.00089343592 0.0036441081)
(-0.00018343654 -0.0010580295 0.0037087625)
(-0.00030671156 -0.0012251012 0.0037593787)
(0.00044208283 -0.00054264119 0.0035546859)
(0.00039771557 -0.00069886765 0.0036476991)
(0.00032920378 -0.00083804212 0.0037270633)
(0.0002506942 -0.0010029883 0.0037924188)
(0.00013951297 -0.0011305623 0.0038813263)
(2.1304e-05 -0.0012791587 0.0039297867)
(-0.00011891805 -0.0014116347 0.0040028928)
(0.00069777789 -0.00076410886 0.0037317909)
(0.00064462794 -0.0008880939 0.0038418537)
(0.0005644962 -0.00099949146 0.0039131904)
(0.00045901992 -0.0010866622 0.004013293)
(0.00035799638 -0.0011864671 0.0040721758)
(0.00020667235 -0.0013036171 0.0041376142)
(6.3521485e-05 -0.0014443987 0.0041938036)
(0.0010046924 -0.0010011625 0.0038874612)
(0.00095389178 -0.0011219269 0.0039900528)
(0.00085375104 -0.0012063922 0.0040833578)
(0.00077586571 -0.001334536 0.0041562206)
(0.00063746254 -0.0014276819 0.0042443605)
(0.00050320294 -0.0015543346 0.0043024241)
(0.00034299856 -0.0016350275 0.0043789678)
(0.001345207 -0.0012349824 0.0040030727)
(0.0012731765 -0.0013073859 0.0041290566)
(0.0011937144 -0.0013964824 0.0042002981)
(0.0010702008 -0.0014509888 0.0043057366)
(0.00095492949 -0.0015232272 0.0043790255)
(0.00079125143 -0.0015837663 0.0044447189)
(0.00062777316 -0.0016916776 0.0045084818)
(0.0017364129 -0.0014858874 0.0041105663)
(0.0016897151 -0.0015783485 0.0042162437)
(0.0015681377 -0.0016136925 0.0043141054)
(0.0014805679 -0.0016944113 0.0044043207)
(0.00132808 -0.0017404059 0.0044861768)
(0.0011755443 -0.0018330566 0.0045532917)
(0.00099847754 -0.0018698667 0.0046297318)
(0.0021820739 -0.0017393249 0.0041674219)
(0.0020929778 -0.0017658111 0.0042946985)
(0.0020082756 -0.0018111346 0.0043839244)
(0.001875105 -0.0018352871 0.0044804104)
(0.001742809 -0.0018798303 0.0045661372)
(0.0015709358 -0.0018968853 0.0046363841)
(0.0013914265 -0.0019611803 0.0047054078)
(0.0026587856 -0.0019952663 0.0042227881)
(0.002608127 -0.0020429061 0.0043415662)
(0.0024783097 -0.0020431183 0.0044333746)
(0.0023737079 -0.0020821877 0.0045356072)
(0.0022145926 -0.0020791097 0.0046218776)
(0.0020469081 -0.0021280821 0.0046920211)