/*--------------------------------*- C++ -*----------------------------------*\
  =========                 |
  \\      /  F ield         | OpenFOAM: The Open Source CFD Toolbox
   \\    /   O peration     | Website:  https://openfoam.org
    \\  /    A nd           | Version:  6
     \\/     M anipulation  |
\*---------------------------------------------------------------------------*/
FoamFile
{
    version     2.0;
    format      ascii;
    class       pointVectorField;
    location    "0.7";
    object      lm;
}
// * * * * * * * * * * * * * * * * * * * * * * * * * * * * * * * * * * * * * //

dimensions      [1 -2 -1 0 0 0 0];

internalField   nonuniform List<vector> 
625
(
(0 0 0)
(0 0 0)
(3653.3859 -1640.4493 27.598158)
(3096.7271 -2439.0259 105.77339)
(0 0 0)
(0 0 0)
(3055.8606 -2347.3312 107.69364)
(3611.6698 -1548.5241 28.462007)
(0 0 0)
(0 0 0)
(0 0 0)
(3512.7477 -1840.0721 47.247728)
(3374.7589 -2039.1857 65.799117)
(3237.4439 -2239.0916 86.518694)
(8.8582019 27.542964 24.651764)
(37.644638 65.706612 19.536471)
(93.013888 96.906805 25.82758)
(174.63924 121.18041 27.356731)
(269.72312 134.62523 34.115197)
(390.75546 135.07607 42.889581)
(521.01281 121.6959 54.155561)
(664.69716 93.617199 67.983696)
(818.68901 52.561918 83.802563)
(978.46129 -2.8570688 99.599231)
(1144.3755 -69.784701 115.84447)
(1315.4454 -148.37177 130.42719)
(1490.4821 -236.98977 142.39938)
(1670.2657 -334.80278 151.0082)
(1854.5107 -441.05141 155.12524)
(2043.4354 -554.90728 154.37914)
(2237.2072 -676.33108 148.91034)
(2435.1126 -803.18366 137.99285)
(2636.3926 -936.72841 123.76579)
(2840.781 -1074.6226 105.59312)
(3045.6465 -1214.1712 85.574002)
(3250.7625 -1358.1268 65.605421)
(3454.176 -1500.0224 44.936293)
(-11.879501 -28.273942 -49.858137)
(10.53892 -57.074172 -36.847935)
(47.859002 -104.15865 -41.119358)
(102.75408 -149.44989 -28.856163)
(168.99272 -193.7221 -16.606341)
(258.30915 -263.51972 2.0907499)
(352.81146 -323.31477 19.625964)
(463.12274 -399.65989 44.006316)
(581.31822 -484.0932 66.810553)
(708.46697 -573.98327 92.005717)
(842.33552 -675.27402 115.51297)
(981.93493 -782.53952 137.35505)
(1127.2749 -898.70551 155.8766)
(1277.8116 -1021.5917 170.47987)
(1434.1033 -1151.3131 180.56508)
(1596.342 -1286.8717 185.85082)
(1764.9795 -1427.3121 186.41164)
(1940.296 -1571.297 182.73685)
(2122.1305 -1717.4862 175.03804)
(2309.9004 -1864.6611 164.6357)
(2502.6702 -2011.0429 151.52839)
(2699.5692 -2155.8217 137.07692)
(2898.1179 -2298.2024 121.80885)
(0 0 0)
(0 0 0)
(0 0 0)
(1.6775938 -21.956297 34.140805)
(8.274799 -92.825372 49.42804)
(49.302715 -121.86914 47.523444)
(86.373348 -172.857 50.682794)
(152.61061 -254.95707 64.720216)
(227.94802 -301.21751 69.143725)
(311.5849 -382.86232 87.016987)
(411.95361 -457.5729 101.43347)
(519.48594 -539.84165 121.1331)
(637.58064 -627.08325 141.39791)
(764.69334 -716.72391 160.82122)
(899.60908 -814.12578 180.21406)
(1043.2345 -914.5577 196.22113)
(1194.6429 -1021.8383 208.85447)
(1354.0429 -1134.9112 216.91874)
(1521.3476 -1253.8621 219.60931)
(1696.1757 -1379.0886 217.04732)
(1878.1554 -1509.5868 209.23788)
(2066.4817 -1644.6661 196.95565)
(2259.9265 -1783.2486 180.99917)
(2457.4128 -1923.7576 162.80399)
(2656.7755 -2065.1673 143.47728)
(2856.6311 -2206.4347 124.70835)
(3196.3922 -2147.2153 87.306974)
(3334.5579 -1946.5374 67.960703)
(3472.1035 -1746.9203 48.407048)
(3413.6085 -1408.7364 45.155477)
(3212.6194 -1269.5007 62.867629)
(3008.6086 -1132.8367 79.782337)
(2802.9448 -1001.0552 95.555656)
(2597.1711 -875.12175 109.46159)
(2392.3937 -755.65341 120.62439)
(2190.2783 -643.4407 128.31435)
(1991.7101 -538.32706 132.02597)
(1797.8698 -440.34208 131.30008)
(1609.1955 -349.09408 126.07197)
(1425.9871 -264.6641 116.4792)
(1249.1188 -186.93622 103.04671)
(1077.662 -116.63398 86.601774)
(914.01305 -53.789422 67.694271)
(756.83821 -0.096619631 48.91517)
(608.82985 41.283255 29.619991)
(472.07427 75.328042 11.031446)
(346.56872 94.196568 -2.5131573)
(237.89611 100.57069 -16.518536)
(144.82453 94.339069 -22.160441)
(75.120909 83.485141 -31.054603)
(21.933377 54.562605 -28.817395)
(7.2512838 22.822306 -22.023573)
(0 0 0)
(0 0 0)
(0 0 0)
(0 0 0)
(0 0 0)
(0 0 0)
(3086.2664 -2415.9196 106.42641)
(3075.8925 -2394.18 106.65285)
(3065.8184 -2371.4128 107.40433)
(3644.5857 -1617.3705 28.415402)
(3633.4098 -1594.9097 29.445095)
(3622.2937 -1572.4589 28.205641)
(-7.8761831 16.078415 17.097725)
(20.178856 39.117051 9.0643312)
(72.6125 53.055414 14.173958)
(144.66204 59.56885 16.356508)
(235.72009 58.367834 25.11468)
(348.49814 42.732537 34.555183)
(470.00754 15.918945 47.463896)
(607.14865 -23.335409 63.185078)
(751.71264 -75.969234 79.70666)
(903.7693 -140.77852 97.191824)
(1062.4252 -216.31598 114.62176)
(1225.2521 -302.9352 130.27716)
(1393.0431 -398.71008 143.61617)
(1565.4168 -503.56917 153.34278)
(1742.4972 -616.24409 158.89699)
(1924.9237 -736.53325 159.84935)
(2112.2478 -863.03886 155.9656)
(2305.0788 -995.32659 147.41647)
(2502.1125 -1132.5633 135.53499)
(2703.051 -1272.4097 119.26758)
(2905.5122 -1414.7158 102.27425)
(3110.3076 -1558.21 83.306281)
(3312.7836 -1699.6216 64.611138)
(-15.453734 2.4003253 -5.6214723)
(14.945983 3.313817 -11.076817)
(56.974996 1.370032 -4.1603992)
(124.303 -5.9685754 1.789844)
(210.32743 -25.507464 10.893239)
(311.55011 -53.856143 23.673097)
(427.50195 -92.358443 38.869193)
(555.37156 -144.98918 56.82292)
(691.54657 -206.53717 75.240489)
(836.60134 -280.46477 95.674232)
(986.77372 -364.21895 114.37121)
(1142.6231 -457.79605 132.10518)
(1303.2743 -560.47492 146.73752)
(1468.743 -671.23279 157.91509)
(1639.3951 -789.7544 164.7294)
(1815.3364 -915.03665 166.91775)
(1996.9857 -1046.2989 164.39888)
(2184.3289 -1182.8667 157.55048)
(2376.1781 -1323.1367 146.79354)
(2573.4734 -1466.334 132.92971)
(2772.6319 -1610.7685 117.22935)
(2974.3946 -1755.7063 100.0804)
(3175.3302 -1898.6436 83.280712)
(-21.546058 -15.934743 -19.281075)
(7.2445512 -28.01019 -19.249295)
(43.07799 -40.579383 -16.763126)
(109.11508 -68.142698 -9.7076537)
(185.93258 -103.27127 0.74430512)
(281.6983 -142.15396 14.605946)
(390.17549 -199.04902 32.749288)
(508.67864 -260.51312 51.215259)
(638.0058 -333.77653 72.871859)
(773.69997 -417.97869 94.393627)
(916.03289 -510.29767 115.24526)
(1063.7525 -612.74756 134.60275)
(1216.3168 -722.80155 150.85944)
(1374.2218 -840.85753 163.53614)
(1537.3461 -965.81058 171.86136)
(1706.4801 -1096.9405 175.58868)
(1881.8002 -1233.435 174.73254)
(2063.0935 -1374.1364 169.51117)
(2250.7012 -1518.1059 160.70534)
(2443.0524 -1663.5019 148.43549)
(2639.4055 -1809.6289 134.50223)
(2838.4426 -1955.062 118.76938)
(3038.1489 -2097.9354 102.47969)
(0 0 0)
(0 0 0)
(0 0 0)
(0 0 0)
(0 0 0)
(0 0 0)
(0 0 0)
(0 0 0)
(0 0 0)
(9.0471686 -12.313161 -23.963648)
(13.708645 -16.408298 -5.1607014)
(12.286204 -10.868187 10.352313)
(32.26983 -77.582276 -19.096282)
(29.604622 -81.886927 -0.60038992)
(26.918695 -79.520815 26.37859)
(64.140883 -112.86872 -21.765194)
(68.330203 -114.11091 -0.8883919)
(66.27004 -129.54037 27.553365)
(112.22467 -161.67317 -8.8611901)
(112.95625 -173.92399 10.262661)
(105.38602 -170.23077 32.14047)
(180.04794 -224.20129 1.5042357)
(177.53163 -231.9562 18.33966)
(169.96857 -244.21596 42.683369)
(258.3574 -282.31025 17.156314)
(254.438 -292.42813 35.001191)
(245.6553 -300.72233 54.216907)
(351.01481 -350.7801 36.827288)
(344.25483 -366.43057 50.304173)
(332.01047 -375.18443 70.953969)
(456.17188 -427.33163 58.077063)
(447.0225 -437.13508 71.71406)
(433.6204 -449.01904 88.190498)
(570.54918 -508.69071 81.413397)
(558.35927 -522.99652 94.170422)
(542.59796 -530.03543 109.20981)
(694.53106 -599.75201 105.59173)
(680.23658 -609.73118 117.27153)
(662.67207 -618.04528 130.94297)
(825.65239 -695.55514 128.84185)
(809.38338 -705.09424 140.18612)
(790.44967 -709.86168 152.16432)
(963.88778 -800.47762 150.57776)
(946.44196 -806.68306 161.18554)
(926.69687 -809.02693 172.31053)
(1108.728 -911.27149 168.74753)
(1090.5722 -914.40012 179.13856)
(1070.1772 -913.75408 189.49294)
(1259.5688 -1029.5407 183.19252)
(1241.2403 -1029.1889 193.39608)
(1221.0863 -1024.6507 202.74276)
(1416.8614 -1154.1249 192.78571)
(1398.9312 -1149.994 202.51289)
(1379.2449 -1142.2726 211.31654)
(1580.4333 -1284.712 197.31493)
(1563.2822 -1277.0099 206.7269)
(1544.6451 -1265.6797 214.58732)
(1750.6461 -1420.4372 196.92388)
(1734.6925 -1409.1725 205.5261)
(1717.1273 -1394.8444 212.51668)
(1927.4621 -1560.1763 191.76232)
(1912.4634 -1545.8672 199.48022)
(1896.4587 -1528.9169 205.31668)
(2110.3593 -1702.7293 182.63855)
(2096.9106 -1685.6853 189.05104)
(2082.2353 -1666.6348 193.73046)
(2299.1001 -1846.818 170.22422)
(2286.4767 -1827.7412 175.17491)
(2273.1447 -1807.0575 178.58233)
(2492.4526 -1990.9328 155.44099)
(2480.9711 -1970.1789 158.99861)
(2468.7628 -1948.4899 161.19132)
(2689.2691 -2134.3524 139.26454)
(2678.1788 -2112.4562 141.46203)
(2666.8047 -2089.7874 142.64207)
(2887.4487 -2275.4286 122.58955)
(2877.0401 -2253.0376 123.71438)
(2866.2344 -2230.6443 124.1494)
(3503.6588 -1816.9299 47.843493)
(3493.4836 -1794.4072 48.763016)
(3482.7163 -1771.0803 48.048543)
(3365.6231 -2015.7142 66.521445)
(3354.9953 -1993.5019 67.848665)
(3345.411 -1970.548 67.54013)
(3226.4322 -2215.8752 87.196348)
(3216.154 -2194.0474 87.532513)
(3206.3211 -2170.8881 87.426465)
(21.609408 23.417623 11.236465)
(18.400314 25.075498 0.70113284)
(20.065236 21.536413 -9.6157817)
(44.521656 59.410019 7.4351706)
(44.226602 56.489381 -9.9146577)
(38.094556 51.186186 -18.393938)
(105.51572 90.62196 9.3864596)
(97.376001 84.538993 -0.80752348)
(94.441713 79.988097 -17.732173)
(175.85492 109.52338 12.408791)
(172.0231 101.59277 -0.54063746)
(164.17938 96.485131 -13.3801)
(275.68915 122.4155 20.492311)
(269.00989 111.69968 6.8407344)
(258.27119 103.55225 -4.7808445)
(390.17782 118.219 28.789224)
(378.4234 106.01858 19.078477)
(368.21656 96.938599 6.4201218)
(517.81512 103.16025 42.150947)
(507.42503 90.69985 31.937499)
(494.35332 79.441989 20.120494)
(660.02497 74.213775 57.570495)
(647.1706 59.978658 47.640598)
(632.18027 49.809431 37.95576)
(810.74632 33.060433 74.052089)
(795.48124 17.332771 65.758134)
(780.01584 5.8074093 56.76396)
(968.18151 -22.910859 92.255675)
(954.0506 -36.077098 84.690022)
(936.86556 -47.778435 75.654822)
(1133.3374 -88.629871 109.23718)
(1118.0559 -101.0512 101.75793)
(1100.5008 -111.01178 94.377909)
(1303.3032 -164.71507 125.18643)
(1288.2936 -175.45855 118.43547)
(1270.8742 -183.66955 111.24533)
(1478.5528 -250.24086 138.1605)
(1464.1382 -258.47849 131.56548)
(1446.8498 -264.11507 124.72233)
(1658.9421 -344.21988 147.43259)
(1645.2194 -349.19516 141.20256)
(1628.531 -352.04295 134.5886)
(1844.147 -446.03329 152.19725)
(1831.461 -447.48419 146.32402)
(1815.5904 -447.1747 139.72791)
(2034.4411 -555.30038 152.08723)
(2022.6177 -552.78238 146.47407)
(2007.7578 -549.15493 140.2005)
(2229.2829 -671.43088 146.73167)
(2218.4017 -664.96018 141.90978)
(2204.5017 -658.09588 135.86957)
(2428.2041 -793.85655 136.83793)
(2417.9068 -783.9104 132.68097)
(2405.1017 -773.83725 127.20747)
(2630.3749 -922.96505 122.77382)
(2620.4091 -909.13418 119.45803)
(2608.3527 -895.96489 114.77526)
(2834.4752 -1056.3496 105.08149)
(2824.3958 -1039.8462 103.34112)
(2813.218 -1024.2424 99.350568)
(3038.8994 -1193.6735 85.872686)
(3028.8262 -1174.5111 84.84054)
(3018.1467 -1157.1068 82.132638)
(3242.936 -1335.0815 66.508779)
(3232.8704 -1314.8909 65.501269)
(3222.136 -1294.923 63.623655)
(3444.8064 -1476.4361 45.401582)
(3434.8018 -1454.5698 45.152743)
(3423.5366 -1432.9147 45.000792)
(-8.3361583 10.11685 -11.401004)
(12.629309 36.240686 -15.598779)
(54.463788 33.987192 -6.2942693)
(122.42057 36.566211 -6.5890932)
(206.29892 23.343322 5.0367169)
(307.33547 1.5889492 15.996986)
(424.29455 -31.268425 30.275026)
(551.32715 -75.733399 48.185306)
(691.13594 -128.25217 66.096013)
(838.54506 -190.76834 85.299273)
(994.0034 -260.30741 103.41202)
(1156.735 -337.61245 119.89011)
(1325.8883 -421.22965 133.46655)
(1501.4373 -511.57531 143.45077)
(1683.0946 -608.49497 149.18281)
(1870.5275 -712.14484 150.4207)
(2063.3284 -822.81248 147.24487)
(2260.6608 -940.28817 139.89388)
(2461.6307 -1064.3613 128.89117)
(2664.7525 -1194.2315 115.07158)
(2868.5212 -1329.06 99.090028)
(3072.6519 -1467.2816 82.17717)
(3273.1453 -1606.6379 64.768455)
(-19.829798 3.6491466 5.715139)
(-0.057474303 -2.67572 8.240244)
(44.901689 -19.972012 11.372202)
(104.59998 -32.753784 14.840874)
(180.53446 -63.306107 23.695184)
(276.05354 -98.199088 35.291945)
(381.61199 -144.96133 49.281582)
(501.53571 -198.67227 66.456298)
(630.85786 -262.00435 84.572827)
(769.0791 -331.57075 103.67642)
(915.5696 -408.59226 122.32535)
(1069.6021 -491.78926 139.10982)
(1230.3315 -581.13318 153.52444)
(1398.2423 -676.87983 164.20084)
(1572.7728 -778.84379 170.54324)
(1753.7411 -887.70019 172.40971)
(1940.8838 -1003.2339 169.44966)
(2133.409 -1125.3679 162.16954)
(2330.2448 -1253.7579 150.94417)
(2530.4404 -1387.3477 136.74789)
(2732.0537 -1524.9736 120.42354)
(2934.667 -1665.5888 102.92544)
(3134.0975 -1806.753 84.94618)
(-25.657811 -19.293513 17.41628)
(3.3772362 -27.694523 21.2887)
(39.50044 -75.881426 30.091117)
(89.34792 -91.612922 31.333842)
(164.80187 -143.82453 43.876534)
(248.08994 -196.02624 54.173707)
(346.74452 -250.88534 68.118156)
(456.15373 -322.64081 85.472284)
(575.41061 -392.84107 103.09469)
(703.83894 -474.55154 122.75652)
(840.13289 -559.13845 141.25788)
(984.62399 -650.30955 158.56557)
(1136.3351 -746.92718 173.49609)
(1295.9081 -848.88048 184.51011)
(1462.7593 -957.01493 191.55065)
(1637.1073 -1071.1646 193.68719)
(1818.4507 -1191.3752 191.01588)
(2006.1859 -1317.5728 183.70411)
(2199.356 -1449.0168 172.28716)
(2396.649 -1584.8022 157.78946)
(2596.5076 -1723.9558 140.53795)
(2797.2872 -1864.8851 122.91123)
(2997.4346 -2006.2257 104.12018)
(3.786876 9.5393696 7.0900487)
(0.43045864 9.1625233 1.1825781)
(4.4609651 6.0513135 -7.9446821)
(32.336981 37.450096 -0.85851526)
(34.301013 33.777072 -6.6740892)
(25.603775 33.873693 -10.971589)
(83.755427 42.152947 3.9707241)
(76.607326 38.40355 1.0301193)
(73.266426 32.24095 -4.3063138)
(151.51987 49.396536 8.6489365)
(148.91329 43.172728 2.6954839)
(140.15668 35.983194 -3.1844797)
(242.28451 43.05047 15.035762)
(236.27745 32.578543 11.217931)
(226.83985 24.692643 7.5659423)
(348.94784 24.72145 26.850735)
(340.30651 14.572308 23.235301)
(327.15964 4.6791211 18.105012)
(468.29918 -3.1404204 40.469189)
(458.94715 -15.296532 36.705098)
(446.47245 -26.398952 33.278111)
(601.93772 -43.52348 56.276742)
(590.2383 -58.48357 53.464989)
(573.79232 -69.657774 50.02061)
(743.3954 -97.657459 74.678417)
(729.93708 -110.6108 72.346497)
(713.99441 -121.60894 69.603595)
(893.68649 -160.38145 92.91726)
(879.4738 -174.31878 90.72899)
(861.81572 -184.54438 87.985051)
(1050.6262 -234.92994 111.29074)
(1035.1965 -247.17607 109.78762)
(1017.1354 -255.38804 107.32908)
(1212.6357 -318.58762 127.99341)
(1197.1968 -328.79291 126.4482)
(1179.1878 -335.01994 123.92747)
(1380.5836 -411.02564 141.98423)
(1365.2893 -418.54356 140.48256)
(1347.4686 -421.72882 138.03196)
(1553.4868 -511.70119 152.40992)
(1538.665 -515.88553 150.87825)
(1521.4924 -515.84049 148.26571)
(1731.7247 -619.8178 158.39842)
(1717.706 -620.43097 156.71275)
(1701.5561 -616.80352 153.99232)
(1915.3658 -735.11799 159.67852)
(1902.278 -731.78354 157.85399)
(1887.2067 -724.53107 155.13253)
(2104.1857 -856.71524 156.00808)
(2092.0022 -849.68145 154.17329)
(2078.1236 -838.99102 151.45571)
(2297.9024 -984.42695 147.78977)
(2286.4588 -973.73216 145.95116)
(2273.8962 -959.81604 143.52257)
(2495.6797 -1117.3853 135.59318)
(2485.1061 -1103.2616 133.82354)
(2473.1984 -1086.3577 131.70621)
(2696.9119 -1253.5622 119.96251)
(2686.1731 -1236.6905 118.70873)
(2675.5975 -1218.195 117.01475)
(2899.1577 -1393.4624 102.66494)
(2888.33 -1374.8004 101.55237)
(2878.6633 -1353.83 100.15318)
(3102.8955 -1534.8788 83.556587)
(3092.7614 -1514.6445 82.964198)
(3082.865 -1492.0185 82.646584)
(3304.5132 -1676.0115 64.722289)
(3294.2311 -1654.1744 64.850983)
(3283.7198 -1631.0355 64.777504)
(-6.7552564 2.3652933 -4.9170261)
(-5.8334263 1.0727532 -5.6515408)
(-3.5929818 3.2926734 -0.24421516)
(22.226361 1.4472272 -13.29458)
(23.054397 0.37205583 -6.7578626)
(13.755627 -3.3828784 0.36612666)
(68.807867 -7.2970225 -3.255841)
(64.720346 -13.055399 3.5577462)
(61.673702 -15.918914 5.9507395)
(128.93319 -17.288684 -0.5903822)
(130.63267 -28.841797 3.6224792)
(120.69682 -35.27219 8.6216241)
(215.70216 -41.007904 9.802487)
(209.77682 -52.826205 17.459096)
(198.32915 -57.226395 17.743203)
(311.94375 -71.787133 23.587729)
(305.3618 -85.380229 27.422218)
(294.35494 -93.766114 30.884459)
(424.90376 -112.10357 37.48606)
(416.27141 -128.42508 43.147762)
(401.37958 -137.82245 43.846228)
(549.7475 -166.6099 57.392438)
(537.94936 -181.8143 61.955294)
(522.0774 -190.26612 63.432124)
(682.78269 -227.54796 75.737826)
(669.22044 -243.1568 80.044714)
(652.53904 -253.40189 81.320861)
(825.51146 -300.82769 97.118029)
(810.46113 -315.22287 101.45616)
(792.18219 -323.72297 102.30348)
(973.86862 -382.83011 116.70366)
(957.27413 -395.03639 120.3928)
(938.70781 -402.45202 121.33201)
(1128.7528 -473.50436 134.96272)
(1111.983 -482.98802 138.49996)
(1093.1744 -487.98313 139.27576)
(1289.293 -572.54853 150.33747)
(1272.218 -578.75324 153.46618)
(1253.5953 -580.86719 154.28851)
(1455.0788 -679.12739 161.86211)
(1438.419 -681.6563 164.52423)
(1420.6515 -680.43774 165.52956)
(1626.7162 -793.07035 168.90105)
(1610.8546 -791.4739 171.27735)
(1594.0238 -786.73278 172.28009)
(1803.8992 -913.54308 171.11048)
(1788.9391 -908.04212 173.0373)
(1773.3975 -899.70567 174.21898)
(1986.8479 -1040.1825 168.35068)
(1972.9473 -1030.8786 170.0119)
(1958.7047 -1019.1068 171.23787)
(2175.1758 -1172.3059 161.06808)
(2162.2994 -1159.4294 162.43358)
(2149.3097 -1144.6036 163.70349)
(2368.1909 -1308.6209 149.82836)
(2356.0937 -1293.0212 150.90384)
(2344.3095 -1275.2954 152.12016)
(2565.4335 -1448.5822 135.09929)
(2553.9757 -1429.8715 136.33744)
(2542.8432 -1410.9486 137.44357)
(2764.1879 -1590.2978 118.8406)
(2754.3377 -1570.1025 120.30538)
(2742.9467 -1549.2472 120.43289)
(2965.8548 -1733.4655 101.29221)
(2955.2148 -1712.514 102.06532)
(2945.0248 -1689.8366 102.56679)
(3165.937 -1875.6235 83.469846)
(3155.2692 -1853.5174 84.018694)
(3144.908 -1830.6238 84.301615)
(-7.7367674 -11.358112 -9.4322696)
(-10.769768 -10.159935 -1.6877302)
(-12.066341 -10.727279 7.0212465)
(21.805476 -28.888209 -12.144952)
(23.551159 -21.558602 0.64476971)
(17.658008 -30.018832 12.615752)
(56.971891 -50.976113 -7.4820669)
(57.719178 -66.33319 6.4887133)
(55.923108 -70.495253 18.983472)
(119.86553 -87.028626 -3.5589209)
(116.00391 -85.724685 8.8991218)
(109.29898 -95.961964 19.602691)
(192.65051 -120.15433 9.690329)
(189.39645 -133.26033 21.845935)
(182.66986 -140.73195 32.860418)
(284.36617 -167.496 20.867697)
(277.36883 -178.53637 31.851757)
(267.39997 -190.43026 40.657679)
(388.34816 -224.97361 39.403517)
(379.19404 -235.86733 50.119223)
(367.79541 -247.23199 58.743061)
(503.06832 -286.6449 58.107006)
(491.15199 -300.42337 66.634496)
(477.5006 -313.70353 74.874297)
(628.15178 -361.09323 79.242052)
(614.41876 -372.97474 88.275797)
(598.68684 -385.74739 95.50811)
(760.97118 -443.21259 101.50513)
(745.31938 -454.98035 109.2039)
(727.76955 -466.35166 115.38272)
(900.94511 -533.2708 122.4116)
(884.08568 -542.95597 129.55876)
(865.08416 -552.55105 135.62359)
(1047.3313 -632.10612 142.18969)
(1029.7788 -639.20216 149.00393)
(1009.7385 -645.89821 154.20621)
(1199.4465 -737.74 158.78046)
(1181.6397 -742.05155 164.86293)
(1161.1593 -745.53465 169.9207)
(1357.5876 -851.06471 171.57923)
(1340.2486 -851.74158 177.35248)
(1319.718 -851.23468 182.13123)
(1521.669 -970.74054 179.92836)
(1505.0499 -967.8775 185.20524)
(1485.0884 -963.50394 189.67933)
(1692.0308 -1096.6816 183.39453)
(1676.4272 -1090.2791 188.11591)
(1657.3408 -1081.8345 192.39314)
(1868.6362 -1228.1208 181.94092)
(1854.1885 -1218.2587 186.19006)
(1836.4568 -1206.1238 190.07618)
(2051.3425 -1364.2746 176.04074)
(2037.9797 -1351.3126 179.51783)
(2021.6723 -1335.7697 183.00785)
(2239.7948 -1503.8944 165.98321)
(2227.4374 -1488.1577 168.87966)
(2212.7311 -1470.1212 171.82018)
(2432.831 -1646.0447 152.78891)
(2421.1763 -1628.3144 154.98002)
(2407.9956 -1607.9684 157.28321)
(2629.7855 -1789.7023 137.54571)
(2618.6307 -1769.8753 139.0039)
(2606.6035 -1748.4479 140.36345)
(2828.5428 -1933.2209 120.59365)
(2817.7612 -1912.1888 121.42097)
(2806.5298 -1889.6105 122.26072)
(3027.9428 -2075.1551 103.25324)
(3017.4748 -2053.4817 103.74733)
(3007.1429 -2030.0921 104.42804)
)
;

boundaryField
{
    free
    {
        type            zeroGradient;
    }
    fixed
    {
        type            fixedValue;
        value           uniform (0 0 0);
    }
    traction
    {
        type            zeroGradient;
    }
}


// ************************************************************************* //
