/*--------------------------------*- C++ -*----------------------------------*\
  =========                 |
  \\      /  F ield         | OpenFOAM: The Open Source CFD Toolbox
   \\    /   O peration     | Website:  https://openfoam.org
    \\  /    A nd           | Version:  6
     \\/     M anipulation  |
\*---------------------------------------------------------------------------*/
FoamFile
{
    version     2.0;
    format      ascii;
    class       pointScalarField;
    location    "0.6";
    object      p;
}
// * * * * * * * * * * * * * * * * * * * * * * * * * * * * * * * * * * * * * //

dimensions      [1 -1 -2 0 0 0 0];

internalField   nonuniform List<scalar> 
625
(
991664.3
-1426565.9
9538.9383
15795.681
1616097.1
-2648659.1
11082.979
4876.473
585371.36
7222.0173
-219426.18
-12834.994
1811.7459
10227.36
404803.31
424862.95
412005.72
401051.24
355233.85
339816.45
312055.19
284297.48
270890.4
237482.43
221653.63
200187.02
180472.68
162297.12
145222.54
128203.67
110242.47
95946.169
79775.557
60857.997
45805.735
29058.814
19877.705
-460720.61
-274870.87
-377587.79
-288851.5
-262559.13
-258737.27
-224005.65
-213914.32
-202765.47
-190513
-180828.25
-169253.5
-160549.48
-146461.29
-134600.74
-120962.75
-105262.48
-91912.81
-72503.113
-62089.087
-42522.092
-25206.04
-7973.2345
1013666
-17726.98
-327650.9
-465032.82
-611211.82
-441905.93
-403502.82
-475624.66
-392922.32
-374881.35
-369201.61
-354637.14
-331706.41
-297372.92
-268486.49
-231752.89
-200003.16
-166478.12
-136672.96
-109914.47
-84255.932
-62903.928
-44695.982
-25113.051
-10621.234
2885.6389
10764.948
1927.0825
-5369.605
23727.885
34033.383
47427.82
63156.445
79860.804
98845.588
114431.09
134856.2
152508.19
172010.87
190973.68
213045.57
231317.82
256436.9
261871.62
316573.39
328498.02
336739.89
404843.01
384602.73
481948.76
398924.87
463568.74
965892.87
1009913.8
960498.7
-1554711.1
-1529895.5
-1559977.7
28705.125
24322.636
30577.424
-2295.2627
4923.7142
3112.2127
186527.48
218100.34
233691.95
216965.33
215533.6
218370.46
201826.82
195958.03
181517.02
167512.6
154405.49
137777.36
120811.48
105655.13
90033.913
73763.969
61032.445
49652.274
36072.713
31232.823
21562.116
14311.874
11023.762
-21765
-3815.9352
-15689.39
7943.0645
-3143.824
2284.5279
-1849.4698
400.69726
-4644.6919
-6626.5123
-9493.3036
-12340.723
-13657.376
-13191.922
-13421.013
-11438.242
-8576.2659
-5455.9059
-4021.0129
550.76608
-2516.3029
7363.9078
3937.76
-308498.35
-267593.25
-245260.55
-219798.1
-240530.44
-198372.86
-196545.03
-175007.78
-159388.66
-141451.62
-126351.87
-109972.53
-94912.889
-81892.848
-69406.524
-58440.881
-48751.716
-38608.438
-32462.458
-19550.532
-10803.214
-9569.861
-844.52117
576098.59
515014.83
551090.48
-27039.719
22996.105
-29291.843
-168692.45
-225169.82
-306905.36
-659808.98
-653642.6
-690810.09
-542607.71
-492869.34
-458066.56
-441050.78
-398016.46
-417635.25
-362987.02
-351690.36
-346531.55
-363948.77
-354990.19
-366990.78
-339093.5
-321725.34
-322504.45
-318229.99
-313130.17
-338396.29
-306686.26
-292518.96
-308093.2
-284020.69
-277225.77
-290800.38
-260700.83
-258054.04
-273602.23
-236644.8
-238349.17
-250201.94
-213238.38
-214597.63
-225435.73
-186903.53
-189962.22
-199322.42
-162307.88
-165092.24
-172948.63
-138989.35
-141110.15
-148336.76
-116586.24
-118503.95
-123563.19
-96707.928
-96337.934
-102597.36
-77172.104
-78539.347
-82713.961
-62122.01
-60176.438
-63806.345
-44866.008
-43510.634
-47328.263
-29516.059
-28745.984
-33190.98
-14882.289
-21441.897
-18659.747
-13870.836
-6925.1437
-12882.856
-16198.243
-16869.629
-17917.549
2523.8186
1913.4182
3110.441
6230.3647
11575.019
9078.2666
486420.01
504009.73
480167.09
461400.38
469450.74
462997.83
471728.28
427271.55
430028.99
397743.41
377751.19
393975.94
381371.83
379453.16
357729.58
368373.35
315047.97
341277.57
333022.08
306367.19
317180.44
318583.12
280021.5
284417.31
290408.52
254937.74
275551
272208.66
228948.48
251356.98
249978.75
211133.9
229831.16
227459.2
189431.15
210601.7
204546.49
172313.31
190891.56
183911.79
154844.43
170572.76
162395.07
138436.58
151165.05
141466.13
122816.35
131957.52
121372.08
107563.4
113036.68
103009.85
92187.759
94547.669
81328.246
75860.689
76530.229
65655.077
59002.245
60836.29
47835.068
44849.78
43187.042
31733.459
30648.925
28391.638
28639.178
29038.519
28039.777
267250.38
331921.79
270592.21
277981.53
270947.06
245685.21
231647.19
204059.15
190547.9
164350.74
149319.67
126839.06
109250.91
94119.296
79508.364
67588.818
56737.155
48164.885
39146.676
31675.621
22949.745
16041.367
7724.1141
-23733.428
21469.922
-22023.251
632.84238
-14188.73
-22412.82
-24543.325
-22591.835
-24856.397
-15470.095
-7287.5906
-449.84573
10470.232
18385.854
24946.62
30907.219
33049.019
34415.973
31233.374
29035.036
24540.713
17993.5
9582.3178
-212303.76
-204582.34
-267343.12
-221318.62
-203429.02
-190034.49
-155681.37
-144571.11
-120833.74
-112498.68
-104752.52
-99542.232
-96749.169
-93624.817
-91286.644
-85839.428
-79056.078
-72182.883
-61893.224
-50288.965
-39779.558
-27542.203
-15809.235
335715.95
331555.58
316375.41
317634.48
294417.37
276670.73
250833.14
227418.12
275440.07
245464.58
261863.62
242300.59
266307.66
214805.4
237063.66
218406.49
220386.9
232270.71
216044.22
215009.51
210348.49
200538.79
191624.45
196771.7
177098.22
180081.74
181772.23
159628.65
169843.32
157935.89
139678.89
148481.7
141453.01
118282.78
133533.46
124867.98
102413.06
114991.36
106702.95
84614.518
97625.482
91032.083
68558.395
81018.093
76869.477
55596.405
67215.95
63392.133
45843.596
53216.788
52141.617
35217.845
41582.865
41655.631
28760.075
31716.87
34769.699
23157.653
28622.469
26660.368
19282.998
15007.289
21534.541
17066.901
15558.78
18726.899
6114.2059
1767.6276
4683.6383
-45939.797
-49655.463
-10165.21
-37128.339
11778.42
20615.949
-13796.198
-9971.2768
16651.128
-28243.101
-16807.524
-9117.7199
-34879.648
-23492.644
13806.633
-39088.175
-13449.012
-5557.7413
-28921.655
-23857.914
-9769.7456
-36453.945
-20362.484
-10657.073
-23941.478
-16342.184
-14580.591
-16795.237
-15718.231
-15476.658
-10185.528
-9052.8627
-14454.965
-249.07897
-1089.3117
-12854.114
8850.3258
5156.9249
-11352.524
15290.26
11067.532
-6517.062
20251.168
18250.399
-2137.5433
25698.008
23676.418
934.29357
28015.36
24785.359
5986.9166
25946.508
27380.416
9025.1566
28766.695
27777.491
13086.77
23821.223
23671.698
10892.258
27467.071
8705.5745
12103.347
16602.422
16124.537
14131.405
12499.249
11662.14
12747.282
-370797.48
-391179.86
-432848.24
-266999.17
-208100.18
-322875.17
-246487.58
-303745.78
-319920.41
-295571.54
-209899.13
-283657.69
-224968.39
-199194.1
-255684.1
-215738.92
-173292.92
-241148.74
-193714.58
-149199.73
-213196.35
-167886.96
-127985.3
-195728.24
-147343.35
-116380.91
-172661.29
-131529.13
-103512.36
-150236.07
-112439.06
-95934.531
-133075.11
-96215.096
-92847.77
-117180.82
-82729.273
-92456.378
-103291.16
-71012.515
-90691.755
-90651.979
-59725.318
-88449.611
-79950.092
-50761.679
-85065.179
-71355.439
-43080.27
-79792.779
-61329.255
-35606.866
-70426.179
-51389.032
-29112.351
-59938.019
-46177.628
-19833.658
-53739.411
-34000.663
-23662.14
-35070.193
-23429.837
-8140.5109
-20500.775
-6135.3079
-2646.9703
-11174.816
-8957.4526
)
;

boundaryField
{
    free
    {
        type            calculated;
    }
    fixed
    {
        type            calculated;
    }
    traction
    {
        type            calculated;
    }
}


// ************************************************************************* //
