/*--------------------------------*- C++ -*----------------------------------*\
  =========                 |
  \\      /  F ield         | OpenFOAM: The Open Source CFD Toolbox
   \\    /   O peration     | Website:  https://openfoam.org
    \\  /    A nd           | Version:  6
     \\/     M anipulation  |
\*---------------------------------------------------------------------------*/
FoamFile
{
    version     2.0;
    format      ascii;
    class       pointScalarField;
    location    "0.68";
    object      E;
}
// * * * * * * * * * * * * * * * * * * * * * * * * * * * * * * * * * * * * * //

dimensions      [1 -1 -2 0 0 0 0];

internalField   nonuniform List<scalar> 
625
(
61406.82
64486.869
-831295.27
-380791.45
61871.433
60246.08
-576496.17
-1241592.1
17733.473
6285.8352
35034.148
-447250.27
-438033.28
-325844.62
78932.372
68395.209
60922.444
53230.708
43584.351
36369.285
29226.954
22803.555
18050.746
13366.072
10325.682
7177.7831
4924.4272
3309.8407
2093.141
1096.4612
1183.0465
736.92954
1207.2349
849.21697
1020.6204
834.90676
2558.7841
69782.868
46653.248
49502.782
39499.314
33544.57
28278.817
19914.833
16689.665
12133.66
8139.1475
6358.4103
3329.7548
2133.9463
714.3759
68.407498
-654.38962
-616.13534
-935.44824
-47.059746
-948.19777
1133.1541
309.26736
1710.8364
16925.844
4400.2067
31399.781
102958.56
101965.41
64735.404
67550.298
56918.747
33442.948
36064.699
23124.588
20289.247
15365.849
9899.782
7486.1303
3781.7684
1820.2832
-105.22307
-1543.9327
-2540.3989
-3293.0677
-4140.2096
-4381.0603
-4800.8613
-5073.0915
-9770.9681
-862168.8
-947336.81
-914507.98
-4487.015
-3662.183
-1824.4456
-2431.584
-2745.899
-2847.4788
-3275.2483
-2714.3007
-2298.6101
-829.07503
365.20807
3530.3961
6015.915
11529.493
16238.602
19428.678
29228.103
35449.276
45767.885
53590.771
67069.565
70697.192
82775.252
54888.599
54897.715
56003.924
50764.401
49401.394
50762.523
-430350.81
-430553.83
-432012.63
-933061.72
-934639.11
-935323.17
34259.488
26528.057
26712.201
21559.6
18360.409
15336.835
11941.217
9489.4443
7856.368
5803.311
4573.007
3446.4709
2736.7071
2508.861
2036.0202
2211.2091
2263.659
2305.2065
3315.6489
3101.4738
4439.8801
5221.5263
8144.746
10753.827
8818.9281
11135.197
9175.4878
9181.5987
9192.7864
7400.6284
8014.3536
6573.0362
6360.2047
6180.1593
5842.3663
5725.2053
5621.4241
5535.49
5682.5991
5797.415
6019.344
6405.3651
5990.7645
7938.836
6274.6091
10544.571
21438.305
21038.022
19530.213
16917.926
15764.55
13665.387
11153.95
10009.815
7753.4559
7339.6563
5439.3119
5110.2922
4318.202
4123.8267
3785.7512
4075.751
3815.081
4515.6057
4060.1315
5538.9565
4633.5596
6524.2885
7691.3483
11760.698
12810.176
12484.25
3846.884
3399.7427
5283.0225
16190.464
17998.913
18107.658
85010.99
85157.931
90984.253
91173.101
86418.222
83972.723
59985.518
54772.02
59379.562
54711.989
57978.345
56926.323
45350.873
39577.309
45108.296
37003.729
34349.179
34469.044
30893.28
27516.736
32837.9
24769.543
18221.716
22492.431
20398.52
15675.961
18993.366
17295.926
9382.0712
14059.712
12707.851
6949.206
10377.206
10516.721
3950.8362
7594.0352
7650.2846
1544.5568
5141.9657
6019.7263
23.740539
3221.1112
4439.2445
-1371.8205
1792.5966
3332.6328
-2127.5891
705.07769
2405.194
-2669.7875
-115.1331
1832.8363
-2916.4472
-617.66742
1319.77
-2890.3981
-1043.7844
627.51209
-3174.4969
-1542.1179
731.44115
-2461.6937
-1372.3569
545.01952
-1754.004
-1338.5339
-2006.638
-3888.3577
-2619.7056
-604478.81
-603127.97
-603884.21
-537028.93
-591118.41
-591397.87
-620791.59
-573472.5
-574005.58
80232.931
71866.057
72160.987
75911.153
72422.615
75622.231
67416.229
62250.071
61352.592
56565.18
51798.325
53582.078
46491.506
45894.643
44919.398
38506.894
35482.978
35324.226
31107.082
29766.647
29914.952
25613.171
23288.319
23688.653
19598.651
17852.682
17473.525
14143.604
14777.782
12956.395
11603.495
10784.569
9619.9491
8175.3742
7388.1047
6561.2234
5696.1455
5228.8279
4350.9502
4029.601
3449.5724
2536.0732
2367.0046
2060.7686
1398.9192
1572.0088
1325.9725
515.29643
1044.1041
741.07635
218.68284
820.97923
679.84269
-8.7468934
894.86365
849.9339
292.50287
1029.8936
1010.8497
401.71648
1517.0653
1017.5001
802.1992
-1672.1449
-1330.1743
-1089.7615
-1267.7781
-2842.7177
-2964.8261
53692.928
48644.432
44856.806
37388.651
35024.983
27394.074
25259.932
20697.096
15985.205
15306.712
12308.395
9904.0446
8430.1966
7083.2649
5996.5939
5305.2399
4526.5066
4342.6677
3684.6144
3618.6814
3877.3294
4233.2708
8075.1284
7466.2824
22238.449
8296.7834
14730.699
10533.177
8690.9398
9081.9542
6908.9459
7206.4095
5785.1305
5675.4312
5081.5177
4994.8845
4948.3506
4903.611
5070.0887
5357.9075
5742.0534
6157.6428
6840.4185
7950.7117
6655.8705
11509.317
34261.778
14088.991
18632.892
19275.221
13814.93
13297.534
10850.621
9172.086
5824.97
4990.2427
3779.7863
2852.0592
2406.3647
2074.6491
1897.941
1970.4788
2198.5417
2417.835
2883.6487
3607.1995
3472.5177
5779.2325
4402.3628
44803.288
40499.658
41192.246
39432.143
40383.208
39193.302
35356.805
35953.068
34651.93
29600.061
28523.871
29003.379
25911.852
26678.478
26137.937
21994.404
20653.339
20770.606
18670.895
18491.282
18266.414
15495.038
15348.514
14758.941
12739.264
12580.725
12246.387
10898.04
10002.155
10055.294
9242.9353
8769.8862
8481.3278
7664.1374
7347.5181
6734.0633
6610.212
6276.2251
5718.0509
5810.8541
5363.7197
4871.6941
5007.5936
4804.2459
4323.2592
4875.2193
4431.5371
3854.3576
4163.0814
4013.1611
3710.2397
4390.2388
4076.4712
3410.966
4006.158
3529.0871
3638.8522
3610.2933
3425.4654
3158.1543
4910.9357
4103.1602
4112.3869
5248.0032
5837.6767
5106.9493
9181.9681
7531.381
8495.2901
10256.399
9295.035
7170.0459
15585.371
21045.975
20780.398
10227.056
8329.098
7585.1687
10125.682
11924.881
12910.592
9039.4626
8544.0386
8899.2059
8691.4948
6842.618
7454.7627
6667.7188
6558.7969
7488.4515
7026.9224
4974.5846
5160.3155
5886.5753
4210.2124
5481.0752
5507.9388
4011.1668
4485.5809
5089.784
3419.5669
4066.7072
4709.189
3219.1888
3738.2317
4693.3612
3046.1436
3435.941
4553.8471
3019.2633
3440.717
4664.2838
3135.1157
3428.6585
4791.2727
3446.8916
3623.8104
5027.7832
3722.9347
3777.8661
5433.4473
4215.1397
4293.482
5685.3578
4883.2252
4665.5379
5846.4201
5634.6125
5118.7967
7895.4158
6288.5178
7139.1523
5820.6087
5523.3727
4384.7445
10306.264
9485.8376
9498.6328
25497.941
27471.188
29518.421
19339.181
19886.242
24288.707
18359.333
24118.286
23517.333
16801.974
19394.275
20372.952
13967.229
17583.569
17066.242
10291.271
14998.478
15336.397
9098.8869
12023.352
11250.509
6025.2378
10311.832
11030.188
4528.6066
8829.7737
8489.2941
3280.8572
7370.8365
7131.9125
2242.094
5989.2999
5855.2281
1815.5739
5292.6891
5041.7241
1123.4879
4634.6714
4440.2578
1113.8275
4312.2694
4022.4718
1012.6344
3995.6884
3979.8812
1299.4858
4229.1546
3877.037
1579.8752
3820.1771
3965.8867
2046.2333
4699.9575
4520.8327
2474.7037
4062.326
4214.0018
3544.4272
5906.7723
5751.1457
2782.1714
4167.7435
4181.7667
4955.2999
6995.2883
7450.0153
5568.3445
5784.2284
4889.6184
)
;

boundaryField
{
    free
    {
        type            zeroGradient;
    }
    fixed
    {
        type            zeroGradient;
    }
    traction
    {
        type            zeroGradient;
    }
}


// ************************************************************************* //
