/*--------------------------------*- C++ -*----------------------------------*\
  =========                 |
  \\      /  F ield         | OpenFOAM: The Open Source CFD Toolbox
   \\    /   O peration     | Website:  https://openfoam.org
    \\  /    A nd           | Version:  6
     \\/     M anipulation  |
\*---------------------------------------------------------------------------*/
FoamFile
{
    version     2.0;
    format      ascii;
    class       pointScalarField;
    location    "0.68";
    object      p;
}
// * * * * * * * * * * * * * * * * * * * * * * * * * * * * * * * * * * * * * //

dimensions      [1 -1 -2 0 0 0 0];

internalField   nonuniform List<scalar> 
625
(
1213409.8
-1718817.5
9204.6793
11340.585
1998272.9
-3408536.8
10393.182
4120.4846
839855.68
-59808.209
-144370.64
-9213.453
6344.7295
9070.3465
472330.09
529524.48
500030.29
493928.3
430075.97
411307.69
368460.31
330921.17
308934.53
266569.06
241161.4
213907.9
186131.58
162814.35
140249.41
120494.03
99810.686
86182.685
68782.036
55661.183
43264.058
29247.038
20512.145
-590881.2
-374752.46
-510873.19
-393207.39
-357724.87
-357105.77
-298927.34
-274895.63
-251639.15
-219139.28
-195076.88
-168813.77
-148170.6
-124126.79
-105465.36
-87365.309
-70642.686
-57014.412
-43480.274
-33462.95
-22640.854
-13905.653
-3589.3876
1244890.4
-87707.644
-338593.96
-624616.38
-788851.21
-558864.3
-470796.38
-558122.49
-397032.08
-369877.71
-344488.96
-308052.23
-280210.53
-239248.91
-213666.34
-182550.31
-156753.22
-132665.89
-109908.15
-91035.797
-72792.918
-56827.744
-42951.931
-29315.94
-17911.034
-4092.7767
9123.3978
5149.251
-2415.631
25404.597
32951.297
42438.958
56325.673
72267.892
88524.477
107034.46
127981.68
150450.85
175937.07
200932.01
234026.61
259369.57
293288.55
312828.39
377350.73
395861.79
421725.56
508700.89
480043.73
601174.82
504829.42
573201.67
1226343.5
1241634
1224455.8
-1933976.8
-1945517.8
-1944469.3
17330.904
17752.639
19965.854
-1724.8853
4185.5497
709.3926
298391.01
315294.47
315948
278728.05
255922.33
249959.4
216201.97
205954.28
180342.32
162618.98
148815.16
130750.01
114584.62
101061.23
87502.407
74236.803
63759.468
53564.829
42726.351
36962.67
27212.065
17769.933
12771.412
-50891.233
-40316.637
-54805.611
-20014.875
-39995.177
-25357.617
-24200.054
-17200.673
-17138.127
-10824.49
-9248.2393
-6796.9024
-3716.1539
-602.8821
529.71856
2560.6501
4043.9435
4586.3045
5078.4197
5820.9676
4062.8688
7827.7508
7299.9073
-368357.51
-304778.68
-271997.44
-236334.53
-263235.09
-201894.92
-198500.6
-175497.68
-154261.18
-135715.53
-119866.54
-102141.09
-86993.107
-73509.446
-60874.252
-49342.122
-39604.858
-30075.693
-22943.23
-14817.885
-9123.5227
-4768.7622
2383.1067
801247.31
720042.08
718270.76
-89732.503
-48342.463
-124740.31
-82221.645
-161738.44
-292695.77
-901823.92
-892022.43
-943613.95
-707125.54
-663626.65
-648366.71
-554655.02
-519184.23
-559796.43
-432285.47
-434006.71
-439383.42
-421929.63
-420304.21
-444446.5
-372478.07
-353282.07
-365033.82
-341230.75
-338216.28
-354598.33
-309935.18
-287648.39
-307102.97
-276698.22
-262258.87
-275293.88
-243581.82
-229063.14
-246017.69
-213907.79
-203387.82
-214577
-187585.96
-176089.31
-186726.26
-159982.5
-151306.47
-161314.39
-136328.58
-128382.23
-137181.05
-114735.08
-108003.42
-116178.12
-94740.472
-89286.006
-95820.291
-77220.65
-72105.636
-78469.173
-61361.594
-58089.206
-63174.797
-47802.036
-44329.59
-48286.72
-35501.554
-33145.946
-36758.345
-23119.258
-21866.051
-24578.613
-15127.072
-16123.104
-16810.186
-8042.8303
-4681.8435
-6779.7861
-13455.225
-14243.884
-15224.565
4797.8727
4521.4757
6655.6514
12191.789
13643.856
12722.358
640261.9
573861.35
593554.48
580815.15
550288.26
605292.69
595879.72
523528.97
542642.95
503481.41
456575.11
505032.25
480439.63
457541.8
462496.25
443836.09
388283.26
421238.79
397022.14
368408.26
392550.43
369416.63
331994.69
344583.87
327651.89
298411.82
319417.1
293890.57
267885.42
286969.72
265385.89
237043.63
250889.14
233276.99
208617.12
224038.56
203059.31
183688.03
194846.81
177373.94
159750.37
168443.04
151972.19
137038.24
144526.68
128553.07
116899.23
122431.54
108310.77
98352.894
102795.61
89580.399
81680.033
84983.998
71155.54
66063.177
68667.494
57714.982
51533.498
55965.315
44135.783
39445.708
42426.802
31818.777
31551.551
31427.481
27802.597
28263.821
29971.528
301528.79
376005.86
286152.49
315407.36
277684.62
261747.79
249553.83
213258.47
202628.31
176954.48
162455.77
140111.14
123193.09
108520.85
92901.033
80439.443
67683.202
57103.139
46916.436
36862.459
28158.085
18489.643
6845.1238
-49234.608
33410.544
7343.0687
50470.603
45650.2
46429.016
46262.008
47467.446
38019.466
42764.235
38006.908
34946.223
32408.867
28932.594
26056.295
23774.992
20738.086
19472.869
16185.266
15056.778
14050.133
11035.482
9013.0144
-200238.74
-182273.06
-288464.54
-245427.16
-235582.77
-238862.05
-199387.78
-188943.59
-159307.82
-146666.98
-129735.28
-112458.51
-98629.32
-83957.593
-71991.29
-59794.491
-49086.414
-39346.075
-31154.42
-21961.532
-15852.732
-7463.135
-5699.9139
400504.04
477709.86
405180.16
369448.07
395289.93
339946.53
262583.93
280654.37
315071.49
239887.34
315544.8
264296.07
266203.85
236945.83
252789.88
197256.95
241341.54
241487.39
198655.53
224260.26
208396.83
183008.84
192349.24
199692.03
159376.85
177575.08
183813.72
147828.42
165180.88
156108.31
130815.27
142943.96
144973.35
113200.79
129287.05
128769.22
104126.37
112771.73
113439.71
90115.846
98116.99
99132.398
78314.921
84627.333
86275.955
67854.314
73587.431
73360.74
58838.479
61654.693
62642.33
48603.068
52156.56
51706.759
40827.039
42156.988
43057.875
32790.474
37001.14
34798.999
23898.086
26015.751
24327.985
19052.56
17534.75
20106.638
7375.5952
4658.0092
4764.4797
-87321.488
-107305.16
-87485.213
-34789.137
-280.51907
-31818.018
5696.2636
-6922.333
-18529.762
3714.4493
-4035.8533
-40872.243
2042.3086
8392.8964
10630.664
7136.5439
25770.527
-12274.42
19366.481
16144.206
-349.55345
4871.125
27412.263
5134.8199
18415.912
27272.777
841.03818
17175.489
24285.215
8697.2439
14605.415
25540.247
7631.2773
18321.914
27317.409
9268.8171
18361.47
24860.257
9144.2623
17332.847
23551.228
10607.303
16813.781
23303.325
10701.768
17115.559
21493.23
10035.269
15718.484
19040.504
10280.142
14233.701
18073.97
8971.9467
14553.5
15043.692
10192.766
13432.53
13581.104
6572.1318
10983.104
7342.7301
7136.7264
10877.809
11955.353
8181.3689
10647.805
11146.351
11612.291
-356327.79
-402497.54
-452566.34
-252737.14
-198406.58
-314544.57
-234789.38
-361168.47
-331344.25
-309060
-250863.52
-285636.71
-220661.52
-259967.27
-264682.35
-209516.14
-241412.76
-244655.47
-201746.03
-214164.99
-217314.84
-167159.65
-193558.8
-208030.81
-149476.64
-178323.25
-178389.52
-137444.21
-154906.31
-158573.96
-115846.81
-135248.18
-140098.74
-100370.22
-118401.76
-121866.23
-85629.536
-103649.37
-104880.23
-72585.309
-87325.51
-89138.058
-59156.001
-73899.883
-74831.076
-48882.036
-61404.992
-62836.861
-38815.301
-50467.053
-50475.041
-30555.465
-39434.345
-40080.875
-22363.376
-31313.162
-31453.766
-16796.22
-22806.762
-22053.6
-10613.88
-16343.988
-14746.572
-3450.4681
-5579.2282
-2198.1722
881.32216
-4340.3456
-4350.0853
)
;

boundaryField
{
    free
    {
        type            calculated;
    }
    fixed
    {
        type            calculated;
    }
    traction
    {
        type            calculated;
    }
}


// ************************************************************************* //
