/*--------------------------------*- C++ -*----------------------------------*\
  =========                 |
  \\      /  F ield         | OpenFOAM: The Open Source CFD Toolbox
   \\    /   O peration     | Website:  https://openfoam.org
    \\  /    A nd           | Version:  6
     \\/     M anipulation  |
\*---------------------------------------------------------------------------*/
FoamFile
{
    version     2.0;
    format      ascii;
    class       pointScalarField;
    location    "1.52";
    object      p;
}
// * * * * * * * * * * * * * * * * * * * * * * * * * * * * * * * * * * * * * //

dimensions      [1 -1 -2 0 0 0 0];

internalField   nonuniform List<scalar> 
3969
(
-1074187.1
1655815.8
-38.196456
-130.28017
-2162436.6
3124536.7
107.23264
87.453177
-879688.26
-594164.68
-281738.89
18140.694
261564.92
594661.07
632779.35
123.08262
43.982883
116.43429
-26.235144
-218.04136
-196.73471
-155.45054
-304072.47
-361044.83
-344490.7
-367591.29
-351611.13
-356244.48
-338299.55
-332334.83
-316389.11
-302667.94
-290616.67
-278128.37
-265166.65
-253377.86
-241764.3
-228026.91
-217466.99
-204580.21
-193608.57
-180520.59
-169262.27
-156940.73
-145104.4
-133411.07
-121112.76
-109329.32
-97674.204
-86583.166
-76253.023
-65627.534
-56107.192
-47202.868
-38671.893
-31295.59
-24525.768
-18640.11
-13202.609
-9570.0549
-5691.1635
-3158.4031
-1108.2122
274.4147
1282.6172
1488.9195
1704.0858
1223.6149
692.65073
393771.84
345516.34
383971.49
348137.76
377872.58
344883.52
350627.95
327557.03
322784.08
303244.48
293029.05
279916.92
265273.11
253058.96
238629.94
224973.95
212517.45
198484.41
186195.56
174158.86
160062.2
150512.85
136764.74
127085.72
115010.22
104691.95
93225.438
83893.272
74531.997
65279.597
57936.44
49524.808
42850.28
35930.403
30188.759
24634.609
20162.243
15793.19
12066.862
8921.0459
6105.5683
4159.315
2538.3771
1527.4569
511.86454
210.44
3.3569466
-1554886.2
-1148836.3
-468266.95
70559.588
540758.65
1077674.1
906044.06
427212.28
503031.12
320504.11
438860.71
384553.1
394775.61
374314.59
366924.92
349457.9
329224.34
330349.16
308288.14
303694.32
290196.32
273220.62
265530.79
245794.47
235922.72
219012.01
205949.83
191853.05
179138.68
165344.62
152707.64
139840.78
128711.41
115716.08
101494.08
90775.872
79527.276
68409.189
58649.695
49415.592
40803.51
33175.529
26520.663
20760.822
15287.667
11363.2
8025.4246
5204.507
3310.2223
1701.0021
788.1194
225.48157
-57.690056
-355.24412
-600.89204
-168.61536
-253.91656
538.83337
-58.335811
218.94855
236.49384
333.66
835.50021
947.92036
750.9065
274.03575
-596.95104
-1993.2311
-3738.3882
-6408.5894
-9297.8347
-13539.686
-17627.904
-23269.978
-28739.482
-35572.836
-42721.786
-50782.752
-59591.214
-68118.054
-78450.54
-88855.884
-99076.829
-110900.07
-122431.94
-135222.78
-147870.7
-161054.02
-173123.15
-187469.06
-199652.76
-214330.37
-223790.17
-233641.95
-254606.92
-278780.2
-274533.21
-299229.72
-303320.79
-314185.37
-344814.25
-359765.05
-351361.92
-380872.84
-368116.61
-351996.55
-389689.74
-394772.28
-890890
-1001975.9
-1056217.5
-1052365.8
-1023887.3
-1014432.7
-763792.34
1350301.1
1646285.9
1869342.8
1981273.8
1871396
1883319.8
1517777.6
386.33291
679.17338
755.94922
885.52488
768.27287
973.37483
683.40308
-187.33094
-381.39986
-314.10403
-361.02202
-355.44079
-119.27258
145.17319
-264148.9
-277150.61
-279367.1
-279316.71
-279300.89
-272336.58
-265210.58
-259322.38
-246464.91
-242074.43
-231031.85
-218893.85
-213479.23
-202057.93
-193059.02
-183213.42
-175001.84
-164616.32
-155144.47
-145194.63
-135957.18
-125485.52
-115921.16
-106009.34
-97095.495
-86841.677
-77556.499
-68792.806
-59917.907
-51546.741
-43841.303
-36318.737
-29704.746
-23604.083
-18171.327
-13482.093
-9488.0871
-5937.479
-3210.0246
-1332.136
379.01255
1220.5598
1777.8395
1709.1689
1656.9081
1096.6202
797.65773
-163347.88
-167527.66
-164268.23
-177529.79
-178033.75
-183558.72
-175945.03
-172215.16
-165826.3
-160692.85
-153281.24
-148040
-140606.25
-133873.22
-129233.07
-122358.77
-116912.76
-109760.59
-104105.97
-97375.381
-90630.19
-83701.705
-76863.537
-70512.937
-63723.418
-57622.141
-51711.726
-45023.579
-39790.601
-34049.277
-28860.852
-24034.779
-19568.497
-15522.8
-11908.819
-8815.723
-5940.9768
-3895.9791
-2068.6074
-842.91073
239.90817
772.01371
1142.56
1170.3043
1184.6254
815.05244
515.61034
-69998.208
-85788.192
-73769.098
-85356.867
-82043.731
-87457.649
-83552.284
-85611.28
-81393.057
-78114.848
-77483.926
-72546.262
-70802.789
-65865.576
-62578.151
-59545.942
-57209.835
-53899.782
-51846.158
-48082.92
-46024.282
-42563.53
-39466.043
-35528.269
-32132.155
-28342.97
-25020.937
-21872.092
-18774.69
-15588.679
-12757.708
-9970.246
-7501.2421
-5223.6773
-3384.1485
-1680.5769
-338.44503
599.70755
1547.6723
1908.4687
2202.0957
2180.1254
2005.0748
1728.4321
1279.9775
924.86911
417.70937
14502.449
9937.6679
20498.679
8800.8581
15204.784
9651.3208
15861.996
10912.76
12574.771
5752.653
10087.139
4913.2018
6995.2854
3698.0958
2610.0539
1341.2939
651.70707
123.36149
-515.1452
-104.39695
-877.37633
82.831607
1422.673
1888.1093
1555.4729
2024.5055
2081.2904
2318.199
2664.2605
2959.0972
3140.4869
3474.63
3662.3248
3818.0446
3852.7771
3870.0844
3822.1733
3683.0947
3482.3618
3062.7167
2718.0994
2403.3983
1993.7111
1539.2166
1253.8419
696.11312
306.20984
119916.17
103668.46
111237.79
107805.59
112457.3
107604.76
105982.58
101549.4
98291.944
91259.951
88999.088
81026.989
79633.122
71895.131
69417.945
64004.686
60094.293
56336.67
51989.095
49056.687
43611.738
38015.253
33996.399
28980.367
27438.664
26083.07
22959.49
20720.687
18831.314
17029.669
15203.47
13904.175
12312.08
11085.052
9767.7171
8582.1155
7660.6908
6383.9568
6538.104
5451.4661
4465.6545
3554.7097
2615.0425
1958.523
1124.2438
776.18348
148.56063
224590.31
204926.71
207536.11
211607.07
211336.72
204227.77
201253.4
191446.8
187706.77
175103.3
172104.4
162188.45
155647.19
148062.2
140226.8
131684.53
123820.6
116312.69
108162.05
101561.1
92636.292
86704.149
75407.058
68235.875
61065.795
56023.44
50905.876
45627.47
40856.173
36253.976
32316.629
28210.548
24600.203
21204.688
18001.618
15281.806
12685.239
10403.087
8113.2334
6453.6444
4953.6435
3747.8479
2659.5487
1699.389
1145.5051
586.61517
148.32111
355735.58
270763.62
308508.31
300476.87
306465.29
294346.38
291521.81
278070.05
273143.31
257743.62
252151.33
238690.97
228573.04
215238.48
204058.76
191079.21
179707.83
168125.4
157621.11
145934.94
136680.52
124925.77
115193.45
105755.21
96249.717
88283.477
80254.231
71279.154
63397.667
55985.943
49010.274
42477.144
36343.731
30858.983
25703.621
21130.454
17257.152
13580.769
10981.872
8142.6072
6061.0339
4361.8307
2915.2406
1891.7657
1078.913
539.3723
146.76515
-612842.62
-604162.84
-633082.12
-626257.43
-631958.91
-613731.41
-569188.47
-416483.04
-484883.02
-446940.81
-467045.7
-464864.94
-451728.41
-440339.48
-199251.52
-236586.86
-191747.07
-214466.85
-194393.85
-196437.08
-215675.92
-19677.209
4959.2745
14827.823
-3870.9017
2599.7358
36462.406
-46919.047
171647.15
171003.83
190088.61
175285.52
179147.11
180307.48
116064.76
452627.16
479389
474102.2
483707.52
496094.38
488650.07
449785.55
601169.32
524118.07
473511.1
486477.97
464741.67
425835.87
474702.34
569938.76
575571.06
644110.58
661200.94
674113.02
669208.81
536603.59
466097.9
520553.8
516292.64
521430.48
544648.08
526291.58
487356.53
378077.47
417691.91
440638.08
440954.97
438530.16
417204.26
431295.02
392265.37
418260.61
412226
431007.46
418204.3
417730.66
395790.69
380929.77
398807.79
412051.69
413156.98
413891.19
401491.77
401836.28
376488.13
368724.86
376383.94
381301.25
381964.67
374706.41
375146.03
354893.39
362572.32
367120.16
370016.86
369560.39
370641.31
369626.88
350159.7
343513.31
347957.63
348282.67
342806.17
348361.5
348662.09
330298.03
332206.16
332262.15
334492.76
337196.57
339137.45
341625.57
323355.76
316667.92
314814.74
317310.46
317829.96
318538.61
319096.23
306738.87
304656
302182.06
304331.52
305782.79
305491.6
313944.48
292023.36
288694.14
287776.82
292556.56
291184.18
290021.46
296691.32
280588.07
271640.63
274878.34
274681.1
278078.82
278158.84
288616.73
263638.83
257918.44
264067.77
264360.67
267003.39
266771.69
272974.05
251554.59
244174.94
250329.7
248005.13
251414.99
251592.39
259301.06
237299.83
230144.37
238073.96
236553.99
241211.69
242022.19
248664.3
222886.71
218405.93
225030.55
222828.83
227567.37
227267.52
232486.1
209800.12
205921.32
212405.37
210129.96
216190.68
215405.84
221855.99
196241.27
193112.91
199447.42
196597.88
202804.21
201664.6
208161.05
182721.16
181016.34
186792.08
184487.78
191278.73
190154.07
196810.94
170604.94
167861.3
173971.07
171179.3
177980.14
176642.8
183101.35
157501.7
155987.57
161319.15
159368.48
165963.17
164735.85
171517.33
145524.38
143192.68
149197.16
146876.8
152964.34
152175.52
158483.52
132855.19
132401.54
136983.86
134760.17
140908.04
140401.12
146481
120955.82
121164.22
123493.39
123225.1
128619.13
128516.18
134596.17
108487.11
110608.27
110632.17
113633.03
116075.21
118207.28
122753.86
99699.461
99475.109
100402.73
102889.36
104483.72
105730.76
109858.96
89253.753
88775.29
90175.215
91461.435
92825.047
94993.016
96736.045
78933.441
78459.346
79799.863
80299.393
81204.444
84185.492
85000.63
69834.779
68631.041
70306.85
70303.811
71513.843
74052.008
74593.336
60334.947
59773.016
60776.241
60740.105
61526.446
63947.321
64229.506
52343.555
51079.215
52177.805
51855.867
52637.205
54744.601
55045.476
44199.846
43218.05
43961.076
43653.347
44219.038
46200.322
46412.771
37244.021
36027.156
36687.797
36194.61
36758.695
38437.251
38414.222
30596.561
29492.069
29828.389
29344.622
29699.894
31329.007
31299.949
24827.961
23663.77
23884.687
23450.81
23936.314
24910.078
25022.127
19833.069
18639.362
18751.387
18225.344
18405.943
19481.273
19348.246
15130.931
14196.41
13987.409
13662.334
13762.558
14781.958
14699.686
11336.763
10414.742
10250.147
9900.4437
10035.88
10740.978
10651.974
8429.7021
7361.1376
7387.6825
6850.0858
7021.5004
7604.1482
7508.3431
5669.3578
4940.7349
4689.6358
4285.3298
4440.2241
4866.2273
4828.8401
3709.314
3184.0551
2998.0601
2638.2575
2821.2414
3095.806
3088.8981
2228.1739
1602.782
1403.3836
1106.6565
1285.6098
1465.7402
1531.3729
1217.8736
784.67135
788.1847
528.61299
746.50726
777.26778
814.64177
396.03304
-8.5005423
-57.462662
-251.70999
-136.76245
-81.626549
13.299809
334.0564
184.00037
289.90307
121.35486
346.43661
300.9843
409.84052
-65.264953
-387.71995
-367.67904
-298.23907
-215.56687
-235.36341
-471.40682
-172.33735
-260.33265
-397.36675
-263.04668
-220.71091
26.054213
-34.496295
12.644811
-423.56
-427.31477
-281.11465
-399.05379
-5.3162308
17.994735
52.48824
-94.082774
-87.464282
66.968739
28.655142
311.71451
176.17872
-149.78193
-328.59348
-254.67163
-153.88788
-212.50855
152.23054
-114.07582
-317.42198
-385.8444
-394.41665
-162.02506
-281.47907
-134.83021
-210.4031
-318.66328
-171.8226
115.62823
82.852624
146.2338
281.42756
47.636306
-372.69655
-557.23269
-446.73509
-351.88583
-148.70169
-327.86349
-547.6037
-399946.89
-400767.7
-466828.85
-448790.94
-467494.22
-437511.31
-423846.53
-430370.26
-441686.58
-469611.04
-468469.75
-473264.9
-437270.47
-429974.28
-410221.63
-415073.55
-428421.51
-431230.28
-428364.39
-399962.78
-403234.69
-382803.61
-401171.85
-411360.19
-418772.25
-412117.62
-396031.03
-397338.77
-377852.34
-380933.63
-385044.22
-388669.85
-386447.11
-372332.34
-367196.16
-356670.14
-363983.54
-369786.31
-366855.19
-366351.9
-352187.01
-354730.2
-348977.56
-348332.04
-350116.87
-348692.33
-352757.05
-342622.09
-349056.36
-329555.23
-331846.99
-335391.8
-324847.44
-332214.98
-322832.96
-325236.9
-320802.18
-321200.27
-320776.81
-316096.58
-321517.33
-310471.23
-320963.43
-308183.9
-303680.82
-304082.84
-298836.94
-303039.9
-294491.46
-302678.53
-295124.83
-290682.73
-295262.39
-287273.47
-292797.95
-284035.49
-290162.55
-279978.01
-280226.64
-277076.45
-272095.01
-274568.84
-267547.85
-274937
-270099.9
-264406.26
-265353.5
-259811.87
-263339.29
-254776.58
-254958.81
-256358.18
-253820.13
-250510.81
-247073.61
-247350.77
-242762.81
-245135.88
-243195.64
-241045.05
-236690.37
-236082.28
-234483.87
-229971.04
-234607.83
-233337.18
-226944.52
-224610.48
-220939.75
-221892.26
-216388.91
-218097.13
-219610.07
-215876.35
-211848.21
-210590.84
-208282.61
-203592.35
-204661.3
-207462.31
-202669.96
-199858.61
-197056.45
-194578.1
-190951.61
-191010.18
-194036.19
-190922.59
-187381.87
-184620.86
-182332.29
-178930.12
-178873.42
-182307.35
-178093.65
-174758.62
-172188.5
-169529.34
-166220.31
-165736.01
-169935.64
-165656.93
-162959.98
-160016.68
-157362.44
-154315.86
-153791.18
-157621.72
-153554.12
-150900.66
-147779.86
-144805.31
-141734.31
-141469.73
-145465.21
-141542.55
-139363.84
-135850.38
-132983.54
-130237.62
-130229.45
-133336.13
-129887.35
-127369.51
-124050.27
-121100.52
-118350.98
-118598.7
-121453.5
-117473.27
-115888.88
-112341.86
-109664.01
-107238.87
-107567.83
-109787.64
-105807.83
-104462.18
-101008.55
-98413.447
-96213.703
-96458.973
-97713.758
-94800.383
-93152.998
-89915.861
-87592.46
-85499.275
-86209.47
-86975.215
-83698.318
-82238.056
-79416.921
-77574.366
-75860.905
-76635.347
-75567.511
-72893.159
-71929.042
-69322.497
-67240.474
-65949.535
-66611.385
-65256.362
-63381.682
-61727.673
-59810.789
-57904.099
-57250.934
-57656.644
-55614.217
-53773.923
-52460.345
-50927.912
-49118.677
-48659.299
-49183.539
-46219.072
-45064.045
-43513.969
-42433.753
-40632.545
-40757.431
-41290.362
-37882.693
-37045.11
-35675.037
-34865.769
-33420.545
-33770.243
-34137.821
-30292.754
-29811.425
-28194.58
-27851.307
-26386.007
-26891.297
-27376.708
-23366.182
-23028.189
-21777.386
-21523.379
-20458.79
-21508.582
-21785.292
-17424.01
-17685.765
-16237.451
-16295.067
-15459.601
-16134.399
-16743.132
-12709.01
-12343.777
-11182.477
-11144.634
-10512.213
-11282.241
-12208.301
-7988.256
-8253.462
-7534.2897
-7348.8833
-7198.8677
-7846.7027
-8681.4928
-4583.5622
-5122.2482
-3780.5302
-4376.7228
-3957.107
-4828.3686
-5337.4302
-1919.9815
-2471.7559
-1412.7159
-2015.0809
-1476.7087
-2396.9383
-2979.1025
48.837906
-478.83838
448.79733
-116.81715
259.6378
-767.75099
-1033.3915
1323.8628
624.78917
1545.0532
965.57086
1245.0473
509.63928
200.10185
1983.5224
1680.1732
2289.2184
1797.8749
1978.4239
1314.1675
1057.472
1979.0118
1537.1193
2088.3346
1670.8689
1749.0815
1305.8302
1289.3
1981.2061
1851.3307
2103.8525
1839.3349
1790.9898
1637.9111
1415.9819
1255.3362
953.13329
1158.4054
867.03981
998.98553
894.39475
775.82627
843.17212
714.37003
713.14341
646.19802
702.82503
529.86496
551.2591
-431896.55
-290408.71
-288410.07
-281756.71
-289939.73
-292192.95
-275571.9
-269190.06
-260960.61
-251501.98
-237184.25
-228245.63
-214399.42
-203073.22
-192393.37
-181325.93
-169128.65
-158641.16
-148251.97
-137845.99
-127773.24
-117585.65
-108019.47
-98928.204
-89883.1
-81305.944
-72521.299
-64239.61
-56827.006
-49451.578
-42557.012
-36254.143
-30384.529
-25077.103
-20150.99
-15903.692
-11722.722
-8629.5342
-6131.6436
-3950.9443
-2235.1301
-931.33913
46.464553
587.69121
965.88683
864.07183
918.02903
-245294.41
-230907.09
-170964.86
-199669.99
-229679.85
-204139.68
-214299.48
-195965.52
-196490.52
-179678.87
-178234.61
-163583.06
-155394.79
-145966.16
-138206.57
-131168.13
-122590.28
-113041.25
-106624.33
-97701.33
-90402.977
-82657.016
-75589.097
-68191.069
-61118.421
-53849.318
-48718.805
-42524.835
-37423.53
-32303.656
-27634.487
-23273.472
-19301.72
-15751.094
-12237.408
-9952.2912
-7350.9144
-4781.0968
-3302.6819
-1681.3793
-593.67043
108.96768
735.68798
887.96287
1055.4187
891.89072
671.59723
-117731.22
-127014.62
-65458.687
-106041.31
-93450.697
-82299.207
-89284.285
-79306.441
-78766.518
-70888.418
-72908.82
-66363.175
-66994.385
-61833.608
-60978.748
-57773.297
-53261.024
-49238.452
-46353.884
-41118.654
-37825.211
-34125.921
-30754.452
-27490.847
-24970.812
-22138.435
-19853.161
-16848.916
-14654.349
-12731.834
-10815.663
-9209.3626
-7707.3745
-6270.6803
-5009.5057
-4005.1068
-3001.8168
-2152.4337
-1423.535
-765.22827
-339.29021
85.87058
414.50438
501.40839
782.49619
621.49372
747.18054
16481.766
-17908.797
13224.868
-11963.561
2994.9769
-4011.0607
-2567.5963
9794.6693
1481.0823
5831.3603
4756.276
5930.6425
2338.9433
1016.0724
-1410.3171
1379.7763
650.37367
2225.2937
2316.0662
4134.4469
3810.0703
4665.2189
4914.0282
5199.0034
5606.4879
5877.3242
5858.1574
5526.3054
5509.034
5158.8702
4913.7454
4166.6686
3862.0868
3350.3557
2994.6133
2572.6009
2375.8573
2030.3935
1929.8329
1583.1603
1483.5963
1424.6904
1264.6508
1126.9751
992.08412
734.02121
310.26104
173962.39
95820.665
102650.98
77341.784
95496.285
78900.193
92120.481
84713.469
78607.332
82561.44
72988.01
78311.322
70388.447
74044.59
69093.769
68670.919
64854.099
63362.91
60294.395
57862.643
54706.488
52066.837
48795.801
45836.205
41480.448
38385.094
34645.096
31163.974
28130.248
24911.883
21963.681
18886.638
16163.067
13411.594
11175.266
9017.498
7177.1382
5599.3365
4299.9411
3158.1658
2413.4862
1687.301
1321.2789
852.61679
725.24232
336.53449
358.11104
270764.02
215025.03
180637.37
185468.91
190786.27
186154.05
187301.69
171740.03
178457.81
172918.96
169290.24
166877.1
154977.15
154406.18
143326.49
139004.82
129027.75
123383.19
114995.64
109023.25
102166.87
95416.485
88427.924
80658.025
72845.102
65661.118
59934.942
53755.722
47910.231
42116.358
37023.638
31778.868
27026.896
22622.577
18700.249
15197.106
12023.961
9282.7803
7178.5546
5330.8433
3765.2164
2781.084
1821.6902
1350.9985
784.51537
701.76091
-33.627107
352773.61
300432.19
296785.38
288094.94
307530.3
294306.26
298329.33
284259
284755.07
268904.91
263145.26
249937.43
240617.22
230186.88
219843.9
210461.75
201691.66
190552.97
181823.67
170680.21
160562.45
149486.06
139322.01
127980.22
118298.4
103591.64
95117.627
85914.309
76520.277
67752.461
59226.342
50814.116
43383.474
36197.107
29887.602
24144.917
18920.141
14770.506
11069.84
7853.3979
5608.2161
3472.2896
2309.5836
1099.5361
604.28695
-72.090015
271.98698
-508717.56
-553473.58
-543981.37
-567246.36
-561453.6
-527505.41
-488394.24
-339022.79
-403715.71
-398853.7
-408533.22
-397817.85
-374217.77
-338526.77
-325688.56
-363565.3
-386285.95
-389629.6
-380447.91
-376877.88
-352956.81
-309989.22
-319737.73
-330438.21
-337774.89
-323292.74
-325275.33
-290039.54
-298700.53
-312547.04
-329151
-323959.96
-319087.6
-313583.86
-286506.19
-289468.7
-299843.23
-296171.51
-304344.04
-295827.79
-293247.5
-291507.37
-281038.82
-285609.25
-289850.45
-290630.85
-279778.88
-285599.46
-273151.38
-268829.89
-280184.41
-272502.47
-278909.6
-274234.33
-267106
-263127.66
-263520.03
-265036.23
-256962.26
-269387.14
-254992.38
-261025.77
-253973.99
-249307.48
-251488.69
-252951.24
-255226.61
-246677.17
-248656.7
-242395.42
-238803.78
-246429.63
-237521.62
-241897.42
-233428.96
-235396.51
-229870.74
-233912.72
-229903.32
-229735.76
-230401.32
-226086.47
-223766.97
-219356.1
-220468.52
-222443.24
-218209.07
-222388.64
-212248.4
-214432.26
-210333.62
-211714.92
-208644.63
-209175.18
-209277.71
-202599.11
-202392.46
-199315.08
-202114.96
-199934.13
-198850.89
-196395.38
-191854.41
-191883.54
-187137.11
-191268.61
-188686.19
-189533.05
-187094.94
-182288.76
-179519.98
-176629.69
-180613.9
-178207.74
-177741.54
-175771.13
-170863.21
-169187.64
-166265.92
-170517.07
-167826.19
-168189.83
-164328.64
-160466.64
-158551.97
-155699.58
-160173.44
-158345.04
-156531.41
-154203.19
-150181.48
-147907.4
-144008.04
-150387.73
-147391.92
-146662
-143704.49
-140021.08
-137508.98
-134506.1
-138758.03
-137948.17
-135902.88
-133258.91
-129395.51
-127410.17
-123602.53
-128823.79
-127905.19
-125410.52
-122718.84
-119830.72
-117533.76
-114469.44
-118142.3
-117765.61
-114272.84
-112654.54
-109497.3
-108380.78
-103944.88
-107868.07
-107542.41
-104124.17
-102371.67
-100254.11
-98537.699
-94515.952
-97067.457
-98060.074
-93764.614
-93191.154
-90261.085
-89754.997
-85369.092
-88213.55
-88189.881
-85035.006
-82762.063
-81952.989
-80280.588
-76979.483
-79141.348
-78434.063
-74996.7
-74244.171
-72984.091
-71862.276
-68828.28
-69490.759
-68771.951
-66884.665
-65408.967
-63831.129
-63366.134
-60086.049
-60679.168
-61194.47
-57594.741
-56738.167
-56151.355
-55531.8
-52903.047
-52988.106
-51699.521
-50102.729
-48997.751
-48575.441
-47853.057
-45844.42
-44798.468
-44061.118
-42285.904
-41289.431
-40955.422
-40721.453
-38945.187
-37757.932
-36586.658
-35631.84
-34490.12
-34717.359
-34419.442
-33015.314
-31120.022
-29898.175
-28927.385
-28099.936
-28245.085
-28217.834
-26894.619
-25066.434
-23543.994
-23232.918
-22335.14
-22798.982
-22711.412
-22168.808
-19593.629
-18227.414
-18070.948
-17469.627
-17680.251
-18449.405
-17414.085
-15064.857
-13568.427
-13546.347
-12775.431
-13421.084
-13313.982
-12890.724
-10721.567
-9040.2832
-9326.0426
-9065.1223
-9283.0677
-10175.236
-10024.308
-7632.2405
-6615.0664
-6272.1385
-6238.1811
-6718.478
-6888.3926
-7123.3905
-4753.5084
-2695.9801
-3778.9417
-2940.0945
-3953.0846
-4037.7631
-4513.5916
-2586.1054
-1196.9956
-1993.3783
-1306.4637
-2107.2532
-2195.2196
-2732.8772
-888.04505
654.67707
-231.88524
646.7508
-403.29634
-521.01379
-1025.7784
231.66169
1406.6571
804.45408
1204.3927
482.13255
520.74715
-56.55797
949.09474
2247.7678
1454.26
2093.9087
1454.6359
1308.2308
608.09758
1459.2043
2107.8788
1784.927
2106.1634
1618.7627
1549.0134
1124.5037
1480.3292
2213.6949
1892.8499
2092.3348
1803.916
1831.7653
1099.1777
1322.7476
1643.3364
1558.1637
1590.2468
1645.7739
1369.1799
1249.6864
639.0274
898.56917
864.56398
958.76149
794.50872
893.95432
705.7563
-317725.03
-323966.33
-358095.73
-348496.75
-360660.24
-326698.65
-326622.91
-234683.17
-296595.15
-309684.86
-320816.21
-319828.18
-292970.1
-273990.78
-241964
-225209.06
-255768.02
-244068.77
-254336.42
-227807.4
-226766.44
-203206.27
-219934.99
-235869.21
-231175.43
-236634.12
-223009.76
-197220.63
-210648.83
-215638.7
-228590.17
-218859.98
-228971.49
-213302.56
-204125.68
-197392.82
-202239.66
-209980.32
-203801.94
-204799.76
-204781.5
-193599.96
-193114.2
-200945.89
-210711.42
-201301.54
-207479.04
-202188.76
-188708.69
-187300.41
-187576.17
-191871.94
-185772.86
-190949.32
-183473.76
-181601.7
-179848.54
-180715.76
-192293.92
-183890.6
-184117.06
-182886.97
-174956.86
-170221.36
-174993.44
-179109.68
-166971.4
-173497.62
-168212.41
-166480.76
-165690.81
-168157.49
-169501.1
-164475.99
-167417.55
-164150.4
-156743.04
-158122.71
-157115.09
-164035.3
-153770.01
-159256.97
-150925.41
-153583.51
-149318.29
-152454.7
-156759.66
-145839.78
-150643.72
-145067.3
-140921.56
-142735.67
-144783.85
-147011.4
-137144.62
-141453.86
-136022.21
-130450.87
-135011.25
-140038.96
-137962.79
-131807.71
-133958.44
-129521.8
-122543.69
-129054.72
-131263.05
-129163.26
-124705.2
-123730.14
-121051.37
-112800.73
-121701.5
-125471.34
-122529.46
-117627.26
-116525.53
-115270.96
-108296.39
-115166.78
-118262.84
-114139.59
-110552.37
-108577.44
-106966.9
-98429.957
-109042.98
-111095.79
-107235.34
-103999.27
-101680.15
-100032.17
-92494.636
-101675.71
-103618.42
-99838.782
-96762.544
-93745.479
-92050.148
-85055.837
-95585.523
-97006.267
-92820.774
-90012.538
-86955.832
-85666.873
-78998.014
-89392.525
-89544.788
-85264.903
-82960.03
-79854.509
-78345.472
-71783.557
-83240.517
-82312.844
-78661
-76767.89
-73598.827
-71317.429
-65987.846
-76810.837
-75278.855
-72288.915
-70267.699
-66776.495
-64371.088
-60110.582
-70102.065
-68598.998
-65450.677
-63739.527
-60811.498
-57962.517
-54890.307
-63394.205
-62019.999
-58508.976
-58249.447
-53627.252
-51626.901
-49327.804
-56405.762
-55474.39
-52020.487
-51122.475
-48329.752
-45677.9
-43560.757
-50484.219
-48418.049
-46401.009
-44747.935
-42746.567
-39894.893
-38763.001
-43779.314
-42330.167
-40454.564
-39216.607
-37254.634
-34694.267
-33698.985
-37604.982
-36647.412
-34206.936
-33777.081
-31397.781
-29758.253
-28900.298
-31925.54
-31198.189
-29243.91
-28747.488
-26807.769
-25427.644
-24796.605
-26422.683
-26110.862
-23830.724
-23962.538
-21971.836
-21053.234
-20586.377
-21575.9
-21251.774
-19443.691
-19540.639
-17923.288
-17093.926
-17037.77
-16890.18
-16988.57
-15157.677
-15681.065
-14027.138
-13772.109
-13767.648
-13084.148
-13126.192
-11690.399
-11837.16
-10795.678
-10402.204
-10866.179
-9307.5576
-9655.8343
-8089.7709
-8913.2736
-7651.3545
-7987.7915
-7964.3963
-6501.9716
-6763.1497
-5848.7173
-6044.9812
-5530.3983
-5289.1003
-5953.9458
-3891.4284
-4439.485
-3041.2197
-3880.5371
-2931.4009
-3471.4716
-3951.0616
-1980.6101
-2258.6904
-1344.603
-2108.1315
-1354.998
-1877.759
-2479.9862
-293.55881
-956.7137
41.936088
-578.1767
-149.1142
-599.11837
-1348.3385
652.32841
293.32393
1153.1064
369.3835
785.98227
361.84684
-247.24554
1358.1079
1005.5604
1707.7777
1013.1719
1469.1968
948.46513
294.76545
1730.9783
1561.0798
1987.6882
1560.253
1755.3849
1286.223
807.60145
1630.2706
1403.5779
1934.0388
1399.1721
1594.4829
1280.3002
985.03252
1570.789
1696.3455
1773.9937
1479.721
1659.8825
1331.0725
870.72916
1058.4962
885.88004
1000.9801
826.72667
954.69442
689.79644
672.35184
831.35092
956.69482
998.43059
851.04899
945.82513
968.18173
816.15601
-180452.48
-179014.85
-171112.51
-186562.5
-176880.36
-165597.74
-160670.8
-121794.58
-183473.49
-168470.66
-183660.08
-159559.79
-162823.86
-136537.78
-128346.83
-117888.94
-131855.11
-130927.78
-124882.18
-112868.55
-109013.77
-97348.021
-118749.62
-125535.63
-133566.9
-119579.46
-123352.03
-100535.84
-111811.43
-106548.83
-117023.27
-109440.93
-108916.9
-99263.261
-94861.176
-95174.139
-109221.51
-103202.86
-104546.86
-106657.95
-95650.607
-95237.13
-98997.767
-104410.44
-94224.949
-101961.08
-99604.653
-92337.702
-90963.182
-93249.925
-102471.12
-92176.861
-96575.226
-93479.682
-84197.995
-87432.954
-91980.511
-102463.82
-85128.746
-93142.56
-88373.767
-85097.773
-83760.898
-92251.044
-94111.187
-81137.344
-85495.466
-86123.579
-77803.017
-78946.12
-87011.071
-92750.114
-76709.389
-85909.674
-80810.393
-76336.936
-74686.159
-82821.986
-86010.124
-73134.794
-78164.878
-75930.472
-69142.503
-70259.131
-77945.807
-86868.06
-68849.401
-75700.881
-72010.168
-66229.779
-65555.739
-75800.605
-78962.436
-66872.919
-71965.391
-70530.715
-59077.092
-64271.793
-72584.092
-74352.006
-62306.372
-67805.151
-64225.944
-56014.922
-59333.602
-68248.475
-68578.087
-61672.616
-61704.372
-61317.51
-52103.398
-56433.729
-63358.908
-66133.196
-56889.075
-59056.958
-56382.353
-49180.482
-50554.57
-61164.798
-60542.786
-54060.531
-54519.37
-52868.202
-45240.208
-46603.809
-56127.747
-57656.689
-49959.858
-51139.327
-48000.506
-41608.568
-41999.011
-53458.65
-53372.213
-46836.586
-46969.885
-44333.328
-38282.818
-39141.302
-49193.925
-49803.648
-42817.366
-43272.38
-40007.074
-35426.386
-34290.82
-45713.428
-45360.14
-39553.855
-39530.488
-36904.086
-31596.926
-31322.356
-41838.386
-41636.193
-35822.792
-36545.56
-32147.901
-29051.034
-27817.802
-38182.781
-37142.027
-32522.46
-32090.358
-28307.244
-26373.926
-24591.933
-34555.054
-33367.437
-28977.417
-28679.593
-24792.085
-24141.167
-21309.587
-31327.812
-28565.731
-25820.481
-24900.648
-21401.524
-21018.622
-18252.912
-27435.753
-25971.78
-22590.867
-22747.938
-17861.729
-19146.456
-15288.868
-24305.352
-23031.055
-19476.476
-19078.217
-15924.512
-16234.665
-13856.213
-20769.01
-19145.25
-16334.334
-16223.426
-13165.174
-13669.201
-11642.408
-17860.166
-16131.474
-14115.548
-13590.956
-11118.834
-11786.884
-9768.7239
-14862.374
-13309.347
-11250.317
-11296.75
-8718.1867
-9847.7599
-7908.4699
-12266.448
-10536.109
-9179.7284
-9047.3062
-6927.778
-8156.7437
-6219.1639
-9681.3427
-8115.0923
-7037.9434
-7095.5503
-5163.7293
-6581.6292
-4916.5146
-7594.6088
-6013.7005
-5336.1843
-5289.6888
-3705.2926
-5191.5971
-3708.9598
-5498.179
-3995.3222
-3620.8364
-3670.0513
-2407.7159
-3959.8229
-2571.6935
-3839.0821
-2555.4727
-2381.2263
-2410.8773
-1520.9677
-2764.4712
-1807.8727
-2489.7111
-981.78328
-1179.337
-1186.0497
-482.81354
-1714.3411
-1005.1944
-1253.2741
-188.96584
-353.09132
-438.08875
136.4646
-1140.0002
-433.89811
-353.70197
941.36197
327.72175
462.65341
632.23062
-498.15553
63.412492
252.59212
1300.3651
605.49009
729.03284
863.14668
-39.951119
464.46888
834.3682
1909.4111
1020.1508
1423.4191
1190.7224
563.09871
682.35535
1101.4452
1823.8623
1068.6388
1353.24
1165.724
622.87342
706.33104
1259.5616
1912.5081
1196.2223
1566.7318
1184.7428
928.18869
806.86288
1305.8812
1662.4729
1147.0305
1313.8471
1159.7072
941.25922
791.16062
1178.0453
1446.3733
1021.6889
1258.0053
1067.8303
951.11961
611.77238
943.29362
1015.9217
851.4652
913.44452
925.19059
725.68329
770.56742
645.19915
782.35114
717.02975
776.59471
688.44776
745.91688
459.5871
3361.9017
22625.907
15751.012
18453.873
18175.345
21594.166
-7.9758946
8730.5225
1693.2416
1117.4419
-7299.567
114.33975
-3212.0487
2160.2644
-14659.867
16939.66
6988.8298
18422.39
11348.528
16446.708
4380.1082
1951.2377
3431.2284
-13495.151
-6878.5611
-7943.5799
-12964.168
8705.1812
-6613.9942
-7352.0596
-12950.742
3571.2085
-11241.744
13516.685
-2557.5869
-5703.1987
494.16622
-4139.5863
-8574.2095
-5276.8328
-7349.2462
2495.5836
-9026.2637
-10565.546
-19515.023
-6682.5113
-12987.203
-1999.3907
-2813.8138
-10357.273
-7993.8971
-5509.253
-8775.5359
-5127.9064
-6420.2499
1333.242
-9235.8126
-5665.9539
-15515.867
-7067.7142
-11419.47
-4638.7088
3078.5341
-5653.0076
-9174.829
-8279.9647
-4141.7899
-4652.7383
-486.77172
1809.4751
-7373.4473
-6931.2801
-9749.8881
-5076.7905
-5871.9564
-2436.4593
3015.4547
-4657.1499
-7444.7514
-5519.5648
-3294.2987
-2004.868
-456.80755
4642.3885
-7274.6835
-6227.5112
-6083.3537
-4255.6795
-3918.0069
-1441.2114
6570.6956
-4512.6477
-4623.3927
-7445.6582
-4115.6123
2335.3141
961.00502
10441.976
-5762.3428
-7777.9267
-1419.8525
-5199.9094
3421.2533
-312.00145
8058.7303
-3495.5738
-5730.052
-937.30139
-4339.8441
5001.3502
1450.3579
9885.5036
-4597.0071
-5604.8604
-1077.2679
-5376.3621
5254.1143
1336.5083
9134.0674
-3756.1847
-4605.9284
-1292.8055
-3645.8309
6211.8803
2909.3681
10765.189
-3720.9086
-5965.5775
-987.94861
-3803.2472
6011.7062
2688.201
10101.104
-4213.55
-4725.1101
-415.452
-2488.9108
6728.0708
3428.9729
11631.402
-3636.1625
-5194.0525
-146.78549
-2370.43
6092.6702
3779.1934
11523.612