/*--------------------------------*- C++ -*----------------------------------*\
  =========                 |
  \\      /  F ield         | OpenFOAM: The Open Source CFD Toolbox
   \\    /   O peration     | Website:  https://openfoam.org
    \\  /    A nd           | Version:  6
     \\/     M anipulation  |
\*---------------------------------------------------------------------------*/
FoamFile
{
    version     2.0;
    format      ascii;
    class       pointVectorField;
    location    "0.96";
    object      u;
}
// * * * * * * * * * * * * * * * * * * * * * * * * * * * * * * * * * * * * * //

dimensions      [0 1 0 0 0 0 0];

internalField   nonuniform List<vector> 
3969
(
(0 -4.2462971e-20 0)
(0 -2.2767436e-19 0)
(-0.28284181 -0.01574511 0.029955499)
(-0.28361017 0.02330343 0.024386989)
(0 2.3238935e-18 0)
(0 1.875571e-18 0)
(-0.27775589 0.015573306 0.024310608)
(-0.27697369 -0.023550238 0.029914272)
(0 9.9387312e-20 0)
(0 5.9906329e-19 0)
(0 2.6095773e-19 0)
(-1.5013652e-18 -1.351866e-19 0)
(0 7.2019416e-19 0)
(0 -4.145403e-19 0)
(0 -4.0443049e-19 0)
(-0.28294254 -0.010907406 0.029231638)
(-0.28308686 -0.0060243695 0.028521249)
(-0.28320748 -0.0011179381 0.027841814)
(-0.28331875 0.0038119306 0.027168375)
(-0.28340608 0.0087406474 0.026500739)
(-0.28346651 0.013636057 0.025817807)
(-0.28352033 0.018484763 0.025111179)
(-0.0010986733 -0.0028043891 -0.0029591492)
(-0.0018493696 -0.0048214475 -0.0036600288)
(-0.0036660483 -0.0067792687 -0.00393716)
(-0.0060788675 -0.0089386848 -0.0038926655)
(-0.0092314771 -0.010766395 -0.0037682479)
(-0.012888738 -0.012739305 -0.0035031439)
(-0.017193585 -0.014394327 -0.0032271765)
(-0.021889222 -0.01610927 -0.0028701835)
(-0.027148127 -0.017527171 -0.0024986276)
(-0.032754598 -0.018992725 -0.0020661728)
(-0.038807742 -0.020180009 -0.0016070808)
(-0.045183044 -0.021402689 -0.0010794002)
(-0.05190165 -0.022365541 -0.00054664297)
(-0.058897226 -0.023327706 7.6270837e-05)
(-0.066137859 -0.024093676 0.00071298738)
(-0.073616409 -0.024813748 0.0014100846)
(-0.081262167 -0.025379814 0.0021401879)
(-0.089085451 -0.025876074 0.0029106804)
(-0.097012913 -0.026239425 0.0037187614)
(-0.10504434 -0.026514032 0.0045473906)
(-0.11311594 -0.026674339 0.0054077271)
(-0.12122193 -0.026736718 0.0062762456)
(-0.12930813 -0.026689513 0.0071647877)
(-0.13736414 -0.026544683 0.0080596504)
(-0.14534549 -0.026307938 0.008965321)
(-0.15324294 -0.02596011 0.0098780864)
(-0.1610135 -0.025529031 0.010797651)
(-0.16864496 -0.025020943 0.011722778)
(-0.17610962 -0.024423346 0.012656562)
(-0.18339253 -0.023778089 0.013592081)
(-0.19046922 -0.023067782 0.01452929)
(-0.19732785 -0.022327748 0.015464703)
(-0.20395668 -0.021559598 0.016394802)
(-0.21035005 -0.020783459 0.01731386)
(-0.21650487 -0.020019423 0.01823028)
(-0.22242679 -0.019273743 0.019126612)
(-0.22813049 -0.018567127 0.020023179)
(-0.23362641 -0.017920181 0.020907976)
(-0.23893823 -0.017327233 0.021785445)
(-0.2440925 -0.016824175 0.022671719)
(-0.24910811 -0.016389096 0.023549004)
(-0.25402671 -0.016054346 0.024440617)
(-0.25885614 -0.015808543 0.025333058)
(-0.26366081 -0.015639286 0.026235041)
(-0.26841135 -0.015582087 0.027150324)
(-0.27321205 -0.015563243 0.028076577)
(-0.27801256 -0.015642153 0.029022627)
(-0.000724806 0.0031617542 0.0041352923)
(-0.0028324069 0.0053484591 0.0037386952)
(-0.0047411509 0.0079613946 0.0042011526)
(-0.0072750914 0.010116231 0.0039177013)
(-0.010706739 0.01274003 0.0036374992)
(-0.014495547 0.01495272 0.0033262675)
(-0.018935189 0.017272854 0.0029916485)
(-0.023813896 0.019305778 0.0027002771)
(-0.029197454 0.021352779 0.0024354559)
(-0.03493168 0.023094886 0.0022084442)
(-0.041137165 0.024867663 0.0020454368)
(-0.047599176 0.026326043 0.001901721)
(-0.054434784 0.027771226 0.0018447407)
(-0.061511426 0.028986499 0.0017997236)
(-0.068841939 0.030091962 0.0018407235)
(-0.076370663 0.031025051 0.0019051219)
(-0.084084022 0.031834354 0.0020430587)
(-0.091914422 0.032471715 0.0022069622)
(-0.099892613 0.033003138 0.0024250519)
(-0.10788778 0.033354917 0.0026774304)
(-0.11599672 0.033623073 0.002963762)
(-0.12404906 0.033720098 0.0032847618)
(-0.13214305 0.033737228 0.0036364167)
(-0.14014176 0.033613336 0.0040191264)
(-0.14810719 0.033413887 0.0044273129)
(-0.15592519 0.03310074 0.0048776342)
(-0.16366938 0.032732148 0.0053607565)
(-0.17122003 0.032256441 0.0058857826)
(-0.17860856 0.031737467 0.0064454859)
(-0.18580049 0.031158129 0.0070534738)
(-0.19277311 0.030535441 0.0077064833)
(-0.19952762 0.029882285 0.0084083325)
(-0.2060395 0.029208484 0.00916023)
(-0.21231903 0.02853019 0.0099604644)
(-0.21835981 0.027860039 0.010810319)
(-0.2241689 0.027209353 0.011706372)
(-0.22976039 0.026592045 0.012650155)
(-0.23515297 0.026022814 0.013633522)
(-0.24035786 0.025496513 0.014659925)
(-0.24541064 0.02503776 0.015711346)
(-0.25033112 0.024629896 0.016796429)
(-0.25515353 0.024288891 0.017892246)
(-0.25990139 0.024003963 0.019007918)
(-0.26461614 0.023779902 0.020112053)
(-0.26931158 0.023601849 0.021215784)
(-0.27403235 0.023469075 0.02229607)
(-0.27878672 0.023381015 0.023352577)
(0 -2.5911098e-20 0)
(0 3.0574931e-19 0)
(0 -3.6254831e-19 0)
(7.3970023e-19 -7.529445e-20 0)
(0 -6.2268836e-19 0)
(0 -2.8852262e-19 0)
(0 -2.4256856e-19 0)
(-0.0017278493 0.0021695221 -0.003372317)
(-0.0028554458 0.0065305369 -0.004571021)
(-0.0041309752 0.0072469559 -0.0046931647)
(-0.00688694 0.010554223 -0.0050378263)
(-0.009814578 0.012507346 -0.005007064)
(-0.013507584 0.014752729 -0.0048936387)
(-0.017690565 0.016808951 -0.004753165)
(-0.022419841 0.018715949 -0.0045755696)
(-0.027522106 0.020385025 -0.0042998592)
(-0.033124661 0.022048751 -0.0040960228)
(-0.039075854 0.023375587 -0.003740431)
(-0.045328499 0.024616438 -0.0034038294)
(-0.052070057 0.025767943 -0.0029862432)
(-0.058854032 0.026569605 -0.002530143)
(-0.066131938 0.027521922 -0.0020536388)
(-0.07340322 0.027998742 -0.0014855888)
(-0.081034456 0.028653593 -0.00092596939)
(-0.08867717 0.028917162 -0.00028411975)
(-0.096527785 0.02925433 0.00035792535)
(-0.10439101 0.029327134 0.0010543695)
(-0.11234427 0.02938642 0.0017563543)
(-0.12027906 0.029262426 0.002492872)
(-0.12821487 0.029085149 0.0032332398)
(-0.13609402 0.028773116 0.0039979925)
(-0.14390237 0.028384956 0.0047695713)
(-0.15159271 0.027902515 0.0055417048)
(-0.15915021 0.027325446 0.0063361556)
(-0.16657351 0.026689229 0.0071332058)
(-0.17382105 0.025972106 0.0079511402)
(-0.18087992 0.025210452 0.008773582)
(-0.18773277 0.024406611 0.0095986533)
(-0.19436692 0.023577745 0.010428914)
(-0.2007711 0.022730336 0.011258672)
(-0.2069448 0.021892041 0.012083828)
(-0.21288939 0.021062574 0.012906508)
(-0.21860084 0.020266863 0.01372743)
(-0.2241236 0.019521258 0.014543414)
(-0.22943891 0.018798371 0.015369715)
(-0.23458997 0.018169897 0.016194927)
(-0.23959523 0.017594271 0.017035822)
(-0.24448647 0.017103179 0.017883456)
(-0.2492846 0.016683557 0.018751485)
(-0.25402809 0.016345437 0.01963424)
(-0.258736 0.016081897 0.020534045)
(-0.26344081 0.015882546 0.021454462)
(-0.26816961 0.015750255 0.022391201)
(-0.27293788 0.015647513 0.023351192)
(-0.27767214 0.010736719 0.024991724)
(-0.27762045 0.0058767672 0.02568007)
(-0.27753981 0.00095330303 0.026393554)
(-0.27747888 -0.0039721728 0.027120262)
(-0.27733972 -0.0089421685 0.027846102)
(-0.2772332 -0.013832576 0.028557819)
(-0.27707038 -0.01872542 0.029248426)
(-0.27213625 -0.023448484 0.028826546)
(-0.26736632 -0.023385315 0.027730741)
(-0.26261747 -0.02337909 0.026601589)
(-0.25790146 -0.023425785 0.025443062)
(-0.25317809 -0.023546117 0.024266214)
(-0.24841895 -0.023734027 0.023076969)
(-0.24359098 -0.02399513 0.021891681)
(-0.23866556 -0.024327165 0.020713621)
(-0.23361073 -0.024725967 0.019554365)
(-0.22840283 -0.025180908 0.018417502)
(-0.22302387 -0.025699085 0.017316027)
(-0.21739439 -0.02627624 0.016251095)
(-0.21161984 -0.026841315 0.015218981)
(-0.2055856 -0.027449066 0.014228877)
(-0.19932313 -0.028052594 0.013281422)
(-0.19282947 -0.028640413 0.012383837)
(-0.18610828 -0.029200052 0.011530426)
(-0.17917012 -0.029718291 0.010724713)
(-0.17202835 -0.030179789 0.0099646239)
(-0.16470008 -0.030581118 0.0092517778)
(-0.15720995 -0.030899274 0.0085745589)
(-0.14957885 -0.031144069 0.0079444274)
(-0.14183201 -0.031288388 0.0073437658)
(-0.1339998 -0.031348938 0.0067821733)
(-0.1261082 -0.031288519 0.0062435933)
(-0.11818697 -0.031141746 0.0057456725)
(-0.11026975 -0.030854694 0.0052617587)
(-0.10237651 -0.030481121 0.0048306727)
(-0.094550846 -0.029955797 0.0044100816)
(-0.086807083 -0.029339121 0.0040508081)
(-0.079195281 -0.028577857 0.0037139712)
(-0.071720759 -0.027714038 0.0034333461)
(-0.064434531 -0.026723753 0.0032020943)
(-0.057386053 -0.025618769 0.0029937796)
(-0.050582417 -0.024374657 0.00287139)
(-0.044007884 -0.023060318 0.0027763583)
(-0.037816712 -0.021590842 0.0027356528)
(-0.031888641 -0.020068792 0.0027670145)
(-0.026400568 -0.018401451 0.0028268579)
(-0.021293877 -0.016674749 0.0029201116)
(-0.016725359 -0.014715278 0.0030520486)
(-0.012436088 -0.012905372 0.0032746139)
(-0.0089411517 -0.010720159 0.0034122814)
(-0.0058430384 -0.0087722345 0.0035856535)
(-0.003436214 -0.006651823 0.0035791849)
(-0.0019030897 -0.0043215703 0.0033117315)
(-0.0017613806 -0.0026557825 0.0022011038)
(0 3.1421491e-19 0)
(0 2.4564625e-19 0)
(0 -1.2729379e-19 0)
(0 -8.3642817e-19 4.1858878e-19)
(0 -7.3439129e-19 0)
(0 -1.6146695e-19 0)
(0 7.7215023e-19 0)
(0 1.0705924e-18 0)
(0 1.0205453e-18 0)
(0 9.6969199e-19 0)
(0 8.374823e-19 -1.0288118e-19)
(0 2.2623981e-18 0)
(0 9.9180407e-19 0)
(0 -1.8274201e-19 0)
(-0.28285421 0.02229805 0.024368453)
(-0.28209793 0.021303053 0.024351574)
(-0.28135518 0.020326749 0.024345971)
(-0.28062181 0.019361396 0.024342063)
(-0.27990009 0.018403208 0.02434271)
(-0.27918661 0.017457902 0.024346117)
(-0.27847698 0.016505707 0.024325022)
(-0.28209457 -0.01665903 0.029957624)
(-0.28134728 -0.017604017 0.02994677)
(-0.28060212 -0.018549062 0.029929335)
(-0.27985983 -0.019503227 0.029912892)
(-0.27912617 -0.020474769 0.029900848)
(-0.27839984 -0.021467807 0.029898613)
(-0.27768516 -0.022488676 0.029916281)
(-0.0020344333 -0.0021834005 -0.0025628197)
(-0.0048418202 -0.0035044631 -0.0025867731)
(-0.0083253699 -0.0052349101 -0.0028898745)
(-0.012449683 -0.0067837924 -0.0029118285)
(-0.017121659 -0.0083081679 -0.002841782)
(-0.02225421 -0.0097922818 -0.0026931278)
(-0.027826993 -0.01121148 -0.0024454643)
(-0.033593694 -0.012490594 -0.0022261041)
(-0.039748956 -0.013708617 -0.0018887173)
(-0.04599867 -0.014814674 -0.0015487971)
(-0.05248883 -0.015778449 -0.0011330281)
(-0.059016824 -0.016662657 -0.00071889609)
(-0.065700603 -0.017389509 -0.00019850293)
(-0.072368135 -0.018045794 0.00032527553)
(-0.079100301 -0.01855108 0.00090506414)
(-0.085812956 -0.018966862 0.0015349022)
(-0.092503822 -0.019253591 0.0021942222)
(-0.099160279 -0.019451646 0.0028961927)
(-0.10576718 -0.019531272 0.0036281757)
(-0.11231399 -0.019525339 0.0043881013)
(-0.11879441 -0.019421355 0.005171919)
(-0.1252067 -0.019229271 0.0059703362)
(-0.13153821 -0.018951023 0.0067841106)
(-0.13781038 -0.018606039 0.0076103567)
(-0.14399681 -0.018174804 0.0084462274)
(-0.15012489 -0.017695946 0.0092838981)
(-0.15618954 -0.017155564 0.010139191)
(-0.16220014 -0.016572577 0.011003342)
(-0.16815573 -0.015960993 0.011870344)
(-0.17407039 -0.015327436 0.012750822)
(-0.17993907 -0.014682506 0.013634873)
(-0.1857736 -0.014045941 0.014525472)
(-0.19157982 -0.013418996 0.015417113)
(-0.19736278 -0.012822714 0.016313459)
(-0.20313362 -0.012260223 0.017207558)
(-0.20890825 -0.011738901 0.018101302)
(-0.21469456 -0.011283684 0.019001586)
(-0.22050783 -0.010880236 0.01989765)
(-0.2263666 -0.010547898 0.020802458)
(-0.23228996 -0.010293196 0.021716037)
(-0.23828275 -0.010107112 0.022628727)
(-0.24436769 -0.010013114 0.023560638)
(-0.25054187 -0.0099843812 0.024489357)
(-0.25683213 -0.01004337 0.025437863)
(-0.26320056 -0.010174215 0.026383016)
(-0.26971355 -0.010353628 0.027338589)
(-0.27627378 -0.010617303 0.028292108)
(-0.0020505332 -0.0014513589 -0.0016483498)
(-0.0056732766 -0.0022566681 -0.001697155)
(-0.010002681 -0.0036395496 -0.0019477046)
(-0.014790955 -0.0046733759 -0.0019780309)
(-0.020220188 -0.0057496084 -0.0019397783)
(-0.025984615 -0.0068287049 -0.001802247)
(-0.032032013 -0.0077515046 -0.0017015865)
(-0.03836332 -0.008685609 -0.0014938073)
(-0.044854572 -0.0094824365 -0.0012521538)
(-0.051453379 -0.010253184 -0.00097868826)
(-0.058087436 -0.010841273 -0.00068809744)
(-0.064773687 -0.011453615 -0.00028874836)
(-0.07141217 -0.011856259 0.00010238655)
(-0.078004859 -0.01225801 0.0005539849)
(-0.084522649 -0.012487238 0.0010669112)
(-0.090944483 -0.012681093 0.0016065932)
(-0.097249519 -0.012744713 0.0021978285)
(-0.10345155 -0.012748887 0.0028234455)
(-0.10951552 -0.012648062 0.0034802436)
(-0.11547219 -0.012489452 0.0041693858)
(-0.12129864 -0.012249267 0.0048798527)
(-0.12701781 -0.011941982 0.0056035606)
(-0.13263983 -0.011587833 0.0063543352)
(-0.13816738 -0.011158687 0.0071081017)
(-0.14361924 -0.010701638 0.0078760445)
(-0.14903204 -0.010195987 0.0086663325)
(-0.15439124 -0.0096643 0.0094662699)
(-0.15972996 -0.0091165837 0.010270887)
(-0.16507113 -0.008551889 0.011100955)
(-0.17041351 -0.0079963465 0.011937975)
(-0.17578243 -0.0074482071 0.01278836)
(-0.18119196 -0.0069248521 0.013652616)
(-0.18665084 -0.0064313358 0.014524353)
(-0.19217763 -0.0059763017 0.015406843)
(-0.19778638 -0.0055671267 0.016295001)
(-0.20349173 -0.0052149161 0.017196766)
(-0.20930398 -0.0049152785 0.018098522)
(-0.21524877 -0.0046825071 0.019015619)
(-0.22132568 -0.0045128127 0.019937509)
(-0.2275609 -0.0044175602 0.020870253)
(-0.23394449 -0.0043847351 0.021808154)
(-0.24050723 -0.0044363938 0.022762667)
(-0.24721775 -0.004542436 0.023714194)
(-0.25411632 -0.0047325892 0.024678941)
(-0.26113432 -0.0049743397 0.025643671)
(-0.26834908 -0.0052693986 0.026607642)
(-0.27562405 -0.0056333112 0.027580131)
(-0.0010068693 -0.00072265985 -0.00078780568)
(-0.0039009535 -0.0011157236 -0.00079022869)
(-0.0074311907 -0.0017201849 -0.00089671218)
(-0.011693868 -0.0022008876 -0.00094834033)
(-0.016510367 -0.0026652903 -0.00091041178)
(-0.021676162 -0.003090772 -0.00095093978)
(-0.027376905 -0.0034985058 -0.00081498085)
(-0.033236323 -0.0038178937 -0.00074203483)
(-0.039488016 -0.0041845007 -0.0005668413)
(-0.045789536 -0.0044102643 -0.00042991232)
(-0.052403013 -0.0046746112 -0.00014180417)
(-0.059011737 -0.0048641242 0.00012664031)
(-0.065768164 -0.0049862223 0.00044253954)
(-0.072533572 -0.005095393 0.00083452482)
(-0.079345631 -0.0051349626 0.0012522953)
(-0.086128702 -0.0051446891 0.0017115317)
(-0.092898267 -0.0050932792 0.0022371068)
(-0.099617467 -0.0050096844 0.0027667654)
(-0.10628306 -0.004878295 0.003362792)
(-0.11289076 -0.004718538 0.0039657489)
(-0.11941854 -0.0045094099 0.0046054964)
(-0.12588398 -0.0042855012 0.0052658001)
(-0.13225478 -0.0040090862 0.0059466174)
(-0.13855971 -0.0037330821 0.0066379487)
(-0.1447925 -0.0034197631 0.0073633594)
(-0.15094724 -0.0030950073 0.0080888391)
(-0.15702333 -0.0027555198 0.0088285089)
(-0.1630493 -0.0024096223 0.0095970178)
(-0.16900589 -0.0020596569 0.010373289)
(-0.174912 -0.0017187687 0.011169581)
(-0.1807703 -0.001386963 0.011987472)
(-0.18658445 -0.0010741778 0.012817934)
(-0.19236218 -0.00078453992 0.013667169)
(-0.19811682 -0.00051905089 0.014529229)
(-0.20385223 -0.0002941683 0.015411248)
(-0.20958628 -9.2473563e-05 0.016299544)
(-0.21533087 5.8820544e-05 0.017208655)
(-0.22110056 0.00017978347 0.018128024)
(-0.22691287 0.00025108122 0.019061209)
(-0.23279061 0.00027912412 0.020011937)
(-0.23873999 0.00026175171 0.020970879)
(-0.2447808 0.00018961391 0.021948838)
(-0.25091221 8.2890272e-05 0.022920697)
(-0.25716186 -8.7405172e-05 0.023921151)
(-0.26349476 -0.0002836374 0.02489851)
(-0.26997403 -0.00053007028 0.02589768)
(-0.27648741 -0.00081457541 0.026873675)
(0.00093594637 0.00012025048 9.0633152e-05)
(-0.00013949028 0.00030409262 0.00026005792)
(-0.0021074386 0.00040399267 0.00017164718)
(-0.0046379639 0.00065662708 0.0001153593)
(-0.0079617872 0.00093567183 -3.2852891e-06)
(-0.011864104 0.0011442217 3.104327e-05)
(-0.016255822 0.0014507536 -3.4213443e-05)
(-0.021238775 0.0016845063 2.1587391e-05)
(-0.026588906 0.0019522378 5.2823518e-05)
(-0.032464403 0.0021757913 0.0002030491)
(-0.038657064 0.0023831227 0.00035165289)
(-0.045226595 0.0025866798 0.00052053545)
(-0.052116429 0.0027891609 0.00079276439)
(-0.059262949 0.0029063803 0.0010826347)
(-0.066682584 0.0030902194 0.0014022775)
(-0.074282918 0.0031654194 0.0018004056)
(-0.082091947 0.003297247 0.0022112537)
(-0.09002287 0.0033528927 0.002684752)
(-0.098081756 0.0034243217 0.0031883763)
(-0.10620976 0.0034673519 0.0037166818)
(-0.11438455 0.0034902603 0.0042917888)
(-0.12257366 0.0035126337 0.0048737257)
(-0.13074048 0.0035096541 0.0054893456)
(-0.13886652 0.0035196483 0.0061271255)
(-0.14690612 0.0035304747 0.0067794428)
(-0.15484298 0.0035434769 0.0074486339)
(-0.16265692 0.0035654555 0.0081586644)
(-0.17031362 0.0035869637 0.0088802924)
(-0.17778937 0.0036220025 0.0096256297)
(-0.18506861 0.003656219 0.01040268)
(-0.19212638 0.003699821 0.011195175)
(-0.19895342 0.0037459694 0.012014289)
(-0.20553706 0.0037947891 0.012852916)
(-0.21187519 0.0038469612 0.01371468)
(-0.21796381 0.0038991082 0.014592607)
(-0.22381612 0.0039519775 0.015491263)
(-0.22943511 0.0040016867 0.016408406)
(-0.23485111 0.0040476096 0.017342083)
(-0.24007861 0.0040817059 0.018294052)
(-0.24514451 0.0041125856 0.019258015)
(-0.25006066 0.0041337583 0.02023339)
(-0.25488731 0.0041355939 0.021221219)
(-0.25962236 0.0041311964 0.022214122)
(-0.26433506 0.0040947467 0.023213993)
(-0.26900163 0.0040560065 0.024203875)
(-0.27372168 0.0039892781 0.025200211)
(-0.27842371 0.0039110135 0.026186859)
(0.0027550287 0.00087463426 0.0010097612)
(0.0031683111 0.0014210559 0.0012667776)
(0.0030982646 0.0024253124 0.0011781787)
(0.0021229842 0.0033506642 0.0010795514)
(0.00020930124 0.0043178474 0.0010575457)
(-0.0021969818 0.0053416392 0.00086807182)
(-0.0055506025 0.0061879352 0.00086934009)
(-0.0093832829 0.0071750133 0.00074573006)
(-0.014072661 0.0078874892 0.00079979543)
(-0.019270567 0.0087118091 0.00078347704)
(-0.025177888 0.0093387511 0.00083769707)
(-0.03161027 0.009982453 0.00096007005)
(-0.038624646 0.010441081 0.0011168632)
(-0.046146344 0.010892509 0.0013025212)
(-0.054143774 0.011218957 0.001561939)
(-0.062571672 0.011458546 0.0018518069)
(-0.071388151 0.011635152 0.0022019929)
(-0.080527585 0.011690841 0.002584082)
(-0.089958077 0.011717105 0.0030120499)
(-0.099596482 0.011628461 0.0034717758)
(-0.10941605 0.011515279 0.0039732669)
(-0.11932562 0.011332756 0.004486784)
(-0.12927504 0.011113736 0.0050571902)
(-0.13922603 0.010857027 0.0056316167)
(-0.14908803 0.010574573 0.00624103)
(-0.15882844 0.01028542 0.0068788778)
(-0.16836545 0.0099823184 0.0075422076)
(-0.17765856 0.0096894897 0.0082218354)
(-0.18664952 0.0094055407 0.0089405975)
(-0.1952965 0.0091379447 0.0096779166)
(-0.2035526 0.0088912397 0.010447926)
(-0.2113866 0.0086696027 0.011241954)
(-0.21876888 0.0084720576 0.012065983)
(-0.2256836 0.0083121642 0.012909044)
(-0.2321176 0.008175704 0.013781732)
(-0.23807457 0.0080809347 0.014673483)
(-0.24356141 0.008014248 0.015589352)
(-0.24860158 0.0079783082 0.016525715)
(-0.25321508 0.0079760356 0.017476503)
(-0.25743401 0.0080099301 0.018447245)
(-0.26132569 0.008055708 0.019434442)
(-0.26492061 0.0081241048 0.020439264)
(-0.26827181 0.0082092904 0.021441706)
(-0.27144005 0.0082968313 0.022462555)
(-0.27446543 0.0084066613 0.023465721)
(-0.27744206 0.0085103753 0.024489017)
(-0.2803547 0.0086306145 0.025489172)
(0.0031879295 0.0015724646 0.0020470761)
(0.0041395493 0.0027950932 0.0021741867)
(0.00472207 0.0045096718 0.0021537678)
(0.0043097857 0.005948832 0.0021971751)
(0.0031518802 0.0076973584 0.0018860917)
(0.001216259 0.0091110608 0.0018215207)
(-0.0015265485 0.010681157 0.001598164)
(-0.005038502 0.012042927 0.001485873)
(-0.0092956587 0.0133332 0.0013970019)
(-0.01429511 0.014548097 0.0012846305)
(-0.020003083 0.015597111 0.0013008016)
(-0.02639434 0.016546134 0.0013146482)
(-0.033439358 0.017365455 0.0013817992)
(-0.041079509 0.018032072 0.0015072844)
(-0.049313613 0.018591594 0.0016667077)
(-0.058041801 0.018989291 0.0018947695)
(-0.067263732 0.019282383 0.0021482115)
(-0.076875522 0.019428954 0.0024634899)
(-0.086850777 0.019474062 0.0028147325)
(-0.097094688 0.01939338 0.0032024368)
(-0.10757045 0.019229214 0.0036304538)
(-0.11816528 0.018974735 0.00408583)
(-0.12886197 0.018635516 0.0045884828)
(-0.1395213 0.018230333 0.0050891757)
(-0.15013297 0.017805263 0.0056478737)
(-0.16057626 0.01731804 0.0062178935)
(-0.17080831 0.016834513 0.0068247322)
(-0.18075887 0.016330212 0.0074634109)
(-0.19036332 0.015839422 0.0081333921)
(-0.19955792 0.015353996 0.0088390063)
(-0.20829777 0.014892276 0.0095782137)
(-0.2165389 0.014460407 0.01035194)
(-0.22424339 0.014063335 0.011157344)
(-0.23139135 0.013710236 0.011994098)
(-0.23796504 0.013401681 0.012863831)
(-0.24396732 0.013148925 0.013758927)
(-0.24939924 0.012943874 0.014685664)
(-0.25429049 0.012797629 0.015637101)
(-0.25865747 0.012697372 0.01661084)
(-0.26256342 0.012650727 0.017611187)
(-0.26603217 0.012665294 0.018626234)
(-0.269131 0.012718844 0.01965068)
(-0.27190921 0.012806116 0.020687639)
(-0.27444708 0.012928168 0.021723697)
(-0.27679594 0.013078721 0.022756381)
(-0.2790394 0.013248372 0.023781196)
(-0.28121161 0.013440492 0.024793961)
(0.0019431072 0.0022493181 0.0028008658)
(0.001954718 0.0038261496 0.0029309997)
(0.0018001603 0.0060167755 0.0031746899)
(0.00071028389 0.0080355945 0.002970433)
(-0.0010862232 0.010069292 0.0027783761)
(-0.0035577545 0.012071905 0.0025610736)
(-0.0068498514 0.013972635 0.0022877943)
(-0.010713525 0.015803097 0.0021143778)
(-0.015336486 0.017445343 0.0019085468)
(-0.020545383 0.019062279 0.0017673048)
(-0.026384097 0.020388769 0.0016919662)
(-0.032832212 0.021733168 0.0015943567)
(-0.039769266 0.022793785 0.0016326094)
(-0.047273624 0.023787581 0.0016515232)
(-0.055218493 0.024582376 0.0017584704)
(-0.063604525 0.02524717 0.0019010373)
(-0.07237142 0.025752476 0.0020934243)
(-0.081457878 0.026115573 0.0023434291)
(-0.090837968 0.026336908 0.0026167546)
(-0.10042695 0.026435583 0.002946339)
(-0.11018516 0.026402342 0.003301391)
(-0.1200554 0.026273302 0.0036945046)
(-0.12996182 0.02603834 0.0041197262)
(-0.1398536 0.025716027 0.0045780301)
(-0.14967673 0.02532971 0.0050604382)
(-0.15935388 0.024880474 0.0055710723)
(-0.16885506 0.024389681 0.0061287928)
(-0.17810763 0.023867012 0.0067114118)
(-0.18705744 0.023325683 0.0073349797)
(-0.19566409 0.022769687 0.0079978328)
(-0.20388703 0.022217673 0.0086978511)
(-0.2116863 0.021672631 0.0094391317)
(-0.21904099 0.02114673 0.010219558)
(-0.22592692 0.020649156 0.011038574)
(-0.23233985 0.020183291 0.011897335)
(-0.23827779 0.019766334 0.012788418)
(-0.24374855 0.019389251 0.013721605)
(-0.24877348 0.019069745 0.014683397)
(-0.2533812 0.018799339 0.015673805)
(-0.25760773 0.018587849 0.016692824)
(-0.26149475 0.018430924 0.017731258)
(-0.26508323 0.018320598 0.018789986)
(-0.26843373 0.018258769 0.019852686)
(-0.271598 0.018237547 0.020922965)
(-0.27463077 0.018256623 0.021978345)
(-0.27758967 0.018301891 0.023032889)
(-0.28053468 0.018377462 0.024067743)
(0 -9.4882194e-20 0)
(0 5.3083569e-19 0)
(0 4.5904245e-19 0)
(0 4.0509691e-19 -1.3886197e-19)
(0 1.6003471e-19 0)
(0 -5.620648e-21 0)
(0 7.7794407e-20 0)
(0 2.9154463e-20 0)
(0 -1.8943548e-19 0)
(0 -4.6701536e-19 0)
(0 -5.8017512e-19 -9.6335706e-20)
(0 -9.5114457e-20 0)
(0 1.1716379e-19 0)
(0 2.2631507e-19 0)
(0 1.8241927e-19 0)
(0 2.8733564e-19 0)
(0 5.2478129e-19 0)
(0 5.2617787e-19 2.6503692e-19)
(0 4.5342708e-19 0)
(0 5.2796662e-19 0)
(0 1.7878918e-19 0)
(-3.066357e-18 1.4445492e-19 0)
(1.3060383e-18 -3.270594e-19 0)
(-7.5960724e-20 -1.3142914e-19 0)
(2.3578832e-19 -2.3150601e-19 -1.7568209e-19)
(-4.4044131e-19 -3.2322118e-19 0)
(-1.1273195e-18 -4.6203095e-19 0)
(1.72287e-19 -3.8150247e-19 0)
(0 2.8407031e-19 0)
(0 1.0157955e-19 0)
(0 -1.9709722e-19 0)
(0 1.921445e-20 5.0283387e-19)
(0 2.1672955e-19 0)
(0 3.1565637e-19 0)
(0 -8.7699816e-20 0)
(0 -2.2884493e-19 0)
(0 -1.8709112e-19 0)
(0 4.4007177e-20 0)
(0 2.1957168e-19 -5.0033076e-20)
(0 1.6245803e-19 0)
(0 -5.888097e-20 0)
(0 1.5202605e-19 0)
(0 2.8104935e-20 0)
(0 -1.6570274e-19 0)
(0 2.4259535e-19 0)
(0 1.5448585e-20 1.7757699e-19)
(0 2.4034621e-19 0)
(0 3.8009341e-19 0)
(0 3.4423667e-19 0)
(-0.0018957985 0.001134945 0.0020627767)
(-0.0021762769 0.0014070213 0.0012887504)
(-0.0025262876 0.0014376488 0.00058830284)
(-0.0026261549 0.0015140698 -1.197195e-05)
(-0.0025524942 0.0013869337 -0.00056102991)
(-0.0024591703 0.0014261389 -0.0011756434)
(-0.0020488878 0.0010211085 -0.0018084112)
(-0.0038255555 0.0055141064 0.0029049577)
(-0.0044402062 0.0058398404 0.0015344728)
(-0.0046523844 0.0054066648 0.00050812662)
(-0.0046398524 0.0051815959 -0.00028803089)
(-0.0046769003 0.0054146777 -0.0011108013)
(-0.0042287846 0.005374611 -0.0020639234)
(-0.0038406803 0.0054347651 -0.003273498)
(-0.0053741033 0.0074731902 0.0029102057)
(-0.0060296177 0.0071603654 0.0018909355)
(-0.0064428767 0.0072973137 0.00063635662)
(-0.0064378684 0.0072119572 -0.00043186521)
(-0.006283081 0.0070143891 -0.0014993993)
(-0.0058700819 0.0071056135 -0.0024006564)
(-0.0053407113 0.0073894321 -0.00381525)
(-0.0082598609 0.010404622 0.0027521022)
(-0.0088427291 0.010430332 0.0016955741)
(-0.0090856126 0.010239388 0.00041121215)
(-0.0091301928 0.01012962 -0.00055308306)
(-0.0089589816 0.010127314 -0.001639623)
(-0.0085617218 0.010228046 -0.0028746688)
(-0.0077548523 0.010131467 -0.003866602)
(-0.0114326 0.012892899 0.0025034652)
(-0.01192672 0.012708602 0.0014768698)
(-0.012253701 0.012699665 0.00033548861)
(-0.01222514 0.012572411 -0.00074678291)
(-0.012038653 0.012458376 -0.0018289884)
(-0.011557284 0.012498179 -0.0028477482)
(-0.010923456 0.012528389 -0.0040283781)
(-0.015232093 0.015152019 0.0022405853)
(-0.015633635 0.015046684 0.0012033182)
(-0.015845069 0.014919929 0.00014507039)
(-0.015853701 0.014839131 -0.00089161622)
(-0.01557737 0.014781707 -0.0019197079)
(-0.015164214 0.01472042 -0.0029901652)
(-0.014403134 0.014702067 -0.0039524825)
(-0.019578806 0.017441641 0.0019504967)
(-0.019963985 0.017393518 0.0010047486)
(-0.020183741 0.017287343 -4.3914569e-05)
(-0.020079668 0.017206652 -0.00093770411)
(-0.01986751 0.017053814 -0.0019734876)
(-0.019354661 0.017032707 -0.0028731071)
(-0.018685232 0.016922747 -0.0038673336)
(-0.024393786 0.01946479 0.0017343539)
(-0.02465799 0.019312063 0.00077877525)
(-0.024758568 0.019187949 -0.00012814581)
(-0.024729284 0.019076044 -0.0010508856)
(-0.02441684 0.018965848 -0.0019718497)
(-0.023962861 0.018850509 -0.0028697599)
(-0.023290101 0.018782078 -0.0037398211)
(-0.029651317 0.021412692 0.0014973646)
(-0.029923163 0.021360193 0.00066223871)
(-0.030055198 0.021259637 -0.00021489746)
(-0.029886474 0.021041367 -0.0010638382)
(-0.029622248 0.020893287 -0.0018898707)
(-0.029098035 0.020733397 -0.0027122676)
(-0.028434223 0.020562817 -0.0035541508)
(-0.035390158 0.023235105 0.0013531834)
(-0.035531113 0.023011554 0.00053648467)
(-0.035547201 0.022845033 -0.0003226792)
(-0.035406986 0.022664133 -0.0010618947)
(-0.035080578 0.022514285 -0.0018806519)
(-0.034614865 0.022325991 -0.0026294022)
(-0.033946351 0.022209989 -0.0033845587)
(-0.041436515 0.024840519 0.001239992)
(-0.04157052 0.024694624 0.00047300073)
(-0.041592103 0.024533597 -0.00023479163)
(-0.041402079 0.024338563 -0.00096739142)
(-0.041109793 0.024089397 -0.0016974176)
(-0.040580143 0.023893602 -0.0023678824)
(-0.039938399 0.023651382 -0.0031216516)
(-0.047916091 0.026385821 0.0011436307)
(-0.04794252 0.026135452 0.00044285299)
(-0.047851485 0.025891025 -0.00024943926)
(-0.047629859 0.025577681 -0.00092391917)
(-0.047252903 0.025349777 -0.0015573102)
(-0.046748133 0.025111924 -0.0022115007)
(-0.046137228 0.024875451 -0.0028244895)
(-0.054606973 0.027687158 0.001171229)
(-0.054616982 0.0274391 0.0005232602)
(-0.05453978 0.027203681 -8.7995744e-05)
(-0.054309107 0.026968249 -0.00069398487)
(-0.053948711 0.026696748 -0.0013144609)
(-0.053465595 0.026420669 -0.0018613952)
(-0.052836297 0.026108448 -0.0024645672)
(-0.061638535 0.028921704 0.0011753929)
(-0.06156835 0.02860678 0.00058067678)
(-0.061413414 0.028298279 2.3625828e-05)
(-0.061096058 0.027930094 -0.00054714283)
(-0.060739534 0.027600876 -0.0010471721)
(-0.060200211 0.027273347 -0.0015792194)
(-0.05961746 0.026959579 -0.002080781)
(-0.068881817 0.029940216 0.0012790894)
(-0.068776746 0.029612846 0.00076309087)
(-0.06858395 0.029287165 0.00025757492)
(-0.068318828 0.028975289 -0.00022123624)
(-0.067908332 0.028635219 -0.00071093448)
(-0.067434108 0.028310641 -0.0011664118)
(-0.066830641 0.027909747 -0.001635504)
(-0.076342689 0.030855367 0.0014108312)
(-0.076156276 0.030471257 0.00093638468)
(-0.075948974 0.030112182 0.00049827709)
(-0.07557051 0.029685211 4.3344942e-05)
(-0.075193194 0.02930145 -0.00035547583)
(-0.074661311 0.028871527 -0.00076599228)
(-0.074106741 0.028504621 -0.0011481461)
(-0.083974652 0.031601084 0.0015956016)
(-0.083776665 0.031214449 0.0012042013)
(-0.083484074 0.030796317 0.00080375645)
(-0.083156531 0.030414258 0.00044044757)
(-0.082723974 0.029981098 7.7385789e-05)
(-0.082246999 0.029608596 -0.00027319527)
(-0.081669094 0.029123434 -0.00061689116)
(-0.091757592 0.032224253 0.0018355207)
(-0.091456901 0.031761812 0.0014757078)
(-0.091173781 0.031349756 0.0011493533)
(-0.090756402 0.030864348 0.00081980691)
(-0.090353693 0.03043507 0.00051845522)
(-0.089833111 0.029932971 0.00022353725)
(-0.089307015 0.02949478 -4.6511316e-05)
(-0.09962893 0.032689236 0.0020976851)
(-0.099334698 0.032248644 0.0018158489)
(-0.098960269 0.03176028 0.0015380123)
(-0.098579721 0.031313892 0.0012704175)
(-0.098123156 0.030803451 0.0010306826)
(-0.097647198 0.030356598 0.00078325721)
(-0.09710389 0.029816543 0.00056024526)
(-0.10760439 0.033043082 0.0024178317)
(-0.10720846 0.032525576 0.0021820877)
(-0.10684257 0.032049728 0.0019523618)