/*--------------------------------*- C++ -*----------------------------------*\
  =========                 |
  \\      /  F ield         | OpenFOAM: The Open Source CFD Toolbox
   \\    /   O peration     | Website:  https://openfoam.org
    \\  /    A nd           | Version:  6
     \\/     M anipulation  |
\*---------------------------------------------------------------------------*/
FoamFile
{
    version     2.0;
    format      ascii;
    class       pointScalarField;
    location    "0.05";
    object      p;
}
// * * * * * * * * * * * * * * * * * * * * * * * * * * * * * * * * * * * * * //

dimensions      [1 -1 -2 0 0 0 0];

internalField   nonuniform List<scalar> 
625
(
-548.4235
257.68977
4166.1142
5530.2693
-1047.1965
27.874877
4520.6554
-673.0587
-447.80415
-5.8920092
146.48261
-15390.935
256.59566
3671.3962
-133.46985
-227.4295
-458.70177
-847.19911
-1523.3119
-2485.1949
-3419.8393
-4034.2795
-3638.6966
-680.98275
3586.4101
10327.797
18426.376
26905.461
34687.656
40628.805
43630.374
45096.59
43986.539
39548.595
35432.714
25341.869
16412.408
117.87355
213.14921
406.9838
760.71104
1361.2213
2167.2116
3112.7842
3441.1307
3419.9001
1649.8409
-1919.9758
-7640.999
-15202.545
-23781.472
-32179.834
-39031.709
-43509.111
-44562.217
-43236.321
-38933.565
-33339.087
-24105.292
-12928.677
-1063.3487
-387.4686
-63.722614
26.597301
234.69038
390.48212
857.63291
1578.4001
2702.0992
3292.386
4551.2435
4227.289
1985.5975
-2764.0281
-10044.931
-19281.626
-29384.941
-39020.911
-46522.755
-50876.234
-51293.157
-48518.819
-43003.36
-35687.473
-26643.777
-15071.237
3893.7045
459.77486
-9309.671
23778.815
27498.121
33329.788
40474.822
46687.379
48794.846
48971.099
45749.232
39389.628
30800.699
21305.589
12126.041
4551.0206
-702.24089
-2310.504
-4887.7381
-3404.7414
-2603.9077
-1674.1812
-900.71899
-556.53934
-413.61562
-220.2608
-494.4043
-608.23185
-522.74741
159.81065
82.597653
99.504054
14564.981
13217.815
16330.833
-7077.7495
-603.38535
-4324.6091
-190.39492
-299.14956
-446.24955
-684.30384
-1101.6651
-1525.8634
-1900.7425
-1841.9125
-1015.8254
354.9694
3040.1618
7039.7565
11858.603
17102.128
22099.093
25861.711
28375.785
28842.468
27418.093
26000.66
20931.626
11838.975
8247.0627
-73.245588
-51.996162
-44.86988
-19.070152
77.730941
255.72698
564.32605
933.59687
1206.9276
1310.3755
955.62565
-36.880827
-1541.2988
-3264.5933
-4987.4493
-6216.6651
-6623.2995
-6713.8031
-5232.9088
-4346.7668
-3066.4631
-222.71018
1596.5618
121.06047
190.66345
336.89628
578.27434
858.16063
1256.6268
1688.935
1742.3534
1205.1101
-264.98065
-2939.8163
-6803.0659
-11539.034
-16547.996
-21136.785
-24474.622
-26289.057
-26041.309
-24130.272
-20430.129
-15791.463
-11253.728
-3040.2391
-577.27884
-537.75206
-527.33301
-80.690434
-140.45658
-186.25083
89.411043
29.449842
24.073141
97.145905
53.977638
45.599909
197.00023
169.75457
196.57444
365.75903
348.76546
394.77956
778.14266
785.56067
831.6903
1480.7999
1516.6741
1631.3188
2517.2369
2764.7766
2563.6333
3609.6337
3898.7895
3978.9924
4831.3577
4603.7131
5119.9048
4604.8022
4602.2596
4916.542
2621.0347
2438.9788
2477.9879
-1988.9014
-2265.8765
-2745.7464
-9297.8707
-9508.3146
-10772.703
-18685.352
-18648.75
-20816.49
-28953.327
-28513.422
-31413.215
-38441.163
-37640.774
-40911.534
-45630.659
-44509.145
-47768.126
-49282.776
-48090.92
-51020.042
-49086.486
-47930.239
-50446.299
-46042.534
-44979.877
-46822.577
-40115.607
-39382.906
-40981.538
-32679.236
-32420.362
-33578.833
-24456.575
-26331.708
-26299.221
-17678.548
-15603.496
-17534.822
-20584.179
-22384.814
-23221.926
-29.161275
-694.75002
1084.2073
6673.2926
7696.8379
6681.7101
-152.54818
-138.57033
-121.30685
-276.11917
-225.94799
-230.75334
-385.49919
-340.21254
-411.87335
-843.21832
-708.31252
-794.14247
-1473.4126
-1422.4628
-1430.1065
-2646.6018
-2287.3259
-2672.2972
-3969.8633
-3535.6258
-4066.8047
-4864.0157
-4319.2027
-4522.982
-3995.1373
-3928.7673
-5085.252
-2637.2144
-1480.7397
-2399.9356
2324.9417
2739.4762
2504.6202
9753.6515
9230.4631
10390.191
19347.86
17244.372
20154.153
29808.519
25691.029
30459.851
39661.794
33397.179
39659.603
47104.372
39107.646
46462.627
51477.474
42514.836
49995.323
52627.305
43172.218
49979.585
49149.3
41074.968
46929.239
45773.944
36019.284
43481.315
39038.605
32430.965
36921.265
29465.902
27566.668
27854.907
25706.236
26377.651
27835.612
-379.20523
-421.71539
-513.14227
-720.27061
-1043.0571
-1174.6293
-1228.4459
-460.0989
388.12332
2098.1734
4930.7747
8098.6845
11519.125
15006.653
18238.312
20827.098
22430.629
23411.755
22792.251
20234.846
17097.526
10281.478
1709.9134
-107.03418
-73.940674
20.84652
80.898595
169.94275
215.58768
227.69222
100.62694
-244.42662
-817.97793
-1184.2988
-1129.8914
-578.842
536.62666
2077.7939
3563.776
4987.1777
6246.1297
6099.8087
6206.9812
6318.2989
5874.0087
4109.509
-20.324615
39.230804
181.14295
400.91054
659.43472
1067.3781
1475.5761
1257.5037
1052.6749
334.76199
-1015.678
-2994.1204
-5734.6261
-9219.1018
-13213.602
-17409.048
-20900.418
-23472.058
-24430.563
-23363.809
-20127.044
-14484.63
-12230.184
-295.06272
-271.78692
-280.12209
-332.2501
-337.53002
-375.271
-454.08875
-431.76975
-503.19569
-720.66761
-695.2511
-689.45731
-1107.8653
-1054.3216
-1106.2492
-1378.5676
-1517.1543
-1543.7717
-1713.1501
-1901.1313
-1742.508
-1296.6279
-1886.1813
-2083.0718
-726.05132
-1346.0871
-895.54981
1499.9124
314.58586
1153.9764
4593.5663
3425.6137
3867.7406
8207.0167
7678.1984
8334.1649
12101.59
12881.521
13163.048
15865.385
18211.334
18099.253
18844.616
22985.62
22323.537
20843.162
26489.34
25419.13
21842.05
28590.503
26840.45
21621.662
28573.136
26189.15
20088.315
26283.408
25122.007
16879.299
26084.112
22160.246
12433.022
19918.884
15906.374
10529.343
10766.979
13035.301
2434.9212
-240.52441
1106.1734
-53.248362
-91.831145
-131.15695
-16.206821
-74.98957
-140.7116
42.256708
6.2934164
-86.395111
108.59871
71.395607
-60.060342
210.3007
212.27036
16.628486
302.29797
383.59309
244.75283
482.74494
451.74534
420.15352
442.1178
450.01513
865.96173
334.94634
380.62031
1076.4742
-60.49362
-28.907255
1093.9198
-662.39664
-774.5913
854.07588
-1435.8941
-1583.8481
167.55115
-2144.0997
-2185.4851
-874.73679
-2600.9918
-2451.7768
-1975.0821
-2658.9785
-2190.5324
-2965.6649
-2117.9504
-1512.7223
-3402.9254
-1312.4377
-215.41557
-3594.5248
74.522076
858.97859
-3245.7921
1309.176
1767.7181
-1768.4631
2627.7074
4048.4085
-2204.4247
1804.457
-181.26278
-2383.5947
4531.5406
5245.3804
620.42301
4536.4372
5471.7711
4162.1936
80.578062
49.673403
33.679503
144.8047
92.994288
71.37699
281.53995
224.10917
194.47863
516.38388
379.73895
386.72304
849.1809
718.27316
790.7081
1327.3483
1037.3899
1063.4795
1513.5388
1392.1222
1398.501
1496.6304
1498.7413
1766.5357
875.62625
1234.2161
1281.9391
-498.33738
255.01735
387.90708
-2872.6048
-1411.5651
-1501.1956
-5988.5993
-3909.6237
-4240.9396
-9559.8853
-7181.7766
-7769.4161
-13204.147
-10991.814
-11766.252
-16456.054
-15083.073
-15871.594
-19069.837
-18989.244
-19445.856
-20752.318
-22296.113
-22372.908
-21467.718
-24798.115
-23861.739
-20779.951
-25291.235
-23940.222
-19532.23
-25687.127
-23237.868
-16347.255
-22033.969
-19502.446
-12939.71
-16456.062
-11854.965
-6799.2946
-11457.441
-9906.2531
)
;

boundaryField
{
    free
    {
        type            calculated;
    }
    fixed
    {
        type            calculated;
    }
    traction
    {
        type            calculated;
    }
}


// ************************************************************************* //
