/*--------------------------------*- C++ -*----------------------------------*\
  =========                 |
  \\      /  F ield         | OpenFOAM: The Open Source CFD Toolbox
   \\    /   O peration     | Website:  https://openfoam.org
    \\  /    A nd           | Version:  6
     \\/     M anipulation  |
\*---------------------------------------------------------------------------*/
FoamFile
{
    version     2.0;
    format      ascii;
    class       pointScalarField;
    location    "1.91";
    object      p;
}
// * * * * * * * * * * * * * * * * * * * * * * * * * * * * * * * * * * * * * //

dimensions      [1 -1 -2 0 0 0 0];

internalField   nonuniform List<scalar> 
28033
(
323905.07
-505684.76
-62.643762
145.22413
721320.11
-610042.05
409.62538
-202.57056
310498.17
269537.99
231570.09
185606.01
135444.28
87973.635
39863.368
-14609.441
-64979.419
-114113.48
-167792.24
-195062.14
-252601.52
-300122.13
-299088.28
-566.33847
-1177.7803
-1771.2966
-1649.163
-1709.3515
-1158.1748
-753.22763
-52.223025
628.36572
1158.5068
1755.7516
1966.6423
2083.9438
1582.2134
863.63034
92054.784
96680.698
92385.101
98874.364
101915.12
104282.17
108114.01
108821.41
111833.78
112067.59
114455.79
114627.28
116259.06
116212.16
118027
117658.23
118838.84
119327.3
119914.65
120357.08
121394.55
121708.77
122332.95
123195.22
123489.38
124235.53
124819.86
125377.94
125715.03
126311.89
126486.73
126862.43
127114.16
127591.51
126966.29
127513.89
127226.34
127346.98
127001.45
126837.78
126280.9
126081.7
125305.57
124945.59
124130.68
123531.7
122584.99
121763.55
120611.34
119477.82
118079.87
116611.91
114857.74
113037.47
110905.1
108672.68
106174.34
103542.1
100659.59
97685.94
94502.623
91204.835
87740.017
84325.781
80717.322
77246.181
73958.039
70140.631
66232.262
62530.77
58861.533
55328.698
51794.812
48312.481
44827.059
41448.46
38087.008
34840.286
31536.295
28463.913
25342.463
22370.07
19441.979
16493.209
13842.769
11247.952
9038.9371
6825.1716
5000.7937
3193.2373
2022.83
668.51679
204.90558
-202.97051
-310.89478
-91843.1
-83168.15
-96521.325
-91503.065
-103172.21
-105099.37
-106988.51
-109423.27
-111144.93
-112212.1
-113051.64
-114137.69
-114079.6
-115318.79
-114801.71
-115920.33
-115181.02
-115892.84
-115686.38
-115907.82
-115825.86
-116426.71
-115995.33
-116699.12
-116854.47
-116782.46
-117695.91
-117264.15
-118314.92
-117878.49
-118754.34
-118784.16
-118992.61
-119717.94
-119444.56
-120450.39
-119646.72
-120473.2
-119737.64
-120254.15
-119461.18
-119629.48
-118703.4
-118449.26
-117364.28
-116679.17
-115334.69
-114235.27
-112581.12
-111050.79
-109055.52
-107103.32
-104752.5
-102386.8
-99694.238
-96961.367
-93941.101
-90895.642
-87620.642
-84312.193
-80851.895
-77377.529
-73803.019
-70242.852
-66638.79
-63061.161
-59557.859
-56081.679
-52873.209
-49183.749
-46038.016
-42728.608
-39711.684
-36623.125
-33750.119
-30884.022
-28166.533
-25493.14
-22927.416
-20462.885
-18093.203
-15789.756
-13612.376
-11531.696
-9558.57
-7737.6027
-6024.0792
-4493.7233
-3114.8272
-1910.3058
-928.66416
-174.7918
441.22089
552.79211
440.77508
602317.11
582930.21
437949.64
442608.93
323430.71
209303.06
149434.81
39432.872
-47268.099
-149925.53
-227414.03
-323939.55
-419209
-480424.16
-515781.49
-130020.54
-105689.82
-54759.94
-110482.2
-89436.579
-102738.11
-98439.768
-107309.46
-100527.96
-107864.06
-109317.96
-107750.52
-111758.95
-109296.15
-112906.63
-112589.08
-110902.49
-113821.83
-112085.04
-115205.58
-113189.72
-113277.21
-117747.1
-114307.96
-120109.05
-117664.26
-117119.86
-118912.64
-116934.53
-118663.32
-121147.93
-119501.18
-121394.3
-120175.39
-121947.98
-118278.39
-121405.36
-120449.93
-120832.75
-120027.67
-120234.62
-119403.66
-119310.15
-118453.02
-118179.73
-117183.14
-116658.76
-115542.56
-114682.39
-113392.25
-112200.31
-110648.12
-109089.04
-107220.03
-105245.83
-103051.6
-100650.39
-98094.999
-95336.019
-92425.553
-89342.155
-86161.393
-82818.441
-79426.089
-75906.212
-72358.286
-68955.598
-65335.067
-61361.318
-57871.622
-54680.611
-51097.063
-47659.478
-44265.815
-40957.952
-37640.627
-34443.999
-31292.46
-28217.117
-25205.351
-22279.221
-19427.685
-16711.678
-14078.314
-11614.007
-9274.912
-7139.4728
-5166.9367
-3457.5884
-1956.1799
-747.8242
175.9268
720.11644
993.57897
664.61777
838.43562
1872.8545
1735.8309
2120.8034
1401.7449
1341.415
429.40174
-175.91662
-857.46316
-1581.9549
-1418.5089
-2517.5117
-1324.0895
-1446.9161
-437.58171
106.91757
-62.461709
332.14752
1120.4792
1922.6561
3234.0864
4664.6152
6404.3646
8150.34
10354.49
12462.837
14729.805
17240.027
19847.096
22538.362
25307.455
28189.368
31098.425
34139.7
37195.041
40379.722
43633.997
46939.325
50267.293
53870.8
57187.611
59821.661
65764.097
68438.857
72376.983
76224.736
80166.396
83994.195
87851.36
91617.305
95342.262
98918.782
102438.64
105725.08
108964.23
111896.09
114791.42
117308.51
119832.8
121910.31
124053.89
125682.8
127444.64
128683.51
130066.46
130886.15
132041.64
132422.1
133272.14
133328.23
134059.5
133574.31
132875.35
135185.15
133862.36
132595.09
135353.22
132619.85
133494.14
131111.35
133985.36
129732.18
132974.41
130784.48
131509.34
130148.08
129212.79
131132.85
129611.23
128782.02
130273.29
127493.13
129984.91
126619.6
127777.25
128843.92
127914.41
126651.33
127494.75
124020.97
122457.46
123976.86
121431.71
118882.56
114153.7
112089.78
113192.01
109105.98
98119.79
119384.3
234106.17
251147.53
266841.32
281603.58
294157.68
302332.28
308884.56
312311.57
313613.94
306822.7
314260.05
295963.58
285654.96
307487.62
241083.56
-414595.85
-505166.88
-491305.38
-527831.69
-504152.76
-484240.91
-551105.35
-575067.68
-534947.61
-529528.5
-501790.32
-478400.82
-442470.67
-431854.75
-411821.9
-619.21286
-855.80228
-977.09695
-949.8571
-798.38424
-592.09529
-508.34108
-374.33984
-295.39028
-304.82577
-317.57614
-245.89558
-273.66396
-47.780171
-182.97972
9.4982623
194.3514
262.21502
270.20895
188.79599
125.28904
161.01223
204.72715
296.69826
404.58661
574.65379
612.08765
683.50913
630.81946
48.746175
89744.256
88346.691
82422.008
85472.196
88931.041
91036.501
94084.888
96083.767
98172.211
99961.22
101218.6
102468.25
103250.28
104336.54
104823.32
105554.05
106291.79
106976.78
107313.56
108158.47
108660.2
109330.35
109910.07
110606.08
110824.6
112059.99
112100.31
112738.41
113052.81
113866.43
113617.15
114155.73
114420.08
114373.71
114461.42
114384.45
114220.14
113935.5
113627.72
113453.58
113170.14
112677.28
112162.69
111645.62
110982.66
110350.46
109586
108764.98
107814.99
106791.89
105615
104307.51
102853.7
101248.3
99452.02
97516.504
95385.546
93089.461
90631.359
88029.466
85268.674
82342.496
79399.987
76334.397
73060.223
69838.093
66237.982
63100.776
59873.586
56607.179
53397.607
50158.562
46962.129
43867.187
40703.031
37676.454
34690.182
31736.808
28824.058
26106.903
23290.196
20711.004
18112.873
15705.67
13280.683
11074.542
8969.4539
7063.7668
5305.3322
3850.4889
2473.2528
1396.162
578.20703
-95.409872
-715.33881
82436.977
73492.736
67344.944
71118.898
73185.881
75254.533
78331.106
80278.725
82338.858
83589.762
85232.872
86082.095
87290.876
87887.061
88872.079
89298.389
90188.161
90610.348
91280.742
91871.919
92395.503
92886.055
93541.065
94070.398
94607.388
95077.576
95502.095
96195.669
96362.524
96760.552
96967.394
97384.871
97217.54
97403.53
97395.379
97317.731
97018.877
96963.563
96646.936
96406.277
95916.136
95722.161
95006.358
94658.583
94051.697
93547.255
92867.262
92214.195
91424.515
90611.553
89639.568
88612.13
87432.221
86148.278
84700.694
83146.179
81410.607
79564.419
77551.39
75432.433
73153.282
70774.379
68379.225
65799.852
63249.574
61116.596
58921.13
55985.339
53622.788
50783.877
48021.317
45277.906
42486.004
39612.03
36800.118
34156.444
31353.22
28805.546
26130.746
23717.462
21158.835
18842.192
16552.108
14104.031
11917.253
9863.5381
7990.2476
6359.2715
4908.2086
3495.0888
2444.8041
1288.6816
647.27727
-166.85857
-975.55143
66648.893
62535.971
55593.899
58683.725
59270.054
61579.468
64656.945
65898.789
67522.198
69236.172
70539.348
71447.037
72403.996
73260.765
73923.4
74546.596
75028.526
75704.855
76137.601
76740.709
77066.1
77991.07
78035.055
78990.786
78997.917
79925.077
79933.003
80623.713
80574.26
81317.314
81151.65
81524.815
81385.728
81708.378
81468.549
81493.381
81417.001
81487.191
81026.466
80835.292
80415.719
80101.012
79740.615
79428.474
78945.067
78563.022
77990.376
77527.023
76872.848
76275.892
75491.525
74722.477
73773.044
72779.902
71622.676
70384.704
68989.018
67495.442
65848.901
64110.976
62228.691
60260.81
58222.095
55979.095
53870.67
51966.18
50066.482
47626.206
45468.173
43418.513
41159.622
38748.027
36262.412
33982.82
31642.843
29333.343
27148.972
24875.413
22739.361
20608.496
18481.254
16584.404
14449.997
12581.555
10798.574
8982.8956
7221.6403
5917.2128
4500.8564
3334.6263
2278.6798
1191.6424
532.36814
-571.50652
-1291.0603
52374.896
48688.27
42530.597
45425.01
44864.742
47905.406
49664.053
50733.729
52673.709
53935.792
54924.526
55739.133
56828.288
57320.434
58152.981
58431.137
59312.495
59617.999
60183.708
60584.545
61266.497
61514.671
62045.629
62582.207
62888.838
63442.524
63690.736
64212.054
64350.2
64715.033
64667.298
65007.335
64919.628
64943.117
64877.674
64738.082
64385.608
63876.275
63307.08
63193.028
62862.542
62672.707
62221.366
61898.017
61550.015
61186.653
60826.287
60464.127
60032.804
59616.624
59115.254
58585.492
57967.808
57293.485
56512.895
55659.356
54693.97
53635.033
52465.675
51208.947
49851.712
48396.731
46865.209
45252.599
43668.767
41844.399
40383.992
38554.606
36228.99
34599.813
32780.295
30812.914
29152.369
27259.177
25363.575
23553.075
21719.006
19972.912
18208.565
16487.724
14838.679
13211.102
11601.808
9872.2901
8482.8636
7378.4976
6127.6804
4965.7949
3871.5329
2865.8569
1988.9775
1122.2535
440.7329
-296.86846
-1138.0819
41682.32
35062.108
29495.668
32576.696
32964.355
34575.561
36297.888
37289.807
38621.572
39648.816
40493.904
41362.272
42067.842
42696.719
43071.034
43732.823
44200.009
44609.508
45004.683
45751.534
45816.139
46583.928
46707.226
47436.27
47382.93
48210.428
47983.871
48742.589
48481.1
49117.8
48830.068
49350.291
48870.273
49293.642
48945.134
49006.797
49388.094
50150.964
49876.119
50369.361
50063.57
49886.524
49598.921
49519.486
49194.94
49019.202
48755.821
48548.19
48244.548
48034.641
47687.309
47378.279
46975.529
46543.705
46017.357
45447.14
44764.593
44021.508
43169.956
42251.937
41241.829
40101.182
38967.842
37736.635
36299.071
35105.368
33653.721
32185.263
30651.783
29159.609
27597.075
25707.085
23498.433
21805.549
20248.509
18686.382
17324.263
15916.063
14528.878
13220.308
11858.949
10650.024
9314.9312
8232.1865
6957.9893
6001.7405
4892.9538
4060.9435
3088.4075
2378.9853
1621.1516
853.74093
405.33722
-352.49204
-936.30919
24986.453
22613.798
18126.814
20820.804
19811.503
20813.632
22799.959
22964.991
24130.601
25007.99
25543.325
26159.007
26884.927
27041.99
27784.941
28108.493
28543.522
28668.878
29410.101
29388.051
29914.536
30204.68
30549.589
30926.642
31215.621
31576.434
31750.855
32175.463
32115.772
32490.226
32352.04
32544.368
32335.174
32512.751
32099.333
32264.659
32343.705
32686.263
32811.31
33295.475
33454.674
33399.568
33116.374
33021.691
32832.682
32749.641
32611.42
32569.014
32459.692
32436.573
32324.422
32273.431
32133.68
32013.107
31795.898
31577.201
31250.011
30897.35
30444.735
29945.467
29341.787
28728.286
27983.027
27185.848
26446.357
25424.272
24642.324
23640.183
22645.703
21633.538
20436.688
19226.608
18042.768
16525.174
15236.993
14229.88
13172.301
12180.953
11188.102
10226.855
9231.8974
8318.1229
7378.4631
6517.4323
5581.4941
4901.4093
3965.1129
3303.6651
2473.9043
1894.8188
1214.5574
707.23657
244.50882
-214.55411
-662.29308
11013.692
7858.0578
6812.9441
8212.3819
7405.724
8576.7847
9693.0499
9469.99
10517.427
10919.365
11279.733
11843.787
12116.663
12525.585
12913.963
13170.696
13389.659
14020.382
14127.243
14616.414
14869.349
15346.451
15460.729
16064.676
15887.87
16613.196
16340.675
16942.891
16593.917
17221.049
16700.456
17233.263
16736.154
17048.926
16556.17
16833.4
16238.058
16576.657
15719.545
15780.142
15474.392
15603.896
15290.9
15450.513
15318.962
15450.82
15453.245
15625.636
15686.325
15901.196
16001.68
16212.654
16331.366
16497.761
16590.469
16691.629
16717.649
16729.175
16663.104
16562.333
16409.381
16188.055
15915.369
15625.371
15208.37
14863.249
14352.216
13881.582
13369.125
12813.243
12264.331
11636.561
10826.059
10502.13
9957.6678
9350.4501
8624.5584
8023.4497
7363.72
6716.4602
6062.4763
5469.2061
4770.1379
4240.7073
3537.7419
3091.4577
2390.2682
2123.0723
1474.0281
1320.1965
753.9003
611.75453
238.52934
4.9285109
-127.37021
-4757.2653
-6301.9628
-5579.1332
-5828.6472
-4904.3541
-5308.6155
-4294.3153
-4611.4041
-4181.1348
-3859.2445
-3785.9758
-3634.34
-3237.1322
-3147.5386
-2880.5812
-2749.7013
-2249.7584
-2351.0441
-1875.3234
-1775.4849
-1337.0436
-1149.2867
-822.42429
-751.24258
-397.91181
-199.14369
-161.06152
118.58355
64.26892
251.2404
36.41783
270.7694
-116.70635
49.321974
-301.55839
-281.12761
-547.93375
-430.89729
-917.87662
-996.47815
-1184.949
-1123.5235
-1241.5584
-1112.9217
-1118.0272
-924.56949
-747.33156
-475.01485
-196.5257
194.87759
549.61774
995.99959
1419.6807
1884.7261
2324.3491
2782.579
3202.0234
3612.8545
3976.5584
4332.9788
4612.0967
4882.6106
5101.8293
5264.3241
5424.1478
5471.8445
5555.5994
5563.2672
5523.407
5498.1201
5356.57
5214.2443
5055.4535
4942.4158
4842.938
4653.4375
4422.6326
4212.1204
3949.9907
3713.3516
3442.9262
3169.7461
2879.8497
2620.8733
2283.1309
2063.1581
1694.0732
1507.9823
1051.3075
956.2554
495.27637
494.93129
199.14676
314.59395
285.16231
-18426.784
-19134.729
-16320.53
-16423.238
-16182.883
-17262.766
-16131.216
-17621.148
-16850.439
-17319.249
-17338.916
-17334.432
-17039.272
-17295.978
-17061.972
-16748.09
-16893.98
-16534.02
-16378.034
-16210.566
-16091.631
-15986.151
-15997.441
-15493.732
-15633.457
-15241.071
-15502.242
-14980.626
-15461.967
-14963.554
-15475.798
-15065.176
-15661.569
-15272.519
-15927.124
-15603.835
-16184.412
-15944.323
-16404.917
-16110.951
-16376.103
-16131.284
-16238.605
-15925.076
-15853.096
-15443.126
-15185.59
-14688.403
-14276.768
-13657.89
-13133.38
-12438.148
-11803.435
-11069.025
-10379.047
-9622.1859
-8917.3721
-8182.4017
-7482.3773
-6794.7657
-6143.3707
-5497.731
-4916.9495
-4330.6185
-3840.0769
-3318.3349
-2879.5735
-2456.4309
-2066.3225
-1707.2477
-1404.3089
-1053.4653
-842.1391
-509.51491
-357.54503
-267.19255
-124.23064
-11.070058
107.04829
172.70597
206.28953
249.57292
218.79303
240.42396
144.34748
190.67165
12.204194
151.87872
-129.46353
203.135
-127.93373
270.97364
108.8514
481.38047
619.25679
-33911.542
-35260.7
-28456.832
-31147.544
-30435.9
-31555.862
-31721.836
-32509.623
-32789.175
-33344.208
-33484.546
-33661.47
-33790.864
-34024.85
-33653.482
-33904.192
-33674.028
-33684.423
-33372.38
-33481.714
-33053.791
-32600.003
-32011.479
-32108.084
-31926.764
-31959.951
-31796.397
-31855.453
-31888.365
-31808.725
-32078.347
-31958.404
-32313.337
-32235.459
-32594.397
-32498.827
-32852.873
-32761.703
-32996.223
-32931.825
-33020.582
-32866.606
-32800.284
-32506.523
-32254.704
-31830.29
-31368.039
-30782.707
-30145.726
-29378.742
-28591.876
-27683.004
-26748.937
-25735.998
-24704.29
-23610.519
-22520.843
-21391.043
-20277.285
-19150.239
-18039.428
-16945.346
-15864.483
-14820.788
-13784.251
-12810.715
-11853.602
-10953.565
-10080.331
-9266.782
-8436.8413
-7705.7755
-6947.8504
-5945.3114
-4700.4398
-4163.1753
-3756.5797
-3216.2763
-2835.453
-2420.851
-2096.2008
-1759.1055
-1504.7556
-1236.2763
-1043.1188
-831.00695
-704.88636
-491.12972
-476.26278
-116.43414
-272.44914
230.79878
243.34159
606.50984
830.56638
-50387.153
-40442.196
-37850.377
-39212.722
-39806.683
-41252.437
-41817.365
-42975.608
-43937.782
-44278.252
-44804.262
-45262.067
-45486.594
-45495.309
-45741.169
-45657.668
-45755.845
-45585.995
-45566.946
-45603.057
-46069.22
-46618.466
-46685.632
-47004.141
-47186.212
-46929.059
-47289.272
-46965.345
-47363.277
-47108.721
-47619.868
-47300.759
-47932.307
-47624.128
-48218.48
-47962.581
-48512.483
-48212.149
-48621.397
-48314.4
-48500.762
-48139.025
-48106.175
-47597.674
-47337.357
-46682.816
-46153.178
-45342.43
-44585.151
-43583.884
-42628.054
-41468.034
-40323.095
-39035.338
-37754.941
-36357.909
-34978.595
-33527.429
-32081.262
-30599.249
-29138.46
-27655.36
-26206.645
-24738.175
-23341.333
-21941.85
-20572.563
-19235.755
-17950.066
-16662.059
-15454.813
-14315.376
-13139.931
-11921.393
-10978.198
-9477.2578
-8329.9603
-7378.1854
-6526.467
-5774.0843
-5072.3397
-4402.8532
-3813.292
-3235.4372
-2755.3144
-2263.5739
-1884.3318
-1468.4074
-1175.1536
-780.65192
-551.98342
-83.660375
171.0416
783.56574
1405.6035
-57310.574
-55991.692
-51366.428
-51880.789
-53182.906
-54345.706
-56149.896
-57290.248
-58165.604
-59372.142
-59812.168
-60383
-60662.983
-61090.26
-61070.17
-61367.56
-61269.486
-61345.349
-61282.272
-61364.803
-61457.712
-61547.124
-62678.101
-63359.367
-63228.092
-63763.231
-63627.882
-63829.782
-63947.039
-64039.476
-64295.194
-64297.408
-64671.812
-64642.063
-64992.511
-64981.224
-65207.652
-65154.267
-65261.797
-65134.269
-65059.218
-64790.271
-64522.676
-64073.823
-63586.94
-62930.427
-62193.414
-61309.905
-60333.284
-59197.774
-57990.609
-56631.443
-55194.391
-53640.409
-52016.507
-50285.968
-48519.565
-46670.151
-44782.849
-42870.044
-40920.28
-38976.672
-37005.947
-35063.978
-33126.711
-31219.321
-29326.988
-27537.918
-25739.145
-24002.062
-22343.875
-20667.709
-19071.115
-17584.572
-16132.22
-14988.033
-13498.057
-12117.971
-10852.556
-9660.1108
-8494.2159
-7419.3837
-6386.3142
-5434.3687
-4540.2661
-3725.6133
-2971.1412
-2304.0819
-1704.2251
-1127.705
-747.75805
-111.26546
94.260397
867.54085
1442.9023
-80232.325
-73697.441
-62752.024
-67532.915
-66447.255
-70538.555
-71032.967
-73343.153
-74200.582
-75770.122
-76344.226
-77031.705
-77638.061
-77988.944
-78285.173
-78402.042
-78734.374
-78495.103
-78877.384
-78676.184
-78746.905
-79030.33
-78705.301
-78514.991
-78709.699
-78741.736
-79028.37
-78872.806
-79356.414
-79214.811
-79727.016
-79548.315
-80163.214
-79955.402
-80527.485
-80262.507
-80729.999
-80423.058
-80732.564
-80357.769
-80417.305
-79946.052
-79748.938
-79104.015
-78611.998
-77771.866
-76964.868
-75889.056
-74792.324
-73445.923
-72071.973
-70477.587
-68830.044
-67010.908
-65132.614
-63112.016
-61048.38
-58869.104
-56662.493
-54379.437
-52076.617
-49734.812
-47389.142
-45038.725
-42696.642
-40376.991
-38081.26
-35833.588
-33613.351
-31423.472
-29276.268
-27224.25
-25233.576
-23231.278
-21342.213
-19486.696
-17713.74
-15984.45
-14363.286
-12773.273
-11291.223
-9872.2842
-8546.8281
-7290.3778
-6149.657
-5064.88
-4127.0882
-3227.8602
-2482.804
-1756.583
-1205.5521
-517.74881
-120.7328
739.0438
1224.3699
-86278.462
-84107.982
-72676.273
-79304.016
-81065.044
-83922.122
-85746.868
-88212.348
-89715.531
-90812.862
-91910.405
-92595.435
-93011.802
-93669.722
-93679.751
-94257.963
-94172.524
-94429.146
-94466.457
-94505.205
-94580.083
-94772.066
-94556.869
-95115.025
-94878.155
-95328.515
-95383.782
-95517.266
-95966.42
-96017.212
-96427.462
-96473.586
-96867.648
-96931.969
-97172.141
-97384.909
-97496.826
-97584.521
-97509.484
-97410.921
-97214.735
-96874.354
-96459.586
-95871.667
-95194.017
-94329.879
-93348.18
-92185.64
-90885.718
-89399.62
-87782.266
-85978.524
-84041.181
-81940.799
-79716.151
-77344.509
-74868.826
-72282.569
-69606.307
-66855.975
-64046.707
-61195.999
-58318.459
-55430.025
-52534.031
-49649.039
-46769.363
-44056.169
-41359.85
-38606.175
-36085.968
-33527.471
-31024.284
-28653.877
-26290.249
-24032.584
-21848.95
-19737.521
-17730.035
-15786.884
-13936.584
-12163.556
-10479.425
-8892.7064
-7398.3378
-6024.0932
-4747.4429
-3607.756
-2575.8813
-1686.9483
-935.16123
-236.15805
203.91413
728.35594
1030.9838
-115336.91
-83195.713
-86808.841
-91139.955
-93936.144
-95802.663
-99144.697
-101608.9
-102547.68
-104336.67
-105320.39
-105989.42
-106517.89
-106832.81
-107313.41
-107518
-108138.82
-107901.69
-108238.52
-108196.46
-108254.74
-108271.4
-108620.66
-108758.18
-109243.04
-109298.39
-109772.36
-109619.98
-110677.47
-110217.79
-111070.47
-110850.09
-111545.65
-111178.35
-111597.21
-111594.92
-112282.45
-111936.18
-112061.36
-111833.81
-111643.38
-111203.47
-110770.38
-110094.63
-109345.11
-108383.94
-107301.7
-106005.02
-104569.15
-102917.02
-101113.44
-99098.823
-96927.818
-94570.33
-92054.501
-89373.682
-86568.719
-83618.947
-80566.087
-77425.114
-74203.166
-70934.148
-67626.36
-64310.255
-60986.4
-57624.219
-54279.632
-50980.426
-47954.428
-44927.745
-41979.148
-38977.594
-36164.891
-33391.776
-30684.801
-28095.012
-25593.126
-23131.875
-20796.796
-18504.707
-16313.895
-14220.706
-12219.7
-10325.02
-8561.1029
-6902.8694
-5409.3394
-4042.1243
-2853.4462
-1847.3438
-1004.1216
-349.22035
24.772253
449.28272
683.35136
183794.01
194153.18
187647.03
194344.49
197037.82
199338.61
208782.87
204196.69
205751.73
205166.05
205570.51
200427.02
198563.85
213536.55
180381.14
180943.72
183961.84
174657.56
181002.97
186030.03
189822.42
187047
194633.39
194958.65
197648.88
194679.95
195872.8
197928.39
202352.53
176642.86
134803.65
156807.87
139315.06
147776.26
147673.83
148772.29
151866.42
151676.68
154100.73
153708.4
153840.61
157896.56
148722.8
167480.82
157485.17
119561.35
120595.35
121240.77
121156.59
126283.55
126485.74
130078.57
132072.98
131654.45
134682.23
136126.83
133737.16
134337.7
149923.65
109309.71
83987.252
96345.721
85137.261
93185.677
93516.826
95938.055
97911.254
98011.491
101195.51
102192.75
102222.28
103550.87
104010.54
108730.61
99697.988
58569.13
60423.392
58689.553
61315.696
62972.179
64836.692
66612.018
68481.882
70100.149
71940.102
72169.487
76564.184
73779.411
82013.161
78128.098
28246.78
29606.843
31346.223
31555.343
35395.471
36088.639
38167.139
40065.123
40331.777
42437.2
44150.157
41979.97
46839.874
47952.537
44684.851
-2296.6998
-4622.44
-2958.2266
-1008.1318
845.06032
1519.702
4520.0313
5111.4457
6853.9575
10073.687
9254.827
12956.152
16523.8
13549.522
26512.552
-33662.907
-35665.678
-30674.13
-30694.577
-28749.403
-27265.177
-25646.04
-23175.557
-23038.051
-18105.915
-19133.06
-16298.151
-12630.626
-17318.378
3831.463
-57553.8
-70155.019
-60073.444
-62097.097
-59087.253
-59600.901
-56930.501
-56272.363
-55307.227
-51468.276
-54427.532
-47575.226
-44364.806
-51641.057
-27287.53
-90859.096
-104016.56
-88561.244
-94568.868
-89572.075
-88664.829
-87052.661
-84762.564
-84793.085
-78724.297
-78911.946
-79139.744
-68994.015
-79081.972
-48287.047
-127366.17
-124104.77
-119463.84
-119233.44
-119489.09
-119742.67
-117743.71
-117959.22
-116502.04
-113032.29
-115750.91
-101123.52
-104932.39
-110960.54
-80754.591
-144969.44
-154182.19
-139817.4
-140886.89
-135196.83
-136536.69
-134368.78
-133231.66
-130131.08
-126616.03
-126666.44
-129228.34
-114634.05
-138432.99
-72148.506
-166451.87
-199140.62
-167776.91
-182623.63
-183155.09
-180456.51
-180454.93
-185117.54
-179645.77
-184937.73
-172514.86
-165839.83
-170205.66
-161130.55
-155667.6
-193561.96
-163124.69
-152737.81
-152552.69
-156983.84
-165212.82
-156580.74
-147959.77
-143897.5
-141077.72
-144704.81
-144607.21
-141626.87
-156781.28
-141368.75
-148130.35
-135269.57
-158719.85
-161933.59
-168647.55
-180020.9
-172753.87
-161215.33
-181013.5
-175721.73
-168086.34
-156726.06
-147982.76
-141720.6
-114664.86
-117513.76
-115774.77
-127665.7
-130173.51
-135065.67
-138710.29
-141596.29
-142535.05
-145075.25
-138739.78
-135273.02
-126754.96
-125942.52
-125158.23
-124084.31
-95059.975
-104982.92
-101983.4
-109679.03
-114436.16
-110494.93
-114988.85
-112816.14
-109793.16
-113276.67
-108761.03
-109919.81
-106709.32
-95037.51
-99319.49
-103989.13
-116327.78
-116323.29
-118685.47
-119819.35
-122634.71
-122549.55
-123072.44
-122378.48
-119590.44
-118382.91
-114636.83
-111054.86
-108394.13
-102268.4
-109857.89
-115756.58
-111279.69
-118777.66
-118388.54
-119860.19
-122108.19
-120910.03
-121210.84
-120887.55
-117380.67
-114752.23
-110055.37
-105193.35
-103842.02
-109286.44
-113644.05
-115567.1
-118967.97
-119206.83
-121839.64
-120883.35
-120851.8
-120048.26
-117684.64
-116708.83
-113695.05
-111252.13
-107513.85
-101617.55
-111265.83
-115988.7
-115790.52
-118822.68
-117982.52
-119437.43
-119804.21
-119509.06
-118715.71
-117459.1
-114600.14
-112998.22
-109780.69
-105166.62
-104923.56
-113293.09
-115324.81
-116823.47
-118792.92
-120373.4
-120883.89
-121048.01
-120910.9
-119850.69
-118838.98
-117013.06
-114648.76
-111902.97
-108010.13
-104910.68
-113836.8
-116065.15
-116457.99
-117920.62
-117202.09
-118510.11
-117488.41
-117793.37
-116140.29
-115403.31
-113546.92
-111329.32
-110018.19
-106781.7
-106396.41
-114816.57
-115933.2
-117056
-117938.06
-118703.48
-118895.85
-118978.64
-118412.67
-118190.03
-116846.45
-115134.26
-113769.14
-111716.86
-109014.45
-107837.81
-115391.79
-116622.65
-117103.24
-117685.14
-117487.78
-118107.98
-117448
-117455.65
-116658.41
-115757.7
-114497.51
-113094.89
-111254.68
-109445.32
-107960.07
-115863.17
-116375.08
-117194.59
-117197.77
-117317.28
-117451.72
-117156.64
-116728.89
-116161.62
-115235.78
-114021.09
-112537.69
-111484.08
-109521.16
-108897.68
-116829.42
-116842.78
-116719.08
-117380.86
-117271.06
-117367.1
-116776.55
-116682.78
-116109.63
-115188.64
-113994.91
-113176.71
-111742.49
-110640.92
-109308.25
-116258.28
-116984.69
-117375.06
-116928.09
-117043.78
-116988.68
-116221.31
-116684.55
-115653.29
-114902.54
-113948.76
-113071.19
-111862.69
-110374.95
-110099.47
-117305.32
-116867.65
-116612.82
-117312.62
-116737.23
-116586.71
-117085.14
-114870.36
-115479.11
-114652.73
-113773.75
-112893.6
-111690.23
-111010.05
-110476.23
-116696.16
-117382.66
-117322.51
-117176.75
-116764.62
-117059.93
-116415.51
-116075.04
-114936.94
-114771.18
-113650.44
-113111.94
-111750.33
-111294.33
-110649.92
-117591.65
-116994.42
-117290.6
-116645.6
-117104.84
-116835.14
-116446.61
-115630.09
-115787.35
-114799.99
-114069.59
-113363.07
-112985.4
-110553.32
-112140.82
-117604.67
-117332.21
-117317.9
-116797
-116613.72
-116584.48
-116340.63
-115639.2
-115003.08
-114618.67
-113658.63
-113217.17
-112779.87
-111746.14
-111498.62
-117476.35
-117388.68
-117513.7
-117608.18
-116894.42
-116970.28
-116066.2
-116224.91
-115741.26
-115140.34
-113681.45
-113778.74
-113157.47
-112732.33
-112271.5
-117778.77
-117338.67
-117510.25
-117007.45
-117236.81
-116992.98
-116433.53
-115689.38
-115626.35
-114901.36
-114453.83
-114156.31
-113812.56
-113063.47
-112493.3
-118112.56
-117605.78
-117786.22
-117615.71
-117031.63
-116746.35
-116608.51
-116538.43
-115998.83
-115358.67
-115308.25
-114286.33
-114078.8
-113109.5
-112820.89
-117719.67
-117869.87
-117980.75
-117695.62
-117702.85
-117255.26
-117112
-116538.79
-116601.49
-115246.02
-115057.75
-114990.74
-114405.42
-113452.11
-114063.17
-118478.51
-117746.09
-118071.36
-117987.56
-117706.15
-117784.88
-117603.99
-117261.64
-116161.23
-117175.3
-115299.58
-115268.26
-113657.31
-114445.41
-113941.28
-118397.85
-118257.6
-118483.59
-118443.67
-118121.28
-118154.29
-117308.98
-117115.21
-116940.5
-116154.99
-116547.81
-115398.18
-115215.91
-114297.36
-114765.78
-118602.46
-118831.77
-118540.97
-118757.44
-118243.13
-118059.46
-118086.65
-117863.8
-117302.03
-117549.69
-116281.49
-116553.36
-115368.86
-115552.14
-114943.69
-119416.05
-118641.9
-119032.6
-118824.26
-118794.27
-118780.58
-118648.56
-118100.38
-118089.26
-117378.2
-116978.56
-115991.3
-116330.85
-115451.22
-115356.6
-119159.86
-119457.34
-118988.44
-119737
-118909.24
-119602.56
-118887.98
-118925.14
-118362.81
-118212.07
-117374.2
-117934.09
-116409.02
-116535.55
-116679.44
-120127
-119232.15
-119503.45
-119904.96
-119673.29
-119730.69
-119143.39
-119149.65
-118814.57
-118395.34
-117918.14
-117616.41
-117112.25
-116867.68
-116122.84
-119822.25
-120340.01
-120182.33
-120369.02
-119944.08
-120252.32
-119940.67
-119871.51
-119527.64
-119256.77
-118578.74
-118689.87
-117462.91
-117232.15
-117576.04
-121015.28
-119907.53
-120430.31
-120628.16
-120608.27
-120277.61
-120313.89
-120269.62
-119906.24
-119303.6
-118769.92
-118630.75
-118344.55
-117538.4
-117618.75
-120899.52
-120914.47
-120694.13
-121315.61
-120636.16
-121598.48
-120406.5
-120755.1
-119664.46
-120191.4
-119309.51
-119321.94
-118471.05
-118142.25
-117838.75
-121490.28
-120770.55
-121191.62
-121368.44
-121308.45
-121338.77
-121183.35
-120836.04
-120637.94
-120337.46
-119754.99
-119482.71
-118972.31
-118197.39
-118427.51
-121859.54
-121385.58
-121460.1
-122022.18
-121492.17
-122107.18
-121275.19
-121619.75
-120890.96
-120993.67
-120061.28
-120115.7
-119184.3
-118917.16
-118537.98
-121815.7
-121523.86
-121700.58
-122011.97
-121822.23
-121967.62
-121714.2
-121582.83
-121142.45
-120911.16
-120341.62
-120027.98
-119561.18
-118780.15
-118935.4
-122248.44
-121907.7
-122091.33
-122521.49
-122182.77
-122601.87
-122029.92
-122097.4
-121545.26
-121594.64
-120635.11
-120727.63
-119508.97
-119604.65
-118542.18
-121799.31
-122321.01
-121905.55
-122787.99
-122070.65
-122446.83
-122114.49
-121946.88
-121581.42
-121458.25
-120606.3
-120343.23
-119877.68
-118959.1
-119457.63
-122934.27
-122052.83
-122493.67
-122706.27
-122651.3
-122661.77
-122349.89
-122286.8
-121754.83
-121238.53
-120934.29
-120795.37
-119972.71
-119423.55
-119194.67
-122453.97
-122238.02
-122224.28
-122819.95
-122207.69
-122670.17
-122131.64
-122187.37
-121579.52
-121513.38
-120779.04
-120576.21
-119950.74
-119056.26
-119213.11
-122875.75
-122049.14
-122415.09
-122774.72
-122429.79
-122793.28
-122282.74
-122312.24
-121771.3
-121661.49
-120867.64
-120807.2
-119832.97
-119316.82
-119070.93
-122350.09
-121984.46
-122166.91
-122543.3
-122171.71
-122477.08
-121977.89
-121981.02
-121457.77
-121252.68
-120535.11
-120255.03
-119688.99
-118858.17
-118902.82
-122465.95
-121675.97
-122052.08
-122385.66
-122075.41
-122368.12
-121924.32
-121932.38
-121366.14
-121273.53
-120426.13
-120366.09
-119488.71
-118801.12
-118655.74
-121834.13
-121360.22
-121637.24
-121981.42
-121630.54
-121937.2
-121482.23
-121432.32
-120964.74
-120733.73
-120061.18
-119805.68
-119107.09
-118293.78
-118366.26
-121574.4
-120864.81
-121265.11
-121565.36
-121282.93
-121595.29
-121152.34
-121166.88