/*--------------------------------*- C++ -*----------------------------------*\
  =========                 |
  \\      /  F ield         | OpenFOAM: The Open Source CFD Toolbox
   \\    /   O peration     | Website:  https://openfoam.org
    \\  /    A nd           | Version:  6
     \\/     M anipulation  |
\*---------------------------------------------------------------------------*/
FoamFile
{
    version     2.0;
    format      ascii;
    class       pointScalarField;
    location    "1.49";
    object      E;
}
// * * * * * * * * * * * * * * * * * * * * * * * * * * * * * * * * * * * * * //

dimensions      [1 -1 -2 0 0 0 0];

internalField   nonuniform List<scalar> 
28033
(
1351.0346
656.33252
-798143
-384194.83
1676.8557
3994.4635
-576735
-1195412.8
975.32723
737.39559
652.74547
795.24864
468.31312
617.24699
533.74046
492.85656
603.31495
471.4149
522.5998
635.61608
791.38188
620.46585
224.96076
-445161.94
-441002.71
-438961.69
-438461.8
-437521.69
-436483.36
-436103.78
-435107.38
-434344.63
-433800.39
-432665.3
-432321.97
-431074.12
-430611.98
-324483.9
1650.8653
727.91635
972.05686
778.13637
1119.1253
1168.3194
1337.4189
1195.9444
1543.8494
1356.3859
1599.3337
1599.2451
1681.4282
1793.0241
1801.34
1958.7534
1811.2302
2189.401
1923.6722
2223.8069
2139.1511
2306.8922
2178.3339
2515.6504
2279.8676
2643.9671
2468.3746
2845.5518
2723.5039
3027.0167
3114.8305
3217.4675
3357.7566
3463.6735
3707.6882
3890.3678
3969.2763
4304.0843
4331.3428
4616.4853
4686.7606
4948.6858
5049.5385
5278.7277
5388.4738
5608.4801
5678.5119
5909.629
5945.8101
6146.736
6183.4952
6328.3007
6380.4386
6462.5764
6517.4326
6564.4662
6593.2164
6618.7603
6625.3068
6627.0587
6605.4121
6604.2566
6556.6211
6543.5769
6524.9724
6467.1606
6402.1293
6352.1759
6295.6221
6377.6182
6269.8788
6203.8913
6235.7057
6038.1051
6272.7304
5887.2683
6302.237
5811.6608
6345.1938
5783.5642
6371.4215
5871.8835
6426.6134
5980.2038
6444.8619
6341.322
6500.7648
6550.5688
6665.1393
7141.8859
5995.954
7851.9405
6111.2752
5867.9398
9084.7239
4568.3681
-2034.1147
2825.2261
-299.18725
1742.0478
1762.73
1464.6362
1727.4299
2268.6452
1740.4733
2487.0413
2100.6667
2649.9946
2351.6984
2655.2312
2561.611
2719.6572
2844.759
2804.6544
2905.8961
2566.2459
2886.2303
2475.8485
3249.4105
2828.0358
3611.0211
2997.3405
3626.9862
3186.3343
3703.9518
3345.4008
3825.2056
3665.2817
4047.6864
4061.8674
4389.181
4354.4572
4673.4596
4664.738
4999.8878
5039.5843
5274.9304
5370.745
5573.734
5644.6732
5832.9803
5895.265
6036.3023
6105.4984
6195.0858
6259.2369
6320.283
6353.9926
6403.6534
6410.4491
6430.945
6428.9829
6421.1807
6395.5415
6380.8138
6326.0544
6302.2078
6229.9962
6198.3903
6106.2068
6070.9687
5971.8233
5963.5972
5919.389
5829.2156
5692.5328
5650.534
5635.5721
5518.1786
5529.7384
5441.6969
5405.6262
5398.8985
5320.13
5357.8537
5308.3238
5328.2396
5309.3378
5362.3094
5341.3885
5400.4544
5451.9786
5496.2027
5514.4006
5713.1162
5669.6577
5750.5246
5855.4914
6302.1512
4691.6183
1163.478
860.55827
560.67774
972.53456
468.90737
525.18432
534.34979
421.68912
491.84851
454.67555
500.7992
469.22217
356.77211
-17.406547
646.76333
3567.9396
4970.4302
-4696.0296
2908.772
1199.633
714.4337
2386.9952
2220.5535
2532.1198
2367.3825
3176.1185
1690.0413
3687.5489
1385.5581
3921.0813
2059.3833
4570.2069
1465.8225
4795.5292
2314.7304
3819.8993
3790.6398
3278.8258
3735.068
3250.5687
3949.5835
3881.7946
3850.4461
4109.0309
3914.4476
4014.6749
4203.9385
4264.8198
4389.3428
4605.1128
5129.2953
4616.5616
5014.0478
5060.6891
5211.5509
5375.8012
5507.2136
5640.7462
5762.2834
5888.5627
5987.7158
6087.2271
6170.8801
6240.8831
6301.9211
6344.3935
6382.4862
6405.873
6407.8631
6412.2036
6392.9368
6363.1955
6328.0148
6270.1262
6214.2253
6134.5975
6062.5159
5964.9509
5880.4336
5775.104
5690.8342
5559.6263
5477.2451
6213.5339
5000.202
5264.7447
5036.1197
4957.1098
4867.3578
4772.6361
4681.2943
4598.8334
4536.8379
4440.3197
4416.8868
4321.7114
4337.0444
4245.0334
4296.2993
4203.1255
4274.7403
4201.3771
4261.6933
4248.2298
4296.7373
4343.5339
4393.0986
4538.0345
4801.1165
2408.1659
-922047.09
-867189.81
-770328.34
-928041.35
-773195.08
-931174.42
-776327.54
-875828.55
-935795.49
-879580.12
-782125.77
-942709.33
-785491.04
-947550.73
-895748.23
6923.3323
5200.7717
7050.5467
6707.8608
6853.2383
6636.7066
6619.5295
6537.6496
6408.258
6409.0078
6328.1055
6274.0787
6287.4418
6207.5382
6225.1975
6205.462
6235.8248
6233.3864
6289.1779
6298.5744
6361.6
6381.457
6469.2175
6457.1474
6609.2499
6700.3067
6669.9495
6202.8888
6882.0501
6849.466
6948.3225
6992.9445
7034.6827
7077.0822
7102.4732
7125.7364
7133.8438
7131.8702
7119.6952
7092.5481
7055.0147
7002.312
6940.863
6858.8284
6775.0611
6663.1203
6557.5004
6414.4752
6287.1637
6117.9578
5966.4799
5787.2776
5614.4952
5409.0194
5228.5345
5005.6461
4871.5988
4484.1601
4268.6059
4179.33
4011.7869
3472.7207
3719.231
3435.1778
3223.9074
3008.9997
2862.1751
2741.3096
2562.7656
2887.6602
2323.1734
2579.232
2053.5955
2560.9981
2016.0792
2176.5424
2019.3838
1953.7631
2096.6166
1830.7822
1731.8416
1286.9156
2052.5642
1117.3734
2329.0759
996.67434
1482.5718
767.94439
1630.6045
780.91072
843.56523
829.24428
1627.8923
-691.04444
2953.0418
1061.5819
1005.4804
819.82198
788.97042
756.37132
832.03347
589.10769
846.39403
748.47777
949.52036
638.95071
658.3228
731.95832
687.74179
109.86895
-546.23139
-383.55173
-1343.6372
-867.2903
-869.60206
-1590.3204
-1165.2567
-855.5475
-1436.235
-784.82513
-873.82733
-1103.7201
-959.84096
-980.14296
-1159.5888
-432148.44
-432545.15
-432052.12
-432225.67
-432197.92
-432211.21
-432178.36
-432139.98
-432078.39
-432043.55
-432133.48
-431916.56
-431959.6
-431951.24
-432741.23
-897667.48
-898470.28
-898433.25
-898412.2
-898248.04
-898292.17
-898194.75
-898172.04
-898102.59
-897990.55
-897957.52
-898017.76
-897562.22
-898714.23
-896325.97
1969.0071
383.96936
638.9443
735.93941
596.91965
895.71572
638.74992
1035.6412
715.99048
1248.8503
785.98418
1341.1746
905.01104
1513.2456
916.19818
1509.0228
1225.9928
1468.5922
1288.5717
1548.8077
1463.9285
1556.3196
1710.5232
1642.0482
1798.0016
1812.0865
1984.7596
1971.9201
2102.5225
2239.9533
2233.6832
2430.2956
2594.1209
2707.6249
2933.2499
2924.9768
3170.3668
3216.3715
3427.7147
3570.7528
3812.8521
3867.6116
4089.2291
4235.1647
4329.8372
4508.393
4598.8475
4743.1847
4827.5684
4955.2629
5029.5285
5127.4158
5198.0041
5265.9815
5328.3423
5372.2567
5420.7849
5450.7196
5480.7538
5501.8243
5514.5943
5537.0821
5519.9865
5541.7346
5485.8209
5445.637
5605.2293
5473.2689
5618.5592
5358.6248
5412.5116
5300.0813
5355.3118
5284.3821
5328.6663
5220.4107
5352.3325
5156.647
5374.8311
5174.4319
5312.2886
5312.5591
5378.7658
5327.6657
5390.7094
5330.9436
5453.9162
5486.4938
5966.8406
5206.919
6701.0824
6273.8386
6029.3904
9183.3018
6840.7035
1471.7981
-4.3920988
824.06856
310.14851
818.72098
557.11778
802.16109
678.09164
799.90373
786.96529
828.65933
900.85255
882.95484
963.16166
896.60308
1226.6369
800.60508
1255.6741
1002.2294
1294.548
1056.7223
1357.4344
1106.0243
1397.2384
1256.7519
1482.9323
1379.6941
1558.2332
1576.5075
1716.5527
1761.2728
1948.0975
1941.153
2067.916
2149.8833
2310.6786
2496.4744
2684.7245
2749.5208
2920.7995
2991.7615
3159.7088
3321.7083
3375.0621
3507.3392
3664.2966
3746.2113
3877.8632
3983.4321
4089.5769
4180.4035
4277.6071
4362.9813
4438.6722
4517.1984
4584.4021
4648.9261
4706.6295
4765.8223
4814.3884
4861.3714
4916.152
4938.4242
5010.3807
5024.814
5262.1023
5262.1053
5576.0149
5500.0601
5572.4989
5707.6345
5684.5017
5805.1264
5686.8489
5920.1808
5690.5191
6055.9946
5689.6018
6247.7042
5653.3738
6419.4271
5808.3147
6384.4007
5806.7743
6656.6535
6275.0589
6843.2476
6721.7316
6568.5852
7231.8969
7109.5615
6680.8026
8200.8197
7100.5231
7143.139
1257.333
-48.137432
715.06564
260.39782
539.42949
401.99014
395.87483
589.37368
486.57371
655.31938
504.33833
786.92936
545.12268
848.97106
661.26111
833.07402
744.06352
963.8906
735.98832
963.74183
871.69368
1018.2534
998.51888
1123.9384
1086.1561
1192.1895
1217.5917
1308.5079
1342.5441
1419.9744
1499.3958
1534.8203
1664.8063
1756.6445
1872.9205
1981.4475
1962.1242
1911.6132
2119.6264
2184.2286
2351.7875
2470.4947
2519.97
2696.0682
2819.6284
2937.2158
3025.2143
3160.1166
3252.6993
3349.2233
3462.1037
3542.8951
3649.8659
3723.3762
3826.8596
3895.1526
3987.2839
4058.4932
4142.761
4209.2597
4291.7595
4363.8889
4426.2523
4518.8685
4583.7033
4567.8284
5062.8571
4782.5679
4942.338
4894.8476
4949.8892
4871.7794
4924.0492
4972.7242
5026.4864
5053.8276
5133.4595
5174.5185
5233.1312
5262.6584
5460.692
5281.8685
5598.3585
5588.6602
5720.0313
5664.5563
5973.1659
5545.4554
6513.981
5962.4733
6274.7159
6889.1748
6469.7992
7098.6222
6804.3663
766.2706
160.07241
495.64824
328.02228
445.82439
293.67738
441.17869
405.93023
300.17974
380.97146
375.3013
408.58821
284.25162
543.74115
202.6962
609.25139
209.61005
591.31474
262.46482
655.5485
283.9452
644.47543
315.35039
613.92548
389.29385
628.82703
478.6952
670.1435
578.57406
762.81703
692.03881
855.19172
875.52003
940.94222
1029.6868
1079.7782
1193.9872
1661.0556
1641.8448
1775.0058
1843.1922
1955.3852
2069.3857
2161.629
2226.9982
2317.5616
2412.2877
2506.6886
2582.1928
2678.3344
2761.2941
2837.6734
2927.9889
2997.4856
3085.6378
3153.4272
3240.5858
3308.9545
3392.1278
3467.3799
3545.2169
3628.454
3696.5895
3791.2888
3844.6274
3965.3112
3984.7723
4075.8649
4273.4001
4260.261
4496.976
4603.7313
4672.9469
4724.9901
4894.4894
4888.6355
5156.9805
5016.4686
5443.6236
5203.3706
5709.5063
5317.6823
6195.1742
5401.3175
6231.6367
5811.1952
6306.6271
6460.2779
6682.705
6315.4906
7460.3839
6415.5792
7709.215
6742.3846
7787.565
752.22055
-44.295937
459.24788
38.130763
329.30576
112.0828
283.95494
141.98041
216.39284
276.87078
176.32976
257.82169
222.81988
294.14529
194.13924
375.81302
178.39015
414.00415
174.54668
397.52688
185.03174
451.00236
238.16396
526.60784
324.21281
544.88427
452.17478
564.87428
554.57784
633.54184
663.77913
757.97327
776.64935
885.31765
935.77533
1005.6854
1220.892
998.82924
1161.4698
1217.9038
1394.2326
1430.7286
1534.4046
1643.1804
1755.856
1859.1315
1977.0973
2058.0942
2171.8208
2263.4626
2372.4007
2455.5239
2576.845
2654.4862
2772.8325
2859.9644
2973.4269
3065.4728
3178.3632
3276.4807
3387.7662
3490.7245
3593.9046
3727.146
3799.8194
3919.0232
4117.6658
4044.1852
4256.4241
4276.1358
4482.8128
4431.3347
4650.5235
4956.5174
4928.7596
5174.0845
5113.2468
5404.3469
5370.4122
5552.9316
5610.3679
5856.8138
5732.2954
6034.7747
6178.9664
5996.3516
6576.6354
6053.3086
6456.891
6544.8588
6694.3166
6739.0496
7071.3411
6824.3155
7732.5457
462.38666
126.61952
342.09463
141.52424
210.19318
191.33585
123.28934
164.99465
112.50175
108.66437
55.586197
162.95415
-21.516885
181.90871
-57.101927
171.79641
-97.334747
200.15746
-101.45548
233.35065
-74.049589
240.12246
-58.438351
216.82721
-65.568935
240.12739
-33.209416
248.44955
77.100795
270.75696
192.99681
292.07196
304.04283
378.12904
395.11209
533.87025
442.8849
1005.0062
814.45386
1001.1115
1019.5432
1130.3924
1158.9311
1292.1318
1343.992
1429.0058
1484.2118
1575.4386
1641.4008
1727.2292
1800.2865
1884.8298
1962.6757
2046.7674
2130.7703
2217.55
2305.9931
2392.1998
2495.4431
2582.5907
2674.0927
2798.2564
2875.7876
2975.7697
3103.0718
3201.5579
3282.6465
3411.7977
3586.3328
3663.6189
3729.6333
3957.6194
4021.3863
3693.1038
4033.7963
4041.4049
4303.4841
4285.9128
4597.3905
4450.1782
5071.5234
4483.6311
5484.2916
4829.1387
5610.4053
5331.0697
5938.31
5655.8806
6658.9566
6104.7086
7037.0203
6280.3083
7541.1457
6507.0771
8046.1323
467.15341
-44.099041
420.56697
-54.255913
232.57104
-23.212922
99.706463
-17.153787
20.594578
-32.11391
-0.86854545
-54.986663
-48.161291
-7.0010467
-109.03698
26.124007
-113.14322
16.432144
-160.91686
40.38909
-195.72644
74.79264
-211.76417
81.457714
-113.29164
68.487369
-45.80872
107.17722
-0.13430624
156.29545
84.363736
228.66687
234.18685
301.30484
378.52595
411.50385
513.98071
498.44362
576.9676
727.59012
782.32821
899.08724
968.63171
1073.7735
1154.4754
1235.8913
1363.0373
1438.7072
1557.1955
1639.0133
1763.744
1843.8049
1974.8455
2064.5236
2195.3271
2294.058
2429.4554
2539.0715
2678.3748
2784.0673
2949.3922
3057.7343
3194.8199
3367.6255
3479.1825
3646.3978
3776.0099
3958.782
4068.4887
4168.4722
4488.1913
4436.0612
4619.6654
4903.6699
4979.9008
5257.0837
5222.7391
5521.8282
5492.1771
5849.4222
5720.2674
6076.4244
6211.7836
6046.982
6752.4057
6159.1996
6974.0562
6444.1957
7041.1371
6385.9209
7084.657
6783.6746
7426.4974
6646.4964
8391.768
323.65866
86.153297
245.57479
106.46649
147.53535
80.058183
110.88928
46.208457
84.57027
46.481754
32.971968
65.587476
3.7235383
57.94543
-35.688142
64.595145
-76.436372
74.451453
-62.475642
72.389449
-127.79325
24.462677
-168.79458
112.4944
-217.99867
117.68055
-145.08678
105.89085
-51.561144
135.97447
41.139403
190.20248
123.33102
246.63696
248.67266
330.40757
375.44475
477.48012
515.41675
629.23929
632.65203
729.10295
775.29407
859.51521
884.75423
986.58297
1023.1279
1107.303
1159.9375
1247.4814
1304.32
1389.88
1465.9454
1542.576
1632.0355
1713.2542
1812.8436
1896.571
1999.8559
2102.1699
2208.2218
2299.3877
2437.179
2528.0138
2637.4117
2760.875
2873.9095
2992.5786
3069.6422
3299.9892
3257.0885
3450.2723
3625.3017
3597.8702
3743.1258
3740.726
3960.2214
4018.0417
4263.4671
4212.7171
4591.1825
4481.4172
4848.8037
4726.3583
5235.0933
4892.5141
5703.4001
5209.1062
6112.4705
5794.247
7016.8176
6022.9232
7320.4178
6373.8584
8274.6504
362.32726
-40.887905
387.66753
-30.585391
120.64907
-93.930952
14.679923
-181.26809
-80.36247
-238.47188
-165.61488
-256.40027
-245.64972
-259.7632
-290.5812
-270.02402
-306.76971
-288.32245
-344.29276
-277.2817
-318.62865
-107.12098
-184.72961
-124.14829
-178.28357
-45.854634
-170.20828
-6.7659652
-121.50336
36.383722
-22.911804
97.657592
101.78638
220.81477
209.68009
356.77263
346.25867
479.00358
508.58326
574.78374
669.40253
740.11462
860.09442
916.54504
1055.6239
1114.7391
1241.226
1307.6741
1430.9079
1504.3504
1627.6183
1711.72
1832.8489
1928.1021
2052.4945
2156.7033
2288.2432
2390.1596
2543.2351
2647.5243
2789.012
2926.5805
3062.989
3192.4383
3345.0361
3508.8922
3625.6817
3777.6693
3971.9753
4045.1606
4245.9863
4438.5139
4468.6524
4734.9127
4882.8778
5106.3729
5215.6283
5425.079
5412.3431
5797.1934
5657.0292
6043.6644
6050.2243
6171.5602
6567.823
6214.417
7067.1587
6316.849
7295.9833
6647.9617
6981.5398
6671.3147
7561.9199
6675.6991
8545.7518
528.75301
45.83007
492.3749
46.411231
326.51089
175.6668
304.1819
169.19584
255.42109
256.20495
232.9461
262.99165
265.14778
260.5812
272.34517
262.06786
287.13429
259.17656
329.41126
280.04179
277.55334
187.80351
9.2058803
170.18949
53.363487
199.75097
85.849624
270.44394
153.97608
338.2151
243.16111
395.50427
379.27119
448.61191
522.50611
567.553
639.43836
734.39036
749.77805
902.40939
932.33706
1049.0741
1070.4266
1189.2747
1203.7125
1310.2271
1352.5327
1445.6029
1497.259
1588.4324
1650.932
1727.654
1807.6888
1883.0648
1964.4834
2050.0941
2132.1795
2221.4343
2323.7102
2392.3056
2518.5402
2600.8521
2697.0434
2808.5584
2915.8969
2999.6382
3094.4458
3256.8975
3278.3914
3446.9561
3541.1732
3590.2646
3779.4105
3824.6202
4078.1132
4214.8427
4337.3881
4368.5139
4661.3014
4591.8458
4856.9022
4956.2766
4982.3066
5315.0936
5218.0754
5474.8974
5701.9727
5472.3021
6343.0074
5503.3181
6963.6604
6311.2097
7191.5744
6576.8681
8472.0274
531.63575
30.054938
399.58322
-138.50555
263.14206
-125.20347
56.463932
-183.70817
4.4917992
-174.6739
-125.02722
-182.76815
-135.33277
-249.37369
-96.079141
-324.8359
-28.852046
-388.78095
-19.205813
-400.93746
4.3717013
-430.56822
0.12185005
2.0040419
69.145183
46.268367
124.97282
132.74015
159.16499
238.30498
239.66346
383.62725
361.63105
547.80713
516.90455
678.69069
722.01855
815.81891
940.19221
990.21267
1129.1951
1168.9343
1327.3856
1384.4397
1530.3089
1600.3989
1738.5596
1802.7416
1934.0701
2014.2384
2128.4988
2218.9345
2337.2121
2425.7708
2545.4164
2642.8325
2757.2214
2867.4187
2977.3846
3086.7242
3221.8725
3304.66
3449.7803
3561.9104
3670.3854
3799.966
3950.7301
4025.2879
4168.4648
4315.8065
4369.0345
4595.1888
4631.6732
4770.3739
5177.5659
5090.1916
5151.9791
5434.5641
5361.5206
5675.1496
5697.6032
5876.5176
6032.6207
6157.0135
6283.6112
6523.1262
6598.605
6759.6367
7077.6037
6932.8316
7495.8399
6814.8228
7565.2555
7199.9813
8188.417
806.71247
-145.39596
348.91897
92.161423
381.82673
199.45398
389.56318
264.97253
376.26416
367.48075
373.26011
377.14348
507.78889
393.67078
492.51459
515.61607
498.4429
531.6681
551.02632
559.9059
521.80437
728.16121
682.946
637.88624
683.1948
696.77564
736.42734
809.95624
851.61525
922.23213
988.2164
1022.7982
1127.1539
1163.7309
1266.3701
1383.904
1416.46
1591.4741
1598.8712
1775.9338
1797.7315
1970.2349
1990.8117
2141.1565
2172.8774
2288.4747
2347.3167
2435.2816
2508.5809
2583.989
2656.2164
2727.9483
2799.822
2866.3719
2938.9425
3003.071
3079.5657
3138.6736
3213.653
3286.4121
3346.5898
3421.2835
3500.3175
3555.9477
3623.5071
3712.0746
3744.0281
3842.1985
3916.8123
3962.3716
4070.5719
4094.2664
4190.9563
4272.7098
4258.5139
4269.9718
4411.0832
4441.5548
4587.396
4641.8094
4720.9072
4871.1208
4860.368
5088.6279
4994.2223
5377.7578
5047.5275
5601.2602
5387.6502
5453.6271
6001.5197
5621.4689
6850.7981
6342.6956
8174.9242
989.80937
82.25498
516.3741
163.00368
234.2353
88.284922
246.40096
-25.675677
200.9541
16.784839
97.104149
127.24422
47.944885
125.33434
139.76909
117.6583
267.14854
123.75265
392.5681
101.22603
452.82934
124.5105
432.41764
131.64674
611.09782
300.3891
642.13631
484.35189
680.31461
699.02045
794.66421
920.19393
993.82776
1120.5264
1219.4608
1327.9937
1477.7566
1556.2067
1745.065
1800.5794
2002.3294
2066.5522
2245.0818
2340.1305
2494.1707
2594.7007
2744.5566
2834.284
2971.7248
3065.235
3185.3072
3278.1381
3390.115
3478.7754
3578.9854
3671.2999
3759.8182
3843.1836
3939.1774
4005.9516
4096.3643
4171.3936
4246.9527
4316.7431
4400.6062
4474.0863
4544.255
4611.3461
4666.3673
4772.9337
4775.4883
4934.3554
4924.3427
5055.2828
5115.3591
5266.978
5270.6676
5426.8838
5423.1445
5565.9219
5654.3284
5732.269
5876.0766
5953.2465
6132.1516
6203.2761
6317.6071
6743.1522
6302.906
7259.6005
6823.4213
7130.0316
7339.4182
7099.9595
8092.5258
1439.2997
-126.50338
668.10925
252.31535
806.0994
703.27523
818.49119
894.23977
1007.348
962.39917
1103.2758
988.39389
1235.7403
1107.3557
1307.0255
1192.6577
1372.8233
1219.9351
1623.3476
1315.8612
1753.6221
1449.4904
1705.6445
1460.5791
1683.1518
1548.7947
1850.6365
1717.8409
1989.461
1917.2879
2157.608
2147.9641
2355.6986
2435.9306
2574.0408
2713.9121
2784.9465
3001.3743
3047.5601
3272.6755
3338.6886
3532.5557
3611.9332
3770.5664
3860.8226
3983.7225
4082.6771
4175.7461
4271.7274
4350.7747
4431.6483
4498.1233
4570.434
4620.6227
4682.5574
4725.6271
4770.1347
4810.7555
4841.6626
4874.2282
4897.2178
4925.9888
4934.2705
4965.1241
4960.1455
5002.1684
4985.8686
5032.385
5027.9545
5002.4922
5059.0495
5019.4221
5063.3811
5062.4269
5095.7831
5079.5832
5124.0505
5154.3594
5167.463
5277.8064
5238.5663
5379.5906
5347.1231
5508.8061
5451.6362
5621.0047
5656.6573
5696.8365
5691.7903
6195.454
5406.6847
6454.1701
5968.968
5795.6467
7441.501
2495.3363
-1061.6239
814.13619
-481.67013
386.61686
-381.41602
115.25724
-35.022247
22.014648
121.36045
-57.230447
140.2367
205.49574
40.907813
507.2851
-59.667216
656.38025
-56.463123
924.81081
130.75856
1259.0734
239.50352
1271.3302
252.69757
1202.4907
580.251
1292.7537
1003.607
1451.1503
1482.0212
1696.4451
1816.3059
2020.1957
2121.4008
2314.9685
2450.9777
2768.2103
2845.3028
3148.4379
3254.456
3511.2032
3652.1801
3872.6726
4034.8619
4230.5327
4387.2066
4569.5622
4711.3146
4874.7102
5008.8662
5142.8926
5266.3515
5382.6857
5482.3929
5582.8224
5665.9892
5745.7673
5810.285
5876.7356
5918.9626
5973.3507
5998.774
6038.3034
6051.5078
6078.3093
6080.4045
6060.1412
6055.8969
6019.8177
6143.9911
6034.7855
6140.6543
6041.3399
6127.7386
6051.7058
6130.4493
6084.737
6132.8136
6145.68
6157.8533
6188.231
6240.293
6269.9671
6332.8404
6390.9454
6522.3788
6500.9512
6748.4493
6838.7419
6928.8224
7132.0093
7797.3732
7187.2647
8390.5815
9423.9781
184.04486
229.81344
-2.9229084
-200.79225
-145.02737
-219.57181
-153.24398
-189.71431
-140.69513
-5.1444639
-129.4298
-94.750057
124.55061
128.61928
-155.1772
634.52477
370.25013
191.41724
134.74318
41.639723
-6.0472117
9.0478108
-63.354501
66.800479
-21.487926
23.050936
110.44692
89.086676
242.21532
145.70211
376.02986
-24.447269
-126.76708
-192.04998
-280.9487
-307.19459
-296.14995
-347.16256
-314.82089
-300.78409
-214.94767
-286.0661
-204.89333
26.277402
-14.532695
354.46479
274.2928
143.31115
4.2768583
-8.7474285
-44.56848
-40.9327
-70.291422
-7.8091885
-10.897375
34.000368
54.831003
183.33847
356.56836
19.776034
277.65009
192.44302
24.359316
-38.634721
-101.71951
-119.38061
-138.35638
-123.1075
-145.44789
-131.70169
-111.7099
-60.333013
10.066572
38.933411
217.77661
458.24661
298.6749
210.51023
190.76591
141.84296
117.46092
99.567439
102.43998
104.44384
117.11978
158.63607
152.88966
208.84914
278.53985
325.19535
318.75409
263.46057
174.88343
119.4674
107.14205
72.238595
63.527666
39.389569
43.45039
61.317136
51.820314
110.41715
142.29886
238.12167
258.39824
392.58207
299.64357
211.5955
204.71699
160.73599
152.75591
137.39135
130.64262
152.97965
137.71808
166.19059
180.63655
208.66519
238.87716
296.21655
264.47227
259.19546
141.99602
138.52219
96.376999
77.110728
70.097329
82.924187
65.746145
117.77164
89.773576
152.97155
127.75945
245.65535
217.61822
394.60705
302.73428
195.31731
197.51436
132.80024
134.68208
128.59823
120.07235
118.35627
106.39974
171.06744
131.20294
187.11779
290.05633
214.91531
62.96697
133.8556
-32.283082
-36.377919
-97.09784
-39.896509
-97.590604
-52.396355
-97.219624
12.079222
-12.921749
2.5623565
81.140049
180.66286
62.990882
146.16685
20.082323
-27.565918
-181.15819
-126.40518
-238.36738
-207.97378
-255.91337
-231.69425
-181.25565
-180.59472
-115.86093
-54.200782
73.45273
27.744614
-278.90745
218.0784
-325.88205
-176.6651
-364.27535
-276.52338
-431.01174
-336.45654
-302.94167
-281.82617
-215.05603
-258.01739
-167.78755
123.77706
84.722237
76.818551
-107.34151
-339.24862
-385.54527
-502.6531
-487.7178
-428.3453
-412.49056
-433.63901
-580.38567
-541.77523
-610.81331
-606.03328
-390.65727
-749.1045
-481.74163
-457.42857
-835.91638
-983.93406
-1173.8053
-1068.6652
-1115.5372
-995.78625
-1159.4022
-1142.171
-1212.9965
-1095.9764
-898.09373
-426.48031
-655.5968
2458.9471
4479.9426
3110.7043
4081.8346
4617.0477
4180.2438
4621.0267
4877.3055
3949.9918
4451.802
4497.2351
4398.1005
4138.8786
4798.5594
2607.4558
2489.4403
-181.83194
1426.3884
865.40144
645.55998
1569.7334
1432.4812
1607.4189
2034.7358
733.79392
974.30562
188.05224
358.36074
1710.7939
1135.7971
992.93648
1339.2616
429.31414
973.04431
2028.0059
413.8199
433.93892
595.03627
-517.06153
1225.0711
433.13187
1999.4863
1136.7855
-255.46037
1061.2646
-19.402756
1053.5527
1045.1258
-529.97087
-212.98444
106.39527
-330.32597
133.4583
137.78136
-699.44129
117.98647
-241.81015
133.94219
1193.4003
-162.55095
3424.6145
2495.5731
1693.2232
3142.7349
2037.733
2392.4041
2865.1421
2473.6457
2856.0774
3476.2441
2667.5647
3091.8809
2547.9997
2192.1419
3742.5478
586.09608
1147.5476
846.33846
612.31243
880.60502
823.73691
370.30806
399.80123
322.12475
-107.49579
647.81526
505.3084
461.73088
1674.9065
670.59936
2245.5192
2579.9644
2273.4023
2558.9195
1941.5909
2399.475
2445.4012
2398.2319
2533.9127
2607.3386
2068.7718
2518.1642
2342.5631
1873.3805
3345.6241
2245.144
1569.1743
1533.2143
1707.1088
2007.0496
1522.1435
1650.6686
1779.8184
1393.3445
2019.3348
1963.3044
1877.0252
2272.7664
1692.7058
2386.3072
2174.3123
2555.0807
2511.9386
2941.6443
2261.7909
2707.2052
2560.5732
2613.3891
2705.2389
2434.6608
2511.7132
2310.7203
2472.3823
2331.2485
3024.3686
2608.1036
1780.9158
1882.2275
1785.784
1921.0254
1653.5191
1776.3709
1784.0353
1344.857
2293.4077
1497.8887
2367.3022
1870.3117
2139.1032
2597.816
2347.065
2638.3729
2583.8109
2960.4948
2742.7928
3141.4193
2985.1005
3009.2567
3406.3173
2687.3176
3538.9013
2865.2208
3188.5504
3041.4325
3514.2979
2804.7885
2041.4058
2281.5373
2249.9425
2183.8763
2100.9992
1997.9915
1937.2616
1561.3639
2032.6884
1544.7975
1889.2145
1819.6514
1735.9377
2555.9376
2554.7462
2698.2998
2394.099
2884.7663
2682.7632
2934.5768
2995.14
2929.9926
3321.3874
3092.6635
3413.819
3129.3519
3268.0028
3363.3468
3378.7078
2720.4507
2549.4369
2661.4797
2404.6156
2471.7905
2665.7909
2283.8868
2299.9822
1752.0595
1866.4574
1510.0582
1796.0307
1626.5253
1530.7751
2531.6074
2953.3652
2478.3063
2549.2548
3029.0267
3073.3718
2750.807
2936.0494
2930.86
3429.9417
3378.824
3894.9162
3613.8382
3836.7497
4020.2705
3927.8211
2677.5216
2842.4505
2864.78
3016.735
2236.8933
3127.1882
2623.19
2623.3539
1953.6738
2115.581
1502.5526
1801.8345
1373.4486
1509.0365
2447.6717
3082.4506
2494.8636
2743.3697
2702.2283
3360.0533
2880.3363
3009.5921
2762.7593
3452.5219
3260.3362
3911.1915
3608.092
4132.5797
3636.6863
4492.0341
2796.1394
2876.0888
2645.4003
2831.2032
2482.8003
3025.5431
2697.7518
2952.4346
2404.0523
2619.5981
2042.2566
2055.9245
1909.3483
1874.9268
2457.9443
3305.0191
2810.2053
3197.0095
3008.8693
3115.1662
2727.3914
3229.542
2839.8605
3273.23
3051.9481
3373.2027
3451.1965
3780.6956
3925.1758
4528.1739
2717.5329
2732.0633
2593.5049
2998.7014
2707.701
3375.438
2694.5776
3010.9965
2815.9255
2928.3898
2692.2644
2885.6179
2593.7487
2383.5702
2891.3093
3612.358
2757.4207
3279.5953
2838.1336
3176.209
2699.8387
3367.899
2970.026
3271.2654
2832.4821
3180.4715
3064.343
3754.2629
3679.5188
4350.6417
2775.9998
3060.7982
2782.245
3312.7933
2791.5471
3604.2977
2778.0196
3363.6996
2754.9856
3546.6741
3037.7562
3388.8435
2941.6128
2500.3605
3755.5386
3797.9368
2619.8684
3306.3874
2810.2744
3283.1222
2887.381
3331.6563
2954.1679
3551.3463
2942.8914
3124.8901
2922.9445
3110.6472
3319.3505
3661.1605
2976.039
3295.8135
2934.9833
3469.5385
2981.8457
3163.7601
2870.763
3112.6189
2997.5299
3166.2737
3203.2236
3438.8732
3530.3574
3234.4878
4059.1057
3924.2593
2865.6344
3080.0861
2952.9826
3413.3891
3054.3286
3628.8608
3222.4977
3435.8259
3234.3065
3282.7402
3321.8682
3158.7605
3202.8355
3762.3942
3000.6241
3275.8442
3132.3086
3530.9262
3067.4174
3577.2296
3039.4575
3386.0909
3157.8287
3310.628
3294.1296
3304.1221
3777.9482
3676.2632
4047.4916
3662.9066
3326.8013
3589.1405
3300.9272
3668.0901
3326.9839
3645.9957
3477.4995
3553.5125
3512.956
3581.2186
3256.3364
3432.806
3165.7784
4084.0014
3320.6876
3333.2858
2973.9344
3710.477
3247.7486
3339.758
3345.6252
3325.0874
3513.9343
3364.1467
3597.5334
3612.6022
3607.2675
3828.0863
4030.2857
3656.8653
3565.5296
3704.5318
3334.3209
3584.9371
3537.3335
3650.22
3550.1214
3617.8854
3575.9416
3645.3274
3698.0187
3750.4376
3322.1416
4367.4506
3659.4813
3400.1376
3457.4253
3636.0698
3554.0187
3484.6819
3604.6501
3537.2079
3654.7164
3446.806
3572.6287
3481.2838
3746.3452
3853.6722
4186.8454
3995.416
3828.6116
4024.4542
3866.1741
3883.616
3733.6659
3814.6666
3669.1507
3888.6792
3908.6492
3909.5741
3848.506
3902.496
3661.3975
4332.5981
4103.6014
3982.443
3845.7483
3938.9538
3931.9886
3940.523
3914.1794
3941.3375
3885.8404
3866.3826
3821.8653
3929.5588
3935.6672
3923.3669
4563.2831
4308.0113
3940.275
4137.4377
4072.7585
4191.5365
4005.2748
4191.2374
3982.7097
4169.0692
4020.7026
4192.0809
4072.8824
4144.7959
4066.1258
4607.8201
4389.6763
4224.1807
4247.2231
4274.2707
4186.5134
4227.4102
4172.8279
4232.5557
4153.9684
4221.485
4132.0826
4219.857
4201.9557
4181.339
4663.4027
4626.9534
4263.0977
4483.8056
4292.2016
4440.5504
4344.4187
4445.6965
4376.8035
4442.6203
4391.6275
4466.6138
4470.1535
4499.6472
4557.5163
4890.5816
4432.0894
4560.9513
4412.0429
4394.3798
4346.9919
4386.4496
4436.2048
4381.9063
4542.9692
4369.3405
4478.1064
4379.9786
4564.1055
4254.5959
5171.685
4812.4946
4326.6466
4639.2935
4478.9404
4725.5036
4441.2001
4696.023
4455.1102
4614.9656
4709.7129
4603.2049
4707.6915
4525.9297
4702.5298
5021.1018
4930.4706
4995.7318
4902.8061
5003.2943
4793.654
4914.4556
4787.5347
4847.71
4835.6723
4713.1641
4835.4657
4692.7477
4932.4335
4662.7741
5245.6573
5350.6826
4890.1064
5083.1077
4907.9696
5132.5208
4886.3219
5092.0411
4926.7275
4993.9722
4969.3641
4944.7858
5056.3497
4965.6829
4881.0355
5487.1037
5300.0302
5170.8758
5155.4009
5258.2369
5140.5898
5164.723
5159.4128
5080.9549
5181.6356
5030.0514
5162.5882
5049.5848
5106.7379
5055.8891
5543.1756
5603.4128
5263.3337
5445.5567
5281.9539
5423.4148
5256.8043
5364.4205
5283.5317
5307.1156
5283.0057
5284.8141
5265.0158
5331.9654
5171.074
5702.8078
5663.2445
5485.3161
5487.8229
5530.2093
5516.7889
5439.2025
5525.7487
5381.2694
5494.6324
5372.9901
5416.6998
5426.5495
5410.418
5325.7039
5855.4238
5910.2124
5565.7833
5750.7411
5634.2444
5710.6525
5590.9936
5665.9467
5579.0134
5639.2337
5540.3739
5619.7153
5546.737
5594.4339
5477.4546
5985.5956
5971.6424
5767.9213
5831.9984
5793.0048
5828.4166
5708.1492
5814.7626
5691.9797
5755.3689
5693.4615
5695.43
5697.5063
5708.1557
5594.1727
6111.5468
6182.0498
5857.4954
6021.4957
5935.4726
5984.9934
5866.3108
5972.5463
5837.8481
5938.8403
5812.0322
5876.3958
5834.8173
5846.7378
5735.6136
6239.0455
6255.9629
6003.4684
6127.9438
6050.1901
6088.0729
5975.0322
6068.1483
5966.8131
6010.1583
5950.2721
5963.922
5945.4543
5954.9765
5844.6344
6347.1016
6399.9877
6101.1676
6257.5632
6171.2556
6235.6505
6097.7243
6232.8102
6073.8488
6174.6007
6067.5155
6094.4415
6073.588
6067.3561
5954.7304
6442.2835
6488.2654
6206.0038
6357.7707
6282.46
6304.862
6187.7588
6280.6232
6171.4075
6232.7048
6152.3556
6173.6451
6160.5799
6148.7462
6051.958
6534.9745
6573.8687
6283.7103
6456.2011
6352.2004
6425.0614
6280.9153
6432.2154
6278.819
6361.6745
6267.4963
6286.4978
6261.0114
6243.6806
6141.064
6603.2406
6652.7119
6370.5723
6523.3961
6456.1272
6489.8337
6358.3326
6463.0991
6324.2737
6398.7676
6316.2279
6333.0121
6319.2885
6304.3509
6206.7969
6668.9575
6711.5183
6413.3707
6604.395
6496.9136
6564.7034
6416.7578
6568.4086
6423.6087
6507.5819
6410.7575
6428.8587
6401.0416
6374.4244
6276.1149
6713.216
6755.9201
6486.2443
6643.6426
6564.0297
6621.58
6483.3041
6604.8704
6448.7823
6520.9102
6434.5175
6454.2275