/*--------------------------------*- C++ -*----------------------------------*\
  =========                 |
  \\      /  F ield         | OpenFOAM: The Open Source CFD Toolbox
   \\    /   O peration     | Website:  https://openfoam.org
    \\  /    A nd           | Version:  6
     \\/     M anipulation  |
\*---------------------------------------------------------------------------*/
FoamFile
{
    version     2.0;
    format      ascii;
    class       pointScalarField;
    location    "0.41";
    object      p;
}
// * * * * * * * * * * * * * * * * * * * * * * * * * * * * * * * * * * * * * //

dimensions      [1 -1 -2 0 0 0 0];

internalField   nonuniform List<scalar> 
625
(
530861.38
-749621.22
7267.9968
8461.3516
900564.94
-1436620.7
7424.2458
2009.6654
374155.02
-20625.671
-76642.264
-12542.548
3669.4771
6666.4754
203314.03
235078.78
228012.6
232155.6
210217.16
204883.57
190722.74
177062.57
168955.94
150686.65
139809.68
127073.54
113656.83
101778.12
90120.983
79775.703
68228.064
61439.992
51770.361
43998.295
36704.733
26374.99
19301.273
-258892.73
-180524.44
-238552.83
-196606.98
-187083.36
-189514.79
-168237.74
-159693.35
-152516.87
-138255.54
-127542.34
-115449.99
-104169.99
-91180.288
-80060.879
-68881.806
-58301.957
-49011.689
-40296.805
-32642.967
-25244.3
-17458.132
-7544.5254
567768.31
-23661.897
-168626.27
-265557.39
-346082.8
-254684.25
-229015.47
-262896.12
-204600.85
-189712.17
-186730.82
-171449.05
-159003.05
-142072.65
-128983.63
-114500.93
-101112.8
-88446.62
-76416.927
-66086.302
-55756.752
-46609.303
-38128.763
-28820.946
-20582.068
-8823.0098
6537.1679
3182.8145
-5475.7473
25107.947
29787.775
36872.751
46803.335
58009.404
68176.743
79553.449
92527.01
105295.89
119622.33
132926.06
149194.26
160960.46
175041.9
181119.12
210946.99
212106.93
218952.75
253964.85
235102.69
282578.18
229330.6
251538.9
531406.15
542092.13
530275.11
-825594.96
-828198.29
-812744.57
15868.203
15772.372
17689.455
-4456.1094
1933.8197
-1910.7926
128381.98
141499.04
146807.37
133092.47
125043.88
125535.82
112895.56
108881.1
98146.542
91458.121
85296.243
76982.815
69331.296
62765.977
56203.274
49340.456
44232.813
38906.422
32664.5
29847.601
22977.269
14332.722
10325.321
-22158.902
-17935.585
-26238.564
-12876.626
-22117.025
-16873.373
-18016.096
-15284.069
-15765.605
-13028.422
-12770.996
-11256.528
-9318.8228
-7212.8299
-5958.1596
-3990.1979
-2364.304
-1437.7249
-305.18884
818.64609
6.1385149
3805.153
4487.0141
-164190.8
-140974.77
-130652.91
-119380.99
-130725.04
-110047.59
-110237.57
-101638.38
-93652.226
-85832.792
-79236.541
-70369.47
-62743.477
-55342.478
-47757.269
-40568.649
-34280.231
-27615.129
-22487.495
-16735.989
-11537.515
-7734.7579
-275.03745
349610.96
311967.1
314277.66
-33344.866
-9876.7715
-34924.579
-56225.034
-91672.137
-150074.99
-376666.59
-368931.89
-386415.87
-311471.29
-293306.64
-284243.5
-254705.49
-240123.12
-258487.26
-214563.28
-213231.07
-215473.06
-213548.07
-210451.59
-224965.78
-196002.68
-188218.04
-192177.17
-187727.19
-183358.33
-191146.15
-177328.74
-162051.01
-173245.43
-163336.94
-153154.26
-161107.34
-149891.32
-139423.88
-148500.91
-136866.73
-127891.28
-133828.47
-123870.47
-114302.14
-120203.21
-109816.76
-101634.16
-106983.91
-96810.743
-89100.91
-93895.487
-84366.231
-77496.038
-81906.926
-72348.999
-66525.527
-70194.253
-61443.988
-56274.064
-59993.34
-51305.341
-47691.377
-50854.255
-42615.112
-39323.832
-41756.983
-34138.703
-31733.612
-34408.66
-25258.493
-24065.754
-26125.349
-18905.273
-19603.763
-20081.314
-12531.6
-9895.0688
-11801.476
-17337.191
-18548.025
-19672.867
2702.6807
2240.9639
3939.7934
9882.5941
10764.423
9234.9975
281210.12
249708.86
259272.79
262689.38
247847.83
276073.56
275351.84
239549.62
251612.05
241010.24
217992.99
243786.66
234735.57
224006.47
228720.18
224819.05
196909.08
218145.47
208771.6
192987.69
209437.22
199692.98
179271.11
190199.32
181214.35
167688.85
183896.28
170189.02
154460.62
170512.22
157402.89
140796.36
155026.68
142696.25
128104.28
142393.85
128180.92
115909.12
128056.24
115054.63
103579.37
114096.48
101907.74
91228.698
100834.97
88993.161
80099.435
88145.337
77764.705
69359.617
76449.604
67197.249
59796.75
65532.724
55837.026
50178.243
55194.587
47958.315
40835.757
47301.761
39155.246
34051.693
38190.272
29404.931
28781.412
28903.076
27997.602
28729.84
30272.265
139191.78
170538.69
133173
148478.15
137010.02
133088.53
130443.17
115876.74
113387.8
103101.47
96956.16
86769.777
78852.367
71358.527
63138.584
56087.483
48555.119
42302.313
35732.122
28781.389
22709.594
14551.045
4771.7963
-20353.076
17567.569
5864.8174
29116.022
27382.766
27166.069
29379.708
28672.446
26164.387
28429.059
26481.105
25031.646
23446.442
21543.758
19315.839
17624.299
15207.436
14255.597
11536.421
10904.024
10401.298
8492.6335
7014.6226
-95548.297
-89136.917
-131662.31
-111847.01
-114458.21
-113906.56
-101624.26
-95209.827
-83496.847
-78796.259
-71077.207
-63413.717
-56875.432
-50200.346
-44451.672
-38725.667
-33390.08
-28637.37
-24450.573
-18921.523
-15110.822
-8819.3486
-7705.4067
184508.89
215577.38
184900.97
170805.96
183109.04
159787.29
126635.04
137632.29
155867.82
117811.49
154144.19
133218.66
131060.93
122147.33
130844.08
102463.32
126514.38
128684.48
103480.48
120323.73
114890.43
95861.136
107802.2
114467.55
89034.644
102304.26
106613.19
81367.066
96906.758
95215.725
74218.435
87251.23
90316.822
66127.924
80609.19
82953.747
61608.07
72547.668
75049.671
54992.651
64998.482
67498.642
49066.643
58044.24
60509.989
43869.47
51989.347
53014.659
39543.88
45576.142
46738.405
33990.842
40055.89
39773.537
29735.972
33834.581
34473.222
24429.972
31701.968
28934.357
18590.911
22943.183
20399.542
15423.203
14799.002
17185.938
5001.5688
2443.4876
2876.2718
-31989.647
-42117.262
-30734.297
-12534.048
6460.3997
-5306.2787
7133.1079
1881.7268
-5104.5921
3089.539
3134.8662
-14771.891
3055.5545
8207.2901
8733.2152
3710.6776
14320.163
-3735.9004
6689.1925
10023.138
2454.8801
1429.5192
15814.69
3610.2908
5991.6116
14178.655
1716.2222
5045.6735
12954.253
5840.0348
4049.5491
14202.972
5262.105
5780.1153
14750.183
6123.2451
6173.8128
13868.465
6231.2521
6175.8063
13413.083
7061.7131
6560.0817
13248.028
6989.3844
7449.1747
12606.311
6529.13
7510.0461
11287.668
6337.6269
7256.4222
10745.661
5208.6464
8199.8543
9137.2841
6093.2423
8275.032
8819.1599
2913.2451
6261.1691
3458.9565
3009.3766
8013.3787
8405.32
4533.6168
8171.1266
8724.6347
8911.9278
-156104.61
-176293.6
-197732.78
-112281.37
-91947.4
-137556.24
-109563.63
-162545.24
-147086.57
-140864.87
-117575.54
-125866.48
-108811.9
-126271.34
-124524.81
-107595.32
-120245.99
-118092.28
-104478.4
-111612.31
-107018.98
-92511.253
-103810.96
-107998.04
-85907.769
-99770.387
-93825.936
-82163.463
-88477.469
-86887.403
-72149.843
-80553.711
-79159.946
-65274.688
-73051.463
-71298.581
-57988.539
-65610.452
-63288.232
-50945.979
-57623.434
-56000.702
-43521.095
-50493.05
-48825.121
-37471.071
-43795.533
-42697.241
-31321.987
-37790.813
-36283.538
-26099.331
-31555.276
-30279.98
-20567.635
-26500.019
-25535.206
-16850.108
-21968.498
-19980.233
-11641.684
-17002.004
-14550.437
-6574.087
-8867.799
-5122.0995
-1831.824
-7032.618
-5634.4831
)
;

boundaryField
{
    free
    {
        type            calculated;
    }
    fixed
    {
        type            calculated;
    }
    traction
    {
        type            calculated;
    }
}


// ************************************************************************* //
