/*--------------------------------*- C++ -*----------------------------------*\
  =========                 |
  \\      /  F ield         | OpenFOAM: The Open Source CFD Toolbox
   \\    /   O peration     | Website:  https://openfoam.org
    \\  /    A nd           | Version:  6
     \\/     M anipulation  |
\*---------------------------------------------------------------------------*/
FoamFile
{
    version     2.0;
    format      ascii;
    class       pointScalarField;
    location    "1.45";
    object      E;
}
// * * * * * * * * * * * * * * * * * * * * * * * * * * * * * * * * * * * * * //

dimensions      [1 -1 -2 0 0 0 0];

internalField   nonuniform List<scalar> 
28033
(
69850.349
56678.714
4617.8048
4112.4215
83703.73
66037.002
4997.2976
5385.5922
43212.671
30930.742
21622.916
16186.31
9895.5037
6774.9179
4698.0433
3985.1438
5176.2929
7399.8648
11359.621
17773.777
25452.195
34505.33
50841.693
6405.5858
5543.8117
5450.268
5040.5795
4511.4354
4573.1195
3595.184
4021.0283
3856.063
3579.5467
4136.1616
3981.209
4275.3693
4780.9314
5480.8479
53139.367
33622.983
33416.862
33934.89
36022.812
36788.08
37804.032
38065.729
38485.693
38167.389
38119.35
37601.708
36951.763
36183.479
35221.955
34192.379
33066.547
32240.515
31163.688
30232.332
29407.571
28554.116
27722.884
27067.216
25996.105
25477.56
24300.616
23653.485
22447.512
21622.581
20705.418
19552.264
18437.679
17460.614
16410.257
15728.869
14375.428
13649.335
12551.944
11503.688
10474.699
9545.4578
8630.8414
7889.3178
7237.1136
6798.9181
6323.9505
6149.0215
5808.2692
5709.7808
5415.9959
5250.0364
4933.0637
4648.383
4296.4885
3948.5576
3582.4315
3235.3713
2887.4421
2563.9234
2230.0894
1937.0911
1579.375
1362.0784
1045.7764
794.62447
624.32292
379.70871
314.8868
431.80457
346.53818
469.69899
495.14527
657.43432
772.92694
895.16138
1003.6368
1175.7977
1229.0053
1337.5572
1550.9132
1607.8009
1927.1822
1818.2874
2224.698
2268.3403
2718.1052
2825.2454
3414.0069
3439.8119
4253.004
4078.6641
5115.9346
4916.3684
5365.1843
51797.264
29899.602
38159.084
33392.566
36774.104
36854.43
37160.735
37543.72
38109.048
37544.926
38105.819
37302.43
37538.006
36692.092
36336.666
35526.914
34823.496
33860.369
32968.502
32229.382
30892.835
30452.29
29125.229
29228.72
27802.731
27799.328
26278.505
25831.812
24290.463
23526.549
21763.938
20850.884
19452.918
18394.814
17211.922
16298.596
15279.339
14302.027
13343.661
12723.536
11815.661
11149.31
10399.241
9800.2247
9137.4133
8679.168
8169.4319
7828.4941
7476.0761
7192.5005
6898.2157
6596.3484
6226.636
5838.3656
5349.8801
4845.8875
4306.2988
3769.0215
3267.6592
2833.2821
2464.1031
2189.1601
1995.4381
1871.3325
1807.8989
1771.5479
1808.2843
1868.1474
2014.018
1917.1157
2080.7017
2039.0263
2347.9504
2306.3582
2553.2403
2603.9347
2686.6388
2810.1623
2790.333
2851.815
2886.9855
2849.0961
2992.4203
3006.3895
3228.5997
3372.6591
3697.1736
3942.966
4331.8105
4638.9012
4995.0246
5248.8826
5477.0468
5582.4283
5528.2049
55553.249
38187.174
27455.867
22665.39
13143.552
8942.5734
6532.0837
5380.3556
6186.3291
9469.466
12691.199
18860.357
26335.837
37190.636
48830.109
85898.834
46980.991
22535.053
40525.306
35655.547
37910.747
39045.985
39703.716
40410.95
40690.352
40655.202
39112.321
40454.982
37351.21
38933.648
35716.557
37534.068
32762.426
35444.942
31450.794
32509.726
31756.327
30332.747
30495.273
28059.477
28578.577
27328.094
25807.325
25825.941
22488.726
21785.813
20715.903
19547.294
18952.799
17819.435
18899.059
15981.792
16296.481
15200.004
14293.76
13332.29
12334.002
11382.636
10535.043
9850.9252
9295.0504
8891.649
8569.9493
8280.4361
7957.8984
7552.1228
7037.3116
6421.3792
5709.8129
5004.0837
4314.083
3735.5756
3299.9618
3005.2337
2879.008
2830.6699
2874.9223
2896.1349
2903.7157
2836.9411
2718.7918
2600.1752
1818.8766
2729.1645
2043.9071
1980.4636
1825.0936
1873.0579
1906.4018
1916.6722
1907.4634
1860.8785
1800.9722
1675.1652
1622.8268
1545.0833
1606.9546
1670.8826
1915.2836
2129.7186
2508.3098
2803.0181
3197.0372
3458.5902
3769.7177
3943.2725
4141.7085
4308.7863
4333.6542
4948.6452
5742.8394
5863.0863
4731.3063
4511.3027
4531.1724
3930.6067
4019.3672
3604.8007
4961.8591
3432.7704
4802.9612
3574.3137
6343.0255
4239.6373
6658.1734
6227.9645
4728.4982
5520.2828
4804.3607
4615.675
4158.6509
3788.119
3414.8027
3000.1416
2703.7077
2385.2189
2163.9777
2033.6646
1815.0933
1759.6412
1668.1815
1627.5278
1572.7037
1518.9238
1453.3985
1385.4447
1304.1079
1253.8995
1142.1298
1279.6235
1159.2452
1520.7733
-211.24704
1498.2114
1116.6864
1330.5374
1353.5832
1444.7973
1579.9962
1764.6273
2018.7569
2342.101
2731.7231
3176.1266
3654.5833
4144.4301
4628.1164
5083.618
5509.5773
5904.1595
6280.6088
6663.4282
7053.4861
7513.0758
8007.8895
8564.8933
9234.1166
9898.7651
10670.728
11395.323
12291.427
12822.329
14294.191
14160.284
15503.718
17281.606
16951.307
18837.388
19873.305
21324.313
22461.48
23136.755
24418.461
25258.769
26814.929
27895.331
28469.88
28400.424
30845.84
30641.76
31482.169
32931.974
33478.008
34965.041
35450.323
36626.852
36947.562
38261.278
37869.32
40262.252
38356.167
38988.274
38660.132
39032.805
36059.648
35883.055
37116.129
35748.41
24107.505
63601.866
40036.507
40169.487
37809.18
38326.619
38636.392
39872.993
39039.942
40070.238
39952.897
39905.017
38371.516
37380.376
38660.963
40170.267
44286.638
39844.776
40203.708
38056.147
40561.558
40322.645
39241.585
42016.591
44421.208
42902.127
43192.478
40974.751
39471.867
38753.916
37921.234
42576.307
4933.7449
4933.9232
4978.4113
4934.2266
4920.2271
4904.945
4900.2573
4902.6713
4946.8365
4973.4908
5051.3152
5014.5867
5081.7008
4772.3036
5478.3947
5577.3434
5236.9865
5570.5916
5307.6366
5535.0849
5482.8783
5500.9415
5487.9646
5513.1934
5489.1472
5556.9378
5446.9944
5502.2791
5302.0611
5803.4866
42020.865
29111.249
27509.159
27480.471
27755.546
28711.101
29328.179
30062.246
30072.485
30661.649
29945.252
30073.32
29058.631
29097.669
27853.535
27846.484
27009.506
26636.447
25894.737
25474.008
24703.778
23945.784
23237.375
22115.946
21380.578
20345.788
19534.391
18688.598
18142.606
17575.267
17018.257
16737.003
16467.966
16122.42
15862.754
15117.729
14642.211
13888.728
13348.791
12580.835
12059.166
11373.092
10878.199
10357.444
9713.6822
9148.7783
8450.701
7774.1243
6998.7154
6292.6163
5574.8919
4995.2932
4523.0932
4228.5361
4095.0966
4106.7844
4233.9521
4410.5478
4595.4344
4731.3871
4778.6358
4746.8509
4565.8363
4375.937
3986.3355
3661.3361
3486.745
3095.5156
2937.726
2323.9867
2137.4347
1789.9663
1558.8448
1316.1611
1097.033
930.61343
864.50225
789.20319
934.76402
999.34128
1345.6193
1556.1965
1962.795
2213.3904
2550.0885
2923.7053
3228.1635
3445.5677
3806.0076
3846.8617
4369.2166
4330.9614
5048.1553
5014.1679
5861.8122
28229.678
20584.938
21643.774
19967.757
20842.39
20497.969
21015.918
21137.328
21390.894
21416.568
21323.636
21260.592
20905.483
20603.212
20141.055
20027.591
19205.944
19124.442
18518.343
18253.128
17608.486
17264.681
16554.542
16114.011
15448.16
14939.251
14302.708
13809.908
13296.966
12883.409
12485.303
12214.735
11710.416
11317.47
10942.615
10482.572
10180.299
9771.3162
9239.8585
8734.6012
8276.6389
7829.189
7444.891
6957.0292
6560.8503
6231.944
5824.6098
5471.3127
5093.6352
4722.1801
4349.5761
4023.5493
3720.9256
3483.1871
3302.1403
3185.1144
3110.5883
3076.6187
3053.4762
3019.5696
2964.6112
2879.9982
2754.6602
2602.3046
2459.0094
2369.3576
2072.2867
2484.9686
2202.2417
2114.9243
2152.4601
1987.7416
1870.7876
1778.8603
1715.0138
1670.8945
1687.0327
1702.9035
1861.7744
1861.1715
2224.873
2159.4868
2655.0001
2439.0668
3228.9653
3367.7495
3812.5224
3812.5414
4410.0442
4292.3767
4957.2218
4806.0602
5610.404
4794.9694
6629.5409
19015.741
12993.436
15223.383
13728.806
14368.391
13704.501
13984.05
14123.226
14174.553
14279.58
14155.553
14244.231
13828.515
13861.502
13464.522
13305.938
13035.296
12906.764
12523.52
12385.404
12060.285
11784.278
11444.62
11051.252
10634.377
10210.164
9840.5909
9434.5617
9183.5712
8864.3932
8682.0375
8393.0854
8314.1321
8110.6815
7947.5853
7668.096
7283.4355
6780.6531
6585.1814
6220.5784
5933.6865
5652.7634
5260.1116
5091.0718
4888.3587
4625.8083
4357.0229
4094.8495
3784.0485
3459.2587
3172.8583
2877.5996
2665.4699
2488.8797
2411.6519
2371.9119
2408.282
2458.7674
2523.8749
2563.6809
2581.6558
2557.6757
2472.7073
2394.9837
2266.1918
2087.9525
2157.2884
1874.0487
1869.1154
1622.159
1597.0024
1402.3071
1444.9981
1406.5986
1415.0726
1390.7516
1429.9871
1500.6839
1573.1592
1690.6301
1896.9
2021.8808
2202.3175
2723.2387
2846.5936
2783.468
2991.0463
3262.0965
3570.9605
3606.9633
4202.2168
4023.4101
4802.6475
4243.5367
6976.3951
12348.925
8239.1964
8848.1674
8746.5878
8756.0969
8535.3585
8633.7242
8660.8484
8490.5726
8673.0971
8560.399
8605.4026
8329.1343
8507.008
7989.6186
8264.3501
7722.7562
7905.4243
7480.2996
7621.0014
7147.8023
7212.2448
6738.5381
6698.83
6289.3211
6183.192
5816.0022
5713.2807
5418.5275
5351.1807
5138.5485
5114.6848
4992.1335
4838.1506
4814.5963
4544.3953
4546.289
4722.905
4524.0175
4299.2584
4057.8007
3879.9419
3683.6295
3493.8242
3266.8884
3081.2997
2922.2854
2765.8119
2599.0653
2459.2683
2307.5554
2161.4426
2034.6799
1910.6641
1816.1975
1737.7661
1689.6575
1653.1512
1641.0177
1631.7757
1629.3057
1615.2591
1585.1053
1582.454
1503.6661
1513.7483
1409.8422
1450.7899
1526.2672
1301.5826
1567.5923
1553.1861
1350.1543
1204.5875
1266.7534
1255.9234
1318.8735
1311.9598
1444.7057
1474.5279
1685.5676
1700.1303
2144.8227
2025.2197
2502.8718
2538.4708
3341.6651
3255.4699
3983.0826
3809.7034
4688.5059
4239.9702
5563.7549
4151.9125
7694.4606
8365.3182
3992.0128
5179.999
4099.9786
4787.1905
4237.2841
4658.0988
4318.2939
4574.7581
4526.6185
4523.5563
4483.0804
4452.0557
4388.962
4278.1539
4328.1073
4133.5888
4279.9188
4053.9408
4174.2633
3955.8288
4073.5141
3788.8505
3863.1303
3544.6603
3510.2683
3315.4563
3204.5393
3128.8701
3063.5934
3068.6062
3058.4465
3049.3384
3083.8882
3044.0617
2921.4586
3106.5411
2487.8538
2475.6456
2327.4514
2356.2369
2146.4985
2072.2187
1999.9131
1935.5551
1848.3205
1769.9764
1636.617
1526.0251
1390.1125
1270.8458
1142.9321
1069.2278
981.63648
961.00729
937.26606
954.55961
970.33229
1000.4711
1021.4423
1034.0783
1036.3928
1026.3267
1056.0034
954.35833
1043.8856
1067.1341
891.7931
1014.6021
964.78166
1187.4496
1011.8079
1337.8568
1858.8911
1793.9334
1877.1956
1871.2059
1974.4756
2037.2206
2138.1241
2282.6623
2453.132
2571.6453
2868.1662
3000.9432
3285.1927
3322.5592
3528.5928
3745.8573
3850.3317
4268.4646
4298.9334
5161.5792
4050.4317
8168.6869
5195.578
2030.2017
2301.2181
1691.7593
1759.3362
1748.882
1642.1579
1777.6172
1714.6065
1838.5961
1746.5854
1929.1751
1709.9752
1944.8674
1668.7581
1894.2309
1633.5891
1891.54
1623.4236
1920.0312
1647.722
1885.1051
1600.128
1785.3937
1478.445
1693.2639
1375.6851
1560.716
1364.0266
1482.2877
1400.5888
1447.475
1477.3258
1492.0912
1480.9012
1567.8352
1486.7483
1904.5117
1844.0259
1799.1455
1629.1725
1622.581
1478.0502
1475.5948
1378.9231
1313.6128
1204.5543
1143.2417
1045.2438
975.10216
894.59957
841.41848
789.0983
767.11001
752.97291
760.71537
774.79066
793.43506
824.69663
835.62438
839.62317
885.53885
856.73464
831.76382
944.43826
849.55677
906.02568
929.98149
1034.147
1025.2969
1021.9617
1119.9335
1081.5262
618.01864
631.0103
643.4838
746.13591
791.26146
911.96573
977.71367
1201.7388
1191.6215
1620.2188
1520.2068
2084.6389
2017.2972
2728.6864
2687.55
3540.2249
3371.3397
4451.3421
4025.5715
5392.3784
4198.6401
8421.5749
3795.0757
543.6964
1039.2167
-154.94458
390.65035
-21.990506
359.5307
141.58041
448.41602
320.47583
488.42343
366.06658
446.10237
379.78644
335.75455
407.75633
324.65721
451.30406
355.64296
568.84963
396.76713
663.69598
403.90584
625.9494
420.82809
497.27709
348.16808
431.12316
315.2261
439.48036
402.58431
550.31739
594.25662
640.17576
735.67196
716.45269
693.65168
609.43388
548.37428
545.79908
456.89091
456.4462
411.02715
413.33166
410.09975
395.66322
451.16468
413.86289
428.76242
368.17163
355.53689
276.4465
264.53914
213.18731
228.91779
228.92143
290.62656
338.53139
424.4185
477.13789
590.81617
617.40426
674.41103
791.36096
756.3874
880.84966
915.88755
1014.8157
1089.2474
1117.3782
1397.5891
1267.7145
1514.1482
1619.1062
1844.7556
1934.7439
2020.378
2072.4665
2192.5092
2280.3017
2400.1973
2605.787
2710.2623
2971.2857
3135.5455
3350.7589
3535.6715
3715.1808
3953.3852
3982.8327
4396.8514
4235.3312
5402.0945
4068.1001
8732.3335
3294.0571
717.9177
787.12001
215.33768
244.56938
230.1291
248.16726
274.88022
374.70696
407.62413
428.13022
552.9888
503.52836
604.89636
563.2686
659.69701
587.94339
730.99646
652.96697
788.57498
628.88891
766.19587
603.38157
875.58126
542.92004
835.67719
567.85452
760.00361
581.70849
728.70351
619.0809
739.62407
658.87105
764.22291
767.47289
732.05052
817.12095
772.57556
757.41951
733.25747
627.70926
609.79848
549.0868
527.61185
437.09772
451.92807
370.28592
356.27474
288.62779
260.00443
182.81196
143.6101
81.377476
36.825323
5.1702148
-15.501907
-10.235054
-3.4216893
25.581736
74.515457
102.5254
140.55396
222.21913
206.18607
286.55105
302.13837
367.15733
398.02678
442.80536
552.3487
502.54156
615.87296
707.30422
566.44067
473.24323
455.94026
521.35451
555.66283
664.48255
675.2028
901.97443
863.93595
1216.3379
1172.6399
1640.0708
1636.7658
2235.4016
2267.2235
2985.321
3049.2615
4005.2916
4010.4528
5265.925
4298.65
8529.2878
3810.9388
1132.0155
1705.2835
819.40346
1152.511
909.58496
1243.0294
1038.3321
1349.0316
1171.4536
1359.5765
1186.8599
1219.106
1076.9966
1033.1659
952.55971
924.10287
905.50181
904.77298
1001.6087
1037.4643
1295.9454
1190.6673
1186.0947
1041.8485
1098.9169
845.17471
915.88758
719.55219
797.61692
705.06869
780.78972
765.11489
859.72969
735.4132
881.99451
688.01976
729.65103
551.87227
462.63109
361.53826
258.27797
227.59135
136.66314
186.26055
138.12026
187.8322
152.22929
176.8939
116.04028
102.464
24.403792
-12.258078
-73.979219
-87.023711
-104.35528
-66.681615
-43.707104
48.677002
89.603658
169.77653
252.45986
278.73474
362.84909
400.07525
491.56566
525.532
616.51537
744.6668
800.09927
980.14644
1090.9179
1214.9759
1344.2033
1721.3871
1749.2292
1874.6222
1956.6407
2028.5838
2178.028
2228.9521
2462.6566
2542.9182
2823.5048
2976.3819
3242.5063
3449.8405
3700.0575
3939.3684
4150.1675
4455.1722
4442.9963
5326.5072
4331.5641
8397.9954
6101.9164
3634.3753
4397.2204
3733.6916
4195.2612
4060.6704
4258.3159
4072.6532
4259.57
4298.7694
4292.4029
4375.2965
4392.4367
4362.277
4394.6714
4291.6119
4308.3849
4190.2131
4200.0254
4062.7245
4019.721
3827.9045
3579.9519
3602.2119
3425.4967
3404.7242
3157.2355
3209.2493
2922.8157
2976.4916
2726.412
2754.7729
2608.2366
2520.484
2538.0413
2376.9369
2338.6514
2243.0279
2101.4443
2072.1572
1913.9179
1866.8433
1699.623
1673.139
1506.669
1470.6949
1341.3417
1281.7593
1156.944
1078.5268
951.69291
849.65582
739.8129
645.37826
559.22702
502.92972
456.00994
441.82101
445.97271
445.09856
500.42692
510.64613
556.51948
594.50931
642.41687
645.24332
709.49112
767.56571
784.04719
838.30456
872.13536
886.86692
901.00285
901.83268
1009.7606
771.14684
972.37947
870.62352
1094.3974
1034.1808
1318.2611
1292.104
1638.1815
1643.6613
2057.5886
2075.8202
2603.4016
2615.6506
3258.181
3314.1454
4018.9884
4218.4341
5105.0853
4854.4281
8358.4248
6664.1106
5543.5494
6142.6888
5824.7421
6371.5982
6215.6979
6340.7322
6241.1363
6443.9768
6337.9742
6277.6435
6231.563
6121.0433
5923.7245
5919.4069
5591.1249
5783.9073
5349.4892
5613.847
5203.7064
5528.5636
5248.658
5497.5807
5377.541
5146.6281
4846.0235
4599.225
4261.3878
3956.6237
3719.1385
3445.6881
3354.7222
3050.9292
3115.1376
2777.7389
2778.7374
2557.909
2427.9958
2260.7695
2028.9935
1889.6812
1635.1825
1550.6429
1352.5912
1293.8533
1157.6106
1104.2511
962.31491
879.25023
710.78842
562.85959
364.53612
192.64888
-4.5054747
-147.71182
-276.22499
-347.44919
-379.68481
-368.77491
-322.11126
-252.70255
-174.6093
-95.403739
20.328733
65.154014
201.74546
284.63887
362.75733
459.01033
576.1892
677.21256
784.92897
870.18737
1064.8508
1255.016
1477.4453
1406.3473
1560.2226
1550.4472
1706.8253
1790.8959
1987.5514
2154.4406
2424.053
2651.1217
3002.8505
3257.5296
3661.415
3952.5054
4326.3808
4730.3225
4924.5068
5573.8928
5278.1738
7516.1174
14051.554
9501.0531
11027.117
11018.721
11593.742
11404.917
11750.321
11637.075
11834.506
11825.778
11816.464
11760.632
11768.244
11488.942
11452.119
11231.469
11079.073
10846.983
10733.324
10476.723
10230.777
10138.012
10444.711
10172.466
9907.8841
9609.4608
9259.5614
8993.1244
8654.5331
8404.4433
8145.0679
7840.4146
7672.4072
7397.0143
7212.1475
7017.057
6689.3882
6489.3405
6076.7864
5858.5742
5415.1444
5192.3589
4776.9018
4563.633
4224.9232
4027.1088
3773.1491
3590.291
3384.8846
3208.088
3018.27
2849.0646
2680.8099
2532.6002
2407.6792
2309.8019
2238.241
2191.7555
2167.5925
2147.4173
2132.0431
2107.2188
2071.1301
2013.4138
1936.1676
1865.8442
1763.2018
1695.6207
1645.5838
1588.9865
1537.4977
1466.6333
1524.3955
1330.9036
1358.3247
1269.8417
1232.8279
1256.1103
1308.9734
1358.5922
1485.5691
1561.8088
1725.5323
1846.2849
2050.4491
2181.5872
2431.4888
2580.3211
2859.8215
3105.1195
3455.1834
3827.9395
4664.8902
4799.0372
7488.8976
20921.102
17319.502
18258.212
17707.055
17724.418
17494.566
17812.765
17484.778
17807.936
17599.688
17549.54
17468.68
17062.006
16886.014
16511.648
16083.2
15850.127
15302.116
15193.408
14552.524
14471.006
13828.823
13605.665
12906.207
12726.067
11786.347
11432.742
10571.596
10010.678
9406.7275
8795.011
8414.6827
7864.4541
7616.0774
7143.7835
6828.6804
6501.8223
6116.1517
5831.908
5378.7871
5111.0763
4690.6233
4416.2978
4079.1285
3813.7274
3513.4477
3255.4197
2926.5972
2622.4668
2244.9203
1872.4052
1460.347
1072.9662
692.88867
377.08973
119.14741
-60.15707
-155.551
-185.30172
-151.17238
-86.107831
20.109803
94.227459
225.15181
264.38107
396.63726
395.03336
485.67732
495.65036
531.16854
500.77681
619.98843
448.30348
585.47061
457.61508
528.93308
438.53873
453.72782
422.85848
543.12714
624.52576
851.67867
1086.5599
1450.3243
1785.9612
2263.1432
2668.3311
3197.0039
3657.7179
4159.8718
4660.8678
5060.5366
5561.9828
5605.7191
6809.2597
29757.797
24165.908
24658.413
23400.642
24623.125
24515.487
25112.418
25359.932
25815.806
25848.464
25968.372
25723.315
25661.434
25198.161
24849.982
24284.18
23912.246
23196.302
23082.082
22274.241
22164.925
21398.065
20970.702
20279.748
19693.829
18950.986
18396.651
17480.769
16884.302
15980.872
15419.379
14647.952
14121.314
13622.565
12967.958
12557.313
11979.227
11513.399
10836.091
10366.067
9675.1126
9171.9263
8554.2222
8090.4767
7591.2033
7206.1778
6818.7692
6483.1899
6143.9434
5805.6588
5446.479
5070.6448
4687.9754
4300.5363
3941.8506
3616.4518
3346.4367
3131.5766
2978.5742
2867.8579
2793.2866
2735.4272
2679.0772
2615.5726
2528.8981
2468.5418
2356.876
2318.473
2191.922
2095.5772
2107.2771
1948.8544
2002.5973
1875.7794
1860.7028
1752.357
1736.8677
1651.8723
1643.658
1631.3875
1665.2214
1742.166
1886.4654
2031.6118
2281.5903
2483.8276
2789.9896
3015.9969
3313.9809
3555.9233
3808.4316
4089.2237
4424.3139
4954.4403
6070.0779
36797.119
29039.498
29213.637
28374.989
30259.657
30174.06
31245.565
31585.995
31722.527
31779.484
31163.919
31014.468
30420.187
29836.272
29552.994
28737.435
28707.167
27705.413
27743.547
26443.024
26503.138
24647.484
24548.041
22634.302
22221.824
20927.699
20388.421
19686.601
19293.973
19052.709
18641.972
18409.761
17989.798
17541.484
16830.173
16275.942
15577.744
14712.445
13997.082
13097.323
12388.623
11601.859
10906.009
10171.911
9450.42
8671.7518
7895.8745
7078.6826
6313.1086
5595.788
4996.2669
4548.0719
4276.1285
4169.3443
4229.0463
4395.4066
4612.6979
4841.0635
5002.1174
5075.1036
5027.9113
4877.1721
4599.795
4272.9576
3869.6091
3470.3509
2951.7015
2590.491
2049.6835
1893.8764
1320.5275
1134.4989
651.79218
506.29606
212.63122
196.75987
146.87124
302.84046
528.91939
875.85595
1225.2578
1716.6033
2059.902
2549.5936
2824.7303
3224.1412
3425.3752
3747.4202
3969.3632
4273.2644
4617.0032
5054.4124
5422.1917
6083.8557
6270.2882
21739.021
21853.271
16620.647
15943.694
14956.121
15100.38
14511.281
14852.661
14872.653
15716.083
15288.649
15521.586
18089.348
19599.916
25123.755
16607.3
13874.291
10893.97
11038.444
9680.1613
9721.8741
9168.3995
9396.3548
9824.172
9631.8647
9984.7406
10834.122
11787.55
14370.275
18095
11570.868
8845.6369
5227.4473
5028.4188
3982.959
3726.8783
3699.0073
3406.328
3538.6266
3793.2732
4227.3049
4594.8043
5740.3022
8552.068
12277.998
8112.6512
6204.2678
4475.278
3473.3541
3248.1068
2893.9678
2837.9533
2702.3965
2989.4771
3066.325
3512.9807
3891.9135
5280.3815
7232.1034
9087.833
5450.8139
3881.3779
2192.7721
1785.2817
1248.0256
1130.0589
976.54805
1001.0017
990.33953
1155.4137
1412.8565
1904.9682
2796.4507
3992.8635
6600.8471
4753.9622
2953.9091
1864.955
1529.3002
1180.1129
1088.5701
954.54453
996.08755
1024.1993
1131.49
1387.3335
1635.7214
2215.3012
3409.0357
5310.2029
2857.7615
1746.5973
1084.8772
712.00112
517.87838
333.01274
282.34667
237.01156
276.50941
382.06189
528.64192
896.14692
1297.8141
2295.7063
3833.0554
2823.3792
1715.5939
1063.3498
790.52477
559.57391
464.51495
381.32962
398.26873
427.24904
482.32504
652.46
914.37879
1243.8618
2086.7737
3540.5794
2645.9546
1616.5215
879.94196
602.51721
352.60288
237.26753
173.31061
194.50792
192.78332
428.94111
454.60608
780.62406
1145.215
2117.9195
3275.294
4298.3018
2896.3747
1788.6049
1392.7653
1035.9298
912.08788
816.18334
787.87719
812.41851
831.23529
1134.8305
1268.9267
1950.6366
3191.1356
4752.0917
5082.2247
3566.9321
2078.7275
1627.8649
1133.4514
1095.4326
895.42618
1001.1888
961.96896
1208.4891
1415.0708
1864.8398
2736.6734
4318.2577
5996.8087
8696.0898
5662.9069
4167.2186
3295.9545
2856.8288
2435.4712
2388.7804
2264.9856
2362.2417
2463.9154
2854.7886
3063.4626
4367.6093
6273.2163
8954.3931
11812.371
9225.1714
6685.5259
5872.5537
5122.1762
5042.1175
4659.4739
4926.6997
4965.8803
4911.1595
5452.8531
5695.7801
7070.3613
9778.3551
12214.284
19462.59
14646.98
12336.658
11071.98
10332.927
9940.569
10286.87
10355.763
10225.283
9986.5728
10209.871
10656.42
11884.767
14186.426
19281.634
25552.574
25123.539
19757.149
18944.004
17907.438
16947.423
18041.463
18910.134
17468.053
18381.752
17777.794
18406.409
19928.253
22826.212
28085.494
60548.668
53677.483
52042.321
53695.012
54973.907
54082.404
56690.863
59120.36
59367.161
59276.874
57606.668
54910.122
54721.28
56134.398
54127.645
48298.005
39948.038
40060.082
38894.95
36340.726
39066.845
37954.858
37868.142
40424.548
37326.246
38507.411
37035.554
40181.355
43916.141
49150.276
36255.743
37472.278
35238.376
34157.765
36430.268
31590.491
31288.585
31546.859
28617.224
33195.698
32383.973
37449.842
36844.486
35743.283
38248.139
36170.09
39754.094
39016.652
36024.743
35539.16
35542.505
34621.556
35175.713
35390.708
34608.707
36537.437
37026.411
38528.187
39726.635
37224.108
39278.848
39840.849
38264.736
40872.477
38638.63
38534.616
39033.503
38300.116
38950.843
41217.098
39488.901
41013.856
39371.209
39655.833
39745.123
36742.865
39367.538
39302.45
39447.111
39272.416
39053.368
38353.966
38260.254
38671.737
37738.634
39425.243
39018.734
39390.48
39744.347
37524.888
38305.717
40058.761
40245.011
40012.807
40149.321
40408.381
40582.709
40440.216
40714.666
41097.735
40341.185
40993.731
40310.075
39415.56
39927.835
38814.525
39193.049
40063.98
40785.026
40995.654
40592.493
40564.447
40838.214
40284.548
40994.389
40800.994
40693.198
40377.67
39215.639
39514.934
38486.963
40079.047
40305.999
40894.052
40240.818
40924.573
40667.441
40899.614
41074.494
40705.097
40703.825
40234.355
40193.852
39841.391
39331.657
39559.856
39107.804
40025.326
40047.307
40523.242
40263.146
40486.276
40367.439
39689.028
40892.055
39850.738
40785.705
39934.36
39723.706
40405.844
38884.912
39722.379
39845.537
40434.222
40116.541
40627.799
40365.236
40503.176
40939.76
40141.799
41058.785
40280.537
40438.32
40273.077
40425.267
39728.101
38754.234
39403.348
39337.391
39586.828
39494.965
39510.579
39344.618
38935.658
39374.485
38762.737
39076.143
38750.592
38603.894
39901.53
38880.523
38792.939
38411.615
39139.503
38783.4
38992.787
39013.518
38881.711
39384.855
39201.183
39472.546
39360.62
39402.379
39596.19
39823.94
38410.995
37719.407
38375.51
37653.121
37997.841
38185.642
37994.378
37686.007
37314.787
37310.282
36898.905
37172.295
36924.823
36720.229
38561.275
37721.177
36705.497
36811.954
37409.506
37418.613
36971.49
36843.198
36972.783
37340.037
37387.659
37898.709
37797.302
37929.344
38284.415
38680.608
36451.151
36060.522
36406.943
36103.666
35502.109
36154.07
36117.052
35643.678
35320.793
35236.757
34605.305
34896.497
34773.682
34682.82
36213.533
35500.225
34426.186
34622.58
34597.518
35217.244
34847.451
34755.871
34488.088
35093.251
34927.935
35612.236
35556.725
35583.857
35359.977
37105.661
34312.402
34031.373
33922.556
33868.84
33366.186
33813.908
33438.936
33816.967
33396.638
33479.235
32899.762
32817.026
32693.163
32828.556
33352.144
33679.667
32834.625
33367.714
32937.243
33173.196
32610.6
33255.245
32497.759
32884.707
32745.361
32739.977
33131.247
33409.487
33381.819
35027.868
32352.796
31955.412
31726.104
31964.698
31740.494
32131.812
31873.272
31897.747
31864.875
31810.344
32075.51
31939.346
31594.071
31445.221
32126.297
32339.406
31447.207
31947.832
31323.584
31453.491
30952.991
31509.447
31150.15
31338.559
30829.433
31061.786
31035.365
31997.006
31537.662
32866.755
31126.163
30975.995
30613.408
30958.558
30444.178
31091.338
30342.172
30744.986
30093.187
31277.572
30714.1
31053.182
30306.41
29776.512
32358.071
31636.709
29943.949
30657.461
29883.94
30246.782
29904.231
30091.815
29618.96
30100.061
29635.23
29340.876
29425.076
29680.485
29755.387
31823.393
30192.271
30041.674
29526.817
29775.681
29206.34
29080.571
28888.539
28907.922
28960.243
28897.804
29101.074
29538.911
29872.843
29123.448
32290.2
30750.868
28879.077
28758.491
28344.533
28750.53
28150.83
28837.037
28261.455
28446.299
28215.818
28527.586
28567.093
28202.453
28081.675
31001.193
28981.768
27926.051
28074.947
27844.248
27578.007
27865.232
27281.253
27290.384
27274.836
27220.121
27288.122
27582.391
28325.178
28325.034
30124.466
28507.848
27098.438
27295.021
26679.114
27175.063
26408.265
26662.225
26463.937
26490.266
26483.493
26575.164
25744.296
26441.014
25559.885
29386.513
26833.668
25604.294
25340.279
25825.711
24973.484
24986.919
25054.409
24829.533
25156.115
24942.175
25318.812
25728.884
25529.778
25878.496
27481.249
25746.149
24631.251
24363.515
23913.303
24073.064
24008.979
23946.264
23825.003
23808.261
23822.086
23811.652
24228.21
23954.91
23324.383
26805.735
23778.947
22627.468
22992.034
22839.694
22766.618
22629.416
22526.646
22459.683
22303.038
22256.402
22257.613
22205.038
23260.641
22473.469
24281.326
22886.442
22047.571
22377.152
21729.089
21959.384
21036.909
21571.329
21133.921
22036.31
21364.404
21483.141
21339.531
21271.06
21016.892
22626.025
21505.345
20458.533
20591.729
20352.923
20436.424
20343.816
20391.243
20280.192
20134.088
20056.677
20130.567
20209.923
20284.685
20219.808
21402.762
19980.355
19152.761
19604.709
19332.727
19540.417
19222.876
19504.147
19052.863
19405.539
19102.531
19467.252
19179.047
19398.085
19243.968
19843.708
18778.355
18235.732
18599.898
18370.364
18529.693
18339.799
18439.144
18337.442
18406.12
18368.31
18345.129
18412.614
18453.18
18312.665
18755.883
17740.239
17307.262
17774.558
17837.493
17661.755
17542.59
17727.525
17547.124
17709.166
17638.581
17814.163
17746.108
17844.727
17913.457
18138.657
16859.545
16648.447
16947.967
16434.798
16830.881
16681.152
16825.942
16642.513
16977.915
16370.369
16977.578
16745.573
17027.251
16785.25
17409.874
15790.828
15661.557
16219.304
15971.783
16247.718
15835.912
16197.705
15847.681
16081.654
16352.078
16154.435
16261.36
16135.462
16318.43
16456.591
15380.018
15459.714
15597.403
15564.147
15418.098
15437.504
15403.531
15338.806
15468.008
15163.211
15504.643
15248.487
15687.983
15480.514
15582.382
15025.138
14391.25
14854.712
14445.302
14852.958
14375.894
14757.58
14384.292
14602.999
14511.588
14561.796
14715.501
14701.438
14614.292
15051.495
13996.934
13734.992
13913.656
13870.094
13798.686
13682.972
13771.165
13533.31
13808.298
13477.898
13844.746
13594.877
13789.328
13778.057
14107.246
13381.247
12864.873
13202.371
12812.135
13079.124
12691.818
12942.026
12687.334
12816.178
12724.577
12810.807
12761.929
12909.448
12788.033
13252.895
12441.339
12092.235
12143.647
12048.373
12090.414
11839.052
12058.64
11701.555
11996.217
11709.976
11899.557
11850.263
11886.018
11851.137
12435.109
11747.668
11191.188
11422.656
11124.323
11282.013
10986.919
11170.928
10924.705
11099.197
10890.084
11073.329
10961.681
11025.633
10981.373
11670.141
10904.127
10504.971
10544.018
10367.647
10479.174
10183.977
10422.712
10109.761
10310.438
10128.652
10223.529
10201.213
10228.383
10161.506
11092.746
10387.677
9803.7312
9942.4573
9712.7213
9827.6854
9554.8559
9775.4495
9475.4341
9701.6913
9467.3563
9618.556
9577.3213
9606.4012
9516.3217
10726.358
9863.7423
9304.4973
9381.9995
9162.4827
9262.2844
9003.5757
9209.3021
8949.2459
9107.8812
8963.3161
9054.5223
9055.9378
9122.4698
8960.6004
10580.619
9619.2242
8900.0383
8998.1369
8756.7258
8882.4343
8596.5522
8843.2294
8524.4315
8746.7358
8565.0199
8664.583
8692.9603
8784.7897
8549.8643
10603.15
9436.4314
8598.1725
8683.8929
8454.2891
8501.8205
8246.5924
8429.5274
8177.8132
8349.4744
8212.2559
8308.9949
8364.4277
8522.2638
8198.9261
10742.148
9358.3018
8345.2748
8451.0058
8144.921
8246.2869
7953.3505
8197.7844
7896.9853
8091.9148
7947.5594
8043.3986
8104.4875
8307.7296
7889.2651
10854.611
9262.7091
8098.9248
8159.7626
7900.2223
7925.0878
7644.2778
7813.1215
7537.9343
7711.905
7590.3568
7692.3151
7763.1698
8037.5328
7534.5781
10863.723
9093.6423
7751.8078
7869.111
7521.4693
7571.5284
7269.2988
7494.108
7209.5356
7394.4912
7260.3505
7357.1688
7415.7764
7707.6178
7139.742
10647.612
8747.0674
7352.1992
7415.6194
7101.917
7131.4709
6850.4949
7010.8487
6721.4069
6884.4744
6753.9672
6864.47
6907.1253
7229.8841
6636.2941
10170.517
8249.0646
6771.3927
6897.6473
6556.4262
6598.7791
6289.9078
6490.9893
6222.8325
6401.6873
6266.2031
6367.1258
6378.2554
6680.146
6082.8025
9413.1735
7515.8448
6125.991
6258.1885
5937.3084