/*--------------------------------*- C++ -*----------------------------------*\
  =========                 |
  \\      /  F ield         | OpenFOAM: The Open Source CFD Toolbox
   \\    /   O peration     | Website:  https://openfoam.org
    \\  /    A nd           | Version:  6
     \\/     M anipulation  |
\*---------------------------------------------------------------------------*/
FoamFile
{
    version     2.0;
    format      ascii;
    class       pointScalarField;
    location    "1.09";
    object      p;
}
// * * * * * * * * * * * * * * * * * * * * * * * * * * * * * * * * * * * * * //

dimensions      [1 -1 -2 0 0 0 0];

internalField   nonuniform List<scalar> 
625
(
1205610.1
-1617208
9051.128
12349.955
1874308.4
-3521047.1
10649.168
4115.0055
819267.52
7400.9606
-94799.002
-8807.1744
6916.2843
9545.673
498867.93
538588.73
517469.61
506415.95
436343.06
424321.99
374693.01
337203.93
316603.3
273088.63
248708.54
222033.72
194891.63
172359.43
149752.93
130039
108857.32
93790.067
75096.868
59946.109
46059.453
29940.507
20068.861
-566691.19
-341571.57
-483151.72
-364694.74
-339468.31
-344090.23
-293927.44
-277278.79
-259157.53
-233161.2
-214977.81
-190527.21
-173547.11
-149731.31
-130597.14
-110937.8
-91169.78
-74614.436
-56659.369
-43390.844
-28564.295
-16963.251
-3813.7058
1170695.3
-212518.19
-418856.79
-645599.53
-806224.15
-584021.8
-490450.47
-601553.14
-422648.38
-407694.1
-377730.64
-345205.02
-317305.77
-270445.77
-246835.11
-207950.34
-180966.4
-152679.38
-125699.53
-103759.47
-81994.666
-62956.513
-46702.143
-30742.536
-17452.39
-2728.8825
9522.263
5599.1045
-2693.0538
25594.1
34353.266
46719.481
63805.868
82748.707
101942.86
123169.16
145675.75
169370.09
194993.88
219367.5
250394.84
273441.55
304500.08
317959.65
378943.32
393947.73
411665.72
496795.61
454162.27
583905.05
479900.89
542300.11
1238004.1
1176169.2
1158787.9
-1866932.5
-1906816.9
-1883317.2
18037.303
17944.123
20755.613
-1666.0391
3243.1629
34.156675
300821.64
317499.36
322249.67
285797.47
270051.27
265389.61
230534.43
223172.3
196402.59
177033.47
161255.49
141071.87
122768.38
106641.99
91449.597
76331.79
64577.988
53266.608
41670.07
35727.5
26208.805
16835.198
12358.77
-24770.669
-9090.2303
-33794.175
49.104727
-23138.06
-12947.742
-15874.148
-12301.732
-16653.389
-14989.695
-15771.612
-15705.675
-14849.038
-11953.365
-10854.446
-8008.7426
-5119.5261
-2904.1375
-611.49042
1673.6335
1443.9035
6748.6155
7000.2369
-350034.35
-291504.32
-276078.44
-236569.78
-278492.47
-213413.08
-215584.52
-193389.16
-172825.28
-154504.94
-136175.48
-119000.95
-101853.63
-87060.71
-73145.481
-60172.638
-48865.636
-37793.996
-29345.574
-19423.61
-12316.422
-6973.8999
1182.2288
776980.57
664909.42
683802.64
-66187.99
-50426.029
-126731.98
-66303.573
-154006.41
-315562.66
-874837.54
-880898.64
-938042.85
-670087.37
-643638.25
-628698.75
-546809.59
-522840.75
-560712.69
-423983.8
-435374.98
-446738.3
-423738.74
-435515.04
-462181.59
-383755.42
-369940.52
-381679.26
-355789.58
-360519.06
-382017.61
-328989.02
-314455.1
-334904.71
-301264.71
-291148.45
-305374.48
-270825.74
-259016.31
-277029.94
-241220.8
-231924.43
-245310.96
-215977.26
-205303.5
-217651.03
-187125.21
-177904.73
-189772.49
-161827.66
-152752.43
-162953.09
-137696.95
-129193.85
-139455.4
-114546.18
-107363.77
-115193.75
-93926.658
-86413.843
-94295.613
-74275.33
-68992.13
-75285.832
-57299.985
-51747.654
-56938.943
-41815.258
-37827.91
-42172.873
-26453.878
-23698.572
-27494.18
-15930.744
-16950.278
-17922.891
-8083.1423
-3581.7937
-6682.0215
-13152.494
-14305.353
-15761.587
4945.488
4864.124
6488.0697
13151.558
14596.789
13095.68
631580.87
578308.31
582417.84
578470.81
547004.23
571727.8
594352.55
523577.32
527369.72
500876.69
457167.23
488167.23
482310.42
462447.13
449255.82
449070.88
387419.87
411804.57
400772.79
371266.2
388512.84
376441.2
336830.09
342656.08
339368.97
303676.9
322692.52
304240.76
272680.03
294092.33
278778.54
245306.12
261574.72
247021.25
217385.89
237774.57
217722.93
193694.26
210528.34
191875.62
170530.55
185594.85
165838.75
148558.76
162083.94
141521.7
128081.26
139016.26
119407.15
108937.89
118165.06
98546.982
90870.431
97993.766
77775.956
73612.954
78970.144
61768.753
56673.354
63232.389
45994.542
42360.912
46979.274
31478.709
31963.321
32879.796
26681.529
27584.353
29437.505
272762.25
367359.73
286134.96
318818.22
291353.54
275562.85
262288.81
227430.27
216769.6
186857.22
171163.57
146706.11
127493.88
111494.25
94443.876
81676.436
68270.111
57564.984
47260.528
37153.231
28213.998
18482.909
7176.7879
-83726.889
-5340.4916
-18290.465
18373.245
19897.71
19692.193
18868.889
28665.081
18992.293
28342.033
28283.641
28772.482
30440.063
29512.158
29816.171
28865.552
26821.461
25809.785
22000.542
19972.039
17697.707
13272.996
10059.231
-251367.17
-242981
-323962.97
-289659.57
-268091.8
-270288.99
-221345.01
-207622.45
-173996.17
-157420.9
-137529.48
-118504.65
-104600.42
-88311.308
-76850.276
-64586.377
-53765.535
-43978.371
-35414.504
-25649.769
-18786.252
-9885.9018
-6844.2242
410283.15
452572.24
374326.22
387792.89
376697.79
326630.32
285794.4
279795.89
314802.03
267898.41
323530.79
263795.52
301503.73
243369.89
257998.74
224450.49
254630.24
256194.03
229446.53
242868.68
222620.81
213359.56
208010.28
213220.96
178212.24
193057.94
199316.45
166275.31
181203.57
169911.61
141736.99
156053.64
156233.18
119920.89
139950.33
137722.85
105946.09
121054.02
120433.67
88641.578
104352.57
104329.74
74728.559
88429.41
89137.353
62723.822
75664.584
75407.187
53108.092
62408.702
63436.032
43269.905
51909.971
51772.817
36109.517
41148.202
42686.801
29240.289
35836.998
34086.865
20630.597
25000.825
23606.606
17350.478
16866.937
19523.336
7042.9594
4552.1883
4726.5461
-61550.209
-100681.19
-82020.685
-26113.569
-6804.6179
-30348.253
10505.221
-8707.4479
-20296.493
5746.8257
-15687.416
-42758.092
-1576.6994
-3245.4005
6754.2527
-2286.092
14084.108
-15220.174
14361.214
4567.967
-8614.7553
-7325.8191
11270.324
-2945.3743
8240.537
15674.997
-6373.4267
7167.5647
13805.969
-1560.976
5729.2311
14728.875
-2793.116
9937.0229
19411.403
-529.97274
11522.023
18819.463
-309.6123
12191.85
19293.218
1342.6104
12648.074
20794.472
3263.1786
14169.625
20618.363
3653.9791
13759.257
19356.441
5455.3098
13002.027
19022.046
5416.889
13780.29
16320.479
8061.8055
13220.341
14717.127
5015.4775
11245.901
6274.374
6848.8299
10439.667
12329.594
8472.3905
10936.265
11735.74
11795.702
-374784.56
-429585.05
-507917.86
-266569.01
-225667.99
-356582.16
-255343.21
-369898.38
-368862.22
-331412.01
-270272.21
-326811.28
-244247.48
-271010.89
-297479.17
-231901.55
-251759.04
-278941.28
-223495.25
-222373.85
-247317.28
-186383.73
-202763.83
-229587.1
-166571.2
-181971.07
-197991.38
-150019.4
-162945.77
-174246.02
-128376.36
-142897.66
-151888.02
-110281.93
-126106.29
-129930.94
-94085.481
-113404.11
-112362.04
-80395.496
-97716.188
-94533.544
-66424.772
-85291.955
-79475.61
-55671.004
-72789.412
-67432.101
-45196.585
-61913.376
-54782.165
-36773.787
-50053.214
-44330.448
-27981.691
-40602.047
-35516.984
-21422.759
-30406.27
-25595.989
-14944.498
-21736.283
-17263.889
-5969.8167
-8769.1525
-2792.7205
-464.38315
-5751.1928
-5724.7219
)
;

boundaryField
{
    free
    {
        type            calculated;
    }
    fixed
    {
        type            calculated;
    }
    traction
    {
        type            calculated;
    }
}


// ************************************************************************* //
