/*--------------------------------*- C++ -*----------------------------------*\
  =========                 |
  \\      /  F ield         | OpenFOAM: The Open Source CFD Toolbox
   \\    /   O peration     | Website:  https://openfoam.org
    \\  /    A nd           | Version:  6
     \\/     M anipulation  |
\*---------------------------------------------------------------------------*/
FoamFile
{
    version     2.0;
    format      ascii;
    class       pointScalarField;
    location    "1.95";
    object      p;
}
// * * * * * * * * * * * * * * * * * * * * * * * * * * * * * * * * * * * * * //

dimensions      [1 -1 -2 0 0 0 0];

internalField   nonuniform List<scalar> 
625
(
-101659.05
-33857.326
5318.1273
6791.1512
79941.47
322070.34
5908.0427
-393.78215
-68831.722
-71992.573
-68588.343
-16420.489
1508.9462
4691.9947
-28255.929
-26019.797
-9421.3199
2349.4144
16535.005
26197.87
39331.451
49550.906
58950.667
64804.645
71961.545
76346.318
78544.213
79793.139
78645.688
76869.923
70592.174
67619.171
59025.779
50161.77
41407.074
27702.546
18408.805
-7525.8154
-25112.236
-26397.81
-33936.601
-40695.011
-42808.735
-49261.9
-50720.038
-56612.081
-58103.527
-60470.264
-62800.923
-63493.558
-63098.089
-62445.02
-60452.273
-56987.861
-53199.195
-47382.252
-41553.115
-33488.643
-24046.23
-11837.896
99322.307
128169.8
75939.921
43011.527
36789.087
2292.0533
-1976.6054
-14036.625
-35125.775
-37735.951
-55971.027
-64860.979
-73142.155
-80031.586
-85532.22
-87784.909
-89283.561
-87658.578
-84747.818
-79563.02
-72414.576
-63435.813
-53530.969
-40632.466
-28943.586
-12640.783
4819.5351
895.97727
-8346.4131
24595.083
30279.028
37802.713
47413.719
56873.574
62958.904
68477.818
72978.992
75404.917
77299.801
77160.354
76940.435
74918.819
71143.543
65547.882
67900.253
57617.201
55871.375
49037.21
44793.049
35125.272
36131.902
21306.67
-90006.826
-35291.541
-29858.26
44448.102
108179.39
104447.78
15749.452
15573.977
18076.792
-7717.1952
-412.00559
-4449.8001
-25343.63
-20635.839
-9885.5713
994.64362
7300.5937
18722.413
26148.424
32947.276
38277.855
44662.195
48503.398
50933.321
52391.714
52566.151
51741.871
48689.037
45900.423
41700.954
35084.294
31658.996
23363.756
13186.782
8643.4426
-24795.353
-26478.982
-20439.19
-18538.32
-15166.56
-12522.554
-10952.434
-8472.8314
-6718.4439
-4987.5468
-4544.0214
-3365.6444
-2774.4714
-2161.1748
-2389.3636
-1986.7701
-1970.872
-2299.0974
-2236.995
-1835.2058
-3018.5458
827.84541
1799.316
-24283.281
-29854.39
-30448.224
-31517.747
-31135.348
-34466.159
-35292.299
-36173.254
-36821.242
-37325.405
-38162.345
-37696.153
-37524.305
-37292.701
-35839.757
-34223.5
-32379.683
-28905.859
-26077.637
-21015.028
-16198.524
-12203.833
-3702.8297
-32021.244
-638.22446
7761.9875
-32284.141
-781.49266
24332.501
-37585.616
-6983.0213
31718.043
10075.45
25255.851
39424.426
-13171.756
7632.3675
13703.814
-19013.263
-6384.8897
-492.10974
-34289.315
-20609.213
-16060.836
-37138.314
-25700.168
-20062.49
-44416.45
-37363.14
-36211.01
-51156.545
-45600.701
-43807.11
-57749.466
-51439.828
-53931.198
-61783.342
-58805.623
-61583.529
-65966.975
-64541.993
-69165.61
-69594.399
-69025.304
-73687.648
-71578.853
-71765.059
-77629.386
-72509.297
-73467.143
-79720.103
-72315.29
-73663.123
-80140.502
-71211.075
-72360.655
-78975.558
-68198.471
-69684.315
-75810.979
-64385.902
-65099.471
-71336.97
-58729.896
-60014.204
-65260.017
-52543.06
-52465.964
-56869.018
-44251.897
-44321.426
-48441.48
-33997.137
-34114.464
-37157.497
-25215.177
-26995.685
-27859.102
-17038.954
-13839.179
-16468.067
-21490.262
-22542.246
-23511.887
393.48941
188.18821
2370.5783
8092.9126
9584.875
8177.3852
-18352.436
-2982.5207
4648.0394
-11265.27
107.12129
15763.965
4410.9181
12892.509
27463.711
18051.875
21858.696
34901.214
25697.782
27516.566
40433.372
41371.171
39391.945
49908.374
51815.296
45173.01
55461.834
61226.723
51787.275
59640.002
67686.352
59235.479
68401.083
76959.014
63595.896
71498.465
82142.734
67504.076
74644.87
85982.215
70643.989
77425.085
87843.875
72520.381
78323.272
88193.948
73003.167
77970.218
86762.525
71884.591
76706.237
82874.495
69749.679
73664.286
78072.116
65911.742
69682.206
71653.744
60913.574
63946.844
61773.58
53897.471
56659.565
53887.123
44962.012
49802.748
43382.808
37303.94
39981.307
31108.305
29942.867
29259.312
27691.552
28302.681
29732.311
48442.029
32545.85
28486.785
30197.859
33734.672
33010.109
37402.802
37823.26
38203.397
40502.092
41147.768
41149.654
41222.407
41142.746
39682.378
38696.008
36009.051
33732.886
30086.644
24977.523
20151.606
12597.26
2287.9495
41453.043
32453.809
17734.311
19274.42
13326.54
12068.141
10179.931
7078.6366
5729.3326
5204.4655
3692.063
3172.6901
3167.2403
2693.7737
2978.8533
3504.3796
3689.9421
5116.5791
4631.014
5909.3948
7047.3219
5894.6028
4876.3345
41513.9
35521.272
25763.967
11477.176
3705.0605
-5467.4975
-18389.023
-22333.48
-30917.106
-37015.194
-42274.206
-45514.817
-48365.318
-49274.919
-49386.344
-47826.797
-45220.82
-41580.081
-37285.555
-30545.351
-25021.536
-16020.746
-12829.102
-26230.844
-659.99072
19089.265
-7540.8508
7496.0179
21332.848
-1082.0035
10552.733
25933.95
3257.5545
15805.667
23718.781
14059.106
23483.512
32634.837
18012.216
28471.346
32414.477
24371.909
31480.696
33413.525
27824.171
37391.808
39470.111
35694.911
40660.041
39891.28
36599.252
43808.544
40279.982
40044.982
45951.313
42501.778
41451.021
47752.746
42818.836
43188.965
47827.874
42886.133
42928.525
47576.386
42639.48
42017.116
46304.284
41635.769
40091.287
44566.968
39627.176
38171.293
41454.019
37513.929
33901.842
37867.808
33746.075
29617.444
32451.078
30451.456
24355.498
30600.027
26260.255
17671.538
21140.194
17928.36
13933.968
12793.714
15307.127
2747.178
-562.39702
-1.7207687
-20535.951
7873.4136
25603.009
-18216.154
-879.52591
10294.902
-15349.361
-4346.4071
12325.189
-11364.724
1600.0357
10435.989
-7351.0107
-2240.5176
6878.2391
-5260.0787
-1366.4751
4413.2958
-3752.1922
-456.66299
4553.3195
-258.56818
1783.571
1245.7116
1456.6808
505.30764
-1410.408
3032.3705
1151.2944
-981.6157
3917.7015
2610.1084
-2941.4771
5614.3102
2910.5932
-4073.9545
6033.9355
3381.3012
-4368.8002
6459.4333
3951.4065
-4624.3795
6520.3223
4461.6579
-4597.3453
6884.7131
5114.1123
-4552.4067
6670.8873
4910.2447
-3829.0027
5851.1769
5463.4438
-3889.8188
6458.8215
4760.4334
-1348.102
6446.3549
5804.8348
-3530.5844
4181.4026
240.98111
-1655.855
5874.2192
5938.8646
871.70009
5829.0674
6561.6559
6324.8414
-9142.7201
18222.105
31721.494
-15587.508
-2404.4491
13188.263
-15812.16
2106.6324
13900.058
-16950.326
-7722.0754
-467.98307
-22805.826
-14143.363
-8263.7846
-25385.692
-19318.76
-13262.464
-27159.283
-23709.775
-21005.077
-30387.219
-30041.129
-30830.459
-31934.317
-35855.836
-32882.553
-35686.934
-37497.868
-39224.93
-35604.233
-41588.341
-43465.242
-37049.052
-44027.308
-46379.532
-37691.441
-45730.639
-48027.767
-37431.063
-46235.199
-49054.712
-36427.163
-46188.278
-48298.416
-35423.074
-44944.897
-47182.58
-33179.361
-43257.267
-44222.807
-30713.108
-39605.423
-40111.305
-26707.561
-35958.431
-36199.115
-23461.769
-31671.752
-29749.429
-18486.199
-25625.48
-23313.016
-11738.513
-15417.719
-10852.274
-5617.6059
-11776.567
-10296.814
)
;

boundaryField
{
    free
    {
        type            calculated;
    }
    fixed
    {
        type            calculated;
    }
    traction
    {
        type            calculated;
    }
}


// ************************************************************************* //
