/*--------------------------------*- C++ -*----------------------------------*\
  =========                 |
  \\      /  F ield         | OpenFOAM: The Open Source CFD Toolbox
   \\    /   O peration     | Website:  https://openfoam.org
    \\  /    A nd           | Version:  6
     \\/     M anipulation  |
\*---------------------------------------------------------------------------*/
FoamFile
{
    version     2.0;
    format      ascii;
    class       pointScalarField;
    location    "1.52";
    object      E;
}
// * * * * * * * * * * * * * * * * * * * * * * * * * * * * * * * * * * * * * //

dimensions      [1 -1 -2 0 0 0 0];

internalField   nonuniform List<scalar> 
625
(
2308.0599
501.8989
-214298.96
-126471.19
1422.3286
1596.5111
-190503.07
-337468.82
-256.00247
1111.253
1759.5789
-142719.63
-161864.11
-67006.935
5612.0571
4305.2167
6625.1711
11467.554
12756.191
19154.873
21358.039
23168.11
22795.796
17344.43
7345.8515
-6869.5051
-25902.104
-47434.865
-69337.578
-90840.138
-106498.45
-117443.09
-115586.55
-105485.15
-87055.467
-62338.761
-17085.521
4724.6114
-1233.3321
5795.025
933.64523
-6848.1323
-7060.8197
-17177.465
-20307.841
-22020.776
-21569.664
-14395.405
-3111.2051
15371.099
38989.982
67404.61
97435.28
126275
148723.99
162029.69
162207.29
145823.66
118241.68
66133.913
928.39704
833.09924
435.60243
7286.095
12038.623
-2614.4302
-279.70574
5066.5774
-13770.517
-11519.728
-15700.395
-16105.62
-12052.734
-6090.2425
7995.4714
22514.934
41773.036
61970.064
82398.858
101327.73
115923.1
123096.62
121605.74
107912.37
84780.078
57392.716
-242976.98
-295351.7
-268453.69
-8388.0423
-29009.09
-46196.521
-60824.293
-69308.736
-70377.239
-67001.388
-58077.748
-46626.892
-33105.988
-20285.642
-7640.3253
1665.6524
9494.6785
13879.818
15363.868
14417.607
12556.635
11770.946
6122.654
9147.6624
2536.8371
5560.2353
1975.3872
798.5654
2.3567193
-111.40194
-1054.8862
-1623.4691
-145480.17
-142549.87
-145448.44
-244912.18
-242881.57
-240906.79
1541.6952
203.69454
-1500.3088
-2287.0468
-6769.7495
-8973.2424
-13887.894
-16718.227
-18086.607
-16941.263
-10710.182
-676.53848
14550.132
33704.912
54888.356
76090.309
94483.792
107361.19
113810.09
108330.07
99954.653
80125.211
38068.89
574.47612
-1440.3556
-1665.8353
-4577.5104
-4267.6357
-4741.1723
-6091.0337
-3860.9515
-3275.1251
378.82201
3835.4345
9588.9305
16082.2
23390.145
30705.584
36810.333
41296.368
41827.557
40742.954
31747.2
25994.844
9890.2084
-6182.4605
2595.4651
1123.9082
4258.2856
6030.5009
11138.292
13258.865
19678.821
20220.76
21368.328
18550.181
12085.353
2704.3625
-11229.661
-28149.145
-48043.925
-68938.239
-90138.764
-105843.43
-118004.96
-114945.49
-102741.13
-76292.434
-26429.764
65.234985
-519.93346
-512.46464
454.60845
282.94618
839.59621
782.7318
225.04263
104.39516
7121.8236
7903.0395
5853.3641
7141.234
4716.144
5494.0952
4080.0953
889.83845
4709.5859
823.95753
1324.5277
-2613.4973
272.58443
-2922.6307
1080.8127
-8961.3611
-7590.3235
-8776.1732
-11254.583
-12728.436
-10788.836
-15312.583
-18986.803
-17010.908
-18498.907
-17727.634
-19882.375
-15290.332
-15962.314
-15212.099
-9708.051
-7914.6994
-9882.7174
3917.8751
4272.4528
3998.1837
20799.974
22420.001
21827.254
44107.155
44515.929
44022.16
70625.49
70073.292
70272.151
98384.613
96390.367
96995.258
124487.58
121077.64
122131.53
144661.67
140044.68
141734.5
155309.07
150481.24
152173.37
153209.95
147693.11
149480.36
136875.75
132426.63
134433.44
106027.35
106237.02
106073.76
63545.035
62035.58
65684.101
-186228.62
-183683.13
-180654.11
-181815.84
-199249.9
-200174.69
-162102.45
-144526.24
-142780.65
4100.863
5407.1017
3126.0823
3435.7679
2889.5624
2876.7895
9345.3991
7333.1545
8333.1055
10050.819
9108.4715
9264.2988
15333.837
14532.951
13878.352
19431.76
14954.839
16518.645
21789.981
20501.025
20100.887
23763.593
21035.852
21650.344
22889.342
19316.111
19150.326
16371.847
15564.558
16303.228
7487.295
6209.1831
7612.7261
-6203.8297
-6322.3732
-3973.2611
-23711.833
-22969.463
-19351.402
-43049.642
-41699.626
-36608.011
-62856.625
-61202.047
-54364.885
-81492.044
-79447.649
-71530.363
-94892.287
-93984.301
-84770.096
-103700.54
-102675.05
-93278.577
-103466.02
-104556.88
-93821.96
-91277.64
-98993.059
-86347.169
-72256.947
-81147.09
-70186.651
-53127.998
-52690.746
-48520.94
-11525.328
-12695.964
-11732.966
217.38359
1187.9142
-3039.9717
-2281.4871
-7582.3503
-10544.246
-13352.351
-18745.047
-17992.239
-16473.733
-9962.6883
1418.2077
17108.626
36219.536
57061.817
76805.225
92998.324
103447.08
105381.09
99863.764
85027.463
63319.429
44644.087
754.81106
2333.8573
-574.92841
5550.7097
7067.2211
13433.099
17284.032
20356.396
23360.282
22202.105
19529.338
14755.925
6437.2659
-2562.9446
-13953.492
-26125.798
-37837.398
-48799.743
-56742.157
-61101.448
-60103.254
-55351.119
-35455.129
3771.1949
2710.3452
5961.7027
2729.8623
10433.002
11868.641
13403.477
18082.646
13732.916
12131.075
2263.5825
-8377.728
-24137.465
-41085.992
-60353.194
-78939.838
-95264.377
-106918.19
-110941.97
-104051.2
-87484.137
-55462.435
-15780.753
1010.9787
683.18916
452.50842
1118.9331
708.6378
635.7147
-1304.1517
-2281.2447
-1995.5276
-2628.758
-2377.7876
-2363.409
-5932.8978
-7051.1573
-6338.8543
-10152.054
-10012.957
-11426.957
-14471.882
-14684.041
-14128.124
-17387.007
-17612.457
-19277.537
-18893.761
-19371.324
-20412.029
-16737.522
-16644.429
-18130.517
-8944.7318
-10041.221
-11594.266
2115.0973
1725.4478
522.82201
19756.294
18881.748
17312.3
40488.68
39374.172
37937.126
63365.399
62201.16
60796.626
85889.919
84741.656
82935.077
104504.01
103560.21
102029.46
117709.17
117249.92
114922.3
122155.72
121496.55
120236.15
113120.99
119989.07
115203.9
102010.64
104761.37
101871.71
80655.034
80486.859
79074.505
43521.176
43525.697
44670.591
84.666374
114.18693
288.9364
388.66266
1271.731
1285.9426
-835.54824
-3434.3902
-1695.9951
-426.66965
1841.734
1682.1511
2765.7451
557.55203
981.6533
2814.6773
3839.0358
4694.7415
5351.2371
6054.3503
6643.4029
8374.7986
8832.8397
8289.6318
9051.7315
9866.9484
10956.721
11862.643
12561.779
12407.904
12733.35
12445.794
12380.352
14044.641
13524.926
13148.3
14907.57
13426.715
11733.231
14808.861
12305.517
10671.584
14429.957
10981.128
8261.9133
12342.831
7408.0836
5100.7428
9344.6069
3739.4505
477.65162
4803.3035
-2984.3483
-4654.5087
-966.88029
-8607.6224
-10651.355
-8471.8957
-14056.977
-16264.302
-25951.529
-148.99853
-18812.997
-21004.304
-26798.831
-26893.364
-23120.838
-28917.048
-26944.223
4163.4479
4275.2598
4675.0229
1990.1094
1986.6854
3829.0436
4554.6237
5913.479
7824.1154
8941.1185
4921.8258
7104.8951
9979.3213
9341.1025
12116.096
14690.48
12252.865
14680.028
19950.901
15776.677
17781.749
19696.873
16857.355
20577.651
21444.464
17240.442
19628.002
17572.354
13708.6
16354.829
10774.647
6112.4949
8904.685
380.28659
-4478.0904
-1824.1488
-14501.405
-19421.106
-16657.664
-31949.578
-36645.758
-34197.177
-52282.443
-56394.812
-53910.184
-73114.508
-75691.151
-73814.378
-92330.418
-93875.919
-92303.717
-107478.76
-106860.79
-105463.9
-115309.85
-112333.28
-112325.36
-110963.75
-107924.44
-107580.73
-97102.003
-92878.24
-93984.893
-66413.117
-62418.924
-64176.171
-24372.774
-18840.051
-21062.791
)
;

boundaryField
{
    free
    {
        type            zeroGradient;
    }
    fixed
    {
        type            zeroGradient;
    }
    traction
    {
        type            zeroGradient;
    }
}


// ************************************************************************* //
