/*--------------------------------*- C++ -*----------------------------------*\
  =========                 |
  \\      /  F ield         | OpenFOAM: The Open Source CFD Toolbox
   \\    /   O peration     | Website:  https://openfoam.org
    \\  /    A nd           | Version:  6
     \\/     M anipulation  |
\*---------------------------------------------------------------------------*/
FoamFile
{
    version     2.0;
    format      ascii;
    class       pointVectorField;
    location    "0.07";
    object      u;
}
// * * * * * * * * * * * * * * * * * * * * * * * * * * * * * * * * * * * * * //

dimensions      [0 1 0 0 0 0 0];

internalField   nonuniform List<vector> 
28033
(
(0 0 0)
(0 0 0)
(0.091231899 0.024727304 0.00019461766)
(0.089818222 -0.027698133 -3.8055645e-05)
(0 0 0)
(0 0 0)
(0.089802405 -0.027715565 0.00011600212)
(0.091252915 0.024631248 -3.2558791e-05)
(0 0 0)
(0 0 0)
(0 0 0)
(0 0 0)
(0 0 0)
(0 0 0)
(0 0 0)
(0 0 0)
(0 0 0)
(0 0 0)
(0 0 0)
(0 0 0)
(0 0 0)
(0 0 0)
(0 0 0)
(0.091052376 0.020874372 -7.3112079e-05)
(0.09077942 0.017443903 -8.4358875e-05)
(0.090510358 0.014145564 -0.0001405579)
(0.0903164 0.0109229 -0.00012005618)
(0.090135588 0.0077782473 -9.9398825e-05)
(0.089979591 0.0046813643 -5.6018773e-05)
(0.089862652 0.0016162095 -7.4348987e-07)
(0.089771156 -0.0014342198 6.5423813e-05)
(0.089708008 -0.0044836795 0.00012350471)
(0.089671305 -0.007562078 0.00018657416)
(0.08966009 -0.010659129 0.00022753782)
(0.089664886 -0.013829469 0.00024508307)
(0.08971074 -0.017050319 0.00024803822)
(0.089730251 -0.020393817 0.00023152074)
(0.089833165 -0.023861714 0.00013566823)
(3.9129693e-05 3.6598287e-05 2.2652885e-05)
(7.7336001e-05 4.7530252e-05 1.9740218e-05)
(0.00012293574 5.1126761e-05 1.021426e-05)
(0.00017475611 5.0383261e-05 -2.1231467e-06)
(0.00023226285 4.2573904e-05 -2.0195955e-05)
(0.00029736371 2.8797204e-05 -4.3273498e-05)
(0.00037038672 7.0202785e-06 -7.3323536e-05)
(0.00045137661 -2.4387608e-05 -0.00011102626)
(0.0005404162 -6.6111306e-05 -0.00015708534)
(0.00063474002 -0.0001212915 -0.00021144166)
(0.00073086119 -0.00019159638 -0.00027431625)
(0.00082489354 -0.00027673427 -0.00034337785)
(0.000910059 -0.00037938392 -0.00041733113)
(0.00097983166 -0.00049889882 -0.00049269182)
(0.001024251 -0.00063603571 -0.00056497381)
(0.0010341611 -0.00078751991 -0.00062947228)
(0.0010014026 -0.00095140057 -0.00068215034)
(0.00091792238 -0.0011251125 -0.00071884954)
(0.00077704241 -0.0013045312 -0.00073200096)
(0.000574971 -0.0014837751 -0.00072326996)
(0.00031146952 -0.001660797 -0.00069131327)
(-9.0294792e-06 -0.0018266444 -0.00063487061)
(-0.00038306673 -0.001981471 -0.00056225546)
(-0.00079910926 -0.0021193394 -0.00047503709)
(-0.0012468847 -0.0022360678 -0.00037871865)
(-0.0017172062 -0.0023341675 -0.0002829626)
(-0.0021996462 -0.0024071026 -0.00018859041)
(-0.0026885756 -0.0024589253 -9.9379766e-05)
(-0.0031775544 -0.0024857159 -1.6213347e-05)
(-0.0036672889 -0.0024925925 6.2544096e-05)
(-0.0041562462 -0.002473766 0.00014011972)
(-0.0046478889 -0.002432602 0.00022128986)
(-0.0051435724 -0.0023692665 0.00030931287)
(-0.0056449732 -0.0022762724 0.00040688117)
(-0.0061494918 -0.0021582528 0.0005167038)
(-0.0066506901 -0.0020051996 0.00063455672)
(-0.0071433874 -0.0018224956 0.00076050171)
(-0.0076179982 -0.0016021171 0.00089073917)
(-0.0080618538 -0.0013461892 0.0010204929)
(-0.0084664383 -0.0010553139 0.0011459399)
(-0.0088223929 -0.00072898496 0.0012651294)
(-0.0091206793 -0.00037014185 0.0013751855)
(-0.0093576932 1.8712e-05 0.001476223)
(-0.0095293905 0.00043523678 0.0015696734)
(-0.0096334627 0.00087508071 0.0016550389)
(-0.0096702752 0.0013362663 0.0017356901)
(-0.0096393286 0.0018160952 0.0018113917)
(-0.0095405914 0.0023131189 0.0018836413)
(-0.0093732238 0.0028259591 0.0019518411)
(-0.0091354866 0.0033540465 0.0020152726)
(-0.0088249733 0.0038968448 0.0020725055)
(-0.0084387316 0.0044541601 0.0021220378)
(-0.0079736929 0.0050256378 0.0021626162)
(-0.007427104 0.0056109194 0.0021936235)
(-0.0067968186 0.0062093446 0.0022153563)
(-0.0060815322 0.0068201407 0.0022289325)
(-0.0052806368 0.0074421478 0.0022364377)
(-0.0043941341 0.0080741296 0.0022401597)
(-0.0034222767 0.0087147491 0.0022425792)
(-0.0023649536 0.0093622075 0.0022455914)
(-0.0012218763 0.010015079 0.0022504729)
(8.1609669e-06 0.010671714 0.0022572322)
(0.0013263302 0.011330543 0.0022654753)
(0.0027360048 0.011989453 0.0022732661)
(0.0042363394 0.012647838 0.0022808389)
(0.005832884 0.01330358 0.0022831664)
(0.0075229105 0.013953962 0.0022830397)
(0.0093089443 0.014597738 0.0022776179)
(0.011189683 0.015237357 0.0022664969)
(0.013165777 0.015864798 0.0022509982)
(0.015233488 0.016483298 0.002231363)
(0.017394485 0.017088193 0.0022070831)
(0.019645651 0.017680664 0.0021763798)
(0.021987254 0.018255261 0.0021417204)
(0.024416498 0.01881786 0.0020988157)
(0.02693492 0.019354031 0.0020525906)
(0.02953489 0.019881314 0.0019952363)
(0.032223439 0.02037376 0.0019365277)
(0.034983648 0.020859806 0.0018663364)
(0.037830305 0.021303797 0.0017973309)
(0.040739917 0.021742878 0.0017155324)
(0.043725926 0.022134399 0.0016420048)
(0.046771716 0.022518179 0.0015527194)
(0.049880051 0.022854925 0.0014739627)
(0.053045546 0.023180658 0.0013830206)
(0.056265813 0.023462494 0.0012951153)
(0.059538762 0.023718258 0.0012016427)
(0.062851045 0.023940746 0.0011132356)
(0.066215821 0.024137213 0.0010089299)
(0.06960579 0.024305837 0.00091728448)
(0.073050942 0.024409055 0.00083177046)
(0.076506342 0.024585662 0.00070256622)
(0.080016324 0.024600994 0.00066367729)
(0.083582347 0.024727313 0.00053317293)
(0.087142973 0.024812898 0.00049429807)
(1.2274597e-05 -1.1124114e-05 -1.0118252e-05)
(4.5495845e-05 -1.1537123e-05 9.4226434e-07)
(8.5024718e-05 -9.3842011e-06 1.1915782e-05)
(0.00013309063 8.7529809e-07 2.8327984e-05)
(0.00018851671 1.5833663e-05 4.6725449e-05)
(0.0002525899 3.8048971e-05 7.0926326e-05)
(0.00032514958 6.8434903e-05 0.00010017246)
(0.00040624189 0.0001089875 0.00013763708)
(0.00049579285 0.00016073893 0.00018244584)
(0.00059063828 0.00022625135 0.00023690182)
(0.00068931401 0.00030638731 0.00029928241)
(0.00078560076 0.00040395109 0.0003697872)
(0.00087337768 0.0005171451 0.00044561894)
(0.00094625026 0.00064928198 0.00052434802)
(0.00099413055 0.00079662373 0.00060144158)
(0.0010080825 0.00096049641 0.00067335625)
(0.00097882977 0.0011364918 0.0007324766)
(0.0008938428 0.0013204176 0.00077363715)
(0.00075182415 0.0015110314 0.00079621979)
(0.00054753407 0.0016995899 0.00079184125)
(0.00027670898 0.0018839274 0.00076222908)
(-5.0714345e-05 0.0020594984 0.00071213133)
(-0.00042907786 0.0022182796 0.00063865387)
(-0.00085196919 0.0023636317 0.00055431958)
(-0.001302735 0.0024848109 0.00046150414)
(-0.0017731985 0.0025847726 0.00036670935)
(-0.0022547118 0.0026635985 0.00027560984)
(-0.002737778 0.0027173322 0.00018998198)
(-0.0032228509 0.0027505506 0.00010932916)
(-0.0037068598 0.0027597866 3.2896965e-05)
(-0.0041928454 0.0027487749 -4.4097885e-05)
(-0.0046838374 0.0027129818 -0.00012522962)
(-0.0051809101 0.0026543057 -0.00021410294)
(-0.0056836776 0.0025686948 -0.00031333612)
(-0.0061903243 0.002455399 -0.00042410477)
(-0.006695154 0.0023091203 -0.00054547738)
(-0.0071887471 0.0021313487 -0.00067556754)
(-0.0076625536 0.0019191533 -0.00081012846)
(-0.0081074286 0.0016717345 -0.00094670354)
(-0.008512717 0.0013900545 -0.0010811593)
(-0.0088694588 0.0010752124 -0.0012103687)
(-0.0091710073 0.00072942426 -0.0013323623)
(-0.0094119858 0.0003551803 -0.0014458475)
(-0.0095892351 -4.4910036e-05 -0.0015505971)
(-0.0097009681 -0.00046829834 -0.0016471541)
(-0.0097464044 -0.00091273096 -0.0017363796)
(-0.0097251211 -0.0013763589 -0.0018192539)
(-0.00963654 -0.001857732 -0.001896395)
(-0.0094794617 -0.0023558128 -0.0019679004)
(-0.0092519132 -0.0028698779 -0.0020332136)
(-0.0089512076 -0.0033994461 -0.0020912684)
(-0.0085742365 -0.0039441695 -0.0021407806)
(-0.0081179618 -0.0045037312 -0.0021806666)
(-0.0075798799 -0.0050777462 -0.0022104669)
(-0.0069584267 -0.0056656896 -0.0022306585)
(-0.0062530949 -0.0062668599 -0.0022427265)
(-0.0054643396 -0.006880336 -0.0022490389)
(-0.0045931569 -0.0075050726 -0.0022523873)
(-0.0036405614 -0.0081398649 -0.0022555317)
(-0.0026070268 -0.0087835083 -0.0022605489)
(-0.0014921599 -0.0094347652 -0.002268646)
(-0.0002943828 -0.010092552 -0.0022795979)
(0.00098861907 -0.010755652 -0.0022925312)
(0.0023598762 -0.011423195 -0.0023052903)
(0.0038221457 -0.012093905 -0.0023161752)
(0.0053781466 -0.012767079 -0.0023228093)
(0.0070291925 -0.013441026 -0.0023243371)
(0.0087756365 -0.014114764 -0.0023195136)
(0.01061676 -0.014786705 -0.0023106264)
(0.012552281 -0.015453196 -0.0022913382)
(0.014582122 -0.01611993 -0.0022701796)
(0.016701049 -0.016774702 -0.0022424593)
(0.018912434 -0.017426078 -0.0022090046)
(0.021211963 -0.018065825 -0.0021697136)
(0.02360064 -0.018696952 -0.00212354)
(0.02607563 -0.019315709 -0.0020705941)
(0.028636321 -0.019922538 -0.0020098064)
(0.031280627 -0.020515529 -0.001942198)
(0.034004848 -0.021093372 -0.0018677264)
(0.036807151 -0.021655318 -0.001787513)
(0.039683252 -0.022199184 -0.0017025537)
(0.042629835 -0.022723759 -0.0016134999)
(0.045642896 -0.023228251 -0.0015214293)
(0.048719834 -0.023709761 -0.0014262743)
(0.051854506 -0.024168833 -0.001329686)
(0.055046952 -0.024603491 -0.0012291895)
(0.058289535 -0.025012907 -0.0011279353)
(0.061581034 -0.025395899 -0.0010251057)
(0.064917039 -0.025756256 -0.00091823628)
(0.068295297 -0.026086509 -0.00081342191)
(0.071707269 -0.026392692 -0.00070699145)
(0.075166004 -0.026680158 -0.00060093498)
(0.078652713 -0.026948178 -0.00048464737)
(0.082213714 -0.027183673 -0.0003913551)
(0.085844692 -0.027475817 -0.00024180732)
(0 0 0)
(0 0 0)
(0 0 0)
(0 0 0)
(0 0 0)
(0 0 0)
(0 0 0)
(0 0 0)
(0 0 0)
(0 0 0)
(0 0 0)
(0 0 0)
(0 0 0)
(0 0 0)
(0 0 0)
(1.5316385e-05 -7.8758464e-06 1.0926357e-05)
(4.6707192e-05 -1.9275638e-05 3.5581429e-07)
(8.8500353e-05 -1.5586522e-05 -1.4054055e-05)
(0.00013683933 -1.1260142e-05 -3.0642894e-05)
(0.00019274875 5.9811099e-06 -5.0989271e-05)
(0.0002574383 2.2749787e-05 -7.5988092e-05)
(0.00033041574 5.5784589e-05 -0.00010755486)
(0.00041268541 8.9482149e-05 -0.00014454671)
(0.00050359378 0.00014592031 -0.00019370802)
(0.00059979978 0.00020610991 -0.0002490991)
(0.00070025114 0.00028485567 -0.00031326541)
(0.00080217502 0.00038824598 -0.00038690724)
(0.00089004586 0.00049574468 -0.00046523896)
(0.00097256899 0.00063621506 -0.00054675084)
(0.0010163829 0.00078173014 -0.00062612254)
(0.0010384618 0.00094896147 -0.00069708486)
(0.001011086 0.0011256934 -0.00075339732)
(0.0009196961 0.0013178708 -0.00079488876)
(0.00078377836 0.0015012068 -0.00080500672)
(0.00056030557 0.0017053509 -0.00079123181)
(0.00029198168 0.0018794713 -0.00075319897)
(-4.4384259e-05 0.0020498932 -0.00068582242)
(-0.00043286794 0.0022251129 -0.00060143504)
(-0.00086246025 0.0023627584 -0.00050509992)
(-0.0013175862 0.0024856726 -0.00040517111)
(-0.0017916916 0.0025897049 -0.00030759703)
(-0.0022735748 0.0026632385 -0.00021964175)
(-0.0027531113 0.0027274136 -0.00013455605)
(-0.0032396878 0.0027567955 -6.0445741e-05)
(-0.0037166448 0.0027715746 1.3432211e-05)
(-0.0042054636 0.0027587052 8.9322355e-05)
(-0.0046952769 0.0027263574 0.00017149798)
(-0.0051940579 0.0026682549 0.00026447868)
(-0.0056987565 0.0025835507 0.00036870019)
(-0.0062070377 0.0024750981 0.0004821624)
(-0.0067172754 0.0023254342 0.00060679953)
(-0.0072051866 0.0021553703 0.00073537392)
(-0.0076829506 0.0019424265 0.00086683985)
(-0.0081251989 0.0016960964 0.00099530773)
(-0.0085298534 0.0014133458 0.001121833)
(-0.0088856013 0.0010975141 0.0012421178)
(-0.0091864702 0.00075018815 0.0013560121)
(-0.0094268914 0.00037474051 0.0014624208)
(-0.009603644 -2.5871289e-05 0.0015611392)
(-0.009714532 -0.00044889084 0.0016522583)
(-0.0097586833 -0.00089219657 0.0017361915)
(-0.0097355803 -0.0013542417 0.0018134012)
(-0.0096446876 -0.0018341471 0.0018843077)
(-0.0094849257 -0.0023313518 0.0019489823)
(-0.0092544542 -0.0028455031 0.0020070739)
(-0.0089507027 -0.0033762073 0.0020578462)
(-0.0085706947 -0.0039229282 0.0021003835)
(-0.0081115235 -0.0044849386 0.0021339646)
(-0.0075708804 -0.0050613686 0.0021584212)
(-0.0069474066 -0.0056512647 0.0021744395)
(-0.0062408359 -0.0062536927 0.0021836136)
(-0.0054517453 -0.0068677802 0.0021882862)
(-0.0045811713 -0.007492728 0.0021911086)
(-0.0036299213 -0.0081277999 0.0021945525)
(-0.002598175 -0.0087722116 0.0022003615)
(-0.0014849744 -0.0094251328 0.0022092277)
(-0.00028840004 -0.010085516 0.002220731)
(0.00099438675 -0.010752219 0.0022334261)
(0.0023663846 -0.011423857 0.0022454168)
(0.0038305864 -0.012099092 0.0022546426)
(0.0053889665 -0.01277614 0.0022592497)
(0.0070426091 -0.013454893 0.0022590287)
(0.0087953846 -0.014133165 0.0022514079)
(0.010630891 -0.014797932 0.0022400114)
(0.012575705 -0.015480586 0.0022217723)
(0.014604671 -0.016142687 0.0022005063)
(0.016725893 -0.01680331 0.0021728101)
(0.018938263 -0.017456183 0.0021407133)
(0.021239192 -0.018100163 0.0021031093)
(0.023628721 -0.01873392 0.0020591473)
(0.02610533 -0.0193563 0.002008639)
(0.028667113 -0.019965812 0.0019514554)
(0.03131184 -0.020561203 0.0018877893)
(0.034036705 -0.021141165 0.0018183324)
(0.036838392 -0.021704301 0.0017439111)
(0.039713628 -0.022249428 0.0016653897)
(0.042658705 -0.022774946 0.001583504)
(0.045670348 -0.023279862 0.0014988807)
(0.048744718 -0.023762532 0.0014116579)
(0.051878722 -0.024222062 0.0013222735)
(0.055068146 -0.02465743 0.0012305894)
(0.058310184 -0.025067254 0.0011366174)
(0.061600234 -0.025452238 0.0010414507)
(0.064934943 -0.025809688 0.00094353933)
(0.068312372 -0.026143835 0.00084663492)
(0.071724524 -0.026447965 0.00074627362)
(0.07518168 -0.026736628 0.0006498681)
(0.078666562 -0.02699822 0.00054542052)
(0.082233774 -0.027247381 0.00044660106)
(0.085825481 -0.027547848 0.00031632941)
(0.089867078 -0.023884046 -3.8805745e-05)
(0.089767763 -0.02046861 -0.00012965788)
(0.08971154 -0.01709211 -0.00015093064)
(0.089687588 -0.013894806 -0.00016154679)
(0.089671712 -0.010717026 -0.00012225149)
(0.089682458 -0.007629918 -8.6978374e-05)
(0.089717581 -0.0045543364 -1.7537834e-05)
(0.089775206 -0.0015036406 4.4749418e-05)
(0.089878723 0.0015381757 0.00010590341)
(0.089982888 0.0046023655 0.00017267502)
(0.090145935 0.0076959176 0.0002118459)
(0.090318743 0.010835332 0.00024055324)
(0.090534614 0.014042665 0.00025618652)
(0.090723049 0.017358512 0.00022515071)
(0.091083791 0.020744871 0.00016931011)
(0.087217188 0.024727235 -0.00032365012)
(0.083565869 0.024581238 -0.00041486116)
(0.080025936 0.024536545 -0.00053586164)
(0.076516301 0.024446885 -0.00062377909)
(0.073043768 0.024346019 -0.00074274313)
(0.06961199 0.024207723 -0.00084350123)
(0.066210693 0.024049743 -0.00095215283)
(0.062851473 0.023854982 -0.0010568353)
(0.05953355 0.023633248 -0.0011594271)
(0.056263112 0.023379847 -0.0012606153)
(0.053041913 0.023095796 -0.0013577888)
(0.049876168 0.022782278 -0.0014526447)
(0.046765775 0.022439395 -0.0015446834)
(0.043716789 0.022068329 -0.0016357883)
(0.040732877 0.021669965 -0.0017226287)
(0.037818696 0.021245558 -0.0018060947)
(0.034977222 0.020796129 -0.001884146)
(0.032210981 0.02032317 -0.0019582339)
(0.029524409 0.019827573 -0.0020257764)
(0.026920022 0.019310714 -0.0020870756)
(0.024400498 0.018774338 -0.0021412981)
(0.021968416 0.018218938 -0.0021882912)
(0.019624896 0.017647542 -0.0022287009)
(0.017372541 0.017059172 -0.0022620013)
(0.015210353 0.016458752 -0.0022900257)
(0.01314276 0.01584472 -0.0023121068)
(0.011161563 0.015221404 -0.0023291832)
(0.0092963586 0.014577957 -0.0023351843)
(0.0075038208 0.013944791 -0.0023434676)
(0.0058180307 0.013292173 -0.0023425052)
(0.0042245802 0.012640866 -0.002338609)
(0.0027264295 0.011985328 -0.0023300037)
(0.0013203624 0.011329614 -0.0023201303)
(5.0011299e-06 0.010674735 -0.0023095752)
(-0.0012223117 0.010022674 -0.002300206)
(-0.0023633952 0.009374783 -0.0022927873)
(-0.0034197016 0.0087324751 -0.0022873755)
(-0.0043919581 0.0080969588 -0.0022830892)
(-0.0052802742 0.0074694122 -0.0022781704)
(-0.0060843094 0.0068509322 -0.0022702975)
(-0.0068038111 0.0062426834 -0.0022569801)
(-0.0074388415 0.0056457594 -0.0022360494)
(-0.0079902473 0.0050612692 -0.0022059666)
(-0.0084596404 0.0044901644 -0.0021660689)
(-0.0088494061 0.003933247 -0.0021165136)
(-0.0091622617 0.0033911244 -0.0020581448)
(-0.0094010485 0.0028642041 -0.0019920871)
(-0.0095679533 0.0023529059 -0.0019194731)
(-0.0096648364 0.0018576348 -0.0018411166)
(-0.009692451 0.0013797182 -0.0017575822)
(-0.0096512974 0.00091928493 -0.0016678427)
(-0.0095420971 0.00048104495 -0.0015733945)
(-0.0093650689 6.366862e-05 -0.0014702669)
(-0.0091243312 -0.00032496124 -0.0013620251)
(-0.008821767 -0.0006857764 -0.0012457431)
(-0.0084637724 -0.001013511 -0.0011219501)
(-0.0080576956 -0.0013083565 -0.00099468726)
(-0.0076171179 -0.0015592465 -0.00086520366)
(-0.0071446548 -0.0017858948 -0.00073160178)
(-0.0066510911 -0.0019700676 -0.00060643583)
(-0.0061533479 -0.0021190454 -0.00048777092)
(-0.0056507742 -0.0022446546 -0.00037399919)
(-0.0051484284 -0.0023369047 -0.00027656098)
(-0.004650158 -0.002406352 -0.00018576778)
(-0.0041577311 -0.002447838 -0.00010282295)
(-0.0036672516 -0.0024714313 -2.3072806e-05)
(-0.0031752416 -0.0024680785 5.7273988e-05)
(-0.0026864357 -0.0024457828 0.00013975471)
(-0.002192372 -0.0024005487 0.00023167444)
(-0.0017063984 -0.0023343908 0.0003268659)
(-0.0012303647 -0.0022466912 0.00042714589)
(-0.00077624577 -0.0021284929 0.00052246706)
(-0.00035806748 -0.0019992526 0.0006149131)
(2.5445702e-05 -0.0018541983 0.00069140935)
(0.00035362329 -0.0016836762 0.0007410407)
(0.00061220615 -0.0015119219 0.00077744794)
(0.00082430958 -0.0013339767 0.00077711897)
(0.00095315757 -0.001151442 0.00075900943)
(0.001039057 -0.00098056618 0.00071280071)
(0.0010629517 -0.00081196841 0.00065221553)
(0.0010423056 -0.00065689498 0.00057806463)
(0.00099175053 -0.00051873703 0.00049950719)
(0.00091779252 -0.00040012874 0.00041998484)
(0.00082632489 -0.00029099145 0.00033938188)
(0.00072672776 -0.00020402334 0.0002683596)
(0.00062805659 -0.00013588577 0.0002064175)
(0.00053298064 -7.6726824e-05 0.00014869506)
(0.00044136427 -3.3402478e-05 0.0001038285)
(0.00036058696 -4.2630737e-07 6.6902894e-05)
(0.0002868941 2.0639047e-05 3.8238862e-05)
(0.00022369109 3.5726257e-05 1.4916874e-05)
(0.00016599669 4.4160403e-05 -2.1117129e-06)
(0.00011629113 4.8445833e-05 -1.4948971e-05)
(6.94931e-05 4.1572495e-05 -2.07921e-05)
(4.2037445e-05 3.5014327e-05 -2.047119e-05)
(0 0 0)
(0 0 0)
(0 0 0)
(0 0 0)
(0 0 0)
(0 0 0)
(0 0 0)
(0 0 0)
(0 0 0)
(0 0 0)
(0 0 0)
(0 0 0)
(0 0 0)
(0 0 0)
(0 0 0)
(0 0 0)
(0 0 0)
(0 0 0)
(0 0 0)
(0 0 0)
(0 0 0)
(0 0 0)
(0 0 0)
(0 0 0)
(0 0 0)
(0 0 0)
(0 0 0)
(0 0 0)
(0 0 0)
(0 0 0)
(0.08990688 -0.027838648 -4.7041895e-05)
(0.089946406 -0.027915403 -5.3855484e-05)
(0.089963214 -0.02795013 -5.8234768e-05)
(0.089989159 -0.027985983 -5.1879184e-05)
(0.090007727 -0.028008111 -3.8108434e-05)
(0.090024853 -0.02802435 -1.4820763e-05)
(0.090033493 -0.028032829 1.0915494e-05)
(0.090037098 -0.028037278 4.284678e-05)
(0.090033587 -0.028036589 7.2391748e-05)
(0.090021326 -0.028031913 9.7365779e-05)
(0.090015127 -0.028028082 0.00012331604)
(0.089987716 -0.028003778 0.00013398884)
(0.089971363 -0.02798454 0.00014159063)
(0.089944748 -0.027942949 0.00013952931)
(0.089929999 -0.027904458 0.00012397542)
(0.091373011 0.024904476 0.00018518852)
(0.091406045 0.024931422 0.0002058898)
(0.091427454 0.024965229 0.00018914015)
(0.091463357 0.024992414 0.00017612573)
(0.091476134 0.024998152 0.00015943551)
(0.091495341 0.025004506 0.00012879403)
(0.091505822 0.025008279 0.00010011278)
(0.091510249 0.025004829 6.6007121e-05)
(0.091507218 0.024998675 3.2709617e-05)
(0.091496258 0.024988645 5.1394436e-06)
(0.091480859 0.024969039 -2.2204954e-05)
(0.091458333 0.024947852 -4.012037e-05)
(0.091438527 0.024923028 -3.771323e-05)
(0.09141115 0.024856191 -6.5640521e-05)
(0.091400994 0.02485461 -4.3797987e-05)
(3.0796281e-05 1.160863e-05 2.042668e-05)
(7.4851938e-05 1.214351e-05 1.2750318e-05)
(0.00012310508 1.0423698e-05 7.6616459e-06)
(0.00017750317 3.0363722e-06 -4.3853928e-06)
(0.00023776738 -1.0936226e-05 -2.0053814e-05)
(0.00030614526 -3.1367096e-05 -4.0947816e-05)
(0.00038286235 -5.9789008e-05 -6.7551426e-05)
(0.00046863199 -9.6821309e-05 -0.000100707)
(0.00056215945 -0.00014344106 -0.00014076094)
(0.00066141707 -0.00020055584 -0.00018786594)
(0.00076375471 -0.00026862636 -0.00024161514)
(0.00086384366 -0.00034765313 -0.00030049358)
(0.0009554251 -0.00043834964 -0.00036280682)
(0.0010305501 -0.0005389506 -0.00042601922)
(0.0010801276 -0.00064856606 -0.00048659963)
(0.0010952786 -0.00076569444 -0.00053998713)
(0.0010667909 -0.00088867781 -0.00058300915)
(0.00098653239 -0.0010150086 -0.00061133878)
(0.00084601797 -0.0011409826 -0.0006226214)
(0.00064329507 -0.0012671441 -0.00061324859)
(0.00037894904 -0.0013887998 -0.00058467515)
(5.2848435e-05 -0.0015049807 -0.00053780686)
(-0.00032510265 -0.0016150587 -0.00047516417)
(-0.00074663862 -0.0017144817 -0.00040168185)
(-0.0012035279 -0.0018036225 -0.00032149029)
(-0.0016824855 -0.0018798535 -0.00023996602)
(-0.0021741105 -0.0019409074 -0.00015930878)
(-0.0026715315 -0.0019846227 -8.3057541e-05)
(-0.0031714468 -0.0020096385 -1.0312201e-05)
(-0.003670245 -0.002013981 5.9216902e-05)
(-0.0041698776 -0.0019950021 0.00012917622)
(-0.0046730169 -0.0019540634 0.00020196031)
(-0.0051805689 -0.001887268 0.00027991434)
(-0.0056937877 -0.0017949938 0.00036650376)
(-0.0062098571 -0.0016786695 0.00046193902)
(-0.0067241502 -0.0015339878 0.00056476104)
(-0.0072307273 -0.0013650396 0.00067254246)
(-0.0077183347 -0.0011677342 0.00078409337)
(-0.0081770861 -0.00094492588 0.00089520201)
(-0.0085959651 -0.00069417678 0.0010020089)
(-0.0089658481 -0.00041645532 0.0011043703)
(-0.0092762995 -0.000112123 0.0011995582)
(-0.0095263657 0.00021661103 0.0012884573)
(-0.0097084162 0.00056980112 0.0013695903)
(-0.0098229111 0.00094433132 0.0014461926)
(-0.0098683821 0.0013392077 0.0015175607)
(-0.0098456582 0.0017521859 0.0015853121)
(-0.0097543927 0.0021815955 0.0016495066)
(-0.0095941057 0.0026257886 0.0017098483)
(-0.0093631852 0.0030835969 0.0017655516)
(-0.0090594183 0.0035540054 0.0018154546)
(-0.0086799152 0.0040364702 0.0018583295)
(-0.0082216575 0.0045305835 0.0018932715)
(-0.0076818634 0.0050361739 0.0019199005)
(-0.0070583194 0.0055530387 0.0019385649)
(-0.0063495733 0.0060808793 0.0019503877)
(-0.0055549221 0.0066190927 0.0019571073)
(-0.0046742452 0.0071668336 0.0019606552)
(-0.0037075572 0.0077227728 0.0019631403)
(-0.0026549399 0.0082851523 0.0019660535)
(-0.0015157683 0.0088522936 0.0019703557)
(-0.0002893041 0.0094221465 0.001975992)
(0.0010263536 0.0099927044 0.0019826888)
(0.0024329078 0.010561816 0.0019893157)
(0.0039312496 0.011129193 0.0019939968)
(0.0055269412 0.011692538 0.0019956897)
(0.0072182217 0.01225069 0.0019964494)
(0.0090020033 0.012803064 0.0019910535)
(0.010881656 0.013348156 0.0019838098)
(0.012857848 0.013883284 0.0019692889)
(0.014927103 0.014411192 0.001951161)
(0.017088801 0.014925935 0.0019290624)
(0.019342633 0.015429598 0.0019018101)
(0.021685399 0.015917616 0.0018711555)
(0.02411891 0.016391777 0.0018340137)
(0.026638901 0.01684554 0.0017924594)
(0.029244866 0.017287654 0.0017434705)
(0.031934884 0.017701827 0.0016917932)
(0.034702875 0.018107342 0.0016313449)
(0.037552273 0.018480632 0.0015703557)
(0.040468627 0.018841399 0.0015025902)
(0.043462385 0.019173107 0.0014345608)
(0.046514706 0.019482731 0.0013602062)
(0.049631335 0.019767189 0.0012883168)
(0.052801654 0.020028205 0.0012076299)
(0.056035334 0.020258863 0.0011324816)
(0.059313281 0.020461103 0.0010523262)
(0.062639897 0.020644375 0.00096660673)
(0.066008314 0.020796988 0.00088120614)
(0.069414623 0.020901729 0.00080754823)
(0.07285825 0.021028951 0.00069310931)
(0.07632942 0.021078177 0.00062550053)
(0.079852961 0.021082337 0.00051699267)
(0.083409979 0.021147064 0.00038455154)
(0.087069503 0.020975085 0.00023901718)
(3.1805889e-05 5.8616722e-06 1.1872398e-05)
(7.6660246e-05 -3.1311177e-06 9.359809e-06)
(0.00012847953 -9.2241931e-06 5.2438582e-06)
(0.00018500333 -2.1543342e-05 -4.249641e-06)
(0.00024883885 -3.8438704e-05 -1.7652136e-05)
(0.00032035399 -6.1137467e-05 -3.5495909e-05)
(0.00040069996 -9.0491927e-05 -5.837692e-05)
(0.00048983403 -0.00012706326 -8.6746434e-05)
(0.00058693173 -0.00017130699 -0.0001208182)
(0.00069007743 -0.00022360351 -0.0001605765)
(0.00079577662 -0.0002839794 -0.00020554786)
(0.00089881512 -0.00035199298 -0.00025473468)
(0.00099282042 -0.00042710994 -0.00030656608)
(0.0010699341 -0.00050815318 -0.00035870399)
(0.0011212548 -0.00059418488 -0.00040815061)
(0.0011368558 -0.00068352311 -0.00045206072)
(0.0011078749 -0.00077489126 -0.00048691318)
(0.0010258786 -0.0008663623 -0.00051014713)
(0.00088490898 -0.00095766275 -0.00051807484)
(0.00068113128 -0.0010472079 -0.00051027645)
(0.00041371896 -0.0011348 -0.0004866382)
(8.7130123e-05 -0.0012195506 -0.00044724069)
(-0.00029304229 -0.0013005172 -0.00039566363)
(-0.00071778447 -0.0013771736 -0.00033478765)
(-0.0011766496 -0.0014470941 -0.00026823275)
(-0.0016586743 -0.0015097968 -0.00019945067)
(-0.0021553717 -0.0015608702 -0.00013197455)
(-0.0026597451 -0.0015989413 -6.7139647e-05)
(-0.0031666952 -0.0016206297 -4.6233234e-06)
(-0.0036747927 -0.0016239034 5.5940246e-05)
(-0.0041853571 -0.0016064722 0.00011625898)
(-0.004698762 -0.0015669629 0.00017947548)
(-0.0052168646 -0.0015057667 0.00024739277)
(-0.0057404093 -0.0014222741 0.00032180042)
(-0.0062669935 -0.0013169913 0.00040227264)
(-0.0067924096 -0.0011902107 0.00048881317)
(-0.0073081665 -0.00104245 0.00057957333)
(-0.0078056391 -0.00087319797 0.00067283154)
(-0.0082740988 -0.00068362569 0.00076545356)
(-0.0087015737 -0.00047173459 0.00085593575)
(-0.0090806911 -0.00023880323 0.00094182734)
(-0.0094023549 1.5511846e-05 0.001023847)
(-0.0096606094 0.00029200283 0.0010985866)
(-0.0098526344 0.00058856307 0.0011696015)
(-0.0099760216 0.00090462715 0.0012355858)
(-0.010030609 0.0012389142 0.0012982373)
(-0.010016117 0.0015897122 0.0013573403)
(-0.0099325479 0.0019553499 0.0014132986)
(-0.0097792002 0.0023342251 0.001465576)
(-0.0095547177 0.002724999 0.001513573)
(-0.0092569391 0.0031265819 0.0015562516)
(-0.0088832008 0.0035383904 0.0015926905)
(-0.0084306368 0.0039600089 0.0016222371)
(-0.0078966073 0.0043914107 0.0016446306)
(-0.0072789258 0.0048324904 0.0016603386)
(-0.0065761286 0.0052831595 0.0016703106)
(-0.0057873838 0.0057429863 0.0016760495)
(-0.0049123337 0.0062111655 0.0016792386)
(-0.0039509167 0.0066864408 0.0016815811)
(-0.0029028295 0.007167161 0.001684251)
(-0.001767566 0.0076515436 0.001688127)
(-0.00054407708 0.0081375251 0.0016929627)
(0.00076928221 0.0086230372 0.0016990486)
(0.002173841 0.0091068658 0.0017042407)
(0.0036716567 0.0095887385 0.0017082313)
(0.0052662328 0.010065837 0.0017110019)
(0.0069462472 0.010537946 0.0017108587)
(0.0087277023 0.011002325 0.0017071047)
(0.010608815 0.011459931 0.0016964992)
(0.012584934 0.011911249 0.0016847107)
(0.014654703 0.012354992 0.0016689903)
(0.016816563 0.012786592 0.0016511718)
(0.019071298 0.013208871 0.0016281575)
(0.021416966 0.013614992 0.0016030973)
(0.023853114 0.014011718 0.0015697108)
(0.026375763 0.014387194 0.0015371011)
(0.028986055 0.0147555 0.0014926718)
(0.031678779 0.015094801 0.001452539)
(0.034452878 0.015434234 0.001396234)
(0.03730453 0.015733549 0.0013513821)
(0.040229655 0.016038729 0.0012862959)
(0.043225718 0.016301141 0.0012349167)
(0.046286884 0.016559095 0.0011697316)
(0.04941325 0.016779225 0.0011057145)
(0.052600976 0.01699952 0.0010335322)
(0.055836495 0.017169593 0.00097410808)
(0.059127266 0.017338618 0.00089709222)
(0.062455534 0.017466723 0.00082718126)
(0.065845475 0.017562088 0.00075847874)
(0.069248729 0.017659784 0.00066173385)
(0.072721089 0.017695935 0.0005898082)
(0.076197095 0.017701469 0.00049488796)
(0.07974423 0.017702058 0.00037885388)
(0.083322193 0.017624803 0.00025937958)
(0.087006819 0.017511555 0.0001112257)
(3.7229249e-05 1.5325223e-06 7.7434146e-06)
(8.4444218e-05 -8.7292973e-06 5.7324757e-06)
(0.00013655226 -1.8910954e-05 3.8986483e-06)
(0.00019552201 -3.2893756e-05 -4.0773461e-06)
(0.00026152578 -5.1025484e-05 -1.5007319e-05)
(0.00033577838 -7.3326162e-05 -3.0014414e-05)
(0.00041885608 -0.00010112961 -4.9240244e-05)
(0.00051084067 -0.00013458834 -7.2873362e-05)
(0.00061069227 -0.00017396706 -0.00010119465)
(0.00071618315 -0.00021936121 -0.00013397572)
(0.00082369853 -0.00027042126 -0.00017093678)
(0.00092810344 -0.00032659493 -0.00021106772)
(0.0010228302 -0.00038711956 -0.00025302251)
(0.001099856 -0.00045093485 -0.00029493482)
(0.0011501355 -0.00051678817 -0.00033466309)
(0.0011644396 -0.0005836268 -0.00036945434)
(0.0011336738 -0.00065033522 -0.00039686362)
(0.0010500632 -0.00071628759 -0.00041409805)
(0.0009070802 -0.00078061506 -0.00041965285)
(0.00070151967 -0.00084368134 -0.00041228262)
(0.00043396729 -0.00090521086 -0.0003915387)
(0.00010669394 -0.00096528567 -0.00035887173)
(-0.00027351515 -0.0010242505 -0.00031606912)
(-0.00069815784 -0.0010805462 -0.00026594579)
(-0.0011575805 -0.0011340323 -0.00021113932)
(-0.0016417633 -0.0011816848 -0.00015518479)
(-0.0021418911 -0.0012220448 -9.9705047e-05)
(-0.0026505873 -0.0012516679 -4.5912235e-05)
(-0.003164344 -0.0012680297 5.7936571e-06)
(-0.0036809189 -0.0012686925 5.6113467e-05)
(-0.0041999757 -0.0012515621 0.00010724661)
(-0.0047233384 -0.0012160307 0.00016050924)
(-0.0052518228 -0.0011614845 0.00021766659)
(-0.0057852181 -0.0010876162 0.00027932753)
(-0.0063212072 -0.00099619151 0.0003463745)
(-0.0068541504 -0.0008868238 0.00041794375)
(-0.0073772233 -0.00076079949 0.00049241637)
(-0.0078815375 -0.00061814519 0.00056800874)
(-0.0083561383 -0.0004588885 0.00064410213)
(-0.0087915687 -0.0002841441 0.00071707946)
(-0.0091784685 -9.1212986e-05 0.00078821143)
(-0.0095076693 0.0001185692 0.00085442502)
(-0.0097746292 0.00034589979 0.0009172005)
(-0.0099754698 0.00059040834 0.00097588617)
(-0.010107823 0.00085143472 0.0010315595)
(-0.010170937 0.0011278841 0.0010843019)