/*--------------------------------*- C++ -*----------------------------------*\
  =========                 |
  \\      /  F ield         | OpenFOAM: The Open Source CFD Toolbox
   \\    /   O peration     | Website:  https://openfoam.org
    \\  /    A nd           | Version:  6
     \\/     M anipulation  |
\*---------------------------------------------------------------------------*/
FoamFile
{
    version     2.0;
    format      ascii;
    class       pointScalarField;
    location    "1.34";
    object      E;
}
// * * * * * * * * * * * * * * * * * * * * * * * * * * * * * * * * * * * * * //

dimensions      [1 -1 -2 0 0 0 0];

internalField   nonuniform List<scalar> 
625
(
41553.444
35618.034
1873.7727
352.63271
38317.069
36272.622
1328.3722
1056.351
8656.9665
2507.8438
19865.417
3193.2098
-1582.9389
1383.1889
46650.792
35975.828
29814.529
26123.453
17660.271
14993.781
9707.6296
5995.5757
4362.2079
680.45466
-556.03977
-1970.5608
-2409.5439
-3362.9536
-2961.3312
-3147.2162
-2625.3775
-2111.2349
-874.05727
-752.95411
1316.8163
119.91473
2049.4582
53250.856
30387.993
42434.079
33189.288
25849.096
28669.607
16708.261
17429.065
14481.414
9871.828
10435.359
7405.9062
7100.7938
5763.7751
5612.6078
4919.7145
4935.5016
4681.8171
5189.4599
4338.8799
5856.1704
3903.4769
5007.7147
8690.9069
2808.1443
18859.664
70524.947
77769.057
37493.502
47990.02
43383.568
21795.908
24319.237
18415.03
13472.635
13509.493
7337.9181
8891.0842
5931.2583
5674.5928
5650.1247
4452.1844
4911.9797
4232.7508
4005.6693
3439.7674
2746.5749
1905.4654
2113.057
930.79255
-3989.4496
3329.3034
2984.1912
369.93334
1156.0931
161.85219
-391.00285
-1139.2356
-1705.3673
-2109.2202
-2124.8246
-1811.9654
-1829.7797
139.56231
1189.3331
4342.0567
3691.8046
6917.5342
13174.627
16507.444
21442.221
22630.514
35757.703
38444.427
54130.54
29344.425
31201.572
30429.51
29134.243
28534.767
28513.07
-302.23137
875.48884
26.132089
946.13138
1699.6505
951.05285
19528.288
11421.188
12404.412
9505.1599
6310.207
6163.4506
3017.1618
2073.1286
971.91333
-207.09813
-34.538614
-956.25375
-1119.4216
-1307.4224
-1229.3572
-1305.2021
-826.50691
-851.71564
-148.68931
44.865351
1125.1623
-10.317461
4414.9059
8415.2757
6049.7175
7649.7064
5817.4636
6525.1445
6232.2917
4026.7953
5432.9145
3363.3993
3752.5201
2693.3652
2330.3399
2005.0117
1629.8516
1208.005
940.01334
597.77311
170.16152
404.39895
-666.58152
300.35923
-919.28925
5023.119
17699.003
14923.738
14107.271
10898.739
10109.78
5163.1527
5700.6244
2507.8542
851.73274
712.47802
-1689.6629
-1439.4053
-2838.6785
-2974.722
-3650.7836
-3395.9388
-3643.7083
-2839.1958
-2880.051
-868.85264
-787.59311
1696.3036
4237.3055
4510.5701
5664.2388
4974.4183
1633.8366
1350.6724
3263.2157
10417.809
11508.908
11586.945
59437.518
61755.102
63750.587
62272.777
56462.519
57935.601
40646.985
34066.922
43486.224
40500.398
41714.383
37853.412
37131.029
27283.121
38041.444
28948.881
28169.307
27359.724
27275.821
20427.255
24975.485
21808.981
13724.956
20741.271
17753.707
14756.591
15674.796
18062.26
9576.9498
15545.801
12876.194
9143.8706
11095.686
13408.601
7101.8157
10707.715
10277.868
6496.2064
9605.2628
10389.495
5810.1384
8181.6332
8952.9915
5355.5516
8343.4394
8274.4079
5279.6014
7418.5228
7735.4115
5077.6917
6972.0582
6869.2658
4874.9859
6597.785
6320.0516
4983.3008
5974.8943
5400.8254
4594.4884
5053.1008
4502.476
4129.7267
4174.6188
2992.5132
3336.2183
3033.8329
2861.6988
2707.7504
2525.1528
3270.1135
3885.4324
2969.1101
-2558.9947
-1847.8692
-4144.4341
3022.143
3200.8421
2072.7662
48648.34
43703.315
41486.08
43950.454
38467.187
39961.35
38970.268
36004.189
37343.867
28429.079
25895.825
25416.451
24957.902
23024.989
23967.901
18373.295
14575.624
18335.452
13389.298
13173.962
14319.399
10550.855
7816.8979
10754.628
6651.0367
6550.4609
7344.0328
4638.078
2452.225
6707.5258
2145.1082
1675.3553
3375.9064
1897.3259
-564.54523
2940.0995
-104.10541
-963.04586
1555.836
79.503243
-1871.696
972.17382
-417.94827
-1957.0033
847.74003
-493.90252
-2041.3599
573.89389
-63.021777
-1657.7459
752.98611
54.202975
-1287.3007
948.28285
886.72774
-281.38785
1274.9478
697.03993
70.732466
1201.6967
2132.3909
1682.6765
1866.5469
899.16149
119.92536
331.51498
2625.7927
2156.1104
2334.5068
28830.105
23308.041
19481.919
17684.125
15533.665
10392.404
10895.062
6624.976
5486.6577
3286.4763
2626.6035
1425.9953
153.75702
-665.07852
-1133.8061
-1531.8584
-1765.2453
-1557.5679
-1347.6235
-670.51432
808.46579
719.08898
5568.1456
4209.2239
13442.489
2212.6503
9450.9972
5491.5841
7649.1289
6290.9932
6584.0073
7037.6052
6012.1021
5934.7519
6323.7208
5047.68
5587.2908
5227.4567
4912.8099
4987.3062
4739.3075
4596.4491
4145.3945
4361.0744
1245.6584
7997.7685
26682.775
10713.1
17695.947
7312.2192
10912.374
5978.5732
1724.1816
3777.4154
-3256.9615
-638.27381
-4218.4538
-4015.2243
-5043.8596
-5239.6031
-5380.1376
-5103.9596
-4620.6333
-3924.8397
-2710.6145
-1215.8781
251.40143
2396.26
4099.4582
24618.973
22322.815
21270.435
20471.566
21112.911
19552.34
17854.69
18100.858
17421.188
13612.748
13688.098
12998.444
12615.067
11984.062
13479.492
9490.6631
9098.353
8543.4611
7321.8423
6843.5702
8323.5765
5884.2046
5751.1438
6039.8772
4463.1984
2669.7111
4185.3371
3198.2643
2901.5017
3955.9633
2666.2528
1505.1322
1826.0439
1229.7594
501.67398
2020.6409
1166.0608
286.30076
974.67686
660.12519
-318.51318
597.62137
363.24197
-667.90618
104.92821
292.37376
-606.45623
19.120047
255.18568
-730.73041
-290.21691
245.48019
-436.16274
-348.92286
539.23584
-317.77108
-143.00111
-246.99653
543.21107
-490.97875
69.308178
2188.8691
298.16126
919.21835
-3.3258556
-926.75299
4235.987
4269.8198
4211.5857
6479.9824
6183.235
5239.879
9605.5505
13906.895
13733.502
5539.6615
3079.3811
3587.331
6321.193
8793.7602
9152.1328
6672.2199
4488.3924
4232.3953
5580.1624
4801.9556
5781.2061
4713.1657
4203.9988
4219.8203
5941.8189
3802.2153
3452.4085
3605.0856
2958.0302
3527.724
4711.9132
3401.3335
3036.1132
4004.4853
2139.0271
2539.4266
3711.3545
2358.7887
2649.8264
3753.843
2344.0444
2111.6674
3213.1522
1771.7982
1727.251
3278.9521
2002.7837
1855.8999
2845.1927
1576.7979
1319.7749
2782.0849
1678.9444
1272.2632
2402.2956
1273.4
960.35414
2454.0586
1625.801
1014.4338
2282.0457
753.4922
387.61929
3931.0317
-668.76905
1840.1493
552.2397
-194.87964
-1050.7805
5586.7329
5853.5871
5889.0208
21420.564
22880.446
24457.982
12302.177
11270.242
15303.511
13999.493
19932.7
19743.578
12141.184
9494.2958
10821.355
8237.7656
11263.389
11683.977
6626.6183
6534.1271
7896.9216
6158.7549
4561.96
5753.0935
2001.7639
2906.6515
5507.6308
2763.2802
786.21198
2836.2512
905.78579
-159.05589
2239.0943
-324.82586
-2021.8114
1036.9425
-372.85821
-2278.018
208.13805
-1420.1051
-3807.5866
-270.02065
-1412.1814
-3805.1113
-727.65385
-1676.9489
-4521.3974
-909.37662
-1590.3137
-4238.9411
-897.63161
-1302.1027
-4267.1238
-685.37093
-952.23653
-3359.8404
-310.38289
-239.20383
-3118.2731
-24.646321
402.95535
-953.46434
1140.7404
1122.3587
-611.67669
956.38069
2496.7518
2563.2641
3777.7961
4306.2929
3196.9497
3589.9975
)
;

boundaryField
{
    free
    {
        type            zeroGradient;
    }
    fixed
    {
        type            zeroGradient;
    }
    freeTop
    {
        type            zeroGradient;
    }
}


// ************************************************************************* //
