/*--------------------------------*- C++ -*----------------------------------*\
  =========                 |
  \\      /  F ield         | OpenFOAM: The Open Source CFD Toolbox
   \\    /   O peration     | Website:  https://openfoam.org
    \\  /    A nd           | Version:  6
     \\/     M anipulation  |
\*---------------------------------------------------------------------------*/
FoamFile
{
    version     2.0;
    format      ascii;
    class       pointVectorField;
    location    "1.22";
    object      lm;
}
// * * * * * * * * * * * * * * * * * * * * * * * * * * * * * * * * * * * * * //

dimensions      [1 -2 -1 0 0 0 0];

internalField   nonuniform List<vector> 
625
(
(0 0 0)
(0 0 0)
(-4919.7135 1728.4414 210.37618)
(-4351.572 2657.6277 135.5435)
(0 0 0)
(0 0 0)
(-4299.6672 2526.3897 131.16148)
(-4866.874 1596.4372 205.65248)
(0 0 0)
(0 0 0)
(0 0 0)
(-4776.9595 1960.2584 191.19236)
(-4636.2066 2192.7856 173.33279)
(-4494.7744 2425.9842 154.32324)
(-25.915307 -63.731004 -52.158558)
(-82.78379 -129.09558 -53.851613)
(-178.53094 -182.3484 -60.512291)
(-310.92907 -222.69384 -63.818967)
(-463.97654 -244.55516 -68.8709)
(-649.23203 -249.28984 -73.029056)
(-848.74138 -234.15812 -75.791179)
(-1065.3119 -201.04196 -77.158129)
(-1295.139 -150.61071 -76.719791)
(-1532.2575 -82.838585 -72.997188)
(-1776.182 -0.53404848 -67.222697)
(-2023.9625 95.641369 -58.470568)
(-2273.2583 203.70504 -46.712658)
(-2523.1632 321.83275 -32.273922)
(-2772.1845 448.42617 -15.041816)
(-3019.5666 581.52522 4.7672265)
(-3264.8789 720.32221 26.513383)
(-3507.7966 861.69394 50.779979)
(-3748.0386 1006.5297 75.846985)
(-3986.2683 1152.0675 102.57119)
(-4222.1554 1297.2998 129.97166)
(-4456.2796 1442.675 156.79909)
(-4689.1743 1586.1513 184.40321)
(13.842765 45.601265 74.877176)
(-45.080483 93.055012 40.091257)
(-128.0678 168.65455 33.193247)
(-229.22573 231.99679 9.256832)
(-351.99395 299.51172 -11.07093)
(-502.36726 388.95468 -32.179501)
(-659.38383 469.29658 -47.70962)
(-836.35622 563.81155 -65.072795)
(-1023.0117 665.93983 -76.182548)
(-1220.607 772.28535 -85.811516)
(-1425.5681 887.37864 -90.743597)
(-1637.2519 1007.1724 -92.185531)
(-1853.6526 1132.7766 -89.266956)
(-2073.943 1262.5938 -82.500856)
(-2297.0042 1396.2616 -71.752626)
(-2522.0787 1532.6964 -57.439318)
(-2748.5975 1671.4268 -39.694894)
(-2976.1547 1811.4634 -19.170566)
(-3204.2935 1952.356 3.9259258)
(-3433.0412 2093.7285 28.718942)
(-3662.0084 2234.9298 55.007718)
(-3891.6243 2376.0543 81.748018)
(-4121.6167 2516.8433 108.84925)
(0 0 0)
(0 0 0)
(0 0 0)
(-8.9769553 39.680533 -61.181218)
(-37.150503 157.63501 -87.643801)
(-110.86195 188.52787 -87.016075)
(-190.41493 261.32095 -94.313962)
(-309.44272 353.66286 -111.28586)
(-442.29013 405.93262 -113.3374)
(-590.75594 493.91526 -124.18816)
(-759.61229 575.26338 -129.69215)
(-940.13888 663.0391 -133.43598)
(-1132.6028 757.23868 -134.9952)
(-1336.1679 855.53911 -132.53488)
(-1546.3312 960.94111 -127.46155)
(-1764.4011 1071.363 -118.79259)
(-1986.8932 1186.775 -106.73955)
(-2213.5647 1307.6464 -91.614134)
(-2443.15 1432.2603 -73.281977)
(-2674.4965 1561.0936 -52.321813)
(-2907.108 1693.0955 -28.950334)
(-3140.1424 1827.8237 -3.7613285)
(-3373.1142 1964.9017 22.830845)
(-3605.874 2103.5791 50.152074)
(-3837.7929 2243.5588 77.731471)
(-4069.2087 2384.4359 104.99315)
(-4442.9526 2294.4383 150.17605)
(-4584.4249 2059.745 168.61965)
(-4724.4113 1827.3006 187.22649)
(-4636.7865 1454.8934 178.51117)
(-4404.9552 1311.8034 150.85657)
(-4170.7512 1169.4294 123.90494)
(-3934.3381 1028.0595 97.372396)
(-3695.0939 888.40093 72.201767)
(-3452.814 751.44625 48.680605)
(-3207.7817 618.56573 27.330639)
(-2960.0295 490.60698 8.5153318)
(-2710.2786 369.19061 -7.4014903)
(-2459.2634 255.35432 -20.200718)
(-2207.8016 150.80826 -29.668925)
(-1957.9466 56.598288 -35.609862)
(-1710.1468 -25.43356 -38.30902)
(-1468.2071 -94.846758 -37.110854)
(-1232.2061 -150.47895 -32.91715)
(-1007.691 -188.25083 -26.798779)
(-795.65034 -213.64338 -15.949995)
(-599.06985 -221.7819 -5.1511661)
(-425.93895 -212.42436 8.2921242)
(-272.95066 -187.582 18.99682)
(-152.15427 -157.71955 37.080778)
(-59.354742 -103.66339 40.78927)
(-22.131907 -47.953001 38.935419)
(0 0 0)
(0 0 0)
(0 0 0)
(0 0 0)
(0 0 0)
(0 0 0)
(-4338.091 2623.9992 134.04826)
(-4325.0081 2591.9482 132.96326)
(-4312.0813 2559.4029 132.28078)
(-4907.0877 1696.0465 209.05018)
(-4893.3251 1663.3486 207.45664)
(-4879.9039 1630.5783 206.84255)
(3.624072 -35.130667 -40.572381)
(-55.467879 -73.015916 -31.717056)
(-149.14461 -98.429425 -40.802121)
(-272.68271 -111.09384 -45.796038)
(-421.824 -111.50906 -55.157698)
(-598.62802 -93.832242 -61.409113)
(-788.99598 -61.243039 -67.865056)
(-997.72874 -13.584397 -73.148116)
(-1217.46 50.103363 -75.046448)
(-1445.6769 127.80744 -74.742748)
(-1681.5812 218.14761 -71.630364)
(-1920.861 320.64683 -65.245111)
(-2163.1285 433.14946 -55.803929)
(-2406.5212 554.5685 -43.170778)
(-2649.7901 683.1246 -27.59266)
(-2892.5167 817.72036 -9.2771076)
(-3133.528 956.40609 11.547821)
(-3373.3971 1098.2182 34.637403)
(-3610.9463 1242.3848 58.919016)
(-3847.1749 1386.6117 85.151203)
(-4081.268 1531.2927 111.48913)
(-4314.4313 1675.5838 138.35469)
(-4545.9414 1818.2925 165.28755)
(15.74469 -9.6339258 -1.6941615)
(-45.45963 -15.192687 -2.8947098)
(-129.86301 -14.09091 -15.858814)
(-247.50552 -5.162383 -28.769945)
(-391.81638 21.077292 -39.341539)
(-556.71891 57.48795 -51.395613)
(-740.01016 106.91453 -61.653922)
(-938.71385 171.19101 -69.393339)
(-1148.3594 246.79853 -74.579651)
(-1368.2814 334.89043 -77.520108)
(-1594.4089 434.08435 -76.538256)
(-1825.544 542.96059 -72.686066)
(-2059.9042 660.68316 -65.182684)
(-2296.0759 785.63889 -54.515857)
(-2533.0633 916.77618 -40.580352)
(-2770.0296 1052.5865 -23.641613)
(-3006.4546 1191.9749 -4.0306488)
(-3242.2115 1333.9591 17.890319)
(-3476.4121 1477.2047 41.70923)
(-3710.3039 1621.2464 67.11307)
(-3942.4734 1765.1626 93.310428)
(-4174.2853 1908.7791 119.93407)
(-4405.187 2051.7787 146.80503)
(27.519974 15.360702 20.370711)
(-35.950587 30.287214 13.886135)
(-114.69874 54.8061 1.3115419)
(-231.52881 95.255299 -12.331911)
(-366.09179 146.22031 -27.487441)
(-524.01048 201.36463 -42.811206)
(-697.88602 274.51779 -56.105187)
(-885.66347 353.20515 -67.093744)
(-1086.1931 442.95765 -76.011607)
(-1294.9282 543.13055 -81.459723)
(-1511.6508 650.9538 -83.491786)
(-1733.3954 767.22789 -82.023901)
(-1959.272 890.10111 -76.827882)
(-2187.751 1018.8483 -67.968911)
(-2417.8956 1152.3026 -55.577916)
(-2648.9903 1289.5437 -39.909226)
(-2880.5415 1429.4746 -21.261891)
(-3111.7945 1571.272 0.029165356)
(-3343.1756 1714.1218 23.363455)
(-3573.7715 1857.3678 48.488366)
(-3804.3307 2000.3795 74.461897)
(-4034.4444 2143.2645 101.14551)
(-4264.4447 2284.9925 128.0527)
(0 0 0)
(0 0 0)
(0 0 0)
(0 0 0)
(0 0 0)
(0 0 0)
(0 0 0)
(0 0 0)
(0 0 0)
(-19.838944 21.847543 32.558685)
(-28.390661 29.961686 2.1746325)
(-25.904485 18.833512 -21.905952)
(-78.572279 133.25199 11.664423)
(-72.041782 137.11185 -15.92151)
(-67.660817 130.98923 -54.692768)
(-144.16917 182.79532 3.0908658)
(-146.81473 179.40536 -24.050737)
(-140.90792 197.59226 -61.97461)
(-237.77849 250.11101 -19.611678)
(-236.88753 261.54458 -44.956873)
(-220.70851 254.43385 -72.635292)
(-361.92729 332.78526 -36.567415)
(-353.01433 336.03315 -56.924036)
(-339.04708 344.72867 -87.071556)
(-497.40924 406.13909 -53.762768)
(-488.61251 408.70976 -75.931864)
(-471.57849 410.69697 -97.735221)
(-653.33689 489.48534 -70.257278)
(-641.51124 496.64371 -86.07126)
(-621.54712 495.95071 -109.3522)
(-825.97442 581.2653 -83.337711)
(-810.62899 580.33004 -99.36572)
(-789.86919 579.95416 -117.4365)
(-1009.0146 677.05815 -93.590877)
(-991.54496 677.54008 -107.83124)
(-969.68287 670.61259 -123.35866)
(-1203.5616 780.90726 -100.92972)
(-1184.9013 775.98637 -113.15765)
(-1161.6915 768.26873 -126.52496)
(-1406.8265 889.52548 -104.0603)
(-1386.6926 882.40208 -115.17462)
(-1363.4428 870.45287 -126.13116)
(-1616.6298 1004.8091 -103.89069)
(-1596.0737 993.70136 -113.32503)
(-1572.8482 978.91071 -122.29958)
(-1832.7215 1125.0031 -99.315118)
(-1811.952 1110.7579 -107.54696)
(-1788.8381 1092.9251 -114.93872)
(-2052.68 1249.9612 -91.140912)
(-2031.9983 1232.1693 -98.228031)
(-2009.7813 1211.4178 -103.94203)
(-2276.1431 1378.9734 -79.065694)
(-2256.058 1358.274 -85.007888)
(-2234.4856 1334.9797 -89.5243)
(-2501.9564 1511.3568 -63.463245)
(-2482.5375 1487.7379 -68.534824)
(-2462.1756 1462.182 -71.882559)
(-2729.4603 1646.3735 -44.699888)
(-2711.0799 1620.362 -48.863362)
(-2691.6833 1592.8705 -51.310631)
(-2958.1699 1783.4487 -23.107371)
(-2940.6058 1755.4598 -26.535175)
(-2922.5605 1726.4199 -28.211236)
(-3187.4702 1922.0206 0.75303748)
(-3171.1581 1892.3755 -1.9804315)
(-3154.2038 1862.0978 -3.1588058)
(-3417.3568 2061.6141 26.367234)
(-3401.8043 2030.8416 24.175127)
(-3385.9783 1999.6451 23.40811)
(-3647.4137 2201.776 53.130377)
(-3632.8417 2170.2578 51.394306)
(-3617.9798 2138.3787 50.792536)
(-3877.6804 2342.5009 80.295955)
(-3863.6486 2310.3474 78.929515)
(-3849.5562 2277.8784 78.431666)
(-4108.0503 2482.9382 107.75262)
(-4094.5264 2450.5837 106.76806)
(-4081.0436 2418.2574 105.94506)
(-4764.0674 1927.7311 190.27358)
(-4750.742 1895.0187 188.83582)
(-4737.4325 1861.6287 188.29108)
(-4623.2935 2159.4312 172.22015)
(-4609.7616 2126.8142 170.47379)
(-4597.2286 2093.4961 169.93282)
(-4481.1044 2392.9269 152.88472)
(-4467.7892 2360.5485 151.77643)
(-4455.2504 2327.3935 151.07165)
(-49.573935 -51.950253 -24.962225)
(-43.81798 -54.348257 -5.777026)
(-45.038708 -49.337689 14.232862)
(-97.070471 -117.02495 -28.693178)
(-96.122918 -112.63562 0.97895828)
(-87.744632 -103.62937 20.646288)
(-197.86335 -171.92906 -34.426507)
(-188.65457 -163.55269 -15.174798)
(-182.19426 -157.79242 13.598384)
(-316.45095 -207.46862 -40.508501)
(-311.88321 -198.21835 -18.917012)
(-300.56835 -193.59493 1.779603)
(-472.91796 -232.45375 -49.666345)
(-466.61331 -222.10601 -30.216605)
(-452.50915 -215.99253 -11.177885)
(-650.57376 -234.96219 -55.384325)
(-639.26552 -225.8621 -39.8601)
(-626.32113 -221.03489 -21.894429)
(-846.8154 -221.57484 -61.583563)
(-837.00665 -214.86239 -47.417708)
(-821.49773 -210.82694 -31.161113)
(-1061.1795 -191.29234 -66.110879)
(-1049.2334 -185.66434 -53.182617)
(-1032.6297 -185.77575 -40.011282)
(-1287.267 -143.74973 -67.179107)
(-1273.2512 -140.82537 -57.453705)
(-1256.5148 -141.82743 -45.494986)
(-1521.8338 -79.13342 -67.052026)
(-1508.3652 -80.901012 -58.082863)
(-1490.9038 -83.861892 -47.832572)
(-1764.2478 -0.071343389 -62.544319)
(-1749.6987 -5.0423663 -55.536405)
(-1731.9958 -11.840498 -47.527878)
(-2010.3376 91.896951 -55.752365)
(-1995.5268 83.337572 -50.437439)
(-1978.2638 73.638802 -43.646277)
(-2258.9168 195.92332 -45.520151)
(-2244.1592 183.72202 -41.480099)
(-2227.0238 170.72793 -36.204334)
(-2508.4303 310.06452 -32.227127)
(-2493.6862 294.13912 -29.507504)
(-2477.0389 278.27546 -25.57474)
(-2757.3423 432.73927 -15.895176)
(-2742.879 413.5332 -14.380754)
(-2726.7721 394.71782 -11.494389)
(-3005.0064 562.45961 3.0394814)
(-2990.8099 539.97958 3.7467904)
(-2975.3819 518.56364 5.5111402)
(-3250.7126 697.50522 24.718407)
(-3236.8561 672.33662 24.437292)
(-3221.9711 648.54343 25.387201)
(-3493.989 836.40546 48.266872)
(-3480.4203 809.18637 47.38524)
(-3466.2229 783.19138 47.667333)
(-3734.952 978.62999 73.582049)
(-3721.586 949.17559 72.381748)
(-3707.7296 921.29032 72.022001)
(-3973.3798 1121.83 100.36257)
(-3959.9488 1091.3917 98.435629)
(-3946.6678 1061.9386 97.862819)
(-4209.2405 1266.0222 127.75099)
(-4195.9308 1234.2766 125.74904)
(-4182.9334 1203.7911 124.88463)
(-4443.3436 1410.0035 154.48835)
(-4430.3219 1378.1475 153.25715)
(-4417.3057 1346.3535 152.15973)
(-4675.8553 1553.8736 182.82527)
(-4662.8251 1521.3439 181.61683)
(-4649.3095 1488.8613 180.09765)
(8.7050684 -16.49509 20.183248)
(-42.319011 -60.97387 16.784644)
(-119.09767 -67.100337 -0.25636677)
(-238.75682 -82.43695 -5.072203)
(-380.96143 -79.310857 -20.357983)
(-546.48433 -67.741256 -30.674688)
(-734.16194 -42.467874 -40.933706)
(-935.10171 -2.7581459 -49.689865)
(-1151.8391 47.936606 -55.244377)
(-1377.5204 113.59999 -58.919624)
(-1611.3549 189.89566 -58.561561)
(-1850.7272 278.39571 -55.481561)
(-2093.5599 376.94234 -48.84347)
(-2338.5305 484.77314 -38.905506)
(-2584.0174 600.66306 -25.696599)
(-2829.2002 723.44266 -9.4874251)
(-3073.1705 851.92252 9.5329076)
(-3315.3415 984.98814 31.009175)
(-3555.469 1121.6427 54.566383)
(-3793.2669 1260.8696 79.720166)
(-4028.6876 1401.7967 106.06762)
(-4262.4982 1543.7502 133.03366)
(-4493.9409 1685.8307 160.19369)
(25.387248 -6.7550298 -11.288155)
(-24.37568 1.3116065 -18.359725)
(-104.78716 16.398725 -27.719943)
(-215.25187 26.997706 -36.651811)
(-346.5788 52.922556 -47.525131)
(-505.63949 83.37672 -57.860884)
(-680.14561 127.98186 -67.555346)
(-872.78711 179.46085 -74.947207)
(-1077.9702 244.80877 -80.650557)
(-1293.8286 318.59906 -82.652542)
(-1518.2135 403.90349 -82.394366)
(-1748.7877 498.27264 -78.371557)
(-1983.7255 601.65938 -71.249903)
(-2221.7567 712.87795 -60.646415)
(-2461.3274 831.22308 -46.871398)
(-2701.5217 955.44381 -30.092622)
(-2941.4626 1084.878 -10.474403)
(-3180.582 1218.2405 11.457222)
(-3418.2473 1355.0879 35.500881)
(-3654.484 1494.1231 60.867098)
(-3888.8067 1634.994 87.468134)
(-4121.9376 1776.5752 114.27617)
(-4352.6268 1919.5073 141.78248)
(35.424623 30.148629 -32.048597)
(-28.88081 44.132477 -41.875559)
(-96.911282 108.63666 -61.322983)
(-194.78295 125.1317 -63.289604)
(-324.26758 183.53622 -78.016211)
(-469.08609 238.94591 -87.232556)
(-635.00125 296.36733 -94.46703)
(-815.30087 370.03494 -102.07969)
(-1010.0619 444.89853 -105.69726)
(-1215.0723 531.4029 -107.6131)
(-1429.419 624.15199 -106.12215)
(-1650.7694 724.77074 -101.35827)
(-1877.4438 832.49826 -93.542284)
(-2108.1263 946.61189 -82.23472)
(-2341.3499 1066.4966 -67.916147)
(-2576.2785 1191.6162 -50.510751)
(-2811.867 1321.0254 -30.433447)
(-3047.4832 1454.263 -7.9683399)
(-3282.5212 1590.4397 16.417295)
(-3516.7046 1728.9773 42.210802)
(-3749.7525 1869.199 69.08716)
(-3981.5873 2010.6602 96.255254)
(-4212.2952 2152.5495 123.59215)
(-12.435465 -16.913595 -17.87611)
(-8.3645936 -17.902344 -6.6326661)
(-13.984962 -12.744255 10.806478)
(-75.817271 -67.145563 -14.817126)
(-77.301613 -62.418783 -3.5613796)
(-64.924398 -61.330568 7.7761508)
(-164.90957 -83.153335 -24.186528)
(-156.91832 -76.307625 -16.707229)
(-149.17828 -70.023224 -7.031958)
(-282.48754 -98.281152 -33.891318)
(-278.72725 -91.733994 -24.999498)
(-265.39275 -85.178419 -14.772018)
(-430.13102 -96.349508 -42.170629)
(-423.29095 -86.604559 -35.877532)
(-409.69839 -81.164631 -28.10582)
(-599.89144 -78.651854 -52.162965)
(-590.35825 -72.239895 -46.358886)
(-572.74426 -67.552841 -38.665667)
(-787.46899 -48.638639 -60.308282)
(-777.4185 -43.035382 -55.26324)
(-761.03478 -40.029679 -48.732698)
(-992.6002 -3.1212917 -66.50525)
(-980.24641 1.5122849 -62.022635)
(-960.8674 1.9591225 -56.557444)
(-1208.7691 58.204907 -70.706434)
(-1195.2051 58.578422 -67.078598)
(-1176.6046 56.328116 -62.207139)
(-1435.3252 131.42445 -71.555082)
(-1420.8718 129.49416 -68.485413)
(-1401.3012 124.48269 -64.133945)
(-1669.0489 218.4372 -69.601557)
(-1653.4902 212.88312 -67.271939)
(-1634.0224 204.34396 -64.081007)
(-1907.0201 316.50046 -64.498009)
(-1891.2433 307.25568 -62.666995)
(-1872.1057 295.89431 -59.769732)
(-2148.5985 424.85939 -55.902133)
(-2132.5517 412.2142 -54.572885)
(-2113.771 397.47612 -52.555118)
(-2391.4542 542.10079 -44.093409)
(-2375.4615 525.92905 -43.355007)
(-2357.2561 508.22641 -41.871734)
(-2634.7699 666.74564 -29.150027)
(-2618.9368 647.39241 -28.909154)
(-2601.5505 626.69103 -27.946974)
(-2877.5237 797.51656 -11.285607)
(-2862.1172 775.10194 -11.434932)
(-2845.484 751.82095 -11.059937)
(-3119.1708 932.82603 9.2656158)
(-3104.0987 907.99425 8.6191219)
(-3088.2648 882.28124 8.6029394)
(-3359.1853 1071.8729 32.031412)
(-3344.5159 1044.7962 31.098709)
(-3329.6225 1017.0029 30.669945)
(-3597.3577 1213.5204 56.583742)
(-3583.2857 1184.4546 55.476816)
(-3568.7905 1154.773 54.730507)
(-3834.0797 1355.705 82.694643)
(-3819.9122 1325.5827 81.339025)
(-3806.357 1294.8577 80.298171)
(-4068.3902 1499.209 109.32815)
(-4054.4494 1468.4133 108.06988)
(-4041.4717 1436.2338 107.05395)
(-4301.5988 1642.5951 136.56002)
(-4288.3139 1610.947 135.3827)
(-4275.3043 1577.9188 134.0896)
(-4533.3784 1785.5697 164.02006)
(-4520.0563 1753.0747 162.63095)
(-4506.876 1719.89 161.43993)
(2.6577032 -6.0846963 1.1030172)
(1.0151623 -4.8291341 3.3979709)
(-1.8950939 -7.1161061 -3.2840454)
(-59.401746 -8.4658256 1.5260916)
(-60.443803 -6.3813917 -4.2233554)
(-46.074038 -0.61718354 -10.833494)
(-145.6584 -1.8883001 -15.407161)
(-139.12514 5.9516253 -23.098232)
(-132.62085 10.070456 -23.609381)
(-255.05617 10.032879 -25.624892)
(-255.25646 21.58543 -30.322964)
(-239.31694 28.418813 -33.195061)
(-398.24391 36.611626 -38.938191)
(-389.23761 47.136192 -46.864184)
(-372.83135 49.515546 -44.687287)
(-557.13828 72.525137 -52.400667)
(-547.61462 81.553504 -56.409135)
(-531.40887 84.79239 -57.356912)
(-736.90658 120.24845 -61.812136)
(-725.1329 128.96203 -67.171525)
(-705.88158 130.19869 -65.965901)
(-932.20936 182.84081 -71.653247)
(-917.48913 186.92587 -75.727887)
(-898.40569 185.04379 -75.57555)
(-1138.7883 254.63988 -76.781362)
(-1122.8487 256.40635 -80.504646)
(-1103.2247 253.09347 -80.678189)
(-1356.0567 339.43954 -80.380706)
(-1338.9313 337.28148 -83.81818)
(-1318.8533 330.58983 -83.97179)
(-1580.1941 434.53085 -79.910483)
(-1562.0955 428.51493 -82.807731)
(-1542.1429 419.15249 -83.36191)
(-1809.9224 539.17645 -76.205325)
(-1791.6634 529.18525 -78.993456)
(-1771.896 516.75557 -79.755782)
(-2043.4645 652.55257 -68.939889)
(-2025.0229 638.90115 -71.448614)
(-2005.6121 623.48922 -72.463743)
(-2279.1654 773.2832 -58.359003)
(-2260.9462 755.9909 -60.649126)
(-2242.2823 737.58288 -61.901715)
(-2516.1699 900.33787 -44.34363)
(-2498.4739 879.6854 -46.496545)
(-2480.4501 858.60415 -47.874384)
(-2753.4897 1032.3323 -27.358494)
(-2736.3288 1008.7808 -29.360357)
(-2719.1424 985.15991 -30.8854)
(-2990.5058 1168.4122 -7.510564)
(-2973.9938 1142.3642 -9.4121479)
(-2957.6762 1116.3803 -10.967156)
(-3226.779 1307.4235 14.691649)
(-3211.0133 1279.1253 12.895481)
(-3195.4461 1251.3039 11.322784)
(-3461.9711 1448.3251 38.82547)
(-3446.7533 1418.5947 37.18114)
(-3432.0902 1388.8368 35.682117)
(-3696.2819 1590.4559 64.619077)
(-3681.6921 1558.9345 62.960146)
(-3667.3854 1528.6769 61.439864)
(-3928.7158 1733.3709 91.433809)
(-3915.2666 1701.0311 89.205386)
(-3901.0842 1669.6258 88.374977)
(-4161.2438 1875.9309 117.98346)
(-4147.3885 1843.7523 116.75783)
(-4134.2834 1810.8525 115.42254)
(-4392.0326 2018.7336 145.57754)
(-4378.5152 1986.0769 144.29263)
(-4365.4857 1953.2313 143.09397)
(5.6059269 15.022365 8.7270002)
(11.128651 13.273011 -3.3142515)
(12.209472 14.174741 -16.041037)
(-60.234061 40.836616 3.6681643)
(-61.977333 30.936081 -15.427671)
(-52.632394 42.025033 -30.198846)
(-132.8127 74.332109 -11.242373)
(-130.83101 92.805535 -28.063493)
(-125.28761 97.768141 -44.643166)
(-244.50564 122.34441 -22.494181)
(-237.28834 119.68699 -38.994601)
(-225.52853 128.71342 -52.180891)
(-373.00287 166.54228 -40.417625)
(-365.13482 176.8223 -54.651402)
(-353.2161 182.14916 -65.975646)
(-525.29882 226.35617 -52.72383)
(-514.13467 232.80776 -64.94417)
(-498.04828 238.09148 -75.158644)
(-694.41814 295.72814 -66.510329)
(-681.0663 298.45679 -78.44855)
(-663.80247 301.21645 -86.995341)
(-878.08839 370.17115 -77.163226)
(-862.45013 373.0493 -86.159672)
(-843.39756 374.31523 -94.237286)
(-1074.4173 457.09801 -85.153845)
(-1058.0107 456.07818 -94.017436)
(-1037.0612 453.89754 -100.82018)
(-1280.6019 552.03098 -90.427665)
(-1262.4739 548.18067 -97.646324)
(-1241.0726 542.88345 -103.20216)
(-1494.8608 654.95701 -91.783447)
(-1476.4792 647.96411 -97.981029)
(-1454.1822 639.073 -103.07872)
(-1715.1428 766.10448 -89.755133)
(-1696.206 755.48935 -95.172804)
(-1673.8757 743.08274 -99.322886)
(-1940.0931 883.67031 -84.030585)
(-1921.0795 869.91229 -88.495443)
(-1899.0493 853.98258 -92.042352)
(-2168.1572 1007.4869 -74.528825)
(-2149.4606 990.41567 -78.31362)
(-2128.012 971.01422 -81.4183)
(-2398.5033 1136.2216 -61.550496)
(-2380.2007 1116.1067 -64.771735)
(-2359.594 1093.6954 -67.362807)
(-2630.1005 1269.1669 -45.278585)
(-2612.3361 1246.4185 -47.902681)
(-2592.8388 1221.1165 -50.199542)
(-2862.329 1405.3653 -25.930245)
(-2845.3061 1380.1617 -28.204127)
(-2827.0021 1352.4843 -30.17591)
(-3094.6452 1544.0433 -4.0843968)
(-3078.2484 1516.824 -5.9417346)
(-3061.2251 1487.1309 -7.7111073)
(-3326.8372 1684.3029 19.976887)
(-3311.2411 1655.3897 18.342989)
(-3295.3897 1624.33 16.782449)
(-3558.4597 1825.6939 45.627978)
(-3543.3628 1795.6501 44.172631)
(-3528.705 1763.3576 42.744258)
(-3789.8315 1967.6937 72.22795)
(-3775.4482 1936.5181 70.963048)
(-3761.5507 1903.7829 69.731479)
(-4020.5103 2109.7644 99.354668)
(-4006.4805 2078.0504 98.183916)
(-3993.1858 2044.8702 97.211505)
(-4250.8058 2251.5057 126.9019)
(-4237.3834 2219.377 125.6294)
(-4224.5026 2185.793 124.42128)
)
;

boundaryField
{
    free
    {
        type            zeroGradient;
    }
    fixed
    {
        type            fixedValue;
        value           uniform (0 0 0);
    }
    traction
    {
        type            zeroGradient;
    }
}


// ************************************************************************* //
