/*--------------------------------*- C++ -*----------------------------------*\
  =========                 |
  \\      /  F ield         | OpenFOAM: The Open Source CFD Toolbox
   \\    /   O peration     | Website:  https://openfoam.org
    \\  /    A nd           | Version:  6
     \\/     M anipulation  |
\*---------------------------------------------------------------------------*/
FoamFile
{
    version     2.0;
    format      ascii;
    class       pointVectorField;
    location    "1.61";
    object      lm;
}
// * * * * * * * * * * * * * * * * * * * * * * * * * * * * * * * * * * * * * //

dimensions      [1 -2 -1 0 0 0 0];

internalField   nonuniform List<vector> 
3969
(
(0 0 0)
(0 0 0)
(-3383.1353 -401.64298 -234.90767)
(-3303.827 625.98468 -271.54649)
(0 0 0)
(0 0 0)
(-3249.4839 782.60959 -269.3338)
(-3328.2872 -244.23049 -233.27847)
(0 0 0)
(0 0 0)
(0 0 0)
(0 0 0)
(0 0 0)
(0 0 0)
(0 0 0)
(-3372.5336 -273.43946 -239.35775)
(-3362.4459 -145.60719 -244.18122)
(-3352.7752 -17.457781 -249.10072)
(-3343.1489 110.62192 -253.96857)
(-3333.6032 238.91695 -258.834)
(-3324.25 367.59197 -263.42709)
(-3314.5818 496.94712 -267.63872)
(21.992645 30.436574 23.858053)
(43.900697 44.20185 25.035698)
(72.072216 53.439162 21.408367)
(102.16146 60.199136 17.281866)
(134.74775 61.188216 10.810262)
(166.79008 58.761276 4.6644988)
(198.70261 51.182351 -2.6792603)
(227.56633 39.567424 -9.8643605)
(253.26615 23.399966 -17.666207)
(273.74092 4.1121207 -25.178376)
(288.4224 -19.053552 -33.212544)
(295.93974 -44.751066 -40.563526)
(295.24093 -72.810399 -47.60509)
(285.84856 -102.61317 -54.130648)
(266.58018 -133.41278 -59.441687)
(237.6883 -164.59991 -63.79815)
(198.44975 -195.74913 -66.911697)
(149.03314 -226.21082 -68.493879)
(89.366495 -255.60205 -68.552539)
(19.99428 -283.38903 -66.968716)
(-58.803927 -309.33692 -63.889725)
(-146.20286 -333.1684 -59.309204)
(-241.58712 -354.68977 -53.540898)
(-344.04134 -373.89608 -46.743709)
(-452.56273 -390.6236 -39.310414)
(-566.41112 -405.35238 -31.607933)
(-684.44771 -417.90921 -24.084394)
(-806.09753 -428.52899 -17.017795)
(-930.4757 -437.42723 -10.978811)
(-1056.7294 -444.79206 -6.2505957)
(-1184.4546 -450.88591 -3.2220275)
(-1313.097 -455.79408 -2.1973658)
(-1442.2962 -459.69628 -3.3615046)
(-1571.7978 -462.75026 -6.769112)
(-1701.4017 -464.7382 -12.844528)
(-1831.1503 -466.14217 -20.88819)
(-1960.6711 -466.48927 -31.605699)
(-2090.226 -465.94689 -44.513554)
(-2219.8982 -464.4591 -59.097159)
(-2349.2487 -461.69593 -75.597128)
(-2479.0453 -458.13779 -93.358665)
(-2608.253 -453.27253 -112.41391)
(-2738.0708 -446.90415 -132.24829)
(-2867.0541 -440.39656 -152.61659)
(-2996.7171 -431.33221 -173.35954)
(-3125.4958 -422.83603 -194.02621)
(-3254.5316 -412.76706 -214.75337)
(12.061861 -25.320334 -31.798121)
(42.987392 -38.483426 -20.483443)
(74.564859 -52.67112 -13.404469)
(105.32056 -57.669696 -3.4901954)
(140.0456 -63.493919 6.8669417)
(173.77454 -63.903647 16.924086)
(205.90228 -60.948192 26.311964)
(235.89148 -53.949043 34.814068)
(261.67286 -43.203698 42.260181)
(282.14919 -28.226083 48.204018)
(296.78088 -10.253631 53.178318)
(303.50271 11.796669 56.576556)
(302.70672 36.502625 58.724146)
(292.87717 63.96543 59.537722)
(273.80571 93.832325 59.225321)
(245.05845 125.28062 57.91908)
(206.32364 158.1092 55.755766)
(158.00033 191.36285 53.039448)
(99.84733 224.95576 49.806842)
(32.627812 257.85037 46.479014)
(-43.256533 290.10231 42.938237)
(-127.33375 320.56153 39.674112)
(-218.6193 349.67375 36.261924)
(-316.53694 376.44957 33.351628)
(-419.96286 400.84774 30.517176)
(-528.40633 422.8191 27.848812)
(-640.75143 442.0913 25.04746)
(-756.93266 459.25319 22.103299)
(-875.83049 473.79212 18.766279)
(-996.8469 486.25293 14.706334)
(-1119.7022 496.83326 9.7880792)
(-1243.8864 505.81301 3.7040444)
(-1369.2222 513.51813 -3.70368)
(-1495.4289 520.22076 -12.665987)
(-1622.3542 526.28547 -23.251972)
(-1749.9774 531.97559 -35.526555)
(-1878.2744 537.56916 -49.769566)
(-2006.9628 543.24821 -65.406849)
(-2136.1267 549.30756 -82.863659)
(-2265.8843 555.68016 -101.63554)
(-2395.7937 562.67878 -121.69109)
(-2525.9738 570.1627 -142.57549)
(-2656.2848 578.28057 -164.27893)
(-2786.4845 586.91422 -186.1549)
(-2916.5777 596.08798 -208.18559)
(-3046.2808 605.73571 -229.90488)
(-3175.4127 615.41729 -251.01856)
(0 0 0)
(0 0 0)
(0 0 0)
(0 0 0)
(0 0 0)
(0 0 0)
(0 0 0)
(22.182124 -20.703311 28.770072)
(45.789163 -53.498718 31.068342)
(71.13257 -52.421361 25.502353)
(102.90003 -65.475847 22.996201)
(134.81949 -67.314422 17.066142)
(165.79031 -66.416782 11.427117)
(197.55603 -60.658688 4.4468572)
(225.16892 -51.847501 -1.3735114)
(250.92121 -36.748215 -9.7358809)
(270.40311 -20.545959 -15.591211)
(285.44734 2.3379527 -24.89463)
(294.14132 24.854319 -31.806455)
(293.87351 51.876385 -39.225919)
(285.16149 80.247211 -45.668894)
(267.80379 109.5249 -51.315745)
(240.18437 140.98061 -56.125679)
(203.26245 171.76975 -59.542315)
(156.14079 203.53221 -61.71852)
(99.359198 234.48292 -62.436094)
(33.152402 265.02429 -61.670155)
(-42.062116 294.6055 -59.580202)
(-125.50577 323.11594 -56.186065)
(-216.63909 350.42361 -51.757751)
(-314.38804 376.4122 -46.518047)
(-418.29298 401.39378 -40.67093)
(-527.19449 424.88707 -34.759263)
(-639.35494 447.88203 -29.679193)
(-755.17291 469.35142 -25.076946)
(-873.56995 490.10661 -21.56165)
(-993.93896 510.07113 -19.378685)
(-1115.7112 529.46527 -18.849348)
(-1238.4458 548.37887 -20.293162)
(-1361.8261 566.9204 -23.830009)
(-1485.6311 585.06837 -29.564266)
(-1609.7775 602.88381 -37.60283)
(-1733.9137 620.44049 -47.667191)
(-1858.8163 637.60605 -60.059529)
(-1983.3665 654.00859 -74.337993)
(-2108.5051 670.13168 -90.252866)
(-2233.9925 685.59503 -107.8088)
(-2359.696 700.30422 -126.53541)
(-2485.9483 714.29273 -146.26893)
(-2612.4628 727.44189 -166.66916)
(-2739.4177 739.75917 -187.47686)
(-2866.6537 751.31783 -208.40544)
(-2994.1317 762.03729 -229.17389)
(-3121.7982 772.20229 -249.4739)
(-3260.2135 654.8412 -265.0491)
(-3269.8129 526.28567 -260.62448)
(-3279.6214 398.25092 -256.29668)
(-3288.1948 269.69843 -251.85624)
(-3298.0927 141.97761 -247.36222)
(-3307.3118 13.117141 -242.64873)
(-3317.5131 -114.95934 -238.04174)
(-3199.1401 -255.22971 -212.84748)
(-3068.8239 -265.96531 -191.96926)
(-2938.7774 -276.52054 -170.73705)
(-2808.2112 -287.65221 -149.38583)
(-2677.5422 -298.95464 -128.10313)
(-2547.0145 -310.54595 -107.39966)
(-2416.7184 -322.35959 -87.525816)
(-2286.8085 -334.27549 -68.819363)
(-2157.3505 -346.33631 -51.408609)
(-2028.6408 -358.3156 -35.736142)
(-1900.4557 -369.93076 -22.056089)
(-1773.0524 -380.7334 -9.8568318)
(-1646.2224 -391.90966 0.11007118)
(-1520.0953 -401.41795 8.3743686)
(-1394.8772 -409.71039 14.78517)
(-1270.4315 -416.41294 19.594423)
(-1147.0042 -421.10451 23.024912)
(-1024.8612 -423.44022 25.335924)
(-904.24656 -423.09796 26.768366)
(-785.67439 -419.7837 27.680597)
(-669.60279 -413.27398 28.265072)
(-556.63762 -403.36093 28.871484)
(-447.61773 -389.97532 29.636652)
(-343.13902 -373.19648 30.798684)
(-244.22503 -353.09018 32.369459)
(-151.6089 -329.86202 34.394974)
(-66.160358 -303.93923 36.9077)
(11.347705 -275.59671 39.685529)
(80.188125 -245.48922 42.729234)
(139.87142 -214.04508 45.721039)
(189.84826 -181.9974 48.524569)
(230.07545 -149.92529 50.974914)
(260.48754 -118.77689 52.576027)
(280.26841 -87.589871 53.020178)
(290.85343 -59.169707 53.282042)
(293.11872 -33.640277 51.166105)
(286.5867 -10.026682 48.812288)
(273.17732 10.266987 44.765531)
(253.39965 26.496915 39.604544)
(228.29596 40.292448 33.013362)
(199.15985 48.56416 25.524703)
(167.00087 53.847494 16.69036)
(134.75193 54.405268 8.2629697)
(101.05497 52.683708 -2.0015263)
(69.925579 45.559548 -9.2270814)
(42.776312 35.080616 -16.319937)
(22.695368 26.282786 -17.994775)
(0 0 0)
(0 0 0)
(0 0 0)
(0 0 0)
(0 0 0)
(0 0 0)
(0 0 0)
(0 0 0)
(0 0 0)
(0 0 0)
(0 0 0)
(0 0 0)
(0 0 0)
(0 0 0)
(-3297.2684 646.57397 -271.09519)
(-3290.5463 666.74709 -270.49617)
(-3283.6031 686.16878 -269.96976)
(-3276.5287 705.2602 -269.50666)
(-3269.4482 724.24693 -269.45907)
(-3262.4498 743.34491 -269.52363)
(-3255.7276 762.94851 -269.52636)
(-3376.3228 -381.44981 -234.69473)
(-3369.4074 -361.51837 -234.1139)
(-3362.7359 -342.14989 -233.64889)
(-3356.2147 -322.93678 -233.31514)
(-3349.6318 -303.67218 -233.1778)
(-3342.8842 -284.27739 -233.20382)
(-3335.898 -264.29321 -233.51642)
(14.111436 13.336167 20.736337)
(40.272879 19.75339 16.769126)
(68.923737 26.775788 16.93597)
(100.99283 30.50883 13.243821)
(134.80914 31.345941 9.639887)
(168.68606 28.585946 5.0985182)
(202.23833 23.116808 0.099641468)
(232.75128 13.906388 -5.2745794)
(259.86269 2.4168424 -10.776152)
(281.75182 -12.014228 -16.870404)
(297.70461 -28.818491 -22.760443)
(306.16262 -47.069153 -28.652812)
(306.36319 -67.360816 -34.437091)
(297.68473 -88.181677 -39.633422)
(279.12005 -109.72762 -44.320569)
(250.45138 -131.5574 -47.992683)
(211.51096 -153.11359 -50.801126)
(162.18238 -174.01796 -52.435491)
(102.54092 -194.06232 -52.778324)
(33.020065 -212.91968 -51.846069)
(-45.906287 -230.43866 -49.616133)
(-133.50259 -246.44192 -46.208819)
(-229.07316 -260.95521 -41.756017)
(-331.61481 -273.84414 -36.49432)
(-440.4203 -285.32192 -30.702728)
(-554.46616 -295.22536 -24.628752)
(-672.62035 -303.86703 -18.653424)
(-794.41756 -311.38311 -13.285186)
(-918.83519 -317.69438 -8.7377699)
(-1045.1349 -323.14984 -5.4113356)
(-1172.8749 -327.75234 -3.6404687)
(-1301.518 -331.52897 -3.6807712)
(-1430.6839 -334.65907 -5.6814977)
(-1560.2291 -336.97373 -9.9681772)
(-1689.8321 -338.60891 -16.356755)
(-1819.5205 -339.49517 -25.039571)
(-1949.1777 -339.44478 -35.882785)
(-2078.8158 -338.60319 -48.883662)
(-2208.5459 -336.65237 -63.61973)
(-2338.1514 -333.69981 -80.129935)
(-2467.9616 -329.84756 -97.844738)
(-2597.4049 -324.54835 -116.99765)
(-2727.3512 -318.49456 -136.69211)
(-2856.3908 -311.21428 -157.25998)
(-2986.2772 -302.65415 -177.91917)
(-3115 -294.0462 -198.60398)
(-3244.0969 -283.99763 -219.19847)
(10.835909 8.9160194 13.697065)
(36.020132 10.479307 13.389859)
(66.434827 15.471259 13.353253)
(99.220999 17.593215 12.039265)
(134.41717 17.185982 9.5841655)
(170.24974 15.140663 7.1545159)
(204.6112 10.520467 3.7058275)
(236.45558 3.8150377 0.79510659)
(264.67471 -4.5934092 -3.7229568)
(287.70619 -15.017026 -7.5953213)
(304.15729 -26.455946 -12.153467)
(313.48691 -39.316368 -16.728769)
(314.21699 -52.846323 -21.331048)
(305.73988 -66.80989 -25.722572)
(287.39351 -81.00227 -29.686566)
(259.05984 -95.078159 -32.969839)
(220.23233 -108.80123 -35.606083)
(171.03292 -121.85031 -37.283872)
(111.44041 -134.14693 -37.99592)
(41.9487 -145.44157 -37.635756)
(-36.973188 -155.69754 -36.21529)
(-124.64411 -164.94581 -33.764207)
(-220.07973 -173.06973 -30.461424)
(-322.74082 -180.26101 -26.487288)
(-431.35688 -186.38612 -21.976798)
(-545.13413 -191.83375 -17.507979)
(-663.18629 -196.37221 -13.022734)
(-784.64851 -200.31263 -9.045244)
(-908.72177 -203.7721 -5.9965012)
(-1034.7443 -206.71367 -3.9624656)
(-1162.2128 -209.23576 -3.4062764)
(-1290.552 -211.36623 -4.5138681)
(-1419.527 -213.05059 -7.5433329)
(-1548.8388 -214.26818 -12.568341)
(-1678.2969 -215.00734 -19.678152)
(-1807.923 -215.04892 -28.970503)
(-1937.6065 -214.4626 -40.214738)
(-2067.1347 -213.02205 -53.555875)
(-2197.015 -210.67688 -68.55612)
(-2326.5955 -207.3584 -85.154483)
(-2456.7372 -203.08183 -103.07311)
(-2586.2898 -197.55046 -122.12159)
(-2716.599 -191.09748 -141.89094)
(-2845.8606 -183.62734 -162.19379)
(-2976.1674 -174.93865 -182.81689)
(-3104.7524 -166.10491 -203.28366)
(-3234.2687 -155.83749 -223.9872)
(11.824589 4.6199631 7.2627073)
(36.395157 5.2954433 6.7021142)
(66.207625 7.4360056 8.5755043)
(99.491803 7.7191636 8.2261902)
(136.12329 6.8976373 8.2606641)
(171.56293 4.6188096 7.5526536)
(206.8713 1.5549405 6.9073013)
(239.11333 -3.3535508 5.135573)
(267.85237 -8.5182409 3.2789713)
(290.71798 -14.949675 1.1616514)
(308.05269 -21.932759 -1.94841)
(317.41597 -29.097076 -4.9824574)
(318.58383 -36.671412 -8.3232067)
(310.56453 -44.012457 -11.7577)
(292.69523 -51.425225 -15.130976)
(264.47474 -58.362554 -17.912382)
(225.82736 -64.781524 -20.424971)
(176.69182 -70.573072 -22.113823)
(117.20556 -75.59945 -23.24021)
(47.976399 -79.900967 -23.458758)
(-30.67681 -83.455502 -22.935537)
(-117.80892 -86.260585 -21.573905)
(-213.08053 -88.490866 -19.526101)
(-315.16197 -90.029866 -16.848906)
(-423.31854 -91.230237 -13.920097)
(-536.69674 -92.02243 -10.667712)
(-654.4585 -92.549813 -7.5273831)
(-775.57864 -93.006606 -4.9163702)
(-899.32736 -93.289945 -3.033716)
(-1025.0803 -93.492103 -2.1112492)
(-1152.2294 -93.723067 -2.5725578)
(-1280.3539 -93.804236 -4.5718049)
(-1409.1297 -93.767139 -8.3379301)
(-1538.2823 -93.556786 -13.976582)
(-1667.6942 -92.93458 -21.662117)
(-1797.2867 -91.948944 -31.296923)
(-1926.8713 -90.355257 -42.94183)
(-2056.7797 -88.114261 -56.484363)
(-2186.6457 -85.023056 -71.658018)
(-2316.5807 -81.077188 -88.539582)
(-2446.6878 -76.233094 -106.54378)
(-2576.5031 -70.189759 -125.89554)
(-2706.7669 -63.52941 -145.65966)
(-2836.1839 -55.49522 -166.46958)
(-2966.2484 -46.810323 -187.05566)
(-3094.965 -37.467468 -208.06055)
(-3224.6919 -27.247503 -228.61065)
(10.731667 1.3301241 2.3780254)
(33.942595 1.253362 3.4462571)
(65.022721 1.6646412 5.0077032)
(98.845319 0.81159724 6.9037159)
(135.11015 -0.56330644 8.5948341)
(171.92342 -2.6027964 10.207613)
(207.22107 -4.6767877 10.697297)
(240.36784 -7.7590714 11.43511)
(268.99408 -10.045323 11.061059)
(293.05187 -13.136268 9.9296965)
(310.25136 -15.161976 8.4856954)
(319.85046 -17.513056 6.7422202)
(321.10844 -19.191228 4.454209)
(312.9027 -20.197094 1.9261788)
(295.08765 -21.014071 -0.53736732)
(266.80676 -20.87394 -3.1358482)
(228.34332 -20.392132 -5.3382952)
(179.22991 -18.946562 -7.2816712)
(120.08419 -16.967675 -8.7300136)
(50.925945 -14.314284 -9.53037)
(-27.602101 -11.111024 -9.675389)
(-114.96772 -7.7005955 -9.1313089)
(-209.71516 -3.8123642 -8.0567378)
(-311.51937 0.10770323 -6.5361615)
(-419.3548 4.0565355 -4.5234715)
(-532.3246 7.8040355 -2.5091492)
(-649.38174 11.398832 -0.80334904)
(-769.82 14.689161 0.53091691)
(-892.91447 17.676928 1.2124368)
(-1017.9855 20.268391 0.87504361)
(-1144.5191 22.518055 -0.66523619)
(-1272.0771 24.56007 -3.7034722)
(-1400.3014 26.341079 -8.350483)
(-1529.0169 28.125733 -14.86131)
(-1658.0439 29.961564 -23.218424)
(-1787.2448 32.072818 -33.538198)
(-1916.7435 34.472548 -45.701132)
(-2046.2484 37.577591 -59.746901)
(-2175.8637 41.270238 -75.448015)
(-2305.6278 45.669977 -92.60528)
(-2435.7571 50.960836 -110.97697)
(-2565.6246 57.147122 -130.40871)
(-2696.0483 64.23184 -150.53482)
(-2825.6085 72.339335 -171.21471)
(-2956.1178 81.162506 -191.94135)
(-3085.2008 90.637304 -212.74153)
(-3215.1907 100.78876 -233.39226)
(10.269862 -0.74906674 -2.9072255)
(35.578239 -0.42722993 -3.7856503)
(66.363268 -2.316501 -0.10550749)
(99.847578 -4.3729907 3.5401883)
(137.39664 -6.692471 7.1434168)
(173.27821 -8.9027144 10.683629)
(209.37905 -9.9431715 13.529534)
(241.47235 -11.235438 16.263746)
(270.70226 -10.571463 17.425937)
(293.78493 -9.971676 18.735094)
(310.88299 -7.7879653 19.232433)
(320.37643 -5.4837346 18.620596)
(321.40619 -1.1313372 17.402728)
(313.25753 3.3928495 15.8454)
(295.30713 9.4935451 13.753635)
(267.18563 16.2177 11.560732)
(228.5722 23.886425 9.3944807)
(179.67518 32.316549 7.3153994)
(120.52611 41.258129 5.5256403)
(51.681627 50.737201 4.1477775)
(-26.497946 60.326773 3.1848203)
(-112.70883 70.161302 2.5175616)
(-206.98188 79.773663 2.4939013)
(-308.1296 89.312423 2.8947476)
(-415.33603 98.190362 3.4730052)
(-527.44096 106.59031 4.0519212)
(-643.88509 114.30779 4.5773502)
(-763.69247 121.23925 4.8422303)
(-886.12006 127.36492 4.3989798)
(-1010.5326 132.68202 3.1553956)
(-1136.4517 137.31921 0.70244603)
(-1263.4351 141.33647 -3.0609345)
(-1391.1626 144.89844 -8.4279962)
(-1519.4715 148.11967 -15.474928)
(-1648.1171 151.27351 -24.361992)
(-1777.1262 154.416 -35.080947)
(-1906.3951 157.78048 -47.618565)
(-2035.8216 161.75182 -62.021812)
(-2165.5515 165.94948 -77.857907)
(-2295.7674 170.97628 -95.228776)
(-2425.8484 176.79524 -113.81515)
(-2556.1751 183.60742 -133.58962)
(-2686.4342 191.15575 -153.8311)
(-2816.5374 199.75398 -174.88845)
(-2946.7738 208.89875 -195.75959)
(-3075.9336 218.8621 -217.10016)
(-3205.6914 229.0163 -237.89167)
(9.9659455 -6.1640228 -10.839664)
(35.298348 -7.3727315 -8.1109683)
(66.781403 -12.059724 -3.2844543)
(101.08154 -15.231508 1.5101137)
(137.3702 -18.701093 7.838058)
(173.42755 -19.900626 13.127496)
(208.13217 -19.967613 18.441222)
(240.36826 -18.674816 22.715623)
(268.4383 -14.983675 26.090017)
(291.34505 -10.572984 28.923933)
(307.885 -3.5079925 30.330212)
(316.9239 4.8249188 31.135686)
(317.48681 15.079938 31.122496)
(308.99737 26.665828 30.218953)
(290.88885 39.643889 28.872667)
(262.60286 53.776618 26.944195)
(224.1308 68.891912 24.906543)
(175.31818 84.6881 22.571494)
(116.54283 101.07502 20.413657)
(48.087448 117.57006 18.35286)
(-29.413814 134.38232 16.565135)
(-115.56047 150.06558 15.119413)
(-208.9659 165.99816 14.221251)
(-309.36775 181.43667 13.25988)
(-415.48404 195.46286 12.771936)
(-526.61327 208.5526 12.327374)
(-642.06361 220.29752 11.776616)
(-760.71845 230.75936 10.803292)
(-882.07952 239.93192 9.3617957)
(-1005.5485 247.9948 7.0433629)
(-1130.5444 254.96376 3.6984278)
(-1256.7133 260.98469 -0.9506635)
(-1383.7363 266.26533 -7.0922052)
(-1511.4197 270.96987 -14.833521)
(-1639.5685 275.33297 -24.378022)
(-1768.1396 279.52185 -35.653207)
(-1897.1058 283.83158 -48.768337)
(-2026.3296 288.39037 -63.617826)
(-2156.0082 293.39883 -79.954952)
(-2285.6468 298.96212 -97.87545)
(-2415.7639 305.04683 -117.0173)
(-2545.9492 312.04049 -137.07542)
(-2676.2333 319.74912 -157.87213)
(-2806.4324 328.29274 -179.09128)
(-2936.4715 337.44431 -200.4247)
(-3066.104 347.27589 -221.65298)
(-3195.8907 357.45334 -242.49607)
(8.426521 -9.4485759 -16.395268)
(36.800144 -12.211244 -13.954373)
(69.133037 -21.441785 -8.8000481)
(102.48024 -27.008555 -0.95662162)
(138.99342 -31.130263 6.9759883)
(173.60958 -32.553179 14.472296)
(208.36374 -31.696217 21.920922)
(239.43093 -28.201144 27.91155)
(267.05632 -21.680861 33.502362)
(289.34051 -13.221881 37.630883)
(304.98343 -1.1176454 40.707022)
(313.60933 12.301199 43.057388)
(313.26624 29.22632 43.662394)
(304.65036 47.392663 43.905253)
(285.93656 67.831451 42.887495)
(257.58865 89.524396 41.437796)
(218.8714 112.48332 39.289893)
(170.17195 136.20443 36.882039)
(111.56877 160.33749 34.280471)
(43.441116 184.54478 31.628948)
(-33.571827 208.25821 29.187789)
(-118.69125 231.51203 26.789489)
(-211.73583 253.42773 24.805791)
(-311.0519 274.44897 22.902077)
(-416.16895 293.61036 21.427212)
(-526.23312 311.20633 19.72861)
(-640.46189 326.96644 18.072189)
(-758.07075 340.81865 16.179274)
(-878.41026 353.06474 13.793892)
(-1000.8208 363.62178 10.600603)
(-1124.8267 372.69051 6.458646)
(-1250.1066 380.44215 1.0875822)
(-1376.294 387.14345 -5.703778)
(-1503.2996 393.00268 -14.034548)
(-1630.813 398.37807 -24.143177)
(-1758.9618 403.307 -35.863369)
(-1887.5271 408.37903 -49.532757)
(-2016.5775 413.52445 -64.807161)
(-2145.9602 419.06 -81.587656)
(-2275.8187 425.07475 -99.92085)
(-2405.8606 431.75742 -119.40313)
(-2536.128 439.19654 -139.94036)
(-2666.4533 447.27562 -161.03344)
(-2796.7645 456.18729 -182.65481)
(-2926.8227 465.59833 -204.13562)
(-3056.7046 475.80006 -225.6675)
(-3186.0452 486.28117 -246.71469)
(0 0 0)
(0 0 0)
(0 0 0)
(0 0 0)
(0 0 0)
(0 0 0)
(0 0 0)
(0 0 0)
(0 0 0)
(0 0 0)
(0 0 0)
(0 0 0)
(0 0 0)
(0 0 0)
(0 0 0)
(0 0 0)
(0 0 0)
(0 0 0)
(0 0 0)
(0 0 0)
(0 0 0)
(0 0 0)
(0 0 0)
(0 0 0)
(0 0 0)
(0 0 0)
(0 0 0)
(0 0 0)
(0 0 0)
(0 0 0)
(0 0 0)
(0 0 0)
(0 0 0)
(0 0 0)
(0 0 0)
(0 0 0)
(0 0 0)
(0 0 0)
(0 0 0)
(0 0 0)
(0 0 0)
(0 0 0)
(0 0 0)
(0 0 0)
(0 0 0)
(0 0 0)
(0 0 0)
(0 0 0)
(0 0 0)
(22.723353 -11.285016 -14.969428)
(25.05395 -13.974079 -8.3162705)
(28.308975 -14.320388 -3.3616366)
(29.75608 -15.174409 0.910805)
(29.152493 -14.071351 4.8973271)
(28.866279 -14.61326 9.0321004)
(26.183172 -11.714362 14.639756)
(51.013664 -45.300704 -14.876698)
(55.386596 -48.491247 -6.1905698)
(56.289308 -45.085366 -0.23544624)
(56.102257 -43.354854 3.9829422)
(57.278647 -45.520182 8.4587693)
(54.649121 -45.567487 13.715391)
(53.108699 -47.124679 22.728747)
(76.731178 -55.92963 -7.2361767)
(79.759218 -54.656105 -3.1163159)
(81.941847 -55.48278 1.8074326)
(82.135256 -55.083918 7.6665582)
(81.097191 -54.139203 11.62454)
(79.617517 -54.672237 15.572619)
(77.868616 -57.068538 22.333206)
(107.59637 -65.000927 -0.4037364)
(110.13636 -65.5707 2.4157312)
(109.85451 -65.08987 7.1275693)
(110.06198 -64.805522 9.6479055)
(109.21619 -64.911111 12.570509)
(108.74706 -65.488086 16.940146)
(105.19227 -65.664571 19.397397)
(140.24579 -71.209919 8.5315975)
(139.74318 -71.608415 9.4517383)
(139.81116 -72.08478 10.506404)
(139.19486 -71.517056 12.28609)
(138.41844 -70.996571 13.468656)
(137.50329 -71.237926 15.060237)
(136.78284 -71.481288 16.439382)
(171.20128 -70.003811 16.449916)
(169.88519 -70.695159 16.133064)
(168.1168 -70.683236 15.314445)
(167.71284 -70.259724 15.236727)
(166.28348 -70.487163 13.90589)
(167.0615 -69.880772 13.87666)
(165.77887 -69.853515 12.782413)
(202.25702 -67.24619 24.009414)
(199.19538 -68.232794 21.352944)
(197.17238 -68.374401 18.946604)
(195.35005 -68.006159 16.168365)
(194.82214 -67.340358 13.877102)
(194.60199 -66.283861 11.159173)
(195.76222 -66.031229 7.5228665)
(229.67909 -58.819481 30.57046)
(225.37673 -59.036195 26.564501)
(221.94934 -58.776984 21.253063)
(220.49409 -58.5398 16.9416)
(220.1793 -58.421171 12.595253)
(220.52887 -57.300523 8.2181359)
(222.64571 -56.375992 3.5552563)
(253.75782 -47.047961 36.162873)
(248.3804 -47.718534 29.82206)
(244.45883 -47.286183 23.679557)
(242.3064 -46.264902 17.372541)
(241.73452 -45.287482 10.660727)
(242.94153 -43.807586 4.3629186)
(245.63797 -42.582817 -2.9303081)
(272.89582 -31.326271 40.522403)
(266.27825 -30.947012 32.673694)
(261.80868 -30.605321 24.719407)
(259.12156 -29.242191 16.635078)
(259.04189 -28.858923 8.7150164)
(260.8943 -27.364951 0.73904553)
(264.64275 -26.152232 -7.4090673)
(285.74435 -11.885158 43.617941)
(278.35652 -11.357601 34.510321)
(273.12935 -10.394283 24.284293)
(270.82268 -9.673717 15.203105)
(270.55886 -8.2220718 5.3399552)
(272.97177 -6.611393 -3.9141309)
(277.34262 -4.3310025 -14.686315)
(291.75816 10.675595 45.861292)
(283.47881 11.90719 34.67194)
(278.05088 12.942541 23.964978)
(275.13011 14.695648 12.918731)
(275.22632 15.650326 1.6919258)
(278.42856 17.29499 -8.6838664)
(283.77171 19.014177 -21.268714)
(289.27745 36.890008 46.252166)
(281.14317 38.110891 34.072327)
(275.1171 39.543729 22.161511)
(272.72296 40.358671 9.9105295)
(273.00574 41.68241 -2.2261473)
(276.87533 43.791859 -13.839613)
(283.06993 45.58621 -27.217038)
(279.12847 64.902379 46.29894)
(270.3741 66.64193 32.99195)
(263.89703 68.168283 20.253527)
(261.56916 69.647858 7.0607722)
(261.86422 71.381821 -6.2067876)
(266.25781 72.984537 -18.451342)
(272.88943 74.93831 -33.22158)
(259.42183 95.966464 44.998183)
(250.45664 97.616193 30.867435)
(244.18068 98.941522 17.491123)
(242.01378 100.25274 3.4096077)
(242.58364 101.44434 -10.10507)
(247.45388 103.1173 -23.352244)
(254.83761 104.90346 -38.370598)
(230.48064 127.85378 43.174819)
(221.5655 129.48295 28.65027)
(215.0943 131.16045 14.770082)
(213.02761 132.51596 0.54157598)
(213.77043 133.97903 -13.790891)
(218.98876 135.57918 -27.17198)
(226.75073 137.03252 -42.848795)
(192.00203 161.1636 40.741828)
(183.01963 162.89517 25.891782)
(176.78328 164.26194 11.957314)
(174.98996 165.38673 -2.7931769)
(175.86255 166.64271 -16.980535)
(181.40996 167.74461 -30.686706)
(189.37824 169.1823 -46.351522)
(143.80904 194.8153 37.942035)
(135.12917 196.32948 23.340414)
(129.07213 197.66595 9.243055)
(127.38307 198.90847 -5.185364)
(128.49915 199.92763 -19.398628)
(134.11985 201.05311 -33.087076)
(142.32432 201.89535 -48.607366)
(86.326183 228.44715 35.111579)
(77.978873 229.78567 20.634016)
(72.168147 231.04025 6.942272)
(70.792203 231.89708 -7.2854109)
(71.915724 232.87474 -21.22833)
(77.650488 233.47063 -34.596213)
(85.704773 234.20965 -49.699451)
(19.808469 261.44788 32.170533)
(11.814657 262.64006 18.338099)
(6.4514212 263.65802 5.1402343)
(5.143185 264.60298 -8.5959333)
(6.451802 265.25545 -21.9373)
(12.030423 265.78843 -34.933421)
(19.984478 265.93336 -49.416391)
(-55.322943 293.43152 29.527413)
(-62.706519 294.35678 16.410062)
(-67.766824 295.37997 3.8371984)
(-68.849579 295.9916 -9.147556)
(-67.541257 296.64955 -21.890337)
(-62.150666 296.72813 -34.232094)
(-54.522413 296.64317 -47.937373)
(-138.31341 323.91571 27.110328)
(-145.18865 324.77134 14.888472)
(-149.80364 325.55921 3.1931514)
(-150.74734 326.22088 -8.9409536)
(-149.41246 326.60711 -20.841566)
(-144.30051 326.62361 -32.458376)
(-137.10472 326.1778 -45.242058)
(-228.61192 352.6946 24.95122)
(-234.84186 353.26231 13.824184)
(-239.04688 354.10106 3.1346644)
(-239.8713 354.63729 -8.0310005)
(-238.53656 355.20267 -19.052486)
(-233.87975 355.01106 -29.747183)
(-227.17657 354.32724 -41.56512)
(-325.41183 379.14595 23.137766)
(-331.02292 379.92806 13.202668)
(-334.77396 380.67194 3.5928403)
(-335.42673 381.46006 -6.5861745)
(-334.24202 381.77037 -16.495063)
(-329.93805 381.55616 -26.394316)
(-323.83355 380.79962 -37.096729)
(-427.78135 403.58328 21.765143)
(-432.95959 404.30075 12.819516)
(-436.03934 405.15457 4.4688405)
(-436.89453 406.10498 -4.7546701)
(-435.49212 406.62308 -13.606386)
(-431.83203 406.78641 -22.547538)
(-426.342 406.10756 -31.983464)
(-535.16501 425.57882 20.328274)
(-539.70922 426.42799 12.684894)
(-542.40736 427.73986 5.4725647)
(-543.11074 428.85724 -2.9980583)
(-541.72374 429.59448 -10.338936)
(-538.71852 429.90694 -18.46938)
(-533.84592 429.2183 -26.760516)
(-646.72733 445.19715 18.890462)
(-650.67632 446.436 12.716647)
(-653.01454 448.20078 6.0316966)
(-653.71294 449.68007 -0.62125778)
(-652.60228 450.8638 -7.744316)
(-649.82482 451.69985 -15.050828)
(-645.24587 451.40315 -22.423827)
(-762.04172 462.49532 17.23845)
(-765.06363 464.46621 12.086708)
(-767.33549 466.6758 6.4061393)
(-767.49169 468.74486 0.84648742)
(-766.63541 470.51444 -5.6469791)
(-764.08338 471.72059 -11.657679)
(-760.21068 472.25738 -18.520868)
(-879.87949 477.68603 15.114664)
(-882.55599 480.37375 10.787176)
(-884.12576 483.34635 6.4262507)
(-884.41484 486.08875 1.3234107)
(-883.37361 488.65389 -3.9611448)
(-881.26349 490.67039 -9.4168955)
(-877.83073 491.93379 -15.544595)
(-1000.1795 490.98936 12.004822)
(-1002.1192 494.55911 8.8911322)
(-1003.4943 498.40721 5.0653888)
(-1003.4789 502.05066 0.984834)
(-1002.5139 505.47195 -3.662535)
(-1000.6341 508.36365 -8.3918405)
(-997.56629 510.5677 -13.879379)
(-1122.16 502.64221 8.0802011)
(-1123.6711 507.29909 5.6703037)
(-1124.5658 512.11375 2.70319)
(-1124.3966 516.73531 -0.77592886)
(-1123.3617 521.09118 -4.6997785)
(-1121.5964 525.04248 -8.8711669)
(-1118.8458 528.34676 -13.763763)
(-1245.662 512.93296 2.7392729)
(-1246.6035 518.68238 1.1429036)
(-1247.1254 524.63691 -1.3001242)
(-1246.7063 530.32125 -4.0956453)
(-1245.5548 535.76417 -7.5070375)
(-1243.8565 540.917 -11.135829)
(-1241.2743 545.44298 -15.569095)
(-1370.2526 522.02841 -4.0093764)
(-1370.7014 529.08262 -5.0450824)
(-1370.7831 536.25399 -6.9357167)
(-1370.0793 543.11011 -9.2401702)
(-1368.7833 549.74516 -12.173269)
(-1367.0129 556.14122 -15.378051)
(-1364.52 562.03046 -19.417309)
(-1495.8126 530.33042 -12.461687)
(-1495.7275 538.73703 -13.004486)
(-1495.366 547.17309 -14.495251)
(-1494.3427 555.25537 -16.384966)
(-1492.7934 563.10211 -18.936367)
(-1490.8549 570.839 -21.741651)
(-1488.3242 578.18116 -25.445172)
(-1622.0708 538.03916 -22.664997)
(-1621.4662 547.8292 -22.868268)
(-1620.6158 557.5997 -23.985014)
(-1619.2184 566.96688 -25.544484)
(-1617.392 576.0551 -27.670848)
(-1615.2546 585.11095 -30.264395)
(-1612.6648 593.94142 -33.753767)
(-1749.1168 545.36371 -34.69354)
(-1747.963 556.54419 -34.696948)
(-1746.6161 567.63197 -35.529856)
(-1744.815 578.23629 -36.860981)
(-1742.6225 588.60409 -38.794142)
(-1740.1857 599.31072 -41.184935)
(-1737.2026 609.7158 -44.275192)
(-1876.6601 552.76829 -48.773966)
(-1874.7916 565.33605 -48.459389)
(-1872.9467 577.74129 -49.145254)
(-1870.6384 589.6166 -50.12762)
(-1868.1016 601.24073 -51.882739)
(-1865.1066 613.08898 -53.68796)
(-1861.9878 624.86291 -56.482867)
(-2004.5532 559.95241 -64.371816)
(-2002.3094 573.89 -63.904791)
(-1999.8102 587.52059 -64.377518)
(-1997.1306 600.55732 -65.237236)
(-1994.0017 613.45076 -66.666828)
(-1991.0076 626.35292 -68.649651)
(-1987.4072 639.46124 -71.453329)
(-2133.2551 567.17512 -81.775224)
(-2130.3018 582.2969 -81.368896)
(-2127.3082 597.10306 -81.686718)
(-2124.0221 611.28505 -82.367444)
(-2120.5453 625.26769 -83.717215)
(-2116.7992 639.64395 -85.233613)
(-2112.7523 654.16538 -87.584495)
(-2262.1534 574.89487 -100.62058)
(-2258.6574 591.09635 -100.16127)
(-2255.0627 606.95527 -100.2903)
(-2251.292 622.13431 -100.9573)
(-2247.2708 637.23706 -101.91475)
(-2243.1221 652.61594 -103.3403)
(-2238.7814 668.21335 -105.53501)
(-2391.4284 582.77794 -120.80631)
(-2387.3564 600.0166 -120.18435)
(-2383.179 616.80324 -120.36585)
(-2378.8467 632.91346 -120.71591)
(-2374.3942 648.94888 -121.61959)
(-2369.7712 665.24378 -122.80683)
(-2364.9233 681.91369 -124.63552)
(-2521.0226 591.0628 -141.87889)
(-2516.3643 609.0527 -141.20089)
(-2511.6243 626.55677 -141.35935)
(-2506.8163 643.53401 -141.54011)
(-2501.8785 660.35279 -142.28765)
(-2496.7693 677.51639 -143.20293)
(-2491.5572 695.03802 -144.75786)
(-2650.7074 599.59776 -163.59445)
(-2645.5193 618.26509 -162.94256)
(-2640.2549 636.49882 -163.03505)
(-2634.9392 654.12628 -163.00929)
(-2629.5692 671.63128 -163.6222)
(-2624.0479 689.45634 -164.30634)
(-2618.4556 707.64878 -165.55972)
(-2780.4406 608.41502 -185.62422)
(-2774.7984 627.55314 -185.05222)
(-2769.0324 646.25234 -185.00746)
(-2763.3317 664.43678 -184.90401)
(-2757.5362 682.53837 -185.36962)
(-2751.6439 700.89905 -185.80304)
(-2745.7021 719.61514 -186.73713)
(-2910.0611 617.49165 -207.66034)
(-2903.9905 637.04155 -207.13248)
(-2897.8503 656.15741 -206.98314)
(-2891.7364 674.79308 -206.85351)