/*--------------------------------*- C++ -*----------------------------------*\
  =========                 |
  \\      /  F ield         | OpenFOAM: The Open Source CFD Toolbox
   \\    /   O peration     | Website:  https://openfoam.org
    \\  /    A nd           | Version:  6
     \\/     M anipulation  |
\*---------------------------------------------------------------------------*/
FoamFile
{
    version     2.0;
    format      ascii;
    class       pointVectorField;
    location    "1.18";
    object      lm;
}
// * * * * * * * * * * * * * * * * * * * * * * * * * * * * * * * * * * * * * //

dimensions      [1 -2 -1 0 0 0 0];

internalField   nonuniform List<vector> 
625
(
(-3.6361799e-15 2.112754e-16 -3.2990721e-16)
(2.8178306e-17 1.9013092e-16 6.1994168e-17)
(-3977.7102 -1397.347 -528.45614)
(-4330.4088 -747.64388 -104.62316)
(6.5239771e-16 2.739523e-16 -5.5565719e-16)
(-3.7042918e-15 1.4868296e-15 -1.3023874e-15)
(-4755.1736 -861.22281 -118.40917)
(-4391.5099 -1507.7827 -542.57586)
(-1.9658614e-16 -3.2115893e-17 -1.1045223e-16)
(1.4766345e-16 -3.4299605e-16 -2.8648028e-16)
(-1.0135278e-15 7.0169807e-16 1.7538027e-16)
(-3977.1274 -1212.4656 -415.77281)
(-4043.3001 -1048.5674 -311.06762)
(-4215.8959 -907.15163 -210.66267)
(-19.430158 -96.717876 -97.294588)
(-76.113307 -174.49708 -105.65763)
(-172.80523 -252.9869 -113.92727)
(-301.92037 -323.87514 -119.88326)
(-448.25351 -388.1526 -131.41218)
(-620.29407 -451.5065 -143.81436)
(-805.47339 -512.10058 -160.90248)
(-1008.4317 -571.09147 -179.31361)
(-1223.8387 -633.11942 -202.87618)
(-1452.4989 -693.34745 -227.73331)
(-1689.5506 -756.54578 -255.31802)
(-1931.0482 -818.51394 -284.83118)
(-2172.0857 -880.68125 -315.62898)
(-2406.6403 -940.65802 -346.2084)
(-2630.272 -998.47284 -376.16168)
(-2837.8157 -1052.8279 -404.22837)
(-3027.4549 -1103.7927 -429.5617)
(-3197.2876 -1150.2849 -452.19099)
(-3346.8421 -1193.4861 -470.31373)
(-3482.2178 -1233.7022 -486.44823)
(-3602.8378 -1271.9557 -498.65158)
(-3710.1098 -1305.9907 -507.76146)
(-3819.6591 -1343.2389 -515.87492)
(-3.3862396 71.242101 96.969059)
(-103.40288 152.47781 76.621333)
(-223.14524 207.85417 75.004891)
(-375.09336 249.7436 61.32786)
(-548.67526 266.13548 49.917816)
(-744.03755 272.03976 37.199384)
(-947.76614 257.56482 26.102325)
(-1167.5654 233.23675 14.342743)
(-1392.8377 195.7786 4.6070066)
(-1625.8746 147.97475 -5.4598494)
(-1863.5945 93.084921 -13.729371)
(-2103.2372 30.602132 -21.566332)
(-2344.236 -36.896772 -28.504184)
(-2582.6705 -107.74553 -34.336709)
(-2817.611 -181.05193 -39.98049)
(-3045.1835 -254.84701 -44.951613)
(-3263.0958 -327.99884 -50.211685)
(-3467.2642 -399.39381 -55.310805)
(-3655.1352 -467.36885 -61.457306)
(-3822.9231 -531.8104 -67.640382)
(-3970.2871 -591.34247 -75.443204)
(-4095.5434 -645.8115 -83.733165)
(-4210.8716 -696.6561 -93.082358)
(-4.8813632e-16 1.9183015e-16 -1.0607077e-16)
(-2.6214496e-15 -5.6404768e-16 7.244144e-16)
(-2.4010456e-15 1.4295629e-15 -1.6975308e-16)
(-42.614142 50.281257 -62.59507)
(-153.12845 197.3367 -56.889249)
(-287.4775 216.75363 -31.931213)
(-458.72183 275.5856 -22.167208)
(-654.99186 290.8816 -17.132019)
(-864.5225 291.05838 -7.6769168)
(-1093.3418 274.45375 -6.5007291)
(-1328.8948 243.28766 -3.8388448)
(-1578.4723 197.2039 -3.2168272)
(-1834.7241 141.96734 -5.1777071)
(-2095.3435 75.088839 -6.9858766)
(-2361.5042 2.1700504 -10.580479)
(-2626.6203 -77.783995 -14.980101)
(-2890.8404 -160.86683 -20.395908)
(-3149.5958 -246.3049 -26.781218)
(-3400.0608 -331.62821 -34.075734)
(-3638.6672 -415.25258 -42.342322)
(-3861.1438 -495.64339 -51.432205)
(-4063.9878 -571.25127 -61.396232)
(-4243.6838 -641.08557 -71.920098)
(-4398.4527 -704.39374 -82.948616)
(-4527.6704 -760.71748 -94.334609)
(-4618.5021 -808.06798 -105.60695)
(-4655.6185 -1025.2836 -226.0403)
(-4445.4609 -1156.3575 -323.70817)
(-4408.7417 -1327.5039 -431.36753)
(-4231.8892 -1452.6747 -529.9924)
(-4152.6421 -1425.4134 -526.32946)
(-4043.3872 -1388.2089 -518.41513)
(-3917.6956 -1347.1472 -507.47806)
(-3772.9153 -1301.1058 -493.93743)
(-3606.4052 -1249.5866 -476.53722)
(-3416.7988 -1192.8503 -455.75931)
(-3205.2097 -1130.631 -431.40644)
(-2973.3522 -1063.9506 -403.52988)
(-2725.0969 -993.3553 -372.74883)
(-2465.3686 -920.35528 -339.25298)
(-2200.2755 -846.24555 -304.23884)
(-1933.8143 -771.89229 -267.98334)
(-1682.3752 -701.74817 -231.97548)
(-1424.6908 -630.27367 -194.34811)
(-1184.1771 -559.21194 -158.06016)
(-958.4401 -494.75802 -122.2672)
(-751.17575 -426.83832 -87.751548)
(-557.8697 -366.01413 -50.724389)
(-383.56073 -295.8658 -18.623808)
(-229.53604 -230.03229 16.808128)
(-111.99194 -149.41736 48.381268)
(-48.32911 -90.054286 54.629594)
(-1.3028228e-15 -3.4252847e-16 3.3068324e-16)
(-2.0449562e-15 -3.5718549e-16 -7.3673077e-16)
(-1.4121951e-15 -1.0527101e-15 6.223458e-16)
(-1.2019486e-15 6.189313e-16 -3.4292956e-16)
(-1.2511779e-16 -6.848356e-17 2.1836215e-16)
(-3.8898857e-17 4.7141393e-16 -3.1043199e-16)
(-4435.9983 -776.96623 -108.58026)
(-4542.3998 -805.02067 -112.72658)
(-4649.1846 -832.32727 -114.98531)
(-4080.9519 -1424.387 -531.51519)
(-4184.2328 -1452.7311 -534.93386)
(-4287.6706 -1480.3038 -539.05116)
(11.04831 -53.284389 -61.209213)
(-57.318439 -91.258167 -54.727162)
(-165.59664 -140.61063 -68.890573)
(-314.03503 -189.8538 -79.119176)
(-486.21791 -242.06009 -92.980124)
(-685.59866 -296.22612 -108.58652)
(-895.75385 -349.35318 -124.54658)
(-1118.3179 -403.391 -142.774)
(-1341.581 -456.78731 -161.04375)
(-1563.4379 -507.24618 -180.06464)
(-1778.5157 -557.88101 -198.313)
(-1983.8613 -605.4335 -216.94866)
(-2177.7802 -651.89872 -234.36728)
(-2359.8113 -696.79555 -251.24834)
(-2530.9183 -741.07134 -267.56576)
(-2692.6178 -785.24524 -283.09165)
(-2848.064 -829.93292 -298.69552)
(-2999.688 -876.16046 -314.07749)
(-3149.5946 -924.49782 -329.61908)
(-3304.3482 -975.51827 -346.63584)
(-3463.7376 -1030.7974 -363.03106)
(-3628.4592 -1087.8638 -380.78102)
(-3805.9125 -1150.9235 -398.85684)
(33.086319 -10.477317 -14.157732)
(-55.684678 -12.568906 -15.193036)
(-179.72226 -27.718443 -25.348783)
(-347.93309 -44.559533 -36.380796)
(-546.33345 -69.348756 -48.319984)
(-762.55721 -102.2925 -61.4527)
(-988.24853 -141.69199 -75.979266)
(-1214.508 -185.66543 -91.174039)
(-1431.9578 -233.08541 -106.29305)
(-1638.9342 -282.03536 -120.45245)
(-1829.2047 -331.79198 -134.96235)
(-2004.4748 -380.43228 -147.95356)
(-2164.9207 -428.47894 -160.33507)
(-2313.8713 -475.62219 -172.08547)
(-2455.7805 -522.24589 -183.39171)
(-2595.7274 -569.47777 -194.61342)
(-2739.4328 -618.24428 -206.38897)
(-2891.7922 -669.74951 -218.73058)
(-3057.8592 -725.3755 -232.37791)
(-3239.927 -784.73474 -247.42313)
(-3440.7865 -850.51649 -262.89168)
(-3658.4371 -920.32553 -281.19395)
(-3874.7501 -990.57163 -297.84004)
(26.467794 31.358667 38.113416)
(-79.036584 64.957528 38.855492)
(-204.51753 94.591951 33.076402)
(-377.44113 112.2147 22.856467)
(-569.90348 116.66406 12.157608)
(-778.87734 102.71043 -1.486948)
(-996.31075 79.748201 -15.467913)
(-1214.2178 42.775474 -29.947285)
(-1430.7413 -2.2756654 -43.470413)
(-1642.9058 -54.241026 -57.793966)
(-1848.2734 -111.92136 -70.709713)
(-2048.4049 -172.13388 -83.338363)
(-2242.0623 -235.03734 -95.332977)
(-2431.0707 -298.58627 -106.73869)
(-2615.9557 -362.40247 -117.69223)
(-2797.9946 -426.2207 -128.28061)
(-2978.0681 -489.17381 -138.70051)
(-3157.0714 -551.71641 -148.86005)
(-3335.5491 -613.21654 -159.06921)
(-3513.8433 -674.04076 -169.241)
(-3692.5237 -734.2067 -179.45208)
(-3870.0464 -793.3968 -190.05942)
(-4040.9116 -850.38133 -200.29599)
(-2.5953868e-15 -2.1703571e-16 4.2716933e-18)
(-3.8783653e-15 3.5858996e-16 7.5215743e-16)
(-9.8459492e-16 7.8127033e-16 2.7525688e-16)
(-3.9146975e-16 7.8165185e-18 1.2560621e-16)
(1.6350797e-16 -2.4226884e-16 -1.2066667e-17)
(-1.0304172e-15 -9.2669207e-16 -7.5672327e-16)
(-6.4481012e-16 3.525084e-16 2.7116342e-16)
(-3.5205005e-15 9.4737515e-16 -2.5196009e-17)
(-3.8147498e-15 1.043275e-15 1.2924308e-16)
(-40.362956 30.202257 44.36295)
(-56.184108 43.574085 16.402248)
(-56.77099 35.711744 -15.835623)
(-149.81049 169.13635 47.252878)
(-162.63375 175.43886 15.980792)
(-168.73663 179.88532 -20.68888)
(-255.8871 202.15259 46.135723)
(-279.71907 202.52538 18.570152)
(-295.36473 226.67119 -10.578416)
(-412.11117 249.46621 38.71764)
(-440.30661 262.2487 18.426857)
(-454.77481 270.25357 -3.3042363)
(-588.01459 267.06406 33.161776)
(-617.09773 272.74369 17.56104)
(-643.96598 290.15165 -1.1435608)
(-780.04088 269.67223 25.692065)
(-817.53881 279.97677 12.934397)
(-845.88133 289.13718 1.614138)
(-990.2208 256.40356 17.135581)
(-1027.4845 261.99387 11.31176)
(-1066.4319 275.88982 0.79286972)
(-1208.8814 229.22425 9.9146856)
(-1253.7208 235.05919 5.7535432)
(-1295.926 244.51887 -0.59118245)
(-1437.8495 189.6609 1.712284)
(-1487.0232 194.01424 0.26097987)
(-1535.0034 201.79832 -2.586623)
(-1675.5913 141.08454 -5.7348859)
(-1728.9504 143.23951 -4.7183052)
(-1785.5861 148.00861 -6.1283528)
(-1916.6164 82.865426 -12.621223)
(-1977.4012 82.354531 -10.960816)
(-2038.7389 84.79663 -9.9379244)
(-2163.1136 18.190951 -19.613122)
(-2228.5472 15.377122 -16.459506)
(-2296.9433 14.375175 -14.330322)
(-2408.7131 -52.209513 -25.557184)
(-2480.8089 -58.335301 -22.353828)
(-2555.6572 -62.03082 -19.509188)
(-2653.9993 -126.00068 -31.437272)
(-2731.9019 -134.96236 -28.38349)
(-2812.7947 -142.13496 -24.888464)
(-2894.5853 -202.23606 -37.10476)
(-2978.465 -214.29275 -34.354189)
(-3065.497 -224.4909 -31.02425)
(-3128.3477 -278.64107 -42.546425)
(-3217.9667 -293.64058 -40.738397)
(-3310.2954 -307.104 -37.684492)
(-3351.7556 -354.30559 -48.440068)
(-3446.5177 -372.1112 -47.561668)
(-3543.75 -388.45538 -45.037931)
(-3561.1595 -427.55553 -54.533203)
(-3660.5499 -447.82916 -54.693643)
(-3761.8873 -466.93132 -53.022347)
(-3753.3654 -497.16375 -61.408139)
(-3856.5524 -519.65731 -62.659042)
(-3960.9176 -541.27256 -61.851092)
(-3925.2633 -562.39407 -68.725744)
(-4030.9513 -586.70974 -71.123337)
(-4137.564 -610.2847 -71.237374)
(-4074.9662 -622.25825 -77.346186)
(-4182.2756 -647.87267 -80.428352)
(-4290.017 -673.28861 -81.13245)
(-4202.2022 -676.47513 -86.611184)
(-4310.1422 -703.10763 -89.846239)
(-4418.0636 -729.85169 -91.677086)
(-4309.5391 -725.85907 -96.337745)
(-4416.2537 -753.05217 -99.579103)
(-4523.3231 -780.62719 -102.61709)
(-4086.4058 -1241.4952 -419.42137)
(-4188.2909 -1268.6887 -422.86979)
(-4291.0256 -1295.6833 -426.51053)
(-4132.6959 -1072.53 -313.21201)
(-4240.1348 -1101.3596 -317.30981)
(-4341.0539 -1128.3156 -320.04903)
(-4318.0494 -935.77079 -214.43944)
(-4426.6636 -964.42369 -219.05597)
(-4531.7079 -992.4549 -221.73262)
(-66.920326 -76.017433 -49.331916)
(-70.88204 -88.40492 -22.492396)
(-76.959201 -88.374129 15.807006)
(-119.28636 -166.43249 -62.569032)
(-133.42295 -170.44346 -25.851297)
(-134.79855 -168.60595 15.981917)
(-219.16157 -253.92829 -77.107667)
(-236.91861 -253.80767 -50.126087)
(-245.36616 -258.58093 -8.8059766)
(-343.13892 -319.57845 -91.458583)
(-368.25169 -319.6331 -67.021963)
(-379.40546 -320.11941 -39.501441)
(-493.2537 -388.34299 -109.47471)
(-522.24209 -391.6478 -91.347746)
(-542.56591 -389.91946 -68.34632)
(-663.70047 -450.38597 -128.54861)
(-697.81495 -448.56535 -116.1579)
(-725.84101 -453.19614 -99.982005)
(-850.84114 -509.90018 -149.98541)
(-890.25963 -514.74343 -141.17414)
(-924.10167 -514.9097 -130.96907)
(-1055.4703 -571.96692 -174.03511)
(-1100.7366 -573.85312 -169.75161)
(-1141.0789 -578.7006 -163.52441)
(-1274.7387 -631.07335 -200.67383)
(-1325.5508 -639.16648 -199.2201)
(-1373.2443 -643.61457 -196.91703)
(-1504.477 -694.46693 -229.05957)
(-1563.3332 -701.77269 -230.91155)
(-1618.1406 -712.90155 -232.05583)
(-1747.0108 -758.1693 -259.16737)
(-1810.1687 -769.27654 -262.16026)
(-1870.6153 -779.97031 -266.63088)
(-1993.6756 -822.82738 -290.31787)
(-2062.8624 -835.50523 -295.81288)
(-2129.874 -850.42451 -301.61877)
(-2240.112 -886.28543 -322.26002)
(-2315.7597 -902.86768 -328.26182)
(-2388.8931 -920.06519 -335.57503)
(-2481.3799 -949.2605 -353.14362)
(-2562.6612 -968.63894 -360.14115)
(-2641.7466 -988.44484 -368.15429)
(-2711.5884 -1009.7651 -383.25635)
(-2798.5665 -1031.905 -390.08558)
(-2883.2824 -1054.2209 -398.46186)
(-2926.6053 -1067.2148 -410.6604)
(-3018.1064 -1091.9202 -417.61045)
(-3108.2288 -1116.3973 -425.83536)
(-3122.7198 -1121.2201 -435.81351)
(-3218.4587 -1147.8117 -442.18884)
(-3313.5695 -1174.1525 -450.00474)
(-3299.0569 -1170.9254 -457.38373)
(-3397.8212 -1199.1903 -463.287)
(-3496.7561 -1227.1714 -470.5458)
(-3454.5908 -1217.1488 -475.78832)
(-3556.8144 -1246.6123 -481.50946)
(-3658.8032 -1275.0066 -487.9241)
(-3591.8638 -1259.2816 -491.1192)
(-3695.2187 -1288.8974 -495.68616)
(-3799.42 -1318.472 -501.45512)
(-3714.1272 -1298.5215 -502.92553)
(-3816.7708 -1327.7118 -507.29285)
(-3922.6732 -1357.3989 -512.37228)
(-3822.1635 -1334.8364 -511.99697)
(-3925.5209 -1363.9117 -516.05371)
(-4030.8943 -1393.1666 -520.51075)
(-3922.4659 -1369.6452 -519.28594)
(-4025.4011 -1397.7351 -522.77808)
(-4128.7029 -1425.7088 -526.44611)
(-1.6653736 -15.690882 32.232819)
(-90.002229 -73.70919 17.692963)
(-209.67198 -87.434572 0.27851795)
(-383.04265 -139.25257 -20.706132)
(-569.0682 -187.67437 -42.422032)
(-784.25365 -238.38394 -69.303019)
(-1013.0762 -298.38545 -96.453967)
(-1256.1566 -358.05768 -123.35541)
(-1505.0006 -421.85634 -151.13873)
(-1761.5112 -486.5414 -177.8307)
(-2015.6919 -553.81512 -205.05021)
(-2267.1145 -621.10166 -229.14747)
(-2510.344 -688.39533 -253.29258)
(-2743.1049 -755.02746 -275.03347)
(-2963.6358 -820.35121 -295.66614)
(-3170.0345 -884.12118 -314.59569)
(-3362.2506 -945.72719 -332.26096)
(-3540.1449 -1005.2414 -348.68244)
(-3704.7233 -1062.5949 -364.1596)
(-3857.0307 -1117.6268 -378.39648)
(-3999.6498 -1170.9383 -392.38199)
(-4134.4249 -1222.508 -405.28391)
(-4248.1565 -1268.2016 -416.09094)
(2.6978655 -9.9525835 -2.5734327)
(-101.23901 -4.059143 -0.83786065)
(-251.74681 -0.23382475 -16.726552)
(-444.48448 -21.043067 -27.084685)
(-663.48739 -45.181081 -41.26588)
(-910.41783 -78.177589 -61.384291)
(-1163.269 -127.58026 -75.808861)
(-1418.6122 -177.80143 -94.586669)
(-1667.1241 -237.00787 -110.88076)
(-1900.7083 -296.91653 -127.26941)
(-2115.0984 -358.90134 -141.04053)
(-2310.1704 -418.84416 -155.4468)
(-2484.3291 -478.07539 -167.5745)
(-2643.962 -534.41018 -179.36784)
(-2792.4438 -589.68126 -190.56882)
(-2936.7856 -643.64099 -201.84301)
(-3083.2338 -698.22345 -213.60684)
(-3237.6396 -754.48822 -226.21337)
(-3404.7183 -813.21375 -239.94527)
(-3587.4128 -876.0565 -255.02816)
(-3787.6254 -942.529 -271.49378)
(-4003.9441 -1013.2773 -288.85377)
(-4261.941 -1095.2474 -309.53519)
(3.7274117 29.086145 -36.477969)
(-133.60968 59.401717 -32.397061)
(-282.72734 117.32671 -39.92004)
(-472.43529 118.20119 -27.229019)
(-687.93479 133.19856 -32.348127)
(-920.94301 114.15919 -33.060411)
(-1156.1565 85.053451 -35.546342)
(-1400.8293 43.338677 -42.776885)
(-1635.8519 -11.485158 -49.773497)
(-1869.6686 -72.931368 -58.553963)
(-2095.118 -140.94706 -69.30558)
(-2314.2878 -212.49018 -80.27771)
(-2526.5669 -286.14542 -92.188755)
(-2733.1629 -360.47392 -104.47664)
(-2934.6669 -434.23212 -117.18078)
(-3132.3079 -507.02773 -129.7989)
(-3327.0652 -578.19797 -142.51824)
(-3519.4817 -647.42134 -154.90788)
(-3710.1841 -714.53751 -167.1835)
(-3899.2105 -779.69489 -179.22658)
(-4086.4336 -842.52421 -190.89143)
(-4271.5576 -903.5447 -202.51267)
(-4457.5445 -963.40643 -213.90929)
(-13.650285 -19.305774 -29.601483)
(-20.786048 -23.657378 -16.875264)
(-26.599394 -19.01292 7.0431124)
(-92.114746 -87.565516 -36.069946)
(-112.82173 -88.094248 -16.410551)
(-110.39783 -82.785178 11.073729)
(-203.16819 -130.22393 -49.550084)
(-218.30708 -126.59443 -31.462915)
(-227.96807 -120.73627 -15.305759)
(-345.17623 -182.66301 -63.038071)
(-375.13902 -182.70908 -48.848541)
(-388.68247 -169.79804 -32.530101)
(-518.11799 -233.21289 -77.971427)
(-548.31815 -229.95496 -68.932261)
(-571.7045 -221.06083 -54.391884)
(-711.93513 -285.1003 -97.729045)
(-750.69295 -285.04644 -89.453997)
(-778.61464 -275.08716 -79.432562)
(-922.27297 -338.29719 -115.98965)
(-964.19183 -339.04027 -111.7049)
(-1001.7842 -329.96687 -105.3989)
(-1144.5463 -392.95658 -137.33599)
(-1193.4927 -394.02347 -135.4006)
(-1237.6452 -387.82049 -130.8309)
(-1373.1091 -446.439 -158.16658)
(-1425.6704 -450.60768 -158.34935)
(-1476.7364 -446.94942 -156.74299)
(-1602.4181 -501.21263 -179.93944)
(-1660.7754 -507.74681 -181.46233)
(-1719.0731 -505.99971 -181.72271)
(-1829.7387 -555.22144 -200.68424)
(-1893.1764 -563.77921 -203.93765)
(-1957.1239 -565.37431 -206.34471)
(-2050.8669 -608.12068 -221.76115)
(-2119.0829 -619.98434 -225.99613)
(-2189.1666 -624.2461 -228.91337)
(-2263.2122 -661.16345 -241.46866)
(-2336.0087 -675.41559 -246.10253)
(-2411.3396 -682.61405 -250.28715)
(-2465.2191 -712.92523 -260.29207)
(-2542.2613 -729.94906 -265.72191)
(-2622.3894 -739.77108 -270.06417)
(-2656.1218 -764.32601 -278.27149)
(-2737.4003 -783.53215 -283.71778)
(-2821.7503 -796.18328 -288.41396)
(-2836.2842 -815.05776 -295.17333)
(-2921.2608 -836.60313 -300.96272)
(-3009.6134 -851.70528 -305.58387)
(-3006.5022 -865.60536 -311.62899)
(-3095.2226 -889.04553 -317.22907)
(-3187.1191 -906.51922 -321.75692)
(-3168.5165 -916.44849 -327.35991)
(-3260.5512 -941.25494 -332.92765)
(-3355.5315 -960.94944 -337.2852)
(-3322.7321 -967.10137 -342.84763)
(-3420.611 -994.28129 -348.46383)
(-3517.1537 -1015.3377 -352.41826)
(-3492.6486 -1024.3119 -360.31425)
(-3559.1174 -1041.9838 -361.77618)
(-3673.9706 -1070.0263 -367.15785)
(-3643.0799 -1077.7092 -375.50134)
(-3709.656 -1096.0295 -376.50678)
(-3826.8886 -1125.0333 -382.10477)
(-3777.3698 -1127.5484 -389.86472)
(-3876.094 -1154.5705 -393.35299)
(-3979.2641 -1180.2614 -396.74932)
(-3928.652 -1183.3047 -404.58721)
(-4031.0803 -1211.2449 -407.93488)
(-4133.3836 -1237.5713 -411.26941)
(3.3095354 -4.5573255 -5.5425506)
(-8.5267241 -11.880951 -2.1809916)
(-18.380622 -4.5077661 1.4234244)
(-93.832141 -11.716807 -7.0157402)
(-108.69212 -13.942186 -2.5179384)
(-110.26717 -4.7485894 1.6765401)
(-223.288 -27.536543 -19.395802)
(-243.00498 -25.878998 -20.855606)
(-257.68321 -13.260921 -14.725196)
(-391.38379 -40.566368 -29.564803)
(-421.39789 -40.783994 -29.16817)
(-439.29764 -22.031127 -24.973929)
(-592.60436 -70.368081 -44.558748)
(-624.12208 -68.55212 -46.05662)
(-650.71297 -54.150141 -40.20063)
(-811.17646 -102.15233 -58.92797)
(-849.32748 -100.53208 -59.264743)
(-883.93144 -84.741599 -57.975747)
(-1040.9308 -143.67703 -74.178725)
(-1083.4914 -143.59488 -77.317481)
(-1125.9923 -128.93826 -74.422264)
(-1271.943 -188.27354 -91.573018)
(-1320.5107 -188.85497 -93.462005)
(-1368.2789 -179.29594 -92.080936)
(-1495.5647 -237.83934 -107.30762)
(-1548.933 -242.05975 -109.04975)
(-1603.8136 -232.84902 -108.79593)
(-1708.2093 -289.39972 -122.51404)
(-1766.7225 -293.96823 -125.65332)
(-1827.1129 -289.61676 -125.25771)
(-1904.2571 -340.51398 -137.70689)
(-1967.2953 -348.62484 -140.09362)
(-2032.1209 -347.02714 -139.34523)
(-2083.9417 -391.94019 -151.28622)
(-2150.8854 -401.72879 -153.43171)
(-2219.996 -404.29679 -153.55151)
(-2247.6077 -441.91247 -163.89352)
(-2318.1145 -454.49556 -166.14911)
(-2390.7421 -459.64882 -165.8718)
(-2398.5054 -490.8593 -175.72833)
(-2472.3298 -505.21285 -177.667)
(-2547.9563 -514.08027 -177.58226)
(-2541.3564 -539.15172 -187.08313)
(-2618.018 -555.90872 -188.84688)
(-2696.7269 -567.27906 -188.92062)
(-2681.2577 -587.67696 -198.06296)
(-2760.891 -606.163 -199.86855)
(-2842.35 -620.38443 -200.15549)
(-2824.2377 -637.51223 -209.67065)
(-2906.8876 -657.98383 -211.39545)
(-2991.1877 -674.20154 -211.91513)
(-2975.4776 -689.95667 -221.69195)
(-3061.3109 -711.69833 -223.47287)
(-3148.4797 -730.41547 -224.56924)
(-3139.6307 -745.51817 -234.93774)
(-3228.8078 -769.21031 -237.08205)
(-3319.0197 -789.63587 -238.33607)
(-3317.5924 -805.47505 -249.59998)
(-3414.6 -831.1128 -251.51318)
(-3506.0101 -852.89949 -253.51573)
(-3511.1727 -869.73514 -264.24205)
(-3625.8109 -898.9752 -268.48269)
(-3709.6339 -920.90275 -270.303)
(-3733.2275 -940.24434 -282.54201)
(-3831.26 -967.01802 -284.85222)
(-3929.9949 -992.33068 -287.78925)
(-3963.4576 -1014.9568 -300.33243)
(-4065.5686 -1042.3561 -303.27268)
(-4166.9209 -1068.8379 -306.82233)
(-5.4406348 21.720624 18.370247)
(-10.108859 22.286394 2.3288548)
(-15.177592 19.054571 -13.633385)
(-126.81156 59.797107 23.10561)
(-143.13236 53.981935 3.9167975)
(-145.90174 61.072492 -9.8445342)
(-250.54114 94.250933 17.873862)
(-273.14848 107.58457 0.86507386)
(-288.11699 109.62421 -15.944866)
(-425.47602 112.78574 10.508273)
(-451.28797 115.63545 -3.1724409)
(-471.04943 120.91638 -14.804329)
(-616.0495 113.59136 1.4074551)
(-649.48925 124.2915 -10.579908)
(-674.06812 127.13274 -19.115966)
(-826.84487 102.29657 -9.1919102)
(-864.80494 109.46328 -18.290696)
(-896.05486 112.98915 -24.985182)
(-1044.8287 76.564692 -21.869861)
(-1086.7878 83.902533 -28.767948)
(-1124.6114 83.687733 -32.769881)
(-1264.8118 38.532352 -34.402158)
(-1313.3759 43.555349 -38.263353)
(-1356.3776 43.103916 -40.340295)
(-1484.7229 -8.2100904 -46.612624)
(-1536.7044 -5.3558958 -49.733659)
(-1586.8652 -8.2810667 -51.118989)
(-1699.3136 -62.490682 -60.115161)
(-1757.0726 -62.357367 -61.402009)
(-1811.6604 -67.645734 -60.578106)
(-1908.6401 -122.34338 -72.386539)
(-1970.5874 -124.89763 -72.488934)
(-2031.5253 -132.81319 -71.729593)
(-2112.4058 -185.26879 -84.605288)
(-2179.1046 -191.20882 -84.440148)
(-2244.7877 -201.4396 -83.07866)
(-2309.9619 -250.68679 -96.399228)
(-2380.9871 -259.33074 -95.868744)
(-2452.1917 -272.10904 -94.546401)
(-2502.9247 -316.64966 -107.83905)
(-2578.3966 -328.57309 -107.30647)
(-2654.2276 -343.82383 -106.37398)
(-2691.6332 -382.95041 -118.82421)
(-2771.2375 -397.64701 -118.65306)
(-2852.0298 -415.13158 -118.19783)
(-2877.2824 -448.67025 -129.64743)
(-2961.2204 -466.09699 -129.90794)
(-3046.1704 -485.61963 -129.99315)
(-3060.8794 -513.54059 -140.31604)
(-3148.7271 -533.32693 -140.98206)
(-3237.9117 -554.84519 -141.84994)
(-3242.9652 -577.36 -150.71378)
(-3334.8513 -599.26925 -152.12094)
(-3427.5514 -622.45038 -153.61506)
(-3424.4132 -640.05899 -161.30775)
(-3519.7593 -663.7563 -163.14982)
(-3615.8672 -688.40708 -165.04682)
(-3605.3922 -701.46685 -171.66717)
(-3703.9934 -726.56421 -173.98377)
(-3802.611 -752.34971 -176.82001)
(-3785.7302 -761.84466 -181.98359)
(-3886.924 -788.16549 -184.92639)
(-3987.8297 -815.06609 -188.0148)
(-3965.5803 -821.092 -192.97855)
(-4068.5435 -847.90294 -196.5725)
(-4171.8181 -875.71778 -199.58707)
(-4144.7979 -879.43316 -203.61317)
(-4249.0923 -907.11786 -206.83106)
(-4353.3085 -934.72614 -210.19376)
)
;

boundaryField
{
    free
    {
        type            zeroGradient;
    }
    fixed
    {
        type            fixedValue;
        value           nonuniform List<vector> 
25
(
(-2.5953868e-15 -2.1703571e-16 4.2716933e-18)
(-1.3028228e-15 -3.4252847e-16 3.3068324e-16)
(-1.9658614e-16 -3.2115893e-17 -1.1045223e-16)
(-3.6361799e-15 2.112754e-16 -3.2990721e-16)
(-3.8783653e-15 3.5858996e-16 7.5215743e-16)
(-2.0449562e-15 -3.5718549e-16 -7.3673077e-16)
(-9.8459492e-16 7.8127033e-16 2.7525688e-16)
(-1.4121951e-15 -1.0527101e-15 6.223458e-16)
(-4.8813632e-16 1.9183015e-16 -1.0607077e-16)
(6.5239771e-16 2.739523e-16 -5.5565719e-16)
(-3.9146975e-16 7.8165185e-18 1.2560621e-16)
(1.4766345e-16 -3.4299605e-16 -2.8648028e-16)
(1.6350797e-16 -2.4226884e-16 -1.2066667e-17)
(-1.0304172e-15 -9.2669207e-16 -7.5672327e-16)
(-2.6214496e-15 -5.6404768e-16 7.244144e-16)
(-6.4481012e-16 3.525084e-16 2.7116342e-16)
(-1.0135278e-15 7.0169807e-16 1.7538027e-16)
(-3.5205005e-15 9.4737515e-16 -2.5196009e-17)
(-3.8147498e-15 1.043275e-15 1.2924308e-16)
(-2.4010456e-15 1.4295629e-15 -1.6975308e-16)
(-1.2019486e-15 6.189313e-16 -3.4292956e-16)
(2.8178306e-17 1.9013092e-16 6.1994168e-17)
(-1.2511779e-16 -6.848356e-17 2.1836215e-16)
(-3.8898857e-17 4.7141393e-16 -3.1043199e-16)
(-3.7042918e-15 1.4868296e-15 -1.3023874e-15)
)
;
    }
    freeTop
    {
        type            zeroGradient;
    }
}


// ************************************************************************* //
