/*--------------------------------*- C++ -*----------------------------------*\
  =========                 |
  \\      /  F ield         | OpenFOAM: The Open Source CFD Toolbox
   \\    /   O peration     | Website:  https://openfoam.org
    \\  /    A nd           | Version:  6
     \\/     M anipulation  |
\*---------------------------------------------------------------------------*/
FoamFile
{
    version     2.0;
    format      ascii;
    class       pointScalarField;
    location    "1.73";
    object      p;
}
// * * * * * * * * * * * * * * * * * * * * * * * * * * * * * * * * * * * * * //

dimensions      [1 -1 -2 0 0 0 0];

internalField   nonuniform List<scalar> 
625
(
-508461.96
526175
2129.0414
-0.7337046
-646622
1459470.5
-591.46248
616.01682
-353336.72
-121856.99
-16750.555
-1149.7537
-1373.8152
-813.90453
-207908.98
-222697.09
-207460.45
-202007.98
-166671.36
-160895.73
-132731.06
-115586.01
-105439.7
-86042.304
-76911.981
-66406.039
-58823.182
-50475.599
-43983.218
-37139.757
-30758.114
-24838.211
-18339.632
-14514.958
-9916.5541
-4548.4129
-1439.6345
186331.3
106513.67
159200.62
118513.87
118558.62
117097.49
105389.67
99716.583
95125.247
86340.355
80889.088
71177.56
64924.518
55847.436
47119.601
38288.449
29333.782
21258.471
13742.567
7123.2009
2782.9212
-39.267611
-2030.0729
-302574.08
165735.77
301956.42
245226.43
320490.71
225082.34
215200.49
233685.55
179146.46
175228.06
167388.27
139657.83
133553.59
108179.7
99861.009
78511.373
67733.663
53905.688
42392.579
32436.005
24569.117
17211.08
11890.827
8001.6332
4259.2253
1879.5345
82.298778
-287.35126
-199.6779
-386.85129
-2004.6665
-4824.598
-10946.349
-18196.279
-24896.29
-34118.749
-41612.178
-51122.931
-58407.817
-67355.163
-74015.475
-81385.852
-81483.332
-103073
-99208.16
-112647.71
-110111.07
-137896.56
-114855.87
-142063.03
-160799.48
-125093.93
-516526.64
-412937.56
-337379.37
660351.91
723032.22
692817.6
1942.5434
265.07821
816.69327
1242.1513
2212.7104
2110.2971
-109861.61
-130490.88
-130208.32
-110943.85
-107210.33
-100859.97
-85956.716
-80590.658
-72127.814
-61792.607
-58109.825
-49860.67
-43634.66
-36063.422
-31032.679
-24289.696
-19336.822
-14009.593
-9764.2368
-6046.9786
-3694.4232
-1091.1952
-396.91814
-10451.042
-34555.889
-11835.205
-23739.437
-11870.497
-10826.952
-4871.1164
-4157.0349
-270.5869
5321.0579
6448.2821
10074.959
11092.859
11859.441
11009.183
10778.7
8899.2935
7554.9274
5299.0644
4242.5479
1437.1979
1151.4796
-1490.7168
92216.86
81174.043
78052.13
68346.176
84099.193
66456.089
69660.682
62410.346
59578.424
54865.561
47760.623
43014.681
37339.058
32385.695
27451.259
23322.809
18838.98
14930.583
11086.752
8168.1455
6464.9733
2604.8905
586.84361
-256107.5
-194662.28
-205305.14
-42310.34
-21549.117
24693.547
34607.279
98493.283
200303.49
269012.88
286369.11
305623.23
214197.03
225879.32
225327.37
190306.9
198646.43
217614.64
150074.45
166232.86
178419.27
157619.25
172331.51
195384.63
142769.57
152494.97
160636.75
136295.75
140918.49
158674.32
125509.85
129402.61
144256.65
114288.36
116889.13
130329.67
103827.48
105959.33
116873.56
91413.22
90708.814
101498.28
80058.055
80052.49
88389.469
68112.415
66400.292
73142.337
56999.633
54821.546
59645.59
46096.212
43033.528
47766.961
36346.751
33823.618
36480.034
27594.79
24051.127
26044.679
19719.694
16736.1
18112.421
12822.633
10142.896
10718.348
8064.9514
5600.8983
5637.9024
3241.9457
1533.4969
1226.2456
1509.7365
-800.36941
87.907159
-476.21501
-1263.9092
-1938.3345
-449.1848
-116.47842
236.4621
-35.022734
144.51288
-722.023
-3837.821
-2391.1688
-2894.7331
-232402.91
-201880.04
-194779.27
-231332.66
-192461.01
-166526.16
-224000.04
-180346.77
-166644.21
-182359.82
-155842.12
-143524.35
-176233.6
-152500.37
-124123.14
-158009.6
-118314.48
-116711.61
-135502.03
-114175.86
-109755.71
-126958.41
-99969.572
-95960.59
-109516.62
-91046.954
-86500.65
-99832.311
-78345.474
-82374.84
-89275.319
-72208.663
-75617.619
-80702.351
-62417.483
-70184.14
-68890.196
-56847.063
-64597.634
-60799.799
-49983.42
-58332.535
-51079.418
-44260.316
-52002.099
-42391.742
-37347.669
-44690.468
-33782.208
-31430.227
-37617.383
-25518.049
-24767.456
-30029.179
-18252.168
-19061.541
-22601.006
-12029.877
-13357.684
-16063.921
-6737.3478
-7256.5669
-10252.15
-2052.6267
-3852.4924
-4921.2351
883.78097
364.85113
-920.64385
-59249.064
-80960.742
-65971.158
-76083.242
-79757.458
-70169.942
-65233.192
-60674.03
-55146.665
-48247.629
-45182.871
-36959.342
-30906.2
-25575.035
-20090.709
-15694.621
-11356.485
-7895.6276
-5348.699
-2699.7286
-1967.5437
-441.21417
1235.7234
81625.779
35916.901
33897.908
20380.94
6643.9444
23874.524
8454.997
13852.869
8448.5551
11179.351
3460.8491
4597.3394
41.749676
-267.55525
-3485.0982
-3289.4103
-4290.1106
-4012.8339
-3273.4649
-2485.2853
-1468.1691
-379.46005
-48.042301
155952.27
150181.55
162006.69
134376.81
130235.37
120851.11
96377.133
90612.518
77595.505
68380.751
58912.385
51221.443
45426.482
37347.724
31792.792
25733.678
20059.363
14502.415
10595.474
6005.8003
3473.6568
1035.5953
-250.98595
-173840.05
-139606.56
-90126.521
-145998.59
-115247.42
-88168.906
-111267.48
-95915.339
-99818.919
-103700.52
-107569.18
-63588.814
-115768.92
-79964.476
-74315.365
-83209.252
-86110.912
-76454.7
-89061.287
-87813.613
-67802.593
-82051
-70454.832
-62405.68
-68438.618
-64744.807
-63356.482
-60125.74
-62620.312
-55188.513
-51168.864
-52664.454
-47221.487
-39011.491
-44631.203
-42065.939
-31257.727
-38062.559
-35104.029
-23440.893
-30600.28
-28811.057
-16089.894
-23460.096
-21872.69
-10212.936
-17644.481
-16578.765
-5538.5624
-12239.88
-11169.147
-2353.9727
-7838.8477
-6786.7922
144.94719
-4086.0934
-3178.9993
871.00505
-1384.2153
-1026.898
3526.3807
-917.01534
2659.2214
1925.2198
1621.2424
1649.4384
1701.7028
604.29243
2192.7294
-19274.194
40457.748
37889.689
-23337.709
-17070.446
430.59232
-33388.276
-13136.265
13193.155
-27394.759
-5654.0477
14391.826
-15742.279
-9970.4487
2154.7435
-14338.397
-14067.624
7734.9875
-16326.34
-7927.6898
12914.781
-7412.6916
-905.84111
8434.5525
-2547.3273
-6140.5226
9499.2831
-5460.8458
-980.43892
10248.13
-240.56816
69.98457
11538.391
-49.540915
673.58929
9660.7895
2135.2721
-540.41864
11214.422
2030.0137
1827.0866
10833.049
4600.6584
612.04948
10378.143
4417.6409
1514.8545
9481.9818
5512.4136
945.38175
8856.4493
5211.3107
1811.2856
7932.3057
5704.9317
1855.7435
5853.2647
3696.0776
1845.6678
6039.6048
5420.6255
2881.1458
2452.0197
2863.6883
901.89489
2433.8725
781.02336
-241.50984
381.41088
139835.17
178097.49
232036.11
74004.968
86733.989
145187.6
78223.116
136744.89
148812.23
101518.12
96475.182
123448.83
70827.1
93282.534
113628.64
71858.862
86572.521
111043.73
64867.528
79264.136
94647.43
60444.685
71250.433
84968.192
51849.717
63165.771
74350.146
49240.571
59283.168
67151.225
44372.987
53979.036
58371.315
41340.99
48920.283
51372.348
36155.789
45658.338
45888.093
33404.318
41449.656
39707.812
29541.834
36673.352
33759.692
26253.841
31298.021
29151.878
22195.724
26206.101
24137.332
19110.916
20301.25
19599.925
14865.443
15338.332
14791.041
12310.855
8689.9271
11267.797
5882.4531
6975.068
7122.7385
4156.7262
1855.954
3772.6386
1457.9858
496.48801
1794.0118
)
;

boundaryField
{
    free
    {
        type            calculated;
    }
    fixed
    {
        type            calculated;
    }
    freeTop
    {
        type            calculated;
    }
}


// ************************************************************************* //
