/*--------------------------------*- C++ -*----------------------------------*\
  =========                 |
  \\      /  F ield         | OpenFOAM: The Open Source CFD Toolbox
   \\    /   O peration     | Website:  https://openfoam.org
    \\  /    A nd           | Version:  6
     \\/     M anipulation  |
\*---------------------------------------------------------------------------*/
FoamFile
{
    version     2.0;
    format      ascii;
    class       pointVectorField;
    location    "1.37";
    object      u;
}
// * * * * * * * * * * * * * * * * * * * * * * * * * * * * * * * * * * * * * //

dimensions      [0 1 0 0 0 0 0];

internalField   nonuniform List<vector> 
28033
(
(0 0 0)
(0 0 0)
(1.0870091 0.024511393 0.009691745)
(1.0528932 -0.2337699 0.009270551)
(0 0 0)
(0 0 0)
(1.052797 -0.23493144 0.0092359036)
(1.0869512 0.023293695 0.0093151034)
(0 0 0)
(0 0 0)
(0 0 0)
(0 0 0)
(0 0 0)
(0 0 0)
(0 0 0)
(0 0 0)
(0 0 0)
(0 0 0)
(0 0 0)
(0 0 0)
(0 0 0)
(0 0 0)
(0 0 0)
(1.0846717 0.0078372872 0.009415377)
(1.082326 -0.0084217512 0.0093862532)
(1.0800113 -0.024553617 0.0093146376)
(1.0777853 -0.040621187 0.0093206589)
(1.0755907 -0.056618384 0.0093290844)
(1.0734279 -0.072570031 0.0093616296)
(1.0713111 -0.088497874 0.009405964)
(1.0692216 -0.10441712 0.0094624348)
(1.0671624 -0.12034057 0.009510939)
(1.0651214 -0.1362978 0.0095663257)
(1.0631046 -0.15228077 0.009598105)
(1.0610878 -0.16833915 0.0096060266)
(1.0590997 -0.18445797 0.0095999862)
(1.0570613 -0.20069401 0.0095698166)
(1.0550716 -0.2170674 0.0094601323)
(0.0031034572 0.0050236141 0.0052057166)
(0.0038916206 0.007518348 0.0071204472)
(0.0050191468 0.01027235 0.0085190202)
(0.0066887268 0.013031731 0.0093713617)
(0.0085744283 0.015895142 0.0098998154)
(0.011024685 0.018727546 0.01023233)
(0.013835142 0.021656555 0.010409419)
(0.017096044 0.024423576 0.010469771)
(0.020745711 0.027310222 0.0104735)
(0.024821661 0.030001774 0.010416303)
(0.029221571 0.032729091 0.010341617)
(0.034035479 0.035315215 0.010202921)
(0.039152045 0.037877943 0.010121809)
(0.044688534 0.040315202 0.0099452033)
(0.050442855 0.042675254 0.009860546)
(0.056610366 0.044937198 0.0096694495)
(0.063014833 0.047125209 0.0095816773)
(0.06977595 0.049189085 0.0094093482)
(0.07675297 0.051174514 0.0093084838)
(0.084064458 0.053056412 0.0091464014)
(0.091589588 0.054849461 0.0090509533)
(0.099405845 0.056536355 0.0088992171)
(0.10744033 0.058144306 0.0088035537)
(0.11572965 0.059650829 0.0086780903)
(0.12422052 0.061067452 0.008580442)
(0.1329509 0.062408541 0.0084727571)
(0.14186576 0.063651567 0.008389153)
(0.15099777 0.064828 0.0083042997)
(0.16031082 0.065912754 0.0082302497)
(0.16981265 0.066934407 0.0081692414)
(0.17949065 0.067876873 0.0081190676)
(0.18933774 0.06875428 0.0080776898)
(0.19935477 0.069568277 0.0080543292)
(0.20953289 0.070314831 0.0080394408)
(0.21986374 0.071008199 0.0080398099)
(0.23035887 0.071642943 0.0080486075)
(0.24099604 0.072223074 0.0080765275)
(0.25179223 0.07275342 0.0081161632)
(0.26272403 0.073229291 0.0081596475)
(0.27381425 0.073666105 0.0082206876)
(0.28503924 0.074045967 0.0082892499)
(0.29641502 0.074393741 0.0083688699)
(0.30793441 0.074686995 0.0084513675)
(0.31960161 0.074945948 0.0085459226)
(0.33140823 0.07515419 0.0086422758)
(0.34336539 0.075326331 0.0087446801)
(0.35546078 0.075452399 0.0088503436)
(0.36770692 0.075537517 0.0089575566)
(0.38009059 0.075579347 0.0090669346)
(0.39262376 0.07557779 0.0091763976)
(0.40529458 0.075533015 0.0092853589)
(0.41811151 0.075442419 0.0093936397)
(0.43106625 0.075309105 0.0094996754)
(0.44416291 0.075126856 0.0096036306)
(0.4573966 0.074901772 0.0097039606)
(0.47076768 0.074626252 0.0098013848)
(0.48427367 0.074305687 0.0098937003)
(0.49791309 0.073935071 0.0099819314)
(0.51168359 0.073517146 0.01006434)
(0.52558345 0.073048026 0.010141736)
(0.53961021 0.072532009 0.010211761)
(0.55376211 0.071963 0.010276647)
(0.56803418 0.071347607 0.010333881)
(0.58242984 0.070676382 0.010383579)
(0.59693683 0.069962965 0.010428818)
(0.61156056 0.069193081 0.010464357)
(0.62629547 0.068373611 0.010493381)
(0.64113552 0.067505418 0.010517998)
(0.65608239 0.066587458 0.010532006)
(0.67112437 0.06562227 0.010542807)
(0.68627044 0.064607057 0.010548384)
(0.7015014 0.063541852 0.010551795)
(0.71683341 0.062436101 0.010543911)
(0.73224041 0.061269589 0.010541713)
(0.74774195 0.060080105 0.010523925)
(0.76331463 0.058809299 0.010519297)
(0.7789691 0.057539652 0.010492183)
(0.79469689 0.056167818 0.010485716)
(0.81049001 0.054813843 0.010452513)
(0.82635873 0.053351521 0.010442815)
(0.84228273 0.05190291 0.010404048)
(0.85827242 0.050359966 0.010392016)
(0.87432062 0.048812162 0.010348137)
(0.89041583 0.047187843 0.010329391)
(0.90657052 0.045542854 0.010287631)
(0.92276251 0.043845433 0.010255828)
(0.93901139 0.042089853 0.010214002)
(0.95528165 0.04031209 0.010179436)
(0.97160743 0.038472188 0.010124447)
(0.98794141 0.036610327 0.010089293)
(1.0043216 0.03466272 0.010050695)
(1.0207161 0.032783627 0.0099801324)
(1.0371316 0.030733604 0.0099895837)
(1.0536154 0.028777252 0.0099190787)
(1.0700832 0.026772815 0.0099294219)
(0.0012971682 -0.0049805435 -0.0059935774)
(0.0026352114 -0.0068840905 -0.0067264637)
(0.0034896427 -0.0095415005 -0.0087253823)
(0.0046007202 -0.011813068 -0.0092194407)
(0.0064558593 -0.014447685 -0.0098653428)
(0.008600783 -0.017252556 -0.010021477)
(0.011184714 -0.019761624 -0.010166312)
(0.014189929 -0.022595797 -0.010039785)
(0.017638763 -0.025253408 -0.0099293571)
(0.021388229 -0.027979033 -0.0096887436)
(0.025584588 -0.03066859 -0.0094353327)
(0.030051906 -0.033342707 -0.0091332685)
(0.034915175 -0.03599779 -0.0088103409)
(0.040056436 -0.038637934 -0.0084877274)
(0.045540676 -0.041222807 -0.0081360315)
(0.051302263 -0.043827114 -0.0077994755)
(0.057368686 -0.046334796 -0.0074449403)
(0.063704639 -0.048881299 -0.0070976368)
(0.070316243 -0.051342292 -0.0067553666)
(0.077206094 -0.053821074 -0.0064096445)
(0.084325316 -0.056220855 -0.0060704399)
(0.091716604 -0.058649255 -0.0057425043)
(0.099308451 -0.060975645 -0.0054159468)
(0.10716559 -0.06334903 -0.0050936684)
(0.11519833 -0.065622365 -0.004789328)
(0.12349923 -0.067940571 -0.0044707144)
(0.13194935 -0.07017531 -0.0041954251)
(0.14064893 -0.072433213 -0.0038912472)
(0.14949409 -0.074636762 -0.0036308365)
(0.15856185 -0.076840021 -0.0033481691)
(0.16777394 -0.079021519 -0.0030987456)
(0.17718867 -0.081185937 -0.0028421637)
(0.18674475 -0.083345213 -0.0026049626)
(0.19648677 -0.085486531 -0.0023675528)
(0.20637127 -0.087632981 -0.0021434265)
(0.21642353 -0.08976088 -0.001926848)
(0.22662112 -0.091897564 -0.0017087802)
(0.23697355 -0.094031891 -0.0015052811)
(0.24747186 -0.096171438 -0.001302294)
(0.25812076 -0.098315389 -0.0011061668)
(0.26891443 -0.10047007 -0.00091219555)
(0.27985377 -0.10263241 -0.00072257901)
(0.29093904 -0.10480969 -0.00053348049)
(0.30216863 -0.10699911 -0.00034743737)
(0.31354237 -0.10920475 -0.00016108084)
(0.32506243 -0.11142718 2.4949561e-05)
(0.3367243 -0.11366626 0.0002107799)
(0.3485333 -0.1159247 0.00039843355)
(0.36048388 -0.11820135 0.00058631165)
(0.37258 -0.12049711 0.00077634827)
(0.38481798 -0.12281266 0.00096748546)
(0.39719953 -0.12514722 0.001160421)
(0.40972156 -0.12750058 0.0013547171)
(0.42238575 -0.12987347 0.0015505699)
(0.43518788 -0.13226406 0.0017472293)
(0.4481293 -0.13467225 0.0019449682)
(0.46120697 -0.13709835 0.0021431079)
(0.47441979 -0.13953961 0.0023413459)
(0.48776566 -0.14199678 0.0025392643)
(0.50124376 -0.14446847 0.0027368089)
(0.51485036 -0.14695306 0.0029330046)
(0.52858504 -0.14945007 0.0031281115)
(0.54244475 -0.15195846 0.0033214616)
(0.55642737 -0.1544764 0.003512944)
(0.57053041 -0.15700309 0.0037020899)
(0.58475226 -0.15953811 0.0038894752)
(0.59908913 -0.16207815 0.0040733704)
(0.61353893 -0.16462439 0.0042561946)
(0.62809746 -0.1671722 0.0044318759)
(0.64276313 -0.16972061 0.0046137076)
(0.65753809 -0.17228086 0.0047867744)
(0.67240761 -0.17482801 0.0049591232)
(0.68738269 -0.17738642 0.0051299898)
(0.70244786 -0.17993355 0.005297205)
(0.71761219 -0.18248625 0.0054664556)
(0.73286106 -0.18502859 0.0056294905)
(0.74820212 -0.18757207 0.0057972604)
(0.76362544 -0.19010546 0.0059594218)
(0.77913255 -0.19263695 0.0061263089)
(0.79471786 -0.19515659 0.0062895934)
(0.81038167 -0.19767278 0.0064573097)
(0.82611859 -0.20017471 0.0066233743)
(0.84192733 -0.20267022 0.00679383)
(0.85780567 -0.20515021 0.0069643505)
(0.87374746 -0.20761868 0.00713783)
(0.88975421 -0.21007184 0.0073140624)
(0.90581726 -0.21250727 0.007492064)
(0.9219372 -0.21492455 0.0076710465)
(0.93810615 -0.21732466 0.0078550866)
(0.95432556 -0.21970037 0.0080368844)
(0.97058161 -0.22205587 0.008220743)
(0.98688817 -0.22439636 0.0084039896)
(1.0032224 -0.22672366 0.0085983267)
(1.0196333 -0.22902594 0.0087687618)
(1.0360948 -0.23139657 0.0089939558)
(0 0 0)
(0 0 0)
(0 0 0)
(0 0 0)
(0 0 0)
(0 0 0)
(0 0 0)
(0 0 0)
(0 0 0)
(0 0 0)
(0 0 0)
(0 0 0)
(0 0 0)
(0 0 0)
(0 0 0)
(0.0029040178 -0.0021846982 0.0044662988)
(0.003418758 -0.008300157 0.0068587877)
(0.0036074812 -0.0086859945 0.0081410171)
(0.0051298341 -0.012845322 0.0094240351)
(0.0066544935 -0.014698445 0.0099658935)
(0.0089328617 -0.017865367 0.01021037)
(0.011452224 -0.020339245 0.010415806)
(0.014510836 -0.023387745 0.010432711)
(0.017918091 -0.025970102 0.010411675)
(0.021645223 -0.028911056 0.010298513)
(0.025868439 -0.031592282 0.01022439)
(0.030254886 -0.034329254 0.010031422)
(0.03515055 -0.037126662 0.0099367858)
(0.040200905 -0.039686786 0.0097174157)
(0.045719392 -0.042529098 0.0096159583)
(0.051400552 -0.044944126 0.0094211798)
(0.057469937 -0.047731871 0.0093053131)
(0.06375979 -0.050087144 0.0090926735)
(0.070355408 -0.052793928 0.0089919117)
(0.077212913 -0.055126414 0.0088041081)
(0.084304667 -0.057682252 0.0086921736)
(0.09168171 -0.060062435 0.008535939)
(0.0992577 -0.062470008 0.0084303442)
(0.10709633 -0.064833506 0.0082974888)
(0.11513176 -0.067140606 0.0081848932)
(0.12340521 -0.06949551 0.0080827313)
(0.13186796 -0.071728196 0.0079816626)
(0.14053355 -0.074045246 0.007898797)
(0.14939808 -0.076241768 0.0078183042)
(0.15842799 -0.078505003 0.0077603476)
(0.16765844 -0.08068655 0.0077015662)
(0.17704477 -0.082905192 0.0076676865)
(0.18660952 -0.085074648 0.0076377861)
(0.19632861 -0.087264681 0.0076256126)
(0.20621348 -0.089430086 0.0076265379)
(0.2162483 -0.091595589 0.007637043)
(0.226435 -0.093769477 0.0076650823)
(0.23677491 -0.095933284 0.0077027107)
(0.24725965 -0.098105466 0.0077540531)
(0.25789315 -0.10027946 0.0078128366)
(0.26867232 -0.10246409 0.0078832881)
(0.27959567 -0.10465402 0.007961549)
(0.29066533 -0.10685748 0.0080466171)
(0.30187907 -0.10906988 0.008138898)
(0.31323753 -0.11129678 0.0082348018)
(0.32474141 -0.11353695 0.0083360725)
(0.33638948 -0.11579122 0.0084386079)
(0.34818288 -0.11806112 0.0085442099)
(0.36012058 -0.12034589 0.00864974)
(0.37220273 -0.12264636 0.0087562263)
(0.38442825 -0.12496221 0.0088618951)
(0.39679776 -0.12729341 0.0089656708)
(0.40930922 -0.12963998 0.0090686958)
(0.42196261 -0.1320002 0.0091676635)
(0.43475658 -0.13437663 0.0092651)
(0.44769014 -0.13676425 0.0093571485)
(0.4607613 -0.13916747 0.0094468186)
(0.47396996 -0.14158155 0.0095301843)
(0.48731262 -0.14400834 0.0096096578)
(0.50078958 -0.14644622 0.009682888)
(0.5143971 -0.1488947 0.0097505547)
(0.52813479 -0.15135288 0.0098117218)
(0.54199908 -0.15382075 0.0098668565)
(0.5559888 -0.15629648 0.0099148499)
(0.57010086 -0.15878026 0.0099563723)
(0.58433265 -0.16127174 0.0099913607)
(0.59868313 -0.16376885 0.010018136)
(0.61315034 -0.16627768 0.010042404)
(0.62771352 -0.16876544 0.010056969)
(0.64240715 -0.17129797 0.010066341)
(0.65719354 -0.17380499 0.010073286)
(0.67208409 -0.17632379 0.010073309)
(0.68707535 -0.17884279 0.010068667)
(0.70216109 -0.18136325 0.010062315)
(0.71733994 -0.18388291 0.010050614)
(0.73260948 -0.1864024 0.01003756)
(0.74796485 -0.18891939 0.010020861)
(0.76340549 -0.19143378 0.010002799)
(0.77892644 -0.19394437 0.009982131)
(0.79452644 -0.19644894 0.0099600119)
(0.81020205 -0.19894807 0.0099348553)
(0.82595138 -0.2014391 0.0099090725)
(0.84177018 -0.20392054 0.0098794392)
(0.85765814 -0.20639242 0.0098487911)
(0.8736095 -0.20885055 0.0098145099)
(0.88962331 -0.21129668 0.0097794975)
(0.90569455 -0.21372427 0.0097395278)
(0.92182135 -0.21613883 0.0097010085)
(0.93799638 -0.21852911 0.0096570452)
(0.95422151 -0.22090676 0.0096163034)
(0.97048329 -0.22325535 0.0095700783)
(0.98679431 -0.22559877 0.0095316592)
(1.0031307 -0.22791359 0.0094815181)
(1.019552 -0.23023817 0.0094437755)
(1.0359752 -0.23260367 0.0093723414)
(1.0550206 -0.2182325 0.0090929114)
(1.0570074 -0.20190784 0.0090073304)
(1.0590149 -0.18562621 0.0090039203)
(1.0610221 -0.16952975 0.008998601)
(1.0630323 -0.15346165 0.0090599435)
(1.0650484 -0.13748269 0.0091041928)
(1.0670908 -0.12152972 0.0091943326)
(1.0691461 -0.10559917 0.0092689106)
(1.0712508 -0.089693313 0.0093492009)
(1.0733553 -0.073758373 0.0094285638)
(1.0755279 -0.057810815 0.0094842521)
(1.077714 -0.041818515 0.0095268347)
(1.0799605 -0.025766971 0.0095576869)
(1.082199 -0.0096108842 0.0095389865)
(1.0846174 0.0065878871 0.0094982357)
(1.0700792 0.025555323 0.0089533932)
(1.0535208 0.027516303 0.0087774737)
(1.0370764 0.029541555 0.0085818155)
(1.0206486 0.031521081 0.0084074911)
(1.004253 0.033468322 0.0082129489)
(0.98788042 0.035377493 0.0080249465)
(0.97153586 0.037244402 0.0078376749)
(0.95521878 0.039072052 0.0076465616)
(0.93893955 0.040849611 0.0074629591)
(0.92269699 0.042588976 0.0072753357)
(0.90649873 0.044276516 0.0070950073)
(0.8903469 0.045923292 0.0069128613)
(0.8742447 0.047520204 0.0067355249)
(0.85819817 0.049073392 0.0065567403)
(0.84220942 0.050578514 0.0063824984)
(0.82628214 0.052038324 0.0062078889)
(0.81041987 0.053450101 0.0060368241)
(0.79462423 0.054814423 0.0058645155)
(0.77889916 0.0561326 0.0056934207)
(0.763248 0.057400381 0.0055217668)
(0.74767223 0.058622845 0.0053492789)
(0.73217697 0.059793441 0.0051757554)
(0.71676263 0.060919046 0.0049998294)
(0.70143537 0.061991212 0.0048222729)
(0.68619416 0.063019069 0.0046420285)
(0.67104866 0.063994935 0.0044590241)
(0.65598278 0.064927736 0.0042717689)
(0.64106503 0.065776753 0.0040970337)
(0.62618863 0.06662599 0.0038953858)
(0.61145281 0.067393704 0.0037059843)
(0.59681314 0.068124092 0.0035064616)
(0.5822889 0.068803195 0.0033080285)
(0.56787856 0.069433465 0.0031063282)
(0.55358637 0.070016088 0.0029022708)
(0.539415 0.070550965 0.0026967477)
(0.52536714 0.071039064 0.0024897459)
(0.51144566 0.071480572 0.0022814)
(0.49765313 0.071876407 0.002072854)
(0.48399193 0.07222703 0.001863934)
(0.47046435 0.072533066 0.0016553836)
(0.45707252 0.072795271 0.0014474331)
(0.44381852 0.073014151 0.0012409329)
(0.43070385 0.073190432 0.0010353909)
(0.4177304 0.073324624 0.00083209038)
(0.40489925 0.073417479 0.00063034788)
(0.39221186 0.073469186 0.00043093194)
(0.37966885 0.073480718 0.00023341282)
(0.36727129 0.073451788 3.8052291e-05)
(0.35501939 0.073383275 -0.00015568967)
(0.34291392 0.073274956 -0.00034771803)
(0.3309549 0.073126448 -0.00053863159)
(0.31914188 0.072938828 -0.00072924875)
(0.30747707 0.072708605 -0.00091872153)
(0.29595694 0.072439896 -0.0011110281)
(0.28458529 0.072126107 -0.0013020699)
(0.27336163 0.071769838 -0.0014959483)
(0.2622812 0.071372693 -0.0016938494)
(0.25135159 0.070917577 -0.001894055)
(0.24058032 0.070420215 -0.0020942823)
(0.22994567 0.06987722 -0.0023074057)
(0.21946867 0.069265354 -0.0025228704)
(0.20915906 0.068607916 -0.0027413476)
(0.1989933 0.067885607 -0.0029662122)
(0.18899416 0.067108472 -0.0032061379)
(0.17915833 0.066245346 -0.0034457065)
(0.16950828 0.065338521 -0.0036992961)
(0.16001616 0.064331447 -0.0039499237)
(0.15072921 0.063280298 -0.0042209556)
(0.14160796 0.062113481 -0.0044878154)
(0.13270607 0.060911347 -0.0047798195)
(0.12399108 0.059578997 -0.0050569507)
(0.1155016 0.058194679 -0.0053637971)
(0.10723784 0.05669076 -0.0056541296)
(0.099192905 0.055144422 -0.0059712165)
(0.091393787 0.053449987 -0.0062837641)
(0.083857499 0.051711253 -0.0065899294)
(0.076557584 0.049848255 -0.0069321963)
(0.069558579 0.047902327 -0.0072220501)
(0.062810711 0.045884677 -0.0075830099)
(0.056390451 0.043718997 -0.0078661556)
(0.050263709 0.041545585 -0.0082117226)
(0.044422834 0.039174436 -0.0084762769)
(0.038939157 0.036857945 -0.0088291299)
(0.033795505 0.034278194 -0.009052128)
(0.02899538 0.031859495 -0.0093729652)
(0.024558373 0.029126697 -0.0095477983)
(0.020519635 0.026521669 -0.0097568794)
(0.016863985 0.023715927 -0.0098392412)
(0.013597991 0.021022965 -0.0099010086)
(0.0107828 0.018186818 -0.0097924304)
(0.0083981731 0.015378618 -0.0095041708)
(0.0065038785 0.012491671 -0.0090008105)
(0.0050592329 0.010013084 -0.0082189228)
(0.0038263223 0.0070403772 -0.0065868936)
(0.0043461618 0.0045589218 -0.0039209604)
(0 0 0)
(0 0 0)
(0 0 0)
(0 0 0)
(0 0 0)
(0 0 0)
(0 0 0)
(0 0 0)
(0 0 0)
(0 0 0)
(0 0 0)
(0 0 0)
(0 0 0)
(0 0 0)
(0 0 0)
(0 0 0)
(0 0 0)
(0 0 0)
(0 0 0)
(0 0 0)
(0 0 0)
(0 0 0)
(0 0 0)
(0 0 0)
(0 0 0)
(0 0 0)
(0 0 0)
(0 0 0)
(0 0 0)
(0 0 0)
(1.052946 -0.2340024 0.0092509257)
(1.0529641 -0.23416187 0.0092330646)
(1.0529696 -0.23428021 0.0092164053)
(1.0529832 -0.23439661 0.009212539)
(1.0529937 -0.23450095 0.0092125046)
(1.0530031 -0.23459575 0.0092260674)
(1.0530058 -0.23468247 0.0092375494)
(1.0530046 -0.23476072 0.009259327)
(1.0529977 -0.23483445 0.0092736104)
(1.0529823 -0.23489758 0.0092893277)
(1.052973 -0.23496456 0.0093001268)
(1.052946 -0.23500025 0.0093005958)
(1.0529278 -0.23504533 0.0092947686)
(1.0529044 -0.23506042 0.0092811472)
(1.0528885 -0.23507951 0.0092547814)
(1.0871835 0.024593944 0.009673602)
(1.087223 0.024555141 0.0096862846)
(1.0872545 0.024522507 0.0096611984)
(1.0872935 0.024477082 0.0096400048)
(1.0873068 0.024415425 0.009614927)
(1.0873237 0.02434948 0.0095747095)
(1.0873312 0.024282709 0.0095376295)
(1.0873304 0.024207393 0.0094929243)
(1.087322 0.024131365 0.0094505529)
(1.0873044 0.024051026 0.0094117358)
(1.0872806 0.023962599 0.0093756282)
(1.0872476 0.023870741 0.0093462614)
(1.0872163 0.023775275 0.0093392127)
(1.0871671 0.023638075 0.0093034248)
(1.0871462 0.023557234 0.0093146098)
(0.0013480044 0.0015812785 0.0052375565)
(0.0020256821 0.001859123 0.0060109907)
(0.0026704532 0.002343477 0.0074750428)
(0.0039645281 0.0027390881 0.0080138552)
(0.0052782556 0.003108884 0.0086623557)
(0.0073040575 0.0035831266 0.0089312774)
(0.0095311748 0.0040535425 0.0091442632)
(0.01237246 0.0046633992 0.0092333577)
(0.015415888 0.0052206876 0.0092751179)
(0.019023539 0.0059348056 0.0092654652)
(0.02288928 0.0065709042 0.0091944144)
(0.027233867 0.0073789714 0.0091589472)
(0.031854997 0.0080792477 0.0090367436)
(0.036902319 0.0089648401 0.0089695165)
(0.042217315 0.0097513545 0.0088472235)
(0.047965028 0.010703663 0.0087673478)
(0.05398012 0.011585502 0.0086321313)
(0.060324664 0.012594808 0.0085568842)
(0.067003473 0.013595756 0.0084309146)
(0.073989006 0.014677334 0.0083408303)
(0.081260739 0.015784735 0.0082349368)
(0.088836787 0.016951342 0.0081470781)
(0.096703052 0.018174687 0.008039675)
(0.10482213 0.019444754 0.007961208)
(0.11323797 0.020778346 0.0078673719)
(0.12189807 0.022161097 0.0077931576)
(0.13082332 0.023608788 0.0077152396)
(0.13998239 0.025107261 0.0076517748)
(0.14939302 0.026668365 0.0075914553)
(0.15902784 0.028285626 0.0075437129)
(0.16888844 0.029957512 0.0075020586)
(0.17897001 0.031686906 0.007473537)
(0.18926295 0.033469066 0.0074565672)
(0.19975558 0.035298888 0.0074505373)
(0.21045833 0.037183294 0.0074545301)
(0.2213484 0.039100764 0.0074755257)
(0.2324353 0.041069406 0.0075046436)
(0.24370276 0.043067062 0.0075433588)
(0.2551604 0.045098498 0.0075982433)
(0.26679452 0.047152386 0.0076615527)
(0.27860829 0.04922563 0.0077358372)
(0.29059157 0.051302392 0.0078157775)
(0.30274997 0.053396058 0.0079076617)
(0.31507749 0.055471811 0.0080022009)
(0.32756652 0.057545044 0.0081040992)
(0.34022242 0.059594083 0.0082110501)
(0.35303604 0.061613871 0.0083189192)
(0.36600738 0.063596426 0.0084324267)
(0.37913137 0.065531609 0.0085445523)
(0.39240594 0.067409917 0.0086591279)
(0.40582505 0.06922443 0.0087718159)
(0.41938641 0.070962825 0.0088851999)
(0.43308386 0.072619983 0.0089947273)
(0.44691413 0.074183259 0.0091037061)
(0.46087085 0.075648251 0.0092080087)
(0.47495005 0.077002142 0.0093098859)
(0.48914587 0.078242134 0.0094063193)
(0.5034532 0.07935575 0.0094989844)
(0.51786623 0.080339655 0.009585755)
(0.5323801 0.081185001 0.0096671345)
(0.54698895 0.081887091 0.0097420446)
(0.56168653 0.082438723 0.0098114259)
(0.57646876 0.082836658 0.0098731663)
(0.59132931 0.083073233 0.0099299257)
(0.6062601 0.083152306 0.0099772347)
(0.62126401 0.083055276 0.010020527)
(0.63633009 0.082798136 0.010056733)
(0.6514464 0.082366065 0.010088048)
(0.66661631 0.081760449 0.010114543)
(0.68183245 0.080979331 0.01013397)
(0.69709257 0.080027361 0.010148515)
(0.71238645 0.078897011 0.010159239)
(0.72771896 0.077598237 0.010164716)
(0.74307416 0.076119564 0.010169527)
(0.75846299 0.074480811 0.010168432)
(0.77386733 0.072656415 0.010169139)
(0.78929715 0.070689627 0.010161519)
(0.80474158 0.068527371 0.010161193)
(0.82020081 0.066244947 0.010146463)
(0.8356772 0.063763964 0.010144872)
(0.85115879 0.061169154 0.010127042)
(0.86665904 0.058401275 0.010118883)
(0.88216219 0.05550651 0.010099588)
(0.89767428 0.052466896 0.010087992)
(0.9131925 0.049310068 0.01006108)
(0.9287219 0.046014065 0.010044393)
(0.9442569 0.042611248 0.010020422)
(0.95979177 0.039103359 0.0099890939)
(0.97533751 0.035492637 0.0099636154)
(0.99087445 0.031771408 0.0099426965)
(1.0064275 0.028015769 0.0098871279)
(1.0219684 0.02413424 0.0098742909)
(1.0375313 0.020168908 0.009821102)
(1.0531178 0.016226556 0.009746381)
(1.0687485 0.012028724 0.0096556488)
(-0.0002128952 -0.00059220456 0.0045931471)
(-3.5224706e-05 -0.0032845075 0.0054198567)
(0.00076908387 -0.0044638326 0.0064154245)
(0.0013445883 -0.0065104804 0.0070965657)
(0.0025304283 -0.0079677017 0.0075104194)
(0.0039892074 -0.0096327585 0.0077623268)
(0.0059439794 -0.010992792 0.0079498342)
(0.0081835841 -0.012415463 0.0080493431)
(0.010940823 -0.013600999 0.0081188004)
(0.014040617 -0.014786229 0.008081391)
(0.017520573 -0.015753944 0.0081228857)
(0.021413819 -0.016670546 0.0080075338)
(0.025648054 -0.017389584 0.0080195399)
(0.030278113 -0.018027512 0.0078971311)
(0.035243715 -0.018481298 0.0078877059)
(0.040623918 -0.018805368 0.0077357173)
(0.046252733 -0.01897016 0.007736548)
(0.052348663 -0.018971249 0.0076023484)
(0.058696314 -0.018814132 0.0075613498)
(0.065430504 -0.018492252 0.00746187)
(0.072460005 -0.017989106 0.0074091084)
(0.079856112 -0.017319551 0.0073096521)
(0.087527401 -0.016466909 0.0072615638)
(0.095552806 -0.015443593 0.0071825324)
(0.10385849 -0.014240327 0.0071255114)
(0.11248213 -0.012854985 0.007058458)
(0.12138357 -0.011295396 0.0070102639)
(0.13058412 -0.0095609628 0.0069596869)
(0.14005736 -0.0076497387 0.0069168851)
(0.14980358 -0.005572136 0.0068825388)
(0.1598149 -0.0033268649 0.0068583462)
(0.17008537 -0.00092258628 0.0068402703)
(0.18059973 0.0016366334 0.0068341366)
(0.19136632 0.004343519 0.0068376712)
(0.20236272 0.0071869096 0.0068529873)
(0.21359357 0.010164039 0.0068791893)
(0.2250527 0.013258684 0.0069128961)
(0.23672772 0.016463872 0.0069659891)
(0.24861107 0.019764133 0.0070232111)
(0.26070998 0.023157861 0.0070927065)
(0.27300366 0.026614121 0.0071694891)
(0.28550214 0.030141213 0.0072612655)
(0.29819805 0.033700733 0.0073470524)
(0.31107305 0.037298092 0.00745492)
(0.32413968 0.040909366 0.0075573668)
(0.33738353 0.044515854 0.0076699541)
(0.35079884 0.048107832 0.007784182)
(0.36438427 0.051664732 0.0079020691)
(0.37812979 0.055172199 0.0080194312)
(0.39203108 0.058612527 0.0081400394)
(0.40607986 0.061971953 0.0082582189)
(0.42027071 0.065229721 0.0083771566)
(0.43459405 0.068376487 0.0084928527)
(0.44904423 0.071389358 0.0086077975)
(0.46361119 0.074260262 0.0087182103)
(0.47828883 0.076968427 0.0088263261)
(0.49306699 0.079505631 0.0089290059)
(0.50793857 0.081852242 0.0090285163)
(0.5228943 0.084002633 0.009121265)
(0.53792698 0.085938149 0.0092097124)
(0.55302595 0.087653422 0.0092917043)
(0.56818584 0.089133981 0.0093678453)
(0.58339637 0.090373674 0.0094377768)
(0.59864914 0.091362851 0.0095008464)
(0.61393988 0.092096681 0.0095575256)
(0.62925795 0.092561783 0.009611797)
(0.64458777 0.0927681 0.0096554706)
(0.65993551 0.092688347 0.0096990726)
(0.67529561 0.092334824 0.0097287814)
(0.69065512 0.091702656 0.0097584684)
(0.70601113 0.090794944 0.0097812411)
(0.72135327 0.089598126 0.0098054368)
(0.7366845 0.088133833 0.0098196273)
(0.75199258 0.086373449 0.0098401432)
(0.76728296 0.084361692 0.0098447581)
(0.78254203 0.082045949 0.0098648038)
(0.79777919 0.079501899 0.0098603833)
(0.81298093 0.076648074 0.0098808518)
(0.82815611 0.073593849 0.0098677645)
(0.84329592 0.070226704 0.0098904167)
(0.85840723 0.066685354 0.0098695388)
(0.87348333 0.062852879 0.0098866175)
(0.88853131 0.058837534 0.0098732171)
(0.9035463 0.054581079 0.0098687293)
(0.9185412 0.050152289 0.009852021)
(0.9334946 0.045506359 0.0098541826)
(0.94843253 0.04070614 0.0098310667)
(0.96333082 0.035728763 0.0098245162)
(0.97822745 0.030583795 0.0098098895)
(0.99307848 0.025345516 0.0097726696)
(1.0079414 0.019936104 0.0097570336)
(1.0227588 0.014425033 0.0097196491)
(1.0376108 0.0088419363 0.0096590904)
(1.0524472 0.0031308569 0.0096001638)
(1.0673581 -0.0026539098 0.0095109283)
(-0.0011231003 -0.0025765115 0.0039405821)
(-0.0011474549 -0.0064331625 0.0045347528)
(-0.0012388523 -0.0096449568 0.0056684699)
(-0.00062110294 -0.012871304 0.0060587271)
(0.00020881691 -0.015986394 0.0064029443)
(0.0015545195 -0.018920677 0.0066082586)
(0.0030826296 -0.021839527 0.0067848268)
(0.0052414927 -0.024504688 0.0068738538)
(0.0076074325 -0.027179993 0.006886987)
(0.010457046 -0.029504126 0.0069657467)
(0.013649025 -0.031846535 0.0068958443)
(0.017281545 -0.033820255 0.0069375956)
(0.021218557 -0.035780771 0.0068552201)
(0.025597128 -0.037361574 0.0068663418)
(0.030321393 -0.038868335 0.0067600148)
(0.035393579 -0.040053794 0.0067846807)
(0.040877863 -0.041076595 0.0066816116)
(0.046695877 -0.041807302 0.0066601865)
(0.052870348 -0.042334703 0.0065978291)
(0.059414386 -0.042584507 0.0065647591)
(0.066313702 -0.042589514 0.006495408)
(0.07354108 -0.042345591 0.0064726887)
(0.081133292 -0.041823237 0.0064127316)
(0.08904495 -0.041061099 0.0063785273)
(0.097299449 -0.040010237 0.0063300793)
(0.10586935 -0.038724835 0.00630299)
(0.11477087 -0.037158556 0.0062642257)
(0.12397473 -0.035350426 0.0062374657)
(0.13348989 -0.033278464 0.0062151051)
(0.14330072 -0.030972022 0.0062016778)
(0.15340694 -0.028414116 0.0061887863)
(0.1637877 -0.02563322 0.0061912651)
(0.17445704 -0.022622353 0.0061974941)
(0.18538279 -0.019404546 0.0062156152)
(0.19657706 -0.015981051 0.0062420609)
(0.20802277 -0.01236855 0.0062781586)
(0.21971121 -0.0085840546 0.006330017)
(0.23163441 -0.0046349035 0.0063874206)
(0.24381142 -0.00054342425 0.006454267)
(0.25620328 0.003669819 0.0065278027)
(0.26882206 0.0080040499 0.0066166721)
(0.28165487 0.012422795 0.0067011896)
(0.29469313 0.016916422 0.0068107323)
(0.30793835 0.021464796 0.00691406)
(0.32138054 0.026042197 0.0070241919)
(0.33500776 0.030633674 0.0071430822)
(0.34882071 0.035216873 0.0072600674)
(0.36280743 0.039768648 0.0073826324)
(0.37696136 0.044270376 0.0075051658)
(0.39127366 0.048698716 0.0076302389)
(0.40573718 0.053034402 0.0077523176)
(0.42034044 0.057254357 0.0078771253)
(0.43507629 0.061341532 0.0079967599)
(0.44993314 0.065271041 0.0081174868)
(0.46490233 0.069029444 0.0082324862)
(0.47997269 0.07259176 0.008346339)
(0.49513423 0.075945404 0.0084544902)
(0.51037665 0.07906876 0.0085596112)
(0.52568961 0.081949712 0.0086580086)
(0.54106179 0.08456835 0.0087532724)
(0.55648455 0.086915352 0.0088406828)
(0.57194661 0.088973192 0.0089237918)
(0.58743779 0.090733514 0.0089999041)
(0.6029497 0.092183683 0.0090695036)
(0.61847367 0.093313208 0.0091354182)
(0.63399143 0.094116116 0.0091915201)
(0.64951985 0.094594208 0.009247509)
(0.66501996 0.094718499 0.0092886742)
(0.68049756 0.094497305 0.0093371981)
(0.69594683 0.093933096 0.0093764087)
(0.71135773 0.09301749 0.0094115172)
(0.72672684 0.091754114 0.009444788)
(0.74205363 0.090140086 0.0094704375)
(0.75732106 0.088180979 0.0094976568)
(0.77254256 0.085876485 0.0095189125)
(0.78769655 0.083229881 0.009542749)
(0.80280173 0.080255168 0.009558024)
(0.81783341 0.07694332 0.0095810392)
(0.83281647 0.073324031 0.0095916076)
(0.84772466 0.06938037 0.0096127083)
(0.86258367 0.065157425 0.0096171092)
(0.87737414 0.060612942 0.0096425629)
(0.89210855 0.05583545 0.0096368841)
(0.90679414 0.050749481 0.0096575682)
(0.92141633 0.045451171 0.0096595338)
(0.93599618 0.039894243 0.0096687447)
(0.95052037 0.034145143 0.0096602163)
(0.96501201 0.028156693 0.0096722807)
(0.97945736 0.022035633 0.0096457455)
(0.99386541 0.015701113 0.00965183)
(1.0082542 0.0092321468 0.0096276559)
(1.0226073 0.0026518827 0.0095978929)
(1.0369706 -0.0040839708 0.0095585647)
(1.0513165 -0.010862804 0.0095024628)
(1.0656896 -0.017742168 0.0094291817)
(-0.0015879391 -0.0032487802 0.0032630808)
(-0.0021335358 -0.0081055811 0.0039381113)
(-0.0021698039 -0.01198299 0.0046068515)
(-0.0017905919 -0.016067682 0.0049262513)
(-0.00099242925 -0.019850586 0.005251447)
(5.8754031e-05 -0.02360598 0.0054296402)
(0.0017135928 -0.027083214 0.0055593939)
(0.0035993882 -0.030570524 0.0055945531)
(0.0059258045 -0.033750309 0.0057292102)
(0.0086713461 -0.036861058 0.005661357)
(0.011785772 -0.039714271 0.005759113)
(0.015260856 -0.042405848 0.0056816815)
(0.019141724 -0.04485401 0.0057488053)
(0.023422422 -0.047061127 0.0056447186)
(0.028005844 -0.049081477 0.0057251972)
(0.033055872 -0.050775348 0.0056208678)
(0.038404372 -0.052272396 0.0056502108)
(0.044158389 -0.05345731 0.0056019884)
(0.050254575 -0.054397893 0.0056043214)
(0.056744446 -0.055030232 0.0055538025)
(0.06354646 -0.055399433 0.0055614196)
(0.070747243 -0.055458277 0.0055227009)
(0.078266263 -0.055233703 0.0055127888)