/*--------------------------------*- C++ -*----------------------------------*\
  =========                 |
  \\      /  F ield         | OpenFOAM: The Open Source CFD Toolbox
   \\    /   O peration     | Website:  https://openfoam.org
    \\  /    A nd           | Version:  6
     \\/     M anipulation  |
\*---------------------------------------------------------------------------*/
FoamFile
{
    version     2.0;
    format      ascii;
    class       pointScalarField;
    location    "0.95";
    object      E;
}
// * * * * * * * * * * * * * * * * * * * * * * * * * * * * * * * * * * * * * //

dimensions      [1 -1 -2 0 0 0 0];

internalField   nonuniform List<scalar> 
3969
(
99467.499
107880.18
-1738469.9
-878622.31
112301.68
117254.95
-1302059.1
-2634099.2
52782.859
22762.709
8707.4649
6037.0062
16804.198
43877.346
92708.299
-937157.5
-914093.94
-929307.95
-953227.73
-975317.85
-987551.63
-745452.81
105156.97
84665.064
82760.692
81127.119
77357.653
74950.777
70347.873
67497.024
63756.415
61023.04
58919.276
56908.172
55366.705
53745.9
52342.939
51207.058
49708.149
47939.529
46006.465
43407.241
40492.723
36934.16
32872.325
28120.288
23316.798
17557.327
11227.4
4959.5468
-1898.036
-8771.981
-15432.497
-21977.564
-28020.994
-33455.947
-37601.798
-41756.339
-43623.589
-45977.812
-45583.248
-45649.762
-43386.914
-40693.501
-37653.894
-32241.185
-28153.268
-23299.17
-1536.1268
96843.425
68245.195
76866.273
70490.386
67328.599
62128.015
57415.364
52353.563
47558.937
43238.278
38627.825
35402.131
31282.579
28005.115
24836.806
22263.595
19946.766
17807.025
16183.86
14605.84
13448.709
13213.837
11937.835
12302.004
12616.957
13823.563
14120.821
15110.619
16838.558
19534.963
22253.797
25091.599
27882.279
30614.52
32939.74
35238.974
35991.251
36669.322
36580.445
34951.296
32896.014
30185.666
25743.989
21174.705
15904.783
10071.743
-912.03241
57400.681
25675.186
8740.4696
9570.4381
14609.712
37946.029
77918.612
157091.99
97358.302
76809.903
89755.738
74793.16
72411.025
66862.88
58334.282
56282.809
47273.248
45857.644
41835.686
39688.879
36153.233
33487.437
31663.888
28943.77
27652.104
25705.731
24210.322
23032.11
22172.369
21658.119
21438.265
21145.644
21135.081
21151.575
21085.562
21952.15
22179.222
22612.249
23153.579
23425.959
23810.15
23693.936
22273.951
27796.533
21289.212
20455.378
18518.391
15893.052
13311.245
9428.7843
5643.5906
1108.4062
-2978.5058
-5252.9036
-2100792.2
-1763206.7
-2067303.4
-1871405.8
-1826214.8
-1626641.7
-2037600.3
-2433.6455
-12912.875
-13228.007
-16563.817
-20201.697
-23482.826
-25967.118
-28280.584
-29757.198
-29050.89
-27179.357
-32103.686
-28774.252
-25783.524
-22877.732
-18674.343
-14512.223
-9321.2121
-4137.4977
1336.3861
6673.1569
12074.202
17360.264
21992.133
26351.475
30074.918
33627.627
36570.696
39389.995
41602.699
43907.421
45098.89
47891.014
51517.879
52406.951
53863.365
57500.753
59826.191
63520.123
66305.313
72274.149
74739.816
80966.925
82432.063
83167.619
89660.661
116453.66
80977.849
79050.57
78246.196
78097.245
78034.425
77553.549
83404.316
69382.715
73940.964
81195.476
84397.869
84228.526
88032.078
74074.655
-985787.94
-985278.74
-985366.72
-985442.24
-985449.3
-985623.38
-985918.39
-1961876.1
-1959096.9
-1959461.4
-1959621.5
-1960047.3
-1960937.6
-1964635.4
66651.574
57482.515
58362.971
57090.823
56931.698
55052.532
53466.733
51292.268
49261.034
47339.659
45363.573
43298.377
41258.909
39189.399
37043.338
34931.727
32648.815
30226.327
27754.617
25150.57
22378.711
19452.131
16532.613
13420.811
10321.036
7206.4387
4169.7957
1431.3957
-1437.9524
-3771.4871
-5936.9639
-7922.505
-9517.2234
-10930.04
-11723.842
-12613.607
-12754.332
-12704.057
-12411.397
-11195.986
-10123.045
-8685.7813
-6278.3267
-5460.1862
-1995.4446
2446.1436
8660.5935
31100.151
29401.446
32277.834
32474.111
32876.916
32577.239
31558.554
30919.838
29684.674
28364.263
26892.988
25152.17
23958.723
22617.606
21096.328
19297.357
17397.906
15521.156
13529.96
11676.257
9920.5144
8131.4428
6442.9141
4868.0977
3429.3461
2012.1639
712.65014
-415.88008
-1534.8348
-2213.5291
-2711.9254
-3010.843
-3060.8347
-2754.6302
-2227.0078
-1734.0848
-97.792952
51.402905
2331.9952
2528.3652
4717.1734
5479.7077
7321.6775
7918.3148
10578.403
9002.5568
1852.2292
11691.98
8797.8582
12151.048
11541.983
12542.626
12308.32
12195.864
11626.394
10773.875
10558.161
9560.8254
8603.0709
7581.0772
5800.2404
5349.5239
4090.4696
3196.9436
1977.1993
1122.9678
78.342833
-869.74765
-1471.335
-1737.693
-1787.0333
-1613.9825
-1434.5674
-672.12717
251.09022
1241.2265
2394.71
3636.8819
4968.4328
6446.5178
7865.8772
9363.6128
11057.549
12220.998
14329.244
15613.161
16763.825
18494.129
18210.822
19869.301
19130.704
20923.011
17097.09
-25.532427
5719.5126
1136.6517
2783.5359
2671.229
3189.67
3328.3729
3151.5639
3821.783
3026.7773
3061.3291
2711.6076
2385.2546
2109.4495
1207.0084
726.8414
261.01582
-13.420983
-179.49573
-391.37817
-485.96569
-410.80659
50.945333
844.94324
1334.0586
1749.5767
2500.754
3037.2503
3904.6314
5006.3892
6362.9214
7815.5248
9609.1466
11170.111
13063.058
14885.103
16099.547
18064.11
19049.962
20310.077
21312.665
21312.436
20841.775
20799.747
18697.725
18857
13444.686
900.13049
14736.912
8069.014
8838.4889
7837.9948
8430.0142
8882.6554
8336.0239
8779.1786
7791.7563
8026.0639
7711.785
7192.0924
6452.9825
5777.5137
5460.5661
4801.9831
4399.4412
3875.5277
3384.9831
2872.735
3234.7664
2875.7465
2653.7209
1973.6382
1454.5629
890.81115
487.9926
81.809667
-358.13278
-827.21767
-1198.9656
-1566.1813
-1904.9052
-2132.2501
-2495.7631
-2363.8678
-2791.6138
-1269.0229
6941.1995
12306.703
10672.209
10280.638
8684.8613
7335.9512
5432.287
4809.9226
5670.6472
36251.884
29206.58
28934.089
28279.75
29151.813
28404.314
27568.885
26611.518
24615.293
23604.607
22462.905
21237.077
19041.026
17740.876
16319.877
15163.084
13918.663
12925.916
11883.696
10949.213
9705.4663
9690.041
7013.9768
5157.0987
3897.3979
2791.9589
1217.7294
386.88984
-760.22218
-1693.6407
-2706.9541
-3560.4602
-4475.1198
-5205.2875
-6034.7084
-6523.3752
-7037.4808
-7662.7188
-6830.5884
-5217.8802
-7755.0688
-7486.0394
-8285.7632
-7847.9887
-7955.9494
-8369.5399
1560.0781
57128.778
50052.869
48574.686
48799.139
48933.382
46549.789
44401.149
41104.874
38972.446
35351.818
34095.952
31111.46
28817.404
26654.509
24826.967
23014.224
21363.288
19706.065
18142.664
16411.36
15286.66
12814.382
11910.438
9312.7466
8735.1879
7423.7425
5532.5354
4370.4082
2955.3934
1469.095
-202.02436
-1143.5241
-2434.7976
-3092.6215
-3994.7748
-3949.8713
-4399.1564
-3647.9446
-3985.523
-8594.0495
-9411.8678
-7718.1678
-6146.2786
-3576.9937
-2276.9704
2368.0334
6213.516
33364.052
34493.184
29529.302
29533.901
29910.656
30677.558
38435.176
14450.104
12437.911
11354.408
11130.772
11509.367
12267.132
16351.101
4904.4506
3441.0015
2234.5152
2554.906
2264.1923
2817.4133
4882.7864
2654.9633
1114.3262
686.31606
622.80605
1059.52
2233.3632
4805.447
6116.2211
3847.9864
2757.8262
2525.1995
3114.5485
4445.3606
7458.0714
23052.52
17361.876
15195.769
14669.203
15398.307
17982.732
25155.103
41732.909
43443.194
35689.145
37031.874
36230.864
39421.803
51804.663
116013.51
102036.88
109879.84
117567.4
118006.23
126258.88
123154.41
98250.77
100323.5
95018.922
93571.257
101432.48
104237.85
105716.77
87789.265
91341.481
92507.624
92517.295
92670.477
93266.124
93844.888
83288.027
91482.575
91081.554
93479.495
93748.685
93049.948
86362.61
76675.964
79862.918
84247.663
84463.192
84140.681
81082.097
79193.934
70781.777
73146.096
75271.899
76933.534
76111.231
74061.248
71341.099
63617.381
65657.71
68979.947
69497.515
69389.075
68749.126
66913.558
58420.222
59535.09
60826.458
61229.889
60942.225
59351.976
58261.985
52664.956
53229.455
55168.828
56159.675
56326.146
56077.657
55923.628
47815.958
48493.062
49224.455
50107.68
48757.328
48190.916
48486.887
43372.376
43695.628
44823.168
44774.997
45872.888
46263.421
44214.701
39313.306
39172.879
40044.581
40878.13
40680.762
38809.601
40543.891
35795.656
35398.523
36829.737
36154.821
36537.439
36626.32
37466.795
31599.519
31901.647
33092
32793.222
34097.419
32193.872
33936.257
29151.696
29079.619
30342.589
29799.906
30223.615
29602.454
31055.758
26148.564
25930.392
27787.956
26776.215
28161.661
27071.862
28749.515
23980.949
24050.946
25303.448
24600.779
25589.677
24389.797
26070.852
22014.757
21684.393
23447.649
22532.493
23743.087
22654.764
24372.959
20334.724
20139.05
22004.893
20664.417
22055.076
20665.558
22520.38
19075.461
18699.058
20733.866
19327.365
20844.59
19400.786
21349.029
18215.571
17592.027
19873.342
18175.341
19766.61
18195.962
20200.198
17653.713
16892.885
19305.719
17486.211
19106.573
17451.771
19585.24
17280.4
16519.579
18803.542
17116.723
18614.578
17272.408
19310.592
17390.929
16689.743
18907.706
17080.466
18497.688
17177.346
19051.336
17829.425
17147.803
18725.425
18032.082
18763.731
17554.301
19013.073
18634.365
18080.126
19049.702
18502.84
19446.377
18344.765
19764.539
20888.688
19506.734
20152.843
18878.693
20556.693
19186.473
20708.437
22589.786
20820.748
21811.688
20041.363
21461.043
19788.851
21434.757
24012.541
22774.865
23175.001
21633.588
22859.173
21783.649
22793.058
26481.341
24334.134
25632.424
22862.402
24780.12
22769.195
24182.604
28279.437
26758.771
27382.627
24707.98
26233.542
24271.945
25832.291
30707.712
28659.596
29456.383
26324.204
28097.404
25842.143
27570.477
32549.777
30756.911
31407.165
28214.409
29691.651
27296.835
29017.216
34270.344
32418.242
33097.092
29538.688
31118.665
28575.585
30488.354
35488.923
34009.517
34401.501
31007.056
32222.786
29833.635
31598.121
36811.104
34789.528
35649.256
31736.906
33501.87
32082.353
32214.37
36829.666
35348.247
35820.021
32752.57
33626.763
26636.539
29087.535
31783.521
31777.79
31155.528
29288.291
29173.496
32751.5
31997.235
34970.585
33611.621
34349.016
31149.249
32290.202
29886.993
31103.306
33368.059
31915.016
32573.334
29868.102
30680.166
28550.396
29388.522
29986.617
28911.341
29794.476
27172.045
28208.808
26254.266
26868.175
26510.172
25771.571
26434.52
24601.302
25180.229
23499.205
23625.91
21685.456
20881.054
21871.956
20194.627
20870.662
19566.616
19574.236
16809.025
16483.133
17144.174
16090.772
16495.096
15411.918
14842.718
11199.225
10867.469
11492.977
10760.442
11198
10444.532
9777.2503
5631.7177
5561.2223
6325.2896
5902.3381
6273.5107
5638.5184
4722.4438
-3130.5481
-2685.8469
-2798.643
-2509.9403
-2761.5232
-3059.2363
-2965.2965
-1155537.7
-1266962.1
-1267211.2
-1267537.7
-1267423.7
-1266865.5
-1266665.1
-1221968.4
-1219411.8
-1219386.7
-1219736.1
-1219678.3
-1313044.2
-1220078.5
-1320503.7
-1227590
-1227743.4
-1227810.3
-1227625.3
-1118603.4
-1226901.3
-1261806.5
-1261996.1
-1263133.4
-1262460.8
-1263589
-1261838.8
-1262328.5
-1293064.8
-1167866
-1290138.5
-1290754.6
-1289092.2
-1289987.8
-1290096.9
-1193985
-1416283.8
-1317453.1
-1317113.7
-1422649.5
-1317278.6
-1318104.5
-1413992.8
-1311466.2
-1311908.2
-1312144.4
-1189582
-1312049.4
-1311226.9
101596.07
92286.385
86842.989
84079.589
85940.845
88425.812
90492.74
94141.595
88211.005
86984.264
85500.813
86813.423
88431.065
90757.889
89015.092
89240.989
88176.018
87212.628
88016.001
87543.747
86772.434
84948.282
85386.078
85164.327
85134.077
84653.965
83187.804
83454.953
80655.327
80096.226
80772.847
80113.347
79815.349
78654.673
77868.53
75862.452
75373.833
75192.272
74315.823
74789.781
73898.312
74203.73
71857.463
70667.123
70502.651
69423.891
70005.92
69350.157
69779.582
67564.973
66102.737
66147.577
65465.4
65115.715
64985.052
65419.845
64393.001
63184.422
62986.653
61802.41
62611.294
61716.615
63206.923
61226.097
59590.589
59451.837
58271.978
58921.232
58200.337
59357.506
58888.83
57332.72
57872.914
56161.469
57367.492
56130.461
57220.657
56535.151
55373.523
54888.246
54301.67
54228.508
54079.706
54828.814
54694.574
53256.701
53107.965
52173.402
52247.795
51975.94
52375.171
53143.637
51936.099
52058.186
50529.324
51166.748
50450.897
50595.003
50931.398
50304.298
50278.852
49454.445
49547.673
48666.022
49106.847
50105.308
48677.531
48390.781
47627.318
47742.009
47857.382
47660.067
48980.406
47539.836
47106.232
46406.116
46328.11
45458.627
45528.69
47044.473
45601.158
45621.759
44541.014
44446.705
43814.397
43537.402
44843.013
43740.879
43502.582
42645.212
42392.126
41777.076
41430.235
42373.592
41408.87
41092.966
40324.737
39860.206
39311.2
38866.592
39424.571
38753.137
38235.356
37492.333
36914.641
36431.235
35937.998
35938.716
35411.808
34717.895
34154.302
33563.838
33089.194
32472.145
31806.337
31526.344
30708.799
30342.703
29613.232
29144.301
28575.716
27161.029
27367.877
26348.245
26078.855
25496.889
24814.029
24191.901
22167.441
22687.964
21291.382
21470.494
20586.823
19939.974
19343.692
16648.473
17436.533
16066.741
16141.146
15460.402
14605.175
14224.041
10503.571
11717.717
10416.796
10409.439
9943.7272
8931.3173
8506.886
4571.9559
5510.6983
4427.2371
4567.5471
4026.662
3034.5078
2725.9396
-1856.5981
-513.97958
-1803.1163
-1414.412
-2044.9215
-2974.8804
-3095.9358
-8155.3564
-6607.1355
-7894.3844
-7548.3744
-7914.0497
-8876.8834
-8846.6393
-14078.877
-12895.71
-13927.687
-13295.67
-13801.821
-14856.044
-14386.503
-19924.994
-18580.297
-19373.076
-19051.685
-19416.422
-20196.831
-19523.101
-25000.899
-23859.76
-24624.916
-24070.468
-24342.475
-25294.949
-23989.986
-29458.24
-28639.784
-28979.346
-28514.559
-28749.634
-29440.797
-28044.249
-33067.206
-32394.482
-32652.012
-32319.618
-32765.029
-33518.695
-31397.886
-36022.523
-35521.814
-35345.182
-35296.675
-35284.741
-38449.566
-36613.32
-40514.013
-41283.753
-40947.126
-41218.907
-40969.809
-39362.331
-33305.89
-38420.186
-37909.226
-37828.52
-37840.693
-38073.267
-39135.393
-36042.391
-38854.789
-38360.746
-38272.723
-38121.787
-38637.608
-38936.424
-35786.453
-37481.043
-37729.412
-37532.508
-37442.586
-37962.362
-38416.601
-35021.798
-35981.059
-35928.859
-35747.694
-35710.111
-36203.675
-36715.596
-33154.469
-32801.395
-32887.619
-32899.681
-32629.613
-33386.031
-33918.452
-30699.949
-30140.537
-30635.674
-30302.744
-30300.79
-30842.172
-31006.306
-27629.503
-25717.107
-25422.263
-25567.315
-25313.155
-26113.678
-26404.023
-23951.743
-20987.261
-21677.681
-21322.537
-21358.769
-21884.873
-22131.535
-19970.19
-18667.057
-17898.557
-18423.957
-17888.191
-18233.847
-18317.42
-17630.832
2067.4622
405.7859
1009.6055
812.46073
585.0458
1198.1045
781.6491
104546.71
76765.915
69510.307
67063.188
66183.963
61285.778
59920.765
54706.729
52435.322
49404.999
46085.248
43436.945
40679.142
38463.222
36320.837
34396.896
32136.257
30352.2
28740.788
27177.051
25708.106
24502.973
23320.963
22250.165
21520.105
20359.674
20583.149
19559.777
19148.154
18684.116
18093.849
17609.802
16822.455
16160.429
14712.482
14097.357
15134.081
13256.391
10950.422
9745.9431
8707.0016
7402.1194
6278.5038
4947.9901
4234.2598
2960.1521
14668.464
45495.685
47973.843
39067.854
40761.959
40316.783
38437.233
38088.676
36582.16
35831.073
33707.355
32970.798
30843.776
29435.708
27366.567
25265.528
24602.269
22774.701
21239.946
20116.259
18396.426
17086.804
15702.423
14172.69
12850.575
11462.005
8843.1668
7635.0364
7291.9574
5851.357
4570.7781
3406.4628
2480.2133
1430.2691
765.89418
-2.641988
-489.84442
-1252.4899
-1847.35
-2092.523
-2513.0581
-2620.3595
-3080.8843
-3287.6016
-3748.9308
-3706.4852
-5366.1168
1087.9653
16445.907
19082.213
16499.571
19507.936
17625.063
14786.335
17544.126
14160.894
15326.196
13785.985
13186.232
12427.969
12385.507
14339.12
13275.677
12928.841
11944.541
10891.897
10386.28
8900.2874
7984.5951
6627.0151
5196.7991
3571.4388
1995.9022
48.133179
-1497.3734
-3991.4898
-5986.1468
-8163.6331
-10122.866
-12206.153
-13707.339
-15166.165
-16220.521
-16841.275
-16803.329
-16519.089
-15950.698
-14601.363
-13128.923
-11299.028
-9387.9845
-6644.0345
-4932.7689
-927.26568
-5807.6531
5714.9148
5835.4305
2694.6423
9611.5142
3837.6588
7288.1006
2988.8827
3668.9397
5873.6682
3092.8422
6046.7666
3727.551
6230.2499
7090.4006
7452.9529
7810.0498
7088.9319
6791.0136
6163.1768
5200.3451
4135.2354
3038.9441
1393.3828
179.42348
-1654.7076
-2836.2616
-4839.0854
-6248.7607
-7849.9285
-9193.9952
-10526.51
-11575.734
-12405.407
-13373.365
-13590.177
-13910.507
-13815.643
-13531.692
-12506.874
-11625.32
-9787.3008
-8340.1522
-5372.3331
-3353.571
460.85411
4104.1469
-2584.0582
13399.458
3482.6523
6113.2245
5780.1536
6031.9697
7182.901
8247.1217
8140.3285
7279.9339
8683.8731
7064.1751
8608.0975
7738.8891
7634.3124
7845.5707
6907.0515
6710.537
5759.7597
5150.959
4041.0019
3104.0186
1837.9414
727.30598
-805.6098
-2232.4678
-3566.0087
-5145.759
-6317.399
-7659.2754
-8786.7159
-9714.3274
-10314.987
-10823.761
-10942.737
-10684.074
-10437.63
-9436.3636
-8676.6698
-7432.2088
-5740.2246
-4255.1964
-2117.3427
-165.22374
2072.4658
4329.7853
8530.8203
5961.5058
33168.921
25243.463
18959.243
25253.261
20781.35
24869.862
23648.029
21743.837
24134.938
20914.784
23014.402
20741.735
20257.142
18936.392
17334.234
16203.32
14569.327
13395.799
11944.727
10785.54
9485.1114
8422.8865
7363.9366
6036.6372
3482.8008
2588.0812
2193.2449
1606.5667
1168.9121
767.07108
598.83463
457.50644
426.36954
656.82309
950.48832
883.36908
1653.3433
2108.5496
3405.1812
3744.7068
4850.5838
5614.1028
6349.6622
7149.8307
7803.7003
8758.0039
6170.5447
88765.387
50034.894
56407.706
49575.849
52898.789
50005.764
47814.153
46578.244
42268.783
40009.175
35498.772
36743.799
33345.992
30663.581
28577.594
25727.768
23732.19
21273.883
19113.232
16824.5
14464.189
11880.58
9369.781
6075.8873
4584.0952
1764.7851
862.88149
-592.62997
-1979.6587
-2827.2868
-3597.0244
-4111.4053
-4281.6608
-4162.6601
-3823.6509
-2049.5557
-2380.6969
-1545.3452
-814.19116
430.21627
1766.8547
2997.1527
4452.202
6066.983
7168.4987
9466.3562
7938.3447
83160.203
70756.356
68982.245
67901.32
68511.246
68658.001
70148.257
73671.335
75170.475
70513.269
69911.752
69144.011
70627.889
71303.354
67420.257
70840.074
70671.407
69811.451
69535.256
69361.531
68078.685
64873.13
66250.655
66400.579
66550.762
65761.276
65317.296
63222.64
61998.319
63763.985
63885.164
63981.675
63436.164
63243.637
61498.352
58546.227
58734.244
58401.731
58725.921
57881.538
57865.257
57460.973
56502.519
56702.715
56242.974
55830.209
55351.062
55771.63
55427.688
52796.544
52359.312
51636.826
52100.095
51513.975
51500.682
51322.434
50700.839
50628.111
49256.316
49533.793
48752.848
49516.851
49650.274
47577.16
46947.156
46213.472
46253.078
45563.486
46393.042
46140.959
45334.683
44868.825
43862.114
43715.51
43546.738
43786.395
44131.753
42996.63
42002.073
41371.853
41451.829
40855.224
41546.458
41566.606
40756.842
39905.649
39215.44
38870.164
38830.323
39023.724
39032.367
38441.535
37462.989
36911.561
36653.195
36661.107
36997.731
37111.008
36119.97
35449.682
34662.965
34546.134
34244.953
34902.62
34556.054
33786.201
33105.524
32525.929
32293.097
32415.106
32850.609
32721.029
31710.928
30964.195
30343.834
29978.316
30233.161
30698.412
30646.466
29310.744
28679.481
28170.779
27837.051
28165.987
28653.072
28428.211
27133.55
26429.566
26064.242
25789.319
26182.76
26621.005
26634.221
24989.441
24252.856
24034.133
23721.423
24092.943
24648.881
24713.149
22960.383
22034.36
22026.303
21675.336
22218.987
22749.64
22876.438
21059.714
19947.189
20130.547
19826.928
20402.17
20868.465
21103.627
19204.133
17880.19
18463.883
18058.625
18585.038
18956.906
19465.121
17504.916
16054.983
16966.669
16279.682
16860.958
17293.234
17923.918
15826.318
14094.726
14954.634
14674.579
14998.313
15381.441
16429.316
13823.005
12534.079
13867.967
12976.357
13253.591
13853.395
14522.167
12679.136
10849.4
11848.865
11680.083
11814.163
12365.741
13775.384
11199.774
9752.799
10674.718
10435.166
10454.65
10921.259
12442.874
9753.8659
8355.7453
9823.7642
9052.4538
9241.9519
9606.7076
11336.645
8608.8448
7403.7356
8656.1573
8038.4596
8202.4835
8473.0772
10362.464
7572.1772
6503.7757
7696.4236
7243.4079
7179.0287
7418.2423
9423.412
6590.0989
5781.9703
6978.5805
6395.8291
6290.059
6548.035
8583.5701
5772.2321
5301.5295
6131.2048
5804.9692
5647.3252
5808.4109
8029.1474
5090.155
4698.9674
5639.2116
5322.248
5125.0844
5363.1105
7242.8481
4533.7516
4552.6709
5106.0281
4886.7591
4643.5046
4582.4101
6814.0866
4225.086
4059.8724
4731.7778
4570.1504
4252.1139
4315.0544
4824.3836
3122.6625
3535.663
3817.774
3729.3963
3836.2334
3711.9741
9086.7296
3828.6264
5553.2681
6240.2383
6342.6198
5628.6854
6024.7697
5668.0958
3012.1463
3748.6367
4174.0461
4371.0485
4408.6994
4454.719
6016.5223
4071.8733
3975.2053
4362.7314
4560.4317
4228.1586
4364.6151
5373.4041
3398.1394
3498.6126
3987.9617
4202.6881
4278.9061
4382.647
5501.4224
4132.4849
4114.8223
4510.6026
4721.9377
4508.6311
4632.4309
5275.7162
4538.3343
4345.4079
4891.3554
5021.6663
5169.7726
5033.7954
5331.1314
3804.9563
3841.9047
4269.7348
4672.4093
4469.2545
4449.0605
4723.2525
5492.4787
4977.1635
6043.5714
5862.3319
6105.9658
6043.3466
5657.8094
6557.8203
7456.2892
7392.3226
7466.2331
7581.1035
7487.6233
6563.1454
14588.928
14454.069
15143.304
14673.279
15065.173
14881.017
14938.746
37816.591
30568.357
28101.735
27238.079
27080.163
27474.742
29309.048
40418.658
43186.773
41096.981
41023.424
41008.411
41051.65
41962.252
38630.237
39546.181
40022.309
39325.28
39328.694
38023.661
37401.569
38602.68
39982.331
40686.76
40560.749
39940.135
39185.134
37670.174
37188.639
37328.819
37803.146
37193.874
37265.068
36368.7
36007.633
36494.01
36661.577
35805.77
35654.354
35316.824
34851.409
34808.361
34617.361
34716.296
34201.216
33862.671
33714.118
33547.153
33620.259
33698.095
33682.95
32507.024
32205.884
32080.787
31783.13
32386.059
32315.728
32361.655
31203.597
30822.623
30595.786
30756.435
31217.788
30960.3
30676.12
29414.036
29068.07
29187.363
29019.122
29387.014
29244.566
29538.525
28040.161
28000.274
27649.067
27898.311
28183.598
27609.154
27781.414
26491.281
26051.095
25915.987
25916.187
26048.142
26036.213
26335.541
25124.73
24856.404
24538.742
24767.042
24781.434
24656.839
24371.575
23597.714
23021.553
22980.926
22574.767
23183.555
23302.629
22779.894
21922.327
21534.522
21503.037
20904.447
21290.944
21515.44
20992.723
20220.934
20059.338
19722.317
19438.225
19747.61
19655.711
19564.65
18564.657
18420.857
18096.876
17750.999
18149.638
18031.141
17909.753
17001.402
17084.447
16596.895
16220.126
16271.732
16345.749
16406.147
15589.564
15503.51
15067.176
14634.592
14937.143
14718.127
14948.876
14121.121
14114.86
13587.61
13220.508
13366.901
13099.96
13482.678
12794.208
12675.267
12179.494
11828.088
11875.723
11604.098
12161.907
11519.469
11394.376
10921.965
10437.017
10598.766
10353.048
10752.56
10238.87
10049.882
9454.6252
9188.2738
9303.1368
9162.4093
9479.8273
9140.141
8718.9628
8493.5647
8228.3468
8284.067
8160.7101
8375.8514
7859.5329
7671.9524
7557.579
7018.2572
7130.6139
7268.4067
7500.9476
7727.0998
7042.0819
6513.089
6236.3137
6426.6633
6728.7025
6917.0874
6444.094
6221.6401
6291.1606
5768.3212
6078.3251
6564.876
5898.3881
5195.328
5350.7828
5443.3268
5132.5977
5172.7085
5674.075
5102.6117
5698.3927
4962.4154
5051.9219
4741.8493
4572.8834
5560.5429
4865.4064
4966.1939
4678.9935
4720.6901
4382.6361
4277.1446
5459.7446
4407.883
4865.9147
4537.1009
4507.5188
4186.7
3985.6147
5422.1333
4369.8833
4764.9596
4447.0304
4381.4101
4173.1577
4036.1977
5547.9136
4340.2574
4752.4139
4508.2628
4515.1465
4313.0838
3856.545
5759.1928
4435.2776
4923.0201
4749.9365
4635.0706
4130.12
4024.6443
6019.4709
4690.5224
5093.177
4999.5219
4628.3501
4640.8986
4210.0274
6181.2333
4761.567
5432.8005
5176.1117
5222.9868
4755.8056
4790.4918
6792.948
5637.9934
5721.2256
5881.9922
5144.8898
5169.3556
4242.1558
6788.4095
4928.1004
5731.2303
5561.4316
5439.7401
5231.9336
4912.4663
7247.8001
6209.5414
6575.4937
6266.0789
6035.8688
5747.7286
5071.0733
7340.6914
5450.0293
6458.5244
6030.3631
6052.4812
5747.2803
5168.7198
7433.9325
6336.0566
6683.8067
6532.3072
6260.0009
6014.0042
5460.614
7695.6013
5732.0882
6466.365
6074.831
6035.3814
5934.7642
5408.0379
7292.013
6077.7967
6430.4994
6367.2157
6344.9258
6163.4065
5396.2734
6845.4452
5249.3231
5727.3032
5501.5612
5238.1136
5148.1627
4634.7845
7322.3669
6177.386
6288.7337
6070.3701
6185.1321
6387.589
5571.7122
4523.7736
3139.3753
3348.9418
3261.8438
3122.0367
3165.5653
2544.1398
3370.5279
2043.5573
2022.8922
1618.7903
1749.4084
1428.4879
2069.3002
14705.144
11587.527
10177.951
9800.5992
9261.435
9682.1991
9780.6278
14327.243
16086.395
15519.794
15587.736
15441.686
14968.924
15288.19
16472.709
16473.753
16329.513
16554.194
16108.814
15688.013
15199.597
15327.833
16671.079
17855.951
18191.419
17649.679
17682.832
16193.386
16207.995
16476.424
16143.373
15882.07
15685.44
14919.081
15764.515
15230.613
13681.6
13675.265
14883.618
13893.188
13865.576
14001.998
16585.066
14549.275
15072.404
14882.392
14331.611
15522.156
14937.826
15704.3
13170.385
12516.35
11872.969
11974.311
12264.707
12293.571
15044.865
12393.179
12735.577
12496.009
12348.556
13295.957
13264.797
14260.345
11313.727
11281.137
10482.861
10494.541
11278.029
11594.686
13591.396
10516.657
10821.078
9931.4921
10009.157
10621.547
10824.788
13091.731
9161.2859
9848.3709
8861.9306
9583.148
9753.1754
10850.424
12062.071
8378.5149
8559.8368
8569.7373
8493.0189
8887.9758
9599.5449
10015.446
8162.1698
7864.7365
7369.5391
7727.6906
8386.311
8582.6027
8114.6287
7541.6022
7413.5804
6805.271
6607.4851
7460.8739
7917.5452
7098.2711
6530.0449
6531.4945
5828.3942
6045.3056
6582.1358
7004.1973
6365.8043
5820.4212
5947.9467
5238.3405
5236.8737
5923.6456
6510.1175
5414.9216
4972.9638
5124.2504
4503.6124
4636.9991
5133.6603
5469.223
4717.0935
4366.4258
4548.6221
3961.7621
4059.6835
4383.7273
5122.5033
3927.5602
3589.5219
3834.2047
3335.6455
3498.5908
3761.2146
4321.7072
3297.2368
3124.9698
3375.0489
2938.1101
3189.0816
3168.5758
3793.1976
2659.918
2543.57
2807.423
2501.3291
2699.3753
2594.872
3251.7186
2124.0307
2112.7926
2499.8947
2140.4281
2413.1989
2210.2022
2845.6731
1744.9206
1733.6328
2083.2053
1841.7875
2140.3365
1659.9389
2083.2651
1414.9701
1202.5386
1777.2714
1660.5462
1727.2318
1173.7821
1979.7139
1004.596
691.02691
1602.5095
1061.006
1362.8989
983.67523
1138.5884
991.77617
560.25061
1312.9197
1063.2878
1289.5086
464.00208
1083.9085
784.31409
158.82073
925.83605
658.83593
920.90535
20.22126
735.95582
842.80445
-33.504403
880.84448
287.98564
708.16955
-292.29497
493.62697
1034.676
-159.38238
458.0549
177.59287
579.09632
-659.31587
393.98991
1269.1691
-398.12642
434.91842
36.503809
365.45157
-746.57192
396.16692
1683.121
-342.96011
414.26369
-178.99876
465.20444
-845.4726
391.00282
2186.0622
-265.17115
382.17648
-38.275531
443.41164
-939.68612
524.61901
2673.2851
-124.20177
664.14595
86.177651
703.02437
-427.92376
1008.2113
3383.2474
310.48945
998.14951
447.76677
1105.8291
-121.83669
1052.9227
4170.7135
888.71018
1580.2314
928.93797
1637.6205
489.92511
1593.1878
4695.6676
1357.3161
2037.8654
1604.8155
2381.6213
1294.7839
2320.8729
5876.4265
2392.9734
3334.0211
2516.1331
3479.754
2191.9024
2782.4976
6086.7496
3454.6381
3556.7741
3560.2715
4022.8615
3142.8997
3468.694
7391.6563
4079.3507
4925.0323
4532.9509
5330.6798
4332.5819
4235.0139
7705.889
5693.8248
5761.5601
5819.8028
6118.5796
5298.3001
4835.7287
8282.2334
5613.7504
6314.4539
6164.5792
6680.8046
6332.01
5611.1309
8747.6438
7227.7095
7404.544
7444.7557
7718.1863
7266.0154
5797.8667
9001.7931
7287.1612
7438.1916
7513.2656
7613.1087
7408.831
6595.6113
9537.2564
7973.4799
7938.0695
8128.008
8087.8251
8483.0355
6800.4669
8060.5428
6976.2634
7081.4567
7400.372
7405.0167
7536.8845
7038.9946
-3614.3322
-5348.5372
-5436.7122
-5642.346
-5283.6708
-5434.9103
-5031.9513
5304.787
4348.7122
3721.2696
3581.336
3244.9461
3029.0366
1977.8108
3771.2333
6508.977
6837.0186
7341.0108
7124.208
6294.8897
5584.1153
4235.9025
4618.3556
4124.0382
4446.4056
4200.4083
3780.1092
2754.0212
4393.9589
7905.885
9828.3778
10991.352
10644.676
9837.843
7971.0051
4258.9331
4704.1979
3065.5045
2714.3564
2354.5906
2135.0321
2775.3106
4191.5125
6004.2587
5965.683
7224.2879
7371.6747
7870.3544
6400.7507
4526.0978
4243.9357
3996.9257
4157.5743
3940.0591
2955.4955
4646.7125
5633.2639
4782.5826
3823.2362
4470.4392
3776.2515
4300.3166
4363.0691
5343.5171
4970.3276
4751.8718
4693.0483
5336.8419
4738.808
5997.4718
5923.5758
5444.812
3415.2182
4009.9174
3374.839
3101.7074
3543.4188
5824.762
5176.3064
4934.8694
4880.5452
5665.6273
5055.5532
6204.344
5855.9886
5919.8288
4227.8211
4162.0593
4440.0347
3764.0571
4248.1988
5979.908
5597.731
3815.3414
5149.2216
5390.9563
4429.4185
5774.5638
5560.0481
6393.469
3457.6669
4400.7007
4950.9354
4438.56
4901.8077
4286.2471
5614.9604
4933.301
4429.4057
5065.4205
4041.9742
4925.1029
4101.1822
5250.8074
4763.3678
4413.1821
4924.7278
4363.4871
4904.2388
3868.837
4974.8923
4815.9856
4398.296
5008.0391
4033.9936
4672.2849
3759.7579
4729.136
4602.2797
4280.2333
4706.6503
4067.917
4386.3949
3505.8862
4287.7847
4511.3434
4090.0151
4575.5071
3763.5864
4097.5827
3404.1446
3976.1094
4129.4728
3845.3641
4189.0692
3547.6158
3738.2291
3314.4106
3361.5341
3942.8498
3606.3684
3791.2752
3166.4502
3142.3409
3082.3405
2931.2533
3526.8597
3086.4465
3300.5707
2789.7202
2728.6257
2966.3981
2346.4189
3083.0646
2717.5139
2833.5132
2292.9162
1788.4261
2774.25
1691.4359
2669.3034
2133.8366
2380.4858
1888.0124
1475.1824
2472.4166
1317.6802
2227.2912
1611.3282
1811.8388
1527.6685
751.24021
2128.655
971.07345
1711.4504
1255.1268
1486.0361
1179.1061
339.26527
1658.666
458.43251
1263.2456
776.15924
1073.1516
832.41609
-146.98716
1626.7756
-220.64111
1070.2639
477.56428
650.50857
755.17291
-569.56464
1522.8453
-378.35772
623.47075
433.50635
237.85943
679.65099
-1056.0195
1427.4486
-525.87796
439.29094
249.08166
116.52393
673.88031
-1358.5027
1552.3786
-548.25195
344.76113
342.76073
-14.789404
780.27326
-1575.7215
1811.1261
-435.40992
346.80673
370.80161
-168.87967
835.38721
-1758.782
2086.6459
-348.47486
380.75753
498.36908
-15.044756
1231.5351
-1577.1586
2616.8865
-26.730986
586.95189
689.33808
142.65255
1230.217
-1587.4368
3139.7258
365.27865
746.46015
927.65381
235.07683
1573.6634
-1343.5618
3631.6043
573.85128
863.51739
992.18912
568.17138
1566.9396
-868.16956
4575.8985
1312.2161
1278.9815
1568.8113
594.77112
2098.2706
-615.07557
4393.3573
1443.6414
1428.3956
1295.2578