/*--------------------------------*- C++ -*----------------------------------*\
  =========                 |
  \\      /  F ield         | OpenFOAM: The Open Source CFD Toolbox
   \\    /   O peration     | Website:  https://openfoam.org
    \\  /    A nd           | Version:  6
     \\/     M anipulation  |
\*---------------------------------------------------------------------------*/
FoamFile
{
    version     2.0;
    format      ascii;
    class       pointVectorField;
    location    "0.95";
    object      lm;
}
// * * * * * * * * * * * * * * * * * * * * * * * * * * * * * * * * * * * * * //

dimensions      [1 -2 -1 0 0 0 0];

internalField   nonuniform List<vector> 
3969
(
(0 0 0)
(0 0 0)
(-1831.0568 903.74422 -60.513598)
(-1428.7748 1461.6934 6.1363678)
(0 0 0)
(0 0 0)
(-1427.5092 1567.192 8.2164532)
(-1828.7673 1009.0681 -59.261735)
(0 0 0)
(0 0 0)
(0 0 0)
(0 0 0)
(0 0 0)
(0 0 0)
(0 0 0)
(-1787.2751 975.49909 -52.327649)
(-1727.4164 1038.4112 -43.841105)
(-1668.7827 1101.3652 -35.753209)
(-1615.5661 1167.4153 -27.776122)
(-1567.4488 1237.5895 -19.855948)
(-1521.9402 1311.1943 -11.623655)
(-1476.3462 1386.8675 -2.8471375)
(37.752802 36.406237 27.610547)
(74.114178 57.366853 22.208928)
(115.78384 70.470892 13.958404)
(160.12568 76.608212 4.358318)
(204.7933 75.485883 -6.1443186)
(247.99941 68.084045 -15.571897)
(287.63644 54.654271 -24.632176)
(322.52241 36.496188 -32.274724)
(350.66317 14.517829 -38.748619)
(371.88171 -9.9202674 -43.837977)
(384.79063 -35.607901 -47.477118)
(389.60071 -61.585953 -49.699533)
(385.4299 -86.46783 -50.3055)
(372.82117 -109.5633 -49.757465)
(351.5432 -129.64897 -47.782784)
(322.19966 -146.14894 -44.683915)
(285.04483 -158.36501 -40.713293)
(240.53045 -165.78464 -35.770063)
(189.22762 -167.90712 -30.134943)
(131.88533 -164.55896 -23.984041)
(69.07872 -155.56164 -17.376322)
(1.6912693 -141.02263 -10.650586)
(-69.600971 -121.05542 -3.8126455)
(-143.93621 -96.03402 2.829015)
(-220.49232 -66.393712 9.2239968)
(-298.83973 -32.965385 15.114602)
(-378.09004 3.8150897 20.373602)
(-458.02016 43.278672 25.026118)
(-538.12238 84.767955 28.885652)
(-618.1487 127.56493 31.979492)
(-697.95449 171.23081 34.229119)
(-777.45598 215.31368 35.651153)
(-856.51257 259.51918 36.207169)
(-935.09702 303.52603 35.960564)
(-1012.9365 347.52365 34.560234)
(-1090.0076 391.07805 32.516986)
(-1165.8102 434.33576 29.030109)
(-1239.9887 477.61472 24.515307)
(-1312.398 520.53942 19.060183)
(-1382.0696 563.52595 12.248989)
(-1449.2461 606.42521 4.6424418)
(-1512.9421 649.09141 -3.9951856)
(-1573.3234 691.99415 -13.077093)
(-1629.8875 734.03943 -22.818663)
(-1682.8178 776.59797 -32.40553)
(-1731.9166 817.40995 -42.204536)
(-1781.8767 860.4625 -51.632848)
(9.8053089 -43.789171 -53.206082)
(46.70553 -58.830861 -41.123433)
(89.392749 -79.702403 -35.32949)
(133.91646 -89.661483 -18.137739)
(178.38879 -100.25896 -4.930631)
(222.5599 -107.38069 9.9379556)
(263.73465 -110.19653 23.071338)
(301.83896 -109.59629 35.314673)
(335.78708 -104.99893 46.639158)
(365.26106 -97.261918 56.443336)
(388.92515 -84.798606 65.56308)
(406.67956 -69.568765 73.278819)
(419.31235 -50.168224 80.282604)
(425.18272 -27.661937 85.915803)
(424.61346 -1.4601256 90.776311)
(417.35597 27.847586 94.560878)
(403.44744 60.375246 97.485382)
(382.75557 95.961222 99.595617)
(355.83588 133.99703 101.04395)
(322.46076 174.62733 101.89936)
(283.5039 217.36645 102.35814)
(238.88115 261.63342 102.63299)
(189.59995 307.76073 102.61238)
(135.94417 354.6141 102.99467)
(78.635192 402.48172 103.50934)
(18.183969 450.71917 104.34973)
(-44.732232 499.40868 105.77772)
(-109.63865 548.43248 107.56813)
(-176.13068 597.43679 109.89428)
(-243.57996 646.48552 112.55839)
(-311.93778 695.59734 115.45586)
(-380.9107 744.87216 118.22777)
(-450.43747 794.22852 120.69061)
(-520.44453 843.73134 122.36127)
(-590.79941 893.29425 123.04988)
(-661.54528 942.94663 122.26277)
(-732.40456 992.48055 119.777)
(-803.25465 1041.7199 115.45038)
(-873.74019 1090.4419 109.12476)
(-943.67359 1138.4585 100.92062)
(-1012.0006 1184.8972 91.008557)
(-1079.0938 1230.3675 79.665789)
(-1143.8842 1273.7355 67.239855)
(-1206.0956 1315.11 54.312998)
(-1265.3695 1354.1189 41.281651)
(-1321.3363 1390.6651 28.615816)
(-1374.7597 1425.1107 16.928191)
(0 0 0)
(0 0 0)
(0 0 0)
(0 0 0)
(0 0 0)
(0 0 0)
(0 0 0)
(21.898325 -31.225291 43.839884)
(43.099305 -74.512063 46.785482)
(79.688835 -73.606576 37.001015)
(119.67687 -94.164729 27.022036)
(161.38588 -102.47227 17.237671)
(200.0279 -110.38251 6.0770852)
(239.02662 -114.15191 -1.3036715)
(271.04609 -113.41834 -8.6659866)
(302.81066 -110.72883 -12.80671)
(326.52437 -100.31462 -16.299461)
(348.91227 -90.902828 -17.91403)
(363.67982 -73.753478 -18.493368)
(370.93126 -54.803385 -15.105345)
(373.49923 -30.952293 -11.781326)
(368.97417 -3.7377387 -6.24058)
(358.71995 26.844858 0.21517804)
(341.76314 61.380023 7.8130806)
(318.92495 98.480366 16.236665)
(289.87449 138.92923 25.372796)
(255.11699 181.67752 34.931583)
(214.89609 226.81779 44.748415)
(169.62969 273.76469 54.606997)
(119.77401 322.31574 64.266532)
(65.952856 371.95613 73.537771)
(8.6738396 422.76388 82.328629)
(-51.407485 473.86707 90.190836)
(-112.90935 525.47589 96.777889)
(-177.01843 577.52282 102.9479)
(-242.20255 630.13185 107.99902)
(-308.40368 683.33398 112.17491)
(-375.2104 737.17724 115.42332)
(-442.35705 791.84057 117.66453)
(-509.69901 847.31343 118.96424)
(-577.10312 903.59939 119.25288)
(-644.42491 960.59899 118.42705)
(-711.57496 1017.9888 116.50781)
(-778.22696 1075.1171 113.03052)
(-844.37106 1132.0031 108.41543)
(-909.85176 1187.8222 102.27055)
(-974.33543 1241.9928 94.640058)
(-1037.6308 1293.8741 85.771141)
(-1099.5329 1343.0601 75.709855)
(-1159.6715 1389.0373 64.780227)
(-1217.9835 1431.5254 53.288827)
(-1274.0499 1470.4328 41.561557)
(-1327.8251 1505.6344 29.932556)
(-1377.0311 1535.2189 18.728767)
(-1472.2633 1490.9922 -0.44199752)
(-1520.0488 1418.4102 -8.977579)
(-1568.4797 1347.5879 -17.668588)
(-1614.0451 1275.0561 -26.236882)
(-1666.8104 1209.1365 -34.795193)
(-1724.2149 1144.928 -43.240795)
(-1780.4346 1080.0273 -51.455189)
(-1773.7229 963.68962 -48.192911)
(-1731.6106 925.19126 -36.700126)
(-1681.9036 882.67281 -24.338817)
(-1629.1295 838.05256 -11.461265)
(-1573.249 791.85951 1.3644497)
(-1514.6051 744.3049 13.670656)
(-1453.3223 695.71166 24.995501)
(-1389.7503 646.46026 34.924379)
(-1324.087 596.71484 43.201732)
(-1256.7307 546.94518 49.693264)
(-1187.7742 497.10559 54.115245)
(-1115.9918 447.624 56.947832)
(-1045.7332 398.06631 58.02032)
(-972.36455 349.02032 57.841054)
(-898.37099 300.3731 56.510408)
(-823.268 252.11364 54.499393)
(-747.1078 204.43407 52.108382)
(-670.0814 157.57746 49.679069)
(-592.20861 111.89445 47.323208)
(-513.81659 67.708343 45.417481)
(-435.14592 25.717091 43.847516)
(-356.654 -13.679297 42.822736)
(-278.84213 -49.621999 42.186053)
(-202.35987 -81.73944 42.033364)
(-127.97513 -109.14551 42.022112)
(-56.398112 -131.59852 42.189598)
(11.535725 -148.5387 42.324167)
(75.068718 -159.84271 42.284793)
(133.36875 -165.31225 41.962061)
(185.83601 -165.11572 41.231046)
(231.56455 -159.42954 40.01504)
(270.49461 -148.66321 38.232444)
(301.93167 -133.5252 35.997629)
(325.00353 -113.94818 32.7186)
(339.35371 -91.278178 29.298964)
(345.92692 -67.036507 24.798547)
(343.84641 -40.893411 20.034495)
(333.93755 -15.074018 14.709494)
(315.74484 9.5102027 9.1417381)
(290.80204 31.546279 2.9283636)
(260.02598 50.594067 -3.683974)
(223.39758 64.092772 -10.333148)
(185.12402 71.905349 -16.538227)
(144.12457 74.076565 -23.419703)
(104.65813 67.830262 -27.328213)
(66.840291 54.140378 -30.632218)
(43.257754 36.079591 -25.423374)
(0 0 0)
(0 0 0)
(0 0 0)
(0 0 0)
(0 0 0)
(0 0 0)
(0 0 0)
(0 0 0)
(0 0 0)
(0 0 0)
(0 0 0)
(0 0 0)
(0 0 0)
(0 0 0)
(-1428.365 1475.7668 6.7061131)
(-1428.2151 1489.3597 7.3101431)
(-1428.1357 1502.3506 7.7260635)
(-1428.0615 1514.9323 7.9726413)
(-1427.937 1527.5357 7.9650246)
(-1427.7892 1540.2252 7.7387491)
(-1427.4556 1553.4743 7.9620518)
(-1831.0309 916.70773 -60.356001)
(-1831.0003 929.70302 -59.832463)
(-1831.306 942.52002 -59.335364)
(-1831.7125 955.35553 -58.934952)
(-1831.8573 968.30917 -58.836516)
(-1831.6226 981.523 -58.871274)
(-1830.5395 995.16056 -59.41572)
(27.00547 14.885177 23.81025)
(66.20004 28.965414 14.694512)
(109.07258 39.488183 10.154968)
(155.50487 44.386034 1.9719496)
(203.1019 43.564483 -5.7021739)
(249.68634 37.037813 -13.342793)
(293.39576 25.610302 -20.270772)
(332.22375 10.112241 -26.267323)
(364.78442 -8.7960661 -31.261059)
(389.98152 -29.392341 -34.962701)
(406.59839 -51.145071 -37.40391)
(414.50235 -72.478258 -38.640063)
(412.92033 -92.380971 -38.539938)
(402.45869 -110.00549 -37.305159)
(382.68225 -124.34732 -34.829106)
(354.18653 -134.78399 -31.364876)
(317.54324 -140.56751 -27.019999)
(273.51566 -141.41521 -21.957888)
(222.61942 -136.90345 -16.334326)
(165.93161 -127.07455 -10.273455)
(104.14163 -111.9573 -4.0250652)
(38.295506 -91.775918 2.3057743)
(-30.840407 -66.959125 8.5449559)
(-102.37473 -37.991265 14.549729)
(-175.63369 -5.3963439 20.153349)
(-249.92455 30.229955 25.408759)
(-324.62148 68.175055 30.050096)
(-399.51178 107.95563 34.118039)
(-474.21628 149.09245 37.576322)
(-548.64667 190.95343 40.390061)
(-622.77438 233.38235 42.530055)
(-696.63496 276.06491 43.978251)
(-770.31412 318.816 44.722312)
(-843.84976 361.68901 44.561007)
(-917.33841 404.52343 43.625693)
(-990.72055 447.33136 41.657071)
(-1063.7513 490.35334 38.582913)
(-1136.5266 533.46637 34.39279)
(-1208.6035 576.75028 29.023832)
(-1279.4901 620.29676 22.384782)
(-1349.2625 663.98521 14.848325)
(-1417.0053 707.88895 6.1681847)
(-1483.0579 751.96784 -3.1249468)
(-1546.3828 795.8828 -13.0785)
(-1607.7319 840.12299 -23.048793)
(-1666.0178 883.24928 -33.169203)
(-1725.1986 928.38149 -42.918949)
(21.549174 9.3948954 15.595895)
(59.809559 15.620555 9.2855393)
(106.12112 23.763862 5.8696195)
(156.19449 26.096038 0.35414359)
(209.36193 23.993407 -5.1548456)
(261.94983 17.430793 -10.479251)
(311.92756 6.4566831 -15.28032)
(357.53141 -8.5292072 -19.369518)
(396.15869 -25.773556 -22.534071)
(426.75128 -44.583162 -24.714283)
(447.95588 -63.729085 -25.910204)
(459.2379 -81.795017 -25.884417)
(459.94644 -97.918784 -24.854107)
(449.65355 -111.07614 -22.562415)
(429.1525 -120.18232 -19.355)
(399.13147 -124.77144 -15.325258)
(360.41375 -124.36373 -10.716441)
(313.72815 -118.6958 -5.5646388)
(260.40226 -107.58936 -0.10815752)
(201.53621 -91.422732 5.541164)
(138.35349 -70.294429 11.211352)
(72.112591 -44.920149 16.776062)
(3.7936534 -15.817516 22.112306)
(-65.600527 16.479985 27.048406)
(-135.20643 51.20393 31.704162)
(-204.52363 87.611085 35.722783)
(-272.97557 125.43299 39.356444)
(-340.52055 163.89356 42.561874)
(-407.03084 202.73484 45.13865)
(-472.53501 241.68348 47.306877)
(-537.38831 280.65441 48.906084)
(-601.83101 319.50915 49.978882)
(-666.20501 358.40201 50.3871)
(-730.97636 397.39323 50.171743)
(-796.38623 436.58042 49.179588)
(-862.73022 476.40587 47.240982)
(-930.33157 516.75319 44.457148)
(-998.99326 558.09342 40.467452)
(-1069.1692 600.44654 35.523806)
(-1140.2124 644.08221 29.36481)
(-1212.7213 689.07773 22.311867)
(-1285.5855 735.42333 14.088325)
(-1359.5412 783.36307 5.3059072)
(-1433.3457 832.3293 -4.2350909)
(-1507.7682 883.03176 -14.075213)
(-1581.3583 933.77379 -24.103293)
(-1655.0448 986.39148 -34.210087)
(18.182063 5.0832035 7.5671022)
(57.099679 8.585536 2.5320058)
(104.04244 12.639198 0.87141005)
(158.26476 11.976313 -2.8737091)
(215.80869 8.1929067 -5.5756874)
(273.67832 0.090152239 -8.3051435)
(330.07387 -11.681961 -10.39496)
(381.32957 -25.92988 -11.516167)
(425.63565 -42.008111 -12.305888)
(461.51405 -58.491456 -12.153668)
(486.90832 -74.42742 -11.252656)
(501.43235 -88.421124 -9.6351852)
(504.11428 -99.752925 -7.0930114)
(495.09536 -107.31586 -4.1232927)
(474.40919 -110.43407 -0.59645383)
(443.4489 -108.75908 3.5141546)
(402.82107 -101.91155 8.0542627)
(354.02431 -89.838378 12.780985)
(298.42159 -72.870638 17.56394)
(237.55046 -51.242633 22.287875)
(172.99766 -25.656806 26.783271)
(106.03446 3.2791067 31.075815)
(37.895431 35.018113 35.020705)
(-30.083435 68.670349 38.654372)
(-97.335131 103.51732 41.852674)
(-163.07939 139.20723 44.773489)
(-227.11751 175.10469 47.398842)
(-289.21704 210.85602 49.524592)
(-349.37453 246.35149 51.348384)
(-408.01091 281.46295 52.884455)
(-465.516 316.20129 54.015203)
(-522.3275 350.83172 54.742101)
(-579.1692 385.52392 55.037779)
(-636.55381 420.57436 54.816583)
(-695.095 456.44943 53.899721)
(-755.38438 493.34596 52.316853)
(-817.73687 531.73169 49.837989)
(-882.7855 571.94253 46.414517)
(-950.50554 614.27366 42.008537)
(-1021.2192 658.95897 36.44714)
(-1095.0018 706.18085 29.935367)
(-1171.4759 756.19922 22.225353)
(-1251.1927 808.88162 13.914585)
(-1332.8279 864.31582 4.3952547)
(-1417.3851 922.46101 -5.1923978)
(-1503.1895 982.51537 -15.565996)
(-1588.3637 1043.4986 -25.67046)
(16.434316 0.54763063 -0.86293425)
(53.609658 1.6126336 -4.5373344)
(101.41047 2.6226442 -5.6742671)
(156.80857 -0.20678483 -5.766682)
(216.2592 -7.0500058 -5.2142224)
(277.24165 -16.085041 -4.304679)
(335.05418 -28.343162 -2.3071776)
(388.98546 -41.583718 -0.50222132)
(435.65382 -55.503895 1.8345757)
(473.80837 -68.513971 4.666784)
(501.42192 -80.213064 7.6042968)
(518.13955 -88.855049 11.144689)
(522.74467 -94.417048 14.907841)
(515.70361 -95.676741 18.73308)
(496.95335 -92.360286 22.72676)
(467.51075 -84.484229 26.865397)
(428.31773 -71.468053 30.788353)
(380.77268 -53.953337 34.630611)
(326.27927 -31.964877 38.191678)
(266.5316 -6.0909556 41.467099)
(202.80817 22.895396 44.59737)
(136.68524 54.545391 47.410366)
(69.874147 87.824885 49.810597)
(2.9630427 122.29623 51.977839)
(-62.920342 157.3924 53.982412)
(-127.2349 192.46682 55.691839)
(-189.47867 227.294 57.074348)
(-249.5976 261.5291 58.326102)
(-307.71916 295.25122 59.426267)
(-364.17088 328.36955 60.32274)
(-419.34437 361.11531 61.000312)
(-473.83603 393.80947 61.403661)
(-528.26972 426.62538 61.511476)
(-583.31962 460.19507 61.103485)
(-639.62275 494.70694 60.216581)
(-697.72731 530.79402 58.586901)
(-758.35079 568.72094 56.22556)
(-821.7174 609.14075 52.878805)
(-887.9013 651.79731 48.56882)
(-957.80384 697.65393 43.200344)
(-1031.2528 746.8194 36.826171)
(-1108.0638 799.15544 29.414897)
(-1188.4961 855.07381 21.136226)
(-1271.6438 914.10385 12.003576)
(-1358.3623 976.61319 2.5647786)
(-1446.7279 1041.3529 -7.5187713)
(-1534.0178 1106.3821 -17.582281)
(12.746152 -2.8788282 -8.0506738)
(50.817231 -2.3627073 -13.217964)
(97.400654 -3.3565539 -11.641899)
(152.32759 -10.013329 -9.4298448)
(210.48194 -18.113305 -5.5519591)
(269.20316 -28.7722 -0.85476671)
(325.03712 -40.427543 3.9709274)
(377.18879 -51.862094 9.1797713)
(422.03839 -62.713642 14.291618)
(458.97058 -71.439681 19.696131)
(486.05135 -78.112288 24.974284)
(504.04061 -81.106086 30.141532)
(510.70142 -81.012528 34.811794)
(506.56136 -75.965816 39.292858)
(491.75217 -67.191597 43.479046)
(466.83748 -53.611867 47.175413)
(432.74951 -35.98089 50.552534)
(390.44833 -14.112226 53.44735)
(341.23937 11.32658 55.989666)
(286.32456 40.03467 58.069701)
(226.93474 71.248202 60.096052)
(164.99515 104.77532 61.413017)
(100.63001 139.86413 62.967824)
(35.443508 175.52925 64.109792)
(-29.763419 211.49724 65.119257)
(-93.887981 247.40744 66.019178)
(-156.76565 283.0851 66.965558)
(-218.1166 318.3034 67.980567)
(-277.95389 353.05394 68.911658)
(-336.42813 387.37179 69.840084)
(-393.94697 421.52661 70.627972)
(-450.88407 455.73247 71.245211)
(-507.83291 490.34178 71.533014)
(-565.30548 525.70063 71.393518)
(-623.77633 562.20409 70.65625)
(-683.83877 600.20281 69.184867)
(-745.84357 640.0626 66.846447)
(-810.78213 682.87525 63.509798)
(-884.95084 733.37727 59.638633)
(-955.22273 781.26674 54.042417)
(-1026.451 830.63225 47.28932)
(-1100.3363 883.15241 39.385891)
(-1176.287 938.22441 30.731975)
(-1253.9768 995.97 21.160376)
(-1333.5112 1056.0019 11.354773)
(-1413.5884 1117.6832 0.83887797)
(-1492.7384 1179.2219 -9.3598925)
(9.6453135 -11.518652 -21.110656)
(46.340295 -12.476009 -20.953072)
(91.848136 -17.887915 -18.684195)
(144.10543 -26.780615 -12.16477)
(197.96031 -36.41321 -4.9502886)
(251.29226 -46.98331 3.3358479)
(301.80794 -56.76061 11.314132)
(348.06023 -65.068858 19.349601)
(388.38994 -71.848464 26.909686)
(421.73291 -75.329824 33.988214)
(446.84373 -76.311923 40.60747)
(464.55816 -73.282452 46.663078)
(473.00765 -66.714268 52.251282)
(472.54443 -56.275464 57.142794)
(462.99372 -41.876801 61.275459)
(444.96079 -23.584697 64.922942)
(418.60295 -1.5165487 67.869654)
(384.72164 24.069804 70.330084)
(343.9221 52.919567 72.225337)
(297.14393 84.677268 73.767646)
(245.33962 119.08578 74.945493)
(188.60061 155.08134 75.770535)
(130.03004 193.79278 76.986842)
(67.986293 232.75755 77.477786)
(4.5541622 272.15347 78.290397)
(-59.569424 312.00033 79.099578)
(-124.03025 351.96381 80.118172)
(-188.2945 391.71429 81.263249)
(-252.19478 431.2906 82.555677)
(-315.67969 470.78636 83.918751)
(-378.75687 510.14118 85.240969)
(-441.66584 549.60313 86.372138)
(-504.61575 589.25711 87.170423)
(-567.8733 629.48079 87.411662)
(-631.69971 670.30089 86.918416)
(-696.34167 712.13645 85.475031)
(-761.9639 755.0984 82.94641)
(-828.72859 799.50288 79.115544)
(-898.29232 847.03511 74.270939)
(-980.65117 907.05079 68.626523)
(-1046.3664 951.88027 60.49654)
(-1116.1158 1001.707 51.467339)
(-1185.5358 1052.1347 41.594081)
(-1254.5005 1103.5565 31.001823)
(-1323.0176 1155.4706 20.232168)
(-1390.4692 1207.7672 9.3700995)
(-1457.3327 1260.2418 -1.0410441)
(5.1567082 -20.214498 -28.870942)
(43.383097 -19.964769 -30.251397)
(88.802826 -31.883096 -25.313293)
(138.75438 -43.454525 -15.450191)
(188.54716 -54.507657 -4.84147)
(237.47172 -64.751024 6.3673783)
(282.99818 -72.662498 16.705038)
(324.7854 -78.034282 26.975148)
(361.17788 -80.778743 36.067188)
(391.93556 -79.226709 44.629711)
(415.67384 -75.718731 52.558797)
(432.74874 -66.802297 59.11133)
(442.79914 -55.51455 65.455501)
(445.17132 -39.647204 70.449983)
(440.25031 -20.615774 75.059263)
(427.71715 2.299148 78.690297)
(407.96027 28.590518 81.715191)
(381.12786 58.188597 84.063311)
(347.68696 91.027897 85.8174)
(308.11211 126.59171 87.172355)
(262.82945 164.76701 88.168034)
(212.83619 205.01484 88.969156)
(158.10797 247.23433 89.643851)
(100.22886 290.92271 90.38384)
(39.21294 335.45019 91.442914)
(-23.953619 381.02167 92.475117)
(-88.857365 426.82763 94.005963)
(-154.94668 472.88938 95.706563)
(-221.70426 519.07461 97.688052)
(-288.92941 565.1148 99.752967)
(-356.43034 610.96029 101.88418)
(-424.20148 656.64864 103.78987)
(-492.18748 702.20978 105.28695)
(-560.47009 747.76284 106.1061)
(-629.01094 793.33263 105.94752)
(-697.95065 839.04104 104.67458)
(-767.0492 884.9317 101.87759)
(-836.31912 931.15298 97.541653)
(-905.64944 977.74871 91.721638)
(-975.66236 1025.5762 84.29995)
(-1041.6871 1070.0649 75.236518)
(-1108.7891 1116.7939 65.045617)
(-1174.0791 1162.794 53.992563)
(-1237.4776 1208.3214 42.273032)
(-1298.8419 1252.9124 30.611626)
(-1357.7943 1296.6899 18.929866)
(-1416.3609 1340.8715 7.9395631)
(0 0 0)
(0 0 0)
(0 0 0)
(0 0 0)
(0 0 0)
(0 0 0)
(0 0 0)
(0 0 0)
(0 0 0)
(0 0 0)
(0 0 0)
(0 0 0)
(0 0 0)
(0 0 0)
(0 0 0)
(0 0 0)
(0 0 0)
(0 0 0)
(0 0 0)
(0 0 0)
(0 0 0)
(0 0 0)
(0 0 0)
(0 0 0)
(0 0 0)
(0 0 0)
(0 0 0)
(0 0 0)
(0 0 0)
(0 0 0)
(0 0 0)
(0 0 0)
(0 0 0)
(0 0 0)
(0 0 0)
(0 0 0)
(0 0 0)
(0 0 0)
(0 0 0)
(0 0 0)
(0 0 0)
(0 0 0)
(0 0 0)
(0 0 0)
(0 0 0)
(0 0 0)
(0 0 0)
(0 0 0)
(0 0 0)
(29.658008 -16.914852 -26.913862)
(32.947022 -20.977655 -16.208407)
(37.299133 -21.992072 -7.7152555)
(39.100777 -22.850289 -0.87739822)
(37.602966 -21.288319 6.3931145)
(35.410617 -21.90879 13.284707)
(31.676811 -16.001026 23.860951)
(61.559232 -65.817395 -34.277057)
(67.495695 -73.444341 -17.227294)
(69.194721 -68.402347 -6.8183632)
(68.508872 -65.68235 0.9590586)
(68.795393 -68.961335 9.1573887)
(63.850274 -67.325129 18.118299)
(60.403974 -67.243138 34.088297)
(97.341269 -86.524285 -24.400382)
(102.23403 -84.470039 -16.351458)
(105.51995 -87.071523 -6.1055426)
(104.42448 -85.941311 2.6275098)
(102.82074 -83.728169 11.55287)
(98.029863 -83.316176 17.861055)
(92.136532 -85.297421 31.026772)
(135.81993 -102.79489 -13.556777)
(138.0307 -104.45593 -9.1644175)
(137.89901 -103.3598 -1.3586343)
(137.30933 -103.16832 3.7890174)
(134.71877 -102.71623 9.4645318)
(131.68378 -102.81358 16.792258)
(125.51921 -99.703975 21.965563)
(176.25031 -114.32986 -2.9909476)
(175.41869 -115.9127 -1.4644584)
(174.89875 -117.63058 2.1137415)
(172.9292 -116.06545 5.4324892)
(170.8647 -116.09312 8.6610568)
(167.45577 -114.87584 11.574592)
(164.23909 -114.70826 15.238557)
(216.29719 -119.97805 9.3434203)
(212.76485 -120.84554 8.0046673)
(209.63125 -121.00038 8.2665828)
(207.209 -121.15732 7.7188412)
(204.13565 -120.19509 7.9019831)
(203.08875 -119.73616 7.8550381)
(200.12239 -118.0491 7.3532266)
(254.6089 -120.5518 19.632656)
(248.62742 -122.30017 16.296474)
(244.09977 -124.30049 13.349448)
(240.48675 -123.33199 10.465114)
(237.79115 -123.74041 7.9793525)
(236.2819 -122.86086 5.0779229)
(235.52888 -122.33336 1.0524765)
(289.69895 -118.6496 30.16697)
(281.88532 -119.84036 24.07084)
(275.9708 -119.63503 18.330704)
(271.23864 -119.8114 12.676005)
(268.91875 -119.44719 7.488783)
(267.32659 -118.58258 2.2684515)
(268.09481 -118.23514 -3.3583958)
(321.98482 -112.06722 39.153308)
(312.13485 -112.27492 31.808472)
(304.46305 -112.93841 24.288507)
(299.74286 -112.70185 16.173129)
(296.43627 -113.37337 8.5883415)
(296.01262 -113.37308 1.3745751)
(296.67123 -113.86139 -6.7360807)
(349.03404 -101.30304 48.027752)
(338.07679 -101.73894 38.286751)
(329.95294 -101.34093 29.03899)
(324.1649 -101.26182 20.116823)
(320.93177 -100.78972 10.752874)
(320.20454 -101.12167 1.4796563)
(321.83026 -102.08392 -7.8297768)
(372.0818 -88.167954 55.587877)
(359.9456 -86.712425 45.58524)
(350.48105 -86.37397 34.743649)
(344.15253 -85.637504 23.931365)
(340.17204 -85.999938 12.987258)
(339.43905 -87.505714 2.8622119)
(341.69176 -88.90096 -8.8108181)
(388.79691 -69.511618 62.627114)
(376.25205 -68.301889 51.403137)
(366.22739 -67.311546 39.260841)
(359.70635 -67.032422 28.017768)
(355.73242 -67.451762 16.226245)
(354.7349 -68.154016 5.0685636)
(356.47249 -70.933347 -8.4684897)
(400.63824 -49.516813 69.079021)
(387.41489 -46.719082 56.943223)
(377.02581 -45.381942 45.057988)
(369.6796 -44.702565 32.718367)
(365.26845 -44.51857 20.106942)
(364.39572 -46.989992 8.2868445)
(365.68745 -49.111168 -4.6402698)
(406.31115 -24.376889 74.425168)
(393.04362 -21.559372 62.205828)
(381.8124 -19.806229 49.817482)
(374.52703 -18.942945 37.352649)
(369.69661 -19.479087 24.647281)
(368.1423 -21.032869 12.860043)
(368.88192 -24.284989 -0.89376254)
(406.16055 2.722019 79.439198)
(392.42968 6.3631783 67.182447)
(381.01575 8.8053724 55.116466)
(373.32033 9.5389552 42.571224)
(367.86684 9.9519752 30.004224)
(365.80603 7.4463518 18.006613)
(365.90978 4.3067919 4.6182354)
(399.38606 33.739719 83.521005)
(385.67984 37.830575 71.628952)
(374.25978 40.117918 59.988352)
(366.14537 41.446966 47.660314)
(360.46646 41.364644 35.653239)
(357.69119 39.070817 23.883893)
(357.06472 35.718587 10.927968)
(386.23596 67.267632 87.059346)
(372.73428 71.454224 75.893567)
(361.17163 74.594214 64.74576)
(352.83522 75.879759 53.212315)
(346.69776 76.175564 41.641218)
(343.24034 73.930104 30.479177)
(341.74964 70.576966 18.155557)
(366.72396 103.5274 89.993444)
(353.43772 108.19902 79.548172)
(342.0472 111.3843 69.464843)
(333.44146 112.81893 58.468194)
(327.01849 113.32682 47.905571)
(322.78623 111.10208 37.417333)
(320.43461 108.02151 25.985376)
(340.75793 142.30971 92.30794)
(327.95083 147.05816 83.09945)
(316.62386 150.50491 73.812864)
(307.9194 152.29046 63.947966)
(301.13596 152.96352 54.346631)
(296.18065 151.12044 44.769841)
(293.00855 148.21348 34.379561)
(308.74322 183.21341 94.32532)
(296.3676 187.96859 86.141938)
(285.34216 191.76987 78.096845)
(276.569 193.5716 69.285506)
(269.4257 194.63181 60.828359)
(263.82421 192.99278 52.257427)
(259.69975 190.6137 43.084194)
(270.84695 225.90359 95.906407)
(259.03493 230.84398 89.035567)
(248.29718 234.69527 82.15379)
(239.42009 236.85933 74.548474)
(232.0273 238.14468 67.30691)
(225.72095 237.02901 59.858709)
(220.83316 235.06412 51.941039)
(227.5104 270.29874 97.331329)
(216.26395 275.0611 91.73122)
(205.8267 279.22505 86.04236)
(196.99649 281.4586 79.734268)
(189.28144 283.1374 73.702197)
(182.5027 282.43681 67.373209)
(176.7602 281.13612 60.825051)
(179.21815 315.8295 98.599239)
(168.50558 320.5737 94.278911)
(158.39868 324.7912 89.844744)
(149.58208 327.38028 84.755865)
(141.77157 329.4543 79.887314)
(134.36227 329.3827 74.806234)
(127.92721 328.66425 69.492755)
(126.40186 362.2656 99.950667)
(116.28547 367.06953 96.83995)
(106.48794 371.51169 93.548793)
(97.892368 374.33178 89.608827)
(89.600219 376.68188 85.984894)
(81.895962 377.06321 81.835411)
(74.814724 377.06895 77.815309)
(69.87528 409.51857 101.57884)
(60.071967 414.35699 99.395794)
(50.725378 418.66751 97.282919)
(41.984396 422.06426 94.287323)
(33.813555 424.57092 91.616329)
(25.813552 425.85254 88.535952)
(18.232173 426.60445 85.781845)
(10.027215 457.15782 103.25987)
(0.61542802 462.04177 102.12278)
(-8.4569292 466.73374 100.93456)
(-17.031326 470.36737 98.633793)
(-25.357961 473.13734 97.262823)
(-33.626534 475.11704 94.889988)
(-41.727765 476.21917 92.957228)
(-52.516253 505.32166 105.41804)
(-61.658642 510.41689 105.25757)
(-70.397459 515.02612 104.2805)
(-78.884186 519.31723 103.3896)
(-87.343909 522.65495 102.07375)
(-95.611091 525.33892 100.33953)
(-103.74971 526.73773 98.875793)
(-117.37428 553.89017 107.81638)
(-125.95798 559.08342 108.24677)
(-134.70925 564.23938 107.7868)
(-142.84398 568.6038 107.61989)
(-151.36258 572.44313 106.50341)
(-159.59993 575.47682 105.70414)
(-167.8192 577.9525 104.56211)
(-183.65579 602.53162 110.66225)
(-192.26603 608.09622 111.31872)
(-200.5402 613.41195 111.52223)
(-208.76609 618.46332 111.40307)
(-216.89151 622.78529 110.94375)
(-225.13725 626.69726 110.31172)
(-233.40855 629.62776 109.34946)
(-251.30153 651.53127 113.52319)
(-259.59251 657.40778 114.66002)
(-267.84736 663.39115 114.81053)
(-275.73142 668.89121 115.12602)
(-283.81918 673.90228 114.73263)
(-291.91522 678.39002 114.26611)
(-300.05533 681.94609 113.40542)
(-319.74001 700.84353 116.66052)
(-327.97345 707.35656 117.7273)
(-335.98941 713.77973 118.11737)
(-343.75336 719.95413 118.38874)
(-351.62929 725.54101 118.06283)
(-359.41522 730.68537 117.65319)
(-367.40028 734.92384 116.69019)
(-388.88507 750.60004 119.476)
(-396.98294 757.62099 120.61048)
(-404.86664 764.78694 120.90911)
(-412.38907 771.57523 121.15125)
(-419.98951 777.88417 120.74412)
(-427.44954 783.79197 120.26375)
(-435.14929 788.71732 119.08108)
(-458.52647 800.63008 121.95443)
(-466.4729 808.49561 122.91392)
(-474.13824 816.34412 123.13337)
(-481.38251 823.88491 123.22735)
(-488.6893 830.97753 122.68119)
(-495.76395 837.57904 122.07267)
(-503.0706 843.29554 120.59679)
(-528.53033 851.15713 123.59702)
(-536.25768 859.78971 124.39139)
(-543.67104 868.45387 124.50058)
(-550.6324 876.76837 124.36082)
(-557.56353 884.61811 123.66458)
(-564.16908 891.99813 122.8694)
(-570.99592 898.57615 121.1201)
(-598.75109 901.90025 124.21911)
(-606.18538 911.47945 124.79552)
(-613.2783 920.96592 124.74213)
(-619.8811 930.08096 124.3977)
(-626.40815 938.70383 123.60875)
(-632.61174 946.89154 122.53179)
(-638.86323 954.45174 120.53216)
(-669.19476 952.92366 123.36951)
(-676.25971 963.38105 123.71115)
(-682.93294 973.68567 123.5629)
(-689.19503 983.54403 122.99254)
(-695.15858 993.06118 122.03849)
(-700.70225 1002.199 120.6337)
(-706.30491 1010.5295 118.57353)
(-739.50091 1003.9478 120.73568)
(-745.96404 1015.2868 120.99914)
(-752.21761 1026.4021 120.67952)
(-757.926 1037.0665 120.06719)
(-763.39474 1047.2882 118.94884)
(-768.46974 1057.1562 117.9272)
(-773.41395 1066.5385 115.53659)
(-809.67581 1054.8864 116.47505)
(-815.56538 1066.774 116.56066)
(-821.19425 1078.652 116.27277)
(-826.42567 1089.9112 115.50758)
(-831.31255 1100.9931 114.41655)
(-835.86772 1111.2278 112.93909)
(-840.14995 1121.7607 110.73471)
(-879.42951 1104.5632 110.02877)
(-884.57719 1117.3814 110.1245)
(-889.58844 1129.9241 109.79882)
(-894.26158 1141.8229 109.07429)
(-898.50492 1153.5392 107.96677)
(-902.41837 1164.7942 106.71404)
(-905.83243 1176.1377 104.54197)
(-948.19601 1153.6804 101.79023)
(-952.65457 1167.0347 101.83343)
(-957.03463 1180.1073 101.63419)
(-961.06571 1192.5075 100.80486)
(-964.65193 1204.8025 99.957313)
(-968.04951 1216.6896 98.6725)
(-970.72469 1228.8139 96.700484)
(-1015.8971 1201.3017 91.777144)
(-1019.5672 1215.2193 92.005794)
(-1023.1377 1228.6117 91.690669)
(-1026.5005 1241.396 91.155805)
(-1029.5024 1254.173 90.341624)
(-1032.2595 1266.5325 89.196657)
(-1034.2231 1279.3325 87.527257)
(-1081.9451 1247.2745 80.340688)
(-1084.8689 1261.3629 80.659248)
(-1087.7326 1274.9386 80.422392)
(-1090.4917 1288.0691 80.062366)
(-1092.8367 1301.1323 79.392044)
(-1095.0035 1313.9375 78.470336)
(-1096.3538 1327.2759 77.121435)
(-1146.023 1290.9981 67.898689)
(-1148.1514 1305.21 68.337595)
(-1150.2885 1318.9641 68.165607)
(-1152.3992 1332.2508 68.062924)
(-1154.1748 1345.5248 67.532605)
(-1155.8059 1358.6291 66.818504)
(-1156.6074 1372.2981 65.793552)
(-1207.6411 1332.3636 54.910122)
(-1209.1668 1346.5206 55.370931)
(-1210.6345 1360.2514 55.400781)
(-1212.2119 1373.5924 55.378974)
(-1213.4512 1386.9437 55.036825)
(-1214.5819 1400.2277 54.542719)
(-1214.9476 1414.0672 53.904341)
(-1266.5774 1371.0718 41.875499)
(-1267.4568 1385.1438 42.408768)
(-1268.3732 1398.7738 42.500893)
(-1269.4183 1412.0898 42.584165)
(-1270.2159 1425.3962 42.434498)
(-1270.9047 1438.747 42.144077)
(-1270.9723 1452.5536 41.778212)
(-1322.3931 1407.1412 29.221067)
(-1322.8638 1421.0078 29.684732)
(-1323.3132 1434.4999 29.846394)
(-1323.9396 1447.6791 29.988623)
(-1324.3742 1460.8215 29.951726)
(-1324.7185 1474.0538 29.858608)
(-1324.598 1487.722 29.834581)
(-1375.2302 1440.388 17.51134)
(-1375.276 1454.2027 17.871306)
(-1375.4155 1467.4561 18.06674)
(-1375.7038 1480.3511 18.221557)