/*--------------------------------*- C++ -*----------------------------------*\
  =========                 |
  \\      /  F ield         | OpenFOAM: The Open Source CFD Toolbox
   \\    /   O peration     | Website:  https://openfoam.org
    \\  /    A nd           | Version:  6
     \\/     M anipulation  |
\*---------------------------------------------------------------------------*/
FoamFile
{
    version     2.0;
    format      ascii;
    class       pointVectorField;
    location    "0.27";
    object      u;
}
// * * * * * * * * * * * * * * * * * * * * * * * * * * * * * * * * * * * * * //

dimensions      [0 1 0 0 0 0 0];

internalField   nonuniform List<vector> 
28033
(
(0 1.1981863e-19 0)
(0 8.1751715e-19 0)
(1.61726 -0.067301808 0.00087781348)
(1.544166 -0.4425967 0.00082963475)
(0 7.4158253e-19 0)
(0 1.2025005e-18 0)
(1.5446258 -0.4430856 0.00032400064)
(1.6177899 -0.067680929 0.0013720496)
(0 2.6134848e-19 0)
(0 7.5973634e-20 0)
(0 6.0912116e-19 0)
(0 -2.8928822e-19 0)
(0 3.8852017e-19 0)
(0 -2.2890419e-19 0)
(0 -5.4886474e-21 0)
(-1.8156122e-19 -5.9228347e-20 0)
(0 1.1054505e-19 0)
(0 5.4687399e-20 0)
(0 -2.0975984e-19 0)
(0 2.0302351e-19 0)
(0 2.4344565e-19 0)
(0 -1.9632228e-19 0)
(0 2.5127698e-19 0)
(1.6126489 -0.090857168 0.00084393565)
(1.6080104 -0.11438946 0.00079473024)
(1.603372 -0.13788845 0.00076178572)
(1.5987382 -0.16135051 0.00074225754)
(1.5941255 -0.18476876 0.00073922746)
(1.5895335 -0.2081605 0.00075492416)
(1.5849676 -0.23152508 0.00078246086)
(1.5804257 -0.25488654 0.00081624669)
(1.5759051 -0.27824963 0.000855035)
(1.5713952 -0.30163321 0.00088936895)
(1.566893 -0.32504789 0.00091069661)
(1.5623846 -0.34849912 0.00091805402)
(1.5578659 -0.37198739 0.00091248306)
(1.5533253 -0.3955103 0.00089179058)
(1.5487587 -0.4190507 0.0008592823)
(0.0032349638 0.0053025313 0.0058745709)
(0.003754988 0.008343853 0.00821241)
(0.0047474608 0.011502218 0.0099004616)
(0.0063460415 0.014821462 0.011020195)
(0.0083034622 0.018197681 0.01171508)
(0.010916891 0.021674786 0.012195312)
(0.014033409 0.02519121 0.012471257)
(0.017713635 0.028665978 0.012609186)
(0.021915345 0.032189918 0.012665954)
(0.026655513 0.035627306 0.012651762)
(0.031875055 0.039050742 0.012587402)
(0.037612933 0.042398641 0.012477898)
(0.043810364 0.045698773 0.012384516)
(0.050515072 0.048912114 0.012236848)
(0.057636275 0.052052388 0.01212085)
(0.06524695 0.0551045 0.01196257)
(0.073276794 0.058086587 0.011850583)
(0.081760541 0.060954738 0.011716851)
(0.090657048 0.063759415 0.011597346)
(0.099992176 0.066451223 0.011476399)
(0.10973297 0.069068734 0.011384693)
(0.11990119 0.071574745 0.011269248)
(0.13046992 0.073994174 0.011190814)
(0.14146333 0.076320622 0.011097385)
(0.15285227 0.078533328 0.011010935)
(0.16466352 0.080662841 0.01092426)
(0.17686586 0.082664641 0.01084289)
(0.18948912 0.084584766 0.010748523)
(0.20251049 0.086367139 0.010646728)
(0.21593248 0.088047459 0.010544884)
(0.2297642 0.089607884 0.010422471)
(0.24397539 0.091032718 0.010292515)
(0.25858754 0.09234274 0.010155061)
(0.27357265 0.093499167 0.010003737)
(0.28893637 0.094545335 0.0098383031)
(0.30466548 0.095433991 0.0096669567)
(0.32073597 0.096194332 0.009498623)
(0.33715825 0.096812276 0.0093244075)
(0.3538978 0.097288706 0.0091429311)
(0.370961 0.097635247 0.0089787977)
(0.38832137 0.097836277 0.0088155237)
(0.40598136 0.097918894 0.0086688935)
(0.42392715 0.097860892 0.0085285656)
(0.44215413 0.097682156 0.0084081521)
(0.46065111 0.097374365 0.0082977261)
(0.47942306 0.096946352 0.0082010232)
(0.49845862 0.096393923 0.0081142919)
(0.51776675 0.095719803 0.008033341)
(0.53733846 0.094920742 0.0079553832)
(0.55718227 0.0939958 0.0078746337)
(0.57729175 0.092940779 0.0077869124)
(0.5976717 0.091752509 0.0076870901)
(0.61831649 0.090426273 0.0075711241)
(0.6392253 0.088957831 0.0074353182)
(0.6603911 0.08734306 0.0072771664)
(0.68180688 0.085578269 0.0070953943)
(0.70346226 0.083660845 0.0068900495)
(0.72534493 0.081589473 0.006662423)
(0.74744022 0.079364166 0.0064154436)
(0.76973229 0.076986143 0.0061530517)
(0.79220296 0.074459007 0.0058803678)
(0.8148354 0.071787479 0.0056023182)
(0.83760804 0.068978386 0.005326871)
(0.86051079 0.066034378 0.0050550113)
(0.88351302 0.062974356 0.0048034846)
(0.90661674 0.059794312 0.0045593909)
(0.9297943 0.056505568 0.0043451709)
(0.95304372 0.053121387 0.0041496724)
(0.97635374 0.049649034 0.0039748539)
(0.99972019 0.046089136 0.0038279248)
(1.0231382 0.042451191 0.0037017379)
(1.0466074 0.038737933 0.0035928402)
(1.0701265 0.034954751 0.0034974167)
(1.093698 0.031099392 0.0034112504)
(1.1173224 0.027177606 0.0033275221)
(1.1410006 0.023182316 0.0032422192)
(1.1647331 0.019121783 0.0031494128)
(1.1885198 0.014985313 0.0030459428)
(1.2123561 0.010785253 0.0029266486)
(1.2362394 0.0065059523 0.0027940918)
(1.2601644 0.0021647898 0.0026402216)
(1.2841179 -0.0022478932 0.0024766802)
(1.3080977 -0.0067238493 0.0022945917)
(1.3320821 -0.011258015 0.0021075094)
(1.3560711 -0.015844275 0.0019146724)
(1.3800404 -0.020475743 0.0017248644)
(1.4039878 -0.025148925 0.0015430149)
(1.4278901 -0.029839621 0.001376012)
(1.4517507 -0.034561533 0.001227925)
(1.4755474 -0.039273881 0.0011052863)
(1.4992908 -0.044002205 0.0010108917)
(1.5229666 -0.048702804 0.00094157285)
(1.546589 -0.053397399 0.00090813508)
(1.5701641 -0.058058375 0.00088269574)
(1.5937094 -0.062694654 0.00088905278)
(0.0015507938 -0.0060259744 -0.0071796164)
(0.0028099684 -0.0083578657 -0.0083334985)
(0.0036160824 -0.011698719 -0.010798356)
(0.0044813949 -0.014472292 -0.011711507)
(0.0063789479 -0.017915831 -0.012620349)
(0.0085389701 -0.021405587 -0.013094603)
(0.011277687 -0.024788458 -0.013436197)
(0.014536281 -0.028439157 -0.013563227)
(0.018338975 -0.032042971 -0.013638631)
(0.022549751 -0.035680343 -0.013614732)
(0.027301285 -0.039389386 -0.013553813)
(0.03244578 -0.043068662 -0.013461383)
(0.038078663 -0.046807228 -0.013335551)
(0.044109254 -0.05054282 -0.013228995)
(0.050578854 -0.05428573 -0.013085977)
(0.057446284 -0.058066951 -0.012974975)
(0.06472352 -0.061827925 -0.012843714)
(0.072397695 -0.065635079 -0.012725328)
(0.080454621 -0.069454642 -0.012623183)
(0.088908894 -0.073281819 -0.012518379)
(0.097736635 -0.077153184 -0.012415953)
(0.1069524 -0.08105276 -0.012336624)
(0.11653468 -0.084964356 -0.012241371)
(0.12650972 -0.088944283 -0.012159724)
(0.13685016 -0.092938349 -0.012075795)
(0.14758407 -0.096989871 -0.011976665)
(0.15868552 -0.10108796 -0.011896062)
(0.1701807 -0.10522419 -0.011780025)
(0.18204909 -0.10942468 -0.011680421)
(0.19430572 -0.11365519 -0.011542927)
(0.20693807 -0.11795892 -0.011413528)
(0.21995116 -0.12229402 -0.011261627)
(0.23333683 -0.1266892 -0.011103309)
(0.24709444 -0.13112308 -0.010930041)
(0.26121031 -0.13560762 -0.010750602)
(0.27568174 -0.14012657 -0.010570456)
(0.29049561 -0.14468173 -0.010368509)
(0.30564468 -0.14928843 -0.010183661)
(0.32111244 -0.15391583 -0.0099936854)
(0.33689803 -0.15858694 -0.0098122537)
(0.35298091 -0.16328798 -0.0096383199)
(0.36935859 -0.16802391 -0.0094757909)
(0.38601843 -0.17279503 -0.0093239321)
(0.4029568 -0.17760277 -0.0091845806)
(0.42016656 -0.18244956 -0.0090552101)
(0.43764737 -0.18733813 -0.0089341157)
(0.45539582 -0.19227139 -0.0088182915)
(0.47341453 -0.19725162 -0.0087030528)
(0.49170392 -0.20228207 -0.0085844706)
(0.51026703 -0.20736331 -0.0084573341)
(0.52910638 -0.21249726 -0.008317115)
(0.54822398 -0.21768276 -0.0081596685)
(0.56762114 -0.22291873 -0.0079813887)
(0.58729743 -0.22820206 -0.0077799935)
(0.60725067 -0.23352869 -0.0075540227)
(0.62747638 -0.23889293 -0.0073037271)
(0.64796788 -0.24428879 -0.0070300782)
(0.668716 -0.24970838 -0.0067358797)
(0.68970945 -0.25514449 -0.0064244952)
(0.71093503 -0.26058866 -0.006100456)
(0.73237783 -0.2660335 -0.005768617)
(0.75402198 -0.27147113 -0.0054346698)
(0.77585079 -0.27689566 -0.0051034302)
(0.79784809 -0.28230106 -0.0047803639)
(0.81999715 -0.28768363 -0.0044695773)
(0.84228399 -0.29303996 -0.004174969)
(0.86469379 -0.29836962 -0.0038993475)
(0.88721683 -0.30367246 -0.003641736)
(0.9098404 -0.30894488 -0.0034087695)
(0.93255939 -0.31419304 -0.0031897721)
(0.955367 -0.319427 -0.0029919631)
(0.97826164 -0.32463133 -0.0028065915)
(1.0012405 -0.32982935 -0.0026327188)
(1.0243037 -0.33500761 -0.0024653467)
(1.0474507 -0.340178 -0.0023010039)
(1.0706829 -0.34533668 -0.0021355137)
(1.0939997 -0.35048499 -0.0019656575)
(1.1174017 -0.35562268 -0.0017878671)
(1.140885 -0.36074568 -0.0016017924)
(1.1644482 -0.36585236 -0.0014058427)
(1.188084 -0.37093742 -0.0012007643)
(1.2117859 -0.37599582 -0.00098857118)
(1.2355442 -0.3810235 -0.00077092076)
(1.2593476 -0.38601351 -0.00055318132)
(1.2831836 -0.39096259 -0.00033777169)
(1.3070384 -0.39586505 -0.00013141627)
(1.3308978 -0.40071926 6.2695239e-05)
(1.3547482 -0.40552202 0.00023846734)
(1.3785759 -0.41027468 0.00039283853)
(1.4023698 -0.41497808 0.00052218763)
(1.4261199 -0.41963693 0.0006248072)
(1.4498201 -0.42425715 0.00070094514)
(1.4734675 -0.4288492 0.00075272902)
(1.4970655 -0.43342325 0.00078507257)
(1.5206254 -0.43800182 0.00080578366)
(0 -3.282052e-19 0)
(0 -2.4142764e-19 0)
(0 2.2693762e-19 0)
(0 -1.4349619e-19 0)
(0 -1.2315537e-19 0)
(0 6.8447868e-19 0)
(0 -2.0155976e-19 0)
(-4.6562843e-19 1.3015493e-19 0)
(0 -1.179912e-19 0)
(0 2.8584026e-19 0)
(0 3.4048382e-19 0)
(0 1.1900292e-19 0)
(0 6.317965e-20 0)
(0 -1.2933854e-19 0)
(0 8.8607768e-20 0)
(0.0033714998 -0.0025309589 0.0052183428)
(0.0035123219 -0.0096877652 0.0083836428)
(0.0033923977 -0.010302921 0.0099831305)
(0.004834641 -0.015167656 0.011790904)
(0.0062172478 -0.017623344 0.012508787)
(0.0085995717 -0.021406186 0.013002925)
(0.011242883 -0.024675834 0.013297473)
(0.014627523 -0.028427077 0.013453515)
(0.018374154 -0.03186258 0.013437556)
(0.02266612 -0.035653134 0.013385911)
(0.027477918 -0.03928468 0.013287342)
(0.032607382 -0.042930859 0.013106041)
(0.038343835 -0.046773133 0.012951195)
(0.04435742 -0.050376973 0.012727816)
(0.05093846 -0.054309776 0.012547417)
(0.057807848 -0.057927387 0.012335806)
(0.065146227 -0.061841956 0.012157941)
(0.072857444 -0.065573364 0.011939266)
(0.080954613 -0.069474437 0.011791303)
(0.089452904 -0.073308669 0.01160806)
(0.098293294 -0.077195309 0.011490867)
(0.10753302 -0.081121201 0.011344909)
(0.11713116 -0.085082389 0.011245556)
(0.12711373 -0.08906777 0.011141375)
(0.13745501 -0.093086831 0.011050782)
(0.14818837 -0.097161081 0.010968652)
(0.15926736 -0.10125303 0.010879331)
(0.17075619 -0.10543865 0.010802831)
(0.18260079 -0.10960964 0.010703586)
(0.19483525 -0.11389585 0.010612248)
(0.20745735 -0.11817895 0.010497817)
(0.22044964 -0.12253215 0.010373668)
(0.23382427 -0.12692469 0.010228789)
(0.24756754 -0.13137118 0.010072432)
(0.26168663 -0.13586334 0.0099014154)
(0.27614869 -0.14036338 0.0097098587)
(0.29096643 -0.14497046 0.0095175823)
(0.30612824 -0.14957088 0.009318018)
(0.32160754 -0.1542215 0.0091164642)
(0.3374084 -0.15890997 0.0089160066)
(0.35350957 -0.1636347 0.0087250768)
(0.36990486 -0.16839677 0.008543913)
(0.38658396 -0.1731959 0.0083769019)
(0.40353954 -0.17803423 0.008225212)
(0.42076577 -0.18291235 0.0080894911)
(0.43825976 -0.18783316 0.0079681031)
(0.45601957 -0.19279782 0.0078589912)
(0.47404603 -0.19780916 0.0077583433)
(0.49234016 -0.20286774 0.007661949)
(0.51090511 -0.20797564 0.0075643272)
(0.52974316 -0.2131321 0.0074607546)
(0.54885732 -0.21833701 0.0073453651)
(0.56824876 -0.22358832 0.0072144941)
(0.58791785 -0.22888288 0.0070636322)
(0.60786251 -0.2342171 0.0068911933)
(0.628079 -0.23958523 0.006695174)
(0.64856055 -0.24498197 0.006476648)
(0.66929877 -0.2504001 0.0062365104)
(0.69028226 -0.25583298 0.0059781147)
(0.71149841 -0.26127316 0.0057050963)
(0.73293218 -0.26671386 0.0054223045)
(0.75456846 -0.27214819 0.0051347295)
(0.77639029 -0.27757097 0.0048481831)
(0.79838195 -0.28297616 0.0045673266)
(0.820527 -0.28836091 0.0042975489)
(0.84281122 -0.29372325 0.0040421697)
(0.86522204 -0.29905534 0.0038044776)
(0.88774232 -0.30437856 0.0035876121)
(0.91037473 -0.30964687 0.0033941961)
(0.93309114 -0.31492112 0.003214045)
(0.95591124 -0.32015859 0.0030573839)
(0.97881105 -0.32537976 0.002915971)
(1.0018001 -0.33058261 0.002785226)
(1.0248724 -0.33577062 0.0026642733)
(1.0480297 -0.34094358 0.0025465905)
(1.0712715 -0.34610246 0.0024288278)
(1.0945979 -0.35124709 0.0023070095)
(1.1180073 -0.35637623 0.0021787053)
(1.1414973 -0.36148695 0.0020411991)
(1.1650641 -0.36657698 0.0018940671)
(1.1887012 -0.37164191 0.001737327)
(1.2124015 -0.37667785 0.0015726298)
(1.2361548 -0.38168005 0.0014023881)
(1.2599505 -0.38664435 0.0012305746)
(1.2837752 -0.39156658 0.0010610715)
(1.3076167 -0.39644357 0.00089902431)
(1.3314601 -0.40127339 0.00074910997)
(1.3552935 -0.40605457 0.00061596201)
(1.3791032 -0.41078898 0.00050378626)
(1.4028797 -0.41547744 0.00041520018)
(1.4266133 -0.42012676 0.00035244345)
(1.4502995 -0.42474037 0.0003146494)
(1.4739362 -0.42933149 0.000300363)
(1.4975265 -0.43390735 0.00030387459)
(1.5210802 -0.43848477 0.00031766157)
(1.5492258 -0.41954345 0.00035976235)
(1.5538007 -0.39598836 0.00039360274)
(1.5583495 -0.37245331 0.00043543383)
(1.5628741 -0.34895292 0.00048956072)
(1.5673978 -0.32548536 0.00055978001)
(1.5719 -0.30205299 0.00064030914)
(1.5764292 -0.27865491 0.00073401035)
(1.5809538 -0.25526763 0.00083048368)
(1.5855058 -0.23189708 0.00092809259)
(1.5900746 -0.20851022 0.0010231724)
(1.5946766 -0.18512645 0.0011063932)
(1.5992868 -0.1616854 0.0011802082)
(1.60392 -0.13824104 0.001235101)
(1.6085574 -0.11473115 0.0012873469)
(1.6131884 -0.091214174 0.001320649)
(1.5942566 -0.063081157 0.0013603734)
(1.5707274 -0.058443658 0.0013644399)
(1.5471718 -0.053793115 0.0013533952)
(1.5235693 -0.04911986 0.0013306792)
(1.4999167 -0.044433429 0.0012857451)
(1.4762014 -0.039740034 0.0012168194)
(1.4524284 -0.035049114 0.0011218175)
(1.4285981 -0.030368811 0.0010028543)
(1.4047168 -0.025708317 0.00086068089)
(1.3807944 -0.021076212 0.00069844879)
(1.3568386 -0.016480105 0.00052024173)
(1.3328631 -0.011927953 0.00032969138)
(1.3088772 -0.0074244326 0.00012980462)
(1.2848914 -0.0029751584 -7.6183757e-05)
(1.2609229 0.0014129263 -0.00028238026)
(1.2369784 0.005741314 -0.00048695167)
(1.2130685 0.010005101 -0.00068657547)
(1.1891995 0.014203629 -0.00088110099)
(1.1653782 0.018338051 -0.0010703049)
(1.1416078 0.022405316 -0.0012537793)
(1.1178917 0.026408248 -0.001434085)
(1.0942306 0.030343446 -0.0016127367)
(1.0706252 0.034213048 -0.0017925921)
(1.0470758 0.038010748 -0.0019762476)
(1.0235811 0.041740058 -0.0021677528)
(1.000146 0.045393141 -0.0023677204)
(0.97675765 0.048962668 -0.0025838577)
(0.95346917 0.052423648 -0.0027971195)
(0.93020261 0.055830493 -0.0030484098)
(0.90703547 0.059111971 -0.0033009129)
(0.88394699 0.062290947 -0.0035736567)
(0.86095689 0.06535235 -0.003854838)
(0.83807544 0.068288781 -0.0041469073)
(0.81531996 0.071093375 -0.0044447797)
(0.79270603 0.073759713 -0.0047448087)
(0.77025082 0.076283078 -0.0050429259)
(0.74797176 0.078658709 -0.0053351486)
(0.7258854 0.080884972 -0.0056173514)
(0.70400772 0.082959981 -0.0058864731)
(0.68235279 0.084884783 -0.0061398485)
(0.66093333 0.086660343 -0.0063758541)
(0.63975958 0.088289881 -0.0065936672)
(0.61884001 0.089776269 -0.0067937166)
(0.59818058 0.091123871 -0.0069769696)
(0.57778573 0.092336173 -0.0071455708)
(0.55765781 0.09341747 -0.007302078)
(0.53779829 0.094370434 -0.0074495439)
(0.51820748 0.095198339 -0.0075912582)
(0.49888585 0.095901852 -0.0077306562)
(0.47983336 0.09648327 -0.0078705268)
(0.4610519 0.096939085 -0.0080133367)
(0.44254224 0.097274183 -0.0081623277)
(0.42431051 0.097476035 -0.0083154591)
(0.40635797 0.097557368 -0.008479304)
(0.38869663 0.097497472 -0.008644799)
(0.37133347 0.097308649 -0.0088178588)
(0.35427158 0.096987994 -0.0089955129)
(0.33752263 0.096512883 -0.0091744191)
(0.32113478 0.095896229 -0.009342094)
(0.30504838 0.095168103 -0.0095239198)
(0.28932163 0.094269229 -0.0096920665)
(0.27399317 0.093233792 -0.0098418527)
(0.25900243 0.092083044 -0.0099937701)
(0.24439811 0.090789253 -0.010137184)
(0.2301766 0.089363721 -0.010270213)
(0.21637848 0.08780868 -0.010389756)
(0.20294136 0.086159021 -0.010495328)
(0.18994239 0.08435829 -0.010598959)
(0.17731547 0.082487256 -0.010705678)
(0.16510623 0.080487886 -0.010800335)
(0.15329464 0.078394081 -0.010896482)
(0.14188512 0.076194844 -0.010995466)
(0.13090947 0.073880162 -0.011079732)
(0.12030664 0.071515644 -0.011191737)
(0.11012547 0.069011226 -0.011299009)
(0.10037339 0.066426592 -0.01139564)
(0.091010888 0.063758604 -0.011530776)
(0.082100536 0.060973209 -0.01162718)
(0.073587656 0.058131151 -0.011775551)
(0.065538699 0.055147285 -0.011881922)
(0.057937567 0.052118159 -0.012013651)
(0.050752754 0.048976327 -0.012122878)
(0.044046151 0.045784295 -0.012264911)
(0.037841984 0.042441779 -0.0123307)
(0.032083076 0.039149381 -0.012445804)
(0.026830769 0.035679119 -0.012476354)
(0.022110337 0.032223411 -0.012483132)
(0.017894876 0.028710068 -0.012413399)
(0.014195392 0.025209579 -0.012268169)
(0.011060374 0.02169346 -0.011987001)
(0.0084870882 0.018154557 -0.011469579)
(0.0065203686 0.014650833 -0.010733596)
(0.0051134598 0.01153729 -0.0096614142)
(0.0039913698 0.0080644153 -0.0076778349)
(0.0047950607 0.0050772371 -0.0044815296)
(0 3.7189722e-19 0)
(0 1.4140157e-19 0)
(0 3.6700977e-19 0)
(0 3.6945542e-19 0)
(0 3.85062e-19 0)
(0 2.3156984e-19 0)
(0 9.2313737e-21 0)
(0 -2.098307e-19 -2.3023147e-19)
(0 2.4846725e-20 0)
(0 2.2338056e-19 0)
(0 5.386425e-19 0)
(0 4.7196319e-19 0)
(0 3.378389e-19 0)
(0 3.2649501e-19 0)
(0 3.7283041e-19 0)
(0 1.5439101e-18 0)
(0 6.5737638e-19 0)
(0 2.4123844e-19 0)
(0 4.3542314e-19 0)
(0 -3.7909264e-20 0)
(0 1.0149089e-19 0)
(0 1.1564832e-18 0)
(0 -4.7061676e-19 -2.0407408e-19)
(0 6.8788779e-19 0)
(0 8.5993215e-19 0)
(0 2.8417859e-19 0)
(0 1.1632012e-19 0)
(0 2.6998905e-19 0)
(0 4.8677206e-19 0)
(0 6.2611867e-20 0)
(1.544177 -0.44263305 0.00083061469)
(1.5441778 -0.44267984 0.00081298606)
(1.5441831 -0.44272927 0.00078224996)
(1.5441916 -0.44277828 0.00074492583)
(1.5442064 -0.44282651 0.00070147222)
(1.5442261 -0.44287094 0.00065662811)
(1.544251 -0.44291146 0.00060922454)
(1.544281 -0.44294752 0.00056282543)
(1.5443156 -0.4429789 0.0005160301)
(1.5443546 -0.44300467 0.00047121565)
(1.5443973 -0.44302538 0.00042842013)
(1.5444435 -0.44303995 0.00039010004)
(1.5444921 -0.44305079 0.00035740804)
(1.5445407 -0.44305923 0.00033349892)
(1.544591 -0.44306712 0.00032399941)
(1.6172959 -0.067306018 0.00087844914)
(1.6173274 -0.067294152 0.00089478329)
(1.6173604 -0.067286404 0.0009271434)
(1.6173896 -0.067282827 0.00096788813)
(1.6174218 -0.067287168 0.0010130681)
(1.6174508 -0.06729948 0.0010597408)
(1.6174795 -0.067318989 0.0011071467)
(1.617508 -0.067345649 0.0011531928)
(1.6175372 -0.067378296 0.0011978722)
(1.6175671 -0.067416556 0.0012396719)
(1.6175986 -0.067459434 0.0012787393)
(1.6176319 -0.067506177 0.0013130626)
(1.617667 -0.067555522 0.0013420016)
(1.6177044 -0.067604646 0.0013633233)
(1.617747 -0.067649843 0.0013707629)
(0.0016100736 0.002845303 0.0059251211)
(0.0022773226 0.0042074747 0.0069643123)
(0.0030464914 0.0058098277 0.0086719354)
(0.0045106713 0.0073022054 0.009407806)
(0.0061669582 0.008832621 0.010173646)
(0.0085902834 0.010453445 0.010555143)
(0.011387786 0.012093512 0.010843644)
(0.014860199 0.013854557 0.010980195)
(0.01872899 0.015593555 0.011056314)
(0.023194069 0.017427906 0.011065778)
(0.028114985 0.019226829 0.011005978)
(0.033562059 0.021115436 0.01095897)
(0.039455178 0.022944558 0.010843107)
(0.045842353 0.024858317 0.010754482)
(0.052671655 0.026713063 0.010627158)
(0.059986992 0.0286368 0.010524508)
(0.067729519 0.030513846 0.010393225)
(0.075911161 0.032442705 0.010295743)
(0.084545061 0.034336143 0.010179927)
(0.093614344 0.036267838 0.010079918)
(0.10310334 0.038182598 0.0099857997)
(0.11303304 0.040102146 0.0098984134)
(0.12339054 0.042038414 0.009808167)
(0.13416372 0.043955828 0.0097365199)
(0.14538289 0.045880354 0.0096523281)
(0.1570222 0.047793728 0.0095804997)
(0.16909453 0.049704027 0.0094979355)
(0.1815925 0.051589571 0.0094221484)
(0.19453146 0.053454954 0.0093326756)
(0.2078972 0.055304977 0.0092395729)
(0.22168812 0.057103794 0.0091358969)
(0.23591369 0.058875125 0.0090222986)
(0.25055812 0.060596791 0.0089020625)
(0.26561237 0.062265826 0.0087677271)
(0.28108182 0.063877624 0.0086278347)
(0.29694604 0.065413925 0.0084784348)
(0.31319619 0.0668982 0.008323822)
(0.32981517 0.068292279 0.0081677258)
(0.34680709 0.069617865 0.0080097343)
(0.36413656 0.070856288 0.0078614321)
(0.38180657 0.072008773 0.0077187431)
(0.39979393 0.073066095 0.0075813937)
(0.41809589 0.074036889 0.0074604118)
(0.43670042 0.074901217 0.0073475529)
(0.45559508 0.075667362 0.0072474071)
(0.47478033 0.076322632 0.0071592699)
(0.49424739 0.076861904 0.0070778448)
(0.51399674 0.077279272 0.0070035832)
(0.53402347 0.077565068 0.0069300317)
(0.5543287 0.077712028 0.0068547387)
(0.57490842 0.077710515 0.006772298)
(0.59576183 0.077551673 0.0066794569)
(0.61688384 0.077226549 0.0065717045)
(0.63826955 0.076726686 0.00644684)
(0.65991049 0.076044487 0.0063023085)
(0.68179651 0.075173343 0.0061378071)
(0.70391457 0.074108316 0.0059533203)
(0.72624917 0.072845561 0.0057507056)
(0.74878279 0.071383344 0.0055328341)
(0.77149594 0.069721038 0.0053033904)
(0.79436772 0.067860133 0.0050667836)
(0.8173774 0.065803597 0.0048281139)
(0.84050268 0.063553971 0.0045926881)
(0.86372514 0.061115499 0.0043659677)
(0.88701948 0.058498794 0.0041494862)
(0.91038315 0.055695402 0.003950314)
(0.93379031 0.052727698 0.0037701191)
(0.95721918 0.049588462 0.0036113064)
(0.98067758 0.046284257 0.0034716913)
(1.0041498 0.042816754 0.003352561)
(1.0276366 0.039195102 0.0032481794)
(1.0511345 0.035415256 0.0031578737)
(1.0746434 0.031483488 0.0030764431)
(1.0981638 0.02739812 0.0030021115)
(1.1216972 0.023161009 0.0029282615)
(1.1452453 0.018772912 0.0028528494)
(1.1688084 0.014237941 0.0027700724)
(1.192386 0.0095545688 0.0026784521)
(1.2159776 0.0047319297 0.0025745511)
(1.2395784 -0.00023320311 0.0024591178)
(1.2631851 -0.0053256061 0.0023292269)
(1.2867882 -0.010546107 0.002189886)
(1.3103838 -0.015883663 0.002039851)
(1.3339552 -0.021325985 0.0018866864)
(1.3575007 -0.026867837 0.0017282621)
(1.3810067 -0.032491549 0.0015761414)
(1.4044648 -0.038189271 0.0014284604)
(1.4278591 -0.043945519 0.0012940671)
(1.451194 -0.049750254 0.0011741409)
(1.4744481 -0.055589035 0.0010745519)
(1.4976361 -0.061454785 0.00099383849)
(1.5207447 -0.067331218 0.00093535039)
(1.5437851 -0.073218651 0.00089587675)
(1.5667714 -0.07910158 0.00086864302)
(1.5897093 -0.08498148 0.00085549705)
(6.6368252e-05 0.0011658733 0.0051718877)
(0.00050423396 8.9866517e-05 0.0062975869)
(0.0016146541 0.00055769375 0.0073983972)
(0.0026570472 0.00021711526 0.0082310769)
(0.0043441882 0.00037026663 0.0087256805)
(0.0064544977 0.00036182494 0.0090674207)
(0.0091574889 0.00058893627 0.0092837817)
(0.012291876 0.00078048159 0.0094201134)
(0.016003953 0.0011108135 0.0094979955)
(0.020200724 0.0014743859 0.0094738091)
(0.024881188 0.0019473271 0.0094851492)
(0.030061218 0.0024695153 0.0093878494)
(0.035704449 0.0030965425 0.0093463607)
(0.041835711 0.0037764683 0.0092306845)
(0.048408603 0.0045555367 0.0091644478)
(0.055470778 0.005403684 0.0090302917)
(0.062941499 0.0063478077 0.0089621303)
(0.070909624 0.0073622313 0.0088449571)
(0.079284209 0.008474915 0.008761802)
(0.088129744 0.009662583 0.0086647101)
(0.097396812 0.010944728 0.0085873107)
(0.10712379 0.012311439 0.0084971277)
(0.11727661 0.013760042 0.0084310568)
(0.12788794 0.015294527 0.0083552873)
(0.13893352 0.016899113 0.0082903608)
(0.15043498 0.018593155 0.0082175296)
(0.16237854 0.020341676 0.0081537916)
(0.17477921 0.02216271 0.008083275)
(0.18763056 0.024037417 0.0080071933)
(0.20093702 0.025961368 0.0079255944)
(0.21469787 0.027925582 0.007841311)
(0.22891302 0.029921932 0.0077438806)
(0.24357196 0.031944819 0.0076379932)
(0.25867585 0.033974346 0.0075265606)
(0.27421813 0.036015761 0.0074023876)
(0.29018417 0.038052431 0.0072750666)
(0.30657335 0.040073539 0.0071427503)
(0.32336145 0.042075589 0.0070088773)
(0.34052939 0.044045498 0.0068762787)
(0.35807855 0.045985239 0.0067464604)
(0.37598338 0.047869134 0.006617018)
(0.3942334 0.049709477 0.0065039449)
(0.41282168 0.051474507 0.0063904827)
(0.43172566 0.053174418 0.0062963194)
(0.45094483 0.054787334 0.0062065167)
(0.47046787 0.056305545 0.0061294923)
(0.49028786 0.057715582 0.0060582022)
(0.5104017 0.059006602 0.0059935013)
(0.53080438 0.060162957 0.0059286786)
(0.55149351 0.061173314 0.0058634722)
(0.57246452 0.062022066 0.0057912382)
(0.59371403 0.062696968 0.00571041)
(0.61523515 0.063184435 0.0056165127)
(0.63702061 0.063472718 0.0055078633)
(0.65905966 0.063550852 0.00538243)
(0.68133947 0.063409695 0.0052399168)
(0.70384423 0.063041401 0.0050806589)
(0.72655578 0.06244007 0.0049066384)
(0.74945344 0.061601776 0.0047201723)
(0.77251503 0.06052369 0.0045248355)
(0.79571708 0.05920536 0.0043249032)
(0.81903603 0.057647235 0.0041239063)
(0.84244715 0.055848439 0.0039287101)
(0.86592974 0.053816336 0.0037384876)
(0.88946086 0.051547544 0.0035626708)
(0.91303044 0.049050289 0.003400779)
(0.93659128 0.046322265 0.0032602992)
(0.96017187 0.043359443 0.0031314339)
(0.98374817 0.040174727 0.0030140989)
(1.007307 0.036765876 0.002918805)
(1.0308492 0.033135532 0.0028332775)
(1.0543671 0.029280656 0.0027617379)
(1.0778641 0.025207323 0.0026963533)
(1.1013397 0.020910724 0.0026367517)
(1.1247965 0.016397414 0.0025760412)
(1.1482335 0.011666319 0.002513845)
(1.1716537 0.0067247058 0.0024435182)
(1.1950553 0.0015725907 0.0023671397)
(1.2184391 -0.0037771188 0.0022780714)
(1.2417987 -0.0093262448 0.0021819535)
(1.265136 -0.015053673 0.0020711604)
(1.288437 -0.020961874 0.0019559562)
(1.3117053 -0.027030343 0.0018316221)
(1.3349213 -0.033248667 0.0016972347)
(1.3580953 -0.039597312 0.0015695905)
(1.3811944 -0.046074333 0.0014431379)
(1.4042286 -0.052656395 0.001323907)
(1.427181 -0.059325136 0.0012131644)
(1.4500564 -0.066078668 0.00111686)
(1.4728402 -0.072884403 0.0010322183)
(1.4955435 -0.079749081 0.00096708459)
(1.5181604 -0.086642753 0.00091212175)
(1.5406997 -0.093567769 0.00087684317)
(1.5631774 -0.10050461 0.00084266257)
(1.5855999 -0.10745302 0.00082368565)
(-0.00083541263 -0.00049367155 0.0045292829)
(-0.00052553047 -0.0024557897 0.0052761036)
(-5.9939051e-05 -0.0035485672 0.0064259933)
(0.0011023838 -0.0048543992 0.0069744217)
(0.0026156283 -0.0059946056 0.0073400023)
(0.004743521 -0.0070146117 0.0075895815)
(0.0072064304 -0.0080289249 0.0077784756)
(0.010317073 -0.0088941084 0.0078856003)
(0.013830049 -0.0097362147 0.0078944573)
(0.0178745 -0.01038016 0.0079446701)
(0.022383349 -0.011021128 0.0078798374)
(0.027399343 -0.01144785 0.0078678518)
(0.032860649 -0.011850395 0.007773631)
(0.038803992 -0.012045441 0.0077319237)
(0.045211016 -0.012182216 0.0076153372)
(0.052063363 -0.012136747 0.0075687058)
(0.059391979 -0.01199766 0.0074563764)
(0.067152369 -0.011688052 0.0073890844)
(0.075374725 -0.011264322 0.0072984023)
(0.084042105 -0.010682877 0.0072297021)
(0.093161626 -0.0099669079 0.0071484307)
(0.10272699 -0.0091122958 0.0070883998)
(0.11274728 -0.0081101263 0.0070177412)
(0.12321293 -0.0069794016 0.0069606397)
(0.13414003 -0.0057031257 0.0068968489)
(0.14552123 -0.0043080387 0.0068429485)
(0.15736768 -0.0027822046 0.0067839158)
(0.16967427 -0.0011395531 0.0067229064)
(0.18245254 0.00061019551 0.0066605205)
(0.19569762 0.0024611074 0.0065953002)
(0.20941426 0.0044034714 0.0065198453)
(0.22359684 0.0064285136 0.0064388278)
(0.23824866 0.0085205788 0.0063537126)
(0.25336106 0.010676183 0.006257577)
(0.26892715 0.012879763 0.0061565014)
(0.28493777 0.015120075 0.0060505463)
(0.30137392 0.017392731 0.0059408917)
(0.31822513 0.019677845 0.0058301982)
(0.33550524 0.021970387 0.0057161207)
(0.35316756 0.024247076 0.0055988718)
(0.371207 0.026520128 0.0054976723)
(0.38961005 0.028754318 0.0053899501)
(0.40835932 0.030949998 0.0053035039)
(0.42744415 0.033090345 0.0052181193)
(0.44685399 0.035159423 0.0051425873)
(0.46657727 0.037146454 0.0050763198)
(0.48660907 0.039032385 0.0050154186)
(0.50694278 0.040803294 0.0049592643)
(0.52757344 0.042440575 0.0049045595)
(0.54849643 0.043929017 0.0048488516)
(0.56970733 0.045250414 0.0047876692)
(0.59119993 0.046389905 0.0047198078)
(0.61296719 0.047330891 0.0046408239)
(0.63499948 0.048060019 0.0045501254)
(0.6572849 0.048563896 0.00444549)
(0.67980844 0.048831784 0.0043270524)
(0.70255289 0.048853986 0.0041952525)
(0.72549766 0.048623322 0.004051567)
(0.74862053 0.048133962 0.0038981499)
(0.77189744 0.047381902 0.003738409)
(0.79530295 0.046364787 0.0035749809)
(0.81881165 0.045080612 0.003412591)
(0.8423985 0.043529728 0.0032539935)
(0.86603991 0.041713336 0.003101251)
(0.88971485 0.039627251 0.0029621608)
(0.91339769 0.037279625 0.0028309751)
(0.93709124 0.034672202 0.0027224593)
(0.96074976 0.031790263 0.0026064943)
(0.98439068 0.028632214 0.002534506)
(1.0079929 0.025227446 0.0024589981)
(1.0315558 0.021549583 0.0023992069)
(1.0550755 0.017612109 0.0023473683)
(1.0785574 0.013411569 0.0022988546)
(1.1019956 0.0089481172 0.0022549629)
(1.1253932 0.0042240776 0.0022090283)
(1.1487516 -0.00075603768 0.0021616562)
(1.172071 -0.0059871422 0.0021076545)
(1.1953512 -0.01146544 0.0020475859)
(1.2185919 -0.017179941 0.0019788327)
(1.241789 -0.023124703 0.001901784)
(1.2649416 -0.029285654 0.0018159452)
(1.2880405 -0.035655672 0.0017251058)
(1.3110836 -0.042212805 0.0016246713)
(1.3340654 -0.048952071 0.0015252582)
(1.3569749 -0.055849256 0.0014249321)
(1.3797988 -0.062897596 0.0013276051)
(1.4025472 -0.070068001 0.0012299518)
(1.425202 -0.077357772 0.0011447459)
(1.4477708 -0.084739892 0.0010641642)
(1.4702374 -0.092205052 0.0009983056)
(1.4926194 -0.099736047 0.00094052068)
(1.5149067 -0.10731769 0.00089437437)
(1.5371122 -0.11493986 0.00085844133)
(1.5592512 -0.12258435 0.00082316427)
(1.5813286 -0.13024434 0.00079787341)
(-0.0013890985 -0.0011269713 0.0036920569)
(-0.001524365 -0.0039625311 0.004450942)
(-0.0010246176 -0.0057390603 0.0051620734)