/*--------------------------------*- C++ -*----------------------------------*\
  =========                 |
  \\      /  F ield         | OpenFOAM: The Open Source CFD Toolbox
   \\    /   O peration     | Website:  https://openfoam.org
    \\  /    A nd           | Version:  6
     \\/     M anipulation  |
\*---------------------------------------------------------------------------*/
FoamFile
{
    version     2.0;
    format      ascii;
    class       pointScalarField;
    location    "0.23";
    object      p;
}
// * * * * * * * * * * * * * * * * * * * * * * * * * * * * * * * * * * * * * //

dimensions      [1 -1 -2 0 0 0 0];

internalField   nonuniform List<scalar> 
625
(
86421.751
-150787.05
5675.9431
8977.3793
166582.73
-220919.84
7847.2621
-161.13592
62990.47
-16350.335
-51354.546
-16587.07
2192.1169
5905.7819
37821.375
47152.428
52511.679
58642.323
62396.828
63635.175
69805.406
72881.274
78326.748
79568.704
84989.492
87765.542
89673.144
90688.394
89795.99
87817.176
81058.025
77451.162
67161.821
56379.644
46112.257
29877.237
19134.959
-44757.543
-45303.066
-58313.697
-59904.016
-62015.713
-65964.511
-68378.618
-70055.521
-75343.248
-77039.262
-79622.297
-82487.578
-83289.591
-82694.218
-81044.221
-77365.088
-71585.069
-64912.952
-55698.012
-47535.118
-36106.421
-24759.059
-11040.43
115713.1
1591.6268
-42550.746
-45807.517
-73928.522
-60978.723
-70291.781
-73864.335
-77888.015
-75095.417
-86155.538
-90398.147
-94516.764
-98574.573
-102072.68
-104081.54
-104518.37
-102701.22
-98869.738
-92538.819
-83440.96
-72434.389
-59630.083
-44503.493
-29838.665
-11838.234
6013.0272
996.65085
-8307.2661
25530.494
32662.357
41423.059
54044.25
66514.523
75895.923
84320.863
91333.602
95383.152
98048.965
97831.628
97398.262
94084.063
90091.437
83542.84
87238.085
76997.575
73572.705
74859.425
67817.743
66282.337
52911.937
54161.779
77354.553
95493.112
91136.998
-144710.33
-144911.33
-142472.05
17666.55
17717.623
20831.049
-7985.4968
-19.345236
-4132.7737
23189.23
27341.56
33806.402
35708.903
36324.961
42306.268
44229.998
47046.985
48915.524
52758.191
55138.414
56653.118
57652.979
58002.536
57099.326
54111.775
51023.759
46320.601
38594.235
34664.652
24924.905
14447.828
9449.1995
-5046.8078
-9388.1118
-8351.8123
-8148.3682
-8388.8485
-8693.9982
-9370.6319
-9248.3889
-9701.1685
-9503.4761
-10415.113
-10307.637
-9935.2664
-9367.0233
-8904.3105
-7646.4164
-6206.3665
-5163.0582
-3868.602
-2104.2169
-2936.7266
2258.6175
2736.4143
-36864.309
-37702.75
-36685.165
-39435.166
-42243.27
-44546.248
-46699.713
-48408.912
-50089.163
-51461.838
-53709.797
-53638.795
-53968.488
-53197.269
-50875.91
-47426.345
-43284.165
-37050.593
-31884.249
-23412.049
-16958.815
-11864.156
-2112.6078
67852.98
59015.549
61055.018
-12254.064
-4703.6299
-1693.0833
-38426.861
-42774.414
-51645.858
-62650.411
-59246.582
-59486.859
-75277.476
-69635.711
-68450.098
-61747.434
-56207.118
-62130.748
-65534.022
-63682.909
-64305.557
-67902.886
-65018.901
-68919.447
-70445.888
-68642.904
-70482.328
-74642.249
-73026.515
-75736.704
-79489.47
-73874.132
-79533.597
-82094.183
-78887.48
-83319.186
-85668.612
-82406.002
-88670.039
-89156.726
-86264.303
-91626.117
-91564.607
-88175.663
-94596.615
-92410.307
-89717.123
-96411.474
-92120.791
-89468.664
-96386.493
-89896.467
-87433.975
-94379.835
-85295.885
-83443.108
-89875.321
-78849.548
-77011.22
-83429.583
-70208.499
-69725.546
-74912.888
-60662.067
-59555.363
-63679.32
-49424.043
-49243.598
-52861.01
-35947.861
-36400.721
-38791.507
-25249.214
-28295.453
-28128.9
-16367.669
-13206.778
-15690.189
-21784.497
-22842.539
-23915.29
966.68235
293.16971
2989.0623
9220.468
10923.476
9919.872
53148.604
47500.496
47934.452
57183.316
53536.136
63694.047
65682.869
55430.098
63640.117
67048.091
58968.533
66751.203
68663.258
62916.207
68893.737
76708.561
65787.613
73500.506
80425.539
69384.488
76708.502
85348.808
72575.265
78842.937
87572.166
76962.514
85780.434
94530.308
80024.05
89026.336
98182.472
83031.471
91662.783
101584.01
85745.685
95078.241
103253.99
87638.231
96285.223
103785.16
88009.96
96010.171
102215.01
86492.609
94131.811
97596.026
83567.83
89939.047
91533.632
78409.057
83852.987
83198.294
71732.507
75625.384
70513.321
62602.038
65279.529
60201.905
51520.816
55789.697
47047.039
41399.689
43200.341
32625.155
31954.893
30828.36
28551.769
29207.222
30755.714
33512.08
38309.794
32528.599
38393.305
39398.887
42728.139
46937.392
46631.911
49236.9
51551.274
53313.575
53647.281
54051.245
53853.114
51986.373
49927.021
46061.431
42190.702
36962.256
30065.902
23712.814
14663.698
2536.641
-2588.0248
5538.473
-1020.7105
7032.9603
3848.0913
5855.2149
5183.6342
4838.6752
4810.4911
5931.6149
5561.467
5942.0373
6470.168
6501.5634
6552.7975
7151.8929
6683.1037
7904.8052
6613.896
7678.2516
8269.4816
6815.9795
5267.9089
-16532.587
-15798.354
-30512.179
-28418.862
-35711.752
-38123.188
-42918.584
-43497.659
-46218.489
-49415.729
-52048.845
-53693.323
-55604.557
-56566.908
-56845.995
-55737.103
-53436.748
-49732.529
-44837.526
-37009.724
-29940.301
-18900.22
-14499.439
32383.599
40320.776
38994.218
33610.027
39659.434
36916.31
28674.191
34230.432
37435.516
29503.811
38973.436
37738.403
36684.312
39580.292
40979.684
35431.408
42957.824
41486.2
38178.864
44712.892
43544.355
39483.7
48126.482
47574.113
44879.704
50536.829
49474.902
44508.534
53471.698
49713.187
47120.905
55174.428
52862.276
47911.943
57313.359
53829.115
49689.106
57409.605
54139.029
49369.936
57033.997
53866.946
48154.251
55470.09
52410.806
46239.833
52975.737
49269.629
43625.87
48609.161
45713.056
38893.073
43630.222
40056.134
33559.367
36210.985
34950.453
28055.729
33038.878
29111.086
19884.295
21612.307
19084.82
15474.378
13688.959
16449.978
2986.168
-735.58706
-262.95521
-11706.488
-8505.7344
-3502.4938
-7016.9827
-694.51529
-999.66105
-3429.0656
-2656.9851
-319.03884
-2791.0035
964.26186
-2695.6831
-1632.8234
-557.95658
41.857698
-935.47014
773.90529
-2060.7336
-1020.1256
355.43804
-729.1334
272.09917
3056.8466
-2359.0836
1203.048
818.76867
-4243.239
1305.1211
1097.5416
-2930.2068
1409.0587
2250.7411
-4322.0816
2622.2234
2386.2935
-5107.3822
3215.6518
2589.8808
-5342.9443
3551.7795
3154.6809
-5193.9707
4447.9793
4031.2226
-5133.4984
5483.4184
4801.2427
-4896.2531
6191.839
5025.3527
-3746.7017
6208.5548
6121.189
-3657.1399
7811.502
5298.0784
-402.88713
7865.8869
7097.633
-2593.1337
6650.8261
365.385
3.6431022
7179.4437
7359.3461
2277.332
6908.4292
7183.4505
7525.3992
-35198.949
-30900.881
-34949.325
-31753.64
-21794.892
-33173.715
-30435.543
-36742.314
-36422.829
-37931.922
-32881.377
-35305.526
-37251.73
-38284.215
-39606.864
-39516.582
-41019.064
-42232.363
-40858.801
-42995.934
-43456.698
-42675.929
-46543.951
-50514.425
-43945.801
-51365.368
-49288.845
-47685.039
-51526.425
-52661.902
-47426.517
-54792.546
-55290.345
-48890.384
-57036.106
-57204.305
-49619.014
-58680.068
-58059.386
-49220.183
-59036.058
-58808.626
-47791.04
-58831.457
-58037.832
-46037.299
-57137.822
-56596.68
-42693.564
-54439.424
-53186.733
-39021.28
-49524.476
-48390.827
-33238.313
-44061.159
-43157.264
-28244.92
-37773.994
-35011.997
-22662.452
-29659.818
-27396.243
-13056.055
-16743.804
-11478.242
-6747.5074
-12911.646
-12384.421
)
;

boundaryField
{
    free
    {
        type            calculated;
    }
    fixed
    {
        type            calculated;
    }
    traction
    {
        type            calculated;
    }
}


// ************************************************************************* //
