/*--------------------------------*- C++ -*----------------------------------*\
  =========                 |
  \\      /  F ield         | OpenFOAM: The Open Source CFD Toolbox
   \\    /   O peration     | Website:  https://openfoam.org
    \\  /    A nd           | Version:  6
     \\/     M anipulation  |
\*---------------------------------------------------------------------------*/
FoamFile
{
    version     2.0;
    format      ascii;
    class       pointVectorField;
    location    "0.9";
    object      u;
}
// * * * * * * * * * * * * * * * * * * * * * * * * * * * * * * * * * * * * * //

dimensions      [0 1 0 0 0 0 0];

internalField   nonuniform List<vector> 
3969
(
(0 0 0)
(0 0 0)
(2.8519025 -0.46637106 0.030803212)
(2.6262435 -1.0982811 0.022726535)
(0 0 0)
(0 0 0)
(2.6276212 -1.1092779 0.022122178)
(2.8531866 -0.47752363 0.030236818)
(0 0 0)
(0 0 0)
(0 0 0)
(0 0 0)
(0 0 0)
(0 0 0)
(0 0 0)
(2.8231514 -0.5458674 0.029411231)
(2.7947122 -0.62460995 0.028491236)
(2.7665078 -0.70325076 0.02753884)
(2.7385119 -0.78184629 0.026741911)
(2.7106176 -0.86054199 0.025878824)
(2.6826997 -0.93941489 0.025024767)
(2.6547503 -1.0186311 0.023955665)
(0.0076292817 0.01602113 0.017662406)
(0.012243712 0.028974991 0.02174106)
(0.021735941 0.043079153 0.024464776)
(0.03593167 0.05667235 0.025216687)
(0.053781546 0.070298973 0.025703986)
(0.07617097 0.082884384 0.025535414)
(0.1018829 0.094796822 0.025562819)
(0.1317867 0.10551721 0.025183287)
(0.16485301 0.11513393 0.025096834)
(0.20155251 0.12331195 0.024638206)
(0.24133626 0.13034202 0.024525798)
(0.28429849 0.13585999 0.024155707)
(0.33012277 0.13997081 0.023870865)
(0.37877903 0.14269183 0.023605957)
(0.43013107 0.14384637 0.023263285)
(0.48384688 0.14356859 0.022994849)
(0.54001943 0.14181666 0.022723254)
(0.59837542 0.13857445 0.022464917)
(0.65886384 0.13386858 0.0222345)
(0.72128956 0.12770131 0.022012149)
(0.78558075 0.12008642 0.021843998)
(0.85158494 0.11107934 0.021685637)
(0.91919527 0.1006587 0.021578523)
(0.98830866 0.088900293 0.021493359)
(1.0587563 0.075773027 0.021449085)
(1.1305147 0.061447192 0.021452982)
(1.2033892 0.045840817 0.021497185)
(1.2773434 0.029045239 0.021572071)
(1.3522522 0.011108715 0.021691887)
(1.4279807 -0.0079140143 0.021858649)
(1.5044833 -0.027958697 0.022058348)
(1.5816452 -0.048983141 0.022303287)
(1.6593747 -0.070906486 0.022583816)
(1.737602 -0.093679051 0.022899672)
(1.816253 -0.117222 0.023257225)
(1.8952239 -0.14151102 0.023651605)
(1.9745181 -0.16636172 0.02405783)
(2.0539513 -0.19193325 0.024551075)
(2.133652 -0.21783879 0.024998782)
(2.2133445 -0.24440564 0.025582774)
(2.2932447 -0.27116754 0.026079436)
(2.3730653 -0.29839413 0.026725131)
(2.4529415 -0.32595094 0.027331555)
(2.5328171 -0.35349387 0.027968104)
(2.6125402 -0.38164875 0.028728737)
(2.6923146 -0.40952676 0.029419438)
(2.771897 -0.43766268 0.030311577)
(-9.5871232e-05 -0.016595211 -0.02171082)
(0.0056149061 -0.026735417 -0.023012697)
(0.011663577 -0.039718142 -0.02818744)
(0.022691086 -0.052429564 -0.027427222)
(0.037803786 -0.066727354 -0.028013369)
(0.055925244 -0.081185499 -0.026940654)
(0.077556608 -0.095994789 -0.026443461)
(0.1020297 -0.11126187 -0.025414818)
(0.12963796 -0.12686212 -0.02461787)
(0.16025225 -0.14311873 -0.023620734)
(0.19337312 -0.15950495 -0.022787801)
(0.22956183 -0.17679187 -0.02189073)
(0.26804695 -0.19427992 -0.020987036)
(0.30926057 -0.21247661 -0.020065024)
(0.35280352 -0.23125838 -0.019162744)
(0.39880047 -0.25056895 -0.018220711)
(0.4470999 -0.27061013 -0.017284397)
(0.49751185 -0.29106675 -0.016323083)
(0.55015466 -0.31237442 -0.015319942)
(0.60474474 -0.33409457 -0.014326066)
(0.66127018 -0.3565958 -0.013250568)
(0.71973144 -0.37957124 -0.012205086)
(0.77986703 -0.40326242 -0.011033418)
(0.84177267 -0.42750392 -0.0098871675)
(0.90520032 -0.45223033 -0.0087066775)
(0.97021179 -0.47754787 -0.007461953)
(1.0365474 -0.5032472 -0.0061772483)
(1.1043536 -0.52961279 -0.0048388961)
(1.1734304 -0.55630911 -0.0035148025)
(1.2436767 -0.58341199 -0.0021105475)
(1.3150524 -0.61091508 -0.00069941787)
(1.3874295 -0.63871719 0.00074975691)
(1.4607744 -0.66681732 0.0022117401)
(1.5349666 -0.69515271 0.0036865222)
(1.609963 -0.72368372 0.0051664865)
(1.6856536 -0.75238733 0.0066390566)
(1.7620071 -0.78119565 0.0081093357)
(1.8389029 -0.81007619 0.0095603658)
(1.9163002 -0.83904397 0.010999094)
(1.9941467 -0.86798881 0.012400269)
(2.0723469 -0.89697498 0.013799927)
(2.1508697 -0.92589682 0.015140615)
(2.2296573 -0.95477815 0.016475603)
(2.3086562 -0.98359679 0.017761234)
(2.3878093 -1.0123184 0.019026055)
(2.4671301 -1.0409576 0.020232243)
(2.5464883 -1.0695636 0.021449385)
(0 0 0)
(0 0 0)
(0 0 0)
(0 0 0)
(0 0 0)
(0 0 0)
(0 0 0)
(0.0060968454 -0.010937501 0.01667333)
(0.0079254481 -0.033123075 0.02392865)
(0.012936802 -0.036872492 0.025135329)
(0.025382865 -0.056076764 0.026295466)
(0.039967851 -0.068087874 0.026525746)
(0.058621264 -0.083102018 0.025186354)
(0.080408749 -0.098867822 0.02521306)
(0.10514885 -0.11344315 0.023725885)
(0.13289231 -0.13037274 0.023714391)
(0.16335387 -0.14561441 0.022302965)
(0.19655514 -0.16377628 0.022708492)
(0.23278258 -0.17976737 0.021352172)
(0.27146985 -0.19828861 0.021072252)
(0.31288582 -0.21651166 0.020301662)
(0.35649669 -0.23533998 0.019723429)
(0.40262874 -0.25523349 0.019162909)
(0.45095449 -0.27520509 0.018566743)
(0.50145211 -0.29624833 0.018040736)
(0.55405991 -0.31768027 0.017523176)
(0.6086564 -0.33986772 0.017025282)
(0.66517482 -0.3626314 0.016587262)
(0.72351353 -0.38604142 0.016179937)
(0.78362988 -0.41003217 0.015808236)
(0.84538278 -0.43456481 0.015488078)
(0.90876709 -0.45980164 0.015158176)
(0.9737919 -0.48547309 0.014801325)
(1.0398794 -0.51174448 0.014740084)
(1.1075105 -0.53829715 0.014583404)
(1.176369 -0.5653671 0.014543892)
(1.2464581 -0.59278764 0.014516058)
(1.3176519 -0.62054075 0.014532363)
(1.389881 -0.6486061 0.014615165)
(1.4630599 -0.67692109 0.014743426)
(1.5371282 -0.70544624 0.014922588)
(1.6119864 -0.73413078 0.015151152)
(1.6875639 -0.76300025 0.01544261)
(1.7638416 -0.79188809 0.015752035)
(1.8405912 -0.82090472 0.016164484)
(1.9179387 -0.849911 0.016570847)
(1.9957045 -0.87894905 0.017061257)
(2.0738445 -0.90794263 0.017571131)
(2.1523356 -0.9369228 0.018136597)
(2.2310706 -0.96580991 0.018736638)
(2.3100552 -0.99464831 0.01937801)
(2.3891887 -1.0233677 0.020051464)
(2.4684989 -1.052009 0.020776996)
(2.5477873 -1.0806148 0.021489954)
(2.6561803 -1.0297143 0.022940245)
(2.6840471 -0.9504762 0.023916895)
(2.7119888 -0.87165852 0.02504492)
(2.7398322 -0.79293855 0.026174679)
(2.7677913 -0.71439033 0.027411725)
(2.7959688 -0.63572056 0.028467504)
(2.8244721 -0.55706442 0.029533809)
(2.7733203 -0.44888337 0.028825996)
(2.6935073 -0.42070309 0.027684966)
(2.6138157 -0.39264741 0.026438053)
(2.5340314 -0.36467751 0.025203553)
(2.4541802 -0.33690885 0.023884177)
(2.3743123 -0.30935741 0.02253651)
(2.2944474 -0.2820888 0.02115812)
(2.2146117 -0.25513411 0.019740967)
(2.1348605 -0.22856463 0.018286425)
(2.0552312 -0.20239829 0.016810837)
(1.9757396 -0.17676571 0.015306706)
(1.896559 -0.15174736 0.013812431)
(1.8175614 -0.12721064 0.012256645)
(1.7389653 -0.1034426 0.010725313)
(1.6607902 -0.080405397 0.0091733229)
(1.5831191 -0.058205249 0.0076477412)
(1.506029 -0.036878421 0.0061319357)
(1.4296174 -0.016518033 0.0046343808)
(1.35396 0.0028392789 0.0031762163)
(1.27917 0.02109799 0.0017473697)
(1.2053304 0.038257044 0.00034940214)
(1.1325468 0.054187757 -0.00098975394)
(1.0609267 0.068922936 -0.0022986563)
(0.99054349 0.082346446 -0.0035649162)
(0.92155622 0.094466793 -0.0047957728)
(0.85403284 0.10520416 -0.0059733284)
(0.78810965 0.11457187 -0.0071394371)
(0.72389249 0.12248311 -0.0082389217)
(0.66151037 0.12896777 -0.0093386296)
(0.60107477 0.13396616 -0.010396644)
(0.5427161 0.1374891 -0.0114384)
(0.48656161 0.13955876 -0.012492118)
(0.43270936 0.14016138 -0.013484916)
(0.38151726 0.13893798 -0.014361398)
(0.33291477 0.13648521 -0.015496229)
(0.28684017 0.13269564 -0.016273118)
(0.24393521 0.12734069 -0.017395461)
(0.20384843 0.12056504 -0.018234126)
(0.16704958 0.11273413 -0.019386338)
(0.1337998 0.10299575 -0.020102316)
(0.10406738 0.092751644 -0.021029144)
(0.077492908 0.081067154 -0.021809677)
(0.055552182 0.068580605 -0.022484699)
(0.036880704 0.055236848 -0.022547671)
(0.023237708 0.042134005 -0.022038696)
(0.012930901 0.027245408 -0.020072662)
(0.012967479 0.015402935 -0.012806672)
(0 0 0)
(0 0 0)
(0 0 0)
(0 0 0)
(0 0 0)
(0 0 0)
(0 0 0)
(0 0 0)
(0 0 0)
(0 0 0)
(0 0 0)
(0 0 0)
(0 0 0)
(0 0 0)
(2.6263508 -1.0998841 0.022598456)
(2.6265114 -1.1013947 0.0225192)
(2.6266787 -1.102815 0.022463362)
(2.6268457 -1.1042338 0.022416814)
(2.6270178 -1.1055981 0.022384583)
(2.6272019 -1.1068965 0.022343385)
(2.6273743 -1.1082255 0.022210227)
(2.852375 -0.46762705 0.030748937)
(2.85259 -0.46902056 0.030705134)
(2.8528011 -0.47038139 0.030597461)
(2.852995 -0.47176777 0.030500906)
(2.85315 -0.47315736 0.030401881)
(2.8532494 -0.47458056 0.030319255)
(2.8534042 -0.47598076 0.030289087)
(0.0021938471 0.012210129 0.016053437)
(0.0070135808 0.022222347 0.016108848)
(0.015790545 0.033197753 0.018488254)
(0.029330379 0.043585516 0.019151323)
(0.046734849 0.053413772 0.019316054)
(0.068716513 0.062916444 0.019485308)
(0.093945914 0.07126841 0.019254064)
(0.12320125 0.079003416 0.019369277)
(0.15580025 0.085262479 0.018976828)
(0.19184118 0.090632425 0.019017824)
(0.23093803 0.094662854 0.018795651)
(0.27311585 0.097354362 0.018609574)
(0.31823941 0.098915364 0.018464622)
(0.36605727 0.098971312 0.018276016)
(0.41652738 0.097691736 0.018145549)
(0.46947319 0.095051539 0.017970226)
(0.5247786 0.091049927 0.017861408)
(0.58227198 0.08561685 0.017751484)
(0.64189214 0.07885365 0.017658837)
(0.70347929 0.070702059 0.017592209)
(0.76692727 0.061221052 0.017561407)
(0.83209733 0.050412372 0.017549306)
(0.8989172 0.038312798 0.017586524)
(0.96719738 0.024947061 0.017648597)
(1.0369448 0.010366086 0.017777142)
(1.1079547 -0.0054495737 0.01788655)
(1.1801447 -0.022377386 0.018082045)
(1.2534514 -0.040414601 0.018305753)
(1.3277281 -0.059529528 0.018573433)
(1.4028892 -0.079617554 0.018876967)
(1.4788653 -0.10065758 0.01922403)
(1.5555363 -0.12259691 0.019606234)
(1.6328294 -0.14534576 0.020026168)
(1.7106722 -0.16887375 0.020481815)
(1.7889684 -0.19310348 0.020969527)
(1.8676473 -0.21795612 0.021489469)
(1.9466748 -0.24339885 0.022030289)
(2.025912 -0.26936468 0.022631622)
(2.1054156 -0.2957469 0.023217561)
(2.1850101 -0.32258422 0.023887821)
(2.2647736 -0.34966098 0.024511225)
(2.3445139 -0.37717854 0.025261073)
(2.4244126 -0.40477269 0.025902716)
(2.5041632 -0.43265957 0.026708657)
(2.583988 -0.46078601 0.027440185)
(2.6636955 -0.48876532 0.028198472)
(2.7432945 -0.51728616 0.028939677)
(-0.0025690305 0.0081472618 0.011021331)
(0.0019321713 0.013963082 0.010342212)
(0.010996464 0.022942785 0.012498942)
(0.0240697 0.029452646 0.012477393)
(0.041540723 0.036537472 0.012996293)
(0.062530519 0.042684909 0.012827617)
(0.087361089 0.048067478 0.013229465)
(0.11613624 0.052505399 0.01281985)
(0.14796919 0.055826472 0.013190324)
(0.18328313 0.058270952 0.013030363)
(0.22169248 0.059280243 0.013053505)
(0.26313519 0.059375892 0.013042191)
(0.30741632 0.058083318 0.013059815)
(0.3544782 0.055531069 0.013088123)
(0.40413695 0.0517582 0.013102471)
(0.45621086 0.046759266 0.013099853)
(0.510641 0.040482195 0.01311314)
(0.56725869 0.032916575 0.013156207)
(0.62601264 0.024096603 0.01320045)
(0.68674684 0.01397903 0.013289286)
(0.74934342 0.0026201491 0.013387956)
(0.81372627 -0.0099637771 0.013516974)
(0.8796713 -0.023742332 0.013687218)
(0.94724654 -0.038669123 0.013899041)
(1.0161791 -0.054783861 0.01411586)
(1.086446 -0.071928523 0.014444966)
(1.1579378 -0.090177949 0.014778474)
(1.2305531 -0.10945676 0.015143096)
(1.3041811 -0.12965482 0.015576465)
(1.3787597 -0.15081046 0.016027592)
(1.454176 -0.17281486 0.016516524)
(1.5303332 -0.19563666 0.017056342)
(1.6071692 -0.21920148 0.017611363)
(1.6845827 -0.24346812 0.018211263)
(1.7624982 -0.26834901 0.018832857)
(1.8408481 -0.29381815 0.019490062)
(1.9195798 -0.31977372 0.020158164)
(1.998536 -0.3462193 0.020883502)
(2.0778693 -0.372982 0.021563454)
(2.1572092 -0.4001932 0.022350447)
(2.236898 -0.42758863 0.023060355)
(2.3164852 -0.45531418 0.023874913)
(2.3963186 -0.48318221 0.024627128)
(2.4759829 -0.51124548 0.025467485)
(2.5557981 -0.53947918 0.026252248)
(2.6354435 -0.56773647 0.027037308)
(2.7151694 -0.59629263 0.027807537)
(-0.0067972867 0.0045820738 0.0067158004)
(-0.0019748547 0.008268273 0.0061980006)
(0.0062216222 0.012889651 0.0068030794)
(0.019650268 0.0168743 0.0068253118)
(0.036269727 0.020383131 0.0068132496)
(0.057538171 0.02346179 0.0070049627)
(0.082151742 0.025228119 0.006591941)
(0.11027831 0.0266248 0.0070423414)
(0.14168052 0.026713288 0.0069846678)
(0.17653349 0.025976597 0.0070140069)
(0.21413193 0.024260396 0.0072237866)
(0.25480759 0.02137655 0.0073136875)
(0.29824035 0.017471519 0.0074609876)
(0.34437699 0.012368722 0.0076245449)
(0.39308189 0.0062343967 0.0078376962)
(0.44428942 -0.0011579856 0.0079185661)
(0.49780632 -0.0096929345 0.0081296911)
(0.55355734 -0.0194198 0.0082685674)
(0.61142134 -0.03034597 0.0085003811)
(0.67122064 -0.042398493 0.0087250035)
(0.73290937 -0.055602388 0.0090121129)
(0.79629614 -0.06993105 0.0093225771)
(0.86146942 -0.085352563 0.0096778266)
(0.92810436 -0.10191411 0.010030903)
(0.99622467 -0.11945406 0.010496923)
(1.0657083 -0.13805021 0.010919894)
(1.13649 -0.1576279 0.011380117)
(1.2083929 -0.17811868 0.011921884)
(1.2813913 -0.19949557 0.012469555)
(1.3553451 -0.22172688 0.01305474)
(1.4301749 -0.24470854 0.013697251)
(1.505806 -0.26844614 0.014356697)
(1.5821377 -0.29284206 0.015054221)
(1.659098 -0.31785509 0.015782018)
(1.7365992 -0.34344026 0.01653732)
(1.8145923 -0.36949906 0.017304308)
(1.8929457 -0.3960437 0.018113057)
(1.9717135 -0.42292057 0.018911489)
(2.0507011 -0.45018712 0.019741482)
(2.1299133 -0.47772256 0.020621569)
(2.2093553 -0.50542111 0.021421562)
(2.2887956 -0.53346849 0.02239066)
(2.3685 -0.56149505 0.023168487)
(2.4480637 -0.58980186 0.024164647)
(2.5278508 -0.61816354 0.024957863)
(2.6074646 -0.64652835 0.025886626)
(2.6871508 -0.67508413 0.026735766)
(-0.0077149657 0.00076406845 0.00088006538)
(-0.003166538 0.0012291606 -0.00088956102)
(0.0046091203 0.0028212552 -0.00042366217)
(0.017136617 0.0034195968 -0.00045157152)
(0.033957055 0.0033712626 -7.9521166e-05)
(0.054417984 0.0033569041 -0.0002434824)
(0.078267461 0.0017284428 0.00055458404)
(0.1057075 0.00016401996 0.00056229465)
(0.13642339 -0.0029392862 0.00095538747)
(0.17023863 -0.0063955858 0.0014328042)
(0.20705357 -0.011269793 0.0016852935)
(0.24700705 -0.016834364 0.0019485263)
(0.28955409 -0.023501818 0.0021732122)
(0.33489969 -0.031278522 0.0025161655)
(0.38273447 -0.039910378 0.0026839323)
(0.43309702 -0.049770633 0.0030251787)
(0.48567111 -0.060519955 0.0032788157)
(0.54053151 -0.072489237 0.0036259627)
(0.59739094 -0.085436465 0.0039779376)
(0.6563144 -0.099489731 0.0043473476)
(0.71710144 -0.11461019 0.004737576)
(0.77981168 -0.13074014 0.0051450635)
(0.84400227 -0.14790054 0.0055888802)
(0.9098404 -0.16599055 0.0061192496)
(0.97715042 -0.18504307 0.0066131683)
(1.0458664 -0.20500924 0.0071796629)
(1.1158275 -0.22583367 0.0078449791)
(1.1869867 -0.24752231 0.0085299004)
(1.2592561 -0.26999095 0.0092333176)
(1.3325204 -0.29322403 0.010021688)
(1.406726 -0.31714132 0.010802705)
(1.4817572 -0.34173357 0.011643705)
(1.5575408 -0.36690172 0.012495543)
(1.6340001 -0.39262769 0.013386381)
(1.7110495 -0.41882541 0.014282895)
(1.7885994 -0.44547927 0.015221005)
(1.8666329 -0.47247715 0.016147871)
(1.9449919 -0.49982864 0.017109721)
(2.023676 -0.5274623 0.018092478)
(2.1026298 -0.55527081 0.019024399)
(2.1818424 -0.58336005 0.020013402)
(2.2611454 -0.61153767 0.020975574)
(2.3407093 -0.6398245 0.021913764)
(2.4201907 -0.66826254 0.022932327)
(2.4999189 -0.69667673 0.023836183)
(2.579485 -0.72514856 0.024858341)
(2.6592174 -0.7536838 0.025773813)
(-0.0088648665 -0.0031227849 -0.0042635274)
(-0.0040518965 -0.0045110973 -0.0058175247)
(0.0026271154 -0.0066263795 -0.0059462376)
(0.015514231 -0.0094012856 -0.0062710805)
(0.031511967 -0.012551145 -0.0063670281)
(0.051760856 -0.016254673 -0.0059132411)
(0.07507761 -0.020945328 -0.005745516)
(0.10228813 -0.025896762 -0.0055550023)
(0.13218726 -0.032118709 -0.0050178829)
(0.16558819 -0.038788247 -0.0047817825)
(0.20171581 -0.046598282 -0.0045207541)
(0.24076678 -0.054799099 -0.0040809064)
(0.2824336 -0.06441568 -0.0036060076)
(0.32688038 -0.074521189 -0.003210326)
(0.37374238 -0.085866985 -0.0027190926)
(0.42305264 -0.09800453 -0.0022228838)
(0.47469777 -0.11117894 -0.0017835695)
(0.52851036 -0.12527153 -0.0012752546)
(0.58447251 -0.14032044 -0.00078367563)
(0.64238605 -0.15634328 -0.00024905917)
(0.70227532 -0.17324594 0.00030914022)
(0.76377733 -0.19111616 0.00096048038)
(0.82708579 -0.20984333 0.0016171705)
(0.89196198 -0.2295345 0.0022843467)
(0.95841894 -0.25006035 0.0030023382)
(1.0262326 -0.27139009 0.0037918038)
(1.0954125 -0.29355202 0.0045941563)
(1.1658217 -0.31645289 0.0054018476)
(1.2373698 -0.34005623 0.0062776144)
(1.3099668 -0.36432051 0.007165003)
(1.3835333 -0.38920507 0.0080950845)
(1.4579721 -0.41466986 0.0090589226)
(1.5332073 -0.44064966 0.010044864)
(1.6091623 -0.4670889 0.011048941)
(1.6857276 -0.49397236 0.012089484)
(1.7628891 -0.52118673 0.013118938)
(1.8404977 -0.54873299 0.014173267)
(1.9185539 -0.57657351 0.015248012)
(1.9969481 -0.60456864 0.016254943)
(2.0757316 -0.63280646 0.017344245)
(2.1546559 -0.66114528 0.018391142)
(2.2338333 -0.68958408 0.019467339)
(2.3131476 -0.71810189 0.020502468)
(2.3925467 -0.74667625 0.021603175)
(2.4721336 -0.77521624 0.022593224)
(2.5516744 -0.80379963 0.023707445)
(2.6313428 -0.83231211 0.024734796)
(-0.0076761867 -0.0070756455 -0.010536047)
(-0.0020472894 -0.011881451 -0.012080221)
(0.0043359002 -0.017541682 -0.013663203)
(0.016654722 -0.023646793 -0.013974675)
(0.032320198 -0.03026799 -0.013738309)
(0.051770299 -0.037384795 -0.013353429)
(0.074703743 -0.045410399 -0.012956835)
(0.10093502 -0.053635529 -0.012282391)
(0.13023457 -0.063022503 -0.011735826)
(0.16267782 -0.072580483 -0.011100383)
(0.19792781 -0.083314646 -0.010479304)
(0.2359886 -0.094536249 -0.0098730179)
(0.27676641 -0.10674564 -0.0093589225)
(0.32014217 -0.11964716 -0.0087067962)
(0.36596567 -0.13341156 -0.0081459601)
(0.41426526 -0.14797391 -0.0075032272)
(0.46480412 -0.1634132 -0.0069341476)
(0.51761889 -0.17964108 -0.0062542199)
(0.57247054 -0.19680298 -0.0056192284)
(0.62937362 -0.21470704 -0.0049091758)
(0.68810996 -0.23358232 -0.0042034421)
(0.74887399 -0.25304987 -0.0034068396)
(0.81110187 -0.27349664 -0.0026736858)
(0.87503302 -0.29486373 -0.0018031127)
(0.94050838 -0.3168048 -0.00094217331)
(1.0073883 -0.3395406 -5.93078e-05)
(1.0757189 -0.36290821 0.00087617545)
(1.1452731 -0.38694138 0.0018872844)
(1.2160251 -0.41156718 0.002900713)
(1.2878743 -0.436815 0.0039770868)
(1.3607258 -0.46258359 0.0050737638)
(1.4345056 -0.48884623 0.0062135777)
(1.5091317 -0.51554911 0.007361256)
(1.5845062 -0.54266742 0.0085467689)
(1.6605817 -0.57009662 0.0097239618)
(1.7372437 -0.5978533 0.010926346)
(1.814459 -0.62584846 0.012127588)
(1.8921215 -0.65402245 0.013316635)
(1.9702075 -0.68242902 0.014533744)
(2.048604 -0.71088503 0.015707433)
(2.12732 -0.73944811 0.016894521)
(2.2062874 -0.76805852 0.018037279)
(2.2853941 -0.79674631 0.01921578)
(2.3647222 -0.82537025 0.020328737)
(2.4441295 -0.85399636 0.021469255)
(2.5236405 -0.88258516 0.022625928)
(2.6032791 -0.91105144 0.023768416)
(-0.0048275823 -0.012907696 -0.014861881)
(0.00028997825 -0.018882391 -0.017427151)
(0.00620602 -0.02827835 -0.019934845)
(0.018448928 -0.037320722 -0.02026041)
(0.033222127 -0.04720877 -0.020256014)
(0.052578698 -0.05801569 -0.01974789)
(0.074636259 -0.069222247 -0.019259397)
(0.10027255 -0.080951799 -0.018479939)
(0.12875931 -0.093503059 -0.017898254)
(0.16028114 -0.10610323 -0.017078362)
(0.19475547 -0.12013819 -0.016340722)
(0.23176313 -0.13390156 -0.015775021)
(0.27165408 -0.14915415 -0.014860366)
(0.31386504 -0.16451557 -0.014220152)
(0.35877155 -0.18089718 -0.013404435)
(0.40590464 -0.19782093 -0.012680683)
(0.45545163 -0.21555805 -0.011875409)
(0.5071178 -0.23400131 -0.011088438)
(0.56092166 -0.25317794 -0.010266296)
(0.61672847 -0.27309767 -0.0094241641)
(0.67448488 -0.29371164 -0.0085579333)
(0.73397233 -0.31506474 -0.0076246247)
(0.79538312 -0.33711383 -0.0066984687)
(0.85829413 -0.35990806 -0.0056925697)
(0.92281735 -0.38325304 -0.0047183487)
(0.98880154 -0.40728177 -0.0036435953)
(1.056208 -0.43189002 -0.0025092711)
(1.124939 -0.45706407 -0.0013767772)
(1.1948994 -0.48278906 -0.00020038349)
(1.2659845 -0.50901877 0.0010258628)
(1.3381226 -0.53568246 0.0022716456)
(1.4112392 -0.56277474 0.0035522303)
(1.4852311 -0.59022718 0.0048523823)
(1.5600455 -0.61799614 0.0061649792)
(1.6355747 -0.64604203 0.0074903368)
(1.7117729 -0.67431784 0.0088178524)
(1.7885366 -0.70276839 0.010135825)
(1.8658379 -0.73139684 0.011469146)
(1.9435553 -0.76008781 0.012748094)
(2.0216739 -0.78888272 0.014051935)
(2.100121 -0.81768836 0.015315621)
(2.1788467 -0.84654588 0.016586574)
(2.2577783 -0.87535898 0.017815674)
(2.3369333 -0.90412938 0.019021204)
(2.4161635 -0.9328632 0.020241229)
(2.4955831 -0.96149723 0.021408756)
(2.5750568 -0.98998801 0.022628048)
(0 0 0)
(0 0 0)
(0 0 0)
(0 0 0)
(0 0 0)
(0 0 0)
(0 0 0)
(0 0 0)
(0 0 0)
(0 0 0)
(0 0 0)
(0 0 0)
(0 0 0)
(0 0 0)
(0 0 0)
(0 0 0)
(0 0 0)
(0 0 0)
(0 0 0)
(0 0 0)
(0 0 0)
(0 0 0)
(0 0 0)
(0 0 0)
(0 0 0)
(0 0 0)
(0 0 0)
(0 0 0)
(0 0 0)
(0 0 0)
(0 0 0)
(0 0 0)
(0 0 0)
(0 0 0)
(0 0 0)
(0 0 0)
(0 0 0)
(0 0 0)
(0 0 0)
(0 0 0)
(0 0 0)
(0 0 0)
(0 0 0)
(0 0 0)
(0 0 0)
(0 0 0)
(0 0 0)
(0 0 0)
(0 0 0)
(0.006525137 -0.0047623724 -0.011505539)
(0.0083048871 -0.0062889139 -0.0080411084)
(0.010179422 -0.0067014885 -0.0042623346)
(0.010920006 -0.0070674081 -0.0011632025)
(0.010641909 -0.0065831156 0.0019645741)
(0.0099745235 -0.0069352716 0.0053832588)
(0.0081440744 -0.0043327251 0.0089346159)
(0.012335748 -0.025401076 -0.01920068)
(0.016127787 -0.028679573 -0.010907044)
(0.017908987 -0.0269629 -0.0052621589)
(0.018368423 -0.026202913 -0.00050810758)
(0.018549548 -0.027803885 0.0041994319)
(0.016451951 -0.027350211 0.0096934134)
(0.014282346 -0.027043843 0.016851268)
(0.017742371 -0.036567672 -0.020615944)
(0.022696815 -0.035072671 -0.01483647)
(0.025921726 -0.036900767 -0.0069405509)
(0.026421846 -0.036876811 -0.0012359449)
(0.026242342 -0.036002815 0.0058365828)
(0.023793335 -0.036322496 0.010907828)
(0.020416906 -0.037920065 0.019996179)
(0.030040028 -0.053511045 -0.020852337)
(0.034222083 -0.054897419 -0.014775985)
(0.036939791 -0.054415014 -0.0071372912)
(0.038079288 -0.054561174 -0.0011927197)
(0.037581787 -0.054731177 0.005611669)
(0.03533565 -0.055650316 0.012990559)
(0.031022127 -0.054276554 0.019382024)
(0.043982728 -0.067993688 -0.021429608)
(0.048878099 -0.068076741 -0.015235205)
(0.052366827 -0.069049959 -0.0078007384)
(0.053232616 -0.068849878 -0.00088541761)
(0.052968481 -0.069290425 0.0061667249)
(0.050557857 -0.069102035 0.012548241)
(0.046788997 -0.069539825 0.020471971)
(0.06246675 -0.083268342 -0.020513584)
(0.066616991 -0.083684914 -0.014585897)
(0.069560562 -0.083748613 -0.0073278236)
(0.070652416 -0.08452658 -0.001322867)
(0.070143241 -0.084135627 0.0060954749)
(0.067827579 -0.08434552 0.012776126)
(0.063854293 -0.083682616 0.019226472)
(0.083462331 -0.097877895 -0.020246408)
(0.087862663 -0.098833089 -0.01402314)
(0.09096666 -0.10019723 -0.0073643411)
(0.092063941 -0.10039807 -0.00098417896)
(0.091794744 -0.1009316 0.0060361536)
(0.089698678 -0.10136587 0.012166262)
(0.086046578 -0.10060114 0.019320977)
(0.10794304 -0.11376385 -0.019350988)
(0.11211051 -0.11492527 -0.013725239)
(0.11493348 -0.11532201 -0.0069053344)
(0.11603757 -0.11590899 -0.00078954944)
(0.11551713 -0.11571185 0.0056050077)
(0.11363043 -0.11530669 0.012104723)
(0.10987268 -0.11460869 0.018089678)
(0.13538956 -0.12942738 -0.018830007)
(0.13936854 -0.13045561 -0.012797815)
(0.1421677 -0.1318943 -0.0067198668)
(0.14319889 -0.13237058 -0.00079175049)
(0.14297565 -0.13310463 0.005584205)
(0.14112629 -0.13280448 0.011648643)
(0.13778942 -0.13232186 0.018163813)
(0.16552944 -0.14556125 -0.017963193)
(0.16947534 -0.1471072 -0.012523419)
(0.17212309 -0.1478296 -0.0065103278)
(0.17339879 -0.14889621 -0.00036405425)
(0.17286421 -0.14858139 0.0055690037)
(0.1712087 -0.14819074 0.011431639)
(0.16787854 -0.1473698 0.017195965)
(0.19879507 -0.1623841 -0.017271261)
(0.20245416 -0.16375804 -0.011827079)
(0.20511469 -0.16509765 -0.0057695521)
(0.20598562 -0.16536262 -0.00049106863)
(0.20587301 -0.16591772 0.0055128541)
(0.20414345 -0.16574212 0.010959144)
(0.20100582 -0.16521043 0.017300145)
(0.2345034 -0.17924126 -0.016697575)
(0.23823395 -0.18097071 -0.011074303)
(0.24048984 -0.18210119 -0.0059439326)
(0.24177147 -0.18315673 -0.0001738754)
(0.24141882 -0.18330991 0.005501745)
(0.23968505 -0.18263019 0.01075396)
(0.23711865 -0.1821749 0.016516921)
(0.27307542 -0.19730038 -0.015756705)
(0.27632529 -0.19867797 -0.01062202)
(0.27880755 -0.20016164 -0.0053338574)
(0.27983209 -0.20060215 -1.4458841e-05)
(0.27958525 -0.20079974 0.0054322779)
(0.27804247 -0.20090781 0.010449062)
(0.27539752 -0.19983878 0.016090965)
(0.31389748 -0.21517483 -0.015204633)
(0.31718077 -0.21692904 -0.010076154)
(0.31963791 -0.21837172 -0.0051818778)
(0.32052844 -0.21906653 5.2394394e-05)
(0.32047334 -0.21974965 0.0053292011)
(0.31894371 -0.21913709 0.010096948)
(0.31667189 -0.21853088 0.015659639)
(0.35730371 -0.23428679 -0.014425496)
(0.36052422 -0.23593568 -0.0094720535)
(0.36273303 -0.23720773 -0.004806216)
(0.36376862 -0.23806235 0.00037511417)
(0.3636388 -0.2382126 0.0051780907)
(0.36232235 -0.23799962 0.010028503)
(0.36004989 -0.23720123 0.015183213)
(0.40315255 -0.25350802 -0.013691771)
(0.40612738 -0.25514063 -0.0089875377)
(0.4084134 -0.25677119 -0.0044277098)
(0.40931568 -0.25748834 0.0003247753)
(0.40929656 -0.25802518 0.0052324212)
(0.40800659 -0.25775962 0.0096654298)
(0.40594192 -0.2570052 0.014779432)
(0.45112687 -0.27351951 -0.012959884)
(0.45410964 -0.27536604 -0.008348333)
(0.45622594 -0.27677699 -0.0041402241)
(0.45716085 -0.27755672 0.00068250565)
(0.4571632 -0.27803965 0.0051388456)
(0.45600893 -0.27771331 0.0095391423)
(0.45405755 -0.27707062 0.014399105)
(0.5014764 -0.29414034 -0.012132696)
(0.50423831 -0.2958988 -0.0078833969)
(0.50635606 -0.29745612 -0.0036514153)
(0.50721346 -0.29834564 0.00077480764)
(0.5072628 -0.29882902 0.0051348386)
(0.50616367 -0.29864693 0.0093570163)
(0.50434675 -0.2979492 0.014003764)
(0.55381742 -0.31534393 -0.011395114)
(0.55650492 -0.31715889 -0.0071999526)
(0.55852688 -0.31874067 -0.0032646541)
(0.55934231 -0.31954891 0.0010414857)
(0.55945443 -0.32013328 0.0051898009)
(0.55842516 -0.31990711 0.0092303826)
(0.55675212 -0.31939337 0.013654642)
(0.60823875 -0.33715149 -0.010508995)
(0.61080752 -0.33901776 -0.0065952619)
(0.61272775 -0.34059389 -0.0028068459)
(0.61352644 -0.34156823 0.0012943715)
(0.61365889 -0.34211867 0.0052220079)
(0.61269254 -0.34205332 0.0091126946)
(0.61116123 -0.34147747 0.01332401)
(0.66460236 -0.35961736 -0.0096793479)
(0.66701867 -0.36146091 -0.0059274151)
(0.66886806 -0.36312472 -0.0023089828)
(0.66964598 -0.36402488 0.0015781133)
(0.66979563 -0.36468897 0.0053346968)
(0.66892266 -0.3645844 0.0090434728)
(0.66749748 -0.36414439 0.013046246)
(0.72280208 -0.38262684 -0.0087679883)
(0.72510764 -0.38454852 -0.0052092651)
(0.7268806 -0.38617095 -0.0017805649)
(0.72760568 -0.38719986 0.0019044512)
(0.72779381 -0.38783201 0.0054761219)
(0.72695757 -0.387862 0.0090006056)
(0.72566131 -0.38746224 0.012808143)
(0.78277719 -0.4062986 -0.0078103553)
(0.78496979 -0.40817185 -0.0044483208)
(0.7866309 -0.40986054 -0.0012261178)
(0.78735658 -0.41086837 0.0022693347)
(0.78752152 -0.4116244 0.0056534759)
(0.78678477 -0.41169271 0.0089843002)
(0.78560118 -0.41136407 0.012604372)
(0.84447075 -0.43044327 -0.0068034295)
(0.84651471 -0.43243702 -0.0036704074)
(0.84810774 -0.43405877 -0.00063271725)
(0.8487662 -0.43520422 0.0026912801)
(0.84898989 -0.43590911 0.0058548523)
(0.84831217 -0.43602773 0.0090348986)
(0.84720646 -0.43577879 0.012457084)
(0.90769676 -0.45521032 -0.0058390276)
(0.90971418 -0.45719457 -0.0028192989)
(0.911137 -0.45877883 -3.8086274e-06)
(0.9118445 -0.45999957 0.0031699124)
(0.91200065 -0.46071179 0.0060949225)
(0.91136327 -0.46104003 0.0091301836)
(0.91036316 -0.46090108 0.012277864)
(0.97246887 -0.48046827 -0.0047566659)
(0.97441102 -0.48243569 -0.0019743288)
(0.97567325 -0.48409514 0.00067887982)
(0.97639514 -0.48532774 0.0037314795)
(0.97648146 -0.48605244 0.0063374027)
(0.97604817 -0.48646112 0.0092012858)
(0.97515083 -0.4863645 0.012073385)
(1.0386969 -0.50623823 -0.003660456)
(1.040502 -0.5082054 -0.0011625673)
(1.0417095 -0.50991074 0.0015256369)
(1.0424296 -0.51115352 0.0040642327)
(1.0426086 -0.5119891 0.0067986057)
(1.0421241 -0.51245666 0.0094506741)
(1.0412274 -0.51242321 0.012192663)
(1.1063668 -0.53248813 -0.0025275635)
(1.107945 -0.53442941 -0.00015521195)
(1.1091671 -0.5361825 0.0023150831)
(1.1097556 -0.53738373 0.0046470668)
(1.1099508 -0.53830933 0.0072845076)
(1.1095367 -0.53874326 0.0096110904)
(1.1087062 -0.53894769 0.012258628)
(1.1752428 -0.55911215 -0.0013757934)
(1.1767534 -0.56112723 0.00089935199)
(1.1777993 -0.56282098 0.0030577764)
(1.1784293 -0.56409156 0.0053779008)
(1.1785468 -0.56505555 0.0076900446)
(1.1782091 -0.56562139 0.0099139244)
(1.1774429 -0.56586539 0.012373568)
(1.245356 -0.58621108 -0.0001069265)
(1.2466861 -0.58814919 0.0019091734)
(1.2477124 -0.58989299 0.0039917038)
(1.2482567 -0.5911737 0.0060422076)
(1.2483884 -0.59221946 0.0082207934)
(1.2481122 -0.5928055 0.010248046)
(1.2474036 -0.59317807 0.012530004)
(1.3165373 -0.61361333 0.001111539)
(1.317786 -0.61558582 0.0030187891)
(1.3187093 -0.61729904 0.0048605926)
(1.3192206 -0.61861762 0.0067976833)
(1.3193602 -0.61967702 0.0087603329)
(1.3191066 -0.62034974 0.010635022)
(1.3184766 -0.62080556 0.012713214)