/*--------------------------------*- C++ -*----------------------------------*\
  =========                 |
  \\      /  F ield         | OpenFOAM: The Open Source CFD Toolbox
   \\    /   O peration     | Website:  https://openfoam.org
    \\  /    A nd           | Version:  6
     \\/     M anipulation  |
\*---------------------------------------------------------------------------*/
FoamFile
{
    version     2.0;
    format      ascii;
    class       pointScalarField;
    location    "0.77";
    object      p;
}
// * * * * * * * * * * * * * * * * * * * * * * * * * * * * * * * * * * * * * //

dimensions      [1 -1 -2 0 0 0 0];

internalField   nonuniform List<scalar> 
28033
(
1971900.7
-2904207.9
9866.2276
6460.133
3622042.3
-4175741
7136.8903
4709.0768
1648760.7
1476268.9
1275955.8
1034791.8
777773.22
528070.95
274986.39
-15675.228
-300181.7
-568548.4
-882209.51
-1053394.9
-1434932.7
-1696132.8
-1708744.8
-7371.0068
-2947.6125
-3895.1794
-1071.0796
-622.80603
1493.1452
3351.3475
5586.128
7599.4502
9715.5866
12015.999
13176.943
14618.437
15280.086
13842.654
545152.56
580736.15
539777.32
574377.1
565085.46
580763.39
584494.73
587641.83
588095.02
590518.94
586771.28
582623.84
580958.23
575974.05
570049.27
562358.84
558228.78
550168.79
542637.58
534491.02
527352.38
518120.79
510964.83
501967.15
492827.12
484646.58
476056.16
466773.47
458118.61
449251.1
440670.78
431205.27
423100.8
414996.9
404829.93
397398.25
388505.88
381718.57
371945.31
364631.46
355691.14
347570.81
339186.73
331539.41
323124.4
315465.31
307254.51
299556.3
291344.07
283665.7
275448.27
267638.37
259513.95
251531.79
243443.42
235389.69
227306.83
219246.52
211179.55
203202.89
195242.6
187350.95
179493.78
171978.71
164299.05
157173.34
150690.07
143239.59
135610.05
128846.1
121860.85
115512.08
108983.32
102961.24
96589.766
91068.136
84907.522
79863.988
73888.514
69288.768
63767.229
59301.661
54210.053
49611.49
45080.447
40810.581
36939.762
33179.971
28772.514
25717.361
22767.198
18036.18
18047.052
16148.852
13808.033
-473596.76
-406154.87
-499884.28
-451993.38
-524804.49
-516129.96
-534042.61
-527245.67
-542151.99
-531609.06
-539088.53
-530724.24
-530468.77
-526685.43
-521503.9
-516728.06
-510197.74
-503422.12
-498076.85
-490398.08
-482472.68
-477808.29
-466863.31
-462790.84
-453395.56
-445802.56
-439457.72
-429755.15
-424105.07
-413512.09
-407068.57
-398169.01
-390382.01
-382998.86
-375170.86
-368437.28
-358677.03
-352568.67
-343351.97
-336810.65
-328524.65
-321317.7
-313427.42
-306123.55
-298343.24
-290972.97
-283308.21
-275804.37
-268217.88
-260603.98
-252981.28
-245296.12
-237582.42
-229845.3
-222040.52
-214249.58
-206417.31
-198594.97
-190786.22
-183017.06
-175286.26
-167647.17
-160092.92
-152611.32
-145298.42
-138038.91
-131099.29
-124232.88
-117974.73
-110727.62
-104641.67
-98165.578
-92313.84
-86246.661
-80603.369
-74984.733
-69515.797
-64282.34
-59095.869
-54156.451
-49332.268
-44671.767
-40086.786
-35827.413
-31515.965
-27511.422
-23591.569
-19957.97
-16217.183
-13077.426
-9993.6021
-6894.7551
-4531.6347
-3234.2233
-912.65541
3021074.6
2838208.2
2077597.5
2090006.2
1455865.1
856618.83
530652.59
-75578.265
-534711.97
-1134210.9
-1551688.6
-2126408.4
-2679256.5
-3128256.7
-3310497.2
-865211.64
-629563.4
-269582.95
-630860
-508696.25
-557346.82
-537514.97
-577206.58
-541157.58
-569656.45
-575567.23
-547565.54
-571334.45
-540430.45
-563284.39
-544616.5
-536279.28
-527063.61
-517798.5
-515648.27
-503001.54
-490146.89
-491252.83
-482234.06
-474535.22
-469031.21
-449555.84
-452845.04
-431308.63
-431996.87
-423490.09
-414906.32
-406252.34
-398667.24
-391596.5
-373966.39
-372745.48
-364694.82
-356144.35
-348146.2
-340031.25
-332092.86
-324119.1
-316225.03
-308406.27
-300642.87
-292777.67
-284976.35
-277100.4
-269297.04
-261427.23
-253580.64
-245696.43
-237811.63
-229898.19
-221941.94
-214040.73
-206081.14
-198166.32
-190298.57
-182432.97
-174676.77
-166954.96
-159345.31
-151789.35
-144350.68
-137431.03
-130254.64
-121889.15
-115908.41
-109548
-102883.61
-96483.804
-90322.974
-84273.659
-78426.246
-72753.779
-67354.728
-62049.541
-56953.644
-51956.56
-47214.238
-42471.675
-38065.131
-33643.573
-29503.517
-25313.625
-21534.962
-17637.87
-14151.603
-10797.681
-7701.5639
-5618.3144
-3375.8238
-2396.9663
16224.078
16810.202
14205.682
14962.526
11106.529
11324.344
7568.4098
5817.8628
3149.5527
598.99408
822.19774
-3269.7007
-1807.1624
-6421.7197
-3900.4663
21456.432
17504.708
17782.957
20491.325
22639.724
26094.792
29453.08
33271.246
36983.173
41332.259
45500.157
49694.317
54491.986
59298.986
64350.066
69414.864
74844.402
80196.3
85900.805
91671.986
97614.052
103783.68
110082.91
116454.94
123054.06
129707.02
134893.39
145782.99
151191.2
159078.25
166684.97
174676.92
182596.82
190753.1
198959.75
207263.54
215658.25
224041.96
232519.27
240955.77
249418.36
257828.18
266274.2
274600.05
282973.37
291262.86
299537.99
307777.05
316045.45
324202.81
332453.19
340664.79
348866.46
357417.29
365133.61
373875.47
381031.7
385956.82
402088.85
406194.32
411795.78
429341.05
431586.19
441915.74
444698.01
463761.19
459694.45
481102.41
484007.08
495489.15
502108.56
506008.44
524904.11
526550.08
531482.53
547509.51
546483.04
562071.25
560580.86
575744.79
586786.87
579730.39
586636.48
596761.57
599721.23
594587.97
604756.72
596931.5
592635.71
581064.17
575200.35
586075.76
574390.95
528854.83
646320.57
1429215.4
1537428
1624227
1684654.8
1718776.6
1765489.3
1765083.5
1786487.4
1766195.4
1729944.2
1754156.5
1647105.8
1596224.1
1668493.1
1359501
-2279648.8
-2890918.7
-2886936.7
-3123836.3
-3072142.9
-2934624.2
-3377456.9
-3617566.9
-3381199.9
-3390766.9
-3249581.7
-3120436.8
-2926380.5
-2896437.3
-2745800.5
5847.4942
5918.4852
6524.7194
6929.612
7835.1188
8382.9792
8524.0223
8612.0109
8523.3169
8234.0194
7857.7381
7122.2407
6622.1053
6332.6659
6411.5026
3933.629
6316.7767
5796.8197
5267.1715
4497.3183
4379.4052
3914.2583
4000.7246
4183.9883
4386.9476
5235.4719
5777.0396
6053.7764
8869.7483
4312.6728
526712.06
538411.18
487780.15
493616.59
504190.63
512348.75
517174.53
522072.69
524497.74
524486.74
521748.48
523992.16
517756.37
514568.51
507848.01
506614.74
497889.24
493249.58
484957.96
479915.91
472275.45
466343.15
457901.3
450427.74
442246.15
436144.75
427046.56
419384.55
411557.53
404096.56
394698.95
387494.37
380881.58
372241.38
364890.34
356649.36
349429.32
340818.17
333642.94
326882.24
319675.07
312132.9
305112.76
297676.28
290449.06
283429.52
276087.71
269157.01
261865.72
254861.87
247624.17
240557.2
233336.65
226198.3
219001
211828.05
204644.05
197467.79
190332.8
183219.65
176144
169074.86
162197.71
155377.6
148360.72
141751.96
134215.25
128005.71
121844.9
115728.56
109755.38
103927.85
98084.941
92662.317
87087.015
81966.559
76760.056
71993.59
66992.993
62771.462
58055.319
53898.32
49851.449
46065.932
42085.386
38369.014
34770.234
31022.251
27780.779
25005.644
21095.804
18740.613
16387.844
11064.626
6432.4044
486935.98
448522.62
402831.55
417820.74
420500.22
426116.04
430489.56
435864.19
437887.31
440142.5
439270.66
438949.85
435482.52
434578.29
429736.48
425913.15
420424.55
417142.23
410627.57
405903.69
399505.23
392811.41
387144.88
381064.68
374952.53
367714.77
361743.87
355395.93
348470.34
341842.5
335680.53
329295.12
322057.67
315590.09
309133.68
302749.94
296283.08
290093.44
283963.79
277621.77
271193
265622.66
258640.39
252864.14
246568.77
240718.04
234522.38
228702.72
222509.92
216685.55
210537.94
204637.48
198551.05
192577.45
186540.05
180537.19
174511.09
168538.98
162546.96
156615.26
150692.89
144819.72
139133.2
133374.62
127821.68
123213.95
118699.85
113188.19
108745.89
103338.47
98252.296
93409.044
88171.543
83457.195
78255.516
74179.924
68962.283
65342.299
60370.45
57069.565
52476.033
48984.224
45423.895
40973.363
37335.589
33888.752
30293.226
27541.63
24512.608
21300.726
18485.8
15876.947
12130.954
8431.3901
2336.1411
373848.41
379678.7
331472.39
349162.02
343995.46
352601.34
357719.07
362728.72
362770.13
365544.5
364192.77
365086.31
361946.48
360589.74
356244.43
354765.07
349340.52
346424.34
340754.54
337383.48
331619.58
327958.4
322303.12
317763.12
311354.43
307087.51
301207.39
295676.55
290175.44
284971.03
279099.87
273513.6
268279.13
262975.89
257754.99
252199.26
247464.86
242544.49
237361.76
232120.67
226750.87
221531.6
216863.31
211886.24
206979.59
201966.39
196946.82
191988.03
186976.17
182034.88
176990.21
172065.05
167010.86
162059.99
157034.4
152046.04
147047.71
142078.04
137081
132148.07
127202.62
122284.9
117482.57
112439.08
107927.7
103753.08
100010.7
95213.7
91254.339
87383.076
83294.946
78955.735
74592.593
70548.32
66624.284
62694.887
59143.317
55338.785
52074.996
48554.541
45282.501
42387.39
38860.656
35985.655
33042.278
30087.482
26928.888
24689.302
21818.378
19358.884
16983.389
13545.099
11249.864
5981.5863
3284.3653
303953.77
303830.67
256248.55
273844.55
264735.72
275907.93
277738.8
281167.7
282530.35
286108.83
284763.25
286296.96
283038.03
283958.78
279912.93
279173.29
274486.02
273692.3
268590.27
266454.89
261708.76
258591.25
254032.21
250267.45
246250.53
242262.24
237848.37
234097.35
229653.99
225416.8
221216.6
217026.18
212766.27
208355.31
204606.29
199661.33
195984.5
190166.82
185805.49
181708.32
178273.46
174282.95
170179.85
166054.26
162177.74
158263.78
154374.3
150565.96
146674.83
142859.69
138979.92
135174.7
131296.45
127495.19
123624.09
119831
115985.08
112196.41
108380.12
104616.79
100861.61
97120.245
93400.776
89755.08
86247.863
82471.585
79572.053
75930.774
71703.359
68590.619
65385.366
61822.56
58992.063
55806.09
52703.677
49694.499
46806.173
44091.073
41334.107
38767.643
36281.756
33910.573
31392.725
28887.088
26617.683
25070.832
22813.958
20753.49
18587.398
16575.827
14067.019
11920.437
9018.0443
5950.0052
2032.8266
241071.74
222676.33
186757.19
203568.21
200414.9
206125.52
208177.35
211678.42
211428.55
213526.4
212815.51
212920.13
211619.96
211401.94
208240.29
208109.75
204169.1
203647.42
199345.94
198656.81
194592.29
193231.23
189081.02
187547.45
183528.82
181111.73
177544.07
174650.99
171131.85
168373.21
164912.47
161923.88
158598.85
155794.25
152610.42
149567.49
148749.94
148376.78
145726.25
145819.09
141893.15
139041.23
136296.4
133373.7
130445.05
127411.49
124384.67
121348.82
118330.57
115304.79
112266.42
109279.11
106234.48
103236.4
100213.66
97223.071
94200.086
91222.197
88217.849
85238.346
82298.032
79235.264
76387.036
73502.023
70227.313
67877.872
64728.006
61949.47
58952.673
56206.932
53559.409
50281.871
46400.18
43754.319
41002.378
38633.201
36566.773
34443.39
32457.802
30634.814
28619.83
27083.126
25066.048
23747.105
21781.782
20588.366
18571.936
17290.687
15387.726
13723.682
12010.207
10094.065
8372.6896
5341.9454
2745.5463
149201.37
150224.54
117746.15
135783.34
127091.03
131083.35
134270.75
136059.21
134651.08
138841.06
135964
138332.27
135611.33
136984.5
133902.8
135049.49
131610.49
132646.3
128787.79
129203.08
125596.11
125145.06
122305.19
121446.88
118665.46
117568.06
115169.46
113707.61
111526.56
109673.36
107578.93
105620.18
103665.22
101654.09
99502.983
97997.7
97141.156
96836.571
96338.038
95810.471
95589.434
93530.611
91464.814
89584.417
87623.535
85640.982
83651.558
81733.974
79760.108
77830.286
75881.005
73965.015
72006.03
70100.352
68169.338
66248.328
64337.229
62434.11
60520.118
58628.835
56703.519
54867.954
52936.559
50975.591
49354.972
47128.471
45592.093
43694.486
41839.925
40124.957
38068.334
35970.303
34152.739
31702.586
29480.331
28057.823
26565.781
25196.739
23875.735
22780.954
21252.921
20527.225
18889.666
18282.343
16623.528
16155.487
14419.815
13894.396
12298.894
11640.358
10309.217
8984.0856
7540.9111
5365.0369
4056.1329
79725.129
69427.68
60428.02
68743.662
61672.835
65097.555
66706.771
65758.914
65947.769
65936.241
65925.797
65146.768
64894.091
65190.565
63374.727
64475.388
61987.573
63257.615
60615.707
62294.699
59537.954
61000.056
58632.732
59301.537
57279.765
57560.021
55728.4
55581.533
53968.663
53653.132
52340.377
51774.587
50627.04
49868.456
48973.934
48243.445
47182.299
47070.196
45413.388
43745.718
43352.69
42645.155
41654.893
41124.924
40398.05
39687.742
38907.22
38242.673
37442.453
36742.691
35978.717
35252.028
34487.507
33768.955
33002.018
32265.648
31508.813
30771.085
29987.924
29237.779
28471.376
27672.902
26864.737
26150.159
25188.217
24520.4
23601.555
22740.004
21917.083
21062.564
20254.55
19392.275
18262.822
18094.651
17471.546
16863.956
16040.973
15414.647
14835.522
14170.759
13615.335
13173.916
12367.619
12232.815
11240.295
11249.118
10217.953
10260.243
9260.6327
8972.3566
7919.6215
7226.2126
6747.6972
5697.7655
5291.7597
-12005.111
-5157.9585
-12597.55
-4766.461
-7213.4684
-5706.0222
-6721.4933
-5671.4139
-9799.9625
-6432.8835
-9957.7598
-8438.7335
-9926.5215
-8722.6121
-10464.442
-8197.9387
-10321.693
-7584.6779
-9604.2452
-7228.8123
-8656.291
-6290.1275
-8093.9125
-6196.6941
-7033.7131
-5730.4837
-6123.1002
-5252.5478
-5318.1424
-4789.5265
-4787.0564
-4433.6499
-4322.9402
-3951.2264
-3780.8096
-3677.0334
-3013.7183
-2829.2744
-2565.039
-2727.1311
-2313.8194
-1831.2111
-1787.5768
-1464.327
-1149.8177
-941.20815
-621.2953
-293.84291
-3.3715684
318.28595
630.12781
961.16233
1270.482
1599.1804
1925.2339
2243.1726
2566.182
2897.042
3176.7256
3523.5095
3767.6632
4068.6068
4335.8144
4537.3572
4822.5332
4954.5637
5159.3772
5333.4161
5425.6861
5584.5268
5554.5307
5554.5864
5516.6323
5732.2531
5868.8799
5975.466
5922.0957
6070.7582
6055.0899
6190.6509
6293.4395
6246.3626
6501.6667
6404.74
6486.4321
6634.4915
6314.2559
6780.8815
6088.1585
6723.4954
6342.1507
6835.8173
6766.3913
6294.8206
6726.1968
-77516.878
-81370.163
-67628.176
-64947.389
-66272.387
-70675.042
-69047.445
-74297.197
-73960.739
-76724.41
-76531.353
-77980.732
-77604.771
-77271.338
-77544.691
-75842.499
-76666.554
-73750.254
-75386.67
-71717.341
-72998.989
-70365.983
-70859.456
-67565.791
-67986.949
-65119.462
-65253.188
-62647.53
-62362.946
-60290.336
-59576.703
-57818.687
-56837.166
-55275.393
-54261.848
-52615.938
-51647.802
-50115.746
-48847.929
-47370.215
-46119.048
-44687.99
-43510.541
-42024.939
-40718.951
-39388.043
-38091.171
-36711.984
-35442.888
-34108.322
-32790.123
-31461.337
-30170.048
-28832.712
-27524.551
-26227.442
-24913.536
-23621.343
-22352.005
-21076.722
-19842.381
-18617.12
-17460.999
-16260.842
-15235.392
-14108.612
-13081.725
-12087.226
-11120.047
-10180.754
-9299.3089
-8323.6785
-7572.8185
-6645.5469
-6111.3698
-5576.8175
-4671.3784
-3999.2115
-3140.3707
-2468.274
-1681.5024
-1063.8463
-286.40081
284.03359
882.80649
1706.8062
1880.85
3136.3561
2921.8091
4314.9658
4097.4443
4824.8486
5047.5072
6167.9818
7801.8528
-163962.59
-164333.23
-134161.64
-137855.18
-140851.59
-142672.39
-146604.13
-147725.28
-153417
-152914.73
-155155.45
-155553.79
-155854.56
-154498.11
-155011.21
-151902.87
-151955.48
-148599.69
-147833.11
-144257.61
-143764.51
-137261.96
-135630.31
-131745.01
-130659.9
-127241.94
-125456.56
-122362.85
-120342.05
-117516.88
-115435.48
-112715.28
-110633.44
-108061.71
-105695.73
-103397.2
-100931.59
-98644.486
-96219.256
-93985.954
-91658.679
-89304.63
-86946.218
-84680.682
-82278.238
-79982.854
-77607.223
-75227.429
-72896.35
-70518.968
-68137.414
-65779.548
-63409.114
-61020.121
-58654.888
-56288.922
-53914.249
-51557.243
-49238.525
-46880.022
-44610.02
-42338.725
-40096.511
-37927.855
-35796.415
-33682.401
-31664.099
-29726.043
-27818.313
-25992.121
-24187.28
-22491.726
-20831.055
-18640.694
-15919.963
-14449.539
-13131.435
-11753.161
-10239.194
-9295.9009
-7506.4566
-6940.5255
-5090.9682
-4569.163
-3044.9299
-2161.4867
-1273.4114
264.38385
444.82194
2511.4471
2609.3205
4062.6853
5261.7425
6844.7633
8637.3613
-250761.38
-199850.71
-179654.01
-183937.92
-189856.6
-192428.37
-198060.23
-201923.7
-207165.38
-208129.82
-209932.15
-211520.51
-210735.83
-209566.63
-209528.61
-205471.66
-206202.03
-200850.65
-200746.1
-196992.3
-196936.29
-196180.93
-195088.92
-192503.04
-191380.81
-186201.06
-184628.6
-179487.3
-177153.15
-172782.85
-169954.26
-166057.17
-163091.19
-159266.93
-156069.14
-152436.87
-149252.31
-145684.68
-142421.02
-138957.93
-135687.15
-132176.33
-128938.76
-125482.39
-122151.78
-118754.31
-115435.7
-112035.1
-108708.37
-105322.83
-101965.58
-98596.936
-95231.139
-91857.225
-88493.406
-85140.238
-81778.296
-78455.39
-75131.884
-71840.873
-68589.663
-65349.876
-62211.427
-59066.063
-56094.256
-53091.959
-50219.412
-47346.472
-44591.646
-41850.968
-39243.693
-36789.486
-34169.013
-31681.592
-29465.53
-26422.518
-23607.98
-21469.028
-19296.813
-17286.988
-15491.755
-13487.768
-11835.698
-10031.398
-8354.8563
-6881.5991
-5123.9938
-3886.6375
-2176.2888
-721.87768
646.24036
2671.0942
4396.7373
6640.7241
10613.471
-297360.86
-283322.07
-255099.41
-250381.01
-257090.35
-260315.26
-269087.79
-273951.75
-277033.09
-281600.17
-283180.89
-282713.68
-283601.32
-281371.07
-280027.79
-277467.13
-274622.88
-270655.67
-268660.65
-263143.97
-262295.8
-256644.48
-258587.08
-255500.1
-252223.89
-247889.96
-243951.39
-238736.11
-234715.37
-229436.78
-225513.18
-220254.5
-216292.47
-211459.12
-207120.33
-202707.45
-198170.63
-193759.52
-189299.82
-184958.14
-180433.66
-176164.59
-171721.18
-167402.83
-163014.46
-158650.81
-154305.82
-149900.74
-145531.75
-141152.95
-136746.41
-132348.79
-127945.89
-123524.02
-119110.55
-114699.81
-110289.35
-105887.85
-101525.35
-97173.053
-92848.269
-88605.365
-84374.485
-80210.066
-76183.875
-72166.872
-68253.214
-64510.415
-60817.63
-57188.39
-53798.776
-50291.791
-47004.853
-43901.329
-40852.507
-38341.787
-35133.115
-32186.632
-29357.064
-26697.607
-23985.806
-21484.402
-18951.618
-16610.625
-14185.814
-12163.209
-9660.4332
-7998.1616
-5648.2467
-3705.4691
-2045.3897
1013.5571
3241.2404
7484.9496
11911.022
-412146
-372886.69
-309270.31
-332158.18
-328236.66
-344997.81
-347592.2
-356491.85
-359850.05
-364183.34
-364673.89
-366201.79
-364101.08
-363423.67
-359756.25
-356355.66
-353241.22
-347372.37
-344443.23
-338227.95
-334525.47
-328731.62
-323459.26
-315803.33
-311868.18
-305145.54
-301363.56
-294164.94
-289768.06
-283256.37
-278282.14
-271993.85
-267182.14
-261278.85
-256075.42
-250428.13
-244984.78
-239498.06
-234239.38
-228679.36
-223484.14
-218017.61
-212712.84
-207326
-201999.92
-196638.57
-191330.04
-185950.33
-180634.55
-175281.5
-169910.86
-164559.49
-159184.78
-153808.66
-148428.85
-143066.04
-137686.6
-132348.82
-127027.52
-121726.2
-116493.73
-111294.48
-106164.9
-101076.39
-96168.369
-91248.594
-86528.7
-81882.557
-77339.368
-72851.012
-68516.046
-64307.862
-60247.8
-56204.107
-52276.358
-48562.441
-44852.752
-41321.001
-37807.485
-34427.283
-31182.148
-27999.821
-24948.981
-21989.482
-19179.232
-16391.241
-13773.446
-11344.058
-8544.7184
-6607.2154
-3578.885
-1179.745
1649.537
5580.8209
10326.888
-444128.44
-426617.91
-353475.92
-393439.6
-396923.77
-413516.54
-417043.82
-429858.43
-432881.68
-435013.16
-439063.59
-436742.46
-436385.09
-433985.54
-429164.22
-426074.69
-420986.21
-414615.35
-410786.46
-403203.56
-398002.9
-391777
-385524.52
-380180.87
-373091.63
-366626.9
-360265.02
-352800.09
-347521.77
-339732.45
-333922.22
-326531.27
-320178.1
-313279.39
-306884.46
-300678.42
-294021.41
-287908.87
-281193.68
-275022.8
-268559.75
-262228.48
-255927.16
-249594.42
-243313.23
-236988.22
-230678.45
-224349.85
-218012.8
-211656.34
-205275.78
-198885.19
-192470.46
-186035.2
-179588.99
-173137.22
-166680.76
-160239.28
-153814.06
-147436.76
-141093.72
-134832.6
-128632
-122507.6
-116492.69
-110493.73
-104658.43
-99146.617
-93743.734
-88255.868
-83223.811
-78110.832
-73113.074
-68389.727
-63641.213
-59103.787
-54672.192
-50388.329
-46226.621
-42243.908
-38330.493
-34582.669
-30919.42
-27458.304
-23972.037
-20804.221
-17584.259
-14581.824
-11570.974
-9069.9002
-5569.5501
-3700.1689
18.665235
3898.5822
9806.0987
-629605.44
-400700.2
-440573.71
-448864.31
-471400.35
-468519.42
-487177.95
-494217.24
-495172.51
-500200.99
-500161.79
-501270.77
-496871.42
-494027.6
-489191.66
-484298.32
-480716.5
-472009.83
-467955.32
-459029.48
-453093.57
-444988.03
-440205.62
-431241.33
-426324.2
-416572.28
-410890.62
-401383.53
-396780.94
-387711.69
-381461.75
-372956.12
-365907.58
-357471.16
-349708.69
-343497.3
-336374.39
-328937.08
-321680.25
-314550.34
-307199.11
-300080
-292835.62
-285647.37
-278470.66
-271270.94
-264101.39
-256918.85
-249697.04
-242501.04
-235234.67
-227984.86
-220685.97
-213368.42
-206040.58
-198698.79
-191345.89
-184014.26
-176704.3
-169422.36
-162206.25
-155067.92
-148004.98
-141053.67
-134210.43
-127341.86
-120585.43
-113981.14
-108012.69
-101977.15
-96189.255
-90195.573
-84660.399
-79141.976
-73779.138
-68599.636
-63660.043
-58687.525
-54012.253
-49351.739
-44897.977
-40534.062
-36401.447
-32257.41
-28410.966
-24652.386
-20959.29
-17600.481
-14294.329
-11274.425
-8161.3487
-6318.6277
-2889.7259
-55.543067
5783.4314
1160274.9
1116545.7
1092973.7
1120003.9
1124880.7
1132608.4
1169409.5
1145887.9
1135867
1132804.6
1125924.9
1090918.5
1081837.5
1136074
987754.47
1031864.6
1049328.7
1003340.4
1026469
1038477.7
1054596.7
1026857.2
1063264
1052401
1060825.4
1039141.3
1034135.4
1034313.7
1043798.5
905281.63
789068.81
884796.56
794223.5
830075.58
826822.27
820759.62
830017.12
822845.2
830111.62
817271.94
815378.69
820970.74
770707.9
840328.43
785455.25
684197.45
682621.96
686228.68
676524.83
696085.78
690908.81
700148.33
700739.12
693368.03
696506.41
697284.67
673592.15
677482.83
719080.17
531320.87
489798.16
550825.45
487325.41
524014.76
509995.73
526740.86
520894.42
518841.91
522852.46
521175.75
514392.75
512589.93
505218.1
518457.84
467193.99
358719.47
368955.46
349664.93
359310.21
360566.73
361392.33
359068.17
359994.83
362732.86
360055.52
351460.41
365238.28
345055.22
362546.06
349635.11
191949.76
194511.41
198270.52
190735.56
199487.18
201384.49
198700.17
200215.09
194906.24
198837.79
193168.19
182831.93
196738.02
175870.9
190381.44
20657.138
17493.1
10318.207
20953.607
13997.551
18002.818
14350.103
16774.742
10189.664
24305.394
-2359.6925
21924.788
32076.629
-10814.7
85310.074
-129301.17
-147550.27
-124945.61
-137836.4
-133005.08
-133862.61
-135915.41
-133021.81
-139452.55
-125749.66
-147684.46
-127248.84
-126388.56
-175486.56
-17559.816
-271518.98
-336592.5
-294706.69
-307764.6
-307841.3
-312004.12
-316760.06
-313888.99
-326498.94
-305222.02
-349566.11
-301006.85
-301625.85
-369516.04
-179704.43
-437790.55
-541826.53
-445533.76
-501606.63
-474484.02
-490003.34
-483888.91
-484651.11
-490418.66
-467529.81
-484120
-476554.08
-444657.74
-515258.36
-288629.03
-644737.07
-616743.43
-622025.44
-604310.78
-631497.97
-632652.25
-638820.09
-645195.64
-649832.81
-637292.9
-677379.96
-591231.45
-626825.01
-705697.01
-449377.47
-721349.6
-837107.09
-715088.29
-764294.98
-725313.8
-755191.3
-743959.03
-747475.53
-738274.01
-735703.43
-743141.74
-749107.15
-684179.21
-841960.45
-386737.14
-885174.74
-1083891.9
-925316.73
-1015463.4
-1039026
-1033428.5
-1039150.5
-1092261.5
-1066293.8
-1092378.2
-1029827.5
-1002475.7
-1028395.4
-1010759.1
-900058.12
-931804.88
-855650.58
-758367.83
-761876.83
-795398.84
-856751.86
-816277.87
-788552.05
-754504.99
-749479.42
-765790.12
-773454.26
-774279.32
-879126.18
-786991.98
-876335.64
-822648.54
-977503.27
-1043013.1
-1086323.5
-1188969.9
-1143515.9
-1071249
-1217562.9
-1190637.2
-1149396.4
-1087071.8
-1033811.4
-988842.31
-817055.03
-604379.88
-615132.68
-696266.61
-718280.72
-753405.89
-776166.02
-801099.7
-825936.14
-854152.37
-809508.58
-790769.43
-741140.48
-741779.19
-735419.17
-746933.86
-516415
-601952.1
-582389.24
-645217.07
-684582.1
-663745.14
-700210
-694889.76
-673329.39
-702913.65
-673739.29
-681881.28
-661096.88
-578457.52
-611746.9
-523431.07
-600482.99
-607557.68
-626717.96
-647074.32
-660346.53
-667684.19
-674387.74
-672671.88
-657563.33
-657604.15
-641008.02
-610720.1
-601450.52
-563308.39
-568717.72
-628307.71
-608940.37
-658802.7
-666138.56
-681384.49
-695569.83
-693734.88
-698255.94
-696324.39
-678647.72
-663616.3
-634450.68
-603530.54
-600435.23
-552330.97
-581956.98
-598705.73
-623650.48
-634465
-653069.58
-652797.49
-656616.2
-657262.94
-645742.42
-641299.74
-627687.4
-606558.67
-590043.17
-555531.89
-554539.23
-600760.42
-600465.06
-629471.79
-632344.81
-647617.94
-652599.55
-655087.96
-654737.86
-647853.44
-634455.98
-625690.95
-607397.12
-579129.22
-584974.24
-563163.84
-577268.13
-595155.72
-605141.39
-625474.84
-628346.6
-636529.95
-639273.68
-636897.2
-632825.01
-624880.35
-612094.88
-599526.71
-577230.78
-561686.23
-554612.62
-582352.69
-586932.94
-607309.38
-606893.07
-623452.31
-619532.55
-625603.88
-622603.24
-616096.36
-609687.48
-599126.58
-589041.36
-574487.73
-565962.63
-558840.84
-567045.76
-579343.93
-584322.99
-595947.78
-598453.64
-604900.61
-605101.25
-603295.62
-603210.15
-594608.48
-589643.47
-580110.93
-566968.17
-561448.88
-549786.71
-567709.94
-571555
-586112.57
-588690.2
-599207.29
-597821.37
-603342.44
-601657.69
-597861.07
-595356.22
-589513.17
-579347.17
-572083.56
-565011.02
-552959.93
-555620.04
-564924.91
-568679.28
-574748.95
-576060.6
-581608.32
-582065.78
-583017.98
-581417.25
-578020
-572620.58
-568779.26
-560057.9
-557484.23
-547436.18
-553059.42
-555316.61
-564635.29
-566923.15
-574758.92
-574045.45
-578278.68
-577464.05
-576491.15
-571504.76
-570910.92
-562247.82
-559717.68
-553661.57
-540861.32
-544089.13
-551622.18
-553211.59
-558759.12
-559188.75
-561487.61
-563854.42
-564113.45
-562061.89
-561191.97
-558526.49
-554575.17
-549962.23
-549304.31
-536451.94
-538516.96
-542807.66
-547619.14
-550377.15
-552791.41
-556068.94
-555509.4
-557500.14
-557865.26
-554953.93
-554220.14
-546557.8
-547905.76
-543898.79
-528200.34
-531554.22
-537334.54
-537646.9
-541278.09
-542022.5
-547288.18
-543539.42
-543449.48
-542814.91
-540708.53
-540032.37
-534015.74
-533005.58
-530120.07
-524505.57
-524259.5
-529184.74
-528749.53
-534360.09
-536266.5
-536946.43
-538661.3
-539504.71
-539993.42
-537742.09
-538388.63
-536248.71
-530527.35
-534890.92
-517696.82
-518303.89
-522011.74
-522108.73
-525198.56
-526245.86
-528288.92
-526664.22
-527325.04
-526324.43
-524848.58
-523556.84
-522320.13
-518516.49
-518003.55
-508834.88
-510423.51
-514103.71
-516505.68
-517914.62
-518625.23
-518187.98
-521208.39
-520543.21
-521635.36
-517462.98
-520817.96
-516458.05
-519169.87
-516218.86
-502798.26
-503248.94
-506046.66
-506017.12
-509068.88
-509692.44
-512830.29
-510449.56
-512524.5
-510307.3
-509047.74
-510220.73
-506201.58
-507041.55
-504054.81
-496333.07
-495866.57
-499458.94
-499224.78
-500836.46
-500844.57
-502980.22
-504389.31
-502919.72
-503951.07
-502625.05
-504163.46
-500917.61
-501368.62
-499125.49
-485005.01
-488666.83
-489545.56
-491282.99
-493110.45
-492991.05
-495108.22
-493977.34
-495450.88
-494555.78
-493427.16
-494861.83
-491162.91
-489100.43
-492040.61
-481514.39
-479438.2
-482489.3
-483194.75
-484698.1
-485526.37
-486960.5
-486689.51
-485879.49
-487992.06
-485168.55
-485874.68
-482335.81
-485427.73
-483178.19
-470637.21
-471872.09
-473560.97
-475775.04
-476067.73
-477121.57
-478063.67
-477067.04
-478709.86
-477620.12
-475822.95
-478176.03
-475679.09
-474634.88
-473858.46
-464007.2
-464868.64
-465717
-466601.03
-467779.24
-467629.15
-469857.65
-469507.86
-469513.37
-470583.4
-467031.53
-469855.02
-466614.67
-467172.78
-466831.9
-456855.99
-454578.89
-458047.02
-457008.47
-459082.79
-459848.93
-461192.06
-460419.22
-461278.13
-461111.82
-461442.56
-460681.03
-457495.97
-459707.15
-456621.25
-447313.28
-447168.4
-448101.83
-450188.64
-450515.73
-452638.39
-452311.46
-452977.71
-452495.86
-452956.51
-451098.78
-453707.31
-448873.57
-450081.31
-451293.92
-440901.89
-437876.81
-440435.35
-440817.51
-442964.33
-443256.41
-443550.76
-443653.98
-444547.76
-443825.45
-443397.31
-443253.3
-441174.6
-443770.9
-439784.7
-430393.01
-431318.9
-433202.73
-433132.9
-433860.43
-434860.38
-435271.16
-435838.86
-435637.7
-436158.71
-434400.98
-435964.15
-432786.71
-432742.01
-434563.69
-425518.26
-420990.85
-424099.85
-424598.47
-426413.08
-425846.43
-426936.07
-427086.77
-427135.3
-426733.35
-425657.51
-426937.84
-424144.92
-425823.63
-424942.15
-415497.59
-414193.87
-415898.24
-416645.62
-416924.52
-419219.52
-418214.09
-418585.69
-417407.25
-419092.97
-417518.98
-418808.24
-416093.39
-416567.75
-416575.93
-408652.16
-405122.77
-407870.28
-408063.25
-408963.96
-410001.33
-409694.3
-410122.29
-409704.96
-410436.87
-408752.93
-410359.61
-407558.25
-408698.02
-408099.6
-399972.42
-397441.06
-399418.43
-399987.87
-400768.08
-401679.01
-401450.35
-401896.21
-401562.41
-402049.27
-400717.68
-401824.52
-399467.23
-400206.89
-399451.15
-391844.27
-389094.05
-391313.66
-391570.1
-392292.69
-393015.22
-393190.45
-393448.74
-393000.88
-393534.67
-391943.88
-393432.51
-391053.57
-392002.79
-391583.67
-382949.88
-381471.07
-383319.77
-383418.1
-384125.34
-385242.65
-384778.07
-385408.51
-384785.86
-385619.67
-383924.98
-385268.88
-382633.57
-383878.03
-382126.91
-374300.76
-374113.43
-374353.76
-376957.5
-375408.15
-376753.29
-376579.3
-376695.37
-376553.44
-376788.38
-375458.89
-376477.42
-374965.08
-374712.64
-376289.05
-368641.85
-364947.83
-367122.14
-367068.42
-368498.92
-368072.67
-368877.62
-368503.34
-368541.28
-367915.21
-367310.77
-368795.11
-366289.84
-367456.18
-366597.81
-359278.27
-357686.92
-358804.82
-359944.53
-359290.18
-360732.06
-359995.29
-360793.29
-359987.59
-360511.86
-359206.34
-360324.17
-358533.76
-358623.01
-358804.53
-352622.58
-349196.87
-351383.44
-351372.58
-352013.68
-352349.48
-352448.45
-352529.15
-352057.63
-352561.83
-351099.43
-352599.26
-350146.71
-350972.07
-350581.62
-343949.11
-341746.66
-343307.62
-343727.79
-343806.39
-344616.55
-344360.45
-344525.37
-344189.58
-344455.66
-343136.09
-344142.65
-342372.47
-342815.35
-342701.19
-336622.61
-333700.39
-335648.35
-335621.62
-336111.85
-336452.91
-336438.17
-336578.3
-336136.66
-336603.44
-335123.94
-336420.77
-334408.43
-334902.55
-334719.72
-328516.68
-326157.97
-327736.99
-327987.69
-328225
-328742.89
-328723.09
-328663.77
-328426.13
-328633.18
-327408.22
-328484.8
-326613.46
-327014.29
-326960.11
-321017.11
-318326.16
-320111.64
-320115.92
-320471.42
-320948.64
-320822.42
-320888
-320525.38
-320869.65