/*--------------------------------*- C++ -*----------------------------------*\
  =========                 |
  \\      /  F ield         | OpenFOAM: The Open Source CFD Toolbox
   \\    /   O peration     | Website:  https://openfoam.org
    \\  /    A nd           | Version:  6
     \\/     M anipulation  |
\*---------------------------------------------------------------------------*/
FoamFile
{
    version     2.0;
    format      ascii;
    class       pointScalarField;
    location    "0.44";
    object      p;
}
// * * * * * * * * * * * * * * * * * * * * * * * * * * * * * * * * * * * * * //

dimensions      [1 -1 -2 0 0 0 0];

internalField   nonuniform List<scalar> 
28033
(
939827.75
-1293671.4
7757.1221
4227.6188
1755116.6
-1818317.4
5480.3896
2431.9914
808556.93
730952.86
636205.39
520420.53
385772.83
262777.45
136942.45
926.74539
-134192.95
-253851.59
-398706.49
-471553.56
-630230.07
-760494.51
-764043.98
-12057.483
-6984.1126
-7908.227
-4753.4848
-4136.6212
-1889.034
364.83916
3004.4289
5398.6209
8128.2905
10791.028
12384.58
14166.479
14962.558
13278.746
242253.04
269623.54
250018.33
270885.5
268754.76
278682.14
282156.78
285781.81
287706.21
290503.36
289970.86
289970.47
289627.24
288555.61
286384.22
283800.01
281655.64
278730.08
274900.8
271633.03
268553.53
264048.07
261087.14
257027.08
253213.47
249976.69
246420.75
242970.92
239676.56
236583.55
233462.79
230554.38
227949.96
225139.73
221931.99
219706.01
217171.49
215084.2
211973.66
209799.65
206770.52
204129.53
201362.49
198944.47
196114.19
193643.49
190886.52
188380.17
185621.75
183098.48
180343.17
177729.66
174971.26
172228.94
169399.77
166508.88
163555.46
160495.25
157339.4
154134.82
150800.21
147369.04
143765.91
140422.04
136758.73
133141.4
129959.48
126016.74
121751.46
117531.02
113473.26
109425.39
105010.09
100836.52
96158.533
91972.107
86918.519
82713.406
77477.233
73164.57
67968.848
63592.972
58377.187
53434.002
48600.286
43586.512
39233.873
34853.101
29740.363
26178.144
22809.992
17392.344
17515.097
15709.83
13233.177
-229362.46
-202499.36
-242056.05
-223423.46
-255186.6
-254469.21
-262839.54
-262890.89
-269336.23
-267297.71
-270180.1
-268826.37
-268075.19
-267480.56
-265026.27
-263092.97
-260262.22
-257260.52
-254128.03
-251036
-246961.87
-244369.86
-240047.65
-237217.52
-233891.09
-230123.01
-227772.12
-223756.28
-221682.76
-217793.86
-215302.91
-212260.55
-209627.22
-207112.75
-204595.19
-202618.6
-199311.36
-197404.61
-194493.92
-192433.34
-189788.4
-187522.84
-185007.39
-182695.28
-180220.17
-177888.27
-175462.61
-173095.6
-170705.18
-168305
-165898
-163453.57
-160981.46
-158459.62
-155874.7
-153229.26
-150499.35
-147680.95
-144780.74
-141773.27
-138677.01
-135484.19
-132202.18
-128795.77
-125360.28
-121782.8
-118260.05
-114716.06
-111211.91
-106502.62
-103479.45
-98864.006
-95215.633
-90946.579
-86848.604
-82487.155
-78144.337
-73691.641
-69119.873
-64509.341
-59886.666
-55155.122
-50397.9
-45774.413
-41039.946
-36421.75
-31940.616
-27613.308
-23167.167
-19336.081
-15640.897
-11827.577
-8876.3388
-7490.9118
-4497.1656
1457992.9
1392899.8
1010942.6
1028143.5
719509.63
434651.76
272879.42
-11657.273
-235499.84
-501179.55
-704733.83
-955950.44
-1210404.2
-1374470.5
-1466625.3
-375363.84
-299894.19
-142205.36
-300062.73
-246977.98
-272837.21
-264469.54
-281713.54
-269830.37
-280638
-286146.86
-275414.41
-285952.85
-274228.09
-281787.47
-275515.2
-269989.44
-268674.24
-262598.3
-262370.39
-257352.47
-250669.38
-250168.98
-246756.35
-243037.75
-241625.78
-233023
-234500.95
-226475.73
-226215.36
-223686.99
-220821.53
-217913.64
-215255.18
-213878.71
-206672.58
-207064.68
-204734.96
-202094.19
-199588.26
-197062.25
-194568.47
-192049.15
-189542.04
-187057.33
-184565.91
-182040.97
-179520.67
-176969.32
-174435.22
-171870.5
-169298.8
-166691.16
-164059.48
-161364.77
-158614.78
-155800.24
-152900.78
-149898.08
-146827.8
-143613.85
-140335.77
-136900.75
-133403.43
-129755.91
-126117.85
-122748.57
-118496.51
-111792.94
-110920.12
-106436.35
-102063.44
-97954.18
-93617.665
-89214.462
-84724.051
-80161.376
-75569.207
-70823.066
-66036.749
-61188.075
-56324.027
-51371.474
-46536.475
-41658.126
-36873.817
-32157.777
-27648.824
-23192.076
-19058.649
-15224.834
-11610.176
-9397.2975
-6825.4319
-6395.5059
15615.732
16945.814
13424.872
14511.946
9502.1811
9492.8384
4780.7242
2781.9032
-339.69034
-3110.72
-3280.4515
-7295.8295
-6475.892
-10980.937
-8227.6473
21716.521
17689.809
17985.831
21083.223
23702.022
27760.319
31767.158
36258.08
40686.782
45583.774
50417.82
55273.653
60401.954
65517.599
70724.833
75711.704
80906.507
85783.548
90697.329
95511.242
100153.12
104814.22
109302.14
113637.07
117641.16
121204.69
123918.79
133305.24
133157.79
138724.81
142473.51
146342.73
149945.19
153621.64
157062.37
160432.32
163698.29
166822.84
169858.38
172784.9
175615.41
178355.9
181056.34
183655.57
186254.95
188801.21
191336.99
193847.79
196411.56
198884.88
201439.83
203972.42
206534.31
209166.14
211561.99
214180.9
216580.85
217163.97
223176.48
224800.28
225204.48
231435.38
232498.27
235758.08
235465.49
243010.05
241903.88
249038.3
250986.09
254776.14
258098.42
259213.03
266748.21
269272.06
269885.16
277886.7
276995.52
284287.45
283389.9
288667.55
293682.02
291841.88
291514.05
296608.07
296436.15
292183.84
295371.19
290602.37
286927.44
277874.38
271231.78
279247.02
267634.29
241434.58
299181.24
643015.83
703044.55
744012.03
777566.74
792860.71
819155.9
818379.9
830334.15
820844.15
799373.97
815267.3
762138.58
729959.55
777330.52
598417.78
-1036040
-1290686
-1279936.3
-1384413.1
-1348551.4
-1292179.1
-1487951.3
-1584495.6
-1483186.8
-1487726.5
-1423746.6
-1371563
-1286895.4
-1270894.2
-1214166.8
3452.4807
3306.2457
3874.3759
4300.022
5308.1318
6103.1907
6213.5858
6370.2609
6411.0828
6074.4201
5746.7631
5053.0952
4615.4441
4331.9051
4491.5487
924.94093
3698.4342
3090.5619
2562.4662
1796.4995
1691.0038
1195.5825
1300.9571
1487.1651
1710.9798
2595.0107
3185.9405
3432.7567
6612.5519
1577.0851
247187.92
250247.3
224010.3
231179.28
237740.84
243539.63
248384.84
252685.69
255824.86
257867.58
258745.46
260734
259559.71
259261.41
257635.03
257101.41
254174.52
252363.71
249559.27
246830.21
244198.27
240985.07
237729.53
234738.68
231179.41
228442.16
224821.47
222034.59
218838.14
216202.74
212955.28
210009.73
207840.11
204749.65
202701.87
199767.95
197377.65
194461.65
192136.94
189911.24
187624.12
185089.39
182705.55
180149.56
177633.29
175234.8
172648.44
170236.25
167649.86
165170.34
162570.77
160011.41
157366.05
154708.37
151982.97
149213.38
146375.9
143457.65
140497.01
137444.57
134308.31
131043.03
127843.19
124526.45
120683.83
117264.12
113158.99
109411.44
105580.6
101815.24
98162.925
94314.894
90314.642
86633.845
82497.388
78709.06
74530.121
70795.518
66411.367
62775.684
58431.001
54559.171
50604.927
46945.458
42735.225
38851.013
35061.599
30951.405
27523.578
24529.654
20255.194
17711.72
15250.009
9044.4423
3945.7752
235755.23
211839.44
187575.82
196864.72
198612.59
203412.39
207297.96
212173.46
214887.02
217943.15
219307.68
220817.6
220888.86
221545.46
220528.56
219684.1
218101.65
216897.06
214602.7
212698.99
210030.56
207328.75
204927.85
202191.82
199502.42
196594.7
194065.45
191319.93
188668.14
185960.39
183614.63
181187.62
178620.89
176265.72
174022.15
171584.79
169271.47
167107.63
164900.31
162612.86
160253.36
158372.1
155532.47
153509.28
151082
148908.27
146520.06
144301.22
141899.63
139635.28
137217.7
134878.8
132444.51
130017.16
127545.21
125033.9
122481.61
119896.11
117256.58
114571.66
111813.38
109041.84
106292.74
103355.66
100484.66
98512.593
96413.262
93334.536
90452.635
87436.81
84249.86
81136.716
77717.612
74623.746
70778.232
67921.082
63961.419
61149.28
57092.558
54432.325
50395.654
47316.396
43820.898
39376.039
36066.671
32757.446
28993.884
26192.387
23169.89
19605.064
16813.249
13927.045
9764.0827
5565.786
-1261.3682
186952.34
183141.11
155022.61
164321.19
162215.4
167817.73
172148.53
176170.33
177860.46
181193.11
182527.65
184345.01
184495.81
185161.22
184571.98
184588.13
183119.12
182234.49
180567.74
178996.37
177160.84
175334.51
173140.14
171048.6
168578.07
166467.68
164040.7
161737.88
159485.28
157262.38
155022.83
152758.53
150754.28
148626.66
146740.13
144663.71
143031.56
141323.45
139443.38
137423.39
135427.3
133381.14
131745.31
129798.25
127929.63
125948.07
123985.9
122002.1
120001.43
117991.92
115935.69
113900.71
111796.51
109708.33
107571.74
105407.13
103227.66
101000.69
98732.887
96422.907
94070.427
91661.136
89210.259
86539.982
84221.26
81857.755
80009.581
76418.557
74547.374
72004.865
69536.29
66660.299
63749.354
61050.176
58373.498
55510.191
52895.71
49983.959
47455.574
44490.131
41828.487
39228.155
35981.494
33600.953
31216.395
28194.526
25121.056
22841.536
19879.51
17259.005
14871.061
10967.433
8552.7044
2807.4212
-118.07748
151280.88
148846.27
120337.75
130876.92
125876.87
132619.89
134836.17
137809.03
140042.48
143185.36
144198.19
145977.22
146131.36
147366.78
146722.69
146950.55
145881.33
145685.59
144168.48
143252.44
141637.63
140166.93
138441.78
136736.1
135032.6
133220.82
131465.67
129638.23
127861.43
126027.4
124338.43
122596.29
120891.96
119161.53
117762.44
115683.34
114205.37
111831.15
110004.28
108450.93
107132.39
105559.28
103821.62
102106.29
100504.65
98846.683
97207.088
95566.869
93888.495
92215.509
90516.806
88818.702
87100.937
85382.43
83644.819
81909.297
80159.004
78383.983
76600.243
74792.836
72962.344
71089.902
69166.158
67297.981
65354.624
63402.243
61450.055
59370.657
57078.367
55082.029
53264.489
51039.226
49661.951
47755.273
45575.759
43505.188
41335.382
39374.468
37107.199
35142.371
32981.343
30950.107
28646.357
26408.251
24127.609
22629.235
20425.651
18404.132
16221.31
14229.368
11531.691
9266.8219
6255.8191
2797.308
-1511.2039
122733.47
109964.83
88426.819
97073.119
95139.399
99005.589
101172.67
103996.53
105084.8
107526.37
108361.99
109546.41
110093.74
110758.48
110360.31
110697.8
109873.49
109613.43
108548.54
107954.49
106804.38
105829.51
104532.23
103440.43
102047.52
100735.57
99316.468
97964.958
96601.91
95295.532
93949.404
92642.262
91358.895
90219.595
89000.86
87724.664
87896.26
88103.358
87249.942
87515.579
85931.291
84710.854
83634.061
82392.662
81167.432
79832.73
78529.013
77170.045
75830.238
74463.802
73089.142
71724.968
70341.611
68960.07
67587.746
66204.497
64819.412
63422.904
62027.994
60588.114
59174.367
57603.502
56227.977
54593.915
52964.763
51471.126
49933.294
48022.956
46153.581
44553.87
42920.693
41143.633
38840.341
37084.73
35182.304
33556.7
32092.208
30440.828
28968.657
27454.608
25790.245
24450.959
22705.824
21524.794
19700.996
18555.745
16432.378
15268.768
13217.726
11505.998
9578.9462
7723.9879
5765.9407
2407.1479
-564.65777
75623.799
75483.531
57454.08
66342.859
62016.545
64273.445
66949.531
68340.341
68777.825
71373.415
71059.854
72651.726
72350.817
73266.168
72647.863
73218.786
72348.878
72559.962
71589.077
71346.928
70370.225
69801.316
68914.403
68195.533
67268.272
66435.056
65648.4
64770.609
63934.977
63040.391
62229.127
61362.021
60588.566
59759.788
58835.297
58332.682
58149.152
58005.909
58610.52
58623.457
58764.815
57878.946
57033.056
56206.185
55361.642
54469.013
53575.527
52685.984
51776.306
50859.977
49943.771
49024.226
48098.891
47184.083
46273.64
45353.426
44454.318
43540.132
42622.899
41699.627
40748.218
39825.094
38803.553
37798.605
36890.323
35657.568
34813.43
33607.058
32608.265
31640.113
30469.46
29267.405
28327.491
25789.176
24461.195
23512.375
22512.663
21590.904
20562.039
19834.098
18476.212
18036.089
16404.962
16036.805
14250.564
14083.345
12084.787
11989.616
9932.7805
9770.9205
8090.3462
6987.7229
5225.2561
2866.7836
1282.2353
38566.182
35078.275
27409.105
33954.292
29526.115
32092.473
33282.279
33669.617
34064.659
34972.651
35302.964
35536.946
35785.094
36222.64
35862.589
36353.771
35795.511
36142.068
35505.722
35715.118
35100.963
35108.734
34615.783
34373.994
33875.065
33650.936
33139.444
32792.366
32345.549
32033.477
31623.781
31293.384
30937.539
30526.236
30330.118
30009.538
29740.103
29675.723
28750.668
28328.201
28118.263
27849.856
27418.863
27209.598
26899.787
26577.476
26234.065
25908.24
25537.441
25187.869
24821.271
24456.534
24093.293
23730.145
23372.471
23004.446
22660.434
22279.38
21923.436
21531.211
21146.797
20725.257
20298.221
19856.422
19348.166
18913.098
18317.98
17845.158
17269.327
16731.345
16200.792
15676.575
14841.283
14777.085
14576.207
14125.768
13619.138
13087.815
12732.766
12127.048
11701.134
11281.393
10524.939
10417.068
9386.1584
9402.8938
8268.8095
8425.3768
7176.4119
7232.6028
5609.9976
5310.1633
4439.2956
3607.5861
2791.0558
-4669.1855
-307.58211
-4941.3952
-822.76878
-2208.727
-1748.8171
-1544.0377
-1122.7581
-2715.1804
-945.00978
-2272.3073
-1599.1776
-1879.5814
-1403.6673
-1915.7909
-1137.7689
-1666.6514
-981.55428
-1369.6155
-796.18777
-992.35435
-481.94974
-819.97797
-553.09239
-505.81425
-407.2576
-319.40375
-224.26815
-110.17469
-63.979628
12.080213
83.816026
97.838682
268.18636
301.47743
301.00902
597.80034
597.85671
646.79341
538.18579
664.07745
824.25254
760.04836
824.09291
855.56908
849.57225
883.08364
902.57254
916.25473
928.8389
944.34498
969.70359
994.79283
1029.6617
1095.9809
1146.5628
1238.4322
1329.0436
1428.7352
1540.8237
1653.0347
1764.1911
1870.6738
1981.1328
2093.9515
2158.7436
2297.3206
2353.0372
2425.8376
2536.6384
2576.7143
2685.8532
2730.8326
2915.9739
3060.1557
3261.5361
3340.2168
3549.7742
3675.0128
3823.7796
4026.7978
4039.5595
4295.6037
4284.3657
4301.4791
4593.9469
4087.2307
4823.0511
3777.0559
4867.8041
4009.2112
5220.6299
4732.068
4448.8068
4724.3876
-37565.234
-36657.887
-32984.78
-31361.51
-32884.05
-34794.433
-34080.477
-36551.461
-36470.882
-37272.668
-37457.345
-37824.762
-37627.186
-37474.518
-37513.376
-36745.012
-36958.584
-35942.314
-36190.235
-35197.358
-35369.77
-34728.393
-34493.893
-33485.741
-33245.321
-32467.034
-32125.511
-31428.496
-31023.89
-30432.203
-29934.97
-29427.283
-28879.764
-28356.213
-27935.72
-27268.553
-26908.097
-26274.551
-25823.919
-25197.923
-24688.446
-24144.524
-23687.598
-23124.065
-22614.951
-22137.289
-21654.522
-21167.317
-20706.604
-20239.185
-19761.786
-19287.606
-18817.766
-18322.541
-17825.281
-17341.706
-16809.189
-16309.658
-15790.063
-15264.336
-14748.488
-14240.074
-13728.695
-13216.016
-12764.065
-12242.378
-11787.502
-11283.512
-10807.934
-10273.516
-9828.1149
-9181.3016
-8636.8276
-8032.5844
-7806.3464
-7386.7326
-6609.1054
-6064.7854
-5384.2638
-4847.7861
-4096.6291
-3661.0078
-2853.5488
-2413.446
-1775.0939
-981.54468
-803.03406
656.3662
279.09578
2175.3869
1496.057
2853.552
2535.4681
4419.007
5969.7098
-77149.348
-74708.99
-64052.661
-66233.047
-68277.551
-69762.37
-72130.177
-72837.789
-75667.33
-75505.357
-76685.636
-76912.172
-76966.32
-76543.108
-76584.201
-75476.155
-75269.435
-74030.354
-73484.728
-72151.43
-71567.675
-69249.295
-67976.438
-66712.716
-65917.861
-64873.422
-63922.057
-62899.775
-61976.097
-60997.142
-60154.878
-59208.806
-58400.115
-57541.4
-56618.762
-55871.231
-54951.96
-54177.077
-53314.288
-52567.222
-51755.082
-50953.106
-50156.463
-49393.485
-48594.672
-47843.91
-47056.771
-46282.458
-45522.947
-44753.404
-43974.351
-43205.379
-42413.94
-41606.422
-40790.484
-39949.395
-39074.654
-38197.42
-37277.93
-36333.983
-35387.346
-34398.589
-33404.851
-32386.409
-31385.755
-30332.112
-29307.933
-28278.612
-27216.22
-26191.649
-25074.28
-23938.86
-22848.925
-21000.708
-18835.54
-17516.941
-16098.068
-14988.383
-13729.484
-12757.603
-11264.115
-10580.04
-8883.9357
-8239.1578
-6781.3835
-5683.0208
-4899.1161
-2947.8048
-2975.8664
-328.55493
-476.45848
1508.175
2701.2999
4816.0473
6797.534
-115067.6
-92948.948
-87742.083
-90927.838
-93983.649
-97170.128
-99287.39
-102117.6
-104411.71
-104984.35
-105998.84
-106563.88
-106220.71
-105749.55
-105489.35
-103954.48
-103765.72
-101789.52
-101310.54
-99836.62
-99619.1
-100239.62
-99756.821
-98540.477
-97699.622
-95982.645
-94904.573
-93296.195
-92027.05
-90637.208
-89345.989
-88037.437
-86878.261
-85490.875
-84339.148
-83008.454
-81868.439
-80579.372
-79408.317
-78172.744
-76982.672
-75763.792
-74593.942
-73379.764
-72195.442
-71007.286
-69836.706
-68653.165
-67483.276
-66300.466
-65114.369
-63921.186
-62714.4
-61499.187
-60263.558
-59018.483
-57754.729
-56477.754
-55177.948
-53876.478
-52548.972
-51208.908
-49879.191
-48496.742
-47192.958
-45755.146
-44386.706
-42917.414
-41510.844
-39988.961
-38479.711
-37051.295
-35382.173
-33475.767
-31460.824
-30643.635
-28038.029
-26150.461
-24311.576
-22586.462
-20879.876
-19019.414
-17350.051
-15529.574
-13717.926
-12148.58
-10114.752
-8726.6755
-6679.3078
-4915.8998
-3295.8053
-643.48321
1240.6452
4278.1697
9004.8834
-134876.08
-131108.42
-122158.78
-122832.05
-127676.84
-130112.53
-135143
-137633.41
-139728.72
-141674.88
-142437.58
-142575.8
-142602.8
-141706.2
-141014.08
-139713.74
-138354.63
-136523.13
-135361.18
-133098.36
-132219.65
-129861.76
-131082.62
-130103.27
-128434.61
-126882.36
-125173.2
-123264.29
-121631.63
-119796.86
-118257.32
-116519.58
-115069.07
-113467.28
-111981.22
-110546.88
-109014.26
-107580.82
-106103.6
-104683.44
-103204.1
-101807.42
-100363.49
-98972.772
-97564.457
-96170.438
-94788.094
-93393.014
-92009.659
-90630.955
-89232.268
-87835.435
-86422.812
-84985.287
-83520.631
-82033.36
-80500.222
-78923.776
-77316.543
-75650.985
-73932.741
-72183.993
-70369.506
-68480.608
-66648.322
-64637.04
-62782.38
-60779.209
-58774.591
-56699.091
-54697.174
-52464.919
-50287.894
-48194.202
-45621.243
-44153.202
-41717.725
-39153.434
-36612.411
-34108.857
-31483.803
-28920.539
-26287.868
-23705.865
-21032.838
-18688.708
-15785.913
-13779.816
-10991.707
-8613.5829
-6636.7267
-2817.1864
-356.25654
5137.2735
10400.031
-191567.88
-174596.64
-152944.71
-164782.4
-164138.51
-173217.01
-174933.11
-180012.45
-181530.55
-183894.2
-184465.72
-184863.7
-184278.26
-183630.74
-182205.54
-180590.08
-178908.75
-176460.57
-174745.66
-172009.28
-170066.72
-167589.85
-164478.87
-161757.77
-159508.28
-157435.54
-155435.76
-153125.97
-151055.5
-148887.24
-146883.93
-144696.58
-142991.86
-141000.19
-139246.89
-137303.26
-135442.07
-133600.31
-131817.04
-129965.46
-128206.32
-126383.52
-124604.64
-122799.06
-121012.75
-119220.44
-117440.3
-115642.32
-113855.36
-112056.76
-110236.08
-108415.77
-106565.63
-104695.26
-102796.14
-100875.81
-98907.357
-96918.393
-94888.56
-92814.726
-90710.239
-88568.702
-86374.903
-84134.304
-81929.936
-79512.982
-77313.509
-74790.204
-72450.88
-69946.949
-67383
-64824.647
-62210.691
-59448.156
-56678.038
-54026.132
-51190.472
-48292.852
-45272.558
-42256.19
-39225.149
-36128.389
-33054.456
-29937.015
-26913.686
-23787.999
-20782.259
-17925.623
-14610.033
-12180.768
-8586.6628
-5536.1355
-2255.5939
2743.0175
8390.4179
-208170.41
-201103.49
-177257.5
-192929.15
-197977.44
-204952.48
-209077.34
-214645.17
-216846.73
-218365.46
-220454.26
-219531.31
-219536.1
-218685.03
-216305.92
-215110.74
-212674.25
-209621.47
-207623.53
-204173.71
-201496.86
-198869.76
-195707.16
-193644.07
-190131.93
-187814.6
-184947.04
-182322.89
-180313.17
-177605.3
-175511.79
-172905.77
-170877.19
-168400.84
-166473.12
-164521.77
-162346.92
-160459.29
-158316.78
-156372.73
-154323.38
-152337.99
-150348.89
-148355.55
-146385.22
-144399.46
-142420.4
-140440.26
-138453.52
-136462.97
-134454.88
-132435.09
-130385.73
-128305.78
-126183.85
-124014.27
-121785.61
-119494.72
-117133.93
-114698.81
-112196.51
-109608.59
-106949.38
-104206.27
-101395.65
-98382.388
-95600.707
-92499.829
-89614.225
-86452.449
-83453.178
-80182.225
-76886.935
-73686.483
-70145.752
-66731.342
-63138.862
-59506.999
-55807.769
-52103.095
-48321.78
-44475.656
-40662.428
-36835.119
-32939.885
-29247.315
-25463.897
-21810.658
-18173.817
-15051.668
-10801.029
-8423.699
-4056.3933
692.38143
7917.8771
-289577.89
-199805.39
-216565.85
-222506.32
-231768.53
-234102.67
-242528.88
-246449.11
-248276.46
-251009.53
-251404.75
-252077.13
-250795.64
-249798.42
-247575.08
-245581
-243404.81
-240276.9
-237339.02
-234200.62
-230758.56
-227739.89
-224886.53
-221568.46
-218789.39
-215155.74
-212307.11
-208956.68
-206839.09
-204010.06
-201526.27
-198761.08
-196243.4
-193378.03
-190720.69
-188759.55
-186520.95
-184160.51
-181826.11
-179524.23
-177195.82
-174900.15
-172575.98
-170267.02
-167962.45
-165652.76
-163355.55
-161061.17
-158754
-156457.69
-154131.82
-151801.28
-149433.61
-147032.06
-144582.08
-142076.96
-139499.38
-136853.2
-134121.27
-131309.24
-128407.95
-125428.51
-122355.78
-119210.07
-115888.71
-112488.01
-108984.21
-105451.54
-102430.01
-98892.222
-95295.439
-91434.182
-87934.959
-83965.883
-80101.147
-76129.884
-72192.966
-67993.311
-63866.959
-59558.464
-55215.767
-50812.244
-46480.232
-41982.82
-37677.693
-33422.522
-29075.882
-25107.582
-21198.359
-17480.893
-13738.425
-11487.094
-7301.9761
-3777.9527
3211.8033
522515.13
520630.48
500059.71
514373.44
516852.54
521132.77
539500.15
527569.7
523626.98
523187.45
519112.77
502836.46
495715.81
532004.91
436994.19
487780.3
506947.69
474621.76
492882.01
492345.55
504295.4
489504.17
507663.74
502870.53
506280.18
496563.74
494392.22
495643.52
505243.72
425366.1
367007.84
428707.31
373277.61
391781.71
391139.14
386083.81
392415.5
387732.35
391740.04
386496.27
385736.82
390410.1
365259.24
407369.42
366305.67
324594.25
333831.95
330975.75
325909.31
336851.97
332531.12
338540.68
338554.38
335147.74
336889.94
337928.35
326790.93
326959.27
357074.48
243998.89
231200.03
266006.57
229412.9
251021.3
240707.92
250835.72
246412.41
247330.53
247677.19
248697.63
244587.73
245349.48
243494.84
251230.94
221602.89
170094.74
180502.27
166394.24
173438.75
172722.95
174333.45
173274.24
173989.54
174994.24
174896.07
169555.93
177510.55
165901.03
179221.74
168381.93
89119.283
91018.294
92935.413
87763.048
93249.575
92603.781
93218.404
92335.174
91725.789
91924.82
91905.551
85650.856
94319.574
87208.039
90215.004
10583.282
10596.116
4925.63
10955.861
8320.0898
9613.1736
9409.2464
9517.5885
8540.1944
13009.846
3255.6516
12903.982
16788.296
-571.26679
39484.224
-64423.93
-71649.948
-62177.016
-68046.296
-65612.828
-66439.125
-66044.767
-66136.763
-67228.832
-61809.784
-69648.378
-61070.449
-60202.61
-77582.036
-14053.383
-129983.03
-156268.35
-140120.83
-143897.19
-143992.46
-145632.47
-146733.74
-146136.02
-149618.13
-141867.68
-158470.95
-138230.25
-137590.06
-165153.9
-96830.621
-213656.18
-247455.37
-212045.14
-233381.47
-222307.24
-227662.95
-225349.7
-226291.06
-227683
-218423.97
-223112.44
-222291.99
-206692.22
-231459.13
-154375.05
-305031.05
-289828.93
-289572.11
-282374.92
-294280.48
-294047.3
-296508.31
-298795.45
-299912.34
-295937.42
-309720.11
-270218.73
-287421.06
-313198.13
-234708.65
-355015.82
-380477.07
-340646.44
-352774.97
-338520.78
-348671.55
-345306.14
-345660.72
-342834.05
-338717.11
-343053.2
-349675.57
-316856.52
-382336.77
-210369.46
-422721.53
-493327.13
-428187.91
-460670.41
-473596.73
-468669.07
-472704.86
-493677.1
-482550.55
-498062.05
-467239.63
-455790.33
-469658.18
-455695.51
-431613.26
-478724.81
-409930.94
-377944.36
-378027.1
-393136.38
-423432.49
-403063.8
-386939.24
-375573.05
-370776.81
-381021.65
-384068.13
-382252.39
-427781.55
-389172.46
-379720.84
-358327.86
-419669.73
-440514.6
-458957.55
-497099.38
-481311.64
-451873.18
-511922.21
-501360.79
-484127.78
-456423.32
-437167.21
-418262.56
-350494.24
-290430.33
-290720.64
-322712.14
-332039.91
-345227.39
-357450.99
-367534.67
-376853.71
-388149.75
-370421.94
-363066.23
-340762.14
-343286.96
-342068.55
-346014.82
-243252.6
-274559.25
-269740.97
-294011.46
-311143.39
-301301.32
-315558.35
-313133.76
-302930.94
-316613.81
-304385.28
-309277.71
-300776.02
-266748.72
-279303.69
-256778.12
-290260.44
-292208.43
-298931.34
-305514.75
-312551.31
-314000.1
-316473.29
-316052.83
-309230.22
-309319.87
-301842.56
-290648.6
-286726.79
-271164.55
-273774.78
-295466.77
-288475.86
-308481.21
-310719.76
-316645.23
-322987.44
-322029.37
-323819.86
-324305.31
-315441.2
-309892.15
-296665
-286087.29
-281944.29
-270822.7
-282766.46
-289034.27
-300051.3
-303647.29
-311332.07
-310460.22
-311965.66
-311893.64
-306855.53
-305774.18
-299122.53
-292045.38
-284765.18
-270448.57
-273182.65
-291001.67
-291717.49
-301851.21
-303099.67
-309032.92
-311062.46
-311852.84
-311528.99
-308966.58
-302812.81
-299822.05
-292164.87
-281256.93
-282964.13
-278047.31
-283396.53
-290464.52
-295159.41
-302813.25
-304316.51
-306847.99
-307931.49
-306289.37
-305052.76
-301297.01
-296954.98
-290938.16
-282724.86
-276129.55
-276070.16
-287205.43
-289529.15
-297102.28
-297080.45
-303152.89
-301641.15
-303809.26
-302535.56
-299862.51
-297336.14
-292733.79
-289273.35
-282935.78
-280166.39
-279063.81
-282232.41
-287433.42
-289598.67
-294096.13
-295222.83
-297541.72
-297272.7
-296784.73
-296493.72
-292517.77
-290959.88
-286619.52
-281484.01
-279305.92
-276549.61
-283830.15
-285380.94
-290811.58
-291937.3
-295888.18
-295222.1
-297442.69
-296466.07
-295019.79
-294140.56
-291570.11
-287844.47
-284871.19
-282045.14
-277564.57
-279476.58
-283802.69
-284803.65
-287455.04
-287905.78
-289701.18
-289969.76
-290099.99
-289268.94
-287954.32
-285744.08
-284167.62
-280419.73
-280044.01
-276867.73
-278826.69
-279698.19
-284083.8
-284629.98
-287613.78
-287517.15
-288890.38
-288599
-288191.82
-286475.92
-285860.99
-282797.93
-281612.35
-279125.33
-273408.53
-276152.36
-278867.53
-279044.76
-281539.21
-281708.8
-282002.07
-283627.56
-283157.54
-282272.11
-281894.14
-280966.33
-279332.35
-276986.5
-277622.23
-272540.09
-273178.48
-275252.36
-277143.83
-278210.16
-279017.53
-279803.47
-279634.26
-280671.32
-280467.4
-279733.09
-278923.22
-277012.93
-276806.1
-275592.18
-268627.18
-270741.85
-272574.09
-273199.13
-273980.12
-274557.31
-276470.64
-274840.79
-275008.28
-274726.94
-273846.51
-273688.49
-271112.97
-270882.24
-270543.92
-266470.3
-266957.11
-268846.06
-268819.7
-270872.18
-271669.51
-271589.39
-272096.63
-272422.64
-272303.8
-271798.7
-272061.4
-271476.44
-269013.5
-271171.31
-263987.13
-263913.56
-265679.12
-265028.95
-266522.02
-266703.56
-267971.86
-267004.03
-267353.23
-267158.55
-266344.12
-266062.03
-265132.43
-264404.97
-264218.73
-259472.62
-260239.2
-261861.51
-262449.4
-262753.34
-262990.07
-262417.62
-264102.95
-263479.04
-263792.65
-263048.28
-263485.73
-262463.63
-262888.81
-262966
-256280.87
-256603.3
-257769.31
-257541.08
-258532.04
-259181.78
-259482.52
-258727.71
-259821.1
-258929.6
-258012.61
-259415.24
-257425.89
-258557.01
-257352.95
-253336.31
-252725.52
-254218.37
-253759.74
-254686.29
-254111.31
-255364.2
-255529.88
-255094.88
-255456.45
-254800.59
-255445.35
-254117.4
-254749.03
-254772.09
-248144.47
-249578.31
-249884.09
-250042.93
-250416.69
-250576.47
-251074.23
-250704.75
-251518.57
-250655.83
-250777.34
-251616.09
-250599.39
-249559.56
-251315.94
-245880.26
-245118.79
-246089.06
-246117.4
-246738.99
-246425.02
-247174.9
-247187.77
-246662.8
-247835.27
-246686.97
-246948.43
-245908.31
-247364.87
-247111.38
-241716.13
-241178.25
-242551.69
-242355.2
-242750.86
-243086.76
-243093.67
-242743.42
-243369.26
-243153.38
-242826.54
-243787.85
-242667.36
-242906.93
-242962.99
-238099.03
-238182.42
-238249.18
-238754.65
-238906.76
-238789.86
-239638.67
-239363.75
-239378.4
-239775.12
-238268.3
-239807.77
-239052.98
-239245.82
-239692.89
-235713.53
-233805.31
-235234.04
-234319.48
-235650.78
-235184.1
-235963.52
-235504.41
-235992.17
-235994.86
-236284.6
-235641.97
-234963.19
-236503.4
-235259.09
-231118.38
-231137.13
-231225.22
-231934.87
-231134.38
-232594.3
-232084.14
-232654.5
-232319.63
-232479.53
-232140.21
-233224.75
-231411.25
-232246.64
-233384.95
-229061.56
-227202.4
-227834.04
-228255.52
-229029.46
-228903.96
-228965.9
-228949.38
-229345.85
-229171.27
-229102.72
-229381.75
-228571.38
-230047.18
-228640.44
-224494.8
-225285.31
-225349.49
-225134.38
-225483.17
-225899.84
-225871.29
-226247.86
-225982.15
-226340.23
-225713.22
-226239.77
-225712.28
-225494.38
-227111.54
-223123.13
-221082.87
-222385.42
-222241.05
-222960.79
-222521
-222989.55
-223125.75
-223335.3
-222854.58
-222881.57
-223189.44
-222380.7
-223414.57
-223377.35
-219780.5
-218736.9
-219384.95
-219572.34
-219687.77
-220423.52
-220032.14
-220156.72
-219829.94
-220630.48
-219997.87
-220541.42
-219599.69
-220096.39
-220357.23
-217330.97
-215610.41
-216742.31
-216785.45
-217037.59
-217576.61
-217367.35
-217639.86
-217290.61
-217669.64
-217193.48
-217720.24
-216935.61
-217413.41
-217567.22
-214453.24
-213120.34
-214025.3
-214159.95
-214523.97
-214769.1
-214749.57
-214894.52
-214818.88
-215031.31
-214591.98
-215044.21
-214242.89
-214655.29
-214777.46
-211767.78
-210499.35
-211396.27
-211607.74
-211811.3
-212151.47
-212205.64
-212346.71
-212220.43
-212407.76
-212006.43
-212343.28
-211725.16
-212004.12
-212164.99
-208922.52
-208045.32
-208926.51
-208835.02
-209287.16
-209850.51
-209536.02
-210029.21
-209614.26
-210176.4
-209292.52
-210067.31
-208826.57
-209743.7
-208772.44
-205686.78
-206047.57
-205935.18
-207325.36
-206478.71
-207265.99
-207115.04
-207295.67
-207205.85
-207418.79
-206872.52
-207117.94
-206768.98
-206445.14
-207628.17
-204500.09
-202732.53
-203959.26
-203959.28
-204688.83
-204409.78
-204921.92
-204656.78
-204908.37
-204486.57
-204470.96
-204864.7
-203961.37
-204326.93
-204201.09
-201460.59
-200713.74
-201258.36
-201851.2
-201627.17
-202334.19
-202028.4
-202455.12
-202178.83
-202294.57
-201855.69
-202223.67
-201607.59
-201528.76
-201738.47
-199370.47
-197901.81
-198950.56
-199116.49
-199446.6
-199654.17
-199767.56
-199856.98
-199717.35
-199905.96
-199374.6
-199860.41
-198948.08
-199121.55
-199117.96
-196588.54
-195607.51
-196390.89
-196761.87
-196828.31
-197269.23
-197221.18
-197343.92
-197281.04
-197362.36
-196886.4
-197194.69
-196525.76
-196557.81
-196632.47
-194272.13
-193033.35
-193980.66
-194165.8
-194404.67
-194667.03
-194721.24
-194832.78
-194733.79
-194888.98
-194341.44
-194742.97
-193991.3
-194036.65
-194065.09
-191700.82
-190642.44
-191434.96
-191736.75
-191872.79
-192208.18
-192255.5
-192299.55
-192273.23
-192339.37
-191879.74
-192217.15
-191510.23
-191511.93
-191573.47
-189304.82
-188122.39
-188999.23
-189201.38
-189376.82
-189698.77
-189716.59
-189792.84