/*--------------------------------*- C++ -*----------------------------------*\
  =========                 |
  \\      /  F ield         | OpenFOAM: The Open Source CFD Toolbox
   \\    /   O peration     | Website:  https://openfoam.org
    \\  /    A nd           | Version:  6
     \\/     M anipulation  |
\*---------------------------------------------------------------------------*/
FoamFile
{
    version     2.0;
    format      ascii;
    class       pointScalarField;
    location    "0.39";
    object      p;
}
// * * * * * * * * * * * * * * * * * * * * * * * * * * * * * * * * * * * * * //

dimensions      [1 -1 -2 0 0 0 0];

internalField   nonuniform List<scalar> 
28033
(
898946.11
-1199023.1
7281.7715
3186.0131
1668608.2
-1693968.3
3820.8871
1460.614
752425.7
673138.01
581386.92
477093.11
358577.2
251582.02
141453.85
19236.252
-102633.24
-212810.53
-343406.95
-413857.82
-558980.36
-678820.61
-668930.03
-12587.092
-6481.7733
-6823.2113
-3635.7833
-2964.414
-1176.4708
591.54653
2431.3214
4045.4022
6041.7228
7996.9706
9047.4413
10722.777
12022.549
11180.182
228165.72
249640.38
227260.95
244255.1
239529.54
246713.3
247472.12
248975.58
249102.4
249986.69
248134.44
246898.73
245742.58
243876.88
241457.78
238680.91
236641.86
233865.63
230671.63
227752.3
224955.12
221486.56
218665.43
215375.04
211806.08
208767.42
205559.5
201991.47
198719.29
195436.93
192182.97
188637.63
185653.24
182691.9
178929.27
176322.33
173111.15
170686.91
167210.62
164578.94
161341.37
158396.74
155313.58
152388.83
149171.32
146112.15
142802.76
139577.54
136094.85
132719.03
129089.03
125523.6
121791.56
118044.97
114203.29
110306.64
106348.52
102319.84
98228.423
94101.003
89912.737
85699.917
81438.286
77295.774
73095.372
69160.106
65530.194
61576.609
57732.271
54359.75
51075.094
48299.027
45559.235
43385.921
41053.698
39590.122
37568.396
36661.837
34857.38
34248.132
32687.071
32044.593
30555.534
29618.706
28164.515
26887.915
25465.356
24096.846
21482.316
20333.167
18647.102
14901.775
15984.36
14509.71
12390.928
-216397.29
-183679.24
-215213.3
-195616.91
-221910.58
-218670.03
-224684.87
-222234.69
-226984.46
-223222.45
-225100.54
-222253.71
-221336.75
-220059.44
-217386.69
-215902.16
-212799.14
-210535.28
-208209.07
-205155.49
-202211.04
-200195.19
-196086.37
-194335.51
-190948.95
-187599.85
-185538.53
-181348.65
-179423.92
-175032.7
-172816.43
-169123.38
-166379.34
-163400.79
-160595.18
-158008.25
-154446.91
-152315.99
-148957.67
-146614.49
-143635.1
-140997.29
-138091.26
-135314.94
-132328.14
-129378.56
-126262.39
-123105.42
-119835.92
-116477.31
-113040.14
-109512.19
-105918.83
-102258.03
-98531.479
-94759.843
-90935.338
-87063.67
-83161.891
-79221.565
-75261.724
-71286.859
-67334.639
-63361.826
-59491.395
-55627.875
-51987.53
-48420.041
-45291.701
-41817.621
-38963.733
-36200.339
-33902.692
-31670.957
-29870.836
-28254.612
-26851.22
-25723.254
-24691.32
-23795.537
-22998.013
-22207.508
-21339.211
-20570.137
-19544.143
-18490.607
-17311.198
-16063.578
-14392.034
-13088.539
-11519.591
-9508.6592
-8215.4853
-7630.6336
-5449.4489
1369360
1301076.8
946856.91
958183.23
674089.69
414472.85
274388.43
18263.262
-177234.64
-422142.88
-598849.66
-829069.53
-1058363.5
-1229131.2
-1311309.6
-351956.18
-270252.34
-129703.02
-263578.06
-216040.96
-235281.76
-225618.62
-240567.78
-225997.42
-237106.8
-237704.43
-229032.48
-235666.23
-225622.57
-231610.14
-224769.37
-220983.41
-219481.4
-214175.55
-215109.09
-209305.21
-204480.96
-204669
-201177.52
-198575.98
-195972.04
-188496.52
-189730.48
-181345.36
-181748.63
-178593.87
-175172.02
-172056.41
-169100.7
-166603.97
-159726.88
-159754.1
-156828.14
-153745.9
-150896.17
-147956.88
-145058.96
-142079.9
-139087.26
-136039.88
-132929.26
-129716.09
-126441.51
-123067.45
-119650.95
-116150.29
-112598.25
-108978.78
-105313.87
-101575.96
-97784.903
-93937.975
-90023.419
-86046.84
-82027.247
-77939.224
-73835.528
-69698.084
-65582.536
-61470.866
-57448.384
-53723.555
-49801.739
-46248.62
-42734.783
-39974.923
-37118.785
-34596.796
-32412.663
-30495.86
-28847.174
-27443.426
-26283.664
-25258.708
-24349.806
-23489.322
-22701.089
-21796.415
-20949.13
-19924.187
-18860.586
-17569.578
-16318.852
-14777.78
-13263.41
-11716.462
-10018.835
-9254.2391
-7868.2998
-7699.7608
13873.33
13563.891
10308.591
10819.543
6934.2897
7236.5048
3650.8333
2424.6823
210.34752
-2042.7712
-1888.0949
-5207.3698
-4996.7516
-10250.01
-8518.6319
21216.499
16377.844
16085.056
17984.34
19214.576
21305.438
23059.532
24888.875
26491.959
28086.348
29516.689
30654.659
31986.011
33064.164
34246.132
35283.376
36521.829
37732.077
39172.532
40753.373
42553.793
44644.902
46944.518
49532.604
52386.689
55509.304
58377.004
63293.769
66503.681
70644.4
74774.055
79148.011
83434.26
87832.854
92183.902
96538.068
100847.48
105096.54
109300.14
113433.23
117497.98
121489.57
125428.78
129263.41
133052.47
136745.57
140361.83
143887.45
147354.6
150685.17
153976.27
157183.31
160305.79
163444.94
166265.89
169426.63
171885.73
173317.31
179879.67
180778.33
182551.54
189660.3
190141.31
193810.33
194575.66
202461.07
200087.38
209041.32
210045
214227.89
216813.64
217933.83
225970.86
226022.71
227474.65
234748.46
232827.96
240579.7
238116.25
245263.12
249280.39
247519.2
248525.37
254298.03
253288.65
252182.37
256593.48
254057.54
251571.4
246117.38
243333.41
251986.32
244296.23
224035.2
281218.47
633626.58
692214.5
730288.24
762894.49
776667.73
800610.7
799071.01
810766.27
800316.49
780891.35
795730.21
744002.22
718118.05
753222.22
597092.31
-976936.45
-1230962.3
-1220975.7
-1318633.2
-1285305.9
-1229121.7
-1412214.8
-1503112.1
-1409608.3
-1413033.1
-1356872.9
-1308948.7
-1228720.4
-1214272
-1143317.8
3123.4711
3381.4167
3982.3159
4416.6353
5252.7878
5801.5267
5850.1169
5880.4424
5815.0746
5503.4982
5163.4619
4332.3057
3920.1881
3436.9101
3543.9081
144.39897
2876.3589
2226.2026
1651.862
858.46042
824.18837
278.15055
360.79902
483.93763
625.81953
1414.6297
1984.7862
2141.0965
5522.7742
631.92142
225665.22
230082.07
205806.26
209682.47
214059.61
216853.09
219553.18
221584.23
222723.14
222545.77
221847.11
222304.12
220172.58
218616.43
216273.41
215275.92
212405.18
210207.6
207269.41
205117.14
202334.06
199884.15
196906.78
193897.79
190894.37
188562.58
185158.33
182173.56
179360.9
176489.11
172927.58
170277.9
167930.48
164674.49
161939.99
158945.83
156282.41
153142.05
150559.84
148082.4
145461.49
142664.08
140047.64
137196.67
134401.27
131615.94
128663.36
125784.72
122724.74
119695.57
116526.73
113344.5
110059.77
106731.13
103327.71
99869.384
96350.587
92768.939
89152.815
85486.317
81789.756
78050.96
74361.329
70695.414
66965.863
63357.056
59404.827
56184.627
53094.869
50019.288
47205.855
44643.984
42195.861
40174.85
38124.213
36527.297
34860.174
33664.496
32174.357
31314.004
30037.87
28997.419
28011.462
26982.69
25738.75
24497.286
23178.861
21460.342
20060.422
18869.1
16196.438
15013.051
13571.276
8317.1695
3857.7671
210631.22
192248.12
170948.67
178863.02
179367.29
182065.38
184212.41
186564.18
187394.95
188432.99
188257.93
188044.19
186777.71
186246.33
184452.25
182869.3
180751.1
179285.63
176888.86
174925.57
172516.63
169943.92
167809.48
165399.1
163134.23
160371.63
158104.49
155709.29
153080.96
150579.2
148290.5
145899.16
143149.56
140725.48
138375.04
135988.92
133584.24
131281.58
129001.38
126630.62
124212.85
122138.33
119413.65
117196.9
114708.41
112363.75
109837.26
107401.68
104784.84
102240.82
99530.864
96850.92
94053.367
91236.153
88346.022
85412.246
82421.833
79399.824
76330.481
73242.618
70127.753
67006.276
63962.588
60885.937
57936.046
55359.533
53106.403
50231.752
47907.715
45386.098
43043.284
40978.191
38695.075
37028.536
34835.923
33777.877
31696.188
31058.17
29133.533
28757.952
27046.017
26349.677
25262.288
23819.672
22472.893
21335.558
19672.829
18663.856
17112.553
15225.153
13445.773
11969.494
8542.4178
5303.2251
-662.42173
164387.06
165281.74
141397.94
149930.85
147137.16
151157.28
153769.72
155990.04
156076.71
157573.77
157154.96
157406.17
156361.49
155803.5
154169.56
153385.41
151468.59
150152.33
148103.25
146571.92
144511.82
142960.4
140836.83
139054.68
136680.36
134975.56
132807.75
130674.74
128634.48
126652.79
124448.47
122315.14
120379.57
118397.86
116454.3
114353.52
112640.42
110848.38
108877.32
106902.03
104905.81
102885.17
101126.64
99185.389
97264.999
95248.82
93213.669
91143.648
89030.728
86878.943
84661.162
82425.61
80104.233
77768.034
75359.341
72919.038
70432.928
67915.768
65354.033
62783.855
60180.986
57569.864
55001.208
52305.795
49859.752
47568.237
45546.707
42984.626
41014.9
39049.856
37138.055
35238.696
33429.14
31816.371
30399.949
28979.652
27864.541
26579.323
25707.266
24555.106
23639.283
22845.239
21575.763
20774.919
19623.679
18704.788
17230.211
16399.826
14838.987
13541.69
12162.387
9542.6288
7813.3733
3060.7779
978.39911
133655.12
133865.49
110541.08
119943.74
114775.86
120133.61
121220.13
122539.4
123463.94
125032.25
124689.19
125152.55
124250.15
124278.76
122916.51
122374.85
120765.27
120095.78
118342.17
117272.07
115627.49
114208.24
112608.57
111065.34
109547.35
107999.16
106334.97
104862.66
103192.81
101565.99
99963.577
98391.304
96778.605
95099.436
93676.829
91805.337
90398.52
88042.156
86254.62
84740.078
83340.04
81834.28
80193.953
78562.728
77000.539
75404.955
73804.119
72199.178
70544.481
68875.552
67159.305
65423.426
63630.831
61822.297
59951.097
58072.233
56137.764
54189.686
52208.779
50217.661
48219.263
46211.358
44217.229
42236.054
40380.204
38369.013
36800.467
34954.702
32886.759
31352.939
29875.617
28310.841
27087.168
25804.245
24609.434
23508.552
22493.376
21638.135
20704.164
19946.39
19157.026
18465.956
17571.808
16819.106
15898.625
15407.738
14340.639
13327.266
12201.231
11110.336
9307.2847
7928.2664
5464.1291
2806.729
-708.09947
109866.06
100063.19
82027.104
90022.89
87776.842
90769.618
91810.747
93504.094
93567.049
94764.837
94481.966
94706.509
94222.249
94179.028
92964.896
92821.157
91459.42
90976.624
89556.249
89006.717
87585.952
86851.25
85417.846
84611.263
83207.493
82171.99
80862.008
79707.801
78409.899
77294.928
76015.473
74842.133
73565.61
72471.197
71280.419
70098.702
69896.935
69843.645
68812.073
68735.704
67329.701
66181.432
65101.861
63940.848
62776.152
61535.153
60304.102
59024.541
57748.758
56429.239
55088.793
53728.284
52322.578
50898.876
49437.427
47958.936
46437.923
44910.396
43351.94
41776.736
40212.505
38572.704
37024.723
35454.581
33732.629
32386.996
30758.764
29294.734
27796.9
26422.399
25160.788
23716.956
21970.896
20901.406
19761.204
18879.278
18151.326
17375.739
16736.996
16156.291
15414.721
15017.517
14176.583
13863.257
12955.505
12732.333
11556.39
11049.587
9922.3224
8811.1641
7689.8694
6398.5171
4905.5828
2295.5039
9.9043696
69901.061
70572.042
54373.752
62638.291
58240.069
59831.393
61924.476
62330.874
62181.608
63930.177
63072.52
63797.634
63170.129
63371.285
62417.769
62627.748
61454.508
61471.133
60317.337
60034.619
58913.573
58468.449
57509.414
56994.954
56040.614
55465.734
54615.03
53974.961
53139.279
52410.794
51596.148
50822.04
50047.349
49286.505
48407.809
47794.615
47497.324
47336.019
47064.647
46984.005
46853.732
46058.385
45216.386
44440.724
43640.811
42816.366
41993.909
41175.568
40341.603
39495.754
38639.201
37765.393
36863.76
35953.203
35012.063
34050.412
33068.194
32068.543
31039.672
30009.844
28941.351
27907.479
26826.734
25726.643
24786.082
23589.545
22705.525
21689.919
20719.288
19817.221
18838.911
17824.205
16939.224
15767.4
14840.274
14228.484
13671.087
13088.212
12590.713
12229.493
11463.289
11457.856
10448.32
10540.781
9450.0348
9565.1145
8379.6438
8497.0757
7388.5985
7302.709
6424.7193
5499.9352
4282.2603
2337.8338
1270.7492
40434.794
36232.777
29302.731
34471.817
30085.165
32476.926
33223.553
32911.595
33221.366
33634.77
33467.776
33460.921
33357.628
33443.708
32866.949
33112.958
32326.656
32573.648
31768.41
32028.326
31282.604
31445.315
30803.26
30768.743
30154.227
30064.645
29485.647
29255.742
28732.416
28490.271
28003.425
27707.352
27268.453
26897.175
26523.675
26218.774
25753.02
25646.681
24853.742
24281.104
24025.228
23740.462
23324.602
23068.306
22753.853
22429.75
22095.459
21776.601
21423.349
21081.515
20722.825
20354.998
19973.88
19589.633
19177.685
18769.064
18332.241
17897.102
17428.072
16965.015
16477.765
15976.888
15464.485
14974.482
14399.144
13931.883
13371.747
12841.649
12345.95
11849.422
11394.365
10896.704
10410.011
10228.52
9900.6334
9582.0908
9205.2301
8872.3183
8626.8168
8260.8851
8016.9422
7817.8607
7294.9582
7420.0846
6672.9388
6944.8924
6170.5454
6373.1543
5603.6347
5406.3086
4523.5907
3898.6487
3565.6482
2670.3339
2168.5139
2321.1794
4915.1046
67.867698
3470.754
2270.8987
2722.4004
2820.9165
3117.5741
1885.914
3250.4448
2130.7484
2613.2604
2345.9359
2669.8143
2130.2677
2813.5883
2228.3815
2850.4187
2395.0717
2929.3529
2610.66
3189.9565
2721.1045
3101.758
2980.3593
3238.2709
3158.6957
3365.5817
3359.3876
3465.2359
3452.9789
3543.6914
3520.6921
3616.3269
3631.6962
3597.372
3769.9308
3826.3765
3746.7078
3634.9879
3723.9797
3865.858
3838.0338
3918.2191
3997.5954
4053.1258
4155.7086
4258.3216
4366.0563
4477.3712
4597.338
4717.2758
4835.4229
4952.3611
5069.1858
5178.2525
5276.4733
5382.9309
5450.0024
5542.4635
5582.6901
5640.2114
5666.0353
5671.2214
5697.4014
5652.8894
5638.6366
5597.1106
5530.8898
5459.9514
5323.6158
5225.3919
5044.9611
4977.0702
4889.1327
4805.2657
4604.1035
4522.2854
4336.2898
4230.6063
4144.3503
3859.2567
3933.1691
3633.0961
3538.5842
3564.9374
3075.541
3542.0716
2805.0645
3497.1637
3256.5489
3806.1412
3829.2666
3168.4602
3506.2853
-26303.182
-27171.989
-23753.64
-21868.946
-23177.561
-24606.296
-23553.984
-25731.859
-25344.256
-26059.753
-26096.985
-26464.143
-26108.628
-26178.272
-26097.677
-25527.088
-25737.484
-24901.755
-25153.334
-24289.049
-24416.193
-23873.886
-23790.791
-22861.639
-22779.801
-22035.694
-21856.086
-21139.254
-20912.509
-20310.94
-19981.309
-19463.059
-19103.25
-18595.932
-18277.875
-17732.219
-17410.688
-16917.381
-16512.043
-15983.006
-15564.773
-15089.114
-14661.876
-14148.39
-13663.289
-13173.409
-12672.343
-12145.512
-11628.424
-11092.89
-10540.116
-9985.9883
-9427.6823
-8854.1772
-8282.0493
-7713.8863
-7139.7508
-6568.5309
-6021.7234
-5462.8224
-4937.9714
-4424.7537
-3944.6489
-3458.4148
-3064.1642
-2630.1262
-2258.6009
-1900.3097
-1569.3323
-1274.731
-975.27793
-704.68477
-514.59179
-242.23086
-86.171672
-87.956394
135.19141
201.44725
353.56051
372.29111
527.74398
465.07724
689.20805
640.68417
744.64696
1099.2911
840.24318
1781.3459
1246.1744
2298.6319
1909.9902
2196.8187
2184.162
3111.7707
4453.3485
-62675.77
-62323.146
-51503.347
-53213.468
-54456.145
-55086.054
-56431.475
-56770.904
-58669.49
-58310.663
-59094.38
-58999.033
-59049.233
-58570.608
-58521.303
-57552.161
-57385.038
-56330.361
-55868.909
-54829.004
-54368.021
-52203.663
-51302.149
-50215.034
-49633.773
-48577.959
-47795.09
-46823.607
-46002.626
-45051.012
-44270.633
-43337.408
-42571.295
-41690.837
-40865.884
-40049.009
-39225.891
-38413.315
-37594.077
-36808.254
-35998.332
-35155.473
-34304.871
-33466.906
-32566.038
-31678.282
-30739.692
-29782.116
-28808.756
-27806.533
-26774.132
-25735.452
-24667.659
-23584.024
-22490.216
-21386.551
-20272.711
-19156.724
-18056.938
-16934.903
-15861.72
-14783.313
-13734.719
-12725.746
-11754.05
-10800.871
-9913.5563
-9091.3906
-8318.1724
-7603.7445
-6943.7091
-6349.7753
-5870.6558
-5043.1384
-4303.7586
-3999.1016
-3688.6586
-3505.1663
-3083.8082
-3191.3063
-2481.5976
-2918.2335
-2039.9509
-2429.5765
-1769.2187
-1605.3088
-1491.6454
-424.10682
-893.76103
771.05873
582.82796
1383.8018
2494.6124
3758.6892
5229.6682
-99760.051
-79040.784
-71749.979
-73170.335
-75585.045
-76805.075
-78463.004
-80042.355
-81790.775
-81969.742
-82483.097
-83014.954
-82515.216
-82114.098
-81866.538
-80623.502
-80448.255
-78913.76
-78435.471
-77404.087
-77096.203
-77177.654
-76710.107
-76108.108
-75353.864
-73782.094
-72917.781
-71302.622
-70223.593
-68830.248
-67664.864
-66353.909
-65224.245
-63907.414
-62727.525
-61471.77
-60323.873
-59061.106
-57896.182
-56659.296
-55468.317
-54203.398
-52989.825
-51700.026
-50420.986
-49103.148
-47778.035
-46408.172
-45022.896
-43601.584
-42150.365
-40675.254
-39168.713
-37641.506
-36087.94
-34526.226
-32943.07
-31361.259
-29775.323
-28198.994
-26636.995
-25087.993
-23597.06
-22109.947
-20733.7
-19351.85
-18074.339
-16814.778
-15640.559
-14516.499
-13478.621
-12590.308
-11608.946
-10802.512
-10031.974
-9015.0315
-8244.609
-7703.1768
-7193.8594
-6749.9702
-6473.7987
-5962.4304
-5740.4277
-5285.8046
-4851.3263
-4565.987
-3786.3862
-3531.389
-2549.6836
-1802.66
-1026.8355
551.66464
1773.5599
3569.3676
7056.5135
-119844.34
-115023.02
-103571.82
-102558.27
-104975.12
-106056.3
-109224.57
-110906.16
-111697.41
-113414.16
-113474
-113478.29
-113305.09
-112649.87
-111863.45
-110968.11
-109738.94
-108434.82
-107391.09
-105671.83
-105089.81
-103276.31
-104059.48
-103135.18
-101795.48
-100376.04
-98789.645
-96981.214
-95422.087
-93570.036
-92034.916
-90185.093
-88696.294
-86957.485
-85400.974
-83798.795
-82179.566
-80594.48
-79006.602
-77438.228
-75806.931
-74239.635
-72594.942
-70966.31
-69281.878
-67570.074
-65821.31
-64016.069
-62174.901
-60291.958
-58353.174
-56382.252
-54368.694
-52316.877
-50234.6
-48131.11
-46000.416
-43855.238
-41715.524
-39561.777
-37419.117
-35308.148
-33211.432
-31143.048
-29177.015
-27223.146
-25367.875
-23611.983
-21970.759
-20388.997
-19027.811
-17639.328
-16488.452
-15456.152
-14589.936
-13963.222
-13102.756
-12382.397
-11795.157
-11308.541
-10729.769
-10311.267
-9755.8125
-9292.021
-8604.1738
-8229.9409
-7113.9853
-6827.6945
-5549.0562
-4602.9799
-3763.1902
-1307.4356
511.27452
4540.8985
8528.1478
-171004.59
-154737.62
-130335.17
-138654.12
-136473.46
-142914.29
-143235
-146556.47
-147237.21
-148809.62
-148656.33
-148875.44
-148017.89
-147482.02
-145991.38
-144714.51
-143354.12
-141286.86
-139900.86
-137784.77
-136051.1
-134238.42
-131775.44
-129266.54
-127429.11
-125252.39
-123466.02
-121091.62
-119184.13
-116964.79
-114940.18
-112761.93
-110861.61
-108774.96
-106816.53
-104782.7
-102790.91
-100802.39
-98879.1
-96853.411
-94934.714
-92913.098
-90917.077
-88869.996
-86805.47
-84696.146
-82555.877
-80356.483
-78122.546
-75834.447
-73488.855
-71105.81
-68664.912
-66184.631
-63658.845
-61106.939
-58512.188
-55911.372
-53293.136
-50666.902
-48065.753
-45470.424
-42924.061
-40386.139
-37994.852
-35591.089
-33346.366
-31188.777
-29141.784
-27193.697
-25378.897
-23726.85
-22215.121
-20809.12
-19540.927
-18425.35
-17391.317
-16539.96
-15691.009
-14944.361
-14254.286
-13559.748
-12888.219
-12161.926
-11478.3
-10596.401
-9738.8721
-8898.0511
-7385.7133
-6730.0098
-4550.7561
-3030.9897
-798.01238
2582.9661
6923.023
-188979.17
-180655.87
-152577.33
-165255.14
-167439.83
-172187.1
-173838.62
-177809.56
-178827.22
-179332.65
-180313.34
-179353.62
-178797.93
-177785.77
-175788.63
-174602.84
-172489.3
-170269.81
-168552.33
-165870.91
-163871.21
-161473.27
-159050.02
-157054.43
-154234.69
-151859.42
-149431.36
-146634.22
-144600.16
-141717.47
-139508.69
-136756.1
-134390.96
-131834.8
-129505.17
-127233.34
-124822.08
-122620.23
-120203.09
-117987.64
-115648.57
-113334.39
-110996.4
-108605.74
-106178.11
-103678.13
-101119.6
-98488.78
-95787.618
-93017.516
-90176.792
-87276.514
-84316.389
-81302.963
-78243.305
-75144.641
-72009.466
-68846.829
-65664.303
-62469.501
-59271.23
-56083.579
-52922.044
-49765.716
-46720.839
-43625.924
-40734.882
-38010.29
-35464.034
-32923.375
-30758.851
-28672.865
-26779.166
-25154.105
-23653.447
-22356.771
-21244.057
-20260.351
-19379.504
-18637.993
-17888.338
-17195.064
-16451.585
-15743.81
-14811.056
-13996.446
-12904.088
-11767.551
-10407.579
-9388.3867
-6864.1198
-6212.1674
-2984.904
573.09237
6627.7765
-262541.37
-178484.47
-189306.41
-191438.9
-199433
-198099.03
-204385
-206561.68
-206728.68
-207996.2
-207745.05
-207592.57
-205724.45
-204571.02
-202307.13
-200657.77
-198632.21
-195752.67
-193676.15
-190928.55
-188084.35
-185477.29
-182996.49
-180051.74
-177515.91
-174366.83
-171710.61
-168498.89
-166381.45
-163185.03
-160638.25
-157492.57
-154825.11
-151632.02
-148832.81
-146529.67
-143923.17
-141199.18
-138584.06
-136005.71
-133321.72
-130707.57
-128007.52
-125283.15
-122499.87
-119651.42
-116737.18
-113746.85
-110670.7
-107528.62
-104293.2
-100999.57
-97624.333
-94189.679
-90695.817
-87150.907
-83551.847
-79923.937
-76258.979
-72571.246
-68880.307
-65200.11
-61533.345
-57921.579
-54378.756
-50823.464
-47406.87
-44121.187
-41234.827
-38445.678
-35950.968
-33465.322
-31364.754
-29441.154
-27751.422
-26274.117
-25058.414
-23891.69
-22956.234
-22046.897
-21213.901
-20368.275
-19596.074
-18608.325
-17703.913
-16668.094
-15377.079
-14219.057
-12822.2
-11383.917
-9589.5181
-9029.7089
-6072.4721
-3822.7109
2236.0186
496964.34
492207.51
476660.29
490415.9
492699.65
496164.36
514237.48
501702.36
498199.65
497586.77
493035.95
476583.73
471833.72
497245.83
421203.88
454938.38
471805
443501.81
460346.46
462287.09
472578.91
458301.05
475764.65
470633.24
473993.91
463258.53
461532.58
460799.35
465999.16
400766.01
342411.19
393460.78
346202.39
363178.39
363023.66
358653.26
364530.92
360208.23
363556.73
358073.83
356782.38
360093.51
336506.6
371261.44
343805.52
305199.98
307717.37
306723.8
302694.15
312260.71
309208.16
313959.42
314363.96
310517.52
311865.35
312440.56
300562.67
302095.12
324199.69
234037.56
218951.22
248457.46
215755.21
234330.06
226805.28
235161.82
231783.73
231535.48
232518.63
232689.5
228461.61
228765.05
225746.54
232316.49
209197.69
163322.91
172095.52
159125.94
165165.73
165051.66
166136.84
165330.4
165730.93
167080.51
165963.99
162031.78
168370.71
157902.98
169424.78
160286.9
93252.029
93887.964
94864.519
90726.803
95221.94
94935.676
95028.81
94956.008
93088.473
93776.342
93468.322
86865.459
94024.179
88870.797
87207.292
20973.721
21776.692
14523.765
20634.836
17382.805
18767.964
18216.418
18450.249
16745.958
21733.443
12447.15
20773.589
24982.753
9621.2586
44389.347
-44410.417
-52315.753
-45053.524
-50177.444
-48621.366
-49165.337
-49473.738
-48730.519
-50564.633
-45493.964
-52318.987
-45519.68
-43619.622
-60361.806
-2679.5324
-104212.34
-129962.7
-116060.87
-120767.26
-121035.04
-123145.41
-124135.04
-123536.9
-127704.91
-119805.61
-135279.79
-117552.38
-116309.4
-141361.35
-71772.154
-176699.97
-215446.91
-181750.36
-202426.29
-193162.92
-198191.29
-196204.44
-196803.68
-198418.16
-190145.97
-194274
-193479.92
-177693.67
-204487.53
-120843.94
-262930.5
-254358.83
-256118.71
-252132.53
-261899.02
-262857.77
-264977.08
-267492.83
-269057.43
-264124.09
-277731.91
-243897.51
-257445.63
-281946.21
-192159.05
-303457.45
-338757.93
-300589.41
-314577.6
-301928.58
-311974.85
-309033.77
-309522.04
-306241.53
-303912.14
-306276.38
-311050.35
-282403.46
-341082.52
-173034.86
-371450.56
-446840.94
-389579.77
-422633.4
-433866.02
-430247.82
-433720.77
-453022.25
-443647.28
-455334.47
-430002.83
-419034.63
-429886.23
-417294.5
-382170.8
-413592.92
-359262.57
-328433.71
-331671.94
-345749.41
-370684.68
-354933.14
-340701.94
-327204.71
-325301.8
-333338.55
-335556.41
-334818.64
-372266.75
-333835
-363577.38
-340997.31
-404598.39
-424194.76
-440796.29
-479466.05
-460983.51
-431534.31
-490501.68
-480412.16
-464053.12
-440082.39
-420633.45
-401732.33
-335357.03
-263923.53
-266100.95
-298324.53
-306082.42
-319745.48
-329891.46
-339124.68
-348417.67
-358162.93
-341928.75
-335014.97
-314927.61
-316216.38
-313270.41
-314161.06
-219090.18
-249998.24
-245615.47
-267735.58
-283825.87
-275493.14
-289121.17
-286229.61
-278000.65
-289556.15
-278205.66
-282044.91
-272669.83
-242946.35
-252629.7
-224588.3
-254401.66
-257849.58
-264275.33
-271098.86
-277543.65
-279420.81
-281901.2
-281204.55
-275259.43
-274770.73
-267627.63
-257375.59
-253029.49
-238326.65
-238496.76
-259931.87
-253210.77
-272555.13
-274731.15
-280382.72
-286492.74
-285591.42
-287190.14
-287140.02
-279285.14
-273745.33
-262080.05
-251633.32
-248498.83
-233199.93
-243648.14
-249762.32
-259591.83
-263133.78
-270473.02
-269959.55
-271354.45
-271288.8
-266835.79
-265264.6
-259498.79
-252517.88
-245997.73
-232916.5
-232858.94
-248730.99
-249495.68
-259298.33
-260128.19
-265779.04
-267680.03
-268464.04
-268089.34
-265709.89
-260212.55
-257170.53
-250461.32
-240528.05
-241913
-235529.16
-240439.97
-246788.57
-251112.67
-258000.09
-259575.88
-262126.85
-263213.41
-261915.61
-260588.71
-257373.59
-252896.28
-247662.3
-240312.47
-234391.11
-232035.22
-241247.88
-243034.52
-249685.64
-249604.21
-255334.16
-253902.44
-255945.3
-254498.51
-252411.56
-249852.24
-245778.4
-242662.52
-237442.64
-234877.16
-232920.48
-235607.78
-239990.12
-241997.58
-245963.26
-247094.03
-249129.38
-249134.73
-248448.72
-248207.77
-244867.22
-243290.36
-239670
-235282.97
-233547.55
-229534.72
-235204.25
-236600.98
-241209.67
-242195.71
-245836.22
-245346.39
-247216.06
-246789.35
-245290.25
-244489.75
-242203.82
-238979.95
-236262.11
-234306.78
-229830.82
-230671.57
-233838.1
-235093.07
-237143.27
-237813.5
-239426.84
-239628.41
-239680.31
-239093.67
-237776.82
-235684.64
-234444.56
-231598.73
-230994.23
-227706.48
-229251.14
-229889.88
-233028.17
-233770.84
-236373.39
-236124.87
-237517.3
-237352.93
-236888.7
-235299.14
-234943.37
-232397.76
-231311.48
-229534.19
-224763.09
-225956.69
-228469.84
-228691.18
-230657.3
-231022.37
-231552.74
-232477.95
-232312.44
-231602.43
-231119.5
-230246.92
-228880.99
-227231.66
-227595.78
-223176.69
-223439.21
-224660.71
-226439.77
-227113.09
-228053.99
-229014.13
-228609.22
-229421.97
-229384.94
-228577.71
-228132.44
-226053.45
-226270.45
-225176.61
-219794.6
-220972.44
-222758.42
-222667.07
-223683.65
-224308.82
-225802.36
-224758.32
-224443.9
-224325.44
-223278.4
-223182.51
-221424.06
-220889.07
-220540.34
-218333.29
-217874.2
-219502.91
-219296.26
-221083.16
-221787.53
-221765.36
-222225.75
-222652.14
-222548.32
-222014.53
-222099.6
-221601.68
-219521.02
-221418.14
-215685.17
-215740.15
-216733.53
-216696.55
-217580.74
-218038.45
-218538.31
-218124.42
-218094.41
-217925.02
-217073.89
-216861.02
-215748.96
-215505.93
-215215.98
-212148.12
-212539.55
-213763.62
-214479.6
-214654.65
-215127.04
-214638.89
-215783.23
-215515.54
-215743.65
-214465.99
-215337.95
-214154.05
-214807.44
-214225.44
-210092.39
-209698.19
-210740.08
-210348.59
-211509.03
-211696.41
-212586.7
-211782.64
-212324.46
-211792.15
-210818.06
-211764.23
-210220.57
-210686.19
-209839.94
-207295.71
-207018.82
-207994.61
-208010.79
-208185.37
-208262.41
-208897.25
-209328.26
-208786.84
-208953.62
-208562.23
-208864.53
-207737.63
-207918.84
-207457.95
-203298.47
-204044.73
-204553.08
-204755.17
-205381.88
-205298.57
-205880.47
-205493.16
-205813.03
-205572.84
-205047.1
-205712.06
-204595.52
-203766.27
-205118.67
-201542.29
-200549.68
-201552.45
-201701.03
-202021.66
-202310.71
-202691.47
-202602.86
-201962.67
-203062.58
-201637.53
-201986.37
-200693.12
-201892.05
-201486.33
-197559.26
-197793.12
-198335.26
-198785.73
-198740.58
-199257.39
-199060.2
-198933.25
-199218.02
-198895.34
-198138.1
-199096.1
-198328.1
-197906.03
-198050.4
-194745.7
-194906.34
-194948.78
-195330.32
-195365.54
-195226.7
-195999.45
-195823.32
-195701.14
-196136.17
-194795.8
-195860.6
-194768.52
-194976.42
-195141.54
-192234.21
-190980.72
-191992.53
-191499.69
-192016.19
-192391.79
-192598.12
-192333.6
-192443.41
-192432.42
-192447.89
-192171.26
-191056.9
-192000.69
-191237.16
-188143.47
-188178.14
-188052.58
-188918.47
-188545.65
-189479.13
-189001.49
-189271.32
-188938.3
-189144.13
-188367.43
-189539.75
-187703.84
-188234.98
-188968.42
-185910.68
-184403.16
-185139.36
-185120.12
-185716.18
-185732.77
-185547.74
-185647.25
-185722.89
-185554.57
-185244.06
-185199.15
-184758.12
-185766.3
-184552.35
-181628.72
-181931.6
-182224.14
-182122.72
-181889.66
-182412.14
-182227.94
-182460.16
-182215.18
-182449.87
-181779.24
-182490.29
-181271.2
-181392.66
-182409.16
-179866.35
-177785.3
-178607.3
-178859.69
-179059.42
-178878.88
-179024.38
-179058.32
-178826.65
-178804.84
-178251.69
-178949.97
-178001.97
-178744.14
-178708.3
-175832.02
-175183.27
-175397.68
-175611.36
-175269.96
-176221.57
-175416.28
-175671.51
-174945.08
-175780.96
-175129.51
-175720.28
-174907.22
-175141.57
-175491.77
-173294.6
-171650.45
-172334.45
-172360.08
-172269.63
-172589.44
-172272.8
-172399.11
-172134.22
-172490.87
-171779.29
-172548.86
-171628.83
-172152.57
-172265.39
-169926.92
-168740.61
-169101.62
-169247.84
-169061.61
-169474.24
-169033.75
-169279.87
-168941.23
-169261
-168702.17
-169282.08
-168561.75
-168965
-169035.84
-166912.61
-165591.11
-166081.85
-166077.94
-165967.67
-166201.06
-166019.98
-166104.21
-165790.46
-166090.82
-165480.06
-166176.9
-165465.06
-165929.77
-166111.18
-163599.68
-162806.34
-163135.5
-163170.44
-162960.44
-163409.24
-162897.45
-163168.48
-162778.3
-163194.21
-162552.45
-163207.51
-162353.97
-163034.98
-162585.91
-160493.15
-160157.12
-159929.36
-160881.63
-159842.59
-160319.05
-160059.4
-160029.78
-159881.7
-160043.8
-159471.08
-160051.18
-159609.4
-159625.59
-160576.51
-158571.32
-156859.39
-157439.58
-157269.06
-157508.17
-157246.59
-157324.41
-157179.81
-157032.58
-156851.02
-156726.53
-157402.99
-156631.83
-157149.77
-157148.93
-155101.31
-154314.64
-154458.76
-154856.34
-154228.88
-154777.83
-154275.72
-154564.68
-154131.42
-154468.52
-153926.83
-154489.01
-153965.87
-154021.74
-154459.16
-152786.22
-151353.69
-151956.44
-151923.89
-151818.3
-151954.57
-151747.14
-151782.81
-151495.98
-151752.21
-151175.46
-151867.39
-151063.6
-151390.29
-151588.42
-149728
-148783.95
-149173.1
-149307.07
-149025.89
-149337.14
-149021.97
-149105.07
-148832.53
-149017.17
-148474.13
-148961.38
-148421.74
-148530.16
-148843.89
-147133.94
-145966.87
-146540.23
-146554.12
-146445.77
-146595.06
-146392.93
-146437.39
-146145.22
-146385.58
-145766.52
-146341.46
-145662.53
-145735.96
-146028.85
-144234.97
-143295.23
-143787.03
-143905.63
-143735.78
-143963.09
-143763.23
-143745.89
-143527.97
-143658.52
-143113.65
-143577.95
-142922.08
-142921.07
-143249.39
-141485.73
-140477.44
-141075
-141132.04
-141040.78
-141251.38
-141042.82
-141057.66
-140796.27
-140950.03
-140354.29
-140785.33