/*--------------------------------*- C++ -*----------------------------------*\
  =========                 |
  \\      /  F ield         | OpenFOAM: The Open Source CFD Toolbox
   \\    /   O peration     | Website:  https://openfoam.org
    \\  /    A nd           | Version:  6
     \\/     M anipulation  |
\*---------------------------------------------------------------------------*/
FoamFile
{
    version     2.0;
    format      ascii;
    class       pointScalarField;
    location    "0.55";
    object      E;
}
// * * * * * * * * * * * * * * * * * * * * * * * * * * * * * * * * * * * * * //

dimensions      [1 -1 -2 0 0 0 0];

internalField   nonuniform List<scalar> 
28033
(
69251.08
68842.892
-2576079.1
-1207792.6
84852.323
79557.668
-1814849
-3860741.4
47692.76
33308.775
23027.405
16245.594
10100.287
6569.2872
4670.9998
4188.569
6061.2667
8795.9447
14336.843
21668.976
31170.392
42056.613
64029.579
-1434860.9
-1426844.9
-1420387.9
-1415427.4
-1410133
-1404762.4
-1400101.5
-1395057.9
-1390138.9
-1385249.8
-1380584.5
-1375700
-1370690.8
-1366463.6
-1034838.1
58118.647
39439.928
38589.139
38825.315
40103.148
40769.829
41442.584
41759.547
41882.589
41840.603
41620.091
41278.678
40820.826
40299.292
39694.143
39005.907
38353.185
37551.75
36851.373
35970.888
35251.455
34405.252
33583.622
32784.091
31940.387
31241.165
30332.85
29632.328
28859.607
28070.767
27372.525
26640.395
25960.187
25097.93
24401.266
23696.362
22984.875
22312.941
21553.148
20902.326
20164.454
19457.517
18796.009
18124.986
17475.024
16851.055
16222.245
15631.792
15036.565
14481.361
13919.975
13395.203
12871.665
12371.037
11883.702
11409.359
10951.605
10506.463
10080.324
9673.4935
9274.1375
8919.62
8565.0008
8302.5171
7940.4898
7733.0743
7556.6062
7224.641
7116.8694
6946.2168
6801.4721
6601.8017
6561.4416
6356.0607
6406.4123
6199.3248
6308.3127
6142.4317
6279.3233
6141.3773
6361.459
6142.0567
6461.0602
6238.0164
6547.278
6512.045
6960.4964
6847.4322
7414.8566
7808.8712
7513.1303
8690.4503
7866.9972
6864.9086
7920.2294
52992.929
32951.636
36951.706
35850.627
37026.526
37762.197
38143.466
38595.576
38765.553
38567.461
38550.751
38046.401
37660.981
37200.977
36575.843
36055.849
35263.54
34597.944
33901.292
33138.621
32329.517
31668.057
30761.177
30117.976
29265.757
28568.07
27805.716
26988.68
26312.599
25422.27
24785.815
24009.435
23403.844
22748.346
22144.96
21487.435
20708.739
20090.539
19365.674
18799.341
18110.504
17493.674
16862.932
16244.359
15633.395
15041.153
14454.547
13887.095
13336.903
12794.597
12280.504
11771.624
11286.067
10811.781
10357.359
9910.48
9486.6925
9075.9063
8674.3051
8307.8852
7937.6455
7613.8721
7279.4694
7011.4428
6714.5778
6523.7236
6302.7107
6200.5606
6043.006
5817.0923
5691.7094
5541.5134
5547.2291
5403.9111
5442.7051
5307.1317
5379.5671
5289.8688
5331.7585
5328.9526
5368.2638
5421.9156
5469.7717
5613.9445
5639.436
5868.919
5976.3686
6168.4562
6334.3494
6744.3197
6612.6944
7093.5194
7390.997
7593.9898
7382.3076
55884.818
38014.248
27510.294
21332.48
12526.49
8106.9714
6070.9181
5409.6106
7079.2534
11558.618
16018.616
24486.682
34473.634
48918.794
62141.42
101670.91
42991.553
31012.065
41088.567
37051.018
40990.932
39639.089
41270.635
40202.577
41018.358
40720.787
39891.484
39995.647
38944.621
39189.839
38009.174
37513.533
36168.45
35972.387
34740.813
33995.004
33311.991
32520.327
31900.316
31064.123
30081.686
29649.155
28380.458
28051.782
27127.496
26448.742
25730.483
24985.623
24293.008
23166.96
23086.753
21964.561
21343.149
20580.163
19848.768
19127.152
18410.84
17693.054
17003.685
16314.044
15646.554
14984.736
14345.581
13712.644
13105.493
12508.403
11933.089
11371.301
10824.802
10294.643
9773.6361
9271.975
8780.4539
8306.4059
7848.6444
7411.2785
6990.5073
6601.2015
6226.392
5880.2492
5586.4619
5262.8287
4605.8685
5946.4579
4441.8673
4438.4627
4217.5563
4061.4335
3944.0341
3834.5072
3731.1539
3668.1932
3607.9048
3575.5075
3569.7491
3556.4545
3611.9182
3622.9412
3740.3566
3785.406
3972.1742
4062.4401
4301.1539
4490.0136
4791.7657
5029.6058
5539.1706
5868.2416
6766.5802
4136.8285
-2914731.8
-2741534.1
-2443701.7
-2944392.8
-2460865.6
-2965212.7
-2478631.6
-2798993.3
-2997077.3
-2821394
-2515190.7
-3031709.5
-2534703.2
-3058647.6
-2885355.2
2809.0472
6475.8257
8329.0365
8077.7933
7636.4498
7257.9063
6904.0733
6645.2419
6361.8228
6180.7151
6052.4344
5879.6212
5816.6855
5635.2915
5585.2708
5481.2793
5480.7621
5449.7937
5479.0773
5509.3088
5557.0884
5628.3304
5724.2282
5822.8164
5956.12
6362.1125
6907.0951
5831.4901
6793.7303
6969.0086
7283.4761
7603.6879
7933.459
8296.5913
8680.6133
9083.7636
9508.3466
9949.1217
10412.048
10884.324
11380.925
11884.763
12412.825
12948.867
13508.339
14078.886
14671.368
15273.879
15901.97
16537.816
17189.835
17853.201
18547.608
19213.307
19911.74
20645.434
21501.401
22283.533
22689.734
23690.604
24451.527
24767.17
25885.883
26734.872
27359.256
28385.63
28895.792
29767.897
30664.235
31575.681
32504.278
33200.585
34218.899
35172.202
35733.162
36900.003
37485.404
38599.285
39094.381
39977.088
41077.732
41464.694
41764.743
42744.883
43148.045
42715.726
43635.402
43175.272
42724.956
41142.101
41368.237
41294.766
40208.846
35837.854
64886.129
50987.547
47460.799
45942.773
46054.505
47034.914
47706.147
47700.421
48135.678
48218.819
48001.041
46783.12
45992.487
47101.383
48711.248
54265.284
47250
48005.973
46616.789
48831.587
48694.682
48531.256
51539.499
54576.036
53209.801
52490.412
49906.323
47951.7
47218.154
46309.662
52569.03
-1359233.8
-1359849.8
-1359530.2
-1359643.7
-1359657.3
-1359645.2
-1359674.4
-1359659.6
-1359648.8
-1359718.4
-1359723.8
-1359802.9
-1359747
-1359971
-1360200.4
-2897709.9
-2898130.8
-2898375.4
-2898404.6
-2898101.6
-2898172.9
-2898205.3
-2898216.8
-2898277.6
-2898267.7
-2898364.2
-2898564.8
-2898482.4
-2899398.9
-2898342.2
44144.376
34970.937
32728.484
32481.284
32919.257
33399.885
33953.293
34292.783
34493.875
34568.671
34459.031
34266.793
33921.914
33559.817
33043.99
32565.056
31975.571
31394.709
30763.327
30169.284
29531.272
28864.387
28277.123
27575.833
26990.369
26338.84
25697.173
25105.553
24492.645
23889.171
23231.566
22690.914
22067.703
21516.626
20994.052
20368.865
19864.988
19208.126
18717.708
18148.139
17590.873
16990.546
16527.276
15940.835
15467.754
14927.666
14451.829
13966.991
13505.598
13055.317
12625.485
12201.639
11799.026
11404.335
11026.606
10658.002
10306.878
9966.7085
9643.4286
9336.1149
9038.5845
8768.6059
8499.6883
8279.7574
7934.0229
7847.4575
7702.26
7644.8077
7534.2025
7280.9456
7279.4104
7116.0881
7153.6685
7040.7546
7026.1739
6998.8566
6947.1081
6991.9082
6888.4845
7046.4067
6905.321
7088.7096
7254.2568
7148.2303
7343.8737
7289.6706
7633.8758
7522.7752
8182.2727
7609.2383
8585.3269
8416.306
8462.5395
10669.181
10213.331
29546.382
25671.488
25768.192
25202.018
25454.78
25506.175
25731.109
25919.09
26030.457
26056.055
25948.321
25860.077
25613.308
25344.055
24975.241
24665.145
24239.233
23816.837
23367.047
22920.383
22444.383
21989.181
21543.477
21058.031
20617.229
20173.048
19733.73
19266.52
18843.549
18410.542
17976.136
17575.587
17138.649
16695.115
16264.969
15791.997
15455.72
14999.554
14616.301
14177.884
13830.97
13356.83
13023.108
12598.919
12251.543
11890.049
11538.22
11212.609
10884.133
10584.858
10283.291
10005.479
9733.6888
9474.93
9227.7797
8990.3231
8764.9609
8551.0533
8345.0038
8159.4957
7973.336
7821.9046
7669.9418
7537.3388
7363.5284
7518.1386
7138.3993
7285.8948
7154.8439
7165.9579
7144.5848
7050.8796
7067.1739
6998.1048
7070.1035
7012.1708
7077.6761
7049.7505
7145.034
7079.8925
7281.1394
7106.2158
7457.8951
7340.3509
7760.0321
7676.0336
8149.9588
8023.1144
8351.7982
8522.4496
8923.3242
8613.2805
9811.8942
9354.9101
9608.6372
18956.581
16858.725
18435.114
18340.471
18668.919
18458.169
18597.037
18600.618
18610.625
18580.718
18530.869
18429.153
18238.821
18053.164
17834.784
17561.644
17275.647
16977.533
16686.222
16380.659
16090.111
15740.961
15471.636
15102.303
14846.559
14507.43
14210.32
13904.369
13640.231
13325.584
13043.195
12764.013
12477.31
12206.055
11958.824
11635.889
11343.278
10954.925
10757.274
10510.656
10163.243
9972.7475
9723.2985
9450.334
9240.6839
8989.6619
8771.5434
8572.7439
8366.7986
8188.8892
8011.3542
7851.2262
7697.2107
7555.1377
7421.2051
7296.9741
7180.1089
7074.3937
6972.7214
6886.6903
6805.9851
6739.5864
6682.2512
6624.5218
6644.9782
6561.3448
6856.4935
6691.2292
6598.816
6515.4152
6544.5563
6500.7408
6551.3265
6530.3048
6599.6224
6549.3098
6634.2459
6629.8209
6662.5339
6721.9784
6734.1362
6864.6648
6831.651
6974.5048
7150.979
7438.9823
7626.4801
7534.57
8233.0236
7824.2289
8495.1871
8670.9081
9007.6016
9374.009
9330.1332
12307.842
10440.99
11661.742
12180.125
12460.168
12500.805
12556.161
12582.011
12520.278
12558.554
12443.42
12430.224
12276.374
12224.737
12009.931
11920.52
11717.985
11561.065
11358.206
11172.434
10972.942
10795.487
10615.661
10434.315
10269.733
10083.383
9938.9193
9754.396
9580.6093
9424.4243
9257.3056
9092.635
8936.7481
8761.2924
8638.966
8367.0153
8380.779
8278.9494
8256.1788
8033.2361
7936.6443
7744.3808
7590.9631
7449.5014
7350.683
7209.0221
7113.2506
7002.8863
6903.7728
6821.7056
6737.2173
6671.2166
6604.9584
6551.5889
6500.8533
6460.6318
6419.4783
6394.3812
6359.7112
6353.1788
6326.7286
6330.6626
6323.9134
6352.3077
6327.0884
6411.2006
6363.6409
6500.6345
6499.5025
6547.8362
6675.6602
6728.4061
6683.1185
6701.0609
6780.1879
6773.587
6978.2734
6816.7699
7130.7549
6920.7549
7285.5653
7027.5317
7538.6917
7178.596
7583.7107
7415.5203
7833.0062
7834.7037
8315.4694
7996.4338
9167.3194
8325.0044
9770.1664
9023.735
9719.9829
7796.0935
5775.6229
6867.2766
7074.9783
7529.8612
7524.0559
7618.742
7538.4434
7550.4273
7512.7781
7485.3439
7450.004
7393.2126
7325.4016
7251.8139
7176.1231
7060.9331
6990.746
6890.8914
6799.0697
6726.5691
6614.2851
6551.0555
6437.3484
6371.5019
6273.5986
6211.0633
6111.9056
6084.2024
5989.5997
5937.2967
5875.0958
5800.9334
5757.2489
5673.5051
5558.7841
5741.5024
5320.0213
5601.1591
5596.7371
5496.366
5399.9164
5374.2092
5291.8389
5233.5218
5157.0406
5125.3057
5074.5855
5052.6262
5030.8777
5020.1913
5018.5378
5021.9749
5034.8279
5052.5572
5075.9446
5103.3346
5140.1075
5171.9275
5219.5973
5269.3843
5310.8234
5376.1978
5457.5001
5495.6451
5587.8934
5784.6803
5700.5869
5885.5937
5857.4541
6042.3939
6076.0544
6240.7306
6472.7528
6536.4542
6666.6657
6691.7895
6792.7037
6858.6389
6927.0799
6951.1664
7193.3645
7007.9988
7393.7587
7258.6447
7548.9071
7739.6574
7740.1451
8147.1933
8246.5129
8672.3453
8572.7845
9363.7973
8968.4131
9771.262
4723.4367
2840.2431
3233.3165
3327.0341
3631.2449
3760.453
3787.6121
3881.1532
3854.0903
3922.8954
3862.0581
3934.1423
3857.8805
3921.2974
3851.2872
3890.4613
3839.6261
3866.5253
3813.794
3839.3297
3806.0336
3814.4726
3801.9645
3800.4031
3811.4796
3815.6629
3820.3668
3833.8662
3831.7492
3832.3444
3858.937
3850.3143
3877.5259
3885.8012
3879.982
3953.6591
3882.7148
4243.4543
4288.7403
4153.7343
4188.6472
4151.2848
4172.2861
4175.5508
4178.2502
4189.6387
4208.849
4236.669
4268.8421
4310.3836
4354.5684
4409.0851
4466.0521
4529.9488
4596.0605
4668.2914
4740.2841
4819.3772
4895.5337
4985.0682
5051.3873
5167.1182
5234.207
5330.6696
5436.9989
5542.8247
5614.3447
5735.4864
5876.6261
5962.2624
6004.1278
6125.7146
6061.1344
6096.7799
6330.4951
6336.5112
6503.0422
6435.8978
6684.5018
6486.943
6924.9904
6564.1081
7139.3397
6854.61
7306.4133
7333.3456
7609.9427
7656.261
8207.4498
7885.6973
8817.9446
8292.4112
9640.3832
8774.8916
9893.8679
3317.078
1113.706
1230.828
989.08866
1208.2757
1214.9597
1337.9971
1335.8767
1400.5434
1418.5946
1453.4257
1487.6199
1508.4066
1537.1378
1541.2043
1582.6272
1565.1943
1610.654
1603.7715
1638.6227
1652.9248
1683.4596
1705.4428
1737.9607
1787.085
1802.7101
1870.424
1900.1816
1968.5132
2018.8506
2073.9139
2124.8856
2191.202
2222.8457
2312.7085
2319.1307
2440.4988
2411.8346
2546.6274
2473.5611
2656.9107
2682.8659
2768.1778
2827.5488
2888.8585
2949.9748
3034.4945
3105.4415
3198.2593
3288.0044
3392.0508
3494.6553
3608.4815
3721.0426
3841.9865
3961.4223
4084.3837
4213.6605
4334.855
4465.3709
4599.2643
4727.3011
4852.8789
5006.9657
5130.1591
5266.1873
5420.2629
5554.3522
5711.2639
5793.3679
6046.2729
6044.0573
6220.0278
6312.6295
6385.9324
6547.1599
6509.4546
6734.6604
6681.7878
6927.4495
6858.4973
7116.5049
7116.8345
7268.3534
7406.8915
7462.5521
7654.7567
7788.7137
8092.4206
8113.4357
8860.7191
8575.2881
9478.5257
8749.0565
10169.32
2808.323
647.32142
360.49763
95.585739
102.11018
199.61018
225.3901
315.68866
359.79277
455.95315
462.54263
577.5139
576.415
677.00585
700.56669
791.73386
812.99837
923.86729
936.99576
1046.7222
1066.2077
1144.0898
1204.863
1303.2856
1359.5116
1448.7382
1524.3791
1597.5063
1681.3128
1746.4152
1834.4986
1918.5932
1984.1351
2083.3817
2149.7923
2239.2019
2301.002
2431.8667
2451.8182
2522.5555
2587.0863
2618.8461
2679.8023
2755.0784
2823.0533
2918.0107
2999.4998
3093.924
3188.4709
3292.5158
3396.372
3510.8792
3622.6257
3743.6053
3863.8436
3984.4574
4111.2499
4236.3775
4354.0869
4496.4788
4608.9061
4743.6961
4874.602
5009.3585
5122.27
5273.6389
5394.3981
5519.1472
5614.7646
5790.5282
5800.2937
5968.0193
6045.85
6108.2323
6245.3188
6279.093
6396.6544
6435.0777
6548.8311
6513.5646
6776.1941
6572.8836
7021.8121
6753.612
7242.8066
7170.1837
7527.0528
7728.3981
7932.3358
8091.7098
8581.5073
8058.7907
9370.7273
8678.8235
10192.124
3686.2934
1244.2412
881.45701
489.09768
446.77327
443.58026
467.31656
482.31431
528.85638
563.54102
603.54674
648.19364
685.22904
730.97992
752.94029
809.44833
814.75876
882.06851
895.8228
975.32044
1066.051
1184.5253
1196.3198
1232.9154
1277.1601
1330.1673
1387.4246
1440.0436
1517.8948
1566.9321
1654.1933
1694.5459
1775.5667
1843.3317
1892.8526
1975.4242
2027.9631
2106.5093
2157.9384
2220.609
2283.1669
2358.7791
2435.3504
2501.9239
2578.5506
2639.2184
2725.9991
2803.85
2901.8805
2994.872
3105.7532
3210.9929
3328.9183
3447.2743
3568.303
3692.3653
3820.4356
3941.9946
4076.1668
4204.583
4328.2402
4472.3396
4598.8656
4735.4236
4872.1743
5025.6149
5150.6137
5286.8933
5473.55
5547.2132
5735.0445
5857.5139
5879.5406
6070.5966
6093.7748
6291.0929
6258.5598
6481.3002
6345.2402
6722.6694
6501.4606
6862.3152
6874.5254
6895.6863
7336.9677
7053.376
7585.4588
7456.5314
7686.7566
8063.3756
8197.5367
8515.2529
9293.9053
8657.6589
10163.975
5759.6476
3206.4537
2803.0313
2522.9681
2496.9687
2497.5015
2519.9264
2516.1667
2581.8957
2656.8189
2666.1242
2771.7836
2795.0898
2855.2711
2898.0538
2946.5747
2954.6168
3036.497
2991.8966
3053.5966
3103.504
3048.6429
2992.664
3026.9765
3081.4037
3112.1918
3137.3379
3184.2549
3212.4472
3247.2545
3282.022
3317.3513
3363.3464
3378.5994
3444.6956
3461.3464
3499.7812
3541.8245
3553.7906
3605.1627
3621.3039
3664.6794
3665.5406
3712.6655
3734.1592
3783.8594
3825.7113
3880.1303
3931.6641
3997.2785
4061.5974
4134.1361
4211.1146
4291.2237
4373.6479
4461.4701
4545.7195
4638.6464
4728.0588
4818.7387
4917.292
5019.0187
5107.0648
5228.4939
5314.8907
5431.4153
5518.9994
5670.4464
5723.3412
5864.0505
5961.9942
6021.4328
6143.3454
6281.7493
6297.8611
6359.2877
6473.7606
6459.448
6717.1096
6535.5635
6862.4979
6739.3019
6967.2791
6976.9432
7193.5836
7216.6988
7492.2339
7674.2479
7829.4531
8092.5645
8366.7382
8346.3068
8838.1541
8485.1145
10224.114
6706.3768
5263.3101
4804.0642
4842.8366
4746.8935
4806.8608
4678.5028
4696.8678
4698.5883
4735.4539
4699.4847
4781.5458
4728.9716
4763.9459
4720.0057
4720.2069
4671.0588
4668.244
4603.2218
4604.3211
4635.9568
5171.0292
5068.2591
5108.6198
5075.9961
4995.9674
4981.4254
4893.3098
4874.6528
4806.6224
4783.4187
4758.0894
4684.504
4691.2275
4616.8229
4596.5207
4559.6372
4522.1967
4497.9208
4452.9983
4432.7473
4383.4434
4376.5485
4337.2239
4328.3827
4299.8264
4295.9832
4284.9712
4293.369
4300.5843
4322.1317
4345.0126
4379.0388
4414.1587
4457.9862
4502.0162
4553.0127
4606.6609
4659.1079
4721.3386
4787.4146
4845.0297
4927.0947
5010.0876
5083.5739
5189.3881
5291.9085
5363.7916
5478.0621
5586.6781
5661.0846
5792.2792
5872.1749
5949.0882
6355.2201
6300.3512
6342.65
6478.1631
6411.9865
6683.8614
6593.8547
6857.8173
6852.5651
7062.6919
7182.4164
7306.476
7618.137
7611.3974
7967.8911
8157.7249
8198.8567
8651.3846
9016.9119
9165.7373
10028.03
14543.313
9498.1061
9929.0195
9734.6116
9794.8345
9573.2886
9623.4879
9569.5518
9591.3594
9602.6888
9633.7192
9620.9686
9608.9505
9543.3531
9536.0099
9399.7043
9353.3941
9240.5567
9120.5872
9051.7459
8865.583
8794.9897
9362.1109
9378.6588
9240.687
9155.7219
9007.8659
8889.791
8762.2306
8610.7767
8521.609
8354.398
8253.8769
8116.7051
8009.3603
7893.2172
7760.4881
7655.8106
7508.235
7414.8886
7259.9498
7167.126
7023.7581
6921.0171
6799.5674
6700.3096
6596.1117
6509.6026
6420.9349
6347.7596
6278.2835
6217.2983
6164.2563
6115.9397
6074.7138
6037.2526
6006.9284
5978.2854
5955.4657
5944.7583
5924.3563
5931.0712
5929.4806
5951.5014
5951.3406
5999.7592
6006.8517
6078.2962
6122.8357
6172.9806
6239.3398
6280.6791
6358.8147
6410.0136
6444.1661
6415.0185
6512.3885
6501.4981
6628.6738
6637.0831
6708.69
6814.1694
6809.1633
7043.6567
6955.8433
7331.8847
7187.7807
7595.2022
7674.6615
7911.8202
8182.7172
8521.677
8595.2007
8700.8376
10089.791
21994.774
17855.164
17465.598
17123.151
16739.976
16669.574
16650.417
16557.666
16705.596
16665.028
16649.574
16628.219
16475.734
16356.743
16182.051
15898.11
15734.711
15404.019
15178.635
14882.766
14610.765
14355.774
13974.652
13687.28
13414.992
13038.299
12807.921
12471.072
12154.027
11911.492
11588.607
11379.255
11071.228
10865.397
10570.8
10296.894
10066.389
9792.0784
9579.4345
9298.8452
9094.7654
8832.8778
8618.9576
8378.5824
8164.141
7942.4966
7739.3762
7538.8999
7353.1317
7175.564
7010.3105
6853.2743
6708.8522
6570.4231
6444.1918
6323.9922
6213.2154
6109.7803
6017.7697
5929.1966
5854.9834
5789.9726
5731.3538
5694.0168
5666.9356
5669.8206
5675.7262
5679.0288
5677.9427
5727.4085
5728.1834
5820.2609
5824.2656
5881.265
5967.8504
5971.3885
6039.4548
6111.567
6134.5523
6236.0356
6312.82
6403.7364
6524.744
6648.9617
6793.3031
6982.725
7081.9215
7507.6304
7357.6892
7967.7457
7799.9107
8333.2763
7922.1483
9176.4676
10019.364
31548.352
25964.935
24936.524
24070.627
24456.666
24365.123
24592.123
24843.593
25090.213
25111.573
25183.051
25061.782
24921.687
24684.145
24380.635
24043.412
23671.103
23271.858
22831.44
22413.848
21940.496
21485.206
21024.426
20646.196
20170.016
19739.623
19350.544
18870.064
18481.12
18021.683
17641.835
17180.017
16770.519
16400.543
15968.449
15600.593
15203.793
14841.499
14409.817
14057.371
13647.836
13276.842
12890.567
12522.796
12152.848
11801.125
11449.507
11117.189
10790.59
10478.564
10179.137
9888.7471
9613.0539
9344.1109
9090.522
8840.4661
8605.652
8380.4419
8160.295
7963.045
7765.7451
7599.807
7423.8349
7298.4097
7138.0224
7046.7045
6940.4178
6882.7725
6829.1128
6765.3519
6776.4613
6706.4929
6737.2059
6694.7859
6760.775
6689.584
6778.1107
6742.5
6801.4306
6857.6327
6875.0302
6990.0906
7008.5282
7185.5498
7193.2679
7419.9499
7479.2589
7703.3637
7693.1669
8233.5604
7916.8998
8630.4503
8452.9754
8748.3008
9667.9778
38322.059
31865.385
29946.476
29954.124
30878.778
30973.709
31651.514
32101.599
32308.531
32540.982
32379.633
32369.473
32056.195
31650.257
31294.149
30702.295
30290.829
29690.478
29048.659
28473.772
27899.393
27126.168
26707.407
25904.004
25311.726
24727.178
23988.196
23592.634
22828.032
22504.054
21769.145
21269.477
20640.179
20057.104
19524.906
18952.181
18610.345
17933.943
17516.624
16923.691
16452.928
15921.361
15428.251
14924.048
14439.002
13959.887
13493.488
13043.4
12601.315
12179.769
11766.446
11370.097
10986.675
10617.707
10260.439
9918.5903
9592.4241
9273.5609
8979.2915
8691.4449
8430.0254
8176.2219
7956.7414
7744.5317
7548.0208
7363.4921
7178.2808
7066.0824
6926.1539
7026.7318
6818.2268
6874.7858
6768.2544
6787.6359
6734.6605
6764.0787
6737.3285
6776.2184
6795.7358
6804.8151
6853.5505
6912.1095
6965.8811
7046.8487
7174.1167
7273.6034
7390.4735
7659.546
7758.9625
8041.8131
8386.7612
8888.0226
8691.0636
9681.3646
9494.2429
28410.394
26560.718
22145.262
21522.224
20940.771
21056.01
20593.192
20969.084
21108.831
21210.59
21228.185
21264.19
23179.698
25163.457
31620.386
19803.533
15943.742
13693.409
13479.693
12533.769
12476.45
12074.059
12319.555
12516.629
12467.307
12727.614
13219.682
14416.167
16793.247
21450.367
13372.475
10266.295
7434.9094
6930.0106
6197.7813
6003.5317
5919.1919
5782.0095
5869.3041
5996.0316
6343.0493
6765.8678
7871.4416
10444.896
14228.576
8895.6287
6718.3121
5128.8079
4348.3736
4063.9451
3816.2733
3744.9114
3638.153
3797.4073
3913.7436
4204.4284
4551.6523
5777.5884
7443.7548
9837.2382
5710.2911
4176.572
2826.2674
2406.599
2043.381
1903.5899
1819.287
1783.0957
1832.9277
1956.7732
2135.0192
2558.5081
3314.3132
4434.9809
6665.6348
4419.9515
2839.1005
1920.4023
1586.1465
1326.8362
1232.0602
1157.1488
1160.4596
1188.7601
1254.8818
1452.907
1670.5751
2172.8778
3162.9579
4847.8726
2842.1761
1844.047
1287.9293
973.4606
805.17261
668.92995
622.47655
596.00537
624.53423
685.36228
814.11205
1045.5464
1406.4697
2171.7956
3581.7209
2810.8484
1745.3891
1153.7515
883.92945
693.15304
597.43476
538.5518
536.41927
561.72443
629.18575
772.8007
988.274
1345.4354
2078.2155
3494.0033
3248.138
2094.976
1438.1487
1100.5188
883.52938
761.70385
695.37159
687.77615
710.57721
830.1083
924.42513
1160.6956
1559.6845
2419.4455
3631.6155
4854.0074
3447.2081
2204.4738
1782.9394
1411.2893
1273.0083
1156.8001
1141.6082
1164.0913
1237.8541
1523.529
1713.7814
2477.0577
3760.6112
5726.6654
6579.0249
4912.1087
3196.5985
2720.5979
2167.1592
2013.6666
1856.2897
1868.609
1902.4337
2002.593
2330.918
2809.1562
3713.1103
5323.01
7385.7356
10537.32
7185.196
5325.7449
4536.7299
3877.9453
3568.3495
3412.8225
3354.8549
3435.6811
3554.2372
4031.2731
4132.1664
5686.7937
7816.1784
10957.443
14201.78
11133.697
8378.0028
7350.5744
6456.0705
6267.1569
5935.4445
6066.0019
6062.4532
5999.2656
6645.4489
7096.3628
8598.6639
11601.725
13762.48
21708.817
17530.549
13987.959
12959.888
11870.993
11455.748
11544.627
11638.738
11473.805
11629.157
11801.036
12489.443
14159.637
16503.342
23269.786
29159.355
30031.922
23491.583
22667.876
21355.134
19972.111
21149.749
22066.829
20599.69
21746.21
21277.815
22042.071
23607.69
26853.55
32994.765
67454.134
54903.865
54909.795
55799.326
56711.773
56266.09
59200.944
62055.337
63429.325
62349.928
60361.227
57214.935
56535.76
58242.11
56974.712
49700.841
44518.888
41828.901
40384.325
38598.756
39633.614
39001.639
39113.455
41437.505
39596.094
40242.527
39799.746
42526.107
45498.986
51919.69
41757.912
42933.544
40645.446
39055.202
39125.602
35998.279
35743.55
36008.854
34516.79
37176.647
37285.028
40523.631
41995.628
42491.398
43649.621
41091.835
45084.523
44219.718
42905.738
41937.052
41407.533
40956.667
41122.837
41193.439
41606.571
42626.053
43827.238
44353.586
45200.503
42179.539
41359.883
43805.587
44398.42
45073.826
43841.185
43336.294
43279.859
42895.17
43338.484
44194.724
44391.808
45434.509
45258.034
43914.585
41209.15
41349.163
44747.837
45146.821
45456.218
45563.817
45345.644
45015.598
44935.997
45130.488
45086.66
45767.901
45898.633
45477.806
44416.697
41472.254
41339.382
43809.131
44891.637
45829.595
45767.735
45817.955
45922.905
45855.74
46069.751
46252.831
46028.214
45985.311
45115.955
43202.587
41706.858
41749.183
43520.624
44815.852
45617.005
46175.842
46156.31
46202.868
46315.301
46219.671
46267.986
46086.366
45550.827
44762.174
42785.977
40461.105
40959.034
42734.289
43977.532
44802.338
45019.758
45476.59
45546.27
45573.781
45746.562
45376.474
45093.465
44468.456
43639.259
42088.878
41180.889
41200.381
42222.085
43493.869
44190.767
44857.409
45075.332
45289.671
45303.538
44975.538
45155.116
44653.88
44277.732
43230.325
42056.504
40857.437
40284.468
41462.095
42546.075
43258.135
43655.982
44082.98
44231.232
44309.54
44460.724
44031.797
43943.447
43156.18
42563.086
41377.621
40457.878
40296.94
40747.246
41821.136
42394.87
42941.973
43190.798
43410.261
43417.382
43316.961
43148.778
42692.223
42262.351
41438.175
40588.873
40092.288
39649.38
40178.857
40720.978
41466.748
41902.412
42239.233
42396.34
42538.982
42649.366
42379.806
42141.672
41721.573
41019.09
40370.507
39556.774
38920.235
39262.784
40463.873
40556.438
41115.853
41280.539
41399.943
41472.887
41408.613
41166.963
40834.543
40464.175
39796.612
39221.989
39026.661
38458.806
38608.886
39183.968
39738.262
40168.743
40275.36
40697.875
40291.443
40651.742
40473.158
40307.027
40009.741
39345.53
39047.235
38395.643
37535.024
37816.274
38686.499
38857.111
39166.576
39423.869
39793.664
39522.597
39475.712
39210.049
38955.193
38685.43
38124.161
37736.615
37538.538
37132.329
37037.898
37687.672
37642.251
38360.38
38429.182
38619.547
38532.488
38750.246
38561.487
38531.757
38198.226
38070.849
37150.65
37457.192
36291.892
36352.885
37036.234
37089.999
37328.912
37556.2
37647.545
37641.794
37604.999
37398.442
37145.1
36860.968
36418.405
36179.848
35925.595
35468.768
35443.364
36082.519
36372.565
36568.91
36607.657
36627.094
36683.767
36845.542
36657.697
36477.007
36400.963
36145.941
35991.942
35847.964
34801.712
34680.051
35171.733
35134.315
35541.952
35683.2
36046.295
35769.241
35858.202
35651.994
35399.885
35391.074
35040.42
34693.596
34477.346
33967.402
33898.784
34506.914
34516.308
34720.724
34605.077
34943.904
34857.039
35036.839
34663.972
34860.771
34520.298
34485.774
34113.774
34108.826
33035.423
33041.431
33471.312
33611.752
33816.842
33964.311
34074.479
34032.711
34032.099
34082.724
33860.345
33744.706
33452.636
32930.738
33377.137
32469.015
32152.146
32797.761
32727.675
33019.999
33009.247
33184.14
33093.011
33111.651
33099.156
32888.757
32697.09
32470.667
32330.498
32403.571
31437.888
31467.955
31829.636
32015.236
32071.465
32213.205
32278.148
32187.254
32299.427
32106.527
31964.813
31970.296
32008.745
31436.667
31736.684
30885.265
30744.331
30974.384
31004.918
31294.831
31092.403
31572.374
31322.708
31506.364
31352.48
31351.438
31141.533
30847.522
30622.093
30918.539
29921.854
29672.522
30282.903
30088.602
30404.383
30542.318
30669.036
30470.711
30685.642
30413.357
30561.841
30413.197
30212.922
30039.492
30019.221
29230.084
29030.597
29380.958
29381.006
29851.25
29636.637
29857.191
29753.857
29863.49
29738.165
29660.935
29475.222
29329.792
29053.556
29449.754
28465.921
28098.091
28672.64
28463.681
28886.461
28779.392
29006.961
28877.152
29044.125
28848.094
28913.139
28689.122
28641.635
28552.713
28441.957
27727.122
27504.983
27969.322
27810.914
28085.6
28073.194
28233.77
28156.182
28255.536
28120.846
28087.875
28045.636
27744.784
27470.296
27988.195
27110.684
26507.843
27115.509
27065.777
27439.979
27300.089
27491.994
27347.853
27412.364
27265.955
27288.327
27109.469
27099.296
26893.312
27144.753
26328.238
25951.069
26599.537
26346.964
26655.976
26647.723
26733.424
26577.044
26700.737
26545.208
26685.141
26416.153
26497.586
26012.711
26475.991
25832.545
25137.518
25784.995
25566.941
26032.012
25782.693
26103.724
25873.351
26111.717
25865.196
25896.869
25749.94
25708.835
25405.701
25770.173
25021.564
24445.642
25119.743
24907.303
25256.518
25117.243
25405.827
25119.992
25359.555
25075.736
25274.91
24964.196
25064.951
24661.936
25071.72
24360.853
23768.765
24404.599
24132.188
24577.879
24386.427
24673.424
24451.729
24646.374
24443.574
24491.509
24311.092
24351.071
23990.198
24396.624
23596.786
23098.743
23771.553
23611.719
23848.514
23713.456
23962.489
23765.933
23971.231
23784.56
23858.073
23680.531
23677.669
23451.814
23529.926
22976.232
22564.471
22889.939
22881.263
23038.073
23005.99
23183.13
23063.411
23179.14
22907.971
23060.632
22876.086
22909.971
22512.087
23080.937
22238.872
21706.001
22268.891
22071.256
22453.915
22236.584
22522.105
22282.85
22468.174
22260.037
22395.466
22210.93
22192.751
21948.599
22243.893
21613.948
21114.35
21661.437
21534.226
21741.523
21647.812
21859.148
21661.826
21860.181
21620.946
21788.015
21446.411
21664.885
21140.965
21613.157
21132.952
20342.315
21028.222
20695.105
21165.363
20877.476
21233.338
20918.445
21176.63
20905.507
21004.304
20842.099
20877.594
20493.408
20929.785
20352.705
19682.275
20325.112
20086.681
20416.724
20214.704
20520.68
20227.448
20511.112
20180.877
20405.593
20055.488
20237.462
19785.809
20235.035
19756.286
19009.896
19691.392
19355.086
19790.678
19507.568
19851.75
19553.289
19788.868
19548.503
19671.822
19420.718
19553.932
19087.316
19560.413
19066.582
18356.95
18997.502
18720.224
19098.065
18835.297
19196.074
18838.781
19161.849
18823.667
19016.511
18722.928
18864.719
18414.352
18890.794
18446.947
17691.566
18366.755
18038.097
18435.774
18175.195
18493.087
18200.515
18451.538
18169.046
18337.698
18044.567
18194.855
17735.627
18212.019
17790.421
17059.715
17705.094
17379.618
17785.259
17494.711
17863.279
17512.888
17801.644
17504.556
17666.318
17389.782
17533.448
17077.673
17556.334
17173.219
16415.979
17070.784
16739.162
17118.897
16866.847
17193.906
16870.276
17144.02
16848.756
17011.871
16735.508
16872.665
16423.956
16902.009
16547.302
15794.905
16453.622
16085.306
16490.12
16212.604
16559.45
16223.399
16494.612
16210.15
16362.818
16096.724
16231.163
15789.07
16263.541
15939.822
15189.743
15827.805
15472.959
15858.817
15600.342
15940.099
15596.07
15871.318
15583.474
15730.083
15471.136
15598.173
15164.619
15635.104
15351.668
14585.459
15241.234
14860.113
15249.813
14990.285
15323.266
14978.45
15254.687
14967.609
15114.407
14859.345
14989.192
14559.738
15026.662
14763.786
14013.641
14650.079
14265.129
14657.417
14403.153
14736.502
14388.149
14663.711
14375.558
14516.554
14265.495
14392.281
13963.556
14431.006
14209.148
13446.255
14083.249
13697.496
14082.608
13823.675
14149.621
13795.086
14075.205
13786.043
13930.05
13681.991
13815.325
13387.987
13858.076
13655.321
12896.587
13532.4
13135.72
13514.776
13263.733
13590.148
13239.59
13521.603
13230.465
13369.715
13125.925
13256.337
12827.184
13298.988
13123.65
12367.512
12992.393
12592.758
12974.543
12717.756
13035.486
12678.52
12960.551
12666.664
12813.273
12571.37
12708.01
12281.611
12756.298
12606.655
11847.033
12467.247
12070.557
12439.884
12182.51
12501.613
12150.047
12434.979
12144.645
12286.655
12046.779
12183.435
11754.202
12229.979
12099.727
11341.802