/*--------------------------------*- C++ -*----------------------------------*\
  =========                 |
  \\      /  F ield         | OpenFOAM: The Open Source CFD Toolbox
   \\    /   O peration     | Website:  https://openfoam.org
    \\  /    A nd           | Version:  6
     \\/     M anipulation  |
\*---------------------------------------------------------------------------*/
FoamFile
{
    version     2.0;
    format      ascii;
    class       pointVectorField;
    location    "0.55";
    object      lm;
}
// * * * * * * * * * * * * * * * * * * * * * * * * * * * * * * * * * * * * * //

dimensions      [1 -2 -1 0 0 0 0];

internalField   nonuniform List<vector> 
28033
(
(0 0 0)
(0 0 0)
(4470.6939 -1196.0737 14.859928)
(4052.0502 -2000.9994 -25.052099)
(0 0 0)
(0 0 0)
(4081.49 -1975.1083 -4.5987118)
(4501.7916 -1175.3858 -7.9732572)
(0 0 0)
(0 0 0)
(0 0 0)
(0 0 0)
(0 0 0)
(0 0 0)
(0 0 0)
(0 0 0)
(0 0 0)
(0 0 0)
(0 0 0)
(0 0 0)
(0 0 0)
(0 0 0)
(0 0 0)
(4441.7727 -1249.9761 9.3521843)
(4412.9885 -1303.3838 3.6922371)
(4384.8397 -1355.3395 -0.68297719)
(4357.4944 -1406.2833 -3.8608652)
(4330.8096 -1455.8839 -6.270982)
(4304.9369 -1504.6933 -7.3522363)
(4279.6214 -1552.7225 -8.1841391)
(4254.8049 -1600.4989 -8.4967984)
(4230.5796 -1648.1215 -8.5029887)
(4206.105 -1696.0981 -8.6699484)
(4182.0245 -1744.6987 -9.3292553)
(4157.2926 -1794.285 -10.769002)
(4132.206 -1844.6516 -12.987859)
(4106.311 -1896.2999 -16.157995)
(4079.615 -1948.5695 -20.383533)
(39.098714 50.619888 52.761194)
(59.848282 79.310231 67.014913)
(84.483718 105.98817 75.55249)
(113.71842 131.46569 79.91261)
(145.73051 155.37025 80.260869)
(182.15105 177.94332 79.360091)
(221.71658 198.86895 76.513534)
(264.55257 217.76725 72.937391)
(310.24304 235.22005 68.642093)
(358.53674 250.43187 64.041739)
(408.91293 264.03814 59.129402)
(461.37355 275.69985 54.180471)
(515.51808 285.70192 49.383405)
(571.35792 293.86087 44.590625)
(628.41253 300.37011 40.109768)
(686.85457 305.12033 35.659546)
(746.37714 308.26008 31.657061)
(807.11204 309.55563 27.734015)
(868.65625 309.11982 24.036632)
(931.17053 306.84091 20.410319)
(994.45265 302.73001 16.999089)
(1058.2819 296.53394 13.457059)
(1122.6948 288.57326 10.045794)
(1187.3611 278.41504 6.4579971)
(1252.0106 266.31869 2.7916006)
(1316.515 252.35112 -0.92508627)
(1380.4223 236.50899 -4.7469769)
(1443.5695 218.92995 -8.565437)
(1505.466 199.86497 -12.33741)
(1565.8598 179.57367 -15.911269)
(1624.3655 158.24294 -19.061079)
(1680.7422 136.27632 -21.79912)
(1734.7908 113.99887 -23.856848)
(1786.247 91.743916 -25.201735)
(1835.0747 69.796509 -25.540081)
(1881.4699 48.543251 -24.863831)
(1925.281 28.066999 -23.27653)
(1966.981 8.7029198 -20.61387)
(2006.832 -9.4570879 -17.082069)
(2045.2284 -26.527376 -12.867609)
(2082.6901 -42.457359 -8.1229759)
(2119.7653 -57.415772 -3.1723184)
(2156.9205 -71.653633 1.691068)
(2194.6851 -85.391871 6.2276884)
(2233.4654 -98.993723 10.077587)
(2273.6051 -112.73109 13.060735)
(2315.2883 -126.91752 14.979334)
(2358.6276 -141.80192 15.75962)
(2403.5295 -157.57589 15.408697)
(2449.8637 -174.37319 14.023301)
(2497.3192 -192.22796 11.787747)
(2545.5875 -211.13034 8.9482948)
(2594.2717 -230.97349 5.7936482)
(2643.0183 -251.64112 2.6204616)
(2691.4953 -272.95715 -0.29195535)
(2739.45 -294.77825 -2.7114541)
(2786.7209 -316.95291 -4.4814402)
(2833.2494 -339.39443 -5.5237876)
(2879.0699 -362.05416 -5.8539352)
(2924.3045 -384.94381 -5.571947)
(2969.1245 -408.13032 -4.8435024)
(3013.7279 -431.7326 -3.8719977)
(3058.2923 -455.85388 -2.89228)
(3102.9543 -480.66623 -2.0933371)
(3147.7635 -506.20236 -1.6551603)
(3192.7027 -532.63342 -1.6705602)
(3237.5395 -559.82336 -2.067083)
(3282.1533 -587.72409 -2.8785941)
(3326.1435 -616.155 -3.9311852)
(3369.1727 -644.85414 -4.8356469)
(3410.8497 -673.4713 -5.4910082)
(3450.9238 -701.64622 -5.5499428)
(3489.096 -728.97029 -4.7366942)
(3525.2367 -755.11801 -2.8403755)
(3559.4223 -779.72732 0.24298991)
(3591.7461 -802.59883 4.5718958)
(3622.666 -823.55185 10.060131)
(3652.5169 -842.61719 16.536691)
(3682.0958 -859.82684 23.712086)
(3711.8368 -875.46961 31.252762)
(3742.667 -889.87535 38.774382)
(3775.1434 -903.36592 45.815838)
(3809.9196 -916.51021 52.007609)
(3847.501 -929.75757 57.026413)
(3888.0893 -943.71265 60.563095)
(3931.9927 -958.56306 62.49946)
(3979.0422 -974.968 62.60044)
(4029.1621 -993.07151 61.076489)
(4081.7449 -1013.0219 57.841566)
(4136.5068 -1035.1717 53.444954)
(4192.2993 -1058.5822 47.720108)
(4249.2329 -1084.7029 41.626139)
(4305.4738 -1110.7845 34.842871)
(4361.5961 -1138.8605 28.430532)
(4416.7874 -1167.3645 21.407271)
(15.734978 -68.584736 -76.513152)
(39.274931 -88.507843 -82.578263)
(62.791075 -120.50858 -100.27214)
(83.40368 -139.74161 -101.10502)
(113.31559 -167.0549 -103.21275)
(144.55953 -192.55694 -100.73338)
(178.38168 -216.07359 -97.528332)
(215.7026 -241.32145 -92.572175)
(255.28477 -265.21136 -87.631173)
(296.32332 -288.68892 -82.263167)
(339.47384 -311.94368 -77.143838)
(383.7227 -334.36774 -72.19416)
(429.46726 -356.68131 -67.462934)
(476.2078 -378.30764 -63.278139)
(524.20895 -399.56785 -59.117786)
(573.30642 -420.51676 -55.353005)
(623.52002 -440.84485 -51.504366)
(674.90386 -461.14777 -47.777003)
(727.47435 -480.87829 -43.871217)
(781.22518 -500.26103 -39.769049)
(836.07457 -519.359 -35.371809)
(892.04225 -538.01081 -30.716919)
(948.92573 -556.06902 -25.60203)
(1006.6783 -573.9142 -20.239994)
(1065.0246 -590.86815 -14.571126)
(1123.7017 -607.46394 -8.7284709)
(1182.3099 -623.01123 -2.9693909)
(1240.686 -638.08739 2.8136908)
(1298.1813 -651.96797 8.1383545)
(1354.6685 -665.23665 13.032935)
(1409.3827 -677.35227 17.132968)
(1462.3832 -688.72598 20.361649)
(1512.9747 -699.14393 22.463484)
(1561.1074 -708.79893 23.367908)
(1606.5073 -717.83906 22.985598)
(1649.2718 -726.40139 21.36429)
(1689.3013 -734.83957 18.401011)
(1726.8316 -743.11677 14.451556)
(1762.3433 -751.85625 9.6038273)
(1796.0667 -761.09889 4.1268079)
(1828.6166 -771.21434 -1.6674519)
(1860.5317 -782.42283 -7.455392)
(1892.3857 -794.93316 -12.912201)
(1924.7334 -808.87285 -17.748947)
(1958.0557 -824.32065 -21.71226)
(1992.7517 -841.26122 -24.627438)
(2029.0754 -859.61194 -26.399173)
(2067.1721 -879.21543 -27.012716)
(2107.0206 -899.86371 -26.549049)
(2148.4917 -921.29838 -25.153512)
(2191.337 -943.26136 -23.035318)
(2235.2374 -965.48105 -20.435171)
(2279.8365 -987.73 -17.60131)
(2324.7794 -1009.8191 -14.765852)
(2369.7515 -1031.622 -12.117103)
(2414.5124 -1053.0797 -9.7846688)
(2458.9131 -1074.2018 -7.8258191)
(2502.9106 -1095.0493 -6.2247675)
(2546.5605 -1115.7328 -4.8985597)
(2590.0036 -1136.3818 -3.709187)
(2633.4359 -1157.1243 -2.4878016)
(2677.0796 -1178.0686 -1.0596427)
(2721.1351 -1199.2832 0.7414283)
(2765.7587 -1220.7776 3.0222579)
(2811.0155 -1242.5036 5.8528169)
(2856.8673 -1264.3473 9.1965989)
(2903.1452 -1286.1636 12.968669)
(2949.6229 -1307.7692 16.995628)
(2995.898 -1328.9187 21.077439)
(3041.4837 -1349.4779 24.780756)
(3085.9306 -1369.2328 27.95688)
(3128.8299 -1388.2245 30.26951)
(3169.718 -1406.3618 31.445546)
(3208.2909 -1423.7789 31.274693)
(3244.3691 -1440.6516 29.641516)
(3277.9399 -1457.2581 26.508626)
(3309.1586 -1473.9582 21.963037)
(3338.3349 -1491.1138 16.159372)
(3365.9679 -1509.1815 9.3649707)
(3392.6506 -1528.495 1.8885)
(3419.0785 -1549.4537 -5.8821263)
(3445.9875 -1572.2758 -13.588217)
(3474.0974 -1597.1627 -20.827248)
(3504.0679 -1624.1217 -27.29659)
(3536.4627 -1653.1101 -32.693094)
(3571.6825 -1683.8739 -36.859608)
(3609.9855 -1716.1401 -39.66318)
(3651.4146 -1749.4457 -41.134186)
(3695.8465 -1783.3471 -41.330755)
(3742.9796 -1817.302 -40.435147)
(3792.354 -1850.8089 -38.690023)
(3843.3809 -1883.4125 -36.296835)
(3895.4443 -1914.7838 -33.598192)
(3947.9569 -1944.674 -30.767128)
(4000.1342 -1973.2208 -27.8402)
(0 0 0)
(0 0 0)
(0 0 0)
(0 0 0)
(0 0 0)
(0 0 0)
(0 0 0)
(0 0 0)
(0 0 0)
(0 0 0)
(0 0 0)
(0 0 0)
(0 0 0)
(0 0 0)
(0 0 0)
(35.886452 -29.544999 58.012352)
(47.112957 -104.15496 82.675188)
(60.473363 -105.90105 93.146956)
(85.33283 -145.66297 104.04662)
(111.01881 -164.45824 105.54488)
(142.87548 -190.44636 103.03258)
(177.01004 -214.15435 99.899649)
(214.66656 -239.49469 95.035764)
(254.41805 -261.80398 88.917267)
(295.78493 -286.02658 82.953766)
(339.55495 -309.41237 76.835683)
(384.1666 -330.68037 70.393907)
(430.43279 -354.52959 64.582998)
(477.70999 -374.89424 58.577014)
(526.18668 -398.33894 53.209229)
(575.59579 -418.37053 48.096674)
(626.23853 -440.35319 43.347601)
(677.62683 -460.84746 38.371474)
(730.53629 -481.89437 34.165132)
(783.96782 -502.0499 29.558768)
(838.8213 -522.02666 25.663196)
(894.54956 -541.77669 21.169153)
(950.9442 -560.48013 16.810845)
(1008.4933 -578.7909 12.309783)
(1066.3721 -595.9789 7.6481326)
(1124.6831 -612.98063 3.0223897)
(1183.369 -628.53188 -1.9848407)
(1241.082 -643.42251 -6.682407)
(1299.1185 -657.18103 -11.609254)
(1355.0929 -669.69401 -15.988764)
(1410.2624 -681.57138 -20.088153)
(1463.2512 -692.42669 -23.26117)
(1514.0667 -702.38595 -25.722533)
(1562.4084 -711.73649 -27.027318)
(1607.6246 -720.4663 -27.200346)
(1650.6689 -729.29341 -25.902308)
(1690.3018 -737.11188 -23.400906)
(1727.5434 -745.78822 -19.651682)
(1762.5109 -754.64804 -14.781178)
(1795.6119 -764.15649 -9.097779)
(1827.4892 -774.56591 -2.9179899)
(1858.7337 -786.08836 3.3890356)
(1890.0082 -798.89174 9.4112167)
(1921.9516 -813.11642 14.756271)
(1955.1191 -828.82281 19.078727)
(1989.9647 -846.01781 22.102131)
(2026.7895 -864.62703 23.653626)
(2065.7331 -884.52927 23.68184)
(2106.7589 -905.5286 22.255636)
(2149.6743 -927.40731 19.563121)
(2194.1478 -949.90793 15.89356)
(2239.7569 -972.7814 11.600134)
(2286.0256 -995.78678 7.0813219)
(2332.4841 -1018.7202 2.7188766)
(2378.7103 -1041.4283 -1.1349789)
(2424.3789 -1063.8078 -4.2165949)
(2469.281 -1085.8239 -6.3479164)
(2513.3501 -1107.488 -7.4752027)
(2556.6489 -1128.8603 -7.6454349)
(2599.358 -1150.0276 -7.0086387)
(2641.7391 -1171.0816 -5.7858869)
(2684.0953 -1192.1078 -4.2391266)
(2726.7228 -1213.1584 -2.6360261)
(2769.8649 -1234.2371 -1.2104868)
(2813.6664 -1255.3028 -0.14094907)
(2858.171 -1276.2744 0.48779525)
(2903.2389 -1296.9327 0.64855235)
(2948.692 -1317.2179 0.54663792)
(2994.0735 -1337.1834 0.21865564)
(3038.8911 -1355.939 0.037400448)
(3082.943 -1374.098 0.1811532)
(3125.4385 -1391.2558 1.0403396)
(3166.1332 -1407.5257 2.7197087)
(3204.6391 -1423.0338 5.4818898)
(3240.8093 -1437.9673 9.3672431)
(3274.6326 -1452.6316 14.354511)
(3306.2889 -1467.3943 20.306139)
(3336.1272 -1482.6631 26.986389)
(3364.6488 -1498.8616 34.067465)
(3392.4859 -1516.3953 41.168981)
(3420.3309 -1535.6172 47.873377)
(3448.9252 -1556.8036 53.77542)
(3478.9593 -1580.1181 58.492997)
(3511.0801 -1605.6195 61.719504)
(3545.7815 -1633.2208 63.223239)
(3583.4378 -1662.7312 62.885376)
(3624.2131 -1693.8276 60.68804)
(3668.1076 -1726.1111 56.732907)
(3714.9153 -1759.106 51.212496)
(3764.2676 -1792.3056 44.420034)
(3815.64 -1825.2169 36.687891)
(3868.4207 -1857.3827 28.40642)
(3921.9129 -1888.4497 19.933547)
(3975.5265 -1918.2575 11.521429)
(4028.4815 -1946.8066 3.5757936)
(4109.6914 -1921.6811 -8.0796414)
(4136.358 -1868.6059 -10.865515)
(4162.9461 -1816.6641 -12.644161)
(4187.6535 -1765.6881 -13.542205)
(4213.3485 -1716.3256 -13.035562)
(4237.0101 -1667.6377 -12.232234)
(4262.2214 -1620.1331 -10.048422)
(4286.4644 -1572.8258 -8.1129633)
(4311.1223 -1525.5606 -5.89587)
(4336.5845 -1478.6719 -3.7068789)
(4362.9999 -1431.1304 -2.2082878)
(4389.0492 -1381.9531 -1.1666576)
(4416.8477 -1332.5125 -1.5902351)
(4444.6621 -1281.0891 -2.397918)
(4473.3279 -1228.5835 -5.2102571)
(4448.6887 -1147.0741 -9.952176)
(4394.4815 -1119.0325 -11.581001)
(4338.5561 -1091.5752 -13.778972)
(4282.1323 -1065.3581 -15.945626)
(4225.0908 -1040.4239 -17.837887)
(4168.1822 -1017.2348 -19.634002)
(4112.3187 -996.07866 -20.629166)
(4058.0179 -976.92782 -20.817083)
(4005.9929 -959.8197 -19.975651)
(3956.5992 -944.59132 -17.908272)
(3910.2712 -930.87147 -14.743084)
(3866.9458 -918.37903 -10.417623)
(3826.7425 -906.56729 -5.1668651)
(3789.2358 -894.91402 0.82715426)
(3754.1997 -883.03548 7.3040832)
(3721.0019 -870.28565 13.949056)
(3689.0518 -856.32848 20.391286)
(3657.7116 -840.82826 26.37993)
(3626.3461 -823.50469 31.586897)
(3594.3657 -804.29336 35.848347)
(3561.3187 -783.18124 38.99942)
(3526.8098 -760.29808 40.997228)
(3490.65 -735.87129 41.867686)
(3452.7154 -710.18127 41.692544)
(3413.1194 -683.56953 40.629216)
(3371.902 -656.34123 38.896472)
(3329.5358 -628.967 36.625335)
(3285.9592 -601.5825 34.116546)
(3241.7892 -574.48128 31.555867)
(3197.1518 -547.67496 28.984151)
(3152.338 -521.49569 26.625473)
(3107.4836 -495.78777 24.487972)
(3062.659 -470.58666 22.576762)
(3017.8629 -445.81227 20.838144)
(2973.011 -421.38802 19.184914)
(2927.9688 -397.24142 17.506309)
(2882.5759 -373.3342 15.686308)
(2836.6778 -349.66187 13.623906)
(2790.1544 -326.27243 11.245163)
(2742.946 -303.25275 8.5183691)
(2695.0744 -280.73631 5.461239)
(2646.6505 -258.87127 2.1453481)
(2597.8734 -237.81888 -1.3119728)
(2549.0194 -217.71847 -4.7479607)
(2500.4176 -198.67815 -7.9772046)
(2452.4236 -180.74964 -10.799322)
(2405.3812 -163.91974 -13.023474)
(2359.5933 -148.10507 -14.479776)
(2315.281 -133.14681 -15.04338)
(2272.5728 -118.82702 -14.637201)
(2231.4564 -104.89151 -13.234814)
(2191.8251 -91.005816 -10.920418)
(2153.4058 -76.94531 -7.726512)
(2115.8382 -62.318839 -3.9191648)
(2078.699 -46.990625 0.40024575)
(2041.4212 -30.685824 4.9502961)
(2003.5114 -13.420281 9.4864336)
(1964.5594 5.1399915 13.73983)
(1923.5376 24.639557 17.601556)
(1880.9452 44.971458 20.742326)
(1835.8318 66.056098 23.014915)
(1787.6906 88.10473 24.356669)
(1737.2294 109.69157 24.630169)
(1683.864 131.70862 24.003432)
(1628.0492 153.12246 22.23127)
(1569.59 174.34026 19.678282)
(1509.1222 193.8681 16.105215)
(1446.8918 212.99125 12.050083)
(1383.1371 230.15652 7.4159881)
(1318.536 246.20285 2.3856389)
(1253.2052 260.53775 -2.7767895)
(1187.678 273.07991 -8.0632869)
(1122.3789 283.58825 -13.137032)
(1057.1098 292.74492 -18.188091)
(992.78787 299.83464 -22.794218)
(929.24029 304.77506 -27.084395)
(866.48031 308.44172 -31.222053)
(805.15602 309.62679 -34.675866)
(744.5759 309.64423 -38.313745)
(685.72294 307.03044 -41.255497)
(627.84737 303.17293 -44.406849)
(571.24572 297.18143 -47.349221)
(516.2321 289.20341 -50.435796)
(462.85819 279.16649 -53.362315)
(410.9205 267.46719 -56.76141)
(360.99685 253.2287 -60.031302)
(313.33347 237.48195 -63.372459)
(267.79977 219.42986 -66.816094)
(225.04549 199.64027 -69.749593)
(185.27534 178.12845 -72.510698)
(149.11247 154.58518 -73.553444)
(116.60202 129.18708 -73.354552)
(88.449988 104.53285 -70.262401)
(60.992395 75.438757 -61.372476)
(51.683161 47.44514 -41.543427)
(0 0 0)
(0 0 0)
(0 0 0)
(0 0 0)
(0 0 0)
(0 0 0)
(0 0 0)
(0 0 0)
(0 0 0)
(0 0 0)
(0 0 0)
(0 0 0)
(0 0 0)
(0 0 0)
(0 0 0)
(0 0 0)
(0 0 0)
(0 0 0)
(0 0 0)
(0 0 0)
(0 0 0)
(0 0 0)
(0 0 0)
(0 0 0)
(0 0 0)
(0 0 0)
(0 0 0)
(0 0 0)
(0 0 0)
(0 0 0)
(4054.3541 -2005.3402 -25.418063)
(4057.2921 -2009.4124 -25.512113)
(4060.544 -2013.1466 -24.940593)
(4063.9815 -2016.4305 -23.848576)
(4067.4729 -2019.0842 -22.08905)
(4070.6484 -2020.8734 -19.810065)
(4073.4036 -2021.5712 -17.170459)
(4075.5959 -2021.0151 -14.379152)
(4077.1983 -2019.1242 -11.632991)
(4078.2707 -2015.9582 -9.0835166)
(4078.8431 -2011.4916 -7.0707589)
(4079.2083 -2005.9407 -5.4673116)
(4079.3954 -1999.467 -4.6203909)
(4079.8797 -1992.2162 -4.3359471)
(4080.3822 -1984.0835 -4.4332035)
(4478.6148 -1193.0971 14.866573)
(4486.0883 -1190.3552 14.734702)
(4493.1726 -1188.2287 14.089542)
(4499.599 -1186.3456 12.842151)
(4505.4983 -1184.7577 10.958006)
(4510.3913 -1183.2787 8.6037845)
(4514.1199 -1181.9111 5.8714637)
(4516.5564 -1180.5863 3.0010418)
(4517.6523 -1179.3244 0.15200567)
(4517.4847 -1178.1295 -2.4927304)
(4516.2266 -1176.9818 -4.687209)
(4514.0768 -1176.0924 -6.4142534)
(4511.4567 -1175.2462 -7.4896815)
(4508.3824 -1174.9655 -7.9147458)
(4505.2443 -1174.9515 -7.9722799)
(24.849794 32.734074 51.946742)
(48.762562 58.058849 55.673362)
(72.888022 82.669524 66.339606)
(102.67572 105.31506 68.261587)
(134.17156 126.47895 69.993475)
(170.83266 146.25116 68.759633)
(210.02921 164.41884 66.695537)
(253.09611 181.19681 63.640074)
(298.44805 196.18365 60.035713)
(346.63331 209.67378 56.074781)
(396.85197 221.31909 51.755234)
(449.21163 231.53368 47.586062)
(503.13014 239.80972 43.181807)
(558.68203 246.75775 39.055954)
(615.51683 251.73256 34.906264)
(673.81944 255.35535 31.091882)
(733.14665 257.06145 27.30441)
(793.49277 257.29004 23.857113)
(854.89882 255.59854 20.42403)
(917.27883 252.31317 17.254599)
(980.30933 247.08039 14.104498)
(1044.1069 240.09326 11.046892)
(1108.4012 231.27496 7.9471206)
(1172.9422 220.60882 4.863462)
(1237.6863 208.19595 1.6707646)
(1302.1793 194.12245 -1.5131578)
(1366.2383 178.40306 -4.7813093)
(1429.4912 161.38215 -8.0349021)
(1491.5872 143.09949 -11.216243)
(1552.2495 123.91604 -14.179587)
(1611.0301 104.03631 -16.925731)
(1667.7245 83.772568 -19.188823)
(1722.0597 63.393666 -20.929028)
(1773.8901 43.167665 -22.018181)
(1823.08 23.398833 -22.302704)
(1869.5932 4.2188049 -21.786482)
(1913.6376 -14.16269 -20.40675)
(1955.4167 -31.638696 -18.231911)
(1995.1894 -48.237537 -15.282665)
(2033.4189 -64.038227 -11.74866)
(2070.6271 -79.046532 -7.8159186)
(2107.2695 -93.558186 -3.6877157)
(2143.8638 -107.71366 0.42104202)
(2180.9675 -121.8518 4.176709)
(2218.9958 -136.14297 7.4186237)
(2258.3205 -150.8845 9.9186787)
(2299.1742 -166.25081 11.54103)
(2341.681 -182.40813 12.22713)
(2385.8151 -199.44736 11.969371)
(2431.4487 -217.40439 10.858329)
(2478.3249 -236.24286 9.0380698)
(2526.1282 -255.89384 6.7184252)
(2574.4862 -276.23205 4.1276888)
(2623.0291 -297.13822 1.5197929)
(2671.4133 -318.47518 -0.88170556)
(2719.3595 -340.14772 -2.8816895)
(2766.678 -362.07876 -4.3503578)
(2813.2728 -384.25719 -5.2185658)
(2859.1525 -406.70223 -5.499401)
(2904.412 -429.48972 -5.2685121)
(2949.208 -452.72435 -4.652775)
(2993.736 -476.52451 -3.8232117)
(3038.178 -500.99321 -2.9605062)
(3082.7056 -526.22807 -2.2154131)
(3127.365 -552.24604 -1.739626)
(3172.2206 -579.05279 -1.5656031)
(3217.1089 -606.44222 -1.7705648)
(3261.8026 -634.34549 -2.1923147)
(3306.0533 -662.45585 -2.8056673)
(3349.3871 -690.45918 -3.2521119)
(3391.5902 -718.03219 -3.4603791)
(3432.2287 -744.82531 -3.1405594)
(3471.0483 -770.48204 -2.1111978)
(3507.8624 -794.77166 -0.20307849)
(3542.6353 -817.45387 2.6839957)
(3575.4657 -838.45167 6.5792147)
(3606.6716 -857.75145 11.388372)
(3636.6263 -875.46455 16.970185)
(3665.9579 -891.82402 23.084556)
(3695.2478 -907.12465 29.456483)
(3725.2793 -921.75343 35.718802)
(3756.6737 -936.10818 41.554508)
(3790.1558 -950.60478 46.640547)
(3826.2496 -965.87582 50.633288)
(3865.3941 -982.08725 53.395391)
(3907.6012 -999.63371 54.688099)
(3953.2756 -1018.721 54.548422)
(4001.9758 -1039.4656 52.935096)
(4053.5589 -1061.9227 50.023993)
(4107.4653 -1085.9419 45.83571)
(4162.8016 -1111.2772 40.898105)
(4219.64 -1138.0442 35.094193)
(4275.8415 -1165.0007 28.995284)
(4332.3986 -1193.3633 22.714215)
(4387.6618 -1221.5985 15.939956)
(14.16857 28.282308 44.485207)
(35.956736 42.682664 49.68078)
(63.208833 66.239048 56.574142)
(91.159543 83.88793 59.497501)
(123.94809 102.84372 59.852969)
(159.93141 119.41618 58.988014)
(199.61208 135.41569 57.030503)
(242.14535 149.41972 54.432383)
(287.66465 162.30585 51.329998)
(335.65102 173.40035 47.774504)
(385.7773 183.18959 44.271471)
(437.89007 191.28264 40.370908)
(491.65816 198.02587 36.77388)
(547.03738 203.09382 32.980336)
(603.74492 206.76124 29.559507)
(661.81771 208.80378 25.957646)
(720.82557 209.39209 22.865805)
(781.19855 208.29016 19.661202)
(842.39276 205.62406 16.796314)
(904.57415 201.24435 13.921075)
(967.47928 195.219 11.250057)
(1031.1879 187.46847 8.5236625)
(1095.3015 178.043 5.9451891)
(1159.8728 166.8882 3.2745577)
(1224.4728 154.13804 0.61616463)
(1288.9707 139.90898 -2.1178036)
(1352.962 124.27689 -4.8355165)
(1416.1964 107.44237 -7.5489635)
(1478.3167 89.643309 -10.194451)
(1538.9184 71.070922 -12.716389)
(1597.7249 52.021827 -14.949071)
(1654.427 32.727964 -16.862913)
(1708.747 13.487401 -18.332726)
(1760.5397 -5.5217398 -19.224167)
(1809.6593 -24.00723 -19.524732)
(1856.1567 -41.885787 -19.080518)
(1900.1492 -59.022744 -17.960186)
(1941.8035 -75.391271 -16.125845)
(1981.4448 -91.013954 -13.693233)
(2019.5479 -105.9741 -10.739353)
(2056.4834 -120.44903 -7.4784162)
(2092.8496 -134.58903 -3.9758171)
(2129.1573 -148.67497 -0.62065804)
(2165.8637 -162.89987 2.5606983)
(2203.4786 -177.50859 5.2543771)
(2242.3273 -192.70979 7.3645309)
(2282.6774 -208.63518 8.7385289)
(2324.6564 -225.40628 9.3385258)
(2368.2646 -243.05907 9.1472316)
(2413.3789 -261.57885 8.2558339)
(2459.7707 -280.8999 6.767593)
(2507.1347 -300.92284 4.8665269)
(2555.1158 -321.51421 2.7387879)
(2603.3512 -342.55932 0.59846774)
(2651.5047 -363.93421 -1.3713046)
(2699.2974 -385.57149 -3.002055)
(2746.5318 -407.42513 -4.1870028)
(2793.1051 -429.51376 -4.8640855)
(2839.0138 -451.88538 -5.0437864)
(2884.3362 -474.63915 -4.7795011)
(2929.2171 -497.88245 -4.1808317)
(2973.8399 -521.73116 -3.3834894)
(3018.3741 -546.27763 -2.5316347)
(3062.997 -571.58163 -1.7542328)
(3107.7276 -597.63848 -1.1719128)
(3152.6812 -624.34763 -0.81944271)
(3197.5848 -651.64076 -0.69911678)
(3242.4361 -679.24626 -0.81097787)
(3286.7902 -706.87073 -0.99861141)
(3330.3286 -734.19245 -1.1154859)
(3372.7152 -760.93553 -1.0282586)
(3413.5634 -786.7333 -0.53094592)
(3452.6126 -811.30413 0.51835857)
(3489.6055 -834.46156 2.3067436)
(3524.5495 -856.04752 4.8634273)
(3557.4608 -876.08339 8.2154484)
(3588.6654 -894.58654 12.291681)
(3618.4845 -911.80164 16.981148)
(3647.5646 -927.96363 22.079282)
(3676.4214 -943.40523 27.329258)
(3705.9004 -958.58713 32.491026)
(3736.5774 -973.84678 37.26946)
(3769.2403 -989.6095 41.299066)
(3804.5189 -1006.3537 44.712125)
(3842.5417 -1024.3761 46.801847)
(3883.9044 -1043.5376 47.694451)
(3928.5601 -1064.3689 47.298764)
(3976.4507 -1086.7918 45.707636)
(4027.1357 -1110.7326 42.844684)
(4080.4743 -1136.1934 39.12702)
(4135.1657 -1162.5291 34.373592)
(4191.6545 -1190.3296 29.170983)
(4247.5977 -1218.002 23.311929)
(4304.1013 -1246.7742 17.246612)
(4359.3177 -1275.5274 10.654471)
(7.8231754 21.408908 37.259865)
(28.840714 33.623639 40.780732)
(52.065318 50.922715 48.425083)
(80.989839 66.178831 49.822267)
(113.30573 81.338167 50.124469)
(149.83404 95.727641 49.207759)
(189.12074 108.5669 47.535831)
(232.08182 120.33067 45.326245)
(277.37039 130.51133 42.461647)
(325.31564 139.64518 39.735284)
(375.25605 146.9919 36.396232)
(427.28837 153.36229 33.381039)
(480.81982 157.91528 29.999972)
(536.00699 161.49145 26.993295)
(592.50085 163.29363 23.709323)
(650.23601 163.99379 20.956135)
(709.2258 162.97357 17.980959)
(769.23966 160.70578 15.412599)
(830.25831 156.7618 12.816478)
(892.24248 151.39712 10.493401)
(955.06291 144.40788 8.1497443)
(1018.5495 135.84572 6.0138382)
(1082.618 125.74115 3.8066796)
(1146.9954 114.0896 1.6931963)
(1211.5378 101.04748 -0.49738694)
(1275.8893 86.612249 -2.6332245)
(1339.8199 70.985022 -4.8195997)
(1402.9534 54.361851 -6.993057)
(1464.9484 36.887589 -9.1207068)
(1525.4646 18.831727 -11.101547)
(1584.1795 0.42695696 -12.94292)
(1640.738 -18.08543 -14.497952)
(1694.962 -36.489648 -15.685918)
(1746.6106 -54.55259 -16.46203)
(1795.6212 -72.110652 -16.700554)
(1841.9913 -89.055106 -16.401043)
(1885.8017 -105.30304 -15.525577)
(1927.3019 -120.83745 -14.103494)
(1966.8317 -135.76004 -12.151153)
(2004.7013 -150.17429 -9.8151133)
(2041.4737 -164.20171 -7.1329935)
(2077.6317 -178.09266 -4.3750289)
(2113.6624 -192.06078 -1.5740016)
(2150.1231 -206.29809 0.96418906)
(2187.4334 -221.04964 3.1758082)
(2225.9515 -236.46786 4.8994775)
(2265.9413 -252.68827 6.0298935)
(2307.5362 -269.78416 6.5225756)
(2350.737 -287.76844 6.382172)
(2395.4349 -306.60214 5.6600524)
(2441.4149 -326.20419 4.4518164)
(2488.3791 -346.45661 2.9074763)
(2535.9924 -367.23277 1.1758101)
(2583.9006 -388.40941 -0.56309822)
(2631.7822 -409.87909 -2.1584081)
(2679.3613 -431.58138 -3.4682499)
(2726.4484 -453.48395 -4.403238)
(2772.9385 -475.61483 -4.9081043)
(2818.8219 -498.03379 -4.9869317)
(2864.1699 -520.83589 -4.6805236)
(2909.1168 -544.13025 -4.0773296)
(2953.8282 -568.01586 -3.2819755)
(2998.47 -592.58497 -2.411439)
(3043.1965 -617.84484 -1.5762203)
(3088.0168 -643.81171 -0.87249053)
(3133.0513 -670.34916 -0.30153347)
(3178.0357 -697.36495 -0.0012012594)
(3222.7146 -724.58653 0.24550628)
(3267.1078 -751.75933 0.40455144)
(3310.6233 -778.45607 0.59267862)
(3353.0044 -804.49105 0.99285692)
(3393.8232 -829.5403 1.7183048)
(3432.8263 -853.34434 2.9263583)
(3469.8235 -875.78681 4.6798865)
(3504.7415 -896.76683 6.9968227)
(3537.63 -916.25899 9.9605411)
(3568.7755 -934.42788 13.439056)
(3598.524 -951.456 17.375187)
(3627.4422 -967.63492 21.556807)
(3656.1384 -983.34027 25.831278)
(3685.3206 -998.94329 29.947898)
(3715.6789 -1014.8438 33.671587)
(3747.9382 -1031.424 36.826028)
(3782.4814 -1048.9645 39.233421)
(3820.0368 -1067.8864 40.527015)
(3860.8091 -1088.2773 40.905575)
(3904.9122 -1110.2989 40.236289)
(3952.0911 -1133.8954 38.508921)
(4002.2748 -1158.9937 35.872416)
(4054.9826 -1185.428 32.268572)
(4109.2115 -1212.7679 28.06139)
(4165.387 -1241.3456 23.109542)
(4220.8945 -1269.6825 17.844545)
(4277.2487 -1299.0249 12.105435)
(4332.1475 -1328.0441 6.0076613)
(4.4494876 18.469563 29.775583)
(21.984664 25.556403 33.839965)
(44.835137 39.190986 38.385066)
(72.757144 50.428896 39.514468)
(105.00031 62.814531 39.658915)
(140.83616 73.846297 38.939552)
(180.54294 84.21735 37.495852)
(223.04998 93.091384 35.488588)
(268.35299 101.13145 33.504737)
(316.14694 107.5597 30.875126)
(366.02266 112.96274 28.493436)
(417.74677 116.94487 25.666367)
(471.12959 119.76143 23.195722)
(526.12782 121.26862 20.319143)
(582.26793 121.47546 17.999802)
(639.93326 120.44207 15.31697)
(698.51993 118.05007 13.105438)
(758.38112 114.34183 10.814211)
(819.12437 109.21697 8.815236)
(880.94158 102.72435 6.8062155)
(943.43511 94.763726 5.038681)
(1006.7866 85.416652 3.2491163)
(1070.5697 74.629313 1.596898)
(1134.8238 62.498611 -0.067969473)
(1199.1185 49.032167 -1.6785959)
(1263.3266 34.388498 -3.3164752)
(1327.0391 18.721496 -4.9666727)
(1389.9814 2.121 -6.5888313)
(1451.7712 -15.12892 -8.1787076)
(1512.0891 -32.865816 -9.7170606)
(1570.5456 -50.830957 -11.105361)
(1626.9081 -68.847032 -12.295972)
(1680.8692 -86.643545 -13.248398)
(1732.2833 -104.0814 -13.843419)
(1781.0503 -121.01385 -14.079465)
(1827.1636 -137.29193 -13.875951)
(1870.7233 -152.9644 -13.220748)
(1912.0103 -167.96925 -12.127895)
(1951.2481 -182.42984 -10.645598)
(1988.9383 -196.40274 -8.7936329)
(2025.4947 -210.12504 -6.7529046)
(2061.4349 -223.80055 -4.550604)
(2097.2934 -237.5963 -2.4066193)
(2133.5522 -251.78464 -0.39117126)
(2170.6442 -266.52469 1.3592258)
(2208.9209 -281.9967 2.7225882)
(2248.6479 -298.30731 3.6182642)
(2289.9435 -315.51286 4.0228991)
(2332.821 -333.62135 3.920676)
(2377.1742 -352.57767 3.3586314)
(2422.7931 -372.29447 2.4195601)
(2469.3965 -392.65173 1.2120763)
(2516.6601 -413.51843 -0.13671473)
(2564.2473 -434.77265 -1.483703)
(2611.8476 -456.31085 -2.7069749)
(2659.2006 -478.07121 -3.6895228)
(2706.1241 -500.02297 -4.358845)
(2752.5161 -522.1958 -4.6656945)
(2798.3674 -544.64081 -4.6116587)
(2843.7452 -567.45035 -4.2278775)
(2888.7666 -590.72103 -3.5811004)
(2933.5902 -614.5495 -2.7517776)
(2978.3712 -638.99646 -1.8394265)
(3023.2003 -664.08943 -0.93171131)
(3068.1956 -689.81352 -0.079264863)
(3113.2452 -716.00405 0.61915915)
(3158.3168 -742.61647 1.2363596)
(3203.1685 -769.25268 1.7573037)
(3247.5482 -795.82242 2.1788282)
(3290.9809 -821.95057 2.6914557)
(3333.2622 -847.42753 3.334252)
(3373.9765 -871.90649 4.2090352)
(3412.8976 -895.22496 5.3942547)
(3449.7928 -917.23753 6.9757367)
(3484.5327 -937.81025 9.0152219)
(3517.2776 -957.07897 11.465705)
(3548.2594 -975.11449 14.295067)
(3577.8424 -992.18321 17.417308)
(3606.606 -1008.5588 20.686417)
(3635.0979 -1024.6181 23.971563)
(3664.0739 -1040.7272 27.069952)
(3694.1944 -1057.2535 29.816244)
(3726.0997 -1074.6429 32.081235)
(3760.445 -1093.0634 33.640484)
(3797.5861 -1112.9851 34.441257)
(3837.9125 -1134.2624 34.394691)
(3881.4615 -1157.2076 33.507631)
(3928.2216 -1181.6509 31.766974)
(3977.8397 -1207.5703 29.210766)
(4030.1379 -1234.77 25.957169)
(4083.9096 -1262.777 22.078499)
(4139.7761 -1291.9332 17.647671)
(4194.9228 -1320.7566 12.92229)
(4251.0781 -1350.3706 7.6253215)
(4305.5477 -1379.4002 2.1802033)
(0.95005468 13.096415 22.615072)
(16.95572 18.312252 24.515517)
(37.847396 28.405922 28.624188)
(64.991493 37.18838 29.66533)
(96.626975 45.941367 29.639898)
(132.85241 54.403543 28.859964)
(172.12462 61.64177 27.485291)
(214.72514 68.174683 26.287754)
(259.95061 73.252552 24.208737)
(307.68365 77.575493 22.55277)
(357.2521 80.353184 20.296654)
(408.89253 82.399917 18.420368)
(462.07522 82.914446 16.024455)
(516.68616 82.646425 14.174244)
(572.73267 80.916866 11.876492)
(629.96743 78.334517 10.039993)
(688.36714 74.28599 8.0693523)
(747.88867 69.270544 6.3969893)
(808.42182 62.845485 4.6915715)
(869.89032 55.263387 3.2882448)
(932.23442 46.343632 1.8552122)
(995.2883 36.144751 0.63690472)
(1058.9192 24.691018 -0.59165077)
(1122.9033 11.969229 -1.6945317)
(1187.018 -1.8776819 -2.8315184)
(1250.9811 -16.786197 -3.9297119)
(1314.4892 -32.636861 -5.0390129)
(1377.1812 -49.242682 -6.1362012)
(1438.7491 -66.410617 -7.2615821)
(1498.7734 -83.979117 -8.307318)
(1556.9915 -101.70196 -9.3082921)
(1613.0436 -119.38298 -10.195941)
(1666.7094 -136.81751 -10.894969)
(1717.8161 -153.87305 -11.389607)
(1766.2479 -170.36795 -11.606893)
(1812.0707 -186.24422 -11.517326)
(1855.3532 -201.53342 -11.095483)
(1896.4474 -216.12466 -10.426691)
(1935.441 -230.2211 -9.3301146)
(1972.8341 -243.8894 -8.0432363)
(2009.1611 -257.38562 -6.5385118)
(2044.885 -270.79731 -4.9505086)
(2080.5259 -284.47318 -3.3264363)
(2116.5696 -298.54227 -1.8117805)
(2153.4443 -313.21896 -0.49082615)
(2191.5017 -328.6598 0.5445637)
(2230.9903 -344.96748 1.2440402)
(2272.0262 -362.19589 1.5643819)
(2314.6267 -380.34172 1.5000208)
(2358.6795 -399.34924 1.0883826)