/*--------------------------------*- C++ -*----------------------------------*\
  =========                 |
  \\      /  F ield         | OpenFOAM: The Open Source CFD Toolbox
   \\    /   O peration     | Website:  https://openfoam.org
    \\  /    A nd           | Version:  6
     \\/     M anipulation  |
\*---------------------------------------------------------------------------*/
FoamFile
{
    version     2.0;
    format      ascii;
    class       pointScalarField;
    location    "0.42";
    object      p;
}
// * * * * * * * * * * * * * * * * * * * * * * * * * * * * * * * * * * * * * //

dimensions      [1 -1 -2 0 0 0 0];

internalField   nonuniform List<scalar> 
625
(
565281.69
-760346.6
11686.525
13353.31
920370.86
-1450195.8
7939.9789
3894.6844
346803.04
28885.317
-101113.63
-16344.686
-1466.047
6161.0949
229606.56
242801.31
235114.3
231224.56
205702.27
198623.23
186790.18
175210.71
172231.44
156364.93
148634.79
134871.15
119343.95
103259.81
87475.936
72953.908
59396.6
50111.706
42616.712
31948.05
26238.66
18686.587
17122.197
-253479.31
-158504.2
-217821.23
-174334.38
-163748.55
-163802.06
-145951.63
-140317.06
-135288.2
-127766.33
-122555.08
-116116.88
-110885.95
-103147.13
-96653.949
-89798.536
-82026.405
-75921.614
-65535.6
-60132.329
-47034.571
-31249.909
-16199.188
582611.26
-4547.6016
-204068.26
-254744.21
-337765.5
-250939.66
-233007.05
-269582.96
-226887.7
-212676.22
-213495.26
-205247.46
-193561.67
-176216.97
-159334.08
-139375.61
-120087.55
-100641.48
-83149.442
-68008.341
-53337.935
-41793.848
-31400.807
-19360.309
-10174.992
-1506.7378
7700.072
1123.46
-7326.4137
23653.615
31931.866
41575.625
51527.64
61357.563
71713.825
80782.772
93759.683
105718.54
120401.16
134740.86
151204.36
164354.28
179884.19
181261.45
213248.72
215837.96
215051.06
250656.12
233110.32
285265.1
226509.73
255956.54
549997.62
563538.3
532484.25
-833594.11
-820983.89
-819415.58
27507.871
22311.993
28501.323
-816.76211
5414.4137
2371.955
107234.52
126086.45
136535.89
126898.73
128303.22
131301.41
123646.91
121218.82
112916.36
104760.08
95581.204
83462.025
70826.277
59248.585
48186.214
37700.481
30327.945
25336.91
18926.88
19848.622
14815.467
11014.602
9087.7715
-5490.2431
6543.3224
-3096.4067
9030.5897
1923.4658
2216.2255
-1671.5735
-1984.1253
-5954.8352
-7782.9974
-10005.076
-11560.512
-11916.884
-11057.703
-10622.885
-8860.5976
-6945.4955
-4797.0296
-4300.489
-491.78344
-4334.7883
4610.3002
11.858663
-164988.1
-148458.56
-138890.74
-128206.56
-141549.15
-122026.9
-122900.07
-112292.99
-104305.7
-94414.554
-85817.686
-76132.592
-67251.338
-59575.631
-52092.104
-45218.914
-39170.272
-32111.433
-27855.12
-18481.771
-10651.562
-10457.913
-3869.5766
326590.52
290993.01
309564.78
2300.9937
25866.167
2303.4383
-89303.674
-123986.9
-177290.43
-352275.53
-350092.05
-366831.37
-295156.17
-272430.31
-249844.01
-251692.98
-228844.83
-240591.53
-212359.44
-205320.78
-203452.3
-215536.13
-208039.47
-217579.84
-202616.51
-190196.45
-189802.4
-192160.1
-187344.27
-199263.94
-189538.45
-171910.6
-182681.71
-176654.63
-165427.45
-174172.3
-164750.62
-156106.54
-165421.02
-152149.5
-146836.92
-153541.25
-139212.6
-134810.76
-140687.95
-124558.6
-122050.36
-126668.46
-110501.35
-108709.82
-112353.89
-97467.172
-95944.191
-99155.058
-85057.978
-83983.213
-86190.88
-74306.502
-72385.442
-75813.654
-63226.225
-63149.77
-65842.914
-54829.426
-53360.01
-55896.394
-43398.427
-42536.133
-46311.627
-32435.825
-33540.542
-37152.405
-19205.921
-26329.364
-24495.904
-17892.484
-13112.415
-19577.602
-19682.463
-20444.679
-21530.448
889.76018
13.550153
63.221608
419.7079
6105.3071
2329.2252
276841.65
283716.58
272554.13
265261.74
268241.64
265284.14
275127.36
246833.36
249199.41
234244.54
222115.02
235441.47
227684.58
227238.28
217230.69
224934.88
192615.6
213633.23
206726.45
191746.09
203821.92
202149
180173.46
188603.36
186660.95
170085.64
187647.63
178686.72
156738.13
174537.12
164711.4
145490.74
161747.9
149042.48
131410.28
147584.82
131942.47
117106.48
130978.32
115397.7
101752.87
113263.39
98881.312
86681.584
95942.864
83726.858
73185.485
80053.287
70389.505
61218.342
66125.367
60557.173
51384.735
54507.71
48515.819
41468.069
44524.617
42392.772
32414.227
37879.083
33886.005
28441.374
29872.056
25518.885
22425.421
21427.997
28566.584
28115.662
27555.358
152218.87
190114.82
157557.49
163921.9
165710.29
152808.17
148386.74
133872.32
127724.68
113631.65
104287.2
90396.803
79599.339
69761.75
60637.157
53173.672
46037.299
40494.364
33777.169
27642.994
19949.644
13114.891
7295.8957
-12897.823
14975.594
-8435.438
8614.6182
732.14698
-5470.7765
-5154.5795
-4790.646
-5169.786
1702.7564
7761.1791
14102.618
21612.008
27440.546
30926.91
33557.188
33100.94
32592.978
28753.37
26021.108
22061.043
17411.355
8907.6819
-127565.76
-122839.35
-149400.71
-125553.48
-117813.98
-111366.11
-91869.563
-84981.497
-70504.235
-63962.022
-57802.389
-53281.8
-50649.914
-48540.948
-47336.454
-45096.617
-42452.967
-40706.242
-36874.434
-32576.532
-28140.907
-21725.163
-15866.049
197228.69
193053.74
179416.34
186773.97
172176.07
162151.76
150147.47
139441.87
168673.55
149532.47
159406.62
148878.11
163730.18
135426.11
150735.84
137483.58
140772.34
152742.6
137285.99
139154.81
140427.28
127224.9
126492.2
135690.92
114143.74
119562.02
124952.19
100592.55
112372.82
110628.54
87097.38
98622.505
99562.593
72577.679
88089.368
87605.016
62231.973
75748.014
75698.793
51834.239
64670.309
65886.562
43772.99
54955.098
58059.208
37704.719
47373.741
51043.996
34380.863
40351.501
45854.335
29129.718
34834.374
39882.834
26370.629
28860.938
36537.877
21043.125
29751.946
30925.062
19956.144
18394.193
25842.266
16725.714
16238.584
20977.19
5852.2397
2553.9621
6310.4779
-8859.9634
-18851.9
5108.1024
-10082.7
17464.085
23506.559
4523.3369
5131.2475
17066.8
-5412.9486
369.3057
3924.7859
-11946.755
-4289.4269
19191.16
-15763.361
765.93929
5622.1953
-13353.367
-7482.4087
2720.8292
-19412.561
-6157.54
1155.6445
-14501.779
-5256.3969
-2295.1759
-11721.777
-4926.623
-3130.4321
-8167.3281
-306.07026
-2907.3879
-1797.3139
5532.5291
-992.59201
4764.5556
10710.487
1563.8106
10279.274
16024.123
6425.2611
15272.78
21201.696
10944.624
20389.912
25533.127
14259.893
23812.689
26340.146
17760.666
23778.833
27930.332
18955.584
26868.275
27244.025
20413.74
23069.415
24420.779
16801.632
26099.894
11001.028
12715.084
17012.897
16520.88
14090.518
11202.405
9786.5315
11241.733
-201007.06
-213610.22
-237766.57
-141906.54
-114660.01
-174135.74
-136698
-169538.42
-175501.09
-167667.92
-123309.89
-154868.61
-133518.62
-120058.6
-146451.18
-132697.08
-109878.21
-140183.06
-121880.09
-99395.333
-126268.22
-109636.02
-87833.013
-118492.71
-98547.138
-80935.815
-105286.49
-88873.752
-71611.415
-91570.945
-75842.992
-64591.871
-79376.987
-64129.958
-59840.165
-67757.779
-53410.644
-56445.551
-57047.236
-43788.124
-52992.459
-47665.286
-34620.92
-49841.52
-39698.29
-27482.478
-47071.82
-33767.624
-21710.849
-44481.011
-27791.063
-16894.464
-40286.549
-22426.424
-13685.601
-36270.405
-21155.091
-8570.573
-35893.295
-15833.4
-15263.453
-24436.821
-11206.699
-5600.7294
-18283.523
-2106.152
-2639.409
-12061.915
-6853.8727
)
;

boundaryField
{
    free
    {
        type            calculated;
    }
    fixed
    {
        type            calculated;
    }
    traction
    {
        type            calculated;
    }
}


// ************************************************************************* //
