/*--------------------------------*- C++ -*----------------------------------*\
  =========                 |
  \\      /  F ield         | OpenFOAM: The Open Source CFD Toolbox
   \\    /   O peration     | Website:  https://openfoam.org
    \\  /    A nd           | Version:  6
     \\/     M anipulation  |
\*---------------------------------------------------------------------------*/
FoamFile
{
    version     2.0;
    format      ascii;
    class       pointVectorField;
    location    "1.19";
    object      u;
}
// * * * * * * * * * * * * * * * * * * * * * * * * * * * * * * * * * * * * * //

dimensions      [0 1 0 0 0 0 0];

internalField   nonuniform List<vector> 
625
(
(0 2.2854236e-19 0)
(0 2.056698e-19 0)
(-1.4280555 -0.37670579 0.023565957)
(-1.4860584 -0.041191314 0.034220808)
(0 2.9634167e-19 0)
(0 1.6083441e-18 0)
(-1.496173 -0.04486933 0.034361126)
(-1.4382067 -0.38023573 0.023406716)
(0 -3.4740637e-20 0)
(1.5973158e-19 -3.7102818e-19 0)
(0 7.5904594e-19 0)
(-1.4425867 -0.29270603 0.02630276)
(-1.4568777 -0.20891496 0.028932048)
(-1.4714857 -0.12515709 0.031564971)
(-0.0014529343 -0.01323093 -0.013375803)
(-0.011141791 -0.026800928 -0.013050579)
(-0.02953861 -0.041282166 -0.011449854)
(-0.055856562 -0.05636558 -0.0084770341)
(-0.088057182 -0.070866162 -0.005728184)
(-0.12730466 -0.086581869 -0.0021986495)
(-0.17178411 -0.10185667 0.00066858403)
(-0.22180303 -0.11782863 0.0039277691)
(-0.27684154 -0.13404636 0.0066500995)
(-0.3361662 -0.15037487 0.0096122807)
(-0.39969389 -0.16718332 0.011993143)
(-0.46681985 -0.1840672 0.014230586)
(-0.53734962 -0.20111621 0.016147429)
(-0.61069242 -0.21817801 0.017798041)
(-0.68664612 -0.23521918 0.019159835)
(-0.76472103 -0.25212171 0.020276563)
(-0.84462745 -0.26883448 0.021192143)
(-0.92602113 -0.28524658 0.021866107)
(-1.0085289 -0.30138951 0.022476723)
(-1.0918097 -0.31711464 0.022852513)
(-1.1757708 -0.33249649 0.023173039)
(-1.2597733 -0.34757232 0.023395374)
(-1.3440422 -0.36218037 0.02346934)
(-0.00064612263 0.013878293 0.017962041)
(-0.015773269 0.030056002 0.015887874)
(-0.036499088 0.045760115 0.018585821)
(-0.064570231 0.059703258 0.019928)
(-0.10020694 0.071138887 0.021694759)
(-0.143122 0.081372947 0.023626848)
(-0.19102981 0.088587252 0.025833601)
(-0.24529351 0.093863388 0.027592852)
(-0.30432727 0.097100786 0.029628083)
(-0.36772595 0.09779175 0.031178926)
(-0.43516944 0.096782985 0.032663415)
(-0.50618407 0.093687644 0.033782201)
(-0.58012426 0.088784574 0.034725091)
(-0.65672249 0.082196481 0.035330468)
(-0.73549668 0.074092458 0.035726962)
(-0.8160503 0.064587286 0.035885377)
(-0.8980248 0.053893006 0.035858995)
(-0.98104722 0.042114235 0.035716082)
(-1.0648393 0.029505314 0.035420252)
(-1.1490392 0.016102085 0.035152576)
(-1.2335186 0.0022304881 0.034783902)
(-1.3178749 -0.012057269 0.034539332)
(-1.4021767 -0.026623134 0.034322526)
(0 2.075079e-19 0)
(-2.8356935e-18 -6.1014576e-19 0)
(0 1.5463971e-18 0)
(-0.0028525597 0.0071129422 -0.011435692)
(-0.015651791 0.03073457 -0.012468711)
(-0.036195107 0.038273884 -0.0078935094)
(-0.065210426 0.052775703 -0.0046631454)
(-0.10204278 0.063801371 -0.0018053729)
(-0.14465451 0.072276617 0.0026388585)
(-0.19363506 0.07935406 0.0058117763)
(-0.24848977 0.084842361 0.0096693972)
(-0.30811977 0.087935403 0.013003255)
(-0.37228884 0.089203922 0.016263611)
(-0.44041615 0.088568893 0.019194734)
(-0.51201496 0.086013069 0.021887746)
(-0.58668321 0.08181474 0.024204363)
(-0.6638468 0.075780336 0.026304303)
(-0.74324651 0.068336087 0.028039547)
(-0.82428923 0.059342224 0.029537139)
(-0.90674949 0.049138356 0.030766563)
(-0.9901672 0.037747983 0.031769785)
(-1.0742724 0.025417105 0.032578603)
(-1.1587462 0.012249352 0.033203348)
(-1.2433558 -0.0015033794 0.033675136)
(-1.3278814 -0.015755508 0.033995082)
(-1.4121799 -0.030272048 0.034192949)
(-1.4815609 -0.12883543 0.031638239)
(-1.4669019 -0.21247801 0.028854948)
(-1.452754 -0.29619872 0.026069084)
(-1.3542058 -0.36571134 0.02354264)
(-1.2698221 -0.35104942 0.023804658)
(-1.1855355 -0.33601805 0.024173205)
(-1.1013578 -0.32074123 0.024678792)
(-1.017629 -0.30512851 0.025214565)
(-0.934639 -0.28926369 0.025753667)
(-0.85270242 -0.27315845 0.026241537)
(-0.77217845 -0.25690236 0.026633691)
(-0.69342103 -0.24052161 0.026876608)
(-0.61681149 -0.22413379 0.026943506)
(-0.54276185 -0.20769506 0.026763513)
(-0.47160613 -0.19143118 0.026417657)
(-0.40381317 -0.17522984 0.025778522)
(-0.33960894 -0.1590704 0.024896203)
(-0.28042271 -0.14292205 0.02366669)
(-0.22454245 -0.12728963 0.022669894)
(-0.17452492 -0.11161166 0.021241431)
(-0.1293714 -0.095570482 0.019871158)
(-0.091234931 -0.079771124 0.018525376)
(-0.058138589 -0.063661039 0.017146084)
(-0.031661547 -0.048093157 0.016575368)
(-0.014411969 -0.03014766 0.015103656)
(-0.0078363421 -0.015581854 0.010380458)
(0 -3.7052239e-19 0)
(0 -3.8637729e-19 -7.9694177e-19)
(0 -1.1387453e-18 0)
(0 6.6951486e-19 0)
(0 -7.4080534e-20 2.3620829e-19)
(0 5.099413e-19 0)
(-1.4886165 -0.042017012 0.034288905)
(-1.4911781 -0.042930788 0.034267368)
(-1.4936388 -0.043823682 0.034314214)
(-1.430573 -0.37767583 0.023518247)
(-1.4331439 -0.37860077 0.023533718)
(-1.4356459 -0.37946451 0.023442212)
(0.0038210581 -0.0067402424 -0.0080426629)
(-0.0067561879 -0.012297125 -0.0051365332)
(-0.025684154 -0.018863611 -0.0038412736)
(-0.052822667 -0.026250293 -0.0011703412)
(-0.086141691 -0.034241618 0.0014792937)
(-0.12674467 -0.043449135 0.0042367933)
(-0.17257602 -0.052900334 0.0071363437)
(-0.22398785 -0.063683036 0.0098959689)
(-0.28019952 -0.074913504 0.012576855)
(-0.34110131 -0.087127813 0.01501753)
(-0.40594817 -0.10002264 0.017199164)
(-0.47441953 -0.11347102 0.019155361)
(-0.54610568 -0.12752538 0.020827749)
(-0.62059707 -0.14204319 0.02223252)
(-0.69754339 -0.15690908 0.023365437)
(-0.77650693 -0.17203792 0.024273184)
(-0.85721547 -0.18732778 0.024950966)
(-0.93920059 -0.20267446 0.025449311)
(-1.0222392 -0.21805229 0.025810429)
(-1.1059339 -0.23326823 0.025989727)
(-1.1901072 -0.24841471 0.026188174)
(-1.2742955 -0.26334376 0.026187001)
(-1.3586527 -0.27811271 0.02623204)
(0.0054667708 0.0004449051 0.0010815521)
(-0.0074492545 0.002426843 0.0028200992)
(-0.026638336 0.00270992 0.0043317468)
(-0.054095064 0.0023826329 0.0060867519)
(-0.088821179 0.0012405443 0.008462016)
(-0.12977625 -0.0015931127 0.010948569)
(-0.17665219 -0.0054782277 0.013474192)
(-0.22917211 -0.010877925 0.015905973)
(-0.28653188 -0.017310254 0.018185816)
(-0.34839203 -0.025203514 0.020377222)
(-0.41420732 -0.034123507 0.022291147)
(-0.48362971 -0.04422123 0.023956444)
(-0.55621396 -0.055257351 0.025340154)
(-0.63154632 -0.067194464 0.026460712)
(-0.70921412 -0.079845773 0.027329608)
(-0.78884818 -0.093169885 0.027973956)
(-0.87007935 -0.10696652 0.02841161)
(-0.95252286 -0.1211822 0.02869926)
(-1.035936 -0.13565606 0.028842692)
(-1.1198596 -0.15028741 0.028933981)
(-1.204237 -0.16501885 0.028913682)
(-1.2885792 -0.17974791 0.028921645)
(-1.3730438 -0.19444213 0.0289128)
(0.0047817921 0.0074104618 0.0074436859)
(-0.0095687432 0.015131773 0.0091265505)
(-0.02860332 0.02282665 0.010746791)
(-0.057217768 0.029599013 0.012590687)
(-0.092262 0.035188105 0.014893524)
(-0.13398101 0.038321289 0.017103622)
(-0.18200146 0.040415467 0.019391796)
(-0.23526518 0.040348673 0.021578792)
(-0.29352355 0.03866988 0.023781118)
(-0.35631503 0.035242147 0.025668973)
(-0.42312079 0.03021513 0.027357391)
(-0.49343018 0.023659098 0.02878157)
(-0.56687543 0.015741518 0.029945386)
(-0.64294501 0.006516954 0.030857888)
(-0.72130957 -0.0038255683 0.031508046)
(-0.80153951 -0.015189406 0.031946431)
(-0.88326308 -0.027377955 0.03218052)
(-0.96616289 -0.04030283 0.032262749)
(-1.049841 -0.053783079 0.032246936)
(-1.1341202 -0.067666499 0.032087905)
(-1.2185837 -0.081897519 0.032007901)
(-1.3031238 -0.096241441 0.031802431)
(-1.3875288 -0.11068038 0.031701802)
(0 -2.3477344e-19 0)
(0 3.8789654e-19 8.1362921e-19)
(0 8.4512142e-19 0)
(-4.2346351e-19 8.4553412e-21 0)
(1.7687103e-19 -2.6206881e-19 -1.3052843e-20)
(-1.1146304e-18 -1.0024281e-18 0)
(0 3.8131795e-19 0)
(0 1.0248015e-18 -2.725521e-20)
(0 1.128539e-18 0)
(-0.0066884768 0.0059116973 0.0074047969)
(-0.0080230542 0.0073137189 0.0012912675)
(-0.006674339 0.0050437429 -0.0039854538)
(-0.023348153 0.031492496 0.0085794295)
(-0.022713144 0.030448116 0.0021727661)
(-0.02150331 0.028333402 -0.0055988269)
(-0.040787887 0.042712243 0.011090372)
(-0.042093114 0.04033007 0.0046051472)
(-0.041784722 0.041300435 -0.0024789251)
(-0.070011885 0.057412043 0.012784615)
(-0.071598241 0.056473408 0.0067688406)
(-0.069946059 0.053971673 0.00062944786)
(-0.10563109 0.068975642 0.015275656)
(-0.10649583 0.066392486 0.0098496601)
(-0.10628174 0.065512359 0.0036109421)
(-0.14742309 0.078396624 0.017871047)
(-0.14919241 0.076181855 0.012191546)
(-0.14844042 0.074191454 0.0072239631)
(-0.19585539 0.085692636 0.02018457)
(-0.19747586 0.08362834 0.015866938)
(-0.19734445 0.081707166 0.010127417)
(-0.2499014 0.091267512 0.022801501)
(-0.25118 0.088222285 0.018337682)
(-0.25133255 0.086657985 0.013720853)
(-0.308515 0.094029132 0.025014316)
(-0.31026897 0.091864374 0.021224625)
(-0.31052031 0.090007724 0.016697444)
(-0.37190348 0.09527569 0.027241766)
(-0.3736507 0.092844454 0.023662302)
(-0.37425152 0.091059 0.019669004)
(-0.43923121 0.094282764 0.029039814)
(-0.44112917 0.092022906 0.025906851)
(-0.44184619 0.090348003 0.022257609)
(-0.51003875 0.091369793 0.030616713)
(-0.511951 0.089254666 0.02788922)
(-0.51300185 0.087670454 0.024611939)
(-0.58388032 0.086712923 0.031933361)
(-0.5859803 0.084783572 0.029529509)
(-0.58720634 0.083309085 0.026619041)
(-0.66035575 0.08035262 0.032935725)
(-0.66248121 0.078538636 0.030882885)
(-0.66393916 0.077213003 0.028371506)
(-0.73899108 0.072462673 0.03369081)
(-0.74123709 0.070853744 0.031966754)
(-0.74288944 0.069614625 0.029816217)
(-0.81941768 0.063177352 0.034207337)
(-0.82172647 0.061679452 0.032784897)
(-0.82356393 0.060570938 0.030986533)
(-0.90125661 0.052649933 0.034518353)
(-0.90363266 0.051318773 0.033375564)
(-0.90562776 0.050272602 0.031938777)
(-0.98414614 0.041043144 0.03465951)
(-0.98658312 0.039800225 0.033791896)
(-0.98872405 0.038846821 0.032661316)
(-1.0677961 0.028526913 0.034683722)
(-1.0702661 0.027406113 0.034041378)
(-1.0725173 0.026475922 0.033220126)
(-1.1518805 0.015237249 0.03461642)
(-1.1543846 0.014168702 0.034176933)
(-1.156736 0.013288202 0.033627725)
(-1.2361835 0.0013983549 0.034490194)
(-1.2387049 0.0004073757 0.034252537)
(-1.2411244 -0.00048438842 0.033911524)
(-1.320494 -0.012883874 0.034401544)
(-1.3230403 -0.013839939 0.034268848)
(-1.3255186 -0.014725044 0.034094501)
(-1.4047037 -0.027442433 0.034308822)
(-1.4072306 -0.02834579 0.034281409)
(-1.409731 -0.029286225 0.034203511)
(-1.4451259 -0.29366051 0.026228677)
(-1.4476936 -0.29456344 0.026193526)
(-1.4501882 -0.29541547 0.026117659)
(-1.459396 -0.20982665 0.028891627)
(-1.461961 -0.2107306 0.02890252)
(-1.464388 -0.21162908 0.028874056)
(-1.4740905 -0.1259751 0.031584364)
(-1.4766381 -0.12689527 0.03160747)
(-1.4791089 -0.12779981 0.031615942)
(-0.0090681847 -0.011443777 -0.006906218)
(-0.0099997011 -0.013414324 -0.0023459108)
(-0.011634262 -0.01323908 0.0033054485)
(-0.018472682 -0.027086428 -0.0062323912)
(-0.019982884 -0.029279202 0.00084319011)
(-0.019641437 -0.029151177 0.008338158)
(-0.036579317 -0.04455945 -0.0048520961)
(-0.038018412 -0.045540796 0.001273306)
(-0.038250694 -0.047362411 0.010100768)
(-0.0621183 -0.058478279 -0.0020291843)
(-0.06353264 -0.061122591 0.0037064298)
(-0.063288203 -0.062463591 0.011327454)
(-0.093798141 -0.074910945 6.5195477e-05)
(-0.095683962 -0.077166349 0.0063730391)
(-0.095297448 -0.079041666 0.012765367)
(-0.13279811 -0.090090543 0.0034298266)
(-0.13383782 -0.092321499 0.0080016274)
(-0.13402147 -0.094593484 0.014957099)
(-0.17682838 -0.10550435 0.0059660206)
(-0.1782744 -0.10827305 0.010805604)
(-0.17824435 -0.11044649 0.016614487)
(-0.22667036 -0.12151294 0.0088059792)
(-0.22781031 -0.12410708 0.013044719)
(-0.22797266 -0.12629395 0.018622609)
(-0.28080515 -0.13764285 0.011061301)
(-0.28271804 -0.14003693 0.015578238)
(-0.28260689 -0.14224398 0.019835834)
(-0.34041615 -0.1539567 0.013767699)
(-0.34167486 -0.1561201 0.016830749)
(-0.34224115 -0.15829944 0.021712995)
(-0.40359953 -0.17031029 0.015711327)
(-0.40512609 -0.17252038 0.019052261)
(-0.40554193 -0.17451728 0.022884112)
(-0.47061348 -0.18706757 0.017624713)
(-0.47212708 -0.1889783 0.020387432)
(-0.47288034 -0.19094185 0.023889352)
(-0.54089749 -0.20376404 0.019112889)
(-0.54259622 -0.20558543 0.021639065)
(-0.54347647 -0.20733309 0.02460001)
(-0.61414714 -0.22059481 0.020404746)
(-0.615938 -0.22221499 0.02252322)
(-0.61704284 -0.22380868 0.02509681)
(-0.68993824 -0.23735282 0.021375797)
(-0.69186489 -0.23880271 0.023214148)
(-0.69316004 -0.24027888 0.025339959)
(-0.76789842 -0.25400622 0.022149922)
(-0.76996147 -0.25533772 0.023637578)
(-0.77145348 -0.25666792 0.025387194)
(-0.84770615 -0.27049959 0.022676468)
(-0.84987466 -0.27168641 0.023901871)
(-0.85155792 -0.2729128 0.025264055)
(-0.92895963 -0.28672947 0.023073828)
(-0.9312372 -0.28784215 0.023992082)
(-0.93310166 -0.28896376 0.025021421)
(-1.0113522 -0.30269209 0.023295947)
(-1.0137489 -0.30369812 0.023973218)
(-1.0157663 -0.30475766 0.024702996)
(-1.0945857 -0.31827279 0.023384176)
(-1.0970412 -0.31929821 0.023919212)
(-1.0992032 -0.32026966 0.024351917)
(-1.1783885 -0.33355705 0.02351472)
(-1.1809146 -0.33448286 0.023785024)
(-1.1831732 -0.335432 0.024008305)
(-1.2624003 -0.34852617 0.023550717)
(-1.2648768 -0.34946056 0.023656395)
(-1.2672939 -0.35036916 0.023736428)
(-1.3466128 -0.36314957 0.023487349)
(-1.3491369 -0.36405306 0.023515281)
(-1.3516411 -0.36494843 0.023541723)
(0.0010786651 -0.0049526509 0.0073900225)
(-0.0091156592 -0.019763003 0.0091501102)
(-0.026755963 -0.024342194 0.0094428354)
(-0.054772255 -0.034135683 0.011420376)
(-0.08816888 -0.043278391 0.013368718)
(-0.12874615 -0.052387484 0.015045601)
(-0.1749927 -0.062537477 0.017029065)
(-0.2267344 -0.07284317 0.018961508)
(-0.28355895 -0.084014485 0.020700173)
(-0.34483675 -0.095530302 0.022253883)
(-0.41019761 -0.1078647 0.023790226)
(-0.47936831 -0.120535 0.024832616)
(-0.55171276 -0.13390546 0.025766401)
(-0.62688373 -0.14772959 0.026429527)
(-0.70450026 -0.16195846 0.02684993)
(-0.78413044 -0.17654041 0.02707968)
(-0.86539884 -0.19138975 0.027135753)
(-0.94795067 -0.2064143 0.027069209)
(-1.0314224 -0.22152577 0.026908926)
(-1.1155131 -0.23666262 0.02671225)
(-1.1999357 -0.25175905 0.026491631)
(-1.2843553 -0.26669614 0.026339756)
(-1.3688203 -0.28159937 0.026148318)
(0.0047748127 -0.0024065542 0.00016947417)
(-0.0074835788 -0.0043816042 0.0027769932)
(-0.028087485 -0.0029833636 0.0036358147)
(-0.056276776 -0.0060009904 0.0065920868)
(-0.090556681 -0.0080023552 0.0089065773)
(-0.13237407 -0.01072978 0.01099878)
(-0.17945061 -0.015436358 0.013754192)
(-0.2324364 -0.02055466 0.016146487)
(-0.29037252 -0.02672517 0.018321219)
(-0.35263411 -0.034261942 0.020570981)
(-0.4191268 -0.04259073 0.022387625)
(-0.48921968 -0.052026013 0.024034953)
(-0.56241989 -0.062362301 0.025435333)
(-0.63839601 -0.073663054 0.026533385)
(-0.71667646 -0.085660074 0.027391189)
(-0.79687539 -0.09843472 0.02803157)
(-0.87862022 -0.11176127 0.028458219)
(-0.96153647 -0.12557932 0.028742442)
(-1.0452944 -0.13976222 0.028873031)
(-1.1295622 -0.15420724 0.02893847)
(-1.2141209 -0.16877657 0.028933912)
(-1.2985756 -0.18342581 0.028900615)
(-1.3831899 -0.19810793 0.02887166)
(0.0052592448 0.0048903956 -0.0046337636)
(-0.010492154 0.0087392428 -0.0035493438)
(-0.030396644 0.018006013 -0.0033896538)
(-0.058304228 0.020163757 0.00080048325)
(-0.093985136 0.026208209 0.0025392328)
(-0.1364382 0.028417254 0.0059682477)
(-0.18441232 0.030068814 0.0091188262)
(-0.23854028 0.030244182 0.01195543)
(-0.29720249 0.028653866 0.014962792)
(-0.36071078 0.025753884 0.017654476)
(-0.42808328 0.021339232 0.02007993)
(-0.49902559 0.015462287 0.022339376)
(-0.57310941 0.0082483262 0.024208269)
(-0.64982521 -0.00025611537 0.025865062)
(-0.72879571 -0.0099303658 0.027226216)
(-0.80959238 -0.020665675 0.02834449)
(-0.89183833 -0.032342973 0.029234303)
(-0.97516973 -0.044807539 0.02993589)
(-1.0592581 -0.057946214 0.030452229)
(-1.1437893 -0.071586363 0.030873362)
(-1.2284948 -0.085628492 0.03111609)
(-1.3131614 -0.099888096 0.031383798)
(-1.3976084 -0.11430939 0.031432751)
(-0.0010427511 -0.0034664239 -0.0038108254)
(-0.001560313 -0.004214977 -0.0010623489)
(-0.0030431704 -0.0042177496 0.0024746761)
(-0.012965399 -0.014180192 -0.0019312122)
(-0.0149995 -0.01544554 0.0014965879)
(-0.014021248 -0.0159817 0.0064032846)
(-0.032199741 -0.020814828 -0.00046508716)
(-0.032599263 -0.022276922 0.003288866)
(-0.032701743 -0.024065411 0.0064870192)
(-0.058325059 -0.029428613 0.0020609464)
(-0.060168354 -0.031715295 0.0054738328)
(-0.05966242 -0.032517927 0.0086439309)
(-0.092011453 -0.037873317 0.0047713445)
(-0.093121523 -0.039910389 0.0074382234)
(-0.093066608 -0.041773662 0.010881414)
(-0.13175846 -0.046854817 0.0072326835)
(-0.13315717 -0.049645622 0.010023623)
(-0.13291888 -0.051274998 0.012790497)
(-0.17738528 -0.056778861 0.0099491378)
(-0.17869883 -0.059386613 0.01251294)
(-0.17874164 -0.061126469 0.014979734)
(-0.2283737 -0.067439827 0.012611681)
(-0.22989159 -0.069827331 0.014765499)
(-0.22999023 -0.071742207 0.017104179)
(-0.28460673 -0.078420958 0.015042577)
(-0.28597694 -0.081029889 0.016964926)
(-0.28625511 -0.082929916 0.019178513)
(-0.34514438 -0.090483059 0.017279733)
(-0.34655448 -0.093025975 0.019074047)
(-0.34711711 -0.09452174 0.020876297)
(-0.40974722 -0.1031366 0.019258434)
(-0.41133166 -0.10528417 0.020903668)
(-0.41192199 -0.1070358 0.022468043)
(-0.47802451 -0.11629462 0.021031946)
(-0.47968948 -0.11844374 0.022382165)
(-0.48056213 -0.11995365 0.023830551)
(-0.54957424 -0.13012166 0.022465255)
(-0.55135948 -0.13198694 0.023691666)
(-0.55239792 -0.13340439 0.024837314)
(-0.62392876 -0.14433177 0.023685515)
(-0.62583234 -0.14605641 0.024655422)
(-0.62708718 -0.14731507 0.025672269)
(-0.7007563 -0.15894298 0.024585657)
(-0.70277196 -0.16047079 0.025403009)
(-0.70420739 -0.16165166 0.026216135)
(-0.77962384 -0.17382025 0.025292892)
(-0.78175243 -0.17521561 0.025918861)
(-0.78338834 -0.17625811 0.026578689)
(-0.86020576 -0.18890067 0.025762886)
(-0.8624364 -0.19014051 0.026238027)
(-0.86424629 -0.19112265 0.026733582)
(-0.94211265 -0.2040598 0.026085956)
(-0.94444321 -0.20520185 0.026402602)
(-0.94640621 -0.20610878 0.026777493)
(-1.0250401 -0.21928578 0.026250393)
(-1.0274509 -0.2202896 0.026457474)
(-1.0295766 -0.22118467 0.026693714)
(-1.1086471 -0.23433627 0.026323788)
(-1.1111699 -0.23536845 0.026411805)
(-1.1133577 -0.23620465 0.026587714)
(-1.1927031 -0.24939227 0.026364201)
(-1.1952807 -0.2504424 0.026337555)
(-1.1975784 -0.25122855 0.026424512)
(-1.2769312 -0.26426677 0.026270859)
(-1.2794191 -0.26519652 0.026265236)
(-1.2818478 -0.2660118 0.026314172)
(-1.361189 -0.27907178 0.026228714)
(-1.3637369 -0.27996892 0.026219462)
(-1.3662445 -0.28083558 0.026197344)
(0.0018346551 -0.00029280284 0.00079296498)
(0.0005152388 -0.0012861075 0.00052706339)
(-0.00042682497 -0.0013909027 0.00036129645)
(-0.012553892 0.00058711802 0.0031058289)
(-0.01374731 -0.0012449047 0.0027979948)
(-0.01215737 -0.0018695773 0.0030655845)
(-0.032117569 9.3205048e-05 0.0044455091)
(-0.033462487 -0.0011846959 0.0035053987)
(-0.032799657 -0.0026088587 0.0040265279)
(-0.059354454 3.3618688e-05 0.0067397461)
(-0.061666403 -0.0021890816 0.0060395441)
(-0.060383248 -0.0031148983 0.0065008813)
(-0.093756665 -0.002197555 0.0088237208)
(-0.095636259 -0.0042141881 0.0079220544)
(-0.094540088 -0.0062851081 0.0090137782)
(-0.13451633 -0.0048689046 0.011455079)
(-0.13649492 -0.007150932 0.010949304)
(-0.13561051 -0.0089609614 0.011341205)
(-0.18117091 -0.0090749675 0.014046587)
(-0.18315554 -0.011283387 0.013118272)
(-0.18252348 -0.013180064 0.013883765)
(-0.2334789 -0.014169208 0.01642811)
(-0.23539477 -0.016607319 0.015749233)
(-0.23487228 -0.018715142 0.016495752)
(-0.29048852 -0.020753737 0.018724582)
(-0.29258002 -0.023024952 0.018210439)
(-0.29236414 -0.024866379 0.018672243)
(-0.35221912 -0.028461053 0.020926602)
(-0.35426404 -0.030539995 0.020323052)
(-0.35422346 -0.032542219 0.020791829)
(-0.41791496 -0.037143391 0.022812767)
(-0.42001645 -0.039208003 0.022193555)
(-0.42026034 -0.040933248 0.022781653)
(-0.48722767 -0.046999523 0.024437375)
(-0.48935099 -0.04892197 0.023917962)
(-0.48986142 -0.05056245 0.024353518)
(-0.55968009 -0.05779608 0.025792977)
(-0.56191252 -0.059528565 0.025303361)
(-0.56265325 -0.060989798 0.025740092)
(-0.63491187 -0.069438215 0.026861171)
(-0.63717935 -0.071040807 0.026419261)
(-0.63816421 -0.072407309 0.026815433)
(-0.71247693 -0.081871082 0.027678065)
(-0.71481309 -0.083305226 0.027311901)
(-0.71605373 -0.084531746 0.027651224)
(-0.79201547 -0.094941305 0.028272471)
(-0.79440214 -0.096251762 0.027935625)
(-0.79586951 -0.097364956 0.028243458)
(-0.87314639 -0.10854503 0.028650324)
(-0.87557972 -0.10971812 0.028388809)
(-0.87727095 -0.11075201 0.028645909)
(-0.95550559 -0.12257171 0.028887942)
(-0.95798541 -0.12364305 0.028661937)
(-0.95986886 -0.12462325 0.028886241)
(-1.0388059 -0.1368959 0.028979694)
(-1.0413119 -0.13789918 0.028821385)
(-1.0433767 -0.13880979 0.028983126)
(-1.1226751 -0.15145018 0.029022216)
(-1.1252099 -0.15231565 0.028883071)
(-1.1274056 -0.15327366 0.029026317)
(-1.2069901 -0.16611127 0.028932224)
(-1.2093978 -0.16687565 0.028956055)
(-1.2118241 -0.16786558 0.028971971)
(-1.2912109 -0.18069168 0.028953912)
(-1.293722 -0.18163742 0.028881185)
(-1.2961571 -0.1824772 0.028960752)
(-1.375608 -0.19537995 0.028916581)
(-1.3781587 -0.19626984 0.028885086)
(-1.380643 -0.19720554 0.02887903)
(0.00022692379 0.0045347219 0.003066461)
(0.00055460138 0.0039027934 0.00052967464)
(0.00081496371 0.003297875 -0.002185241)
(-0.016053232 0.012796786 0.0054709372)
(-0.017074083 0.010274403 0.0019043915)
(-0.015261349 0.01015321 -0.00095052436)
(-0.034666671 0.020562074 0.0069844093)
(-0.035734716 0.020311668 0.0037252486)
(-0.035160612 0.018731415 0.00023570494)
(-0.063384748 0.027246033 0.0092014716)
(-0.064084783 0.024421702 0.0060843786)
(-0.063627238 0.02302051 0.003363784)
(-0.097815441 0.031722802 0.011581233)
(-0.098985641 0.030126643 0.0087685001)
(-0.0985448 0.02811113 0.0060366299)
(-0.13952197 0.035348584 0.014277162)
(-0.14067339 0.032952477 0.011474213)
(-0.14038053 0.030922443 0.0089759498)
(-0.18712356 0.037112231 0.016734318)
(-0.18815532 0.034657371 0.014020239)
(-0.18828551 0.032290651 0.011956891)
(-0.24011999 0.036957751 0.019195247)
(-0.24137556 0.034644238 0.017069682)
(-0.24170173 0.032565597 0.014806922)
(-0.29825457 0.035454419 0.021689996)
(-0.29956065 0.033154798 0.01937733)
(-0.30002737 0.030766645 0.017427716)
(-0.36084716 0.032221785 0.023773282)
(-0.36218106 0.029853074 0.021788491)
(-0.36293477 0.027797918 0.020074529)
(-0.42739209 0.02736213 0.025690523)
(-0.42894182 0.02527066 0.023907298)
(-0.42990384 0.023185258 0.022278261)
(-0.49756942 0.021067386 0.027351859)
(-0.49916492 0.019093136 0.025751272)
(-0.50034507 0.017151091 0.024311112)
(-0.5708268 0.013395735 0.028706009)
(-0.572567 0.011591954 0.027276943)
(-0.57395665 0.0097774277 0.026029149)
(-0.64676072 0.0044415161 0.029806989)
(-0.6485995 0.0027993466 0.028582604)
(-0.65019576 0.0011300104 0.027458764)
(-0.72497762 -0.0056531414 0.030631889)
(-0.72694097 -0.0071486684 0.029564993)
(-0.72871466 -0.0086713951 0.02862106)
(-0.80505908 -0.016766515 0.031228265)
(-0.80712751 -0.018108736 0.030334289)
(-0.8090764 -0.019504974 0.029540813)
(-0.88665096 -0.028749865 0.031603745)
(-0.88881994 -0.029977864 0.030882866)
(-0.89091206 -0.031258897 0.03022796)
(-0.96938376 -0.041491122 0.031830027)
(-0.97165744 -0.042605556 0.031244084)
(-0.97387666 -0.04379485 0.030740336)
(-1.0529586 -0.054808808 0.031906503)
(-1.0552923 -0.055854013 0.031474251)
(-1.0576123 -0.056956231 0.031086496)
(-1.1370447 -0.068598474 0.031880748)
(-1.139475 -0.069584357 0.031587435)
(-1.1418615 -0.070636976 0.031321294)
(-1.2214029 -0.082737591 0.031862242)
(-1.2238423 -0.08368673 0.031621068)
(-1.2263019 -0.084706862 0.03144986)
(-1.3058185 -0.097057219 0.031727862)
(-1.3083458 -0.097988373 0.03160206)
(-1.310831 -0.098976986 0.031514261)
(-1.390119 -0.11150131 0.031673638)
(-1.3926285 -0.1124037 0.031608681)
(-1.3951407 -0.11333698 0.031574979)
)
;

boundaryField
{
    free
    {
        type            calculated;
    }
    fixed
    {
        type            calculated;
    }
    freeTop
    {
        type            calculated;
    }
}


// ************************************************************************* //
