/*--------------------------------*- C++ -*----------------------------------*\
  =========                 |
  \\      /  F ield         | OpenFOAM: The Open Source CFD Toolbox
   \\    /   O peration     | Website:  https://openfoam.org
    \\  /    A nd           | Version:  6
     \\/     M anipulation  |
\*---------------------------------------------------------------------------*/
FoamFile
{
    version     2.0;
    format      ascii;
    class       pointVectorField;
    location    "0.61";
    object      lm;
}
// * * * * * * * * * * * * * * * * * * * * * * * * * * * * * * * * * * * * * //

dimensions      [1 -2 -1 0 0 0 0];

internalField   nonuniform List<vector> 
3969
(
(0 0 0)
(0 0 0)
(3760.9952 -1117.1061 46.194432)
(3556.5733 -1463.8286 56.515264)
(0 0 0)
(0 0 0)
(3531.1989 -1483.0032 57.553011)
(3736.764 -1134.944 45.296261)
(0 0 0)
(0 0 0)
(0 0 0)
(0 0 0)
(0 0 0)
(0 0 0)
(0 0 0)
(3736.7829 -1158.1705 48.573028)
(3712.97 -1201.2892 50.769938)
(3687.9795 -1245.9752 51.654839)
(3662.066 -1291.0603 52.16217)
(3635.334 -1335.9318 52.52281)
(3608.5658 -1379.7944 53.307066)
(3581.8419 -1422.39 54.604939)
(39.049517 56.326559 57.429886)
(64.789916 100.67751 67.215015)
(103.22767 146.17629 73.801069)
(155.05987 187.97178 74.056803)
(216.95783 227.98496 74.085994)
(291.76039 261.70376 71.981822)
(375.0756 290.04092 70.477987)
(468.81419 310.98688 67.691069)
(568.52653 324.53844 65.918864)
(674.68307 330.17881 63.132985)
(784.3382 328.60386 61.431787)
(896.34782 319.63282 59.593288)
(1008.5897 304.19601 59.020186)
(1120.1829 283.06692 58.912876)
(1229.7093 257.17289 59.77843)
(1336.7604 227.81987 61.613022)
(1441.2894 195.51593 63.851003)
(1543.3116 161.12982 66.439309)
(1643.5005 125.22992 68.749622)
(1742.53 88.124533 70.272524)
(1841.2716 49.910098 70.579072)
(1940.5018 10.607166 69.173303)
(2040.6724 -30.041571 65.978768)
(2142.1843 -72.208756 60.870986)
(2244.8911 -116.21674 54.080659)
(2348.4566 -162.3221 45.942468)
(2452.2063 -210.72076 36.80248)
(2555.237 -261.31424 27.283846)
(2656.5669 -314.07585 17.809129)
(2755.1094 -368.75322 8.7738901)
(2849.909 -424.85483 0.6135504)
(2940.0461 -481.95096 -6.428996)
(3024.8275 -539.23185 -12.184003)
(3103.6987 -596.1017 -16.441388)
(3176.352 -651.74499 -19.103837)
(3242.768 -705.40179 -20.23823)
(3302.934 -756.40804 -19.630396)
(3357.4057 -804.19742 -17.127829)
(3406.6202 -848.5126 -13.375042)
(3451.2554 -889.1022 -8.0437347)
(3492.564 -925.90413 -1.6079152)
(3530.9463 -959.16772 5.7336605)
(3568.1124 -989.82878 13.550798)
(3604.5596 -1016.9312 21.312408)
(3641.5264 -1043.4808 28.709593)
(3679.9084 -1068.2057 35.255779)
(3719.8252 -1092.2937 40.873635)
(-5.7664575 -42.884841 -57.094279)
(11.053905 -65.257035 -58.581101)
(30.663823 -97.204214 -72.274449)
(69.030221 -125.81084 -64.715702)
(117.68052 -159.84193 -61.987942)
(176.92676 -193.67683 -52.398841)
(244.82958 -227.28186 -44.00909)
(320.37237 -261.96349 -32.853067)
(403.37499 -296.49383 -21.411389)
(492.33896 -331.68165 -9.0791988)
(584.81723 -365.42155 3.0173574)
(681.46193 -400.01137 15.651555)
(778.95209 -433.20239 27.252482)
(877.62744 -466.50564 38.088058)
(975.29208 -499.35743 47.451025)
(1072.0279 -532.28517 55.254906)
(1166.7944 -565.76823 60.990236)
(1259.4731 -599.56195 64.702575)
(1350.451 -634.94315 66.245533)
(1439.8519 -671.30369 65.683525)
(1528.497 -709.27468 63.349634)
(1617.1924 -748.8674 59.480703)
(1706.5503 -789.52854 54.590484)
(1797.4423 -831.48416 49.290766)
(1890.1888 -873.8762 43.990835)
(1985.1569 -916.70864 39.107875)
(2082.3534 -958.93969 35.352085)
(2181.1874 -1000.4866 32.588934)
(2281.1529 -1040.605 31.203896)
(2381.4695 -1078.8307 31.117471)
(2480.9829 -1114.6762 32.161177)
(2578.7525 -1147.7978 34.087828)
(2673.6629 -1177.9526 36.584447)
(2764.8041 -1205.0411 39.369976)
(2851.3411 -1229.0382 42.130153)
(2932.5921 -1250.1754 44.61335)
(3008.4541 -1268.7952 46.980761)
(3078.2167 -1285.416 48.439239)
(3142.1955 -1300.2568 49.802321)
(3200.9244 -1314.4726 50.681269)
(3254.4135 -1328.4356 51.32473)
(3303.5816 -1342.8462 51.594872)
(3349.2068 -1358.327 51.908568)
(3392.1737 -1375.363 52.192877)
(3433.4957 -1394.3869 52.751274)
(3474.1796 -1415.5524 53.695924)
(3514.9526 -1438.7766 54.929656)
(0 0 0)
(0 0 0)
(0 0 0)
(0 0 0)
(0 0 0)
(0 0 0)
(0 0 0)
(12.764405 -29.331494 44.060275)
(17.919749 -89.371607 62.512003)
(37.250351 -94.174306 65.015231)
(75.40553 -145.54014 64.056783)
(124.39065 -175.66351 63.697754)
(181.71357 -211.7688 56.83864)
(249.52861 -252.06004 55.104378)
(323.06905 -285.68965 49.221395)
(404.65005 -325.71962 47.164976)
(489.94368 -358.21959 42.372971)
(580.53863 -396.72871 42.050021)
(676.20538 -427.49366 37.595748)
(771.26421 -461.86691 38.062518)
(867.84625 -492.5557 38.038707)
(963.4118 -522.31661 40.028972)
(1058.1583 -551.80678 43.055983)
(1151.6328 -579.54299 46.708843)
(1243.7717 -608.21435 50.746904)
(1335.2498 -636.88389 54.28197)
(1426.485 -667.10565 56.702033)
(1518.2662 -699.06495 57.464946)
(1611.1753 -733.38025 56.086608)
(1705.7636 -770.23391 52.382105)
(1802.3766 -809.64526 46.365457)
(1900.8154 -851.36788 38.397542)
(2001.0915 -894.87284 29.020886)
(2102.2015 -938.83551 18.78126)
(2203.7252 -983.16704 8.7783693)
(2304.9582 -1026.62 -1.0664561)
(2405.1072 -1068.5673 -9.9030673)
(2503.156 -1108.2137 -17.360399)
(2598.318 -1144.9886 -23.171882)
(2689.7361 -1178.5645 -27.074734)
(2776.7389 -1208.6933 -29.062666)
(2858.8319 -1235.4324 -29.086768)
(2935.1592 -1258.6735 -27.201454)
(3006.5663 -1280.7178 -23.743742)
(3071.7498 -1297.8449 -18.30934)
(3131.6314 -1314.858 -11.867916)
(3186.5167 -1330.353 -4.1210187)
(3236.5952 -1345.338 4.422071)
(3283.087 -1360.6128 13.351947)
(3326.5238 -1376.6568 22.361263)
(3367.9841 -1394.0934 31.052768)
(3408.3823 -1413.3224 39.055618)
(3448.6103 -1434.6628 46.124099)
(3489.7331 -1458.0734 51.99962)
(3556.4616 -1441.7536 56.968466)
(3583.0364 -1399.3048 55.786061)
(3610.3754 -1355.5613 53.841858)
(3636.7905 -1310.1215 51.325519)
(3663.1493 -1265.0862 48.96412)
(3688.1584 -1219.9695 46.712261)
(3712.0608 -1176.4501 45.784829)
(3694.937 -1109.9963 43.416799)
(3654.3822 -1085.6862 41.226813)
(3615.9407 -1060.8421 40.038127)
(3578.8044 -1034.2576 39.332892)
(3542.4097 -1005.5891 38.916532)
(3506.0739 -974.09806 38.987525)
(3468.7534 -939.23508 39.284497)
(3429.4431 -900.68799 39.731209)
(3387.112 -858.14163 40.070017)
(3340.9266 -811.73049 40.454479)
(3290.2319 -761.75009 40.593654)
(3232.8637 -707.54176 40.101015)
(3170.6622 -651.26913 39.41154)
(3101.6125 -592.12979 38.339784)
(3026.3607 -531.73936 36.963975)
(2944.903 -470.66119 35.4954)
(2857.8597 -409.89394 34.171636)
(2765.8513 -350.4361 33.268068)
(2669.7578 -292.99521 32.954946)
(2570.5092 -238.48583 33.51128)
(2469.0987 -187.28454 34.923322)
(2366.3665 -139.78872 37.157257)
(2263.1814 -95.911732 40.009484)
(2160.1332 -55.569885 43.289644)
(2057.5228 -18.125047 46.436053)
(1955.4888 16.844335 49.179333)
(1853.868 50.10767 51.001471)
(1752.2465 82.141858 51.572744)
(1650.1334 113.45989 50.580585)
(1546.8946 144.16969 47.871071)
(1442 174.15744 43.346164)
(1335.1009 203.15196 37.094426)
(1226.2678 230.31094 29.411515)
(1115.3424 253.99459 20.599262)
(1002.9349 274.19303 10.339252)
(889.96803 289.771 -0.069909207)
(778.35162 299.64114 -11.397261)
(668.30574 302.75607 -21.986306)
(562.8685 299.37175 -33.012653)
(463.05719 287.02219 -42.322183)
(370.85231 269.59196 -51.65606)
(285.95841 244.36678 -58.904701)
(213.71716 213.3253 -65.214421)
(150.49091 176.77163 -68.505911)
(101.9953 138.59427 -68.710231)
(61.85611 92.394961 -64.601987)
(54.136536 53.353286 -42.710669)
(0 0 0)
(0 0 0)
(0 0 0)
(0 0 0)
(0 0 0)
(0 0 0)
(0 0 0)
(0 0 0)
(0 0 0)
(0 0 0)
(0 0 0)
(0 0 0)
(0 0 0)
(0 0 0)
(3553.9873 -1464.7701 56.990035)
(3550.7619 -1465.9016 57.196327)
(3547.5871 -1467.3258 57.015334)
(3544.3348 -1469.1023 56.793495)
(3541.2012 -1471.4644 56.652277)
(3537.9332 -1474.5713 56.761204)
(3534.8633 -1478.3094 57.361692)
(3756.2396 -1120.5894 45.876659)
(3752.1814 -1123.4256 45.433109)
(3748.6098 -1125.8346 45.319635)
(3745.5832 -1128.0073 45.469804)
(3742.975 -1130.1235 45.548058)
(3740.6824 -1131.9002 45.679255)
(3738.6128 -1133.7132 45.43594)
(20.446051 39.036818 54.209797)
(47.432874 75.737029 51.704583)
(83.188356 112.80039 57.973815)
(133.11596 146.87584 58.653371)
(192.86732 176.44588 58.219986)
(266.42839 202.23508 57.683643)
(348.10904 221.67829 56.203616)
(439.91631 235.68203 55.960594)
(538.56449 242.21177 54.282921)
(643.3617 243.00805 54.050855)
(751.78016 236.85617 53.454787)
(862.69191 224.97779 53.441648)
(974.38319 207.9224 53.957531)
(1085.4371 186.13168 54.954661)
(1194.5888 160.60407 56.903593)
(1301.2752 131.82842 59.186299)
(1405.3895 100.56671 61.89702)
(1506.8304 67.202504 64.549862)
(1606.2783 32.22547 66.724164)
(1704.3254 -4.3541105 68.082205)
(1801.8704 -42.403223 68.159645)
(1899.6544 -81.960905 66.722367)
(1998.383 -123.18775 63.597743)
(2098.3599 -166.16894 58.849941)
(2199.7951 -211.01806 52.571885)
(2302.1877 -257.8391 45.237944)
(2405.2855 -306.54522 37.080141)
(2508.123 -357.00016 28.668071)
(2609.7469 -409.00979 20.358622)
(2709.1179 -462.23267 12.597581)
(2805.2344 -516.18574 5.642434)
(2897.1224 -570.36136 -0.26865928)
(2984.0062 -624.0726 -4.9895923)
(3065.2638 -676.81324 -8.3444276)
(3140.4861 -727.76198 -10.431466)
(3209.4538 -776.48623 -11.00994)
(3272.2749 -822.33346 -10.307026)
(3329.0043 -865.08006 -8.0041343)
(3380.3326 -904.61321 -4.6468987)
(3426.8551 -940.78597 -0.0019785671)
(3469.4125 -973.78925 5.4756562)
(3508.7426 -1004.1271 11.853476)
(3546.4163 -1032.2018 18.351123)
(3582.4874 -1058.4019 25.165702)
(3619.3293 -1084.0848 31.58126)
(3656.686 -1108.7336 37.488695)
(3695.7943 -1133.023 42.990959)
(4.4794372 28.494899 40.396054)
(28.270031 50.986634 37.003639)
(64.814701 83.660175 43.579773)
(112.24648 106.23718 43.021381)
(173.29112 129.84216 43.788952)
(243.94049 147.95322 43.21474)
(324.73693 161.04761 44.467702)
(415.63592 168.33262 43.74693)
(512.62401 169.65197 45.290082)
(616.083 165.57497 45.86748)
(723.18339 155.42937 47.102217)
(832.99644 140.77824 48.666174)
(943.35962 121.14687 50.685522)
(1053.019 97.578659 53.20966)
(1161.1207 70.705887 55.953702)
(1266.978 41.141768 58.793456)
(1370.1315 9.3742163 61.643858)
(1470.7223 -24.404975 64.154571)
(1569.2385 -59.753098 65.999472)
(1666.3012 -96.801979 66.884514)
(1762.7179 -135.28885 66.512645)
(1859.3777 -175.38803 64.685081)
(1956.9317 -217.0934 61.397372)
(2055.8634 -260.48592 56.64035)
(2156.2924 -305.54137 50.719376)
(2258.0781 -352.2052 43.93637)
(2360.701 -400.43967 36.601456)
(2463.3732 -449.99263 29.216263)
(2565.2168 -500.5774 22.113727)
(2665.2089 -551.90044 15.569121)
(2762.2431 -603.4306 9.8348128)
(2855.3775 -654.6873 5.0949579)
(2943.7605 -705.13277 1.4568761)
(3026.6885 -754.16482 -1.0513643)
(3103.6824 -801.2217 -2.3863367)
(3174.4804 -845.91779 -2.5246594)
(3239.0653 -887.75964 -1.5777321)
(3297.5297 -926.55622 0.59422825)
(3350.4721 -962.34392 3.6622312)
(3398.3005 -995.05764 7.7480864)
(3442.1772 -1025.1671 12.496763)
(3482.3895 -1052.9311 17.840286)
(3520.8416 -1079.1788 23.496947)
(3557.5244 -1103.7805 29.190016)
(3594.639 -1128.3562 34.745113)
(3632.0376 -1152.0751 40.051592)
(3670.9188 -1175.8144 45.122643)
(-9.7005553 19.616692 28.325358)
(14.342958 36.299069 26.335668)
(46.881435 55.889704 28.494961)
(96.409099 72.605491 28.048531)
(154.06616 87.175906 28.159386)
(225.33846 97.449049 29.490627)
(305.69202 102.27941 29.207014)
(394.60688 103.17515 32.134491)
(490.47832 98.223576 33.781453)
(592.5209 88.747795 36.17806)
(697.95898 74.531438 39.204162)
(806.23525 55.99135 42.182085)
(914.91017 33.594791 45.72496)
(1023.4433 7.9096964 49.185417)
(1130.3603 -20.319446 52.844219)
(1234.8085 -51.122875 56.357028)
(1336.7125 -83.766383 59.712278)
(1436.0235 -118.14519 62.4628)
(1533.2749 -154.05998 64.425981)
(1629.0373 -191.32066 65.286735)
(1724.296 -230.04456 64.834297)
(1819.756 -270.15409 62.988424)
(1916.1388 -311.77175 59.732391)
(2013.9816 -354.83299 55.252948)
(2113.4399 -399.39982 49.781529)
(2214.3758 -445.33638 43.614593)
(2316.4096 -492.57629 37.127667)
(2418.848 -540.76495 30.667329)
(2520.8026 -589.70189 24.585146)
(2621.1697 -638.97223 19.102668)
(2718.9671 -688.08373 14.448725)
(2813.1503 -736.61068 10.693404)
(2902.8121 -783.9869 7.9398957)
(2987.207 -829.69012 6.1646741)
(3065.7771 -873.33199 5.39561)
(3138.2454 -914.42008 5.5628353)
(3204.4413 -952.66614 6.6415285)
(3264.5875 -988.10224 8.660932)
(3318.9954 -1020.5832 11.376676)
(3368.302 -1050.4286 14.920016)
(3413.3159 -1077.8871 18.84781)
(3454.6815 -1103.4775 23.520265)
(3493.9777 -1127.6602 28.075845)
(3531.2362 -1150.9002 33.119254)
(3568.6844 -1174.0344 37.777623)
(3606.1114 -1197.0127 42.533034)
(3645.0391 -1220.3969 46.861509)
(-14.468962 8.5346506 11.692889)
(5.6803274 15.390428 7.0422233)
(37.063755 27.358083 9.114445)
(81.806447 35.657185 10.156141)
(139.9965 40.85255 12.033361)
(209.17574 44.898243 13.220807)
(287.05223 42.045972 17.591791)
(374.37867 37.375296 20.334528)
(468.52098 26.549451 24.242293)
(568.66047 12.77217 28.909248)
(672.47532 -6.1105738 33.088635)
(779.13694 -27.93295 37.863446)
(886.15517 -53.260499 42.563305)
(993.13593 -81.3086 47.336522)
(1098.2632 -111.35666 51.870772)
(1201.499 -143.68434 56.162326)
(1302.0033 -177.16608 59.81054)
(1400.147 -212.34616 62.665763)
(1496.128 -248.56175 64.483865)
(1590.8363 -285.97032 64.95883)
(1684.8337 -324.81848 64.226044)
(1779.0672 -364.72935 62.026611)
(1874.5112 -405.97343 58.537798)
(1971.366 -448.58128 53.97329)
(2070.0496 -492.44728 48.566659)
(2170.4607 -537.49809 42.672637)
(2272.1882 -583.49808 36.689143)
(2374.5057 -630.29935 30.96916)
(2476.5451 -677.4719 25.782392)
(2577.2765 -724.69729 21.366799)
(2675.6671 -771.50567 17.801043)
(2770.6503 -817.42644 15.17415)
(2861.3041 -861.94838 13.47492)
(2946.8429 -904.63332 12.646793)
(3026.7075 -945.04293 12.633477)
(3100.4585 -982.86649 13.366063)
(3168.1012 -1017.8916 14.733453)
(3229.614 -1050.1306 16.774283)
(3285.4574 -1079.5695 19.303473)
(3336.0511 -1106.5293 22.349309)
(3382.3201 -1131.3623 25.722472)
(3424.827 -1154.6026 29.448831)
(3465.0722 -1176.8702 33.244951)
(3503.2226 -1198.4411 37.248927)
(3541.4211 -1220.4102 41.05484)
(3579.467 -1242.5809 44.832507)
(3618.6991 -1265.6491 48.362594)
(-22.188969 -1.3560276 -2.1543029)
(-1.2360847 2.0353773 -7.0190658)
(25.122569 4.1335325 -5.3296409)
(71.152718 3.51555 -5.4801677)
(127.18933 1.6402502 -4.3101045)
(195.22709 -3.9573799 -0.29018895)
(271.90295 -13.256057 3.0716495)
(358.50064 -25.40033 7.4759245)
(450.80192 -42.081855 13.094513)
(549.51108 -61.548215 18.690874)
(651.39872 -85.074782 24.764597)
(756.23952 -110.45697 31.245048)
(861.40475 -139.36489 37.485517)
(966.61896 -169.5421 43.628343)
(1070.0521 -202.08368 49.313984)
(1171.4106 -235.76316 54.460753)
(1270.261 -270.82649 58.612293)
(1366.6557 -306.83444 61.738933)
(1461.0673 -343.89621 63.614203)
(1554.1559 -381.86995 63.9652)
(1646.5263 -421.16848 63.242463)
(1739.4501 -461.04163 60.61961)
(1833.1719 -502.03368 57.168453)
(1928.8638 -544.26151 52.676486)
(2026.4064 -587.43859 47.562937)
(2125.9025 -631.47095 42.223244)
(2226.9553 -676.19152 36.996986)
(2328.9273 -721.3144 32.178496)
(2430.9634 -766.48511 28.020996)
(2532.0446 -811.39163 24.641995)
(2631.0651 -855.55354 22.156345)
(2726.992 -898.52438 20.507895)
(2818.7722 -939.90956 19.716242)
(2905.6786 -979.21081 19.577772)
(2986.9421 -1016.1855 20.125267)
(3062.2627 -1050.4994 21.141295)
(3131.4124 -1082.0768 22.610992)
(3194.4807 -1110.9348 24.524491)
(3251.6051 -1137.2474 26.724775)
(3303.4544 -1161.2913 29.184754)
(3351.0222 -1183.6779 31.76939)
(3394.82 -1204.896 34.816767)
(3435.9959 -1225.32 37.685534)
(3475.2164 -1245.6922 40.969683)
(3514.0355 -1266.5456 43.883015)
(3552.4934 -1288.1186 47.075399)
(3592.0534 -1310.9171 49.838107)
(-21.110968 -13.564234 -22.326072)
(-0.11559005 -20.241679 -25.602278)
(23.522027 -28.482016 -27.964656)
(66.941745 -37.218967 -26.969986)
(120.688 -49.135771 -23.127543)
(185.85291 -62.345673 -18.292725)
(260.62975 -79.709429 -12.877145)
(343.91458 -98.394469 -5.4095447)
(433.81112 -121.22546 1.7114098)
(529.59678 -145.24216 10.001404)
(629.37761 -172.8516 18.127752)
(731.53219 -201.53645 26.29725)
(834.59356 -232.58632 34.224169)
(937.52947 -264.76353 41.879188)
(1038.9837 -298.23036 48.672735)
(1138.6742 -332.57276 54.669881)
(1235.8237 -367.80791 59.310643)
(1330.8947 -403.76592 62.700392)
(1423.8307 -440.61201 64.450677)
(1515.6392 -478.23292 64.668486)
(1606.7774 -516.77611 63.360294)
(1698.3915 -556.51105 60.432192)
(1791.3809 -597.03142 56.590748)
(1885.5707 -638.45925 51.719573)
(1981.9631 -680.90728 46.611914)
(2080.4765 -723.88908 41.353244)
(2180.6975 -767.41254 36.50743)
(2282.0256 -811.07822 32.353311)
(2383.6977 -854.54537 29.029931)
(2484.672 -897.34598 26.700842)
(2583.9365 -939.05942 25.324165)
(2680.3837 -979.27265 24.850633)
(2773.0285 -1017.5703 25.142424)
(2861.0198 -1053.5533 25.982512)
(2943.6894 -1087.046 27.327865)
(3020.5325 -1117.7614 28.850072)
(3091.4043 -1145.8512 30.654257)
(3156.1904 -1171.28 32.444656)
(3215.3394 -1194.3463 34.476975)
(3269.2226 -1215.6961 36.196626)
(3318.3802 -1235.4749 38.338118)
(3363.626 -1254.4694 40.432723)
(3406.0936 -1273.0743 42.553205)
(3446.5512 -1292.0047 44.797368)
(3486.1607 -1311.7352 46.993135)
(3525.6145 -1332.5795 49.343492)
(3565.7337 -1355.2164 51.372951)
(-17.12143 -31.046996 -35.485966)
(0.36490905 -40.08068 -41.145941)
(21.645565 -57.846893 -46.228147)
(64.16322 -75.032138 -44.191461)
(114.97534 -95.017209 -40.165806)
(178.9357 -117.86747 -34.265875)
(250.8505 -142.64569 -26.84109)
(331.65602 -168.807 -18.271068)
(418.98165 -197.81847 -9.3504818)
(512.09245 -226.63967 0.70621724)
(609.45537 -259.40949 10.729483)
(708.91723 -290.43745 20.422513)
(809.89626 -324.68746 30.395883)
(910.4504 -358.16771 39.156475)
(1010.3023 -393.03082 47.285929)
(1107.9725 -428.02009 53.959119)
(1203.6383 -463.76182 59.234196)
(1296.8996 -500.11524 62.759984)
(1388.2592 -537.11237 64.50127)
(1478.3512 -575.05749 64.475583)
(1567.8025 -613.80617 62.736184)
(1657.7433 -653.6492 59.698817)
(1748.6709 -694.30897 55.315117)
(1841.3781 -735.68468 50.498801)
(1936.2747 -777.77796 45.487979)
(2033.4972 -819.93697 40.642683)
(2132.7358 -862.34641 36.437959)
(2233.3974 -904.3927 33.027648)
(2334.8126 -945.72743 30.620764)
(2435.9334 -985.99623 29.312981)
(2535.7109 -1024.7628 29.00962)
(2633.0368 -1061.6612 29.581322)
(2726.8556 -1096.2938 30.80864)
(2816.3319 -1128.421 32.468837)
(2900.5848 -1157.8739 34.407)
(2979.3221 -1184.5069 36.326854)
(3051.996 -1208.6414 38.310299)
(3118.7313 -1230.2046 40.039608)
(3179.6724 -1249.7915 41.63451)
(3235.408 -1267.9245 43.129211)
(3286.2068 -1284.9806 44.504082)
(3332.9544 -1301.7285 45.825753)
(3376.6882 -1318.598 47.100305)
(3418.2103 -1336.2748 48.526115)
(3458.6908 -1355.1051 49.957784)
(3498.8783 -1375.5849 51.636632)
(3539.785 -1398.1189 53.303845)
(0 0 0)
(0 0 0)
(0 0 0)
(0 0 0)
(0 0 0)
(0 0 0)
(0 0 0)
(0 0 0)
(0 0 0)
(0 0 0)
(0 0 0)
(0 0 0)
(0 0 0)
(0 0 0)
(0 0 0)
(0 0 0)
(0 0 0)
(0 0 0)
(0 0 0)
(0 0 0)
(0 0 0)
(0 0 0)
(0 0 0)
(0 0 0)
(0 0 0)
(0 0 0)
(0 0 0)
(0 0 0)
(0 0 0)
(0 0 0)
(0 0 0)
(0 0 0)
(0 0 0)
(0 0 0)
(0 0 0)
(0 0 0)
(0 0 0)
(0 0 0)
(0 0 0)
(0 0 0)
(0 0 0)
(0 0 0)
(0 0 0)
(0 0 0)
(0 0 0)
(0 0 0)
(0 0 0)
(0 0 0)
(0 0 0)
(14.208131 -11.271524 -31.123917)
(19.449652 -16.323982 -22.522877)
(25.442977 -17.865023 -12.52937)
(27.737558 -18.867319 -4.1138936)
(26.994855 -17.747701 4.0241296)
(24.902285 -19.17489 13.138914)
(20.409883 -10.761569 23.361704)
(31.250183 -64.87192 -50.08391)
(41.896537 -78.622521 -28.293515)
(47.332172 -73.929058 -14.566073)
(48.991766 -71.973648 -2.1582827)
(49.693875 -77.828446 9.9240521)
(43.924293 -76.113074 24.213641)
(38.293156 -73.67603 44.162408)
(51.285809 -92.094474 -53.757707)
(66.653081 -88.81624 -39.638647)
(76.194063 -97.748084 -18.030517)
(77.070447 -98.120961 -4.3811941)
(77.264539 -95.029584 13.964536)
(70.339305 -95.577055 25.676818)
(59.842483 -100.29041 52.144515)
(89.84782 -134.76862 -49.253122)
(100.24633 -142.1971 -35.427357)
(108.01341 -141.877 -16.293788)
(110.99513 -143.57578 -3.2401793)
(110.15678 -144.83132 13.276514)
(103.16339 -148.49751 32.553004)
(91.882212 -141.86866 47.308134)
(134.54952 -171.63268 -48.494302)
(148.34262 -174.71258 -34.940284)
(158.24676 -181.21071 -17.105008)
(160.19271 -181.34108 -0.75137069)
(159.82821 -183.39319 15.261067)
(153.20757 -182.58072 29.697774)
(143.0863 -184.41108 50.048027)
(192.43979 -207.01462 -39.689469)
(202.28527 -211.06791 -27.975461)
(209.61699 -213.12815 -12.227183)
(212.24049 -217.84588 0.024190482)
(210.66784 -217.10138 16.512938)
(205.04591 -219.5266 31.153904)
(194.73499 -215.8579 44.869215)
(257.11797 -241.79123 -33.286584)
(266.85622 -247.77147 -21.822882)
(274.25868 -255.47906 -8.3838762)
(276.1093 -257.33781 3.3859799)
(275.71907 -260.23703 18.205274)
(270.24961 -262.32505 29.345367)
(261.91714 -260.96464 44.0704)
(330.6802 -278.08536 -23.404701)
(338.7496 -284.8031 -14.702238)
(344.0223 -288.35963 -2.8889172)
(346.13776 -292.27865 7.4077489)
(344.83299 -293.04981 18.485516)
(340.43613 -292.66534 30.242659)
(332.57236 -291.19069 40.220899)
(411.42455 -313.10556 -14.032433)
(417.38675 -319.13611 -5.7355614)
(421.97444 -325.97304 3.2712738)
(423.12193 -329.02451 11.227531)
(422.39562 -333.15202 20.913599)
(418.62565 -333.30529 29.613346)
(412.0836 -333.45356 39.516893)
(496.84361 -347.08057 -3.1327717)
(501.87617 -354.62381 2.2855475)
(505.12142 -359.39759 9.625066)
(506.44491 -363.98392 17.252087)
(504.82411 -364.86238 24.422519)
(502.09454 -365.10173 30.938534)
(496.40732 -364.62147 37.551487)
(588.33025 -381.79681 7.5699406)
(591.04937 -387.9179 12.203658)
(593.40036 -394.05912 17.887829)
(593.37242 -396.35343 21.563866)
(592.7373 -399.74214 27.08787)
(589.89019 -400.98019 31.58023)
(584.67514 -401.266 37.709106)
(681.82206 -413.90287 18.30439)
(683.80538 -420.5678 21.776361)
(684.26271 -425.77938 23.744706)
(684.82452 -429.77104 27.675369)
(683.12882 -432.10542 31.035869)
(680.73716 -431.60112 33.8858)
(678.02679 -433.53791 35.71589)
(777.97866 -447.35626 29.053722)
(778.07322 -452.27032 30.242317)
(778.48707 -457.59894 32.136945)
(777.95819 -460.07737 33.549899)
(776.67001 -462.15705 34.989505)
(775.0507 -464.33255 36.107815)
(772.26001 -464.09364 36.921503)
(874.56793 -477.92854 38.439933)
(874.18354 -483.01221 38.915047)
(873.62243 -487.81585 38.904037)
(872.51739 -490.18426 39.272646)
(871.43852 -493.24068 39.534996)
(869.7011 -493.0311 39.389177)
(868.09697 -494.51052 38.570274)
(971.37802 -509.73395 47.279353)
(970.29341 -513.79875 46.787252)
(968.7621 -517.30133 45.940842)
(967.78674 -519.82148 45.622357)
(966.29948 -520.98464 44.219787)
(965.14771 -521.96895 43.621884)
(963.4931 -522.67373 41.335537)
(1067.5624 -540.37315 54.592464)
(1065.7107 -543.41183 53.455239)
(1064.0247 -547.12206 52.246164)
(1062.4389 -548.55009 50.737605)
(1061.1299 -550.17834 49.373322)
(1059.6749 -550.51493 47.736357)
(1058.4226 -551.1565 45.025268)
(1162.027 -571.63397 60.256176)
(1160.2259 -574.42142 59.12898)
(1157.9466 -576.67357 57.287178)
(1156.4539 -577.78185 56.056608)
(1154.9633 -578.56615 53.899394)
(1153.5901 -578.49949 52.269743)
(1152.2879 -578.66154 49.188719)
(1255.3425 -603.7635 64.211266)
(1253.2947 -605.47825 62.792343)
(1251.0966 -607.26746 61.455601)
(1249.3742 -607.95488 59.760799)
(1247.9328 -608.12291 57.855076)
(1246.3302 -607.78438 56.241663)
(1245.049 -607.13864 53.256342)
(1346.8517 -636.98728 65.915493)
(1345.1801 -638.1356 65.061487)
(1343.0007 -639.19007 63.722303)
(1341.3734 -639.16495 62.399506)
(1340.0107 -638.80762 60.7225)
(1338.315 -637.85588 59.330943)
(1337.0144 -636.61373 56.719099)
(1437.3841 -671.77817 65.847782)
(1436.1018 -672.4311 65.21464)
(1434.1594 -672.66126 64.326671)
(1432.7211 -672.43065 63.297523)
(1431.4783 -671.39689 61.984658)
(1429.7272 -670.16687 60.934573)
(1428.5486 -667.87312 58.90685)
(1527.2066 -708.49409 63.737292)
(1526.4391 -708.52478 63.572639)
(1524.9192 -708.28199 63.045895)
(1523.819 -707.51736 62.364713)
(1522.8007 -706.09426 61.488293)
(1521.2376 -704.28192 60.78219)
(1520.2629 -701.29609 59.346568)
(1617.0224 -746.90341 60.07894)
(1616.8748 -746.68618 60.232715)
(1615.847 -745.82606 59.965216)
(1615.1628 -744.93464 59.586876)
(1614.4989 -743.04703 59.040712)
(1613.269 -740.96345 58.546904)
(1612.6721 -737.25215 57.675838)
(1707.4424 -787.15872 55.118853)
(1707.8713 -786.61731 55.448999)
(1707.3948 -785.50495 55.322694)
(1707.273 -784.27463 55.082659)
(1707.0338 -782.16613 54.691697)
(1706.3076 -779.77067 54.322182)
(1706.3026 -775.65234 53.743212)
(1799.0691 -828.84864 49.432263)
(1799.9389 -828.11377 49.709603)
(1800.0738 -826.70453 49.509886)
(1800.5136 -825.29526 49.12205)
(1800.7166 -823.16985 48.734674)
(1800.8507 -820.6718 48.130375)
(1801.5495 -816.37379 47.635524)
(1892.2545 -871.42636 43.598658)
(1893.3535 -870.66008 43.390448)
(1894.2419 -869.19826 42.961051)
(1895.0388 -867.59262 42.143993)
(1895.9938 -865.64731 41.530369)
(1896.8307 -862.93654 40.515211)
(1898.3282 -858.83456 39.786091)
(1987.2356 -914.58325 37.935173)
(1988.5262 -913.7986 37.135381)
(1989.7641 -912.04129 36.234665)
(1991.0047 -910.57422 34.611467)
(1992.6177 -908.63515 33.722708)
(1994.3114 -906.11163 31.924084)
(1996.8756 -902.49212 30.726624)
(2083.9652 -957.47617 33.208169)
(2084.992 -956.51568 31.577942)
(2086.543 -954.93465 29.531055)
(2088.2634 -953.44147 27.508051)
(2090.2695 -951.76949 25.471217)
(2093.0302 -949.27972 23.023976)
(2096.4356 -946.25796 21.034519)
(2181.9489 -999.47039 29.362653)
(2182.8223 -998.54728 26.604271)
(2184.3364 -996.92104 23.554995)
(2186.3739 -995.71328 20.66237)
(2188.9336 -994.23368 17.616131)
(2192.4477 -992.21029 14.483855)
(2196.6412 -989.70898 11.565636)
(2280.8439 -1040.103 26.792077)
(2281.1311 -1039.1603 22.798137)
(2282.5969 -1037.667 18.735692)
(2284.7382 -1036.4128 14.674821)
(2287.6414 -1035.1806 10.69767)
(2291.768 -1033.5915 6.5053446)
(2296.7118 -1032.0411 2.5208699)
(2379.7253 -1078.635 25.491081)
(2379.4982 -1077.6336 20.257246)
(2380.5687 -1076.1264 15.009895)
(2382.7531 -1075.071 9.8692982)
(2385.7696 -1074.2186 4.7605269)
(2390.4838 -1073.1485 -0.3932328)
(2395.932 -1072.5339 -5.4884579)
(2477.8566 -1114.5801 25.405412)
(2476.851 -1113.4928 18.874401)
(2477.5217 -1112.1528 12.561344)
(2479.5085 -1111.2404 6.3110336)
(2482.6055 -1110.6981 0.1740163)
(2487.6405 -1110.2288 -5.9256775)
(2493.4471 -1110.5056 -12.086258)
(2574.1969 -1147.6399 26.303663)
(2572.4957 -1146.51 18.636336)
(2572.5587 -1145.2296 11.348289)
(2574.2975 -1144.4691 4.1171436)
(2577.2567 -1144.3103 -3.0094461)
(2582.4349 -1144.3742 -9.9386979)
(2588.3948 -1145.5175 -17.091847)
(2667.9069 -1177.5717 27.961841)
(2665.4278 -1176.3134 19.326808)
(2664.8802 -1175.1657 11.231544)
(2666.2069 -1174.6311 3.1460965)
(2668.9446 -1174.7722 -4.7552673)
(2674.0417 -1175.4199 -12.366184)
(2679.977 -1177.3366 -20.318925)
(2758.0325 -1204.2979 30.113138)
(2754.8666 -1202.9887 20.762994)
(2753.6779 -1201.981 12.076259)
(2754.5383 -1201.6216 3.4009333)
(2756.9309 -1202.0839 -5.0988228)
(2761.7229 -1203.2794 -13.240983)
(2767.4706 -1205.8342 -21.781853)
(2843.8592 -1227.9238 32.50568)
(2840.0683 -1226.563 22.737507)
(2838.2488 -1225.7152 13.700879)
(2838.5791 -1225.6005 4.633499)
(2840.5527 -1226.3288 -4.2758064)
(2844.9237 -1228.0086 -12.705192)
(2850.3536 -1231.1434 -21.453164)
(2924.7401 -1248.7241 34.890274)
(2920.4464 -1247.3332 25.038282)
(2918.1377 -1246.7001 15.873621)
(2917.8764 -1246.7981 6.7508593)
(2919.467 -1247.7317 -2.1331095)
(2923.0972 -1250.1785 -10.721296)
(2927.9724 -1253.6729 -19.298033)
(3000.3746 -1267.2092 37.346256)
(2995.6067 -1265.768 27.608743)
(2992.7703 -1265.4113 18.869602)
(2991.9374 -1265.6788 9.6934979)
(2993.0504 -1267.0375 1.0981482)
(2995.8584 -1269.1004 -7.2525911)
(2999.9953 -1273.223 -16.498474)
(3070.133 -1282.9876 39.509613)
(3065.3243 -1282.2878 30.147556)
(3061.9966 -1282.0689 21.609525)
(3060.8544 -1282.6157 13.141174)
(3061.0522 -1284.0854 4.6583609)
(3063.6413 -1287.0518 -3.1874912)
(3067.2368 -1290.9057 -11.03409)
(3134.7048 -1298.2554 41.381852)
(3129.7081 -1297.454 32.940187)
(3126.1985 -1297.5033 25.156568)
(3124.4891 -1298.3331 17.234303)
(3124.4164 -1299.9502 9.6139297)
(3125.8617 -1302.9217 2.3459131)
(3128.2156 -1306.8978 -5.2915368)
(3193.7696 -1312.4788 43.247851)
(3188.7657 -1312.019 35.63002)
(3185.0629 -1312.4133 28.657593)
(3183.044 -1313.3908 21.627304)
(3182.3264 -1315.2116 14.726687)
(3182.9158 -1318.2362 8.2703852)
(3184.763 -1322.2635 1.7810562)
(3247.9777 -1326.642 44.891369)
(3243.1084 -1326.5712 38.382834)
(3239.3465 -1327.2411 32.387337)
(3236.9266 -1328.4363 26.32218)
(3235.7311 -1330.3701 20.465233)
(3235.6088 -1333.4803 14.937652)
(3236.3571 -1337.3907 9.3966814)
(3297.9081 -1341.4539 46.40368)
(3293.2708 -1341.7074 41.070208)
(3289.4941 -1342.6618 36.16453)
(3286.8005 -1344.0904 31.182157)
(3285.1911 -1346.1245 26.314882)
(3284.1985 -1349.2108 21.786523)
(3284.137 -1352.9683 17.407837)
(3344.2792 -1357.3835 47.857291)
(3339.9231 -1358.0399 43.759792)
(3336.2085 -1359.2885 39.963525)
(3333.2975 -1360.8497 35.989131)
(3331.2841 -1362.9576 32.231241)
(3329.6269 -1366.0179 28.688341)
(3328.7519 -1369.6062 25.42871)
(3387.9894 -1374.9981 49.399116)
(3383.9707 -1375.9697 46.488285)
(3380.3699 -1377.3513 43.685457)
(3377.3449 -1379.0817 40.745915)
(3374.9685 -1381.3219 37.96178)
(3372.7245 -1384.3133 35.345208)
(3371.1219 -1387.7516 33.159457)
(3429.9501 -1394.498 51.012278)
(3426.2519 -1395.6958 49.145791)
(3422.7899 -1397.2644 47.26517)
(3419.656 -1399.1239 45.23636)
(3417.0376 -1401.4044 43.330562)
(3414.3549 -1404.3323 41.555489)
(3412.1165 -1407.7444 40.314293)
(3471.083 -1416.1336 52.834487)
(3467.6775 -1417.5354 51.86432)
(3464.3173 -1419.1121 50.752527)
(3461.2437 -1421.005 49.47936)
(3458.3224 -1423.3322 48.327597)
(3455.3437 -1426.2945 47.228851)
(3452.5761 -1429.7692 46.647051)
(3512.2129 -1439.6725 54.762694)
(3509.0204 -1441.0614 54.582939)
(3505.8347 -1442.6133 54.08049)
(3502.6609 -1444.5079 53.512688)
(3499.5924 -1446.8961 52.891715)