/*--------------------------------*- C++ -*----------------------------------*\
  =========                 |
  \\      /  F ield         | OpenFOAM: The Open Source CFD Toolbox
   \\    /   O peration     | Website:  https://openfoam.org
    \\  /    A nd           | Version:  6
     \\/     M anipulation  |
\*---------------------------------------------------------------------------*/
FoamFile
{
    version     2.0;
    format      ascii;
    class       pointVectorField;
    location    "1.39";
    object      lm;
}
// * * * * * * * * * * * * * * * * * * * * * * * * * * * * * * * * * * * * * //

dimensions      [1 -2 -1 0 0 0 0];

internalField   nonuniform List<vector> 
3969
(
(-4.0340813e-15 -4.7705825e-17 1.3312818e-16)
(9.2297575e-16 -2.6090405e-16 -6.0252577e-16)
(54.947472 -555.15055 -256.37076)
(-176.71564 -101.48641 -285.99298)
(-7.1783695e-15 2.6020842e-15 -1.0366567e-15)
(-4.622429e-15 2.1493156e-15 -1.5432914e-15)
(-217.79856 37.183817 -285.05091)
(14.294472 -414.96652 -258.24755)
(-6.09887e-15 1.0869625e-16 -2.0095736e-16)
(-3.193382e-15 6.5333688e-16 6.3735029e-17)
(-2.9260211e-15 2.9260844e-16 -4.8432863e-17)
(-1.7497804e-15 -1.5755452e-16 -2.074758e-16)
(-4.3254872e-15 8.6218995e-16 7.3228779e-16)
(-2.4697388e-15 -4.9707839e-16 4.8086129e-16)
(5.2680668e-16 -4.7467027e-16 -5.3018058e-16)
(25.776945 -498.23161 -259.429)
(-1.6745507 -441.60118 -263.03103)
(-29.269216 -385.69993 -267.59395)
(-56.971206 -330.1878 -272.15469)
(-85.272818 -274.70733 -276.73361)
(-115.06946 -218.41702 -280.66942)
(-146.00134 -160.65496 -283.54709)
(4.7527189 15.196152 13.94896)
(-2.008862 23.488996 25.413872)
(-7.2715764 30.744187 39.123737)
(-13.387883 40.092679 52.220327)
(-16.362745 46.828908 66.208407)
(-17.595136 54.919554 78.245791)
(-14.936088 61.207515 89.901004)
(-9.1941418 68.595575 99.084224)
(1.0343579 74.699168 106.89755)
(15.073064 82.017715 111.95201)
(33.673541 88.513504 115.11014)
(56.286224 96.500253 115.28547)
(83.465153 103.93464 113.46314)
(114.64645 112.67894 108.80397)
(149.43231 121.33455 101.91206)
(187.85588 130.98411 92.962584)
(229.15968 140.38002 82.085579)
(272.91224 150.19624 69.578304)
(318.42175 159.44829 55.702131)
(365.05219 168.32875 40.88568)
(411.76856 175.90534 25.515241)
(457.95438 182.12793 9.9589769)
(502.55535 186.24677 -5.3436408)
(544.70792 187.92313 -20.105836)
(583.69563 186.73876 -33.951472)
(618.67646 182.04578 -46.762192)
(648.90979 173.7439 -58.230354)
(673.88643 161.39552 -68.39202)
(693.05389 144.84343 -77.22938)
(706.07858 124.11105 -84.810338)
(712.67541 99.0418 -91.276043)
(712.662 69.899976 -96.811298)
(706.01753 36.878138 -101.71047)
(692.84392 0.29136613 -106.1225)
(673.22102 -39.238241 -110.59662)
(647.37716 -81.397761 -115.16965)
(616.05915 -125.30192 -120.31043)
(579.27265 -170.31437 -126.46236)
(537.96651 -215.89009 -133.68234)
(492.40111 -260.96969 -142.29543)
(443.48447 -305.3755 -152.33114)
(391.71635 -348.00671 -163.91642)
(337.57359 -388.69942 -177.10866)
(282.67268 -427.04785 -191.38132)
(225.03397 -462.39585 -207.03011)
(169.55315 -495.82146 -223.34649)
(112.04363 -526.14072 -240.3575)
(-12.457613 7.6622898 5.3430456)
(-11.09877 8.5866467 17.65585)
(-16.271375 6.2029935 20.654264)
(-13.473579 2.3264678 32.773437)
(-7.1293091 -7.0377051 42.193622)
(0.91708339 -16.011466 51.845451)
(14.372075 -28.648326 61.10304)
(30.299141 -41.643342 68.79509)
(50.941577 -56.072197 75.435275)
(75.18032 -70.326481 80.484569)
(103.58161 -84.644319 83.620511)
(135.70809 -97.554312 85.536516)
(171.51575 -109.50671 85.351187)
(210.44609 -118.87225 84.010794)
(251.93311 -125.72923 80.824167)
(295.52791 -129.29967 76.522006)
(340.80452 -129.50766 70.918511)
(386.37806 -125.63953 64.526789)
(432.38357 -118.03263 57.364565)
(476.75514 -106.20525 49.743812)
(519.88983 -90.590283 41.908547)
(559.6558 -71.379951 34.093973)
(596.27224 -48.942288 26.359884)
(628.03949 -23.876007 19.083152)
(655.19821 2.9474907 12.230586)
(676.24407 30.90502 5.8020701)
(691.92876 59.117878 -0.24918616)
(700.52879 86.768945 -5.9822918)
(702.55782 112.79276 -11.369993)
(697.67432 136.57164 -16.907516)
(685.77739 157.29659 -22.680292)
(667.14406 174.37266 -29.007623)
(641.75117 187.19814 -36.110292)
(610.10478 195.35674 -44.241659)
(572.47694 198.57887 -53.617867)
(529.41992 196.63052 -64.434942)
(481.49047 189.58239 -76.806588)
(429.43011 177.4251 -90.893244)
(373.62557 160.82752 -106.67997)
(315.16184 139.73797 -123.97662)
(254.45468 115.16555 -142.77697)
(192.3608 87.485649 -162.78407)
(129.41585 57.595953 -183.79817)
(66.420671 26.165015 -205.09909)
(3.6863583 -6.0744717 -226.49672)
(-58.00282 -38.244405 -247.37037)
(-118.22676 -70.553843 -267.10124)
(-3.9179893e-16 -2.8384427e-17 -1.6191597e-16)
(6.8869455e-16 3.3255846e-16 -2.9305012e-16)
(-3.0379221e-16 -4.0639439e-16 3.7376104e-16)
(8.6048107e-16 -8.7588792e-17 1.0515471e-16)
(5.0258192e-16 -7.4376592e-16 6.4035694e-16)
(-2.9679417e-15 -3.4669267e-16 7.3060073e-16)
(8.9003905e-16 -2.834795e-16 1.0120244e-16)
(5.2907178 -7.9834438 10.788879)
(4.4757062 -27.350563 25.982941)
(-6.0500886 -24.093034 39.777723)
(-6.3134267 -43.680244 56.505944)
(-7.9086548 -50.33851 72.074424)
(-3.7363211 -61.709016 86.7262)
(3.6224828 -71.6373 100.19929)
(15.41874 -80.306486 112.13594)
(31.738484 -88.847737 121.24462)
(52.455319 -95.656421 128.6822)
(77.760097 -101.23142 133.14048)
(106.69554 -104.67828 134.63241)
(141.19162 -106.70442 133.24875)
(177.90102 -105.10972 128.54687)
(219.53589 -102.88652 121.53146)
(262.53313 -95.889682 111.20849)
(308.92338 -87.795333 98.832095)
(355.67675 -75.395712 83.988977)
(403.80036 -61.14005 67.58585)
(450.80232 -43.278997 49.710937)
(496.88942 -23.480206 31.14219)
(540.12253 -0.97349626 12.215157)
(580.1071 23.047841 -6.3862328)
(615.49008 48.6567 -24.336563)
(645.55192 75.038307 -41.070588)
(669.0951 101.59452 -56.052247)
(685.59921 127.96955 -69.366622)
(695.40807 153.63468 -81.21098)
(697.52045 178.1023 -91.419659)
(691.94965 200.58174 -100.01412)
(678.73754 220.70444 -107.21445)
(657.88435 237.98799 -113.31834)
(629.74922 252.0456 -118.59392)
(594.70542 262.49462 -123.34251)
(553.25475 269.09583 -127.9834)
(505.80332 271.80384 -132.7242)
(454.20778 269.66034 -138.27735)
(397.4161 264.52231 -144.39331)
(337.8698 254.53652 -152.02009)
(275.82992 240.97414 -161.04237)
(212.35573 223.76653 -171.73966)
(148.17099 203.34944 -184.27703)
(84.185545 180.0475 -198.46193)
(20.887714 154.28892 -214.21501)
(-41.173924 126.62426 -231.21623)
(-101.55471 97.379014 -249.06653)
(-160.37867 67.285834 -267.27613)
(-188.03336 -20.234482 -281.6088)
(-157.86552 -76.875511 -278.15531)
(-128.54201 -132.57003 -275.45726)
(-99.176587 -187.58581 -272.97631)
(-71.85346 -242.77961 -270.1955)
(-42.848607 -299.38323 -266.94749)
(-15.607004 -356.69437 -262.98034)
(72.180829 -385.31283 -237.38763)
(131.89535 -354.45596 -216.25588)
(191.63023 -322.27384 -194.04775)
(251.92331 -288.9169 -171.77873)
(311.8635 -254.18155 -149.49459)
(370.42885 -218.36777 -127.9994)
(426.78692 -181.66848 -107.70147)
(480.09354 -144.21329 -88.858052)
(529.49245 -106.47098 -71.733699)
(573.98577 -68.795594 -56.610215)
(613.42672 -30.735029 -43.393826)
(645.03872 6.0492499 -32.149588)
(672.64017 41.41314 -22.162857)
(691.81541 75.789933 -14.048066)
(704.15023 107.99252 -7.0501221)
(709.35921 137.87768 -1.1722273)
(707.46793 165.07852 4.078543)
(698.70856 189.37555 8.814573)
(683.46007 210.27619 13.480667)
(662.01297 227.97772 17.960342)
(635.18987 241.7956 22.901087)
(603.28197 252.15859 27.907984)
(567.19965 258.55433 33.340054)
(527.66679 261.39316 39.031885)
(485.51123 260.45474 45.073152)
(441.59274 256.18059 51.209619)
(396.7846 248.4968 57.464397)
(351.89512 238.05749 63.471821)
(307.73826 224.83773 69.283339)
(264.94688 209.60459 74.407248)
(224.35007 192.53351 79.022735)
(186.08825 174.16681 82.568733)
(150.65551 154.72695 84.874282)
(118.97096 135.62562 86.395908)
(90.556377 115.1301 86.100261)
(64.762019 95.793791 84.328205)
(43.532756 76.669993 81.144142)
(24.937693 58.598332 76.643368)
(9.4160948 42.459068 69.7702)
(-2.4560465 27.4791 62.513237)
(-10.690871 13.504471 54.41721)
(-18.349252 3.8740387 44.602531)
(-21.122128 -5.9027316 34.886165)
(-22.938277 -10.591477 26.056326)
(-23.289393 -12.832888 16.232837)
(-19.554542 -15.293925 7.7810044)
(-15.699479 -9.5712357 2.968477)
(-6.7652979e-16 3.5118239e-16 1.2802193e-16)
(-2.3129286e-15 2.7505878e-16 1.3239036e-16)
(-3.6393531e-15 -1.4253491e-16 -1.5464221e-16)
(-4.9195801e-15 -9.3657526e-16 4.6870719e-16)
(-4.0844143e-15 -8.2232132e-16 1.723462e-16)
(-2.0271537e-15 -1.8079967e-16 2.6438577e-16)
(-2.0670014e-15 8.6459225e-16 1.4474963e-15)
(-4.5036838e-15 1.2268482e-15 -2.065022e-16)
(-1.9919023e-15 1.1694967e-15 -1.6367101e-16)
(-2.9438013e-15 1.1112212e-15 -1.969436e-16)
(-2.4504202e-15 9.597151e-16 -1.1789697e-16)
(-5.2893259e-15 2.5926013e-15 -8.0820905e-16)
(-1.8775489e-15 1.1365606e-15 -5.8525306e-16)
(-7.4714327e-17 -2.094137e-16 9.7564992e-17)
(-183.20279 -83.363177 -285.49029)
(-189.09962 -65.854788 -284.87067)
(-194.08075 -48.828706 -284.65719)
(-198.66576 -31.933315 -284.62591)
(-203.13327 -14.939998 -284.91875)
(-207.44028 2.0871193 -285.55082)
(-212.42711 19.783615 -285.22223)
(50.518863 -539.0398 -256.50178)
(45.693905 -522.55549 -256.29332)
(40.838248 -506.46635 -256.04838)
(35.78873 -490.17648 -256.05648)
(30.643539 -473.12824 -256.32268)
(25.302548 -455.19532 -256.87425)
(19.950999 -435.78165 -258.04385)
(-0.54310797 17.312022 17.109756)
(-4.6777928 23.299466 25.486903)
(-10.871797 32.83259 38.018969)
(-15.862938 39.284305 50.139582)
(-19.067438 44.098094 62.680692)
(-18.95378 48.814075 74.006031)
(-15.51551 52.196875 84.332382)
(-8.7230523 55.361868 93.426216)
(3.0427423 58.214382 100.11471)
(18.278219 61.179187 105.23405)
(38.56151 64.28036 107.79142)
(62.910593 67.961299 108.53443)
(91.937291 72.046006 106.54373)
(124.7145 77.35683 102.50181)
(161.49991 83.248435 96.477989)
(201.66129 90.26323 88.252612)
(244.63714 97.869665 78.465106)
(289.86861 106.40463 67.087467)
(336.77696 115.27096 54.481293)
(384.36979 124.46271 41.022242)
(431.91975 133.39474 26.969203)
(478.45834 141.80279 12.799201)
(523.03239 149.01962 -1.2396431)
(564.86335 154.76472 -14.765593)
(602.92986 158.17163 -27.569006)
(636.51396 159.18252 -39.320231)
(665.03949 156.91546 -50.059633)
(687.99365 151.19103 -59.667962)
(704.68873 141.65159 -68.141731)
(715.04012 128.04072 -75.641066)
(718.68396 110.21966 -82.212351)
(715.55178 88.239069 -88.138694)
(705.71828 62.124641 -93.542159)
(689.20693 32.183749 -98.794926)
(666.29105 -1.2791602 -104.09869)
(637.413 -37.873349 -109.70037)
(602.8549 -76.846715 -115.97696)
(563.18697 -117.85433 -123.24975)
(519.10803 -160.03809 -131.58623)
(471.13633 -202.70984 -141.32682)
(420.14365 -245.33713 -152.34152)
(366.51764 -287.08274 -165.04526)
(311.22165 -327.56656 -178.87141)
(254.80648 -366.03929 -194.22636)
(196.93616 -402.62316 -210.20723)
(140.74346 -436.69156 -226.8332)
(82.322922 -468.45956 -243.56781)
(-5.770468 15.666778 16.721017)
(-9.8170971 20.492002 25.747088)
(-14.651116 30.876366 37.165987)
(-19.798413 34.565164 48.762617)
(-20.35646 38.695671 60.101105)
(-19.815597 40.994062 70.288469)
(-15.205516 42.300271 80.693538)
(-6.4172167 42.773821 88.365602)
(6.2197871 42.807077 95.354202)
(23.357496 42.908521 99.965792)
(44.839967 42.956034 102.83714)
(70.673789 43.963997 103.34231)
(100.84829 45.337901 101.9282)
(134.90473 48.278236 98.353493)
(172.84613 51.999939 92.680674)
(214.14056 57.319298 85.33726)
(258.09603 63.721536 76.290525)
(304.26391 71.593899 65.813226)
(351.66666 80.364837 54.296487)
(399.65445 90.177983 41.894769)
(447.17516 100.41778 29.046564)
(493.43565 110.79914 16.065602)
(537.50997 120.78985 3.2047981)
(578.43063 129.71776 -9.2379811)
(615.33444 137.26331 -20.958316)
(647.76792 142.62472 -32.028959)
(674.6922 145.38737 -42.191246)
(695.73553 144.99581 -51.163127)
(710.63184 141.02587 -59.516129)
(718.8053 133.19623 -66.896505)
(720.24024 121.24631 -73.652234)
(714.82247 105.05647 -79.91636)
(702.61577 84.649056 -85.894508)
(683.70176 60.150915 -91.881966)
(658.49815 31.786685 -98.038559)
(627.18369 0.02580492 -104.7748)
(590.38524 -34.844794 -112.15848)
(548.66536 -72.015826 -120.59914)
(502.55951 -111.07887 -130.17076)
(452.71686 -151.16262 -141.00022)
(399.88064 -191.88011 -153.14581)
(344.71064 -232.08104 -166.70219)
(287.72356 -271.77592 -181.36515)
(230.08041 -309.64643 -197.03645)
(170.86195 -346.18846 -213.48416)
(113.7286 -380.25263 -230.09168)
(54.07969 -412.44361 -247.16629)
(-8.4731244 13.711485 16.137011)
(-11.141222 19.824993 24.439646)
(-17.073562 25.714874 34.959921)
(-18.801014 29.901288 45.524404)
(-19.713816 31.080421 56.041613)
(-17.648734 32.190489 66.997236)
(-11.180214 30.408051 75.639896)
(-2.3529596 28.653258 84.266442)
(11.880879 26.325363 90.503513)
(29.452032 23.5482 95.436851)
(52.381171 21.366534 98.021519)
(79.186589 19.748219 98.897739)
(110.5401 18.853692 97.68628)
(145.7927 19.647113 94.354971)
(184.91347 21.689702 89.413443)
(226.90587 25.439446 82.759236)
(271.59469 30.860852 74.413605)
(318.04216 38.115353 64.975517)
(365.7055 46.898188 54.315304)
(413.6768 57.264403 42.989823)
(461.11194 68.628215 31.139203)
(507.04447 80.814465 19.148008)
(550.42937 93.028672 7.2074847)
(590.46051 105.21207 -4.26162)
(626.43841 116.25465 -15.359474)
(657.39829 125.80389 -25.56171)
(682.70365 133.10375 -34.92992)
(702.05599 137.68424 -43.591807)
(714.95141 138.91458 -51.413431)
(721.08981 136.55004 -58.621451)
(720.3929 130.11387 -65.35994)
(712.74007 119.49311 -71.759249)
(698.23559 104.55104 -78.078099)
(677.09347 85.329334 -84.515892)
(649.52275 62.06337 -91.379154)
(616.01787 34.875498 -98.790183)
(577.00748 4.3974676 -107.09935)
(533.05157 -29.142081 -116.425)
(484.85449 -64.933403 -126.89673)
(433.15337 -102.34764 -138.76324)
(378.65248 -140.70723 -151.87743)
(321.86063 -179.24007 -166.46689)
(263.71731 -217.56694 -181.85099)
(204.70147 -254.49796 -198.76142)
(144.83692 -290.56924 -215.65185)
(86.459964 -324.10949 -233.42456)
(26.118409 -356.55801 -250.66212)
(-10.451281 10.638234 14.877989)
(-13.501184 15.289923 22.657775)
(-17.21206 19.993165 33.305503)
(-20.147995 22.015095 43.660122)
(-19.205225 22.050002 54.833259)
(-15.91679 21.165482 63.756183)
(-9.0713225 17.88316 73.753221)
(2.0387622 14.350546 80.540015)
(17.057805 9.6698214 87.089446)
(36.855848 5.0889369 91.29767)
(60.827518 0.72193659 93.999969)
(88.912482 -3.0799788 94.955276)
(121.3244 -5.8803183 93.808214)
(157.44446 -6.7990186 90.911499)
(196.94711 -6.5201298 86.600566)
(239.471 -3.8491969 80.369335)
(284.41153 0.63234536 72.853045)
(331.03499 7.5336609 64.019486)
(378.59939 16.39767 54.219052)
(426.25422 27.345215 43.816892)
(472.91051 39.857208 32.932922)
(517.75364 53.702114 21.98359)
(559.94611 68.436088 11.17041)
(598.64933 83.167551 0.62797215)
(632.95725 97.419055 -9.244454)
(662.18969 110.52631 -18.491892)
(685.9188 121.89308 -27.272242)
(703.47421 130.89004 -35.298926)
(714.50379 136.90282 -42.751769)
(718.78262 139.46826 -49.810627)
(716.1458 138.13894 -56.478032)
(706.53209 132.68824 -63.093934)
(690.14 122.84986 -69.732835)
(667.03065 108.67254 -76.77749)
(637.6634 90.146409 -84.286522)
(602.36544 67.602595 -92.648595)
(561.67156 41.206264 -101.92359)
(516.2194 11.734959 -112.41575)
(466.71977 -20.418783 -124.15147)
(413.6844 -54.765704 -137.19364)
(357.69869 -90.675591 -151.48758)
(299.77342 -127.17986 -167.06832)
(240.25606 -163.93715 -183.61273)
(180.09392 -199.78597 -201.09215)
(119.01548 -235.20954 -218.66487)
(59.441981 -268.4943 -236.76342)
(-1.4669124 -301.20794 -254.45354)
(-11.769844 9.7258396 13.050023)
(-12.628277 15.176662 20.569202)
(-19.271813 16.276462 31.509853)
(-19.331136 17.854918 41.093623)
(-17.489785 15.548603 50.574497)
(-13.291701 12.409344 60.72653)
(-4.2693104 7.5139836 68.876248)
(7.6522417 0.91991332 76.730843)
(24.547406 -5.3029999 82.730646)
(45.003656 -12.710165 87.562184)
(70.189256 -19.461383 90.639218)
(99.266562 -25.728255 91.849912)
(132.53076 -30.298134 91.027041)
(169.31254 -33.550522 88.835475)
(209.54604 -34.653792 84.634004)
(252.4794 -33.359039 79.064617)
(297.63584 -29.718529 72.012564)
(344.14694 -23.226254 63.94828)
(391.49009 -14.41308 54.915871)
(438.49443 -2.9588158 45.363725)
(484.53993 10.481496 35.264797)
(528.77067 25.874986 25.254434)
(570.02816 42.346638 15.042818)
(607.5236 59.842927 5.3442215)
(640.43179 77.33571 -3.9699531)
(668.28818 94.258896 -12.799187)
(690.23174 109.81666 -20.99391)
(705.96389 123.35216 -28.510064)
(715.12733 134.1371 -35.642507)
(717.48762 141.7008 -42.341215)
(712.8658 145.50187 -48.944949)
(701.30244 145.22794 -55.55851)
(682.90193 140.5405 -62.418599)
(657.86689 131.38613 -69.776039)
(626.56906 117.73318 -77.805257)
(589.38923 99.703074 -86.763659)
(546.87659 77.541346 -96.762907)
(499.57681 52.010995 -108.10102)
(448.24342 22.885104 -120.46547)
(393.25909 -8.9286305 -134.42637)
(335.88664 -42.296028 -149.64518)
(276.33817 -76.783191 -166.16253)
(215.53929 -111.76903 -183.49019)
(153.94786 -146.41915 -201.85908)
(92.249414 -180.69801 -220.21899)
(31.741287 -213.30398 -239.40525)
(-29.121911 -245.70237 -257.79178)
(-11.115967 7.4406758 9.8382271)
(-12.357147 10.093006 19.558746)
(-17.966513 10.280842 28.802692)
(-16.870796 10.107895 37.704672)
(-14.73136 5.6752201 48.906717)
(-8.5927554 1.3441283 57.327342)
(1.3165663 -6.3255145 66.671972)
(14.829136 -14.134135 74.046356)
(32.703078 -23.120014 80.276779)
(54.363572 -32.372137 85.117517)
(80.544846 -41.231271 88.126749)
(110.42808 -49.251937 89.204793)
(144.41983 -55.93301 88.770891)
(181.79328 -60.65222 86.631406)
(222.45491 -63.360394 82.890506)
(265.52161 -63.326996 77.760958)
(310.69142 -60.632698 71.335751)
(356.99408 -54.782394 63.863175)
(403.80685 -46.068842 55.516413)
(450.08903 -34.296507 46.674288)
(495.25464 -19.843913 37.40947)
(537.94687 -3.418479 28.133451)
(577.80305 15.424228 18.853788)
(613.34622 35.623064 10.168173)
(644.64672 56.091786 1.6370682)
(670.3263 76.536769 -6.1469991)
(690.26396 95.868215 -13.45405)
(703.95901 113.72812 -20.381238)
(711.03573 129.24076 -26.89149)
(711.20665 141.8049 -33.30644)
(704.45509 150.8541 -39.7014)
(690.79864 155.90204 -46.32105)
(670.33342 156.59604 -53.366613)
(643.30772 152.7663 -61.106364)
(610.13074 144.22652 -69.671277)
(571.16245 131.14094 -79.346387)
(526.9885 113.62731 -90.236483)
(478.23334 92.093323 -102.57503)
(425.34018 66.966016 -116.12523)
(369.57238 39.03508 -131.41461)
(311.10972 8.233582 -147.80881)
(250.75131 -24.064347 -165.5204)
(189.12772 -57.37586 -184.16301)
(126.98513 -90.864982 -203.49441)
(64.928798 -124.25764 -222.97562)
(3.5398708 -156.68233 -242.448)
(-57.561452 -188.78562 -261.2459)
(-11.516612 7.3718122 8.1313016)
(-12.656854 8.7639226 18.560597)
(-18.18245 8.2364128 25.573769)
(-15.507867 5.7415257 36.023702)
(-12.666533 0.35900556 45.170468)
(-4.6094881 -7.1913603 54.729078)
(6.4945718 -16.553644 63.633688)
(21.380506 -27.24103 71.072)
(40.632557 -38.669554 77.614471)
(63.501505 -50.511642 82.406302)
(90.899292 -61.639605 85.693119)
(121.94475 -72.317212 87.024962)
(156.75934 -81.107189 86.823953)
(194.96259 -88.295569 85.049265)
(236.11 -92.826523 81.757116)
(279.4721 -94.519134 76.979498)
(324.70206 -92.921922 71.047316)
(370.77256 -87.951529 64.017087)
(417.11228 -79.376799 56.328528)
(462.73394 -67.421567 48.0622)
(506.7771 -52.186377 39.536895)
(548.47141 -33.947213 30.951634)
(586.6355 -13.430591 22.502764)
(620.73484 9.2190305 14.400676)
(650.03949 32.870381 6.7867794)
(673.76194 56.981879 -0.25558922)
(691.70239 80.675098 -7.2466047)
(703.20122 103.14694 -13.588204)
(708.01179 123.55609 -19.680179)
(705.98016 141.29336 -25.704971)
(697.04171 155.68346 -31.834269)
(681.20287 166.16285 -38.325313)
(658.65713 172.32901 -45.433572)
(629.62809 173.82493 -53.339067)
(594.53741 170.50824 -62.306039)
(553.76347 162.32207 -72.493587)
(507.96667 149.40484 -84.108964)
(457.51541 131.9853 -97.232366)
(403.34583 110.57451 -111.75783)
(346.05804 85.560862 -127.92492)
(286.274 57.694568 -145.42354)
(224.71683 27.662319 -164.23579)
(162.06169 -3.7355358 -183.84952)
(98.92892 -35.806826 -204.1471)
(36.029694 -68.049132 -224.29324)
(-26.421857 -99.629681 -244.49722)
(-87.329679 -130.46115 -263.9301)
(-1.8726199e-15 -1.0357256e-16 4.2324109e-16)
(-4.3693994e-15 5.8098526e-16 1.0825799e-16)
(-1.86708e-15 5.0203615e-16 5.7484399e-16)
(-1.1298519e-15 4.4303811e-16 -1.5186772e-16)
(-1.5283164e-15 1.7502349e-16 4.7144117e-17)
(-3.9278597e-15 -6.147074e-18 -1.0233878e-17)
(-3.270765e-15 8.5080195e-17 2.8271762e-17)
(-1.444637e-15 3.1767481e-17 -1.0328492e-16)
(-1.9600489e-15 -2.0641393e-16 2.5996682e-17)
(-1.0758982e-15 -5.0887233e-16 -1.6282415e-16)
(-1.1902312e-15 -6.3217422e-16 -1.0496995e-16)
(-2.2455722e-15 -1.0363924e-16 3.7607835e-16)
(-1.7254929e-15 1.2766475e-16 7.9907906e-17)
(-6.542485e-16 2.4659353e-16 4.7610311e-16)
(-1.0183069e-15 2.0413811e-16 3.0876606e-16)
(-1.2825224e-16 3.2154578e-16 2.6910031e-16)
(-2.4669526e-15 5.8726168e-16 -3.2350189e-17)
(-1.9694108e-15 5.8752001e-16 2.9593509e-16)
(-1.9972486e-15 5.0741204e-16 1.6376266e-16)
(-5.0142844e-16 5.9082617e-16 -1.5096731e-17)
(2.8672985e-17 2.0007103e-16 -2.079567e-16)
(-3.5598279e-15 1.6770216e-16 6.1584209e-17)
(1.5219227e-15 -3.8112137e-16 -3.4960392e-16)
(-8.8364966e-17 -1.5289127e-16 1.7491834e-16)
(2.7397895e-16 -2.6900304e-16 -2.0413732e-16)
(-5.1236454e-16 -3.7600259e-16 -4.411389e-17)
(-1.3114086e-15 -5.3747975e-16 1.2489795e-16)
(2.0041989e-16 -4.4379834e-16 -1.4360784e-16)
(-1.3448657e-15 3.3966264e-16 -2.7012678e-16)
(-2.2010094e-15 1.2158219e-16 1.1470551e-16)
(-1.2722141e-15 -2.3577892e-16 -7.7366055e-17)
(-2.6936153e-15 2.298542e-17 6.0151854e-16)
(-1.8084585e-15 2.5926424e-16 8.2177642e-17)
(-1.0121806e-15 3.7760621e-16 1.5728837e-17)
(-3.5076342e-15 -1.049112e-16 -1.8966684e-16)
(-1.2388067e-16 -2.746004e-16 -1.3203227e-16)
(-1.1077126e-15 -2.2449831e-16 5.9960705e-17)
(-7.9462407e-16 5.2806017e-17 1.8160622e-16)
(-1.481116e-15 2.6347307e-16 -6.003674e-17)
(5.3541372e-16 1.9494005e-16 5.7756958e-17)
(-2.5861876e-15 -7.0653702e-17 -1.8824779e-16)
(-1.6152529e-15 1.8241927e-16 3.8488004e-16)
(-1.0389662e-15 3.299921e-17 2.9700946e-16)
(-3.8817577e-15 -1.9427146e-16 -1.2145786e-15)
(-1.6161979e-15 2.8442108e-16 -1.856842e-16)
(8.1577518e-16 1.8112067e-17 2.0819295e-16)
(-2.485062e-15 2.8178417e-16 -5.4749215e-16)
(-1.8307085e-15 4.4562511e-16 -1.4619564e-16)
(-1.4586292e-15 4.0358521e-16 -4.0281137e-16)
(-9.9386596 2.8119727 3.0122537)
(-7.8789334 0.79816908 3.0028787)
(-4.9014746 0.58670947 4.2584604)
(-3.1887247 0.019830817 5.2355431)
(-1.7913128 -0.55468387 5.3728719)
(0.63906226 -1.6714719 6.352826)
(1.7737333 -0.48407363 5.6715902)
(-8.9585083 -2.5301811 17.220388)
(-6.212268 -7.3878302 16.040678)
(-4.6328065 -7.1750237 16.265415)
(-2.5496716 -7.5902031 17.339322)
(-0.53263251 -10.623194 18.465659)
(0.51777998 -12.798408 20.167249)
(1.7803363 -15.696771 22.301581)
(-14.21095 2.6238776 22.972103)
(-10.32321 -0.24986348 23.233573)
(-7.9521716 -5.0377303 26.912143)
(-6.8299764 -6.9913777 28.11015)
(-5.9138172 -7.0957614 30.351373)
(-4.9496089 -10.621069 31.79213)
(-4.2606067 -16.917619 37.260952)
(-8.354816 -8.3246672 35.905175)
(-6.7121056 -13.319021 37.590775)
(-5.3556683 -15.943329 40.91285)
(-4.5830319 -18.033587 41.763551)
(-3.7524288 -20.800157 45.06869)
(-4.2707705 -26.43656 49.242123)
(-5.7507658 -29.447707 51.702644)
(-5.1791574 -13.480792 46.229973)
(-2.8330232 -17.475601 48.782093)
(-1.172188 -21.445675 52.828275)
(-1.4567074 -24.370809 56.236008)
(-1.8136306 -27.046372 59.084386)
(-2.7284613 -32.099085 63.018919)
(-4.4818654 -37.918815 68.041658)
(4.9502949 -24.154371 56.916111)
(5.8001959 -28.087638 61.153515)
(6.3797752 -31.429343 65.007533)
(6.1136402 -35.071108 69.144696)
(4.8708823 -38.338737 73.219878)
(2.6295493 -43.914004 77.882597)
(-0.33093906 -49.631226 82.161421)
(16.662151 -34.9861 67.020058)
(17.696917 -38.51824 71.915816)
(18.05763 -42.077762 77.118119)
(16.752238 -45.405394 81.131125)
(15.169454 -48.817818 86.114783)
(12.217931 -54.153069 90.793286)
(8.7550774 -59.96566 95.906261)
(32.975323 -46.837076 75.400774)
(33.38027 -50.011232 81.251237)
(32.595143 -52.930125 86.557147)
(31.39604 -56.079635 92.004054)
(28.40394 -59.513102 97.00175)
(25.41455 -64.39466 102.02141)
(20.822245 -70.308983 107.24719)
(52.977304 -60.010349 82.781318)
(53.054205 -62.612519 89.308437)
(52.463447 -64.963886 95.126239)
(49.98899 -67.631742 100.83534)
(47.474248 -70.689833 106.12489)
(42.819613 -74.916342 111.55254)
(38.390127 -79.782624 117.04263)
(76.967396 -72.656397 88.041602)
(76.584988 -74.023593 95.170073)
(74.839002 -75.988461 101.37771)
(72.67915 -77.965536 107.1081)
(69.097248 -80.545703 113.27486)
(64.647933 -84.134455 118.3988)
(59.30917 -88.799195 124.09121)
(104.88735 -85.646068 91.635719)
(104.09155 -86.434823 99.166543)
(102.66762 -87.30412 105.27085)
(99.625837 -88.727817 111.62905)
(96.368974 -90.366902 117.25331)
(91.02159 -93.046919 122.89323)
(85.45997 -96.00437 128.77135)
(136.49337 -97.129058 93.574777)
(135.38444 -96.501433 100.95424)
(133.08661 -96.41608 107.27194)
(129.89874 -96.550035 113.58136)
(125.83016 -97.548854 119.38383)
(120.49245 -99.222719 125.00729)
(114.79646 -101.50189 130.34194)
(171.70757 -107.47334 93.274399)
(170.38501 -106.08631 100.31598)
(168.0007 -104.95488 106.83753)
(164.83551 -104.90252 112.83806)
(160.65253 -104.7642 118.73425)
(155.54479 -105.61318 123.82677)
(149.22822 -105.9213 129.26029)
(209.84755 -115.59644 91.495213)
(208.0752 -112.87767 98.261066)
(205.24242 -110.73778 104.24914)
(201.54223 -109.08393 110.02934)
(197.522 -108.11493 115.20811)
(191.85938 -107.10513 120.32208)
(186.14011 -106.74598 125.00231)
(250.84735 -121.19776 87.735873)
(248.93255 -117.59754 93.727891)
(245.76623 -114.50888 99.421369)
(242.63883 -112.46873 104.49323)
(238.2573 -110.36396 109.50552)
(233.37197 -108.72827 113.92031)
(227.43148 -106.42428 118.28808)
(293.94603 -123.86216 82.459472)
(291.33703 -119.05425 87.912619)
(288.34896 -115.29527 92.727613)
(284.52192 -111.64615 97.33816)
(280.71556 -108.8567 101.3415)
(275.52902 -105.25112 105.28246)
(270.33045 -102.12807 108.71064)
(338.38658 -123.07261 75.933979)
(335.88107 -117.64261 80.206566)
(332.2552 -112.80447 84.228867)
(329.1965 -108.80285 87.74596)
(325.19321 -104.79884 91.095442)
(320.95139 -100.66754 94.169335)
(315.85996 -95.669631 96.885125)
(383.74478 -118.76649 68.176541)
(380.37278 -112.35562 71.435916)
(377.17327 -107.08313 74.34782)
(373.68559 -101.80151 76.926468)
(370.36792 -97.235777 79.236702)
(366.2082 -91.372534 81.359197)
(362.07282 -85.596427 82.950829)
(428.70015 -110.60125 59.651223)
(425.51762 -103.87544 61.512152)
(421.82993 -97.752548 63.191002)
(419.05065 -92.13897 64.572602)
(415.75462 -86.486697 65.715982)
(412.6681 -80.105722 66.772505)
(409.02583 -72.825568 67.350992)
(472.98066 -98.718507 50.466886)
(469.05755 -91.415928 50.947178)
(465.75809 -84.997164 51.400775)
(462.77691 -78.417943 51.455486)
(460.21597 -72.346827 51.408749)
(457.54366 -64.619925 51.262336)
(454.99783 -56.686914 50.533619)
(515.10251 -83.119463 41.039327)
(511.2825 -75.733825 40.057062)
(507.65127 -68.762535 39.014206)
(505.28013 -61.995839 37.763181)
(502.94958 -55.082215 36.35408)
(501.34194 -46.908012 34.953339)
(499.62191 -37.965375 32.944828)
(554.70346 -64.178365 31.573152)
(550.34022 -56.577416 29.044108)
(546.98381 -49.558513 26.669966)
(544.61695 -42.144085 24.016612)
(542.97965 -34.971202 21.256753)
(542.03035 -25.877881 18.546432)
(541.46785 -16.481249 15.134518)
(590.50531 -42.178062 22.254016)
(586.14463 -34.790566 18.306822)
(582.59216 -27.540892 14.549767)
(580.6758 -20.030386 10.531629)
(579.35919 -12.248725 6.3589413)
(579.35895 -2.8030803 2.420564)
(579.80094 7.0982918 -2.4225493)
(622.19147 -17.930844 13.430055)
(617.28257 -10.517462 8.1076712)
(613.96602 -3.4537505 3.0609923)
(612.05372 4.5094287 -2.3888003)
(611.29202 12.387416 -7.7571588)
(612.04773 22.269523 -13.048469)
(613.58878 32.400987 -19.286615)
(648.60721 8.3621799 5.283046)
(643.46266 15.296367 -1.5520713)
(640.26322 22.310565 -7.6364222)
(638.34294 30.305446 -14.397616)
(638.07011 38.505591 -20.966781)
(639.41695 48.747416 -27.463437)
(641.97207 59.041542 -35.014048)
(669.49154 35.606777 -2.3746016)
(664.03044 41.993524 -10.247364)
(660.86447 49.164844 -17.38603)
(658.92839 57.089717 -25.624036)
(659.08164 65.577235 -32.766714)
(660.7104 75.799165 -40.455097)
(664.2541 86.092647 -49.06374)
(684.05926 63.100762 -9.3404052)
(678.69364 69.183224 -17.909658)
(674.94461 76.23057 -26.517828)
(673.32631 83.875973 -34.969669)
(673.5955 92.644802 -43.649314)
(675.81536 102.71197 -52.244983)
(679.73856 113.38626 -61.436953)
(692.35493 89.888392 -15.709345)
(686.7812 95.820947 -25.207981)
(682.6244 102.39828 -34.476962)
(681.01894 110.43064 -43.570731)
(681.21276 118.89085 -53.300838)
(683.87814 129.0696 -62.237678)
(688.37181 139.65905 -72.577111)
(693.88624 115.44583 -21.578863)
(687.76064 121.07955 -31.912725)
(683.55554 127.68762 -41.324426)
(681.80073 135.48351 -51.512589)
(682.07295 144.15335 -61.468453)
(684.93194 154.27504 -71.184006)
(689.76429 164.81641 -82.115626)
(688.39162 138.88365 -27.481357)
(682.14244 144.41465 -37.987895)
(677.52881 150.90073 -47.958407)
(675.57267 158.78441 -58.344549)
(675.7278 167.51342 -68.74665)
(678.63291 177.49141 -78.838695)
(683.5788 188.08288 -90.225422)
(676.13497 159.58098 -33.233561)
(669.38014 165.10713 -44.009964)
(664.5128 171.59142 -53.937561)
(662.29992 179.53425 -64.658652)
(662.31139 188.32345 -75.122404)
(665.08487 198.30918 -85.538279)
(670.05614 208.90256 -97.082145)
(656.91454 176.89521 -39.414934)
(649.90844 182.47142 -49.993941)
(644.70985 189.10184 -59.960984)
(642.19436 197.15064 -70.544262)
(641.91766 206.10572 -81.023496)
(644.43037 216.09642 -91.44039)
(649.2189 226.7595 -103.00805)
(631.17958 190.21512 -46.087731)
(623.83171 196.06994 -56.39533)
(618.28771 202.94253 -66.001922)
(615.4115 211.18285 -76.397038)
(614.76661 220.36876 -86.603068)
(616.9129 230.4512 -96.90956)
(621.31555 241.24079 -108.26776)
(599.10829 199.18775 -53.646053)