/*--------------------------------*- C++ -*----------------------------------*\
  =========                 |
  \\      /  F ield         | OpenFOAM: The Open Source CFD Toolbox
   \\    /   O peration     | Website:  https://openfoam.org
    \\  /    A nd           | Version:  6
     \\/     M anipulation  |
\*---------------------------------------------------------------------------*/
FoamFile
{
    version     2.0;
    format      ascii;
    class       pointVectorField;
    location    "0.2";
    object      lm;
}
// * * * * * * * * * * * * * * * * * * * * * * * * * * * * * * * * * * * * * //

dimensions      [1 -2 -1 0 0 0 0];

internalField   nonuniform List<vector> 
28033
(
(-1.780536e-14 4.8656612e-16 1.3104288e-15)
(-5.4375576e-15 3.3318594e-15 9.9433006e-16)
(6267.2721 -889.00111 -35.741646)
(5801.5035 -2296.7453 51.589873)
(-1.338461e-14 3.0090723e-15 -2.870051e-16)
(-1.2587315e-14 4.9008913e-15 -4.4266115e-15)
(5811.2719 -2295.3762 -61.074009)
(6240.3607 -918.45681 71.321256)
(-5.6329745e-15 1.0535579e-15 6.7193838e-16)
(-2.4534443e-15 3.0423504e-16 5.8836893e-16)
(-5.4923298e-15 2.4302826e-15 8.9528572e-16)
(-2.6209443e-15 -1.1537891e-15 -6.7979696e-16)
(-7.2548563e-15 1.5542294e-15 1.0013199e-15)
(-4.7613589e-15 -9.2108094e-16 -7.3952737e-16)
(-1.132389e-15 -2.2256662e-17 -6.4484848e-16)
(-7.4239857e-16 -2.4218299e-16 -3.6669977e-16)
(-1.1196198e-15 4.5550132e-16 8.383863e-16)
(-2.3465882e-16 2.2667819e-16 1.4996246e-15)
(-4.0583243e-15 -8.7236639e-16 -1.3429605e-15)
(-5.8237189e-15 8.4462789e-16 7.5519031e-16)
(-5.1611762e-15 1.0100276e-15 9.7613867e-16)
(-1.7679952e-15 -8.1010255e-16 4.5192313e-16)
(-4.4158752e-15 1.0299569e-15 -9.452958e-16)
(6245.5554 -958.45047 -13.426865)
(6224.5867 -1031.9299 7.3242195)
(6201.9406 -1112.9601 20.6334)
(6176.5946 -1201.1117 27.590879)
(6149.1751 -1295.7535 29.277542)
(6119.1029 -1394.4349 25.117923)
(6087.4964 -1497.3833 19.7574)
(6053.4547 -1600.5323 11.779338)
(6017.9294 -1704.1304 3.7231014)
(5983.2802 -1804.648 -3.4122487)
(5946.6135 -1901.3362 -6.9990695)
(5913.0978 -1991.9151 -5.3238257)
(5880.2184 -2077.0863 0.036228014)
(5850.4616 -2154.2146 11.840954)
(5824.4936 -2226.1335 30.027481)
(22.038368 -1.5596113 -17.171846)
(59.728116 -9.2212255 -42.562685)
(93.341095 -25.821612 -66.853478)
(119.54611 -49.143782 -87.023748)
(129.58058 -76.253273 -97.909621)
(123.4044 -104.65622 -101.9918)
(98.747105 -130.61527 -95.856259)
(56.660017 -152.36865 -81.622584)
(-2.5953638 -167.44116 -58.874883)
(-75.150001 -173.50662 -28.702373)
(-157.52955 -168.51639 7.4163788)
(-245.70183 -153.02819 46.96876)
(-334.68795 -125.41526 88.728229)
(-419.3675 -86.593696 129.84095)
(-494.19933 -36.848482 168.08006)
(-554.84842 20.925033 201.19316)
(-598.32231 85.072713 228.36196)
(-620.84857 153.62248 247.77961)
(-621.40697 223.8167 257.86787)
(-599.30232 292.47676 259.89739)
(-554.84279 358.06072 253.28123)
(-490.43789 417.3106 238.54971)
(-407.80716 469.60573 217.94136)
(-310.71371 512.95705 191.65562)
(-203.56004 546.44431 161.95884)
(-89.640502 571.02098 131.28779)
(26.393856 585.84832 100.637)
(141.10312 592.5577 72.063024)
(250.20203 592.03207 47.219252)
(351.11022 586.3659 27.462217)
(442.19648 577.21649 13.785876)
(521.5485 566.42197 6.3872146)
(589.2004 555.88906 5.5269415)
(645.72032 547.42049 10.486847)
(692.30176 542.2119 21.319606)
(732.03811 541.79407 36.603727)
(766.05173 545.66095 54.46933)
(798.7421 555.11242 74.177428)
(832.78776 569.58756 93.899314)
(870.80951 587.80644 112.02553)
(916.19528 609.20018 127.54969)
(970.75934 632.43848 139.17714)
(1036.4009 655.95229 146.16983)
(1113.9915 678.187 148.15677)
(1203.7811 697.58529 145.00586)
(1305.3785 712.79683 136.90198)
(1417.5965 722.6083 124.38306)
(1538.8938 726.15027 108.16062)
(1667.1521 722.82673 89.151641)
(1800.1416 712.39531 68.326671)
(1935.3783 694.93459 46.714528)
(2070.4922 670.83787 25.291447)
(2203.1622 640.77205 4.9699663)
(2331.3443 605.63738 -13.453957)
(2453.2553 566.52615 -29.308583)
(2567.4788 524.65977 -42.048867)
(2672.9698 481.35449 -51.262742)
(2769.0876 437.95178 -56.654228)
(2855.6035 395.77438 -58.046629)
(2932.7096 356.06321 -55.383344)
(3001.017 319.91176 -48.737088)
(3061.5563 288.26358 -38.3212)
(3115.7231 261.71514 -24.553752)
(3165.4346 240.64828 -7.9863641)
(3212.5691 225.16774 10.779893)
(3259.8599 214.8662 30.13734)
(3309.5933 208.98402 49.774573)
(3364.215 206.7957 68.287224)
(3426.7262 206.56995 84.207733)
(3498.6818 207.16242 95.953063)
(3582.2819 206.46163 102.89693)
(3678.7091 203.06904 104.0756)
(3788.2947 195.05573 98.746227)
(3911.0341 181.09098 86.763867)
(4045.8183 159.92239 68.32552)
(4190.9542 130.65534 44.144642)
(4343.9881 92.957381 15.199502)
(4502.0673 46.728877 -16.988937)
(4661.8526 -7.3714009 -50.971957)
(4820.2067 -68.615976 -84.769961)
(4973.717 -135.35384 -116.92868)
(5119.6798 -206.39231 -145.66616)
(5255.8418 -279.86325 -169.82767)
(5380.3502 -353.86437 -188.41526)
(5492.6996 -426.70316 -200.77972)
(5592.3808 -496.50283 -206.71262)
(5680.2266 -562.09193 -206.12553)
(5757.5339 -621.91633 -199.86201)
(5826.1519 -675.4934 -188.06308)
(5888.4478 -721.86372 -172.42512)
(5947.8022 -762.21434 -153.06358)
(6005.1293 -794.31387 -131.99593)
(6066.016 -823.28752 -109.26444)
(6129.8303 -846.89446 -87.068034)
(6197.5422 -868.14367 -62.500442)
(23.933036 -12.755117 -0.19366097)
(69.620167 -9.480052 18.676655)
(120.44966 7.7002556 52.540511)
(156.58109 19.67939 73.36686)
(176.73799 45.586323 90.03606)
(173.86555 69.756393 92.753607)
(151.36574 95.056554 88.181206)
(106.49303 118.05465 69.658215)
(41.259602 137.98707 43.50264)
(-40.070287 151.49623 6.689545)
(-135.05166 158.19612 -35.217803)
(-237.26074 155.41211 -82.245965)
(-341.76658 143.96729 -130.33999)
(-443.42596 121.78111 -177.1036)
(-536.42383 90.123534 -220.25866)
(-616.04718 48.264414 -257.31145)
(-679.01715 -2.006292 -285.92032)
(-719.66712 -59.363208 -304.86268)
(-738.73753 -123.20513 -314.04459)
(-734.67172 -190.11955 -311.8244)
(-705.73215 -259.3618 -299.29825)
(-655.91495 -329.05194 -278.09072)
(-586.50635 -395.69287 -247.47792)
(-499.84745 -460.37537 -211.68288)
(-401.17837 -518.63227 -171.39015)
(-294.31674 -571.0898 -128.92978)
(-183.43646 -616.46619 -87.782983)
(-73.651335 -654.40202 -49.045297)
(31.662341 -684.62541 -15.561699)
(128.87862 -708.20441 11.009738)
(214.64905 -725.18177 29.746269)
(288.93357 -737.20598 39.799819)
(349.63119 -745.48072 41.016081)
(397.53715 -751.41486 33.788309)
(433.80005 -756.98693 19.19782)
(460.77287 -763.85302 -1.0875087)
(480.87277 -773.78146 -25.818022)
(497.51297 -787.22435 -52.289469)
(514.05087 -806.51993 -79.151387)
(533.30463 -831.49111 -104.38144)
(558.63395 -862.79252 -126.41466)
(592.58614 -900.35761 -143.87846)
(637.0933 -943.71713 -155.90853)
(693.53988 -992.09641 -162.00502)
(762.5554 -1044.4383 -162.04006)
(844.11767 -1099.4877 -156.27161)
(937.53563 -1155.8655 -145.25269)
(1041.5915 -1212.1528 -129.78247)
(1154.5878 -1266.9754 -110.83558)
(1274.5122 -1319.0583 -89.475445)
(1399.1423 -1367.3128 -66.789084)
(1526.1747 -1410.8564 -43.821005)
(1653.3379 -1449.0723 -21.523376)
(1778.4733 -1481.6088 -0.7344484)
(1899.6107 -1508.3951 17.838728)
(2015.0073 -1529.6186 33.600861)
(2123.1888 -1545.7178 46.06858)
(2222.9748 -1557.3329 54.84086)
(2313.5145 -1565.2953 59.610044)
(2394.3288 -1570.5717 60.166799)
(2465.3537 -1574.2491 56.436935)
(2526.9985 -1577.4811 48.513468)
(2580.171 -1581.4715 36.713719)
(2626.3081 -1587.419 21.614089)
(2667.3508 -1596.4656 4.015285)
(2705.6918 -1609.6546 -14.955991)
(2743.9243 -1627.8548 -34.097175)
(2785.3661 -1651.6596 -51.981733)
(2832.3216 -1681.8804 -67.14731)
(2888.2128 -1717.7935 -78.085586)
(2955.5942 -1759.7029 -84.011885)
(3035.7445 -1806.5501 -83.799748)
(3130.406 -1857.4185 -76.990132)
(3240.0871 -1910.9991 -63.373393)
(3364.3976 -1965.7313 -43.247219)
(3502.2649 -2019.881 -17.336821)
(3651.7356 -2071.7514 13.304503)
(3810.2664 -2119.6878 47.24572)
(3974.7617 -2162.2285 82.85912)
(4141.8619 -2198.2307 118.41322)
(4308.1223 -2226.9052 152.14616)
(4470.2388 -2247.8745 182.41658)
(4625.2738 -2261.2522 207.82065)
(4770.7856 -2267.5307 227.22444)
(4904.9977 -2267.6838 239.90604)
(5026.8531 -2262.9776 245.4951)
(5136.0528 -2255.0242 244.0593)
(5233.0737 -2245.5619 236.02141)
(5319.0776 -2236.4854 222.13858)
(5395.8839 -2229.5947 203.40976)
(5465.8009 -2226.6511 181.11536)
(5531.5166 -2228.9883 156.33539)
(5595.86 -2237.5007 130.44195)
(5661.2173 -2252.5678 104.29973)
(5729.8974 -2273.1125 77.921423)
(3.2927448e-15 -1.3239155e-15 2.3845803e-16)
(2.4470133e-15 -9.6672015e-16 3.215493e-17)
(-9.0574249e-15 9.0550918e-16 6.4029168e-16)
(-1.2642219e-16 -5.721845e-16 4.4370095e-16)
(-7.6811722e-15 -4.9270561e-16 4.1193361e-16)
(-7.3893964e-15 2.7533729e-15 -1.0951501e-15)
(-3.2915852e-15 -8.1743692e-16 3.8364228e-16)
(-1.9032499e-15 5.3200654e-16 -8.2319016e-17)
(-4.7409759e-15 -4.8623412e-16 4.3918642e-16)
(-1.2869644e-14 1.1845665e-15 6.4228907e-16)
(-9.6157521e-15 1.4157374e-15 5.9836601e-16)
(-9.4077204e-15 4.9518432e-16 1.1192419e-15)
(-5.982767e-15 2.6210694e-16 3.0473736e-16)
(-1.1478475e-14 -5.3386198e-16 1.6580808e-15)
(-5.257323e-15 3.6289085e-16 2.8600704e-16)
(22.845763 -9.3116141 3.5320765)
(75.284959 -5.1333982 -33.532085)
(133.50559 1.2612467 -76.034167)
(174.56595 19.753575 -101.64104)
(198.78807 45.388099 -121.67814)
(195.41487 65.568273 -127.709)
(176.40517 90.20024 -120.12037)
(127.15935 114.60868 -105.58587)
(63.209629 126.80526 -71.582002)
(-21.750881 143.21638 -33.998556)
(-119.65712 148.62803 12.676902)
(-225.21165 139.23905 63.300014)
(-330.96791 132.24163 116.5976)
(-438.19615 103.45455 166.07989)
(-529.24293 73.960271 213.49334)
(-612.79034 31.970532 251.63799)
(-676.54568 -19.564851 280.49494)
(-714.96237 -78.074483 302.31948)
(-737.1958 -139.09363 308.41109)
(-726.77985 -210.16396 305.77394)
(-699.37294 -274.96441 292.66583)
(-647.37724 -342.99537 267.41368)
(-576.12897 -413.3972 235.71931)
(-487.46935 -474.69106 197.26506)
(-387.89735 -531.75521 155.11813)
(-279.89846 -585.25072 111.80206)
(-167.43057 -626.01092 70.368142)
(-60.033526 -666.45924 30.307986)
(47.355305 -694.14405 -1.1993287)
(140.14298 -716.67526 -27.928498)
(226.39068 -733.16976 -44.900702)
(297.31384 -745.00955 -52.51217)
(355.62765 -752.96856 -51.304582)
(400.97355 -759.45204 -41.34427)
(433.92298 -764.40261 -24.762352)
(458.60933 -774.48159 -1.8778314)
(477.12858 -781.5103 24.931685)
(491.42057 -797.04909 52.738488)
(506.85108 -816.32027 80.625852)
(525.23936 -841.68379 106.14677)
(550.4495 -873.18041 127.88371)
(584.65297 -910.77166 144.62314)
(629.84048 -954.01032 155.49245)
(687.35336 -1002.1681 160.0729)
(757.72781 -1054.2256 158.33586)
(840.89137 -1108.9675 150.5911)
(936.09687 -1165.0668 137.48783)
(1042.0442 -1221.1352 119.90196)
(1156.9693 -1275.8221 98.903894)
(1278.7708 -1327.8733 75.661154)
(1405.1365 -1376.1857 51.376874)
(1533.6741 -1419.8647 27.207227)
(1662.025 -1458.2538 4.2205194)
(1787.963 -1490.952 -16.661079)
(1909.4671 -1517.8372 -34.661191)
(2024.7769 -1539.0416 -49.174676)
(2132.4272 -1554.9649 -59.735886)
(2231.2832 -1566.2273 -66.029692)
(2320.5662 -1573.6651 -67.865257)
(2399.8941 -1578.279 -65.194624)
(2469.3132 -1581.2103 -58.117957)
(2529.3484 -1583.6851 -46.920897)
(2581.0096 -1586.9859 -32.072522)
(2625.8287 -1592.3639 -14.307934)
(2665.7614 -1601.0271 5.5123074)
(2703.3495 -1614.0352 26.204244)
(2740.9663 -1632.6843 46.515167)
(2782.6167 -1655.4564 65.099257)
(2828.1425 -1686.1503 79.872013)
(2885.8344 -1722.9738 91.495266)
(2952.276 -1764.8239 96.914727)
(3033.156 -1811.8614 95.972346)
(3128.1116 -1862.9986 88.389301)
(3238.201 -1916.5648 73.806089)
(3363.0053 -1971.2481 52.719548)
(3501.4099 -2025.2238 25.811303)
(3651.5129 -2076.8291 -5.7720454)
(3810.7558 -2124.426 -40.576271)
(3976.0634 -2166.5729 -76.956641)
(4144.0782 -2202.1312 -113.14734)
(4311.3418 -2230.3268 -147.40969)
(4474.5524 -2250.8087 -178.13822)
(4630.7304 -2263.6819 -203.97057)
(4777.4269 -2269.4948 -223.84877)
(4912.8111 -2269.2163 -237.0963)
(5035.8085 -2264.1672 -243.40878)
(5146.0735 -2255.9576 -242.87554)
(5244.0624 -2246.3625 -235.93962)
(5330.9068 -2237.2597 -223.33989)
(5408.4144 -2230.4501 -206.08493)
(5478.8784 -2227.5931 -185.29073)
(5544.9243 -2230.0042 -162.18311)
(5609.3543 -2238.5692 -137.80988)
(5674.4772 -2253.306 -112.80876)
(5742.5031 -2273.2409 -88.066286)
(5833.0885 -2227.9333 -36.533453)
(5858.4423 -2157.1918 -14.362584)
(5885.6927 -2082.6053 1.685579)
(5918.325 -1999.7522 13.758614)
(5947.5331 -1911.8385 18.915663)
(5983.2465 -1817.3985 22.418436)
(6013.483 -1719.5132 19.393872)
(6046.4144 -1619.3435 16.867257)
(6077.6158 -1518.6548 13.703201)
(6106.4762 -1416.7383 9.4785685)
(6131.0837 -1318.4226 8.7740599)
(6159.0069 -1227.1192 9.8069956)
(6177.946 -1137.3714 18.464032)
(6201.0685 -1059.5391 29.049065)
(6219.0107 -986.43552 49.601234)
(6171.3599 -896.79277 94.923311)
(6105.0688 -875.6477 114.68739)
(6044.8795 -851.69314 136.92717)
(5987.9291 -823.21346 157.79667)
(5933.3188 -789.55629 177.84089)
(5878.0371 -749.23615 195.99298)
(5818.5662 -701.9005 210.44315)
(5752.4566 -647.56996 220.35209)
(5677.0526 -586.58653 224.74207)
(5590.6215 -519.68143 222.77505)
(5491.6591 -448.32373 214.46941)
(5379.9426 -373.50519 199.44538)
(5255.4202 -297.43928 178.51052)
(5119.4638 -221.80082 152.29352)
(4973.3244 -148.42225 121.80561)
(4819.7357 -79.294779 88.368751)
(4661.5336 -15.923689 53.915015)
(4501.9047 40.294798 19.92933)
(4344.207 88.294387 -11.749393)
(4191.6445 127.60115 -39.666841)
(4047.0613 158.07877 -62.512984)
(3912.8621 180.17656 -79.397714)
(3790.7133 194.68293 -89.778095)
(3681.7 202.91263 -93.617505)
(3585.8425 206.23639 -90.928031)
(3502.9022 206.28648 -83.116867)
(3431.0659 206.23744 -69.750051)
(3370.0079 203.55099 -53.011407)
(3316.0238 206.28251 -34.49765)
(3267.0281 210.40589 -14.901854)
(3220.733 219.46332 4.6212273)
(3174.322 233.78125 22.544197)
(3125.3823 253.73192 38.029109)
(3071.7352 279.39477 50.282682)
(3011.5295 310.44419 58.78755)
(2943.3249 346.25095 63.236062)
(2866.1117 385.90166 63.51634)
(2779.3228 428.28816 59.701008)
(2682.8291 472.13224 51.98771)
(2576.9204 516.08505 40.692055)
(2462.2963 558.75618 26.219514)
(2340.0352 598.79954 9.0621717)
(2211.5805 634.94148 -10.203643)
(2078.6967 666.05848 -30.910435)
(1943.4347 691.20265 -52.302592)
(1808.0544 709.67036 -73.542402)
(1674.9444 721.02802 -93.730005)
(1546.5131 725.151 -111.94113)
(1425.0321 722.2653 -127.28495)
(1312.5664 712.90823 -138.93295)
(1210.7112 697.91797 -146.20514)
(1120.5849 678.57135 -148.71057)
(1042.736 656.04869 -146.1323)
(976.68013 632.08523 -138.73473)
(922.0711 608.03422 -126.73214)
(876.37703 585.57308 -110.99634)
(838.21027 565.52979 -92.984331)
(804.39511 550.98277 -73.252717)
(771.25038 539.48458 -53.208492)
(737.85812 533.81275 -35.502872)
(699.32647 533.24377 -20.646056)
(651.54064 537.95558 -9.4698191)
(596.10899 543.91698 -5.2082868)
(528.12537 554.08845 -5.8810603)
(449.82003 564.14217 -14.267661)
(357.84593 574.56266 -27.701841)
(257.09697 577.81011 -48.744232)
(147.35882 580.46308 -73.396682)
(31.734487 573.06438 -102.29002)
(-84.96019 559.56931 -132.97102)
(-199.96442 536.74143 -164.0302)
(-308.91506 502.67794 -193.12772)
(-405.11407 460.13561 -219.48138)
(-490.13277 410.12829 -240.46398)
(-556.30147 350.76797 -253.6538)
(-599.34497 284.55941 -260.86505)
(-624.86696 218.39121 -258.2539)
(-622.2867 145.73133 -247.63453)
(-601.81254 80.404351 -228.49529)
(-558.43963 13.893275 -201.53304)
(-497.2214 -43.75908 -168.90348)
(-422.5556 -92.515503 -132.10896)
(-338.82724 -130.3047 -92.711823)
(-250.9517 -159.73536 -51.78401)
(-161.44818 -174.89158 -13.979214)
(-78.649491 -178.47841 19.991635)
(-7.4702887 -171.61684 49.844539)
(53.806408 -156.9724 71.981118)
(96.286686 -134.087 86.140268)
(122.77126 -106.85359 91.807873)
(128.67495 -75.922898 89.194081)
(118.74094 -48.363405 78.872152)
(94.356344 -22.362107 60.997697)
(52.842027 -7.1948476 36.393322)
(20.945156 3.6062327 8.8498754)
(-6.8708141e-15 1.5083581e-15 1.9262289e-16)
(-1.2504183e-14 5.7375616e-16 8.4327435e-16)
(-8.3449101e-15 1.4891922e-15 5.3018253e-16)
(-4.9731758e-15 1.4991158e-15 6.2376313e-16)
(-3.4146159e-15 1.5624416e-15 3.1576894e-17)
(2.0582335e-15 9.3962624e-16 -5.746342e-16)
(2.2101935e-15 3.7457559e-17 -1.1841335e-16)
(2.4553765e-15 -8.5141669e-16 -9.3419562e-16)
(1.2987427e-15 1.0081898e-16 1.7950851e-15)
(-4.5074861e-15 9.063971e-16 1.0710522e-15)
(-5.2682467e-15 2.1856155e-15 1.0652666e-15)
(-7.4917339e-15 1.915055e-15 2.2418828e-16)
(-9.400838e-15 1.3708275e-15 6.2833768e-16)
(-6.2048683e-15 1.3247981e-15 5.4317906e-16)
(-6.971104e-15 1.5128103e-15 7.5678131e-16)
(-1.2693866e-14 6.2923345e-15 -2.1364834e-15)
(-5.2452578e-15 2.6791924e-15 -5.3037742e-16)
(-1.0752404e-15 9.8318743e-16 -1.0111087e-16)
(-2.7353382e-15 1.7746034e-15 7.3085398e-17)
(1.0178949e-15 -1.5450237e-16 -4.119182e-16)
(-1.4303492e-15 4.136346e-16 -3.3264033e-16)
(-1.0059749e-14 4.7133437e-15 -1.6449855e-15)
(2.9801421e-15 -1.9180379e-15 -8.3172098e-16)
(-4.79756e-15 2.8035442e-15 1.1420498e-15)
(-5.4778068e-15 3.5047253e-15 -3.934403e-16)
(-1.8117877e-15 1.1581936e-15 -9.1309836e-16)
(-3.9812639e-16 4.7407236e-16 -2.2932148e-16)
(-1.5272242e-15 1.100363e-15 -2.2557932e-16)
(-4.1024849e-15 1.9838802e-15 2.8069696e-17)
(-5.3424143e-16 2.551799e-16 -1.9455919e-16)
(5790.7946 -2265.6143 52.520792)
(5778.5856 -2235.4625 53.193899)
(5764.6841 -2206.6981 51.447687)
(5750.2076 -2180.3485 46.730378)
(5736.2842 -2157.6991 38.490553)
(5725.1113 -2139.9756 27.242345)
(5717.7212 -2128.5641 13.806478)
(5715.0992 -2124.2434 -0.84157367)
(5717.5554 -2127.2717 -15.661463)
(5724.6646 -2137.3601 -29.645965)
(5736.0223 -2154.0636 -41.567676)
(5750.4371 -2176.1885 -51.179427)
(5766.2403 -2202.182 -57.334867)
(5782.1035 -2230.9177 -60.306017)
(5797.0557 -2261.9797 -61.556192)
(6238.9484 -907.74632 -36.440015)
(6211.0343 -923.88498 -36.394843)
(6181.9459 -938.154 -33.887678)
(6154.0469 -951.0054 -28.102028)
(6127.5799 -962.03689 -19.312626)
(6105.9463 -971.03744 -7.8578669)
(6090.835 -977.60998 5.3934649)
(6083.6369 -981.52488 19.538662)
(6084.9172 -982.58545 33.560244)
(6094.4689 -980.78308 46.474716)
(6111.2049 -976.37402 57.257692)
(6133.6159 -969.0795 65.323278)
(6159.1626 -960.14518 70.229401)
(6186.3827 -947.9916 71.916534)
(6213.3331 -934.788 71.67723)
(24.81367 -16.833809 -22.563366)
(62.407244 -30.506271 -39.992087)
(99.887453 -44.822659 -60.335273)
(126.9544 -59.56235 -73.837577)
(138.70809 -74.723367 -83.326575)
(132.67471 -88.71304 -85.224952)
(107.94831 -100.34637 -80.142261)
(64.704316 -107.97856 -67.596625)
(4.4554149 -110.34443 -48.045201)
(-69.826169 -105.87329 -22.508299)
(-155.19993 -94.4104 7.8924738)
(-246.48231 -75.063785 41.52609)
(-338.84816 -47.957378 76.396603)
(-427.02765 -13.574452 111.03641)
(-505.80486 26.678911 143.2734)
(-570.65707 72.416226 171.33437)
(-617.85851 121.78313 193.97852)
(-644.50541 173.14984 210.27845)
(-648.00019 224.41816 219.37426)
(-628.31581 274.75908 221.05387)
(-586.23187 321.65099 215.74349)
(-522.63399 364.43439 203.96017)
(-440.75743 401.95115 186.68116)
(-343.89029 433.15739 165.26154)
(-235.31952 458.21377 140.96526)
(-119.93428 476.90605 115.66001)
(-1.8188178 489.6555 90.424795)
(114.88699 497.36653 67.020243)
(226.71046 500.87655 46.69585)
(330.5688 501.54846 30.648361)
(423.73858 500.21135 19.079132)
(505.36221 498.53536 13.140346)
(574.96413 497.33031 12.401413)
(632.83962 497.71423 16.572775)
(680.43815 500.36225 25.522797)
(719.63443 505.64579 37.670386)
(753.2177 513.80098 52.112787)
(784.39929 524.65511 68.020182)
(816.20462 537.93539 83.729615)
(851.74188 552.55497 98.149267)
(894.1169 568.21126 110.33835)
(945.70206 583.65069 119.25244)
(1008.07 597.88395 124.44208)
(1082.6767 609.86415 125.43716)
(1169.7858 618.68841 122.19708)
(1269.1067 623.48529 114.91358)
(1379.6504 623.64299 103.99245)
(1499.8761 618.71601 90.067314)
(1627.7721 608.47277 73.856182)
(1761.0599 592.93204 56.193893)
(1897.2636 572.32399 37.915726)
(2033.9156 547.08888 19.849096)
(2168.6265 517.85177 2.7499157)
(2299.2219 485.38949 -12.705934)
(2423.8019 450.60219 -25.951626)
(2540.8094 414.47148 -36.524418)
(2649.066 378.02689 -44.076929)
(2747.7995 342.28658 -48.359872)
(2836.6566 308.22793 -49.236391)
(2915.7227 276.7114 -46.665646)
(2985.4954 248.44528 -40.74326)
(3046.9538 223.96121 -31.663556)
(3101.4091 203.43299 -19.808503)
(3150.7189 186.92744 -5.6145436)
(3196.8581 174.18266 10.024654)
(3242.2795 164.20318 26.573301)
(3289.6796 156.6713 43.235367)
(3341.4838 150.36012 58.145298)
(3400.3993 143.90636 71.556599)
(3469.0906 136.06055 80.717465)
(3549.0004 125.44972 86.172321)
(3641.7165 110.759 86.573327)
(3748.048 90.863763 81.57543)
(3867.934 64.994595 71.017395)
(4000.5813 32.594138 55.130225)
(4144.3586 -6.5544979 34.493626)
(4296.9829 -52.260007 10.013083)
(4455.5873 -104.06795 -17.123656)
(4616.9479 -161.05913 -45.598264)
(4777.6145 -222.30832 -73.937569)
(4934.3391 -286.39932 -100.74855)
(5084.0161 -352.19425 -124.76547)
(5224.3481 -418.24193 -144.80335)
(5353.0328 -483.04301 -159.92397)
(5469.3199 -545.47787 -170.02553)
(5572.6579 -604.49975 -174.6492)
(5663.3752 -659.3835 -174.02714)
(5742.8902 -709.50448 -168.38418)
(5812.6472 -754.63354 -158.32195)
(5875.2248 -794.68242 -144.33161)
(5933.8815 -830.21225 -127.66234)
(5989.3992 -861.08507 -108.18379)
(6048.3571 -889.1372 -87.424397)
(6109.4538 -914.08093 -65.046596)
(6174.868 -936.14043 -40.440713)
(33.45904 -19.184262 -25.309902)
(69.67147 -34.042145 -38.62431)
(105.60279 -48.507483 -53.477682)
(131.53772 -59.585058 -64.049047)
(141.59647 -69.296232 -70.839794)
(134.94826 -76.728181 -72.150932)
(109.21422 -80.883801 -67.409411)
(64.710081 -81.682381 -56.726014)
(3.2766575 -77.746343 -40.159592)
(-72.716515 -68.834614 -18.991706)
(-159.55342 -54.263995 6.624947)
(-252.47626 -34.35219 34.455414)
(-346.64523 -8.9456621 63.834865)
(-436.66563 21.123546 92.502372)
(-517.58512 55.462622 119.46467)
(-584.39768 92.811343 142.79553)
(-633.62374 132.23278 162.088)
(-661.69332 172.30572 175.73192)
(-667.27272 211.99532 183.56441)
(-649.35036 250.02947 185.2823)
(-608.46587 285.46074 181.27463)
(-546.18365 317.36804 171.78709)
(-465.2104 345.07502 157.96787)
(-368.61172 368.28434 140.59036)
(-260.5783 386.74061 120.96175)
(-145.24364 400.98777 100.19663)
(-26.943091 411.03013 79.750706)
(90.401381 417.73983 60.858908)
(202.82642 421.86716 44.302438)
(307.13004 424.24563 31.06837)
(401.39995 425.77775 21.936854)
(483.85046 427.3613 17.007357)
(553.85635 429.65547 16.283622)
(612.18841 433.21538 19.714951)
(659.85187 438.5896 26.561016)
(698.98968 445.72366 36.292884)
(732.43581 454.5732 47.961234)
(762.98097 465.01855 60.486806)
(793.76972 476.32268 72.946282)
(828.32192 488.07411 84.379512)
(869.20409 499.46362 93.772514)
(919.14929 509.78565 100.79476)
(979.99865 518.08306 104.23556)
(1052.8622 523.86403 104.61433)
(1138.3702 526.24274 101.453)
(1236.2374 524.82548 95.019874)
(1345.5509 519.20367 85.625828)
(1464.8412 509.19243 73.801771)
(1592.1432 494.74316 60.131477)
(1725.1967 476.03422 45.317734)
(1861.5342 453.37007 30.031959)
(1998.6654 427.2361 14.969405)
(2134.1583 398.23247 0.74795123)
(2265.7793 367.07243 -12.06832)
(2391.555 334.54689 -23.010406)
(2509.8449 301.49556 -31.696077)
(2619.3898 268.76853 -37.835177)
(2719.334 237.18749 -41.226499)
(2809.2593 207.50826 -41.759696)
(2889.1787 180.35478 -39.414729)
(2959.5757 156.20745 -34.270042)
(3021.3587 135.33335 -26.5137)
(3075.885 117.72546 -16.448273)
(3124.9117 103.25119 -4.5061205)
(3170.618 91.374291 8.6346453)
(3215.2516 81.11427 22.764443)
(3261.9632 72.432787 35.756976)
(3312.393 63.725836 48.682683)
(3369.7596 53.245019 59.287855)
(3436.6848 40.034757 67.25964)
(3515.0435 23.44455 71.630364)
(3606.1732 2.1078016 71.997334)
(3711.0638 -24.600663 67.844802)
(3829.696 -57.095653 59.092282)
(3961.3538 -95.555171 45.907409)
(4104.5169 -139.83481 28.804921)
(4256.9458 -189.43778 8.4900449)
(4415.7902 -243.64666 -14.027229)
(4577.8318 -301.46613 -37.701984)
(4739.6784 -361.89751 -61.221833)
(4897.9171 -423.57011 -83.575542)
(5049.5239 -485.44735 -103.65976)
(5191.7405 -546.38067 -120.11967)
(5322.4622 -604.69801 -133.56543)
(5440.9431 -660.66875 -141.76601)
(5546.2537 -713.23567 -145.60236)
(5638.7192 -761.69017 -144.82817)
(5719.534 -805.64358 -139.90052)
(5790.407 -845.2911 -130.89534)
(5853.2356 -880.45944 -118.78732)
(5912.1624 -912.24535 -103.53802)
(5967.225 -939.5236 -86.201369)
(6025.2167 -965.09548 -66.721175)
(6085.7077 -988.2851 -44.988056)
(6149.6502 -1007.9778 -21.408796)
(39.017079 -16.848917 -24.728626)
(75.095615 -30.244483 -34.338037)
(110.4978 -41.844716 -46.723917)
(133.77676 -51.328277 -54.097688)
(142.61422 -57.94995 -59.534833)
(134.6539 -61.808602 -59.709772)
(107.27072 -62.6298 -55.698941)
(62.072555 -59.732842 -46.599803)
(-0.63020114 -53.239607 -33.308037)
(-77.643196 -42.211267 -15.575606)
(-165.44767 -27.397161 4.8925728)
(-259.37776 -8.0301225 27.845421)
(-354.63338 14.707801 51.365149)
(-445.78164 41.150937 74.878867)
(-527.75731 69.865156 96.507776)
(-595.96475 100.6684 115.875)
(-646.32685 132.18974 131.27548)
(-676.03593 163.83561 142.58348)
(-682.9451 194.47645 149.06319)
(-666.39616 223.44435 150.83716)
(-626.88584 249.90884 147.79998)
(-565.93926 273.31187 140.63865)
(-486.03144 293.4022 129.79806)
(-390.5784 309.80798 116.2746)
(-283.34975 322.83955 100.84825)
(-168.6471 332.46699 84.726408)
(-50.691785 339.32633 68.803258)
(66.190889 343.95754 53.930064)
(178.45676 346.92548 41.053458)
(282.93772 349.06322 30.884556)
(377.1749 350.95743 23.668193)
(459.66342 353.31511 19.791163)
(530.0694 356.50705 19.316472)
(588.55126 360.98446 21.884445)
(636.40153 366.80559 27.283635)
(675.63043 373.97573 34.76539)
(708.79826 382.32763 43.562289)
(738.95274 391.41517 53.084448)
(769.43738 400.78801 62.506255)
(803.18231 409.60051 70.879879)
(843.2152 417.57289 77.88115)
(892.06089 423.71776 82.575543)
(951.69392 427.51828 84.915778)
(1023.3016 428.46101 84.468219)
(1107.474 425.98277 81.392154)
(1204.036 419.77846 75.704866)
(1312.1673 409.68328 67.728411)
(1430.426 395.64709 57.855415)
(1556.9175 377.78391 46.586385)
(1689.3968 356.36718 34.458531)
(1825.4336 331.78139 22.019986)
(1962.5196 304.54775 9.8256516)
(2098.217 275.26062 -1.6346898)
(2230.2493 244.6008 -11.905842)
(2356.598 213.28485 -20.61806)
(2475.5649 182.05136 -27.465114)
(2585.8309 151.6213 -32.218916)
(2686.483 122.66925 -34.725535)
(2777.0463 95.779682 -34.905066)
(2857.5091 71.410436 -32.744065)
(2928.3035 49.85562 -28.330404)
(2990.3392 31.210993 -21.808154)
(3044.9759 15.340536 -13.445194)
(3093.9249 1.9457267 -3.6404062)
(3139.5632 -9.6650334 7.2910642)
(3183.5303 -20.187465 18.457925)
(3230.0771 -30.550459 29.690528)
(3280.3824 -42.322608 40.226122)
(3336.9945 -55.580757 48.446837)
(3403.4755 -71.81809 54.663023)
(3481.2402 -92.235531 57.96457)
(3571.7835 -117.23384 57.908278)
(3676.1112 -147.63112 54.202154)
(3794.1736 -183.50521 46.79023)
(3925.3085 -224.88349 35.840521)
(4068.0342 -271.39668 21.808012)
(4220.1311 -322.44677 5.2648073)
(4378.8485 -377.1955 -12.976294)
(4540.9736 -434.62317 -32.008545)
(4703.1267 -493.6243 -50.892521)
(4861.9928 -553.0763 -68.701475)
(5014.3473 -611.9055 -84.501379)
(5157.7499 -669.08722 -97.798598)
(5290.0066 -723.60691 -108.01061)
(5409.5554 -774.76221 -113.68781)
(5516.0016 -822.83661 -116.40585)
(5609.6167 -866.3275 -115.44456)
(5691.556 -905.6047 -111.05703)
(5763.0749 -940.83629 -103.46724)
(5826.5521 -972.04802 -92.880258)
(5885.5915 -1000.1887 -80.079484)
(5940.168 -1024.5746 -64.510922)
(5997.9795 -1047.5116 -47.514703)
(6057.7362 -1068.8042 -27.638491)
(6121.1748 -1087.1761 -5.948631)
(44.013228 -15.534254 -23.062543)
(82.086332 -26.063384 -31.776447)
(115.15864 -35.440247 -40.904209)
(136.50379 -43.066277 -45.950859)
(143.3748 -47.665635 -49.351842)
(133.10132 -50.392133 -48.816924)
(104.73193 -49.220314 -45.227811)
(57.962596 -45.384518 -38.056475)
(-5.8154466 -37.756029 -26.952193)
(-83.63946 -26.969117 -13.460427)
(-172.12276 -12.572538 2.984236)
(-266.79898 4.8576964 20.550496)
(-362.59484 25.166756 39.237675)
(-454.22576 47.819241 57.167135)
(-536.9625 72.071254 74.413864)
(-605.71386 97.4186 89.088242)
(-657.04527 122.90167 101.35767)
(-687.49273 147.92576 110.12132)
(-695.5117 171.64772 115.42072)
(-680.07601 193.5569 116.87878)
(-641.8394 213.01896 114.9122)
(-582.06299 229.79079 109.64232)
(-503.49242 243.51555 101.75093)
(-409.19064 254.29904 91.739342)
(-303.1813 262.1398 80.445385)
(-189.52504 267.48027 68.558096)
(-72.672012 270.72049 56.791452)
(43.451517 272.3339 45.98911)
(154.97788 273.0271 36.62474)
(258.82775 273.36638 29.173748)
(352.63433 273.92977 24.032097)
(434.92891 275.16713 21.355952)
(505.06439 277.47522 21.067809)
(563.40678 281.04061 23.036892)
(611.22344 285.84533 26.974787)
(650.38638 291.8551 32.256953)
(683.53198 298.5147 38.653807)
(713.71244 305.66241 45.485235)
(743.81507 312.52675 51.897005)
(777.26081 318.96606 57.77063)
(816.84871 323.83835 62.160804)
(865.11612 326.7406 65.040449)
(923.96477 327.08645 65.928409)
(994.71987 324.39567 64.832484)
(1077.9051 318.30026 61.742361)
(1173.4119 308.54406 56.736384)
(1280.4622 295.08808 50.061443)
(1397.6628 277.98309 42.03387)
(1523.1619 257.43603 33.032757)
(1654.761 233.78992 23.468457)
(1790.0528 207.48809 13.768279)
(1926.5505 179.07746 4.3449477)
(2061.8201 149.15977 -4.4240897)
(2193.5756 118.39958 -12.198357)
(2319.781 87.464055 -18.700415)
(2438.7114 57.030115 -23.702662)
(2549.0163 27.728816 -27.042103)
(2649.7529 0.13156955 -28.612468)
(2740.4263 -25.291458 -28.360128)
(2820.9964 -48.198812 -26.300844)
(2891.8899 -68.428518 -22.496384)
(2954.0248 -85.9677 -17.088314)
(3008.7312 -101.06126 -10.306282)
(3057.8242 -114.11521 -2.3754977)
(3103.3669 -125.7851 6.2017261)
(3147.9747 -136.75278 15.204845)
(3194.0363 -148.17657 23.908753)
(3244.4337 -160.97202 31.676645)
(3301.649 -175.88623 38.296033)
(3368.4036 -194.10173 43.029607)
(3446.3337 -216.51129 45.504644)
(3537.1292 -243.44504 45.342666)
(3641.4754 -275.81152 42.499034)
(3759.3675 -313.54359 36.714009)
(3890.4071 -356.22606 28.307122)