/*--------------------------------*- C++ -*----------------------------------*\
  =========                 |
  \\      /  F ield         | OpenFOAM: The Open Source CFD Toolbox
   \\    /   O peration     | Website:  https://openfoam.org
    \\  /    A nd           | Version:  6
     \\/     M anipulation  |
\*---------------------------------------------------------------------------*/
FoamFile
{
    version     2.0;
    format      ascii;
    class       pointVectorField;
    location    "1.08";
    object      u;
}
// * * * * * * * * * * * * * * * * * * * * * * * * * * * * * * * * * * * * * //

dimensions      [0 1 0 0 0 0 0];

internalField   nonuniform List<vector> 
3969
(
(0 -4.6834109e-20 0)
(0 -2.5613662e-19 0)
(-1.0873773 -0.25913088 0.01651509)
(-1.1257559 0.015344789 0.016501451)
(0 2.554537e-18 0)
(0 2.1100418e-18 0)
(-1.1252763 0.013593886 0.016566929)
(-1.0869124 -0.26081731 0.016466988)
(0 1.0671007e-19 0)
(0 6.4139863e-19 0)
(0 2.8726168e-19 0)
(-1.7178071e-18 -1.5467556e-19 0)
(0 8.4643538e-19 0)
(0 -4.8799541e-19 0)
(0 -4.6599675e-19 0)
(-1.0921979 -0.22472998 0.016551727)
(-1.0969328 -0.19039005 0.016573521)
(-1.101688 -0.15609731 0.016543937)
(-1.1064459 -0.12184835 0.016512693)
(-1.1112281 -0.087616856 0.016465913)
(-1.1160666 -0.053353183 0.016444371)
(-1.1209281 -0.019027069 0.016459787)
(-0.0010057996 -0.0042914179 -0.0051000883)
(-0.001026102 -0.0076525373 -0.0067146376)
(-0.0027239551 -0.011605129 -0.007647405)
(-0.0057511565 -0.01588338 -0.0079792703)
(-0.0099915636 -0.020196348 -0.0081476303)
(-0.015517078 -0.024854326 -0.0080642773)
(-0.022207143 -0.029441536 -0.0080175906)
(-0.030132406 -0.034344654 -0.007794857)
(-0.039270339 -0.039151164 -0.0076214941)
(-0.049609386 -0.044210655 -0.0072972413)
(-0.061170679 -0.049241658 -0.0070421458)
(-0.073909748 -0.054485376 -0.0066451862)
(-0.087880847 -0.059678375 -0.0062530308)
(-0.1029806 -0.065108078 -0.0057984062)
(-0.11929731 -0.070487552 -0.0053011495)
(-0.13670385 -0.076029471 -0.0047553527)
(-0.15523858 -0.081593918 -0.0041990019)
(-0.17486466 -0.087274796 -0.0035828768)
(-0.19556312 -0.092995464 -0.0029338491)
(-0.21729971 -0.098800357 -0.0022426366)
(-0.24005093 -0.10465645 -0.0015096108)
(-0.26378149 -0.110585 -0.0007390584)
(-0.28846156 -0.11655886 7.4818116e-05)
(-0.31406389 -0.12258747 0.00092162331)
(-0.34052359 -0.12865595 0.001803097)
(-0.36782602 -0.13477357 0.0027027081)
(-0.39590103 -0.14091368 0.0036160738)
(-0.42473145 -0.14708368 0.004538138)
(-0.45425981 -0.15325178 0.0054549987)
(-0.48443229 -0.15942643 0.0063584968)
(-0.51521142 -0.16558264 0.0072450883)
(-0.54654827 -0.17171865 0.0081048513)
(-0.57839755 -0.17781188 0.008934201)
(-0.61071375 -0.18386464 0.009735724)
(-0.64344582 -0.18984839 0.010489323)
(-0.67656818 -0.19576719 0.011214534)
(-0.70999563 -0.20160239 0.011895304)
(-0.74372508 -0.2073406 0.012524447)
(-0.77767499 -0.21298833 0.013115944)
(-0.81182995 -0.21851686 0.013653028)
(-0.84612766 -0.22395613 0.014154449)
(-0.88053025 -0.22926751 0.014601547)
(-0.91503184 -0.23446502 0.015009729)
(-0.94950303 -0.23958834 0.015379597)
(-0.98407942 -0.2445511 0.015702364)
(-1.0185108 -0.24949545 0.015998102)
(-1.0529778 -0.25431458 0.016247059)
(-0.00047214407 0.0046993514 0.0063833456)
(-0.002457713 0.008445698 0.0066806238)
(-0.0041700753 0.012820099 0.0083333494)
(-0.0074761391 0.017241939 0.0086176181)
(-0.012303693 0.022133928 0.0090723668)
(-0.018132862 0.026813666 0.0092989726)
(-0.025498079 0.031721224 0.0095459305)
(-0.033984099 0.036388259 0.0097456309)
(-0.043884591 0.041158921 0.0099763385)
(-0.055002948 0.04565041 0.010166156)
(-0.067479499 0.050179954 0.010398843)
(-0.081195543 0.054402211 0.010620516)
(-0.09619198 0.058547564 0.010857013)
(-0.11242399 0.062408424 0.01105245)
(-0.12988548 0.066089933 0.01130468)
(-0.14853591 0.069471639 0.011517393)
(-0.16838753 0.07261531 0.011768199)
(-0.1893223 0.075426286 0.012003304)
(-0.21142574 0.077978097 0.012255879)
(-0.23451422 0.080155279 0.01251955)
(-0.25869711 0.08207761 0.012785296)
(-0.2837923 0.083564948 0.01307959)
(-0.30989206 0.084796073 0.013350831)
(-0.33683181 0.085606527 0.013658725)
(-0.36463978 0.086079622 0.013959462)
(-0.39320589 0.086159425 0.014268059)
(-0.42251803 0.085893693 0.014551223)
(-0.45255549 0.085249568 0.014830184)
(-0.48324216 0.084234555 0.015101128)
(-0.51451157 0.082865344 0.015334786)
(-0.54633697 0.081153868 0.015550613)
(-0.57865136 0.079109908 0.015730164)
(-0.61141678 0.076745644 0.015883499)
(-0.64457349 0.074073651 0.016003232)
(-0.67808051 0.071112743 0.016096837)
(-0.71188831 0.067877446 0.016157358)
(-0.74594588 0.064382696 0.016196237)
(-0.7802077 0.060650228 0.016209532)
(-0.81463532 0.056712953 0.016204977)
(-0.84918427 0.052569041 0.016189499)
(-0.88381446 0.048266248 0.016161277)
(-0.91848612 0.043812567 0.016141836)
(-0.95316835 0.039239286 0.016122542)
(-0.98782378 0.034565156 0.016133421)
(-1.0224355 0.02981962 0.016165249)
(-1.0569674 0.025023736 0.016236649)
(-1.0914133 0.020180292 0.01635367)
(0 -2.7865766e-20 0)
(0 3.2648171e-19 0)
(0 -3.9896846e-19 0)
(8.4475774e-19 -8.5988306e-20 0)
(0 -7.3017528e-19 0)
(0 -3.4035765e-19 0)
(0 -2.7829956e-19 0)
(-0.0017567679 0.0028520237 -0.0047669747)
(-0.0024428892 0.009450588 -0.0068769931)
(-0.0036651382 0.011194865 -0.0072729881)
(-0.0075331683 0.017117817 -0.0078974671)
(-0.011829183 0.020977077 -0.0080093039)
(-0.017997286 0.02583735 -0.0078444833)
(-0.025106297 0.030403952 -0.0078743163)
(-0.033780371 0.034979927 -0.007525576)
(-0.043509028 0.039510606 -0.0074414044)
(-0.054700932 0.043891902 -0.0070469964)
(-0.067112865 0.04828257 -0.0069114843)
(-0.080675638 0.052203916 -0.0064667675)
(-0.095792065 0.056245964 -0.0060914955)
(-0.11191663 0.059825941 -0.0056132239)
(-0.1294324 0.063382665 -0.0051336022)
(-0.14800664 0.066505735 -0.0045775324)
(-0.16786431 0.069534002 -0.0040214616)
(-0.18874925 0.072110816 -0.0033864223)
(-0.21082806 0.07454099 -0.0027496234)
(-0.23389382 0.076527622 -0.0020377883)
(-0.25805122 0.078298333 -0.0013144599)
(-0.28314456 0.079657731 -0.0005300901)
(-0.30922501 0.080742124 0.00027767549)
(-0.33616785 0.08143563 0.0011310026)
(-0.36401675 0.08184438 0.002022614)
(-0.39268473 0.081852568 0.0029621709)
(-0.42204717 0.081636856 0.0038424012)
(-0.4521034 0.081007864 0.0047477706)
(-0.48282516 0.080072295 0.0056353652)
(-0.51413577 0.078794186 0.0065205027)
(-0.54599332 0.077203248 0.007386727)
(-0.57834459 0.075301535 0.0082232855)
(-0.61113278 0.073095807 0.0090332171)
(-0.64431906 0.070600838 0.0098088421)
(-0.67783999 0.067817152 0.010548873)
(-0.71167331 0.064789989 0.011253817)
(-0.74573218 0.061454133 0.011915454)
(-0.77999471 0.057953014 0.012529663)
(-0.81441898 0.054176368 0.013111191)
(-0.8489529 0.050214555 0.013639171)
(-0.88355557 0.046063111 0.014129747)
(-0.91820097 0.041745045 0.014573051)
(-0.95284174 0.037283758 0.014979564)
(-0.9874622 0.032694381 0.015347628)
(-1.0220271 0.028009718 0.015683681)
(-1.0565192 0.023239571 0.01599023)
(-1.0909345 0.018429723 0.01627558)
(-1.120457 -0.020742839 0.01657694)
(-1.1155986 -0.055052777 0.016576297)
(-1.1108002 -0.089296568 0.016546429)
(-1.105957 -0.12353973 0.016493808)
(-1.1012565 -0.15775161 0.016452627)
(-1.0964602 -0.19207742 0.01642862)
(-1.0917395 -0.22641294 0.01643232)
(-1.0525261 -0.25600004 0.016314025)
(-1.018035 -0.25117012 0.016158042)
(-0.98353549 -0.24626726 0.016052073)
(-0.94898044 -0.24130946 0.015971584)
(-0.91441645 -0.23626969 0.015930144)
(-0.8798895 -0.23114983 0.01589956)
(-0.84542932 -0.22594732 0.015878428)
(-0.81107884 -0.22065354 0.01585577)
(-0.77688239 -0.21527669 0.015831196)
(-0.74288199 -0.20981999 0.01578343)
(-0.70912185 -0.2042487 0.015720887)
(-0.67571426 -0.19861286 0.01562453)
(-0.64254348 -0.1929072 0.015528712)
(-0.60981337 -0.18711842 0.01538932)
(-0.57750523 -0.18126494 0.015234423)
(-0.54567701 -0.1753534 0.015047022)
(-0.51437142 -0.16938489 0.014837216)
(-0.48364035 -0.16337305 0.014606864)
(-0.45352325 -0.15731837 0.014352841)
(-0.42407181 -0.15123402 0.014088515)
(-0.39531971 -0.1451257 0.013810105)
(-0.36732395 -0.13900253 0.013527445)
(-0.34011465 -0.13287107 0.013238923)
(-0.31372468 -0.12674911 0.012968388)
(-0.28821113 -0.12062973 0.012694268)
(-0.26359572 -0.11455395 0.012441619)
(-0.23992216 -0.10848992 0.012191715)
(-0.21721282 -0.10249665 0.011969708)
(-0.19552075 -0.096529657 0.011741861)
(-0.174845 -0.090644505 0.011544313)
(-0.15525041 -0.084813238 0.011343524)
(-0.13672282 -0.0790697 0.011152617)
(-0.11929861 -0.073409306 0.010958293)
(-0.10314143 -0.0677173 0.010707452)
(-0.088109646 -0.062209044 0.01059014)
(-0.074102683 -0.056816801 0.010296335)
(-0.061456771 -0.05142787 0.010137939)
(-0.049870155 -0.046162043 0.0099229658)
(-0.039526759 -0.041015855 0.0097475831)
(-0.030471187 -0.03583995 0.0094999872)
(-0.022646799 -0.030868236 0.0092861947)
(-0.015765765 -0.026042265 0.0090755501)
(-0.010469656 -0.021160401 0.0088152738)
(-0.0061590019 -0.016618801 0.0083525658)
(-0.0032406292 -0.012296389 0.0077540995)
(-0.0016774039 -0.007677824 0.0065660339)
(-0.0030010304 -0.004424166 0.0037844195)
(0 3.4476533e-19 0)
(0 2.7003271e-19 0)
(0 -1.3993041e-19 0)
(0 -9.1946148e-19 4.6014263e-19)
(0 -8.0729527e-19 0)
(0 -1.7749596e-19 0)
(0 8.4879379e-19 0)
(0 1.2044304e-18 0)
(0 1.1481268e-18 0)
(0 1.0909161e-18 0)
(0 9.4217849e-19 -1.1574267e-19)
(0 2.5452274e-18 0)
(0 1.1157925e-18 0)
(0 -2.0558714e-19 0)
(-1.1257425 0.015195726 0.016520421)
(-1.125722 0.01502582 0.016541142)
(-1.1256786 0.014826333 0.016546302)
(-1.1256177 0.014607736 0.016555175)
(-1.1255408 0.014372539 0.016545644)
(-1.1254473 0.014120877 0.016538542)
(-1.1253587 0.013872286 0.01655815)
(-1.0873277 -0.25938824 0.01650641)
(-1.0872803 -0.25962682 0.016509694)
(-1.08723 -0.25987286 0.016510545)
(-1.0871787 -0.26010696 0.01651285)
(-1.0871198 -0.26032252 0.016511421)
(-1.0870555 -0.26051816 0.016498125)
(-1.0869848 -0.2606811 0.01647242)
(0.00048309336 -0.0038275521 -0.004501877)
(0.00034894654 -0.0060770861 -0.0048602249)
(-0.0011564711 -0.0091619318 -0.0055649351)
(-0.0040893016 -0.012063567 -0.0058399356)
(-0.0082830277 -0.015166264 -0.0058816048)
(-0.013853491 -0.018515223 -0.0058754432)
(-0.020596165 -0.021873747 -0.0057020373)
(-0.028562449 -0.02544966 -0.005588731)
(-0.037849635 -0.029024251 -0.0053042237)
(-0.048284697 -0.032794455 -0.0050835527)
(-0.059989507 -0.036606805 -0.0047508717)
(-0.072858936 -0.040522922 -0.0044190124)
(-0.087015421 -0.044586227 -0.004011968)
(-0.10227266 -0.048726065 -0.0035913483)
(-0.11877952 -0.052953487 -0.0031376161)
(-0.13639777 -0.05732977 -0.0026295258)
(-0.15514874 -0.061778956 -0.0021080903)
(-0.17499232 -0.066341721 -0.0015454145)
(-0.19592555 -0.070999452 -0.00094666553)
(-0.2178981 -0.07576421 -0.0003107472)
(-0.24089186 -0.080628816 0.00036017575)
(-0.26486845 -0.085585006 0.0010691675)
(-0.28979476 -0.090643725 0.0018086678)
(-0.31563089 -0.095793741 0.0025833451)
(-0.34233758 -0.10103631 0.0033748945)
(-0.36988708 -0.10635634 0.0041973169)
(-0.39820016 -0.11175674 0.0050264147)
(-0.42726043 -0.11723017 0.0058577234)
(-0.45701282 -0.12275703 0.0066819439)
(-0.48740183 -0.12833422 0.007498099)
(-0.51838804 -0.13394655 0.0082920478)
(-0.54992548 -0.13958245 0.0090630915)
(-0.58196209 -0.14523058 0.0098067723)
(-0.61445685 -0.15087856 0.010516159)
(-0.64736026 -0.1565101 0.011190632)
(-0.68062372 -0.16212466 0.011831248)
(-0.7142013 -0.16769568 0.012430001)
(-0.748052 -0.17322522 0.012984054)
(-0.78212214 -0.17869999 0.013501075)
(-0.81637101 -0.18410822 0.013967925)
(-0.85075082 -0.18945556 0.014407763)
(-0.88522781 -0.19471118 0.014786314)
(-0.91976272 -0.19991047 0.015150933)
(-0.95429592 -0.20500781 0.015458016)
(-0.98887524 -0.21003782 0.015753508)
(-1.023331 -0.21500483 0.016024295)
(-1.0578243 -0.21988552 0.016281679)
(0.0019410202 -0.0023703844 -0.0029318537)
(0.0015781344 -0.0035836305 -0.0030555521)
(-0.00011979569 -0.0059585095 -0.0035535489)
(-0.0030384515 -0.0076629119 -0.003638198)
(-0.0073954183 -0.0097616161 -0.0036884507)
(-0.012881542 -0.011903366 -0.0035294323)
(-0.019662059 -0.014088167 -0.0035080435)
(-0.027762562 -0.016458966 -0.0032104388)
(-0.037062114 -0.018819721 -0.0030949654)
(-0.04761017 -0.021413369 -0.002779835)
(-0.059419475 -0.023940773 -0.0025467556)
(-0.072455308 -0.026770663 -0.0021790049)
(-0.086709877 -0.029558332 -0.0018600641)
(-0.10218251 -0.03257824 -0.001482739)
(-0.11885658 -0.035641848 -0.0010666079)
(-0.13665462 -0.03891152 -0.00060426542)
(-0.15558932 -0.042254184 -0.00012311629)
(-0.1756377 -0.045770116 0.00039733356)
(-0.19676654 -0.049382819 0.00094577853)
(-0.21895945 -0.053156738 0.0015268092)
(-0.24217133 -0.057042768 0.0021448069)
(-0.26637625 -0.061075696 0.002787175)
(-0.29151339 -0.065240886 0.0034715358)
(-0.31757406 -0.069539646 0.004163545)
(-0.3444934 -0.073965558 0.004896259)
(-0.37223666 -0.07852731 0.0056229118)
(-0.40075416 -0.083199565 0.0063679356)
(-0.43000952 -0.08799031 0.0071132878)
(-0.45994448 -0.092884685 0.0078481589)
(-0.49051415 -0.097874035 0.0085719357)
(-0.52167764 -0.10294327 0.0092773213)
(-0.55337928 -0.1080859 0.0099583134)
(-0.58557376 -0.11328191 0.010610855)
(-0.61821891 -0.11852353 0.011231928)
(-0.65125656 -0.12379822 0.011822224)
(-0.6846524 -0.12908981 0.012372933)
(-0.71834953 -0.13438914 0.0128926)
(-0.75230119 -0.13968061 0.01336863)
(-0.78646557 -0.14495724 0.013812031)
(-0.82079684 -0.15020048 0.014218213)
(-0.85526003 -0.15542119 0.014592543)
(-0.88979338 -0.16057543 0.014927946)
(-0.9244008 -0.16569974 0.01524365)
(-0.95897642 -0.17075009 0.015530896)
(-0.99360649 -0.17575033 0.015796704)
(-1.0280858 -0.18070032 0.016064137)
(-1.0626154 -0.18557309 0.016295921)
(0.002841165 -0.0011516648 -0.0016060134)
(0.0023169126 -0.0017134857 -0.0015837847)
(0.00071229321 -0.0027188512 -0.0016172876)
(-0.0024732944 -0.0035525945 -0.0016789813)
(-0.006743324 -0.0044452262 -0.0015055205)
(-0.012432551 -0.0054874783 -0.0015015495)
(-0.019383403 -0.0064529875 -0.001176035)
(-0.027510515 -0.0076152159 -0.0010968406)
(-0.036981787 -0.0088259384 -0.0008146732)
(-0.047647482 -0.010102482 -0.00059090425)
(-0.059594286 -0.011591172 -0.0002910017)
(-0.072720271 -0.013115639 1.091701e-05)
(-0.087122035 -0.014811118 0.00033373644)
(-0.10270182 -0.016635384 0.00070558412)
(-0.11949528 -0.018623349 0.0010729423)
(-0.13744895 -0.020767802 0.0014994616)
(-0.15656261 -0.02305244 0.0019438281)
(-0.17678602 -0.025506606 0.0024134453)
(-0.19811017 -0.028107776 0.002912213)
(-0.22047435 -0.030882534 0.0034326515)
(-0.24385739 -0.033811301 0.0039784848)
(-0.26821914 -0.036915534 0.0045541022)
(-0.2935479 -0.04019095 0.0051481768)
(-0.31978195 -0.043630628 0.0057753178)
(-0.3468756 -0.047246869 0.0064086443)
(-0.37480301 -0.051030293 0.0070681573)
(-0.40351075 -0.054977424 0.0077349709)
(-0.4329497 -0.059085966 0.008398574)
(-0.46305784 -0.063339025 0.0090514521)
(-0.49380444 -0.067728034 0.0096955409)
(-0.52512768 -0.072248192 0.010318464)
(-0.55698634 -0.076878751 0.010915846)
(-0.58933074 -0.081610563 0.011486852)
(-0.62211231 -0.086433686 0.01202902)
(-0.65528388 -0.091326599 0.012536036)
(-0.68879794 -0.096284941 0.013012873)
(-0.72260452 -0.10128601 0.013452764)
(-0.75666369 -0.10632847 0.013858885)
(-0.79092301 -0.11138671 0.014235571)
(-0.82533501 -0.11645542 0.014568904)
(-0.85985551 -0.12151735 0.014883298)
(-0.89445532 -0.12655399 0.01515078)
(-0.92908878 -0.13158925 0.015423545)
(-0.96371288 -0.13655691 0.015638695)
(-0.99834243 -0.14152195 0.015880383)
(-1.0328559 -0.14641636 0.016084761)
(-1.0674034 -0.15128367 0.016314022)
(0.0029664977 7.8344762e-05 7.8396029e-05)
(0.0022834896 0.00042133512 0.00056197124)
(0.00052935679 0.00044848222 0.0005343142)
(-0.0025085946 0.00075866332 0.00061636182)
(-0.0070159102 0.001000378 0.00065235251)
(-0.012672078 0.001086345 0.00089447794)
(-0.019600075 0.0013231815 0.00089817284)
(-0.027824638 0.0012563726 0.0011748206)
(-0.037294043 0.0013161242 0.0012974037)
(-0.048041943 0.0010939393 0.0015357625)
(-0.060037718 0.00088482272 0.0017836904)
(-0.07334069 0.00046967845 0.0020562917)
(-0.08785863 -4.62819e-05 0.0024041528)
(-0.10361393 -0.00075285926 0.0027209187)
(-0.12056873 -0.0015903197 0.0030894257)
(-0.13869985 -0.0026649338 0.0034758303)
(-0.15797688 -0.0038558851 0.0038814648)
(-0.17837815 -0.0052810376 0.0043107321)
(-0.19986479 -0.0068487612 0.0047578066)
(-0.2224156 -0.0086348682 0.0052283083)
(-0.2460078 -0.010619076 0.0057428832)
(-0.27061802 -0.012816942 0.0062557408)
(-0.29612098 -0.015198256 0.0068176853)
(-0.32254358 -0.017806179 0.0073727273)
(-0.34982637 -0.020619062 0.0079715113)
(-0.37792314 -0.02364949 0.0085562563)
(-0.40678069 -0.026873462 0.0091408315)
(-0.43635793 -0.030300794 0.0097152159)
(-0.46660951 -0.03391024 0.010287063)
(-0.4974841 -0.037708446 0.01083839)
(-0.528933 -0.041673803 0.011371313)
(-0.56091186 -0.045793226 0.011875274)
(-0.59336338 -0.050063492 0.01235862)
(-0.62624969 -0.054459663 0.012805319)
(-0.65951221 -0.058975342 0.013225505)
(-0.69311002 -0.063590954 0.013609936)
(-0.72699258 -0.068297727 0.013965427)
(-0.76110867 -0.073068797 0.014285946)
(-0.79541132 -0.077893075 0.014574246)
(-0.82986723 -0.082763829 0.014841625)
(-0.8644461 -0.087672061 0.015085321)
(-0.89907351 -0.092587165 0.01530681)
(-0.93375443 -0.097515676 0.015517236)
(-0.96840363 -0.10241684 0.015710587)
(-1.0030721 -0.1073286 0.015915374)
(-1.037621 -0.1121927 0.016109914)
(-1.0721762 -0.11705704 0.016310531)
(0.0028931734 0.0012937566 0.0017009059)
(0.0018863242 0.0022283846 0.0021145118)
(0.00038605907 0.0035970826 0.002304735)
(-0.0029319242 0.0049157765 0.0024714666)
(-0.0073981553 0.0062592299 0.0027654994)
(-0.013130495 0.0076002142 0.0027943948)
(-0.020201118 0.0088499339 0.0031012931)
(-0.028496546 0.010090216 0.0032516506)
(-0.038098493 0.011184774 0.0034947051)
(-0.048971522 0.012237281 0.003741395)
(-0.061141294 0.013124219 0.0040274402)
(-0.074503667 0.013866742 0.0043063514)
(-0.089154898 0.014477283 0.0045812597)
(-0.10502312 0.014902349 0.0048800978)
(-0.12209982 0.015166219 0.0051977987)
(-0.14035952 0.015223574 0.0055219328)
(-0.15979721 0.015091569 0.0058934183)
(-0.18034024 0.014724684 0.0062624646)
(-0.20200153 0.014170028 0.0066630878)
(-0.22469993 0.013354352 0.0070838472)
(-0.24845298 0.01232145 0.0075205371)
(-0.27311307 0.011073591 0.0079536071)
(-0.29875993 0.0095488403 0.0084317211)
(-0.32532892 0.0078171318 0.0089193181)
(-0.35275326 0.0058062041 0.0094127735)
(-0.38098985 0.0035650802 0.0099079771)
(-0.41000207 0.001067833 0.010415137)
(-0.43973219 -0.001666695 0.01091969)
(-0.47012456 -0.0046371307 0.011414889)
(-0.50113234 -0.0078348252 0.011892979)
(-0.53271224 -0.011241856 0.012348761)
(-0.56480951 -0.014849673 0.012780025)
(-0.59737791 -0.018647885 0.013185896)
(-0.63036954 -0.0226143 0.013558037)
(-0.6637306 -0.026741963 0.013903594)
(-0.69742019 -0.03101287 0.01421685)
(-0.73138514 -0.035411289 0.014502032)
(-0.7655813 -0.039911053 0.014752891)
(-0.79996202 -0.044517333 0.014995874)
(-0.83450532 -0.049212534 0.015197352)
(-0.86911939 -0.053946411 0.015381931)
(-0.90380446 -0.05872349 0.015543027)
(-0.93850556 -0.063532904 0.015707954)
(-0.97319975 -0.06834492 0.015847367)
(-1.0078617 -0.073183458 0.016014204)
(-1.0424213 -0.077991479 0.016149366)
(-1.076952 -0.082834494 0.016320721)
(0.0022053732 0.0022933538 0.0033613828)
(0.00079671329 0.0043768235 0.0038564884)
(-0.0008394341 0.0068407578 0.004389122)
(-0.0042128069 0.0091940149 0.0047763139)
(-0.0087080106 0.011745948 0.0048774069)
(-0.014499905 0.014112056 0.0051538632)
(-0.021629935 0.016633679 0.0053062741)
(-0.030001564 0.018929797 0.005501382)
(-0.039680298 0.02126173 0.0057180811)
(-0.05063633 0.02340409 0.0058979776)
(-0.062865895 0.025476687 0.0061459661)
(-0.076361762 0.027377806 0.0063888669)
(-0.091135072 0.029156731 0.0066650468)
(-0.10711763 0.030712693 0.0069361043)
(-0.12433346 0.032108739 0.0072265629)
(-0.14272639 0.033250684 0.0075349524)
(-0.16229953 0.034200175 0.0078568556)
(-0.18298864 0.034878914 0.0081852155)
(-0.20478916 0.03534235 0.0085443574)
(-0.22763779 0.035518231 0.0089006733)
(-0.25152319 0.035485624 0.0092947245)
(-0.27638921 0.035053843 0.0096709152)
(-0.30219515 0.034450954 0.010131172)
(-0.32892268 0.033605599 0.0105159)
(-0.35648974 0.032427712 0.010973491)
(-0.38485039 0.030960584 0.01141674)
(-0.41398666 0.029193999 0.011855717)
(-0.4438156 0.027141939 0.012275108)
(-0.47430418 0.024813063 0.012694379)
(-0.50541233 0.022221282 0.013083638)
(-0.53707774 0.019374101 0.013455942)
(-0.56925795 0.01628374 0.013795983)
(-0.60189978 0.012960928 0.014112566)
(-0.63495757 0.0094267865 0.014393449)
(-0.66837475 0.0056832874 0.014652664)
(-0.70211492 0.0017604332 0.014874811)
(-0.73611838 -0.0023338276 0.015072813)
(-0.77034464 -0.0065751026 0.015240552)
(-0.8047589 -0.010951578 0.015387732)
(-0.839283 -0.015433106 0.015507678)
(-0.8739163 -0.020029682 0.015622046)
(-0.90860092 -0.024688956 0.015724495)
(-0.94331121 -0.029405552 0.015821744)
(-0.97800061 -0.034158702 0.015924492)
(-1.0126494 -0.038944949 0.016038447)
(-1.0472253 -0.043738156 0.016167256)
(-1.0817407 -0.048562019 0.01631897)
(0.0010465396 0.0037639004 0.0046173011)
(-0.00047108183 0.006493469 0.0052810515)
(-0.0020905403 0.0099881689 0.0062251692)
(-0.0055862832 0.013380101 0.0065462148)
(-0.0099988009 0.016894349 0.0069106721)
(-0.015962413 0.020523966 0.0071125716)
(-0.023102876 0.024073423 0.007352235)
(-0.031566919 0.027635995 0.0075490242)
(-0.041338194 0.031079019 0.0077792146)
(-0.052363213 0.034450343 0.0079742196)
(-0.064732533 0.037659269 0.0082224543)
(-0.078332644 0.040763221 0.0084611095)
(-0.093220876 0.04366457 0.0087089443)
(-0.10933028 0.04639503 0.0089488385)
(-0.1266776 0.048886091 0.0092087114)
(-0.1452035 0.051155874 0.009477865)
(-0.16491882 0.053168775 0.0097464341)
(-0.18574282 0.054921914 0.010047314)
(-0.20769132 0.056399313 0.010335209)
(-0.23068157 0.057597921 0.010660388)
(-0.2547083 0.058471929 0.010986644)
(-0.27969124 0.059090943 0.01132498)
(-0.30566681 0.059330546 0.011685956)
(-0.33249915 0.059316848 0.012042911)
(-0.36018335 0.058933983 0.012432714)
(-0.38866168 0.058241456 0.012790671)
(-0.41789724 0.05721023 0.013148247)
(-0.44784068 0.05584297 0.013507047)
(-0.478439 0.054165383 0.013851602)
(-0.50964538 0.052179613 0.014168544)
(-0.54140141 0.049896286 0.014462745)
(-0.57366558 0.047325514 0.014728701)
(-0.60638249 0.044480934 0.014965752)
(-0.63950617 0.041378809 0.015172615)
(-0.67298497 0.038028046 0.015351873)
(-0.70677467 0.034454257 0.015499428)
(-0.74082194 0.030670384 0.01562088)
(-0.77509511 0.026694158 0.015716415)
(-0.80952571 0.022550871 0.015799455)
(-0.84409065 0.018255259 0.015856378)
(-0.87874351 0.01383251 0.015905729)
(-0.91344853 0.0093057018 0.015943616)
(-0.94816403 0.0046937988 0.015993074)
(-0.98286162 2.0570127e-05 0.016044527)
(-1.017509 -0.0047073545 0.016128595)
(-1.0520911 -0.0094546984 0.016221589)
(-1.0865657 -0.014229257 0.016347572)
(0 -1.0168e-19 0)
(0 5.7036907e-19 0)
(0 4.9286259e-19 0)
(0 4.3494259e-19 -1.4909269e-19)
(0 1.7182533e-19 0)
(0 -6.0347502e-21 0)
(0 8.3525547e-20 0)
(0 3.1187003e-20 0)
(0 -2.0264218e-19 0)
(0 -4.9957384e-19 0)
(0 -6.2062268e-19 -1.0305186e-19)
(0 -1.0174547e-19 0)
(0 1.2533196e-19 0)
(0 2.4208759e-19 0)
(0 2.0040795e-19 0)
(0 3.1567026e-19 0)
(0 5.765308e-19 0)
(0 5.7678442e-19 2.9052754e-19)
(0 4.9814024e-19 0)
(0 5.8003017e-19 0)
(0 1.9641519e-19 0)
(-3.4947802e-18 1.6463778e-19 0)
(1.494113e-18 -3.7415724e-19 0)
(-8.6750297e-20 -1.5009753e-19 0)
(2.6897261e-19 -2.6408763e-19 -2.0040717e-19)
(-5.0300225e-19 -3.69132e-19 0)
(-1.2874456e-18 -5.2765853e-19 0)
(1.9675767e-19 -4.3568893e-19 0)
(0 3.3345608e-19 0)
(0 1.1936055e-19 0)
(0 -2.314706e-19 0)
(0 2.2565414e-20 5.9052715e-19)
(0 2.5452678e-19 0)
(0 3.7070631e-19 0)
(0 -1.0299419e-19 0)
(0 -2.695827e-19 0)
(0 -2.2039611e-19 0)
(0 5.1841107e-20 0)
(0 2.586587e-19 -5.8939705e-20)
(0 1.9137797e-19 0)
(0 -6.9362666e-20 0)
(0 1.7908597e-19 0)
(0 3.2396224e-20 0)
(0 -1.9072159e-19 0)
(0 2.7922393e-19 0)
(0 1.778111e-20 2.0438869e-19)
(0 2.7663521e-19 0)
(0 4.3748233e-19 0)
(0 3.9621061e-19 0)
(-0.002167121 0.0015108037 0.003288971)
(-0.0026284358 0.0018603912 0.0022045614)
(-0.0031102161 0.0019118563 0.0011106001)
(-0.0032441156 0.0020100434 0.00021458486)
(-0.0031292945 0.001828542 -0.00066811894)
(-0.0029313009 0.001875077 -0.001628893)
(-0.0022556476 0.0012530409 -0.0025836231)
(-0.0040689025 0.0081159548 0.005321858)
(-0.0050890906 0.0085657073 0.0030762837)
(-0.0054863575 0.007959444 0.0013794516)
(-0.0055215479 0.0076460556 4.8900516e-05)
(-0.005501548 0.0079753959 -0.0013138916)
(-0.0048014108 0.0078669321 -0.0028928659)
(-0.0040690793 0.0078276555 -0.0047950495)
(-0.0055108995 0.011574533 0.0060117239)
(-0.0067309995 0.010991104 0.0042438339)
(-0.0075236968 0.01120401 0.0019877648)
(-0.0075885131 0.011079558 0.00028118144)
(-0.0074064122 0.010787144 -0.001708765)
(-0.0066669605 0.010912795 -0.0032408564)
(-0.0057098339 0.011279953 -0.0056677793)
(-0.0095311202 0.01711553 0.006440654)
(-0.010687673 0.017098519 0.0044566243)
(-0.011332589 0.016768363 0.002193439)
(-0.011533825 0.016574412 0.00035826251)
(-0.011280071 0.016542547 -0.0016550453)
(-0.010567509 0.016691559 -0.0038009998)
(-0.0092033746 0.016431518 -0.0057535788)
(-0.013955013 0.021697548 0.0068083049)
(-0.01520196 0.021283237 0.0047688216)
(-0.016031992 0.021156477 0.0025113975)
(-0.01616595 0.020956741 0.00042474221)
(-0.015972952 0.020856839 -0.0017255682)
(-0.015138524 0.020872527 -0.0036806501)
(-0.013954322 0.020921906 -0.0060372245)
(-0.02013074 0.026686655 0.00702414)
(-0.021252844 0.026351484 0.0049424983)
(-0.022040248 0.02607962 0.0026669219)
(-0.022226213 0.025939202 0.00064916794)
(-0.021946344 0.025776647 -0.0016091619)
(-0.021105687 0.025660606 -0.0037495284)
(-0.01977283 0.025641235 -0.0058139895)
(-0.027292993 0.031350565 0.0072536289)
(-0.028550955 0.031085177 0.0051027883)
(-0.029343841 0.030855511 0.0028709492)
(-0.029520893 0.030668639 0.00079776077)
(-0.029288569 0.030530944 -0.0014421791)
(-0.028476765 0.030581228 -0.0034742328)
(-0.027157053 0.030399668 -0.0058340374)
(-0.035927867 0.036176568 0.0074601135)
(-0.037090559 0.035818661 0.0053366564)
(-0.037867917 0.035535014 0.0030555662)
(-0.038096894 0.035338095 0.00092074413)
(-0.037720635 0.035096395 -0.0012257502)
(-0.036964905 0.034986885 -0.0033991927)
(-0.035572132 0.034905356 -0.0054800994)
(-0.045731828 0.0407786 0.0076776249)
(-0.046980843 0.040474965 0.0054819963)
(-0.047787145 0.040265027 0.0033244707)
(-0.047930493 0.039959265 0.0011913744)
(-0.04769475 0.039853431 -0.00099047997)
(-0.046834542 0.039676779 -0.0030978818)
(-0.045537149 0.039580523 -0.005395731)
(-0.056927204 0.045389342 0.0078910569)
(-0.058086566 0.044965413 0.0057510927)
(-0.058828352 0.044595888 0.0035025491)
(-0.059081777 0.044452073 0.0013706031)
(-0.058733252 0.044197125 -0.00078388028)
(-0.057930888 0.044019544 -0.0029093557)
(-0.056561775 0.043898764 -0.0050336114)
(-0.069326698 0.049766027 0.008118386)
(-0.070539649 0.049398808 0.005974875)
(-0.071329852 0.049131835 0.0037597991)
(-0.071476076 0.048802967 0.0017139392)
(-0.071246488 0.048580727 -0.00048742235)
(-0.070361286 0.048397132 -0.0025132268)
(-0.069088651 0.048337407 -0.0048422085)
(-0.083087497 0.054034293 0.008377571)
(-0.084247396 0.053619058 0.0061633158)
(-0.084932779 0.053237046 0.0040727032)
(-0.085172825 0.052940524 0.0019039519)
(-0.08483137 0.052681842 -0.00022430817)
(-0.083954658 0.052495217 -0.0022587517)
(-0.082724944 0.052319257 -0.0044922271)
(-0.098060577 0.058119568 0.0086129406)
(-0.099167622 0.057654244 0.0064612755)
(-0.099950133 0.057331773 0.0043700023)
(-0.10011381 0.056972824 0.0022674047)
(-0.099817255 0.056725053 0.00013803967)
(-0.098981907 0.056537026 -0.0018366297)
(-0.09770389 0.056322038 -0.0040691827)
(-0.11425733 0.061980578 0.0088675749)
(-0.11533554 0.061490918 0.006721245)
(-0.11610689 0.061078347 0.0046825749)
(-0.11620454 0.060687467 0.0025729685)
(-0.11597633 0.060422516 0.00050565338)
(-0.11507628 0.060167899 -0.0014533249)
(-0.11388532 0.059979683 -0.0036684521)
(-0.13168996 0.065625047 0.0091429913)
(-0.13278398 0.065111598 0.0070304432)
(-0.13349886 0.064678648 0.0050304516)
(-0.13367779 0.064316499 0.0029459187)
(-0.13337934 0.064001925 0.00092744651)
(-0.13255899 0.063762547 -0.0010325187)
(-0.13132778 0.063511517 -0.0031924491)
(-0.15032088 0.068991552 0.0094031378)
(-0.15132939 0.068432239 0.0073353104)
(-0.15208913 0.067980126 0.0053674919)
(-0.1521675 0.067533131 0.0033332732)
(-0.15193265 0.06721761 0.0013351906)
(-0.15107045 0.066914186 -0.00056573799)
(-0.14989383 0.066700485 -0.0026918042)
(-0.1700927 0.072093181 0.009694386)
(-0.17114113 0.071541895 0.0076691802)
(-0.17182539 0.071030729 0.0057445266)
(-0.17195651 0.070624419 0.003743219)
(-0.17169167 0.070266059 0.0017995798)
(-0.17088171 0.069997534 -7.5519059e-05)
(-0.16969608 0.069712282 -0.0021677974)
(-0.19102816 0.074908065 0.0099826036)
(-0.19198283 0.074291142 0.0080093662)
(-0.19269748 0.073788951 0.0061241182)
(-0.1927609 0.073313194 0.0041707068)
(-0.19253625 0.072954292 0.0022784368)
(-0.19169391 0.072607267 0.00043612658)
(-0.19056242 0.07235787 -0.0015875836)
(-0.21303109 0.077409044 0.010288521)
(-0.21400691 0.076812175 0.0083716332)
(-0.21465148 0.076247706 0.0065313035)
(-0.2147542 0.075805372 0.004634527)
(-0.21449949 0.075389914 0.0027885514)
(-0.2137099 0.075091271 0.00099123868)
(-0.21258568 0.074778179 -0.00098530203)
(-0.23611414 0.07960694 0.010609948)
(-0.23700689 0.07894172 0.0087447237)
(-0.23767225 0.078398125 0.0069634708)
(-0.23772088 0.077895189 0.0051160312)
(-0.23750449 0.077492778 0.0033248745)
(-0.23669961 0.07712916 0.001572817)
(-0.23562322 0.076827382 -0.00033403234)
(-0.26019503 0.081456238 0.010943725)
(-0.26110003 0.080820668 0.0091439323)
(-0.26169515 0.080224752 0.0074155509)
(-0.26177842 0.079741176 0.0056256228)
(-0.26153585 0.079293112 0.0038941759)
(-0.26077965 0.078950498 0.0021964036)
(-0.25971676 0.07859949 0.00034266473)
(-0.28527659 0.082989461 0.011296433)
(-0.28610157 0.082303967 0.009559124)