/*--------------------------------*- C++ -*----------------------------------*\
  =========                 |
  \\      /  F ield         | OpenFOAM: The Open Source CFD Toolbox
   \\    /   O peration     | Website:  https://openfoam.org
    \\  /    A nd           | Version:  6
     \\/     M anipulation  |
\*---------------------------------------------------------------------------*/
FoamFile
{
    version     2.0;
    format      ascii;
    class       pointScalarField;
    location    "1.03";
    object      E;
}
// * * * * * * * * * * * * * * * * * * * * * * * * * * * * * * * * * * * * * //

dimensions      [1 -1 -2 0 0 0 0];

internalField   nonuniform List<scalar> 
625
(
2092.0112
975.5498
29203.086
27267.47
4584.5331
1674.4743
28182.055
28526.836
200.1344
-127.55936
1451.2294
28682.022
24963.472
27809.374
4422.598
1629.2177
783.96826
1565.2262
-1374.5189
149.03144
-1160.5655
-1511.2361
-598.01826
-1346.1051
-1071.1853
-322.81793
486.56438
1269.4526
2935.7193
4458.7418
6597.3747
9013.2455
12117.638
15057.213
19286.147
21857.89
26617.738
8526.9946
1355.5798
11184.156
7844.9548
4792.3733
11224.433
4299.281
7249.2829
6904.7453
5429.6994
6989.4769
6574.4648
7312.3716
7892.6312
9043.6895
10230.382
11793.205
13800.2
15980.835
18331.978
21604.348
23566.745
27378.033
966.08447
-185.25228
238.59706
7745.1054
16769.857
-533.07413
5885.2585
13672.521
405.81334
6903.4712
5188.11
4526.0357
6278.649
4424.1826
6697.065
6867.5663
7838.8304
9729.7787
10487.909
12652.533
14291.174
16358.299
18564.508
20716.606
23135.411
26682.162
26583.368
22779.509
28970.299
27127.641
21986.688
19526.406
16281.968
13527.714
10820.625
8603.1623
6606.52
5101.4589
3950.5278
2540.0768
2652.6379
1223.6888
1811.9183
481.40404
903.01641
1935.1819
1835.428
2191.0802
103.8279
6276.9555
1979.0073
7620.9817
1641.6391
1815.981
1701.4363
352.31325
-524.78887
-1333.853
26764.191
27727.47
27166.469
28738.994
29067.462
28643.293
3026.6833
855.7851
629.78103
884.46625
-808.33217
653.40009
-678.87748
-99.501004
-381.23735
-432.72643
505.53847
564.60092
1250.1373
2035.0215
3138.2024
4488.4927
6252.4601
8286.0705
10926.914
13851.465
17089.936
20200.291
26593.645
1081.5509
237.76775
1030.328
-397.13072
551.94844
476.00039
-635.04192
511.67269
-317.86539
593.10979
222.02459
726.77557
1266.7552
2087.0547
3008.7996
4398.2652
5891.2134
7909.0661
10374.01
12856.069
16377.923
19412.736
27069.965
2439.8696
-139.29232
-355.45036
-1121.918
-382.4975
-3130.8406
-919.87494
-2402.4997
-2189.4237
-1686.8288
-2032.6158
-961.25495
-633.21385
376.28827
1341.6495
3080.7463
4755.3611
7327.7139
9869.1266
13712.788
16836.032
21881.053
26846.162
25.353835
206.44378
144.0024
-406.08857
-552.58662
-188.83405
518.20429
-48.094821
-287.44652
9186.8179
10702.951
8703.3658
12486.299
9124.3284
10370.585
6317.2521
2288.4929
7585.522
8131.1525
9296.9034
4005.5678
11512.492
6233.2243
11063.267
6993.5847
7836.0766
6362.0796
9010.6857
6329.7957
7490.8277
7549.9992
4430.6782
7351.6218
6760.1965
7458.4026
5761.9352
8324.8524
5624.3117
7936.1522
6721.9832
7118.1346
6393.7474
8500.3997
6720.7026
7681.4295
8034.6079
8126.6945
8684.2017
9539.6843
8716.5983
9020.032
10271.947
10048.872
10804.52
11469.178
11369.909
11815.697
13000.819
12954.062
13319.568
14573.525
14732.736
15156.334
16524.903
16812.899
17008.803
18576.402
19054.285
18936.706
20755.816
21182.218
21044.818
22914.837
23494.651
23140.869
25980.975
26181.624
25994.045
28941.615
29275.606
28463.725
24444.507
24845.809
23296.047
28371.429
28677.789
27741.213
4156.9593
5991.3664
4969.0624
1515.3903
1499.5885
2346.7938
4397.4672
3160.3447
6461.7555
560.50577
826.16147
1750.0137
2613.8155
1811.0241
3600.4855
1426.3519
-841.03011
3137.1266
698.68969
843.76139
2741.0412
1127.4329
-178.10591
2726.8365
1058.5937
356.90449
1731.5628
1367.3973
-631.36645
3613.963
989.29325
649.4652
2375.702
2461.2587
570.14573
3610.6697
2442.6347
1644.1743
3930.0179
4019.7399
2550.7043
4908.5006
5284.3296
3939.2054
6266.04
6819.5836
5566.3275
7678.1672
9034.9133
7647.9433
9572.1261
11129.722
10015.085
11806.676
14161.769
13047.34
14207.632
16537.834
15965.994
16819.173
20121.956
19549.902
19895.584
22484.808
21921.086
22155.908
26744.593
26639.707
26737.879
3372.5039
2571.7432
-582.48705
1883.856
-1064.5461
-421.37402
-376.37107
-1563.3936
-969.39267
-873.41401
-1073.6118
-298.08855
-34.967441
770.49911
1902.0714
3291.7131
5034.8286
7262.6347
9867.5576
13022.4
17010.776
20421.866
27303.192
324.58007
2809.2532
-557.40115
2890.2587
744.09075
3234.4356
2238.5904
2664.5681
3452.9855
2861.0194
3458.0228
4077.5103
4011.7884
5164.2068
6043.4451
7157.3499
8931.8584
10790.713
13160.767
15679.407
18876.813
20535.647
28945.319
2491.0182
-2229.3671
385.40826
-4927.9422
-1871.3611
-1460.1012
-5076.8278
-712.41132
-4863.981
-1434.3902
-3139.5221
-1892.733
-1539.9886
-654.03203
570.95085
2213.7203
4216.6854
6700.3384
9750.9298
13406.432
17337.478
22080.729
26825.291
2096.7465
2439.0915
2574.676
1628.6238
2070.6141
2466.5306
651.91411
-206.441
697.28634
772.8192
1605.7221
1649.4958
1150.0052
-329.5436
1103.8823
697.01615
1051.4068
602.43217
380.87082
-244.39456
909.94683
870.26011
793.22603
571.308
698.88163
-552.69387
323.55154
780.5556
876.7526
1103.1304
1488.8382
597.57129
547.0043
1222.7759
842.3666
1635.0613
2335.5101
1683.7925
2008.955
2956.685
2375.0529
2775.4478
4088.9084
3288.9321
3801.5777
5415.6179
4860.854
5221.5075
7175.4916
6425.3812
6724.4273
9100.4338
8596.0552
8750.8664
11695.352
11007.618
11045.502
13713.837
14158.495
13644.519
16614.876
18186.236
16896.077
20877.476
20207.937
19430.303
26567.869
26668.707
26395.936
406.23719
441.1768
273.31883
1502.1032
2374.4892
2405.9586
636.30462
-1241.6318
-46.164888
794.95348
2307.8704
2237.0474
2330.7491
304.74633
108.51733
1119.1861
944.42972
1527.4859
1460.8975
1002.3957
654.20493
2521.2609
1120.6507
681.53934
1300.0007
899.33223
965.47462
2664.9973
1613.7983
1093.1145
2539.9485
1285.1337
1290.6269
3163.3073
1953.4833
2027.2733
3847.837
2771.9937
2409.8863
4521.5423
3191.4166
3085.0267
5662.8904
4526.8116
4360.3367
6836.3356
5594.5797
5410.8597
8468.7804
7346.8736
7082.4978
10282.268
9086.5644
8944.8672
12659.276
11684.745
11290.445
15369.026
13654.131
13702.18
19152.654
15969.648
17465.331
20583.839
19857.876
19261.165
27546.252
27579.405
27660.474
3542.1502
3496.3172
3176.4852
-520.95959
-2383.0715
-1666.2835
129.41072
1807.8825
2274.0456
1345.6916
-2549.7585
-1328.1258
-816.35662
-1084.5716
16.358862
175.02092
-2363.5731
-363.96781
1198.3579
-2508.3022
-849.63053
-679.69673
-2509.1737
424.5679
1003.2132
-2894.1863
-541.60911
659.26174
-2492.1657
343.90994
646.52189
-2621.1675
360.74972
1426.307
-1856.2234
701.54478
1640.327
-1740.1631
1313.2897
2658.6641
-581.05249
2118.9992
3631.8255
346.11532
3140.5146
5114.5804
2089.891
4694.3195
6853.2175
3973.666
6469.9133
9119.2807
6586.0548
8753.4905
11660.565
9258.9308
11301.035
14685.1
13336.817
14671.149
18223.294
16762.543
17789.683
22214.489
22089.755
22830.321
26984.567
26195.287
26409.499
)
;

boundaryField
{
    free
    {
        type            zeroGradient;
    }
    fixed
    {
        type            zeroGradient;
    }
    freeTop
    {
        type            zeroGradient;
    }
}


// ************************************************************************* //
