/*--------------------------------*- C++ -*----------------------------------*\
  =========                 |
  \\      /  F ield         | OpenFOAM: The Open Source CFD Toolbox
   \\    /   O peration     | Website:  https://openfoam.org
    \\  /    A nd           | Version:  6
     \\/     M anipulation  |
\*---------------------------------------------------------------------------*/
FoamFile
{
    version     2.0;
    format      ascii;
    class       pointVectorField;
    location    "1.35";
    object      lm;
}
// * * * * * * * * * * * * * * * * * * * * * * * * * * * * * * * * * * * * * //

dimensions      [1 -2 -1 0 0 0 0];

internalField   nonuniform List<vector> 
3969
(
(0 0 0)
(0 0 0)
(-5374.3664 609.84693 -156.43018)
(-5070.5267 1628.1493 -131.09625)
(0 0 0)
(0 0 0)
(-5056.8408 1740.1296 -129.67523)
(-5360.5696 721.649 -154.87199)
(0 0 0)
(0 0 0)
(0 0 0)
(0 0 0)
(0 0 0)
(0 0 0)
(0 0 0)
(-5336.0829 735.5476 -153.61333)
(-5298.6866 862.08629 -150.78253)
(-5261.2693 989.29347 -147.71749)
(-5223.6744 1116.7915 -144.52752)
(-5185.8914 1244.6742 -141.26377)
(-5147.9025 1372.559 -137.89899)
(-5109.517 1500.6465 -134.49863)
(5.0716555 -11.455582 -21.519974)
(20.957246 -27.620279 -36.552401)
(31.387365 -49.321945 -51.272624)
(34.1919 -75.274948 -62.300307)
(29.017585 -105.10425 -72.744891)
(13.326318 -137.12886 -80.71966)
(-13.039977 -171.21397 -87.610451)
(-51.875478 -206.08812 -92.078957)
(-103.40501 -240.91618 -94.957749)
(-168.10944 -274.41623 -95.430758)
(-246.10981 -306.10899 -94.574578)
(-337.02284 -334.85908 -91.459839)
(-440.31038 -359.5228 -86.806651)
(-555.22415 -380.27871 -81.080324)
(-680.60894 -395.38762 -74.076832)
(-814.84223 -405.30166 -66.593799)
(-957.09189 -409.48823 -58.764182)
(-1105.6347 -407.91045 -50.737445)
(-1259.2665 -400.50153 -42.886314)
(-1416.3968 -387.67044 -35.307737)
(-1575.9257 -369.56919 -28.243865)
(-1736.5942 -346.86191 -21.716139)
(-1897.5103 -319.84406 -15.809016)
(-2057.842 -289.41632 -10.547615)
(-2216.7644 -255.66367 -5.9670499)
(-2374.1125 -220.05504 -2.0667872)
(-2529.2023 -182.49228 1.0642626)
(-2682.1275 -143.72992 3.5348753)
(-2832.696 -104.24362 5.2269101)
(-2980.7823 -64.463565 6.0821496)
(-3126.6243 -24.69623 6.069279)
(-3270.2477 14.825125 5.0652962)
(-3411.7799 53.905781 3.0387525)
(-3551.3737 92.458437 -0.12054649)
(-3689.2115 130.54918 -4.5905234)
(-3825.3139 167.95267 -10.150509)
(-3959.9186 204.97028 -17.250575)
(-4092.948 241.57161 -25.74978)
(-4224.9822 277.90681 -35.33533)
(-4355.299 314.01899 -46.391444)
(-4485.1054 350.27745 -58.362142)
(-4613.4374 386.165 -71.486037)
(-4741.346 422.87343 -85.12396)
(-4868.5353 459.16724 -99.498711)
(-4995.18 496.26562 -113.82512)
(-5121.8868 533.54246 -128.3492)
(-5248.4274 571.15468 -142.44198)
(13.769394 1.8261793 6.6904118)
(32.325889 10.472909 18.649127)
(51.219066 23.67343 32.015127)
(59.573932 43.739972 41.349386)
(60.125312 68.485963 50.42831)
(52.312422 96.829165 57.956045)
(34.608671 129.63292 65.712349)
(7.0055992 165.9514 71.842058)
(-31.93458 205.82574 77.996419)
(-82.435188 248.65585 82.555814)
(-144.67475 293.85491 86.584783)
(-219.15385 341.2031 89.545609)
(-304.65547 389.50064 91.102793)
(-401.67257 438.6657 91.488088)
(-508.98229 488.13152 90.762179)
(-626.09287 537.08363 88.878183)
(-751.95109 585.6087 86.045996)
(-885.03364 632.49353 82.412415)
(-1024.6801 678.54543 78.152461)
(-1169.0703 722.36602 73.595556)
(-1317.3466 764.88205 68.793353)
(-1468.1695 805.03204 64.227764)
(-1620.5616 843.7298 59.732782)
(-1773.4979 880.33247 55.887096)
(-1926.3377 915.13774 52.433984)
(-2078.3905 948.35255 49.293942)
(-2229.1088 979.91759 46.868952)
(-2378.3315 1010.526 44.633004)
(-2525.7463 1039.7859 42.638073)
(-2671.1158 1068.1996 40.593086)
(-2814.718 1096.0207 38.363682)
(-2956.4463 1123.3205 35.641334)
(-3096.5126 1150.3899 32.268925)
(-3234.9945 1177.3573 27.996323)
(-3372.0445 1204.4489 22.680247)
(-3507.8166 1231.8436 16.232305)
(-3642.4917 1259.7253 8.3727623)
(-3776.0265 1288.1878 -0.55695534)
(-3908.5885 1317.4862 -10.900541)
(-4040.3432 1347.612 -22.248294)
(-4171.2007 1378.8782 -34.707948)
(-4301.2924 1411.0592 -47.830749)
(-4430.7782 1444.6062 -61.703234)
(-4559.5549 1479.1215 -75.74822)
(-4687.8984 1514.9172 -90.042595)
(-4815.8014 1551.6784 -104.11154)
(-4943.3093 1589.2951 -117.84996)
(0 0 0)
(0 0 0)
(0 0 0)
(0 0 0)
(0 0 0)
(0 0 0)
(0 0 0)
(7.2978105 1.5154342 -5.2541286)
(24.334608 16.068594 -20.640018)
(40.280242 24.820554 -31.570888)
(44.52806 48.926445 -40.458435)
(43.992645 69.900781 -48.325701)
(31.433765 96.832305 -52.452575)
(11.682381 128.85989 -56.782592)
(-21.043795 162.09733 -56.940479)
(-62.261551 201.21457 -57.583654)
(-116.99157 241.53052 -53.672922)
(-181.50799 287.83869 -52.142343)
(-258.69103 331.71783 -44.871035)
(-348.3436 381.39149 -37.686002)
(-448.39311 430.50674 -28.791751)
(-558.47636 480.64506 -19.48391)
(-677.73788 531.45026 -9.5392259)
(-805.2999 581.20464 0.36984724)
(-939.44553 630.55218 10.206222)
(-1079.7432 678.49601 19.528725)
(-1224.3642 724.7828 28.376823)
(-1372.6408 769.46066 36.340588)
(-1523.1365 812.08967 43.57506)
(-1675.2052 852.99772 49.859135)
(-1827.6145 891.87418 55.275466)
(-1979.9891 929.53418 59.749025)
(-2131.0724 965.22082 63.159593)
(-2280.4202 1000.5102 65.190136)
(-2428.8978 1034.1168 67.014711)
(-2575.1921 1067.5921 67.516443)
(-2719.4411 1100.6272 67.10888)
(-2861.4805 1133.5539 65.639752)
(-3001.2897 1166.6381 62.947025)
(-3138.9671 1199.9845 59.07269)
(-3274.5937 1233.6433 53.865892)
(-3408.3185 1267.7377 47.306575)
(-3540.0551 1302.1789 39.388319)
(-3670.504 1337.4774 29.871948)
(-3799.3284 1372.2834 19.087352)
(-3926.9231 1408.0838 6.977302)
(-4053.5341 1443.9621 -6.4696184)
(-4179.2404 1480.0981 -20.885111)
(-4304.5009 1516.4536 -36.143976)
(-4429.3408 1553.043 -51.990257)
(-4554.2051 1589.8067 -68.079098)
(-4679.2165 1626.8832 -84.157884)
(-4804.6585 1664.1486 -99.888507)
(-4930.6554 1701.7351 -114.96594)
(-5095.6934 1614.0464 -133.23135)
(-5133.9952 1486.3141 -136.60908)
(-5172.2416 1359.0165 -139.83937)
(-5209.6408 1230.6555 -142.68874)
(-5247.2168 1102.9487 -145.5869)
(-5284.5601 975.21546 -148.44394)
(-5321.9068 848.27239 -151.51845)
(-5233.8145 682.84118 -141.25057)
(-5106.6904 644.44688 -127.12157)
(-4979.9168 605.86156 -113.25385)
(-4853.1887 566.54783 -99.406176)
(-4726.5801 526.78971 -86.072595)
(-4599.914 486.22579 -73.357612)
(-4473.0468 445.05929 -61.479447)
(-4345.8751 403.18212 -50.659102)
(-4218.2007 360.73012 -41.014639)
(-4089.925 317.70508 -32.588865)
(-3960.7797 274.24312 -25.703338)
(-3830.2059 230.43504 -19.657114)
(-3698.905 186.06837 -15.358976)
(-3565.6212 141.6396 -11.838025)
(-3430.6847 97.181029 -9.4551661)
(-3293.6021 52.669902 -7.767718)
(-3154.1795 8.3489257 -6.6237727)
(-3012.212 -35.699325 -5.7279059)
(-2867.4859 -79.110253 -4.9759528)
(-2719.9235 -121.83964 -3.9465159)
(-2569.4827 -163.37808 -2.6188147)
(-2416.2015 -203.51 -0.74163503)
(-2260.3457 -241.67497 1.7663964)
(-2102.2368 -277.50089 5.008614)
(-1942.6114 -310.31935 8.7697058)
(-1781.9378 -339.69198 13.186398)
(-1621.3026 -364.97239 18.017686)
(-1461.6525 -385.61465 23.051955)
(-1304.3135 -401.06603 28.142188)
(-1150.4072 -410.99794 33.086424)
(-1001.5667 -414.91994 37.575763)
(-858.95626 -413.06044 41.585717)
(-723.91999 -404.6269 44.582545)
(-598.7674 -389.62271 46.630029)
(-483.49136 -369.80681 48.753483)
(-378.64478 -345.42713 48.542235)
(-286.84161 -315.7805 48.476858)
(-206.80819 -282.92585 47.185644)
(-139.44343 -248.32367 45.835008)
(-85.411366 -210.93299 43.341477)
(-43.874885 -174.06633 40.480806)
(-12.523633 -139.08172 37.810729)
(6.4597668 -104.38245 34.666273)
(16.988211 -73.322745 30.436505)
(18.349093 -47.645367 27.005233)
(13.563169 -23.512689 20.868751)
(-1.5587237 -8.279893 10.016098)
(0 0 0)
(0 0 0)
(0 0 0)
(0 0 0)
(0 0 0)
(0 0 0)
(0 0 0)
(0 0 0)
(0 0 0)
(0 0 0)
(0 0 0)
(0 0 0)
(0 0 0)
(0 0 0)
(-5068.8564 1642.1907 -130.82694)
(-5067.0841 1656.0566 -130.37843)
(-5065.2334 1669.4741 -129.84319)
(-5063.3857 1682.7975 -129.47134)
(-5061.5375 1696.2937 -129.36039)
(-5059.827 1710.2912 -129.39715)
(-5058.2317 1724.8304 -129.76332)
(-5372.3437 624.42023 -156.13959)
(-5370.3906 638.50738 -155.69199)
(-5368.7472 652.32306 -155.37384)
(-5367.2887 666.0394 -155.1323)
(-5365.8848 679.75472 -155.07708)
(-5364.3824 693.56186 -155.0302)
(-5362.6893 707.71674 -155.1112)
(10.379295 -19.130571 -22.136243)
(27.942185 -35.630039 -31.101903)
(40.017066 -53.864734 -41.498329)
(45.164048 -74.370513 -50.569559)
(41.741341 -96.328804 -57.704911)
(28.092427 -120.2387 -64.206275)
(3.8884178 -144.5993 -68.561658)
(-32.548885 -169.3119 -72.17154)
(-81.846622 -192.93198 -73.258679)
(-144.25068 -215.32909 -73.591073)
(-219.85557 -235.66845 -71.842796)
(-308.39946 -252.83996 -68.910045)
(-409.83523 -267.07074 -64.737937)
(-522.52552 -277.08846 -59.64012)
(-646.15097 -282.78856 -53.790912)
(-779.21664 -284.17466 -47.437403)
(-920.29133 -280.78809 -40.959813)
(-1067.954 -272.63743 -34.42257)
(-1220.9537 -259.94736 -28.058847)
(-1377.7347 -242.85997 -21.972105)
(-1537.0997 -221.69669 -16.34827)
(-1697.763 -196.81584 -11.167117)
(-1858.8188 -168.747 -6.5588851)
(-2019.2177 -137.90269 -2.447421)
(-2178.5458 -104.80424 0.98564582)
(-2336.1071 -69.890593 4.0671926)
(-2491.4136 -33.685152 6.4093382)
(-2644.5572 3.3977344 8.1572159)
(-2795.178 41.110605 9.2238522)
(-2943.3543 78.889283 9.5926378)
(-3089.2091 116.67941 9.1255504)
(-3232.7767 154.24947 7.791484)
(-3374.2301 191.41907 5.4675686)
(-3513.7625 228.26121 1.992452)
(-3651.4444 264.59169 -2.5370687)
(-3787.5032 300.55237 -8.4246895)
(-3922.0172 336.26212 -15.526413)
(-4055.0398 371.59308 -23.982159)
(-4186.8797 406.90483 -33.660717)
(-4317.3142 442.18797 -44.587081)
(-4447.0687 477.49307 -56.4651)
(-4575.3149 513.1408 -69.386469)
(-4703.4682 549.09196 -82.905767)
(-4830.3405 585.34321 -96.996556)
(-4957.1917 622.31336 -111.22166)
(-5083.809 659.43865 -125.51644)
(-5209.9569 697.08975 -139.6629)
(18.589174 -14.651891 -18.221878)
(35.71988 -27.305613 -22.534583)
(48.189176 -42.679361 -31.466128)
(54.173953 -57.4658 -36.529925)
(51.983324 -73.527553 -42.438216)
(40.52422 -90.282636 -46.068108)
(18.090682 -106.70872 -49.794474)
(-16.812871 -122.94135 -50.856324)
(-63.90486 -137.57319 -52.089306)
(-124.31371 -151.12267 -51.163618)
(-198.01722 -161.67888 -49.467801)
(-284.75097 -170.13485 -46.639349)
(-384.05994 -175.05005 -43.005197)
(-495.37558 -176.63855 -38.678083)
(-617.46963 -174.40557 -33.869461)
(-748.88135 -168.51241 -28.770266)
(-888.5647 -158.59497 -23.584652)
(-1035.023 -144.87111 -18.539444)
(-1186.9821 -127.31907 -13.663473)
(-1342.9779 -106.26399 -9.1243172)
(-1501.6628 -81.854227 -4.9384065)
(-1661.9216 -54.613643 -1.1376734)
(-1822.4204 -24.888627 2.2866484)
(-1982.7643 6.9529415 5.1898947)
(-2141.6779 40.58718 7.8153132)
(-2298.9685 75.306285 9.7601274)
(-2454.1642 111.09595 11.387687)
(-2607.0583 147.42912 12.509229)
(-2757.4869 183.88555 13.006808)
(-2905.5057 220.46921 12.933368)
(-3051.1953 256.86362 12.128672)
(-3194.5595 292.94842 10.461873)
(-3335.8933 328.71559 7.8582581)
(-3475.2254 364.04725 4.2510916)
(-3612.8152 398.99163 -0.51649988)
(-3748.701 433.70178 -6.5163576)
(-3883.2 468.03924 -13.668949)
(-4016.0812 502.31913 -22.22242)
(-4148.0813 536.63303 -31.883561)
(-4278.4782 570.95617 -42.729822)
(-4408.3553 605.71754 -54.57833)
(-4536.7793 640.66866 -67.345912)
(-4665.0119 676.28723 -80.69226)
(-4792.0861 712.27227 -94.59293)
(-4919.2204 749.01293 -108.60952)
(-5045.6351 786.08928 -122.79024)
(-5171.9925 823.89326 -136.8206)
(26.782607 -10.720336 -14.458236)
(43.465454 -19.096916 -18.189472)
(56.614539 -28.453916 -22.348611)
(62.811523 -38.598491 -25.884612)
(62.219264 -48.253953 -28.460931)
(51.028324 -58.401877 -30.902768)
(29.517393 -66.942212 -31.213103)
(-3.6881092 -75.172891 -32.068286)
(-49.493119 -81.420123 -31.218031)
(-108.60824 -85.824186 -29.597774)
(-180.4562 -88.18307 -27.502408)
(-265.30108 -87.635106 -24.614481)
(-362.86728 -84.419953 -21.14752)
(-472.02996 -77.991953 -17.589987)
(-592.06477 -68.476604 -13.85448)
(-721.90765 -55.692452 -9.6943592)
(-860.09498 -39.584003 -5.8736051)
(-1005.2913 -20.361972 -2.0265548)
(-1156.0954 1.983451 1.3779896)
(-1310.933 26.989697 4.5564954)
(-1468.625 54.595064 7.2861377)
(-1627.801 84.25014 9.7805469)
(-1787.8871 115.81762 11.851738)
(-1947.3047 148.97059 13.686398)
(-2105.8258 183.02571 15.103297)
(-2262.663 218.02576 16.373735)
(-2417.6258 253.47298 17.32403)
(-2570.1421 289.10797 17.733288)
(-2720.3807 324.81019 17.797924)
(-2868.1865 360.35137 17.331023)
(-3013.6052 395.5237 16.139708)
(-3156.8079 430.41561 14.205154)
(-3297.921 464.87817 11.398178)
(-3437.1156 498.93092 7.5728351)
(-3574.5353 532.75954 2.6315035)
(-3710.3982 566.24254 -3.4518091)
(-3844.6935 599.63165 -10.763998)
(-3977.8003 633.03798 -19.360442)
(-4109.548 666.51443 -29.036308)
(-4240.1562 700.30891 -40.00833)
(-4369.9858 734.3806 -51.790352)
(-4498.5115 769.04344 -64.611141)
(-4626.8353 804.179 -77.861153)
(-4753.9565 840.0673 -91.84139)
(-4881.038 876.57837 -105.75211)
(-5007.5582 913.64347 -119.98398)
(-5134.1972 951.37412 -133.85421)
(28.642579 -5.2667792 -7.5108071)
(45.296533 -7.9125545 -7.2113304)
(59.840263 -11.994719 -10.515875)
(67.427801 -16.453631 -11.209564)
(67.102361 -19.401279 -12.534729)
(57.542196 -23.478376 -11.922724)
(37.564101 -24.417024 -12.398556)
(5.7862506 -25.63187 -10.915743)
(-38.441942 -23.528697 -9.7145198)
(-95.329749 -20.300474 -8.0413209)
(-165.2534 -13.775524 -5.6789226)
(-248.54675 -5.1675475 -2.8155019)
(-344.06845 6.2831784 0.31071994)
(-451.4683 20.662231 3.1598633)
(-569.76693 37.463597 6.4575964)
(-697.86974 57.241745 9.2313077)
(-834.24253 79.39081 11.974711)
(-977.83682 104.30029 14.246971)
(-1126.8856 131.31825 16.208853)
(-1280.4219 160.59387 17.836366)
(-1436.8396 191.53664 19.243897)
(-1595.4417 223.89437 20.431579)
(-1754.1035 257.42913 21.281351)
(-1912.8338 291.79697 21.901295)
(-2070.4186 326.75127 22.509925)
(-2226.6471 361.99905 22.841244)
(-2380.7753 397.2668 22.871404)
(-2532.7643 432.43448 22.696717)
(-2682.4606 467.32144 22.248267)
(-2829.7756 501.78596 21.246031)
(-2974.8473 535.82208 19.760054)
(-3117.73 569.39918 17.549808)
(-3258.5948 602.5217 14.524934)
(-3397.5905 635.26983 10.52315)
(-3534.9147 667.73238 5.4770722)
(-3670.6104 699.99777 -0.73169051)
(-3805.0316 732.2282 -8.1356674)
(-3937.9815 764.56282 -16.76297)
(-4069.8626 797.13347 -26.598197)
(-4200.5737 829.97162 -37.481249)
(-4330.5044 863.46493 -49.34312)
(-4459.3216 897.4428 -62.029807)
(-4587.8258 932.28279 -75.350267)
(-4715.1742 967.77094 -89.116591)
(-4842.699 1004.1248 -103.01343)
(-4969.5265 1041.0849 -116.98832)
(-5096.4195 1078.843 -130.83098)
(29.870566 0.54662449 -1.1939486)
(47.590979 2.5238132 -1.82802)
(63.83333 4.3312219 -1.7279315)
(71.795256 5.9706613 -0.3331797)
(72.881282 8.5318833 1.453839)
(63.958024 12.001975 2.953357)
(45.026391 17.871789 5.2465423)
(13.928416 24.879398 7.9116883)
(-28.75893 35.033615 10.148225)
(-84.758408 46.860507 13.333373)
(-153.43944 61.598406 16.528032)
(-234.74744 77.938469 19.447623)
(-328.34078 97.686273 21.93664)
(-433.92106 119.07638 24.568392)
(-550.15605 143.40508 26.623983)
(-676.16692 169.54408 28.34319)
(-810.77059 197.94131 29.805159)
(-952.41081 228.01141 30.71979)
(-1099.9887 259.69968 31.346949)
(-1251.7904 292.78773 31.547553)
(-1406.947 326.664 31.610843)
(-1563.6918 361.53255 31.193288)
(-1721.5324 397.04173 30.867241)
(-1878.9237 432.77292 30.440954)
(-2035.8617 468.43757 30.059087)
(-2191.0792 503.87298 29.462766)
(-2344.5692 539.07353 28.898719)
(-2495.9567 573.80257 28.237414)
(-2645.0935 607.94815 27.289118)
(-2791.9428 641.48419 26.044141)
(-2936.5706 674.43351 24.282561)
(-3079.112 706.82107 21.884805)
(-3219.6477 738.75679 18.675169)
(-3358.4581 770.23917 14.572738)
(-3495.5298 801.56199 9.3753616)
(-3631.2235 832.70373 3.0475351)
(-3765.4714 863.89238 -4.440212)
(-3898.5051 895.34563 -13.238875)
(-4030.4252 926.97989 -23.055559)
(-4161.4244 959.33204 -34.048791)
(-4291.4468 992.16944 -45.925863)
(-4420.6331 1025.9303 -58.822739)
(-4549.1491 1060.3103 -72.041603)
(-4676.9271 1095.7598 -86.000661)
(-4804.5558 1131.9328 -99.772776)
(-4931.4553 1168.9946 -113.9272)
(-5058.5594 1206.7337 -127.64162)
(26.622617 4.3896688 3.9665766)
(42.910222 12.193691 7.2466752)
(60.924109 19.105587 10.836592)
(69.952357 26.146415 14.899942)
(71.58848 35.239981 18.40047)
(63.622335 45.849756 22.354558)
(45.228794 59.633713 26.226619)
(15.493318 74.908857 29.787165)
(-26.047906 93.765191 33.385015)
(-80.266244 114.05423 36.66042)
(-146.79226 137.77413 39.696213)
(-226.02598 163.41245 42.418565)
(-317.5704 191.60273 44.94757)
(-420.63419 221.61249 46.617632)
(-534.42037 253.45335 47.88085)
(-658.00418 286.8066 48.429633)
(-790.05937 321.49624 48.565834)
(-929.47131 357.08329 47.960039)
(-1074.6632 393.64085 47.038281)
(-1224.4419 430.42215 45.672218)
(-1377.4575 467.88433 44.075791)
(-1532.7559 504.78513 42.470762)
(-1688.4566 541.89444 40.58493)
(-1844.7158 578.65942 38.966776)
(-2000.1831 614.47559 37.439749)
(-2154.2081 649.95134 36.035574)
(-2306.847 684.52791 34.858144)
(-2457.4163 718.22709 33.52493)
(-2605.9221 751.13989 32.205896)
(-2752.2785 783.35774 30.590268)
(-2896.5009 814.85334 28.614885)
(-3038.7455 845.74992 26.039878)
(-3179.1036 876.19853 22.73891)
(-3317.7655 906.31487 18.548294)
(-3454.8467 936.2954 13.264274)
(-3590.4985 966.19851 6.9222372)
(-3724.8971 996.33641 -0.68078381)
(-3858.085 1026.7073 -9.4626147)
(-3990.2586 1057.6848 -19.423729)
(-4121.3782 1089.0407 -30.494477)
(-4251.6415 1121.4609 -42.678113)
(-4381.0617 1154.5482 -55.434998)
(-4509.8531 1188.6589 -68.941187)
(-4638.0083 1223.7148 -82.779291)
(-4765.7766 1259.7044 -96.759581)
(-4893.1069 1296.6106 -110.7779)
(-5020.5214 1334.3916 -124.44395)
(19.620172 11.79484 8.3227794)
(39.157259 21.66167 12.79569)
(58.776438 31.758928 20.158295)
(68.124481 43.507633 26.72032)
(70.623534 58.495542 33.116283)
(62.519068 77.230047 38.797009)
(45.091696 98.697274 44.457564)
(16.26087 123.26794 49.388699)
(-23.986116 151.14679 54.185032)
(-76.396076 180.88448 58.151719)
(-141.49337 214.53376 61.687744)
(-218.47383 248.84484 64.868466)
(-307.91277 286.60261 66.496939)
(-408.2652 324.752 67.89003)
(-519.7378 364.71347 68.096162)
(-640.58544 405.10192 67.737152)
(-770.30399 446.1752 66.430451)
(-907.12114 487.36471 64.569804)
(-1050.0655 528.43744 62.14068)
(-1197.6582 569.17413 59.363)
(-1348.7431 609.26462 56.39653)
(-1501.8441 648.5584 53.37546)
(-1656.3887 686.87217 50.390335)
(-1811.0268 724.33688 47.672244)
(-1965.1372 760.26562 45.36537)
(-2118.268 795.40904 43.135492)
(-2269.9212 829.18756 41.275048)
(-2419.6885 861.98513 39.469426)
(-2567.4753 893.84455 37.754281)
(-2713.194 924.72392 35.845835)
(-2856.9059 954.79655 33.681692)
(-2998.7597 984.25306 30.96507)
(-3138.7805 1013.2314 27.544665)
(-3277.2663 1041.928 23.248562)
(-3414.1535 1070.5476 17.876248)
(-3549.8379 1099.1582 11.445997)
(-3684.2306 1128.1532 3.6870963)
(-3817.5629 1157.5697 -5.2602903)
(-3949.8395 1187.5714 -15.343104)
(-4081.2737 1218.3999 -26.636175)
(-4211.7419 1250.0809 -38.792594)
(-4341.5062 1282.8258 -51.85279)
(-4470.5729 1316.5209 -65.413129)
(-4599.0513 1351.4403 -79.440712)
(-4727.0555 1387.2676 -93.431968)
(-4854.7089 1424.2501 -107.51048)
(-4982.2889 1462.0691 -121.15821)
(0 0 0)
(0 0 0)
(0 0 0)
(0 0 0)
(0 0 0)
(0 0 0)
(0 0 0)
(0 0 0)
(0 0 0)
(0 0 0)
(0 0 0)
(0 0 0)
(0 0 0)
(0 0 0)
(0 0 0)
(0 0 0)
(0 0 0)
(0 0 0)
(0 0 0)
(0 0 0)
(0 0 0)
(0 0 0)
(0 0 0)
(0 0 0)
(0 0 0)
(0 0 0)
(0 0 0)
(0 0 0)
(0 0 0)
(0 0 0)
(0 0 0)
(0 0 0)
(0 0 0)
(0 0 0)
(0 0 0)
(0 0 0)
(0 0 0)
(0 0 0)
(0 0 0)
(0 0 0)
(0 0 0)
(0 0 0)
(0 0 0)
(0 0 0)
(0 0 0)
(0 0 0)
(0 0 0)
(0 0 0)
(0 0 0)
(12.12843 -2.6654452 5.1775285)
(10.460851 -2.1433242 4.9456439)
(9.2604352 -1.7127449 2.7715311)
(8.7013006 -1.5518733 0.89717314)
(8.26698 -1.3765691 -0.83730822)
(8.3209931 -1.1160069 -3.1848583)
(8.948409 -3.0060511 -3.3555786)
(27.150516 4.3152119 14.778369)
(22.491754 7.0076347 9.3799959)
(19.484668 7.3052411 4.278685)
(17.90679 7.7018091 -0.38379742)
(17.723205 8.7280876 -4.9102081)
(18.734413 8.5216014 -10.002616)
(20.884843 7.2031158 -14.562622)
(41.392805 15.355491 23.6436)
(33.822685 14.891231 16.453314)
(29.029734 17.442953 7.0049073)
(26.981805 18.098239 0.84833423)
(26.146535 17.458662 -7.7609811)
(28.326425 18.069327 -14.139714)
(32.231828 18.948083 -24.528534)
(45.345649 39.138543 30.238334)
(37.475497 41.464583 20.343452)
(31.313521 41.282751 9.7173269)
(28.240438 41.997585 0.83453986)
(27.726729 42.194656 -9.4585108)
(30.560685 43.433671 -19.897583)
(35.868126 41.752836 -29.836002)
(45.008338 63.85885 37.837029)
(33.833358 63.632614 25.682923)
(25.928694 64.857777 12.6562)
(22.571572 65.120438 0.51491084)
(21.758121 65.698893 -11.881713)
(24.87703 65.619989 -23.067424)
(31.049658 65.846274 -37.37875)
(34.348618 94.04284 43.863688)
(22.980505 94.407883 30.312175)
(14.583808 94.155403 15.619237)
(10.436634 95.547703 2.896797)
(9.4846445 94.676667 -12.221739)
(13.871787 94.910632 -25.792254)
(20.410178 93.719737 -39.530741)
(16.069694 127.1228 50.125914)
(2.6089223 127.89825 34.808486)
(-7.1609545 129.05976 19.320828)
(-12.098074 129.57315 4.2304765)
(-13.238815 129.87076 -11.598162)
(-10.03642 130.79031 -26.003879)
(-2.5045835 128.42594 -43.455049)
(-13.563901 165.20037 55.589103)
(-27.539848 166.04571 39.644376)
(-37.442337 165.87054 22.253622)
(-43.165861 166.4645 6.2464178)
(-43.627152 165.49566 -9.9525648)
(-40.96539 164.48836 -26.255073)
(-32.60109 162.60456 -42.069384)
(-53.136094 205.81799 60.902104)
(-68.007172 206.7456 43.618938)
(-79.326248 208.55634 26.896732)
(-84.891322 208.57195 9.7159212)
(-86.919559 208.95162 -7.6823644)
(-83.48196 207.41765 -24.266437)
(-76.440955 205.16009 -42.757887)
(-104.18994 249.7903 65.454502)
(-119.56391 251.02133 48.134405)
(-130.48183 251.0567 30.710314)
(-137.42887 252.31633 13.160646)
(-138.79121 250.93693 -4.1946393)
(-136.41437 249.10468 -21.085728)
(-128.77114 246.14904 -38.407968)
(-166.72493 296.14983 69.273464)
(-182.22105 297.90355 52.237572)
(-194.22858 299.15403 34.393331)
(-200.60983 298.72276 17.645136)
(-203.49996 298.73206 -0.15257702)
(-200.88399 296.5121 -16.58138)
(-194.37576 293.89196 -36.23496)
(-240.70121 343.87999 73.01488)
(-256.6776 346.14826 55.434103)
(-267.96492 346.84851 39.086068)
(-275.42809 347.66834 21.771991)
(-277.95795 346.7054 4.609431)
(-276.07091 343.69384 -11.375958)
(-270.75303 340.85002 -29.979129)
(-326.17317 393.972 74.829139)
(-341.28218 395.80939 58.646721)
(-353.2671 397.21741 42.718706)
(-360.70935 396.95699 26.461564)
(-363.94363 396.16808 9.9302491)
(-362.68321 394.25615 -5.3403203)
(-357.89499 390.15794 -22.80768)
(-421.9987 443.44341 76.695919)
(-436.96732 445.89224 61.265802)
(-449.0986 447.29111 46.6029)
(-456.31061 447.35355 31.181552)
(-460.29238 447.47069 15.754954)
(-459.78294 444.10432 1.7293277)
(-456.66468 440.83204 -15.067009)
(-528.19522 494.28012 77.186012)
(-542.87438 496.63834 63.082431)
(-554.46775 497.68318 49.793354)
(-562.28332 498.14313 35.397448)
(-566.52506 497.25499 21.790913)
(-567.22974 494.5869 8.2393687)
(-564.76184 490.96809 -6.6483454)
(-644.08504 543.69805 76.89937)
(-657.7725 545.90854 64.371019)
(-669.36289 547.80282 52.430774)
(-676.88345 547.88197 39.941884)
(-681.76013 547.82434 27.23063)
(-683.09155 545.05853 15.58669)
(-682.04776 541.73559 2.0083695)
(-768.05593 592.55514 75.739124)
(-781.25357 595.27041 64.787521)
(-792.21636 596.70062 54.734567)
(-800.03025 597.03092 43.353769)
(-805.1927 596.92789 32.776455)
(-807.61048 594.24795 22.282972)
(-807.63813 591.29785 10.517631)
(-899.79905 640.13894 73.767309)
(-911.80981 642.51209 64.863905)
(-922.54192 644.40388 56.097633)
(-930.00335 644.90404 46.78206)
(-935.61651 644.94697 37.705809)
(-938.69664 642.66074 28.786903)
(-939.98169 639.95111 18.894145)
(-1037.4849 685.97282 71.395289)
(-1048.7751 688.50314 64.027242)
(-1058.7805 690.4207 57.174685)
(-1066.2483 690.89868 49.446174)
(-1072.1759 691.27467 42.114431)
(-1076.0908 689.25238 34.782506)
(-1078.4293 687.15768 26.738628)
(-1180.3737 730.00471 68.409719)
(-1190.5626 732.45355 62.924581)
(-1200.0535 734.50099 57.695302)
(-1207.2532 735.35868 51.661075)
(-1213.4978 735.83674 46.081844)
(-1217.9674 734.35834 40.255105)
(-1221.4853 732.53506 34.057367)
(-1327.0378 772.08526 65.351329)
(-1336.3778 774.45177 61.512044)
(-1345.1789 776.73317 57.843193)
(-1352.3257 777.61703 53.473635)
(-1358.7144 778.46981 49.441195)
(-1363.8997 777.33735 45.107603)
(-1368.2635 776.07675 40.616025)
(-1476.5049 812.04829 62.23034)
(-1484.8525 814.45886 59.893432)
(-1493.1714 816.80689 57.701824)
(-1499.9685 818.023 54.85386)
(-1506.6101 818.99527 52.297267)
(-1512.1579 818.46067 49.382462)
(-1517.4983 817.67809 46.493839)
(-1627.6116 850.16828 59.195484)
(-1635.224 852.39519 58.234572)
(-1642.892 854.95729 57.479503)
(-1649.6382 856.34665 55.955105)
(-1656.2905 857.79706 54.737378)
(-1662.4492 857.78058 53.10734)
(-1668.447 857.44559 51.585479)
(-1779.639 886.06117 56.393618)
(-1786.4112 888.55134 56.713644)
(-1793.7318 891.19794 57.145762)
(-1800.0636 893.03621 56.693551)
(-1806.9577 894.57819 56.740256)
(-1813.308 894.98115 56.13623)
(-1819.9335 895.22941 55.916167)
(-1931.4778 920.45209 54.064179)
(-1937.9175 922.97842 55.233256)
(-1944.4355 925.69279 56.810032)
(-1950.8433 927.95917 57.237885)
(-1957.6672 929.67617 58.370178)
(-1964.3235 930.9587 58.657007)
(-1971.5657 931.71756 59.593413)
(-2082.7867 953.0782 51.831625)
(-2088.747 955.73794 54.055743)
(-2094.8542 958.87191 56.373716)
(-2101.3067 961.42547 57.679825)
(-2107.9102 963.44551 59.551552)
(-2114.8553 965.18512 60.741807)
(-2122.3305 966.35008 62.283292)
(-2233.0801 984.47468 50.048951)
(-2238.64 987.38935 53.181854)
(-2244.4211 990.72893 55.506157)
(-2250.4872 993.6289 58.192409)
(-2257.4988 996.25778 60.061328)
(-2264.2687 998.77957 62.017692)
(-2271.9277 1000.3181 63.666194)
(-2382.0758 1014.7449 48.359905)
(-2387.0381 1017.8761 51.991196)
(-2392.6489 1021.7064 54.807392)
(-2398.5228 1024.9164 58.105928)
(-2405.1768 1028.1327 60.236669)
(-2412.2027 1030.723 62.983287)
(-2419.9752 1033.418 65.022208)
(-2529.0663 1043.9041 46.858962)
(-2533.9369 1047.5796 50.715239)
(-2539.0852 1051.6801 54.147175)
(-2544.9362 1055.4864 57.460257)
(-2551.4111 1059.1486 60.195051)
(-2558.4737 1062.7167 63.095004)
(-2566.2671 1065.7403 65.355071)
(-2674.4202 1072.5806 45.01557)
(-2678.863 1076.6117 49.382055)
(-2683.9409 1081.3158 52.721277)
(-2689.5358 1085.6152 56.517847)
(-2695.8795 1089.9889 59.308163)
(-2702.8803 1093.999 62.451166)
(-2710.6111 1097.8023 64.854239)
(-2817.7894 1100.6949 43.101854)
(-2822.089 1105.4129 47.398921)
(-2826.8972 1110.5768 51.079742)
(-2832.3127 1115.5261 54.823865)
(-2838.491 1120.4035 57.766926)
(-2845.271 1125.1726 60.965926)
(-2852.8688 1129.6507 63.420086)
(-2959.4227 1128.62 40.432495)
(-2963.4648 1133.9038 44.893887)
(-2968.0521 1139.6977 48.498578)
(-2973.2454 1145.2516 52.326904)
(-2979.1511 1150.8208 55.243343)
(-2985.6938 1156.3586 58.472242)
(-2993.0518 1161.5912 60.853734)
(-3099.2903 1156.358 37.129839)
(-3103.0921 1162.4259 41.484495)
(-3107.4144 1168.8955 45.144927)
(-3112.3245 1175.1582 48.864446)
(-3117.9572 1181.4528 51.758822)
(-3124.1713 1187.7147 54.878547)
(-3131.2029 1193.7794 57.168163)
(-3237.5826 1184.2478 32.79729)
(-3241.0855 1191.1315 37.097125)
(-3245.1201 1198.2657 40.638065)
(-3249.7281 1205.2483 44.24057)
(-3254.9939 1212.2211 47.005534)
(-3260.794 1219.3216 50.021705)
(-3267.3816 1226.24 52.159914)
(-3374.3259 1212.3419 27.395042)
(-3377.5257 1220.0321 31.495795)
(-3381.2029 1227.9323 34.972229)
(-3385.4288 1235.6687 38.368935)
(-3390.2994 1243.3859 41.091941)
(-3395.6725 1251.2082 43.899786)
(-3401.8131 1259.0697 45.814728)
(-3509.8276 1240.7649 20.75114)
(-3512.6598 1249.3429 24.663443)
(-3515.927 1257.9757 27.961328)
(-3519.7797 1266.4437 31.151773)
(-3524.1776 1274.8654 33.653307)
(-3528.9216 1283.8047 36.212658)
(-3534.3362 1292.5543 37.908892)
(-3644.0071 1269.8658 12.69806)
(-3646.317 1279.2674 16.352323)
(-3649.1278 1288.6447 19.515408)
(-3652.5426 1297.845 22.465008)
(-3656.3173 1307.0716 24.797503)
(-3660.5475 1316.4196 27.281418)
(-3665.3815 1326.167 28.999517)
(-3777.0139 1299.2811 3.3937541)
(-3778.9978 1309.6304 6.8795878)
(-3781.3325 1319.7424 9.6998307)
(-3784.1815 1329.5821 12.522476)
(-3787.4434 1339.5427 14.642947)
(-3791.1133 1349.9058 16.796601)
(-3795.3349 1360.1917 18.155154)
(-3909.1951 1329.5866 -7.1871102)
(-3910.6252 1340.5567 -4.0452849)
(-3912.4542 1351.3294 -1.3508374)
(-3914.7832 1361.8972 1.1486995)
(-3917.4427 1372.4804 3.0593486)
(-3920.3986 1383.419 4.9841905)
(-3923.7201 1394.6722 6.2654804)
(-4040.3787 1360.6061 -18.986737)
(-4041.3265 1372.283 -16.124863)
(-4042.6276 1383.7293 -13.705574)
(-4044.3833 1394.8792 -11.532339)
(-4046.4196 1406.0661 -9.7922876)
(-4048.651 1417.7432 -8.0659174)
(-4051.2805 1429.6997 -7.0712485)
(-4170.7543 1392.5231 -31.826096)
(-4171.1888 1404.848 -29.274627)
(-4171.9335 1416.8328 -27.164619)
(-4173.1077 1428.5185 -25.183672)
(-4174.5045 1440.2945 -23.656261)
(-4176.0668 1452.5011 -22.230235)
(-4177.9181 1465.0828 -21.383044)
(-4300.4179 1425.3562 -45.436271)
(-4300.3911 1438.16 -43.229475)
(-4300.631 1450.6007 -41.434273)
(-4301.222 1462.78 -39.71139)
(-4302.0309 1475.0456 -38.465848)
(-4302.9055 1487.7545 -37.231427)
(-4303.9969 1500.873 -36.559519)
(-4429.4785 1459.1919 -59.713925)
(-4428.9889 1472.3713 -57.861819)
(-4428.71 1485.2125 -56.319518)
(-4428.7557 1497.8121 -54.867765)
(-4429.0037 1510.498 -53.797382)
(-4429.2036 1523.5963 -52.810077)
(-4429.6436 1537.1319 -52.33655)
(-4557.969 1493.8892 -74.260611)
(-4557.1169 1507.3436 -72.766075)
(-4556.3939 1520.5021 -71.510158)
(-4555.9941 1533.4493 -70.328574)
(-4555.6832 1546.4639 -69.493)
(-4555.3473 1559.9195 -68.71698)
(-4555.1372 1573.8019 -68.368357)
(-4686.0739 1529.6113 -88.89981)
(-4684.8671 1543.3033 -87.750627)
(-4683.7826 1556.6786 -86.742121)
(-4682.9284 1569.8751 -85.863755)
(-4682.1839 1583.1545 -85.185833)
(-4681.3216 1596.845 -84.58568)
(-4680.6291 1610.9483 -84.40613)
(-4813.8583 1566.2376 -103.34525)