/*--------------------------------*- C++ -*----------------------------------*\
  =========                 |
  \\      /  F ield         | OpenFOAM: The Open Source CFD Toolbox
   \\    /   O peration     | Website:  https://openfoam.org
    \\  /    A nd           | Version:  6
     \\/     M anipulation  |
\*---------------------------------------------------------------------------*/
FoamFile
{
    version     2.0;
    format      ascii;
    class       pointScalarField;
    location    "0.88";
    object      E;
}
// * * * * * * * * * * * * * * * * * * * * * * * * * * * * * * * * * * * * * //

dimensions      [1 -1 -2 0 0 0 0];

internalField   nonuniform List<scalar> 
625
(
57980.383
67584.831
-917417.77
-453969.12
57552.745
61564.219
-692309.83
-1407629.4
17198.941
9734.7917
43424.059
-505305.55
-519148.32
-363978.1
80146.626
70975.87
68161.284
66322.362
62562.295
62892.925
61020.395
59220.707
55150.03
47721.01
35889.199
19170.356
-546.42911
-22446.122
-43718.819
-63276.925
-76454.889
-85445.978
-83316.773
-78352.082
-66512.343
-49469.624
-19812.23
71632.62
48811.101
47682.59
38941.48
28779.83
20393.252
12151.653
5756.8274
1811.0857
-86.47747
2316.1943
7238.4556
16631.902
29029.392
44555.303
60192.385
76384.614
87778.738
95868.065
95612.654
84380.356
68954.339
35195.822
16873.93
5853.7847
33767.392
106014.39
101828.28
64035.615
66825.687
57447.863
34053.394
37138.961
26746.734
26661.948
27113.606
29335.229
35289.864
39200
44071.075
47035.308
49353.409
51381.659
52391.505
51728.801
49676.491
42330.939
31510.614
12160.769
-1003352.1
-1073037.3
-1025265.2
-15585.245
-34295.426
-44319.767
-54852.77
-61559.552
-61977.531
-59874.344
-50799.674
-39253.462
-23862.873
-8080.416
8182.1429
21955.667
34030.542
42405.871
47794.984
52554.652
53937.79
60349.293
62688.639
70354.358
71153.326
81994.042
50578.929
50399.864
51848.896
50051.151
49061.296
50953.378
-514873.64
-515031.22
-518710.8
-1037087.8
-1038295.3
-1043015.6
33719.417
28455.827
28952.685
24659.613
19272.705
12901.526
6913.045
419.76458
-2988.5704
-5505.5734
-4529.167
-1028.1245
5683.9769
14722.736
25237.943
36533.089
47547.588
56284.365
64081.737
62540.664
61659.018
51073.453
23457.492
11798.821
5934.7962
6984.7088
2758.052
3118.997
3660.3544
3349.4932
6169.5468
6712.7809
8724.3191
10645.361
12325.255
14895.096
18030.402
22064.718
26338.845
30917.103
32628.878
34334.096
27929.327
25761.898
11842.992
-320.44529
29575.83
28388.827
31636.071
30411.06
31676.717
32354.462
31273.441
30889.879
27726.745
23645.443
15462.007
4979.2191
-8613.2797
-23885.685
-40131.898
-54644.739
-67412.887
-74078.84
-78258.683
-71850.118
-62663.011
-45760.208
-15337.446
11540.427
11874.515
11588.97
5194.0013
4437.5311
6749.1903
19823.23
21146.929
21460.066
85913.58
84145.659
90268.026
90525.696
86254.494
82524.368
62067.113
57628.93
59508.755
54859.293
58501.225
56208.708
43988.404
41491.688
44331.083
32792.059
35197.509
34552.924
26409.038
27147.759
32496.281
20795.994
19017.111
20239.611
15929.534
18241.415
18129.713
16228.028
16213.35
16937.709
17907.284
18838.283
19361.9
23753.398
23153.751
24862.419
31380.783
28771.071
32100.867
41713.276
35919.514
40817.112
53202.582
43255.509
50440.686
65239.412
51126.074
60146.143
76118.226
58790.784
69218.914
84915.698
65619.435
76475.993
88785.053
69520.976
79827.933
86008.758
68531.689
77646.051
76221.718
62130.962
69658.191
58012.98
52828.572
56824.982
28587.938
24052.901
30105.463
-678772.14
-677876.69
-677781.18
-618908.9
-681574.67
-683699.19
-705703.59
-651853.84
-652149.59
78490.933
72322.767
70859.359
75909.754
72758.327
74605.448
72337.132
66456.337
65103.878
67439.027
62164.975
62911.874
63603.644
61317.379
59306.453
63887.082
56685.162
56411.609
61836.686
57613.563
56423.438
61085.958
55039.99
53297.205
55152.437
51897.073
47696.088
46670.777
44582.242
41063.582
36858.704
33522.438
29704.139
20034.826
17980.235
14289.519
1159.1256
423.69438
-2563.662
-18919.853
-19147.455
-21124.429
-38618.726
-38220.75
-38326.538
-55225.544
-54788.051
-53638.422
-67377.161
-67450.85
-64108.444
-73699.007
-73742.84
-70600.985
-74506.087
-76215.844
-70331.397
-66204.252
-71422.335
-64950.116
-54489.405
-59803.469
-54544.099
-43820.083
-43827.472
-42414.635
-16589.205
-17651.47
-16639.398
50499.206
47828.733
40340.042
32536.677
27137.727
17088.03
12814.2
8354.9423
4765.5186
7399.1368
11057.034
15707.742
23387.068
31378.287
39505.948
47392.449
53505.757
58346.189
58729.47
56290.138
47952.104
35195.595
25376.029
8210.4936
23880.161
9677.2578
22160.483
22621.692
26052.764
30866.919
30914.479
31295.939
26981.42
22561.768
15526.693
8560.6496
734.67697
-7435.8655
-15725.927
-23470.736
-30632.28
-35839.586
-38082.915
-37450.659
-32900.12
-22395.354
40434.153
26161.078
32259.345
32888.636
30325.31
29086.387
27350.055
25300.07
19889.414
13961.696
5458.6568
-6150.6417
-18528.492
-32021.809
-44605.039
-55128.566
-62475.649
-66017.023
-64104.131
-57339.252
-46129.993
-26968.906
-6745.9566
43194.715
38519.76
38926.526
40488.502
40304.235
38652.146
36185.518
35881.349
33201.81
29397.325
27000.278
26184.502
22889.225
22917.472
21289.715
15784.754
14770.462
12387.909
10198.526
9144.5445
6276.02
3978.2864
3714.9269
1283.2256
1805.9861
961.26579
-1807.9914
1316.7818
-368.69529
-2051.7737
3997.2456
2491.4071
1263.1911
8777.9078
7396.7709
6362.6566
16160.464
14692.336
14661.387
25353.23
23854.004
24361.693
35572.433
34467.483
35394.656
46535.878
45531.395
46311.726
56169.694
55768.905
56715.941
65109.905
64926.156
64325.215
69467.316
67954.867
69284.406
66235.482
70417.438
68013.192
62833.472
63206.824
61926.705
49881.388
51082.543
50280.772
26449.577
25712.697
27279.153
9890.471
8809.0422
7026.5041
14679.347
20974.081
20537.568
8573.6543
6313.7403
5743.3142
9631.1982
14349.251
14589.84
12088.228
12465.937
13329.298
13318.025
15126.783
15765.913
14794.306
17956.675
19226.696
17196.015
18712.719
19515.567
17223.849
19199.839
21130.957
17409.967
18917.501
19618.945
16545.992
17175.435
17905.365
15424.687
15152.467
15089.417
14309.307
12922.645
11950.004
12891.033
10528.599
9210.5306
11656.653
8368.0756
6176.644
9990.5126
5489.1459
3542.6273
8042.8117
2814.1541
409.50336
5337.0366
-1508.2333
-2454.6292
1984.8448
-4687.1143
-5887.3731
-3123.6703
-7581.2711
-9263.5476
-14567.849
2881.3572
-9314.4396
-10306.83
-16071.181
-14996.461
-14096.754
-19741.046
-18859.5
32748.209
33703.503
36770.336
29216.795
33155.783
39697.775
29925.487
35904.025
38394.746
30541.307
31526.572
35842.362
28852.509
30705.125
34941.961
27537.495
28960.436
32959.163
27906.599
26506.466
29742.697
24693.1
24554.494
28939.829
22283.168
21776.585
24642.979
16896.84
16442.278
18914.756
9120.8917
8672.065
10776.643
-1225.2924
-1307.3199
126.97464
-14521.697
-13241.434
-12516.449
-28827.648
-26071.937
-26509.262
-43694.982
-38867.982
-40201.999
-57269.656
-49732.266
-52702.017
-67606.288
-58766.966
-62189.881
-74601.415
-63058.288
-67094.14
-75020.118
-62947.119
-67685.077
-68609.239
-58322.995
-61769.23
-58881.476
-49463.932
-53595.917
-38733.205
-31523.096
-35878.138
-14699.73
-8706.5467
-11029.04
)
;

boundaryField
{
    free
    {
        type            zeroGradient;
    }
    fixed
    {
        type            zeroGradient;
    }
    traction
    {
        type            zeroGradient;
    }
}


// ************************************************************************* //
