/*--------------------------------*- C++ -*----------------------------------*\
  =========                 |
  \\      /  F ield         | OpenFOAM: The Open Source CFD Toolbox
   \\    /   O peration     | Website:  https://openfoam.org
    \\  /    A nd           | Version:  6
     \\/     M anipulation  |
\*---------------------------------------------------------------------------*/
FoamFile
{
    version     2.0;
    format      ascii;
    class       pointVectorField;
    location    "1.46";
    object      u;
}
// * * * * * * * * * * * * * * * * * * * * * * * * * * * * * * * * * * * * * //

dimensions      [0 1 0 0 0 0 0];

internalField   nonuniform List<vector> 
28033
(
(0 0 0)
(0 0 0)
(0.72783633 0.049184924 0.0089397445)
(0.7060662 -0.15763204 0.0093219054)
(0 0 0)
(0 0 0)
(0.70508382 -0.15951855 0.0093000937)
(0.72687437 0.047236006 0.0086215905)
(0 0 0)
(0 0 0)
(0 0 0)
(0 0 0)
(0 0 0)
(0 0 0)
(0 0 0)
(0 0 0)
(0 0 0)
(0 0 0)
(0 0 0)
(0 0 0)
(0 0 0)
(0 0 0)
(0 0 0)
(0.72629314 0.03569472 0.008705365)
(0.72471391 0.022626504 0.0087195807)
(0.72315752 0.0096944631 0.0086955189)
(0.72168852 -0.0031606509 0.0087519954)
(0.72024899 -0.015937603 0.0088136904)
(0.71884175 -0.028661751 0.008902719)
(0.71748208 -0.041355563 0.0090035672)
(0.71615402 -0.054038528 0.0091188927)
(0.71485884 -0.066724273 0.009224718)
(0.71358689 -0.07944611 0.0093379976)
(0.71234332 -0.092196636 0.0094241728)
(0.71110421 -0.10502964 0.009483304)
(0.70989767 -0.11792768 0.0095272096)
(0.7086451 -0.13095442 0.0095418789)
(0.70744504 -0.14412188 0.0094734374)
(0.00055959142 0.0012128362 0.0013201738)
(0.00036386659 0.0017771745 0.0019938153)
(0.00021019622 0.0026210374 0.0025505845)
(0.00025748025 0.0034072257 0.0029444747)
(0.0003127838 0.0043884363 0.0032707792)
(0.00059986399 0.0053231237 0.0035296998)
(0.0009796694 0.0064254811 0.0037627591)
(0.0015419738 0.0074411101 0.003945874)
(0.0022380164 0.008636499 0.0041258213)
(0.0031135352 0.0097422196 0.0042815536)
(0.0041091671 0.010976434 0.0044420815)
(0.0053041697 0.012169871 0.0045590958)
(0.0066187678 0.013448386 0.0047308963)
(0.0081623231 0.01471022 0.004830707)
(0.00978813 0.016017207 0.0050080116)
(0.01166822 0.017330679 0.0050930669)
(0.01366106 0.018688617 0.0052685886)
(0.01587831 0.02003232 0.0053713497)
(0.01823126 0.021421706 0.0055302925)
(0.020813476 0.022808806 0.0056355522)
(0.023543864 0.024222531 0.0057938153)
(0.026497443 0.025635583 0.0058983329)
(0.029624484 0.02707208 0.0060450147)
(0.032964648 0.028508859 0.0061603648)
(0.036495871 0.029955281 0.0062877624)
(0.040245307 0.031410424 0.0063983372)
(0.044187979 0.032859099 0.0065175382)
(0.048352906 0.034320209 0.0066237103)
(0.052729457 0.035767604 0.0067222525)
(0.057317596 0.037217452 0.0068207662)
(0.062129079 0.038656943 0.0069074068)
(0.067154558 0.040084486 0.0069873022)
(0.072401168 0.041502117 0.0070656036)
(0.077864833 0.042894511 0.0071339157)
(0.083544098 0.044276634 0.0071974804)
(0.089447834 0.045631029 0.0072487623)
(0.095558866 0.046960826 0.0073051846)
(0.10189101 0.048263224 0.0073540623)
(0.10842523 0.049528247 0.0073918314)
(0.11517579 0.050770285 0.007433753)
(0.12212258 0.0519645 0.0074708579)
(0.12927425 0.053133779 0.0075083266)
(0.13662319 0.054253924 0.0075413084)
(0.14416786 0.055340425 0.0075783823)
(0.15189713 0.056378006 0.0076138734)
(0.15981718 0.057377495 0.0076515546)
(0.16791295 0.058329743 0.0076915648)
(0.1761913 0.059238375 0.0077331526)
(0.18463773 0.060101482 0.0077783076)
(0.19325834 0.060918896 0.0078261572)
(0.20204062 0.061691337 0.007877043)
(0.21098845 0.062417007 0.0079316198)
(0.22009263 0.063099567 0.0079888908)
(0.22935459 0.063734276 0.0080497212)
(0.23876821 0.064327812 0.0081127973)
(0.24833286 0.064874212 0.0081791919)
(0.25804509 0.065379589 0.0082469859)
(0.2679032 0.065840343 0.008317246)
(0.27790482 0.066260167 0.0083881754)
(0.2880486 0.066636001 0.0084607804)
(0.29833252 0.066973015 0.0085323542)
(0.30875611 0.067265666 0.008604988)
(0.319315 0.067521063 0.0086757043)
(0.33001515 0.06772977 0.0087443721)
(0.3408443 0.06790448 0.0088140313)
(0.3518105 0.068033445 0.0088766301)
(0.3629112 0.068118009 0.0089375274)
(0.37414016 0.068162758 0.0089958331)
(0.38550194 0.06816381 0.0090457313)
(0.3969852 0.068121085 0.0090930047)
(0.40860259 0.068032699 0.0091348945)
(0.42033341 0.067895204 0.0091741962)
(0.43219745 0.067717703 0.0091996795)
(0.44416635 0.06747708 0.0092292827)
(0.45626108 0.067210866 0.009240214)
(0.46845833 0.066857804 0.0092613869)
(0.48076475 0.0665005 0.0092567559)
(0.49317616 0.06603232 0.0092700736)
(0.50567464 0.06557483 0.0092534923)
(0.51827812 0.064998227 0.0092584302)
(0.53095329 0.0644267 0.0092322873)
(0.543718 0.063748541 0.0092321865)
(0.55655349 0.063057487 0.0091991844)
(0.56945258 0.06227653 0.0091924074)
(0.58241881 0.061467829 0.0091637616)
(0.59543031 0.060594339 0.0091477645)
(0.60850541 0.059654994 0.0091243275)
(0.62160103 0.05868374 0.0091117826)
(0.63475496 0.057644409 0.0090826803)
(0.64791197 0.056573716 0.0090778663)
(0.66111565 0.055414475 0.0090740592)
(0.67431998 0.054318634 0.009042545)
(0.68755006 0.053046474 0.0090961446)
(0.70083245 0.051873071 0.009072318)
(0.71409657 0.050646205 0.00913372)
(0.00018356506 -0.0010735886 -0.0013426341)
(0.00014658217 -0.0015618262 -0.0016914096)
(-0.00011576961 -0.0021937554 -0.0023999791)
(-0.00018499533 -0.002988431 -0.0026652352)
(-0.0001167079 -0.003739281 -0.0030422749)
(9.2183088e-05 -0.0047369015 -0.0032167049)
(0.00044866338 -0.005570774 -0.0034486047)
(0.00095173366 -0.0066361196 -0.0035458822)
(0.0016248312 -0.0076142249 -0.0036952082)
(0.0024189805 -0.0087094511 -0.003763912)
(0.003407068 -0.0097930756 -0.0038541171)
(0.0045054312 -0.010941625 -0.003906994)
(0.0058034385 -0.012104293 -0.0039588421)
(0.0072266239 -0.013320811 -0.0040039461)
(0.0088369844 -0.01454146 -0.0040362705)
(0.010588199 -0.015830858 -0.0040706667)
(0.01252196 -0.017106205 -0.0040938959)
(0.014613792 -0.018457904 -0.0041135644)
(0.016877795 -0.019801608 -0.0041341757)
(0.019329931 -0.021211909 -0.0041450166)
(0.021942143 -0.022615854 -0.0041534415)
(0.02475229 -0.024091202 -0.0041620025)
(0.027724038 -0.02554638 -0.0041624738)
(0.030905536 -0.027079102 -0.0041583761)
(0.034246619 -0.028591568 -0.0041542272)
(0.037821941 -0.030179762 -0.0041301719)
(0.041554137 -0.03175478 -0.0041227391)
(0.045523054 -0.033384578 -0.0040831584)
(0.049661907 -0.035019466 -0.0040597211)
(0.05403307 -0.036685315 -0.0040057922)
(0.05858662 -0.038374148 -0.0039597999)
(0.063368079 -0.040075886 -0.003894838)
(0.068340017 -0.041806438 -0.0038260124)
(0.073537472 -0.043542736 -0.0037422538)
(0.078931806 -0.045307213 -0.0036514723)
(0.084542864 -0.047072483 -0.0035520174)
(0.090358008 -0.048858788 -0.0034322634)
(0.096381561 -0.050653039 -0.0033123478)
(0.1026075 -0.052458313 -0.0031771132)
(0.10903803 -0.054269733 -0.0030348502)
(0.11566823 -0.056091244 -0.0028813542)
(0.12249423 -0.057915906 -0.0027209442)
(0.12951608 -0.059748531 -0.0025506238)
(0.13672685 -0.061583856 -0.0023746325)
(0.14412541 -0.063424218 -0.0021907441)
(0.15170795 -0.065268009 -0.0020014463)
(0.15946886 -0.067114506 -0.0018072784)
(0.16740757 -0.068964848 -0.0016082628)
(0.17551708 -0.070817758 -0.0014064486)
(0.18379638 -0.072673646 -0.0012015634)
(0.19223998 -0.074533196 -0.00099519692)
(0.20084581 -0.076395959 -0.00078774901)
(0.20960899 -0.078262237 -0.00058018845)
(0.21852842 -0.080133267 -0.00037295725)
(0.22759861 -0.082008325 -0.00016715679)
(0.23681894 -0.083888137 3.7209202e-05)
(0.24618578 -0.08577409 0.00023935087)
(0.25569696 -0.087664887 0.00043903189)
(0.26535037 -0.089562192 0.00063600256)
(0.2751451 -0.091466195 0.00083055172)
(0.28507796 -0.093376452 0.0010221353)
(0.29514928 -0.095293829 0.0012116941)
(0.30535704 -0.097218371 0.0013990624)
(0.31570069 -0.099149783 0.0015852045)
(0.32617901 -0.10108781 0.0017701678)
(0.33679266 -0.10303334 0.0019557358)
(0.34753886 -0.1049836 0.0021408055)
(0.35841863 -0.10694037 0.0023289797)
(0.36942715 -0.10889957 0.0025136474)
(0.38056753 -0.11085962 0.0027129409)
(0.39184478 -0.11283412 0.0029071065)
(0.40323927 -0.11479402 0.0031088821)
(0.41476905 -0.11676595 0.0033152128)
(0.42641694 -0.11872625 0.0035265431)
(0.43819213 -0.1206894 0.0037462184)
(0.45008087 -0.12264082 0.0039683617)
(0.46208913 -0.1245882 0.0042010376)
(0.47420717 -0.12652175 0.0044359992)
(0.4864338 -0.12844562 0.0046805093)
(0.49876297 -0.13035156 0.0049279731)
(0.51119151 -0.13224363 0.0051830728)
(0.52371314 -0.1341133 0.0054416199)
(0.53632215 -0.13596403 0.005705766)
(0.54901579 -0.13778943 0.0059734834)
(0.56178236 -0.13958938 0.0062431935)
(0.57462381 -0.14136345 0.0065177334)
(0.58752508 -0.14310527 0.0067912528)
(0.60048775 -0.1448183 0.0070661406)
(0.61349819 -0.14650025 0.0073422134)
(0.62655843 -0.14814771 0.0076149249)
(0.63964995 -0.14976273 0.0078850002)
(0.65278789 -0.15135324 0.0081519755)
(0.66594632 -0.15292211 0.0084260842)
(0.67917468 -0.15445575 0.0086723094)
(0.69245223 -0.15605239 0.0089717924)
(0 0 0)
(0 0 0)
(0 0 0)
(0 0 0)
(0 0 0)
(0 0 0)
(0 0 0)
(0 0 0)
(0 0 0)
(0 0 0)
(0 0 0)
(0 0 0)
(0 0 0)
(0 0 0)
(0 0 0)
(0.00060724994 -0.00046063334 0.00098507126)
(0.00039176235 -0.0019543731 0.0017807778)
(-2.7548014e-05 -0.0020829506 0.0023320103)
(-2.1140091e-05 -0.0033832782 0.0028503749)
(-5.7585764e-05 -0.0039238745 0.0032067592)
(0.000202928 -0.0051117862 0.0034628658)
(0.00049406573 -0.0058903343 0.0037423173)
(0.0010066527 -0.0070955308 0.0039280513)
(0.0016486196 -0.0080401655 0.0041560739)
(0.0024171718 -0.009263461 0.0043071628)
(0.0034057239 -0.010330977 0.0045067495)
(0.0044505726 -0.011551441 0.0046390904)
(0.005756007 -0.012775709 0.0048370202)
(0.0071139087 -0.013980101 0.0049548695)
(0.0087410885 -0.015341414 0.0051520968)
(0.010423605 -0.016539284 0.0052818853)
(0.012362804 -0.017992661 0.0054643175)
(0.014404234 -0.01923382 0.0055840563)
(0.016654874 -0.020750108 0.0057694272)
(0.019070601 -0.022071266 0.0058963574)
(0.021650014 -0.023584697 0.0060644005)
(0.024440295 -0.025043902 0.0061992625)
(0.027392161 -0.026555545 0.006364729)
(0.030547305 -0.028097821 0.0064995543)
(0.033881079 -0.029637989 0.0066360227)
(0.037423752 -0.03125957 0.0067746087)
(0.041150943 -0.032840856 0.0068968148)
(0.045089978 -0.034518393 0.0070236693)
(0.049228407 -0.036150223 0.0071320478)
(0.05356941 -0.037872856 0.0072463569)
(0.058127187 -0.039558151 0.0073372579)
(0.062884047 -0.041313363 0.0074325938)
(0.067858207 -0.043050276 0.0075112204)
(0.073034935 -0.04483867 0.0075882471)
(0.078431049 -0.046613904 0.0076544796)
(0.084022569 -0.048419493 0.0077125756)
(0.08983277 -0.05024752 0.0077693632)
(0.095846279 -0.052073973 0.0078180236)
(0.10206258 -0.05391551 0.0078623978)
(0.10848152 -0.055766062 0.0079025863)
(0.11509964 -0.057624828 0.0079404261)
(0.12191231 -0.059488821 0.007976634)
(0.1289193 -0.06135957 0.0080109024)
(0.13611463 -0.063232806 0.0080464209)
(0.14349598 -0.065110078 0.0080809141)
(0.15106007 -0.066989526 0.0081183489)
(0.15880233 -0.068870058 0.0081560448)
(0.16672014 -0.070752301 0.0081974103)
(0.17480942 -0.072634879 0.0082404313)
(0.18306678 -0.07451806 0.0082874357)
(0.19148862 -0.076401709 0.0083372747)
(0.20007249 -0.078285777 0.0083901014)
(0.2088144 -0.080170915 0.0084471267)
(0.21771194 -0.082056059 0.0085060599)
(0.22676251 -0.083944493 0.0085693173)
(0.23596325 -0.085832486 0.0086337526)
(0.24531178 -0.087725259 0.0087020602)
(0.25480685 -0.089619534 0.0087708322)
(0.264445 -0.091518314 0.0088421467)
(0.27422644 -0.093421182 0.0089136363)
(0.28414792 -0.095329037 0.0089858479)
(0.29420969 -0.097242066 0.0090574362)
(0.30440931 -0.099161299 0.0091284693)
(0.31474682 -0.10108614 0.0091974016)
(0.32522065 -0.10301728 0.0092642469)
(0.33583033 -0.10495564 0.0093280412)
(0.34657592 -0.10689893 0.0093871115)
(0.35746045 -0.10885538 0.0094443147)
(0.36845115 -0.11078424 0.0094947398)
(0.37961397 -0.11276808 0.0095385744)
(0.39088121 -0.11471915 0.00958148)
(0.40228351 -0.11668338 0.0096141702)
(0.41381384 -0.11864597 0.0096411268)
(0.42546654 -0.12060793 0.0096634657)
(0.43724157 -0.12256572 0.0096775292)
(0.44913595 -0.12451901 0.0096868526)
(0.46114472 -0.12646438 0.0096893053)
(0.47326579 -0.12840047 0.0096871327)
(0.48549372 -0.13032486 0.009679503)
(0.49782435 -0.13223427 0.0096678697)
(0.51025348 -0.13412812 0.0096516029)
(0.52277527 -0.13600256 0.0096333095)
(0.53538442 -0.13785566 0.0096112275)
(0.54807616 -0.13968613 0.0095883475)
(0.56084359 -0.14148982 0.0095634196)
(0.57368107 -0.14326763 0.0095397991)
(0.58658254 -0.14501315 0.0095140432)
(0.59954197 -0.14673187 0.0094932403)
(0.61255059 -0.14841255 0.009470756)
(0.62560751 -0.15006786 0.0094557816)
(0.63869746 -0.15168123 0.0094393166)
(0.65183196 -0.15327833 0.0094353303)
(0.66498546 -0.15483613 0.0094225393)
(0.67821946 -0.15639348 0.0094261364)
(0.69145127 -0.15798503 0.0093967756)
(0.70650696 -0.14601129 0.009102187)
(0.7077099 -0.13290147 0.0089606365)
(0.7089254 -0.11982874 0.0089078614)
(0.71015391 -0.10695934 0.0088544664)
(0.71138092 -0.094114458 0.0088729697)
(0.71262345 -0.081373918 0.00887508)
(0.71389335 -0.068654319 0.0089257915)
(0.71518195 -0.055963552 0.0089608103)
(0.71652279 -0.043291637 0.0089999493)
(0.71786791 -0.03059204 0.0090384123)
(0.7192832 -0.017869082 0.0090499501)
(0.72071125 -0.0050964602 0.0090466622)
(0.72220312 0.0077442521 0.0090276147)
(0.72367782 0.020700301 0.0089570935)
(0.72533593 0.033711427 0.0088605629)
(0.71318839 0.048700678 0.0081897985)
(0.6998321 0.049881323 0.0079469943)
(0.68658174 0.051132301 0.0076810712)
(0.67334205 0.052337457 0.0074335057)
(0.66012911 0.053509441 0.0071613225)
(0.64693439 0.054640142 0.0068925949)
(0.63376465 0.055724844 0.0066213266)
(0.62062085 0.056764341 0.0063440532)
(0.60751594 0.057747825 0.0060720301)
(0.59445032 0.05868559 0.005795127)
(0.58143473 0.059563297 0.005524859)
(0.56847333 0.060391921 0.0052528758)
(0.55557191 0.061161092 0.0049867687)
(0.54274092 0.061877063 0.0047210065)
(0.52998292 0.062536362 0.004462381)
(0.51730606 0.063140613 0.0042067662)
(0.50471608 0.063688452 0.0039594848)
(0.49221708 0.064180571 0.0037159854)
(0.47981488 0.06461976 0.0034794512)
(0.46751538 0.065002094 0.0032489967)
(0.45532067 0.06533478 0.003024518)
(0.44323797 0.065611624 0.0028062936)
(0.43126692 0.065842201 0.0025928773)
(0.419416 0.066017928 0.0023857103)
(0.40768104 0.066151179 0.0021827819)
(0.39607431 0.06623439 0.0019838809)
(0.38457173 0.066281425 0.0017879095)
(0.37326393 0.0662379 0.00161499)
(0.3620026 0.066216532 0.0014129421)
(0.35092009 0.066109943 0.0012320115)
(0.33995212 0.065977498 0.0010428875)
(0.32912234 0.065800713 0.00085876774)
(0.31842558 0.065583647 0.00067291084)
(0.3078649 0.065326759 0.00048602358)
(0.29744078 0.065030527 0.00029790641)
(0.28715476 0.064694857 0.00010788808)
(0.27700841 0.064319891 -8.4540561e-05)
(0.26700354 0.063905377 -0.00027871074)
(0.2571419 0.063451344 -0.00047526271)
(0.24742588 0.062956959 -0.00067357885)
(0.23785768 0.062422438 -0.00087362285)
(0.22844028 0.061846659 -0.0010744264)
(0.21917615 0.061229704 -0.0012762839)
(0.21006888 0.060570562 -0.0014775591)
(0.20112139 0.059869315 -0.0016784487)
(0.1923376 0.059124908 -0.0018774602)
(0.18372081 0.058337802 -0.0020743945)
(0.17527522 0.057506943 -0.0022679044)
(0.16700444 0.056633033 -0.0024577103)
(0.15891274 0.055715699 -0.0026424123)
(0.1510042 0.054755226 -0.0028218252)
(0.14328202 0.053752748 -0.0029946302)
(0.13575236 0.052707324 -0.0031604515)
(0.12841588 0.051622801 -0.0033192261)
(0.12127931 0.050497262 -0.0034687087)
(0.11434656 0.049332644 -0.0036087487)
(0.10761569 0.048139169 -0.0037424109)
(0.10109283 0.046895508 -0.003862127)
(0.094793867 0.045630078 -0.0039724417)
(0.088694436 0.04434176 -0.004077087)
(0.082808279 0.043011307 -0.0041691962)
(0.077160278 0.041663015 -0.004246472)
(0.071711964 0.040299313 -0.0043165156)
(0.066486525 0.038913608 -0.0043824536)
(0.06147149 0.037500905 -0.0044306642)
(0.056694569 0.036094236 -0.0044776019)
(0.052112539 0.034665749 -0.0045018441)
(0.047765259 0.033245874 -0.004535548)
(0.043614949 0.031801668 -0.0045457132)
(0.039684777 0.030389264 -0.0045672065)
(0.035955769 0.028942999 -0.0045628285)
(0.032430873 0.027531886 -0.0045673714)
(0.029115727 0.026099616 -0.004556381)
(0.025999256 0.024721297 -0.0045481479)
(0.02305811 0.023306531 -0.0045349818)
(0.020337744 0.02193941 -0.0045055387)
(0.017773855 0.020573974 -0.004498483)
(0.015424066 0.019220008 -0.0044465743)
(0.013228327 0.017914287 -0.0044444104)
(0.011232168 0.016575504 -0.0043786428)
(0.009407239 0.015337059 -0.0043647133)
(0.0077404477 0.014012288 -0.0042762538)
(0.0062451321 0.012849399 -0.0042676366)
(0.0049241236 0.011547395 -0.0041572791)
(0.0037694274 0.010483883 -0.004135545)
(0.0027584313 0.0092326053 -0.0040016825)
(0.0019251597 0.0082024213 -0.0039258206)
(0.0012401136 0.0070381673 -0.0037629517)
(0.00070212254 0.0060775129 -0.0036437523)
(0.0003304413 0.0050364475 -0.0034239461)
(0.00010180032 0.0041221552 -0.0031753342)
(3.5480884e-05 0.0031733828 -0.0028578328)
(0.00012490334 0.0024732776 -0.0024692096)
(0.00025610685 0.0016385651 -0.0018318945)
(0.00086909239 0.0010038283 -0.0009197806)
(0 0 0)
(0 0 0)
(0 0 0)
(0 0 0)
(0 0 0)
(0 0 0)
(0 0 0)
(0 0 0)
(0 0 0)
(0 0 0)
(0 0 0)
(0 0 0)
(0 0 0)
(0 0 0)
(0 0 0)
(0 0 0)
(0 0 0)
(0 0 0)
(0 0 0)
(0 0 0)
(0 0 0)
(0 0 0)
(0 0 0)
(0 0 0)
(0 0 0)
(0 0 0)
(0 0 0)
(0 0 0)
(0 0 0)
(0 0 0)
(0.70607459 -0.15792442 0.0093037581)
(0.7060434 -0.15814341 0.0092850691)
(0.70599727 -0.15831883 0.0092675946)
(0.7059592 -0.15848966 0.0092631777)
(0.70591797 -0.15864598 0.0092631867)
(0.7058739 -0.1587904 0.0092781396)
(0.7058228 -0.15892455 0.0092905866)
(0.70576642 -0.15904797 0.0093149465)
(0.70570363 -0.15916568 0.0093308294)
(0.70563107 -0.15927014 0.0093486057)
(0.70556541 -0.15937728 0.0093610513)
(0.70547833 -0.15945078 0.009362826)
(0.70540234 -0.15953252 0.0093573392)
(0.70531911 -0.15958176 0.0093441146)
(0.70524467 -0.15963399 0.0093173925)
(0.72795293 0.049240615 0.0089253229)
(0.72793796 0.049164873 0.0089418755)
(0.72791505 0.04909478 0.0089212016)
(0.72789969 0.049010779 0.0089041217)
(0.72785963 0.048908149 0.0088827127)
(0.72782241 0.048800281 0.0088454893)
(0.72777485 0.048690097 0.0088111568)
(0.72771849 0.048570008 0.0087689538)
(0.72765332 0.04844787 0.0087291933)
(0.72757822 0.048319999 0.0086932967)
(0.72749631 0.048182645 0.0086606406)
(0.72740445 0.048040049 0.0086353466)
(0.72731351 0.047892607 0.0086333848)
(0.72720638 0.047700449 0.008602006)
(0.72712392 0.047565539 0.0086185642)
(-3.1688769e-05 -0.0013821185 0.0013748543)
(-0.00050559523 -0.0031843518 0.0017456879)
(-0.00096729246 -0.0048526306 0.0022332711)
(-0.0012024696 -0.0065056273 0.0025121332)
(-0.0015035955 -0.0081030125 0.0028443773)
(-0.0015022918 -0.009579967 0.0030665894)
(-0.0014889816 -0.010988763 0.0032673706)
(-0.0011951824 -0.012224552 0.0034450754)
(-0.00089412474 -0.013422116 0.0036070694)
(-0.00029942204 -0.014399041 0.0037550223)
(0.0003446463 -0.015350901 0.0038809407)
(0.0012473717 -0.01605455 0.0040329513)
(0.0022401346 -0.016734938 0.0041361911)
(0.0034703611 -0.017149118 0.0042793648)
(0.0048033182 -0.017526398 0.0043903216)
(0.0064016702 -0.017643183 0.0045288088)
(0.0081273966 -0.017687091 0.0046313724)
(0.010054402 -0.017505014 0.0047754385)
(0.012190792 -0.017193603 0.0048845803)
(0.01452375 -0.016692862 0.0050151766)
(0.017052562 -0.016032794 0.0051348597)
(0.019802465 -0.015201359 0.0052645625)
(0.022773172 -0.014189307 0.0053749187)
(0.025944503 -0.01301887 0.0055039426)
(0.029365509 -0.011668491 0.0056146358)
(0.033002788 -0.010161823 0.0057320731)
(0.036887053 -0.0084795922 0.005839043)
(0.040999495 -0.0066501269 0.0059478544)
(0.045368778 -0.004658319 0.0060473493)
(0.049978547 -0.0025199164 0.0061436885)
(0.054840121 -0.00024176179 0.0062337543)
(0.059956916 0.0021736309 0.0063164901)
(0.065326708 0.0047166303 0.0063959208)
(0.070946154 0.0073743526 0.0064682899)
(0.076829189 0.010147268 0.0065344418)
(0.082959829 0.013009183 0.006598425)
(0.089346997 0.015971666 0.0066535773)
(0.095976682 0.019004126 0.0067052955)
(0.10286102 0.022108213 0.0067553932)
(0.10998379 0.025268992 0.00680156)
(0.11734654 0.028472533 0.006847787)
(0.12493881 0.031705079 0.006889442)
(0.1327614 0.034969345 0.0069338679)
(0.14080585 0.03823313 0.0069760975)
(0.14906087 0.041502066 0.0070201546)
(0.15752751 0.044755758 0.0070668659)
(0.16619332 0.047984138 0.0071133547)
(0.17505413 0.05117781 0.0071654717)
(0.18410177 0.054324214 0.0072179164)
(0.19333027 0.057412432 0.0072753712)
(0.2027313 0.060433618 0.007334595)
(0.21229954 0.063374803 0.0073986748)
(0.22202702 0.066229176 0.0074641157)
(0.23190856 0.068983822 0.007534241)
(0.24193666 0.071633009 0.0076055896)
(0.25210655 0.074163686 0.0076805251)
(0.26241169 0.076571915 0.0077562987)
(0.27284731 0.078844994 0.0078343974)
(0.28340769 0.080978488 0.0079129775)
(0.29408872 0.082962913 0.0079922608)
(0.30488557 0.0847926 0.0080709511)
(0.31579326 0.086459532 0.0081496706)
(0.32680938 0.087958876 0.0082260328)
(0.33792918 0.089282134 0.0083023738)
(0.34914596 0.090431074 0.0083728682)
(0.36046581 0.091387307 0.0084428281)
(0.37187907 0.09216234 0.0085100204)
(0.38337349 0.092743015 0.008572812)
(0.39495727 0.09312541 0.0086334895)
(0.40662356 0.093309401 0.008686072)
(0.41836993 0.093296125 0.0087350207)
(0.43018819 0.093076621 0.0087782382)
(0.44208275 0.092660963 0.0088154089)
(0.45403829 0.092033833 0.0088503131)
(0.46606421 0.09121751 0.0088768736)
(0.47814299 0.090182482 0.0089031358)
(0.49028033 0.088974447 0.008919085)
(0.5024676 0.087537383 0.0089399839)
(0.51469684 0.085949967 0.0089447144)
(0.52697505 0.084130559 0.0089612605)
(0.53928015 0.08216806 0.0089604024)
(0.55162849 0.080001616 0.0089689838)
(0.56399718 0.07768006 0.0089665541)
(0.57639161 0.075186086 0.0089730388)
(0.58880287 0.072549067 0.0089653997)
(0.60123775 0.069749207 0.0089702611)
(0.61368358 0.066820296 0.0089700494)
(0.62613361 0.063766992 0.0089654537)
(0.63859639 0.060591945 0.0089701714)
(0.65105114 0.057291017 0.0089824493)
(0.6635165 0.053943137 0.0089636169)
(0.67596928 0.050456155 0.0089906829)
(0.68844147 0.046877326 0.008979828)
(0.70092562 0.04331726 0.0089489925)
(0.71346501 0.039494884 0.0089024133)
(-0.00068073736 -0.0035457354 0.0012886442)
(-0.0013970568 -0.0077628312 0.0015811902)
(-0.0019002656 -0.011367946 0.0019085748)
(-0.0025568677 -0.015340254 0.0022392967)
(-0.0029940595 -0.018905659 0.002453895)
(-0.0033415955 -0.022541698 0.0026361572)
(-0.0035172839 -0.025890003 0.0028170237)
(-0.0036127513 -0.029192708 0.002967239)
(-0.0034729636 -0.032215234 0.003122653)
(-0.0032216143 -0.035142791 0.0032253909)
(-0.0028071296 -0.037776287 0.0033929258)
(-0.0022013527 -0.040253377 0.0034568836)
(-0.0014477943 -0.042439307 0.0036258339)
(-0.00049972002 -0.044429817 0.0036948465)
(0.00061786828 -0.04612228 0.0038562233)
(0.0019646968 -0.047566026 0.0039073998)
(0.0034277314 -0.048730718 0.0040831808)
(0.005187094 -0.049603445 0.0041483104)
(0.0070819686 -0.050188285 0.0042918061)
(0.0092289221 -0.050482033 0.0043864009)
(0.011574155 -0.050461338 0.0045188635)
(0.014172784 -0.050146006 0.0046103404)
(0.01697315 -0.04951767 0.0047427687)
(0.020043426 -0.04858863 0.0048445971)
(0.02334185 -0.047351529 0.0049612929)
(0.026904626 -0.045811939 0.0050640683)
(0.03071644 -0.043974016 0.0051749676)
(0.03480066 -0.041845346 0.0052755147)
(0.03915111 -0.039426093 0.0053735691)
(0.043775027 -0.036734174 0.0054684123)
(0.048679865 -0.033769511 0.0055584823)
(0.053866067 -0.030550578 0.0056422941)
(0.059332414 -0.02708545 0.0057233176)
(0.065090017 -0.023387975 0.0057968173)
(0.071126527 -0.019476038 0.0058686664)
(0.07745118 -0.015358568 0.0059325751)
(0.084062895 -0.011058551 0.0059924324)
(0.090951997 -0.0065892248 0.0060535174)
(0.098113401 -0.0019730635 0.0061077214)
(0.10555286 0.0027818616 0.0061602633)
(0.11325151 0.0076397429 0.0062112275)
(0.12121512 0.012601173 0.006264644)
(0.12943461 0.017625234 0.0063084727)
(0.13789129 0.022708881 0.0063651719)
(0.14659041 0.027824728 0.0064147895)
(0.15551657 0.032950529 0.0064705207)
(0.16465918 0.038070528 0.0065278895)
(0.17401351 0.043161565 0.0065885965)
(0.18356566 0.04820519 0.00665132)
(0.19330848 0.053180327 0.0067191873)
(0.20323042 0.05807036 0.0067888188)
(0.21332388 0.062851664 0.0068631129)
(0.2235769 0.067512033 0.0069393284)
(0.23398271 0.072026552 0.007019747)
(0.24452976 0.076384272 0.0071014982)
(0.25521164 0.080562591 0.0071865468)
(0.26601783 0.084550804 0.0072720857)
(0.27694177 0.088327281 0.0073603061)
(0.28797451 0.091883966 0.0074476769)
(0.29911023 0.095200218 0.0075363179)
(0.31033938 0.098268232 0.0076239738)
(0.32165846 0.1010714 0.0077108398)
(0.33305878 0.10360079 0.0077965317)
(0.34453371 0.10584518 0.0078792096)
(0.35608161 0.1077961 0.0079595995)
(0.36769366 0.10944047 0.008040486)
(0.37935439 0.11078086 0.0081142768)
(0.39107349 0.11179264 0.0081882384)
(0.40284903 0.11248387 0.0082495683)
(0.41466512 0.11284929 0.0083121177)
(0.42652244 0.1128882 0.0083679455)
(0.43840991 0.11258717 0.008423781)
(0.45033012 0.11196649 0.0084697378)
(0.4622719 0.11099555 0.008520073)
(0.47423635 0.1097218 0.0085527636)
(0.48621303 0.1080881 0.0086000309)
(0.49820304 0.1061753 0.0086206034)
(0.51019865 0.10389779 0.0086649518)
(0.52219603 0.10137113 0.0086742093)
(0.53419541 0.098478182 0.0087189992)
(0.5461873 0.095366158 0.0087188643)
(0.55817443 0.091912966 0.0087577173)
(0.57015075 0.088235324 0.0087656856)
(0.58211452 0.08427256 0.0087827628)
(0.59407182 0.080100938 0.0087895358)
(0.60600005 0.075672521 0.0088174934)
(0.61791989 0.071058677 0.0088221894)
(0.6298074 0.066234596 0.0088459852)
(0.64169768 0.061217054 0.0088642316)
(0.65354102 0.056081471 0.0088617851)
(0.66539943 0.050753933 0.0088841395)
(0.67720885 0.045306164 0.0088858592)
(0.68905054 0.039774212 0.0088668766)
(0.70087311 0.034104118 0.0088494025)
(0.71277036 0.028355071 0.0088037448)
(-0.0010843943 -0.0051602323 0.0011341527)
(-0.0019179257 -0.010687243 0.001348259)
(-0.0028623731 -0.015991443 0.0017455878)
(-0.0035370973 -0.021226691 0.0019309094)
(-0.0041852003 -0.026328072 0.002090581)
(-0.0046317735 -0.031280387 0.002258789)
(-0.0050887436 -0.036113013 0.002404952)
(-0.0052181499 -0.040662583 0.0025320893)
(-0.0053543396 -0.045128873 0.0026336513)
(-0.0052500289 -0.049201394 0.0027819676)
(-0.0050224874 -0.053166142 0.0028454697)
(-0.0045797236 -0.056709178 0.0029937833)
(-0.0040258229 -0.060101172 0.0030617497)
(-0.0032286069 -0.063040176 0.0031960174)
(-0.0022749911 -0.065761738 0.0032542011)
(-0.0011361447 -0.068071931 0.003407637)
(0.00023633813 -0.070070525 0.0034704022)
(0.0017996367 -0.071672159 0.0035913834)
(0.0035697959 -0.072925587 0.0036894457)
(0.005581753 -0.073781096 0.0038025593)
(0.0078197783 -0.074249304 0.003892775)
(0.010284578 -0.074340563 0.0040154948)
(0.013009864 -0.074014396 0.004110013)
(0.01597658 -0.073317058 0.0042199406)
(0.019208063 -0.072198982 0.0043187228)
(0.0227008 -0.070715347 0.0044274322)
(0.026475639 -0.068821585 0.0045231346)
(0.030523252 -0.066563874 0.0046217309)
(0.034859889 -0.063920287 0.0047172559)
(0.039488108 -0.060926019 0.0048099532)
(0.04441412 -0.057569655 0.0048950601)
(0.049634117 -0.053884991 0.0049820138)
(0.055166701 -0.04986929 0.0050599634)
(0.060994404 -0.045553601 0.0051372692)
(0.067133561 -0.040944643 0.0052087802)
(0.073576314 -0.036066614 0.0052770744)
(0.080319178 -0.030941388 0.0053460668)
(0.087356655 -0.025586131 0.005409709)
(0.094709727 -0.020026016 0.005469792)
(0.10234387 -0.014290699 0.0055270489)
(0.11026809 -0.0083871786 0.005587949)
(0.1184698 -0.0023578445 0.0056398359)
(0.12694051 0.0037817694 0.0057057264)
(0.13567467 0.010004614 0.0057639371)
(0.14466177 0.016280929 0.0058241774)
(0.1538862 0.022588961 0.0058912052)
(0.16334433 0.028901903 0.0059559385)
(0.17302054 0.03519176 0.0060270313)
(0.18290504 0.041435238 0.0060995456)
(0.19298546 0.047604601 0.0061773799)
(0.20325162 0.05367675 0.0062558401)
(0.21368989 0.059624361 0.0063407745)
(0.22429076 0.065426999 0.0064253521)
(0.23504152 0.071056028 0.006515694)
(0.24593209 0.076494532 0.0066056596)
(0.25695136 0.081714442 0.0066995247)
(0.26808889 0.086699553 0.0067932595)
(0.27933517 0.091425238 0.0068891913)
(0.29068055 0.095876095 0.0069837617)
(0.3021152 0.10002897 0.0070802754)
(0.31363183 0.10387142 0.0071739033)
(0.32522125 0.10738258 0.0072679337)
(0.33687491 0.11055107 0.0073592853)
(0.34858692 0.11336106 0.0074478005)
(0.36035108 0.11579921 0.0075363952)
(0.37214946 0.1178561 0.0076176057)
(0.38400361 0.11953184 0.0077025133)
(0.39587579 0.12079443 0.0077701983)
(0.40776921 0.12164787 0.0078519899)
(0.41968407 0.12209577 0.0079218725)
(0.43160739 0.1221265 0.0079891098)
(0.44353773 0.1217428 0.0080537763)
(0.45547377 0.12094159 0.0081107178)
(0.46739628 0.11972657 0.0081679188)
(0.47931913 0.11809883 0.008218949)
(0.49121761 0.11605971 0.0082711852)
(0.503109 0.11362781 0.0083137259)
(0.51496556 0.11079072 0.0083635106)
(0.52680949 0.10758399 0.008399994)
(0.53861134 0.10398882 0.008446639)
(0.55039285 0.10005611 0.0084764759)
(0.56213388 0.095742462 0.0085277315)
(0.57383825 0.091142706 0.0085482717)
(0.58551761 0.086181497 0.0085959255)
(0.59714674 0.080960371 0.0086282032)
(0.60874769 0.075435194 0.0086672293)
(0.62030152 0.069676371 0.008690397)
(0.63183316 0.063641151 0.0087359408)
(0.64331965 0.0574394 0.0087448727)
(0.65477525 0.050994186 0.0087876847)
(0.66621092 0.044388476 0.0088033013)
(0.6776091 0.037650962 0.008812739)
(0.68901926 0.030740091 0.0088155659)
(0.70040342 0.023776098 0.0088006196)
(0.71181539 0.016702092 0.0087699361)
(-0.0012855181 -0.0057009424 0.00096172759)
(-0.0023307793 -0.011943718 0.0012134833)
(-0.0032236793 -0.017746912 0.0014109457)
(-0.0040113179 -0.023607847 0.0015504129)
(-0.0046850571 -0.029249018 0.0017233889)
(-0.005321024 -0.034835548 0.0018551722)
(-0.0056750832 -0.040111362 0.0019603941)
(-0.0060115571 -0.045325713 0.0020504604)
(-0.0061605514 -0.050196746 0.0022043722)
(-0.0061306489 -0.054897093 0.0022326899)