/*--------------------------------*- C++ -*----------------------------------*\
  =========                 |
  \\      /  F ield         | OpenFOAM: The Open Source CFD Toolbox
   \\    /   O peration     | Website:  https://openfoam.org
    \\  /    A nd           | Version:  6
     \\/     M anipulation  |
\*---------------------------------------------------------------------------*/
FoamFile
{
    version     2.0;
    format      ascii;
    class       pointScalarField;
    location    "0.89";
    object      E;
}
// * * * * * * * * * * * * * * * * * * * * * * * * * * * * * * * * * * * * * //

dimensions      [1 -1 -2 0 0 0 0];

internalField   nonuniform List<scalar> 
3969
(
94260.598
100337.59
-1848456.5
-847522.76
105456.38
110515.31
-1269249.8
-2765136.1
51701.102
21809.731
8078.0713
6280.9459
15955.564
39248.995
85286.232
-1021434.3
-1007553
-996213.57
-985062.31
-976012.04
-966560.5
-729034.83
100731.75
84715.946
85294.431
85230.401
83284.511
81002.693
76952.515
73325.569
68857.339
64704.208
60889.392
57043.598
53370.162
49829.596
46505.578
43161.937
40164.781
36978.704
34046.731
31050.343
28250.13
25447.796
22816.868
20223.208
17990.74
15743.328
13388.812
11516.46
9592.0281
7797.6832
6207.4613
4740.6079
3380.2908
2211.3672
1451.0608
197.59365
100.44237
-1204.9614
-808.78249
-2069.9798
-1558.0205
-1979.6315
-2357.7742
-1527.9229
-1840.0839
-3700.7862
-2825.7122
93116.828
68138.54
78823.519
76068.938
75548.372
71995.405
69430.132
65326.41
61917.544
57953.387
53919.944
50458.694
46761.664
43597.199
39760.318
36798.692
33618.342
30607.66
28076.318
25127.776
22691.609
20734.205
17522.164
15579.945
13276.647
11640.275
8802.5871
7187.219
5310.9572
4053.2898
2801.3382
1529.9941
566.214
-404.36835
-1030.2393
-1737.8812
-1982.3381
-2782.0197
-2775.3559
-3229.378
-3045.6766
-3117.2958
-3244.9893
-3152.9542
-2740.4131
-2656.064
-2056.3576
54255.371
24021.188
8239.8205
9911.4146
15079.804
36275.11
73212.169
148091.07
96475.811
79099.477
98501.762
83960.065
86373.039
80371.386
74311.758
70883.292
64199.837
64473.335
60819.031
59112.931
54990.729
51417.061
48595.228
44179.772
41439.667
37637.634
34375.344
31206.838
28308.741
25521.043
22876.496
19984.826
17878.816
12456.001
9609.5342
7544.9425
5189.0075
3211.2091
1486.4677
-138.80809
-1422.1483
-2742.0961
-5102.7662
-1687.0945
-5474.9056
-5889.656
-6478.9121
-7023.978
-7113.7947
-7666.8616
-7694.7624
-7699.0868
-6821.4688
-10114.69
-2039611.8
-1717688.1
-2079850.1
-1974169.2
-1997291.3
-1797734.8
-2188608
-11825.168
-6399.3414
-3341.8715
-3510.8659
-3657.6776
-4016.6784
-3856.7368
-3954.6049
-3691.1869
-2590.3268
-824.54621
-4372.2469
-1269.1727
-550.1746
593.68762
1963.2348
3226.6536
4955.3578
6550.7215
8508.5278
10369.202
12554.833
14881.65
17243.704
19732.298
22242.658
25050.101
27864.385
31010.771
34156.606
37561.573
41485.259
44989.817
48221.349
53066.419
56649.668
62179.482
65853.145
70081.251
74629.225
80468.642
81936.307
88659.891
86825.107
85771.783
89089.369
111067.18
75929.075
74114.445
73485.578
73273.484
73167.959
72706.471
77772.132
64034.325
68829.189
75708.426
78632.974
78483.784
81764.848
68211.905
-952629.61
-953270.99
-952915.53
-953371.75
-953338.19
-953349.72
-954214.47
-2077609
-2078137.9
-2078432.8
-2078521.9
-2078623.9
-2079567.1
-2080263.5
64055.565
56388.1
57379.737
56218.691
56383.068
54338.432
52430.349
49759.362
47010.835
44528.706
41944.755
39163.884
36810.724
34267.235
32019.384
29939.784
27888.056
25906.854
24120.499
22361.736
20690.719
18960.55
17376.197
15787.591
14172.506
12770.152
11089.855
10068.093
8551.1676
7487.0247
6392.0141
5378.7255
4454.2402
3631.6393
2882.914
2081.4053
1771.5949
1155.6367
771.99998
447.48321
413.79215
-481.74407
535.5244
-834.81818
315.25189
1085.8239
1400.9449
29077.319
27055.328
28996.518
28793.65
28430.045
27650.63
25951.241
25120.523
23459.364
22331.466
20841.133
19546.203
18712.06
17866.685
17038.986
15886.228
14934.851
13896.173
12900.531
11981.913
11157.173
10304.329
9451.7447
8677.4394
8032.5139
7345.4835
6442.5904
5995.553
5227.4236
4751.8623
4188.2087
3686.0478
3218.8195
2843.723
2527.3238
2055.867
2129.8059
937.28073
1815.6355
588.51047
1262.8044
667.78195
1013.0355
104.19161
2178.4387
-111.68291
2103.4972
10823.949
7328.8896
10072.541
8991.3084
9791.5868
9295.9405
9333.7242
8863.1604
8314.8066
8141.8536
7677.1393
7001.0242
6618.6743
5928.7693
5691.3905
5243.3158
5047.323
4582.1446
4386.9896
3916.9758
3373.8323
2843.9047
2371.2585
2161.392
1708.5073
1386.9314
1528.3903
1234.5106
1051.8752
958.88221
717.35096
695.69099
469.96477
456.60527
219.74208
330.09373
28.359323
599.66474
507.12189
235.93227
762.62461
-26.905079
669.34214
295.63088
1495.7522
17.266789
2683.9146
5208.2855
1109.725
2407.9575
2578.696
3068.3557
3308.6933
3148.489
3697.4853
3271.3158
3282.8829
3068.1201
2950.8929
2987.6107
2748.0731
2584.2815
2256.8909
2185.2178
2115.2227
2008.338
1941.5933
2218.1356
2516.6804
3002.6374
3205.9999
3183.5342
3168.9292
2848.4045
2805.3415
2752.5429
2680.7847
2525.4884
2502.3045
2264.1217
2156.6204
2139.5533
1652.9051
1876.6604
1284.5447
1076.0234
761.26552
885.91099
417.41255
991.74805
190.72202
1377.6798
-304.49992
2799.2821
13621.929
7241.4616
7660.4434
6668.8522
6812.1744
7033.1697
6553.3731
6571.5209
6222.8066
6122.4231
5976.3619
5442.6737
5028.0571
4573.2166
4430.1293
3951.7681
3767.3637
3355.8292
3115.9724
2684.608
3321.1931
1837.7906
1418.6053
1499.2496
1264.9617
878.5073
955.71445
898.06259
713.21702
611.96025
491.97346
445.32904
327.4212
287.49276
75.449065
304.04175
-211.76346
265.34849
-41.298487
42.564443
-385.58467
-24.781525
-68.165442
264.29317
231.82112
496.79483
3416.5841
34163.31
27296.487
27332.239
26694.903
27689.285
27265.642
26777.794
26025.049
24766.811
23851.467
22362.846
21680.054
19707.78
18905.764
17445.418
16465.324
15218.968
14275.218
13302.596
12335.653
11207.466
11284.154
8819.7252
7281.9911
6558.5434
5920.0059
5156.7742
4810.5302
4203.2161
3784.888
3281.1064
2935.0091
2500.2437
2141.2191
1921.7604
1429.0579
1542.3906
827.1923
890.26508
987.32658
1008.7823
1202.7087
702.05188
920.26229
576.02865
-7.9580508
2346.6338
54371.703
48941.511
48103.26
49996.187
50499.493
49972.276
48366.972
46554.206
44736.975
42044.007
40486.458
38208.728
35857.134
33231.384
31221.55
28951.483
26926.502
24921.947
23028.587
21187.109
19906.397
17242.246
17174.248
14471.244
14013.589
12461.371
11234.578
10200.746
9060.5563
7946.2934
6794.021
6007.6888
4964.7211
4306.6074
3389.4472
2893.237
2175.9258
2110.4248
1492.8701
1259.4953
919.67379
733.2382
598.25896
1126.4536
227.86235
1876.0936
1844.7786
32175.943
33126.45
28341.772
28329.556
28696.189
29584.408
36783.849
13888.294
12179.133
11081.271
10901.908
11316.807
12110.464
15871.794
4543.4692
3041.2251
1832.8271
2173.8552
1887.8532
2514.879
4548.9541
2841.7366
1326.5731
798.43343
701.34314
1162.6857
2371.2763
5059.0981
6200.1152
3959.3343
2859.5685
2655.1795
3189.2547
4505.0056
7579.9729
20480.44
14895.561
12801.292
12196.293
12854.794
15407.789
22860.979
37994.191
39175.715
31975.47
33282.332
32625.727
35775.597
47613.573
109346.61
96013.743
103637.08
110851.61
111224.91
119021.02
116597.76
96513.845
98916.354
93063.023
91174.386
99292.991
101865.69
104105.69
88755.293
92070.25
93470.797
93778.858
93748.895
94726.198
96102.1
88730.801
98488.727
98172.068
100241.6
100997.49
100533.37
93837.182
85171.17
87975.195
92676.389
93305.842
92901.252
89598.479
88006.727
82043.473
84567.355
87546.044
89349.502
88909.659
85842.524
83327.47
76564.179
78841.849
82706.776
83131.186
82957.324
82825.843
80012.672
73881.086
74125.513
75802.667
76451.06
76303.874
74432.687
73011.335
68715.565
68955.376
71784.832
72118.07
72162.935
71276.24
70593.775
65563.608
64989.758
65564.326
66500.338
65630.014
64411.141
64830.446
61074.657
60829.865
62489.144
61752.702
62121.856
61842.976
61477.105
57364.175
56305.365
56964.386
57731.583
57799.206
54952.607
57850.803
53644.75
52431.69
54061.479
53079.107
53020.487
52654.006
54477.128
49009.754
48552.666
49793.691
49260.321
50766.657
47768.691
50828.359
46361.284
44918.729
46453.803
45921.647
45765.638
44944.66
47245.026
42394.3
40824.808
43495.353
41855.29
43555.897
41739.763
44174.462
39217.782
38417.025
40004.486
38894.779
39902.919
38112.231
40451.63
36155.888
34769.212
37265.909
35686.367
37106.965
35525.694
37670.295
33013.294
32151.22
34462.759
32490.814
34085.38
32205.375
34545.245
30234.977
29247.035
31598.185
29722.665
31357.979
29639.991
31947.128
27585.404
26460.878
28921.585
26783.677
28560.822
26705.791
29120.356
24912.483
23893.162
26208.186
24193.518
25885.137
24085.468
26593.216
22258.059
21370.025
23422.708
21593.682
23158.246
21647.208
24161.652
19682.102
19037.999
20888.05
19142.783
20554.636
19225.436
21533.44
17210.257
16792.676
18150.903
17268.867
18140.122
16666.154
18835.174
14887.555
14810.801
15545.085
14963.783
15808.078
14580.521
16907.525
13329.992
12782.511
13625.329
12895.219
14941.595
12372.239
13844.116
11923.622
10686.009
11815.886
10616.382
11658.383
10166.651
11333.087
9758.0134
8912.8488
9797.3907
8764.8527
9588.5373
8627.4245
9245.8822
8306.4453
6967.0388
8324.4582
6724.8513
7915.4247
6450.9479
7258.6891
6426.1418
5528.8258
6493.3042
5070.9609
6068.3854
4739.1103
5543.8312
5073.9469
4012.5704
5007.3076
3557.7055
4628.2561
3232.5395
4016.8685
3691.211
2745.0181
3650.1815
2272.5272
3180.7437
1775.3689
2522.6605
2424.9174
1542.3641
2382.609
1013.2001
1927.5897
609.67494
1307.8489
1395.6397
678.08112
1349.5302
113.49856
792.59303
-480.3496
162.35377
479.70091
-355.80365
475.50837
-946.29489
33.066359
-271.38446
-855.17963
2.055148
-799.99755
-507.25848
-1328.1995
-749.98947
-3173.6636
-1614.1471
-1806.0558
-1654.0882
-1449.3398
-2077.4795
-1965.2415
-1875.1146
-2388.9448
-1565.2189
-2079.1407
-1543.0992
-2718.2984
-2001.0455
-3258.1006
-2868.0884
-1784.593
-2588.5646
-1969.139
-3082.5793
-2511.5668
-3730.6067
-3378.7888
-2418.6432
-3010.9987
-2433.6587
-3558.7372
-2961.9183
-4056.089
-3811.3099
-2540.8191
-3107.2056
-2508.4466
-3473.772
-3035.7031
-4131.009
-4121.9859
-3070.1521
-3703.7957
-3097.7678
-4045.4374
-3594.4142
-4553.2804
-4423.3854
-3121.9212
-3639.7735
-3077.9432
-3840.1791
-3581.999
-4442.1018
-4652.2781
-3035.2444
-3380.4398
-2914.8943
-3645.086
-3286.1048
-4092.1883
-4385.2573
-2597.9464
-3109.5108
-2515.3156
-3151.4867
-2883.2448
-3574.1143
-3707.3
-4804.6485
-4472.8529
-4323.6702
-4562.2552
-4511.3882
-4960.6811
-5169.6167
-1244190.1
-1367273
-1367173.3
-1367385.6
-1367511.6
-1367382.3
-1367074.1
-1350038.5
-1348514.1
-1348265.8
-1348578.4
-1348440.8
-1451151.9
-1348456.8
-1434195.6
-1329599.4
-1329810.4
-1329700.2
-1329560.5
-1206966.5
-1329472.2
-1316718.1
-1315591.6
-1316637.1
-1316351.2
-1316755.5
-1316062
-1316219.1
-1302582.8
-1183714.6
-1301895.3
-1301771
-1301335.2
-1301232.2
-1301333
-1172962.7
-1388451.3
-1289746.4
-1289436.8
-1388697.6
-1289113.9
-1289017.2
-1374151.8
-1275223
-1276053.3
-1275638.8
-1159172.2
-1275678.8
-1275770.3
97772.269
88349.21
83376.481
80900.873
82493.674
84670.73
87385.878
93946.101
87703.563
87196.6
86060.962
87083.498
88877.243
90833.53
92137.448
91916.157
90896.862
89959.674
90871.501
90306.031
89661.434
89131.24
89929.271
89967.82
89968.139
89368.782
88083.76
88655.608
87043.458
86553.445
87022.196
86579.521
86120.873
84815.69
84396.607
82046.701
82144.986
81754.591
81684.63
81469.774
80589.015
80997.698
79073.992
77984.329
77470.962
76408.788
77052.355
76821.629
77394.266
73743.168
72944.714
72494.477
72404.636
71746.407
71688.981
72379.053
70337.679
69142.393
68687.499
68159.056
68396.692
67612.501
69236.563
65549.731
64283.739
63828.285
63150.712
63241.705
62825.502
64072.696
61625.453
60631.951
60628.263
59532.248
60075.941
59147.886
60260.848
57702.655
56666.483
55862.342
55768.674
55198.752
55255.516
55935.798
53878.345
52861.283
52615.542
51842.82
51504.179
51150.019
52165.872
50171.903
49209.793
48890.019
48087.012
48348.356
48391.315
48564.739
46958.571
45726.846
45396.921
44863.85
44899.358
43635.227
44510.944
43335.574
42587.887
42322.223
41433.83
41243.726
40751.579
41175.836
40090.931
39430.445
38934.822
38490.414
38245.273
37633.789
37742.101
37153.83
36336.558
36096.162
35372.96
35151.698
34524.183
34507.499
34076.881
33510.172
33103.856
32531.536
32280.359
31531.032
31532.578
31266.992
30704.68
30284.566
29786.608
29442.767
28763.433
28678.08
28519.138
27984.565
27604.687
27048.184
26737.358
26050.504
25958.557
25830.913
25265.735
24937.933
24479.481
24231.643
23500.434
23287.225
23302.605
22649.207
22435.667
21977.012
21760.176
20967.87
20859.779
20807.913
20242.909
20083.749
19612.186
19518.123
18582.588
18440.527
18598.51
17883.91
17764.573
17381.337
17179.59
16326.842
16202.11
16338.319
15621.531
15632.398
15193.629
15089.372
14199.869
14204.049
14007.458
13486.033
13578.461
13052.327
13024.119
12132.28
11992.112
12222.089
11459.883
11545.423
11121.477
11110.721
10196.067
10130.59
10147.072
9433.8719
9706.8535
9299.6983
9178.8988
8353.3241
8301.3873
8321.3489
7881.1306
7953.6684
7514.6939
7540.9617
6745.2063
6652.2482
6746.2581
6098.6841
6293.2208
6025.5036
5931.6504
5116.2035
5075.717
5121.7644
4672.2518
4853.9711
4508.2908
4431.9616
3777.1733
3702.1992
3769.881
3354.5025
3486.058
3284.6098
3221.9169
2486.8657
2462.0552
2557.3672
2091.5905
2304.1894
2129.9078
2013.8044
1460.0794
1416.7621
1504.177
1161.2236
1325.6419
1142.8123
964.1417
296.1685
540.80268
504.66231
114.31209
407.89529
207.16973
198.64905
758.98588
-212.23102
570.08027
-541.89758
-169.8951
-553.25918
-308.67069
-2469.4256
-873.20246
-1368.9221
-1176.2833
-1017.2923
-1193.3142
-1247.6251
-1110.3156
-1382.1639
-1278.5958
-1187.8305
-1261.9894
-1216.0288
-1503.1854
-1786.6093
-1724.7802
-1554.6857
-2083.4889
-1842.0596
-1826.8308
-2027.3822
-2232.2245
-2062.8727
-1826.1229
-1901.6603
-1736.7903
-1859.9452
-2006.7288
-2369.8663
-2097.7193
-1733.4137
-1969.3691
-2029.0272
-1767.0558
-2110.6577
-2313.499
-2138.9856
-2156.5635
-2794.6814
-2320.6146
-2378.0245
-2483.7639
-2432.6059
-2011.3668
-1760.0185
-1561.4569
-1678.4591
-1531.7752
-1848.2257
-1773.72
-1996.1139
-1462.1814
-2493.6195
-2081.6429
-2283.0263
-2346.8093
-2315.0844
-2264.3751
-5151.1888
-4515.0792
-4587.626
-4424.1138
-4751.4952
-4927.2716
-4798.6116
-5912.8773
-7596.6747
-7706.5547
-7826.3612
-8064.7183
-7763.3789
-7952.1045
102068.37
75433.801
70398.619
69493.5
70910.432
67122.225
66104.722
61840.703
59451.423
56157.926
52775.907
49557.379
46164.907
43498.675
39932.4
38361.082
35001.877
32394.089
30002.302
27579.633
25282.109
23098.766
20918.745
18862.199
16975.235
14948.568
13480.315
11530.501
10074.463
8618.0819
7239.315
6025.5396
4843.9523
3840.7736
2915.4403
2209.4876
282.68249
1233.6947
-58.535315
-563.00373
-864.94375
-1355.3979
-1545.2597
-1774.801
-1019.6884
596.69341
3046.3595
44946.555
45806.838
37247.795
38918.589
38319.447
35714.137
35218.19
33123.956
32249.421
29441.967
28558.888
25940.107
24661.236
22732.177
20799.153
19875.642
18008.739
16689.982
15549.537
14189.236
13031.475
12011.082
10897.08
10051.757
9026.2353
8072.3563
7595.9414
6719.9253
6078.2899
5383.2397
4800.1721
4310.8485
3799.0592
3407.5402
3036.2623
2620.3897
2455.6929
2200.9828
2071.7956
1904.2627
2204.1758
1884.6396
2232.8782
1900.5714
2707.6321
38.99675
3943.8296
15581.562
17041.947
14745.764
16294.602
15092.169
11546.021
14038.052
11057.236
11817.375
10589.19
10153.525
9982.8605
8663.5176
9735.255
8889.8945
8406.7732
7769.655
7114.7833
6857.2563
6083.4696
5758.1706
5259.4011
4854.4964
4383.8296
4018.8455
3467.2057
3401.621
2778.3808
2555.3956
2248.2699
1973.6333
1674.6405
1413.183
1150.7878
873.1649
646.01827
302.46282
284.55447
-96.127339
-85.096699
-353.50442
-329.65915
-557.08415
-152.56076
-787.76211
-220.79327
2232.6504
5211.6896
5174.643
1914.8441
7370.2855
2477.6847
5381.6205
1763.1594
2394.0543
3507.8422
1456.4229
3401.3972
1207.064
2513.4713
2073.767
2299.1045
2521.6052
2051.9945
2116.4474
1988.5653
1861.5218
1735.5952
1765.143
1516.5123
1669.4084
1484.2307
1675.9135
1596.5723
1673.4095
1664.9091
1671.5727
1584.8439
1584.777
1593.6607
1419.9897
1503.2683
1330.0832
1415.6053
1288.8203
1391.7886
1089.1619
1560.7093
1016.7881
1737.9588
873.7316
2071.874
-260.16179
2939.5163
12740.371
2905.7758
5182.918
4009.1226
4434.0489
5015.7882
4989.2606
5356.2651
3747.0537
4999.0562
3378.8697
4325.9893
3749.7393
3496.9897
3946.3358
3464.156
3643.0421
3301.6669
3348.71
3017.5212
3004.191
2756.7349
2858.1667
2579.8319
2489.5707
2410.3988
1998.8577
2004.1039
1743.5631
1626.8771
1460.1059
1386.0666
1163.8651
1018.5671
961.17282
678.87967
672.86213
558.84246
220.86753
516.97171
155.20998
401.29387
175.85437
564.49264
75.370968
222.63013
1394.7941
29207.493
23098.447
16770.642
22789.622
17464.015
21957.847
19447.578
18650.132
20581.293
19221.435
21991.189
19478.944
19577.547
18241.959
17215.821
16318.358
14943.024
14089.99
12942.867
12187.142
11189.49
10467.342
9659.1204
8524.6477
7459.5432
6515.1212
6099.2226
5451.0088
4992.8185
4529.9951
4109.4472
3648.1216
3320.903
2922.7339
2680.3078
2161.6048
2181.4244
1481.392
1826.6282
1183.494
1360.1305
945.27018
1201.3082
778.74938
1302.4889
763.90855
1441.7603
83000.682
48142.783
55565.846
48545.874
52440.786
51470.356
48748.517
50457.571
44935.637
45392.521
40743.831
41130.965
37128.835
34644.73
32642.053
29780.384
28383.157
26111.572
24439.056
22531.914
20726.896
18706.868
17064.556
14671.368
15052.826
11684.829
10473.919
9381.9542
8152.5006
7097.3824
6050.0456
5150.9639
4257.7609
3513.9419
2700.9167
1955.5154
1917.1132
1496.7798
1015.1592
873.81165
789.796
747.98885
849.05494
1181.2534
1027.7735
2197.9312
-90.49014
80065.651
67837.705
66102.15
65020.985
65611.922
65641.919
67714.735
71762.994
73446.847
68889.222
68563.672
67811.412
69314.781
70061.693
66993.206
70476.696
70169.743
69426.224
69295.948
69127.435
68349.68
65500.259
67107.25
67146.746
67380.773
66601.036
66343.818
64651.198
63217.586
65207.39
65672.591
65655.242
65327.544
65272.63
64200.892
60517.695
60859.53
60605.697
60851.297
60277.096
60188.558
60348.181
58446.879
58823.992
58682.712
58356.213
58118.907
58639.446
58871.241
54805.739
54615.424
54198.512
54200.872
53941.684
54061.19
54781.112
52435.207
52596.185
51642.372
51676.034
51220.986
52000.148
52876.887
49093.847
48747.179
48282.815
48037.702
47705.165
48454.01
49225.302
46398.747
46380.648
45633.729
45279.23
45437.454
45643.426
46886.275
43638.053
43057.391
42755.447
42540.349
42320.143
42858.687
43873.95
41105.56
40759.916
40107.702
39671.18
39973.98
39947.312
40717.13
38289.983
38020.614
37670.963
37344.084
37420.945
37596.656
38712.002
35895.463
35813.048
34891.027
34821.577
34693.134
35374.364
35557.609
33559.557
33453.2
32804.94
32661.289
32564.329
32591.79
33287.448
31224.302
31137.813
30575.939
30151.973
30324.46
30604.703
31187.666
28981.902
28929.598
28421.139
28039.832
28192.149
28346.648
28663.486
26885.248
26785.027
26363.562
26022.767
26186.732
26236.791
26679.009
24892.391
24739.799
24373.545
24076.896
24103.902
24229.776
24600.868
22985.336
22700.594
22482.142
22150.969
22246.347
22338.297
22624.328
21205.374
20838.001
20656.372
20353.889
20423.519
20465.732
20700.655
19463.046
18959.691
18943.092
18631.57
18601.627
18597.384
18908.77
17815.509
17222.446
17378.64
16919.456
16856.905
16961.087
17119.538
16064.869
15486.22
15486.947
15320.544
15108.322
15172.829
15459.978
14310.213
13851.351
14052.174
13720.55
13480.069
13708.245
13582.782
12839.371
12274.34
12311.669
12196.35
11910.626
12150.208
12168.634
11400.244
10851.015
10890.83
10778.479
10539.361
10681.288
10678.378
9863.764
9348.1702
9612.6546
9327.0024
9187.2801
9316.5806
9282.9114
8560.7879
8056.5948
8272.6461
8077.4723
7912.4303
8066.6552
7984.2818
7314.5846
6849.1649
7056.3863
6910.9414
6728.7656
6899.6514
6780.5952
6161.9952
5694.1117
5981.2778
5808.9342
5646.4664
5836.8755
5642.1399
5107.9079
4757.1609
4919.8364
4837.7976
4657.8089
4821.0908
4693.4237
4189.1854
3744.0835
4045.2005
3925.618
3784.0768
4023.6105
3760.5634
3257.1499
3090.3106
3206.5785
3167.6326
3070.0002
3094.53
2896.5846
2682.3758
2269.7622
2480.7065
2455.3717
2233.7293
2248.5937
2181.8018
1603.4873
1581.8094
1884.2863
1679.2419
1811.4415
1915.5803
1976.6962
1672.4885
1078.3646
1417.5286
1511.0945
1134.0237
1317.5
919.91241
401.15457
635.91446
670.96497
773.53871
857.90197
848.429
778.03507
726.9941
378.85725
534.84669
577.91847
309.61198
523.78319
-15.438732
-217.79624
-140.90987
-37.656183
105.31399
119.62996
187.01125
-201.90128
-256.67366
-327.40778
-293.95702
-100.56067
-469.14657
-165.18881
-593.82285
75.094565
-207.00898
-7.1697597
5.463212
47.0355
70.083399
-679.39605
-1050.2406
-829.6534
-953.93908
-480.6706
-986.85063
-869.28115
-1261.3693
147.8712
-429.36384
286.76797
182.13656
182.75268
370.04852
-337.80238
722.39712
1622.3453
1401.0471
1689.1876
1478.5673
1589.1305
1277.4145
2409.1501
1337.7353
2416.8697
2104.4841
2333.3881
2094.6277
2377.4199
36042.992
28535.368
26134.392
25231.967
25093.73
25458.312
27716.359
38169.326
40530.585
38573.505
38470.943
38524.418
38715.204
39688.926
35825.587
36528.61
36998.019
36344.928
36436.652
35278.583
34948.865
35611.382
37005.033
37770
37655.55
37139.759
36493.869
35143.738
33655.091
34013.619
34504.445
34085.971
34209.557
33453.836
33109.217
32740.589
32936.658
32194.601
32105.748
31801.894
31465.713
31530.448
30405.717
30736.955
30682.554
30393.616
30360.144
30276.641
30188.186
29356.35
29306.204
28405.037
28114.71
28141.472
27876.57
28392.884
27658.652
27725.613
27235.706
26907.725
26819.978
26994.744
27315.257
26329.882
25901.808
25330.734
24788.122
25177.347
24970.072
25228.827
24709.651
24698.994
24012.242
23773.418
23800.952
23906.549
24040.056
23379.334
23065.999
22450.564
21983.482
22027.996
21903.021
22036.235
21976.813
21713.786
21211.356
20992.639
20767.943
20916.269
20838.101
20793.614
20305.18
19865.657
19330.807
19394.893
19125.848
19469.514
19724.015
19200.331
18614.199
18215.249
18311.121
17689.863
17994.282
18466.033
17779.205
17355.887
17081.442
16997.734
16600.011
16736.163
17281.267
16785.56
16101.644
15896.742
15761.644
15458.718
15642.358
16168.02
15611.986
14926.954
14966.51
14661.608
14351.548
14251.475
15095.195
14570.286
13957.218
13815.31
13620.855
13226.528
13344.436
14007.813
13572.664
12886.593
12847.28
12545.774
12250.444
12280.739
12916.296
12537.124
11984.277
11833.16
11589.274
11317.489
11222.234
11861.115
11635.551
11064.559
10948.92
10701.642
10349.983
10330.071
10937.968
10582.008
10130.477
9998.9532
9665.8606
9502.9029
9409.523
9978.2508
9627.932
9310.8519
8973.4072
8922.0444
8836.0182
8628.6535
9118.3109
8763.8017
8458.4556
8050.6873
8138.3483
7856.8709
7679.2516
8344.666
7896.7358
7612.4679
7534.4503
7088.8927
7361.8512
7111.1434
7248.4234
7490.1665
7027.7663
6530.1282
6818.2623
6667.8288
6501.4698
6896.3351
6421.4958
6027.8479
5909.5935
5949.2907
5968.801
5759.7775
6103.0095
5615.5075
5731.342
5201.5925
5300.7474
5388.4254
5049.2563
5515.9095
5153.9286
4991.1668
4611.0568
4734.5758
4781.3468
4498.5696
4883.342
4406.4602
4460.7844
4070.4495
4152.8384
4263.3193
3942.6521
4331.7706
3946.5436
3950.5131
3564.1946
3616.0169
3787.8452
3468.7378
3830.7207
3400.9941
3441.3004
3065.2043
3192.0605
3374.1387
3034.4971
3368.5041
2981.1773
3014.5037
2718.1407
2773.8671
2921.9042
2604.537
3035.1001
2591.6045
2614.6127
2353.4534
2313.7436
2566.9222
2361.0159
2497.2051
2081.0999
2256.6157
1978.4319
2040.6268
2387.8202
2123.9116
2524.7846
2269.9857
2061.7478
1910.2007
1759.0155
2073.3574
1640.2837
2044.5545
1145.7799
1756.2816
1271.4303
1592.4631
1780.8353
1625.9685
2244.8075
1904.2083
1864.5202
1603.0243
1464.482
1795.9002
1513.2811
1743.7615
807.96065
1389.9404
987.20739
1172.77
1492.1404
1203.4972
1731.5277
1552.7166
1634.9485
1426.1891
1362.9928
1571.7276
1419.5552
1826.5633
933.17551
1407.5693
990.89063
1021.8149
1357.765
1138.51
1410.1808
1205.4188
1434.1514
1255.6853
1406.453
1624.4027
1380.8281
1126.1314
619.19858
1025.3067
748.8865
557.34032
800.78777
762.49431
2380.5767
2105.0758
2219.3859
1849.9766
2015.0241
2608.1973
2481.2909
-75.105684
-408.6821
-59.689683
-370.00883
-480.46422
-325.12847
-1096.9028
3903.0772
2817.3224
2863.0859
2440.9796
2617.3071
2345.2288
3032.9394
13635.155
10603.748
9155.9174
8793.4791
8272.0954
8776.6571
8910.9638
12407.876
13824.588
13148.825
13259.135
13129.256
12831.776
13192.034
14048.32
14108.426
13803.718
14112.371
13660.197
13468.313
13045.351
12588.056
13839.968
14867.104
15244.266
14627.29
14724.275
13506.554
13289.306
13648.636
13361.869
13256.572
12995.402
12532.901
13172.797
12040.59
10961.189
11003.407
12065.604
11283.906
11116.753
11303.453
13082.761
11475.498
11962.987
12009.651
11711.402
12609.271
12121.46
12148.349
10404.147
9918.2451
9662.139
9662.2703
9925.0323
9835.6699
11511.195
9816.9968
10089.126
10139.629
10021.503
10704.928
10516.849
10859.164
9118.7202
8894.0515
8764.2963
8681.0432
9241.9029
9326.0931
10293.85
8599.6383
8648.3574
8462.3379
8341.8642
8671.1918
8668.2725
9733.6803
7675.1033
7745.0558
7767.1595
7986.1169
8306.6107
8849.2123
8917.4937
7171.4185
7500.0992
7226.4569
7367.7578
7434.5437
7883.158
8073.8844
7114.2795
6797.8087
6699.994
6981.3531
7064.1709
7401.8684
6774.7929
6568.0253
6601.7444
6414.0412
6187.5376
6702.5165
7120.2101
6251.7403
6005.3998
6107.1986
5858.6473
5948.7628
6097.9587
6648.1272
5916.1152
5615.706
5796.0374
5504.1186
5405.2849
5750.0563
6326.6928
5434.003
5151.7323
5390.09
5068.1218
5081.5368
5334.7145
5689.4061
5142.851
4842.0096
5052.3349
4748.5111
4708.4216
4945.2277
5560.743
4730.0478
4385.9652
4626.1635
4369.4623
4321.8113
4605.5983
5036.0987
4477.1227
4135.982
4330.3416
4092.2047
4140.922
4283.58
4802.2403
4151.9296
3815.7934
3955.3828
3732.4738
3694.5379
3920.6298
4425.9716
3877.309
3559.2382
3737.009
3341.634
3562.904
3693.3291
4230.1473
3792.1658
3337.5339
3492.2275
3220.4265
3363.4375
3278.4608
3710.8877
3548.2461
2969.9863
3289.1997
3004.2239
3179.104
2931.3101
3675.5482
3282.7685
2826.2259
3129.8523
2642.5021
3041.1247
2653.2065
3189.1679
3160.951
2519.1337
2675.1143
2398.3532
2825.1292
2257.9202
2963.9264
2724.1499
2287.0466
2595.9251
2268.0959
2490.0062
2118.2603
2654.8034
2643.5986
2050.0559
2345.7068
1921.8985
2405.0069
1872.1073
2383.6483
2388.1121
1864.1907
1961.7911
1782.4843
2091.9077
1578.8115
2161.205
2117.7264
1513.5745
1869.3678
1564.7049
1898.8631
1456.5253
1924.2767
1947.4198
1389.1215
1654.0598
1280.3979
1703.6194
1195.2784
1674.9348
1692.0513
1141.2924
1406.5883
1135.7537
1518.529
998.50493
1435.9577
1584.6892
969.81431
1267.8058
945.58301
1286.4155
788.83617
1318.9369
1271.3096
683.61965
1070.5047
731.57327
1121.5222
757.70116
1016.4398
1275.6007
773.5909
1053.695
605.99628
1099.2888
442.61657
880.53859
880.00282
274.72031
604.81012
431.234
780.64841
339.0341
676.35793
936.40871
453.89218
885.46282
390.2998
844.2276
229.62039
574.69983
388.61424
336.46537
273.55661
230.34148
487.41266
73.877252
418.52182
641.32628
30.895978
469.36461
147.85121
586.61123
130.73133
315.7249
323.56504
453.60856
266.38437
258.82848
322.76319
-69.216845
92.668935
275.46251
-243.52303
39.200196
-112.77916
150.72995
5.672953
181.58712
199.40491
328.3555
149.29229
179.808
212.49074
-10.979784
-198.05213
434.16606
209.87435
208.60934
231.51297
203.22936
65.736683
221.59338
562.42094
349.54067
198.60447
325.61555
236.80125
517.38899
-18.112764
115.26259
164.21519
519.17981
540.43531
650.64807
579.78446
-235.04039
2656.8804
1653.8667
1676.868
1198.3187
1655.0491
1056.9723
1417.5562
4751.3083
3786.6556
3093.4503
2940.1612
2644.0254
2541.3602
1634.0831
3349.4226
5429.3546
5721.216
6168.6421
6027.7627
5357.9032
4789.2049
3437.4915
3545.4729
3222.793
3418.5003
3271.9661
2894.5273
1867.9568
3915.4653
6389.6812
7973.6239
8707.8706
8644.5098
7867.1622
6576.0761
3548.6653
3554.0311
2324.9047
1929.3473
1696.8207
1622.3833
1848.603
3821.9722
4822.8124
4978.7879
5610.7061
5851.641
6111.9683
4995.3475
3475.0458
3288.806
3027.4836
3144.0433
2912.8848
2336.5316
3291.585
4201.0056
3657.6686
3135.8714
3387.4144
2975.1902
3249.5466
3239.1629
3618.7689
3529.7445
3380.8252
3426.0593
3859.9638
3328.7209
4219.9358
3878.1966
3748.0428
2375.8041
2668.1363
2131.9765
1954.9766
2189.4422
3295.431
3216.0473
3209.4234
3120.505
3783.2855
3443.6558
4118.8941
3398.8717
3620.0171
2416.8648
2375.5538
2486.811
2089.9099
2341.7686
3247.8008
3251.0711
2367.6414
2828.8626
3031.3704
2436.0604
2840.1643
3251.5966
3747.3866
2110.5823
2491.0095
2485.3318
2530.2331
2328.9251
2791.8512
3261.8129
2826.2386
2265.8237
2635.3231
2189.9263
2271.0905
2735.7514
3077.289
2448.1286
2120.711
2424.2377
2340.8777
2229.5806
2440.8052
2907.3972
2506.8682
2043.0603
2459.51
2047.0501
2150.8586
2395.4185
2823.783
2288.3437
1950.4294
2297.002
2126.9896
2114.4853
2190.6734
2610.464
2266.8596
1829.7556
2294.7873
1928.2373
2022.1804
2225.4464
2631.1045
2090.0776
1782.5664
2165.937
1888.0897
2014.2362
2312.1323
2340.7778
2097.8213
1755.015
2053.9328
1815.1315
1888.1612
2383.1966
2346.4301
1991.1827
1620.8471
1979.5598
1746.6523
1909.6998
2609.397
2214.7884
1731.387
1773.9533
1938.6278
1696.666
1718.5074
2552.8866
1854.9036
1755.3086
1586.7656
1776.0894
1638.5267
1918.2257
2546.6599
1795.7044
1776.303
1312.0524
1618.8808
1629.5161
1753.9739
2633.1082
1578.0374
1513.0862
1310.6204
1419.6373
1544.4117
1746.8129
2469.5005
1406.8495
1482.2503
1312.0548
1249.5109
1516.0043
1639.8688
2435.614
1358.2116
1565.2286
1138.9388
1371.3597
1428.0203
1719.4318
2316.5214
1289.8324
1225.6986
1180.7754
1044.7057
1344.2506
1592.2497
2164.2189
1194.3164
1330.2181
1090.9218
1079.6429
1359.9446
1546.8521
2080.6723
1151.5581
1145.8068
1033.2297
958.25708
1266.641
1481.3676
1987.575
1107.4135
1140.6329
989.63985
856.81883
1205.1001
1320.8857
1839.9207
981.85912
998.33888
863.80833
828.8202
1163.4851
1384.7357
1720.403
915.55962
955.71204
884.30158
736.6073
1096.2558
1200.5563
1652.6108
903.24649
928.79416
767.2689
695.28639
1016.6162
1175.1479
1354.5802
702.28018
644.74397
683.73432
582.90301
860.03265
1088.1664
1557.3836
811.86361
832.33112
811.6661
477.78764
967.35489
1012.5332
978.79391
483.72203
606.27251
391.29165
431.60374
677.0802
937.96254
1276.7327
768.11566
684.441
754.76952
473.57386
935.12162
1004.2421
913.68574