/*--------------------------------*- C++ -*----------------------------------*\
  =========                 |
  \\      /  F ield         | OpenFOAM: The Open Source CFD Toolbox
   \\    /   O peration     | Website:  https://openfoam.org
    \\  /    A nd           | Version:  6
     \\/     M anipulation  |
\*---------------------------------------------------------------------------*/
FoamFile
{
    version     2.0;
    format      ascii;
    class       pointScalarField;
    location    "0.89";
    object      p;
}
// * * * * * * * * * * * * * * * * * * * * * * * * * * * * * * * * * * * * * //

dimensions      [1 -1 -2 0 0 0 0];

internalField   nonuniform List<scalar> 
3969
(
1570682.8
-2328096.7
10990.475
7707.4996
2901925.1
-4992490.8
8234.9701
5766.3257
1205354.9
840805.1
438724.29
-51939.729
-398458.86
-932489.75
-1032141.6
-7468.9069
-852.82433
-34.295161
5237.8316
10191.03
14167.508
13779.081
509713.83
583310.96
573386.1
595571.87
586721.38
586533.99
571010.82
557011.9
542461.79
522361.05
507774.49
491545.23
474191.22
459263.47
444529.45
428034.09
414423.59
399241.97
385310.97
369568.43
355557.5
340211.88
325396.05
310954.98
294432.89
278722.57
262014.39
246412.52
230981
214332.96
198555.2
183037.63
167144.39
152099.45
137470.59
123683.02
109016.8
97267.783
83344.82
73074.056
60709.519
50917.428
42046.305
31457.26
26205.235
19312.542
13720.171
-514508.58
-440885.72
-548152.45
-491416.97
-550347.64
-508757.31
-524975.1
-492947.43
-494239.95
-472614.59
-462526.42
-450591.42
-429575.88
-423654.07
-404556.18
-392306
-378638.74
-361356.94
-350641.22
-334379.01
-319526.09
-307973.47
-290701
-278700.61
-262695.93
-247979.68
-231474.97
-215923.36
-201325.13
-185735.81
-173062.07
-157543.44
-144371.6
-129872.9
-116870.16
-103537.12
-91607.642
-78716.673
-67764.876
-55990.711
-45581.205
-36452.411
-27918.442
-19763.465
-12253.556
-6706.5689
-889.3509
2198180.8
1615248.4
716052.29
-152416.06
-818084.03
-1787225.5
-1442634.2
-647277.76
-714516.68
-460322.83
-668282.29
-570152.54
-596128.35
-566990.62
-563837.35
-533537.59
-502087.29
-534705.64
-487918.53
-496019.1
-473627.31
-459125.76
-447078.43
-425692.94
-412659.17
-394261.6
-376156.65
-361424.03
-344870.85
-329178.47
-312834.16
-298398.76
-284755.36
-268171.06
-248200.6
-233300.22
-216417.31
-198845.54
-182571.18
-166178.66
-149860.45
-134717.29
-120138.9
-103480.65
-90676.676
-78219.398
-65716.696
-53596.364
-43240.587
-32387.335
-22997.204
-14817.922
-7288.3667
-550.5204
18822.596
12803.841
11021.674
6647.9305
-625.81722
-1077.931
-8652.3008
24336.466
21631.473
24928.412
32907.22
41059.668
49887.613
60114.259
70298.857
82414.622
93651.061
104482.82
123992.04
135432.6
149853.59
165802.2
181627.13
197441.31
214394.89
230084.57
247253.9
264713.51
280418.9
297625.11
314754.49
331820.86
349091.88
365781.97
381177
398575.7
413930.34
430001.13
443836.52
451391.87
479016.01
505931.95
501501.66
531266.19
532699.34
551301.94
580126.9
602999.33
585281.71
624727.96
591003.47
595843.5
616633.12
598041.58
1316449.2
1427613.6
1504909
1481588.6
1482906.5
1483235.2
1236177.6
-1792729.1
-2318011.1
-2694750.1
-2877624.5
-2751298.9
-2725167
-2009052.3
7896.5325
8772.1904
9285.3092
10539.31
10243.87
8834.1768
8742.3539
3433.748
4985.9507
4368.2813
3658.5018
4803.4933
8658.7887
4368.8978
446752.42
457631.73
458021.81
461217.38
456536.22
450691.39
438018.72
433650.29
414139.46
411460.44
395475.94
381207.92
374618.58
362007.22
350225.38
338705.85
328452.4
316095.74
304300.09
292670.34
281327.87
268686.6
256946.44
244746.1
233710.15
220231.04
207685.44
195584.25
182540.71
169747.58
157406.97
144668.61
132506.85
120543.08
109086
97517.766
86423.093
76352.945
66346.735
57939.714
48390.244
41742.439
32964.545
27174.843
21951.546
14167.157
8510.7113
277803.32
272479.16
276345.32
287325.04
288733.79
295569.61
285463.91
280996.54
273287.34
268588.61
258004.19
252417.27
242179.03
233853.88
228393.24
220079.77
213881.1
205377.27
198812.8
190886.31
182607.17
174241.3
166003.54
158557.79
149922.3
142865.94
135610.5
126270.9
119421.52
111174.5
103434.82
95761.092
88022.76
80715.592
73434.486
66496.589
59770.737
53818.934
46933.551
41871.172
35410.775
30982.153
24993.793
21697.872
16703.012
11369.621
5785.5211
123406.79
140359.07
132689.32
138797.11
136158.23
139296.34
134812.44
136822.13
129392.13
127161.65
124458.78
120465.86
116696.37
111550.53
106906.89
104143.7
101488.19
98107.45
95941.366
92486.398
90681.028
87823.372
84608.489
80699.91
77581.31
73382.676
69369.318
66360.634
62536.524
58542.466
54691.17
50660.71
46739.287
42797.774
39277.004
35328.881
31961.804
28414.385
25034.187
22598.122
19080.642
17765.059
14022.315
13076.018
10330.563
7197.6871
6218.0631
-15093.419
-19761.746
-24674.948
-14874.894
-25900.559
-19716.202
-27147.596
-23754.36
-24654.443
-13663.649
-20267.643
-13805.244
-16207.304
-12025.88
-10636.776
-8289.0594
-7815.6623
-6373.3213
-5495.9949
-5542.1738
-4994.4949
-6384.8341
-8602.7466
-7532.6694
-6194.7929
-5689.4949
-4436.9777
-3501.771
-2832.98
-1880.8957
-1034.9707
-176.39321
452.18971
1299.524
2019.1495
2976.4878
3230.7197
3926.841
4697.9405
5342.8248
5887.6921
6348.8615
5519.126
7214.4425
6165.9107
7222.0994
8029.6432
-165939.95
-146896.09
-148816.65
-157296.77
-166960.18
-162970.87
-166497.46
-159903.79
-160201.58
-148352.84
-150722.93
-137554.11
-139353.64
-127100.57
-126379.08
-117333.2
-114578.61
-108187.87
-103824.87
-99519.04
-91567.256
-82425.039
-77399.959
-68080.016
-65667.175
-63396.655
-57590.932
-52753.019
-48622.48
-44408.525
-40067.139
-36492.261
-32327.987
-28949.956
-24901.411
-21684.553
-18793.297
-14938.466
-15401.302
-12428.085
-9848.6741
-7337.3226
-4634.426
-1850.7759
14.81152
3205.7993
6959.9378
-313917.07
-293838.7
-296229.1
-318415.22
-322010.13
-319600.43
-317230.87
-305917.86
-305002.96
-287685.34
-286224.81
-272538.74
-266600.24
-258078.55
-249845.91
-238604.43
-230606.31
-220191.89
-211725.09
-202579.81
-190940.36
-182303.1
-166358.89
-155098.85
-144210.49
-135362.63
-127497.81
-118331.6
-109741.39
-101139.21
-93374.344
-84853.802
-76946.922
-69017.013
-61449.933
-54053.045
-46948.957
-40485.187
-33902.199
-29206.699
-23812.889
-18725.463
-13342.318
-8664.7415
-4003.1658
1313.9367
8285.9922
-520128.15
-360096.04
-432644.2
-429618.68
-454943.23
-440052.24
-445690.76
-429699.86
-431706.82
-406262.92
-408724.77
-389306.23
-378402.66
-365577.56
-351158.58
-338221.21
-323281.82
-312494.5
-298361.7
-286282.51
-274261.5
-260578.02
-248327.03
-236420.1
-223259.08
-211695.82
-201194.51
-186523.69
-173396.6
-160536.82
-147966.94
-135292.14
-122713.09
-110795.66
-98647.49
-87185.921
-76440.633
-65860.06
-56863.602
-46214.958
-37463.974
-29378.103
-21970.881
-15684.123
-9420.6374
-3483.2813
4165.3988
1048705.4
951823.2
992417.9
995748.81
996754.7
967960.22
921210.44
649360.38
697617.15
669893.75
680761.77
686787.55
673344.58
673614.92
328894.59
393155.12
339002.22
364878.48
348851.82
342677.72
367108.19
41208.562
-5184.4311
-28450.585
7323.9675
-15836.208
-63461.322
89174.052
-205240.48
-216337.62
-229486.64
-198240.35
-220261.83
-210700.28
-109416.66
-670550.62
-723668.75
-713338.07
-738279.23
-753471.98
-741182.96
-686806.16
-755574.94
-716737.92
-598247.3
-619067.81
-575935.29
-535109.72
-608934.77
-883047.1
-927176.73
-1054068.2
-1088343.2
-1118631.6
-1093387.1
-835631.59
-663180.68
-769227.16
-783084.82
-804905.68
-838534.59
-798672.05
-726727.03
-574037.57
-656144.66
-691722.26
-699812.8
-701665.69
-648570.24
-684533.97
-565561.32
-628632.53
-615914.33
-661814.02
-635392.38
-629972.11
-592591.19
-574371.16
-610141.96
-631405.08
-637677.21
-639349.46
-605727.92
-617950.37
-557578.36
-551387.68
-566024.34
-581117.62
-581566.44
-568588.14
-560588.38
-534283.23
-553977.27
-562901.75
-573731.92
-566861.81
-568965.18
-565264.84
-531292.87
-525610.83
-528308.55
-537265.33
-535213.65
-535656.39
-530907.08
-510387.28
-516302.94
-519558.86
-526513.01
-528547.13
-529902.02
-529663.02
-503952.39
-498005.91
-496458.32
-501482.01
-501122.09
-494094.98
-497592.47
-484812.56
-488558.34
-482955.32
-490051.66
-487664.21
-484331.79
-495290.3
-467517.49
-468635.28
-465899.54
-473871.78
-471308.2
-462529.15
-477561.66
-459937.51
-449315.92
-456175.67
-454674
-457463.95
-453439.9
-467124.02
-436539.87
-435097.82
-441900.15
-438996.51
-445165.98
-434541.32
-447325.25
-427673.97
-420137.31
-428586.46
-423638.08
-428680.1
-421636.25
-435127.21
-409353.86
-402910.48
-414005.5
-407715.09
-416978.21
-408405.33
-420969.78
-393810.17
-391165.52
-399493.11
-394073.38
-402727.69
-393454.26
-403508.86
-379531.11
-375799.29
-386108.36
-378881.31
-389664.08
-378591.86
-390620.23
-363802.31
-362509.6
-371640.99
-364049.19
-374728.45
-364235.59
-376208.32
-348713.68
-347614.86
-356989.69
-349342.76
-361244.06
-350445.16
-362501.57
-335020.27
-332715.55
-342400.01
-334492.92
-346199.87
-335722.12
-347291.51
-319404.63
-318193.39
-327226.04
-320140.92
-331625.99
-321236.73
-333401.92
-305501.89
-302775.57
-312851.84
-305260.27
-315492.43
-306859.11
-317896.25
-289558.94
-289499.11
-296940.63
-289459.56
-301039.37
-292652.55
-304006.32
-274418
-275606.17
-278251.98
-276421.3
-284137.69
-278324.12
-288196.99
-257202.69
-260979.84
-259547.26
-264153.26
-268045.58
-266907.52
-274018.38
-246113.81
-244946.89
-246123.99
-248201.38
-250707.51
-249606.4
-256890.24
-231066.33
-228967.94
-230754.56
-232597.6
-234123.01
-234893.94
-238073.88
-214748.9
-212712.58
-214986.43
-215359.35
-216392.97
-219256.38
-220568.41
-199734.25
-196861.95
-199827.61
-199368.27
-201483.48
-203471.91
-204360.47
-183462.14
-182010.51
-183490.62
-183438.93
-184678.8
-186795.86
-187621.95
-168743.62
-166143.89
-167996.5
-167611.01
-168969.95
-171012.36
-171958.03
-152991.32
-151206
-152401.27
-152195.46
-153327.56
-155440.13
-156400.39
-138362.31
-136310.77
-137450.61
-137183.77
-138155.77
-140229.05
-140783.53
-123568.03
-121880.2
-122526.07
-122226.31
-123064.2
-125511.41
-126089.37
-109536.87
-108135.34
-108445.51
-108654.72
-109370.4
-110523.49
-111713.6
-96138.666
-94243.982
-94816.112
-93969.598
-95422.417
-97687.596
-98081.103
-83415.808
-82474.275
-81801.826
-82331.317
-82291.181
-84126.139
-84739.278
-70699.75
-69476.488
-69196.871
-69384.085
-69752.058
-71614.96
-71913.458
-59756.062
-58199.03
-58578.939
-58060.394
-58478.521
-60190.112
-60717.49
-48114.587
-47617.999
-47088.206
-46832.709
-47320.705
-48886.995
-49103.349
-38509.645
-38117.371
-37389.93
-37623.583
-37640.942
-39007.017
-39246.514
-28867.198
-28602.873
-27819.675
-28122.615
-27720.355
-29221.095
-29343.544
-20780.459
-20233.22
-19924.705
-19857.419
-19607.025
-20897.047
-20610.14
-13518.472
-13611.875
-13048.657
-13054.009
-12731.329
-13305.274
-12769.842
-8717.2359
-8327.5854
-8355.72
-8107.2816
-7715.8336
-8487.975
-8048.7714
-3974.9247
-4040.3267
-3825.8832
-3135.9345
-3948.4076
-3856.2358
-2346.3363
-14471.654
-16706.016
-18864.565
-18945.553
-17596.801
-16558.022
-14364.98
-7065.645
-7777.5443
-8075.9714
-8735.4297
-7766.485
-6193.327
-5066.9167
-3603.3113
-4831.5597
-5318.7189
-5080.8555
-4570.5353
-2915.1449
-2151.1369
5860.4505
6339.907
6228.911
6183.1257
7239.0677
6553.0146
7827.1611
12581.417
12814.61
13054.952
14034.508
13664.277
13461.608
12941.593
17243.807
19558.708
19989.128
20367.04
21522.116
18992.892
18365.831
20160.149
20786.201
22304.483
22414.445
21902.851
20924.502
19815.14
640369.61
628905.33
705447.76
687980.5
708715.52
672249.64
655624.3
662000.95
673561.02
703926.31
696613.66
710215.42
669824.07
656661.72
642587.14
644950.91
666074.57
667212.05
666991.38
640430.41
631481.56
611096.59
624030.28
640600.28
641959.19
641995.64
624076.26
628076.59
610786.38
612121.1
618457.79
622998.3
620682.97
614789.67
605120.51
585690.03
586471.4
597669.46
590049.32
596596.75
579277.03
585336.79
579152.95
577333.73
580345.34
579752.35
588860.73
576111.55
587653.05
554086.74
550066.27
560931.19
543568.68
555679.16
548589.63
553109.39
543296.72
546050.26
544860.32
541428.15
549226.72
540490.74
552795.8
528250.07
520290.99
522741.27
515454.32
525322.48
515529.13
528972.05
512151.24
505513.21
514731.39
503980.66
514316.93
506537.46
515403.89
492475.94
492686.63
492364.38
485224.95
493307.15
486296.19
498499.41
482090.18
474270.46
476298.64
471098.52
477804.6
470134.44
470920.24
464942.03
459841.42
460189.51
455978.25
461201.32
457734.86
465945.06
448460.9
445779.57
441860.16
442156.39
443890.3
439283.07
447996.03
437144.9
428799.42
428366.44
425534.81
431012.1
425165.68
430739.97
420307.51
414854.82
412805.35
411820.89
413068.9
408240.07
414335.51
405280.04
399071.38
398851.39
396172.87
397946.37
394336.02
398180.05
389516.17
384852.07
383927.48
380842.06
382799.82
378983.35
383326.43
374913.24
369116.03
368735.88
365940.89
367443.38
363658.13
367223.37
360423.56
353668.71
354548.02
350725.55
352465.13
348688.12
352088.79
344816.26
338583.84
339736.24
335697.8
336988.38
332608.35
336286.78
330098.13
323442.53
325444.71
320520.07
321747.7
317580.2
321443.29
314191.82
308615.76
310074.45
305020.96
305935.42
301342.88
305392.86
299192.91
291850.09
294868.66
288956.52
290242.37
285581.08
290050.63
283375.77
275780.86
279536.54
272991.31
274357.48
269721.12
273612.61
266737.24
260301.08
263118.48
257090.24
258008.26
253544.15
257764.8
251337.62
244391.87
246846.24
241343.34
242450.29
238016.2
242259.05
233908.61
227455.87
231053.24
224969.71
225623.18
221406.4
225377.89
217591.8
212474.51
214265.69
209135.19
209644.32
206078.51
209553.71
201523.87
196068.48
198238.85
193324.04
193647.49
189993.52
193387.98
184862.27
180452.7
181780.59
177450.41
177261.96
174308.74
177449.65
169059.01
164938.54
166216.87
162060.15
161823.13
159351.9
162280.37
153419.84
149952.07
150483.45
146975.57
146484.86
144436.06
146563.94
138398.76
135057.71
135553.08
132367.94
131457.71
130300.86
131622.04
123018.64
120996.48
120906.69
117859.39
117458.95
116263.03
117686.39
109575.27
107793.28
106171.82
104913.33
103414.57
102735.32
104625.96
96201.036
95119.473
93570.241
92019.877
91077.406
89151.725
91915.299
82881.232
82095.833
80197.289
79457.926
78428.181
77581.13
79461.972
71741.829
71350.958
69568.834
68861.824
67276.955
66376.975
68323.65
59633.94
59203.849
57451.091
57040.667
55740.644
56162.217
57272.76
50051.255
49968.988
48298.502
47978.348
46938.088
46598.704
47707.334
40688.276
40733.747
39013.807
39292.547
37683.208
37892.973
38248.409
31028.991
30910.495
29877.695
29980.009
29229.254
29386.101
30488.899
26027.393
27431.1
26933.352
27286.405
26100.54
25509.625
24790.414
20700.654
21033.317
20268.229
20268.552
20381.367
20936.958
19927.87
22974.249
25480.776
26071.294
26781.27
26580.463
26821.241
25153.241
595151.35
498829.63
476780.7
477884.59
484893.03
489447.44
463029.5
463566.01
449462.41
441821.87
423760.36
412475.18
398515.71
380205.2
371949.33
357490.76
343000.25
330645.19
317413.71
304989.34
292152.13
279038.53
266432.38
254022.63
241142.82
228701.52
214522.87
201759.98
188927.54
175668.42
162674.4
149963.05
137129.6
124842.67
113564.83
100364.49
89243.795
80244.141
69647.177
60353.991
51927.522
43527.462
36447.556
29151.023
22899.512
16319.962
7185.999
344592.34
368323.08
272911.98
320313.35
350956.89
328071.85
340598.35
318878.58
321809.74
306413.62
299519.02
291665.59
273682.93
271078
260538.9
254309.55
244120.01
234172.92
226457.96
216500.96
207462.57
198262.99
189085.08
179108.98
169448.03
158279.99
151776.78
141218.78
132354.06
123332.96
114367.98
105562.69
96775.049
88828.371
79574.298
72664.065
65094.878
57326.512
50739.242
44109.392
38293.296
32298.673
27244.151
22003.122
17666.009
12363.656
6608.4992
160114.33
211472.48
112247.9
188160.51
150612.08
142005.71
141952.88
137153.77
135301.61
125840.66
133468.6
124163.73
132385.64
124907.19
125457.38
123763.91
118104.18
114864.36
111198.42
105308.83
101203.94
96706.827
92024.499
87764.638
83599.246
79417.47
75682.544
70066.995
66015.241
61566.995
57232.714
53095.507
49096.193
44887.606
40795.158
37446.634
33546.702
30190.542
26709.267
24162.961
21398.616
18548.907
16276.815
13959.651
11628.183
9824.1183
3412.8877
-32639.854
38740.858
-18901.93
25692.7
-11138.259
11560.498
1098.6386
-11455.297
-6189.9814
804.81561
-7339.7008
5418.0004
-2352.1788
10359.451
11797.796
12514.456
12349.322
12758.365
12474.814
11508.878
12062.121
11622.486
11537.172
11313.897
10395.699
9759.453
8858.6323
9061.6378
8402.4708
8327.1833
7940.6298
8324.1009
7848.5478
7879.5635
7671.8308
7655.2694
7176.9059
7182.9961
6813.7677
7062.4178
6724.8926
6578.9396
6812.0499
6298.9444
7176.4373
5940.8892
4816.4633
-285437.74
-127655.03
-159371.04
-105603.68
-152034.18
-118527.66
-144328.41
-134303.57
-124066.91
-128054.26
-112841.43
-120933.83
-107748.07
-112102.87
-107386.64
-104018.14
-100841.92
-97172.255
-94005.977
-90386.107
-86922.473
-83264.706
-79660.203
-76106.421
-71509.405
-68800.838
-63485.547
-59182.82
-55277.529
-51194.252
-47073.782
-42918.565
-38815.925
-34478.486
-30791.431
-26882.874
-23234.823
-19514.543
-16377.928
-12830.105
-10022.175
-6675.9026
-4373.6121
-1276.411
969.76739
4065.5547
5158.7884
-440152.32
-311617.9
-267195.29
-272299.16
-292582.27
-279828.93
-297664.79
-266085.75
-296983.5
-280616.96
-284375.61
-269461.36
-262249.69
-257109.45
-244856.23
-236616.07
-225144.03
-215641.68
-205853.68
-197430.17
-189190.17
-180102.64
-171312.23
-159258.31
-147843.67
-136599.33
-129271.5
-120362.33
-112185.99
-103537.52
-95874.873
-87456.87
-79395.938
-71541.421
-63866.449
-56649.789
-49190.966
-42451.816
-36146.212
-29703.064
-23938.741
-18502.247
-13086.628
-8453.6796
-3407.484
1538.4412
6614.4822
-540496.82
-396395.42
-409238.11
-402501.53
-448236.38
-442015.08
-446066.49
-435979.88
-439714.39
-422290.87
-403894.67
-399434.52
-384306.23
-373549.72
-361535.56
-350687.19
-341703.35
-328777.15
-319818.18
-307164.29
-295457.04
-282704.63
-270294.38
-256294.4
-244626.1
-222872.65
-211168.13
-198256.63
-185306.93
-172812.68
-160005.62
-146595.7
-134216.59
-121322.37
-109049.93
-97165.297
-85600.383
-74873.091
-64123.602
-53840.861
-44911.823
-35210.549
-27786.593
-19497.813
-12061.677
-4847.1609
1162.9591
728885.11
812851.79
779806.84
818454.19
799784.1
761612.85
709888.07
534492.68
614520.09
605131.71
622938.36
604527.87
584125.58
533431.84
498143.64
546243.44
553826.29
567662.02
550114.47
546165.7
522122.57
486086.65
501915.39
504070.29
520702.75
495463.77
507288.17
462951.82
470227.4
484141.95
490611.95
487561.8
482447.25
479211.1
449319.91
460731.16
479397.53
459882.47
481043.55
461779.64
465869.71
463920.24
451983.51
451057.83
448260.25
451940.93
434920.78
449332.55
441531.73
436339.56
458004.69
435696.9
448321.83
441611.99
440825.45
437107.16
435280.92
430066.47
411609.34
431056.38
414040.48
423025.96
419931.22
415395.44
419098.66
414276.88
422705.19
407524.76
417978.29
412211.3
403477.99
411584.92
394349.28
402946.49
393050.5
400009.4
398132.12
399585.62
393485.82
386319.5
390902.95
385791.49
386028.32
383640.81
382818.39
382244.52
374449.42
382856.79
370747
377885.27
380230.95
371375.25
367580.21
364399.1
367866.25
357763.95
363508.94
363066.3
361824.37
357020.62
354354.92
353973.75
348538.19
354080.57
350479.21
347352.68
343838.1
343276.31
343126.44
335739.02
337718.26
339163.86
335092.08
332428.67
330288.82
331468.68
324225.46
328825.86
327327.18
323798.27
320563.1
319963.47
317894.6
312950.07
315454.97
315285.34
310952.48
309979.78
306309.17
307010.06
301273.91
303417.56
301898.38
299990.73
297465.01
295464.57
294814.51
289870.89
291546.43
290783.8
285085.82
287008.87
282878.3
283076.44
277795.61
279358.23
277635.23
273651.43
275505.11
270630.81
270475.66
266117.43
267318.52
266457.74
260145.76
263657.93
257225.99
258293.01
253693.78
255982.23
253030.87
247430.56
251052.49
244508.74
245347.75
242139.92
243206.79
240556.58
232998.56
239895.31
231269.35
234023.88
229287.09
232018
228272.79
221641.13
227003.68
219820.07
219909.27
218332.8
218578.49
215954.73
209927.62
213884.55
206616.34
208219.39
206141.01
206488.37
204074.12
196228.22
199571.11
195471.89
194982.41
192598.85
193782.28
190197.62
183322.67
189222.66
181251.62
182285.07
180865.17
181567.7
178542.38
171778.37
174410.64
169588.85
169891.18
168448.28
168769.15
165890.83
158573.41
161870.36
156639.62
156869.78
155495.55
156087.4
153410.22
146483.79
148911.2
144833.24
144604.62
143718.27
144137.99
141539.71
134339.64
136324.83
132342.63
132038.14
131427.87
131833.54
129194.58
122566.75
123787.86
120615.36
120081.77
119800.98
119743.16
117344.15
110830.48
111484.16
108921.52
108212.52
108006.32
108378.65
106373.19
99844.311
100035.82
98099.195
96918.223
97369.384
97285.288
95140.209
89749.659
88627.756
87166.25
85703.94
86781.86
85565.387
85440.463
79347.816
77638.425
77175.967
75733.861
75480.503
76635.147
74649.574
69654.397
66773.919
67227.016
65807.743
66535.068
66767.388
65628.83
59935.345
58423.699
58306.032
56983.295
57042.612
57603.234
56479.542
51550.068
48635.27
49291.648
47219.872
48496.482
48730.318
48115.384
43429.884
41846.456
42333.007
40940.22
41897.568
41218.623
40811.54
35020.679
32320.896
33093.869
31396.041
32248.173
32620.693
33271.029
29448.698
27968.722
29179.457
27358.819
28769.084
28301.681
27741.847
21416.636
20273.27
20252.696
19352.422
20088.176
19973.278
20476.121
15145.516
13926.487
15066.93
13675.775
14624.976
14661.365
13736.166
8069.8912
5722.0938
5621.7049
5476.0424
6161.4968
5342.787
7926.6173
470037.77
495414.3
542450.3
532385.33
547149.09
501575.83
499938.38
373989.68
432708.38
450763.14
458522.18
457241.88
428714.7
408804.48
357852.28
325589.95
367362.22
351083.39
367544.42
333312.6
344494.63
311985.71
315996.64
333800.1
323054.54
331107.22
322204.61
296095.2
321534.16
314166.93
326494.59
313038.31
331125.86
309548.93
320444.12
303213.3
293014.51
298044.15
290179.37
287361.07
300440.44
295812.48
301053.56
298252.01
309742.6
291079.16
306896.66
305794.27
297795.87
292728.54
281212.03
280155.47
275401.31
283280.69
278633.99
285671.73
286520.23
273031.78
288217.2
276174.38
276682.01
282850.84
283134.92
271156.04
270686.77
274171.38
257788.19
268452.75
269096.1
274259.13
269850.74
263579.56
261990.74
255162.68
260668.57
262746.75
262600.69
260555.04
250382.14
259932.35
247760.13
257037.51
253425.57
264340.65
250168.95
246389.09
253092.6
236110.09
246531.45
242437.59
248659.09
243387
240606.52
243745.54
230256.44
240107.69
238989.98
236971.31
234410.74
235562.25
233367
222426.31
231833.88
227830.31
227955.67
227916.11
227424.21
224660.25
218721.78
222147.31
222626.73
218889.9
220296.53
221166.19
218564.88
210228.2
214595.47
215966.25
214051.32
212488.02
214295.24
209382.58
204400.66
206764.94
208027.3
203146.44
206930.38
206360.39
203143.81
197564.08
199932.12
200576.42
197344.9
198207.23
198795.96
195416.53
190820.33
191867.74
192422.37
189066.65
192788.37
191496.24
188433.92
183529.57
184621.61
185157.04
182407.56
186129.69
183677.98
180396.57
176536.23
177216.76
177557.26
174070.97
179970.57
175142.66
173343.64
169600.58
170555.69
168975.95
167120.7
172687.04
167549.94
166625.35
163112.34
162930.14
161049.14
160168.53
165239.15
159888.79
159041.35
155159.93
155897.59
152655.7
152813.35
157477.19
152505.7
149297.44
150502.78
146268.21
144933.46
145835.83
147629.48
144513.97
142581.24
139275
140123.34
135454.68
136837.02
141184.66
135167.25
135046.91
132068.91
132227.7
127903.97
129698.35
131958.33
127096.67
127269.79
123672.04
124670.01
119302.1
121413.46
123260.25
119108.83
118038.58
115846.49
115417.97
111353.3
113002.16
114604.86
110896.03
110504.16
107830.79
107868.11
103618.89
105190.11
105788.28
102990.92
101620.87
99816.496
99299.359
95659.495
96828.364
97494.654
94782.268
93656.966
91859.196
91534.429
87680.012
88692.138
88816.285
86837.759
85280.444
84165.868
83256.015
79928.459
81126.397
80680.169
79256.314
77769.657
76462.125
75875.055
72781.27
74143.862
72511.962
71785.394
69596.775
69211.445
68018.967
65434.497
65518.811
64715.087
64438.271
62448.343
61793.537
60899.102
58226.876
58961.272
57128.94
58053.836
55066.322
55237.103
53830.675
51964.538
52448.037
50273.335
50497.377
48812.161
48320.435
47510.404
46156.179
45745.876
43562.312
45069.707
42270.682
42119.15
41207.269
39641.235
39504.547
37924.428
38264.861
36207.772
36507.106
35624.637
34504.761
34154.39
31492.061
33001.575
30449.582
31041.357
29740.63
28916.019
29134.008
26894.764
27379.054
25423.134
25923.632
24733.85
24581.175
24322.144
21791.02
22725.512
20692.483
21338.299
20567.944
20165.095
20079.438
16241.323
17216.574
15471.308
16275.375
15236.796
15129.773
15225.384
11304.037
11527.005
9883.2045
10499.928
10156.639
10442.469
10432.496
6090.1785
4025.4456
2603.4924
3038.3022
3330.3653
3224.464
4794.665
265316.54
290342.42
266960.69
301312.91
275032.87
259895.1
239105.43
193472.04
281303.97
264494.77
284311.11
247749.98
263755.63
209570.21
174452.99
168432.53
168058.11
174115.59
164789.03
153328.08
147047.75
144258.79
179111.56
173918.51
191193.22
164177.74
183663.97
146910.51
157899.86
148008.54
147291.68
136195.46
136699.7
133178.59
134174.55
137003.58
161080.86
136368.54
145456.19
141611.7
142091.92
140364.73
144681.53
147925.83
121928.98
133911.19
131395.63
125176.84
133502.13
135667.95
150270.77
122505.41
133700.57
124712.78
121944.37
133501.29
137740.86
149364.35
118254.86
126220.56
122688.72
124072.77
129603.12
138276.92
142921.62
112755.12
119983.79
121931.51
116812.02
125390.42
133914.38
140034.45
109670.01
123394.28
118283.41
119455.8
122790.47
127440.43
134226.44
106915.8
116228.61
113710.58
111173.2
117855.94
123424.1
136483.62
103290.23
115852.62
110493.22
111528.65
112813.24
121112.87
126615.67
103178.45
111842.79
112647.03
100543.17
117523.42
118556.89
122427.93
97961.238
110703.57
106512.18
100571.7
112630.42
114017.78
115460
100500.76
104298.46
104668.61
96881.765
111174.29
107804.35
113794.72
95965.531
102619.49
100575.74
94882.121
105231.38
106798.14
108328.98
94089.363
99099.455
97926.997
92039.07
101151.76
100813.94
105653.92
90959.171
96479.766
93894.21
88508.092
96878.058
98611.806
101939.48
88305.357
92678.991
90154.798
85771.26
93989.664
93880.807
98404.584
85106.038
89401.102
86626.397
83372.104
88689.876
90167.763
93932.506
82089.832
85924.615
83688.271
79222.513
85423.847
86243.736
89936.126
79083.707
83508.064
78519.908
76828.94
81183.641
82132.699
85253.559
76286.51
78234.828
74361.519
73674.574
76755.575
78578.247
81152.93
72474.036
74698.452
70273.909
71160.919
72438.553
74934.179
75203.56
70023.141
69622.699
66521.528
67064.998
67913.681
71190.65
72706.14
65775.518
67935.816
61532.008
65065.421
63314.637
67238.816
69749.503
61977.444
63464.167
59009.793
60734.647
60743.045
63136.411
64755.154
58034.58
59625.585
54837.934
56915.379
56830.936
59603.101
60749.363
55042.111
56007.068
51824.541
53624.682
53303.781
55785.082
56739.783
50979.465
52441.137
47780.93
50111.337
49537.57
52179.464
52572.686
47628.008
48687.174
44551.49
46622.959
45610.691
48452.961
48438.3
43925.465
45048.368
40974.019
42926.446
42428.62
44958.316
44553.976
40718.506
41574.824
37737.578
39954.332
39060.804
41418.353
40522.343
37215.644
37744.543
34446.881
36171.389
35400.038
37903.851
36841.823
33841.284
34441.815
31359.315
33105.416
32454.15
35028.81
33021.246
30928.449
30914.183
28715.84
29376.338
29756.805
31251.985
29860.03
27458.254
28215.593
25347.349
26986.34
26765.58
28625.05
26248.511
24684.457
24534.894
22967.73
23879.318
23866.741
25575.999
23983.144
21956.769
22821.055
20581.976
21380.077
21117.225
22542.053
19289.591
19046.944
18517.977
17568.984
18303.074
19064.929
19859.544
18810.32
17874.214
17875.437
16677.029
16992.541
16879.519
17168.93
13933.626
13964.832
13313.145
12980.79
13433.637
14577.417
14653.804
13507.303
13774.712
13546.93
13007.487
13375.785
13244.421
11155.432
9024.2627
9262.3062
8228.6308
8377.0481
8697.3244
9292.9156
9207.7636
8440.6413
7901.6295
7927.1689
8178.1854
8377.8766
8952.3649
5465.3148
1873.235
2183.0902
1816.7108
1709.8423
1991.5389
3346.2857
-2090.365
-20366.139
-13868.288
-7964.8879
-15779.815
-20006.665
7650.3661
-7289.2944
-13534.477
-15650.693
-12271.964
-19336.906
-14362.265
-15565.132
16201.722
-40295.649
-35792.536
-50028.975
-34315.351
-51066.447
-10290.255
-10720.182
-30348.101
-13170.325
-24921.391
-26987.842
-10031.143
-26164.149
-1077.2393
-14840.109
-15845.763
-45869.034
-12185.785
-51702.123
-2522.848
-2248.3722
-27324.713
-33950.831
-24185.208
-30326.198
-20133.417
-15906.605
-3232.3657
-19449.319
-4959.4492
-31949.129
-13387.086
-24570.662
-8552.8518
-199.52178
-15982.996
-21887.195
-22607.117
-19162.705
-16925.208
-11396.149
1672.6213
-22556.464
-10253.287
-25811.787
-14292.612
-17605.007
-15126.895
-6100.915
-14342.761
-12360.689
-23511.657
-15968.529
-15206.39
-10974.653
-3118.9337
-14165.052
-13647.988
-23170.987
-16714.956
-18256.136
-10772.883
-3875.6314
-12450.051
-14729.469
-17351.793
-17556.737
-9430.1645
-10573.366
-1628.8536
-13648.145
-12983.113
-19772.112
-13342.57
-13879.418
-9757.6456
-3255.2444
-12064.391
-5564.284
-13058.649
-18187.479
-9823.2379
-14882.121
268.46592
-5437.9107
-16077.728
-11484.715
-19460.766
-9354.3985
-10976.878
-3869.4325
-5923.5304
-15005.506
-7904.8605
-19884.332
-7366.8644
-11523.305
-96.042426
-5317.6001
-12392.095
-5673.3019
-18294.424
-6681.7657
-9166.2532
-1753.2925
-4421.9476
-10807.154
-4597.589
-17557.398
-6057.6374
-10152.402
285.84106
-1966.833
-8998.1958
-3695.5006
-15870.72
-5433.7341
-8076.724
806.64459
-1268.0381
-8476.21
-2971.7932
-14984.222
-3909.7541
-9191.8376
2169.723
190.95461
-7075.2929
-2041.0154
-12231.281
-3947.7606
-8220.4889
3711.0255
1880.2365
-6114.0057
-440.24677
-12093.352
-3160.0182
-7760.9402
4272.2354
2735.7222
-3812.8215
-1451.6428
-10180.738
-2402.313
-6953.6442
6442.3963
3518.9518
-2271.9702
-805.13938
-7377.3228
-1432.508
-6380.1072
6731.2064
3981.6032
-378.22482
-673.98146
-4276.5776
-1850.0827
-5564.0731
7171.1175
6787.4359
745.00015
968.60456
-2213.2689
-1538.1379
-4089.4989
9210.979
6340.7815
2126.6697
931.85031
-1100.67
-879.1043
-3921.1983
9037.4047
6241.9785
3049.0354
1223.5028
-366.07599
-265.30086
-3759.5682
9689.8394
6733.9808
4312.7443
2444.7844
1484.7177
557.76946
-2491.2283
9471.9499
7329.2946
4862.5039
2740.2518
1691.4773
987.30072
-2045.4375
9639.0029
7559.9738
5441.7182
3454.4385