/*--------------------------------*- C++ -*----------------------------------*\
  =========                 |
  \\      /  F ield         | OpenFOAM: The Open Source CFD Toolbox
   \\    /   O peration     | Website:  https://openfoam.org
    \\  /    A nd           | Version:  6
     \\/     M anipulation  |
\*---------------------------------------------------------------------------*/
FoamFile
{
    version     2.0;
    format      ascii;
    class       pointVectorField;
    location    "0.98";
    object      lm;
}
// * * * * * * * * * * * * * * * * * * * * * * * * * * * * * * * * * * * * * //

dimensions      [1 -2 -1 0 0 0 0];

internalField   nonuniform List<vector> 
625
(
(-3.6361799e-15 2.112754e-16 -3.2990721e-16)
(2.8178306e-17 1.9013092e-16 6.1994168e-17)
(-7804.6667 -1247.7214 124.13689)
(-7859.1206 730.80653 -32.557815)
(6.5239771e-16 2.739523e-16 -5.5565719e-16)
(-3.7042918e-15 1.4868296e-15 -1.3023874e-15)
(-7648.8063 648.71292 -35.542058)
(-7593.798 -1329.6126 121.31869)
(-1.9658614e-16 -3.2115893e-17 -1.1045223e-16)
(1.4766345e-16 -3.4299605e-16 -2.8648028e-16)
(-1.0135278e-15 7.0169807e-16 1.7538027e-16)
(-7817.9464 -751.36563 85.136419)
(-7830.9032 -258.08192 46.558822)
(-7845.6019 235.68451 6.2961479)
(-1.7910922 -46.368592 -48.440169)
(-20.818823 -100.55385 -52.784303)
(-64.978041 -165.93537 -70.493251)
(-145.91631 -236.05862 -80.927991)
(-251.0163 -307.22014 -94.97597)
(-401.32745 -388.51023 -105.88053)
(-581.82128 -467.74655 -118.29646)
(-804.72107 -551.11896 -127.11988)
(-1066.7539 -635.25457 -135.0736)
(-1366.06 -715.86702 -137.81097)
(-1702.8162 -794.92406 -139.47251)
(-2073.9754 -868.07628 -136.68898)
(-2476.1686 -934.51793 -130.21877)
(-2905.4167 -993.74747 -119.74232)
(-3357.2712 -1044.356 -105.24363)
(-3827.3588 -1087.1021 -86.809076)
(-4311.2554 -1121.6308 -65.01646)
(-4804.674 -1150.03 -39.693958)
(-5304.2952 -1172.0437 -12.659856)
(-5806.8447 -1190.4455 16.268226)
(-6309.7037 -1205.8313 45.382846)
(-6811.3849 -1219.7694 73.614337)
(-7309.9324 -1233.1135 100.45556)
(19.434653 23.002027 44.657899)
(-16.587533 65.340035 23.698704)
(-64.631928 115.68301 28.636886)
(-151.35157 171.71069 13.805547)
(-267.77159 223.69145 3.4024219)
(-428.97046 290.85255 -11.553287)
(-617.70836 346.22339 -23.680246)
(-851.69772 408.03553 -41.117307)
(-1122.8933 467.20509 -55.008966)
(-1430.3232 520.50268 -72.054943)
(-1774.8777 572.75011 -87.378683)
(-2151.1722 617.87821 -102.61962)
(-2557.0259 658.35608 -115.92318)
(-2987.9898 692.39145 -127.05242)
(-3439.7756 720.30904 -135.00823)
(-3908.238 741.91656 -139.19126)
(-4389.1222 757.62224 -139.10434)
(-4878.8694 767.23478 -134.45478)
(-5373.9925 771.65662 -125.44714)
(-5872.0973 770.81772 -112.21006)
(-6370.7423 765.80893 -95.577099)
(-6868.9408 756.61606 -76.031452)
(-7365.1974 744.56825 -55.062375)
(-4.8813632e-16 1.9183015e-16 -1.0607077e-16)
(-2.6214496e-15 -5.6404768e-16 7.244144e-16)
(-2.4010456e-15 1.4295629e-15 -1.6975308e-16)
(1.0826869 21.325215 -35.133619)
(-18.230998 113.03806 -64.024022)
(-60.639121 138.06874 -74.853588)
(-131.9216 212.40025 -93.567123)
(-249.55101 278.21651 -117.91079)
(-391.82943 332.11814 -128.52465)
(-573.91516 396.79394 -150.77008)
(-799.62672 456.63593 -163.66795)
(-1057.5026 510.7273 -178.34436)
(-1354.4895 562.3128 -189.47148)
(-1684.9307 605.00851 -197.70643)
(-2047.7346 643.53913 -203.78564)
(-2439.3137 672.83319 -206.08873)
(-2855.5224 695.12218 -205.28478)
(-3293.4681 710.52701 -201.09019)
(-3748.1462 718.25778 -193.14563)
(-4216.7811 720.74084 -181.80854)
(-4695.4727 717.73791 -167.07112)
(-5181.4231 710.96531 -149.20856)
(-5672.2057 701.13351 -128.78734)
(-6165.6374 689.37979 -106.42733)
(-6660.2738 676.26331 -82.891806)
(-7154.8057 662.81075 -58.963718)
(-7635.5257 153.89473 3.9316659)
(-7621.3334 -341.44528 42.978566)
(-7607.3142 -835.22843 82.077913)
(-7100.6237 -1315.4639 97.765223)
(-6607.3448 -1301.0791 72.349077)
(-6113.659 -1283.4516 47.398294)
(-5620.7535 -1261.7656 23.480566)
(-5129.7568 -1234.8508 2.2258981)
(-4642.659 -1201.7716 -15.817655)
(-4162.3437 -1161.5457 -29.68556)
(-3691.7339 -1113.8434 -39.104499)
(-3234.8892 -1058.2549 -44.001463)
(-2795.8803 -995.04092 -44.760362)
(-2378.7288 -924.4788 -41.511918)
(-1988.1745 -848.10256 -35.471106)
(-1627.8114 -766.20127 -27.270297)
(-1298.4611 -681.87419 -16.793273)
(-1012.2695 -592.44546 -8.2018512)
(-755.58675 -506.89609 3.436442)
(-541.65503 -423.43387 14.25451)
(-362.19936 -341.14405 22.754298)
(-224.8924 -264.61959 32.244375)
(-118.8461 -192.69637 35.445083)
(-42.331648 -137.45776 44.80041)
(-1.5682541 -69.758278 45.987854)
(-0.68504222 -34.116695 31.114361)
(-1.3028228e-15 -3.4252847e-16 3.3068324e-16)
(-2.0449562e-15 -3.5718549e-16 -7.3673077e-16)
(-1.4121951e-15 -1.0527101e-15 6.223458e-16)
(-1.2019486e-15 6.189313e-16 -3.4292956e-16)
(-1.2511779e-16 -6.848356e-17 2.1836215e-16)
(-3.8898857e-17 4.7141393e-16 -3.1043199e-16)
(-7806.5423 710.70771 -33.187086)
(-7754.2472 690.66125 -33.591972)
(-7701.7494 669.67783 -34.790981)
(-7752.6371 -1268.8871 122.75838)
(-7699.7405 -1288.4021 121.49047)
(-7646.7617 -1308.2434 121.96292)
(22.296207 -34.609627 -36.340921)
(1.391336 -68.264372 -36.239555)
(-43.003501 -103.88947 -51.156001)
(-122.17305 -139.63146 -59.12642)
(-230.18729 -180.00496 -72.455715)
(-381.6902 -222.5291 -84.281931)
(-564.77077 -264.76751 -95.46083)
(-791.06838 -311.57661 -105.9483)
(-1054.864 -356.35488 -114.47631)
(-1358.9649 -401.96685 -120.76554)
(-1699.6484 -446.86614 -124.98808)
(-2074.0581 -488.29444 -126.29942)
(-2479.5022 -527.28643 -124.42473)
(-2911.5414 -562.31169 -119.00592)
(-3365.6976 -593.15504 -110.06994)
(-3837.7057 -619.79479 -97.426586)
(-4322.6978 -642.48677 -81.162868)
(-4817.2236 -662.07772 -61.604852)
(-5317.2071 -678.65989 -39.636154)
(-5819.854 -693.99865 -14.866044)
(-6322.783 -708.06844 10.339072)
(-6824.641 -722.30453 36.348726)
(-7323.0504 -736.653 61.490184)
(32.307444 -12.828368 -6.3822831)
(0.14681895 -16.138767 -11.336537)
(-40.841942 -24.349762 -20.90873)
(-121.14173 -32.283446 -32.949206)
(-235.11425 -38.446756 -45.286179)
(-384.19851 -47.633193 -57.546851)
(-571.53911 -58.210311 -69.844652)
(-799.8559 -68.946279 -82.462896)
(-1065.6612 -81.920704 -93.154585)
(-1371.4643 -95.5674 -103.38795)
(-1713.007 -109.82817 -111.24038)
(-2088.7883 -124.20014 -117.43015)
(-2495.2215 -137.90419 -120.53221)
(-2927.8081 -151.01808 -120.78342)
(-3382.4959 -162.76334 -117.39142)
(-3854.4225 -173.5666 -110.23171)
(-4339.4972 -183.29969 -99.287144)
(-4833.5994 -192.43906 -84.629869)
(-5333.0017 -201.17346 -66.783455)
(-5835.4726 -210.72582 -45.98702)
(-6337.5179 -220.40481 -23.883262)
(-6838.8226 -231.74923 -0.15135793)
(-7336.8779 -244.22536 23.065147)
(33.63884 10.729182 11.835491)
(-2.1812708 29.899193 3.3476819)
(-38.488156 45.992299 -1.8770877)
(-126.63347 69.003851 -13.956362)
(-238.52674 95.264704 -24.322466)
(-390.8434 114.84634 -36.480198)
(-582.3502 141.84367 -50.592898)
(-810.79433 162.44027 -63.366879)
(-1079.7859 183.30918 -76.747703)
(-1387.2303 202.59259 -89.440601)
(-1730.8306 218.70649 -100.99752)
(-2108.4686 233.70842 -111.26531)
(-2515.9151 246.11491 -119.13981)
(-2949.3784 256.68007 -124.41054)
(-3404.2495 265.28798 -126.27672)
(-3876.1757 271.75621 -124.50734)
(-4360.674 276.17829 -118.71776)
(-4853.9331 278.25814 -108.99833)
(-5352.4593 277.79443 -95.454242)
(-5853.3585 274.74211 -78.652944)
(-6354.2893 268.79759 -59.179104)
(-6854.2942 260.3429 -37.9698)
(-7351.1136 249.08672 -15.637389)
(-2.5953868e-15 -2.1703571e-16 4.2716933e-18)
(-3.8783653e-15 3.5858996e-16 7.5215743e-16)
(-9.8459492e-16 7.8127033e-16 2.7525688e-16)
(-3.9146975e-16 7.8165185e-18 1.2560621e-16)
(1.6350797e-16 -2.4226884e-16 -1.2066667e-17)
(-1.0304172e-15 -9.2669207e-16 -7.5672327e-16)
(-6.4481012e-16 3.525084e-16 2.7116342e-16)
(-3.5205005e-15 9.4737515e-16 -2.5196009e-17)
(-3.8147498e-15 1.043275e-15 1.2924308e-16)
(-0.30847623 10.02483 20.846132)
(-7.0841939 15.987991 1.7035488)
(-6.7524124 8.9176156 -10.994001)
(-41.706713 88.348034 1.5168461)
(-38.723676 93.704405 -14.675391)
(-36.88786 87.662615 -38.731758)
(-81.430348 116.89245 2.5871717)
(-86.814188 115.59603 -18.399414)
(-84.511103 132.29003 -52.20697)
(-171.89881 180.90493 -16.371401)
(-171.4095 195.7015 -40.758804)
(-160.13794 190.221 -68.463552)
(-290.05797 240.79742 -28.05237)
(-287.70106 242.98692 -52.634721)
(-279.4407 257.69327 -88.281073)
(-443.07138 299.14698 -42.38721)
(-441.02559 309.83612 -73.996985)
(-424.8399 315.11516 -102.76878)
(-634.63017 361.11676 -59.480367)
(-630.76629 371.6785 -86.068527)
(-613.88983 379.10719 -123.725)
(-866.6955 422.90714 -73.891673)
(-855.75428 427.64121 -104.26873)
(-838.34949 438.02605 -136.07998)
(-1132.3988 479.03563 -89.757081)
(-1122.3587 488.82958 -119.01317)
(-1099.6406 494.92364 -151.84101)
(-1437.6407 535.46946 -104.52077)
(-1423.0198 540.73122 -133.42784)
(-1398.1881 547.56577 -164.04772)
(-1776.1276 584.48428 -118.73094)
(-1758.5108 589.21083 -146.41788)
(-1729.9629 593.70208 -174.66174)
(-2147.2215 629.44336 -131.88888)
(-2125.5207 631.65896 -157.1569)
(-2094.3395 634.22261 -182.81045)
(-2546.923 667.19519 -142.42786)
(-2521.4558 667.16598 -165.36512)
(-2486.9877 667.46561 -188.10722)
(-2971.3857 698.82738 -150.69601)
(-2941.6751 695.96642 -170.96111)
(-2904.1912 693.07806 -190.18625)
(-3416.8754 723.38486 -155.42219)
(-3383.2429 717.74058 -172.57334)
(-3342.9182 712.18585 -188.70375)
(-3879.0964 741.46915 -156.31871)
(-3841.5589 732.86823 -170.66233)
(-3798.5189 723.9748 -183.6146)
(-4354.3641 753.20379 -153.03447)
(-4313.2439 741.73314 -164.44358)
(-4267.7103 729.88032 -174.57891)
(-4839.0091 759.02786 -145.37503)
(-4794.6246 745.00862 -154.20387)
(-4747.0977 730.45832 -161.86558)
(-5329.8623 759.85586 -133.54412)
(-5282.8803 743.52777 -139.98766)
(-5233.574 726.54663 -145.60574)
(-5824.6103 755.89153 -117.94219)
(-5775.4007 737.82143 -122.42906)
(-5724.6905 719.15791 -126.38683)
(-6320.7466 748.36922 -99.219363)
(-6269.9721 729.0369 -102.06634)
(-6218.409 709.07138 -104.84781)
(-6817.3454 737.63967 -78.097448)
(-6765.4997 717.47758 -79.930408)
(-6713.1555 696.88664 -81.826487)
(-7312.3587 724.76426 -55.882981)
(-7260.12 704.40658 -57.069515)
(-7207.5671 683.79919 -58.202957)
(-7765.7744 -772.74112 84.029126)
(-7713.3334 -793.13985 82.833736)
(-7660.3683 -813.80779 82.814608)
(-7778.5554 -279.37464 45.479087)
(-7726.3617 -299.47882 44.172269)
(-7674.2989 -320.145 43.650207)
(-7792.8585 215.74603 5.6342478)
(-7740.7458 195.58621 5.2196859)
(-7688.2925 174.96019 4.4988116)
(-22.879772 -33.08196 -24.023999)
(-16.595793 -35.484669 -7.3072184)
(-22.31084 -28.548322 13.072021)
(-36.923514 -88.185491 -28.193744)
(-38.335166 -84.664645 0.70569753)
(-27.038429 -77.431802 25.117144)
(-88.1464 -161.84646 -40.600593)
(-81.032818 -149.69982 -15.303705)
(-76.029016 -146.37702 19.720496)
(-162.36839 -218.77594 -49.292773)
(-161.36943 -213.12518 -22.805666)
(-150.89769 -203.82432 11.116331)
(-272.16802 -301.08865 -64.593409)
(-269.92156 -289.83083 -30.184999)
(-257.21106 -279.88946 2.3924051)
(-419.31451 -375.30638 -72.951417)
(-412.57874 -362.82653 -44.404337)
(-400.85103 -354.05819 -6.2505679)
(-599.75194 -456.66357 -85.763887)
(-594.70274 -448.68281 -53.687746)
(-580.65342 -437.15151 -17.049605)
(-821.57891 -541.62584 -95.122503)
(-813.12756 -531.94269 -63.07326)
(-796.82971 -520.30859 -26.562211)
(-1077.3808 -627.83883 -103.93101)
(-1070.3191 -617.52989 -71.383782)
(-1050.4363 -607.15826 -39.216918)
(-1375.9987 -710.02967 -108.99044)
(-1362.9153 -702.85033 -81.538504)
(-1343.8069 -692.06041 -45.594183)
(-1708.5618 -790.2441 -112.58156)
(-1693.9329 -784.12975 -84.961733)
(-1671.0241 -774.7099 -54.573578)
(-2074.5951 -866.23402 -112.93993)
(-2056.5341 -861.85383 -88.677302)
(-2032.2011 -853.98458 -60.624978)
(-2471.1848 -935.78061 -109.94824)
(-2450.2786 -933.26997 -88.396025)
(-2423.0874 -927.49547 -63.946439)
(-2894.4921 -998.03444 -103.05847)
(-2870.1346 -997.74302 -84.998561)
(-2840.3539 -994.19929 -64.327571)
(-3340.2518 -1052.1607 -92.283121)
(-3312.3371 -1054.1312 -77.695609)
(-3279.816 -1053.4818 -60.438144)
(-3804.15 -1098.1196 -77.531834)
(-3772.6093 -1102.7265 -66.053209)
(-3737.1954 -1105.0944 -52.516223)
(-4282.0459 -1136.213 -58.709384)
(-4246.7649 -1143.4741 -50.471449)
(-4208.5073 -1148.8924 -40.088283)
(-4769.8039 -1167.3245 -36.550806)
(-4731.0154 -1177.015 -30.929339)
(-4689.9957 -1185.5055 -23.476176)
(-5264.4945 -1191.8165 -11.433184)
(-5222.1699 -1204.2841 -8.0157571)
(-5178.0897 -1215.8009 -2.9264245)
(-5762.3832 -1212.0839 15.830404)
(-5716.7232 -1226.6635 17.27551)
(-5670.6255 -1240.4876 20.440608)
(-6261.5024 -1228.3884 44.157904)
(-6213.2976 -1244.9338 44.315199)
(-6164.9011 -1260.9442 45.990723)
(-6760.6668 -1242.2818 71.798825)
(-6710.465 -1260.2615 71.527457)
(-6659.8775 -1278.2937 72.273389)
(-7257.3487 -1254.999 99.546397)
(-7205.6417 -1274.5659 98.767938)
(-7153.47 -1293.7913 98.325517)
(20.318377 -14.988653 17.884116)
(13.578745 -59.902485 22.523715)
(-21.859806 -66.384381 6.9971954)
(-101.25209 -105.71016 4.3065935)
(-202.22547 -140.48282 -6.069698)
(-345.37826 -179.51912 -16.507606)
(-524.03183 -224.0336 -28.185757)
(-740.40384 -270.53076 -38.996571)
(-997.32497 -321.30818 -50.205696)
(-1289.7564 -371.41428 -60.556082)
(-1619.5158 -422.74377 -69.48741)
(-1982.6328 -474.03857 -76.565681)
(-2375.5783 -522.67023 -81.441907)
(-2795.0176 -569.56422 -83.080858)
(-3236.1077 -613.04897 -81.019642)
(-3694.9294 -652.7465 -75.089036)
(-4167.2213 -688.38019 -65.073306)
(-4649.2631 -719.81579 -50.985085)
(-5137.8255 -746.95629 -33.266815)
(-5630.3222 -770.19436 -12.59673)
(-6124.5912 -789.85039 10.303979)
(-6619.6593 -806.72814 34.335941)
(-7113.6648 -821.21418 58.611037)
(35.273179 -5.6937597 -4.5952434)
(19.024581 6.1255946 -10.697074)
(-27.885547 13.263754 -22.709241)
(-102.72563 8.3388544 -29.22163)
(-204.43393 3.8053092 -40.135062)
(-351.24387 1.8833619 -56.356544)
(-528.14664 -13.233505 -66.30877)
(-748.31238 -24.734167 -79.612076)
(-1005.293 -41.975276 -91.283133)
(-1298.9967 -61.063167 -101.37732)
(-1630.1244 -82.730365 -110.4753)
(-1993.6635 -105.97462 -116.7057)
(-2387.3259 -129.372 -120.91968)
(-2806.8438 -154.41913 -121.69802)
(-3248.0366 -178.57117 -119.1306)
(-3706.7525 -202.32496 -112.92035)
(-4179.0281 -224.86016 -102.71059)
(-4661.1025 -246.02497 -88.797891)
(-5149.8676 -265.32392 -71.364342)
(-5642.6936 -283.0073 -51.218017)
(-6137.3792 -298.9392 -28.684381)
(-6632.9842 -313.81916 -4.9151547)
(-7127.1636 -326.97425 19.490542)
(33.617732 26.831707 -23.541042)
(1.0191821 47.806803 -30.915851)
(-34.895585 96.697773 -52.649013)
(-104.65073 100.89358 -57.998914)
(-213.39385 144.39486 -81.992174)
(-360.25266 164.50474 -93.980899)
(-537.89794 187.76231 -109.00496)
(-761.21913 211.35115 -124.17113)
(-1017.5962 227.02546 -135.95219)
(-1315.3265 242.58606 -147.24437)
(-1646.3059 252.71009 -155.67264)
(-2010.9695 259.50883 -161.55639)
(-2405.0879 262.80904 -164.84755)
(-2824.4954 261.9154 -164.36704)
(-3265.5857 258.36197 -160.71537)
(-3723.8849 251.83871 -153.15586)
(-4195.5704 242.91944 -141.98072)
(-4677.0847 232.37709 -127.23682)
(-5165.2586 220.4797 -109.45254)
(-5657.5743 207.76876 -88.895152)
(-6152.0089 194.6029 -66.507267)
(-6647.0051 181.22999 -43.016578)
(-7141.4075 167.81709 -19.314951)
(4.0046567 -14.762524 -16.443228)
(7.931682 -15.980681 -4.8495526)
(2.5933335 -12.225118 8.0622796)
(-15.883939 -64.332572 -19.530108)
(-21.259761 -58.179503 -3.3327732)
(-9.670467 -57.210014 11.662909)
(-64.32397 -88.796766 -32.309213)
(-54.169106 -84.308453 -16.649736)
(-51.8205 -78.658301 -3.3127645)
(-139.48143 -130.76235 -41.721339)
(-140.2848 -124.66301 -23.26656)
(-131.28194 -112.34275 -8.9960462)
(-251.87077 -169.49519 -51.76586)
(-246.89937 -158.99552 -36.251048)
(-237.33863 -149.81612 -19.216204)
(-399.31042 -210.07742 -65.169032)
(-394.56219 -203.54267 -47.807954)
(-380.93824 -191.45823 -30.879653)
(-582.35389 -255.60346 -76.013989)
(-576.16521 -247.75318 -58.611505)
(-562.33908 -234.70507 -42.0649)
(-805.76301 -303.10054 -86.462207)
(-798.57611 -293.36328 -70.280039)
(-780.32053 -281.82821 -53.888499)
(-1067.539 -348.02721 -96.523913)
(-1056.8086 -341.55721 -81.16159)
(-1037.9598 -330.8132 -64.160574)
(-1367.1771 -397.04776 -103.89656)
(-1354.8244 -390.95724 -89.107283)
(-1333.0214 -379.76213 -73.903788)
(-1703.1519 -443.39934 -109.65565)
(-1687.794 -437.34695 -96.646824)
(-1662.9331 -429.67574 -82.937154)
(-2072.2479 -487.59979 -113.00561)
(-2053.8259 -484.05456 -101.52267)
(-2026.9669 -478.39758 -88.637596)
(-2472.2664 -529.6615 -113.22659)
(-2450.5541 -527.42091 -103.39356)
(-2420.7099 -524.71402 -92.422245)
(-2898.3127 -567.58656 -110.13397)
(-2873.0227 -567.81772 -102.16186)
(-2840.4333 -567.9493 -92.919075)
(-3346.6166 -601.73226 -103.42327)
(-3317.5625 -604.25929 -97.210421)
(-3282.3164 -607.99385 -89.512375)
(-3812.5813 -631.58785 -92.891615)
(-3779.8791 -637.02189 -88.150985)
(-3741.7479 -644.01751 -82.209722)
(-4292.1133 -657.5482 -78.451491)
(-4255.6381 -665.61766 -75.237455)
(-4214.8522 -675.96018 -70.75304)
(-4781.26 -679.73147 -60.466022)
(-4741.2907 -690.6125 -58.358007)
(-4697.9126 -703.99387 -55.283033)
(-5276.6738 -698.74045 -39.391465)
(-5233.442 -712.24808 -38.221254)
(-5187.3826 -728.35051 -36.218907)
(-5775.2362 -715.7329 -15.70452)
(-5728.851 -731.65247 -15.315654)
(-5681.1598 -749.37805 -14.273874)
(-6274.8633 -730.73655 9.2723357)
(-6226.2386 -748.02654 9.1767755)
(-6176.4069 -767.80194 9.6665474)
(-6774.1587 -745.0426 35.28798)
(-6723.822 -763.84171 34.777392)
(-6672.2607 -784.48978 34.539087)
(-7271.2886 -758.82502 60.702166)
(-7219.4274 -778.65616 59.729668)
(-7166.7721 -799.41636 59.240573)
(21.062313 -5.2399089 0.37635622)
(18.20633 -6.6579226 0.34462784)
(14.611773 -6.5729118 2.0718798)
(-11.211544 -9.9337649 -3.6309564)
(-13.047112 -8.7889985 -4.2056408)
(-0.16317909 -6.5137275 -6.0209922)
(-58.954877 -16.428979 -17.216754)
(-56.888803 -10.774338 -22.281201)
(-52.084031 -3.8621996 -18.861053)
(-135.10656 -20.03831 -25.933285)
(-142.0489 -10.647488 -28.72294)
(-128.59554 0.050234403 -26.792419)
(-252.03782 -28.526909 -41.359006)
(-250.6318 -19.571667 -46.406868)
(-235.65675 -13.557773 -39.508124)
(-398.83447 -35.919262 -53.693942)
(-398.67306 -25.762872 -55.250751)
(-382.6187 -14.842164 -53.946722)
(-586.02967 -47.942502 -65.679999)
(-582.96971 -37.220275 -70.397942)
(-564.32473 -26.14081 -66.362151)
(-812.04992 -58.044259 -79.904022)
(-806.01796 -48.562493 -83.09598)
(-785.07134 -39.383395 -79.313416)
(-1074.5511 -73.117253 -90.52206)
(-1066.8464 -64.422305 -93.42584)
(-1044.2941 -53.725694 -91.179219)
(-1377.3123 -88.113482 -101.68576)
(-1365.9002 -79.746227 -105.11235)
(-1340.4498 -71.606599 -102.74817)
(-1714.5683 -103.74085 -110.36768)
(-1699.7595 -97.163528 -113.66734)
(-1672.1863 -89.924555 -111.30722)
(-2085.6853 -120.24131 -117.17099)
(-2067.1702 -115.78967 -120.50462)
(-2037.3337 -110.80371 -118.30637)
(-2486.7483 -136.61374 -121.16195)
(-2464.4685 -133.94866 -124.32603)
(-2431.826 -131.31221 -122.45585)
(-2913.6432 -152.41327 -122.09129)
(-2887.1472 -152.15125 -125.04217)
(-2852.2194 -152.72751 -123.73189)
(-3362.4824 -167.35992 -119.30684)
(-3332.0309 -169.90703 -122.2291)
(-3294.4857 -173.66946 -120.97247)
(-3828.6596 -181.48131 -112.71287)
(-3794.1336 -186.82474 -115.32266)
(-3754.1025 -193.89227 -114.70038)
(-4308.2008 -194.48495 -102.03714)
(-4269.8464 -202.69319 -104.5336)
(-4227.4175 -213.08542 -104.19412)
(-4797.0702 -206.66087 -87.531568)
(-4755.2384 -217.80342 -89.833065)
(-4710.4968 -231.15273 -89.904554)
(-5292.1628 -218.22473 -69.637054)
(-5247.1351 -231.82383 -71.574406)
(-5200.2336 -247.99535 -71.958716)
(-5790.4246 -229.76717 -48.413904)
(-5742.355 -245.93861 -50.582272)
(-5694.0352 -263.51279 -51.271118)
(-6289.1082 -240.80622 -25.929288)
(-6239.7632 -259.07241 -27.574709)
(-6189.332 -277.99022 -28.197843)
(-6788.292 -253.0828 -1.9171324)
(-6737.1009 -271.9867 -3.2826059)
(-6685.5392 -292.31161 -4.0036604)
(-7284.8762 -265.3148 22.319032)
(-7232.5752 -285.31202 21.143265)
(-7180.2065 -305.94155 20.398251)
(18.183376 14.349617 4.4019809)
(19.945691 11.206047 -1.4808968)
(19.895512 13.043444 -10.59917)
(-21.170143 32.339764 -4.6906706)
(-24.472808 24.917628 -14.093014)
(-16.522709 37.282586 -23.475032)
(-59.5803 54.532423 -13.886792)
(-58.945577 69.558928 -27.254109)
(-58.717219 78.59552 -39.734088)
(-148.61066 81.854588 -25.076964)
(-144.74837 78.104509 -36.805439)
(-137.88916 92.434397 -47.257157)
(-258.87405 102.40408 -39.04814)
(-255.59656 113.75315 -52.45132)
(-246.66295 125.24685 -66.300568)
(-411.92175 128.78717 -50.064824)
(-406.77279 134.72785 -64.788363)
(-393.62631 149.86295 -77.873228)
(-600.84689 153.95864 -65.581696)
(-592.15326 160.37625 -82.222155)
(-578.1076 173.20265 -94.329212)
(-827.15574 174.35169 -78.930432)
(-817.88125 182.84462 -92.613514)
(-800.27499 196.64054 -107.46525)
(-1093.7026 196.28952 -91.733964)
(-1080.6884 202.95342 -107.9913)
(-1060.3703 214.80856 -121.59189)
(-1396.8275 214.59525 -104.79034)
(-1381.4834 221.25971 -119.42864)
(-1358.1413 231.89749 -132.2559)
(-1735.6172 230.29627 -115.51205)
(-1717.2462 235.85786 -129.52719)
(-1690.9134 244.34622 -142.17723)
(-2107.8649 243.93876 -125.04011)
(-2085.8198 247.90154 -138.12206)
(-2056.4605 253.7648 -149.48088)
(-2509.0858 254.345 -132.04508)
(-2483.6487 256.74986 -143.66326)
(-2451.308 259.87845 -153.93097)
(-2936.2076 262.60218 -136.13847)
(-2906.9505 262.50877 -146.4449)
(-2871.546 262.27221 -155.50163)
(-3384.5306 268.03723 -136.89146)
(-3351.6478 265.31949 -145.74931)
(-3313.2793 261.90745 -153.29818)
(-3850.0225 271.02075 -133.86448)
(-3813.4827 265.5384 -141.1444)
(-3772.2739 258.74531 -147.52817)
(-4328.4861 271.65368 -126.77485)
(-4288.5568 263.22672 -132.76758)
(-4244.7354 253.20281 -137.82702)
(-4816.2949 269.91609 -115.78346)
(-4773.1965 258.6802 -120.37932)
(-4726.9603 245.56972 -124.35899)
(-5309.9802 265.8397 -100.90775)
(-5264.1174 251.91078 -104.49481)
(-5215.9517 236.46857 -107.55233)
(-5806.9878 259.62355 -82.938567)
(-5758.9312 243.66508 -85.469427)
(-5708.9969 225.86234 -87.627435)
(-6305.244 251.28783 -62.343163)
(-6255.148 233.30918 -64.265873)
(-6204.1085 214.39319 -65.768006)
(-6803.0074 241.10404 -39.997913)
(-6751.7671 221.91997 -41.167014)
(-6699.6411 201.94302 -42.276337)
(-7298.7881 229.05754 -16.774402)
(-7246.6337 209.3189 -17.903883)
(-7194.1421 188.56482 -18.79765)
)
;

boundaryField
{
    free
    {
        type            zeroGradient;
    }
    fixed
    {
        type            fixedValue;
        value           nonuniform List<vector> 
25
(
(-2.5953868e-15 -2.1703571e-16 4.2716933e-18)
(-1.3028228e-15 -3.4252847e-16 3.3068324e-16)
(-1.9658614e-16 -3.2115893e-17 -1.1045223e-16)
(-3.6361799e-15 2.112754e-16 -3.2990721e-16)
(-3.8783653e-15 3.5858996e-16 7.5215743e-16)
(-2.0449562e-15 -3.5718549e-16 -7.3673077e-16)
(-9.8459492e-16 7.8127033e-16 2.7525688e-16)
(-1.4121951e-15 -1.0527101e-15 6.223458e-16)
(-4.8813632e-16 1.9183015e-16 -1.0607077e-16)
(6.5239771e-16 2.739523e-16 -5.5565719e-16)
(-3.9146975e-16 7.8165185e-18 1.2560621e-16)
(1.4766345e-16 -3.4299605e-16 -2.8648028e-16)
(1.6350797e-16 -2.4226884e-16 -1.2066667e-17)
(-1.0304172e-15 -9.2669207e-16 -7.5672327e-16)
(-2.6214496e-15 -5.6404768e-16 7.244144e-16)
(-6.4481012e-16 3.525084e-16 2.7116342e-16)
(-1.0135278e-15 7.0169807e-16 1.7538027e-16)
(-3.5205005e-15 9.4737515e-16 -2.5196009e-17)
(-3.8147498e-15 1.043275e-15 1.2924308e-16)
(-2.4010456e-15 1.4295629e-15 -1.6975308e-16)
(-1.2019486e-15 6.189313e-16 -3.4292956e-16)
(2.8178306e-17 1.9013092e-16 6.1994168e-17)
(-1.2511779e-16 -6.848356e-17 2.1836215e-16)
(-3.8898857e-17 4.7141393e-16 -3.1043199e-16)
(-3.7042918e-15 1.4868296e-15 -1.3023874e-15)
)
;
    }
    freeTop
    {
        type            zeroGradient;
    }
}


// ************************************************************************* //
