/*--------------------------------*- C++ -*----------------------------------*\
  =========                 |
  \\      /  F ield         | OpenFOAM: The Open Source CFD Toolbox
   \\    /   O peration     | Website:  https://openfoam.org
    \\  /    A nd           | Version:  6
     \\/     M anipulation  |
\*---------------------------------------------------------------------------*/
FoamFile
{
    version     2.0;
    format      ascii;
    class       pointVectorField;
    location    "0.16";
    object      lm;
}
// * * * * * * * * * * * * * * * * * * * * * * * * * * * * * * * * * * * * * //

dimensions      [1 -2 -1 0 0 0 0];

internalField   nonuniform List<vector> 
625
(
(0 0 0)
(0 0 0)
(3277.9543 172.68574 63.182533)
(3203.2903 -727.15726 -3.2710699)
(0 0 0)
(0 0 0)
(3269.1667 -754.85522 -6.0600517)
(3340.7977 147.54412 62.834217)
(0 0 0)
(0 0 0)
(0 0 0)
(3192.1428 -48.843375 46.352872)
(3199.8912 -271.27882 29.775892)
(3244.9903 -504.05979 12.938019)
(23.764326 48.527844 35.193484)
(67.941768 86.470743 34.863964)
(137.48818 112.65557 23.941483)
(222.91686 131.58025 11.92761)
(316.18937 139.01431 -1.1857423)
(409.72189 138.56704 -15.042956)
(500.16326 135.59433 -24.578388)
(580.08618 130.98291 -29.531829)
(651.39096 133.6261 -25.903333)
(716.45541 145.20695 -15.294808)
(783.27038 167.9782 2.440659)
(861.88132 200.372 23.470365)
(962.97515 238.64522 43.176529)
(1093.8442 276.97732 58.410371)
(1257.0491 309.29891 66.946902)
(1449.7917 330.66386 68.893383)
(1665.7634 339.41125 65.516841)
(1895.2525 333.39377 60.379131)
(2130.8718 316.99204 54.318183)
(2363.641 291.75815 51.473684)
(2591.929 261.56431 50.959583)
(2813.5104 230.4753 53.140229)
(3029.2364 200.65359 58.316243)
(16.399015 -48.56985 -52.673148)
(71.647695 -91.092649 -45.328775)
(152.48308 -128.32419 -32.830775)
(236.88751 -152.83523 -25.441905)
(327.37472 -167.63782 -20.208258)
(415.68065 -170.3778 -17.643045)
(497.91774 -169.66242 -18.528653)
(569.36248 -165.78211 -25.256201)
(631.60512 -165.02147 -34.641303)
(689.54363 -171.31511 -47.375541)
(749.8504 -189.33783 -59.772948)
(823.17232 -220.22845 -70.1322)
(916.88241 -263.23702 -76.597451)
(1038.6839 -315.94887 -77.624644)
(1191.2329 -373.9683 -73.590809)
(1373.365 -432.60293 -65.387147)
(1580.7062 -487.83318 -54.13515)
(1805.8179 -536.45207 -42.38604)
(2040.9833 -578.14558 -30.734979)
(2278.91 -612.4336 -21.573051)
(2514.4882 -642.2294 -14.46019)
(2745.0986 -669.50001 -9.4507817)
(2974.0233 -696.84666 -6.774118)
(0 0 0)
(0 0 0)
(0 0 0)
(25.0007 -29.839409 40.772163)
(77.00508 -97.00199 39.400522)
(148.49614 -119.79967 20.201275)
(238.72671 -140.71558 9.6507975)
(326.88877 -152.71148 -4.4908694)
(416.46225 -156.97699 -14.418538)
(500.52774 -155.86351 -22.850051)
(574.08343 -155.57903 -27.61688)
(641.62758 -161.73781 -26.848139)
(706.63224 -175.36338 -22.666498)
(775.14871 -201.49887 -14.489353)
(857.46303 -239.08726 -5.9465781)
(960.53991 -287.4219 1.586585)
(1090.9894 -343.42719 5.8882739)
(1250.5922 -402.75458 6.5579732)
(1438.0442 -461.37074 3.6488813)
(1648.3481 -515.54471 -1.7014984)
(1874.3566 -563.06098 -7.7412715)
(2108.455 -603.37784 -12.89929)
(2344.3344 -637.38332 -15.87119)
(2576.8498 -666.90749 -15.963351)
(2805.2245 -694.69744 -13.83729)
(3024.17 -719.97979 -9.6865484)
(3314.3202 -531.18567 12.273718)
(3251.9704 -295.62074 29.137472)
(3272.864 -74.170083 44.890091)
(3098.5702 175.62993 60.704389)
(2883.1316 207.52771 59.183163)
(2660.5077 238.5218 56.26931)
(2431.7699 267.63129 51.355732)
(2197.5969 290.83512 43.780492)
(1961.7808 304.47709 32.791372)
(1729.8475 306.64364 19.197375)
(1510.2929 295.6481 3.7348506)
(1310.8901 273.69733 -11.717235)
(1138.5186 243.983 -25.399611)
(996.06677 211.87778 -35.24011)
(882.59986 183.10455 -40.579364)
(792.27163 161.58246 -40.795287)
(717.19997 150.28466 -36.97279)
(650.29975 147.23956 -29.682222)
(575.79322 151.56153 -24.04765)
(500.67166 157.35734 -15.753848)
(415.66703 159.2878 -13.347097)
(324.45737 157.15882 -11.689444)
(232.69951 144.72175 -17.343057)
(147.83662 118.73512 -21.581593)
(73.485982 88.116157 -28.340903)
(32.922229 46.344338 -31.168289)
(0 0 0)
(0 0 0)
(0 0 0)
(0 0 0)
(0 0 0)
(0 0 0)
(3218.7899 -734.02204 -3.9499068)
(3234.8444 -740.59704 -4.3084091)
(3251.2364 -747.61897 -5.5563693)
(3293.5841 165.26356 62.843578)
(3308.9514 158.94789 62.970187)
(3325.0383 152.60003 63.242445)
(8.1286206 16.818702 21.848273)
(52.921641 29.589065 14.317065)
(126.03727 41.43946 9.3083741)
(212.3669 50.636189 2.1118671)
(307.65881 56.706258 -6.5584865)
(403.93531 61.30433 -13.858172)
(496.02773 64.585467 -21.016772)
(577.32311 69.365614 -25.009487)
(647.48427 75.683886 -24.713174)
(711.15588 84.606569 -20.255275)
(774.75482 96.283839 -11.342275)
(850.9246 109.03335 -0.45669251)
(950.05132 121.2463 10.876375)
(1079.8767 130.5173 20.844144)
(1242.5841 134.2095 28.064253)
(1434.7128 131.91861 32.35124)
(1648.9498 121.88844 34.392147)
(1875.6388 105.71555 34.822693)
(2106.4282 84.98519 34.532524)
(2333.8539 59.700547 35.492394)
(2556.2714 33.620458 36.195629)
(2772.1817 6.1392453 39.126542)
(2987.8003 -21.60341 42.428374)
(3.6854178 -0.55058194 -0.99914384)
(52.76996 -3.0389085 -4.3070883)
(131.60301 -3.8459964 -6.6112507)
(221.39247 -6.8779898 -9.4015344)
(317.79433 -9.5307896 -13.471224)
(412.39507 -11.936209 -19.083065)
(499.55299 -14.148138 -24.189892)
(575.27659 -15.195061 -28.282519)
(640.03346 -15.382683 -30.911951)
(697.9226 -14.171192 -31.16479)
(757.1215 -12.979635 -28.975117)
(828.33196 -12.81702 -24.643658)
(921.15005 -15.315651 -18.481049)
(1043.4724 -22.190964 -11.626852)
(1198.3446 -34.244056 -4.6748217)
(1384.694 -51.874532 1.7559611)
(1596.8913 -74.588793 7.2363425)
(1826.8631 -100.80032 11.51703)
(2066.65 -129.35432 15.123349)
(2307.4966 -159.04858 18.075481)
(2546.2783 -187.93751 20.458995)
(2779.1809 -217.11238 23.9587)
(3004.2716 -245.71864 26.534258)
(3.381308 -18.777374 -20.927613)
(58.63321 -35.967787 -24.825835)
(144.02903 -55.18663 -20.413081)
(234.30442 -71.856746 -18.728181)
(331.2732 -83.212946 -18.42614)
(422.9695 -90.762945 -20.151737)
(505.44955 -94.831288 -22.604508)
(575.17679 -97.496889 -27.070174)
(633.54404 -99.349204 -32.428596)
(686.28241 -102.27335 -37.39333)
(741.25697 -108.44218 -41.777624)
(808.67709 -119.23115 -43.985894)
(898.01176 -136.61298 -44.111611)
(1016.5459 -160.49278 -41.683554)
(1167.9967 -191.0331 -36.888901)
(1351.9614 -226.31551 -30.552947)
(1563.6602 -264.69416 -23.247817)
(1796.5249 -304.01781 -15.697424)
(2041.2191 -342.01579 -8.9368189)
(2290.4456 -378.54745 -2.5324122)
(2538.0129 -412.07061 2.1905083)
(2779.9355 -443.94056 6.5451797)
(3010.1835 -473.39694 9.8909138)
(0 0 0)
(0 0 0)
(0 0 0)
(0 0 0)
(0 0 0)
(0 0 0)
(0 0 0)
(0 0 0)
(0 0 0)
(34.717329 -22.777931 -19.981754)
(39.934028 -28.384469 -2.229197)
(34.702272 -22.25795 15.289434)
(93.533021 -93.541257 -25.532562)
(95.55096 -92.406476 -1.590028)
(90.995803 -89.415346 19.42464)
(161.28537 -132.26437 -15.868738)
(161.99387 -129.98527 -1.8866688)
(160.23839 -127.30526 10.336529)
(240.92116 -154.65873 -16.055371)
(246.02648 -147.06433 -7.3300073)
(241.90105 -148.56586 2.3113434)
(329.43764 -166.29722 -15.698068)
(329.92606 -164.33102 -11.85035)
(329.60328 -160.16775 -6.84022)
(414.82012 -170.08764 -17.599989)
(417.35883 -166.00658 -17.063873)
(416.45381 -164.09357 -14.50023)
(497.14451 -167.58305 -21.51997)
(495.87916 -164.60492 -23.111555)
(498.01353 -161.85645 -22.794204)
(568.87009 -162.69831 -27.400448)
(570.87197 -160.09261 -30.307665)
(572.82758 -159.21976 -27.63155)
(635.79021 -160.81545 -35.09354)
(637.27073 -161.8458 -35.333528)
(641.0189 -162.36191 -29.698616)
(698.81794 -168.77283 -43.193839)
(703.11346 -171.56479 -38.915439)
(708.33266 -173.35583 -29.377681)
(766.27994 -188.33514 -49.45291)
(773.22571 -193.01827 -40.850058)
(779.0562 -197.09973 -26.010923)
(845.43017 -222.11219 -54.380249)
(855.52553 -228.21467 -40.619077)
(862.48886 -234.03777 -21.441601)
(944.16448 -268.41431 -56.143787)
(957.68582 -275.28095 -38.658042)
(965.40998 -282.38354 -16.860337)
(1068.9223 -324.35468 -55.069808)
(1084.9823 -331.49201 -35.856392)
(1093.7595 -339.20278 -13.534393)
(1221.994 -384.94607 -51.352114)
(1239.9975 -391.80762 -32.439883)
(1250.1084 -399.54919 -11.833867)
(1402.907 -445.15999 -45.677905)
(1421.9898 -451.61785 -29.138187)
(1433.378 -459.10057 -11.955389)
(1607.3914 -500.79251 -38.878082)
(1626.4629 -506.77557 -25.957168)
(1639.5078 -513.73047 -13.420394)
(1828.9763 -549.05158 -31.829994)
(1847.8758 -554.68363 -23.208502)
(1862.0756 -561.24702 -15.217454)
(2060.5667 -589.23946 -25.188572)
(2078.4173 -594.66397 -20.336862)
(2093.7597 -600.98911 -16.609959)
(2295.4598 -622.17681 -19.389599)
(2312.6727 -627.87376 -17.663983)
(2328.7102 -634.14898 -16.833853)
(2528.767 -650.4045 -14.652116)
(2545.1821 -656.19539 -14.574261)
(2561.721 -662.56952 -15.398031)
(2758.2118 -676.54024 -10.641002)
(2774.6624 -683.02426 -11.438297)
(2791.1435 -689.76133 -12.814435)
(2983.529 -702.29024 -7.3785498)
(2999.1446 -708.84091 -8.3267231)
(3015.9117 -715.54589 -9.0205391)
(3213.4761 -56.273302 45.796004)
(3228.6247 -62.848061 45.499849)
(3244.5268 -68.835531 45.337947)
(3206.438 -277.29171 29.642604)
(3224.2639 -284.02335 29.309105)
(3240.1667 -289.96699 29.160897)
(3253.6607 -508.9932 12.668032)
(3273.2472 -516.54032 13.217019)
(3290.117 -523.08906 12.427859)
(42.160843 44.864683 14.914639)
(44.655089 45.512065 3.3087349)
(42.093528 47.483693 -11.152283)
(83.088928 87.221679 18.447646)
(87.749285 88.613297 4.7305396)
(90.321702 90.964038 -13.520823)
(152.31296 117.77408 12.648915)
(155.67733 118.62537 1.3865239)
(154.66525 119.90376 -11.205172)
(233.26563 138.93255 5.2888172)
(235.75158 141.51605 -0.72771648)
(236.67525 143.30028 -9.9886952)
(320.30679 146.53545 -3.4262306)
(322.74096 149.22471 -7.4376755)
(324.49134 152.05268 -9.9568145)
(411.71803 149.15132 -14.05575)
(412.3149 151.53473 -11.102375)
(413.46273 154.46292 -14.115359)
(497.9241 142.93617 -21.934486)
(496.94533 144.57349 -19.171208)
(498.65037 149.58631 -18.529514)
(577.95709 135.2964 -27.453717)
(576.59974 140.60031 -23.646411)
(579.04415 144.87172 -26.118262)
(652.04739 135.31881 -26.537059)
(650.02505 136.65679 -28.31562)
(651.09477 142.05482 -30.400605)
(721.45075 139.99443 -22.139492)
(723.76217 143.32756 -24.781633)
(724.60782 147.90121 -33.387726)
(795.85104 157.97738 -9.6792512)
(799.39725 160.07502 -20.185827)
(802.38294 163.4142 -32.827023)
(882.66367 186.99471 4.6255743)
(889.95888 187.52772 -10.778627)
(894.7436 188.81262 -27.796819)
(990.35817 223.7243 20.050714)
(1001.5094 221.78198 1.0305564)
(1008.0185 221.23903 -19.102488)
(1125.0459 262.41736 33.809773)
(1139.7019 258.17147 13.460985)
(1148.1221 255.74088 -7.6940345)
(1288.8075 296.74316 44.146341)
(1306.1445 290.49321 24.992729)
(1316.4321 286.43111 5.376016)
(1479.6325 320.8809 50.204989)
(1498.4438 313.42708 34.611872)
(1510.2154 308.17319 18.211699)
(1691.659 332.01969 52.952776)
(1710.7058 323.91274 41.784992)
(1724.0888 317.59383 29.916043)
(1917.4252 328.20303 53.050658)
(1936.0981 320.28695 46.399796)
(1950.181 314.01597 39.383638)
(2149.1056 312.63326 51.997938)
(2166.4481 305.24494 49.918118)
(2181.723 298.26347 46.756329)
(2379.9096 287.47131 52.156784)
(2397.0714 280.37824 51.899854)
(2412.2918 273.88214 51.788509)
(2607.8803 256.40256 52.558324)
(2623.7827 249.76455 54.150182)
(2639.2436 243.64443 55.426132)
(2829.4175 224.58132 54.864671)
(2845.147 218.45848 56.741917)
(2860.7571 212.44554 58.052204)
(3048.5704 192.9888 58.525381)
(3063.9134 186.91362 59.479322)
(3079.5892 180.92674 60.058094)
(6.8011705 9.2421515 -18.32908)
(60.067252 33.873444 -9.9856429)
(132.83956 48.570862 -12.387931)
(217.85999 61.291716 -9.4082437)
(313.44539 72.186743 -12.307373)
(406.86179 78.188067 -14.484416)
(495.23455 81.605209 -20.093605)
(575.13355 82.638466 -26.120861)
(647.56233 81.092779 -30.444556)
(715.43963 82.256876 -33.900478)
(788.52249 83.806211 -33.537211)
(876.17472 87.937043 -29.437702)
(987.52847 93.745414 -22.147289)
(1128.8348 99.048398 -12.569507)
(1301.1712 101.58676 -1.7615995)
(1500.5677 99.550944 8.5154418)
(1719.3884 91.549759 17.674142)
(1948.5405 77.3139 25.003674)
(2179.3977 57.906142 30.773932)
(2406.4101 34.297955 34.797112)
(2626.514 8.4030458 38.176053)
(2839.9005 -18.418186 40.503291)
(3046.6102 -46.532755 42.63781)
(3.9470332 3.7665738 2.3412125)
(60.426825 7.6160825 -1.1393335)
(136.6078 3.0732845 -1.3392057)
(224.68171 6.8427455 -4.9826952)
(320.9639 2.442526 -7.7125952)
(413.10392 1.5820636 -12.885077)
(499.83004 -1.6289849 -18.007856)
(576.49436 -6.7217234 -22.488561)
(644.79965 -12.332745 -25.588666)
(710.04524 -17.459 -26.653996)
(779.4452 -23.513852 -25.135866)
(862.5313 -29.688897 -21.454262)
(967.89071 -36.962143 -16.261957)
(1101.5133 -47.288659 -10.097128)
(1265.1176 -60.980864 -4.0113172)
(1456.4314 -79.001028 1.3355081)
(1669.7267 -100.98353 6.096048)
(1897.0315 -126.49191 9.7485818)
(2130.9742 -154.04149 13.219399)
(2365.1466 -182.86615 16.090857)
(2595.9634 -211.90693 19.423008)
(2822.398 -240.84599 22.4226)
(3054.6553 -270.68603 25.90313)
(3.0157429 -12.535321 17.599797)
(66.011849 -30.548929 19.684105)
(148.96203 -44.45197 14.44215)
(238.15276 -61.762592 4.9484005)
(335.48908 -66.889775 -3.8922955)
(424.38966 -73.515269 -13.570717)
(508.19265 -78.952277 -20.468066)
(578.28969 -83.911055 -25.778377)
(641.1445 -90.662413 -27.078963)
(700.03451 -100.57086 -25.57087)
(763.35878 -113.67435 -20.461829)
(840.57908 -131.32846 -13.791153)
(940.00089 -154.19016 -6.3772974)
(1067.9607 -182.22953 -0.081087874)
(1226.9558 -214.9381 4.3245146)
(1415.8862 -251.06692 6.4684281)
(1630.2217 -289.33751 6.5864588)
(1862.7016 -327.85923 5.4119777)
(2105.7146 -365.59407 4.1539463)
(2351.9275 -401.69694 3.3237334)
(2596.317 -435.56966 4.12089)
(2836.4988 -468.21807 5.8630641)
(3074.8791 -499.24159 8.9411855)
(15.179931 7.6931582 8.3462666)
(18.473628 8.9874301 1.9864406)
(18.599116 9.5370366 -6.5208538)
(68.121697 31.525886 8.9390792)
(70.615805 32.822833 2.3076516)
(71.145541 31.789056 -7.5688451)
(138.38563 47.502108 4.4991153)
(143.49468 48.104213 -2.0399329)
(141.49435 50.896101 -7.3387175)
(221.74083 57.483489 -1.2545421)
(223.85092 58.42404 -4.2133981)
(224.11478 60.706648 -7.1942238)
(313.65949 64.21962 -6.7747241)
(315.29573 67.263339 -8.2753689)
(316.14403 70.75761 -10.619643)
(406.2748 67.299273 -13.473894)
(406.96926 71.0967 -14.379837)
(408.96508 74.631793 -14.434082)
(495.76674 68.69309 -19.809416)
(494.95162 73.362663 -21.035443)
(496.83851 76.662849 -20.224554)
(576.34679 70.155127 -24.955164)
(575.62559 74.588034 -25.610627)
(578.11674 76.854376 -26.855875)
(649.22002 71.945852 -26.889428)
(649.51537 76.668755 -29.640997)
(651.42446 78.433581 -30.07632)
(717.33337 77.643289 -25.437674)
(719.35598 80.303975 -29.337974)
(721.92247 79.525791 -31.905778)
(787.88733 86.368738 -19.687978)
(792.64869 86.766431 -25.503457)
(796.21573 84.906749 -30.336641)
(871.16274 97.153852 -11.486718)
(879.77364 95.827531 -18.328455)
(884.36013 91.377765 -24.612194)
(976.39565 109.18341 -1.4318349)
(988.42683 105.19706 -8.8816466)
(994.53163 99.60128 -16.239119)
(1110.1607 119.01642 8.6770056)
(1125.1911 113.54697 1.3494401)
(1133.1832 106.85663 -6.3422352)
(1274.2478 124.57969 17.430934)
(1291.4433 117.90339 10.916248)
(1301.2851 110.59416 4.0327031)
(1465.7108 123.71708 24.201534)
(1483.9446 116.45985 19.083647)
(1495.5568 108.94703 13.363723)
(1677.4616 115.25054 28.984278)
(1695.8928 108.26153 25.209027)
(1709.2069 100.66312 21.282955)
(1901.3408 100.13478 31.800549)
(1919.3821 93.092284 29.686872)
(1933.5212 86.015684 27.334053)
(2128.8608 79.299476 33.70697)
(2145.7597 73.146977 32.890315)
(2161.2325 65.603058 32.028339)
(2354.785 54.136804 35.445672)
(2370.1483 47.63682 35.235409)
(2386.1347 41.253963 35.297205)
(2574.6317 27.263659 36.819172)
(2590.717 21.206646 37.379983)
(2606.039 14.842087 38.286117)
(2789.2429 -0.51906738 39.853657)
(2804.6432 -6.4226426 40.19817)
(2820.3858 -12.950803 40.606556)
(3000.8175 -28.816394 42.44955)
(3016.0327 -34.852636 42.618878)
(3031.8967 -41.176651 42.868716)
(14.024577 0.97160745 0.24232575)
(16.723135 2.2901098 -0.33572182)
(16.386259 2.0975711 1.5781759)
(68.17526 0.36295108 -2.3180024)
(70.329503 2.4120704 -1.8540306)
(71.075129 3.6209205 -0.84819316)
(143.21116 -2.0303801 -7.0690272)
(148.17211 -2.5627031 -5.0813345)
(144.10182 0.35918024 -2.6961408)
(230.70282 -3.8945449 -8.4798242)
(230.68508 -1.3969542 -5.7324366)
(231.34729 2.5631357 -5.6411942)
(320.94971 -6.1515179 -13.78518)
(324.39327 -5.1363781 -11.569313)
(323.8719 -1.1865028 -10.68042)
(414.30902 -8.8399642 -19.51344)
(414.05512 -6.5504967 -16.431714)
(414.66633 -1.9554086 -15.631651)
(498.39279 -11.228751 -24.841665)
(499.38464 -9.3232224 -22.002812)
(500.46657 -5.3297478 -22.024699)
(574.72678 -13.631704 -30.044445)
(576.26632 -11.208943 -27.330477)
(576.96281 -7.61758 -26.996201)
(642.19631 -14.598605 -32.9801)
(644.83941 -13.588831 -30.352439)
(645.76163 -12.504767 -30.31159)
(705.18603 -15.764074 -33.884035)
(710.36154 -15.656581 -30.87518)
(711.2214 -15.879226 -30.761623)
(771.28555 -16.701023 -31.67949)
(779.1081 -17.901117 -28.457925)
(780.89388 -20.516098 -28.747575)
(849.40995 -18.524961 -27.162016)
(860.71035 -21.97889 -23.632901)
(863.32647 -26.048556 -23.963462)
(948.41995 -22.821132 -20.449299)
(962.89422 -28.008568 -16.719097)
(966.82649 -33.156636 -17.59483)
(1074.8654 -31.026947 -13.010142)
(1091.8687 -37.574518 -9.2520559)
(1097.7101 -43.263523 -10.507924)
(1231.3711 -43.584626 -5.4050105)
(1250.0954 -51.232419 -2.0215202)
(1258.0604 -57.210845 -3.5769782)
(1416.5865 -61.371327 1.3737935)
(1436.0968 -69.500602 4.1567819)
(1446.2287 -75.201538 2.2890442)
(1625.4176 -83.432315 7.1313697)
(1644.8876 -91.526025 9.0961973)
(1656.9016 -97.210716 7.1662192)
(1850.657 -108.75143 11.520486)
(1869.3226 -117.01138 12.719863)
(1883.1408 -122.25289 10.797843)
(2084.539 -136.74794 15.16178)
(2102.375 -144.07978 15.638346)
(2117.1512 -149.68764 14.050547)
(2320.5471 -165.01764 18.009191)
(2337.2893 -172.92712 18.148137)
(2352.8694 -177.93153 16.590397)
(2552.1332 -193.90783 20.595333)
(2574.7153 -201.15853 20.211435)
(2586.6438 -206.48303 20.048428)
(2784.04 -223.2012 23.761536)
(2799.9579 -229.6623 23.394675)
(2815.964 -235.53962 22.892468)
(3011.0176 -251.56267 26.528595)
(3026.5667 -258.53955 26.278053)
(3042.7067 -264.51747 26.18075)
(16.046456 -11.241266 -8.7514319)
(17.388355 -10.216172 0.035972269)
(13.944035 -9.3122745 8.1744543)
(77.307958 -35.653283 -14.594011)
(79.259905 -34.017725 -1.7984438)
(76.033058 -32.359216 8.0372534)
(156.10399 -57.595628 -13.69144)
(161.15551 -52.930838 -4.9972735)
(156.43109 -50.970863 3.2800344)
(241.77437 -72.041876 -12.250696)
(243.64995 -71.026635 -5.9401548)
(242.6574 -67.578405 -0.58445226)
(334.83363 -82.848076 -15.281334)
(337.32565 -78.631033 -12.040104)
(336.19999 -75.182793 -7.9431578)
(422.89238 -87.939201 -17.973338)
(424.72465 -84.998878 -15.362607)
(425.21156 -81.265781 -14.820944)
(504.36366 -90.943669 -21.626408)
(506.03839 -87.751815 -21.352666)
(506.73698 -84.020163 -21.30531)
(575.61559 -92.44933 -26.354391)
(576.68692 -89.685877 -25.870257)
(579.04503 -87.492462 -25.663823)
(637.65728 -94.260907 -31.009891)
(639.95757 -92.619353 -29.280166)
(643.04898 -90.972414 -28.416214)
(696.27646 -98.652426 -34.769615)
(699.7646 -97.839485 -31.223319)
(703.94682 -98.717446 -28.380367)
(757.72561 -106.84919 -37.340455)
(763.2418 -108.29758 -31.00051)
(769.19513 -110.44039 -25.923859)
(831.72127 -121.23521 -37.814425)
(839.90566 -124.02906 -29.120163)
(847.24946 -127.6094 -21.82666)
(926.20537 -142.05722 -36.443936)
(936.8964 -146.32841 -25.896682)
(946.01183 -150.73692 -16.721729)
(1047.8636 -169.3201 -33.161354)
(1061.1015 -174.65959 -21.863981)
(1071.8549 -179.68486 -11.875295)
(1200.0614 -202.16163 -28.32664)
(1215.144 -208.25997 -17.642788)
(1227.6252 -213.38453 -7.7672992)
(1382.3362 -238.75138 -22.745611)
(1398.8973 -245.27324 -13.504317)
(1412.7727 -250.32371 -4.9063007)
(1590.8586 -277.21888 -16.725749)
(1607.8971 -283.68845 -9.9245202)
(1623.0823 -288.71992 -3.0456472)
(1819.0853 -315.44913 -11.031468)
(1836.4261 -321.97801 -6.6337061)
(1852.5508 -327.10498 -1.989957)
(2059.3463 -352.22683 -5.8627844)
(2076.3129 -358.52099 -3.6509652)
(2092.8455 -363.72122 -1.0236666)
(2304.6544 -386.97036 -1.1053785)
(2321.0864 -393.00658 -0.79758194)
(2338.0855 -398.76445 0.43306175)
(2548.7174 -419.06055 2.534254)
(2565.1727 -425.0662 2.3750393)
(2581.8123 -431.21221 2.6038153)
(2789.5016 -450.00739 6.3558176)
(2805.5629 -456.51874 5.9255641)
(2822.4997 -462.99453 5.8078791)
(3025.4832 -479.99198 9.6442949)
(3041.4142 -486.06962 9.169378)
(3057.8325 -493.5302 8.9158036)
)
;

boundaryField
{
    free
    {
        type            zeroGradient;
    }
    fixed
    {
        type            fixedValue;
        value           uniform (0 0 0);
    }
    traction
    {
        type            zeroGradient;
    }
}


// ************************************************************************* //
