/*--------------------------------*- C++ -*----------------------------------*\
  =========                 |
  \\      /  F ield         | OpenFOAM: The Open Source CFD Toolbox
   \\    /   O peration     | Website:  https://openfoam.org
    \\  /    A nd           | Version:  6
     \\/     M anipulation  |
\*---------------------------------------------------------------------------*/
FoamFile
{
    version     2.0;
    format      ascii;
    class       pointScalarField;
    location    "0.16";
    object      p;
}
// * * * * * * * * * * * * * * * * * * * * * * * * * * * * * * * * * * * * * //

dimensions      [1 -1 -2 0 0 0 0];

internalField   nonuniform List<scalar> 
3969
(
668421.45
-1040434
790.58757
376.16115
1292280.8
-2084875.9
993.54984
-197.46841
542909.66
367138.01
181429.74
-12542.303
-158422.33
-379773.96
-407968.26
-183.14265
-768.04686
-384.4268
-327.83216
126.47107
448.07744
329.88073
214538.71
237249.42
228031.41
235376.02
226438.35
223650.81
213495.82
204761.77
194209.22
182654.86
171610.73
160617.12
150006.36
140080.6
131161.44
123573.16
117829.19
113299.49
110191.66
107488.28
105320.43
102695.4
99576.15
95551.414
90521.771
84881.48
79239.452
73644.433
68399.616
63789.039
59679.869
55997.661
52579.81
48877.426
45198.648
41104.653
36363.722
31709.357
26951.593
22664.206
18660.256
15275.943
12133.072
9576.523
6099.4066
4103.0167
1752.8252
-232510.09
-194931.83
-229148.57
-202581.47
-221095.22
-201814.17
-202850.23
-187824.5
-182204.47
-169754.63
-159951.97
-149838.03
-138531.2
-130670.13
-121726.37
-114805.13
-109512.58
-104375.6
-101686.97
-98372.373
-95693.761
-93332.146
-89580.443
-86013.887
-81098.228
-76210.098
-71223.443
-66081.968
-61377.038
-57167.137
-53540.572
-49796.96
-46315.954
-42470.476
-38459.776
-34326.585
-30031.797
-25932.348
-22152.184
-18515.934
-15878.761
-13589.566
-11586.441
-9395.6596
-7283.4157
-4876.8266
-2021.9683
947122.96
707256.98
307025.42
-38048.292
-326179.48
-704368.22
-573606.4
-274262.84
-306270.46
-185930.57
-265637.03
-223835.49
-229737.71
-215420.58
-209295.72
-194097.56
-181170.05
-179039.59
-160263.04
-155409.12
-142134.67
-133644.42
-125321.36
-117654.93
-112643.27
-107934.51
-104177.81
-101164.71
-97984.621
-94226.715
-89904.664
-84960.066
-80170.657
-74311.979
-68644.352
-63957.617
-59553.896
-55632.48
-52116.322
-48582.692
-44955.826
-41297.018
-36554.479
-31382.175
-27449.759
-22690.335
-18690.714
-15047.963
-12253.771
-9631.3434
-7281.2619
-5057.2603
-2790.6442
-1066.2808
89.163497
-274.80756
317.01749
-727.28732
-1182.5273
-544.59303
-261.01091
1644.6149
4525.0133
7771.2343
10874.972
13977.72
16911.948
19829.443
23189.055
26989.827
31126.676
34474.886
43455.741
46376.954
51532.706
56412.185
60561.979
64618.128
68836.785
73152.14
78122.464
83408.248
88870.37
94867.801
100383.07
105255.44
109461.38
112993.26
115904.04
118906.36
122118.81
126498.08
130406.1
136836.93
146410.11
160576.06
165282.88
180232.87
187859.83
197037.07
214234.55
227806.14
224781.93
242531.65
237587.3
233404.91
251985.59
252321.35
592264.17
642178.56
673452.96
665631.75
658635.85
656577.87
536235.38
-832562.49
-1051244
-1200427.1
-1281220.2
-1213808
-1205157.7
-938129.24
1673.8369
2412.2077
3195.3361
3465.1707
3136.9422
2625.592
2089.0247
-137.7018
-1385.5355
-2080.9798
-2720.5311
-2210.1593
-1677.2273
-729.18067
177467.54
182022
180059.9
179611.14
176377.53
172581.46
165091.99
160703.74
150747.82
145824.55
136213.1
127639.72
120038.66
112162.1
105129.28
99193.514
94284.72
90195.243
86888.226
84411.738
82183.377
79825.796
77224.669
74125.783
70699.27
66683.663
62289.96
57987.654
53852.498
49936.953
46465.8
43455.494
40594.779
37896.878
35211.536
32182.674
28865.301
25448.698
21872.198
18343.782
14888.278
11870.667
9019.5515
6767.3472
4670.7252
3291.5712
2141.1414
110845.11
110854.58
109921.91
114140.29
112962.29
114759.77
109395.18
105931.28
101186.16
96822.049
91286.173
86528.834
80788.349
75952.903
71547.052
67340.483
63825.289
60620.067
58158.623
56093.52
54143.16
52444.568
50751.587
48930.23
46622.154
44127.39
41398.343
38159.566
35157.662
32255.797
29772.631
27699.357
25921.563
24570.186
23162.781
21689.806
19954.72
18017.104
15665.174
13151.95
10488.573
8276.8825
5999.5472
4652.7413
3077.6128
2301.5771
1310.2175
48672.999
56297.62
51635.571
55060.105
52955.261
55059.62
52010.173
52410.74
48899.508
47118.758
45109.071
42639.152
40179.54
37088.569
34401.034
32591.786
30795.561
29363.489
28306.96
27483.491
27216.445
27139.262
26851.922
26282.659
25752.546
24555.803
23115.337
21518.129
19994.577
18480.892
17282.421
16390.569
15703.128
15216.45
14607.331
13825.501
12786.693
11307.484
9395.1989
7716.2872
5873.9182
4600.4793
3107.5967
2513.4821
1686.8441
1051.4435
539.24695
-4767.99
-5118.7151
-8674.8906
-4115.0239
-9066.4148
-5514.0799
-8729.0019
-6115.5224
-6207.0398
-2859.9944
-3694.7252
-1647.1664
-2131.7057
-923.83376
-1016.4124
-732.77763
-1153.3363
-1169.9738
-1473.0869
-1562.1815
-1524.9842
-2009.8646
-2162.4616
-1418.3547
-978.22053
-633.84836
-432.03474
-438.02454
-630.03431
-815.39245
-848.71516
-524.08277
-126.58115
681.89282
1431.5984
2273.2973
2747.5088
2926.49
2982.9154
2812.9139
2035.2098
1530.0946
757.84899
599.01571
339.48789
-143.66973
108.62712
-69551.311
-61111.524
-61610.821
-63165.215
-65282.559
-62534.284
-61997.967
-58377.45
-56136.282
-50763.685
-48585.547
-43256.241
-41661.206
-37189.297
-35683.227
-33067.441
-32014.056
-30553.216
-29680.39
-28550.753
-26907.496
-25181.864
-23115.943
-20558.272
-18724.235
-17451.094
-16077.132
-15074.447
-14331.862
-13598.247
-12781.562
-11663.106
-10462.971
-8788.8677
-7233.2281
-5736.8141
-4450.0873
-3504.8636
-3148.1283
-3021.8549
-2976.1719
-2653.1094
-2408.8831
-1818.2456
-1439.4821
-1449.3412
-757.87307
-132053.72
-120740.42
-121536.99
-126417.72
-126780.16
-122876.39
-119910.89
-113131.54
-109174.01
-99937.02
-95240.995
-86954.018
-81911.385
-76036.594
-71643.508
-67188.386
-64457.014
-61894.017
-60208.064
-58462.336
-56106.186
-54831.103
-50582.445
-47297.887
-43831.364
-40997.797
-38440.913
-35501.882
-33066.362
-30971.923
-29034.442
-27119.093
-25086.286
-22787.901
-20475.234
-17762.969
-15142.674
-12605.881
-10530.267
-8688.3735
-7412.9442
-6354.2025
-5520.6752
-4765.626
-3785.5291
-3116.9693
-1335.9842
-218195.26
-152928.84
-179311.42
-176097.53
-180225.41
-173179.64
-169645.68
-161394.59
-155678.47
-144287.05
-138501.39
-127681.24
-119824.96
-111560.28
-104428.88
-98455.773
-93608.039
-90389.792
-87166.126
-84604.87
-81984.966
-78264.56
-75099.973
-71251.417
-67032.219
-62735.642
-59213.25
-54802.391
-51184.282
-48042.226
-45029.763
-42218.077
-39208.35
-35998.922
-32590.81
-28785.63
-24831.535
-21423.326
-17951.499
-14517.164
-12164.148
-10144.86
-8648.5814
-7120.1916
-5634.1184
-4015.8377
-2820.992
414802.75
400289.5
419181.51
418499.96
419092.99
406953.06
380866.65
273224.77
307724.86
290601.54
298050.49
298342.71
290987.48
283063.84
135372.16
161093.78
136214.53
150262.28
140660.78
139582.79
147973.22
17633.103
435.91283
-5589.2993
7975.1233
736.31578
-16508.194
36618.9
-88501.383
-91760.637
-99929.428
-88192.952
-93782.403
-89911.799
-51528.018
-280019.28
-305130.86
-299206.62
-308453.25
-315050.57
-307625.56
-288887.86
-340185.46
-306030.02
-269996.77
-277950.3
-260017.95
-241221.42
-268887.72
-378168.19
-389672.77
-436672.87
-451248.51
-461163.61
-452478.85
-353387.06
-285399.88
-331291.8
-332155.02
-337977.42
-354146.8
-336303.28
-306862.21
-229932.37
-259805.97
-273778.6
-275832.03
-273860.58
-255264.32
-269832.69
-231411.16
-255174.88
-248534.3
-264147.87
-254108.19
-253020.98
-235405.1
-228191.03
-241062.39
-247692.3
-248166.24
-248725.11
-237899.11
-240480.98
-220069.88
-216325.68
-220379.59
-224921.44
-223869.73
-219375.08
-217202.95
-207133.36
-212790.2
-215479.22
-218430.02
-216334.55
-217395.67
-216547.63
-201214.41
-197846.52
-198404.8
-200375.91
-197719.68
-199474.5
-198916.19
-188505.66
-189281.76
-189228.98
-191018.05
-191765.87
-191669.57
-192949.68
-179926.87
-176442.06
-174616.65
-176647.15
-175743.12
-174727.4
-175549.95
-167459.4
-166350.38
-164005.74
-165350.64
-164763.5
-163766.8
-168259.33
-155652.19
-153190.92
-151713.01
-153714.18
-152426.4
-150392.57
-154458.26
-145716.64
-140184.23
-142087.47
-140093.51
-141938.24
-142034.75
-145463.24
-133914.72
-130584.31
-132022.9
-130024.37
-132109.38
-130942.07
-133599.84
-126127.61
-121244.2
-123100.81
-120490.16
-122437.61
-122676.05
-125771.65
-118049.29
-113518.74
-115849.02
-113079.49
-115957.16
-115832.82
-119011.08
-112131.03
-108630.8
-110120.17
-107549.25
-110447.94
-109507.93
-112820.02
-108058.14
-104621.17
-106363.14
-103483.36
-106842.28
-104547.53
-109036.68
-104934.5
-102280.78
-103796.14
-100766.83
-104109.05
-100721.79
-106096.77
-102494.17
-100368.62
-101911.4
-98886.783
-102405.21
-97786.124
-103604.13
-100458.87
-98575.117
-100020.8
-96950.932
-100229.99
-94784.474
-100803.44
-97521.898
-96265.308
-97720.145
-94734.343
-97876.684
-91953.561
-97728.66
-94062.322
-93266.145
-94430.486
-91537.149
-94104.091
-88485.717
-93538.597
-89836.093
-89404.695
-89969.977
-87440.98
-89959.336
-84916.299
-89039.233
-84655.733
-84759.835
-84075.881
-83165.358
-84090.286
-80544.906
-83212.639
-78981.974
-79214.811
-77677.997
-78281.954
-78291.683
-76609.602
-77948.55
-74044.827
-73625.782
-72543.364
-72560.5
-72590.237
-71016.82
-72509.668
-68997.21
-68108.278
-67751.316
-67165.254
-66934.903
-66609.206
-66973.822
-64069.913
-63120.721
-63032.176
-62406.536
-62316.224
-62366.859
-62479.987
-60000.533
-58870.73
-59110.903
-58400.342
-58469.551
-58360.754
-58567.265
-56202.298
-55341.821
-55399.004
-54826.328
-54891.457
-54461.931
-55238.1
-52788.52
-51820.208
-51920.223
-51443.76
-51485.304
-50712.479
-51947.612
-49076.724
-48263.412
-48291.711
-47874.738
-47900.823
-46679.485
-48186.423
-45053.439
-44302.546
-44251.701
-43785.285
-43637.734
-42275.308
-43807.552
-40577.327
-39946.72
-39800.787
-39279.817
-39107.862
-37587.715
-38807.584
-35757.082
-35141.725
-34873.554
-34387.736
-33805.924
-32833.678
-33865.89
-31023.647
-30531.429
-30311.75
-29289.483
-29678.244
-28190.648
-28767.881
-26134.082
-26002.017
-25119.747
-24691.344
-23928.802
-23803.432
-23539.003
-22117.58
-21812.288
-21428.546
-20646.126
-20371.739
-20210.653
-19555.676
-18769.303
-18312.299
-18005.87
-17243.861
-16748.943
-17270.966
-16664.05
-15767.053
-15625.061
-15210.547
-14439.625
-14309.509
-14811.339
-14256.456
-13705.773
-13327.425
-12727.761
-12296.434
-11932.274
-12481.644
-12407.118
-11605.198
-11159.237
-10578.137
-10070.614
-9776.3364
-10331.801
-10636.91
-9448.3506
-8734.1413
-8076.5299
-7604.5378
-7413.5349
-7744.7286
-8398.4852
-7022.4724
-6026.0714
-5328.2838
-4746.5633
-4692.248
-4884.3719
-5735.2505
-3951.6431
-2694.1187
-2010.3419
-1598.2798
-1690.9445
-1885.8151
-2756.7846
-1475.4774
-130.51337
594.97229
1117.8659
1071.242
480.28268
-243.17969
-1126.6244
-942.32294
-1459.7087
-1891.6074
-2131.8998
-2416.8333
-2103.931
-938.78193
-907.63762
-1448.3289
-1996.7615
-2057.9622
-2147.1439
-1179.8615
-1213.4514
-913.8509
-1386.4505
-1712.3324
-1894.9451
-1828.9601
-1360.7793
-509.63188
-289.60846
-539.66276
-448.47178
-488.51164
-486.505
-235.44607
414.91651
882.02896
1159.2386
1362.8301
1333.0721
1065.5059
697.23886
1215.4731
2056.7871
2246.6736
2258.8087
2261.4723
1770.0771
1688.8785
1841.9154
2159.723
2724.8356
2928.9837
3015.5556
2530.6216
2078.2901
262700.61
262811.49
296926.72
291228.14
298839.85
283147.97
273876.21
272514.67
281662.02
294086.99
292855.14
297496.88
278488.92
273244.57
259074.78
263268.43
271337.2
272236.6
271512.93
256863.6
255167.44
241644.36
250242.42
256692.89
259286.7
256916.57
250009.41
250594.24
238013.39
240332.81
243240.64
244595.49
244666.26
239170.16
235548.6
224295.47
226973.68
230597.4
228819.86
230678.77
223883.7
226000.49
218043.07
218242.37
219771.62
218569.9
222860.73
217674.41
221414.56
204646.47
204954.78
207522.66
202767.91
206988.49
202715.92
205984.79
196223.49
196614.88
196827.33
195453.16
199415.52
193880.44
200272.19
184863.1
182814.62
183750.01
181156.89
184929.33
180605.58
186429.39
173375.11
171275.09
174062.31
170250
174614.28
170938.41
175217.94
161291.05
161033.27
160425.16
157763.89
160840.3
157904.26
163328.15
150950.35
148208.45
148789.92
146576.64
149420.17
147644.36
148403
140048.94
138874.97
137658.4
136510.57
138603.81
138691.2
141926.14
131228.58
129900.02
128472.21
127847.87
129485.96
129497.31
132986.55
124211.3
121453.28
121601.66
120290.87
122710.11
122932.16
125570.85
117698.4
116367.9
115817.15
115595.39
117036.75
117370.59
120238.6
113639.21
112366.76
112645.74
111676.47
113491.55
113604.69
116630.42
110452.94
109941.07
110002.19
109199.13
111312.29
110598.52
114254.38
108512.65
107850.47
108268.92
107505.88
109641.67
108063.47
112212.21
106505.42
105893.96
106647.26
105655.63
107926.96
105573.34
110074.56
104128.63
103490.93
104372.8
103357.85
105497.34
102488.1
107207.33
100906.64
100138.27
101378.51
100204.43
102162.7
99098.219
103456.24
96625.002
95957.454
96986.121
95900.582
97668.176
94577.845
98568.731
91680.938
90443.272
91763.912
90825.347
92225.411
89629.252
93102.716
86089.274
84607.225
86005.261
85150.022
86238.48
84297.544
87248.322
80235.737
78689.785
80225.87
79098.518
80360.354
78919.283
81526.937
74697.27
72982.433
74645.191
73696.519
75123.344
74226.78
76326.697
69559.84
68034.397
69509.746
68809.762
70144.933
69200.883
71458.04
65186.594
63783.611
65352.818
64577.45
65965.869
65061.256
67447.895
61275.586
60210.732
61562.03
60802.357
62369.006
60986.103
63670.185
57867.159
56832.597
58098.063
57267.682
58848.816
56802.627
59797.358
54316.058
53358.36
54509.931
53596.127
54861.03
52605.257
55871.672
50498.031
49582.697
50680.183
49504.101
50833.495
48319.825
51118.157
46400.177
45334.198
46036.449
45143.714
45572.59
43408.203
45498.049
41336.108
40103.4
41143.417
39726.822
40313.298
38356.988
39798.436
36580.153
35341.686
35796.926
34757.23
35231.957
33484.437
35271.337
31715.503
30518.052
30316.844
29935.793
29289.639
28523.803
29527.429
26313.36
25399.612
25644.125
25062.628
24638.932
24667.952
25070.706
22256.26
21366.465
21474.663
21005.245
20668.281
21042.303
21316.149
18307.691
17680.215
17873.172
17384.788
17354.004
17970.648
18362.413
15293.379
14726.508
14793.077
14369.802
14661.049
15205.863
15956.455
12341.883
11866.582
11851.496
11570.876
12220.775
12581.234
13749.972
9711.9134
9308.5785
9169.7228
8848.4184
9653.4457
9615.723
11070.785
6271.732
5412.3237
5047.8497
4897.3032
5699.8516
5712.0071
7695.1543
4233.7388
3642.9585
3233.3103
3178.1563
3556.2512
3659.9529
5050.1265
913.45937
-477.62352
-1270.5377
-1174.0309
-837.44422
286.27469
1743.9561
258841.17
198603.63
191564.88
187361.35
189906.08
188896.61
177321.81
172778.89
165614.27
158384.25
148440.61
140313.05
131686.77
123739.78
116674.38
110303.12
104805.05
100347.44
96465.142
93113.59
89853.747
86708.722
83386.293
79884.475
76111.753
72252.487
67835.409
63552.363
59317.309
55205.043
51178.002
47421.43
43582.415
39786.877
37215.42
32187.576
29716.136
26994.588
23810.243
20528.424
17571.389
14419.923
11365.891
8442.4204
5905.086
3533.5369
1911.5322
152935.34
153906.62
110055.47
128918.94
141337.86
128151.02
132588.03
122248.04
120620.48
112480.67
107709.85
100874.7
93542.112
88324.532
83124.344
78603.482
74123.854
70707.736
68479.37
66489.665
65035.786
63745.235
62080.905
60010.188
57505.447
53357.418
51560.04
47373.593
44313.475
41116.557
38410.384
36023.933
33721.559
31880.314
29358.34
26840.446
24717.514
21761.932
18965.549
15959.03
13481.891
10820.396
8800.7679
6771.2642
5060.7646
3580.0047
1871.2686
72927.852
86489.433
44375.777
75355.256
60981.39
56815.135
57241.39
54009.449
51603.841
47773.641
48183.376
44828.801
45666.899
44279.608
43430.974
42724.152
41032.125
39879.754
38885.774
37072.372
35756.689
34140.196
32472.401
30894.388
29302.721
28038.947
26885.235
25428.406
24534.758
23338.434
22062.081
20445.691
18695.65
16588.926
14513.943
12741.876
11145.29
9809.7475
8867.7862
8410.7898
7780.1383
7070.7942
6136.5284
4822.9417
3617.57
2125.8727
540.59703
-7643.5088
17654.893
-4896.8989
11824.538
-1038.2858
7648.0332
3601.8223
-1670.1372
2209.0663
2601.0197
1445.491
4902.5947
3724.6668
7311.7676
7916.3906
8347.9902
8183.1731
8440.7535
8381.9441
8172.6844
8453.2324
8525.4129
8685.999
8895.3493
8819.5902
8847.1861
8850.9134
8781.6227
8526.24
8321.7499
7805.9075
7228.9824
6561.2908
5863.3102
5419.5135
4992.4368
4717.5799
4637.3706
4671.596
4530.0957
4236.8584
3787.9958
3094.751
2229.0938
1408.8943
560.4671
-620.98292
-109568.29
-51206.391
-62662.701
-40496.466
-57889.902
-42064.322
-52474.884
-46315.649
-42336.668
-42519.581
-36762.146
-36783.386
-32432.932
-32165.392
-28508.158
-26435.235
-23634.397
-21763.33
-20040.131
-18949.454
-18094.059
-17619.822
-17243.196
-16648.193
-15827.175
-15283.727
-13645.22
-12295.636
-10879.46
-9765.012
-8982.0245
-8473.1255
-8088.6782
-7852.7211
-7591.0749
-7179.8552
-6385.7692
-5335.9964
-4208.0788
-2900.9989
-1653.3222
-861.24876
-277.80775
-112.99317
-239.11209
-256.16148
-975.52621
-170920.05
-126335.29
-105834.74
-107315.99
-113058.86
-106097.3
-109906.06
-96068.524
-102670.72
-95158.558
-91983.682
-84487.854
-77821.411
-73190.668
-67400.206
-62825.817
-58898.174
-55962.593
-53868.358
-52466.602
-51007.726
-49124.82
-46831.717
-42869.959
-39649.662
-35923.738
-33211.801
-30097.676
-27505.864
-25081.791
-23205.666
-21528.145
-20140.809
-18889.068
-17609.18
-15975.335
-14200.211
-12284.284
-10061.677
-7715.8435
-5914.3792
-4103.1872
-2859.2369
-2055.9764
-1579.9839
-1263.1777
-1316.9692
-217471.06
-167395.32
-173747.09
-164735.61
-180951.51
-169751.67
-170260.81
-160706.88
-158327.18
-146903.71
-139597.68
-132078.71
-123119.27
-114542.78
-106101.79
-99257.425
-93204.346
-87900.069
-84205.991
-80954.962
-78354.015
-75924.992
-73389.572
-70279.48
-67307.172
-60943.923
-56075.738
-51417.309
-47085.366
-43241.108
-39788.034
-36936.849
-34678.389
-32502.038
-30739.859
-28306.529
-25846.889
-22880.952
-18922.556
-15578.663
-11762.079
-8645.3983
-6136.2255
-4327.508
-3094.9425
-2057.2292
-1806.1377
317177.13
346551.08
341846.78
354111.91
350936.78
331971.35
309028.01
221501.63
255927.82
254041.73
260917.88
253099.62
242235.68
220466.29
205826.25
224085.84
235811.71
238005.14
232823.61
230555.53
219145.68
195294.38
202045.9
205329.98
210930.26
202663.55
206102
186249.34
187375.5
192817.02
199940.98
196654.16
197061.77
192520.92
180888.25
180210.49
186815.12
181977.45
189540.97
182731.54
183456.89
182835.92
174122.48
174224.22
175503.36
175999.49
171001.49
174342.29
171067.07
164986.97
171380.5
165341.03
170881.84
167919.25
166671.1
165776.68
159809.36
158592.45
154216.5
160271.47
153540.1
158264.47
156203.98
148877.22
150621.38
148879.74
152432.31
147080.05
151003.4
148259.82
140795.21
142686.14
137958.83
141375.8
137457.38
140632.93
139870.73
133913.9
131683.36
130479.27
132068.25
130491.85
131779.87
130703.17
124191.74
123853.93
121750
124580.77
121477.36
124175.9
124740.26
116491.73
115030.31
114382.46
115973.28
113745.7
115971.04
116007.08
109538.07
108090.34
107904.08
107852.28
107605.75
109111.41
108985.45
102637.06
102216.44
101752.86
102177.65
102058.07
102150.38
104312.11
97838.864
96901.443
97181.435
97039.271
97522.432
98017.116
99393.145
93550.91
93303.311
93387.767
92986.674
93953.994
94003.169
96015.486
90309.681
90308.93
90251.394
90419.114
91136.488
91157.35
92927.872
87388.119
87638.394
87790.628
87991.475
88377.847
88788.851
90525.167
84448.834
85284.742
85321.836
85746.347
85799.302
86533.186
87927.609
81570.08
82574.994
82579.531
83097.813
82883.162
83988.209
85084.296
78248.616
79443.224
79267.991
79969.478
79488.876
80943.651
81785.544
74512.92
75720.436
75610.202
76013.911
75660.941
77136.69
77759.786
70169.528
71913.978
71310.682
72128.866
71524.949
73118.411
73926.479
65814.502
67369.629
67378.907
67248.074
67179.147
68661.343
69388.93
61464.186
63042.678
62978.55
62991.444
63207.5
64506.521
65076.295
56973.345
59184.105
58500.187
58797.331
58997.36
59524.558
60861.538
53098.148
55210.102
55218.93
54847.346
55351.844
55817.29
57251.735
49482.703
51955.904
51540.806
51346.626
52026.621
52181.4
53773.767
46444.484
48692.57
48385.461
48297.83
48785.517
48877.865
50388.905
43466.075
45682.868
45294.445
45391.074
45504.527
45789.448
47136.472
40586.608
42644.297
42255.973
42406.016
42344.558
42837.053
44045.524
37735.349
39522.184
38996.139
39220.301
38926.31
39787.176
39975.561
34639.622
35995.718
35482.299
35534.895
35536.621
35611.613
36539.038
31034.54
32344.475
32001.611
32175.842
31691.669
32900.748
33375.515
27756.665
29328.534
28238.223
27725.79
28757.999
28162.84
29614.652
24088.257
24393.716
24789.276
24397.861
23900.094
25863.746
24814.117
20730.4
21453.542
20926.157
20755.219
21376.184
21677.883
22030.08
17276.705
18046.909
17620.662
17412.785
17845.476
18466.239
18654.853
14315.864
15011.065
14675.211
14422.655
15358.219
15291.726
16160.005
11509.444
12289.074
11908.052
11708.938
12624.341
12474.291
13627.64
9028.0647
9687.9121
9296.7557
9305.6727
10139.46
9823.0185
11204.428
6967.5947
7363.1307
6949.1422
7011.2125
7492.978
7331.7227
8825.3612
4917.6692
4926.5221
4582.6974
4756.8847
5099.0968
5307.6279
6459.0406
3410.4064
3081.9754
2744.3022
2839.103
2932.7667
3307.5845
4198.362
1324.9031
630.42309
143.47133
13.579533
51.551415
794.41053
1238.1588
202555.66
212201.94
231612.17
227704.9
235250.96
214941.56
213769.02
153909.2
188844.86
196757.05
201454.11
200982.46
186635.55
174204.55
149489.9
139397.77
156698.29
149797.03
157957.97
141058.43
145560.3
126277.44
133412.36
141336.52
138598.43
141494.22
136609.85
121870.83
129345.81
129568.53
136158.39
130995.77
138370.55
126903.81
130241.1
119748.86
119800.75
122188.74
120001.32
118842.12
122465.06
120426.19
117100.71
118771.17
124630.96
117972.12
123649.71
121932.45
117790.75
111813.96
110438.69
111518.46
108929.26
112303.88
109460.35
112466.88
107279.1
105501.59
111926.47
106744.4
108032.06
108783.78
108255.98
100541.94
101239.62
103508.49
97257.788
102198.88
100528.67
102664.84
96416.635
95509.96
97179.568
93931.875
96555.96
96231.325
95951.485
90298.928
88879
92806.881
87673.954
91841.792
89486.49
92883.766
84236.432
83958.267
87154.284
81257.214
85271.168
83551.096
84735.818
78909.623
78929.105
80699.136
76184.429
79656.744
78719.696
78809.158
73799.015
74797.555
74121.615
71443.565
74358.948
73233.911
74573.169
69402.077
69953.689
69314.255
68165.699
69247.02
69483.278
70367.765
65206.628
66388.748
65287.094
64293.223
65490.938
66130.033
68374.271
62138.473
63485.586
62146.066
62081.946
62890.611
63265.419
65237.481
59945.732
60906.124
60053.037
60030.29
60936.669
61082.805
63643
58028.997
59247.146
58619.664
58711.994
59584.883
59524.025
61990.36
56924.763
57904.069
57623.882
57532.892
58712.01
58400.111
60387.729
55866.138
56688.739
56703.601
56498.224
57845.245
57181.164
58589.106
54672.778
55198.222
55712.628
55186.188
56829.884
55731.122
56712.811
52882.466
53528.711
54298.459
53685.552
55207.89
54188.365
54440.895
50590.119
51426.826
52032.848
51213.867
53268.49
51623.218
51926.486
47813.9
48811.719
48795.647
49644.383
49722.57
49284.971
49792.191
44319.555
46312.024
45816.503
44790.843
47656.047
45608.6
46512.479
41298.553
41871.028
42945.383
42293.749
43909.1
42999.697
43872.392
37927.906
39511.705
39318.413
39025.591
40892.461
39923.305
41263.187
35122.488
36590.933
36221.492
36337.063
37991.367
37104.307
38862.279
32745.09
34071.92
33883.733
34102.847
35605.281
34677.138
36546.071
30796.683
32082.517
32035.312
32149.126
33553.875
32568.747
34284.384
29309.824
30366.454
30501.174
30527.647
31863.351
30815.692
31703.891
27962.288
28792.941
29082.452
28931.129
30120.723
28566.216
29157.717
26290.584
27084.291
27553.036
27433.611
28247.586
27263.066
26978.548
24692.123
25494.607
25737.208
25333.26
26190.285
24475.487
23802.372
22334.33
23108.742
23105.227
23258.574
23286.405
22674.432
20821.649
19787.804
20864.183
20608.783
20612.548
20960.52
19819.813
18713.134
16674.365
17983.232
17643.82
17456.336
17998.114
17205.605
15959.383
13859.46
15423.073
14612.726
14939.841
15076.016
14437.249
13882.986
11122.461
12457.801
11651.47
12082.615
12299.06
11925.564
12068.308
8628.5172
10135.734
9163.2413
9847.2468
9922.7843
9642.935
10452.946
6807.4602
7850.6616
6975.401
7852.7857
7816.4173
7754.0685
8869.1803
5023.1093
5850.652
5285.8887
6010.9575
6005.1045
5961.5992
7246.8912
3699.0128
3882.8507
3572.8627
4099.4612
4169.1069
4196.7578
5234.8663
2733.458
2958.1191
2795.5362
3076.467
3098.9341
3051.2237
3713.545
1290.3984
543.90957
530.62417
542.149
557.24851
923.62973
1424.2962
114999.48
117829.02
112494.3
124326.98
117378.94
110418.46
105128.33
81553.607
118713.48
110588.3
120788.2
105444.03
109162.72
89384.698
77294.797
70442.147
75591.861
76339.361
73658.081
66908.562
67208.468
59845.691
74761.194
76130.489
82956.991
72972.493
78933.054
62450.824
66658.854
62524.365
65438.106
60619.184
62134.432
57161.066
59605.709
56775.933
66275.49
59439.171
62922.778
61363.668
61102.337
59737.42
58288.834
60936.282
52882.721
57087.056
57353.448
53564.735
55364.98
54302.372
60870.69
51289.134
56279.616
53399.094
51239.266
55161.076
53918.888
58781.059
48049.148
51851.085
50639.296
50578.376
51928.54
52132.64
54946.566
44683.07
48424.985
48881.03
46936.988
49194.542
49326.446
52413.626
42395.105
47777.113
45851.271
45694.432
46855.584
46150.288
49022.038
39754.768
43568.898
42694.684
42283.669
44316.157
42776.336
47972.843
37074.904
41843.695
41142.851
40326.485
41797.976
40517.348
43674.345
36067.624
39735.997
40302.621
36805.962
41995.426
38338.675
40297.644
34733.848
37827.878
37918.156
36276.217
39551.058
35717.561
37742.555
34124.211
35392.556
36840.36
34887.955
38716.381
33554.933
36223.466
33172.392
34609.458
35484.847
34366.335
37169.952
32299.042
34607.962
32349.575
33504.083
34580.368
33718.628
36015.456
30851.324
33497.598
31640.005
32714.5
33677.423
32806.566
35449.578
29913.315
32543.977
30946.289
31966.55
32773.107
32153.873
34892.687
28992.602
31503.04
30146.637
31068.193
31921.324
31178.889
33949.127
28049.433
30373.531
29130.751
30128.913
30849.542
29731.27
33150.468
26942.504
29144.882
27983.201
29004.008
29271.926
28556.818
31996.326
25634.344
27775.278
26671.654
27058.099
27762
26612.127
30453.545
24388.587
26553.564
25032.741
25727.438
26022.827
25390.445
29248.834
22908.011
24690.505
23717.491
23707.507
24660.853
23684.904
27106.828
21443.62
23827.001
22281.568
22970.871
23061.591
22495.348
25705.168
20116.287
22708.632
20892.211
21963.236
22168.556
21489.13
24769.426
18931.518
21656.988
20155.456
20959.406
21359.07
20649.606
23418.294
17962.364
20678.5
19151.188
20577.727
20662.225
20016.922
22386.351
17217.051
19837.095
18717.907
20043.192
19890.019
19257.042
21344.523
16502.028
18974.199
17923.694
19249.379
19044.236
18413.941
20247.622
15891.26
17912.49
17002.895
18215.033
17930.792
16953.117
19037.031
14989.291
16605.069
15831.477
16859.614
16482.712
15618.433
17854.896
14066.46
15287.104
14392.366
15036.555
14783.551
13522.663
16016.812
12781.522
13528.11
12636.299
13188.028
12772.985
11869.117
14525.189
11419.372
12020.006
11041.059
11201.083
11185.632
9922.9686
13081.362
9773.2325
10424.932
9289.1075
9648.2708
9330.7963
8628.9875
11513.914
8645.3084
9073.1298
7834.6344
8342.6078
7989.1886
7622.8468
10033.791
7301.3221
7983.4377
6596.1433
7339.2906
6960.1423
6687.3226
8834.8972
6248.2018
6606.8591
5720.2535
6482.9534
6172.5942
6362.6472
7929.0077
5126.6675
6082.4344
5247.7672
6051.5822
5760.8077
5880.0671
6873.4859
4343.0423
4638.7747
4337.1685
5090.024
4907.4486
5257.8154
5943.0462
3405.8356
4098.1305
4017.2176
4647.9364
4346.8909
4575.8477
4854.6676
2740.5725
2896.9469
3081.8514
3347.2965
3225.3479
3508.2189
3640.1181
1954.5428
2040.7326
2257.2759
2578.5986
2446.3793
2566.5312
2703.1037
1146.9895
777.4533
779.86247
544.75618
348.23847
486.07449
604.15733
1235.7308
-5836.4716
-1524.9104
-964.60486
-2465.936
-4355.3247
7525.3765
-3301.1723
-744.55422
-17.692738
3329.4625
-891.74763
1791.1659
-2114.7247
8325.3294
-11782.08
-6944.2343
-13640.658
-7777.922
-12587.347
859.31206
-2879.0473
-5921.0373
2363.3595
-1566.4405
-1652.4656
3909.1534
-5777.5171
2800.6608
51.074837
962.72266
-9909.5791
1766.3742
-13683.316
3757.5558
898.27546
-4993.6478
-5834.6426
-2407.354
-4109.3232
-861.63084
-2575.2198
1855.7517
-332.60533
5065.1165
-3796.3695
2167.6048
-3001.6401
2383.4631
2921.7606
-1114.7511
-2033.1713
-1174.9753
-1201.9613
672.9551
471.79159
2883.0502
-1832.641
3788.3692
-1515.493
2785.8933
310.99953
-849.68842
1866.8477
1382.3278
2125.4887
-648.01563
1147.5451
412.65389
1908.5347
3153.7244
1451.2482
2637.3329
-1.3272234
1919.3817
993.96489
2187.1151
2484.1126
2690.7848
2215.1421
1830.1959
1844.0097
2958.3131
1957.2969
3444.9152
2546.3104
2810.3445
1599.1876
3653.3478
1948.2748
3285.274
2709.5797
2804.0162
4914.1745
3526.5148
1390.3061
3711.7245
1371.3906
3211.8202
4546.1709
1093.5684
3542.8242
1838.0542
3441.2917
3307.6324
1575.3912
3877.3154
638.42023
4240.8861
1120.6148
3696.481
3342.1663
1538.309
3102.6928
553.80028
3929.9709
1092.0874
3457.1371
3939.9583
678.76219
2794.5275
66.549911
3458.1294
858.17596
3249.4018
3656.3336
540.26677
2532.2886
-174.26233
3131.2785
820.58112
3031.3712
3917.6601
480.84353
2351.8973
-331.49675
2976.237
745.85155
3253.9763
3710.4873
718.68868
2311.9534
-67.793308
2998.7875
1175.6475
3353.9366
3708.6577
960.95167
2692.0162
565.13585
3449.0152
1468.7676
3801.9933
3979.5134
1221.9239
3140.8623
1603.5521
3409.7836
2202.6596
4316.4596
4179.971
2015.6716
3925.5549
2520.4867
4053.3364
3594.4565
5219.7476
4558.9949
2167.961
4273.8006
3207.0853
4545.2607
4809.0556
5454.2384
4993.2873
2237.8715
5136.2884
3864.1873
5335.9699
5448.3836
5915.5546
5538.8716
2465.1636
5424.6276
3999.4231
5322.6279
5739.9658
6084.152
5869.6586
2399.9263
5195.4098
4024.5395
5368.5287
5549.6458
6149.2615
5953.5081
2133.0179
5093.8489
3855.007
5309.4644
5533.677
5963.9625
6274.8672
2016.4196
4830.6775
3418.2296
5056.6618
5022.6996
5511.4974
6231.9621
2014.5713
4506.0867
3337.8056
4959.4834
4650.0106
5252.8964
6204.4158
2104.6359
4339.1539
3153.5565
4657.6088
4254.2421
4952.4355