/*--------------------------------*- C++ -*----------------------------------*\
  =========                 |
  \\      /  F ield         | OpenFOAM: The Open Source CFD Toolbox
   \\    /   O peration     | Website:  https://openfoam.org
    \\  /    A nd           | Version:  6
     \\/     M anipulation  |
\*---------------------------------------------------------------------------*/
FoamFile
{
    version     2.0;
    format      ascii;
    class       pointVectorField;
    location    "0.39";
    object      lm;
}
// * * * * * * * * * * * * * * * * * * * * * * * * * * * * * * * * * * * * * //

dimensions      [1 -2 -1 0 0 0 0];

internalField   nonuniform List<vector> 
625
(
(-3.6361799e-15 2.112754e-16 -3.2990721e-16)
(2.8178306e-17 1.9013092e-16 6.1994168e-17)
(1535.3331 -284.24077 -13.351873)
(1468.9628 -444.58487 88.650912)
(6.5239771e-16 2.739523e-16 -5.5565719e-16)
(-3.7042918e-15 1.4868296e-15 -1.3023874e-15)
(1394.2566 -356.91526 90.658575)
(1459.6289 -196.9142 -12.700101)
(-1.9658614e-16 -3.2115893e-17 -1.1045223e-16)
(1.4766345e-16 -3.4299605e-16 -2.8648028e-16)
(-1.0135278e-15 7.0169807e-16 1.7538027e-16)
(1517.8454 -324.24967 11.671662)
(1501.8035 -364.12084 36.574117)
(1486.4417 -402.39776 63.49384)
(49.927657 68.896196 46.59859)
(128.85067 128.26047 32.39771)
(239.28312 171.32094 24.519027)
(376.54861 194.92516 12.747049)
(517.34432 197.52147 7.2554838)
(668.57587 181.53992 5.2591228)
(807.07789 148.51283 7.4636476)
(933.71482 102.53242 13.2263)
(1041.6105 49.970194 23.053483)
(1126.8927 -7.216975 35.445436)
(1189.4672 -61.900592 47.896367)
(1232.3439 -111.03581 60.337545)
(1257.8622 -151.84059 71.074524)
(1272.0346 -182.79607 79.090084)
(1280.0906 -204.13659 83.633236)
(1287.1127 -216.86446 84.17406)
(1297.619 -224.07039 81.234402)
(1314.7117 -226.52728 73.472344)
(1338.5549 -229.69725 63.805522)
(1371.9878 -235.07154 49.845175)
(1409.2643 -240.11024 34.572558)
(1452.3609 -253.92676 18.994584)
(1495.4973 -267.98052 1.4936298)
(6.0703567 -53.306836 -77.177574)
(76.340886 -99.408683 -48.792044)
(173.31107 -155.71567 -42.113403)
(287.36764 -195.6357 -15.801986)
(410.30939 -225.35008 8.8737481)
(548.84267 -263.31626 39.490323)
(679.41759 -280.43046 68.876347)
(809.07695 -297.98256 101.50986)
(923.74387 -307.88225 131.35142)
(1024.649 -310.23416 159.34103)
(1105.5492 -309.67831 181.14632)
(1166.6185 -304.49055 197.03445)
(1209.3682 -299.03758 205.5072)
(1236.031 -294.39164 207.02625)
(1251.4287 -292.89713 202.42902)
(1260.0914 -295.76027 192.90952)
(1267.3542 -304.38612 180.20334)
(1277.2421 -318.17328 166.16114)
(1293.5093 -336.63128 151.01365)
(1316.8772 -359.05468 137.50893)
(1348.1622 -381.67084 123.63051)
(1386.186 -404.44469 111.77334)
(1426.4876 -424.85612 99.975261)
(-4.8813632e-16 1.9183015e-16 -1.0607077e-16)
(-2.6214496e-15 -5.6404768e-16 7.244144e-16)
(-2.4010456e-15 1.4295629e-15 -1.6975308e-16)
(19.795923 -37.800125 55.045361)
(69.51535 -133.69044 56.962447)
(166.94759 -166.73959 39.491485)
(263.04418 -211.94801 26.107327)
(384.29026 -274.63 30.845521)
(501.85381 -293.58588 26.569632)
(623.77302 -329.82885 38.545626)
(734.96384 -341.57663 51.857402)
(838.59705 -346.44032 70.893592)
(927.56183 -341.12464 93.583332)
(999.83432 -325.30481 117.09044)
(1056.1859 -305.74445 140.31173)
(1097.0163 -282.74662 160.26391)
(1125.2976 -261.62762 175.6939)
(1144.5192 -245.41586 185.47596)
(1158.666 -235.72952 189.17477)
(1171.9009 -234.62777 187.29438)
(1187.8361 -241.42588 180.13052)
(1209.2728 -255.3089 168.85197)
(1237.4398 -274.27508 153.89974)
(1272.3445 -295.7072 137.29896)
(1311.6089 -317.69806 119.88683)
(1352.9918 -338.78934 104.27207)
(1411.147 -314.51207 64.661715)
(1425.8941 -277.0724 39.874096)
(1442.7231 -237.09728 14.293372)
(1419.8207 -179.53322 -1.286428)
(1377.9179 -165.79607 10.018124)
(1335.1695 -153.91299 20.94425)
(1295.3982 -148.80097 32.276401)
(1261.8261 -149.04047 44.980389)
(1235.4224 -153.28911 58.290322)
(1217.0136 -159.97753 71.966916)
(1205.0206 -166.07472 84.967285)
(1196.6071 -168.59864 95.680786)
(1187.4349 -164.30492 102.66836)
(1172.5263 -150.75422 104.52437)
(1146.96 -126.58104 100.3405)
(1105.4806 -91.04868 90.049737)
(1046.6518 -46.562383 74.405169)
(963.99267 5.4162366 55.011354)
(863.08407 56.663261 32.592013)
(744.83905 106.96563 9.783884)
(612.49909 144.08896 -8.541869)
(475.37899 170.1528 -28.965521)
(338.09881 175.00696 -39.917833)
(215.28527 163.35966 -51.066644)
(109.54836 119.44662 -55.854359)
(56.96385 69.613236 -44.394189)
(-1.3028228e-15 -3.4252847e-16 3.3068324e-16)
(-2.0449562e-15 -3.5718549e-16 -7.3673077e-16)
(-1.4121951e-15 -1.0527101e-15 6.223458e-16)
(-1.2019486e-15 6.189313e-16 -3.4292956e-16)
(-1.2511779e-16 -6.848356e-17 2.1836215e-16)
(-3.8898857e-17 4.7141393e-16 -3.1043199e-16)
(1450.0157 -423.02092 89.172493)
(1431.941 -401.936 89.151245)
(1413.2549 -380.34987 90.366688)
(1518.2694 -260.92686 -12.924729)
(1499.3488 -239.23057 -11.914788)
(1479.901 -217.86429 -13.114199)
(20.495041 30.648072 34.959083)
(101.59671 64.067444 14.071455)
(210.81103 85.057659 11.760629)
(343.39225 90.551977 5.5663398)
(485.5003 84.915975 6.8749686)
(635.75012 63.627195 10.584746)
(775.69251 32.799913 18.430148)
(906.83552 -5.288822 30.978824)
(1018.937 -47.332605 44.900765)
(1108.4523 -89.862706 60.653652)
(1177.1765 -128.82611 76.023322)
(1223.931 -163.02698 90.065059)
(1252.9618 -190.33271 101.08176)
(1268.6403 -210.97785 108.51786)
(1276.3219 -225.41302 111.80973)
(1281.6925 -235.41825 110.95202)
(1288.9961 -242.31307 106.16057)
(1302.7905 -248.73119 97.634318)
(1323.8695 -256.05356 87.124653)
(1354.3162 -265.15487 72.511375)
(1389.8709 -276.8708 58.895811)
(1433.7269 -291.87293 42.564202)
(1476.7813 -307.257 26.956976)
(6.6559771 8.4319974 -1.854506)
(87.77504 11.671632 -9.4659296)
(191.08545 13.741204 -5.6156469)
(320.18308 7.2587449 0.56111588)
(461.46473 -11.216511 8.8146484)
(606.23135 -34.549459 21.90474)
(746.99166 -63.347146 38.250313)
(877.79824 -96.179702 56.680922)
(990.73602 -128.2608 76.020945)
(1085.4333 -159.42215 95.569325)
(1157.285 -186.63929 112.79411)
(1208.4004 -209.21223 126.78574)
(1241.1237 -226.69605 136.3186)
(1259.5776 -239.40112 141.26506)
(1269.102 -248.78586 141.39264)
(1274.7793 -256.04684 137.1959)
(1281.8484 -262.98118 129.48494)
(1294.3349 -271.11911 118.97369)
(1313.1769 -281.2995 106.483)
(1342.4188 -294.53469 92.851997)
(1376.711 -309.63347 78.791912)
(1418.4652 -328.18549 64.281428)
(1460.2048 -345.63013 51.065007)
(-5.8713208 -15.312712 -23.904919)
(77.271741 -28.704883 -24.503244)
(175.36814 -42.553061 -17.527276)
(305.53415 -69.129974 -5.8467005)
(440.91201 -97.120413 9.234516)
(584.156 -121.8377 29.491033)
(723.67182 -154.27862 52.277402)
(852.92744 -180.9069 75.759135)
(968.50524 -206.59219 100.29929)
(1063.7194 -229.70603 123.19271)
(1137.9836 -247.03472 142.51504)
(1191.49 -260.83171 157.53555)
(1226.2602 -269.87756 167.12253)
(1246.5413 -276.19274 171.08709)
(1256.9749 -280.88087 169.75882)
(1263.0709 -285.60183 163.99796)
(1270.0871 -291.8335 154.77167)
(1281.0032 -300.66522 143.11058)
(1300.3227 -313.33692 130.59593)
(1326.9818 -327.87158 116.13299)
(1361.4746 -346.14342 103.39755)
(1401.7382 -365.23619 89.380646)
(1444.2572 -383.31773 76.403886)
(-2.5953868e-15 -2.1703571e-16 4.2716933e-18)
(-3.8783653e-15 3.5858996e-16 7.5215743e-16)
(-9.8459492e-16 7.8127033e-16 2.7525688e-16)
(-3.9146975e-16 7.8165185e-18 1.2560621e-16)
(1.6350797e-16 -2.4226884e-16 -1.2066667e-17)
(-1.0304172e-15 -9.2669207e-16 -7.5672327e-16)
(-6.4481012e-16 3.525084e-16 2.7116342e-16)
(-3.5205005e-15 9.4737515e-16 -2.5196009e-17)
(-3.8147498e-15 1.043275e-15 1.2924308e-16)
(37.811856 -26.934457 -33.715044)
(44.16595 -33.881751 -5.956083)
(39.230751 -24.965774 18.806926)
(107.24634 -128.73192 -25.440828)
(101.93579 -129.44681 -3.0600417)
(96.332173 -123.32058 30.341404)
(188.31147 -167.94484 -23.594186)
(189.7712 -166.76094 -3.0756742)
(186.13687 -182.20053 22.68952)
(289.80485 -213.06607 -3.3485154)
(287.82626 -222.54778 7.3685348)
(278.17008 -217.75943 18.663048)
(409.83943 -256.21583 12.61819)
(402.18274 -260.14073 15.08346)
(393.94806 -270.1013 23.390792)
(532.2647 -282.58008 35.827623)
(522.00458 -287.84064 34.11634)
(512.51583 -294.97547 31.517802)
(658.29067 -303.72463 62.086893)
(642.14252 -311.11278 52.042468)
(629.54849 -320.47987 44.125274)
(777.43085 -316.13028 89.503364)
(761.36778 -321.30646 76.400411)
(745.83715 -330.73176 64.701251)
(889.27278 -321.17975 117.82942)
(867.67504 -326.37789 103.30065)
(848.40507 -332.40713 86.154715)
(986.33901 -319.65419 144.51421)
(961.23268 -321.05252 128.0324)
(941.43639 -326.62862 110.23526)
(1065.7758 -311.38972 166.82491)
(1039.3419 -311.46039 151.86429)
(1016.6309 -312.84398 133.83997)
(1128.4017 -301.36334 184.63693)
(1099.9994 -298.1874 171.42958)
(1076.16 -295.86901 155.32671)
(1173.3985 -289.99709 195.6796)
(1144.7006 -284.23267 185.70803)
(1119.864 -278.00604 172.71716)
(1203.9824 -281.12878 200.59271)
(1175.4342 -272.57647 194.32309)
(1150.2678 -262.09044 184.72607)
(1223.4459 -276.0515 199.27282)
(1195.9595 -265.12925 196.60046)
(1170.8235 -251.44461 190.80012)
(1236.2949 -276.88672 192.83571)
(1210.2215 -263.77185 193.73798)
(1185.553 -247.02921 191.14315)
(1246.9476 -284.06351 182.83583)
(1222.8135 -268.88376 186.23061)
(1198.5279 -250.14151 186.43149)
(1259.7045 -297.38928 170.09346)
(1236.8429 -280.77889 175.47189)
(1213.682 -260.4841 177.32713)
(1277.118 -316.00331 156.44628)
(1256.3298 -297.77771 162.19977)
(1233.8976 -276.73626 165.11795)
(1301.3595 -338.15591 142.01057)
(1281.4615 -319.05413 147.23368)
(1260.1258 -297.39135 150.30109)
(1332.6866 -361.26609 127.7681)
(1313.9455 -340.826 132.19799)
(1293.2894 -319.47 134.41806)
(1369.3695 -384.02765 114.38496)
(1350.6152 -362.8049 117.07983)
(1330.7788 -340.82696 118.2844)
(1408.6685 -404.28757 101.20333)
(1390.7554 -382.39162 102.86306)
(1371.3897 -361.37308 103.23836)
(1500.6163 -301.45901 12.778009)
(1482.3225 -279.68346 13.788638)
(1462.7763 -258.15726 13.467207)
(1484.4716 -341.76531 37.833858)
(1465.4465 -320.4432 39.215524)
(1447.1833 -298.96819 39.286155)
(1466.4978 -379.78343 64.573509)
(1448.5324 -359.09747 64.741812)
(1429.9132 -336.67157 64.993873)
(75.590438 65.436074 20.902128)
(71.477785 63.484673 0.21471198)
(74.803547 60.995803 -18.968526)
(140.70834 123.84609 9.046308)
(139.47402 120.09982 -15.408963)
(132.00722 116.8457 -35.840866)
(253.26983 171.79405 2.9853332)
(244.6614 164.55899 -12.563503)
(239.42002 160.79628 -34.880933)
(375.52543 188.45338 -3.9394901)
(368.32114 181.74753 -16.16395)
(357.34297 174.92543 -30.743024)
(516.65105 192.83227 -3.723055)
(504.70657 183.65749 -12.845861)
(492.49806 175.60209 -21.605856)
(657.34195 174.08431 -1.6230449)
(640.9308 162.28142 -4.1236935)
(627.74323 152.53728 -7.6153712)
(790.62214 140.1214 5.6410951)
(774.13772 129.68662 6.4548789)
(757.65098 117.67105 7.3248838)
(913.12108 96.300637 17.0188)
(893.25317 82.330149 20.616989)
(875.18614 70.915142 26.934679)
(1016.7078 42.354173 29.623477)
(993.19404 30.371568 38.986018)
(975.06668 19.569137 46.940162)
(1096.6402 -12.297588 46.467371)
(1076.3217 -22.45443 54.456366)
(1055.1193 -32.850739 67.613897)
(1158.6678 -64.641433 60.107432)
(1136.4801 -73.064544 69.480104)
(1114.9897 -80.511538 81.985393)
(1200.3522 -111.13495 73.297599)
(1178.6691 -116.3605 82.192257)
(1156.9463 -120.34855 94.480856)
(1226.8478 -149.10892 83.132377)
(1206.0639 -150.18332 90.402521)
(1183.8295 -150.58891 100.50834)
(1243.0761 -177.12539 89.112155)
(1222.6748 -173.71491 94.126883)
(1200.6704 -170.23824 101.34749)
(1253.4718 -195.50002 90.907083)
(1234.0694 -187.69568 93.297235)
(1212.1845 -180.42476 96.833988)
(1263.5828 -205.79962 88.617331)
(1244.5877 -193.56803 88.198204)
(1223.152 -182.92478 88.435933)
(1276.5914 -209.91621 82.300773)
(1258.3281 -194.08435 80.023564)
(1237.2709 -180.47614 77.019408)
(1296.0138 -210.49329 73.100399)
(1277.8921 -192.12169 69.138553)
(1257.4086 -176.1774 64.217455)
(1322.264 -211.71826 61.279242)
(1304.1526 -190.82286 56.586095)
(1284.3093 -172.92605 50.813909)
(1355.8614 -213.56641 46.863608)
(1337.4621 -192.16079 43.394856)
(1318.1469 -173.06958 37.151533)
(1393.9129 -218.71997 32.383051)
(1375.5122 -196.00543 28.951203)
(1356.7312 -177.18042 24.395091)
(1436.2462 -230.59684 17.756173)
(1417.771 -209.35462 14.755955)
(1398.6214 -189.33341 11.506079)
(1477.7688 -243.84216 1.277906)
(1459.61 -222.09691 -0.084078173)
(1439.7173 -201.43005 -0.79268813)
(17.011688 18.59103 -30.631277)
(90.497854 70.522046 -31.348615)
(184.5731 70.445032 -24.397983)
(311.06755 73.521234 -21.980985)
(443.23803 54.936346 -11.318678)
(579.91177 25.026998 3.0120092)
(713.03129 -10.957812 18.728732)
(832.47554 -53.114754 39.325257)
(937.38331 -92.44658 57.64765)
(1023.0022 -127.82129 77.535638)
(1087.9598 -154.43674 93.452821)
(1133.4599 -173.42796 105.96708)
(1163.2253 -182.38706 113.60552)
(1180.6154 -184.4374 116.05676)
(1190.8365 -181.25895 113.87381)
(1198.6941 -175.76122 107.66022)
(1208.8188 -170.7279 98.523235)
(1224.4831 -168.33829 87.511601)
(1248.1041 -170.06991 75.361844)
(1279.2355 -176.53454 62.765316)
(1316.7257 -188.15848 49.854456)
(1360.1374 -203.15551 37.711815)
(1401.5053 -219.01448 25.312266)
(1.2962502 11.764013 -0.25760154)
(72.223844 18.81054 -6.1198703)
(173.22656 0.42180498 -3.7739611)
(295.40776 -11.843361 -4.8340545)
(423.50523 -39.985202 0.53949644)
(559.51027 -73.827295 11.378584)
(688.28394 -108.09821 24.827328)
(808.01675 -142.56378 42.172458)
(912.1032 -172.33242 62.32863)
(997.77109 -195.1521 82.357686)
(1063.9276 -209.89162 101.04521)
(1111.6396 -216.46952 117.38808)
(1143.064 -215.65825 129.28639)
(1162.5899 -210.37296 136.24982)
(1174.3835 -202.73307 138.09751)
(1183.4972 -195.76096 135.27608)
(1194.1742 -191.58537 128.42688)
(1210.172 -191.67177 118.65979)
(1233.1179 -197.24904 106.56637)
(1264.2091 -207.70476 93.230104)
(1301.2605 -222.3438 79.516716)
(1344.0168 -241.07356 65.857308)
(1384.1296 -258.62159 52.471108)
(-13.541946 -16.078793 19.239998)
(70.161055 -19.713169 17.616998)
(166.32356 -72.782895 22.44183)
(280.1139 -86.564303 12.40727)
(407.66253 -132.85776 18.525558)
(536.84826 -170.83442 24.383046)
(662.49807 -201.99439 34.12039)
(780.02135 -236.41116 50.453291)
(881.86198 -256.63438 68.038912)
(967.95964 -272.11269 87.616942)
(1034.8903 -276.89627 107.35231)
(1084.4915 -274.05782 125.15312)
(1118.5589 -265.25897 139.91265)
(1140.7637 -252.79012 150.19479)
(1155.363 -240.33577 155.97757)
(1166.7096 -230.17073 156.79938)
(1179.0556 -224.50227 153.38574)
(1195.821 -224.62372 145.97379)
(1219.3353 -230.73344 135.36069)
(1250.1729 -242.02655 122.81903)
(1287.3013 -258.16456 107.57449)
(1328.5278 -276.30341 93.731055)
(1370.6996 -295.83113 77.574551)
(33.90462 16.106449 13.374695)
(31.089398 17.646872 -0.11907491)
(35.632536 15.780477 -14.398268)
(116.98467 65.617434 -0.8618399)
(118.48786 62.888294 -11.855871)
(108.96113 61.920035 -24.57495)
(221.4725 78.03095 -1.939657)
(212.59387 74.711942 -10.248531)
(207.59331 71.807659 -17.991275)
(345.23222 86.040169 -3.6164902)
(340.10648 81.015963 -10.857956)
(329.04888 73.714036 -17.413545)
(483.51331 76.994505 -1.9059471)
(472.29303 67.59132 -4.4348166)
(461.02968 60.789771 -9.4607422)
(623.82629 53.699836 6.546576)
(609.89017 44.890458 5.2389176)
(594.98444 35.656338 3.2404179)
(758.55888 23.169124 17.215516)
(741.76794 12.446273 18.721389)
(726.92982 1.9564518 18.849288)
(883.25804 -14.649347 32.138208)
(863.84374 -27.026383 35.214107)
(845.79334 -36.695543 37.942213)
(990.21393 -56.192376 49.188962)
(968.26291 -66.734903 54.200152)
(949.85516 -75.777841 57.888412)
(1077.4298 -95.828937 66.649412)
(1054.7564 -105.69075 72.433095)
(1034.8205 -112.5254 76.632935)
(1144.3797 -132.58378 83.155543)
(1120.7297 -139.74778 89.435695)
(1099.6028 -143.60439 93.799103)
(1191.0232 -163.40047 97.642442)
(1167.3623 -166.87872 103.27226)
(1146.067 -167.20727 107.28347)
(1221.4391 -187.11389 108.12232)
(1198.3748 -186.78839 112.69211)
(1176.3201 -183.29625 115.57559)
(1239.3985 -204.10556 114.40883)
(1217.0595 -199.68903 117.40083)
(1194.89 -192.06343 118.7091)
(1250.0137 -215.07555 116.05775)
(1228.782 -206.7276 117.17677)
(1206.5651 -195.32928 116.79747)
(1258.4553 -221.78497 113.31696)
(1238.1611 -209.7044 112.60196)
(1216.059 -195.09667 110.77853)
(1268.8609 -225.92228 106.76083)
(1249.491 -210.95062 104.61806)
(1227.6692 -193.79628 101.42474)
(1284.8538 -230.01467 97.10176)
(1265.896 -212.6524 93.790559)
(1244.8553 -193.56523 90.144181)
(1307.7632 -235.60823 85.086996)
(1289.6819 -216.31604 81.257028)
(1268.7033 -195.86868 77.424771)
(1339.268 -242.60178 71.243674)
(1320.2463 -222.58338 67.689135)
(1300.9663 -202.12381 64.268415)
(1375.4888 -254.03648 56.806378)
(1355.7918 -233.7768 53.605938)
(1337.8094 -212.35148 50.661223)
(1417.9633 -267.8848 40.969163)
(1399.7114 -247.69352 39.084957)
(1381.3633 -225.42081 38.315972)
(1459.9566 -283.55233 26.341598)
(1441.4043 -262.56993 25.911529)
(1422.0359 -240.63344 25.500888)
(19.269095 5.8964725 -4.2840126)
(21.729097 7.3128294 -5.5306142)
(23.651504 7.544618 -2.2632103)
(99.732703 11.710987 -14.125824)
(99.953483 12.202911 -12.412736)
(88.434615 9.1351408 -9.1477161)
(202.58175 7.7306758 -8.4653919)
(196.80813 2.1078505 -3.8466506)
(191.97358 0.42086656 -6.3701631)
(321.10746 -2.9111299 -5.7644015)
(319.79942 -11.961936 -5.5154966)
(307.47049 -19.326527 -5.9938581)
(458.75893 -22.246386 4.2222945)
(447.92128 -32.689191 6.3956594)
(435.51383 -37.527818 0.044784773)
(594.92989 -47.205399 18.081723)
(581.62601 -59.434141 15.650859)
(569.09534 -68.216468 12.518453)
(729.53192 -75.669862 33.579229)
(712.9562 -88.972674 32.691075)
(696.64933 -99.356277 26.411796)
(854.91132 -108.27394 54.636476)
(833.71711 -120.41887 51.993369)
(817.00345 -129.65843 46.044139)
(963.52399 -138.3774 74.559667)
(939.86883 -148.82596 71.541852)
(921.71409 -158.85788 66.316341)
(1054.8535 -166.51186 95.742396)
(1028.935 -174.64948 92.896142)
(1009.6565 -182.15502 87.830772)
(1124.8501 -190.41685 114.37139)
(1097.8386 -194.79754 110.71037)
(1077.8301 -199.51438 106.83354)
(1175.944 -208.85549 129.41207)
(1148.6824 -208.93871 125.93328)
(1128.1464 -209.72677 123.37758)
(1209.8447 -222.26409 139.74079)
(1183.0479 -217.86148 136.38768)
(1162.0531 -214.9482 134.84615)
(1230.4905 -231.19062 145.02313)
(1204.6829 -222.64938 141.6112)
(1183.7957 -215.09327 141.38229)
(1242.8401 -237.17725 145.02548)
(1218.4869 -224.41056 141.8403)
(1197.5756 -213.2581 142.48761)
(1251.6422 -241.54147 140.47422)
(1228.7327 -225.68567 137.4199)
(1208.0364 -211.06035 138.93516)
(1261.4563 -246.26507 132.06607)
(1240.0404 -227.90716 129.48041)
(1219.5423 -210.66644 131.32562)
(1276.0977 -252.72268 120.87699)
(1255.8956 -232.4473 118.61279)
(1235.6377 -213.39574 120.88765)
(1296.9556 -261.48024 107.66927)
(1277.5579 -240.69764 106.09877)
(1257.9633 -220.06735 108.13826)
(1326.1717 -274.04498 93.275417)
(1307.7924 -251.79088 92.347209)
(1288.0809 -231.61758 94.360173)
(1360.1514 -288.38461 78.813776)
(1343.8787 -266.77508 79.56143)
(1322.809 -245.65061 79.402233)
(1402.0387 -306.22493 64.40651)
(1383.6746 -285.42938 64.844968)
(1364.7019 -263.23307 65.774832)
(1442.4065 -323.4864 50.84368)
(1423.9201 -302.38056 51.344622)
(1404.4184 -280.65771 51.577554)
(14.370935 -11.858419 -12.082847)
(9.2701257 -9.8514155 -1.7824072)
(7.6413808 -9.733951 9.4732963)
(98.207028 -31.925905 -16.14381)
(98.336548 -23.477432 -2.9637008)
(90.128949 -29.690816 8.2564554)
(188.38662 -57.545361 -11.308346)
(186.97318 -73.284211 -0.99771932)
(183.92415 -74.305447 10.540416)
(310.39877 -91.233676 -4.7794514)
(303.37142 -90.675904 1.3345845)
(297.55921 -97.413465 6.3510294)
(436.17509 -115.6678 9.7784538)
(428.01943 -128.68652 12.637762)
(420.6255 -133.96485 12.929122)
(571.04937 -147.20127 24.806816)
(557.65565 -157.42724 22.948492)
(548.5962 -166.47193 20.585029)
(702.81995 -176.94763 46.301683)
(684.8285 -186.57109 42.262632)
(674.31621 -196.0699 36.896782)
(825.17479 -201.03755 68.517868)
(804.74999 -212.38822 61.097252)
(790.96886 -222.65714 53.529113)
(935.21071 -224.38913 92.266653)
(911.42089 -232.43539 84.194566)
(895.31483 -242.64336 75.457814)
(1027.1235 -241.70165 115.82428)
(1001.6787 -248.22635 106.57944)
(982.48215 -256.028 96.7212)
(1100.2804 -253.84151 136.03803)
(1073.6558 -256.88432 126.99252)
(1051.9468 -262.02601 117.91813)
(1154.4603 -261.49604 152.6322)
(1127.659 -260.73541 144.67061)
(1103.424 -262.12328 136.48306)
(1191.4804 -264.79336 163.99232)
(1165.1151 -260.52542 157.2349)
(1139.3618 -257.9315 150.77967)
(1215.0526 -266.10048 169.71212)
(1189.9136 -258.07001 164.64988)
(1162.7872 -250.99142 160.18436)
(1229.3987 -266.61629 169.94452)
(1205.6214 -255.30692 166.69006)
(1178.1539 -244.43719 164.1048)
(1239.3495 -268.23568 165.47692)
(1217.1998 -254.36418 163.70925)
(1189.6248 -239.96397 162.96899)
(1249.4776 -272.45173 156.96102)
(1228.6862 -256.44255 156.83548)
(1201.8387 -239.2687 157.40802)
(1263.2246 -280.34585 146.06483)
(1243.6704 -262.68108 146.60037)
(1217.7236 -243.33961 148.19757)
(1283.7345 -291.67183 133.00457)
(1264.97 -272.94959 134.27922)
(1240.5632 -252.50137 136.20824)
(1311.2229 -306.49648 118.81747)
(1292.8983 -287.2305 120.4413)
(1270.1082 -265.80256 122.42207)
(1345.997 -324.59816 105.20934)
(1327.5427 -304.60311 106.056)
(1306.1172 -283.19402 107.11397)
(1385.0896 -343.36009 90.524003)
(1366.573 -322.51769 91.341229)
(1346.2908 -300.69835 92.013575)
(1426.4483 -361.71152 77.06326)
(1408.2842 -341.11119 77.316725)
(1389.3003 -318.37096 78.077592)
)
;

boundaryField
{
    free
    {
        type            zeroGradient;
    }
    fixed
    {
        type            fixedValue;
        value           nonuniform List<vector> 
25
(
(-2.5953868e-15 -2.1703571e-16 4.2716933e-18)
(-1.3028228e-15 -3.4252847e-16 3.3068324e-16)
(-1.9658614e-16 -3.2115893e-17 -1.1045223e-16)
(-3.6361799e-15 2.112754e-16 -3.2990721e-16)
(-3.8783653e-15 3.5858996e-16 7.5215743e-16)
(-2.0449562e-15 -3.5718549e-16 -7.3673077e-16)
(-9.8459492e-16 7.8127033e-16 2.7525688e-16)
(-1.4121951e-15 -1.0527101e-15 6.223458e-16)
(-4.8813632e-16 1.9183015e-16 -1.0607077e-16)
(6.5239771e-16 2.739523e-16 -5.5565719e-16)
(-3.9146975e-16 7.8165185e-18 1.2560621e-16)
(1.4766345e-16 -3.4299605e-16 -2.8648028e-16)
(1.6350797e-16 -2.4226884e-16 -1.2066667e-17)
(-1.0304172e-15 -9.2669207e-16 -7.5672327e-16)
(-2.6214496e-15 -5.6404768e-16 7.244144e-16)
(-6.4481012e-16 3.525084e-16 2.7116342e-16)
(-1.0135278e-15 7.0169807e-16 1.7538027e-16)
(-3.5205005e-15 9.4737515e-16 -2.5196009e-17)
(-3.8147498e-15 1.043275e-15 1.2924308e-16)
(-2.4010456e-15 1.4295629e-15 -1.6975308e-16)
(-1.2019486e-15 6.189313e-16 -3.4292956e-16)
(2.8178306e-17 1.9013092e-16 6.1994168e-17)
(-1.2511779e-16 -6.848356e-17 2.1836215e-16)
(-3.8898857e-17 4.7141393e-16 -3.1043199e-16)
(-3.7042918e-15 1.4868296e-15 -1.3023874e-15)
)
;
    }
    freeTop
    {
        type            zeroGradient;
    }
}


// ************************************************************************* //
