/*--------------------------------*- C++ -*----------------------------------*\
  =========                 |
  \\      /  F ield         | OpenFOAM: The Open Source CFD Toolbox
   \\    /   O peration     | Website:  https://openfoam.org
    \\  /    A nd           | Version:  6
     \\/     M anipulation  |
\*---------------------------------------------------------------------------*/
FoamFile
{
    version     2.0;
    format      ascii;
    class       pointVectorField;
    location    "1.52";
    object      lm;
}
// * * * * * * * * * * * * * * * * * * * * * * * * * * * * * * * * * * * * * //

dimensions      [1 -2 -1 0 0 0 0];

internalField   nonuniform List<vector> 
28033
(
(0 0 0)
(0 0 0)
(-4370.7104 -84.109827 4.8811402)
(-4257.7258 1140.4628 -4.9585283)
(0 0 0)
(0 0 0)
(-4242.4332 1117.2584 -7.3496756)
(-4357.5521 -105.35926 9.7204797)
(0 0 0)
(0 0 0)
(0 0 0)
(0 0 0)
(0 0 0)
(0 0 0)
(0 0 0)
(0 0 0)
(0 0 0)
(0 0 0)
(0 0 0)
(0 0 0)
(0 0 0)
(0 0 0)
(0 0 0)
(-4232.7183 -7.6778114 4.9607636)
(-4065.1975 63.730039 5.0625901)
(-3940.9487 130.78357 4.9283549)
(-3876.5813 196.61957 4.656751)
(-3879.5796 264.85398 4.2785321)
(-3947.1458 338.87904 3.6858665)
(-4066.6793 420.82865 2.9903837)
(-4217.8494 511.12595 2.1019917)
(-4375.6177 608.06308 0.97923195)
(-4514.0061 708.12675 -0.25252536)
(-4610.3304 806.43737 -1.5101735)
(-4648.1549 897.74697 -2.6768179)
(-4620.2231 977.327 -3.5997495)
(-4529.2239 1042.3007 -4.2811081)
(-4393.1468 1093.5503 -4.6586665)
(-28.207663 -35.35218 -31.767666)
(-48.890959 -51.254789 -35.683834)
(-72.811681 -64.000314 -34.163153)
(-98.888266 -74.856207 -30.000643)
(-124.8579 -83.850789 -23.937464)
(-151.52269 -91.179933 -17.01678)
(-177.71184 -97.299356 -10.202874)
(-203.26026 -101.74695 -3.1982027)
(-227.86803 -105.45834 3.0152724)
(-251.25753 -107.6173 8.836997)
(-272.95802 -109.1953 13.545878)
(-293.18591 -109.91881 17.699752)
(-311.50721 -110.26332 20.505752)
(-328.38605 -110.16177 22.788667)
(-343.14307 -109.97887 23.62243)
(-356.65598 -109.87775 23.979998)
(-368.46507 -109.97966 23.101802)
(-379.21765 -110.43263 21.707171)
(-388.69112 -111.42545 19.284501)
(-397.52637 -113.01236 16.408574)
(-405.68931 -115.24714 12.811127)
(-413.70509 -118.29211 8.805132)
(-421.60436 -122.02231 4.3120719)
(-429.89393 -126.64666 -0.40596104)
(-438.65796 -131.96187 -5.4688947)
(-448.35652 -138.05356 -10.521572)
(-459.08427 -144.78834 -15.698009)
(-471.18699 -152.25474 -20.74442)
(-484.83937 -160.14229 -25.683274)
(-500.29207 -168.59523 -30.310329)
(-517.67199 -177.36805 -34.61558)
(-537.17056 -186.43064 -38.506334)
(-558.85296 -195.63498 -41.890788)
(-582.79756 -204.92294 -44.814977)
(-609.07506 -214.25762 -47.072301)
(-637.70159 -223.46596 -48.784053)
(-668.5768 -232.5216 -49.950135)
(-701.73976 -241.42074 -50.549156)
(-736.98618 -249.98517 -50.637378)
(-774.29219 -258.35698 -50.319695)
(-813.44251 -266.39762 -49.667571)
(-854.35559 -274.18633 -48.771634)
(-896.82001 -281.69196 -47.758528)
(-940.7084 -288.97117 -46.756121)
(-985.86753 -296.05177 -45.85026)
(-1032.1821 -302.97905 -45.178715)
(-1079.5558 -309.79862 -44.803379)
(-1127.9372 -316.5567 -44.811303)
(-1177.3023 -323.28707 -45.231639)
(-1227.6783 -330.01859 -46.081407)
(-1279.123 -336.76556 -47.336335)
(-1331.7393 -343.52008 -48.947107)
(-1385.6526 -350.2632 -50.831509)
(-1441.0149 -356.94539 -52.883399)
(-1497.9864 -363.50486 -54.98377)
(-1556.725 -369.85391 -56.994389)
(-1617.3744 -375.89501 -58.782258)
(-1680.0516 -381.50577 -60.223102)
(-1744.8289 -386.57109 -61.201121)
(-1811.7322 -390.96208 -61.632239)
(-1880.7327 -394.55603 -61.461252)
(-1951.7268 -397.23562 -60.671704)
(-2024.5698 -398.92163 -59.265545)
(-2099.0326 -399.51071 -57.319459)
(-2174.8401 -398.97587 -54.904358)
(-2251.7471 -397.26423 -52.136359)
(-2329.2641 -394.38208 -49.158222)
(-2407.2468 -390.33628 -46.110661)
(-2485.2077 -385.27156 -43.021548)
(-2562.8494 -379.11435 -40.210111)
(-2639.8832 -372.05806 -37.705986)
(-2716.0923 -364.17853 -35.549042)
(-2791.2396 -355.54281 -33.833817)
(-2865.2197 -346.33513 -32.557434)
(-2937.9482 -336.56929 -31.730388)
(-3009.403 -326.43469 -31.260276)
(-3079.6644 -315.9151 -31.111085)
(-3148.7508 -305.19322 -31.125152)
(-3216.882 -294.21592 -31.244727)
(-3284.0855 -283.11197 -31.275909)
(-3350.6346 -271.83647 -31.17195)
(-3416.5839 -260.44782 -30.757562)
(-3482.1069 -248.91048 -29.999771)
(-3547.3444 -237.22778 -28.774297)
(-3612.2737 -225.40909 -27.116784)
(-3677.0691 -213.35875 -24.97396)
(-3741.5285 -201.1884 -22.425165)
(-3805.8634 -188.72006 -19.508092)
(-3869.7233 -176.12803 -16.33023)
(-3933.2597 -163.24215 -13.005466)
(-3996.0615 -150.2614 -9.6182748)
(-4058.4265 -136.99083 -6.3724721)
(-4119.7132 -123.75337 -3.2438839)
(-4180.3926 -110.25337 -0.42593232)
(-4238.7744 -96.701648 2.2294933)
(-18.456118 37.026505 43.523518)
(-44.437903 51.160752 41.20477)
(-71.001716 65.949416 44.009617)
(-94.744052 75.479904 40.62697)
(-122.1685 83.754143 37.29051)
(-148.29897 90.923267 32.684252)
(-174.56958 95.160529 28.006479)
(-200.04686 98.820859 23.238903)
(-224.65414 100.37307 19.004819)
(-247.62691 100.95855 15.122132)
(-269.35137 100.44148 11.924973)
(-289.10522 98.929981 9.4267071)
(-307.16885 97.013854 7.545651)
(-323.38374 94.508722 6.4532383)
(-337.85772 91.879267 5.8977507)
(-350.60036 89.295598 5.9997855)
(-361.95388 86.769618 6.5480201)
(-371.90284 84.81732 7.4993014)
(-380.77802 83.211217 8.7934165)
(-388.94261 82.420629 10.247381)
(-396.41533 82.317113 11.832604)
(-403.73183 83.16851 13.423448)
(-410.94257 84.853781 14.939847)
(-418.50533 87.636606 16.320776)
(-426.49841 91.288482 17.454778)
(-435.46343 96.184601 18.32099)
(-445.28055 101.91824 18.923309)
(-456.51462 108.79218 19.136028)
(-469.03819 116.51723 19.077744)
(-483.27805 125.20369 18.605613)
(-499.1488 134.66905 17.899008)
(-516.93091 144.91775 16.831833)
(-536.53961 155.8107 15.563157)
(-558.16175 167.28597 14.048391)
(-581.70562 179.23421 12.396948)
(-607.21272 191.57057 10.65383)
(-634.61194 204.16244 8.8292378)
(-663.89403 216.99642 7.049429)
(-694.9035 229.94322 5.3270468)
(-727.61764 242.97168 3.7284419)
(-761.87938 256.02391 2.2951435)
(-797.62186 269.08082 1.0641724)
(-834.70897 282.13469 0.070350044)
(-873.07525 295.19805 -0.67048171)
(-912.61284 308.30348 -1.1452195)
(-953.29241 321.5054 -1.3598518)
(-995.05048 334.86391 -1.3195371)
(-1037.9084 348.4624 -1.0562799)
(-1081.8676 362.38234 -0.59413954)
(-1127.001 376.71267 0.017115658)
(-1173.3775 391.53872 0.73385141)
(-1221.1182 406.93738 1.4961489)
(-1270.3404 422.97027 2.2486158)
(-1321.1977 439.68693 2.9272195)
(-1373.8268 457.10637 3.4760224)
(-1428.3799 475.23101 3.8357955)
(-1484.9798 494.03341 3.9595135)
(-1543.7383 513.4591 3.8044957)
(-1604.7258 533.43242 3.3412403)
(-1667.9813 553.85559 2.5511153)
(-1733.4926 574.60957 1.4305919)
(-1801.2011 595.57032 -0.0097663639)
(-1870.9996 616.6044 -1.7474911)
(-1942.7301 637.579 -3.740315)
(-2016.1929 658.36878 -5.9451067)
(-2091.1417 678.86433 -8.2832293)
(-2167.3273 698.97798 -10.715597)
(-2244.4287 718.62823 -13.138121)
(-2322.1738 737.7336 -15.448072)
(-2400.2774 756.33475 -17.702213)
(-2478.4335 774.48407 -19.66831)
(-2556.3559 792.02297 -21.336766)
(-2633.9091 809.19191 -22.696084)
(-2710.8507 825.93358 -23.662567)
(-2787.0542 842.37472 -24.231835)
(-2862.4298 858.54771 -24.381596)
(-2936.9457 874.55783 -24.145198)
(-3010.5765 890.4353 -23.516177)
(-3083.3768 906.25013 -22.566181)
(-3155.4001 922.01478 -21.32168)
(-3226.7339 937.74832 -19.865977)
(-3297.4631 953.42761 -18.255063)
(-3367.6913 969.02908 -16.571144)
(-3437.4775 984.48771 -14.875088)
(-3506.9034 999.73824 -13.238349)
(-3575.9673 1014.6946 -11.705389)
(-3644.7048 1029.2656 -10.331644)
(-3713.0335 1043.355 -9.1218171)
(-3780.9267 1056.888 -8.121736)
(-3848.2401 1069.7756 -7.2891589)
(-3914.8882 1081.9742 -6.6461022)
(-3980.6834 1093.4698 -6.1425624)
(-4045.5202 1104.2567 -5.7605419)
(-4109.2532 1114.4489 -5.4395039)
(-4180.9567 1126.6472 -5.2251943)
(0 0 0)
(0 0 0)
(0 0 0)
(0 0 0)
(0 0 0)
(0 0 0)
(0 0 0)
(0 0 0)
(0 0 0)
(0 0 0)
(0 0 0)
(0 0 0)
(0 0 0)
(0 0 0)
(0 0 0)
(-24.657715 16.368287 -32.021216)
(-43.931314 53.122637 -37.022883)
(-66.754435 57.356396 -32.208575)
(-93.37108 72.988373 -30.629946)
(-119.05278 78.298697 -24.027365)
(-145.42687 87.424715 -17.381539)
(-172.31804 90.985702 -10.980246)
(-196.80776 96.39675 -4.1634062)
(-222.46826 98.301035 1.3325982)
(-244.56356 100.48544 6.6828924)
(-265.64171 101.08575 10.641062)
(-286.32309 101.44405 13.940046)
(-302.95217 101.18753 16.002625)
(-319.99027 100.43043 17.327745)
(-333.04157 100.0667 17.267053)
(-345.57339 99.095327 16.694258)
(-357.51328 99.507541 14.838202)
(-365.82929 98.617019 12.627341)
(-375.28737 100.28035 9.256046)
(-381.98189 100.57169 5.5428949)
(-389.05223 103.16858 1.2297341)
(-396.04819 105.82453 -3.6424079)
(-402.27319 109.28541 -8.8917674)
(-408.92736 113.63363 -14.252043)
(-416.04208 118.91043 -19.886838)
(-423.91739 124.73249 -25.511681)
(-432.36632 131.73015 -31.173945)
(-442.77175 138.9851 -36.779254)
(-453.41467 147.20781 -42.02516)
(-466.78151 155.95129 -47.17607)
(-481.45783 165.20443 -51.780274)
(-498.04228 174.9534 -55.991152)
(-516.63982 185.09849 -59.676049)
(-537.29179 195.61256 -62.800145)
(-561.0859 206.63688 -65.476803)
(-583.83722 216.90264 -67.124476)
(-612.20248 228.67853 -68.672561)
(-641.35014 240.01401 -69.474055)
(-672.51282 251.57085 -69.803231)
(-705.55116 263.25634 -69.712899)
(-740.33646 275.10056 -69.315147)
(-776.72286 287.08422 -68.702084)
(-814.56775 299.26808 -68.005723)
(-853.72047 311.64482 -67.33203)
(-894.05277 324.28779 -66.80412)
(-935.4544 337.21508 -66.516722)
(-977.84515 350.49421 -66.556642)
(-1021.1836 364.16271 -66.980211)
(-1065.4647 378.27762 -67.819345)
(-1110.7322 392.87881 -69.069857)
(-1157.0651 408.00933 -70.70059)
(-1204.589 423.69647 -72.640852)
(-1253.4532 439.96281 -74.803439)
(-1303.8369 456.80961 -77.064788)
(-1355.9247 474.23588 -79.300834)
(-1409.907 492.20825 -81.365793)
(-1465.95 510.69579 -83.130608)
(-1524.2051 529.63664 -84.464483)
(-1584.769 548.96257 -85.26755)
(-1647.7041 568.59339 -85.460465)
(-1713.0014 588.43104 -85.000227)
(-1780.6022 608.38149 -83.880389)
(-1850.3776 628.33562 -82.128608)
(-1922.1453 648.19242 -79.815194)
(-1995.6681 667.85021 -77.027337)
(-2070.665 687.22526 -73.888221)
(-2146.8265 706.18106 -70.56355)
(-2225.2967 725.4405 -67.168703)
(-2300.0287 742.23576 -63.947093)
(-2378.9791 760.47132 -60.71176)
(-2456.6047 777.38637 -57.993061)
(-2533.7851 793.87452 -55.61541)
(-2610.4325 809.81116 -53.696354)
(-2686.3215 825.28638 -52.273568)
(-2761.3678 840.3145 -51.284024)
(-2835.5309 854.97305 -50.687605)
(-2908.8014 869.32113 -50.399509)
(-2981.2341 883.42068 -50.300468)
(-3052.9074 897.33168 -50.266616)
(-3123.9322 911.11413 -50.169457)
(-3194.4158 924.79789 -49.873639)
(-3264.4836 938.42399 -49.269433)
(-3334.2264 951.98773 -48.258259)
(-3403.7297 965.49722 -46.774543)
(-3473.0293 978.91127 -44.785407)
(-3542.1365 992.20586 -42.291995)
(-3611.0115 1005.3065 -39.328621)
(-3679.5781 1018.1727 -35.97025)
(-3747.7266 1030.7073 -32.304827)
(-3815.311 1042.874 -28.459311)
(-3882.1749 1054.5752 -24.550887)
(-3948.1497 1065.8089 -20.71195)
(-4013.086 1076.5029 -17.047952)
(-4076.8845 1086.7479 -13.612296)
(-4129.7399 1093.9442 -10.466363)
(-4390.5935 1072.1613 -5.4144118)
(-4535.7115 1021.3861 -3.5001187)
(-4606.9851 950.71921 -1.6310944)
(-4627.758 869.09298 -0.034177986)
(-4587.4632 777.17561 1.2372554)
(-4480.0887 677.66079 2.2501404)
(-4348.3233 579.46398 2.8616426)
(-4206.7206 485.59718 3.3298991)
(-4034.9205 394.34091 3.6480349)
(-3912.3704 313.61962 3.8697708)
(-3865.5869 242.19507 4.2253674)
(-3869.8332 174.89193 4.7362976)
(-3937.1872 109.51298 5.5157551)
(-4072.8023 42.380509 6.6160468)
(-4261.3537 -29.431961 8.2380482)
(-4242.5043 -117.94382 8.8700734)
(-4191.7389 -131.96629 8.0780098)
(-4131.2366 -145.51809 7.2998492)
(-4069.8603 -158.81619 6.452159)
(-4007.6288 -171.77109 5.4936501)
(-3944.6296 -184.30976 4.4650708)
(-3880.9345 -196.39485 3.313581)
(-3816.6453 -208.02838 2.0616884)
(-3751.8087 -219.20086 0.69883793)
(-3686.482 -229.98165 -0.73456164)
(-3620.6832 -240.40187 -2.2237587)
(-3554.3972 -250.54251 -3.721263)
(-3487.5966 -260.46496 -5.1925521)
(-3420.2407 -270.22925 -6.5949127)
(-3352.2596 -279.89306 -7.8805502)
(-3283.5407 -289.50363 -8.9976292)
(-3214.0028 -299.06407 -9.8970583)
(-3143.5449 -308.58276 -10.542067)
(-3072.0968 -318.01702 -10.89644)
(-2999.5833 -327.31231 -10.94097)
(-2925.9921 -336.38668 -10.654084)
(-2851.3039 -345.13502 -10.036472)
(-2775.5953 -353.43397 -9.0971053)
(-2698.9205 -361.15783 -7.8424255)
(-2621.4338 -368.18298 -6.3054355)
(-2543.3544 -374.39675 -4.5425684)
(-2466.0495 -379.7632 -2.5718955)
(-2385.6179 -383.49691 -0.47676299)
(-2307.4951 -386.80663 1.8431336)
(-2229.4701 -388.6197 4.040333)
(-2152.0105 -389.32437 6.3130001)
(-2075.5991 -388.87105 8.4587105)
(-2000.4597 -387.29391 10.496475)
(-1926.8509 -384.69783 12.348497)
(-1854.9767 -381.17664 13.985548)
(-1785.0117 -376.85265 15.375668)
(-1717.0715 -371.86074 16.493942)
(-1651.2305 -366.33206 17.33463)
(-1587.512 -360.40214 17.896085)
(-1525.8973 -354.18755 18.18902)
(-1466.3273 -347.79435 18.236943)
(-1408.7154 -341.30141 18.068596)
(-1352.9492 -334.7692 17.723564)
(-1298.9085 -328.22605 17.245339)
(-1246.4656 -321.68054 16.682994)
(-1195.5038 -315.11509 16.088424)
(-1145.9141 -308.49302 15.511187)
(-1097.6178 -301.76481 15.002785)
(-1050.5482 -294.86654 14.60841)
(-1004.6811 -287.74696 14.373465)
(-960.0139 -280.3137 14.314668)
(-916.56481 -272.57455 14.498457)
(-874.40953 -264.39793 14.876181)
(-833.58556 -255.87347 15.529359)
(-794.2144 -246.87405 16.401289)
(-756.42579 -237.52096 17.495294)
(-720.27592 -227.79463 18.770195)
(-687.93213 -218.39917 20.348013)
(-652.64415 -207.30098 21.783592)
(-622.79846 -197.13799 23.493213)
(-595.76295 -187.18514 25.229491)
(-567.30241 -176.21733 26.798867)
(-543.47545 -166.2634 28.338875)
(-521.28004 -156.45682 29.752068)
(-501.91537 -147.37154 30.941369)
(-482.6719 -138.12818 31.882303)
(-467.23854 -130.38193 32.453971)
(-452.06417 -122.60592 32.80265)
(-439.40814 -116.14179 32.718616)
(-428.03501 -110.50489 32.398226)
(-417.91254 -105.62278 31.660103)
(-408.75634 -101.98512 30.624273)
(-400.34408 -98.79664 29.368693)
(-392.50362 -97.063695 27.882358)
(-384.44335 -95.961249 26.225099)
(-376.9995 -95.574826 24.572213)
(-368.32422 -96.152237 22.922746)
(-359.99861 -97.147584 21.36804)
(-349.56949 -98.682194 20.186015)
(-338.98563 -100.60404 19.105524)
(-327.19776 -102.78784 18.69601)
(-313.09413 -104.55007 18.520451)
(-297.057 -106.29173 19.252361)
(-280.87261 -107.76003 20.107806)
(-261.8105 -108.71949 22.18581)
(-240.76987 -107.65084 24.252593)
(-219.80372 -107.56601 27.374705)
(-196.3446 -104.30141 30.514514)
(-172.14251 -100.94855 34.287886)
(-146.88807 -94.681529 37.63513)
(-122.44318 -87.886545 40.839006)
(-97.497955 -78.326574 43.279196)
(-74.492646 -68.71971 43.928853)
(-49.602508 -53.059701 39.35037)
(-39.05837 -38.271799 28.680431)
(0 0 0)
(0 0 0)
(0 0 0)
(0 0 0)
(0 0 0)
(0 0 0)
(0 0 0)
(0 0 0)
(0 0 0)
(0 0 0)
(0 0 0)
(0 0 0)
(0 0 0)
(0 0 0)
(0 0 0)
(0 0 0)
(0 0 0)
(0 0 0)
(0 0 0)
(0 0 0)
(0 0 0)
(0 0 0)
(0 0 0)
(0 0 0)
(0 0 0)
(0 0 0)
(0 0 0)
(0 0 0)
(0 0 0)
(0 0 0)
(-4256.8019 1140.1444 -4.7914174)
(-4256.1691 1139.7032 -4.7353325)
(-4255.6593 1139.2562 -4.8881987)
(-4255.2491 1138.8435 -5.1495697)
(-4254.8526 1138.383 -5.5742167)
(-4254.4117 1137.8815 -6.0513948)
(-4253.8646 1137.2249 -6.5883598)
(-4253.165 1136.3951 -7.0683388)
(-4252.2859 1135.2787 -7.5203351)
(-4251.229 1133.872 -7.8249804)
(-4249.9683 1132.0834 -8.0177515)
(-4248.5901 1129.9163 -8.0378934)
(-4247.0546 1127.3333 -7.9464556)
(-4245.5003 1124.3217 -7.7552192)
(-4243.8112 1120.9935 -7.4614567)
(-4371.4802 -86.454688 4.8754798)
(-4371.975 -88.809981 4.8098961)
(-4372.3201 -90.879033 4.7789827)
(-4372.3815 -92.651085 4.8544957)
(-4372.2145 -94.174132 5.067658)
(-4371.7159 -95.452164 5.4196562)
(-4370.919 -96.536541 5.9016222)
(-4369.8358 -97.489646 6.474886)
(-4368.5091 -98.359305 7.1096684)
(-4367.0011 -99.202784 7.7552376)
(-4365.3667 -100.07105 8.3638406)
(-4363.7039 -100.98917 8.88542)
(-4362.0799 -101.99167 9.2992466)
(-4360.5116 -103.06753 9.54035)
(-4359.1441 -104.14451 9.681312)
(-17.505265 -18.551533 -28.640675)
(-39.612578 -28.637391 -27.082978)
(-62.652517 -39.564575 -28.337253)
(-87.656094 -48.82503 -24.927433)
(-112.33777 -56.815935 -20.637926)
(-138.15146 -64.086681 -15.326982)
(-163.27026 -70.109828 -9.7000942)
(-188.66351 -75.6855 -4.0131904)
(-212.57623 -79.852802 1.2869195)
(-236.08018 -83.871403 6.2635563)
(-257.92067 -86.69113 10.731568)
(-278.6458 -89.469249 14.271549)
(-297.64526 -91.209825 17.419385)
(-315.27901 -93.19158 19.514093)
(-331.12378 -94.486129 21.035142)
(-345.64944 -96.064959 21.543099)
(-358.67663 -97.35106 21.538297)
(-370.39926 -99.050371 20.577588)
(-381.09484 -100.82646 19.08127)
(-390.82881 -103.06841 16.834973)
(-399.9338 -105.64269 14.065852)
(-408.61006 -108.78725 10.711083)
(-417.18855 -112.43643 6.9967677)
(-425.85362 -116.6522 2.7883178)
(-435.02221 -121.45777 -1.6357216)
(-444.86145 -126.81747 -6.2997275)
(-455.74757 -132.75157 -11.096506)
(-467.88739 -139.14655 -15.936435)
(-481.60077 -146.02509 -20.699337)
(-497.06552 -153.26516 -25.302428)
(-514.56426 -160.824 -29.698155)
(-534.21342 -168.60745 -33.709)
(-556.23865 -176.55281 -37.34567)
(-580.66494 -184.60673 -40.500275)
(-607.66377 -192.61242 -43.155219)
(-637.21642 -200.57789 -45.200255)
(-669.27863 -208.44969 -46.723531)
(-703.84458 -216.11784 -47.696607)
(-740.79706 -223.61697 -48.113186)
(-780.00444 -230.90396 -48.10994)
(-821.27665 -237.95593 -47.734858)
(-864.44582 -244.80488 -47.050757)
(-909.33295 -251.4538 -46.247302)
(-955.70667 -257.91395 -45.372691)
(-1003.3917 -264.2252 -44.593169)
(-1052.2272 -270.39746 -43.982443)
(-1102.074 -276.46052 -43.655556)
(-1152.8492 -282.42 -43.671505)
(-1204.5066 -288.27909 -44.072649)
(-1257.0544 -294.02653 -44.868814)
(-1310.5487 -299.63644 -46.032892)
(-1365.0879 -305.06447 -47.510724)
(-1420.8067 -310.25818 -49.211458)
(-1477.8618 -315.14173 -51.033187)
(-1536.4172 -319.63855 -52.847511)
(-1596.6316 -323.65738 -54.525883)
(-1658.6391 -327.10673 -55.946185)
(-1722.5324 -329.89338 -56.994022)
(-1788.356 -331.9377 -57.575596)
(-1856.0898 -333.15708 -57.634247)
(-1925.6474 -333.4946 -57.140025)
(-1996.8683 -332.9 -56.091158)
(-2069.5341 -331.35781 -54.536802)
(-2143.3554 -328.83815 -52.540325)
(-2218.0309 -325.37119 -50.201866)
(-2293.1844 -320.98147 -47.612975)
(-2368.4118 -315.70311 -44.933244)
(-2443.4275 -309.61849 -42.252963)
(-2517.7849 -302.72353 -39.684998)
(-2591.2314 -295.12295 -37.375662)
(-2663.502 -286.92373 -35.352097)
(-2734.3883 -278.15871 -33.65261)
(-2803.7406 -268.91756 -32.326376)
(-2871.4964 -259.29189 -31.343849)
(-2937.6442 -249.27882 -30.685774)
(-3002.2304 -239.00471 -30.269812)
(-3065.3748 -228.44691 -30.038654)
(-3127.1745 -217.7158 -29.877098)
(-3187.8665 -206.75604 -29.717456)
(-3247.5472 -195.68882 -29.433901)
(-3306.4927 -184.44782 -28.973219)
(-3364.8083 -173.10361 -28.230521)
(-3422.665 -161.64753 -27.178219)
(-3480.2213 -150.09139 -25.764179)
(-3537.7031 -138.44719 -24.005391)
(-3594.9736 -126.7295 -21.901623)
(-3652.1197 -114.94706 -19.499745)
(-3709.2451 -103.12213 -16.852219)
(-3766.1993 -91.246608 -14.033155)
(-3823.0379 -79.386094 -11.108542)
(-3879.6704 -67.493323 -8.2035224)
(-3936.0573 -55.61587 -5.3336745)
(-3992.0286 -43.761564 -2.6008293)
(-4047.9077 -31.83846 -0.035264717)
(-4112.9265 -19.875514 2.4620105)
(-12.371565 -13.181252 -21.098511)
(-31.606798 -16.368447 -22.142909)
(-54.821463 -25.533582 -22.98743)
(-77.49663 -31.736225 -20.987161)
(-101.60273 -38.816984 -17.514669)
(-126.0468 -44.861437 -13.244325)
(-150.83497 -50.90309 -8.7198121)
(-174.98666 -55.958231 -3.975078)
(-199.06188 -60.826031 0.36334233)
(-222.30916 -64.906224 4.9635512)
(-244.47771 -68.741469 8.461628)
(-265.66056 -71.944256 12.202393)
(-285.46162 -74.981029 14.726966)
(-304.03688 -77.562597 17.201093)
(-321.03235 -80.030549 18.527289)
(-336.88635 -82.356957 19.729824)
(-351.03099 -84.61441 19.747877)
(-364.325 -86.957257 19.552844)
(-376.17562 -89.394788 18.435423)
(-387.26936 -92.068204 16.901364)
(-397.46144 -94.995854 14.645047)
(-407.27518 -98.277507 12.023616)
(-416.69072 -101.90776 8.7667112)
(-426.23196 -105.97739 5.2167029)
(-435.96928 -110.43769 1.2414759)
(-446.38906 -115.36693 -2.9669719)
(-457.6358 -120.66201 -7.4335436)
(-470.13197 -126.38115 -11.950118)
(-484.07149 -132.40769 -16.547843)
(-499.83077 -138.76297 -21.053314)
(-517.55549 -145.3134 -25.419649)
(-537.57521 -152.04663 -29.525824)
(-560.00769 -158.87052 -33.301781)
(-585.02128 -165.71889 -36.6796)
(-612.72287 -172.53106 -39.552338)
(-643.17034 -179.2638 -41.9332)
(-676.37912 -185.85118 -43.735076)
(-712.234 -192.27763 -45.017247)
(-750.66445 -198.49068 -45.764376)
(-791.54436 -204.53295 -46.042463)
(-834.63713 -210.33379 -45.891932)
(-879.75859 -215.98228 -45.439213)
(-926.63547 -221.40422 -44.792053)
(-975.04438 -226.6886 -44.072686)
(-1024.761 -231.8175 -43.366173)
(-1075.5564 -236.80188 -42.815868)
(-1127.2773 -241.65593 -42.503861)
(-1179.7986 -246.35492 -42.50241)
(-1233.058 -250.88656 -42.854782)
(-1287.049 -255.2079 -43.569524)
(-1341.8247 -259.27004 -44.619119)
(-1397.4829 -263.0062 -45.946688)
(-1454.1636 -266.34598 -47.465016)
(-1512.0237 -269.20258 -49.068715)
(-1571.229 -271.50133 -50.632295)
(-1631.9283 -273.15219 -52.039838)
(-1694.2347 -274.08719 -53.171599)
(-1758.2153 -274.24068 -53.926907)
(-1823.8726 -273.56338 -54.234412)
(-1891.1354 -272.01921 -54.050232)
(-1959.8628 -269.5983 -53.355385)
(-2029.8351 -266.29437 -52.179455)
(-2100.775 -262.14189 -50.56594)
(-2172.3675 -257.15061 -48.603949)
(-2244.2 -251.39025 -46.377994)
(-2315.8769 -244.94659 -44.001947)
(-2387.9905 -237.83928 -41.678824)
(-2461.1326 -230.31687 -39.357217)
(-2531.5562 -222.14097 -37.131331)
(-2600.2772 -213.50829 -35.178123)
(-2667.3838 -204.43222 -33.479732)
(-2732.7037 -195.03432 -32.068946)
(-2796.1785 -185.33063 -30.9616)
(-2857.7843 -175.38784 -30.115816)
(-2917.5975 -165.19229 -29.516119)
(-2975.689 -154.85441 -29.062727)
(-3032.2552 -144.30583 -28.72874)
(-3087.4275 -133.66522 -28.390464)
(-3141.4871 -122.8564 -28.019908)
(-3194.5486 -112.00837 -27.487997)
(-3246.947 -101.01543 -26.80191)
(-3298.7685 -90.013261 -25.853913)
(-3350.3592 -78.935414 -24.645284)
(-3390.3481 -67.608452 -23.085135)
(-3434.2568 -56.438398 -21.268588)
(-3484.9528 -45.392488 -19.246583)
(-3535.9989 -34.401175 -17.005318)
(-3587.3395 -23.408467 -14.609262)
(-3638.9078 -12.516519 -12.076097)
(-3690.8841 -1.6564076 -9.5205526)
(-3743.0625 9.1337561 -6.9399937)
(-3795.6566 19.865773 -4.4259632)
(-3848.4991 30.568634 -2.0017446)
(-3901.791 41.268483 0.35863798)
(-3963.5571 52.220123 2.6186723)
(-10.360074 -9.0455809 -16.39594)
(-28.222588 -11.501845 -16.932803)
(-48.243544 -16.720776 -18.699682)
(-70.447837 -21.583735 -17.00868)
(-93.626838 -26.72167 -14.193819)
(-117.96368 -32.155487 -10.893117)
(-141.72794 -36.90041 -7.1555063)
(-166.4402 -41.925139 -3.3554381)
(-190.27594 -46.068876 0.70608935)
(-213.77435 -50.554051 4.083147)
(-236.4592 -54.045729 7.7357822)
(-258.30686 -57.922251 10.517135)
(-278.88769 -60.896504 13.317348)
(-298.32782 -64.211158 15.198832)
(-316.52649 -66.944713 17.033677)
(-333.22569 -69.836707 17.825381)
(-348.83495 -72.478991 18.490533)
(-363.01316 -75.262007 18.304969)
(-376.13548 -78.026216 17.719965)
(-388.18628 -80.961399 16.469712)
(-399.46828 -84.049836 14.810674)
(-410.02892 -87.345253 12.520594)
(-420.29576 -90.929783 9.8735736)
(-430.35908 -94.753628 6.7301119)
(-440.67024 -98.923569 3.2606573)
(-451.39948 -103.33995 -0.56020916)
(-462.97047 -108.08055 -4.591484)
(-475.61773 -113.0509 -8.8139527)
(-489.73094 -118.27527 -13.121107)
(-505.53139 -123.63706 -17.426167)
(-523.37761 -129.15821 -21.636651)
(-543.45096 -134.72629 -25.667699)
(-566.03002 -140.31758 -29.430273)
(-591.22496 -145.8504 -32.83443)
(-619.21682 -151.29305 -35.818073)
(-650.0141 -156.59684 -38.330083)
(-683.64675 -161.7087 -40.319765)
(-720.04129 -166.64463 -41.792342)
(-759.15387 -171.35269 -42.736397)
(-800.74296 -175.83564 -43.190688)
(-844.62298 -180.15445 -43.258264)
(-890.54686 -184.24832 -42.986831)
(-938.2264 -188.18091 -42.48355)
(-987.40855 -191.97355 -41.872773)
(-1037.8165 -195.59462 -41.257913)
(-1089.2186 -199.0897 -40.755231)
(-1141.4265 -202.42339 -40.442199)
(-1194.3015 -205.57901 -40.403376)
(-1247.7664 -208.51677 -40.67259)
(-1301.8145 -211.18152 -41.261685)
(-1356.4948 -213.50897 -42.14473)
(-1411.9091 -215.4225 -43.272432)
(-1468.2005 -216.84391 -44.558841)
(-1525.528 -217.69182 -45.908504)
(-1584.0563 -217.89278 -47.209218)
(-1643.9226 -217.37571 -48.355612)
(-1705.2312 -216.09595 -49.237739)
(-1768.0241 -214.0093 -49.780242)
(-1832.2792 -211.1001 -49.919947)
(-1897.893 -207.37139 -49.620989)
(-1964.6943 -202.83711 -48.890314)
(-2032.4307 -197.5374 -47.744857)
(-2100.8148 -191.51557 -46.25307)
(-2169.4671 -184.82865 -44.472169)
(-2238.0418 -177.55218 -42.503545)
(-2306.2791 -169.7707 -40.42206)
(-2371.752 -161.32255 -38.3519)
(-2447.6642 -153.37143 -36.293937)
(-2512.5661 -144.31724 -34.562795)
(-2576.4076 -135.02624 -32.913813)
(-2638.4031 -125.5221 -31.515669)
(-2698.5208 -115.81211 -30.343638)
(-2756.6698 -105.93802 -29.404988)
(-2812.9248 -95.939777 -28.673266)
(-2867.3671 -85.803429 -28.107022)
(-2920.184 -75.58566 -27.628692)
(-2971.5538 -65.253375 -27.206707)
(-3021.7036 -54.89342 -26.742457)
(-3070.8678 -44.433703 -26.211541)
(-3119.2984 -33.974588 -25.533702)
(-3167.2196 -23.441946 -24.693316)
(-3214.846 -12.954906 -23.623321)
(-3262.4276 -2.4052948 -22.363155)
(-3310.2069 8.0741447 -20.848184)
(-3341.0594 18.528588 -19.012512)
(-3388.5545 28.848752 -17.08809)
(-3437.4307 39.18962 -15.037249)
(-3486.9397 49.425085 -12.849058)
(-3537.1816 59.623193 -10.594863)
(-3588.1822 69.726106 -8.3048305)
(-3639.961 79.789476 -6.0210796)
(-3692.6593 89.809431 -3.7751186)
(-3746.0943 99.812592 -1.5920621)
(-3800.6176 109.83669 0.56086839)
(-3861.359 120.13894 2.6664689)
(-10.267049 -6.921643 -12.068718)
(-26.843011 -7.4874114 -13.067688)
(-46.335739 -11.323782 -13.974556)
(-67.647904 -14.399026 -12.72865)
(-90.768735 -18.577048 -10.647213)
(-114.1749 -22.386046 -8.0253884)
(-138.90697 -26.8354 -4.9339984)
(-163.35728 -30.768555 -1.4312648)
(-187.6773 -34.936207 1.3636287)
(-211.77938 -38.638149 4.9261673)
(-235.13373 -42.399098 7.4461857)
(-257.54667 -45.804317 10.404099)
(-278.93848 -49.103883 12.32778)
(-299.29204 -52.328536 14.567833)
(-318.06648 -55.21656 15.652887)
(-335.84323 -58.284315 16.922272)
(-352.01181 -61.056205 17.243591)
(-367.06582 -64.021755 17.367492)
(-380.77416 -66.847781 16.798582)
(-393.52471 -69.88498 15.925617)
(-405.20286 -72.91574 14.389842)
(-416.3086 -76.182368 12.550237)
(-426.82918 -79.53202 10.161798)
(-437.23587 -83.119935 7.4471322)
(-447.66499 -86.83435 4.3118819)
(-458.55389 -90.759154 0.91638613)
(-470.12621 -94.820458 -2.7710144)
(-482.79663 -99.023616 -6.6189797)
(-496.80212 -103.30504 -10.598599)
(-512.541 -107.66266 -14.591292)
(-530.22169 -112.00597 -18.552785)
(-550.17922 -116.32132 -22.366439)
(-572.56522 -120.52909 -25.95841)
(-597.60437 -124.61748 -29.25285)
(-625.39216 -128.51068 -32.175061)
(-655.98122 -132.22325 -34.661218)
(-689.44363 -135.67362 -36.680053)
(-725.65883 -138.94569 -38.235833)
(-764.46093 -141.94001 -39.281426)
(-805.69075 -144.7753 -39.92644)
(-849.1445 -147.3563 -40.125691)
(-894.53939 -149.78164 -40.022717)
(-941.61345 -152.05035 -39.682904)
(-990.07436 -154.16993 -39.215696)
(-1039.6439 -156.15288 -38.719835)
(-1090.0927 -158.00254 -38.289002)
(-1141.2229 -159.69664 -38.007395)
(-1192.8956 -161.20448 -37.951246)
(-1245.0403 -162.48028 -38.143821)
(-1297.6511 -163.46539 -38.607369)
(-1350.7803 -164.08984 -39.318424)
(-1404.536 -164.27777 -40.234035)
(-1459.0609 -163.95615 -41.281137)
(-1514.5175 -163.04788 -42.381153)
(-1571.0644 -161.4918 -43.436211)
(-1628.8401 -159.23544 -44.354194)
(-1687.9404 -156.2449 -45.049234)
(-1748.4033 -152.49784 -45.456142)
(-1810.1992 -148.00331 -45.517747)
(-1873.2267 -142.77415 -45.219399)
(-1937.3078 -136.85275 -44.554841)
(-2002.2098 -130.27818 -43.558395)
(-2067.6257 -123.13003 -42.267656)
(-2133.228 -115.44546 -40.758273)
(-2198.6849 -107.33881 -39.085574)
(-2263.6158 -98.814727 -37.36304)
(-2327.6799 -90.024379 -35.600029)
(-2390.3578 -80.956922 -33.971357)
(-2452.2227 -71.677565 -32.470742)
(-2512.1299 -62.197077 -31.08043)
(-2570.2784 -52.649712 -29.88232)
(-2626.8332 -42.96911 -28.867738)
(-2681.6393 -33.225646 -28.03755)
(-2734.8894 -23.404783 -27.351972)
(-2786.5421 -13.505012 -26.763713)
(-2836.9003 -3.5832885 -26.232238)
(-2886.1431 6.4130903 -25.722235)
(-2934.5366 16.419698 -25.155427)
(-2982.3196 26.498761 -24.529807)
(-3029.7493 36.568259 -23.755911)
(-3077.0707 46.703867 -22.849331)
(-3124.5265 56.803536 -21.755227)
(-3172.3199 66.964091 -20.48305)
(-3220.6407 77.066531 -19.025448)
(-3269.9057 87.203683 -17.380144)
(-3319.5225 97.249942 -15.598803)
(-3370.309 107.29338 -13.69404)
(-3422.156 117.30066 -11.693121)
(-3475.0426 127.26516 -9.6306942)
(-3529.1278 137.19252 -7.5487107)
(-3584.3539 147.12433 -5.4642376)
(-3640.874 157.03411 -3.4053214)
(-3698.516 166.97154 -1.3988526)
(-3757.6084 176.92687 0.61991446)
(-3819.6153 187.08518 2.5635021)
(-10.137514 -4.4133004 -9.0712978)
(-26.94797 -5.1670245 -9.3879249)
(-45.845268 -7.625592 -10.271135)
(-67.628226 -10.125738 -9.2359277)
(-90.450595 -12.696048 -7.4329547)
(-115.44688 -16.244207 -5.0277955)
(-140.35084 -19.380188 -2.1078863)
(-165.74175 -23.074729 0.22073092)
(-191.08091 -26.139795 3.4114365)
(-216.03047 -29.844795 5.7662825)
(-240.08389 -32.738186 8.4615933)
(-263.38295 -36.130872 10.426494)
(-285.57735 -38.961683 12.653654)
(-306.28681 -42.003723 13.924902)
(-325.86457 -44.736345 15.374426)
(-343.83689 -47.619796 16.062356)
(-360.45139 -50.269926 16.51861)
(-375.62712 -53.069092 16.462403)
(-389.55736 -55.793429 16.067594)
(-402.23616 -58.597655 15.124648)
(-414.01515 -61.466588 13.874384)
(-424.95832 -64.380572 12.133422)