/*--------------------------------*- C++ -*----------------------------------*\
  =========                 |
  \\      /  F ield         | OpenFOAM: The Open Source CFD Toolbox
   \\    /   O peration     | Website:  https://openfoam.org
    \\  /    A nd           | Version:  6
     \\/     M anipulation  |
\*---------------------------------------------------------------------------*/
FoamFile
{
    version     2.0;
    format      ascii;
    class       pointVectorField;
    location    "0.48";
    object      lm;
}
// * * * * * * * * * * * * * * * * * * * * * * * * * * * * * * * * * * * * * //

dimensions      [1 -2 -1 0 0 0 0];

internalField   nonuniform List<vector> 
28033
(
(-1.780536e-14 4.8656612e-16 1.3104288e-15)
(-5.4375576e-15 3.3318594e-15 9.9433006e-16)
(-62.535237 -103.09774 75.917125)
(-226.91818 -478.057 -35.874928)
(-1.338461e-14 3.0090723e-15 -2.870051e-16)
(-1.2587315e-14 4.9008913e-15 -4.4266115e-15)
(-211.11847 -484.11807 69.866354)
(-26.915194 -95.587493 -19.482134)
(-5.6329745e-15 1.0535579e-15 6.7193838e-16)
(-2.4534443e-15 3.0423504e-16 5.8836893e-16)
(-5.4923298e-15 2.4302826e-15 8.9528572e-16)
(-2.6209443e-15 -1.1537891e-15 -6.7979696e-16)
(-7.2548563e-15 1.5542294e-15 1.0013199e-15)
(-4.7613589e-15 -9.2108094e-16 -7.3952737e-16)
(-1.132389e-15 -2.2256662e-17 -6.4484848e-16)
(-7.4239857e-16 -2.4218299e-16 -3.6669977e-16)
(-1.1196198e-15 4.5550132e-16 8.383863e-16)
(-2.3465882e-16 2.2667819e-16 1.4996246e-15)
(-4.0583243e-15 -8.7236639e-16 -1.3429605e-15)
(-5.8237189e-15 8.4462789e-16 7.5519031e-16)
(-5.1611762e-15 1.0100276e-15 9.7613867e-16)
(-1.7679952e-15 -8.1010255e-16 4.5192313e-16)
(-4.4158752e-15 1.0299569e-15 -9.452958e-16)
(-72.422055 -126.90702 61.45048)
(-80.541588 -147.1759 48.24352)
(-87.766019 -165.85365 39.100996)
(-95.175832 -184.83611 31.845352)
(-103.88563 -205.55058 27.259722)
(-114.16688 -229.71601 24.111782)
(-126.64209 -256.54898 21.357884)
(-140.33504 -286.94297 19.533511)
(-155.08464 -318.6717 17.305723)
(-170.50512 -350.94345 14.782802)
(-184.12111 -381.69223 11.027983)
(-197.14584 -409.20939 4.6320709)
(-207.03315 -432.32576 -2.2580513)
(-214.93103 -451.19162 -11.875778)
(-221.14054 -465.59673 -23.248103)
(-48.056509 -48.817093 -43.961167)
(-88.411474 -73.414245 -46.559731)
(-128.88834 -86.788266 -44.272949)
(-167.7461 -95.956596 -41.182021)
(-203.05215 -99.940195 -36.788031)
(-234.26849 -101.49878 -33.405229)
(-260.58989 -100.50196 -30.885539)
(-281.68828 -99.129996 -30.163349)
(-297.71123 -97.405558 -30.86138)
(-308.98022 -97.06578 -33.452793)
(-316.51896 -98.570074 -37.156382)
(-321.34165 -102.53909 -42.153143)
(-324.71888 -109.39302 -47.58919)
(-327.84474 -119.47388 -53.723832)
(-333.11503 -132.62427 -58.969683)
(-341.12907 -148.20032 -63.733473)
(-353.1113 -165.62729 -67.410824)
(-370.24381 -184.45716 -70.043075)
(-393.42905 -203.66604 -70.458392)
(-422.53287 -222.21056 -69.626284)
(-457.87888 -239.38763 -67.081373)
(-498.68299 -254.01106 -62.981794)
(-544.83402 -265.83609 -57.736677)
(-595.02791 -273.60172 -51.316337)
(-648.31141 -277.35929 -44.189982)
(-703.56782 -276.82954 -36.775241)
(-759.76946 -271.64949 -29.005542)
(-815.72204 -261.88856 -21.09236)
(-870.26321 -248.12421 -13.525177)
(-923.113 -230.42939 -5.6790232)
(-972.72011 -209.06518 1.7801522)
(-1019.0979 -185.14087 9.4914814)
(-1062.2493 -158.73949 17.455485)
(-1101.7439 -130.76976 25.742082)
(-1137.0265 -101.46274 34.26692)
(-1168.4467 -71.752373 43.006618)
(-1195.6834 -41.813206 52.118779)
(-1219.1645 -12.582519 61.127333)
(-1238.3551 15.781617 70.1746)
(-1253.4373 42.888245 78.631759)
(-1264.3711 68.182556 86.27583)
(-1270.9953 91.804927 92.899028)
(-1273.3896 113.13033 98.07097)
(-1271.4585 132.32368 101.56657)
(-1265.2413 149.27551 103.22114)
(-1254.7586 164.03106 102.90752)
(-1240.1413 176.70372 100.6595)
(-1221.5336 187.44885 96.559624)
(-1199.142 196.47895 90.837877)
(-1173.2123 204.0099 83.783666)
(-1144.0232 210.26467 75.770661)
(-1111.8792 215.44108 67.224352)
(-1077.0982 219.69753 58.589102)
(-1039.9966 223.12625 50.307198)
(-1000.8774 225.74402 42.772235)
(-960.01562 227.46688 36.299304)
(-917.64808 228.10812 31.093393)
(-873.98145 227.3769 27.215568)
(-829.17635 224.89415 24.598311)
(-783.39582 220.19766 23.013147)
(-736.81536 212.85575 22.159273)
(-689.61264 202.3233 21.592512)
(-642.11935 188.37938 20.974665)
(-594.62539 170.68484 19.918817)
(-547.78529 149.28596 17.813387)
(-501.88977 124.07029 15.274859)
(-458.17797 96.015746 11.680041)
(-416.80931 65.158849 7.0482619)
(-378.7372 32.585739 1.2849777)
(-345.11215 -0.84939747 -3.9711834)
(-316.12578 -34.066861 -9.3303532)
(-292.29756 -65.936316 -14.184101)
(-274.07039 -95.425588 -17.756052)
(-261.45005 -121.7132 -19.874024)
(-254.22491 -143.90633 -20.129614)
(-251.97738 -161.40414 -18.318618)
(-253.98035 -173.80439 -14.308414)
(-259.4849 -180.95608 -8.1262506)
(-267.25233 -182.92526 0.14823752)
(-276.44538 -179.9518 10.190913)
(-285.74034 -172.83914 21.723135)
(-293.8683 -162.08344 34.171656)
(-300.00637 -148.5377 47.286589)
(-303.07078 -133.26897 60.294164)
(-302.18761 -117.49878 72.496686)
(-297.09692 -102.14539 83.617626)
(-287.0076 -88.283647 92.890528)
(-272.45752 -76.682746 100.10329)
(-253.38101 -68.072926 104.92712)
(-230.10098 -63.164581 106.84015)
(-204.32704 -61.584078 106.77295)
(-175.65998 -64.195943 103.49976)
(-146.70155 -70.198396 98.7994)
(-117.58197 -78.420527 92.394316)
(-89.027701 -89.178884 83.513511)
(-15.417271 69.34451 74.353416)
(-71.961698 79.598225 50.799792)
(-129.42302 105.80193 44.784239)
(-172.79399 108.73676 22.453107)
(-218.32109 119.91891 9.0305757)
(-254.35725 126.89277 -3.6556989)
(-282.12209 130.73286 -11.736538)
(-301.86307 135.59026 -14.71464)
(-312.8068 138.40615 -12.539914)
(-315.53556 141.91263 -5.0421677)
(-311.062 145.12446 6.8883153)
(-301.71103 149.97051 22.513336)
(-288.95594 155.75874 40.022782)
(-275.06344 163.48969 58.842121)
(-262.00719 173.27619 77.078301)
(-252.00315 185.3675 93.925026)
(-246.76352 200.10872 107.59553)
(-247.83946 216.57557 117.77354)
(-255.9991 235.55932 123.63774)
(-271.87819 255.9017 124.58371)
(-295.80023 277.41915 121.13427)
(-327.39185 300.08633 112.70444)
(-365.69768 322.13836 100.48194)
(-410.52272 344.72387 84.602986)
(-460.47862 366.1316 65.616229)
(-513.71433 385.84883 45.230108)
(-569.5309 404.34676 23.465247)
(-626.18066 420.28134 1.8764604)
(-682.73398 433.99888 -19.407559)
(-737.57518 444.99807 -38.824359)
(-790.00503 453.19756 -56.219552)
(-839.39419 458.64233 -71.156788)
(-884.93019 461.00792 -83.060846)
(-926.39863 460.45662 -91.888936)
(-963.55779 457.01444 -97.727646)
(-996.43833 450.54859 -100.38325)
(-1025.2492 441.77062 -100.68861)
(-1050.3635 429.97016 -98.699717)
(-1071.8623 416.21516 -94.905045)
(-1090.0737 399.97338 -89.72923)
(-1105.345 381.8252 -83.707538)
(-1117.9106 361.88365 -77.303191)
(-1127.9417 340.38596 -70.877413)
(-1135.5945 317.55588 -64.817286)
(-1140.9863 293.64574 -59.418965)
(-1144.1967 268.89829 -54.93921)
(-1145.2961 243.56276 -51.578751)
(-1144.3255 217.87227 -49.469461)
(-1141.3066 192.03378 -48.676987)
(-1136.217 166.2119 -49.173335)
(-1128.983 140.51146 -50.833584)
(-1119.4584 114.97095 -53.419446)
(-1107.4245 89.558784 -56.582486)
(-1092.5856 64.17752 -59.873337)
(-1074.599 38.688484 -62.771843)
(-1053.0959 12.929464 -64.720904)
(-1027.7341 -13.24831 -65.181627)
(-998.24183 -39.943783 -63.683019)
(-964.46648 -67.184227 -59.868392)
(-926.41363 -94.88727 -53.545025)
(-884.27879 -122.8595 -44.698693)
(-838.452 -150.78454 -33.509651)
(-789.52463 -178.24415 -20.338635)
(-738.25613 -204.72258 -5.7164117)
(-685.58206 -229.69901 9.7429119)
(-632.50161 -252.54995 25.311821)
(-580.00964 -272.80439 40.166059)
(-529.51312 -290.20492 53.886699)
(-481.5319 -303.88215 65.4876)
(-437.69612 -314.38375 74.273221)
(-398.78226 -320.28488 80.449607)
(-364.77229 -324.01228 83.253276)
(-337.39588 -323.70209 82.538672)
(-316.38503 -320.7706 78.198982)
(-301.86914 -315.5576 70.657464)
(-293.88368 -308.80948 59.964523)
(-291.97726 -301.22723 46.632697)
(-295.54227 -293.60639 31.202626)
(-303.70484 -286.75097 14.249179)
(-315.44647 -281.35882 -3.4898109)
(-329.55384 -278.1232 -21.333518)
(-344.7101 -277.60014 -38.509424)
(-359.59423 -280.18739 -54.327439)
(-372.88299 -286.1488 -68.134215)
(-383.39115 -295.5312 -79.401444)
(-390.09015 -308.1973 -87.719118)
(-392.20561 -323.79993 -92.863233)
(-389.23775 -341.80693 -94.761399)
(-381.02475 -361.50145 -93.560998)
(-367.71593 -382.0548 -89.518781)
(-349.82554 -402.49356 -83.168713)
(-328.12616 -421.89649 -74.968355)
(-303.70158 -439.39173 -65.577174)
(-277.6715 -454.11811 -55.743296)
(-252.04692 -466.86221 -45.557817)
(3.2927448e-15 -1.3239155e-15 2.3845803e-16)
(2.4470133e-15 -9.6672015e-16 3.215493e-17)
(-9.0574249e-15 9.0550918e-16 6.4029168e-16)
(-1.2642219e-16 -5.721845e-16 4.4370095e-16)
(-7.6811722e-15 -4.9270561e-16 4.1193361e-16)
(-7.3893964e-15 2.7533729e-15 -1.0951501e-15)
(-3.2915852e-15 -8.1743692e-16 3.8364228e-16)
(-1.9032499e-15 5.3200654e-16 -8.2319016e-17)
(-4.7409759e-15 -4.8623412e-16 4.3918642e-16)
(-1.2869644e-14 1.1845665e-15 6.4228907e-16)
(-9.6157521e-15 1.4157374e-15 5.9836601e-16)
(-9.4077204e-15 4.9518432e-16 1.1192419e-15)
(-5.982767e-15 2.6210694e-16 3.0473736e-16)
(-1.1478475e-14 -5.3386198e-16 1.6580808e-15)
(-5.257323e-15 3.6289085e-16 2.8600704e-16)
(-36.596919 33.899491 -64.771883)
(-79.411427 108.04247 -64.755263)
(-124.00255 96.582788 -58.000799)
(-165.76248 117.88954 -54.927429)
(-206.1345 122.68968 -49.475691)
(-235.47521 124.40367 -41.470093)
(-263.35541 129.61468 -39.553925)
(-278.50398 128.7059 -37.305797)
(-289.76587 131.52653 -41.121508)
(-292.22588 130.6941 -45.619076)
(-288.26878 134.35997 -52.687557)
(-283.21006 138.92042 -61.49656)
(-273.3186 144.56775 -70.397854)
(-264.7751 155.31423 -79.102044)
(-257.11836 167.58695 -86.505588)
(-252.56941 183.45255 -91.546436)
(-253.91835 203.03714 -94.812121)
(-259.69038 225.63572 -94.860032)
(-272.81505 250.38808 -92.176641)
(-292.23887 277.72934 -86.56009)
(-318.91853 303.85502 -79.245953)
(-351.36355 333.37583 -69.139671)
(-388.84541 361.40494 -57.940512)
(-432.64861 387.41572 -45.621623)
(-479.22505 411.03938 -32.922698)
(-529.68383 432.73987 -19.956167)
(-579.22826 451.54792 -8.615643)
(-631.59851 466.8891 3.3450781)
(-681.37451 478.54663 12.876515)
(-731.21243 485.83656 22.514085)
(-779.49343 490.18728 30.456609)
(-824.35687 490.98814 37.475344)
(-866.85023 488.52911 43.74404)
(-906.10132 483.30821 49.429048)
(-943.53243 477.77995 54.331704)
(-973.59304 465.27418 59.567303)
(-1006.2604 454.81818 64.681065)
(-1032.964 442.57044 69.826034)
(-1057.3885 428.80665 74.688424)
(-1078.7832 414.04193 79.722759)
(-1097.2903 398.58494 84.39582)
(-1112.8516 382.36647 88.595212)
(-1125.3399 365.43121 92.031021)
(-1134.7468 347.77713 94.467972)
(-1140.9987 329.34595 95.695875)
(-1144.12 310.09033 95.597184)
(-1144.1718 289.94505 94.140421)
(-1141.2681 268.85237 91.392081)
(-1135.5537 246.74363 87.504446)
(-1127.1787 223.55615 82.687221)
(-1116.2679 199.21333 77.186559)
(-1102.8892 173.64705 71.237949)
(-1087.0394 146.78436 65.060092)
(-1068.6304 118.58905 58.807337)
(-1047.5057 89.042472 52.595887)
(-1023.4576 58.212905 46.471684)
(-996.27208 26.223139 40.458452)
(-965.75816 -6.6827036 34.540808)
(-931.80705 -40.167963 28.715593)
(-894.41237 -73.78151 22.980256)
(-853.7151 -106.97609 17.366214)
(-810.00538 -139.13509 11.928561)
(-763.73729 -169.5937 6.7479738)
(-715.5324 -197.68308 1.9619166)
(-666.0847 -222.79566 -2.3725966)
(-616.35519 -244.41048 -6.0583296)
(-567.06899 -261.67091 -9.0293865)
(-519.90326 -275.57333 -10.920755)
(-473.67241 -287.13797 -12.388108)
(-433.04054 -288.40375 -11.262227)
(-395.20528 -291.04253 -11.057739)
(-362.85806 -288.35552 -7.8399041)
(-336.47157 -282.85255 -4.1532939)
(-315.66087 -275.51241 0.9549278)
(-301.25523 -266.74851 7.5089586)
(-292.99939 -257.53041 15.223854)
(-290.4707 -248.76593 24.094209)
(-293.23165 -241.2685 33.952395)
(-300.43233 -235.80592 44.543272)
(-311.07866 -233.05155 55.596694)
(-324.02625 -233.52009 66.770877)
(-338.01527 -237.56831 77.689332)
(-351.74697 -245.3735 87.956306)
(-363.95684 -256.90969 97.173096)
(-373.46975 -271.9644 104.96374)
(-379.28419 -290.12553 111.00303)
(-380.61708 -310.82057 115.03386)
(-376.96705 -333.31418 116.89407)
(-368.13911 -356.77831 116.53155)
(-354.2812 -380.28398 114.01422)
(-335.87256 -402.93021 109.53695)
(-313.6827 -423.79327 103.4097)
(-288.84804 -442.12702 95.995285)
(-262.26582 -457.40151 87.617514)
(-235.41063 -468.49516 78.841542)
(-205.22322 -471.81248 61.040038)
(-198.70025 -458.43357 52.238129)
(-188.67115 -437.07314 44.52292)
(-178.27923 -412.598 37.825991)
(-164.30234 -384.37252 32.871438)
(-150.16182 -352.27915 28.090383)
(-134.84814 -320.33672 25.268431)
(-120.14435 -288.63975 22.345748)
(-105.14795 -257.10852 19.254417)
(-92.521153 -229.50653 17.171413)
(-80.847246 -206.49285 14.114569)
(-71.689517 -184.8935 11.528767)
(-60.274564 -166.29361 6.2668381)
(-51.66845 -145.08943 0.82548095)
(-39.749573 -123.82568 -8.6209215)
(-56.581878 -81.373551 -30.561181)
(-88.510902 -70.122451 -40.384078)
(-122.51574 -60.320197 -51.607009)
(-157.15358 -52.642788 -62.078221)
(-192.0353 -47.325101 -72.617504)
(-225.05251 -44.749587 -81.864142)
(-254.86006 -44.983426 -88.984236)
(-280.42767 -47.87997 -93.521579)
(-300.64569 -53.23679 -94.766588)
(-314.97957 -60.68749 -92.333861)
(-323.15025 -69.64992 -86.154916)
(-325.2532 -79.64343 -76.071718)
(-321.7547 -89.868666 -62.547575)
(-313.53173 -99.611225 -46.092892)
(-301.53889 -108.10215 -27.120296)
(-287.12519 -114.85358 -6.4912664)
(-271.64234 -119.12063 14.867452)
(-256.58546 -120.47446 36.11225)
(-243.54662 -118.30572 56.073825)
(-233.92879 -112.4148 73.948299)
(-229.04656 -102.52989 88.797426)
(-229.9918 -88.655064 99.945654)
(-237.58096 -70.871296 106.85289)
(-252.2894 -49.487671 109.37805)
(-274.17814 -24.971842 107.08674)
(-303.49515 2.5057663 100.90938)
(-338.48076 31.118585 90.226819)
(-381.36714 64.198495 75.705749)
(-427.05272 91.963791 60.739053)
(-477.4746 123.80416 42.741722)
(-530.02593 153.05861 24.628372)
(-583.93546 180.58131 6.5738958)
(-638.02421 205.84537 -10.17487)
(-691.32953 228.17333 -25.1556)
(-743.01058 247.28043 -37.763465)
(-792.46404 262.97028 -47.703048)
(-839.2515 275.15951 -54.828182)
(-883.11163 283.85692 -59.181081)
(-923.93731 289.16643 -60.95252)
(-961.73349 291.23613 -60.455522)
(-996.59547 290.25675 -58.099998)
(-1028.67 286.43543 -54.356876)
(-1058.1341 279.9943 -49.734275)
(-1085.1657 271.15489 -44.747885)
(-1109.9298 260.14302 -39.899065)
(-1132.5572 247.18016 -35.645715)
(-1153.1319 232.48239 -32.387059)
(-1171.6884 216.26292 -30.427319)
(-1188.1723 198.71428 -29.984296)
(-1202.5173 180.00897 -31.123264)
(-1214.4965 160.35083 -33.86883)
(-1223.9312 139.78051 -37.970238)
(-1230.5708 118.54754 -43.322817)
(-1233.9221 96.609095 -49.406736)
(-1233.901 74.095414 -55.876203)
(-1229.9069 51.097842 -62.36686)
(-1221.9015 28.064458 -68.260492)
(-1212.6571 4.081221 -72.905033)
(-1190.5542 -20.931758 -76.133997)
(-1169.2927 -44.033384 -77.790307)
(-1144.946 -68.732211 -77.083136)
(-1108.2576 -92.887309 -73.874396)
(-1071.0136 -115.32829 -67.860953)
(-1027.9236 -138.14967 -59.769601)
(-982.79073 -160.4071 -48.618351)
(-927.96574 -179.36288 -35.69809)
(-874.54281 -197.3512 -20.121476)
(-814.91567 -211.76504 -3.9644964)
(-755.33048 -224.27692 13.819156)
(-695.69422 -233.53076 31.331086)
(-636.44415 -239.68275 48.474097)
(-580.22693 -240.9855 63.743775)
(-527.19484 -239.12129 77.353233)
(-479.04224 -234.75726 87.785955)
(-436.36215 -225.55788 94.680048)
(-401.36639 -214.85636 98.708642)
(-371.67495 -201.51088 97.864162)
(-350.72017 -187.31122 94.516983)
(-334.4348 -171.8824 86.679361)
(-324.78389 -156.9854 77.062386)
(-320.49821 -143.74428 64.819259)
(-318.43531 -130.8904 51.566552)
(-316.6692 -119.80827 38.079208)
(-317.47479 -112.49314 25.043036)
(-315.17715 -105.22394 13.53841)
(-308.68199 -101.61917 5.1692096)
(-300.3038 -99.671272 -1.7942257)
(-285.12851 -97.721212 -4.2159)
(-264.27028 -96.277111 -3.9413952)
(-237.04139 -94.931386 0.48738412)
(-205.74895 -92.009665 6.4204514)
(-169.16649 -85.431342 15.385681)
(-130.39723 -77.332386 23.907061)
(-84.569153 -61.669961 31.056382)
(-53.548481 -44.379446 32.735609)
(-6.8708141e-15 1.5083581e-15 1.9262289e-16)
(-1.2504183e-14 5.7375616e-16 8.4327435e-16)
(-8.3449101e-15 1.4891922e-15 5.3018253e-16)
(-4.9731758e-15 1.4991158e-15 6.2376313e-16)
(-3.4146159e-15 1.5624416e-15 3.1576894e-17)
(2.0582335e-15 9.3962624e-16 -5.746342e-16)
(2.2101935e-15 3.7457559e-17 -1.1841335e-16)
(2.4553765e-15 -8.5141669e-16 -9.3419562e-16)
(1.2987427e-15 1.0081898e-16 1.7950851e-15)
(-4.5074861e-15 9.063971e-16 1.0710522e-15)
(-5.2682467e-15 2.1856155e-15 1.0652666e-15)
(-7.4917339e-15 1.915055e-15 2.2418828e-16)
(-9.400838e-15 1.3708275e-15 6.2833768e-16)
(-6.2048683e-15 1.3247981e-15 5.4317906e-16)
(-6.971104e-15 1.5128103e-15 7.5678131e-16)
(-1.2693866e-14 6.2923345e-15 -2.1364834e-15)
(-5.2452578e-15 2.6791924e-15 -5.3037742e-16)
(-1.0752404e-15 9.8318743e-16 -1.0111087e-16)
(-2.7353382e-15 1.7746034e-15 7.3085398e-17)
(1.0178949e-15 -1.5450237e-16 -4.119182e-16)
(-1.4303492e-15 4.136346e-16 -3.3264033e-16)
(-1.0059749e-14 4.7133437e-15 -1.6449855e-15)
(2.9801421e-15 -1.9180379e-15 -8.3172098e-16)
(-4.79756e-15 2.8035442e-15 1.1420498e-15)
(-5.4778068e-15 3.5047253e-15 -3.934403e-16)
(-1.8117877e-15 1.1581936e-15 -9.1309836e-16)
(-3.9812639e-16 4.7407236e-16 -2.2932148e-16)
(-1.5272242e-15 1.100363e-15 -2.2557932e-16)
(-4.1024849e-15 1.9838802e-15 2.8069696e-17)
(-5.3424143e-16 2.551799e-16 -1.9455919e-16)
(-219.68311 -491.95152 -35.461969)
(-211.90526 -505.13742 -34.247551)
(-203.34847 -517.67051 -31.025967)
(-194.72553 -528.74209 -25.737949)
(-186.55234 -538.21818 -18.132352)
(-179.85013 -545.39245 -8.5248535)
(-175.07713 -549.76874 2.5061711)
(-172.68981 -551.18545 14.412018)
(-172.77547 -549.57352 26.495239)
(-175.19994 -545.2056 38.14953)
(-179.6362 -538.43681 48.535111)
(-185.71523 -529.6685 57.288875)
(-192.36492 -519.61341 63.762066)
(-199.3671 -508.87816 67.788157)
(-205.49214 -497.12493 69.927953)
(-48.175568 -100.0405 75.287739)
(-34.193494 -97.989496 73.01836)
(-19.422818 -96.218186 68.593043)
(-4.8593301 -94.367062 61.793792)
(9.307824 -92.328966 53.189924)
(21.67818 -90.046608 43.139863)
(31.373238 -87.689139 32.315492)
(37.629296 -85.365226 21.283167)
(40.014433 -83.347034 10.676846)
(38.38409 -81.807605 1.0899203)
(33.06839 -80.97008 -6.9787624)
(24.339196 -81.220104 -13.112686)
(13.458965 -82.368519 -17.155565)
(0.5711056 -85.442135 -19.127569)
(-12.894638 -89.468832 -19.527628)
(-31.878797 -20.154689 -40.30782)
(-74.512399 -36.029143 -34.646161)
(-113.3161 -49.448927 -39.028357)
(-151.92183 -59.647594 -36.169162)
(-186.18557 -67.345967 -34.300991)
(-217.53411 -72.616609 -31.546519)
(-244.19774 -76.556043 -30.020955)
(-266.13292 -79.322515 -29.093053)
(-283.5591 -82.269487 -29.378455)
(-296.12035 -85.267334 -30.724665)
(-304.95504 -89.621408 -33.257767)
(-310.45055 -94.941738 -36.392895)
(-314.19895 -102.56274 -40.360172)
(-316.9533 -111.5006 -44.495049)
(-320.57294 -122.49422 -48.753814)
(-326.02235 -134.91221 -52.413043)
(-334.91771 -149.0208 -55.661035)
(-348.113 -163.65778 -57.917515)
(-366.70823 -178.42863 -59.185754)
(-391.49788 -193.01118 -59.049216)
(-422.37742 -206.40773 -57.843483)
(-459.74843 -218.15032 -55.345722)
(-503.02017 -227.53077 -51.804955)
(-551.60457 -234.136 -47.350889)
(-604.76765 -237.40839 -42.098372)
(-661.3192 -237.19097 -36.416637)
(-719.93759 -233.02418 -30.314326)
(-779.74916 -225.3282 -24.02087)
(-839.37765 -213.70505 -17.596284)
(-897.76536 -198.4779 -11.169287)
(-954.10622 -180.28114 -4.3729792)
(-1007.7663 -159.05052 2.1657835)
(-1057.9086 -135.28524 9.3285268)
(-1104.3174 -109.74989 16.769745)
(-1146.538 -83.020458 24.767769)
(-1184.3044 -55.454524 33.010268)
(-1217.7352 -27.716556 41.623778)
(-1246.6604 -0.50209972 50.534428)
(-1270.8271 25.944324 59.273287)
(-1290.3681 51.080619 67.723675)
(-1305.0069 74.398171 75.545966)
(-1314.886 95.845243 82.314719)
(-1319.6128 114.98759 87.640699)
(-1319.5461 131.93268 91.449298)
(-1314.4432 146.59977 93.394291)
(-1304.4533 159.06177 93.467302)
(-1289.7077 169.45348 91.614179)
(-1270.4008 178.00026 87.989843)
(-1246.7987 184.91589 82.790693)
(-1219.2089 190.43717 76.332678)
(-1187.9753 194.76846 68.980369)
(-1153.4664 198.07129 61.148598)
(-1116.055 200.43227 53.251622)
(-1076.1066 201.84931 45.688578)
(-1033.9594 202.21648 38.79115)
(-989.91408 201.31836 32.813396)
(-944.22828 198.84557 27.893678)
(-897.11504 194.41624 24.053851)
(-848.76066 187.60957 21.208025)
(-799.34697 178.02802 19.152282)
(-749.08117 165.33988 17.648441)
(-698.22236 149.31768 16.38419)
(-647.15538 129.97556 15.121133)
(-596.32889 107.47398 13.50311)
(-546.40367 81.930376 11.610768)
(-497.85883 54.360923 9.2257605)
(-451.8027 25.341851 5.8759741)
(-408.98677 -4.9922864 2.7235701)
(-369.98193 -34.681028 -0.83372574)
(-336.23468 -63.522463 -3.7876846)
(-307.40623 -90.280938 -6.7786521)
(-284.31743 -114.1827 -8.7904312)
(-267.09976 -134.66518 -9.9497165)
(-255.65097 -151.24127 -9.9036591)
(-249.60261 -163.52084 -8.5191942)
(-248.4238 -171.4524 -5.711325)
(-251.32371 -175.08242 -1.4440657)
(-257.36125 -174.65899 4.2190629)
(-265.54913 -170.63335 11.149121)
(-274.70206 -163.52403 19.158273)
(-283.76957 -154.06724 27.99598)
(-291.59759 -142.93978 37.377413)
(-297.40074 -130.82672 46.847518)
(-300.01915 -118.75533 56.029838)
(-299.06092 -107.48037 64.822275)
(-294.0967 -97.499661 72.670919)
(-284.55897 -89.53652 79.21593)
(-270.80383 -83.870758 84.27567)
(-252.94397 -80.866616 87.561076)
(-231.04932 -80.66273 88.847936)
(-206.99759 -83.031519 88.498942)
(-179.77424 -87.95906 85.832232)
(-152.27886 -95.123453 81.972343)
(-124.65937 -103.52802 76.050883)
(-97.023146 -114.29137 68.705499)
(-25.395514 -16.228788 -29.96169)
(-61.752574 -22.003359 -30.64785)
(-100.70812 -33.432584 -33.420692)
(-136.03058 -41.026879 -32.556315)
(-170.26071 -48.27592 -30.90536)
(-200.76932 -53.862835 -29.462128)
(-227.67184 -58.484979 -28.020654)
(-250.42058 -62.555809 -27.335313)
(-268.57579 -66.210585 -27.236275)
(-282.54041 -70.27963 -28.167782)
(-292.65107 -74.819424 -29.435988)
(-299.40408 -80.448042 -31.86947)
(-303.8915 -87.107364 -34.32739)
(-307.02697 -95.313801 -37.508808)
(-310.20181 -104.85623 -40.346336)
(-314.53039 -115.62453 -43.497149)
(-321.77661 -127.49178 -45.813057)
(-332.4786 -140.0363 -47.894763)
(-348.31795 -152.90995 -48.985103)
(-369.8692 -165.48433 -49.359153)
(-397.8746 -177.33015 -48.72491)
(-432.42645 -187.75002 -47.214033)
(-473.65622 -196.34596 -44.781005)
(-520.99046 -202.46714 -41.616327)
(-573.87409 -205.73978 -37.791199)
(-631.31238 -205.87499 -33.444651)
(-692.20508 -202.57239 -28.792191)
(-755.30428 -195.577 -23.920297)
(-819.35792 -185.04519 -18.848591)
(-883.06461 -171.0339 -13.573898)
(-945.41004 -153.58669 -8.3249479)
(-1005.1025 -133.30215 -2.5943762)
(-1061.5608 -110.48868 3.4898092)
(-1114.2546 -85.701686 9.9535133)
(-1162.5979 -59.486695 16.995062)
(-1206.2319 -32.47981 24.55942)
(-1244.8002 -5.2947116 32.541098)
(-1278.3531 21.398503 40.913278)
(-1306.6395 46.997016 49.349434)
(-1329.6854 71.041473 57.563479)
(-1347.2838 92.974126 65.295802)
(-1359.2666 112.69815 71.933695)
(-1365.9392 129.68654 77.548458)
(-1366.915 144.19503 81.463233)
(-1362.4493 156.1104 83.642757)
(-1352.5408 165.57958 83.92831)
(-1337.4151 172.86445 82.354046)
(-1317.2702 178.24316 78.995571)
(-1292.4146 182.02791 74.097752)
(-1263.177 184.50884 67.95823)
(-1229.9278 185.93533 60.961363)
(-1193.049 186.47211 53.520874)
(-1152.924 186.18869 46.059218)
(-1109.9175 185.03033 38.968695)
(-1064.367 182.82458 32.576692)
(-1016.5768 179.28302 27.123354)
(-966.81661 174.04074 22.731926)
(-915.33741 166.67812 19.417495)
(-862.39081 156.80297 17.076991)
(-808.25436 144.07329 15.519118)
(-753.27876 128.28939 14.503457)
(-697.87099 109.40026 13.75239)
(-642.64381 87.592019 12.979238)
(-588.10283 63.185569 12.053311)
(-535.2819 36.625548 10.799263)
(-484.62561 9.2911781 8.924111)
(-437.45847 -19.273924 7.2070394)
(-394.28389 -47.174999 4.785937)
(-356.1097 -73.926967 2.2571293)
(-323.30253 -98.697884 -0.12775884)
(-296.25987 -120.76147 -2.290607)
(-275.32105 -139.36948 -3.8570288)
(-260.45784 -154.35975 -4.6571349)
(-251.29757 -165.37093 -4.4063525)
(-247.36996 -172.4004 -3.1121033)
(-247.94568 -175.60134 -0.62689991)
(-252.12506 -175.16777 2.9949292)
(-258.97135 -171.59974 7.7374817)
(-267.36113 -165.35027 13.478145)
(-276.28563 -157.05536 20.014485)
(-284.72075 -147.38387 27.165833)
(-291.66033 -137.01258 34.693273)
(-296.27675 -126.60261 42.085162)
(-297.09003 -116.75944 49.511351)
(-294.77584 -107.99889 55.923492)
(-289.03892 -101.03434 61.837932)
(-279.26263 -96.261642 66.726143)
(-265.59115 -93.783056 70.417625)
(-248.36885 -93.638484 72.667491)
(-227.58419 -96.145473 73.460064)
(-204.84082 -100.44551 72.839114)
(-179.6503 -107.0991 70.408165)
(-153.69219 -115.62916 67.131115)
(-128.30002 -124.34997 61.613189)
(-101.93745 -135.80303 55.618692)
(-23.081253 -10.747538 -23.247898)
(-57.192205 -15.606814 -23.56853)
(-91.04101 -22.698342 -28.220307)
(-125.53514 -28.375928 -28.152034)
(-158.39852 -33.952592 -28.031618)
(-188.9088 -38.966238 -27.018459)
(-216.22293 -43.54868 -26.315514)
(-239.29525 -47.417148 -25.8075)
(-258.59513 -51.562174 -25.787009)
(-273.64687 -55.501305 -26.033039)
(-284.83373 -60.306802 -27.077987)
(-292.57703 -65.436733 -28.245952)
(-297.87396 -71.926853 -29.989245)
(-301.41769 -79.157506 -31.702203)
(-304.49232 -87.624881 -33.776187)
(-308.48861 -97.101582 -35.440314)
(-314.41706 -107.38131 -37.102475)
(-323.84368 -118.2885 -38.272656)
(-337.82259 -129.29432 -38.971408)
(-357.34531 -140.14474 -39.099871)
(-383.20883 -150.16689 -38.591369)
(-415.9052 -159.09616 -37.462418)
(-455.50852 -166.16938 -35.739011)
(-501.89024 -171.16475 -33.548694)
(-554.48724 -173.45661 -30.876802)
(-612.47017 -172.86256 -27.956685)
(-674.74133 -168.96364 -24.78229)
(-740.05537 -161.8034 -21.456154)
(-807.06589 -151.16255 -17.945631)
(-874.45858 -137.23936 -14.382217)
(-940.82343 -120.22001 -10.457385)
(-1005.1081 -100.40319 -6.2796072)
(-1066.3527 -78.13071 -1.6659675)
(-1123.6199 -54.00522 3.5308204)
(-1176.2808 -28.612204 9.4203219)
(-1223.9497 -2.5062648 15.933694)
(-1266.1987 23.451245 23.151928)
(-1302.9695 48.724528 30.89254)
(-1333.8793 72.719402 38.801805)
(-1358.8693 94.923882 46.721947)
(-1377.9436 114.86515 54.204751)
(-1391.0125 132.17363 60.987342)
(-1398.0518 146.84856 66.5828)
(-1399.1898 158.64908 70.73275)
(-1394.4199 167.81241 73.149377)
(-1383.9455 174.48696 73.817001)
(-1367.9625 178.93754 72.614225)
(-1346.7461 181.50639 69.675665)
(-1320.6164 182.51752 65.188614)
(-1289.929 182.2747 59.454601)
(-1255.0587 181.02014 52.836445)
(-1216.3861 178.90155 45.746592)
(-1174.2794 175.95801 38.597907)
(-1129.0875 172.10231 31.787068)
(-1081.1327 167.1352 25.645473)
(-1030.7134 160.75873 20.425056)
(-978.11131 152.61684 16.270932)
(-923.61554 142.34087 13.221697)
(-867.53638 129.61594 11.20517)
(-810.25106 114.20893 10.070626)
(-752.20782 96.062552 9.6031624)
(-693.96493 75.260495 9.5445482)
(-636.22392 52.127238 9.6603492)
(-579.60682 27.068611 9.8200021)
(-525.39308 0.87239715 9.519111)
(-473.5651 -25.93771 9.4608172)
(-425.7778 -52.706223 8.2250749)
(-385.08291 -78.572267 7.41884)
(-346.89503 -101.85637 6.4701195)
(-315.134 -122.82992 5.3347064)
(-289.18451 -140.68717 4.2159342)
(-269.69132 -155.14784 3.4713651)
(-256.16562 -165.98702 3.2098897)
(-248.28689 -173.25436 3.4593198)
(-245.38774 -176.95294 4.3825153)
(-246.79067 -177.37215 6.0253675)
(-251.49955 -174.86822 8.4685876)
(-258.58993 -169.92751 11.665307)
(-266.99814 -163.06624 15.565144)
(-275.69959 -154.91194 20.07041)
(-283.72524 -146.01195 25.085872)
(-290.17612 -137.02271 30.322633)
(-294.32352 -128.45138 35.832839)
(-295.64436 -121.05458 41.09752)
(-291.5985 -114.18824 45.857021)
(-285.67321 -109.48654 50.311316)
(-275.95645 -107.10712 54.149008)
(-262.84159 -106.86459 57.029724)
(-246.33026 -108.76749 58.959548)
(-226.55227 -112.90065 59.59487)
(-205.2272 -118.65247 59.29191)
(-181.11922 -126.37625 57.366286)
(-156.71172 -135.53014 54.703641)
(-132.65169 -144.61177 50.327029)
(-107.28078 -156.13044 45.128662)
(-23.245843 -9.3119976 -17.67593)
(-54.500266 -11.70801 -20.165703)
(-87.294636 -16.780419 -23.814282)
(-120.46564 -20.398823 -24.714274)
(-152.95963 -24.557567 -24.760974)
(-183.51901 -28.585899 -24.658357)
(-210.6774 -31.924381 -24.400445)
(-234.49782 -35.348572 -24.236057)
(-254.32884 -38.659165 -24.02494)
(-269.91809 -42.226873 -24.469684)
(-281.64128 -46.165339 -24.684774)
(-289.97947 -50.828719 -25.511181)
(-295.47702 -56.341818 -26.092309)
(-299.10815 -62.622683 -27.191133)
(-302.23082 -70.145645 -27.81204)
(-305.72173 -78.213466 -28.711866)
(-311.25218 -87.240399 -29.197901)
(-319.96177 -96.535993 -29.502793)
(-333.13669 -106.03346 -29.465897)
(-351.85807 -115.14383 -29.105094)
(-377.01637 -123.53696 -28.36244)
(-409.07713 -130.65564 -27.319164)
(-448.35114 -136.07041 -26.00324)
(-494.64229 -139.35121 -24.446843)
(-547.49685 -140.06376 -22.768168)
(-606.10613 -137.95826 -20.995687)
(-669.39915 -132.77358 -19.182461)
(-736.103 -124.39349 -17.340476)
(-804.84152 -112.80156 -15.47374)
(-874.14672 -98.121988 -13.438902)
(-942.6883 -80.557416 -11.185278)
(-1009.1534 -60.436573 -8.5761648)
(-1072.4369 -38.247532 -5.3741633)
(-1131.6351 -14.496619 -1.5301574)
(-1186.01 10.167147 3.127049)
(-1235.1436 35.173807 8.5122919)
(-1278.2204 59.628186 14.712246)
(-1315.4157 83.129464 21.490296)
(-1346.7086 104.98228 28.59246)
(-1371.7859 124.82593 35.889516)
(-1390.6513 142.02199 42.89312)
(-1403.3281 156.50088 49.271212)
(-1409.9181 168.00529 54.711693)
(-1410.469 176.65961 58.802573)
(-1405.0947 182.59123 61.38241)
(-1394.0013 186.05022 62.279515)
(-1377.4218 187.33498 61.44669)
(-1355.6152 186.8236 58.958014)
(-1328.8997 184.86031 54.98715)
(-1297.6067 181.75733 49.804743)
(-1262.0869 177.75972 43.754407)
(-1222.6847 173.01055 37.224788)
(-1179.7404 167.5417 30.620911)
(-1133.5753 161.26503 24.332989)