/*--------------------------------*- C++ -*----------------------------------*\
  =========                 |
  \\      /  F ield         | OpenFOAM: The Open Source CFD Toolbox
   \\    /   O peration     | Website:  https://openfoam.org
    \\  /    A nd           | Version:  6
     \\/     M anipulation  |
\*---------------------------------------------------------------------------*/
FoamFile
{
    version     2.0;
    format      ascii;
    class       pointVectorField;
    location    "0.35";
    object      u;
}
// * * * * * * * * * * * * * * * * * * * * * * * * * * * * * * * * * * * * * //

dimensions      [0 1 0 0 0 0 0];

internalField   nonuniform List<vector> 
625
(
(0 6.8186691e-20 0)
(0 6.0478916e-20 0)
(1.833522 -0.1111841 0.031748045)
(1.7502097 -0.51020218 0.0089333322)
(0 8.8697809e-20 0)
(0 4.7294697e-19 0)
(1.7682674 -0.52644722 0.0082794166)
(1.8514898 -0.12759748 0.031620892)
(0 -1.0439796e-20 0)
(4.6371934e-20 -1.0771379e-19 0)
(0 2.1835165e-19 0)
(1.8126722 -0.21097861 0.025993448)
(1.7917169 -0.31058899 0.020326258)
(1.7710208 -0.41033303 0.014571671)
(0.0052656292 0.019342611 0.018325445)
(0.020152589 0.038677271 0.018525873)
(0.047116318 0.057715253 0.019412863)
(0.085509572 0.074147035 0.018304193)
(0.1316295 0.087372633 0.018154579)
(0.18772987 0.098172103 0.017324982)
(0.25041426 0.10562069 0.017111016)
(0.32012068 0.10986768 0.016656073)
(0.39591801 0.11131219 0.016736627)
(0.47653419 0.10943667 0.016369767)
(0.56201163 0.10503032 0.016501471)
(0.65107873 0.097700022 0.016621992)
(0.74344243 0.087951507 0.016928238)
(0.8381936 0.075933784 0.017410142)
(0.93500923 0.061930139 0.018084954)
(1.0331882 0.046241898 0.019007925)
(1.1324874 0.029136443 0.020048602)
(1.2323222 0.010800532 0.021418675)
(1.3327701 -0.0084370174 0.022724341)
(1.433004 -0.028258571 0.024392602)
(1.5335221 -0.048815301 0.026088648)
(1.6336455 -0.069361941 0.027876131)
(1.7336464 -0.090327112 0.029883039)
(-0.0023106094 -0.016787516 -0.024011473)
(0.013604145 -0.035825433 -0.019516986)
(0.038743227 -0.057781446 -0.022158474)
(0.071486334 -0.077865288 -0.020191815)
(0.11224783 -0.0971633 -0.020008383)
(0.1625364 -0.11900126 -0.018908484)
(0.21811772 -0.13870516 -0.018637547)
(0.28144419 -0.16001819 -0.017594212)
(0.35033368 -0.18156838 -0.017122907)
(0.42493433 -0.20304786 -0.016116522)
(0.50432352 -0.22538638 -0.015189856)
(0.58811662 -0.24776693 -0.014006568)
(0.67568073 -0.2703673 -0.012729684)
(0.7664084 -0.29305056 -0.011239918)
(0.85984589 -0.31571432 -0.0095834455)
(0.95539017 -0.33828021 -0.0077623346)
(1.0526332 -0.36069685 -0.0057581585)
(1.1511137 -0.3828273 -0.003697487)
(1.2504074 -0.40479884 -0.0014490888)
(1.350272 -0.42630517 0.00068744348)
(1.4503253 -0.44767422 0.0029156298)
(1.5503589 -0.46871252 0.0050135825)
(1.650409 -0.48955826 0.0069744484)
(0 6.25481e-20 0)
(-8.267268e-19 -1.7788377e-19 0)
(0 4.4671844e-19 0)
(0.0038131849 -0.010586541 0.015870414)
(0.017490513 -0.043559636 0.018374101)
(0.044908429 -0.055997142 0.013722625)
(0.077765909 -0.078160404 0.011530337)
(0.12165986 -0.10135351 0.010791252)
(0.17228937 -0.12019677 0.007372521)
(0.2290788 -0.142522 0.0067970308)
(0.29355759 -0.16478027 0.0045970245)
(0.36374145 -0.18716611 0.0032201789)
(0.43912983 -0.21028879 0.0018920085)
(0.51939756 -0.23342485 0.00058890183)
(0.60390303 -0.25716398 -0.00040204473)
(0.69200372 -0.28079503 -0.0012373953)
(0.78324308 -0.30451439 -0.0018125962)
(0.87700453 -0.32817226 -0.0020766437)
(0.97280567 -0.35154748 -0.002042126)
(1.0702074 -0.37472566 -0.0016850618)
(1.1687655 -0.39751568 -0.00098913992)
(1.2681323 -0.41993072 -2.1254329e-06)
(1.3679955 -0.44191729 0.0012923235)
(1.4680862 -0.4635322 0.0028283183)
(1.5682415 -0.48476204 0.0045922263)
(1.6682957 -0.50558236 0.00647589)
(1.7890392 -0.42644527 0.014096509)
(1.8095856 -0.32690057 0.020026368)
(1.8305985 -0.22744759 0.025853172)
(1.7516121 -0.10676214 0.029565739)
(1.6513956 -0.085656745 0.02739847)
(1.5510556 -0.064773163 0.025112168)
(1.4504916 -0.043979793 0.022723108)
(1.3498386 -0.023506123 0.020288535)
(1.2492969 -0.0036903116 0.017803195)
(1.1490373 0.015426004 0.01530899)
(1.0494091 0.03339115 0.012826869)
(0.95072189 0.050065654 0.010354337)
(0.85342544 0.065077911 0.0079296648)
(0.75798411 0.078137673 0.005545291)
(0.66505462 0.089013075 0.0032254817)
(0.57507157 0.097420243 0.0009754209)
(0.48886982 0.10299503 -0.0011402323)
(0.40741868 0.10544187 -0.0030926186)
(0.33057672 0.10543344 -0.0051681045)
(0.26002177 0.10210978 -0.007032929)
(0.19591432 0.095095567 -0.0086619351)
(0.13972108 0.085775601 -0.010817999)
(0.090781793 0.07209969 -0.011973954)
(0.052228023 0.05768683 -0.014496845)
(0.022764408 0.037237504 -0.015337469)
(0.011193002 0.019139128 -0.012318518)
(0 -1.1109861e-19 0)
(0 -1.156461e-19 -2.3853164e-19)
(0 -3.4083675e-19 0)
(0 1.9687642e-19 0)
(0 -2.1783998e-20 6.9459013e-20)
(0 1.4995248e-19 0)
(1.7546475 -0.51429743 0.0087360853)
(1.7591922 -0.51833817 0.008701813)
(1.7636072 -0.52243721 0.0084216562)
(1.8380002 -0.11523693 0.031724198)
(1.8425457 -0.11931453 0.031598832)
(1.8470195 -0.12339744 0.031678756)
(-0.0044799611 -0.011056181 0.010886288)
(0.006837816 -0.02051109 0.0086273376)
(0.028298464 -0.027804162 0.0095639089)
(0.060265688 -0.033234102 0.0089872124)
(0.10107067 -0.034934324 0.0091115344)
(0.15284472 -0.033941184 0.0089608232)
(0.2126702 -0.03007314 0.0087809666)
(0.28211591 -0.023347971 0.0087858119)
(0.35938634 -0.014841923 0.0087044242)
(0.44444671 -0.005518551 0.0088539873)
(0.53593401 0.0039125982 0.0090484982)
(0.63251542 0.011947468 0.0094193063)
(0.73299946 0.017821751 0.0099332457)
(0.83592363 0.020359841 0.010613338)
(0.94000206 0.018753705 0.011510002)
(1.0439887 0.01235554 0.012555806)
(1.1470102 0.00060757657 0.013819854)
(1.2482565 -0.01654959 0.015243544)
(1.3474093 -0.039082633 0.016785043)
(1.4440785 -0.066683805 0.018596921)
(1.5386998 -0.098602334 0.020302429)
(1.6311698 -0.13399027 0.022275934)
(1.7223402 -0.17192657 0.024169447)
(-0.008290006 0.0022564958 0.00057464935)
(0.008429403 0.0030024616 -0.00086214395)
(0.033332843 0.0036452952 -0.00076860708)
(0.069324895 0.0025530616 -0.00050514966)
(0.11449587 -0.0010117661 -0.00068856846)
(0.16746498 -0.0059230735 -0.00073483218)
(0.22791963 -0.01269922 -0.00072829503)
(0.29520079 -0.021585143 -0.000519028)
(0.36815577 -0.032188921 -0.00026909825)
(0.44662766 -0.044557803 8.9539266e-05)
(0.52952664 -0.058455113 0.00062965996)
(0.61654425 -0.073855513 0.0013470844)
(0.70693523 -0.090492183 0.0022058082)
(0.80015333 -0.10821335 0.0032615152)
(0.89561775 -0.1268155 0.004460856)
(0.99285308 -0.14611154 0.0058265538)
(1.0914282 -0.16595887 0.0073460341)
(1.1908374 -0.18617877 0.0089904018)
(1.2909694 -0.20669557 0.010765312)
(1.39111 -0.22739146 0.012616462)
(1.4916252 -0.24816246 0.014484373)
(1.5917511 -0.26893829 0.01651142)
(1.692019 -0.28987818 0.018388298)
(-0.0073535872 0.011783534 -0.010033349)
(0.014294167 0.022400041 -0.010907693)
(0.042766909 0.02885761 -0.011066124)
(0.083731841 0.029237127 -0.010762183)
(0.13116521 0.024014311 -0.010640326)
(0.18588348 0.014159367 -0.010147178)
(0.24606372 -0.0032774453 -0.0095700478)
(0.31038391 -0.025635407 -0.0089824558)
(0.37855588 -0.053468453 -0.0084042253)
(0.45003283 -0.085781027 -0.0075828261)
(0.52448163 -0.12120006 -0.0067728201)
(0.60189098 -0.1587281 -0.0058211244)
(0.68226943 -0.19678667 -0.0048156397)
(0.76583646 -0.23410393 -0.0036960368)
(0.85273128 -0.26942616 -0.0024603765)
(0.94317828 -0.30160868 -0.0010977881)
(1.0371358 -0.32988411 0.00043585389)
(1.1346595 -0.35364357 0.0021285752)
(1.2353942 -0.37259363 0.0039395655)
(1.3390446 -0.38703473 0.0060238877)
(1.4451164 -0.39706596 0.0080187959)
(1.552832 -0.40367976 0.010269732)
(1.6617683 -0.40778831 0.012406036)
(0 -7.0283199e-20 0)
(0 1.1675122e-19 2.4489057e-19)
(0 2.5396503e-19 0)
(-1.231094e-19 2.4581386e-21 0)
(5.1419983e-20 -7.6188699e-20 -3.7947253e-21)
(-3.2404561e-19 -2.9142613e-19 0)
(0 1.0983559e-19 0)
(0 2.9518591e-19 -7.8506458e-21)
(0 3.2470862e-19 0)
(0.0068941327 -0.0070279947 -0.010583998)
(0.0096229597 -0.0093659324 -0.0025426517)
(0.0087191184 -0.0066831583 0.0051428472)
(0.024619109 -0.040909049 -0.011259465)
(0.025437122 -0.041517111 -0.0020846889)
(0.024527301 -0.040353089 0.0088072135)
(0.046979255 -0.05729485 -0.012905034)
(0.050233158 -0.056410456 -0.0040942325)
(0.050763534 -0.060211474 0.0063573851)
(0.078922415 -0.078643872 -0.011869855)
(0.082973358 -0.080706153 -0.0041531197)
(0.082213371 -0.079566821 0.0045633405)
(0.12126202 -0.10008707 -0.012497038)
(0.12446819 -0.10059749 -0.005717181)
(0.12532747 -0.10256506 0.0033028541)
(0.16945145 -0.12019238 -0.012489866)
(0.17371369 -0.12178104 -0.0055159335)
(0.17452221 -0.12219229 0.0016475051)
(0.22594446 -0.14132029 -0.012232464)
(0.22989811 -0.14300917 -0.0070169839)
(0.23155751 -0.1443744 0.0008075843)
(0.28884003 -0.16273835 -0.01225024)
(0.29292107 -0.16404464 -0.00710314)
(0.29485093 -0.16565051 -0.00066635189)
(0.35762477 -0.1839772 -0.012003873)
(0.36173471 -0.1863944 -0.0075392993)
(0.36403737 -0.18787535 -0.0015961766)
(0.43195968 -0.20636894 -0.011742771)
(0.43618021 -0.20857734 -0.0077231962)
(0.43905311 -0.21052465 -0.0024592983)
(0.51111087 -0.22861967 -0.011242019)
(0.51555588 -0.23119261 -0.007745682)
(0.51851589 -0.23331175 -0.0031789306)
(0.59471887 -0.25136044 -0.010554241)
(0.59909048 -0.25407018 -0.0076433927)
(0.60247019 -0.25648032 -0.0036624533)
(0.68193127 -0.27410452 -0.0097873441)
(0.68648268 -0.27702369 -0.0073068525)
(0.69001547 -0.27974786 -0.0039281599)
(0.77242831 -0.29700895 -0.008757145)
(0.7769744 -0.3000389 -0.0067166489)
(0.78068989 -0.3029946 -0.0039801156)
(0.86552551 -0.31977507 -0.0075665195)
(0.87011351 -0.32297007 -0.0059688661)
(0.87399632 -0.32622692 -0.0037701586)
(0.96077786 -0.34246718 -0.0061906431)
(0.96540219 -0.34579232 -0.0049553624)
(0.9693804 -0.34924792 -0.0032693682)
(1.0577402 -0.36491818 -0.0046260875)
(1.0623325 -0.36837039 -0.0037230922)
(1.0664304 -0.3720266 -0.0025319529)
(1.1559218 -0.38710432 -0.002895595)
(1.1605502 -0.3906822 -0.0023240374)
(1.1647156 -0.39451717 -0.0015108165)
(1.255045 -0.40899793 -0.0010600613)
(1.259622 -0.41270866 -0.00071111505)
(1.2638614 -0.4166367 -0.0002546585)
(1.3547035 -0.43053226 0.00088668611)
(1.3592712 -0.43432599 0.0010377404)
(1.3635699 -0.43836975 0.0012225106)
(1.454646 -0.45177371 0.002885427)
(1.4591877 -0.45571236 0.0028765982)
(1.4635707 -0.45977936 0.0028810965)
(1.5546927 -0.47278483 0.0048744796)
(1.5592612 -0.47678784 0.0047833261)
(1.5636832 -0.48091328 0.0047021455)
(1.6548258 -0.49356414 0.0068214848)
(1.6592617 -0.49760262 0.0066695279)
(1.663774 -0.50165744 0.0065908885)
(1.8171525 -0.21504332 0.025948686)
(1.8216553 -0.21914428 0.0258852)
(1.8261164 -0.22324441 0.025911541)
(1.7961658 -0.31466104 0.020260965)
(1.8006861 -0.31873384 0.020136484)
(1.8050638 -0.32273541 0.020082541)
(1.7755267 -0.41445507 0.014430141)
(1.7800096 -0.41848359 0.014364206)
(1.7844528 -0.42251823 0.014209567)
(0.013945039 0.015861876 0.0089541134)
(0.014876653 0.017566984 0.0030071328)
(0.016530762 0.017133074 -0.003919592)
(0.027877431 0.036702684 0.0091542505)
(0.030280452 0.03724168 0.0010259114)
(0.029246097 0.036795755 -0.0077395247)
(0.056411007 0.057349851 0.010269682)
(0.058106332 0.056846326 0.0031401766)
(0.059034615 0.057594877 -0.0070347993)
(0.092719203 0.071938704 0.0098232357)
(0.095771981 0.071970685 0.0030107394)
(0.095842975 0.071987188 -0.005495218)
(0.13986645 0.086380787 0.010717079)
(0.14317039 0.085989039 0.003437855)
(0.14360527 0.08590268 -0.0041684043)
(0.19531265 0.096384706 0.01023438)
(0.19790431 0.095304886 0.0047389742)
(0.19964323 0.095444544 -0.0030868081)
(0.25767354 0.10344006 0.010736787)
(0.26129242 0.10288311 0.0049750451)
(0.26273178 0.10230385 -0.0017288018)
(0.32745889 0.10769757 0.010909014)
(0.33079019 0.10656481 0.0058633173)
(0.33271203 0.10602427 -0.00050726069)
(0.40249252 0.10894894 0.011624993)
(0.40655415 0.10739163 0.0062610111)
(0.40852313 0.10666034 0.001361204)
(0.48348786 0.10695537 0.011701562)
(0.48702713 0.10520997 0.0080575277)
(0.48988913 0.10417202 0.002497568)
(0.56844512 0.10215982 0.012432807)
(0.57241846 0.1003143 0.0084793353)
(0.57514922 0.099002367 0.004262566)
(0.65745655 0.094807392 0.013010659)
(0.66131045 0.092603535 0.0098526052)
(0.66456895 0.091017878 0.0060392773)
(0.74943253 0.08487068 0.013886911)
(0.75353335 0.082454156 0.011038762)
(0.75692658 0.080531847 0.007899057)
(0.84406689 0.07272953 0.014777156)
(0.84816844 0.070054874 0.01249051)
(0.85178285 0.067798949 0.0098543788)
(0.94061416 0.058594574 0.015908448)
(0.94478201 0.055651324 0.013992543)
(0.94858039 0.053117424 0.011891227)
(1.0386382 0.042731875 0.017134174)
(1.0428548 0.039593791 0.015656708)
(1.0467877 0.036763215 0.014001716)
(1.1377269 0.025512941 0.018576191)
(1.1419684 0.02211685 0.017415706)
(1.1460329 0.019014116 0.016183734)
(1.2374697 0.0069899282 0.020132289)
(1.2417619 0.0034659129 0.019285639)
(1.2458822 0.00019523114 0.018412687)
(1.3376044 -0.012232591 0.021837432)
(1.3418989 -0.015963993 0.021293475)
(1.3461626 -0.019533999 0.020688726)
(1.4377732 -0.032282672 0.023806375)
(1.4422562 -0.036185621 0.023273766)
(1.4464988 -0.03980074 0.022979637)
(1.5381347 -0.052838138 0.025637341)
(1.5425742 -0.056838937 0.025415646)
(1.5468581 -0.060566499 0.025242466)
(1.6381368 -0.073464555 0.027611381)
(1.6425829 -0.077450541 0.027551094)
(1.647002 -0.081344604 0.027486344)
(1.7381958 -0.094424874 0.029772039)
(1.7426643 -0.0984936 0.029709719)
(1.7471514 -0.10251915 0.029627878)
(-0.0022806007 -0.015432295 -0.0076360515)
(0.010865344 -0.017902499 -0.0088220861)
(0.032041249 -0.03068046 -0.0071595831)
(0.066173138 -0.034897483 -0.0072569448)
(0.10867222 -0.037693674 -0.0066899378)
(0.16077921 -0.038004708 -0.0054988499)
(0.22241522 -0.034324238 -0.0045446678)
(0.29241462 -0.02891933 -0.0033974437)
(0.37100597 -0.021214937 -0.0020944895)
(0.45682725 -0.01300512 -0.00061787122)
(0.54905633 -0.0045659922 0.00083435872)
(0.64650102 0.0022936801 0.0025717863)
(0.74763319 0.0070687173 0.0043291261)
(0.85113665 0.0085420406 0.0061700647)
(0.95568629 0.0059169416 0.008091508)
(1.0600803 -0.0014246509 0.010056206)
(1.1633987 -0.013930563 0.012067939)
(1.2649459 -0.031774003 0.014087363)
(1.3642833 -0.054839347 0.016132955)
(1.4612938 -0.082804724 0.018116221)
(1.5560646 -0.1149595 0.02013729)
(1.6487598 -0.15050176 0.022031662)
(1.7402613 -0.18845952 0.023968478)
(-0.0053915936 0.0030926043 0.00030566985)
(0.011075905 0.004614407 -0.00018282254)
(0.038592112 0.0020881073 0.0011845967)
(0.075874379 0.0017967627 0.00035150037)
(0.12142055 -0.0021337774 0.00060674548)
(0.17611283 -0.008250494 0.0011197332)
(0.23736017 -0.015283546 0.00085969086)
(0.30573659 -0.025082939 0.0010529124)
(0.37998372 -0.036771784 0.0012066935)
(0.4593783 -0.050181324 0.001282509)
(0.54347487 -0.065360919 0.0014722516)
(0.63150297 -0.082213335 0.0018437257)
(0.72267761 -0.10015392 0.0022798415)
(0.8166155 -0.11922426 0.0030044457)
(0.91258326 -0.13899743 0.003920684)
(1.0101571 -0.15937549 0.0051056038)
(1.1089419 -0.18008141 0.0065245463)
(1.2085117 -0.20104313 0.0081489477)
(1.3086233 -0.22209082 0.0099631825)
(1.4089527 -0.24317201 0.011901756)
(1.5093739 -0.26423403 0.013924827)
(1.6095763 -0.28516215 0.015981576)
(1.7100806 -0.30618722 0.018026839)
(-0.0061346111 0.012788698 0.0085483871)
(0.019782989 0.026517196 0.0076086323)
(0.0507449 0.025563693 0.0090307375)
(0.091613094 0.030501403 0.0054045583)
(0.14134219 0.022380662 0.0054590888)
(0.19730004 0.01105815 0.0038978268)
(0.25789721 -0.006210644 0.0026767335)
(0.32376842 -0.03058591 0.0021559551)
(0.39251434 -0.059023066 0.0013160303)
(0.46488838 -0.09253118 0.00088709614)
(0.53986589 -0.12895785 0.0006588573)
(0.61779853 -0.16739515 0.00054623466)
(0.69862273 -0.20641947 0.00072797249)
(0.78254902 -0.244603 0.0010288088)
(0.86974647 -0.28080295 0.0015535758)
(0.96038993 -0.31386017 0.0022431953)
(1.0545668 -0.34294484 0.0031232507)
(1.1521748 -0.36748537 0.0041825381)
(1.2530478 -0.38721595 0.0054504369)
(1.356768 -0.40219864 0.0068794448)
(1.4628864 -0.41277288 0.0085490648)
(1.5707289 -0.41975884 0.010272569)
(1.6797191 -0.42392173 0.012271774)
(0.00074149678 -0.016097594 0.0050401808)
(0.0013172759 -0.01553467 0.0017767161)
(0.0029697639 -0.015908725 -0.0025488092)
(0.014580883 -0.020654328 0.0040026109)
(0.01764115 -0.020630963 4.9872971e-05)
(0.016133653 -0.020633777 -0.0053959118)
(0.036619313 -0.029795573 0.0047118822)
(0.038108409 -0.0302562 0.00067297736)
(0.038476532 -0.029711246 -0.0035775784)
(0.067865694 -0.034149718 0.0046332387)
(0.071510662 -0.034402916 0.00046177727)
(0.071243945 -0.035062792 -0.0037546016)
(0.10952548 -0.036567904 0.0044090144)
(0.11267029 -0.037496129 0.0011605378)
(0.11319833 -0.03753714 -0.0033186132)
(0.16039586 -0.036007315 0.0048890789)
(0.16400493 -0.036643686 0.0013004856)
(0.16455929 -0.037138462 -0.0026146515)
(0.22035352 -0.032151258 0.0048948014)
(0.22408825 -0.033051833 0.0016065146)
(0.22536886 -0.033873921 -0.0017365094)
(0.28942424 -0.025585915 0.0050994645)
(0.29337965 -0.027162023 0.0022552568)
(0.29477324 -0.028005792 -0.00096470794)
(0.36669756 -0.017746051 0.0054122198)
(0.37056043 -0.018987097 0.0028995406)
(0.37248942 -0.020139966 -1.2314287e-05)
(0.45136787 -0.0083188232 0.0058882411)
(0.45546743 -0.0098214938 0.0034983716)
(0.45772628 -0.011698155 0.0011573139)
(0.54255424 0.00085277341 0.0064230698)
(0.54661116 -0.0011321352 0.004360811)
(0.54922232 -0.0029463372 0.0024599619)
(0.63880297 0.0087636392 0.007126202)
(0.64302551 0.0066914976 0.0054513859)
(0.64600266 0.0043735099 0.0037768138)
(0.73903869 0.01452414 0.0079943196)
(0.74326576 0.01210735 0.0065274651)
(0.74652428 0.0094619596 0.0053400498)
(0.84166598 0.016915263 0.0089783598)
(0.84594639 0.014277582 0.0079045759)
(0.84943722 0.011271539 0.0069425374)
(0.9454724 0.015196876 0.010185562)
(0.94975371 0.012279296 0.009341697)
(0.95346774 0.0090103688 0.0086739859)
(1.0492253 0.0086490403 0.011506168)
(1.0535412 0.0055109367 0.010966247)
(1.0574011 0.0019813314 0.010481165)
(1.1520108 -0.003189698 0.013022206)
(1.156329 -0.0065370531 0.012674694)
(1.1603283 -0.010259769 0.012377864)
(1.2530916 -0.02044766 0.014631112)
(1.257453 -0.02401703 0.01450697)
(1.2615028 -0.027845396 0.014307401)
(1.3520487 -0.043064697 0.016407932)
(1.3563651 -0.04676338 0.016387655)
(1.3605981 -0.050778823 0.016292046)
(1.4485665 -0.070739359 0.018260491)
(1.4531719 -0.074679795 0.018310921)
(1.4572858 -0.078577266 0.0182343)
(1.5430917 -0.10273703 0.020117612)
(1.5477155 -0.10659864 0.020251112)
(1.5518571 -0.11067211 0.020220962)
(1.6355816 -0.13816304 0.022184293)
(1.6400249 -0.14209585 0.022205834)
(1.6443698 -0.14625924 0.022109661)
(1.7268148 -0.17605206 0.024115924)
(1.7313117 -0.18009176 0.024057322)
(1.7357697 -0.18421796 0.024015399)
(-0.0024674849 0.0015175207 -0.00032589953)
(-0.00056304209 0.0024448901 -0.00062027524)
(0.00093363644 0.0023544721 -0.00038074812)
(0.015360249 0.0028047097 -0.0022003844)
(0.017427053 0.0037012763 -0.001914323)
(0.01609194 0.0031624459 -0.0012883603)
(0.041636395 0.0028992988 -0.0015990839)
(0.043622398 0.0027424411 -0.00013703662)
(0.044272126 0.0023875301 -0.00030141987)
(0.07681274 0.0007745971 -0.0019445649)
(0.080514104 0.00070426626 -0.001136513)
(0.080339562 -0.00063339635 -0.00071105066)
(0.12223455 -0.0022165562 -0.0016696619)
(0.12529104 -0.0027488593 -0.00026205309)
(0.12554639 -0.0031786447 -0.00076105186)
(0.17479055 -0.0076378658 -0.0016312483)
(0.17825506 -0.0082744493 -0.00090849137)
(0.1792743 -0.0093921079 -0.00034565593)
(0.23515038 -0.014397797 -0.0017697575)
(0.23881444 -0.015491513 -0.00040648517)
(0.23986346 -0.016895998 -0.00040688783)
(0.3021532 -0.023742759 -0.0012680819)
(0.3058727 -0.024899009 -0.00026169431)
(0.30734182 -0.025975519 -0.00022686954)
(0.37481353 -0.034252103 -0.0010392735)
(0.37890332 -0.035755818 -0.00024930301)
(0.38070384 -0.037544485 2.2064441e-05)
(0.45317504 -0.046829438 -0.0006318942)
(0.45729697 -0.048863845 0.00034437446)
(0.4594133 -0.050499856 0.00043084595)
(0.53588714 -0.061091798 -2.6280462e-05)
(0.54026022 -0.063291217 0.0008579375)
(0.54258048 -0.065335607 0.0006430559)
(0.62273652 -0.076685016 0.00073446198)
(0.62722236 -0.079276246 0.0014660347)
(0.62987132 -0.081437717 0.0012517006)
(0.7129359 -0.093562631 0.0016324221)
(0.71757154 -0.096486237 0.0022864315)
(0.72037179 -0.098947199 0.0018825974)
(0.80591874 -0.11151629 0.0027154908)
(0.81060159 -0.11478102 0.0032519485)
(0.81366533 -0.11735379 0.0027431327)
(0.90118707 -0.13030364 0.0039673068)
(0.90590159 -0.13379441 0.0043749543)
(0.90917547 -0.13664051 0.003787538)
(0.99819219 -0.1497704 0.0053571235)
(1.0028749 -0.15349824 0.0056890887)
(1.0063806 -0.15651238 0.005052915)
(1.0965395 -0.1697485 0.0069385464)
(1.1011968 -0.17359246 0.0071551968)
(1.1048707 -0.17686731 0.0065175788)
(1.1957998 -0.19004582 0.0086299064)
(1.2003449 -0.19407425 0.0087827345)
(1.2042633 -0.19747856 0.0081789132)
(1.2956644 -0.21070406 0.01046592)
(1.3002187 -0.21468078 0.010531422)
(1.3042522 -0.21834142 0.010013767)
(1.3958272 -0.23130306 0.012381968)
(1.4002744 -0.23557 0.012396781)
(1.4044667 -0.23921037 0.011936636)
(1.4962699 -0.25227331 0.014344044)
(1.5003659 -0.25624693 0.014173116)
(1.5049521 -0.26019311 0.014040614)
(1.5962151 -0.27305717 0.016360521)
(1.6007145 -0.27705178 0.016264546)
(1.6050919 -0.28110789 0.016058611)
(1.6965334 -0.29392279 0.018291872)
(1.7010142 -0.29801513 0.018211278)
(1.7054886 -0.302054 0.018114542)
(-0.0004150981 0.014417079 -0.0049214695)
(-0.00017602838 0.014915299 -0.0006722126)
(-0.00012848063 0.015420927 0.0035649911)
(0.024099263 0.023151281 -0.0066532084)
(0.026686478 0.025779879 -0.00092457268)
(0.025131943 0.024423281 0.0034416744)
(0.052046627 0.027597438 -0.0067324801)
(0.055139947 0.024891951 -0.0012874529)
(0.055535847 0.025380316 0.0037490982)
(0.092939622 0.026916608 -0.006899535)
(0.095781919 0.027779956 -0.0020131027)
(0.096165566 0.027319088 0.0019772229)
(0.13984054 0.022719964 -0.0066716162)
(0.14347524 0.020855771 -0.002242119)
(0.14432132 0.021153672 0.0015234792)
(0.19436686 0.011426218 -0.0069288564)
(0.19803239 0.0099472697 -0.0028049561)
(0.1991159 0.0096578647 0.00048904481)
(0.25403053 -0.0058447077 -0.0064742296)
(0.25777166 -0.0074065561 -0.0026635552)
(0.25949104 -0.0074432361 9.2198648e-05)
(0.31812818 -0.028309224 -0.0062319502)
(0.32208532 -0.030460553 -0.0032952329)
(0.32411452 -0.031057811 -0.00053249678)
(0.38609537 -0.056551926 -0.0060433289)
(0.39004543 -0.058760319 -0.0030684798)
(0.39262693 -0.059431624 -0.00069083987)
(0.4572435 -0.089007194 -0.0054550431)
(0.46137342 -0.091381622 -0.0030314624)
(0.46418846 -0.092453403 -0.0011063279)
(0.53140118 -0.12456456 -0.004964022)
(0.53551926 -0.1272362 -0.0029424171)
(0.53884981 -0.1285861 -0.0011520406)
(0.60856061 -0.16223843 -0.0043210033)
(0.61272506 -0.16498189 -0.0025832819)
(0.61631625 -0.16667251 -0.0011201903)
(0.68866593 -0.20039516 -0.0035802364)
(0.69281918 -0.20331817 -0.0021579984)
(0.69676424 -0.20539478 -0.00093515594)
(0.77196949 -0.23785942 -0.0027138372)
(0.77615661 -0.24084463 -0.0015629877)
(0.78031532 -0.243257 -0.00051736857)
(0.85861559 -0.27326002 -0.0017087328)
(0.86280773 -0.27634392 -0.00077425199)
(0.86717571 -0.27912582 7.3675729e-05)
(0.94876799 -0.30556256 -0.00054542754)
(0.95300049 -0.30875012 0.00020258434)
(0.95748032 -0.31184964 0.00087593687)
(1.0424959 -0.33392349 0.00082232659)
(1.0467507 -0.33721026 0.0013721217)
(1.0513156 -0.34058972 0.0019148318)
(1.1397296 -0.35772961 0.002337626)
(1.1440364 -0.36117053 0.0027759083)
(1.1486461 -0.36476775 0.0031728687)
(1.2402694 -0.37680257 0.0040800794)
(1.2446278 -0.38036707 0.0043859915)
(1.2492094 -0.38413535 0.0046225007)
(1.3437289 -0.39121818 0.0060069058)
(1.3481148 -0.3948904 0.0061443244)
(1.3526893 -0.39878006 0.0063310029)
(1.4495944 -0.40125649 0.0079695378)
(1.454067 -0.4050857 0.0081366871)
(1.4586163 -0.40902823 0.0081789326)
(1.5572938 -0.40785975 0.010191374)
(1.5617885 -0.41182003 0.010238518)
(1.5663391 -0.41584938 0.010205209)
(1.6662145 -0.41191563 0.012309325)
(1.6706786 -0.41587568 0.012264356)
(1.6751688 -0.4200012 0.012199214)
)
;

boundaryField
{
    free
    {
        type            calculated;
    }
    fixed
    {
        type            calculated;
    }
    freeTop
    {
        type            calculated;
    }
}


// ************************************************************************* //
