/*--------------------------------*- C++ -*----------------------------------*\
  =========                 |
  \\      /  F ield         | OpenFOAM: The Open Source CFD Toolbox
   \\    /   O peration     | Website:  https://openfoam.org
    \\  /    A nd           | Version:  6
     \\/     M anipulation  |
\*---------------------------------------------------------------------------*/
FoamFile
{
    version     2.0;
    format      ascii;
    class       pointScalarField;
    location    "1.14";
    object      p;
}
// * * * * * * * * * * * * * * * * * * * * * * * * * * * * * * * * * * * * * //

dimensions      [1 -1 -2 0 0 0 0];

internalField   nonuniform List<scalar> 
625
(
-391108.29
849936.62
-1461.8065
-2566.0179
-971692.62
1162451.4
-2823.8744
629.88589
-271747.32
85764.389
184284.5
2812.2998
813.22761
-1106.9641
-159117.89
-179515.01
-186240.99
-186811.82
-179248.59
-174248.24
-169191.79
-159908.49
-158501.5
-141491.09
-135576.95
-122936.29
-112208.4
-98833.943
-86183.186
-72555.805
-58427.974
-46059.773
-33042.38
-21310.33
-11983.643
-3500.6858
-564.54686
260006.36
207051.67
247356.06
209202.03
201407.96
195279.64
176870.34
166682.72
157902.28
144298.24
132679.29
121109.09
109089.48
96047.891
83118.69
69975.815
56902.021
45000.413
32458.355
23963.817
13693.47
6868.4851
1961.1807
-579544.58
-83950.454
131483.04
216296.46
299084.71
227827.12
217173.48
236338.36
205567.89
195212.4
197510.28
187636.57
177148.47
165681.31
150979.89
137501.22
120001.05
104348.52
86673.389
70585.537
54315.937
39690.066
26598.377
14848.629
6041.8289
-666.25681
-1187.4072
1576.8911
1336.2692
-920.09822
-4847.408
-10007.664
-18603.011
-28494.616
-40113.186
-53029.611
-67571.828
-82269.825
-98184.233
-112977.31
-130435.42
-143385.66
-149304.46
-186305.62
-185924.93
-202780.2
-205482.02
-240569.67
-226404.7
-248224.06
-268900.84
-232057.83
-440229.65
-489031.09
-450245.11
836350.2
792906.66
759999.12
-4545.1504
-3981.9216
-5526.3743
871.27808
21.482333
-109.72224
-78069.629
-93798.508
-103691.13
-102288.54
-99035.653
-106948.62
-99126.966
-99128.179
-90448.977
-88587.069
-82219.403
-75008.635
-65756.292
-56859.505
-47503.588
-37926.204
-29343.699
-21620.228
-14224.112
-9416.3391
-4316.0797
-1913.411
-626.38842
51332.249
42734.209
44355.577
29518.914
32021.631
25015.681
24729.271
19419.099
17116.729
15966.345
15049.182
13778.143
12180.346
10176.124
8430.2912
6551.2268
4552.6292
2788.6475
2042.1618
409.99629
1038.4794
-233.13962
-140.27038
185690.17
167679.29
160198.36
148041.7
153227.4
136023.83
130938
118098.82
109769.22
97195.978
86929.306
74378.239
64019.348
53510.324
44075.009
35091.59
27222.493
19985.055
14636.617
8096.1347
4833.5302
2642.5349
266.69341
-240953.9
-258025.36
-286336.04
55521.493
11373.111
5454.7217
141098.69
144867.87
161047.51
342086.82
316775.6
320742.86
306263.45
272919.25
254483.85
245020.27
222323.59
228982.78
224734.03
210529.45
204097.09
219136
206103.51
212808.14
205063.2
190761.5
190570.32
197809.71
187831.84
192972.31
188179.51
171945.37
180348.02
173781.69
164326.36
171223.38
160850.89
153011.03
162535.23
147823.55
143051
150332.48
133797.18
129184.97
137534.31
118199.1
116254.88
123814.95
102887.92
101492.05
108820.2
87294.284
87111.106
93681.247
72009.597
72263.889
77826.487
57250.081
57660.317
62687.024
43342.884
44358.524
48060.047
31113.147
31416.559
34280.824
20130.237
20602.692
22870.945
10428.695
11232.77
12409.054
3558.961
5196.6928
5347.735
1175.3461
-212.38889
1591.5313
2614.9531
2290.6505
2395.33
999.79634
1276.1514
740.68223
-831.6846
-1907.3177
-2187.3646
-237059.08
-230473.01
-257599.41
-239243.81
-224867.09
-248349.44
-234455.34
-222134.98
-250892.6
-214768.82
-203255.87
-228725.31
-206477.96
-204252.52
-211103.84
-204604.68
-179751.52
-205578.37
-190823.72
-178721.53
-194463.34
-185347.57
-164987.69
-180078.85
-167196.84
-159248.36
-165701.44
-163328.21
-143071
-157834.64
-149632.75
-132014.72
-140845.91
-137817.81
-117471.27
-128575.92
-121693.11
-105362.83
-113357.59
-107244.31
-92095.522
-97864.621
-91375.805
-78603.433
-82264.887
-75308.928
-65509.646
-67190.761
-60083.107
-52681.037
-52336.496
-45504.86
-40213.084
-38771.574
-31340.842
-28702.912
-26220.152
-19951.373
-17930.804
-16171.858
-10042.843
-9075.9701
-7184.1209
-3363.2889
-2708.5104
-1902.6345
-938.93506
-561.34516
-207.96583
-174207.57
-166855.76
-142282.46
-150733.98
-146989.5
-136399.59
-127997.04
-119829.8
-101905.04
-94108.038
-86488.82
-70754.438
-60329.664
-50246.997
-41113.163
-32836.322
-25889.841
-19692.599
-14569.887
-9593.474
-5981.0263
-3301.0374
20.482982
-10693.713
-38345.569
-12419.891
-31191.423
-27812.449
-15301.907
-19431.684
-13196.888
-9953.5799
-10056.057
-9282.9485
-8412.88
-8182.3204
-8711.9268
-7715.085
-7918.4292
-6664.7691
-6158.9931
-4153.1413
-3464.8806
-2088.8587
-676.121
573.06333
75693.867
84681.686
126784.16
111442.8
122933.13
119254.22
111162.36
108276.97
100322.08
94695.62
89071.366
81911.78
75670.532
68895.093
62192.088
54878.908
47338.845
39807.305
31923.339
23921.249
17050.021
9687.9855
5506.3303
-153410.17
-178460.25
-178103.65
-136212.84
-159557.5
-165743.84
-117162.23
-124600.41
-163208.69
-107072.44
-141956.83
-134473.53
-126486.28
-114382.19
-136961.44
-102155.84
-123168.87
-135439.19
-105996.04
-115384.32
-119065.5
-98369.825
-107300.14
-113392.91
-96447.562
-96745.746
-107303.31
-81827.402
-93040.562
-91372.59
-73865.383
-81346.266
-81214.527
-62388.745
-72576.001
-71102.948
-53909.097
-62403.048
-59263.64
-45141.187
-51530.234
-49009.431
-36268.283
-41834.136
-39644.258
-29208.357
-32876.455
-30751.504
-22752.989
-24488.611
-23203.154
-17138.541
-17244.73
-16774.896
-11810.357
-10987.493
-11526.985
-8747.6066
-7263.9022
-7697.6395
-4866.761
-2823.8725
-3869.5155
-3130.3037
-2114.1767
-2839.7637
345.52078
1518.8541
924.74758
51528.605
36066.2
-2557.9774
29391.474
-9734.9889
-14714.742
5049.0012
-2912.091
-16993.791
9068.9154
-4818.0304
-5592.3695
7444.0268
-4983.2049
-20368.801
7729.8847
-9573.7765
-6792.065
3711.275
-4899.0445
-4462.2775
4730.8312
-5959.3043
-4992.7807
4130.1819
-6845.4316
1499.6334
758.73691
-4878.6546
1368.4715
-328.66668
-5701.7679
3545.8892
-2547.4954
-7320.3851
4380.8162
-5009.1047
-7655.3226
5883.159
-5697.4497
-8052.4336
4786.6974
-6976.3096
-9073.4756
4423.5733
-7460.7235
-9277.9928
3489.3961
-7777.6835
-8754.197
2128.8892
-6553.1258
-8469.4398
1342.9635
-6640.1275
-6904.427
-396.99021
-4714.5047
-6143.5251
658.59246
-4748.6905
-1422.4368
-526.85609
-2287.1587
-1649.9337
-338.66432
-157.24803
-51.13108
-167.21868
181359.1
175063.54
184146.55
140205.49
114176.23
140204.62
136236.58
164124.65
144891.17
157186.38
127625.17
130463.39
132017.26
135825.92
132442.62
129372.81
126752.95
130381.37
120580.6
122294.5
120395.52
111612.46
111752.62
119816.79
99692.233
108248.52
109482.18
92796.748
97258.134
100961.32
81094.079
89465.314
92585.256
71466.913
81843.437
84401.185
61916.473
74525.331
74958.983
52858.669
66589.943
66329.112
44367.656
58858.509
57713.175
36660.956
51179.687
49603.913
29785.825
43536.818
41488.36
23504.881
35524.01
33516.76
17792.205
27956.633
26709.831
12228.721
21087.719
18716.745
10557.279
13428.936
12499.186
3670.987
6761.0822
4274.5263
2601.1303
4427.5091
3979.1649
)
;

boundaryField
{
    free
    {
        type            calculated;
    }
    fixed
    {
        type            calculated;
    }
    freeTop
    {
        type            calculated;
    }
}


// ************************************************************************* //
