/*--------------------------------*- C++ -*----------------------------------*\
  =========                 |
  \\      /  F ield         | OpenFOAM: The Open Source CFD Toolbox
   \\    /   O peration     | Website:  https://openfoam.org
    \\  /    A nd           | Version:  6
     \\/     M anipulation  |
\*---------------------------------------------------------------------------*/
FoamFile
{
    version     2.0;
    format      ascii;
    class       pointScalarField;
    location    "1.62";
    object      E;
}
// * * * * * * * * * * * * * * * * * * * * * * * * * * * * * * * * * * * * * //

dimensions      [1 -1 -2 0 0 0 0];

internalField   nonuniform List<scalar> 
3969
(
36623.836
26679.55
24497.37
-15383.918
31304.787
36644.56
-10609.449
19192.732
15036.095
6760.2685
1677.6046
1107.1065
3088.331
7825.8389
19874.553
9231.7284
-3741.8187
-151.25004
8586.4286
19183.331
25846.282
22395.248
31921.268
24029.819
22899.284
21921.257
20977.751
19887.092
18287.372
17561.24
15598.126
14836.214
14095.136
12713.279
12385.69
11331.966
10919.824
9605.2005
9384.8619
8162.7682
7564.2853
6322.4061
5266.5103
3918.1845
2512.3145
1085.8318
-901.4987
-2633.7333
-5049.9473
-7700.6312
-10292.607
-13480.887
-16837.472
-20207.147
-23727.626
-27294.949
-30350.532
-32935.528
-35039.862
-36796.243
-37408.063
-37784.696
-35817.269
-34831.128
-29836.261
-27243.538
-19902.813
-14979.508
3460.2008
31360.634
16216.992
25334.291
19316.412
21445.681
17243.564
17007.81
14494.983
12674.447
11285.004
8641.0166
7427.0568
5806.3646
4492.1749
3395.4727
2426.2146
2140.6205
1368.8927
1607.6065
1873.9575
2600.6026
3994.0696
5541.2402
8294.5665
10973.873
14994.615
17345.551
22293.928
27028.55
31173.241
37064.702
41769.342
47451.7
52070.404
56929.377
61169.959
63581.257
65350.008
66466.684
65277.874
63496.58
59263.107
53769.216
46671.174
39189.841
30292.292
14076.421
13952.606
6009.5983
1334.4188
3333.8957
5425.2159
11599.35
23258.781
53351.126
40919.286
15682.226
32527.849
25134.225
22989.142
22864.053
16067.674
18411.516
11249.106
14230.478
11521.447
10391.679
10107.957
6985.0883
7975.1017
5519.7577
5990.5996
5365.7888
5556.2569
6143.0642
6719.7818
8002.7485
8995.9807
11286.247
14538.873
18432.545
22197.655
26667.381
31005.525
35368.406
40107.927
44157.977
47988.477
50528.564
53534.075
57674.434
54097.44
53101.473
50591.979
46577.494
42325.619
36223.27
29687.528
22591.83
14111.929
17138.853
24371.366
23389.551
20441.764
13358.014
5429.4475
-4302.2152
9324.0865
4316.1173
3153.15
1394.8
-3224.6277
-6682.937
-9610.8059
-11945.256
-13658.761
-14634.739
-15074.658
-14632.811
-13947.771
-15214.872
-12894.627
-11916.1
-10489.6
-9120.8944
-7573.5154
-6329.1306
-4800.8934
-3759.2416
-2404.7158
-1709.4788
-827.55581
-31.609562
767.51366
1564.2569
2275.1805
3280.1691
3892.2254
5210.2237
6094.5632
7893.5796
7364.4484
9045.3876
9865.9353
11696.008
11893.539
13612.711
14554.701
16626.929
15547.392
19924.061
16930.866
20292.276
18504.056
34739.539
22449.191
23768.803
22061.153
22447.939
21110.822
20493.735
18728
18308.164
20831.101
22507.427
23772.342
24811.597
26845.398
23066.926
-14170.635
-13653.509
-13723.595
-13493.135
-13620.508
-13385.054
-12547.34
24203.107
23603.911
23691.165
23848.461
23863.38
24055.076
22939.355
20266.248
13452.28
14678.253
13100.876
12628.289
12413.801
10578.421
10459.17
8714.3652
8290.8356
7272.0329
6042.2874
5607.2057
4430.2929
3714.3439
2947.277
2807.9172
1897.3541
1792.7681
1125.9735
913.81273
451.77722
332.30895
-222.88176
-443.40208
-653.40686
-915.65171
-1078.9959
-671.66422
-661.49288
-235.55722
302.0717
580.01565
1342.2573
2100.9527
2580.4613
3631.0002
4345.1676
5521.0497
6635.5762
7638.7883
9234.4056
10464.056
11302.68
13826.16
13969.405
17982.486
8108.0458
5814.9157
6404.8968
5834.1514
5741.3928
5860.8526
4739.756
4917.4055
3654.6662
3427.0694
2586.681
2069.6209
1514.9036
822.95252
578.98125
92.381329
-299.7433
-714.97007
-835.90528
-911.72391
-810.14999
-373.4112
-166.62717
633.87846
1494.2712
2342.7156
3515.5068
4975.717
6311.8778
7964.1545
9700.8929
11230.512
12819.366
14329.978
15514.344
16782.01
17945.223
18261.465
19410.58
19208.717
20526.621
19641.807
20895.566
19477.005
20912.764
17530.356
14964.153
3626.3659
260.35089
2622.6846
870.06751
1716.9215
1125.3243
1481.5707
1250.801
953.9382
1100.8175
581.04226
497.12461
2.8101166
-104.95344
-757.55427
-1047.886
-981.85133
-1079.5289
-649.67483
-715.42861
-321.51175
-344.97732
515.44207
1400.7436
2391.5977
3775.7395
5894.9558
7602.7778
10237.845
12787.687
15324.229
18078.008
20599.09
23095.379
25367.821
27364.723
29033.605
30466.335
31668.696
31805.438
31580.429
30404.349
29404.41
26330.262
24869.341
18952.615
12303.546
1840.9409
163.75525
984.89633
1229.1076
737.31088
1279.1792
516.67465
284.57817
99.12614
-846.33142
-971.33893
-1036.0488
-1761.903
-1274.8228
-2096.3669
-1232.6068
-1774.5241
-1049.78
-1151.9994
-546.35366
256.68033
1647.0831
2888.4289
3850.7121
4959.4206
6539.5513
7676.6256
9113.499
10688.801
12131.051
13719.476
15379.292
16699.742
18407.169
19500.074
20758.541
21841.374
22361.662
23615.394
23830.55
24265.103
22766.231
22543.068
19669.47
19524.447
13751.565
9788.6937
4662.5025
1616.5694
3598.4438
2126.7886
2523.8319
1994.3267
1711.7976
1398.1566
1541.0141
895.18662
2032.1629
966.04473
1485.7912
1035.4029
1146.0935
988.89116
1023.029
1071.093
1170.159
1350.8556
1574.0258
1780.1658
2130.5975
1570.4299
1235.1088
344.1924
-439.97866
-1055.5133
-1872.2046
-2735.8248
-3677.8937
-4513.144
-5686.7637
-6359.7285
-7616.4602
-8152.6705
-8858.0183
-9301.9368
-2182.2531
9851.5576
9875.7856
10182.931
9892.5743
9392.5164
9004.2621
5975.1195
9697.0672
11403.165
7443.9888
9568.5884
9167.1492
9390.1911
9413.5786
9158.7498
8772.0707
9040.742
8225.8085
8719.167
8040.6076
8519.0135
8290.6926
8081.1422
8294.8858
7918.7261
7956.5973
7640.6553
7317.3991
7109.9278
6444.465
4814.6538
4466.9645
3433.4152
2505.9497
1717.2875
324.11285
-1246.8943
-2731.0703
-4326.7994
-6166.03
-7835.1036
-9220.2915
-11264.773
-11844.394
-13228.97
-13980.075
-13931.463
-11313.545
-11782.817
-11480.95
-10107.864
-8509.9784
-6185.1331
-2896.0675
10287.436
16572.943
12442.613
14049.268
13447.321
13132.238
12800.376
12306.394
11287.711
12050.438
10178.83
11344.472
9362.557
9947.7405
8553.3468
8719.1396
7823.1708
7659.1511
6918.8318
6407.845
5635.8001
4668.7576
3647.3813
2332.8124
886.89551
-656.68971
-1696.8098
-2788.6745
-3944.5679
-5020.6031
-5713.3916
-6684.5447
-7381.3561
-8132.5871
-8518.3114
-9247.7883
-8763.3718
-9227.2318
-7431.7092
-6674.3498
-12642.701
-12124.465
-8370.9578
-4084.3318
654.66158
5800.7802
12395.494
21007.847
7205.6407
7530.2877
5418.5861
5239.1952
5295.3608
5708.3786
7270.835
3677.3166
3984.2727
2807.9482
3164.0973
3013.1475
3406.5453
3595.4988
549.26277
27.960176
-684.68437
-492.53631
-662.52057
-510.70047
-21.467746
411.21696
34.690519
46.865869
44.501939
241.24613
747.8626
1471.9459
1221.3053
660.39466
687.11425
675.55298
986.99797
1597.2934
2874.4525
4627.2566
2663.061
2886.0987
2525.6775
3234.6925
4220.1024
7225.0745
9977.63
9773.9754
8452.5657
8994.8911
9105.6702
10421.501
14492.105
36956.951
35765.511
39242.923
43028.638
43639.028
46558.723
45324.535
29855.515
31688.018
27545.566
26393.687
32806.903
32831.133
36709.222
20691.697
22688.691
26539.203
25599.477
25148.906
25442.505
30373.155
24820.229
27181.534
24960.263
26361.648
27389.354
29449.722
27116.491
21152.678
22318.656
25162.668
24914.192
25026.123
24811.817
27435.885
21401.997
20380.726
20326.885
21284.606
21305.796
22213.713
21905.801
18543.184
18207.892
20121.395
19715.146
20719.602
20940.905
22719.887
16970.572
16535.157
16960.675
16680.304
15837.377
16511.2
16581.473
15536.787
14059.707
14447.856
14462.921
15831.518
15740.156
18036.139
12549.216
12078.64
11762.278
13389.649
11717.211
11880.236
12538.996
12252.182
10867.691
11611.313
9431.4598
10919.16
10286.154
12591.087
9333.7876
9386.0634
8417.3091
9951.158
9440.4542
7450.0984
11087.239
9095.2151
7064.7927
7715.2528
6196.6471
6627.945
6742.5859
8514.1726
6527.5501
5701.0035
6861.3034
5647.5461
7296.5527
5340.606
9128.1005
6113.1718
5320.6172
4890.8104
4299.8777
4301.1371
3412.7742
5895.5246
5266.2924
3489.2645
4667.2261
3399.27
4684.4635
3372.3547
6547.2457
4017.0532
3402.5217
3795.3448
2292.6681
3434.5108
1821.1045
4639.006
4155.8798
2761.4263
3627.1343
2301.5139
3445.6654
2027.7965
4637.7046
3911.9362
2529.2199
3737.1868
1747.2835
3217.082
1581.4506
4481.7667
4309.7796
3098.0345
3964.4796
2540.0134
3761.1646
2241.6884
4686.9195
5246.4466
3649.2051
4899.9349
2983.5504
4291.2571
2661.0155
5406.2334
6374.0849
5019.8324
5860.4229
4196.3524
5548.677
3883.0706
6495.6191
8379.1422
6684.54
7555.8315
6018.124
7276.4065
5683.2825
8288.4158
10624.694
9228.742
9662.6149
8367.0223
9398.1288
7560.3423
9971.7789
13570.031
12502.289
11719.738
11753.61
11886.115
10782.569
13154.32
17229.847
15753.6
15135.407
14680.238
14102.117
14234.196
16899.986
20608.219
19543.863
19266.105
18870.382
20003.607
18570.459
21072.057
25193.764
23327.973
24280.645
22928.036
23580.159
21196.592
25153.079
28227.131
28413.36
27285.307
28227.245
27760.139
27528.072
29534.215
33935.128
31896.663
33102.106
32766.108
33091.208
31879.523
34300.218
37655.693
37773.358
37347.355
38234.3
37711.671
37347.519
39192.898
43299.735
42077.599
42483.272
43262.398
42981.604
42662.635
44369.56
47384.186
47027.917
47127.402
48422.113
47838.121
47869.109
49532.479
52085.521
51498.984
51713.787
52998.348
52129.851
52465.743
54120.655
55693.284
55366.16
55245.29
56972.904
56410.598
57190.446
57784.832
59430.111
58603.914
58704.343
60277.929
58780.611
60196.44
61064.918
60241.154
59590.162
60102.629
61521.995
61350.03
57355.678
59309.367
57623.287
56435.349
56969.031
58309.745
57125.202
63684.851
63272.507
61259.418
60475.66
61460.59
61771.831
61405.341
62355.936
63878.814
60308.896
59677.895
59128.234
60675.073
59489.175
60498.371
61579.298
57181.717
55868.933
56256.423
56884.201
56185.574
57063.759
57718.093
52633.369
51619.314
51357.176
52352.909
51429.804
52377.026
52889.993
46613.469
45787.161
46118.268
46535.952
45850.946
46731.417
46875.09
39411.254
39125.868
38861.572
39368.867
38708.823
39699.88
39373.762
31688.605
31392.358
31401.499
31700.466
31443.824
32114.02
31523.448
22838.815
23094.827
22834.353
23314.363
22898.72
23468.02
22612.006
14436.235
14657.324
14730.047
14746.079
14988.385
15086.96
15330.015
5619.5706
7757.8836
7755.7054
7969.4132
7922.6825
7895.9354
7873.5603
-8273.2368
-4861.7848
-5240.5247
-5102.7432
-5319.1017
-4067.9298
-6194.4753
2699.4418
2765.4554
3185.2731
3212.5892
3176.0554
2122.186
1888.4978
9740.0857
10301.601
10108.262
10380.479
9779.8086
10606.868
9009.3572
21321.535
26439.941
23719.197
23363.51
23999.437
23376.653
22273.667
28207.122
27484.351
26466.154
26970.37
24996.209
26904.136
24700.591
22441.807
23413.84
23684.61
23496.576
25168.267
23907.428
23846.599
30220.751
27077.38
24746.613
23163.164
23430.78
24113.936
22780.26
26705.05
23696.721
24045.01
23732.255
22873.372
21925.074
22659.845
26840.4
27456.045
25715.22
24639.421
25879.272
23997.811
23974.844
23496.499
23299.167
23177.122
23469.132
21885.221
20320.065
20070.683
24364.255
23780.46
24012.508
23272.981
23290.039
22029.092
20818.477
19817.976
19963.714
19518.754
19217.04
18474.238
16718.775
17076.278
20995.271
20013.318
20061.192
19951.843
19418.157
19054.294
18358.016
17036.211
16885.074
16412.285
15881.715
15461.655
14780.79
14982.619
17210.215
16487.595
16704.724
16081.881
16416.861
14756.416
15497.251
15446.467
14540.179
14361.242
14011.464
13534.751
13168.334
13108.616
14053.532
13849.41
13876.949
13542.172
13476.926
12590.925
12723.209
13349.75
12589.185
12252.415
12567.011
12086.005
11954.753
11900.18
12313.692
11558.94
12040.501
11210.9
11704.238
10463.587
11312.436
11354.574
10893.924
10825.689
10752.22
10671.601
10761.89
10789.769
10569.015
9783.5882
10158.195
10292.547
10539.99
8837.2655
9546.2328
9618.8823
8978.9203
9598.5263
8251.9958
9361.2399
8700.9885
8586.0669
8709.204
8688.1578
8587.7738
8646.685
8822.327
7846.8978
8336.938
8145.6308
7362.2482
8033.0752
7324.0517
7793.9882
7041.5362
7250.4927
6881.8828
6850.3574
7040.5452
6476.344
7309.0354
6218.8639
6614.4258
6158.4478
5709.7135
6022.2489
5709.1228
6233.9162
5242.244
5682.9327
4846.0258
4510.465
5107.6948
4434.9321
5315.2823
4362.5944
4909.2225
3760.068
3448.1118
3797.163
3344.2889
4216.8871
3103.1755
3965.9082
2476.785
1827.7692
2495.4382
1931.1044
2840.7018
1913.8344
3222.8985
1297.0106
588.5969
1167.5298
544.21555
1549.2501
760.64505
2387.988
-85.478559
-988.46025
-416.93992
-958.7752
47.769491
-765.54427
1402.3097
-1277.441
-2763.1221
-1807.2172
-2558.5583
-1521.4669
-2179.6499
518.90878
-3143.55
-4441.5506
-3817.0403
-4477.5832
-3466.8595
-4109.513
-1006.1413
-4969.3215
-6577.9819
-5909.2841
-6390.0728
-5330.8736
-5975.0398
-2407.101
-7422.4002
-9186.1732
-7965.3995
-9035.6657
-7890.4459
-8550.6095
-4649.9919
-10125.604
-11381.388
-10934.797
-11602.52
-10425.045
-11001.227
-6805.5583
-12773.904
-14325.303
-13596.934
-14278.992
-13176.49
-13784.199
-9296.2267
-15691.652
-17010.816
-16478.327
-17031.663
-16108.645
-16620.392
-11888.875
-18554.067
-19793.553
-19379.926
-20015.327
-19172.283
-19465.983
-14515.269
-21252.417
-22413.768
-22145.589
-22420.155
-21685.327
-21878.913
-16683.415
-23552.756
-24833.691
-24554.457
-24792.198
-24563.15
-24129.023
-19759.348
-25682.005
-26920.073
-26570.757
-27115.65
-26399.53
-31063.431
-25362.52
-31973.06
-32510.449
-32667.695
-32484.728
-32196.473
-27681.28
-20268.671
-27991.625
-29471.09
-29626.889
-29463.306
-28959.998
-29271.398
-23889.645
-28436.425
-29318.556
-29297.145
-29226.987
-29093.309
-29120.08
-23399.289
-27913.675
-29172.398
-29292.667
-28961.063
-28927.699
-28586.689
-23477.374
-26428.298
-27415.077
-27198.686
-27029.549
-27067.016
-27051.49
-22532.039
-25152.874
-26097.438
-26049.063
-26008.479
-25956.855
-25495.33
-20836.583
-21153.239
-21646.134
-21825.482
-21433.484
-21571.161
-21324.491
-18093.959
-18758.964
-19639.13
-19451.374
-19434.037
-19595.305
-19225.424
-15337.325
-12673.248
-12696.098
-12843.137
-12710.237
-12890.572
-12153.847
-9682.2668
-8950.3365
-9232.2084
-9249.8094
-9372.8298
-9151.0944
-9076.0523
-7512.8059
3688.2067
3886.7386
3577.2255
3763.6515
3774.5181
3856.7866
4105.309
28849.315
15904.326
14337.918
12506.92
13647.459
12732.27
11103.694
10693.546
9184.1142
8255.5474
7358.0078
5140.6357
4422.6064
2707.0267
1162.2851
1322.9232
-37.231813
-214.72068
-810.54623
-701.58346
-824.04894
-397.47828
-161.0472
364.6508
773.73311
1792.8114
3140.4479
4652.6621
6799.1794
9129.8135
11942.536
14708.357
17594.094
19995.528
23115.184
24562.613
29306.494
27370.055
28603.758
28875.48
29088.072
28705.059
27873.215
26458.154
24701.116
21025.137
25386.252
11854.876
10312.132
5750.5574
5831.3477
7969.9319
4281.668
6511.9114
4855.2227
5124.6588
4216.3792
3529.76
2966.7125
2599.3993
1722.6612
1874.969
1267.1403
1163.221
904.09092
1196.9116
1365.1921
1929.5622
2595.0782
3474.8
4707.1951
6067.9007
7276.605
8979.0262
12282.499
14327.851
16498.266
18318.865
19957.01
21078.504
22315.126
22623.322
22926.787
22637.636
21476.883
21305.333
19331.288
18065.307
15778.966
13934.741
10768.284
9772.8868
4088.3313
13370.482
3404.3357
1752.5103
1554.2265
1088.3105
1586.3076
686.44642
1714.5173
711.32237
1742.3555
1020.6013
1303.7828
1907.0066
2297.2692
3095.5114
3992.7443
3780.4502
4476.6332
4667.3255
4571.9732
4986.833
4833.1826
4942.0059
4882.8076
4596.7295
4596.0081
4042.1013
4361.6049
3206.2066
3104.3054
2434.9362
1941.5178
1129.3234
646.91347
-130.07838
-892.94389
-1286.9654
-1914.5835
-2162.418
-2348.2741
-2496.0686
-2264.1003
-1680.1208
-1439.3378
-141.26601
902.1146
1813.5125
8031.8654
1564.9732
2105.6444
-903.67214
2976.0686
-827.64208
3086.0943
-1298.1971
2704.9283
-24.931073
1372.8342
1831.7753
944.35654
1711.7288
5601.8125
4505.6163
5052.3647
5185.5824
4795.7479
5100.6146
4787.5608
4630.2901
4242.3908
3738.8311
3529.241
2892.6965
2614.7372
1723.724
1010.4458
24.794099
-1028.288
-2115.3943
-3216.7605
-4165.3965
-5429.0392
-6114.0872
-6927.888
-7704.7269
-8212.796
-8112.6707
-8297.1309
-7536.0193
-7235.5844
-5355.4224
-4572.3844
-749.17824
-827.49445
5497.4065
6318.341
2729.6537
4471.8584
3424.6304
4448.8481
3543.3306
4244.3612
5695.1926
3249.5274
6655.1775
3553.4738
6111.2867
5220.6609
5818.57
5877.7885
6083.4834
5671.3771
5745.7117
5256.148
5001.3841
4414.9227
3706.6729
3263.3967
2025.6444
759.8558
-1127.8845
-2861.0024
-4500.9082
-6192.0591
-8050.9047
-9894.8713
-11747.073
-13660.056
-15218.467
-16443.282
-17808.282
-18253.516
-18183.873
-18060.996
-16360.277
-14989.744
-11530.045
-8638.479
-3854.716
899.98292
6214.6296
7959.5538
12466.392
12410.71
8310.2844
13226.452
7754.1239
11086.819
9686.4212
8015.3752
9793.3899
7728.9087
7825.8288
9026.5827
5998.0478
8019.9703
6314.5008
6446.2575
6040.6587
5608.6196
5451.0242
4892.0164
4571.4576
4043.6454
3713.5756
2999.023
2228.9856
1149.3049
1694.8346
1246.7565
1165.1733
851.14354
1094.6934
782.93637
937.2823
1392.0269
1559.3499
2218.4432
3182.9555
3581.7753
5631.5704
6258.1485
8347.7364
9676.5122
11874.947
13339.846
16408.153
16874.79
17237.617
28653.414
16135.241
20841.891
13802.157
18300.698
14277.901
14863.854
12570.506
13115.083
10860.511
10022.713
10887.825
8482.6595
10010.858
7596.6514
8899.0393
7646.9874
7652.2961
6882.0431
6144.5087
5153.2722
3964.2886
2643.205
844.98062
-729.39172
-1667.5721
-3999.5785
-5095.0867
-6950.875
-7975.3418
-9710.1302
-11237.266
-12406.664
-13372.182
-14313.805
-11802.814
-13212.333
-11433.54
-10150.421
-6018.1118
-2418.9118
2158.9423
6973.7797
12044.505
16820.512
21184.447
26176.733
24293.604
19903.48
19361.544
18273.099
18042.878
16627.997
16940.057
19623.968
19908.788
17253.465
16899.288
15699.265
15408.686
15310.398
17806.446
19047.82
18944.613
17974.91
17511.182
16880.359
16395.197
16835.619
16552.755
16047.036
16012.412
15056.098
14397.75
13129.221
15206.469
15835.797
17064.152
15735.683
15891.359
14730.979
13787.778
14264.308
14252.305
13669.441
14125.964
13390.644
12747.021
12732.671
12756.669
12381.513
13542.616
12421.454
12254.039
12074.542
11080.654
11446.006
11422.807
11344.23
11052.452
11365.029
10163.947
10544.14
10057.892
9986.3394
10033.217
10301.376
9450.315
9810.6492
9094.1708
8795.7715
8305.8671
8846.3561
7909.7339
8421.1131
7810.2818
7894.2362
7104.0104
7658.1947
7348.9058
7600.1901
7547.3132
7388.3993
7342.6439
6349.733
5651.1769
6471.7681
5385.3733
5891.3865
5404.141
5646.7211
4851.0151
5049.3872
4895.9359
4858.9074
5188.3566
4867.1334
4799.1945
3917.6355
3506.4178
4449.0191
3411.4181
4277.1648
2967.1537
3749.2389
2703.0893
3066.9081
2379.396
2593.0854
2440.5547
2939.0632
2443.6756
2301.7755
1958.4335
2202.5727
2181.4281
2263.8935
1744.9019
1580.5102
1086.2398
1027.664
1075.98
1036.7571
1050.7752
894.5863
967.09611
578.47987
528.43197
744.80909
605.18859
794.4821
780.28867
456.21411
229.98877
33.705068
103.84559
56.285396
347.74916
-40.978787
-195.18427
-210.64752
-241.39511
-98.699998
-17.007013
-7.7689533
-144.72321
-190.36561
-82.094309
-304.44657
-76.895742
-246.0559
-72.980795
-304.65109
-448.30823
-118.54251
-326.72665
-0.97554019
-100.33509
46.577296
-172.63841
-198.43235
299.60206
34.110321
478.4817
196.30634
347.1401
-111.56113
73.089061
582.77105
187.13089
844.91669
591.35086
748.55912
388.17448
622.5636
1305.5061
727.91891
1411.4271
1186.9645
1291.1184
675.43842
1098.9439
1732.0763
1127.1206
2072.4933
1551.101
1878.1499
1207.4562
1957.7977
2644.5395
1907.8574
2952.6478
2573.9229
2680.2086
2306.0857
2948.6299
3814.9313
3103.0638
3643.4273
3637.7823
3708.9926
2952.8112
4057.3181
5098.429
3802.2297
5512.0734
4897.6877
4945.6196
4424.6013
5720.0075
6597.4971
6020.1897
6626.7314
6186.3673
6600.9791
5825.9237
7335.2884
8501.2544
7208.5153
8355.9005
8229.1509
8271.5335
7411.2126
9319.6064
10121.95
9230.1683
10235.124
9805.2253
9777.5001
9202.6594
11316.227
12104.257
11159.409
11989.35
11803.865
11877.982
11247.483
13684.419
14071.952
13094.687
13902.269
13782.377
13654.18
13288.694
15290.381
15908.967
15002.615
15651.816
15508.479
15406.051
14296.867
17569.795
17501.874
16601.036
17197.007
17208.977
16780.692
17318.837
19171.976
18793.113
18152.977
18431.435
18549.752
18771.012
17350.384
24792.017
20119.348
21831.955
22367.841
22560.333
21864.41
22531.176
21673.726
21204.035
20776.607
20607.776
21076.585
20398.516
20201.594
23792.652
22320.692
21618.378
21158.202
22043.546
21053.708
21647.473
24063.433
22549.037
22019.382
21693.543
22503.039
21642.717
22014.489
24601.544
23272.028
22696.333
22182.795
22993.842
22078.132
22764.831
24785.607
23046.773
22738.402
22171.918
23166.493
22357.145
22997.482
24500.267
22739.101
22039.307
21872.17
22522.452
21740.72
22445.416
24084.376
22997.021
22823.815
22475.869
23126.517
22571.158
23728.813
23930.467
21248.196
20689.005
20651.066
21118.155
20887.696
21113.303
21136.002
22794.428
22589.664
22467.602
22715.007
22520.222
22717.993
22954.647
9459.1073
6884.1881
5998.6642
5568.5016
5066.6422
5089.7487
5057.9713
9779.2454
11064.055
9683.7115
10024.798
9538.22
9284.0462
8748.5762
8694.091
8670.1982
8523.1156
7743.1338
7783.2721
6741.9438
7088.6229
8076.662
8814.5398
9076.5985
8986.6932
8185.4168
7896.5429
5776.5946
8071.2436
8059.9488
9018.333
8115.0433
8683.6706
7197.9558
7161.5625
7302.5957
7356.5212
6461.015
6483.9466
5516.7112
5467.2592
5029.4875
6837.0224
6553.9506
7466.8979
7032.8734
7031.7569
6636.5753
5363.0684
6254.6958
6317.0567
5275.2317
5422.4949
4952.0775
4363.1326
4393.9409
5592.0681
5046.4123
5332.1856
5348.1322
4497.5731
4783.7382
3976.035
4933.1086
4731.9241
4476.8288
4169.0605
4257.7559
3745.2927
3627.674
4246.8825
3919.1794
3745.1086
3988.8675
3103.5397
3147.3645
2618.8692
3549.8016
3436.0643
2862.196
2986.2203
2703.455
2571.4762
2388.9635
2951.8438
2663.3688
2654.5112
3112.2165
2303.793
2391.7612
1513.7771
2193.4053
1728.2229
1973.5579
1544.9823
1353.9654
1147.4863
1289.3778
1879.0285
1527.1426
1622.8546
1425.0454
1811.2338
1060.1915
974.8278
1448.7039
415.2055
1119.5134
585.02027
923.22622
148.22279
306.80749
725.34251
627.77339
772.34303
474.9833
799.00367
234.05381
527.23997
840.70448
179.98884
443.45855
278.61412
539.70981
-9.1589706
127.86448
391.55848
111.19214
390.54516
138.97763
553.50054
-107.18993
234.85017
667.16663
272.40034
412.49066
410.69059
573.97045
53.627415
496.27214
623.85313
421.13284
676.27251
506.7914
842.72886
580.72106
833.27223
1165.7959
1268.0916
1173.1523
1166.8637
1583.9067
1010.7461
1515.3319
1795.7804
1774.8617
1734.6522
1930.2275
1921.833
2043.6022
2421.2332
2937.4882
2967.3949
2955.8445
2733.5013
3111.5894
3422.6155
3697.4182
4172.7326
4218.5664
4115.2308
3859.0644
4366.2043
4476.0959
4660.7968
5998.45
5866.0553
5800.2571
5789.5221
5570.4974
6193.5805
7014.5174
7813.6635
7767.9392
7461.7661
7073.7787
8194.0325
8460.0693
8812.0648
10502.897
8807.6034
9645.7962
9520.9361
9655.0391
10525.975
10643.832
11903.303
12116.9
11948.748
11274.999
11734.913
12997.199
12660.2
14543.998
14062.045
13666.269
13589.718
14120.516
15273.224
14922.998
16742.446
15973.182
15937.604
15958.314
16053.952
17551.271
17265.36
18899.51
18294.611
18145.444
18018.044
18246.808
20116.242
19613.125
21225.563
20085.161
19935.295
19984.325
20292.658
22172.567
21408.112
23075.316
21698.091
21705.075
21847.036
21881.102
23598.329
23424.126
24705.409
23038.472
23120.61
23253.033
23192.581
25905.439
25377.54
26166.385
24053.596
24158.99
24356.783
24662.809
26283.979
25932.679
27251.203
24845.812
24943.957
25477.149
24567.796
27762.004
27041.46
27678.766
24687.351
25177.737
25612.161
25528.589
28004.813
27223.623
28113.648
24945.767
25561.332
25543.079
25370.342
27239.551
27300.118
27455.131
23588.114
24791.717
24403.997
24778.003
26728.31
26625.685
27067.314
23660.701
24781.011
24457.89
24561.496
25820.398
25624.204
25048.012
21437.539
22627.776
22049.564
22321.553
23587.708
24032.577
24139.344
21183.822
22094.485
21869.605
22100.337
22895.206
22701.888
20982.725
18077.293
18865.756
18478.988
18420.445
18845.902
19371.941
20171.41
18178.824
18527.726
18413.007
18549.451
19248.908
18879.986
14892.2
12592.702
12953.073
12642.076
12809.8
12385.223
12091.626
14207.69
13760.435
13084.845
13159.965
13169.851
13414.864
13934.953
4050.6088
3483.4216
2905.6778
2740.4983
2438.9868
2366.7347
1883.5352
1734.4649
2184.9653
1578.9622
1648.8577
1447.8096
998.93416
1091.2324
3819.4467
3705.855
3521.7116
3293.0537
2851.56
2508.5649
2314.9559
1799.2486
2083.9716
2765.1448
3085.5141
2658.0581
2617.8057
1486.3241
3686.0821
3723.2086
3873.3021
2759.9207
2691.1649
1563.0021
2135.3774
2182.3992
828.54632
1037.7717
1364.3284
1092.3541
1215.5534
687.64186
2894.8919
2201.628
3319.0763
2969.7193
3252.8939
2339.3782
2292.2985
2493.0249
1285.6156
1063.6544
578.29456
165.75808
430.846
202.33137
2033.1748
1254.531
2005.8216
2044.2692
2568.2387
2077.7218
1635.5395
2468.1913
1417.4649
1189.1452
982.61315
377.54988
487.9674
175.05419
1833.8482
777.46176
1183.0227
862.07313
1310.4378
1044.083
840.5111
2003.277
1059.3753
978.07167
1022.5617
904.69056
875.94211
410.15204
1905.0011
331.99376
1089.4168
782.73947
1087.7724
767.48206
1226.7576
1405.5821
1283.0635
1385.7337
791.60776
1336.6955
1106.3626
968.14422
1489.7659
949.5196
1107.3833
1247.404
815.95118
1095.4122
1114.5589
1114.4028
1227.2116
1418.6536
1296.0927
1281.268
1071.8822
1602.729
1579.4271
1155.6521
1491.2792
1670.6678
1142.2398
1387.352
1490.652
1514.3085
1081.7014
1873.0681
1509.9045
1461.759
1603.442
1922.7778
1953.8159
1516.7943
2039.9518
1980.2816
1647.8266
1804.7434
1961.7788
2193.0264
1468.2698
2351.2412
2097.4113
1875.3785
2243.638
2487.8016
2864.0643
2130.3385
2843.2432
2591.6808
2457.9135
2492.0741
2834.6433
3579.0541
2307.9195
3175.038
3052.2519
2664.4723
3004.7362
3468.3478
4401.3606
3027.2899
4087.9393
3311.6488
3656.489
3518.9586
4215.8984
5442.2585
3656.9394
4544.0928
4200.0415
4575.8795
3931.3604
4675.1066
6573.6732
4314.593
5541.8574
5256.3864
5491.1457
4605.6625
6195.3688
7836.041
5233.9998
6630.1922
5679.9141
6292.2298
5559.2866
6342.4192
9741.9968
6290.6428
7511.6933
6714.5556
7955.3007
6205.0822
8272.5587
10924.556
7454.1213
8496.0608
8271.6149
8738.2443
7143.0109
9242.9278
12784.855
9085.6664
10330.263
8930.478
10446.507
8208.1413
10767.169
14531.927
10003.755
10832.511
10237.568
11577.351
9028.03
12001.164
16057.507
11449.507
12611.98
11847.157
13015.609
10458.333
13501.761
17805.22
12848.403
13766.686
12728.725
14079.149
11447.497
14388.352
19216.798
14055.829
14826.181
14061.629
15326.031
12358.369
15643.772
20521.532
15184.62
16063.205
15065.38
16177.865
13779.917
16651.901
21643.234
16297.039
16919.206
15810.601
17224.189
14312.86
16946.096
22464.728
17004.068
17695.199
16661.071
17665.437
15351.413
17697.235
22884.231
17575.878
18209.661
16941.49
18463.307
15619.591
18043.573
22946.669
17740.077
18590.377
17294.11
18474.616
16205.621
17704.673
22401.052
18254.834
18390.393
17526.94
18288.911
16278.176
17755.98
21947.52
18021.556
17850.49
17521.217
17975.974
16774.135
17149.038
20691.022
17813.612
17279.691
17210.083
17334.52
16027.545
16220.392
19714.803
16828.466
16321.464
16494.319
16249.676
16163.136
15611.699
17999.352
16186.731
15579.568
15871.046
15654.611
15496.819
13908.309
15995.09
14219.649
13664.988
14214.396
13418.751
13894.723
12667.359
14612.852
13516.28
13164.667
13639.011
12880.842
14385.789
11682.221
10780.858
9938.3195
9955.2574
10297.951
9776.7653
10371.818
7996.0442
8394.6937
8199.8773
7911.6991
8213.3645
7887.0505
8653.745
8373.4105
1545.7919
1730.3947
1403.1915
1517.1521
1344.1336
1394.4359
561.37746
777.2557
1793.5022
2154.2167
2724.0449
2723.8012
2780.7621
2602.5168
958.93774
509.35622
344.81136
335.48549
366.37909
299.0655
-205.88163
1689.8497
2646.0544
3510.0993
3833.5208
4126.6557
3886.807
3321.7496
987.78173
357.85263
-76.72727
-818.45169
-933.22395
-919.23699
-510.2099
2346.2851
2005.8971
2470.2048
2766.7252
3049.3711
3009.8525
2871.7944
1292.7333
546.75505
-280.75988
163.75289
-408.36455
-429.89364
72.514002
2364.721
1680.1503
1724.33
1740.5946
1729.3027
2301.715
2226.9067
2192.9294
1425.8695
1049.8148
697.19321
1347.2827
519.43789
1524.6897
2231.0982
1572.2861
1016.9615
1183.4071
976.395
1640.6772
1931.692
2499.8728
1039.3021
2260.5869
1206.7217
2345.5035
1820.1788
1977.5976
2565.2628
1905.3287
1882.2472
653.26262
1744.6922
1445.4527
2797.4849
2919.1254
1213.5996
1705.7652
1674.0745
2684.6091
2099.2439
1778.0424
3012.1786
1625.4813
1132.7874
992.36755
1848.3382
1597.5782
2214.3597
1714.0865
1416.1097
2714.0493
919.15711
2607.708
1609.6268
1980.6156
2090.2626
1530.6793
2508.0173
1474.5444
2062.2631
1684.4951
2291.4009
2096.22
1593.6754
2652.9829
1507.749
2452.1965
2163.3888
2745.6273
2460.3472
2164.7158
2953.1339
1868.6294
2587.4185
2041.6986
2882.1779
2367.405
2140.8006
3017.522
1875.2012
2853.3801
2501.2765
3223.8765
2806.6001
2694.7176
3346.8116
2260.2756
3219.5386
2423.7687
3368.6538
2896.9322
2631.289
3451.7894
2519.1553
3181.2037
2896.0846
3658.0375
3274.716
3126.0586
3886.9414
2605.751
3632.1972
3145.2639
3829.9657
3677.6078
3403.5074
3531.837
3396.5774
3727.0563
3498.5632
3850.457
4139.0029
3430.3583
4108.6295
3824.057
3652.3267
3838.1759
4519.3405
4680.9911
3675.5544
4628.414
3557.2856
3519.9411
4418.0583
3996.8878
5563.7632
4089.7229
4618.8059
4101.5025
4073.1626
4657.6567
4798.7672
5660.0519
4169.0474
4972.0686
4751.4063
3944.7158
5287.2659
4427.1551
6358.7826
4436.9917
5547.3195
4753.265
4533.306
5646.5329
4725.8715
6973.3741
4741.2181
5449.1395
5338.7823
4094.4357
6003.843
4736.3414
7190.6677
4706.9922
5645.9658
5472.7529
4680.2871
6712.958
4859.3998
7663.4439
5069.5186
6007.9011
5932.72
4725.0804
6850.487
4846.3976
8047.4842
5189.6196
6004.1968
5985.8493
4718.8911
7287.6885
4807.1779
8270.7938
5171.5388
6214.3692
6297.8275
5156.649
7870.2357
4953.025
8619.7197
5423.7593
6408.2991
6510.7321
5246.5735
7911.7942
4623.6029
8660.6908
5415.862
6398.9087
6642.3825
5429.6543
8268.1121
4735.6407
8816.6991
5493.383
6463.286
6776.1908
5828.0573
8272.0014
4684.648
8866.3145
5633.2917
6464.2085
7129.8393
5591.3496
8513.8093
4399.3714
8575.5933
5550.4438
6582.2152
6856.1294
6013.6631
8340.5124
4517.5307
7886.3849
5870.9731
6599.5624
7062.3695
6229.6368