/*--------------------------------*- C++ -*----------------------------------*\
  =========                 |
  \\      /  F ield         | OpenFOAM: The Open Source CFD Toolbox
   \\    /   O peration     | Website:  https://openfoam.org
    \\  /    A nd           | Version:  6
     \\/     M anipulation  |
\*---------------------------------------------------------------------------*/
FoamFile
{
    version     2.0;
    format      ascii;
    class       pointVectorField;
    location    "1.62";
    object      lm;
}
// * * * * * * * * * * * * * * * * * * * * * * * * * * * * * * * * * * * * * //

dimensions      [1 -2 -1 0 0 0 0];

internalField   nonuniform List<vector> 
3969
(
(-4.0340813e-15 -4.7705825e-17 1.3312818e-16)
(9.2297575e-16 -2.6090405e-16 -6.0252577e-16)
(4896.9828 1486.6147 10.864518)
(5305.5484 589.15716 -62.574288)
(-7.1783695e-15 2.6020842e-15 -1.0366567e-15)
(-4.622429e-15 2.1493156e-15 -1.5432914e-15)
(5390.471 579.76867 -62.47733)
(4978.8918 1477.338 10.824723)
(-6.09887e-15 1.0869625e-16 -2.0095736e-16)
(-3.193382e-15 6.5333688e-16 6.3735029e-17)
(-2.9260211e-15 2.9260844e-16 -4.8432863e-17)
(-1.7497804e-15 -1.5755452e-16 -2.074758e-16)
(-4.3254872e-15 8.6218995e-16 7.3228779e-16)
(-2.4697388e-15 -4.9707839e-16 4.8086129e-16)
(5.2680668e-16 -4.7467027e-16 -5.3018058e-16)
(4698.9783 1308.6315 1.9184042)
(4544.1464 1153.1181 -6.2132846)
(4629.8034 1061.3468 -14.550815)
(4925.1941 1009.6392 -24.201166)
(5275.7932 955.10872 -35.238096)
(5493.0564 864.53411 -46.196861)
(5469.5789 732.9599 -55.403366)
(30.276496 75.259673 76.17232)
(54.392993 117.75482 91.624843)
(101.87102 157.80937 94.0724)
(160.64084 198.19219 91.244928)
(230.18091 233.64694 84.202843)
(307.4608 268.5189 76.624814)
(391.32588 298.2548 68.445938)
(480.56782 327.4117 60.088718)
(573.94759 352.11385 51.96411)
(670.97068 376.68486 43.437569)
(770.92491 398.81312 34.937627)
(873.13711 420.49378 26.353528)
(977.48565 441.68072 17.374434)
(1083.32 463.38463 8.3506394)
(1190.8696 485.38304 -0.74444329)
(1299.5809 508.81112 -10.093632)
(1409.5984 533.53291 -19.080753)
(1520.7763 560.04518 -27.947267)
(1633.1757 588.32404 -36.353387)
(1746.8026 618.71998 -44.304159)
(1861.6881 650.96043 -51.531051)
(1977.774 685.21903 -57.974561)
(2095.0713 721.04523 -63.444231)
(2213.386 758.45975 -67.843733)
(2332.769 796.72374 -71.024411)
(2452.5535 836.13326 -72.894953)
(2573.0187 875.53807 -73.422894)
(2693.5715 915.01355 -72.665362)
(2813.991 953.95372 -70.52175)
(2933.8995 991.91292 -67.345493)
(3052.976 1028.6679 -63.112589)
(3170.9212 1063.8585 -58.156381)
(3287.3696 1097.2673 -52.690796)
(3401.9508 1128.9021 -46.98098)
(3514.5851 1158.5387 -41.146976)
(3624.7094 1186.3306 -35.597532)
(3732.3261 1212.521 -30.162388)
(3837.3942 1236.8871 -25.18964)
(3939.588 1260.2675 -20.731739)
(4039.048 1282.1458 -16.400189)
(4136.072 1303.5375 -12.635846)
(4230.3207 1324.1557 -8.8925208)
(4323.1949 1344.3743 -5.5930648)
(4413.5254 1364.8695 -2.1994553)
(4503.613 1385.0044 0.96209715)
(4592.4541 1405.7586 4.2020945)
(4677.888 1425.5986 7.3995689)
(28.458825 -72.126403 -92.716862)
(93.691576 -125.51832 -79.864758)
(152.57686 -174.28726 -82.72384)
(221.52955 -215.12521 -74.938759)
(308.31418 -254.11826 -65.644899)
(397.49453 -283.7243 -57.301602)
(495.56186 -307.88039 -49.465327)
(596.98343 -325.06882 -43.5241)
(700.98745 -336.39502 -39.439623)
(806.52906 -342.14998 -37.763653)
(912.40709 -343.65034 -37.964892)
(1018.2736 -340.49196 -40.750777)
(1123.2953 -334.21398 -45.463418)
(1227.8143 -324.73924 -52.003301)
(1331.617 -312.95856 -60.101451)
(1434.8791 -298.7109 -69.513916)
(1538.1773 -282.99452 -79.760746)
(1641.5677 -265.39062 -90.574096)
(1746.0812 -246.78752 -101.45577)
(1851.5707 -226.51084 -112.17252)
(1959.2529 -205.55365 -122.2522)
(2068.7838 -182.95172 -131.5656)
(2181.3774 -159.6899 -139.58101)
(2296.4826 -134.89837 -146.33618)
(2414.98 -109.30585 -151.51853)
(2536.5888 -82.430076 -154.96971)
(2661.2974 -54.528889 -156.64225)
(2789.2264 -25.758858 -156.54123)
(2920.0348 4.0206165 -154.78443)
(3053.1108 34.469278 -151.40722)
(3188.2839 65.610081 -146.76656)
(3324.9018 97.1786 -140.95871)
(3462.3237 129.07644 -134.4205)
(3599.9693 161.1689 -127.33301)
(3737.0665 193.33182 -120.16857)
(3873.0658 225.37267 -113.00793)
(4007.2382 257.40175 -106.15173)
(4138.8717 289.02422 -100.11502)
(4267.4864 320.50821 -94.433882)
(4392.9314 351.69381 -89.483298)
(4514.5749 382.32772 -84.993263)
(4632.4085 412.53069 -81.241936)
(4746.2136 442.36443 -77.739439)
(4856.0717 471.61188 -74.598088)
(4962.0912 500.37763 -71.553566)
(5064.4576 528.61281 -68.411844)
(5180.982 558.34188 -65.509843)
(-3.9179893e-16 -2.8384427e-17 -1.6191597e-16)
(6.8869455e-16 3.3255846e-16 -2.9305012e-16)
(-3.0379221e-16 -4.0639439e-16 3.7376104e-16)
(8.6048107e-16 -8.7588792e-17 1.0515471e-16)
(5.0258192e-16 -7.4376592e-16 6.4035694e-16)
(-2.9679417e-15 -3.4669267e-16 7.3060073e-16)
(8.9003905e-16 -2.834795e-16 1.0120244e-16)
(51.670813 -48.476092 74.532038)
(103.07254 -146.22835 87.27393)
(153.686 -159.24005 79.523589)
(232.3627 -217.41624 79.15455)
(316.34093 -246.14236 70.545686)
(405.40984 -272.68885 61.903226)
(506.96144 -292.82365 52.721239)
(605.76623 -302.99964 43.153252)
(715.01361 -309.66294 32.428107)
(820.19439 -308.9458 22.333421)
(929.32747 -303.61989 11.191376)
(1038.1913 -294.10792 -0.66928204)
(1147.9621 -282.57392 -12.750272)
(1256.9912 -267.49143 -25.278885)
(1366.5662 -252.14326 -37.707444)
(1475.7204 -234.41289 -50.497714)
(1585.7764 -217.14695 -62.906069)
(1696.0983 -198.58585 -75.21656)
(1807.807 -180.72349 -86.894836)
(1920.6783 -162.14936 -98.09382)
(2035.497 -144.15887 -108.30653)
(2152.1703 -125.68439 -117.70129)
(2271.2661 -107.41069 -125.86783)
(2392.4899 -88.599432 -132.86169)
(2516.3726 -69.628298 -138.39963)
(2642.4418 -49.775651 -142.60313)
(2770.7321 -29.726648 -144.89515)
(2900.8343 -8.2031042 -146.0496)
(3032.7373 14.06277 -145.43103)
(3165.8318 37.742246 -143.55049)
(3299.7519 62.652399 -140.40997)
(3434.1077 88.918685 -136.21348)
(3568.3303 116.48128 -131.18467)
(3701.925 145.34362 -125.62419)
(3834.5159 175.29582 -119.82805)
(3966.1899 206.34875 -113.68033)
(4096.1484 237.75103 -108.3821)
(4220.8852 269.78313 -102.19002)
(4344.7285 302.00113 -97.175945)
(4465.4649 334.21031 -92.171423)
(4582.6308 365.95462 -87.543507)
(4696.4547 397.37172 -83.29692)
(4806.6431 428.00659 -79.241844)
(4913.2557 458.02639 -75.450668)
(5016.4918 487.18996 -71.778163)
(5116.3461 515.7027 -68.280928)
(5195.0902 541.61886 -64.678201)
(5570.6967 725.33073 -55.200353)
(5570.6661 853.16018 -45.941712)
(5316.8154 938.05146 -34.996733)
(4927.0123 985.45872 -24.137428)
(4674.0003 1045.9241 -14.872919)
(4630.036 1147.8758 -6.7623903)
(4820.9214 1312.1356 1.7261082)
(4788.7913 1425.6909 8.0101156)
(4713.985 1408.5429 5.5347175)
(4624.1512 1386.8385 3.2765336)
(4533.0574 1365.0761 0.91756863)
(4440.6536 1342.9706 -1.6331993)
(4346.2621 1320.4242 -4.4961792)
(4249.4647 1297.2332 -7.8642746)
(4149.95 1273.2248 -11.8007)
(4047.3668 1248.2806 -16.509917)
(3941.6346 1222.3609 -22.000238)
(3828.6663 1194.2059 -28.164409)
(3720.8999 1167.4789 -34.947402)
(3605.2274 1138.3506 -42.621997)
(3487.2419 1108.4792 -50.146448)
(3366.8024 1077.9286 -57.943981)
(3244.3871 1046.7646 -65.350476)
(3120.3472 1015.2036 -72.122625)
(2995.3437 983.40399 -77.953076)
(2869.7175 951.49608 -82.448348)
(2744.1221 919.71796 -85.530926)
(2618.9123 888.06945 -86.832975)
(2494.5383 856.85682 -86.450239)
(2371.424 825.96185 -84.192738)
(2249.7663 795.73563 -80.337653)
(2129.8659 766.03413 -74.793427)
(2011.751 737.13488 -67.972351)
(1895.5749 708.75913 -59.939963)
(1781.2228 681.27161 -51.206233)
(1668.701 654.13309 -41.876255)
(1557.7839 627.80117 -32.643807)
(1448.4091 601.51922 -23.509535)
(1340.2294 575.60103 -15.28121)
(1236.559 550.92546 -8.331164)
(1127.877 523.99951 -2.4112796)
(1022.1328 496.57777 1.8333882)
(918.95613 468.94343 3.3011319)
(816.32661 440.54693 2.9796963)
(715.2652 410.73007 0.2533827)
(614.84962 378.69075 -5.7130352)
(519.96749 346.72571 -12.865374)
(427.93279 312.98304 -22.258696)
(336.21234 273.47019 -34.855565)
(257.08714 236.14826 -47.139139)
(179.72216 196.83422 -61.191364)
(115.32696 152.48975 -69.042649)
(65.509299 105.98843 -74.582916)
(52.614221 74.708472 -55.280813)
(-6.7652979e-16 3.5118239e-16 1.2802193e-16)
(-2.3129286e-15 2.7505878e-16 1.3239036e-16)
(-3.6393531e-15 -1.4253491e-16 -1.5464221e-16)
(-4.9195801e-15 -9.3657526e-16 4.6870719e-16)
(-4.0844143e-15 -8.2232132e-16 1.723462e-16)
(-2.0271537e-15 -1.8079967e-16 2.6438577e-16)
(-2.0670014e-15 8.6459225e-16 1.4474963e-15)
(-4.5036838e-15 1.2268482e-15 -2.065022e-16)
(-1.9919023e-15 1.1694967e-15 -1.6367101e-16)
(-2.9438013e-15 1.1112212e-15 -1.969436e-16)
(-2.4504202e-15 9.597151e-16 -1.1789697e-16)
(-5.2893259e-15 2.5926013e-15 -8.0820905e-16)
(-1.8775489e-15 1.1365606e-15 -5.8525306e-16)
(-7.4714327e-17 -2.094137e-16 9.7564992e-17)
(5316.1696 588.10161 -62.400365)
(5326.6206 586.9287 -62.196649)
(5337.2209 585.61251 -62.24775)
(5347.801 584.428 -62.267373)
(5358.4541 583.1894 -62.386603)
(5369.057 582.06434 -62.437838)
(5379.7412 580.96605 -62.496251)
(4907.2885 1485.2012 10.923355)
(4917.5888 1483.7866 10.906941)
(4927.7598 1482.3814 11.028207)
(4937.9837 1481.0356 11.049975)
(4948.1943 1479.7968 11.037328)
(4958.3933 1478.7753 10.999931)
(4968.6618 1477.9758 10.842516)
(6.9263683 46.702123 61.401844)
(35.996449 64.498695 58.842955)
(77.429026 92.975836 67.962033)
(132.12164 118.06115 66.345363)
(197.06462 143.48627 64.293084)
(271.66583 169.54712 60.224806)
(354.07625 194.27337 55.027702)
(442.88293 219.38649 49.69563)
(538.09786 243.15365 43.471192)
(638.28709 266.95886 36.837316)
(743.37656 289.88012 29.755948)
(852.24727 313.04353 21.897636)
(964.86812 336.21939 13.613974)
(1080.4897 359.87246 4.644812)
(1198.733 384.35017 -4.7060409)
(1319.1108 409.76019 -14.341959)
(1441.5238 436.68427 -24.235385)
(1565.2171 464.99279 -34.008542)
(1690.2616 495.11715 -43.575862)
(1816.1659 527.02392 -52.649959)
(1942.8036 560.72693 -60.983017)
(2069.7848 596.07377 -68.393235)
(2196.9234 632.9038 -74.62745)
(2323.695 670.78824 -79.528235)
(2449.915 709.48289 -82.908465)
(2574.9296 748.41725 -84.899568)
(2698.3699 786.96761 -85.089012)
(2819.5971 824.96514 -83.803509)
(2938.3589 861.5909 -81.181791)
(3053.8766 896.61245 -77.299163)
(3165.9563 929.69818 -72.428178)
(3274.1858 960.53146 -66.90646)
(3378.2016 989.15068 -60.973112)
(3477.983 1015.3894 -54.861757)
(3573.3336 1039.5038 -48.910106)
(3664.2666 1061.6091 -43.137776)
(3751.2171 1081.9622 -37.782846)
(3834.2586 1100.8274 -32.876855)
(3913.9228 1118.7339 -28.401802)
(3990.8294 1135.7046 -24.209139)
(4065.6148 1152.4713 -20.496596)
(4139.113 1168.8954 -16.884468)
(4212.3525 1185.8222 -13.654426)
(4285.7667 1203.0185 -10.353524)
(4361.2378 1221.1264 -7.3371669)
(4438.6685 1240.2325 -4.2166393)
(4535.8695 1265.1084 -1.2585107)
(-5.4238158 27.483201 38.218124)
(22.552569 33.333954 40.49124)
(65.88771 54.779808 47.012727)
(119.17183 69.762401 46.470984)
(185.48721 86.925801 45.776034)
(260.80699 104.93915 42.747194)
(344.9115 122.90161 39.97983)
(436.8662 141.89435 35.951814)
(535.99777 160.50294 31.505082)
(641.09182 180.06498 26.320489)
(751.70053 199.54689 20.425154)
(867.02664 219.8642 13.481358)
(986.19491 240.65182 5.7838056)
(1108.5941 262.58887 -2.7934837)
(1233.6122 285.26917 -12.082557)
(1360.4697 309.59795 -22.087785)
(1488.5438 335.05743 -32.349379)
(1617.4398 362.41333 -42.768211)
(1746.6047 391.30447 -53.053815)
(1875.7826 422.14628 -62.823311)
(2004.4775 454.48642 -71.836371)
(2132.4858 488.50506 -79.802395)
(2259.2744 523.71857 -86.470849)
(2384.6596 560.06052 -91.580724)
(2508.054 596.78663 -95.115308)
(2628.891 633.81946 -96.686114)
(2746.9716 670.10679 -96.535044)
(2861.6992 705.80211 -94.878793)
(2972.5078 739.92487 -91.493346)
(3079.2443 772.40431 -86.979267)
(3181.5074 802.82175 -81.478192)
(3279.1137 831.09377 -75.338751)
(3372.0587 857.08289 -68.862457)
(3460.3822 880.98073 -62.385233)
(3544.2602 902.94508 -56.087249)
(3624.2032 923.07397 -50.116923)
(3700.5872 942.03055 -44.700937)
(3774.0808 959.68562 -39.655951)
(3845.5751 977.05505 -35.242882)
(3915.7307 993.70987 -31.120501)
(3985.8814 1010.8691 -27.501142)
(4056.5051 1028.0025 -24.070316)
(4129.3912 1046.1302 -20.919953)
(4204.6834 1065.0969 -17.925848)
(4284.4098 1085.3734 -15.019541)
(4368.5044 1107.1577 -12.15093)
(4464.9392 1132.2311 -9.2321858)
(-8.7779187 12.471103 22.041602)
(23.392366 16.259051 21.267609)
(68.225024 24.101169 26.134077)
(128.89105 32.531191 25.977436)
(202.53133 40.090217 26.286919)
(285.28157 51.064554 25.355202)
(377.9739 60.985642 23.262259)
(476.7314 72.863164 20.90577)
(582.58887 85.368697 17.598117)
(692.77044 98.945821 13.452728)
(807.17633 113.46324 8.1156949)
(924.33209 129.11938 1.8100726)
(1043.576 146.02759 -5.505004)
(1163.9567 164.05812 -13.805397)
(1284.8655 183.62825 -22.780783)
(1405.7349 204.6541 -32.423416)
(1526.2527 227.18937 -42.388531)
(1645.8603 251.44701 -52.49974)
(1764.5434 277.25883 -62.34349)
(1881.9548 304.7104 -71.655612)
(1998.1457 333.60267 -80.158836)
(2112.9921 364.00371 -87.632306)
(2226.6203 395.62358 -93.773598)
(2338.7293 427.98347 -98.47192)
(2449.3315 461.14892 -101.50929)
(2558.4493 494.48475 -103.00567)
(2665.9572 527.91961 -103.02896)
(2771.5669 560.95436 -101.33304)
(2875.3165 593.29066 -98.383372)
(2977.0872 624.61983 -94.295717)
(3076.7746 654.84698 -89.262229)
(3174.5222 683.66525 -83.612132)
(3270.3561 711.21347 -77.621331)
(3364.3898 737.47998 -71.538211)
(3457.0333 762.48579 -65.519381)
(3548.3665 786.62361 -59.833356)
(3638.9823 809.91374 -54.477401)
(3729.2631 832.8149 -49.542528)
(3819.7517 855.48072 -45.107369)
(3911.0116 878.10809 -40.875322)
(4003.6247 901.20473 -37.244023)
(4098.2471 924.49548 -33.532887)
(4195.6268 948.95965 -30.440542)
(4295.935 973.93975 -27.099715)
(4400.342 1000.2843 -24.150525)
(4508.6749 1027.6418 -20.985857)
(4614.6818 1054.7927 -18.014805)
(-10.104395 -0.92803754 2.6206177)
(29.917604 -4.4914934 0.75084399)
(86.195343 -5.9239983 4.0911474)
(158.46136 -8.4554524 4.9812876)
(244.51391 -9.4141906 7.2203528)
(339.15191 -7.8243507 6.6108826)
(441.64411 -5.8683985 7.1129321)
(549.18197 -0.77165223 5.4189917)
(660.6173 5.5363874 3.3482663)
(773.76755 14.030233 -0.46777034)
(887.83364 24.125083 -5.1453103)
(1001.562 36.259701 -11.191188)
(1113.8904 49.699212 -18.257873)
(1224.63 64.952316 -26.122637)
(1333.1036 81.709692 -34.860656)
(1439.4011 100.06933 -43.927301)
(1543.2252 119.64758 -53.246105)
(1644.977 140.86035 -62.396583)
(1744.7182 163.21994 -71.295451)
(1843.0616 187.02563 -79.567914)
(1940.1036 212.08698 -87.176725)
(2036.6863 238.38248 -93.7975)
(2132.7674 265.49467 -99.292983)
(2229.1301 293.84901 -103.54051)
(2325.9726 322.97995 -106.63287)
(2423.7353 352.96063 -108.31136)
(2522.5626 383.37384 -108.52477)
(2622.8892 414.2255 -107.47614)
(2724.9372 445.26494 -105.25539)
(2828.9367 476.42653 -101.87309)
(2935.0535 507.50978 -97.667513)
(3043.4645 538.43127 -92.719703)
(3154.1886 569.1879 -87.345637)
(3267.4082 599.64328 -81.656167)
(3383.0278 629.94467 -75.976111)
(3501.1003 659.98664 -70.351849)
(3621.6144 690.07208 -65.06606)
(3744.3602 720.0354 -60.071067)
(3869.3625 750.17373 -55.475414)
(3996.365 780.48635 -51.327827)
(4125.5859 811.29775 -47.46152)
(4256.3861 842.34717 -43.950816)
(4389.1964 874.08686 -40.643441)
(4523.0819 906.08502 -37.45264)
(4658.9124 938.80832 -34.376853)
(4795.3784 971.92267 -31.340886)
(4916.2388 1002.1706 -28.093471)
(-6.8991541 -14.69605 -20.147478)
(46.745963 -24.766766 -23.032107)
(110.94384 -42.946077 -19.415534)
(195.4042 -55.985722 -16.109322)
(292.38309 -68.612548 -13.506551)
(396.20644 -76.459321 -10.474767)
(507.0915 -81.306293 -9.5080771)
(619.49031 -82.40469 -9.4270265)
(733.38447 -80.507444 -11.038661)
(845.71421 -75.591857 -13.854928)
(956.08255 -67.898431 -18.238859)
(1062.5695 -58.082319 -23.823169)
(1165.5611 -46.174095 -30.363636)
(1264.279 -32.38591 -37.876347)
(1359.2979 -17.082542 -45.873665)
(1450.5231 -0.25539649 -54.168027)
(1538.7666 17.75459 -62.575718)
(1624.3762 37.105361 -70.803132)
(1708.4026 57.461167 -78.731238)
(1791.3735 78.997887 -85.991797)
(1874.2323 101.6023 -92.750888)
(1964.0307 125.43669 -98.71467)
(2057.39 150.71849 -104.06327)
(2144.1666 176.24461 -107.96039)
(2233.6325 202.90631 -110.88334)
(2326.1396 230.32724 -112.56628)
(2422.5159 258.69197 -113.31119)
(2523.16 287.89563 -113.0195)
(2628.4723 317.96842 -111.72216)
(2738.7978 348.72873 -109.47589)
(2854.3571 380.20017 -106.39877)
(2975.302 412.22777 -102.57008)
(3101.5965 444.78934 -98.173211)
(3233.1395 477.80273 -93.351341)
(3369.7133 511.15573 -88.244721)
(3510.9256 544.93279 -83.079711)
(3656.3413 578.94174 -77.96939)
(3805.5249 613.29269 -72.959465)
(3973.5283 650.43908 -68.715976)
(4138.1483 687.30815 -64.400097)
(4296.3353 722.81642 -60.451819)
(4455.0564 758.54673 -56.530217)
(4613.3464 794.48062 -53.081519)
(4770.3845 830.2995 -49.529959)
(4925.6818 866.30372 -46.293576)
(5077.7673 901.93401 -42.801688)
(5210.301 934.47056 -39.221858)
(1.2001375 -30.699813 -45.706768)
(63.621453 -56.660942 -44.271238)
(133.2109 -87.35694 -41.29675)
(222.8427 -113.20647 -37.88079)
(321.35552 -135.02221 -30.92392)
(427.87017 -150.68469 -27.219436)
(538.6915 -161.83272 -23.414289)
(650.9188 -167.58021 -21.887754)
(762.61586 -169.18327 -21.828736)
(871.92544 -166.68895 -23.492813)
(977.7068 -160.81533 -26.943408)
(1079.5095 -151.973 -31.769768)
(1177.025 -140.8506 -38.085479)
(1270.3026 -127.55897 -45.190639)
(1359.7061 -112.73083 -53.052005)
(1445.8748 -96.23531 -61.270906)
(1529.5078 -78.739029 -69.65202)
(1611.4608 -59.914606 -77.907198)
(1692.6744 -40.374284 -85.828078)
(1773.9849 -19.675097 -93.297424)
(1856.3312 1.6301588 -100.19703)
(1944.0062 24.309081 -106.38591)
(2029.3907 47.269342 -111.78586)
(2120.6608 71.650465 -116.23785)
(2213.4368 96.851598 -119.69938)
(2311.0482 123.00601 -122.08471)
(2413.775 150.25755 -123.56517)
(2522.0479 178.55561 -123.89408)
(2636.2465 207.90314 -123.26348)
(2756.6759 238.25617 -121.52904)
(2883.313 269.54098 -118.90425)
(3016.1828 301.69951 -115.34468)
(3155.0015 334.68572 -111.12959)
(3299.5521 368.29129 -106.26528)
(3449.193 402.61131 -101.08018)
(3603.3814 437.30961 -95.644739)
(3761.4408 472.49446 -90.191408)
(3922.197 507.90711 -84.942082)
(4085.3578 543.67103 -79.777517)
(4272.302 582.63327 -75.590965)
(4434.78 618.59659 -71.152025)
(4596.1726 654.44697 -67.141749)
(4755.1086 690.18109 -63.416192)
(4910.4821 725.64818 -59.894432)
(5061.6088 760.79335 -56.465426)
(5207.5204 795.43003 -53.024242)
(5341.4023 828.37228 -49.549586)
(12.597443 -45.385384 -63.844441)
(76.874257 -80.989825 -62.887931)
(143.03522 -126.40839 -63.54742)
(226.87316 -160.91014 -55.329149)
(319.38718 -191.5326 -48.81996)
(420.24881 -215.48362 -41.697795)
(525.85224 -233.14831 -36.258854)
(633.70627 -245.06653 -32.493706)
(742.29485 -251.4363 -30.727952)
(849.55189 -253.21094 -30.943058)
(955.21196 -250.65401 -33.196399)
(1057.798 -244.84456 -37.379444)
(1157.9017 -235.90628 -42.946866)
(1255.0085 -224.53624 -49.876257)
(1349.756 -211.0575 -57.84196)
(1442.3196 -195.80846 -66.535235)
(1533.6121 -179.07267 -75.526376)
(1624.0812 -161.01963 -84.737523)
(1714.7303 -141.79763 -93.699542)
(1806.033 -121.46788 -102.40757)
(1899.0761 -100.03519 -110.39927)
(1994.1281 -77.633429 -117.78239)
(2092.2228 -54.054708 -124.15034)
(2193.7584 -29.613853 -129.45037)
(2299.0702 -3.8983198 -133.81076)
(2408.8737 22.828788 -136.85073)
(2523.0922 50.575541 -138.71061)
(2642.1367 79.373206 -139.22272)
(2766.0205 109.1192 -138.49191)
(2894.7493 139.68504 -136.43781)
(3027.9707 170.9955 -133.33173)
(3165.523 202.98235 -129.16498)
(3306.8789 235.46245 -124.22499)
(3451.5362 268.33457 -118.63447)
(3598.8003 301.50615 -112.68082)
(3747.9076 334.88157 -106.59159)
(3898.1052 368.25086 -100.4485)
(4048.438 401.68269 -94.624918)
(4198.0178 435.04444 -89.236281)
(4346.2885 468.32441 -84.190426)
(4491.7796 501.4406 -79.616203)
(4634.4728 534.24614 -75.454212)
(4773.4932 566.87709 -71.733303)
(4908.2449 599.09931 -68.164194)
(5038.4334 631.03374 -64.844701)
(5163.6429 662.41615 -61.45773)
(5277.599 692.42243 -57.97267)
(-1.8726199e-15 -1.0357256e-16 4.2324109e-16)
(-4.3693994e-15 5.8098526e-16 1.0825799e-16)
(-1.86708e-15 5.0203615e-16 5.7484399e-16)
(-1.1298519e-15 4.4303811e-16 -1.5186772e-16)
(-1.5283164e-15 1.7502349e-16 4.7144117e-17)
(-3.9278597e-15 -6.147074e-18 -1.0233878e-17)
(-3.270765e-15 8.5080195e-17 2.8271762e-17)
(-1.444637e-15 3.1767481e-17 -1.0328492e-16)
(-1.9600489e-15 -2.0641393e-16 2.5996682e-17)
(-1.0758982e-15 -5.0887233e-16 -1.6282415e-16)
(-1.1902312e-15 -6.3217422e-16 -1.0496995e-16)
(-2.2455722e-15 -1.0363924e-16 3.7607835e-16)
(-1.7254929e-15 1.2766475e-16 7.9907906e-17)
(-6.542485e-16 2.4659353e-16 4.7610311e-16)
(-1.0183069e-15 2.0413811e-16 3.0876606e-16)
(-1.2825224e-16 3.2154578e-16 2.6910031e-16)
(-2.4669526e-15 5.8726168e-16 -3.2350189e-17)
(-1.9694108e-15 5.8752001e-16 2.9593509e-16)
(-1.9972486e-15 5.0741204e-16 1.6376266e-16)
(-5.0142844e-16 5.9082617e-16 -1.5096731e-17)
(2.8672985e-17 2.0007103e-16 -2.079567e-16)
(-3.5598279e-15 1.6770216e-16 6.1584209e-17)
(1.5219227e-15 -3.8112137e-16 -3.4960392e-16)
(-8.8364966e-17 -1.5289127e-16 1.7491834e-16)
(2.7397895e-16 -2.6900304e-16 -2.0413732e-16)
(-5.1236454e-16 -3.7600259e-16 -4.411389e-17)
(-1.3114086e-15 -5.3747975e-16 1.2489795e-16)
(2.0041989e-16 -4.4379834e-16 -1.4360784e-16)
(-1.3448657e-15 3.3966264e-16 -2.7012678e-16)
(-2.2010094e-15 1.2158219e-16 1.1470551e-16)
(-1.2722141e-15 -2.3577892e-16 -7.7366055e-17)
(-2.6936153e-15 2.298542e-17 6.0151854e-16)
(-1.8084585e-15 2.5926424e-16 8.2177642e-17)
(-1.0121806e-15 3.7760621e-16 1.5728837e-17)
(-3.5076342e-15 -1.049112e-16 -1.8966684e-16)
(-1.2388067e-16 -2.746004e-16 -1.3203227e-16)
(-1.1077126e-15 -2.2449831e-16 5.9960705e-17)
(-7.9462407e-16 5.2806017e-17 1.8160622e-16)
(-1.481116e-15 2.6347307e-16 -6.003674e-17)
(5.3541372e-16 1.9494005e-16 5.7756958e-17)
(-2.5861876e-15 -7.0653702e-17 -1.8824779e-16)
(-1.6152529e-15 1.8241927e-16 3.8488004e-16)
(-1.0389662e-15 3.299921e-17 2.9700946e-16)
(-3.8817577e-15 -1.9427146e-16 -1.2145786e-15)
(-1.6161979e-15 2.8442108e-16 -1.856842e-16)
(8.1577518e-16 1.8112067e-17 2.0819295e-16)
(-2.485062e-15 2.8178417e-16 -5.4749215e-16)
(-1.8307085e-15 4.4562511e-16 -1.4619564e-16)
(-1.4586292e-15 4.0358521e-16 -4.0281137e-16)
(54.423746 -28.006608 -45.137012)
(61.511469 -34.427268 -28.806974)
(69.168844 -35.048509 -14.006805)
(72.388627 -37.167565 -1.6808575)
(71.002417 -34.082045 10.33304)
(69.925851 -35.230021 22.521368)
(60.66618 -28.26476 38.554125)
(116.12777 -129.92514 -62.107873)
(129.58693 -135.32116 -33.669088)
(134.5245 -126.19254 -14.058581)
(135.25102 -121.67288 1.8343776)
(137.40659 -127.10383 16.272573)
(129.9913 -127.48917 35.266039)
(122.81614 -130.17043 60.476837)
(163.60894 -164.01173 -57.293199)
(177.43673 -157.40928 -38.817066)
(186.67882 -159.18413 -16.7398)
(189.2256 -158.27149 3.0873257)
(187.61091 -156.23159 22.21208)
(182.28548 -157.54898 38.908758)
(175.59079 -166.263 64.100923)
(242.31152 -218.59281 -54.478638)
(254.39374 -217.98634 -35.585922)
(260.80098 -214.63354 -13.857697)
(263.86217 -212.36069 3.166952)
(262.95134 -212.35208 21.169062)
(259.25061 -215.38652 41.422986)
(247.71881 -216.00726 59.34572)
(321.54328 -253.62938 -46.379811)
(331.47159 -249.67402 -30.120324)
(339.44426 -247.39011 -12.748835)
(341.97319 -245.68627 4.6258777)
(341.71603 -245.49602 21.121312)
(337.08532 -245.33497 37.383562)
(330.5226 -249.13301 55.28049)
(410.76198 -283.69042 -40.637421)
(420.54947 -281.76008 -25.867638)
(426.80219 -278.47913 -9.8594568)
(430.08854 -276.55674 4.800318)
(429.45697 -275.76009 19.319835)
(428.0028 -276.26454 35.19755)
(418.98384 -276.7163 48.755827)
(507.68741 -307.20146 -35.079467)
(514.94581 -303.67422 -21.718363)
(521.20965 -300.70979 -8.4983578)
(523.436 -298.21827 4.067164)
(523.28266 -296.72545 17.192262)
(520.52109 -295.88232 29.10266)
(516.42777 -297.21851 41.507541)
(605.88095 -322.48978 -30.979734)
(613.624 -319.46581 -20.342706)
(619.664 -315.74874 -8.6445503)
(621.80154 -312.81919 1.8090158)
(622.9191 -310.93191 12.735189)
(620.65448 -309.14122 23.939472)
(616.10426 -308.25121 33.853068)
(709.85116 -333.18289 -29.114352)
(715.68623 -328.86896 -19.233562)
(719.53669 -324.23627 -9.7325)
(723.05337 -321.29207 -0.7366725)
(724.18899 -319.09871 8.1836991)
(722.96393 -315.9306 16.97353)
(720.4641 -315.53607 25.290509)
(813.09801 -337.23278 -28.792271)
(819.13881 -332.55853 -21.232623)
(824.18105 -327.79662 -12.762108)
(826.47159 -323.99206 -5.1469128)
(827.80105 -320.54683 2.459838)
(827.56896 -317.54886 9.5310083)
(825.67969 -315.0998 16.686733)
(918.69906 -337.52895 -30.746665)
(923.85261 -331.9777 -23.927824)
(928.30444 -326.87109 -17.296316)
(931.05058 -322.02636 -11.177139)
(933.13333 -318.37375 -4.8380729)
(933.4178 -314.02853 0.91040944)
(932.80334 -311.06358 6.8000395)
(1023.7608 -333.14566 -34.643562)
(1028.7744 -326.68787 -29.212084)
(1032.928 -320.5907 -23.668291)
(1036.0537 -315.60073 -18.49369)
(1038.4884 -311.13591 -13.377415)
(1039.4168 -306.38484 -8.5243038)
(1039.9177 -302.4976 -4.3282679)
(1128.9476 -325.83144 -40.628237)
(1133.7089 -318.70707 -35.887912)
(1137.9772 -312.44329 -31.458662)
(1141.6275 -306.81921 -27.259179)
(1144.4206 -301.57089 -22.802757)
(1146.4466 -296.60762 -19.067925)
(1147.631 -291.15442 -15.596888)
(1233.4553 -315.24706 -48.026152)
(1238.1727 -307.60248 -44.112351)
(1242.8108 -300.52111 -40.584328)
(1246.5459 -294.36462 -36.814289)
(1250.1404 -288.75515 -33.460724)
(1252.6539 -282.75917 -30.264185)
(1254.8458 -276.87702 -27.590628)
(1337.6679 -302.52609 -57.009572)
(1342.898 -294.50534 -53.763703)
(1347.5526 -287.09237 -50.833093)
(1352.2142 -280.94598 -47.752807)
(1356.114 -274.52399 -44.856476)
(1359.6084 -268.3257 -42.066008)
(1362.5295 -261.51201 -39.749413)
(1441.7154 -287.70393 -67.079845)
(1447.1375 -279.31717 -64.189319)
(1452.4087 -271.69803 -61.899909)
(1457.458 -264.81083 -59.098664)
(1462.0861 -258.20102 -56.635331)
(1466.2134 -251.35045 -54.231678)
(1469.9406 -244.34886 -52.291293)
(1545.8165 -271.47719 -77.851679)
(1552.032 -263.0954 -75.478513)
(1557.6962 -255.14588 -73.443998)
(1563.5282 -248.32864 -71.033459)
(1568.6955 -241.41209 -68.796936)
(1573.6539 -234.49347 -66.626267)
(1578.0187 -226.84396 -64.693026)
(1650.5573 -253.86318 -89.1299)
(1657.1881 -245.25672 -86.944164)
(1663.685 -237.39806 -85.192222)
(1669.9164 -230.24921 -82.93975)
(1675.9589 -223.27393 -80.954833)
(1681.4295 -215.91107 -78.831318)
(1686.6254 -208.39863 -76.991087)
(1756.1314 -235.17693 -100.33736)
(1763.7108 -226.88937 -98.467857)
(1770.68 -218.92676 -96.85549)
(1777.8431 -212.0466 -94.773535)
(1784.3554 -204.90265 -92.860974)
(1790.6697 -197.82491 -90.742578)
(1796.4556 -190.08133 -88.834688)
(1863.2728 -215.51162 -111.35797)
(1871.3146 -207.25416 -109.60595)
(1879.3006 -199.67128 -108.11538)
(1886.8911 -192.72123 -106.08044)
(1894.2566 -185.80919 -104.24013)
(1901.1183 -178.68389 -102.13042)
(1907.6376 -171.23511 -100.10698)
(1972.0915 -194.90822 -121.66952)
(1981.1599 -187.20871 -120.09909)
(1989.6414 -179.8104 -118.6878)
(1998.1209 -173.228 -116.71107)
(2006.0132 -166.49409 -114.9057)
(2013.6327 -159.78307 -112.7202)
(2020.7355 -152.51973 -110.52084)
(2083.3454 -173.38355 -131.12771)
(2092.8654 -166.06291 -129.66016)
(2102.3056 -159.20151 -128.26399)
(2111.2719 -152.86306 -126.40566)
(2119.9081 -146.55058 -124.50887)
(2128.0562 -140.13673 -122.35185)
(2135.8591 -133.447 -120.00425)
(2196.9738 -150.98298 -139.33705)
(2207.3561 -144.31997 -138.00621)
(2217.3587 -137.93286 -136.74377)
(2227.0598 -132.09634 -134.85076)
(2236.2451 -126.30568 -132.9911)
(2245.1122 -120.49961 -130.85013)
(2253.4625 -114.26894 -128.30631)
(2313.4807 -127.4785 -146.1442)
(2324.41 -121.5931 -145.03042)
(2335.1178 -115.8608 -143.67151)
(2345.304 -110.55649 -141.9909)
(2355.1443 -105.30076 -140.09537)
(2364.4404 -99.940495 -137.96487)
(2373.4214 -94.543215 -135.32441)
(2432.8652 -103.17014 -151.52049)
(2444.4482 -98.034023 -150.29615)
(2455.5541 -92.94493 -149.29946)
(2466.478 -88.316367 -147.53138)
(2476.6476 -83.683995 -145.64065)
(2486.6304 -79.206223 -143.59407)
(2496.1116 -74.575724 -140.92247)
(2555.2769 -77.791771 -154.96033)
(2567.2487 -73.379897 -154.04517)
(2578.9245 -69.230666 -153.02759)
(2590.0931 -65.093144 -151.19923)
(2600.6846 -61.205669 -149.721)
(2611.2171 -57.408494 -147.75475)
(2621.1851 -53.596817 -145.06174)
(2680.5502 -51.261759 -156.69646)
(2692.8619 -47.823233 -156.16515)
(2704.8627 -44.462028 -154.85869)
(2716.5705 -41.1239 -153.7169)
(2727.6115 -38.073004 -151.83782)
(2738.6137 -35.031455 -149.90005)
(2748.7903 -32.236221 -147.25019)
(2808.7801 -23.85243 -156.61975)
(2821.1457 -21.588373 -156.24358)
(2833.68 -18.79363 -155.0318)
(2845.3484 -16.385707 -154.1123)
(2856.857 -13.837198 -152.13851)
(2867.8414 -11.573182 -150.70151)
(2878.6666 -9.8157113 -148.13494)
(2939.2753 4.4343578 -154.98564)
(2952.0308 5.9752839 -154.52686)
(2964.4381 7.7592613 -153.82616)
(2976.4167 9.6526715 -152.64326)
(2988.0134 11.301591 -151.21956)
(2999.4505 12.731403 -149.72476)
(3010.523 13.626933 -147.33911)
(3072.1011 33.704064 -151.50574)
(3084.704 34.250847 -151.45141)
(3097.2894 35.370029 -150.63653)
(3109.3071 36.479306 -149.85349)
(3121.1438 37.429526 -148.53962)
(3132.6649 38.245438 -147.20839)
(3144.023 38.215763 -145.14773)
(3206.5292 63.666773 -146.98138)
(3219.1819 63.481042 -146.88068)
(3231.6552 63.871951 -146.39386)
(3243.6708 64.321657 -145.64353)
(3255.4737 64.715275 -144.60031)
(3267.1203 64.746343 -143.44555)
(3278.6234 64.008766 -141.70519)
(3342.2264 94.308743 -141.11357)
(3354.6375 93.517435 -141.2463)
(3366.9513 93.237462 -140.83423)
(3378.8631 93.167055 -140.31585)
(3390.7009 92.919536 -139.50734)
(3402.3872 92.383014 -138.56715)
(3414.0194 91.005639 -137.17323)
(3478.4329 125.55219 -134.62824)
(3490.6495 124.19426 -134.80766)
(3502.7772 123.37459 -134.60699)
(3514.5902 122.74846 -134.21603)
(3526.3378 122.03288 -133.65949)
(3537.9779 120.99225 -132.91179)