/*--------------------------------*- C++ -*----------------------------------*\
  =========                 |
  \\      /  F ield         | OpenFOAM: The Open Source CFD Toolbox
   \\    /   O peration     | Website:  https://openfoam.org
    \\  /    A nd           | Version:  6
     \\/     M anipulation  |
\*---------------------------------------------------------------------------*/
FoamFile
{
    version     2.0;
    format      ascii;
    class       pointVectorField;
    location    "1.64";
    object      u;
}
// * * * * * * * * * * * * * * * * * * * * * * * * * * * * * * * * * * * * * //

dimensions      [0 1 0 0 0 0 0];

internalField   nonuniform List<vector> 
28033
(
(0 0 0)
(0 0 0)
(0.11015078 0.022454115 0.0039448249)
(0.10915334 -0.021734368 0.0028146176)
(0 0 0)
(0 0 0)
(0.11005574 -0.022587286 0.0029313814)
(0.1110878 0.021549489 0.0037557899)
(0 0 0)
(0 0 0)
(0 0 0)
(0 0 0)
(0 0 0)
(0 0 0)
(0 0 0)
(0 0 0)
(0 0 0)
(0 0 0)
(0 0 0)
(0 0 0)
(0 0 0)
(0 0 0)
(0 0 0)
(0.1100014 0.019122891 0.0036244948)
(0.10975588 0.016207872 0.0035613143)
(0.1095135 0.013423515 0.0034498529)
(0.10934708 0.010718102 0.0034161355)
(0.10919592 0.0080849345 0.0033813708)
(0.10906445 0.0055015054 0.0033689716)
(0.10897278 0.0029485002 0.003365853)
(0.10890434 0.00040968476 0.0033760159)
(0.10886412 -0.0021278195 0.0033745353)
(0.10884925 -0.0046922453 0.0033827181)
(0.10886148 -0.0072745519 0.0033660929)
(0.10889065 -0.0099286262 0.0033278323)
(0.10896162 -0.012632549 0.0032763982)
(0.1090094 -0.015459543 0.0032032448)
(0.10913871 -0.01841166 0.00305012)
(0.00050616882 0.00080179446 0.00076681198)
(0.000723073 0.0011423681 0.0010235827)
(0.0009826423 0.0015266281 0.0011681055)
(0.0013340858 0.0018553875 0.001249638)
(0.0016839533 0.0022330998 0.0012664933)
(0.0021239956 0.0025389494 0.0012725139)
(0.0025801332 0.0029044259 0.0012351539)
(0.0030964737 0.0031828055 0.0012032975)
(0.0036388208 0.0035224509 0.0011468231)
(0.0042303555 0.0037783811 0.0010976008)
(0.0048325738 0.0040721826 0.0010365594)
(0.0054786745 0.0043078628 0.00097916007)
(0.0061336801 0.0045613508 0.00092467373)
(0.0068334814 0.004771382 0.00086347655)
(0.0075198988 0.0049807632 0.0008207694)
(0.0082509218 0.0051586175 0.00075767482)
(0.0089758809 0.005341911 0.00072397093)
(0.0097283787 0.0054829885 0.00067076813)
(0.0104734 0.0056294751 0.0006415663)
(0.011242348 0.0057453412 0.00059608079)
(0.012001496 0.0058578225 0.00057512753)
(0.012774069 0.0059419176 0.00053869215)
(0.013542619 0.0060275445 0.0005226931)
(0.014310182 0.0060810664 0.00050122551)
(0.015075915 0.0061370013 0.00049012848)
(0.015834506 0.0061673097 0.00048007498)
(0.016585467 0.0061948132 0.00047842857)
(0.017324015 0.006201362 0.00048303306)
(0.018055238 0.0062059329 0.00049097014)
(0.018765583 0.0061922233 0.00050882944)
(0.019464114 0.0061758736 0.00053358605)
(0.020140128 0.0061466713 0.00056500553)
(0.020798317 0.006115184 0.00060730799)
(0.021434353 0.0060762684 0.00065526572)
(0.022044845 0.0060326729 0.00071800098)
(0.022633773 0.0059897033 0.00078411555)
(0.023197385 0.0059438481 0.00086343198)
(0.023737811 0.0059016493 0.00095345131)
(0.024250592 0.005859237 0.0010499824)
(0.024744676 0.0058258108 0.0011568849)
(0.025212356 0.0057956818 0.0012734945)
(0.025660724 0.0057778144 0.0013981042)
(0.026091278 0.0057679534 0.0015287573)
(0.02650658 0.0057748279 0.0016674459)
(0.026908018 0.0057922432 0.0018105004)
(0.027302338 0.0058294442 0.0019580464)
(0.027688772 0.0058835107 0.0021091064)
(0.028077047 0.0059579894 0.0022613583)
(0.028465185 0.0060544065 0.0024148991)
(0.028864365 0.0061733618 0.002567781)
(0.029273171 0.0063174779 0.0027189397)
(0.029701965 0.0064855831 0.0028679852)
(0.030151076 0.0066820299 0.0030131129)
(0.030629378 0.0069026013 0.0031545421)
(0.031138876 0.0071536325 0.0032903491)
(0.031686612 0.0074290689 0.0034216536)
(0.032276278 0.0077343204 0.0035460281)
(0.032913241 0.0080650031 0.0036650267)
(0.033601911 0.0084232372 0.0037768097)
(0.034346767 0.0088055534 0.0038827898)
(0.035152261 0.009214209 0.0039807467)
(0.036022449 0.0096437103 0.0040731999)
(0.036960025 0.010096809 0.0041578947)
(0.037971589 0.010566046 0.0042357194)
(0.039056122 0.01105709 0.0043071966)
(0.040217784 0.01155987 0.0043721616)
(0.04146425 0.012076538 0.0044272707)
(0.042787895 0.012602208 0.0044792083)
(0.044198835 0.01313528 0.0045232827)
(0.045688803 0.013674817 0.0045614001)
(0.047272371 0.014216059 0.0045920226)
(0.048930906 0.014752354 0.004621482)
(0.050687036 0.015295474 0.0046359948)
(0.052516855 0.015815294 0.0046559055)
(0.054438069 0.016354214 0.0046569635)
(0.056439342 0.016843762 0.0046703549)
(0.058516437 0.017370335 0.0046575997)
(0.060684114 0.017822303 0.0046651036)
(0.062908395 0.018322014 0.004642697)
(0.065229556 0.018738498 0.0046431151)
(0.067597751 0.019193582 0.0046128251)
(0.070051627 0.019575489 0.0046083843)
(0.072559746 0.019975588 0.0045716583)
(0.075130498 0.020316405 0.0045597836)
(0.077761829 0.020657089 0.0045245882)
(0.080440624 0.020960628 0.0044994297)
(0.083186875 0.021225036 0.0044642793)
(0.08595861 0.021478235 0.0044360073)
(0.088799997 0.021688521 0.0043870288)
(0.091654624 0.021882981 0.0043569247)
(0.094579253 0.022008324 0.0043221881)
(0.09750347 0.022211426 0.0042523792)
(0.10049566 0.02224929 0.0042632445)
(0.1035389 0.022403171 0.0041875012)
(0.10658281 0.022507585 0.0041955088)
(0.00023880593 -0.00068330459 -0.0008588285)
(0.00055166179 -0.00097434754 -0.00088485116)
(0.00081245098 -0.0013242485 -0.0011089139)
(0.001098537 -0.0016131791 -0.0011222561)
(0.0014668608 -0.0019055648 -0.0011751518)
(0.0018864923 -0.0022289283 -0.0011454941)
(0.0023312962 -0.0024721078 -0.0011406586)
(0.0028398902 -0.0027651363 -0.0010811282)
(0.003375475 -0.0029899947 -0.0010479067)
(0.0039476733 -0.0032377001 -0.00098070712)
(0.0045551257 -0.0034348448 -0.00093191126)
(0.0051808084 -0.0036382889 -0.00086505913)
(0.0058406679 -0.0038049199 -0.0008072353)
(0.006513377 -0.0039692848 -0.0007438003)
(0.0072118994 -0.0040989266 -0.00068323342)
(0.00792144 -0.0042286092 -0.00062000461)
(0.0086492581 -0.0043192167 -0.00055926238)
(0.0093854252 -0.0044144504 -0.00049512076)
(0.010134203 -0.0044726765 -0.00043305586)
(0.010893264 -0.0045326397 -0.00036831343)
(0.011653496 -0.004558616 -0.00030266613)
(0.012423882 -0.0045882215 -0.00023716265)
(0.013185721 -0.0045802489 -0.0001703069)
(0.013959381 -0.0045808131 -0.00010037067)
(0.014714027 -0.0045448432 -3.2899463e-05)
(0.015484581 -0.004517962 4.1429082e-05)
(0.016228206 -0.0044597427 0.00010744896)
(0.016980571 -0.0044049599 0.00018305797)
(0.017706361 -0.0043293971 0.00025025953)
(0.018430825 -0.0042499273 0.00032340745)
(0.01913002 -0.0041629634 0.0003914163)
(0.019820053 -0.004065028 0.00046032851)
(0.02048479 -0.0039698277 0.00052622299)
(0.021133205 -0.003862839 0.00059016302)
(0.021759216 -0.0037648709 0.00065177986)
(0.022360233 -0.0036562509 0.00070768449)
(0.022943414 -0.003562825 0.00076370893)
(0.023498384 -0.0034645319 0.00081082188)
(0.024034852 -0.0033812123 0.00085619337)
(0.024544519 -0.0033018375 0.00089331274)
(0.025037514 -0.0032387754 0.00092639998)
(0.025505453 -0.003186228 0.00095087428)
(0.025959945 -0.003152525 0.00097014412)
(0.026394182 -0.0031349076 0.00098014929)
(0.026817989 -0.0031384235 0.0009837323)
(0.027229316 -0.0031629437 0.00097836787)
(0.027634225 -0.0032103661 0.00096519075)
(0.028035203 -0.0032824631 0.00094368019)
(0.028436607 -0.0033796513 0.00091401412)
(0.028842277 -0.0035029362 0.0008764048)
(0.029257287 -0.0036534295 0.00083128983)
(0.029685618 -0.0038309374 0.00077895787)
(0.030132473 -0.004035824 0.00072029356)
(0.030603154 -0.0042685185 0.00065594774)
(0.031101873 -0.0045282385 0.00058672514)
(0.031634495 -0.0048146151 0.00051388557)
(0.032206136 -0.0051278396 0.00043839539)
(0.032821244 -0.005465991 0.00036149804)
(0.033485313 -0.0058289229 0.0002843971)
(0.034203587 -0.0062156315 0.00020878475)
(0.034979513 -0.0066241777 0.00013524048)
(0.035818865 -0.0070539782 6.6036805e-05)
(0.036725089 -0.0075031967 1.5136334e-06)
(0.037702254 -0.0079703304 -5.6264758e-05)
(0.038753494 -0.0084532949 -0.00010720039)
(0.03988342 -0.0089519038 -0.00014852232)
(0.041092194 -0.0094612409 -0.00018197448)
(0.042383626 -0.009982461 -0.00020415815)
(0.043758193 -0.010511322 -0.00021911567)
(0.045217293 -0.01104483 -0.00021572918)
(0.046768159 -0.011590496 -0.00020665449)
(0.048397092 -0.012128696 -0.00018449358)
(0.050119324 -0.012675526 -0.00015097598)
(0.051921369 -0.01321518 -0.00010660288)
(0.05381336 -0.013755695 -4.9529824e-05)
(0.055783054 -0.014287362 1.5149349e-05)
(0.057837716 -0.014814679 9.3452615e-05)
(0.059969815 -0.015330749 0.00017790445)
(0.062179082 -0.015838243 0.00027417966)
(0.064462239 -0.016331398 0.00037652278)
(0.066817283 -0.016813127 0.00048814282)
(0.069241095 -0.017277527 0.00060589751)
(0.071728896 -0.017726873 0.00073037223)
(0.074282573 -0.018157539 0.00086150159)
(0.076890215 -0.018568221 0.00099549319)
(0.079560281 -0.018960986 0.0011380253)
(0.082276173 -0.019328101 0.0012806677)
(0.085047252 -0.019675917 0.0014292819)
(0.087858733 -0.019999575 0.0015808848)
(0.09071917 -0.02029841 0.001734371)
(0.093610138 -0.020572735 0.0018885132)
(0.096553656 -0.020829499 0.0020449292)
(0.099524041 -0.021070966 0.0022126781)
(0.10257203 -0.021275915 0.0023575955)
(0.10569072 -0.021540733 0.0025592662)
(0 0 0)
(0 0 0)
(0 0 0)
(0 0 0)
(0 0 0)
(0 0 0)
(0 0 0)
(0 0 0)
(0 0 0)
(0 0 0)
(0 0 0)
(0 0 0)
(0 0 0)
(0 0 0)
(0 0 0)
(0.00043604231 -0.000311172 0.00064208166)
(0.00065344944 -0.0011322676 0.00087250608)
(0.00086416015 -0.0012086914 0.00094239825)
(0.0012291738 -0.0017033602 0.0010315085)
(0.0015882915 -0.0019220474 0.001025923)
(0.0020389249 -0.0022748553 0.00097646206)
(0.0025141387 -0.0025271842 0.00093853566)
(0.0030438323 -0.0028401423 0.00086309429)
(0.0036115626 -0.0030714863 0.00079828796)
(0.0042023356 -0.0033444575 0.00071465108)
(0.0048400126 -0.0035575571 0.00064598023)
(0.0054868931 -0.0037761622 0.00055739367)
(0.0061749549 -0.0039774235 0.00049441141)
(0.0068676398 -0.0041452033 0.0004045429)
(0.0075977371 -0.0043296619 0.00034914099)
(0.008323476 -0.0044525083 0.00027158048)
(0.009084226 -0.0046055776 0.00021769377)
(0.0098351426 -0.0046971319 0.00014515363)
(0.010612805 -0.0048169472 0.00010043436)
(0.011386238 -0.0048845862 3.8574859e-05)
(0.01216846 -0.0049615859 -3.182247e-07)
(0.012961275 -0.0050150726 -5.03806e-05)
(0.013741817 -0.005045676 -8.5037204e-05)
(0.014532657 -0.0050885507 -0.00011735651)
(0.015308653 -0.0050727622 -0.00014875055)
(0.0160904 -0.0051080198 -0.00016750881)
(0.016857378 -0.0050581938 -0.0001854942)
(0.017615164 -0.0050674533 -0.00019401164)
(0.018362808 -0.0050032486 -0.00019809687)
(0.019089733 -0.0049799715 -0.00019017448)
(0.01980371 -0.0049055389 -0.00018113819)
(0.020497254 -0.0048626791 -0.00015510771)
(0.021170954 -0.0047783826 -0.00012680243)
(0.021821985 -0.0047179188 -8.4462076e-05)
(0.022447952 -0.0046320087 -3.3692813e-05)
(0.023055084 -0.0045612265 2.5779555e-05)
(0.023631362 -0.0044755686 9.6928787e-05)
(0.024184554 -0.0044033132 0.00017892395)
(0.024713366 -0.0043266633 0.00026949548)
(0.025217945 -0.0042609466 0.00037093449)
(0.025700384 -0.0041985127 0.00047991109)
(0.026161184 -0.0041487059 0.00059902296)
(0.026603939 -0.004107955 0.00072368877)
(0.027030137 -0.0040824259 0.00085702319)
(0.027443025 -0.004070466 0.00099374731)
(0.027846786 -0.0040776498 0.0011368996)
(0.028243853 -0.0041018314 0.0012814546)
(0.028639495 -0.004148405 0.0014295438)
(0.029037393 -0.0042160297 0.0015771746)
(0.029442163 -0.0043080647 0.001725663)
(0.029858426 -0.0044246005 0.0018720746)
(0.030291512 -0.0045675206 0.0020162832)
(0.030745652 -0.0047372867 0.0021575759)
(0.031226184 -0.004934381 0.002294185)
(0.031738319 -0.005160603 0.0024267767)
(0.032286369 -0.0054138506 0.0025531619)
(0.03287571 -0.0056970167 0.0026746559)
(0.033511128 -0.0060073575 0.0027889941)
(0.034196698 -0.0063461545 0.0028975632)
(0.034937716 -0.0067117513 0.0029988434)
(0.03573768 -0.007103816 0.0030934921)
(0.036601221 -0.00752063 0.0031809081)
(0.037531581 -0.007961406 0.0032614248)
(0.038532768 -0.0084241204 0.0033346058)
(0.039607423 -0.0089068936 0.0034006786)
(0.040758408 -0.0094086107 0.0034600338)
(0.041989913 -0.0099277801 0.0035111912)
(0.043303489 -0.010459152 0.0035577973)
(0.044682642 -0.010990743 0.0035945411)
(0.046174744 -0.011558836 0.0036257142)
(0.047729555 -0.012111427 0.0036540899)
(0.049375251 -0.012676341 0.0036723951)
(0.051105492 -0.013242101 0.003685993)
(0.052917658 -0.013807757 0.0036956904)
(0.054812865 -0.014370034 0.0036983468)
(0.056789647 -0.014927916 0.0036978412)
(0.058845141 -0.015478344 0.0036923524)
(0.060978417 -0.01601926 0.0036834265)
(0.063187102 -0.016549794 0.0036709303)
(0.065467601 -0.01706579 0.003655471)
(0.06781955 -0.017568419 0.0036365435)
(0.070237961 -0.018053365 0.003615869)
(0.07272156 -0.018520679 0.0035915847)
(0.075266761 -0.018968323 0.0035656224)
(0.077871149 -0.019394562 0.0035363896)
(0.080530426 -0.019799422 0.0035061164)
(0.083243011 -0.020178698 0.0034709178)
(0.086005137 -0.020537028 0.0034366052)
(0.088811627 -0.020865103 0.0033960993)
(0.09166503 -0.021174384 0.0033575558)
(0.094552548 -0.021449852 0.0033112079)
(0.097490839 -0.021714591 0.0032709287)
(0.10045451 -0.021946451 0.0032143812)
(0.10351085 -0.022175328 0.0031688711)
(0.10658598 -0.022442346 0.0030832017)
(0.11008299 -0.019261123 0.0028401524)
(0.10996802 -0.016370282 0.0028037119)
(0.10987162 -0.013503696 0.0028539641)
(0.10983283 -0.010826702 0.0028951986)
(0.10978479 -0.0081620135 0.0030052122)
(0.1097797 -0.0055902459 0.0030935351)
(0.10978868 -0.0030256625 0.0032277607)
(0.10982543 -0.00048700483 0.0033448071)
(0.10990785 0.0020463132 0.0034676168)
(0.10998662 0.0046015587 0.0035894195)
(0.11012321 0.0071885402 0.0036884716)
(0.11026909 0.0098141141 0.0037755788)
(0.11045635 0.01251324 0.0038542429)
(0.11061685 0.015307071 0.003882805)
(0.11094881 0.018181756 0.0038938966)
(0.10756873 0.021614519 0.0034187085)
(0.10443743 0.021448061 0.0032738465)
(0.10141452 0.021375702 0.0031093378)
(0.098421496 0.02126713 0.0029679699)
(0.095473959 0.021140009 0.0028065465)
(0.092561297 0.020987215 0.0026541514)
(0.089687891 0.020806867 0.0025026852)
(0.086851978 0.020601752 0.0023492921)
(0.084064576 0.020364212 0.0022041271)
(0.081320959 0.020105921 0.0020566414)
(0.078631268 0.019815192 0.0019180562)
(0.07599442 0.019504312 0.0017795878)
(0.073414604 0.01916486 0.0016488577)
(0.070898319 0.018804699 0.001520579)
(0.068444474 0.018421616 0.0014001205)
(0.066059844 0.018018302 0.0012848327)
(0.06374616 0.017595207 0.0011788392)
(0.06150551 0.017153815 0.0010786484)
(0.059341038 0.016697267 0.00098799683)
(0.057256506 0.016223707 0.00090586204)
(0.055251138 0.015740018 0.00083314749)
(0.053330796 0.015241859 0.00077072838)
(0.051492255 0.014738455 0.00071787893)
(0.049742254 0.01422375 0.00067622778)
(0.048074309 0.013708744 0.00064503255)
(0.046498507 0.013187834 0.00062419684)
(0.044994101 0.012672849 0.00061554904)
(0.043616866 0.012136278 0.00062641775)
(0.042275818 0.011639931 0.00063015909)
(0.041047352 0.011123802 0.00065654291)
(0.039889094 0.010626962 0.00068577069)
(0.038811993 0.010138559 0.00072613803)
(0.037810381 0.0096631054 0.00077332914)
(0.036880944 0.0092026595 0.00082655999)
(0.036019776 0.0087592532 0.00088514043)
(0.035222819 0.008334251 0.00094757577)
(0.034485576 0.007929595 0.001012322)
(0.033803511 0.0075464957 0.0010785795)
(0.033171533 0.0071865833 0.0011446647)
(0.032584803 0.0068504862 0.0012094353)
(0.032038001 0.0065397421 0.0012715638)
(0.031526232 0.0062545045 0.0013303213)
(0.031043925 0.0059958406 0.0013839258)
(0.030586339 0.005763524 0.001432361)
(0.030148036 0.0055583609 0.0014739527)
(0.029724475 0.005379264 0.0015088848)
(0.029310449 0.0052271403 0.0015357696)
(0.028901887 0.0050998889 0.0015551513)
(0.028493898 0.0049983757 0.0015658164)
(0.02808322 0.0049198126 0.0015686338)
(0.02766518 0.0048647669 0.001562731)
(0.027237206 0.0048298298 0.0015487892)
(0.026795933 0.0048154927 0.0015270297)
(0.026338895 0.0048173393 0.0014971821)
(0.025862443 0.0048377274 0.0014593159)
(0.025367321 0.0048680165 0.0014165548)
(0.024849335 0.0049132652 0.0013650174)
(0.02431167 0.0049660904 0.0013092635)
(0.023745819 0.0050289075 0.001246334)
(0.023160595 0.0050903739 0.0011816257)
(0.022551933 0.0051612802 0.0011083003)
(0.021917138 0.0052296171 0.0010330982)
(0.02126266 0.0052976188 0.00095531152)
(0.020586322 0.0053630785 0.00087350293)
(0.019892663 0.0054216986 0.00079091512)
(0.01917687 0.0054776507 0.00070363048)
(0.018448774 0.0055185364 0.00061863704)
(0.017703386 0.0055607955 0.00052868728)
(0.016946432 0.0055784203 0.00044417537)
(0.016181114 0.0056007744 0.00035240931)
(0.015405601 0.0055953899 0.00026758649)
(0.014628403 0.0055864909 0.000179205)
(0.013843525 0.0055580354 9.1712282e-05)
(0.013059209 0.0055181653 7.6094139e-06)
(0.012276728 0.0054597025 -7.8572099e-05)
(0.011497632 0.0053864414 -0.00015952073)
(0.010719983 0.0052992096 -0.0002484027)
(0.0099570291 0.0051848121 -0.0003213434)
(0.0091943407 0.0050729717 -0.00041415741)
(0.0084559322 0.0049123501 -0.00048487036)
(0.0077215537 0.0047813571 -0.00057496619)
(0.0070040641 0.0045642762 -0.00063923868)
(0.0063073813 0.0044014539 -0.00073442199)
(0.0056338744 0.0041481943 -0.00080000031)
(0.0049801643 0.0039561108 -0.00089289542)
(0.0043567753 0.0036656431 -0.00095355946)
(0.003764326 0.00342694 -0.0010332183)
(0.0031999145 0.0031084661 -0.0010877187)
(0.0026773484 0.0028307619 -0.0011501447)
(0.0021929923 0.0024986082 -0.0011849355)
(0.0017643797 0.0021677524 -0.0011979336)
(0.001378022 0.0018163664 -0.0011812312)
(0.0010530795 0.0014966116 -0.0011236261)
(0.00075698494 0.0010928221 -0.00093034211)
(0.00071528801 0.00075340764 -0.00059563116)
(0 0 0)
(0 0 0)
(0 0 0)
(0 0 0)
(0 0 0)
(0 0 0)
(0 0 0)
(0 0 0)
(0 0 0)
(0 0 0)
(0 0 0)
(0 0 0)
(0 0 0)
(0 0 0)
(0 0 0)
(0 0 0)
(0 0 0)
(0 0 0)
(0 0 0)
(0 0 0)
(0 0 0)
(0 0 0)
(0 0 0)
(0 0 0)
(0 0 0)
(0 0 0)
(0 0 0)
(0 0 0)
(0 0 0)
(0 0 0)
(0.10930111 -0.021929569 0.0028057568)
(0.10939568 -0.02205734 0.0027992336)
(0.10946763 -0.022146861 0.0027915312)
(0.10954703 -0.022233036 0.0027969964)
(0.10962069 -0.022307873 0.0028044293)
(0.10969159 -0.022374395 0.0028262143)
(0.10975588 -0.022435322 0.0028433554)
(0.10981571 -0.02248902 0.0028737656)
(0.10987093 -0.022542581 0.0028942175)
(0.10991687 -0.022587252 0.0029190149)
(0.10997305 -0.022638527 0.0029388429)
(0.1100039 -0.022663174 0.0029505819)
(0.11004911 -0.022699579 0.0029556806)
(0.11008189 -0.022708128 0.0029544937)
(0.11012528 -0.022722658 0.0029397782)
(0.11034278 0.022579255 0.0039366043)
(0.11042691 0.022553104 0.0039590357)
(0.11050191 0.022534819 0.0039425847)
(0.110589 0.022508216 0.003931236)
(0.11065447 0.022462578 0.0039171618)
(0.11072693 0.022416248 0.0038886033)
(0.11079218 0.022369934 0.0038644789)
(0.11085341 0.022315583 0.0038331575)
(0.11090935 0.02226122 0.0038046798)
(0.11095921 0.022202554 0.0037798152)
(0.11100627 0.022136051 0.0037572678)
(0.11104629 0.022066125 0.0037408401)
(0.11108912 0.021993628 0.0037467062)
(0.11112349 0.021877156 0.003720967)
(0.11117356 0.021824609 0.0037442159)
(0.00014324486 -0.0015089691 0.00076766252)
(0.00026120601 -0.0032468055 0.0008519496)
(0.00037166174 -0.0049250039 0.0010219618)
(0.0005752229 -0.0066165142 0.0010689277)
(0.00076117006 -0.0082810612 0.0011162215)
(0.001056272 -0.0099160379 0.0011142367)
(0.001360566 -0.011495752 0.0010922627)
(0.0017368727 -0.01303536 0.0010728294)
(0.0021250193 -0.014514498 0.0010284084)
(0.0025923475 -0.015920679 0.00098507743)
(0.003050867 -0.017276588 0.00093956794)
(0.0035898796 -0.018528351 0.00089106762)
(0.0041224878 -0.019730931 0.00084067643)
(0.0047153937 -0.020811576 0.00079524931)
(0.0052992272 -0.021835394 0.00074914249)
(0.0059536875 -0.02272225 0.00070737812)
(0.0065948834 -0.023542812 0.00066457057)
(0.0072742387 -0.024233113 0.00063187588)
(0.0079706254 -0.024821461 0.00059330547)
(0.0086898544 -0.025295067 0.00056652317)
(0.0094155105 -0.025652712 0.00053831434)
(0.010166066 -0.025892318 0.00051828101)
(0.010926181 -0.026008232 0.00049625503)
(0.011692156 -0.026008276 0.00048384948)
(0.012473061 -0.025878096 0.00047204285)
(0.013254843 -0.025634453 0.0004681164)
(0.01404477 -0.025260085 0.00046707322)
(0.014831551 -0.02477187 0.00047229097)
(0.015620369 -0.024157144 0.00048343967)
(0.01640335 -0.023429915 0.0005017837)
(0.017179536 -0.022582035 0.00052539795)
(0.017948855 -0.02162341 0.00055820704)
(0.01870435 -0.020552864 0.00059808898)
(0.019446655 -0.019378497 0.00064724375)
(0.020174781 -0.018095635 0.00070230183)
(0.020882238 -0.016719683 0.00077179525)
(0.021576124 -0.015246779 0.00084652795)
(0.022245533 -0.013683314 0.00092936122)
(0.022897035 -0.012039257 0.0010265277)
(0.023529089 -0.010313024 0.0011281442)
(0.024141315 -0.0085157258 0.0012401432)
(0.024735195 -0.0066547751 0.0013592722)
(0.025311298 -0.0047270106 0.0014856875)
(0.025874781 -0.002752081 0.001617423)
(0.026423492 -0.00072581944 0.0017543648)
(0.026965376 0.0013393129 0.0018959951)
(0.027500909 0.0034372956 0.002038391)
(0.028034881 0.0055616679 0.0021844652)
(0.028571556 0.007704668 0.0023288165)
(0.029115568 0.0098580473 0.0024736445)
(0.029670837 0.012016135 0.0026152573)
(0.030243224 0.014168553 0.0027551913)
(0.03083645 0.01631046 0.0028897882)
(0.031456641 0.018431089 0.0030211216)
(0.032107415 0.020525618 0.003146037)
(0.03279472 0.022582443 0.0032662945)
(0.033522328 0.024597983 0.0033793368)
(0.034295542 0.026559979 0.0034869645)
(0.035117893 0.028463797 0.0035874521)
(0.035994179 0.030299941 0.0036815807)
(0.036928088 0.032061806 0.0037686297)
(0.037922174 0.033740784 0.0038498626)
(0.038981636 0.035330644 0.0039234877)
(0.040107404 0.036823396 0.0039916715)
(0.041301548 0.038215496 0.0040522633)
(0.042569493 0.039493952 0.004107631)
(0.043911883 0.040659912 0.0041573738)
(0.045323798 0.041705539 0.0042015026)
(0.046812458 0.042624258 0.0042412656)
(0.048376123 0.043413397 0.004272276)
(0.050015887 0.044071143 0.0042994249)
(0.05172587 0.044588147 0.0043213734)
(0.053514356 0.044973603 0.0043373182)
(0.055368245 0.045206968 0.0043522489)
(0.057297874 0.045314483 0.0043589992)
(0.059291578 0.045258062 0.0043671442)
(0.061350945 0.045087985 0.0043649717)
(0.06347817 0.044740518 0.0043701169)
(0.065655568 0.044296934 0.0043584)
(0.067905234 0.043670381 0.0043605767)
(0.070193517 0.042948744 0.0043445106)
(0.07254954 0.042069087 0.004339173)
(0.074943895 0.041076901 0.0043216023)
(0.077388826 0.039952919 0.0043119579)
(0.079873066 0.038724527 0.0042876121)
(0.082407806 0.037368651 0.0042731882)
(0.084978412 0.035916268 0.0042516245)
(0.08758013 0.034368321 0.00422268)
(0.0902233 0.032726227 0.0041989948)
(0.092889513 0.030979468 0.0041800617)
(0.09558888 0.029208933 0.0041237009)
(0.098310799 0.027313972 0.0041112775)
(0.10108472 0.025345175 0.0040546374)
(0.10388316 0.023410433 0.0039749925)
(0.10679272 0.021229718 0.0038778477)
(-0.00014251529 -0.0033201942 0.00064570677)
(-0.00017645239 -0.0069541475 0.00075345261)
(-0.00012746125 -0.010346256 0.000874453)
(-0.00010848367 -0.013832454 0.00095135267)
(-3.644173e-06 -0.017167918 0.00096324177)
(0.0001477167 -0.020487023 0.0009681187)
(0.00032700765 -0.023675772 0.00095898954)
(0.00056725981 -0.026800139 0.00093842104)
(0.00086347002 -0.029761082 0.00089624618)
(0.0011839484 -0.032648019 0.00087522233)
(0.0015588193 -0.03534315 0.00082926368)
(0.0019760324 -0.037919528 0.00078519289)
(0.0024219958 -0.040304918 0.00075368399)
(0.0029069532 -0.042538973 0.00070764535)
(0.0034344227 -0.044563891 0.00067752797)
(0.0039959501 -0.046409675 0.00062581086)
(0.0045674314 -0.048045723 0.00061183656)
(0.0052026258 -0.049470453 0.00056350745)
(0.0058443834 -0.050675496 0.00054598808)
(0.0065199228 -0.051666552 0.00051416693)
(0.0072215709 -0.052414408 0.00049844836)
(0.0079528454 -0.052943557 0.00047101048)
(0.0086955548 -0.053226017 0.00046386194)
(0.0094694348 -0.05328289 0.00044911822)
(0.010258224 -0.053091297 0.00044397008)
(0.011062942 -0.052671788 0.00044003051)
(0.011881063 -0.052006721 0.00044353534)
(0.012710345 -0.051116898 0.00045112165)
(0.013550566 -0.049986019 0.00046287886)
(0.014390218 -0.048637521 0.00048308629)
(0.015239071 -0.04705883 0.00050788623)
(0.0160819 -0.045269914 0.00053961933)
(0.016922119 -0.043268184 0.0005806311)
(0.017758897 -0.04106444 0.00062590526)
(0.018582373 -0.038669723 0.00068457309)
(0.019396451 -0.036089004 0.00074687377)
(0.020196724 -0.03333374 0.00081882489)
(0.02098122 -0.030416512 0.000902143)
(0.021748999 -0.027345918 0.00099112667)
(0.022501518 -0.024133023 0.0010880232)
(0.023232402 -0.020795604 0.0011956288)
(0.023950366 -0.01733903 0.0013099006)
(0.024654778 -0.013783161 0.001425612)
(0.025339762 -0.010138331 0.0015534668)
(0.026016631 -0.0064176765 0.0016812245)
(0.026684537 -0.0026399565 0.001814267)
(0.027344971 0.001185114 0.0019491939)
(0.028005579 0.0050394335 0.0020849554)
(0.028666951 0.0089102814 0.0022198019)
(0.029335692 0.012780383 0.0023542641)
(0.030014572 0.016638005 0.0024852384)
(0.030710432 0.020463109 0.0026137793)
(0.031425541 0.024246872 0.0027370546)
(0.032167509 0.027967659 0.0028566409)
(0.032938292 0.031616545 0.0029697802)
(0.033745265 0.035173745 0.0030780777)
(0.034590702 0.03862953 0.0031792849)
(0.035480488 0.041964164 0.0032757575)
(0.036417564 0.045169969 0.0033643953)
(0.037407019 0.048227566 0.0034480356)
(0.038450146 0.051128383 0.0035250592)
(0.039552644 0.053856688 0.0035962697)
(0.040715374 0.05640321 0.0036616743)
(0.041939527 0.058754711 0.0037212548)
(0.043231004 0.060904308 0.003775338)
(0.044587114 0.062833783 0.0038263903)
(0.046005203 0.064550794 0.0038683397)
(0.047491102 0.066027125 0.0039109361)
(0.049049969 0.067267823 0.0039429376)
(0.050672508 0.068266592 0.0039731382)
(0.052362091 0.069021513 0.0039982462)
(0.054113238 0.069517011 0.004023595)
(0.055929342 0.069772137 0.0040394165)
(0.057804365 0.069752594 0.0040613449)
(0.059737377 0.069507442 0.0040651441)
(0.061726942 0.06897173 0.0040865788)
(0.06376633 0.068230336 0.0040804592)
(0.06586143 0.067188584 0.0041010981)
(0.067994679 0.065965353 0.0040851989)
(0.070184994 0.064435703 0.0041078233)
(0.072403975 0.062747448 0.004083945)
(0.074674078 0.060773513 0.0041003685)
(0.076973497 0.058628543 0.0040844338)
(0.07931304 0.056248421 0.0040796803)
(0.081685749 0.053704291 0.0040615283)
(0.084082781 0.050946935 0.0040625401)
(0.086513482 0.048044004 0.0040387562)
(0.088959002 0.044964204 0.0040309425)
(0.091454385 0.041726144 0.0040160984)
(0.093937307 0.038394034 0.0039762867)
(0.096485713 0.034899113 0.0039594704)
(0.09902037 0.031299805 0.0039186227)
(0.10162116 0.027641593 0.0038532499)
(0.10424354 0.02385546 0.0037890741)
(0.10696822 0.020015916 0.003692796)
(-0.00030114991 -0.0045960626 0.00054673907)
(-0.00043020616 -0.0093838448 0.00062740869)
(-0.00056418789 -0.014057554 0.00078013372)
(-0.00058175864 -0.018661709 0.0008025372)
(-0.0005730395 -0.023183657 0.00082435675)
(-0.00051330193 -0.027613939 0.00083882902)
(-0.00041631673 -0.031915328 0.00082355872)
(-0.00022560642 -0.036064924 0.00079756389)
(-4.7917166e-05 -0.040098145 0.00078535694)
(0.00022354061 -0.043908649 0.00075100047)
(0.00051438448 -0.047570262 0.00071390314)
(0.00087034448 -0.050989209 0.00069069797)
(0.0012374973 -0.054229829 0.00065376172)
(0.0016863209 -0.057185071 0.00062150377)
(0.0021415088 -0.059934646 0.00058498297)
(0.0026491458 -0.06239699 0.00056807864)
(0.00319401 -0.064602196 0.00053027777)
(0.0037824565 -0.066514089 0.00050770251)
(0.0043853259 -0.068147539 0.00048731386)
(0.005046632 -0.069474595 0.00046828685)
(0.0057267206 -0.070497543 0.00044690964)
(0.006440653 -0.071221895 0.00044078052)
(0.0071846226 -0.071618995 0.00042705483)
(0.0079587065 -0.071717336 0.00042203326)
(0.0087522024 -0.07148334 0.00041812725)
(0.0095722867 -0.070951485 0.00042282478)
(0.010412447 -0.070090408 0.00042694116)
(0.011270791 -0.068931879 0.00043815122)
(0.012139618 -0.067457242 0.00045496739)
(0.013025327 -0.065690901 0.00047695263)
(0.013915297 -0.063622901 0.00050274871)
(0.014809461 -0.06127749 0.00053979783)
(0.01570938 -0.058648672 0.00057799398)
(0.016602269 -0.05576052 0.00062778286)
(0.017492129 -0.052614125 0.00068264955)
(0.018375144 -0.049226472 0.00074514216)
(0.019247162 -0.045613361 0.00081872386)
(0.020103973 -0.041783918 0.00089740049)
(0.020953676 -0.037757392 0.00098373385)
(0.021781822 -0.033551401 0.001079154)
(0.022598356 -0.0291774 0.0011805467)
(0.023397484 -0.024657094 0.0012847323)
(0.024180503 -0.020008234 0.0014027089)
(0.024951485 -0.015247629 0.0015194914)
(0.02571255 -0.010396701 0.001639865)
(0.026461384 -0.0054739282 0.0017659836)
(0.027206844 -0.00049753195 0.0018897928)
(0.027948878 0.004509732 0.0020162933)
(0.028693024 0.0095306958 0.0021402989)
(0.029442683 0.014542637 0.0022640011)
(0.030203661 0.01952799 0.0023825525)
(0.030979181 0.024463618 0.0024998726)
(0.03177537 0.029333561 0.0026099652)
(0.032596226 0.034112803 0.0027176368)
(0.033446822 0.038787763 0.0028173607)
(0.034332086 0.043333399 0.0029131502)
(0.035255589 0.047735507 0.003001703)
(0.036222699 0.051972108 0.0030853007)
(0.037236569 0.056028789 0.0031614761)
(0.038300481 0.059884008 0.0032338637)
(0.039418806 0.063525939 0.0032984535)
(0.040593244 0.066934834 0.0033592047)
(0.041825752 0.070098509 0.0034139308)
(0.04311943 0.073001873 0.0034633197)
(0.044476454 0.075631975 0.0035100318)
(0.045889453 0.077976047 0.0035488471)
(0.047375262 0.08003568 0.0035880801)
(0.048923476 0.081780835 0.0036186185)
(0.050524517 0.083214425 0.0036506219)
(0.052191728 0.084329027 0.0036782168)
(0.053914469 0.085120378 0.0037020266)
(0.05569531 0.085585147 0.0037249864)
(0.057534929 0.085720397 0.0037415818)
(0.059417268 0.085526909 0.0037596563)
(0.061359895 0.085006034 0.0037730191)
(0.063338658 0.084152011 0.0037894118)
(0.065372749 0.082986766 0.0037960706)
(0.067436392 0.081488252 0.0038127206)
(0.069550738 0.079696326 0.0038152385)
(0.071689428 0.077581478 0.0038305967)