/*--------------------------------*- C++ -*----------------------------------*\
  =========                 |
  \\      /  F ield         | OpenFOAM: The Open Source CFD Toolbox
   \\    /   O peration     | Website:  https://openfoam.org
    \\  /    A nd           | Version:  6
     \\/     M anipulation  |
\*---------------------------------------------------------------------------*/
FoamFile
{
    version     2.0;
    format      ascii;
    class       pointVectorField;
    location    "0.65";
    object      lm;
}
// * * * * * * * * * * * * * * * * * * * * * * * * * * * * * * * * * * * * * //

dimensions      [1 -2 -1 0 0 0 0];

internalField   nonuniform List<vector> 
625
(
(0 0 0)
(0 0 0)
(3961.4234 -1435.9837 -170.85881)
(3799.7689 -2084.7045 396.03482)
(0 0 0)
(0 0 0)
(3302.7736 -1777.1782 414.21458)
(3488.4162 -1142.491 -158.08892)
(0 0 0)
(0 0 0)
(0 0 0)
(3659.3087 -1485.106 -30.853574)
(3694.7197 -1665.8943 101.30673)
(3901.5707 -1947.2279 254.18505)
(42.776207 70.720718 50.386582)
(109.05579 132.84865 43.028949)
(203.42991 181.33656 44.304578)
(329.64203 216.35863 42.272291)
(473.61111 233.42895 41.607734)
(648.26349 234.26389 41.643884)
(837.57175 216.5905 39.34688)
(1050.291 180.55551 35.530357)
(1280.0878 126.52538 28.462675)
(1523.1014 52.60166 17.525024)
(1775.6239 -38.170319 2.8767082)
(2032.6075 -145.6933 -15.833948)
(2285.6116 -266.19627 -37.685787)
(2527.9144 -395.57254 -61.046561)
(2752.6566 -528.43123 -84.624575)
(2954.4069 -659.76275 -106.55819)
(3130.2362 -785.12174 -125.47491)
(3279.5113 -900.75532 -141.02795)
(3402.3376 -1004.7212 -151.87213)
(3507.1852 -1097.869 -159.27224)
(3594.2196 -1179.6825 -163.86381)
(3671.0831 -1253.6467 -165.08981)
(3745.27 -1320.2894 -166.06443)
(-13.156054 -30.957242 -58.233188)
(51.698131 -66.351739 -11.516713)
(134.91937 -129.46149 4.2858859)
(232.75628 -178.5744 38.275755)
(344.1196 -230.24311 66.43266)
(479.99746 -306.91397 98.62595)
(620.57723 -374.51291 125.56656)
(779.84879 -457.86905 157.35491)
(951.08353 -549.50214 184.71602)
(1136.3317 -647.22115 213.49897)
(1334.9367 -754.12055 240.34284)
(1545.2839 -866.05039 266.55015)
(1765.9697 -982.92804 291.37372)
(1993.8647 -1102.3492 314.8082)
(2225.416 -1222.491 336.63327)
(2455.8285 -1341.0175 356.21989)
(2680.0611 -1456.0523 373.43984)
(2892.7392 -1565.3834 387.56141)
(3089.0704 -1667.3813 398.22759)
(3264.547 -1761.4056 404.86219)
(3418.1273 -1846.8313 407.69728)
(3548.257 -1923.0121 405.31907)
(3673.7721 -2002.2951 402.95645)
(0 0 0)
(0 0 0)
(0 0 0)
(0.53024664 -33.909532 57.015523)
(18.352415 -133.32956 87.481066)
(83.824614 -156.63391 97.224262)
(144.19317 -204.31687 110.54715)
(239.99346 -278.2354 138.54983)
(342.83301 -313.88779 150.96726)
(459.55854 -378.57069 175.45974)
(595.0239 -442.91757 194.98229)
(741.7266 -512.02741 215.12428)
(903.57776 -588.55266 234.25759)
(1078.7391 -669.4834 252.23788)
(1265.0625 -757.5625 270.08351)
(1461.3583 -847.69166 286.67271)
(1663.3956 -941.34901 303.2546)
(1867.7385 -1035.2202 319.75364)
(2070.0981 -1128.0212 335.94452)
(2265.9976 -1218.5828 352.01309)
(2451.4647 -1305.4209 367.40322)
(2622.9864 -1387.9182 381.41995)
(2778.1401 -1465.7632 393.52576)
(2915.8034 -1539.0998 402.56661)
(3036.7562 -1609.1198 407.97632)
(3127.6808 -1668.5333 405.64287)
(3421.7389 -1652.1936 269.83882)
(3205.5167 -1367.1416 111.33151)
(3277.9611 -1229.6741 -21.14199)
(3305.7775 -1041.4431 -152.37174)
(3247.1892 -979.51298 -149.38735)
(3166.7561 -907.31135 -141.8511)
(3078.107 -828.37043 -131.83606)
(2976.1925 -742.13184 -119.99181)
(2856.382 -647.44335 -105.99316)
(2716.3911 -546.47972 -91.242316)
(2554.3403 -440.4711 -75.903155)
(2371.7178 -332.98657 -61.079689)
(2170.7484 -227.55248 -47.343226)
(1955.9765 -127.87092 -35.549575)
(1733.5458 -37.610688 -25.812761)
(1508.159 40.578813 -18.716329)
(1287.6866 104.9803 -14.307154)
(1081.4395 156.88869 -12.694853)
(873.40667 188.00514 -12.343837)
(690.66507 209.5484 -17.018795)
(522.96819 216.03113 -21.406555)
(374.87936 206.79523 -29.312903)
(246.28919 183.78552 -35.383535)
(143.58229 155.40882 -47.441314)
(61.727527 105.28739 -48.533824)
(30.242542 51.672545 -42.469216)
(0 0 0)
(0 0 0)
(0 0 0)
(0 0 0)
(0 0 0)
(0 0 0)
(3677.2105 -2005.6836 401.0271)
(3552.1685 -1928.5803 403.74816)
(3429.7903 -1850.8213 409.43423)
(3843.0108 -1362.8104 -166.90611)
(3723.5058 -1290.2989 -162.86761)
(3604.8654 -1217.5264 -160.79623)
(7.5847094 33.244461 42.923644)
(68.212643 75.925107 30.512034)
(151.96676 108.87121 40.521499)
(266.97195 129.5548 43.675662)
(408.36144 138.59666 52.957512)
(582.21572 126.65692 58.953645)
(775.75901 95.569928 65.357684)
(994.84514 43.294688 69.575009)
(1227.85 -30.841835 70.469207)
(1471.0216 -124.60182 68.048563)
(1717.0488 -234.06018 63.150347)
(1956.9052 -355.54022 55.036175)
(2184.107 -482.03695 45.385223)
(2392.6812 -608.47474 34.791231)
(2578.8202 -729.5792 24.271813)
(2741.7505 -842.17749 14.543522)
(2882.6982 -944.3296 5.8754882)
(3005.7253 -1036.2002 -1.6426999)
(3115.5889 -1119.5475 -7.9285436)
(3220.0037 -1196.3657 -14.17493)
(3324.3686 -1270.0221 -18.852246)
(3433.1674 -1342.1979 -23.857644)
(3565.9919 -1421.3913 -28.074096)
(-0.74526631 20.134263 11.977514)
(70.760201 34.730935 14.447576)
(166.65282 42.410335 29.457277)
(295.04157 36.888412 45.364736)
(447.52801 10.446486 59.114155)
(616.04955 -29.009301 75.277676)
(797.9763 -82.068392 89.263732)
(988.39682 -150.65966 101.62272)
(1181.312 -227.60691 110.59967)
(1375.6853 -314.48707 118.31357)
(1566.3787 -406.83196 122.15049)
(1752.7964 -503.57716 124.27273)
(1933.5393 -602.52451 124.16663)
(2108.4559 -702.49076 122.64701)
(2278.4618 -802.62165 120.10571)
(2444.8985 -902.44193 117.0058)
(2609.9783 -1002.2517 113.87341)
(2776.0884 -1102.3246 110.86124)
(2944.3926 -1203.811 108.61682)
(3118.2196 -1306.1524 106.59439)
(3295.7462 -1411.5867 106.31677)
(3478.6185 -1517.9631 105.12548)
(3643.6587 -1617.4229 105.68573)
(-17.885144 0.71884471 -5.3506079)
(68.470959 -8.1037663 8.2413955)
(166.11069 -28.194873 31.074788)
(298.9308 -70.618483 54.253089)
(438.99304 -122.89117 77.561321)
(592.25162 -177.05239 100.81349)
(751.66871 -247.33019 121.17582)
(914.2405 -318.0191 138.0358)
(1080.85 -394.70102 153.98025)
(1250.1575 -476.69928 166.83138)
(1423.6357 -561.80176 178.19333)
(1602.6824 -652.3742 188.30196)
(1787.8209 -747.25545 197.19126)
(1980.3658 -847.34121 205.33132)
(2179.6777 -952.21141 212.87523)
(2385.2444 -1061.4881 219.92024)
(2594.7719 -1174.3227 226.6645)
(2805.3792 -1289.4592 233.09193)
(3013.6834 -1405.7573 239.25261)
(3216.0607 -1520.7736 244.58919)
(3408.3452 -1634.6595 249.75839)
(3590.586 -1744.7121 253.23268)
(3734.5552 -1840.1197 253.78667)
(0 0 0)
(0 0 0)
(0 0 0)
(0 0 0)
(0 0 0)
(0 0 0)
(0 0 0)
(0 0 0)
(0 0 0)
(16.18667 -19.521576 -23.429941)
(21.940089 -25.875096 5.0208013)
(18.297119 -13.460322 23.756537)
(75.220207 -114.71881 12.44035)
(61.827887 -115.18087 31.753874)
(52.654888 -102.97668 62.027024)
(140.13944 -150.76744 26.691208)
(133.47007 -145.87235 48.294614)
(119.24389 -159.462 77.861822)
(226.35051 -200.41466 60.316066)
(211.4403 -208.65668 79.628673)
(185.60786 -194.67632 97.594949)
(336.38459 -266.37597 85.979764)
(311.0963 -265.0902 101.01036)
(283.23627 -265.0622 121.77299)
(454.38703 -325.26457 114.41083)
(424.65165 -320.54819 130.63736)
(390.81052 -314.41794 143.40769)
(588.74077 -392.75274 142.66665)
(553.63649 -392.43655 154.11523)
(512.81623 -377.99047 168.40164)
(739.99805 -472.75441 170.88765)
(695.10538 -459.01068 180.28943)
(650.77884 -446.25089 190.38932)
(902.2184 -555.91038 196.98764)
(852.4797 -541.85587 205.07748)
(801.29834 -520.39075 212.57851)
(1079.7047 -649.00607 223.00901)
(1023.298 -626.72184 228.92513)
(965.71723 -601.63914 233.55322)
(1269.9765 -746.81748 247.72553)
(1206.7772 -718.88384 251.60994)
(1143.5735 -687.80136 253.54056)
(1472.5074 -851.63614 271.63281)
(1402.8767 -817.19736 273.28875)
(1333.5148 -780.59351 272.71809)
(1685.5847 -959.82031 294.09259)
(1609.0528 -919.01049 293.79857)
(1533.3485 -876.46327 291.02138)
(1905.7341 -1071.0572 315.50891)
(1822.1757 -1023.8233 313.43105)
(1740.4822 -974.9834 308.64332)
(2129.5042 -1182.4283 335.39296)
(2039.0359 -1129.0882 331.58063)
(1950.9761 -1074.6832 325.88544)
(2352.194 -1292.6947 353.49005)
(2254.7841 -1233.6145 348.70175)
(2160.6799 -1173.3549 342.46772)
(2568.8609 -1399.6398 369.78082)
(2465.1442 -1335.0618 364.12267)
(2364.8266 -1269.9567 358.27742)
(2774.7801 -1501.5113 383.41402)
(2664.9153 -1432.5516 377.8484)
(2558.9871 -1362.9416 373.03504)
(2964.868 -1597.4482 394.37465)
(2850.2651 -1524.5697 389.26569)
(2739.1772 -1451.4039 385.86088)
(3136.586 -1686.072 401.72431)
(3018.0116 -1610.7301 397.84402)
(2902.249 -1534.8024 396.48743)
(3287.0071 -1767.8407 405.52291)
(3165.2993 -1690.3573 403.28868)
(3046.372 -1612.9244 403.93947)
(3416.4126 -1841.9634 405.17134)
(3293.5839 -1764.7087 405.20252)
(3172.0526 -1686.5372 407.62404)
(3525.2674 -1911.2007 402.26963)
(3402.956 -1834.4327 403.95657)
(3279.818 -1757.1836 407.11168)
(3571.176 -1424.8156 -28.001061)
(3458.4331 -1355.1464 -24.897354)
(3346.5669 -1285.2293 -22.971202)
(3546.438 -1578.7278 103.17022)
(3442.7029 -1513.0999 106.74308)
(3329.5473 -1443.0315 109.39766)
(3755.2022 -1859.6524 256.1596)
(3644.2422 -1789.087 259.68148)
(3520.5963 -1713.6205 263.87145)
(63.810884 60.810406 21.30043)
(53.566172 58.266418 0.51816681)
(52.888629 51.429662 -17.464287)
(112.05399 121.9274 18.164159)
(105.05445 112.34562 -8.9951493)
(91.024672 101.85642 -28.503978)
(208.50795 173.10848 20.896938)
(189.84543 162.44284 2.5585406)
(175.78751 153.4107 -23.933116)
(319.14843 204.76585 22.506744)
(302.61498 192.13102 1.5249031)
(279.73122 184.47845 -17.977211)
(462.82608 226.42016 26.469852)
(438.87275 213.6706 8.0294079)
(411.19483 206.25094 -9.9319774)
(625.11711 225.75748 27.961531)
(594.95092 216.86507 12.361417)
(562.43341 209.10279 -4.403744)
(809.419 212.57746 28.751892)
(774.78482 206.0644 14.258306)
(736.81236 200.18369 -1.2848643)
(1014.1342 180.9664 27.083473)
(972.38093 177.42336 13.694567)
(927.82293 177.15214 1.1283472)
(1235.7072 133.56542 21.115325)
(1183.3708 134.67218 11.469126)
(1131.1654 135.34986 0.66408233)
(1464.3323 66.400701 13.300663)
(1416.2863 74.665098 5.3212703)
(1354.0968 79.484495 -4.0726699)
(1712.5615 -16.173497 0.27680868)
(1648.146 -2.512472 -4.6639985)
(1581.9996 8.6555191 -10.737209)
(1959.2674 -114.1663 -15.25259)
(1886.7912 -94.242904 -16.770748)
(1813.5915 -76.728241 -20.473949)
(2203.0172 -224.94692 -33.73572)
(2122.7552 -198.23703 -32.181055)
(2041.8596 -173.89636 -33.202411)
(2436.8596 -344.94219 -53.816142)
(2348.7915 -311.30523 -49.348798)
(2260.7306 -280.02802 -47.741908)
(2654.4161 -469.6983 -74.480449)
(2559.187 -429.32466 -67.629614)
(2464.6629 -391.20102 -63.856969)
(2850.7306 -594.63518 -94.286699)
(2749.2863 -547.92321 -85.884667)
(2649.033 -503.24768 -80.540464)
(3023.4813 -715.79826 -112.39174)
(2916.4446 -662.94069 -103.38374)
(2811.2828 -612.44047 -96.831975)
(3170.7555 -828.68154 -127.79847)
(3059.6122 -771.10504 -118.65222)
(2951.1294 -715.7888 -111.95811)
(3295.4519 -933.20518 -140.29673)
(3182.0001 -871.27937 -132.23017)
(3069.4294 -810.96769 -125.49385)
(3400.4126 -1026.2163 -150.17822)
(3283.3333 -960.48384 -142.26419)
(3170.0651 -897.53689 -136.53991)
(3489.018 -1109.441 -156.34857)
(3371.2339 -1041.2469 -150.23388)
(3257.0707 -975.45949 -145.30547)
(3568.9895 -1185.3273 -160.20361)
(3451.9758 -1115.5068 -155.61702)
(3336.5639 -1047.0078 -151.80587)
(3643.0446 -1252.9816 -162.65841)
(3526.9217 -1182.3958 -158.81937)
(3411.1246 -1112.1825 -155.14451)
(-4.2926507 15.542695 -24.135976)
(36.289761 65.085473 -23.036672)
(92.127602 78.300193 -12.44765)
(186.4003 101.23955 -8.2829908)
(300.11589 107.69173 3.4637465)
(441.57407 106.35718 13.439816)
(606.98302 90.223656 23.566575)
(793.16211 58.075718 33.359267)
(1000.2145 11.716962 41.085744)
(1219.6378 -53.597365 46.389568)
(1447.249 -132.87518 48.773883)
(1675.601 -226.00786 48.355302)
(1896.3772 -327.83479 45.097664)
(2103.3662 -434.16367 39.568514)
(2290.6705 -540.13753 32.571276)
(2455.3214 -641.63306 24.779985)
(2596.594 -735.82014 17.092261)
(2716.0404 -821.08111 9.7767995)
(2817.1936 -897.51574 3.0553134)
(2904.7103 -966.02831 -2.4994949)
(2984.3815 -1029.1522 -7.943237)
(3062.4644 -1089.2637 -12.112419)
(3127.6266 -1143.8042 -16.093902)
(-22.726149 11.529984 4.4989936)
(21.657087 16.065209 10.186585)
(98.31409 7.4101999 23.951519)
(201.92302 2.7950714 34.651)
(326.63845 -17.937834 49.768205)
(476.32061 -47.023854 64.84838)
(636.8869 -87.733943 79.214943)
(812.2904 -136.24588 92.573097)
(991.54677 -195.29897 103.36383)
(1173.1794 -260.9529 112.09823)
(1352.3122 -332.09244 118.35071)
(1524.7931 -408.02841 122.24964)
(1688.5159 -485.36676 124.34143)
(1842.3983 -563.97903 125.011)
(1986.5979 -641.80078 124.43833)
(2122.7514 -719.01839 123.48379)
(2253.6598 -795.39085 121.87852)
(2382.16 -871.75862 120.31385)
(2511.8386 -948.99887 118.87771)
(2645.503 -1028.4038 117.52406)
(2786.3978 -1111.5735 116.12094)
(2935.9037 -1199.1605 115.52946)
(3128.0097 -1306.7701 115.70061)
(-38.872947 -29.358711 28.297509)
(28.890187 -35.015609 45.408041)
(98.777788 -100.42912 72.39995)
(195.13908 -111.27718 81.556641)
(313.73129 -165.31335 106.34373)
(440.38533 -213.24325 122.37125)
(575.95268 -258.76401 139.37976)
(718.81249 -314.84407 154.05676)
(866.36782 -369.44318 165.70531)
(1018.5219 -430.68034 175.74348)
(1173.92 -494.02968 183.22016)
(1334.3598 -562.52475 189.44934)
(1498.7944 -635.23914 194.80792)
(1668.2121 -712.1242 199.27011)
(1841.7596 -793.32451 204.00736)
(2019.0916 -878.17984 208.89018)
(2198.5945 -966.22682 214.47113)
(2378.6106 -1056.9447 221.03681)
(2557.2438 -1149.5391 228.52016)
(2732.5186 -1243.6245 236.64174)
(2903.0006 -1338.7108 245.4998)
(3068.7436 -1434.6855 253.88922)
(3238.8437 -1537.3831 262.12412)
(18.911468 14.701869 16.703931)
(11.635807 15.552875 4.1842897)
(16.986507 11.092855 -12.953018)
(80.254826 69.527714 12.862078)
(75.675356 62.669067 -0.069501028)
(58.944882 63.038908 -13.117545)
(156.37989 92.648956 22.266023)
(138.02251 84.250402 10.986417)
(125.8075 80.210049 -2.4585046)
(259.94984 116.17842 29.573816)
(244.97731 107.94895 16.009192)
(222.24519 102.88822 3.6778903)
(393.5517 122.53408 37.120598)
(369.9707 111.80721 26.085029)
(343.95265 108.68415 15.619349)
(553.52809 112.80814 46.765269)
(523.64071 106.13403 36.177218)
(491.09748 103.87581 25.357196)
(737.00617 87.3995 54.647661)
(701.55172 82.688138 44.444484)
(664.7441 83.201873 35.828082)
(945.38651 42.063842 60.166594)
(902.19088 40.204045 52.224847)
(857.20903 45.263455 45.1196)
(1169.7797 -24.324701 64.457457)
(1118.7569 -19.286219 58.163749)
(1068.9482 -9.0811789 51.493206)
(1407.3824 -107.85908 64.395314)
(1349.4046 -97.568636 59.755846)
(1291.6526 -81.410393 54.998849)
(1649.8277 -208.85806 62.121724)
(1583.7883 -191.19639 59.52943)
(1519.0774 -167.8171 56.039276)
(1889.4706 -321.56182 56.761377)
(1815.9723 -297.05261 55.623112)
(1744.7603 -266.41291 53.409371)
(2119.4629 -441.99493 49.276107)
(2038.7856 -410.15844 49.318543)
(1960.7043 -372.42873 48.289344)
(2332.8551 -564.33627 40.445709)
(2245.3777 -525.67118 41.241571)
(2161.113 -481.27236 41.297858)
(2524.9783 -683.58236 30.902378)
(2431.681 -638.68813 32.175017)
(2341.8467 -588.37343 33.000522)
(2693.9127 -796.02841 21.588213)
(2595.5036 -745.33491 22.954482)
(2500.7105 -690.09339 24.463693)
(2839.4772 -898.64131 12.655362)
(2737.0279 -843.42767 14.236064)
(2638.1925 -784.11164 16.219575)
(2964.6679 -991.51049 4.6719336)
(2859.0015 -932.09614 6.2845174)
(2756.9299 -869.70738 8.5434427)
(3073.088 -1074.3103 -2.6363314)
(2966.6449 -1012.4738 -0.95015068)
(2860.7165 -946.9257 1.620289)
(3184.8127 -1154.3778 -9.2453651)
(3051.1503 -1080.2468 -6.7807221)
(2955.3855 -1017.9288 -4.215061)
(3275.2724 -1223.0313 -14.772978)
(3145.5513 -1149.9161 -12.456554)
(3045.6006 -1084.4029 -9.8291493)
(3360.6788 -1286.849 -20.371877)
(3247.9887 -1218.5133 -17.541298)
(3137.9344 -1149.0472 -14.546304)
(3459.6294 -1353.112 -24.716608)
(3347.4871 -1284.3218 -21.495767)
(3235.7193 -1214.3054 -18.754438)
(8.6009417 11.14302 4.133853)
(6.3400235 8.6413559 -3.2357889)
(7.1588937 13.350128 0.82702574)
(75.173015 26.340956 5.871275)
(68.724778 22.728134 5.0402138)
(49.518809 18.892644 8.4691369)
(168.77059 28.047818 24.717104)
(151.47671 18.816003 27.715454)
(137.91932 16.880991 25.009887)
(284.00581 20.276942 37.570586)
(270.0527 6.8310302 37.151238)
(241.73266 1.7694581 37.297881)
(432.37876 -4.9021912 55.394638)
(404.65344 -15.56426 59.110421)
(371.42354 -14.412003 53.652806)
(591.98115 -41.494968 73.341987)
(560.35785 -50.143664 72.516553)
(522.94423 -49.247821 70.176208)
(770.11522 -91.350746 87.364681)
(731.56478 -97.409664 88.905342)
(685.81648 -92.702254 84.133985)
(957.45868 -155.81599 102.90913)
(911.00446 -155.97719 102.99919)
(859.86138 -145.07069 98.371306)
(1148.2587 -227.51322 112.60204)
(1094.9195 -222.13809 112.58749)
(1039.3019 -207.56339 108.57157)
(1340.899 -309.0812 121.62125)
(1281.235 -297.70057 121.45915)
(1219.8337 -276.88737 117.36867)
(1530.0297 -396.06642 126.40035)
(1463.0415 -377.89052 125.88823)
(1398.0516 -352.01281 122.46088)
(1713.455 -487.07689 128.74632)
(1640.7733 -462.13293 128.34769)
(1571.5951 -430.99853 125.60021)
(1889.7315 -579.96292 128.82099)
(1810.8291 -548.61035 128.42804)
(1737.883 -512.66975 126.59222)
(2057.6649 -673.42323 127.10743)
(1973.1955 -636.04363 126.79609)
(1896.7939 -595.45861 126.08566)
(2218.4723 -766.60167 124.25414)
(2128.9135 -723.26986 124.20091)
(2048.5606 -678.59009 124.53703)
(2373.2492 -858.83352 120.84625)
(2279.0214 -810.36788 121.15252)
(2194.6041 -761.73052 122.57119)
(2524.7489 -950.63643 117.31905)
(2426.326 -897.43048 118.05606)
(2337.5106 -844.89383 120.32823)
(2675.2568 -1042.4792 114.06718)
(2573.2648 -984.77166 115.37622)
(2479.7099 -928.59971 118.32657)
(2827.7454 -1134.8431 111.53151)
(2722.2871 -1073.5529 113.24166)
(2623.9325 -1013.6697 116.73957)
(2983.5895 -1229.3984 109.03432)
(2876.1091 -1163.8741 111.89999)
(2773.1369 -1101.2542 115.54413)
(3130.85 -1319.1381 107.95611)
(3060.9441 -1268.7742 112.01237)
(2927.5169 -1191.7406 114.22707)
(3316.4216 -1425.467 107.21761)
(3201.9469 -1355.5549 110.65042)
(3089.8413 -1286.3284 113.74332)
(3491.3616 -1528.8184 107.81525)
(3374.9133 -1456.6719 110.78481)
(3259.6799 -1385.2521 113.81766)
(1.3559652 -11.581765 -1.681283)
(-8.0765712 -6.8943636 7.7853245)
(-11.532292 -12.302612 17.073707)
(83.343105 -26.75015 14.058726)
(77.189913 -15.547009 28.235097)
(59.471219 -30.321043 39.024448)
(168.0794 -57.691339 39.359682)
(153.52846 -78.29193 51.057159)
(136.8976 -85.075948 61.904328)
(291.71007 -105.51576 60.286787)
(268.25237 -100.50665 70.27896)
(240.43784 -110.56569 77.086612)
(420.97937 -147.2629 87.634124)
(391.65042 -156.75971 95.793711)
(360.59801 -159.61527 100.638)
(566.29651 -205.10493 107.35688)
(530.18263 -206.53394 113.00843)
(491.99997 -208.74718 116.87406)
(718.3896 -267.97313 128.84355)
(675.5692 -265.05437 134.6301)
(632.07125 -261.99816 136.93392)
(874.70151 -332.49067 145.3159)
(825.36394 -326.88338 148.17731)
(776.96174 -320.23803 151.25786)
(1035.2087 -404.31538 160.13492)
(980.5888 -391.9177 163.47567)
(927.0286 -380.80555 164.50234)
(1199.2669 -479.26841 172.78498)
(1139.3463 -462.41974 174.23944)
(1080.9728 -446.59757 174.70177)
(1367.1326 -558.05992 183.05478)
(1302.1667 -535.60069 183.7132)
(1238.6274 -514.79272 183.76748)
(1539.9332 -641.51154 192.41743)
(1470.094 -613.75209 192.14001)
(1401.2931 -587.59291 191.28906)
(1718.1007 -728.84692 200.51845)
(1643.1278 -696.11854 199.23571)
(1568.9175 -664.76058 197.92541)
(1902.4386 -821.08164 207.87194)
(1822.4606 -783.183 205.94659)
(1742.4934 -745.87732 204.12993)
(2092.6867 -917.49476 214.67814)
(2007.2717 -874.50417 212.31909)
(1921.5744 -831.66455 210.09344)
(2288.2128 -1018.0438 221.05844)
(2197.1882 -970.01227 218.51705)
(2105.4125 -921.40425 216.12507)
(2487.1541 -1122.0492 227.15407)
(2390.1825 -1068.8189 224.80757)
(2292.7461 -1014.7353 222.36973)
(2687.2859 -1228.5786 233.18855)
(2584.568 -1170.2304 231.24932)
(2481.05 -1110.9446 229.00973)
(2885.6702 -1336.4921 239.02207)
(2776.9415 -1273.1617 237.70758)
(2668.2966 -1209.2812 236.10845)
(3079.4037 -1444.4737 244.70197)
(2966.0347 -1377.3975 244.34818)
(2852.0614 -1309.0832 242.95258)
(3266.1883 -1552.7048 249.84964)
(3147.4777 -1480.8271 250.09899)
(3029.4098 -1409.4513 250.23544)
(3443.6112 -1658.7144 253.84964)
(3322.3704 -1584.2964 254.78859)
(3200.4625 -1509.7536 256.18463)
(3610.4813 -1762.2528 256.86714)
(3486.8566 -1686.9803 259.24953)
(3363.4556 -1610.3632 261.32998)
)
;

boundaryField
{
    free
    {
        type            zeroGradient;
    }
    fixed
    {
        type            fixedValue;
        value           uniform (0 0 0);
    }
    traction
    {
        type            zeroGradient;
    }
}


// ************************************************************************* //
