/*--------------------------------*- C++ -*----------------------------------*\
  =========                 |
  \\      /  F ield         | OpenFOAM: The Open Source CFD Toolbox
   \\    /   O peration     | Website:  https://openfoam.org
    \\  /    A nd           | Version:  6
     \\/     M anipulation  |
\*---------------------------------------------------------------------------*/
FoamFile
{
    version     2.0;
    format      ascii;
    class       pointVectorField;
    location    "0.65";
    object      u;
}
// * * * * * * * * * * * * * * * * * * * * * * * * * * * * * * * * * * * * * //

dimensions      [0 1 0 0 0 0 0];

internalField   nonuniform List<vector> 
625
(
(0 0 0)
(0 0 0)
(2.424438 -0.27257805 0.04862393)
(2.2664445 -0.81116915 0.026029853)
(0 0 0)
(0 0 0)
(2.2805951 -0.83206586 0.024183918)
(2.4383194 -0.29373649 0.047974302)
(0 0 0)
(0 0 0)
(0 0 0)
(2.3843395 -0.40776902 0.042160124)
(2.3446214 -0.5415678 0.03707234)
(2.3058232 -0.67538634 0.031304507)
(0.0083594959 0.026589983 0.024467873)
(0.029211921 0.052263697 0.024403944)
(0.065395897 0.076777469 0.025741098)
(0.11663302 0.097668004 0.024829959)
(0.1774682 0.11343902 0.025051037)
(0.25121717 0.12539614 0.024609121)
(0.33321205 0.13243746 0.024882785)
(0.42382696 0.13448041 0.025018722)
(0.52215028 0.13263861 0.02567173)
(0.62649367 0.12594577 0.02598087)
(0.7368666 0.11554187 0.026873929)
(0.8519489 0.10100484 0.027797726)
(0.97131486 0.083022634 0.028911632)
(1.0942512 0.061685749 0.030212027)
(1.2202864 0.03735092 0.03166839)
(1.3488011 0.010306012 0.033325375)
(1.479617 -0.019074411 0.034932467)
(1.6118838 -0.050824418 0.036957336)
(1.7460116 -0.084377725 0.038528129)
(1.8805721 -0.11940199 0.040622289)
(2.0163123 -0.15624099 0.042613094)
(2.1522809 -0.1936953 0.044540439)
(2.2880434 -0.23248752 0.047065531)
(-0.0035509105 -0.020915332 -0.030542915)
(0.017058814 -0.044602722 -0.023790879)
(0.04974055 -0.072958466 -0.026413613)
(0.091968492 -0.098754475 -0.022890116)
(0.14407434 -0.12372766 -0.021645241)
(0.20819586 -0.15310805 -0.019191669)
(0.27888861 -0.17999683 -0.017762449)
(0.35917266 -0.20983296 -0.015403734)
(0.44628506 -0.24052596 -0.013756749)
(0.54053142 -0.27223968 -0.011562822)
(0.64069129 -0.30560042 -0.0095678905)
(0.74646025 -0.34002778 -0.0073484178)
(0.85713132 -0.37566723 -0.0051537804)
(0.97207357 -0.41239874 -0.0028423937)
(1.0909631 -0.4500667 -0.00043644686)
(1.2131251 -0.48858465 0.0020253407)
(1.3383044 -0.52790114 0.0046828031)
(1.4660117 -0.56768935 0.0073257169)
(1.59585 -0.60813452 0.010264638)
(1.7276559 -0.64869846 0.013146359)
(1.8608117 -0.68946039 0.016198299)
(1.9951665 -0.73034575 0.01940066)
(2.1302094 -0.77063359 0.022295732)
(0 0 0)
(0 0 0)
(0 0 0)
(0.004462793 -0.01382545 0.020853559)
(0.021301447 -0.056632453 0.024480514)
(0.057008019 -0.072993727 0.019191003)
(0.098121033 -0.10123552 0.017010263)
(0.15386454 -0.13279384 0.017088969)
(0.21780252 -0.15744517 0.013669665)
(0.28886278 -0.18823541 0.014207189)
(0.37004265 -0.21894379 0.012488352)
(0.45797107 -0.25078261 0.012009516)
(0.55242216 -0.28406809 0.011594651)
(0.65302527 -0.31818668 0.011175356)
(0.75907372 -0.35408816 0.011151303)
(0.86992403 -0.39057366 0.011199196)
(0.98519837 -0.42844303 0.011450321)
(1.104257 -0.46705828 0.011903286)
(1.2266885 -0.50648424 0.012534951)
(1.3520348 -0.54659277 0.01339182)
(1.4798711 -0.58716718 0.014474118)
(1.6098464 -0.62804568 0.015723451)
(1.7416075 -0.66916947 0.017250321)
(1.8747589 -0.71018659 0.018889975)
(2.0091856 -0.75124364 0.020744499)
(2.1442058 -0.79146536 0.022781913)
(2.3202901 -0.69574424 0.030244902)
(2.3581065 -0.56255046 0.036449251)
(2.3980637 -0.4292254 0.042696468)
(2.3020263 -0.25366954 0.044568722)
(2.1656606 -0.21464172 0.041467395)
(2.0295861 -0.17650171 0.038186095)
(1.8938576 -0.13940037 0.034853562)
(1.7587667 -0.10352064 0.031543522)
(1.6247059 -0.069415472 0.028174788)
(1.4919673 -0.036857329 0.024848513)
(1.360942 -0.0066190153 0.021536148)
(1.2319993 0.021447838 0.018217071)
(1.1056024 0.046743742 0.014958671)
(0.98223038 0.069120605 0.011729836)
(0.86247107 0.088225779 0.0085462638)
(0.74682924 0.10367722 0.0054103088)
(0.63620776 0.11555106 0.0022902029)
(0.53101604 0.1228081 -0.00039489144)
(0.43259785 0.1258636 -0.00365833)
(0.34110005 0.12516298 -0.0066371884)
(0.25813661 0.11859122 -0.0090369614)
(0.18470159 0.10866363 -0.012524298)
(0.12075649 0.092174723 -0.014365992)
(0.070269947 0.075250815 -0.018948478)
(0.030712155 0.049237183 -0.018685627)
(0.014868696 0.024157588 -0.016787181)
(0 0 0)
(0 0 0)
(0 0 0)
(0 0 0)
(0 0 0)
(0 0 0)
(2.2695374 -0.81688367 0.025246866)
(2.2733181 -0.82204601 0.025306884)
(2.2764859 -0.82740629 0.024652196)
(2.4284014 -0.27746639 0.048503138)
(2.431898 -0.28290509 0.048208362)
(2.4353963 -0.28802563 0.048107371)
(-0.0065837829 -0.0076554617 0.014595158)
(0.0075394872 -0.013233214 0.011661023)
(0.03495758 -0.016859314 0.013521541)
(0.076061535 -0.019673453 0.013310359)
(0.12912883 -0.019778997 0.014273415)
(0.19675635 -0.018661472 0.01463903)
(0.27477521 -0.016255081 0.015303586)
(0.36553751 -0.012696248 0.016021887)
(0.46635801 -0.0091530953 0.016772873)
(0.57716479 -0.0066683814 0.017644107)
(0.69618495 -0.0056728727 0.018699759)
(0.82178325 -0.0077001121 0.019882162)
(0.95256321 -0.013289164 0.021179868)
(1.0866841 -0.023402394 0.022675915)
(1.222645 -0.038699823 0.024291678)
(1.3590019 -0.059399237 0.025970754)
(1.4945733 -0.086165553 0.02787884)
(1.6284456 -0.11857191 0.029786037)
(1.7601803 -0.15652456 0.031775009)
(1.8890702 -0.19980976 0.034111013)
(2.0157699 -0.24739001 0.036061626)
(2.1399936 -0.29844784 0.038416626)
(2.2624874 -0.35268197 0.040558459)
(-0.0099650639 0.0041019674 0.0019736443)
(0.012128071 0.0060681866 0.00013859966)
(0.045319592 0.007638058 0.00094738385)
(0.092585001 0.0061799191 0.0018289094)
(0.15159758 0.00086175435 0.0022507238)
(0.22025943 -0.007000432 0.0030053141)
(0.29833588 -0.017830665 0.0038123358)
(0.38475931 -0.032276602 0.0048702723)
(0.47815485 -0.049334834 0.005900161)
(0.57842059 -0.069452823 0.0072119928)
(0.68416515 -0.092103067 0.0086420375)
(0.79518963 -0.11737132 0.010226824)
(0.91061873 -0.14484514 0.0119749)
(1.0299908 -0.17441419 0.013880447)
(1.1527683 -0.20578864 0.015846818)
(1.2784847 -0.23886961 0.018004889)
(1.4067722 -0.27338339 0.020216778)
(1.5370806 -0.3091662 0.022510496)
(1.6694269 -0.34611007 0.02492319)
(1.8026769 -0.38403258 0.027331872)
(1.9376287 -0.42260213 0.02963339)
(2.0728693 -0.46203201 0.032376976)
(2.2091719 -0.50192253 0.034635699)
(-0.0079854442 0.010236678 -0.012370937)
(0.022575898 0.019114133 -0.013202163)
(0.061561489 0.022721119 -0.012561417)
(0.11606547 0.018609373 -0.011391307)
(0.17791538 0.0081396052 -0.010190903)
(0.24849464 -0.0072540159 -0.0085593093)
(0.32505588 -0.031328535 -0.0068206299)
(0.40633931 -0.060471016 -0.0051139733)
(0.4918909 -0.095722592 -0.0033430467)
(0.58110804 -0.13586729 -0.0014540684)
(0.67383452 -0.17961354 0.00037454128)
(0.77026768 -0.22609404 0.0023132702)
(0.8706349 -0.27385062 0.0042479491)
(0.97549516 -0.32174956 0.0062003205)
(1.0852491 -0.36883952 0.0082680083)
(1.2004587 -0.41398897 0.010346977)
(1.321274 -0.45666171 0.01256376)
(1.448041 -0.49640714 0.014906478)
(1.5804288 -0.53272023 0.017256597)
(1.7182017 -0.56621291 0.020006468)
(1.860769 -0.59654114 0.022536823)
(2.0069245 -0.62448985 0.025413024)
(2.1559546 -0.65052876 0.028270144)
(0 0 0)
(0 0 0)
(0 0 0)
(0 0 0)
(0 0 0)
(0 0 0)
(0 0 0)
(0 0 0)
(0 0 0)
(0.0084230574 -0.0089062421 -0.013497211)
(0.012070755 -0.011978727 -0.003179846)
(0.010967908 -0.0084700221 0.0068804921)
(0.030957398 -0.052403098 -0.013593961)
(0.03198486 -0.053477809 -0.0017687587)
(0.030551868 -0.052162107 0.012163218)
(0.06023992 -0.073603182 -0.014986161)
(0.064345018 -0.072920547 -0.0037171124)
(0.064632777 -0.078309222 0.0096854739)
(0.10087681 -0.10064698 -0.012650884)
(0.10576161 -0.10398296 -0.0027152449)
(0.10420541 -0.10270284 0.0083034275)
(0.15498038 -0.12907927 -0.012411136)
(0.15854145 -0.13056912 -0.0038325619)
(0.15891116 -0.13371199 0.0074186015)
(0.21623712 -0.15582459 -0.011321042)
(0.22089646 -0.15879346 -0.0025923254)
(0.22116356 -0.15958614 0.0066383858)
(0.28781989 -0.18472836 -0.0098647211)
(0.29195126 -0.18775143 -0.0032017684)
(0.29298048 -0.19000837 0.0064734276)
(0.36741204 -0.21451613 -0.0087339305)
(0.37144981 -0.21723967 -0.0022417777)
(0.37265373 -0.21951298 0.0059017179)
(0.45428896 -0.24501356 -0.0073123251)
(0.45807417 -0.24876822 -0.0016095037)
(0.4597231 -0.25102011 0.0058608498)
(0.54800479 -0.27746885 -0.0059172939)
(0.55185177 -0.28113205 -0.00076524486)
(0.55389257 -0.28391337 0.0059962944)
(0.64779544 -0.31076803 -0.0043411885)
(0.65168633 -0.31477016 0.00025737814)
(0.65377212 -0.31764008 0.0062476571)
(0.75322755 -0.34560789 -0.00264077)
(0.75696748 -0.34965105 0.0013386182)
(0.75938769 -0.35290041 0.006738656)
(0.86343309 -0.38133292 -0.00092888157)
(0.86727981 -0.38555409 0.0026198044)
(0.86975609 -0.3891377 0.0074093183)
(0.97811022 -0.41830697 0.00093075693)
(0.98190166 -0.42260395 0.004056179)
(0.98450959 -0.42644312 0.0081772427)
(1.0966099 -0.45607801 0.0028962779)
(1.1004146 -0.46050676 0.0055974392)
(1.1031285 -0.46469501 0.0091451717)
(1.2184923 -0.49476364 0.0049402924)
(1.222325 -0.4993159 0.007279848)
(1.2251012 -0.50370466 0.010267283)
(1.3433718 -0.53409013 0.0071277062)
(1.3471557 -0.53874079 0.0091464188)
(1.3500614 -0.54337787 0.011547843)
(1.4707491 -0.57399553 0.0094373735)
(1.4746079 -0.578796 0.011087074)
(1.477551 -0.58361144 0.013032975)
(1.6004001 -0.61431372 0.011859565)
(1.6041647 -0.61918065 0.013245921)
(1.6071948 -0.6241311 0.014647429)
(1.7318259 -0.65485397 0.014451077)
(1.7355752 -0.65983367 0.0154613)
(1.7386982 -0.66492735 0.01649155)
(1.8647268 -0.69549542 0.017077615)
(1.8684204 -0.70056854 0.01783572)
(1.8716596 -0.70572433 0.018426685)
(1.9988044 -0.73617446 0.0198584)
(2.0025657 -0.74129355 0.020260328)
(2.0058301 -0.74661352 0.020524014)
(2.1338852 -0.77654849 0.022520912)
(2.1373365 -0.78151666 0.022572315)
(2.1409054 -0.78673947 0.02265596)
(2.388304 -0.4128438 0.042567799)
(2.3918421 -0.41815304 0.042478189)
(2.3951701 -0.42343123 0.042573747)
(2.3481926 -0.54680851 0.037127087)
(2.3517609 -0.55221256 0.03678369)
(2.3549305 -0.55721665 0.036589502)
(2.3093795 -0.68067177 0.030883769)
(2.3130587 -0.68596272 0.030930484)
(2.3164051 -0.69094386 0.030557227)
(0.01944473 0.021251595 0.011403014)
(0.020668165 0.02355107 0.0035549731)
(0.021706646 0.02313725 -0.0052804104)
(0.038062927 0.049253443 0.011998325)
(0.041145301 0.049161359 0.001575974)
(0.039497944 0.04800966 -0.0096605329)
(0.076741453 0.07505366 0.013559459)
(0.078023113 0.074109396 0.0044839608)
(0.078696801 0.07424109 -0.0083721515)
(0.12444948 0.093910035 0.013785474)
(0.12797939 0.092969116 0.0045535657)
(0.12770421 0.093138323 -0.0062248411)
(0.18704742 0.11105129 0.015244119)
(0.190738 0.10975353 0.006074597)
(0.19034162 0.10879965 -0.0038138092)
(0.25966969 0.12189255 0.015374043)
(0.26211361 0.11974818 0.0081286364)
(0.26343083 0.1192311 -0.0017938559)
(0.34114375 0.12844709 0.016681613)
(0.34471095 0.12681444 0.009140809)
(0.34552411 0.12532929 0.00036457674)
(0.43182013 0.1306153 0.017570943)
(0.43497902 0.12836202 0.010806058)
(0.43604526 0.12709881 0.0027966494)
(0.52923848 0.12861815 0.018981631)
(0.53251247 0.1256415 0.012384298)
(0.53424886 0.12410062 0.0051464458)
(0.63367983 0.12159026 0.01990256)
(0.63682685 0.11876623 0.014538989)
(0.63862222 0.11665714 0.0075590645)
(0.74343906 0.11085203 0.021430304)
(0.74668787 0.10790963 0.016051421)
(0.7487307 0.10571172 0.010047485)
(0.85821899 0.096326523 0.022893388)
(0.86152921 0.093008754 0.018131475)
(0.86384797 0.090437713 0.012788072)
(0.97726141 0.078180883 0.024523694)
(0.9806353 0.074571975 0.020232458)
(0.98307951 0.071769809 0.015477066)
(1.0999367 0.056702486 0.026266632)
(1.103315 0.052906039 0.022488817)
(1.1059449 0.049776124 0.01827113)
(1.2256981 0.032325043 0.028152452)
(1.2291147 0.028219358 0.024785953)
(1.2318901 0.024808803 0.021134705)
(1.3540259 0.0050943844 0.030084967)
(1.3574747 0.00084956974 0.027236005)
(1.3603419 -0.0028160018 0.024053412)
(1.4845553 -0.024265159 0.032210611)
(1.4879789 -0.02882749 0.029736147)
(1.4909984 -0.03288324 0.02701716)
(1.6167659 -0.056240724 0.034355305)
(1.6202624 -0.060894732 0.032246132)
(1.6232755 -0.06493707 0.02999627)
(1.7504378 -0.08952009 0.036495451)
(1.7538046 -0.094329371 0.034989138)
(1.7570216 -0.098952172 0.033038016)
(1.8849253 -0.12474618 0.039146898)
(1.8885618 -0.12991664 0.037467418)
(1.8917268 -0.13446785 0.036075306)
(2.0204878 -0.16150492 0.0412615)
(2.0239742 -0.16670027 0.040213445)
(2.0271525 -0.17142048 0.039108281)
(2.1560841 -0.19911886 0.043527913)
(2.1595862 -0.20412078 0.042954989)
(2.162925 -0.2091936 0.042140817)
(2.292369 -0.23765717 0.046365189)
(2.2957651 -0.24291833 0.045723124)
(2.2991708 -0.24824056 0.045273274)
(-0.0047022598 -0.01359768 -0.010084209)
(0.011699345 -0.011235091 -0.01141229)
(0.037958212 -0.021637726 -0.0089644427)
(0.081611344 -0.023749739 -0.0088566376)
(0.13600573 -0.02566788 -0.0070784016)
(0.20354994 -0.025994786 -0.0052500163)
(0.28324321 -0.024210909 -0.0032108923)
(0.3739999 -0.022030671 -0.00087196277)
(0.4757356 -0.019618761 0.0013060229)
(0.58697539 -0.018119755 0.0040789461)
(0.70633368 -0.018294157 0.0065039775)
(0.83243763 -0.021489653 0.0093796703)
(0.96361191 -0.028127043 0.012143629)
(1.0980816 -0.039280509 0.014941456)
(1.234395 -0.055500712 0.017781541)
(1.371037 -0.077194194 0.020576084)
(1.5068885 -0.10460763 0.023362641)
(1.6410027 -0.13778966 0.026095914)
(1.7728102 -0.17639611 0.028860954)
(1.9021041 -0.22015415 0.031493695)
(2.0288559 -0.26815001 0.034241624)
(2.1532455 -0.3196157 0.036849109)
(2.2761551 -0.37397308 0.039691105)
(-0.0069265582 0.0041723211 0.00027942091)
(0.014389373 0.0066092311 0.00015406958)
(0.050497895 0.003541441 0.0025355846)
(0.098318822 0.0027791386 0.002144581)
(0.15760584 -0.0036279116 0.003476457)
(0.22769403 -0.012366944 0.004522761)
(0.30614041 -0.024223514 0.0053385919)
(0.39329226 -0.039265448 0.0062582425)
(0.48766328 -0.057770578 0.0072956755)
(0.58851226 -0.078978378 0.0082626434)
(0.69510051 -0.10295177 0.0091845352)
(0.80686423 -0.12985679 0.010450486)
(0.92289782 -0.15856763 0.011608558)
(1.0428647 -0.18963205 0.013070447)
(1.1660986 -0.22223034 0.014666149)
(1.2921599 -0.25646396 0.016454113)
(1.4206925 -0.29192829 0.018460374)
(1.5511794 -0.32858484 0.020641058)
(1.6834593 -0.36612436 0.023030628)
(1.8170301 -0.40455347 0.025498619)
(1.9516686 -0.44350476 0.028190533)
(2.0869224 -0.48316833 0.030843415)
(2.2235497 -0.52319206 0.033694311)
(-0.0066376019 0.010458639 0.011296881)
(0.029100544 0.023102656 0.010773775)
(0.070629741 0.015427405 0.013143675)
(0.12415335 0.017302525 0.0092825701)
(0.18878509 0.0024396839 0.0099569394)
(0.25944748 -0.015002517 0.0089307088)
(0.33622144 -0.038831621 0.0082911981)
(0.41836794 -0.070507742 0.0085692884)
(0.5040068 -0.10621884 0.0084514534)
(0.59362254 -0.14761873 0.0088788948)
(0.68643473 -0.19221634 0.0094969323)
(0.78306329 -0.23950239 0.010284547)
(0.88355776 -0.2879823 0.011316056)
(0.98861185 -0.33665461 0.012476306)
(1.0985566 -0.38442655 0.013811926)
(1.2139052 -0.43037706 0.01525424)
(1.3349696 -0.4738549 0.016825935)
(1.4618167 -0.51430695 0.018530679)
(1.594372 -0.55156182 0.020308805)
(1.7322063 -0.58556275 0.022238058)
(1.8747013 -0.61644305 0.024261605)
(2.0210166 -0.64496939 0.026261765)
(2.1698994 -0.67093279 0.028527967)
(-0.00017974639 -0.014587543 0.0064696045)
(0.00047149185 -0.013828414 0.0027909786)
(0.0026195289 -0.014687973 -0.003625265)
(0.017255344 -0.013829535 0.0054985651)
(0.020927137 -0.014022595 0.00019626516)
(0.01833471 -0.013760856 -0.0066338222)
(0.04504513 -0.019856436 0.0069882431)
(0.04656063 -0.021322636 0.0019551331)
(0.046688673 -0.021245227 -0.0043517097)
(0.085155248 -0.021741267 0.0074734055)
(0.089375298 -0.02268348 0.0018820779)
(0.088368621 -0.023203725 -0.0040910736)
(0.13906516 -0.022844552 0.0079215458)
(0.14265696 -0.024658 0.003340831)
(0.1425709 -0.025430179 -0.002503108)
(0.20536771 -0.022196005 0.0091434967)
(0.20914719 -0.024075835 0.0043108866)
(0.20887554 -0.024857652 -0.0012156738)
(0.28335377 -0.020036369 0.010013613)
(0.28728669 -0.021932776 0.0054257695)
(0.28802888 -0.023354125 0.00079747421)
(0.3735335 -0.016657727 0.010983154)
(0.37746417 -0.019423338 0.0070276494)
(0.37805661 -0.021075713 0.0023172322)
(0.4740541 -0.013882116 0.01224937)
(0.47786444 -0.01623608 0.0083582224)
(0.47896808 -0.018047649 0.0046521187)
(0.58436802 -0.01118925 0.013460354)
(0.58822271 -0.014050979 0.010050826)
(0.58958549 -0.016656151 0.0066370552)
(0.70297219 -0.010575154 0.014935196)
(0.70658953 -0.013681547 0.011920785)
(0.70827827 -0.016299587 0.0089641728)
(0.82815404 -0.012699552 0.016497195)
(0.83188584 -0.015916974 0.013824117)
(0.83382158 -0.019195109 0.011372603)
(0.95858807 -0.018399676 0.018197969)
(0.96222777 -0.021929327 0.015886835)
(0.96435204 -0.025528422 0.013904154)
(1.0923495 -0.028652171 0.020059626)
(1.0959634 -0.032347379 0.018105355)
(1.0983104 -0.036337342 0.016437007)
(1.2279978 -0.043945399 0.022010615)
(1.2315842 -0.047896981 0.020355937)
(1.2340971 -0.052210944 0.019040819)
(1.364067 -0.064776771 0.024056374)
(1.3676166 -0.068981567 0.022763107)
(1.3702591 -0.073542885 0.021645863)
(1.4993328 -0.091519182 0.026248482)
(1.5028793 -0.095851617 0.025128126)
(1.5056947 -0.10068222 0.024260475)
(1.6330347 -0.12392419 0.028395406)
(1.63658 -0.12859512 0.027615396)
(1.6393842 -0.13343848 0.026853936)
(1.7644227 -0.16192667 0.030744513)
(1.7678191 -0.16655705 0.030065435)
(1.7709142 -0.17188024 0.029488895)
(1.8930796 -0.20509339 0.033129073)
(1.8968577 -0.21034022 0.032579573)
(1.8997864 -0.21526335 0.031996463)
(2.0195364 -0.25276068 0.035261093)
(2.0233829 -0.2577323 0.035070181)
(2.0262665 -0.26293744 0.034621404)
(2.1436962 -0.30381498 0.037923409)
(2.1472025 -0.30881033 0.037628679)
(2.1503815 -0.31429803 0.03712334)
(2.2663101 -0.35777292 0.040273995)
(2.2697307 -0.36303997 0.040000289)
(2.2730959 -0.36839451 0.039816419)
(-0.0024244223 0.0025590126 0.00041271395)
(-0.00047407476 0.0033486863 -0.0010871114)
(0.0015011624 0.0035925356 -0.00043504487)
(0.020668163 0.0052663086 -0.0019191093)
(0.023117011 0.0061494818 -0.0018133597)
(0.021131101 0.0049250933 -0.001232114)
(0.055670413 0.0056434797 -0.00043454313)
(0.057561073 0.0051525366 0.00093906866)
(0.058346714 0.0041951427 0.00076506024)
(0.10140117 0.0029443881 -0.00031931573)
(0.10567964 0.0022102015 0.00024468967)
(0.10475103 3.0553381e-05 0.00094419095)
(0.16079573 -0.0018916658 0.00068518511)
(0.16381345 -0.003073601 0.0022434163)
(0.16352831 -0.0044954523 0.001716303)
(0.22855726 -0.010305096 0.001630601)
(0.23218096 -0.011717713 0.0022451072)
(0.232658 -0.013951409 0.0030260194)
(0.30643705 -0.021231493 0.0022446118)
(0.31005848 -0.023221474 0.0037158041)
(0.31038414 -0.025818204 0.0036852049)
(0.39231291 -0.036003058 0.0037124678)
(0.39598011 -0.038190704 0.004679022)
(0.39647986 -0.04037042 0.0049562604)
(0.4853385 -0.053036231 0.0047022281)
(0.48905147 -0.055664428 0.0057386222)
(0.49003945 -0.058575005 0.0059131807)
(0.58524773 -0.073451842 0.0061294679)
(0.58908701 -0.076542109 0.0072557187)
(0.59009512 -0.079398965 0.0072826082)
(0.69068378 -0.096394651 0.0076780195)
(0.69457588 -0.099842682 0.0086204622)
(0.69576713 -0.1028539 0.0083750494)
(0.8013957 -0.12187985 0.0092908477)
(0.80538756 -0.12573921 0.010180378)
(0.80679219 -0.12889149 0.0098120813)
(0.91655989 -0.1495591 0.011129459)
(0.92063573 -0.15386903 0.011893174)
(0.92208547 -0.15714838 0.011305308)
(1.0356494 -0.17938478 0.013042239)
(1.0397346 -0.18404687 0.01368306)
(1.0414404 -0.18735759 0.01290253)
(1.1582021 -0.21092307 0.015093659)
(1.1623146 -0.21585763 0.015604074)
(1.1641465 -0.21942907 0.014696539)
(1.2836697 -0.2441751 0.01725965)
(1.2877011 -0.24940328 0.017633827)
(1.2898373 -0.25302656 0.016620752)
(1.4116945 -0.27881451 0.019525022)
(1.4157595 -0.2840947 0.019769545)
(1.4180064 -0.28804332 0.018701329)
(1.5419085 -0.31460323 0.021879326)
(1.5457221 -0.32018183 0.022009044)
(1.5483445 -0.32425058 0.020962485)
(1.6737886 -0.35173562 0.024323046)
(1.6777062 -0.35712822 0.024330112)
(1.6803888 -0.36154812 0.023389252)
(1.8072133 -0.38936448 0.026800863)
(1.8108301 -0.39533255 0.026794697)
(1.8138209 -0.39964235 0.025804129)
(1.94208 -0.42839469 0.029399445)
(1.9448301 -0.43337144 0.028899751)
(1.9485751 -0.43845421 0.028603771)
(2.0767555 -0.46761732 0.031963849)
(2.0804583 -0.47289966 0.031742234)
(2.0836173 -0.47796061 0.031197544)
(2.2129875 -0.50721289 0.034398479)
(2.216592 -0.51275527 0.034191072)
(2.2199763 -0.51776528 0.033906425)
(0.0013122262 0.012962178 -0.0062690941)
(0.0014527497 0.01362887 -0.00048358257)
(0.0014156627 0.014003699 0.0047902045)
(0.035239205 0.019195912 -0.0080265605)
(0.038364622 0.022596907 -0.00042987016)
(0.036115515 0.02040719 0.0053004875)
(0.073305826 0.019838568 -0.0072527313)
(0.077041718 0.01548157 -0.00010510269)
(0.077064915 0.01562983 0.0063284846)
(0.12736487 0.01411585 -0.0066958372)
(0.13051938 0.014499747 -0.00025467468)
(0.13019177 0.013453305 0.0048496379)
(0.18833459 0.004936356 -0.0052504177)
(0.19235197 0.0016243812 0.00050062294)
(0.19272078 0.0015743816 0.005228947)
(0.25831282 -0.012301905 -0.0045978)
(0.26217192 -0.01526652 0.00066950514)
(0.26248842 -0.016228659 0.0047200886)
(0.33409169 -0.036085279 -0.0029629628)
(0.3379152 -0.039274505 0.0017969152)
(0.33875182 -0.039620306 0.0052912027)
(0.4149032 -0.065423495 -0.0016928079)
(0.41855604 -0.069174345 0.00205206)
(0.4199111 -0.07040354 0.0053913277)
(0.49989464 -0.10100547 -0.00036954482)
(0.5035815 -0.10483631 0.0032334791)
(0.50529195 -0.10609907 0.0062095064)
(0.58864583 -0.14118175 0.001239203)
(0.5922987 -0.14526852 0.0042118549)
(0.59427704 -0.14685534 0.0066058116)
(0.68095282 -0.18502928 0.0026951083)
(0.68445842 -0.18923751 0.0052410116)
(0.68689013 -0.19124337 0.0074411413)
(0.77702491 -0.23159314 0.0043022845)
(0.78049955 -0.23580994 0.0065057592)
(0.78317826 -0.23820557 0.0083292954)
(0.8770647 -0.27936665 0.0059482895)
(0.88044134 -0.28365556 0.0077714381)
(0.88343499 -0.28651078 0.0093706151)
(0.98163578 -0.32741205 0.0076302819)
(0.98499698 -0.33163958 0.0091874419)
(0.9881623 -0.33490108 0.010563133)
(1.0911416 -0.37450372 0.0094481825)
(1.0944471 -0.37871843 0.010709014)
(1.0978297 -0.38245408 0.011931268)
(1.2060492 -0.41975888 0.011310422)
(1.2094027 -0.42403512 0.01240106)
(1.2128557 -0.42812263 0.013417616)
(1.3266654 -0.46252489 0.01336039)
(1.3300047 -0.46679081 0.014181991)
(1.3335464 -0.47124453 0.015090274)
(1.4531056 -0.5022231 0.015477407)
(1.4565131 -0.50667191 0.016172769)
(1.4600934 -0.51141033 0.016951933)
(1.5852474 -0.53873497 0.017759575)
(1.588703 -0.54333544 0.018323805)
(1.5922244 -0.54816567 0.018871227)
(1.7227621 -0.57214412 0.020276401)
(1.7261758 -0.57669126 0.020546926)
(1.7297827 -0.58183322 0.021105537)
(1.8648176 -0.60227567 0.022684712)
(1.8684477 -0.60721688 0.023054385)
(1.8719222 -0.6122682 0.023339752)
(2.0108473 -0.63019866 0.02547262)
(2.0143454 -0.63524137 0.02574384)
(2.0179649 -0.64053168 0.025838302)
(2.1594757 -0.65624384 0.028206509)
(2.1630195 -0.66102299 0.028152493)
(2.1664157 -0.66655122 0.028133685)
)
;

boundaryField
{
    free
    {
        type            calculated;
    }
    fixed
    {
        type            calculated;
    }
    traction
    {
        type            calculated;
    }
}


// ************************************************************************* //
