/*--------------------------------*- C++ -*----------------------------------*\
  =========                 |
  \\      /  F ield         | OpenFOAM: The Open Source CFD Toolbox
   \\    /   O peration     | Website:  https://openfoam.org
    \\  /    A nd           | Version:  6
     \\/     M anipulation  |
\*---------------------------------------------------------------------------*/
FoamFile
{
    version     2.0;
    format      ascii;
    class       pointScalarField;
    location    "1.46";
    object      E;
}
// * * * * * * * * * * * * * * * * * * * * * * * * * * * * * * * * * * * * * //

dimensions      [1 -1 -2 0 0 0 0];

internalField   nonuniform List<scalar> 
28033
(
72545.673
60646.802
11533.314
-7910.6488
84046.838
71145.472
-4807.0386
10693.474
42212.471
30373.713
20404.279
14776.089
8419.9742
5488.634
3692.9276
3407.0306
4830.0879
7292.7465
11170.901
17529.82
25478.621
35020.064
53137.086
7322.164
2179.839
1767.4323
1853.2892
2669.11
4210.6268
4727.1155
6615.847
7772.2909
8491.8896
9537.1429
9267.8879
8857.71
8002.0658
4897.4773
54142.286
32953.34
31709.752
31557.669
32944.33
33342.123
33819.259
33918.961
34189.23
33797.645
33857.824
33505.367
33230.419
32809.515
32351.063
31804.262
31189.958
30795.333
30067.292
29369.972
28819.351
27943.055
27381.767
26657.995
25790.573
25263.19
24257.874
23717.806
22635.165
21967.061
21109.144
20013.545
19056.887
18151.881
17277.11
16657.06
15622.723
15037.478
14130.459
13284.755
12334.161
11454.844
10458.453
9560.8307
8629.3331
7865.5708
6997.11
6420.5573
5638.8229
5117.8612
4378.1732
3772.691
3002.8599
2265.2173
1461.5984
676.73659
-108.86553
-846.67939
-1567.041
-2244.2965
-2946.4887
-3601.8136
-4415.6634
-5038.41
-5814.1712
-6615.5905
-7232.8583
-7963.4433
-8352.1651
-8632.6097
-8956.4382
-9081.2124
-9243.0531
-9254.095
-9314.3149
-9319.6218
-9395.6701
-9316.7747
-9372.6721
-9336.103
-9101.8986
-9041.0886
-8534.0547
-8517.6327
-7922.97
-7837.9551
-7024.0818
-6834.0126
-5813.4638
-5566.4786
-4246.9559
-4023.4354
-2378.5429
-1815.0738
4480.2411
54027.72
30284.076
37578.166
32464.706
34944.866
34380.203
34358.208
34244.442
34539.358
33748.98
34027.792
33202.108
33074.759
32339.576
31840.499
31121.983
30433.137
29494.391
28841.696
28130.087
27027.243
26577.211
25438.76
25113.616
24060.686
23644.998
22498.45
21885.826
20765.704
20037.61
18819.447
18184.599
17291.426
16603.089
15942.883
15435.373
14892.411
14273.046
13855.529
13560.893
13185.847
12915.135
12644.631
12436.103
12191.671
12063.884
11882.651
11806.105
11709.656
11653.141
11589.961
11515.752
11379.775
11237.614
10991.25
10738.325
10454.726
10182.046
9961.0894
9843.0874
9814.5937
9924.427
10140.831
10450.882
10826.659
11172.48
11635.126
12019.635
12384.425
12524.127
12947.595
12834.295
13416.168
13251.132
13601.536
13565.521
13562.63
13565.946
13340.471
13144.783
12862.054
12449.133
12160.175
11681.499
11366.824
10886.743
10532.392
10021.528
9559.2502
8983.9912
8338.9832
7601.6624
6791.0781
5961.595
1933.4612
52073.534
35425.299
24013.635
19180.994
10849.242
7205.9862
5236.3205
4537.4265
5863.0911
9617.1303
13357.364
20036.54
28517.032
39523.482
51506.22
91114.684
47985.123
21676.661
39813.472
33922.352
36014.288
36295.738
36084.07
36810.306
36349.614
36405.455
34755.854
35950.027
33341.815
34562.142
31902.509
33344.694
29683.432
31351.266
28413.93
28587.562
28405.213
26947.562
27167.478
24788.573
25133.191
23865.043
22821.269
22418.503
20409.185
19561.394
18928.275
18018.933
17766.229
16745.059
17614.503
15983.315
16530.25
16100.426
15717.235
15359.481
14885.078
14479.316
14068.317
13786.22
13551.845
13434.839
13353.307
13290.613
13176.921
12966.029
12636.464
12183.543
11617.56
11052.102
10499.827
10073.42
9839.5977
9767.6501
9932.3812
10194.63
10563.419
10911.495
11182.336
11332.759
11390.593
11231.346
10173.988
12067.63
10476.792
10486.015
10131.58
9972.0669
9838.6482
9586.3946
9274.4497
8894.1732
8453.2527
7916.9851
7455.8039
6950.3761
6566.3835
6154.2662
5876.7075
5495.0508
5203.5227
4729.0008
4274.4514
3615.8161
2951.527
2146.9368
1351.3214
587.21195
-376.27229
3845.8557
7884.1091
6726.4376
8348.1392
9502.1604
10251.242
8604.9571
9246.4372
4086.2148
6051.2254
4440.202
3443.8112
1187.8738
2942.773
1292.3433
5048.3879
4452.8717
4752.1133
5591.3932
4469.7604
3853.0373
3030.6429
2293.1996
1572.0229
838.70587
219.18161
-385.12821
-870.73753
-1321.7976
-1823.7789
-2064.2136
-2364.3364
-2616.2203
-2857.5236
-3111.3524
-3333.5947
-3566.033
-3757.7145
-3938.677
-4055.6266
-4056.7469
-4110.3307
-3139.2597
-5459.0084
-3712.8457
-4078.9692
-3764.8478
-3631.7903
-3437.7124
-3154.4395
-2816.1135
-2376.5518
-1858.0205
-1253.3913
-581.6601
141.10258
887.03081
1650.0183
2397.9765
3139.5635
3858.6463
4572.9116
5284.0838
5997.3538
6746.0394
7499.7023
8267.7509
9085.5965
9855.1586
10691.872
11411.601
12284.248
12770.644
14255.103
14032.941
15001.787
16575.251
16280.08
17671.199
18497.426
19962.016
20856.945
21629.076
22642.236
23427.855
24814.393
25902.823
26292.895
26740.105
28521.644
28251.604
29344.628
29890.247
30771.369
31353.561
32069.185
32880.289
32679.074
33930.247
33561.963
35744.992
34108.431
34787.759
34182.199
35356.1
32978.129
32403.543
35147.216
33952.126
23849.964
64834.385
41543.004
42104.362
39721.151
40366.631
40626.459
41911.144
40984.659
42105.597
41846.474
41754.007
40274.017
39192.834
40604.19
42160.72
45769.531
43343.895
44393.055
42278.092
44966.927
44732.859
43765.563
46556.849
49188.867
47759.925
47959.795
45549.358
43928.359
43094.081
42231.654
47036.52
-6472.7655
-6503.3292
-6448.0796
-6467.846
-6628.5639
-6670.5352
-6715.0207
-6719.4663
-6684.2982
-6697.9248
-6660.6834
-6535.1093
-6410.8548
-6648.2184
-5399.673
12178.38
11495.313
11740.927
11269.602
11723.825
11657.354
11678.679
11678.889
11722.271
11724.33
11821.497
11746.696
11803.56
11641.8
11794.08
40429.967
28085.191
25708.017
25269.358
25198.462
25764.246
26145.984
26699.874
26663.738
27244.008
26587.49
26928.43
26161.911
26425.796
25463.492
25695.802
25158.179
24891.731
24509.269
24147.009
23736.075
23034.55
22625.258
21653.309
21086.268
20244.443
19496.939
18752.711
18183.494
17623.864
17032.665
16710.128
16395.691
16000.031
15762.062
15026.127
14608.406
13851.767
13333.6
12567.518
11986.448
11196.599
10636.088
9986.9322
9211.7845
8507.8787
7654.9662
6808.5043
5838.5292
4913.7556
3948.9092
3113.2171
2379.5416
1847.3164
1502.3902
1345.532
1339.4935
1419.0692
1518.7978
1584.0892
1560.3479
1438.0125
1229.1236
941.86848
510.33288
223.70047
254.49253
518.69396
247.89926
-210.78742
-325.6515
-655.37361
-873.49475
-1091.9498
-1236.4488
-1364.1401
-1286.6467
-1213.9021
-897.03493
-576.32357
-44.192741
439.869
1133.1673
1490.6186
1895.1906
2553.4979
2905.6287
3383.4596
3799.2472
4115.2243
4717.8395
4928.7158
5796.0344
5990.8298
8661.48
25854.596
19079.678
19774.638
18254.275
18970.441
18566.733
18984.378
19136.726
19393.596
19533.355
19564.834
19751.363
19598.299
19540.455
19330.94
19412.762
18915.39
18964.888
18663.149
18504.523
18175.061
17952.047
17574.653
17273.179
16810.936
16450.653
15966.344
15523.078
15030.886
14590.102
14209.443
13759.306
13316.918
12782.879
12417.877
11876.329
11495.335
11024.123
10343.424
9717.8194
9057.2219
8471.019
7896.9748
7202.89
6609.5801
6114.9268
5509.7756
4976.5276
4387.9761
3805.063
3201.5331
2651.6411
2131.6093
1703.7502
1354.0913
1105.4057
915.30272
785.37415
665.39892
548.22136
382.95744
233.03735
19.31753
-223.94423
-323.5247
-356.91025
1851.2487
4424.4461
4040.9994
4307.1815
4536.1032
4612.8805
4705.0407
4837.4254
4979.4109
5161.4436
5407.0011
5612.7929
5939.9267
6111.3783
6499.5022
6531.9932
6969.1608
4512.9823
2918.7667
3335.4247
3902.517
3874.4452
4595.1005
4513.0052
5236.4374
5128.9518
6050.48
5291.6714
7882.2608
17044.949
11479.31
13607.526
12476.353
13073.888
12546.641
12820.951
13008.634
13110.079
13365.915
13347.017
13673.792
13424.719
13661.663
13477.048
13446.086
13389.722
13336.824
13210.536
13088.83
13130.794
12878.806
12895.313
12574.849
12470.295
12099.512
11870.101
11486.774
11206.167
10850.739
10526.226
10172.876
9946.9228
9617.1538
9365.9781
8943.7291
8438.4573
7816.1193
7441.3454
6930.5835
6425.6418
5962.9885
5392.0366
5086.955
4763.6074
4381.9513
4005.8622
3628.5044
3197.2473
2739.326
2330.7007
1920.1398
1628.6211
1400.0266
1312.3608
1286.4625
1350.4025
1436.9453
1526.0394
1582.6785
1615.2318
1611.3587
1542.5309
1537.8157
1465.7596
1167.8742
501.8294
3946.0126
3652.9966
3829.2315
3968.2064
3756.4416
3880.0031
3896.5312
4093.1464
4180.0644
4344.3146
4493.6701
4652.7617
4760.5774
4967.4374
5053.2314
5029.7961
5493.2524
3328.0318
3905.6847
3889.6832
4229.4286
4382.5577
4515.5865
4939.832
4874.1147
5603.1013
5176.2505
7522.7891
10696.39
7323.9188
7635.3177
7903.6268
7936.5228
7987.93
8115.176
8236.7448
8178.9271
8460.8509
8497.6218
8684.7797
8604.324
8903.4167
8622.4188
8905.2701
8665.0136
8788.3064
8660.5386
8776.1284
8599.2349
8695.0153
8554.332
8579.223
8437.2
8348.841
8179.7777
7987.087
7719.6854
7498.5321
7234.4637
7026.4863
6787.667
6514.075
6386.2756
5952.5886
5852.5948
5806.655
5206.5906
4803.781
4367.7172
4056.8141
3698.8355
3405.6935
3067.3753
2824.3663
2607.5148
2407.9471
2191.8079
2012.2622
1830.6064
1671.9223
1566.708
1491.5726
1485.7704
1514.404
1599.8762
1701.1985
1830.7826
1967.7101
2107.9125
2242.1474
2372.4806
2542.4383
2608.5717
2841.5696
2831.6077
1769.0287
1586.425
1723.8682
2318.6536
2523.6738
2026.1294
1891.602
2149.1738
2218.3007
2414.0493
2504.4643
2736.5137
2826.5661
3113.3662
3130.2438
3602.5219
3539.1571
5284.2783
5428.3394
5999.8387
5761.5732
6261.9391
5968.352
6566.2476
6003.8618
7125.5281
5603.6798
7747.3643
7270.5345
3302.4332
4490.7864
3594.2754
4410.5614
3937.4329
4451.437
4144.8349
4480.8904
4493.2978
4574.7639
4657.1865
4722.33
4733.2651
4730.1664
4772.4864
4697.6869
4760.4326
4729.524
4742.7135
4828.1905
4879.5918
4935.6296
4960.9768
4928.6461
4848.2143
4747.6558
4542.2476
4426.8063
4222.593
4088.6965
3922.9129
3794.5411
3688.865
3527.8527
3264.0513
3319.3984
2374.1534
2131.8359
1846.7547
1804.2656
1539.1876
1431.7696
1396.0345
1393.1733
1393.5491
1410.0204
1386.6942
1394.1262
1397.4489
1437.3653
1502.2465
1654.1158
1824.8694
2090.0804
2369.2237
2704.2625
3041.484
3395.7657
3751.0074
4091.1476
4445.8507
4789.6886
5139.9422
5449.9105
5821.0337
6163.3057
6257.7756
6703.5756
7037.5926
7450.7778
7047.5421
6691.0235
5966.371
6290.5442
6411.6597
6535.0341
6662.7903
6772.0586
6861.102
6943.2263
7030.642
7027.5251
7168.0998
7185.0865
7167.5058
6990.9955
6949.3904
6886.4489
6772.5676
6858.117
6686.7676
7280.5668
5878.9786
7758.1081
4365.736
1608.8015
1875.1845
1494.784
1552.9277
1662.9857
1552.6826
1754.9422
1687.5291
1885.5521
1808.3063
2052.6794
1858.4114
2078.2591
1892.8501
1977.8301
1867.5782
1974.2375
1877.9575
2103.2351
2025.149
2247.8502
2192.1151
2355.1723
2244.7929
2359.5593
2145.8102
2175.3051
1966.5328
1898.1885
1753.3921
1669.2743
1606.7334
1529.8682
1425.2187
1425.5394
1174.3996
1772.9236
1656.549
1822.2982
1510.4162
1471.4466
1285.7593
1305.7809
1204.7
1164.867
1071.929
1038.4171
970.01713
943.28088
920.78577
948.58463
999.7115
1095.8454
1220.955
1369.4854
1531.3276
1696.4904
1870.7506
2026.2324
2185.254
2378.3054
2499.5609
2675.7934
2902.0378
2998.3381
3214.4508
3348.1726
3611.0454
3732.672
3813.5092
3641.1419
3855.1949
4708.3832
5119.5915
5220.3142
5450.6517
5586.4523
5809.9262
5864.1036
6137.8919
6054.3768
6429.0522
6223.771
6654.154
6435.8691
6954.7723
6711.6936
7294.579
6916.9478
7634.4297
6969.5428
8030.4639
6292.2956
7757.8946
3059.7639
194.76164
793.47478
-323.71645
277.95639
-173.31901
281.9219
-30.912594
364.85314
139.20369
379.08402
170.69526
279.70649
117.71221
65.771905
16.76695
-42.339845
-37.19816
-46.134092
92.992945
61.448371
295.90811
181.09284
355.02947
217.78934
212.98533
33.495524
-8.5377285
-199.2783
-202.73479
-303.532
-278.62579
-286.63993
-348.97851
-312.03013
-427.96894
-489.07056
-817.6964
-661.89628
-602.81897
-767.32053
-772.3885
-801.46928
-780.50013
-735.16694
-698.70253
-588.68088
-567.47923
-498.57066
-486.93202
-428.04094
-404.60603
-310.8647
-221.72056
-61.015393
103.39934
334.00251
557.10396
811.55978
1052.2126
1326.2767
1544.5131
1797.7933
2090.0442
2280.0392
2626.2079
2850.3563
3206.6722
3491.2832
3782.2866
4156.4115
4343.6003
4733.0557
6278.169
6882.7699
7105.4941
7349.8233
7542.46
7742.2165
7899.4993
8059.5647
8191.2502
8321.005
8380.0754
8514.3164
8433.1453
8511.3545
8355.6562
8399.3769
8070.5155
8197.1448
7638.293
8522.4116
6358.9053
8028.3321
2618.8078
410.86159
555.88594
188.58849
203.58341
299.7944
245.27121
366.94507
396.11307
468.48184
400.32849
511.41639
366.97543
350.45702
284.00097
207.52943
179.59501
204.73431
191.3081
324.90719
205.03713
365.6133
204.39459
432.42324
74.18218
253.25216
-69.810639
-7.6766355
-231.92442
-199.74502
-352.30083
-302.25289
-435.33565
-381.95961
-417.63442
-542.17663
-495.06166
-587.73251
-625.18566
-664.24086
-749.62402
-691.78412
-680.65372
-592.44181
-581.5054
-449.22833
-425.31798
-327.57832
-284.40429
-197.02355
-150.12687
-54.36449
28.183597
141.23472
264.88692
406.00381
564.8137
716.46442
892.56016
1071.7572
1242.6197
1435.9468
1653.5261
1839.7436
2084.486
2308.8588
2575.2794
2827.8045
3079.3356
3368.8689
3588.2862
3887.9252
4191.0702
4313.3539
4422.307
4653.3102
4911.582
5149.773
5425.4494
5575.1588
5882.3896
5940.448
6281.7843
6249.7895
6651.5211
6568.0033
7050.114
6899.2998
7418.8584
7206.8504
7859.7684
7424.8347
8405.6233
6436.8959
8008.858
3277.8493
927.28198
1621.9279
908.54762
1327.3164
1107.0281
1510.168
1255.6919
1644.8218
1311.6708
1526.9893
1194.5082
1170.0545
871.03374
803.71438
581.65294
597.27095
479.57661
548.94972
592.29242
599.60725
797.34928
602.4798
580.01565
241.63819
296.19976
-148.35697
-67.160689
-394.45446
-325.37555
-469.25055
-447.87699
-488.07253
-465.3395
-659.82543
-555.82081
-798.53522
-790.68074
-965.8041
-1033.6203
-1066.9833
-1117.3424
-1050.803
-1062.3146
-916.85424
-870.87625
-743.29647
-685.29093
-581.7863
-543.94956
-464.50042
-428.67794
-360.36482
-302.3433
-214.39398
-121.41227
1.1928808
116.67094
282.86385
409.74882
574.57476
749.37423
892.24678
1099.4175
1268.5275
1530.2111
1717.7109
2003.682
2289.9919
2606.506
2925.4922
3327.7331
3588.0657
4089.8302
4413.2946
4126.53
4448.3361
4730.4632
4996.4822
5299.0654
5531.8362
5833.0289
6055.3061
6342.629
6582.4194
6786.5727
7003.6472
7114.0373
7267.7097
7244.57
7361.1253
7009.5529
7742.2096
5751.4494
8193.2183
5928.8519
3636.977
4699.2901
4242.319
4780.0122
4775.5135
4997.1298
4895.6437
5082.8977
5094.6288
5017.8108
5044.8334
4920.3826
4818.2341
4774.1525
4596.2375
4577.4944
4439.7579
4381.1088
4267.898
4048.5826
3862.0736
3371.4667
3326.1365
2966.0178
2883.9663
2493.2626
2506.7803
2134.699
2192.8066
1852.8332
1894.5436
1665.2569
1525.6479
1517.6628
1271.2267
1228.6811
1082.428
976.59063
959.68111
857.01292
875.34473
800.58673
845.71733
771.23283
800.73047
748.42806
754.17272
700.81506
690.89655
638.36851
606.18005
563.62324
529.61417
484.20147
460.56124
421.0412
401.38723
392.57264
369.50645
402.9995
416.46476
446.42751
529.60385
587.68185
669.95428
774.94852
908.8538
1022.7614
1152.5624
1313.7031
1470.4623
1605.6961
1892.8643
204.89442
-2767.582
-2925.7425
-2912.1065
-2654.8927
-2546.6247
-2194.9942
-2037.2897
-1571.8961
-1353.8275
-777.65184
-518.88682
200.61337
473.14065
1323.1986
1636.5428
2587.985
3011.7475
4241.3932
3642.7493
8363.1174
6987.4342
5860.5759
6754.6107
6651.0555
7234.1001
7323.6745
7369.2698
7466.952
7545.6183
7479.0608
7317.0548
7279.4722
7091.6564
6939.653
6953.042
6673.8802
6916.4555
6515.668
6761.7633
6347.6501
6430.5217
5243.053
5558.0497
5366.7904
4955.0678
4680.377
4208.8043
3989.762
3565.5155
3395.3063
3071.806
2988.5139
2637.9664
2663.4051
2277.2477
2216.5486
1974.1345
1826.5518
1668.9431
1470.7841
1375.222
1182.9508
1140.1915
997.83563
967.47003
870.05396
834.37909
718.82146
655.72257
519.45996
398.77043
232.16182
80.512849
-107.91617
-273.56625
-434.52279
-583.81277
-694.86695
-790.99815
-849.20136
-881.33658
-891.57721
-902.01231
-817.86262
-855.93621
-705.89084
-676.6436
-570.44357
-470.78865
-302.14409
-140.75175
46.724652
309.63619
218.08521
3335.4033
-1267.0784
-1106.3208
-997.76206
-794.73913
-494.30511
-212.06705
187.68318
582.92719
1090.7657
1583.3741
2193.6927
2728.9171
3381.9389
3921.2131
4541.4358
5138.6837
5546.6076
6484.0367
6148.5117
10340.022
14737.063
10063.125
12055.675
12129.703
12839.404
12706.588
13189.133
13004.642
13274.909
13167.038
13155.217
13001.189
13017.92
12662.224
12656.065
12370.381
12233.885
11886.309
11782.589
11295.605
11022.109
10584.391
10045.209
10168.91
9731.1645
9370.6381
8947.1438
8722.5784
8321.1491
8175.6048
7833.8842
7638.4389
7381.0126
7139.985
6906.2611
6709.8849
6399.4719
6194.6618
5856.0254
5666.8367
5332.3037
5150.758
4847.8495
4672.6677
4409.6599
4239.5882
4029.8627
3866.5871
3692.6507
3533.4488
3359.5653
3189.8912
3003.1045
2802.9006
2593.3889
2375.9536
2147.3128
1926.4076
1707.341
1501.6895
1301.068
1129.8387
933.71779
797.83581
559.61475
454.41553
204.17046
58.409144
-96.182938
-242.65234
-385.12006
-482.98094
-514.97844
-481.73704
-1436.8548
568.01336
1313.446
1461.3237
1608.8474
1738.6214
1939.447
2108.2454
2350.1633
2580.3389
2877.2089
3104.9409
3429.9792
3627.483
3917.0313
4167.3174
4440.1584
4815.357
5610.4532
5552.148
10401.634
22550.001
18046.743
19362.344
18694.267
18704.749
18502.809
18769.644
18432.649
18663.614
18300.536
18221.28
17938.15
17537.68
17219.486
16871.548
16384.539
16090.902
15568.2
15315.03
14666.305
14453.298
13800.943
13647.482
13148.81
12734.165
12044.941
11622.809
10956.116
10465.157
9989.1451
9470.8517
9150.0929
8667.155
8414.0473
7964.4284
7677.7244
7322.5929
7011.1959
6721.2783
6379.3344
6123.1606
5801.0955
5548.3947
5260.3244
5000.2526
4702.5938
4422.3236
4058.8387
3705.6833
3263.6669
2803.7999
2280.0181
1744.478
1178.2289
634.22838
119.82906
-347.41066
-730.04505
-1047.2902
-1269.6595
-1441.2378
-1523.8329
-1644.0835
-1625.1779
-1815.1111
-1755.5989
-2011.3013
-2048.751
-2236.0281
-2387.0612
-2599.6894
-2600.4636
-2951.0342
-2899.0901
-3049.0806
-3227.591
-3337.6471
-3355.2104
-3407.4456
-3269.492
-3124.4264
-2789.9746
-2385.8588
-1809.0592
-1221.9823
-468.14414
233.28077
1042.202
1811.8478
2585.0052
3383.4371
4110.1159
4863.0187
5401.3223
9742.5381
31567.659
24845.698
25523.602
24021.677
25136.357
24862.325
25272.997
25336.596
25507.545
25388.032
25331.291
24994.133
24806.127
24399.673
24016.86
23582.949
23190.571
22593.21
22353.336
21651.939
21346.942
20661.268
20130.719
19520.825
18945.609
18353.015
17815.707
17163.373
16630.662
15964.388
15486.776
14927.472
14479.573
14095.843
13632.567
13304.331
12889.64
12559.006
12095.222
11764.249
11275.547
10896.515
10412.698
10013.656
9560.7771
9165.4146
8751.1934
8345.5668
7926.1729
7475.2322
6982.4787
6440.8163
5860.2139
5234.7355
4604.8435
3980.3727
3387.1524
2846.0036
2366.6266
1940.2149
1555.3879
1197.2903
836.593
464.12433
11.655091
-337.46633
-925.65943
-1274.0782
-1804.93
-2280.6559
-2529.8059
-3050.7398
-3155.3916
-3525.4078
-3669.4161
-3895.765
-3986.2054
-4123.4628
-4142.6702
-4113.1872
-3989.1038
-3776.8506
-3409.1117
-3024.4674
-2456.2404
-1933.027
-1255.0484
-655.69698
55.760719
719.76671
1449.7878
2245.7783
3105.3742
4450.8486
9222.8868
38109.495
29860.553
29730.163
28638.577
29929.416
29616.889
30181.678
30227.67
30114.642
29977.673
29415.255
29234.021
28691.037
28339.852
27981.193
27531.254
27283.444
26616.468
26330.472
25347.275
25001.095
23642.764
23156.851
21757.87
21189.624
20148.72
19620.629
19008.398
18680.433
18430.801
18102.497
17907.283
17583.731
17299.137
16764.457
16501.008
15986.968
15493.066
14948.585
14351.966
13775.166
13161.776
12541.941
11880.247
11179.303
10406.208
9598.4245
8717.6013
7846.3836
6976.4029
6172.1601
5475.2572
4917.9811
4499.6347
4242.5938
4101.2979
4016.9719
3974.0086
3867.8917
3689.3954
3381.1606
2979.5702
2428.4832
1838.7868
1169.2818
564.35594
-235.71103
-631.50873
-1474.9167
-1572.7794
-2402.7616
-2451.338
-3127.3367
-3170.2271
-3529.0067
-3429.3109
-3396.0326
-3075.4299
-2596.6156
-1949.9653
-1243.7131
-349.34134
427.30936
1375.6125
2124.1816
3018.8404
3731.5784
4582.2392
5365.5339
6221.6602
7182.0925
8170.8552
9142.7534
10560.821
11646.73
20665.992
20956.396
16016.378
15374.78
14446.066
14566.552
14074.472
14357.803
14246.723
15056.845
14698.5
14820.618
17445.284
18822.277
23758.942
16292.699
13716.068
10973.491
11230.786
9892.3458
10020.255
9437.5244
9703.2395
10098.765
9893.4236
10177.228
10914.525
11832.631
14199.597
17378.258
10572.432
8339.5146
4898.4214
4829.3141
3858.8233
3630.9001
3625.4746
3338.3762
3461.9059
3648.4086
4027.6926
4291.1069
5359.0694
7900.7438
10942.401
7126.3979
5668.5537
4165.3006
3322.335
3185.4548
2850.5802
2841.7044
2713.2629
2974.7561
2999.0456
3403.1872
3659.2252
4880.7458
6628.6967
7623.9521
4339.7549
3196.4728
1675.2018
1401.3493
922.08933
871.68177
733.99724
742.08031
731.86492
857.96274
1060.9935
1434.8427
2192.7996
3178.4747
5335.0631
3729.2789
2311.7168
1382.7378
1171.2142
874.18634
821.53895
700.6702
740.00702
766.4207
846.40733
1040.847
1231.7014
1677.9511
2615.7198
4132.8305
2093.342
1187.2818
647.33808
334.32444
192.06488
43.595022
8.0238001
-36.201691
-9.4493866
66.408263
173.64605
461.87679
772.85067
1603.2711
2884.3858
2255.5426
1310.8285
750.24524
533.31292
338.96551
271.26283
198.70678
215.05545
238.98254
280.83547
415.78227
616.69358
904.17667
1579.8759
2814.5468
2371.5759
1409.9851
722.99507
488.98313
265.24774
170.58232
110.94802
139.79591
121.20166
354.88877
337.53286
631.4969
935.23703
1803.4695
2813.6384
4257.8344
2841.024
1767.1595
1386.0158
1046.3311
933.62582
847.60876
814.32343
834.50975
831.84601
1122.0654
1218.0989
1848.066
2997.961
4635.8222
5231.1843
3599.7193
2163.0305
1695.6721
1226.6655
1220.3253
1006.2071
1132.8368
1072.3953
1367.8438
1485.7926
1922.3159
2765.1536
4215.8545
6039.9994
8824.052
5743.7101
4263.5326
3390.3712
2955.0432
2504.4827
2477.793
2340.1083
2464.2258
2520.5555
2932.4294
3217.9382
4344.15
6222.8575
9126.4922
12282.635
9606.8775
6997.0971
6210.1587
5445.9201
5355.3557
4980.1485
5321.6522
5308.4227
5302.3392
5782.0953
5995.4899
7316.5717
9962.8815
12706.468
20264.783
15047.078
13027.57
11539.622
10849.844
10406.039
10840.392
10942.236
10826.472
10538.725
10814.485
11283.223
12540.769
14830.23
20601.244
27007.705
26791.116
21247.24
20487.115
19390.268
18282.892
19620.306
20740.858
19120.654
20116.795
19400.923
20009.681
21522.795
24493.176
29876.645
64365.254
57240.868
55994.027
57599.411
59061.581
58074.528
60911.158
63368.835
63844.023
63751.006
61938.584
59170.278
58820.412
60084.02
58056.839
50057.014
41353.854
41489.074
40483.559
37433.148
40765.243
39480.236
39459.954
42525.342
38941.437
40178.36
38319.761
41884.146
45415.06
50772.061
35320.724
36574.925
34598.034
33567.423
36100.777
31003.741
30771.672
31143.062
28000.268
32906.963
32067.166
37237.346
36580.682
35434.361
37763.862
35084.208
39210.815
38461.475
35359.97
34892.752
34825.767
34003.351
34520.111
34654.118
33813.439
35820.551
36436.356
37892.802
38936.512
36780.263
37268.93
37857.565
36529.335
39040.604
37125.005
37011.612
37475.227
36822.358
37423.183
39716.161
37938.822
39440.999
37777.105
37958.779
37717.337
34596.12
37175.016
36885.027
37432.44
37105.98
36919.574
36374.603
36284.031
36725.433
35916.479
37485.114
36990.372
37283.257
37503.235
35518.817
35521.065
37090.496
37295.579
37183.405
37419.819
37613.597
37859.822
37712.265
38041.21
38355.633
37713.311
38185.537
37557.773
36648.159
37038.477
35436.366
35819.831
36639.847
37131.52
37471.226
37159.141
37178.437
37425.182
36993.921
37509.54
37356.196
37264.646
36901.61
35804.89
35880.96
34969.113
36239.963
36492.345
37098.123
36673.58
37281.143
37144.266
37350.634
37487.977
37216.915
37231.972
36702.186
36673.444
36128.064
35904.666
35432.291
35093.918
35978.063
35950.607
36396.262
36230.594
36425.499
36303.608
35932.668
36764.729
35861.032
36688.459
35777.904
35660.156
36167.764
34832.95
35387.098
35590.119
36028.577
35918.888
36374.662
36214.97
36483.207
36724.456
36170.317
36920.557
36214.34
36298.623
36127.575
36099.522
35189.733
34447.054
34991.928
34997.326
35304.902
35227.614
35332.619
35248.545
35050.024
35241.187
34887.498
35071.779
34780.299
34543.395
35730.384
34455.115
34287.37
34293.304
34715.162
34533.96
34718.851
34845.035
34740.515
35209.93
35104.138
35307.858
35227.293
35167.31
35320.991
35485.146
33930.997
33380.821
33919.508
33514.856
33817.21
34005.004
34029.943
33718.091
33631.196
33555.608
33329.936
33536.265
33281.031
33056.861
34501.375
33229.472
32541.087
32928.225
33127.291
33318.536
32957.74
32943.047
33038.138
33362.068
33345.706
33781.346
33668.594
33727.688
34032.677
34392.563
32278.33
31888.586
32283.388
32073.735
31803.498
32266.197
32342.638
32063.926
31941.937
31893.509
31494.91
31724.994
31711.07
31528.253
32537.423
31361.224
30724.577
30930.086
30875.095
31424.763
31111.944
31227.721
30891.382
31388.224
31179.359
31743.742
31730.392
31627.803
31436.705
33031.607
30460.574
30151.122
30368.788
30344.034
30006.577
30216.587
30028.764
30411.531
30236.812
30297.517
30010.226
29879.515
29785.479
30049.701
30181.201
29869.978
29220.368
29773.55
29290.777
29678.288
29243.506
29870.356
29099.491
29462.018
29230.258
29302.94
29511.383
29923.654
29635.561
31217.246
28816.191
28476.979
28393.561
28555.603
28350.297
28578.85
28542.849
28585.173
28682.712
28650.357
28997.112
28867.352
28472.19
28610
29078.562
28543.947
27864.906
28335.637
27808.817
28104.713
27557.797
28146.555
27671.925
27952.352
27446.098
27702.839
27717.008
28582.616
27936.965
29183.037
27618.49
27355.826
27148.489
27329.54
26912.896
27332.485
26986.599
27232.145
26855.987
27805.128
27502.201
27706.962
27170.366
26814.209
29068.298
27583.559
26473.133
27013.528
26404.169
26759.81
26592.138
26546.482
26169.351
26621.333
26222.506
25987.438
26070.526
26352.527
26245.574
28212.017
26577.693
26255.488
25926.339
25999.97
25686.973
25434.709
25597.446
25433.879
25615.798
25524.572
25771.937
26168.965
26492.429
25813.826
28725.22
26667.627
25244.962
25238.892
24760.751
25175.399
24688.93
25247.039
24712.699
25009.695
24744.808
25153.238
25004.78
24811.832
24649.403
27292.278
25338.385
24299.477
24521.474
24168.29
24186.676
24157.988
23979.897
23818.351
24022.361
23856.931
24144.991
24411.625
24938.062
24875.951
26543.787
24775.376
23422.891
23712.513
23116.737
23646.132
23050.896
23266.251
23070.852
23194.34
23084.709
23346.377
22645.482
23241.37
22471.678
25805.726
23443.199
22373.454
22362.561
22379.661
22070.922
21896.889
22075.572
21780.072
22159.964
21911.823
22327.115
22524.498
22547.745
22808.432
24183.765
22592.899
21442.724
21316.856
20930.908
21125.552
20979.78
21048.476
20912.21
20999.398
20960.551
21001.904
21220.225
21144.166
20585.183
23565.944
21049.071
20001.798
20371.873
20040.596
20161.963
20104.8
19934.804
19811.742
19708.111
19677.047
19824.709
19747.837
20416.051
19998.453
21587.528
20386.288
19433.518
19709.24
19158.363
19442.293
18694.681
19133.756
18688.236
19366.769
18888.245
19063.803
18910.919
18999.032
18735.515
20213.238
19321.683
18291.462
18534.834
18174.277
18299.513
18174.777
18262.497
18064.634
18058.604
17860.536
18108.866
18020.411
18238.345
18126.49
19266.383
18284.312
17404.929
17775.93
17366.407
17659.633
17253.041
17590.647
17101.939
17475.31
17163.85
17513.373
17260.12
17544.465
17372.437
18064.681
17485.65
16770.285
17096.281
16774.976
17018.834
16736.077
16928.189
16676.932
16886.417
16665.776
16835.623
16747.406
16925.82
16751.608
17379.797
16799.251
16203.167
16649.921
16634.55
16435.275
16241.883
16435.975
16244.216
16383.557
16356.954
16485.657
16411.618
16554.005
16615.772
16891.334
16468.136
15957.3
16185.65
15815.195
16038.462
15878.69
15995.801
15809.881
16099.048
15426.478
16085.88
15843.296
16167.431
15928.575
16576.957
15751.332
15391.507
15815.427
15578.225
15756.994
15396.338
15723.05
15352.844
15612.286
15617.469
15688.142
15708.879
15675.817
15804.275
16091.293
15718.078
15512.729
15666.245
15519.596
15492.809
15412.299
15431.076
15289.173
15484.562
15064.802
15486.107
15188.605
15650.546
15405.414
15650.676
15627.572
14983.956
15397.627
14971.991
15344.157
14868.67
15243.645
14849.767
15092.861
14932.184
15059.668
15093.554
15210.437
15036.73
15560.811
15210.086
14809.395
15038.381
14875.368
14894.277
14707.38
14846.305
14541.376
14846.454
14480.523
14858.511
14588.661
14822.156
14721.154
15134.779
15023.799
14484.015
14809.504
14392.377
14661.868
14267.112
14514.363
14219.884
14396.105
14218.48
14395.92
14249.731
14483.27
14269.471
14819.133
14663.711
14227.795
14335.499
14143.489
14237.24
13934.462
14168.115
13780.035
14077.899
13764.939
13988.263
13872.081
13985.534
13844.323
14494.822
14433.301
13849.957
14086.561
13744.761
13910.517
13586.843
13773.995
13474.82
13684.612
13413.726
13649.892
13473.971
13615.672
13460.489
14229.875
14089.282
13615.125
13700.735
13441.971
13571.575
13236.113
13467.454
13124.857
13333.704
13104.8
13250.938
13156.796
13256.459
13081.4
14079.496
13964.348
13343.046
13495.824
13207.113
13321.175
13009.048
13225.271
12883.258
13113.873
12841.605
13027.386
12922.336
13021.822
12822.873
14096.732
13812.621
13198.197
13305.389
13014.193
13109.95
12811.228
13008.027
12704.237
12872.585
12681.149
12808.971
12746.569
12870.86
12609.98
14271.094
13857.708
13112.688
13223.661
12929.757
13041.992
12722.638
12947.839
12596.556
12810.253
12590.052
12716.589
12679.194
12826.085
12497.437
14574.241
13940.041
13081.647
13187.179
12905.594
12933.271
12632.739
12802.167
12511.894
12678.776
12501.656
12620.377
12614.369
12815.882
12410.437
14959.99
14086.345
13077.351
13188.151
12848.377
12914.913
12597.775
12817.953
12488.765
12662.487
12479.55
12590.27
12586.676
12828.216
12339.643
15305.099
14211.306
13051.402
13115.768
12829.857
12819.365
12498.361
12638.605
12329.452
12478.273
12326.212
12437.112
12448.621
12758.57
12199.362
15538.266
14246.302
12910.797
13019.695
12661.061
12649.513
12324.398
12521.213
12215.89
12365.331
12202.241
12295.475
12294.317
12617.03
12001.916
15544.446
14105.086
12703.571
12749.801
12426.584
12398.072
12092.007
12211.609
11892.349
12006.822
11853.833
11956.929
11945.153