/*--------------------------------*- C++ -*----------------------------------*\
  =========                 |
  \\      /  F ield         | OpenFOAM: The Open Source CFD Toolbox
   \\    /   O peration     | Website:  https://openfoam.org
    \\  /    A nd           | Version:  6
     \\/     M anipulation  |
\*---------------------------------------------------------------------------*/
FoamFile
{
    version     2.0;
    format      ascii;
    class       pointScalarField;
    location    "1.34";
    object      p;
}
// * * * * * * * * * * * * * * * * * * * * * * * * * * * * * * * * * * * * * //

dimensions      [1 -1 -2 0 0 0 0];

internalField   nonuniform List<scalar> 
3969
(
-1188017.3
1693231.8
-129.56457
-438.69558
-2320069.5
3356260.6
-535.08597
177.62244
-997161.23
-690649.68
-352988.66
-22853.124
238938.54
599598.35
637226.02
638.73197
912.31665
915.28777
194.37439
-572.88792
-987.60753
-787.70241
-334252.58
-398980.79
-383628.33
-409752.97
-394152.19
-399915.29
-382302.2
-375581.6
-360606.81
-346195.19
-334399.88
-320999.88
-309236.48
-296661.1
-284489.63
-271059.5
-259633.02
-246660.81
-234949.89
-221813.77
-209875.7
-197150.83
-184652.51
-172681.97
-159776.21
-147379.69
-135242.5
-123553.86
-112250.58
-100914.35
-90264.527
-80107.769
-70312.653
-61156.469
-52710.035
-44913.701
-37356.36
-30955.542
-24629.46
-19463.604
-14674.666
-10561.939
-7151.1009
-4072.8731
-2040.1004
-628.16305
312.10818
415517.41
363946.76
410205.12
374836.97
409524.15
376328.03
387018.91
365020.94
363537.92
346561.7
339046.02
328114.87
315464.14
305728.93
293078.85
281287.75
270273.65
256977.15
245947.69
233570.09
219952.74
209425.38
195199.84
183430.71
169837.55
156762.41
143349.95
130235.28
117644.43
104892.23
93817.343
81902.452
71512.638
61149.244
51873.611
43182.945
35513.834
28345.266
22066.798
16463.528
11747.814
8157.0057
5076.1957
2888.9132
1018.9412
60.501675
-357.37913
-1671703.7
-1232178.5
-490800.62
95876.259
607005.66
1180445
985278.33
458892.29
545218.87
350895.47
478308.19
420466.73
433491.31
410788.58
404562.66
385070.59
365746.43
368911.71
343381.48
341641.04
325316.18
310639.2
299906.65
281588.01
269541.05
253652.27
239041.32
225270.77
211566.23
197863.39
184383.15
171530.25
160012.14
146610.07
132355.83
120997.32
108818.76
97029.787
86044.354
75417.684
65478.991
56334.504
47466.604
39832.313
32336.313
26240.81
20407.942
15282.089
11123.541
7407.779
4473.2693
2197.7568
504.05472
-666.73384
-1433.4599
-883.74577
-1240.2351
678.52318
395.21735
838.67422
1134.9379
-181.46679
-432.01053
-1185.744
-3178.0647
-5535.0079
-8711.4738
-12597.925
-17176.731
-22833.487
-28818.617
-35187.207
-45397.491
-53388.519
-62835.566
-73736.816
-84958.108
-96884.326
-109691.24
-122407.31
-136124.4
-149929.97
-163536.01
-178005.01
-192387.64
-206596.75
-221035.26
-234873.83
-247971.19
-261871.76
-273808.23
-287347.44
-295208.59
-302819.48
-323542.77
-346239.6
-336160.56
-360547.98
-359150.86
-368114.84
-396001.09
-409289.5
-395312.63
-423460.39
-405869.97
-383216.66
-417978.87
-418248.51
-968080.94
-1084003.4
-1140560.8
-1131738.9
-1100102.1
-1076144.3
-796143.39
1376703.4
1700744.5
1946210.7
2075707.7
1963679.4
1990122
1598349.1
294.32818
173.25182
142.12245
-189.70598
-254.70345
-227.61751
-166.65383
121.66452
160.04919
66.9347
173.6689
-150.14438
-346.06614
83.228294
-294380.83
-313954.13
-315055.29
-315673.09
-316173.92
-308530.72
-301003.25
-295345.64
-280880.37
-276756
-263890.63
-251999.01
-245106.73
-233033.76
-223341.67
-213154.92
-203874.12
-193383.75
-183178.66
-173194.66
-163416.92
-153069.81
-143373.57
-133609.25
-124381.77
-114549.15
-105123.37
-96340.849
-87315.413
-78750.259
-70655.078
-62706.425
-55291.175
-48237.612
-41712.042
-35437.829
-29758.04
-24445.181
-19779.469
-15816.851
-11887.883
-8969.0561
-6052.6671
-4104.9798
-2294.5028
-905.13933
180.12334
-189473.2
-195663.25
-190313.44
-204438.82
-203682.55
-210547.46
-201173.39
-196842.72
-189589.16
-183374.11
-175070.83
-168752.47
-160319.46
-152841.61
-146983.62
-139525.56
-133150.72
-125615.85
-119140.47
-112091.97
-104855.81
-97802.947
-90975.418
-84635.208
-78164.613
-72407.546
-67144.357
-60890.88
-55868.341
-50605.909
-45669.003
-40948.206
-36423.483
-32170.862
-28128.869
-24355.547
-20748.381
-17633.1
-14579.798
-11942.066
-9325.0214
-7306.9027
-5159.4447
-3605.6131
-2071.8268
-878.39324
75.3746
-89291.679
-107906.78
-92046.349
-103413.57
-99122.684
-104332.41
-99065.882
-100425.42
-94969.608
-90186.57
-88434.995
-82447.371
-79287.01
-72813.004
-67910.196
-64229.095
-60593.822
-57014.154
-53973.239
-50416.76
-48132.127
-45472.82
-42407.529
-39331.491
-36699.276
-33732.923
-31000.463
-28732.808
-26437.09
-24137.065
-21906.618
-19793.699
-17732.856
-15752.639
-13936.499
-12116.041
-10414.78
-8859.918
-7149.1038
-5991.3692
-4595.4455
-3731.2362
-2422.8083
-1916.026
-999.23733
-423.67014
-20.840618
2014.3631
-2055.9656
12369.8
263.12842
9980.0043
4255.2694
13267.295
9245.6695
12044.898
6836.8341
12020.101
8681.5191
12126.668
10193.323
10605.015
10130.968
10770.892
10622.636
10832.2
11489.853
11324.641
12798.554
14225.961
13479.875
12710.095
11762.813
10560.831
9192.7296
8036.4715
6745.9034
5516.0024
4288.9793
3255.9899
2214.2343
1280.0698
490.03383
-76.241019
-512.22849
-997.15909
-1462.3466
-1503.5338
-1546.5818
-1194.2196
-1240.4636
-563.04614
-499.53945
-222.64533
116539.63
98952.587
111170.26
109360.43
115986.97
112988.46
112852.69
110462.88
108372.65
103057.35
102326.83
96005.889
96362.88
89960.863
88820.416
84336.772
81849.115
78314.034
75046.671
72324.604
66746.625
61162.332
56585.312
51198.315
47716.699
45018.207
40511.646
36282.177
32621.497
28729.059
25081.375
21669.511
18445.819
15382.981
12617.433
10118.748
8061.8609
5961.8216
5771.1417
4331.1393
3176.8331
2112.2206
1505.8506
760.87034
625.53748
88.702522
-335.54892
229387.9
210027.46
218184.73
223132.48
226704.34
221005.6
220698.47
212734.33
211155.59
200550.06
198990.8
190705.08
186361.03
179893.37
173972.57
166318.27
159909.88
152708.47
145812.54
138938.8
130265.09
124361.06
112045.35
103292.55
95079.499
87563.872
80691.681
72937.028
65671.7
58531.954
51897.716
45243.002
39102.56
33304.564
27971.894
23054.526
18624.913
14737.286
11242.14
8822.8345
6347.2645
4385.0701
2805.8503
1425.1172
773.61611
-1.7535886
-469.74038
372514.83
284857.4
329359.52
322445.54
331853.81
322351.72
321276.95
310856.5
307959.86
294983.38
291480.75
279976.34
271590.31
260449.71
250330.36
239238.56
228401.53
218534.45
207685.43
196846.3
187013.93
175057.42
164461.19
153566.99
142659.2
131717.85
122006.44
110126.16
99326.576
88944.999
78800.197
69173.881
59924.213
51386.205
43357.242
35979.655
29304.947
23523.478
18503.314
13620.335
9887.5546
6773.075
4412.7277
2467.1219
1324.5132
301.95309
-272.94539
-673207.65
-663877.18
-689973.28
-678606.27
-682284.42
-656446.88
-607182.61
-470251.42
-544703.04
-494013.54
-513358.41
-508592.28
-489505.71
-476913.04
-241822.06
-279186.75
-222708.83
-245512.19
-219012.58
-214487.47
-236591.81
-43680.024
-15939.904
2738.9129
-16797.223
-4774.4448
36110.3
-53353.35
158389.25
163734.16
189093.82
177808.77
184843.34
192533.52
122012.95
464623.22
493498.39
495658.18
506012.3
524766.77
519965.44
479725.4
619582.51
541383.8
487797.26
503807.07
484256.24
445543.28
505949.35
595202.42
604857.82
679253.06
698510.93
713732.4
712544.55
572682.11
488371.31
546641.04
543272.55
550946.59
574778.67
558906.24
518443.64
408951.23
454394.05
478076.38
479234.66
477305.35
455855.95
469393.49
422555.16
450519.91
444559.23
465163.18
450631.93
451422.49
428731.6
413369.04
434538.82
449143.51
450414.02
452305.34
438717.95
439932.55
413163.38
404259.08
412810.86
418232.95
418895.71
410846.97
411434.9
392300.61
400659.24
405459.31
408359.48
407968.42
408314.08
408179.91
390693.47
382830.92
386828.75
387070.91
380288.09
386438.31
385781.37
372977.02
373870.89
372496.69
373913.88
376389.1
377455.04
379500.96
368273.55
359530.92
355955.63
358640.64
357648.45
356745.63
356099.69
353697.82
349697.65
344645.72
346212.74
345903.33
343633.98
352601.44
340998.54
334809.37
332113.72
335436.37
332361.03
327002.6
334896.8
331440.39
319234.14
321154.3
318324.73
320237.41
316689.01
326872.31
315954.2
306876.13
311280.92
308202.12
309626.02
304627.15
310834.83
305669.95
294763.99
298964.99
293194.66
294923.95
290238.23
297540.6
292576.96
282050.75
287878.08
282173.67
285146.2
280190.61
286550.17
279395.44
271505.36
275448.93
268971.12
271927.1
265735.92
270552.69
267118.56
259521.22
263211.13
256450.14
260653.57
253346.69
259190.09
254070.89
247365.95
250667.38
243392.31
247533.59
239901.01
245858.65
240685.69
235131.9
238043.61
231084.63
235707.27
227864.53
233699.07
228352.27
222095.3
225014.26
217761.35
222204.25
214348.61
219997.06
214741.51
209388.79
211902.53
205366.41
209655.06
201934.52
207632.26
201843.05
196117.07
198903.45
192293.95
195860.23
188966.51
194164.61
188177.36
183716.38
185311.51
179194.67
183048.15
176655.61
181623.37
174354.66
171231.58
170129.16
167249.63
168993.77
164237.28
168634.35
160228.89
158339.45
155323.04
156186.75
155155.71
153654.81
156431.34
148384.5
145222.04
143381.37
143284.37
142326.49
139743.59
143242.19
135759.38
132130.15
131143.56
129739.55
128818.37
127751.3
129024.38
122262.59
119190.11
118306.92
116727.62
115720.46
115707.12
116150.69
109846.33
106417.43
106253.33
104347.63
103941.29
103867.46
104074.44
97086.056
94670.427
93937.334
92394.321
91852.3
92069.258
92302.315
85607.71
82925.582
82468.665
81075.69
80714.194
81167.282
81473.297
74092.143
71969.889
71427.728
70337.478
70050.481
70749.71
71072.922
63652.255
61705.735
61195.478
60293.366
60073.721
60954.714
61194.017
53748.38
52114.187
51558.072
50876.769
50762.742
51987.748
52296.969
44708.742
43340.657
42797.166
42414.575
42445.065
43154.975
43982.616
36684.622
35255.812
34855.917
34229.455
34697.09
35956.57
36347.077
29132.428
28374.313
27595.235
27680.681
27545.346
28830.524
29149.779
22548.589
21656.131
21238.594
21162.987
21362.562
22679.135
23006.496
17060.363
16315.105
15960.061
15867.044
16039.695
17279.567
17720.571
12003.526
11574.397
11081.062
11055.654
11327.464
12541.211
12886.502
8155.7897
7819.3595
7326.1768
7455.0218
7622.2256
8703.5428
9052.1671
4845.0771
4443.3673
4011.5636
4096.7755
4232.2852
5317.5485
5635.985
2572.271
2246.1774
1961.3987
2017.0956
2154.8
3042.8638
3258.169
636.9632
273.08359
24.476393
-3.4813631
126.14986
856.73824
1008.3724
-119.04448
-342.61713
-430.68569
-479.16373
-371.37315
70.902249
337.65776
-634.80376
-768.97138
-848.31816
-868.43465
-832.87609
-502.88101
-678.63085
1016.366
1039.7582
814.61132
759.51153
534.76514
565.62154
615.40911
1654.4281
1570.3629
1235.6567
1326.4243
1056.4608
935.6045
1172.9764
1209.3423
1261.872
964.0497
893.43924
730.2955
699.88528
801.36767
379.64597
395.98072
279.10304
294.09754
-5.6764782
49.079297
-117.95011
-735.82143
-702.3227
-1048.5074
-1090.3218
-1429.3442
-1424.5701
-1311.9147
-1112.1577
-1088.5683
-1041.7761
-1197.6991
-1392.6298
-1411.7343
-1349.4089
-1065.5013
-1068.0298
-1127.288
-1272.3733
-1401.3275
-1374.1447
-1647.1068
-434406.86
-431137.29
-502677.29
-480116.24
-498215.61
-466342.46
-452808.26
-471620.27
-480483.69
-509973.72
-507624.63
-511441.41
-473055.54
-462166.42
-455458.49
-459408.3
-471746.32
-474840.51
-469070.72
-438208.08
-438197.02
-425739.99
-444502.01
-453975.29
-461275.07
-451738.95
-435248.2
-436301.57
-423778.89
-426360.95
-430449.41
-433821.97
-430735.98
-414513.85
-407858.07
-401048.2
-409187.89
-414551.67
-411567.59
-410846.28
-395503.07
-397870.23
-395168.64
-394845.85
-397158.89
-395919.08
-400111.19
-389484.34
-397133.94
-375094.12
-377872.14
-382635.11
-371613.99
-380216.54
-369737.45
-374288.04
-367099.35
-368961.27
-369581.33
-366160.9
-372743.01
-361262.61
-374062.63
-354188.19
-350916.06
-353181.91
-349103.51
-355207.86
-346532.06
-358411.07
-341451.87
-339332.17
-346151.26
-339501.1
-347185.81
-339171.32
-348050.26
-326496.28
-328883.48
-328931.02
-325156.72
-330638.14
-323897.09
-336024.83
-316751.01
-314037.36
-317998.06
-314517.74
-321418.9
-313764.76
-316582.71
-302558.95
-303422.39
-304311.28
-302667.1
-306662.71
-303215.55
-310068.09
-289667.39
-291214.22
-290784.36
-292778.07
-294597.65
-292551.36
-301784.5
-279798.75
-277312.55
-279400.04
-278598.47
-284264.6
-280036.58
-286906.52
-265916.71
-266268.61
-266687.71
-268645.7
-270817.82
-267681.3
-275030.6
-253405.41
-253062.48
-255241
-255373.95
-258018.2
-256190.89
-262185.17
-239894.82
-240958.16
-242571.01
-243011.34
-245981.3
-244275.57
-250314.88
-227701.67
-227797.71
-229914.07
-230432.36
-233238.03
-231720.31
-237493.06
-215033.67
-214745.02
-217582.78
-217599.11
-220584.38
-219174.65
-224821.42
-202089.52
-201807.17
-204737.9
-204562.04
-207396.4
-205865.86
-211828.35
-189548.22
-189003.77
-192492.57
-191788.14
-194639.47
-193257.71
-198923.81
-176569.9
-176392.98
-179249.61
-178565.18
-181204.45
-179572.32
-185445.55
-164041.55
-162918.53
-166371.55
-165341.37
-167861.05
-166385.33
-172034.57
-151423.95
-150079.83
-153544.65
-152240.54
-154568.44
-153115.35
-158459.81
-138701.08
-137688.71
-140684
-139004.34
-141450.47
-139752.7
-145201.95
-126837.39
-125135.07
-127776.35
-126282.6
-128682.76
-127241.59
-132044.48
-114224.94
-112619.28
-115391.67
-113770.06
-115666.34
-114175.4
-118672.02
-102707.58
-101373.68
-103211.14
-101712.19
-103269.13
-102217.66
-106103.72
-91503.596
-89941.9
-91556.011
-90121.414
-91435.89
-90339.128
-93792.32
-80696.297
-79247.9
-80324.605
-78975.604
-79901.822
-79000.527
-82114.989
-70511.004
-69093.339
-69912.443
-68593.975
-69209.133
-68605.283
-71227.716
-60947.071
-59639.389
-60009.374
-58720.275
-59171.472
-58614.109
-60704.057
-52182.272
-50838.708
-50878.891
-49765.207
-49812.162
-49749.803
-51210.436
-43522.763
-42537.912
-42380.622
-41209.323
-41461.665
-41260.817
-42421.377
-36519.646
-35469.195
-34495.182
-33949.7
-33618.102
-33518.493
-35016.815
-29495.254
-28595.69
-27768.292
-27093.143
-26873.359
-26339.669
-27946.077
-23166.773
-22640.486
-21340.407
-21069.821
-20561.66
-20587.456
-21570.861
-17989.904
-17403.279
-16295.443
-15998.624
-15364.069
-15431.189
-16270.226
-13089.844
-12650.3
-11500.527
-11260.874
-10660.744
-10999.166
-11551.149
-9120.9342
-8744.8358
-7669.6479
-7526.4337
-7005.782
-7343.8076
-7789.2098
-5836.7349
-5464.5978
-4463.0895
-4473.3677
-3943.4741
-4413.1283
-4681.8057
-3087.2469
-2705.4114
-2019.9985
-2016.541
-1695.6363
-2178.4328
-2359.8339
-1258.0194
-1001.1778
-484.53904
-456.15518
-168.7628
-517.36651
-727.373
-226.9767
-117.1042
225.60527
191.27211
234.32782
-54.811664
-206.31655
79.002824
-24.362835
102.57963
58.050555
197.50649
54.189754
140.66929
-461756.01
-316063.74
-316880.24
-311391.93
-324371.81
-329644.81
-314411.24
-311499.6
-305935.23
-298893.01
-286380.87
-279870.12
-268058.85
-257389.19
-249857.05
-239531.55
-228095.47
-218296.05
-208374.66
-197948.32
-187557.9
-176646.73
-165945.76
-155288.14
-144264.81
-133669.63
-122291.07
-111263.63
-100763.2
-90249.05
-80311.288
-70775.672
-61645.005
-53122.018
-45528.046
-37527.027
-30738.767
-25639.457
-20172.406
-15705.53
-11889.871
-8558.999
-5904.301
-3769.7114
-2150.9861
-994.12117
407.18545
-255882.39
-244983.66
-187245.51
-218844.8
-258254.31
-230062.19
-246359.91
-228670.81
-232767.04
-217178.93
-218543.36
-206024.72
-199095.14
-191347.29
-185518.42
-179913.91
-172178.06
-164077.1
-157395.94
-149213.81
-141188.83
-133191.81
-124814.63
-116257.26
-107353.22
-97526.732
-91395.945
-82205.786
-74285.489
-66322.408
-58760.518
-51460.281
-44633.337
-38389.643
-32167.621
-27123.839
-22428.999
-17724.097
-14102.504
-10688.062
-7994.3668
-5468.014
-3654.8056
-2144.9716
-1042.4243
-130.96808
387.72691
-117336.38
-137547.16
-73240.399
-119021.8
-107922.89
-96775.861
-107362.83
-99334.118
-99864.323
-94209.231
-98239.04
-93201.654
-95834.41
-91935.683
-91834.693
-89971.966
-86075.763
-82836.176
-80204.172
-75254.686
-71651.1
-67612.025
-63335.926
-59172.443
-55083.803
-50840.648
-46858.077
-41893.97
-37844.263
-33622.939
-29666.817
-25889.65
-22423.377
-19032.495
-16003.186
-13348.731
-10876.913
-8691.9128
-6760.3659
-5358.3772
-4025.2958
-2844.231
-2108.8091
-1428.1874
-901.29486
-660.29129
337.63171
27869.835
-16528.514
15924.434
-13418.11
-632.69787
-8965.3735
-10075.577
3316.7609
-9004.8822
-5265.7565
-7383.4318
-9140.8492
-13105.845
-17313.522
-20269.083
-19791.404
-20586.702
-20488.254
-20213.942
-19081.084
-19004.55
-18161.246
-17154.767
-16349.608
-14785.589
-13268.302
-11766.837
-10459.698
-8905.2863
-7565.2373
-6333.8833
-5241.8394
-4126.9576
-3175.5033
-2356.7874
-1618.2362
-934.20084
-490.45791
-74.57504
86.938529
353.47404
510.55166
410.2264
509.66839
170.46683
308.75712
111.69122
197832.44
105974.26
113936.06
80975.062
101884.92
81506.19
95931.692
86578.126
78590.273
81762.835
70610.546
74829.585
66011.463
69610.042
63729.634
62462.861
57688.52
55535.324
52074.24
49250.238
46161.624
43515.731
40751.062
38075.405
35152.666
33347.954
30466.111
28068.534
25944.335
23762.229
21650.69
19664.366
17543.618
15558.154
13766.795
11998.695
10221.515
8663.5039
7183.2068
5758.8381
4496.7799
3319.0668
2364.0772
1367.9676
739.6088
-138.55703
174.51684
299074.83
235368.52
198287.4
200169.69
208413.09
201100.02
203135.79
185199.16
192921.65
186607.08
183744.03
179373.85
168010.59
165777.95
154782.1
148311.65
138593.15
131555.73
123318.25
116588.96
109788.32
102642.77
95779.218
87432.81
79332.663
71861.618
66798.871
60831.705
55592.464
50224.337
45442.902
40541.981
35835.21
31517.647
27354.974
23519.89
19854.968
16450.219
13603.047
10699.847
8301.6351
6265.721
4273.9801
2926.6484
1422.0961
593.3916
-267.16308
388828.62
330077.76
324683.11
316263.14
336333.39
321845.21
327713.27
311988.1
313433.55
295661.93
289636.78
275370.3
265403.57
254315.87
243263.28
233470.96
224002.62
212441.4
202931.36
191684.67
181010.31
169918.67
159412.96
148115.76
138778.09
123481.33
113932.51
104422.5
95137.134
86374.986
77680.336
69186.513
61356.33
53549.247
46578.784
39801.741
33363.407
28281.358
22778.777
18138.877
14164.976
10387.507
7505.9055
4775.2767
2851.3603
852.87569
463.1763
-569939.08
-614280.74
-598109.59
-620761.78
-612462.22
-570635.82
-529927.01
-381013.34
-448914.8
-442119.66
-451800.77
-438296.17
-411230.83
-363008.37
-365485.31
-405455.93
-430315.85
-429749.16
-420251.5
-412327.69
-387637.29
-350730.93
-358874.45
-370735.02
-378280.96
-361951.39
-363683.43
-321217.75
-337277.43
-351890
-370786.81
-362940.91
-358873.37
-351393.87
-318685.27
-329275.23
-339767.89
-336689.36
-345870.97
-336226.81
-331742.15
-330665.68
-319721.29
-324141.82
-330650.14
-331302.28
-319597.43
-326359.97
-312525.6
-307194.28
-320566.38
-313313.79
-320717.88
-316846.61
-310219.56
-305272.56
-301143.64
-303402.53
-297028.73
-311605.5
-297069.95
-304991.11
-298029.77
-286435.05
-291198.21
-294614.92
-298804.03
-290463.63
-295220.09
-288503.57
-274990.49
-285072.1
-278519.26
-285004.75
-278201.04
-282428.85
-278764.77
-270235.1
-268957
-271088.76
-274655.43
-272381.53
-273285.1
-269369.78
-254838.08
-260147.64
-259756.17
-266192.45
-259272.53
-263267.17
-263394.42
-246217.64
-247423.58
-249860.86
-254033.23
-250361.38
-253879.77
-254732.24
-236104.01
-237575.14
-241337
-241454.54
-241244.18
-243425.16
-241323.36
-223951.95
-226251.28
-230821.86
-232087.82
-231401.42
-232243.57
-233960.73
-213227.76
-215328.92
-219544.24
-220983.56
-220387.2
-222807.34
-223927.43
-202573.06
-205108.4
-209627.21
-209868.24
-210559.86
-212342.25
-214065.98
-191744.54
-194994.15
-197881.68
-199623.62
-200086.57
-201728.9
-203070.71
-181263.64
-184081.86
-187568.84
-188791.35
-189553.54
-191148.26
-193112.27
-169354.21
-174197.6
-176395.81
-178089.39
-178679.03
-180610.42
-182193.23
-159012.79
-163967.3
-165525.38
-167131.57
-168186
-169953.77
-171904.63
-148077.24
-153492.81
-153919.96
-156285.21
-157013.98
-159560.36
-160558.32
-137568.6
-142827.28
-142979.44
-144947.62
-146317.68
-148197.69
-149378.26
-126597.9
-132947.19
-131743.33
-134998
-135177.38
-138148.64
-138974.91
-117241.47
-122314.38
-122004.66
-123300.47
-124903.34
-126917.28
-127733.61
-107999.05
-111935.98
-111055.28
-113296.69
-114339.83
-116631.68
-117092.4
-97829.03
-101560.05
-101352.71
-102960.34
-103590.19
-105405.89
-106097.48
-88749.121
-92879.261
-91409.083
-92743.213
-93667.954
-95447.433
-96085.299
-80245.311
-82835.349
-82110.927
-83054.594
-84036.411
-85291.073
-85918.817
-71612.869
-73945.125
-72910.01
-73667.302
-74397.981
-75614.659
-76055.935
-63620.612
-65339.438
-64538.77
-64891.799
-65606.261
-66563.723
-66954.907
-55977.534
-57261.21
-56215.313
-56398.577
-57043.83
-57924.861
-58006.71
-48913.31
-49594.323
-48681.683
-48586.993
-49256.947
-49718.634
-49765.888
-42057.899
-42354.988
-41388.943
-41230.078
-41718.407
-42292.602
-42270.003
-35927.778
-35699.275
-35078.677
-34505.056
-35132.084
-35280.11
-35313.249
-30100.869
-29950.784
-28908.098
-28421.836
-29002.738
-28823.498
-29380.513
-25147.851
-23973.891
-23553.765
-22919.248
-22904.433
-23633.716
-23087.946
-20378.857
-18742.804
-18807.752
-17899.538
-18460.831
-18519.072
-18600.135
-16041.58
-14800.67
-14460.888
-13688.395
-13841.282
-14131.324
-13918.622
-12238.038
-10656.929
-10578.936
-9602.9423
-10179.158
-10219.651
-10344.435
-9065.3739
-7878.3462
-7639.6897
-6928.7404
-7280.2741
-7213.5763
-7319.2784
-6107.5688
-4752.1795
-4681.7001
-3907.1914
-4274.2597
-4329.3441
-4676.3207
-4071.3805
-3191.7575
-3073.6408
-2390.1024
-2731.0972
-2648.4154
-2813.6566
-1908.9449
-1245.847
-964.36816
-563.94686
-808.35385
-753.22818
-1109.368
-858.89084
-384.0191
-260.62909
-19.772511
-123.65347
-167.71276
-75.629282
325.48612
578.95888
718.89648
830.04085
665.67816
788.88325
476.38553
-364210.39
-366362.58
-399928.16
-387235.49
-397288.7
-355068.99
-355268.19
-265989.72
-329084.44
-341162.46
-351086.67
-346874.7
-316537.36
-293623.12
-275318.49
-255013.32
-288315.9
-272925.96
-282268.47
-251166.59
-249048.72
-230234.52
-247542.18
-263781.51
-257345.62
-262408.2
-247270.84
-218123.59
-240912.59
-245846.7
-260434.73
-248487.3
-259335.58
-239076.28
-228942.29
-225577.31
-230297.18
-238497.43
-231238.9
-231921.72
-231716.28
-220618.68
-221799.36
-231226.21
-242772.37
-231855.54
-239461.41
-233976.23
-217608.77
-215006.71
-215672.88
-221283.98
-214814.29
-222209.69
-212833.35
-212120.65
-207194.23
-209988.8
-224646.54
-216085.66
-217618.79
-216585.57
-208647.78
-196727.32
-203551.47
-209819.64
-197440.6
-206973.5
-201595.86
-201533.29
-191820.49
-196550.72
-201106.79
-197237.8
-203041.35
-200556.16
-193420.97
-183247.72
-185084.17
-195814.39
-186613.99
-195406.19
-187437.13
-192556.12
-173986.95
-180321.66
-188910.98
-179405.87
-187937.27
-183743.3
-181556.4
-166574.54
-172711.63
-179248.02
-171734.32
-179688.11
-175457.72
-172402.25
-158254.98
-167614.27
-169570.02
-166577.28
-172506.9
-169626.99
-166585.31
-151360.33
-159065.1
-160961.92
-159940.38
-163109.52
-162401.63
-158363.87
-143571.07
-152585.57
-153923.46
-152778.68
-156244.23
-157002.25
-154155.54
-136373.11
-145301.91
-145702.46
-146096.33
-148715.26
-149427.5
-145422.74
-129870.39
-137472.3
-138534.03
-138979.99
-141592.58
-142259.61
-139558.05
-122120.52
-129894.95
-130908.52
-131821.56
-133859.31
-134746.41
-132493.68
-115949.48
-122519.65
-123579.22
-124355.46
-126598.68
-127574.03
-125896.91
-109429.62
-114866.25
-115705.81
-116922.72
-119067.84
-119969.75
-118345.99
-103170.47
-106920.47
-108455.65
-109574.69
-111915.54
-111835.67
-111432.67
-96338.812
-99593.093
-101511.67
-102624.31
-104317.72
-104360.15
-104363.41
-89744.392
-92433.397
-94147.089
-94769.56
-97274.937
-96150.181
-97282.945
-83072.422
-85482.616
-86004.473
-89253.773
-88420.703
-89041.147
-90218.45
-75690.056
-78868.25
-79270.922
-79599.763
-82373.959
-80308.313
-81705.922
-69948.504
-70869.139
-73046.377
-72883.581
-74672.063
-73354.16
-74763.517
-63515.47
-64660.49
-65989.429
-65749.656
-67649.361
-66008.374
-67277.717
-57299.981
-58395.096
-58778.172
-58965.958
-60204.984
-58835.384
-60003.095
-51402.566
-52224.732
-52652.919
-52557.271
-53621.081
-52164.081
-53254.963
-45655.976
-46478.072
-46250.823
-46207.138
-46966.897
-45619.379
-46596.951
-40421.49
-40924.426
-40497.409
-40380.019
-40934.756
-39554.506
-40274.652
-35218.901
-35648.753
-34876.398
-34821.675
-35115.679
-33704.488
-34580.87
-30522.519
-30843.226
-29902.621
-29809.283
-29832.981
-28652.415
-29455.19
-25966.563
-26342.965
-25085.421
-25072.705
-24862.857
-23762.598
-24148.279
-21956.783
-22138.26
-20780.055
-20733.272
-20335.038
-19463.333
-19683.888
-18145.28
-18565.196
-16825.514
-16929.281
-16461.895
-15601.817
-16020.166
-14671.967
-14871.494
-13479.793
-13386.965
-12925.135
-12405.726
-12296.492
-11586.003
-12013.945
-10310.145
-10251.831
-9840.4552
-9116.4437
-9244.4081
-9052.6068
-9069.7061
-7598.6107
-7770.5486
-7204.6862
-6761.1028
-6873.3248
-6483.3064
-6793.6291
-5294.3299
-5514.3441
-4858.5119
-4556.2779
-4763.6183
-4711.4195
-4694.7047
-3361.4725
-3620.4221
-2983.3206
-2920.5419
-3054.3952
-2845.2769
-2894.8031
-1739.9973
-2067.4175
-1549.9852
-1544.2438
-1759.3202
-1615.9504
-1525.9601
-640.10032
-924.62026
-458.92685
-536.60976
-888.10955
-446.97833
-321.04726
335.559
94.156901
356.68056
232.08742
-51.748921
261.29925
474.46903
761.6321
635.6018
567.68973
768.67236
382.56926
-216241.7
-210805.18
-195569.14
-210427.84
-195322.34
-179337.69
-172539.52
-148350.12
-215217.17
-196338.53
-211224.5
-180731.02
-183076.69
-146324.42
-151338.02
-139235.63
-154480.85
-150881.31
-143003.42
-127290.52
-120358.81
-117833.72
-141000.96
-147896.33
-155052.4
-138565.04
-142295.98
-112987.76
-132711.46
-125902.1
-137666.38
-128057.77
-127408.5
-115607.01
-108692.98
-113294.4
-128817.86
-122909.44
-124015.51
-126372.39
-114034.03
-113791.71
-116628.9
-122832.22
-112195.54
-121614.6
-119512.6
-111041.96
-108415.31
-109799.26
-120983.16
-110774.74
-116764.41
-113985.71
-103288.34
-108637.4
-107261.78
-120602.3
-102398.22
-112910.45
-108490.86
-105943.15
-106024.42
-106978.6
-111154.03
-98401.753
-105335.15
-107559.75
-99865.205
-102366.6
-99885.011
-109134.99
-93761.107
-106385.12
-102793.83
-98800.766
-100157.76
-95203.217
-102207.05
-89717.713
-98540.887
-97702.802
-93261.48
-97387.52
-88223.744
-101776.88
-85523.63
-95568.423
-95202.855
-90338.929
-93649.303
-85424.758
-93934.198
-83522.421
-91960.12
-94001.378
-83356.284
-95259.238
-82028.454
-87725.301
-79229.511
-87626.302
-88091.062
-81900.92
-90789.8
-76453.259
-81686.228
-78058.342
-81553.548
-85470.734
-78209.789
-88980.348
-71116.755
-78327.76
-73570.456
-79003.601
-80936.623
-75858.433
-84342.008
-67803.847
-72813.345
-70120.561
-74361.196
-77169.922
-72190.688
-80465.18
-62573.822
-69122.502
-65917.007
-70716.483
-72675.901
-68668.208
-76621.5
-59149.74
-64862.1
-62308.952
-66569.533
-68560.028
-65374.04
-73306.29
-54693.67
-60789.018
-58197.977
-62430.011
-64198.487
-62076.19
-68498.205
-50736.744
-56467.698
-54366.521
-58580.628
-60416.107
-57950.369
-64714.954
-46917.673
-52348.416
-50643.848
-55180.99
-55387.974
-54784.885
-60513.314
-43237.019
-48162.987
-47200.542
-50201.911
-51002.948
-50967.436
-55869.547
-39972.688
-44495.284
-43131.365
-46309.755
-46620.872
-47579.079
-51556.033
-36810.299
-39740.742
-39915.801
-41794.766
-42585.737
-43393.779
-46655.764
-33757.261
-37211.707
-36349.023
-38804.436
-38029.539
-39843.109
-42282.878
-30847.87
-34310.871
-32491.318
-34855.866
-34748.475
-35804.95
-38729.194
-28085.885
-30612.698
-29204.846
-31116.478
-31020.02
-31931.394
-34676.673
-25421.258
-27680.361
-26297.913
-27964.83
-27640.357
-28459.929
-30744.197
-23054.615
-24797.237
-23167.439
-24846.263
-24072.252
-25083.743
-26963.897
-20778.254
-22060.841
-20508.228
-21842.494
-21037.708
-21956.718
-23320.271
-18582.865
-19450.681
-17808.812
-19057.777
-18085.792
-18893.61
-20058.212
-16577.16
-17041.093
-15521.081
-16531.237
-15423.165
-16266.086
-17071.053
-14636.77
-14766.736
-13266.977
-14027.994
-12908.546
-13639.818
-14107.529
-12818.509
-12645.964
-11194.427
-11798.894
-10708.916
-11345.358
-11721.163
-11175.468
-10664.744
-9396.1065
-9770.2455
-8882.5828
-9115.4758
-9572.1673
-9447.2511
-8965.639
-7604.5335
-8145.6337
-6877.6818
-7478.2205
-7555.8904
-8139.2598
-7136.8202
-6092.6688
-6325.1437
-5390.9128
-5872.1139
-5762.6537
-6798.393
-5886.7383
-4872.0985
-5167.3307
-4150.0988
-4430.3028
-4297.844
-5446.0093
-4077.302
-3635.5345
-3539.1403
-2889.2521
-3216.5117
-3291.5146
-4259.5045
-3551.2852
-2954.4384
-2891.4281
-2233.0341
-2448.9728
-2247.7087
-3137.9239
-1931.1569
-1662.5282
-1502.9386
-1091.765
-1394.5438
-1439.9192
-2254.9473
-1724.5395
-1574.367
-1502.2484
-1035.8719
-1353.2827
-1070.4049
-1198.9902
-602.28814
-492.38427
-259.53696
-51.730044
-360.79156
-168.32581
-713.8817
-630.24293
-426.94847
-592.61774
-385.89308
-620.63931
-257.34305
260.45937
733.98295
613.74879
628.67203
651.62342
471.53361
409.8145
-17914.92
8738.6558
4404.3838
9469.7003
13543.811
20791.433
693.5991
-3886.0494
-10341.474
-8428.5099
-16849.318
-4686.5059
-6335.8833
3226.8397
-29471.362
8144.0843
-2578.3002
12130.969
6844.3272
14877.817
2201.0111
-7428.3842
-4605.6718
-22079.926
-12938.897
-12790.02
-18281.65
8649.958
-16145.414
-16250.737
-22315.485
-3284.2575
-19853.162
10710.689
-7208.6558
-13730.301
-5467.2386
-11145.585
-15040.798
-11549.075
-13703.405
-1521.6626
-15752.114
-19171.252
-29207.216
-14538.646
-21638.704
-9457.8787
-9655.4794
-16500.652
-13297.263
-12040.886
-15792.607
-12508.03
-15331.719
-6847.9703
-13038.114
-11449.839
-23964.758
-15327.608
-21947.263
-14721.908
-5003.7246
-8646.4403
-14287.603
-15175.957
-11706.535
-13912.988
-10193.465
-9243.6766
-9400.0718
-11391.511
-16581.58
-13055.249
-16316.913
-14004.634
-9018.5991
-4756.5525
-11183.173
-11117.075
-11089.737
-12403.458
-12243.068
-8169.7826
-6378.7265
-8625.4531
-11288.825
-12089.59
-15338.999
-13404.909
-8842.9243
-2246.5113
-7236.1229
-11783.544
-13063.358
-7906.0586
-13358.414
-4962.3349
-2728.5337
-8989.3019
-5054.0683
-13280.981
-7895.4384
-14512.944
-8213.2757
1165.1563
-6793.8845
-4455.5076
-13172.255
-6022.5537
-13668.193
-7286.352
589.69113
-5443.9149
-4450.3791
-13291.279
-5883.6976
-13801.737
-8354.603