/*--------------------------------*- C++ -*----------------------------------*\
  =========                 |
  \\      /  F ield         | OpenFOAM: The Open Source CFD Toolbox
   \\    /   O peration     | Website:  https://openfoam.org
    \\  /    A nd           | Version:  6
     \\/     M anipulation  |
\*---------------------------------------------------------------------------*/
FoamFile
{
    version     2.0;
    format      ascii;
    class       pointVectorField;
    location    "1.95";
    object      lm;
}
// * * * * * * * * * * * * * * * * * * * * * * * * * * * * * * * * * * * * * //

dimensions      [1 -2 -1 0 0 0 0];

internalField   nonuniform List<vector> 
3969
(
(0 0 0)
(0 0 0)
(2754.4564 -32.68316 -134.76511)
(2739.6613 -179.52366 -161.06184)
(0 0 0)
(0 0 0)
(2771.5443 -133.5229 -160.69869)
(2786.4436 14.158601 -135.53762)
(0 0 0)
(0 0 0)
(0 0 0)
(0 0 0)
(0 0 0)
(0 0 0)
(0 0 0)
(2748.8215 -49.443065 -137.23223)
(2744.7537 -67.2947 -139.87214)
(2744.0387 -86.047565 -143.4751)
(2746.2248 -105.39816 -147.3809)
(2748.8005 -125.00967 -151.50514)
(2748.7802 -144.0297 -155.30461)
(2745.0043 -162.08994 -158.44767)
(18.008518 41.104842 41.555452)
(22.435274 68.379576 56.481349)
(35.577367 100.22543 68.57664)
(57.413954 133.05451 77.311829)
(86.745189 165.38451 85.5251)
(125.31633 197.81549 92.290366)
(171.81182 228.33321 98.8582)
(227.41722 257.9943 103.9243)
(290.928 284.81888 108.51193)
(362.80409 309.73193 111.30187)
(442.14861 331.61413 113.22996)
(528.58959 350.74459 113.27769)
(621.4272 366.15248 112.06701)
(719.85853 378.53805 109.13137)
(822.79957 386.89531 104.7069)
(929.44552 391.892 98.907575)
(1038.6955 393.13025 91.805748)
(1149.5731 390.79433 83.542858)
(1260.9488 384.94697 74.242885)
(1371.8258 375.84639 64.138226)
(1481.0951 363.63275 53.410535)
(1587.9325 348.70729 42.2359)
(1691.3519 331.31309 30.819028)
(1790.6745 311.89587 19.336088)
(1885.2088 290.77742 7.9432108)
(1974.4479 268.37025 -3.2142935)
(2057.9249 245.06198 -13.993204)
(2135.3633 221.28084 -24.27411)
(2206.593 197.33979 -34.035744)
(2271.5952 173.65777 -43.151368)
(2330.3565 150.4974 -51.611388)
(2383.0878 128.20051 -59.390178)
(2430.0083 106.99411 -66.503602)
(2471.4316 87.072162 -72.924318)
(2507.8429 68.655776 -78.765476)
(2539.4949 51.88145 -84.049458)
(2567.1399 36.691477 -88.718683)
(2591.0984 23.426565 -93.031009)
(2612.146 11.718088 -97.020525)
(2630.5508 1.8565796 -100.7218)
(2647.1494 -6.5207252 -104.27465)
(2662.3262 -13.255558 -107.75605)
(2676.6367 -18.659254 -111.40918)
(2690.9168 -23.048961 -115.12199)
(2704.8831 -25.965779 -119.39571)
(2720.1976 -28.860461 -123.99949)
(2735.8142 -30.553106 -129.34191)
(-6.4981173 -19.638859 -31.301572)
(4.2682158 -36.736806 -27.904344)
(12.073694 -58.388035 -34.895937)
(34.417371 -80.367421 -28.117179)
(65.534124 -106.78211 -23.67869)
(103.97093 -131.89651 -16.006398)
(152.06721 -159.16827 -8.4710086)
(207.15443 -185.77088 -0.0085206407)
(270.92805 -213.07298 8.386135)
(342.07162 -239.42222 17.081489)
(420.39402 -265.49859 25.230312)
(505.61754 -290.05553 33.470916)
(596.54918 -313.36477 40.833672)
(692.96313 -334.62267 47.958227)
(793.54732 -353.71205 53.925899)
(897.80156 -370.24863 59.207854)
(1004.6718 -384.19343 63.293542)
(1112.9153 -395.07456 66.369454)
(1222.0092 -403.2263 68.210922)
(1330.4107 -408.20309 68.817248)
(1437.7153 -410.37122 68.199462)
(1542.5378 -409.62417 66.308045)
(1644.4829 -406.16911 63.148266)
(1742.4718 -400.16818 58.814231)
(1836.2404 -391.93975 53.411001)
(1924.9907 -381.72607 47.016673)
(2008.7947 -369.8628 39.589365)
(2086.6497 -356.47901 31.3188)
(2158.7301 -342.10349 22.470878)
(2224.923 -326.98072 12.951862)
(2285.2465 -311.40587 2.9642814)
(2339.8439 -295.6695 -7.4070493)
(2388.8627 -280.05603 -18.058279)
(2432.6258 -264.8592 -28.87088)
(2471.4399 -250.30121 -39.752031)
(2505.6752 -236.60694 -50.664552)
(2535.8749 -224.0435 -61.372219)
(2562.3786 -212.7261 -72.114204)
(2585.7666 -202.68699 -82.462349)
(2606.5285 -194.2403 -92.639283)
(2625.2046 -187.29702 -102.49069)
(2642.2623 -181.87901 -112.04319)
(2658.3318 -178.10937 -121.20984)
(2673.8021 -175.82455 -129.98981)
(2689.218 -174.98969 -138.35062)
(2705.0107 -175.41213 -146.30351)
(2721.7101 -177.09764 -153.83204)
(0 0 0)
(0 0 0)
(0 0 0)
(0 0 0)
(0 0 0)
(0 0 0)
(0 0 0)
(12.701642 -20.65392 30.81471)
(17.549629 -67.950381 48.955801)
(22.543993 -73.528222 56.861078)
(45.741567 -115.01405 66.736054)
(72.428102 -137.65164 75.056846)
(110.22344 -166.55097 80.115298)
(155.42299 -194.3327 87.355436)
(209.51136 -219.59394 91.243796)
(271.1324 -245.14182 95.991897)
(340.83917 -268.23042 98.404422)
(417.82136 -290.20793 100.93699)
(501.97928 -308.94025 100.2128)
(593.13619 -326.68925 98.933868)
(689.18906 -341.14934 95.623915)
(790.43201 -353.82352 91.037831)
(895.26357 -363.28819 84.868337)
(1003.0698 -370.4097 77.408051)
(1112.5597 -374.56642 68.754097)
(1222.9405 -376.25132 59.099703)
(1333.003 -375.13513 48.563151)
(1441.9393 -371.71005 37.408468)
(1548.6998 -365.85771 25.758994)
(1652.5547 -358.01714 13.85078)
(1752.693 -348.2382 1.8058418)
(1848.4409 -336.8636 -10.093873)
(1938.6846 -324.06905 -21.444104)
(2023.7315 -310.17592 -32.524164)
(2103.5486 -295.34962 -43.435951)
(2177.4061 -280.03868 -53.780724)
(2245.3276 -264.51717 -63.518384)
(2307.281 -249.00462 -72.587394)
(2363.3671 -233.75802 -80.992305)
(2413.7868 -218.98285 -88.726114)
(2458.7935 -204.92029 -95.777599)
(2498.7595 -191.72731 -102.19776)
(2533.8426 -179.38739 -108.02479)
(2565.0609 -168.87217 -113.22605)
(2592.1365 -158.48064 -118.07884)
(2616.131 -150.27955 -122.4933)
(2637.3179 -143.15732 -126.55436)
(2656.282 -137.52023 -130.41208)
(2673.6025 -133.24563 -134.20477)
(2689.7818 -130.38407 -137.97867)
(2705.3362 -128.84805 -141.89457)
(2720.8007 -128.53221 -146.07047)
(2736.6138 -129.38385 -150.60252)
(2752.8644 -131.09451 -155.57513)
(2777.2873 -116.19067 -157.40654)
(2780.5344 -97.925857 -154.0512)
(2779.9195 -78.992893 -150.8923)
(2776.8713 -59.485951 -147.9526)
(2775.1175 -39.890322 -145.02498)
(2776.6752 -21.355449 -142.09741)
(2781.3193 -3.1128583 -138.9949)
(2767.6577 16.274256 -128.47239)
(2751.7854 18.22606 -121.62753)
(2736.1942 21.111032 -114.34125)
(2721.1956 24.857659 -106.80613)
(2706.3545 29.82715 -98.878415)
(2691.1412 36.199186 -90.648987)
(2675.0797 44.136464 -82.166938)
(2657.6691 53.751552 -73.384443)
(2638.3619 65.096723 -64.343668)
(2616.5668 78.130923 -55.129047)
(2591.9827 93.060954 -45.659657)
(2563.0218 110.00145 -36.413942)
(2531.1835 127.90468 -26.524231)
(2494.1595 147.67167 -16.963035)
(2452.3056 168.55783 -7.2961982)
(2405.0639 190.46709 2.1589427)
(2352.1524 213.11636 11.426844)
(2293.2944 236.19303 20.359257)
(2228.3559 259.28557 28.896156)
(2157.251 282.1325 36.859792)
(2080.0511 304.17595 44.239682)
(1996.8753 325.15351 50.828887)
(1907.9191 344.5727 56.50806)
(1813.7336 362.05117 61.271486)
(1714.7271 377.18576 65.003199)
(1611.5248 389.67299 67.57628)
(1504.8703 399.10411 69.011384)
(1395.585 405.34436 69.188384)
(1284.5972 408.03463 68.210734)
(1172.7886 407.20636 65.923477)
(1061.3898 402.66424 62.532161)
(951.12253 394.57751 58.041637)
(843.35909 382.83185 52.422844)
(739.45959 367.55543 46.244756)
(639.48791 348.97427 38.633468)
(544.35629 327.8713 31.104418)
(456.22563 304.09923 22.574339)
(374.23882 278.06422 14.140464)
(299.64296 250.95065 4.849477)
(233.70673 221.32036 -3.7290394)
(175.80814 191.57086 -12.307485)
(124.7623 162.19141 -20.651652)
(84.629881 131.26887 -28.293364)
(51.631904 102.49652 -33.673357)
(27.949784 75.771906 -37.486627)
(13.884527 45.510749 -36.993374)
(17.404201 27.421349 -24.586851)
(0 0 0)
(0 0 0)
(0 0 0)
(0 0 0)
(0 0 0)
(0 0 0)
(0 0 0)
(0 0 0)
(0 0 0)
(0 0 0)
(0 0 0)
(0 0 0)
(0 0 0)
(0 0 0)
(2743.5304 -172.84531 -160.87954)
(2747.269 -166.35937 -160.81331)
(2751.0614 -160.10157 -160.86846)
(2754.9447 -154.12365 -160.9809)
(2758.9635 -148.40779 -161.06312)
(2763.1407 -143.15085 -161.1571)
(2767.4264 -138.02855 -160.79132)
(2757.9106 -27.722116 -135.04075)
(2761.5472 -22.256491 -135.24566)
(2765.322 -16.608917 -135.34886)
(2769.2855 -10.751364 -135.35315)
(2773.4453 -4.7104454 -135.31032)
(2777.7133 1.4328829 -135.32533)
(2782.084 7.7015327 -135.46973)
(4.68435 33.182571 40.984359)
(11.243448 55.308658 45.903871)
(22.553089 82.545812 56.981345)
(44.020685 107.58927 64.663052)
(72.441926 131.78838 72.089257)
(111.29215 156.14839 78.839629)
(157.75691 178.50611 84.706006)
(213.24025 200.00871 90.575728)
(277.37575 219.02154 94.713312)
(349.44952 236.60755 98.481596)
(429.34383 251.50828 100.67708)
(516.33954 264.05154 101.86569)
(610.07238 274.09655 101.36482)
(709.21455 281.49582 99.66139)
(813.27266 286.07563 96.636431)
(921.03518 287.98345 92.179364)
(1031.5187 287.13659 86.604654)
(1143.6008 283.61559 79.858081)
(1256.2673 277.61655 72.071672)
(1368.3753 269.25198 63.448885)
(1478.923 258.72064 54.102454)
(1586.9106 246.27178 44.2292)
(1691.4387 232.13042 33.982737)
(1791.7615 216.62648 23.52237)
(1887.1312 199.96344 12.988719)
(1977.0303 182.53357 2.5879867)
(2061.0337 164.54911 -7.6597936)
(2138.8734 146.29069 -17.59602)
(2210.3002 128.08316 -27.099715)
(2275.3625 110.13642 -36.163036)
(2334.037 92.712395 -44.711865)
(2386.5348 75.990066 -52.722327)
(2433.1 60.142683 -60.170792)
(2474.0995 45.337827 -67.080232)
(2509.9018 31.65893 -73.486603)
(2541.0605 19.166685 -79.355661)
(2568.0068 7.9505444 -84.805421)
(2591.3129 -1.9570671 -89.904889)
(2611.5463 -10.747443 -94.634959)
(2629.3104 -18.232159 -99.211623)
(2645.2051 -24.707991 -103.54643)
(2659.6844 -30.130474 -107.92036)
(2673.5032 -34.729681 -112.26758)
(2687.0794 -38.572269 -116.82017)
(2700.6655 -41.766153 -121.58081)
(2715.5192 -44.757251 -126.60902)
(2730.864 -46.962991 -131.88463)
(-7.4358942 25.313043 31.636741)
(-1.6586578 38.454499 36.210985)
(11.734927 62.902002 45.654448)
(32.112424 79.152034 52.695904)
(62.612152 98.092971 59.443426)
(100.47435 115.13581 65.435913)
(147.33583 131.05549 72.20893)
(203.50481 145.42443 77.127387)
(267.60398 158.1058 82.533714)
(340.2094 169.28662 86.375452)
(420.41617 178.17696 89.620788)
(507.96446 185.63225 91.433963)
(601.94132 190.66483 92.310807)
(701.6862 193.93801 91.858214)
(806.25197 194.95716 90.042766)
(914.66028 194.1706 86.983682)
(1025.7065 191.3607 82.710902)
(1138.4638 186.73547 77.321466)
(1251.7141 180.36517 70.916922)
(1364.4635 172.42255 63.607439)
(1475.5395 163.03841 55.537682)
(1584.046 152.42314 46.851241)
(1689.0623 140.80186 37.655832)
(1789.7821 128.27987 28.129495)
(1885.4846 115.18633 18.426373)
(1975.7331 101.64511 8.6028913)
(2059.9725 87.946857 -1.2191021)
(2137.9421 74.207384 -10.768488)
(2209.5094 60.687299 -20.211057)
(2274.5989 47.499636 -29.285397)
(2333.2462 34.837114 -38.030238)
(2385.6696 22.784473 -46.344018)
(2432.1369 11.494373 -54.252144)
(2472.945 1.0096658 -61.715604)
(2508.6195 -8.6012774 -68.729507)
(2539.5093 -17.280772 -75.355778)
(2566.2445 -25.055825 -81.562328)
(2589.3259 -31.913797 -87.448297)
(2609.3938 -37.960281 -93.010555)
(2626.9516 -43.095072 -98.366953)
(2642.5903 -47.685564 -103.47359)
(2656.9818 -51.471583 -108.57103)
(2670.5077 -54.866339 -113.57288)
(2684.0092 -57.840568 -118.59409)
(2697.458 -60.36392 -123.87704)
(2712.2012 -63.002947 -129.05026)
(2727.2749 -64.937836 -134.70991)
(-15.703241 17.701921 23.374042)
(-8.6797368 28.04209 27.284801)
(2.4558215 41.871476 34.148774)
(25.604119 54.002869 40.143006)
(54.747317 64.946822 45.90452)
(94.03375 75.911427 52.894747)
(141.83196 83.984485 58.03108)
(197.66394 92.05003 64.63652)
(262.47414 98.09816 69.632847)
(335.05471 102.8856 74.433161)
(415.62168 106.37068 78.150953)
(503.19713 108.30235 81.011256)
(597.33957 108.77901 82.80624)
(697.20735 107.94693 83.349467)
(801.91245 105.82527 82.833365)
(910.25003 102.31539 81.08283)
(1021.3572 97.640502 78.171585)
(1134.0219 91.833761 74.228964)
(1247.2336 85.030423 69.191447)
(1359.8501 77.386708 63.258858)
(1470.8809 68.970419 56.467857)
(1579.3396 60.045764 48.941005)
(1684.2558 50.605314 40.793031)
(1784.9208 41.002898 32.243888)
(1880.6835 31.222748 23.231104)
(1970.8654 21.45582 14.067116)
(2055.0886 11.838357 4.8213027)
(2133.0802 2.4243565 -4.4627741)
(2204.7091 -6.6298713 -13.666713)
(2269.8951 -15.259688 -22.692933)
(2328.6966 -23.363422 -31.520347)
(2381.3289 -30.900003 -40.067374)
(2427.9924 -37.829053 -48.312921)
(2469.1049 -44.119819 -56.208073)
(2505.0227 -49.761492 -63.793647)
(2536.2632 -54.7877 -71.004733)
(2563.3168 -59.177167 -77.918225)
(2586.7174 -63.05412 -84.508877)
(2607.036 -66.39232 -90.813605)
(2624.9256 -69.340855 -96.93058)
(2640.9565 -71.902361 -102.84408)
(2655.6711 -74.111961 -108.71909)
(2669.5858 -76.29306 -114.38125)
(2683.4291 -78.16664 -120.25)
(2697.1892 -80.110565 -125.97382)
(2712.1493 -82.064644 -131.87189)
(2727.2275 -83.7985 -137.79046)
(-18.619892 9.3922658 12.6903)
(-12.779419 12.921818 14.50672)
(-0.38721464 20.999744 20.636382)
(20.44653 25.844261 26.683542)
(51.351468 30.297672 33.272776)
(90.351391 34.613367 38.977431)
(137.80194 36.386185 46.366444)
(194.30711 38.27827 51.93762)
(258.91235 37.985903 58.101159)
(331.98188 37.360499 63.333277)
(412.52998 35.167183 67.821233)
(500.34939 32.256144 71.617289)
(594.41075 28.204426 74.184368)
(694.1702 23.629219 75.932993)
(798.43821 18.138309 76.638956)
(906.4819 12.214837 76.178173)
(1017.0793 5.6939398 74.648288)
(1129.2291 -1.1575077 72.003125)
(1241.8253 -8.3287361 68.341844)
(1353.826 -15.607223 63.705333)
(1464.1829 -22.99934 58.178989)
(1571.8851 -30.229238 51.812264)
(1676.2163 -37.206067 44.828103)
(1776.3369 -44.145357 37.190764)
(1871.5116 -50.769285 29.137458)
(1961.3681 -57.036153 20.693292)
(2045.4715 -62.860017 11.873273)
(2123.5258 -68.228428 2.9126847)
(2195.3293 -73.065085 -6.1672174)
(2260.8325 -77.417767 -15.24038)
(2320.1097 -81.208608 -24.27811)
(2373.2952 -84.496504 -33.179493)
(2420.6748 -87.294212 -41.890834)
(2462.5195 -89.589216 -50.423659)
(2499.3102 -91.498947 -58.669605)
(2531.4079 -92.98238 -66.698114)
(2559.3657 -94.192414 -74.422027)
(2583.7294 -95.092054 -81.91986)
(2605.1224 -95.797219 -89.147498)
(2623.8754 -96.368457 -96.144799)
(2640.653 -96.950793 -102.90227)
(2656.0619 -97.578196 -109.51464)
(2670.5831 -98.32561 -115.96556)
(2684.8846 -99.178139 -122.36544)
(2699.0161 -100.32787 -128.61386)
(2714.2461 -101.7069 -134.92225)
(2729.3566 -103.29606 -141.21226)
(-21.064979 2.1024 2.4928673)
(-13.154268 3.4851456 3.7347066)
(-4.2767181 2.4639983 9.3970909)
(18.730439 1.6110346 14.312789)
(49.284561 -1.0814866 19.438891)
(88.442073 -4.1287576 26.714604)
(136.86938 -8.6333464 32.5312)
(193.4647 -13.992934 39.319233)
(258.61778 -20.047847 45.531429)
(331.68719 -27.044378 51.46369)
(412.33587 -34.798156 56.855)
(499.77755 -42.794158 61.57091)
(593.52563 -51.270167 65.42135)
(692.77774 -59.790928 68.436903)
(796.53839 -68.519665 70.361314)
(903.88563 -77.060729 71.301669)
(1013.818 -85.461226 71.043954)
(1125.1752 -93.418817 69.779194)
(1237.0339 -101.0539 67.437168)
(1348.2113 -108.03071 64.049674)
(1457.8216 -114.62602 59.774891)
(1565.1656 -120.25299 54.486921)
(1669.1076 -125.47485 48.366029)
(1768.8011 -129.81004 41.604271)
(1863.7789 -133.32648 34.079412)
(1953.4947 -136.09347 26.07006)
(2037.5067 -138.10682 17.641526)
(2115.5889 -139.45354 8.9554474)
(2187.5377 -140.13198 -0.00057880329)
(2253.328 -140.22267 -9.0709684)
(2312.9644 -139.73501 -18.25275)
(2366.6473 -138.77956 -27.394316)
(2414.5446 -137.42324 -36.491401)
(2457.047 -135.72271 -45.473119)
(2494.4677 -133.83476 -54.271271)
(2527.2637 -131.77006 -62.896998)
(2555.8857 -129.69346 -71.287672)
(2580.9317 -127.55405 -79.469234)
(2602.9994 -125.63972 -87.302276)
(2622.3269 -124.0424 -95.048204)
(2639.7795 -122.60763 -102.54486)
(2655.7308 -121.52857 -109.84643)
(2670.8015 -120.83965 -116.9825)
(2685.4697 -120.59371 -123.97725)
(2700.1722 -120.89792 -130.85575)
(2715.6419 -121.67119 -137.7731)
(2731.1659 -123.09633 -144.57041)
(-18.351733 -5.4691156 -9.8860493)
(-9.3636103 -12.258103 -7.8206813)
(-0.53371439 -19.981251 -5.2140828)
(22.381569 -27.624897 -1.1490798)
(52.35294 -37.737115 5.7359467)
(91.728964 -47.213582 11.761942)
(139.87144 -59.099435 18.944496)
(196.27404 -70.515887 26.238242)
(261.09944 -83.248488 33.09596)
(333.5942 -95.862216 40.232538)
(413.75379 -109.07587 46.538431)
(500.52819 -121.98737 52.219414)
(593.64515 -134.85318 57.193711)
(692.07562 -147.14979 61.418643)
(795.00564 -158.98923 64.674958)
(901.44851 -169.88661 66.944852)
(1010.4359 -179.97537 68.150846)
(1120.8952 -188.86493 68.294459)
(1231.8147 -196.70519 67.320902)
(1342.1067 -203.18746 65.278037)
(1451.007 -208.48533 62.276795)
(1557.2978 -212.61458 57.909085)
(1660.4423 -215.16062 53.145874)
(1759.4482 -216.27495 47.147134)
(1854.0104 -216.37157 40.481519)
(1943.2904 -215.31103 33.143304)
(2027.1227 -213.32245 25.144405)
(2105.1925 -210.34048 16.722901)
(2177.3046 -206.61492 7.8717426)
(2243.3164 -202.15554 -1.3098918)
(2303.3533 -197.14114 -10.718002)
(2357.5009 -191.72271 -20.268449)
(2406 -186.03281 -29.874591)
(2449.1342 -180.19744 -39.487569)
(2487.2653 -174.42524 -48.986699)
(2520.7739 -168.72363 -58.417646)
(2550.2018 -163.34963 -67.648018)
(2575.9453 -158.29748 -76.740812)
(2598.543 -153.72244 -85.526785)
(2618.9805 -149.67273 -94.237809)
(2636.9312 -146.51242 -102.47787)
(2653.3947 -143.8697 -110.65376)
(2668.8607 -142.01907 -118.47461)
(2683.8992 -140.84219 -126.15503)
(2698.9218 -140.53021 -133.56924)
(2714.4259 -140.87448 -140.78909)
(2730.3344 -142.12918 -147.91365)
(-13.720227 -15.010947 -18.915423)
(-5.4217737 -24.94157 -17.689381)
(2.5368278 -39.053833 -18.28737)
(25.955873 -53.364125 -13.369072)
(55.136526 -69.57475 -8.1330949)
(95.076049 -87.155815 -1.3151655)
(142.7491 -105.46842 6.0563693)
(198.9566 -124.32022 13.643062)
(263.42094 -143.65252 21.325491)
(335.33555 -162.67498 29.033288)
(415.21096 -181.86712 36.308878)
(501.26905 -200.18056 42.970492)
(593.74299 -217.93886 49.209504)
(691.3858 -234.61495 54.702506)
(793.60994 -249.91411 59.298066)
(899.24303 -263.66998 62.908087)
(1007.5194 -275.67969 65.495417)
(1117.2156 -285.85151 66.931671)
(1227.4458 -294.01556 67.281399)
(1337.1825 -300.2167 66.480695)
(1445.3643 -304.35891 64.492923)
(1551.37 -306.54347 61.462465)
(1653.9073 -306.78766 57.29547)
(1752.6922 -305.07644 52.14738)
(1846.917 -301.73029 46.134388)
(1936.1255 -296.77203 39.269261)
(2020.0438 -290.48692 31.55717)
(2098.0512 -283.10571 23.299599)
(2170.147 -274.77971 14.45115)
(2236.2254 -265.62653 5.1526321)
(2296.3731 -255.93496 -4.4969705)
(2350.6815 -245.88924 -14.400297)
(2399.36 -235.70169 -24.457044)
(2442.7239 -225.5625 -34.602308)
(2481.0554 -215.70966 -44.717005)
(2514.849 -206.20049 -54.813438)
(2544.491 -197.36846 -64.7426)
(2570.4137 -189.17574 -74.52126)
(2593.2929 -181.8652 -84.046234)
(2613.5849 -175.52124 -93.343644)
(2631.7177 -170.18455 -102.41641)
(2648.3484 -165.91326 -111.20654)
(2663.9756 -162.67896 -119.67562)
(2679.1388 -160.54351 -127.88631)
(2694.2905 -159.47945 -135.71342)
(2709.8426 -159.32143 -143.36248)
(2726.2731 -160.1916 -150.77255)
(0 0 0)
(0 0 0)
(0 0 0)
(0 0 0)
(0 0 0)
(0 0 0)
(0 0 0)
(0 0 0)
(0 0 0)
(0 0 0)
(0 0 0)
(0 0 0)
(0 0 0)
(0 0 0)
(0 0 0)
(0 0 0)
(0 0 0)
(0 0 0)
(0 0 0)
(0 0 0)
(0 0 0)
(0 0 0)
(0 0 0)
(0 0 0)
(0 0 0)
(0 0 0)
(0 0 0)
(0 0 0)
(0 0 0)
(0 0 0)
(0 0 0)
(0 0 0)
(0 0 0)
(0 0 0)
(0 0 0)
(0 0 0)
(0 0 0)
(0 0 0)
(0 0 0)
(0 0 0)
(0 0 0)
(0 0 0)
(0 0 0)
(0 0 0)
(0 0 0)
(0 0 0)
(0 0 0)
(0 0 0)
(0 0 0)
(4.755534 -5.7748937 -16.945097)
(8.9733979 -9.0913134 -11.958097)
(13.698429 -9.9388795 -5.7172986)
(15.903638 -11.031101 -0.54078321)
(16.355398 -10.596836 4.3487332)
(16.758465 -11.846546 10.265124)
(14.166743 -7.4481949 15.644971)
(15.680761 -41.174566 -21.462798)
(23.631415 -48.566192 -10.44958)
(27.643398 -46.408764 -1.6108206)
(29.728817 -45.739093 5.841912)
(31.359018 -50.187954 13.783706)
(28.785465 -51.183204 23.239632)
(25.928927 -52.450455 35.37875)
(23.536079 -55.906775 -22.274009)
(33.793134 -55.53445 -13.357251)
(40.607742 -61.382606 0.45067986)
(42.480192 -62.96923 9.7316081)
(42.92364 -62.06646 21.527485)
(39.927126 -65.152052 30.087363)
(35.264389 -71.115339 47.044772)
(49.632449 -88.025594 -16.210696)
(57.790428 -92.931062 -5.8625705)
(63.325749 -94.247531 7.2444955)
(65.987301 -96.095635 16.469685)
(66.164048 -98.555633 28.492421)
(62.689581 -103.71028 41.981969)
(55.221183 -103.63638 53.15898)
(77.595426 -112.47616 -11.492775)
(87.459323 -115.1929 -0.81324436)
(94.532157 -119.51673 12.326966)
(96.381775 -121.69138 24.566532)
(96.373189 -124.21567 36.479122)
(92.345914 -127.6412 48.12905)
(85.819005 -132.03381 63.186168)
(117.97049 -140.33885 -3.7202078)
(125.84671 -143.83068 7.6396886)
(131.59112 -146.50902 20.172863)
(133.99116 -150.38306 31.300232)
(132.99713 -152.54684 44.216068)
(128.65517 -156.70692 56.712284)
(120.87995 -159.61505 68.584359)
(164.01127 -166.77155 3.8515534)
(172.48498 -170.92569 15.356557)
(178.60163 -175.38235 27.680971)
(180.28514 -178.53876 38.771563)
(179.76135 -181.60798 51.617077)
(175.37813 -186.26599 62.648634)
(168.05508 -189.38635 76.216276)
(219.5121 -194.31507 12.036817)
(227.21039 -198.61902 23.230404)
(231.94219 -201.85662 35.241169)
(234.11557 -205.43921 46.577493)
(232.30428 -207.9389 57.866859)
(228.25505 -211.30779 69.689021)
(220.26794 -214.60236 80.737517)
(282.21126 -221.12488 20.207908)
(289.31824 -225.43493 31.506149)
(294.45984 -229.58577 42.404589)
(295.51002 -232.28352 53.169962)
(294.65899 -235.84377 64.168869)
(289.82457 -238.47592 74.688751)
(282.81322 -241.88819 86.456018)
(352.61432 -247.55386 28.25995)
(359.20559 -251.44844 38.716936)
(363.10953 -254.57471 49.485132)
(364.71978 -257.97456 59.704169)
(362.92163 -260.37306 70.136753)
(358.72882 -262.88712 79.784627)
(351.39336 -265.65018 89.940219)
(430.18148 -273.11063 35.996948)
(435.88865 -276.85092 46.09427)
(439.88093 -280.16877 55.799701)
(440.45233 -282.22397 64.689261)
(439.5898 -284.69409 74.154511)
(434.9598 -286.52232 82.76575)
(428.20939 -289.0227 93.143607)
(514.21975 -297.07283 43.178346)
(519.42199 -300.27729 52.633928)
(522.3045 -302.76602 60.73323)
(523.30344 -304.65602 69.499813)
(521.57346 -306.48841 77.910487)
(517.17322 -307.73102 85.601936)
(511.60756 -309.51696 93.80575)
(604.16798 -319.86697 49.739189)
(608.41729 -322.28906 57.820345)
(611.22644 -324.28163 65.366075)
(611.68043 -325.6041 72.644932)
(610.29529 -326.90682 79.872108)
(606.72983 -327.9141 86.159193)
(601.1874 -328.28945 93.430752)
(699.05255 -340.20508 55.493825)
(702.69647 -341.89008 62.443042)
(705.00725 -343.16119 68.586138)
(705.07849 -343.68014 74.716815)
(704.17829 -344.53782 80.626276)
(700.54657 -344.15914 85.832191)
(696.28484 -344.28447 91.596071)
(798.51727 -358.45359 60.211205)
(801.56753 -359.4258 65.841108)
(803.08011 -359.80142 70.738724)
(803.49401 -359.96494 75.621559)
(802.30264 -359.83294 80.015383)
(799.75332 -359.065 84.030704)
(795.99469 -358.14882 88.195535)
(901.51663 -374.01624 64.013104)
(903.53083 -373.95876 68.218151)
(904.92647 -373.8163 71.783987)
(904.84551 -372.88569 75.116601)
(904.21652 -372.283 78.224915)
(902.03641 -370.45493 80.806425)
(899.36204 -368.96407 83.425692)
(1006.919 -386.75217 66.6513)
(1008.4888 -386.05102 69.41463)
(1009.0973 -384.86477 71.493357)
(1009.2375 -383.42917 73.493231)
(1008.6716 -381.99455 75.0563)
(1007.3455 -379.59536 76.293981)
(1005.5185 -377.11203 77.321343)
(1114.1071 -396.66757 68.187857)
(1114.6782 -394.91664 69.390227)
(1115.0766 -393.09691 70.138698)
(1115.0158 -390.81937 70.584255)
(1114.8573 -388.73645 70.721566)
(1114.1588 -385.4012 70.607967)
(1113.3944 -382.32455 69.99678)
(1221.7598 -403.53448 68.477382)
(1221.8316 -401.05771 68.228771)
(1221.6734 -398.36568 67.511176)
(1221.7428 -395.4753 66.54132)
(1221.7901 -392.57344 65.226691)
(1221.9246 -388.73545 63.771333)
(1222.1358 -384.81817 61.607224)
(1329.1815 -407.43891 67.598815)
(1328.4594 -404.04367 65.871183)
(1328.0564 -400.67123 63.804838)
(1328.0636 -397.03313 61.40373)
(1328.5078 -393.55268 58.727478)
(1329.3572 -388.96019 55.951865)
(1330.6009 -384.43826 52.303371)
(1435.27 -408.39876 65.514627)
(1434.0837 -404.27747 62.40024)
(1433.2641 -400.14741 58.977158)
(1433.4251 -395.96017 55.286815)
(1434.1458 -391.75606 51.27296)
(1435.7727 -386.67993 47.293174)
(1437.9836 -381.49687 42.260371)
(1539.2844 -406.51774 62.241006)
(1537.4868 -401.60503 57.822579)
(1536.4847 -396.88124 53.207164)
(1536.692 -392.07148 48.277176)
(1537.7672 -387.35671 43.071759)
(1540.1202 -381.72233 37.92248)
(1543.2978 -376.05835 31.632499)
(1640.3212 -401.97277 57.810781)
(1638.1528 -396.44587 52.273166)
(1636.9192 -391.151 46.49873)
(1637.2783 -385.82551 40.510793)
(1638.6863 -380.49581 34.154581)
(1641.7459 -374.47578 28.042667)
(1645.8067 -368.35989 20.60591)
(1737.7808 -395.03147 52.350599)
(1735.179 -388.81807 45.791792)
(1733.9234 -383.06152 39.053016)
(1734.3611 -377.16361 32.094849)
(1736.0731 -371.53398 24.841782)
(1739.7935 -365.13576 17.754246)
(1744.6753 -358.70216 9.3405561)
(1830.9632 -385.8178 46.029588)
(1828.0819 -379.15712 38.46717)
(1826.8445 -373.03775 30.979363)
(1827.2294 -366.70743 23.157216)
(1829.5177 -360.61431 15.082191)
(1833.7037 -353.79021 7.2609679)
(1839.4266 -347.0653 -1.9476878)
(1919.4404 -374.70239 38.767592)
(1916.3601 -367.72773 30.483291)
(1915.1642 -361.08121 22.403669)
(1915.8804 -354.51513 13.468657)
(1918.4733 -348.05609 5.4552866)
(1922.8582 -340.9932 -3.2955875)
(1929.1754 -334.14028 -12.798426)
(2002.8126 -362.04889 30.808992)
(1999.6573 -354.73939 22.10494)
(1998.4973 -347.67928 13.210566)
(1999.0588 -340.90919 4.2710034)
(2002.1475 -334.03308 -4.6843319)
(2006.9199 -327.05742 -13.969177)
(2013.9165 -319.78988 -23.44355)
(2080.5979 -348.0849 22.185863)
(2077.6427 -340.40651 12.958626)
(2076.2191 -333.18851 3.7677355)
(2077.393 -326.15898 -5.4319279)
(2080.3107 -319.34415 -14.967343)
(2085.7344 -312.05627 -24.208733)
(2093.064 -304.78866 -34.223133)
(2152.7604 -333.17699 13.049988)
(2149.7713 -325.25533 3.4183863)
(2148.7285 -317.84782 -5.7432692)
(2149.9094 -310.74208 -15.450788)
(2153.2636 -303.60709 -24.876449)
(2158.9231 -296.39297 -34.400406)
(2166.5855 -289.04157 -44.49573)
(2219.1118 -317.60129 3.3605637)
(2216.4362 -309.55535 -6.2994232)
(2215.4626 -302.00146 -15.59473)
(2216.9508 -294.75429 -25.261547)
(2220.4572 -287.61003 -34.751001)
(2226.3469 -280.38711 -44.264676)
(2234.2762 -273.04802 -54.341389)
(2279.7893 -301.69301 -6.5958505)
(2277.2869 -293.51267 -16.247302)
(2276.6285 -285.91283 -25.416256)
(2278.3107 -278.63546 -35.04437)
(2282.0345 -271.45233 -44.356646)
(2288.1139 -264.28521 -53.763423)
(2296.1884 -257.009 -63.621329)
(2334.766 -285.69085 -16.821559)
(2332.6419 -277.55249 -26.257342)
(2332.2486 -269.91476 -35.243251)
(2334.1608 -262.63809 -44.594945)
(2338.0507 -255.4778 -53.673166)
(2344.2265 -248.40116 -62.812029)
(2352.3614 -241.23514 -72.352476)
(2384.3299 -269.96773 -27.166581)
(2382.5703 -261.84895 -36.295753)
(2382.4902 -254.23521 -44.931513)
(2384.6251 -247.01115 -53.933917)
(2388.6572 -239.90195 -62.648702)
(2394.8869 -232.94154 -71.397131)
(2402.9901 -225.91962 -80.512514)
(2428.6877 -254.71595 -37.566625)
(2427.3486 -246.71088 -46.249461)
(2427.6136 -239.15603 -54.447602)
(2429.9669 -232.01908 -62.986811)
(2434.1121 -224.99759 -71.209687)
(2440.3163 -218.19337 -79.491738)
(2448.3204 -211.32278 -88.08332)
(2468.1545 -240.21572 -47.922746)
(2467.2776 -232.32599 -56.058143)
(2467.9004 -224.88498 -63.73512)
(2470.4547 -217.84796 -71.704333)
(2474.6934 -210.94396 -79.385796)
(2480.8671 -204.23846 -87.165594)
(2488.7244 -197.608 -95.060687)
(2503.1496 -226.66229 -58.197496)
(2502.753 -218.96904 -65.748759)
(2503.7466 -211.63064 -72.802815)
(2506.4931 -204.74839 -80.149561)
(2510.8339 -197.90237 -87.181782)
(2516.8334 -191.54553 -94.343114)
(2524.4192 -185.06429 -101.3491)
(2534.1407 -214.3554 -68.268609)
(2534.1863 -206.72493 -75.047069)
(2535.4843 -199.5806 -81.415503)
(2538.4754 -192.75405 -88.078673)
(2542.7621 -186.21551 -94.453215)
(2548.6235 -179.61384 -100.74127)
(2555.9384 -173.50728 -107.47269)
(2561.2649 -202.96723 -78.165005)
(2562.0062 -195.89468 -84.152977)
(2563.71 -188.80961 -89.901294)
(2566.7722 -182.19851 -95.728121)
(2571.1655 -175.65643 -101.45898)
(2576.8429 -169.75236 -107.24572)
(2583.9348 -163.44117 -112.98634)
(2585.4563 -193.53819 -87.816107)
(2586.5582 -186.37693 -93.139263)
(2588.5933 -179.44635 -98.12505)
(2591.9165 -173.00648 -103.27765)
(2596.2653 -166.61841 -108.22965)
(2601.8535 -160.52007 -113.09324)
(2608.4526 -154.48851 -118.11968)
(2606.9765 -185.24744 -97.159473)
(2608.5585 -178.37941 -101.71242)
(2610.9623 -171.6529 -105.91206)
(2614.4077 -165.34064 -110.32691)
(2618.7785 -159.03477 -114.44226)
(2624.0501 -153.16393 -118.70112)
(2630.3294 -147.29319 -122.87505)
(2626.3786 -178.68072 -106.26504)
(2628.403 -171.97483 -109.93156)
(2631.1091 -165.39896 -113.49593)
(2634.7031 -159.1865 -117.10072)
(2638.9781 -153.025 -120.56929)
(2644.0934 -147.24865 -124.04444)
(2650.0016 -141.48882 -127.44556)
(2644.1051 -173.63547 -115.06098)
(2646.5791 -167.12836 -117.92056)
(2649.6039 -160.71401 -120.81313)
(2653.2506 -154.58995 -123.66142)
(2657.5536 -148.5523 -126.44354)
(2662.4307 -142.85615 -129.21055)
(2667.9357 -137.19024 -131.88123)
(2660.7601 -170.23677 -123.45966)
(2663.6298 -163.84343 -125.61446)
(2666.8844 -157.52517 -127.8733)
(2670.6558 -151.49815 -130.01586)
(2674.9051 -145.56299 -132.20472)
(2679.5414 -139.92067 -134.29842)
(2684.7286 -134.34465 -136.2869)
(2676.753 -168.31403 -131.55209)
(2679.9357 -162.04153 -133.08779)
(2683.4472 -155.81071 -134.71031)
(2687.2771 -149.86602 -136.2716)
(2691.4801 -143.9853 -137.88626)
(2695.9484 -138.42462 -139.3936)
(2700.8118 -132.93574 -140.75799)
(2692.5764 -167.84433 -139.28878)
(2696.0505 -161.608 -140.27111)
(2699.7248 -155.42906 -141.36819)
(2703.6104 -149.50845 -142.43678)
(2707.7719 -143.7054 -143.564)
(2712.0773 -138.18878 -144.56684)
(2716.6891 -132.79461 -145.43052)
(2708.6394 -168.5968 -146.71515)
(2712.3138 -162.36012 -147.2595)
(2716.1113 -156.17116 -147.90445)
(2720.0382 -150.27293 -148.56864)
(2724.1417 -144.48551 -149.29209)
(2728.3806 -139.05546 -149.89799)