/*--------------------------------*- C++ -*----------------------------------*\
  =========                 |
  \\      /  F ield         | OpenFOAM: The Open Source CFD Toolbox
   \\    /   O peration     | Website:  https://openfoam.org
    \\  /    A nd           | Version:  6
     \\/     M anipulation  |
\*---------------------------------------------------------------------------*/
FoamFile
{
    version     2.0;
    format      ascii;
    class       pointScalarField;
    location    "1.71";
    object      p;
}
// * * * * * * * * * * * * * * * * * * * * * * * * * * * * * * * * * * * * * //

dimensions      [1 -1 -2 0 0 0 0];

internalField   nonuniform List<scalar> 
625
(
35581.077
-9172.7912
5361.2577
4834.9466
4829.8493
-113046.25
3458.7562
-663.75293
30097.341
19317.71
5519.8546
-16106.657
1378.8344
3766.4968
16288.29
16031.686
14369.424
14529.058
11575.148
11987.61
10942.417
11590.796
12637.552
13903.279
16287.815
19226.333
21715.857
25280.418
27861.161
31458.136
31707.754
35029.682
34371.953
32307.398
30153.596
22818.138
16449.307
-4232.3891
-1072.8248
-4606.4856
-3444.7028
-4759.2654
-5049.2341
-7134.8805
-8585.9085
-10955.91
-13934.157
-17179.641
-20181.612
-24293.694
-26846.072
-30274.106
-32763.407
-33891.15
-34955.553
-33873.456
-32162.576
-28250.981
-21830.796
-12027.18
-7229.3109
-33755.547
-27248.283
-19696.884
-24621.271
-15245.62
-16359.477
-17621.143
-13944.825
-15070.34
-14958.062
-15955.249
-19592.74
-19359.946
-25271.5
-25859.816
-31021.479
-33038.732
-36005.937
-37913.565
-38344.009
-37593.49
-35432.298
-29928.499
-24466.33
-12662.193
3643.637
874.3201
-8439.8884
23024.448
26098.759
30645.725
35621.752
39609.008
40370.74
40152.492
38711.819
35936.263
32683.67
28596.056
24702.083
20737.66
16289.773
13440.156
10499.213
8029.0336
6370.0463
5628.1057
3648.7144
4327.7288
11.336727
5397.0003
32775.402
19433.163
18010.127
-27490.41
-47440.039
-48350.857
13496.185
12134.157
14632.641
-6908.282
100.69277
-4328.7756
11487.7
11629.633
10580.253
9234.6326
9066.4527
8633.3411
8034.9739
8510.9223
9490.8841
10006.541
11513.299
12882.309
14644.794
16293.053
18358.735
18952.506
20464.793
20965.372
19557.941
20222.617
16407.963
9509.3698
7046.6745
6160.938
6898.9036
4297.9611
4622.0126
2676.5399
1856.326
713.92832
-136.34431
-1368.9515
-2523.2662
-3264.6106
-4166.5597
-5093.4327
-5305.8506
-6239.1625
-6134.0658
-6082.8348
-6182.1255
-5474.2657
-4605.5387
-5082.32
-647.3006
571.91445
-899.16579
475.47533
-961.73049
-596.46913
-3623.9936
-3566.1932
-5965.1167
-7080.0073
-9285.3179
-11548.238
-13513.714
-16399.303
-17982.633
-20514.677
-21653.955
-22626.967
-23272.611
-22216.864
-21268.408
-18500.666
-14396.814
-11592.822
-3941.6982
21366.31
9078.187
7893.1636
6601.9714
948.14723
-6921.9185
2102.9785
-6660.3056
-20262.48
-11185.298
-14631.706
-19581.94
-10570.849
-14817.708
-17130.508
-8573.9709
-10930.891
-13170.067
-6166.1522
-9379.0812
-10911.647
-7125.6854
-10151.936
-11705.69
-7963.1839
-8911.4967
-10394.77
-9285.7954
-10501.797
-11661.247
-10658.408
-11182.46
-12756.875
-13571.076
-13314.791
-13885.503
-16248.978
-15531.503
-16867.902
-19420.529
-18039.937
-19343.565
-23174.248
-21659.536
-22928.109
-26615.453
-24524.586
-26195.731
-30165.013
-28149.277
-29669.595
-33506.91
-30969.009
-33111.045
-35735.254
-33698.528
-35436.702
-37597.252
-34999.017
-37433.577
-37788.981
-36252.876
-38297.204
-37333.899
-35157.358
-36962.028
-34462.104
-33009.775
-35170.564
-29266.948
-28315.775
-29993.317
-24033.467
-25108.479
-25135.388
-17801.448
-14926.602
-16792.63
-20961.751
-22399.363
-23285.97
602.08863
393.67297
2099.9342
6304.3752
7507.7111
5674.6653
14666.865
10446.713
9522.6338
14790.597
10973.585
8716.1452
14451.687
9148.4368
7022.7552
12059.989
9583.4948
5988.6907
12484.523
8722.3118
6647.1747
12261.788
9578.3236
6682.7725
12060.92
9754.4927
8509.4899
13564.99
11282.02
9679.1355
16083.895
12343.351
12785.345
17192.412
15430.357
15388.706
20844.964
18234.406
18407.505
23878.883
20748.714
22451.302
27502.448
24302.526
26297.421
31209.08
27482.314
29833.408
34612.738
30366.299
33567.214
37108.86
32982.001
36079.725
39112.521
34649.043
38309.66
40362.518
35506.777
38909.553
38568.904
34509.6
37986.163
37573.105
31432.389
36667.319
33817.242
29540.81
32514.207
26831.359
26002.035
25585.654
26052.959
27028.682
28338.864
-6754.6733
-1808.8642
544.49659
1682.138
2552.6982
4767.5017
5561.4004
7684.3341
9313.1169
11182.348
14006.045
16097.741
17881.077
20419.307
21269.767
23079.412
22962.044
23187.119
21924.903
19176.34
15894.926
9947.4487
1628.4071
-11130.668
-8761.1853
-4590.9432
-5042.4679
-3412.2171
-2932.2265
-2540.183
-1053.3407
-1127.5162
-134.93291
1063.3541
1137.4465
2583.5109
2599.9011
3655.2224
4038.9996
4332.5166
5285.9005
4687.3668
5253.6838
6025.2375
4780.7387
3895.0833
-13078.77
-13779.527
-13990.027
-12314.297
-11471.56
-11489.411
-10088.961
-10280.705
-10295.595
-10689.777
-11604.488
-12426.536
-14272.172
-15084.018
-17125.566
-18167.435
-19221.75
-19873.754
-20109.813
-18230.932
-16987.248
-12203.514
-11181.088
12202.807
7813.7689
2956.2136
10062.892
6338.5077
888.04138
7569.8501
5041.4495
1171.045
7199.0026
5272.2245
1958.173
8358.5966
5109.4864
2097.1086
6174.2174
5323.7583
2637.9014
7787.1618
7157.268
4438.802
8934.538
7450.9403
5083.5352
8083.042
8944.2687
8203.8432
10546.599
11516.909
9497.208
11701.226
12458.38
11638.983
13041.37
15299.483
14434.093
15068.724
17105.834
16362.61
16271.374
19221.649
18687.283
17769.116
20705.111
20497.292
18411.239
22416.441
21655.209
19818.484
22968.149
22617.137
18975.24
23164.451
22066.994
18370.147
21616.879
21604.016
15934.609
22640.85
20039.288
12990.621
16140.531
14604.471
10298.634
10089.846
12506.182
2169.1501
-700.53188
73.676416
3959.8925
-2639.517
-7215.5577
4073.5719
-494.14485
-3177.363
3288.6304
700.89726
-2883.1802
4250.5863
64.201629
-2394.2029
2254.7463
99.411913
-2245.8483
2339.7026
575.41279
-1296.3559
2880.3033
445.80251
-1680.7374
1112.9273
-335.10859
-1276.6394
1702.9206
269.86738
-1259.6932
1265.2916
-209.43221
-1318.9231
590.02927
-187.78721
-1393.4912
860.3247
-79.566801
-1110.4477
315.7843
-104.02678
-1487.8868
669.26427
-50.08873
-1480.5463
197.35888
241.22629
-1322.7322
931.03814
732.83806
-1724.352
1001.5205
543.57445
-1375.4872
865.20982
1140.6719
-1975.4164
1992.4235
1017.9551
-352.7944
2656.3984
2065.377
-2414.1895
1552.349
-1396.2692
-1603.5014
4277.4169
3725.7332
691.25136
4458.8133
5156.3553
5104.5923
-4237.4334
-11075.382
-15785.313
-2804.3962
-3291.9835
-10427.711
-2369.9738
-7329.737
-12475.991
-4630.4398
-6359.3949
-9988.1764
-3874.0516
-6148.5843
-9391.6416
-3913.6755
-6834.908
-9566.0543
-4986.244
-7018.5073
-9347.1309
-5994.1522
-8603.33
-9823.3314
-7018.2739
-9185.3422
-9864.4385
-8673.6747
-11119.374
-10898.832
-10333.933
-12707.085
-12092.179
-11995.488
-14517.382
-13207.817
-13896.025
-16894.611
-15024.869
-15772.896
-18569.666
-16470.082
-16969.143
-20713.595
-17753.047
-18607.86
-22062.155
-19582.334
-19173.248
-23655.505
-20095.868
-19543.615
-23401.301
-20158.129
-18411.715
-23414.539
-20514.755
-17626.331
-22530.044
-18502.085
-14639.466
-19748.512
-16192.474
-10554.708
-13100.557
-8396.7596
-5023.1539
-10042.51
-8139.5571
)
;

boundaryField
{
    free
    {
        type            calculated;
    }
    fixed
    {
        type            calculated;
    }
    traction
    {
        type            calculated;
    }
}


// ************************************************************************* //
