/*--------------------------------*- C++ -*----------------------------------*\
  =========                 |
  \\      /  F ield         | OpenFOAM: The Open Source CFD Toolbox
   \\    /   O peration     | Website:  https://openfoam.org
    \\  /    A nd           | Version:  6
     \\/     M anipulation  |
\*---------------------------------------------------------------------------*/
FoamFile
{
    version     2.0;
    format      ascii;
    class       pointScalarField;
    location    "0.73";
    object      p;
}
// * * * * * * * * * * * * * * * * * * * * * * * * * * * * * * * * * * * * * //

dimensions      [1 -1 -2 0 0 0 0];

internalField   nonuniform List<scalar> 
28033
(
1257253.5
-1805045.9
-308.66303
-86.349678
2292106.1
-2578788.2
-350.63926
286.07083
1030220.1
885449.64
750084.3
611044
457841.58
319684.41
178098.22
25309.62
-133307.56
-270160.74
-444906.1
-541959.8
-737310.32
-926552.53
-891288.14
733.68376
1950.3017
2586.4386
2567.6775
2531.8653
2069.0865
1590.6108
898.62436
319.49136
-572.62378
-1028.8298
-1567.9498
-1638.9001
-1583.5918
-1007.4156
330547.63
338577.3
296943.08
311340.19
294828.51
298843.53
293324.84
289553.34
283916.95
281243.58
274074.29
268286.11
263846.92
258481.92
252173.14
245614.3
241361.1
234558.37
228584.49
221777.79
215868.61
208274.57
202494.79
194925.52
187638.71
180763.09
173581.34
166362.34
159486.65
152606.76
146263.01
139485.1
133740.8
127998.02
122094.57
117297.77
112284.38
108351.92
103231.88
99298.084
94654.798
90431.8
85982.664
81767.949
77084.413
72627.168
67676.733
62907.629
57667.606
52680.198
47291.815
42186.124
36937.907
31926.028
27052.059
22462.165
18175.237
14265.586
10758.147
7699.9672
5073.6407
2873.3655
1107.4103
-251.33107
-1386.7558
-2237.3178
-2653.961
-3282.016
-3865.7778
-4264.8521
-4913.0932
-5619.7925
-6467.1598
-7411.4529
-8574.4925
-9759.6314
-11102.345
-12370.931
-13756.85
-14827.532
-15948.6
-16720.855
-17132.173
-17120.929
-16782.471
-15989.844
-14830.248
-13296.389
-11537.501
-9367.6304
-7289.6967
-4997.2593
-3149.4249
-1464.174
-192.64235
-319675.08
-246427.27
-287296.06
-244181.3
-275432.13
-263092.29
-266652.56
-255543.59
-258596.25
-247434.78
-247186.82
-238383.9
-234734.38
-229131.19
-223857.45
-218078.66
-212734.93
-206109.07
-201324.1
-194535.84
-188032.13
-182657.93
-174450.77
-169303.46
-161267.47
-154814.12
-147813.76
-140761.38
-134377.39
-127355.77
-120865.29
-115121.72
-109055.16
-104146.3
-99045.81
-94857.811
-89964.207
-86262.247
-82047.925
-78655.24
-74850.961
-71302.473
-67533.706
-63818.922
-59745.859
-55674.263
-51233.416
-46680.789
-41888.638
-36958.039
-31904.016
-26816.527
-21734.814
-16788.919
-11976.479
-7463.9183
-3245.7664
577.97082
3990.6638
6931.4219
9448.063
11477.13
13118.328
14364.569
15305.128
15984.19
16481.294
16851.907
17157.805
17524.203
18028.221
18513.808
19184.236
20002.303
20897.466
21890.341
22938.012
23873.258
24784.552
25465.403
25978.125
26107.711
25953.606
25314.066
24341.773
22853.469
21042.686
18786.596
16294.9
13541.826
10654.739
7830.203
5156.1049
2541.5315
925.58624
1830205.1
1706374.6
1213877.6
1229417.9
849422.49
517612.7
338022.21
5504.2026
-239437.45
-565151.72
-790025.68
-1103458.8
-1417584.4
-1698711.5
-1821760.5
-533314.79
-377681.92
-163865.91
-336112.12
-270915.76
-280290.37
-268634.46
-276051.5
-260557.32
-264286.64
-261266.3
-246241.86
-250526.13
-234246.84
-240248.54
-228567.3
-224405.81
-212880.21
-209308.36
-201156.74
-193960.89
-185724.42
-182429.11
-174951.94
-166896.12
-161481.2
-151484.64
-147417.26
-137656.18
-132919.9
-126022.26
-120641.34
-114000.91
-109111.76
-103689.85
-98001.526
-93619.715
-89972.584
-85572.195
-81582.92
-77508.039
-73637.781
-69623.677
-65556.934
-61341.216
-57083.591
-52502.193
-47865.712
-42987.557
-38088.2
-33046.807
-28030.849
-23045.458
-18184.139
-13499.866
-9031.9699
-4936.079
-1121.7129
2241.4034
5196.3653
7733.4811
9820.557
11518.064
12855.087
13846.182
14636.467
15275.603
15570.988
15791.651
16455.087
16813.166
17354.718
18022.448
18816.676
19723.8
20706.562
21761.102
22743.856
23728.684
24530.146
25187.438
25497.733
25586.046
25153.063
24428.491
23163.038
21568.049
19470.261
17107.785
14403.477
11535.229
8614.1741
5678.1087
3095.6599
756.08762
-1410.4683
-2524.4661
-2354.849
-3116.2779
-1916.9487
-2092.7585
-199.70977
43.37098
985.61625
1821.8622
1386.882
3286.5837
2147.7095
2894.035
1018.5388
-569.50024
-1063.1784
-2304.2442
-4198.586
-6420.4988
-8721.2974
-11003.689
-13134.251
-15053.257
-16540.233
-17761.492
-18536.472
-18798.141
-18707.254
-18233.583
-17428.504
-16356.008
-15113.856
-13735.279
-12321.616
-10955.742
-9645.0175
-8462.8126
-7465.2062
-6589.5044
-5930.3084
-5376.81
-5079.0582
-4316.4803
-3783.1325
-3016.6533
-2033.9332
-762.28377
904.3525
3013.5946
5576.8609
8693.0227
12239.067
16344.466
20839.359
25772.063
30977.598
36501.372
42102.737
47859.412
53549.322
59209.702
64688.572
70019.391
75076.75
79988.589
84525.872
89065.726
93426.735
97330.417
101693.09
105335.89
108652.6
115303.3
118819.42
123111.25
130974.66
134709.91
141403.31
145329.44
156024.47
158189.5
170379.12
175455.17
184059.49
190873.85
195276.22
208375.48
212256.79
216956.14
228012.37
230298.25
240037.48
242767.55
252693.69
260867.55
259005.49
266327.49
274441.06
281341.48
282517.32
291803.61
293661.13
296790.68
296320.44
299450.06
317457.86
316145.43
298702.52
396445.23
965954.36
1033827.4
1084077.1
1125053.1
1145174
1175289.8
1173298.1
1188167.3
1174010.6
1150450.3
1168534.2
1098742.7
1067475.4
1105385
897444.42
-1510151.5
-1937587
-1914730.7
-2061343.1
-2008844
-1914378.8
-2191660.2
-2339046.9
-2193185.4
-2202065.4
-2122611.2
-2054493.8
-1938492.9
-1913406.6
-1768122.7
-591.5125
-1052.1686
-1895.1501
-2867.505
-3451.766
-4073.9404
-4285.0257
-4270.8704
-3990.4458
-3435.1738
-2555.2016
-1937.7771
-1019.3866
-370.89088
-409.14366
-190.94285
304.38955
832.70543
1797.9421
2536.9142
3268.4762
3747.5357
3995.7506
3982.6508
3668.8189
3096.4341
2280.2596
1470.7058
380.1507
187.61082
302302.51
307365.07
269514.31
265291.14
265956.67
264464.78
261660.13
259582.8
256470.99
251823.91
246551.71
244428.47
237682.23
232992.96
226693.33
223963.53
216571.47
212046.09
205279.69
200777.1
194367.92
189324.86
182493.72
176294.56
169950
164398.8
157507.88
151398.68
145249.19
139401.51
132902.2
127640.88
122788.29
117294.87
112510.46
107552.64
103141.01
98264.634
94231.83
90334.905
86257.06
82153.217
78230.318
74016.411
69890.647
65721.939
61310.492
57067.323
52508.664
48114.397
43542.736
39130.281
34670.628
30403.534
26249.305
22318.884
18621.489
15210.376
12107.811
9324.9292
6868.1416
4741.3097
2954.2633
1412.857
66.742438
-799.70758
-1759.3095
-2418.0652
-3203.293
-3654.8135
-4355.6684
-4903.9306
-5681.5213
-6457.5624
-7341.2395
-8206.4763
-9199.1832
-10128.602
-11099.553
-11849.895
-12729.775
-13259.885
-13709.241
-13972.878
-13840.109
-13336.866
-12598.271
-11589.815
-10310.588
-8829.1143
-7278.5159
-5493.696
-3962.7967
-1838.8451
-190.29323
275961.34
255232.86
221391.13
226874.97
223430.15
222227.99
219958.91
219214.63
216145.88
214243.58
210140.97
207232.96
202438.3
199566.55
194473.84
190241.45
185219.29
181510.91
176189.49
171646.16
166530
161000.91
156255.79
151203.61
146185.56
140534.99
135774.07
130567.25
125507.08
120410.49
115895.59
111156.49
106389.56
101913.15
97606.522
93533.542
89545.594
85748.858
82017.669
78284.117
74527.276
71179.807
67253.962
63784.172
60093.78
56530.175
52807.928
49226.847
45419.965
41818.645
38045.108
34458.281
30818.532
27359.68
23971.674
20763.3
17723.354
14907.378
12292.364
9938.6347
7811.6613
5957.7605
4334.6267
2906.8865
1729.3856
814.76733
-266.15474
-1077.6912
-1465.165
-2414.614
-3012.9542
-3634.9566
-4412.1148
-5060.3003
-5781.2178
-6476.8948
-7363.0887
-8011.4314
-8868.0431
-9474.4397
-10193.987
-10650.835
-10887.254
-11120.365
-11344.648
-10761.969
-10319.99
-9507.4061
-8622.6146
-7490.0108
-6260.8383
-4787.5915
-3638.212
-1373.2294
-32.030436
218434.23
215677.14
182022.38
190020.51
183151.68
184775.56
184119.04
183999.44
180957.27
179437.42
176095.59
174133.65
170082.55
167059.63
162857.97
160184.95
155534.68
152277.98
147640.8
144316
139797.74
136193.45
131929.25
127819.1
123147.31
119331.83
114928.29
110543.67
106483.74
102362.94
98218.393
94181.796
90471.481
86702.212
83161.809
79565.23
76256.177
72970.663
69813.017
66639.899
63355.457
60329.088
57361.561
54431.519
51450.725
48421.699
45364.177
42346.084
39266.875
36247.351
33178.387
30212.277
27216.119
24362.948
21544.687
18869.433
16319.258
13926.568
11689.056
9653.8341
7793.9002
6134.0389
4657.5496
3356.3966
2304.8537
1369.7412
503.45151
332.70838
-548.07243
-906.64251
-1545.2209
-2054.7254
-2577.4599
-3144.7439
-3785.9247
-4348.5337
-4985.0387
-5626.0871
-6217.7172
-6793.4779
-7344.3828
-7719.4279
-8065.0142
-8483.5535
-8885.6573
-8578.1467
-8452.6992
-7878.6208
-7369.0966
-6502.9947
-5598.7356
-4392.1857
-3270.2958
-1051.0241
195.20165
173860.23
173525.21
141476.69
151977.94
142846.88
146998.16
145285.36
145199.17
143046.28
143244.56
140308.25
139330.21
135514.07
134581.05
130596.9
128837.37
124726.92
123073.8
118982.07
116601.07
112758.18
109957.17
106343.06
103092.89
99973.483
96603.401
93327.135
90180.216
86937.828
83631.945
80652.31
77452.521
74478.83
71392.456
68746.845
65476.553
63099.315
59786.848
57110.728
54337.169
52074.939
49437.609
46908.111
44319.402
41859.432
39417.589
36980.085
34630.218
32235.214
29920.7
27594.284
25361.215
23115.567
20994.294
18881.403
16899.639
14969.182
13169.706
11449.906
9883.6072
8410.9891
7077.0572
5870.1927
4814.2226
3828.073
2983.5617
2321.037
1726.7068
1090.658
792.32501
205.18404
-331.49036
-961.22804
-1584.7197
-1927.4123
-2433.1895
-2895.0648
-3376.7623
-3878.5123
-4347.864
-4801.7416
-5194.8827
-5557.1765
-5711.9544
-5790.9247
-5800.1952
-5764.1411
-5439.9852
-5147.7566
-4570.0121
-4014.0206
-3009.1959
-2292.0842
-334.50573
444.82169
141930
129532.55
105358.36
114089.89
109616.34
111312.54
110939.8
110950.96
109198.22
108833.34
106933.78
105411.61
103589.81
101997.71
99273.147
97988.399
94786.794
93565.8
90228.838
88856.708
85909.998
84225.421
81213.495
79573.991
76696.779
74522.824
72026.546
69596.604
67145.541
64888.502
62457.266
60106.519
57855.489
55647.08
53357.486
51144.599
49809.02
48342.491
46331.933
45570.245
42921.347
41019.866
39123.87
37163.54
35264.492
33347.469
31418.298
29559.345
27706.554
25877.994
24079.588
22333.647
20579.587
18905.206
17241.513
15650.719
14098.573
12624.519
11214.547
9893.8018
8648.9042
7494.6822
6476.4806
5522.3297
4599.5571
4033.3955
3153.2324
2843.2793
2251.6051
1880.7215
1518.8861
1224.4305
611.0006
96.502067
-231.852
-590.09278
-923.58496
-1291.4462
-1672.5717
-2028.2331
-2434.3095
-2749.9307
-3107.5057
-3307.2051
-3661.1954
-3694.4516
-3803.4127
-3608.4199
-3581.5943
-3137.6415
-2886.7953
-2048.8945
-1678.8838
-20.37658
362.72565
90403.41
92088.361
70135.686
80229.359
73362.008
74629.595
74939.045
75187.894
73043.181
74576.438
71872.812
72471.533
69877.669
70051.915
67432.114
67382.945
64808.269
64882.829
61920.268
61850.419
59199.393
58451.41
56431.56
55423.59
53442.212
52374.762
50658.406
49330.839
47840.361
46271.092
44811.568
43230.683
41843.794
40143.316
38715.26
37315.556
36140.422
35273.161
33998.041
32782.006
31933.215
30344.665
28822.722
27436.063
26039.713
24671.296
23324.311
22073.496
20810.694
19624.962
18455.322
17346.338
16227.361
15185.991
14138.904
13129.976
12151.265
11203.946
10272.585
9395.693
8544.1118
7754.2309
6987.6177
6295.0939
5673.3911
5067.373
4563.6485
4168.1412
3747.9225
3418.4841
3123.1802
2816.4224
2335.4705
2413.4281
2135.8161
1969.8752
1704.7204
1448.4992
1119.0293
826.98405
437.59387
125.32726
-284.46313
-573.83061
-937.86509
-1095.2703
-1458.7938
-1503.871
-1740.6254
-1531.8601
-1614.6126
-971.42741
-1023.1863
362.85527
672.00925
52505.187
46942.327
38165.46
44494.912
38726.886
40320.513
40931.569
40123.083
39478.306
39232.042
38993.736
37894.848
37721.515
37370.708
36098.391
36381.71
34784.164
35019.683
33404.297
34085.43
32235.801
32954.735
31351.659
31580.116
30354.11
30294.485
29182.377
28910.999
27901.052
27440.534
26614.998
25955.164
25106.534
24336.904
23567.239
22641.92
21828.266
21090.48
20068.597
18806.842
18194.993
17392.014
16545.498
15929.681
15256.136
14657.897
14011.632
13530.5
12960.228
12513.895
12032.594
11608.632
11151.576
10753.151
10298.907
9874.8764
9428.244
8984.8639
8511.5057
8070.1402
7607.0773
7152.6373
6731.3361
6337.8716
5928.115
5626.9266
5314.9448
5039.1177
4822.0884
4645.5317
4502.7582
4355.8722
4399.4457
4269.1675
4147.3841
4054.5669
3901.3174
3742.9725
3509.7087
3281.3553
2952.3788
2664.9276
2250.0415
1951.8283
1483.6392
1228.0174
736.76559
612.46021
168.37994
191.2617
-180.11272
160.96088
-211.3927
694.39108
305.64412
3623.1163
8778.866
2036.8931
7538.065
4858.3976
6285.6625
5583.0835
6467.689
4056.6081
6507.614
4461.4561
5653.1579
4872.9418
5648.4724
4812.9017
6160.4398
4924.5918
6706.5665
5493.0142
6941.7935
6072.9117
7434.8738
6472.5373
7789.6975
7265.9284
8171.2498
8049.2919
8591.0148
8617.0423
8906.4668
8955.6094
8935.6688
9032.8289
8905.6762
8853.2054
8571.9847
8651.3538
8204.2678
8216.3088
7755.2699
7610.1832
7462.8533
7184.4477
7011.9297
6977.6456
6865.6461
6877.8452
6967.1332
7042.274
7184.084
7338.6261
7513.5177
7666.3282
7832.3876
7949.1828
8045.6564
8096.4797
8106.2843
8052.8013
7987.4756
7836.3723
7697.487
7509.0525
7309.9531
7125.904
6941.9039
6765.1569
6661.6289
6545.1644
6497.1976
6439.0225
6437.2746
6354.6949
6282.3061
6272.1014
6312.6877
6270.3961
6194.0657
6069.3013
5873.0082
5614.4004
5275.3944
4890.2226
4438.3837
3911.4621
3444.2006
2792.9112
2430.3676
1715.1323
1568.5943
882.38452
1042.3677
346.96812
758.82751
61.086669
-33707.368
-33728.116
-28913.664
-25991.808
-26892.316
-28261.451
-27106.486
-28736.86
-28080.535
-28749.541
-27763.173
-28100.642
-27149.257
-26401.944
-25891.893
-24753.291
-24398.337
-22528.593
-23006.504
-20354.945
-20740.366
-18525.835
-18419.785
-16151.539
-16040.592
-13887.656
-13665.772
-11834.092
-11361.993
-9963.363
-9405.0558
-8330.4788
-7704.4494
-6993.1932
-6449.0552
-5838.0766
-5520.2609
-5030.682
-4631.687
-4283.3946
-3964.4977
-3533.1073
-3219.149
-2677.1023
-2189.9633
-1636.0928
-1052.7434
-341.05514
314.22911
1067.1158
1816.7353
2585.2259
3304.0506
4039.9076
4694.4423
5304.1557
5843.9824
6312.3583
6685.4198
6997.3642
7229.3545
7384.3337
7492.602
7561.0538
7573.5966
7600.8317
7623.2851
7638.0714
7682.9006
7749.467
7839.2801
7925.1205
8097.8947
8219.4873
8409.7165
8600.9834
8623.8488
8659.8981
8567.3242
8436.8754
8190.7416
7901.6773
7463.2407
7031.93
6408.4366
5910.6787
5111.4717
4651.4086
3676.2315
3369.9056
2277.1804
2085.3077
1061.1539
827.15047
7.7436388
-78353.059
-76541.679
-62696.829
-62483.953
-64115.47
-63622.473
-64427.558
-63243.337
-65241.57
-63121.388
-63171.242
-62164.451
-60969.352
-59214.399
-58633.195
-55950.878
-55138.424
-52594.641
-51461.067
-48610.737
-47837.281
-43890.631
-42647.53
-39534.616
-38348.09
-35641.616
-34188.289
-31722.034
-30155.15
-28144.669
-26573.178
-24875.648
-23482.922
-22081.73
-20698.113
-19716.932
-18409.289
-17551.544
-16453.236
-15622.622
-14639.476
-13711.879
-12683.038
-11725.188
-10585.97
-9460.3832
-8233.3008
-6925.3394
-5620.8741
-4242.5136
-2847.5581
-1474.4759
-128.55684
1193.7342
2417.2026
3559.8393
4606.276
5529.8757
6313.2791
7016.1153
7551.2174
7999.4894
8353.4703
8601.8289
8799.9206
8972.6596
9100.083
9229.7502
9371.025
9542.4687
9702.8764
9921.4768
10155.578
10235.673
10485.382
10549.354
10723.895
10711.281
10771.739
10591.18
10490.684
10061.877
9722.4375
9105.7766
8498.0828
7766.7234
6922.2953
6163.505
5129.5816
4508.1647
3274.0358
2783.0246
1694.7632
945.79188
290.07911
-127672.2
-99336.323
-87934.25
-88042.084
-90759.572
-89842.797
-91276.528
-91314.091
-92178.19
-90926.708
-90149.891
-89246.247
-87213.279
-85381.184
-83774.221
-80488.284
-79644.047
-75632.227
-74560.891
-71178.72
-69752.298
-68223.055
-66727.378
-63550.967
-62063.723
-58004.471
-56291.611
-52418.896
-50478.605
-47200.497
-45118.266
-42466.377
-40455.41
-38122.236
-36289.467
-34288.839
-32634.891
-30932.76
-29351.41
-27785.872
-26282.588
-24665.932
-23152.314
-21501.819
-19819.816
-18058.713
-16277.386
-14364.043
-12466.775
-10481.423
-8510.5461
-6538.7543
-4614.57
-2731.6856
-963.3659
705.67847
2247.5578
3628.8734
4869.1618
5947.7738
6870.6576
7655.6079
8300.7574
8833.7187
9267.5164
9637.8946
9971.4962
10269.623
10575.39
10880.684
11201.392
11527.22
11911.264
12196.844
12423.91
12958.652
13089.746
13252.603
13303.702
13315.575
13140.825
12904.131
12477.279
11931.904
11258.084
10438.489
9537.4082
8549.0959
7450.7146
6412.1835
5155.1373
4133.1111
2643.7183
1426.554
-481.80061
-155057.82
-146007.75
-130093.11
-125252.9
-126825.35
-125164.74
-127450.93
-126711.53
-126061.09
-125398.93
-124157.41
-121498.58
-120152
-116753.06
-114608.27
-111426.36
-108507.32
-104894.02
-102536.38
-97979.874
-96058.18
-91242.779
-90175.254
-86640.831
-83633.996
-79498.377
-76253.988
-72082.349
-68810.227
-64957.389
-61952.111
-58490.807
-55686.52
-52828.709
-50118.278
-47763.983
-45295.751
-43133.175
-40913.365
-38887.971
-36732.537
-34733.728
-32584.007
-30440.623
-28172.534
-25832.654
-23422.452
-20878.247
-18301.967
-15670.577
-13006.588
-10360.962
-7764.6064
-5235.7957
-2836.1293
-578.72376
1504.0805
3393.6552
5058.7402
6525.1042
7773.2248
8802.4702
9671.7249
10354.483
10899.956
11351.658
11737.48
12055.905
12401.115
12745.226
13085.147
13493.945
13920.418
14347.103
14826.946
15298.277
15667.989
16086.984
16303.005
16418.353
16397.676
16174.023
15764.928
15145.733
14327.964
13321.217
12125.641
10841.002
9299.8391
8029.0258
6117.6127
5139.342
3063.1513
1907.256
-337.42382
-223242.27
-200623.12
-165493.96
-173357.56
-167759.45
-172035.88
-169553.63
-170266.72
-168041.63
-167089.37
-163760.52
-161982.32
-157733.63
-155033.51
-150630.26
-146810.6
-142791.52
-138158.07
-134478.82
-129439.67
-125869.41
-120518.16
-116551.6
-110499.43
-106951.95
-101243.8
-97938.806
-92281.331
-88674.688
-83699.536
-80024.219
-75595.597
-72301.922
-68453.522
-65297.764
-62029.722
-59024.86
-56165.551
-53432.8
-50710.8
-48106.24
-45430.793
-42736.581
-39984.614
-37161.904
-34235.966
-31257.861
-28130.625
-24993.878
-21778.127
-18539.449
-15326.522
-12169.651
-9094.3071
-6162.0116
-3400.5345
-826.904
1505.086
3602.4007
5455.9504
7048.0892
8410.1041
9562.9929
10508.192
11301.985
11946.789
12517.728
13016.969
13505.468
13982.447
14472.647
15002.726
15555.248
16122.282
16679.489
17330.183
17839.17
18271.662
18563.429
18730.344
18722.24
18506.272
18090.638
17421.022
16568.148
15464.28
14210.044
12756.762
11233.247
9624.1323
7815.133
6434.2711
4223.9299
2429.4878
106.51367
-254384.18
-236435.75
-193375.35
-205505.94
-204063.81
-205764.39
-203278.2
-204452.54
-201864.41
-198987.95
-197290.06
-192809.79
-189683.3
-185420.91
-180641.35
-176282.2
-171602.54
-165976.87
-161904.3
-155820.04
-150969.73
-145253.44
-140308.66
-134776.02
-129285.69
-123287
-117870.68
-112006.82
-107114.38
-101417.67
-96679.459
-91737.767
-87171.906
-82842.385
-78870.37
-75261.897
-71672.607
-68430.88
-65154.333
-62093.88
-58987.625
-55913.127
-52794.727
-49574.113
-46248.507
-42768.077
-39149.796
-35387.68
-31513.082
-27542.779
-23515.83
-19497.608
-15525.38
-11653.966
-7950.3827
-4460.5483
-1227.3215
1704.3782
4316.6511
6581.1452
8519.5771
10111.259
11421.553
12449.811
13276.306
13899.324
14471.097
14844.542
15238.407
15650.384
16119.275
16626.51
17266.205
17897.24
18660.88
19406.756
20119.334
20785.349
21365.128
21736.103
21945.336
21860.994
21517.354
20843.466
19873.851
18575.543
16993.595
15173.779
13134.175
10969.8
8712.9568
6595.1447
4158.0308
2338.3822
425.27344
-362784.81
-230414.51
-243754.09
-238005.48
-245778.16
-235809.65
-240165.92
-237713.36
-233867.01
-231344.66
-227203.64
-224153.69
-218287.47
-213811.95
-208086.8
-202977.73
-198371.8
-191222.39
-187017.54
-179359.61
-174172.37
-167123.51
-162458.92
-154811.5
-150091.17
-141706.13
-136647.12
-128926.4
-124320.92
-117362.68
-112425.66
-106434.59
-101423.17
-96233.865
-91418.973
-87649.01
-83505.322
-79799.724
-76057.033
-72524.157
-68949.895
-65445.024
-61818.82
-58089.757
-54254.509
-50214.791
-46055.933
-41717.257
-37235.84
-32666.573
-28020.127
-23387.556
-18803.624
-14339.415
-10074.21
-6052.6617
-2327.4364
1042.595
4034.9347
6645.5675
8845.6343
10667.221
12138.866
13295.891
14180.048
14897.4
15482.268
15948.214
16324.684
16858.212
17310.568
17973.236
18674.498
19459.502
20320.628
21224.789
22068.068
22908.65
23584.037
24097.857
24356.114
24330.43
23957.399
23238.217
22131.06
20675.051
18867.096
16792.915
14464.54
12010.657
9520.5349
7014.0658
4703.5231
2589.2841
342.25433
666825.66
681800.16
670248.18
689113.55
692940.24
697725.17
720842.76
705912.31
699637.56
698407.16
693556.67
669888.46
664333.44
690066.84
591024.09
614095.86
634282.87
608083.82
630028.08
633540.27
646283.56
628309.79
651377.79
644382.14
648811.91
634645.74
630200.91
627945.85
629222.3
539418.12
454761.25
515331.73
458866.51
480162.06
481566.8
476959.45
483282.56
479037.22
483117.44
475204.33
474439.9
475542.49
445274.94
485853.29
445039.21
394203.07
400849.7
400572.26
396762.04
409629.35
406035.79
412865.41
411603.2
408272.37
409393.14
408600.37
393303.85
394045.1
417199.77
298699.74
281290.59
316249.51
279009.19
301820.58
291998.54
303478.98
298965.23
299371.55
299886.27
299548.96
294221.56
293909.96
289933
296714.03
264650.01
211581.16
221207.76
206722.78
213567.45
214640.97
215478.8
214282.69
214493.82
216107.18
213992.76
208006.83
215934.01
201032.85
214371.22
199997.08
119026.89
118791.16
120675.35
115263.98
120353.89
121007.4
119079.18
119537.86
117261.81
118462.76
116163.6
110386.15
117208.85
111819.19
108124.72
28860.274
29477.028
20576.344
27731.363
22642.09
24784.226
22500.283
23626.757
20141.858
26915.355
12591.51
25600.397
29766.827
8848.4878
53231.478
-53400.323
-65419.506
-55564.274
-64555.149
-62169.659
-63529.292
-64880.145
-64087.983
-66825.169
-60863.572
-71888.114
-59018.657
-60229.239
-79587.72
-3827.1352
-129028.26
-162611.73
-146584.92
-153148.14
-155177
-157660.94
-160871.2
-159749.75
-166367.87
-155071.94
-178221.67
-151294.38
-152796.2
-184138.1
-90766.369
-223089.58
-280443.08
-235759.22
-265730.51
-253783.43
-262818.61
-260205.02
-261361.48
-263277.8
-252128.59
-259779.87
-251986.21
-237379.98
-266651.89
-155693.31
-338025.17
-328688.33
-335855.85
-329462.48
-346215.39
-346364.26
-351025.78
-354529.06
-356841.48
-350828.97
-370367.69
-325059.94
-342952.36
-374679.94
-245909.32
-389706.51
-445991.51
-393683.58
-417667.92
-400206.87
-415950.53
-412379.25
-412010.72
-408753.16
-405573.47
-409755.28
-410235.13
-375319.71
-446624.42
-222406.63
-507629.04
-621049.4
-551657.26
-597384.1
-616181.76
-609438.15
-614998.92
-645334.4
-631087.62
-643555.79
-609575.81
-596326.54
-607332.85
-587052.31
-529166.2
-543547.01
-478931.24
-433281.52
-443305.19
-463795.29
-497491.4
-479734.74
-464189.05
-438329.46
-438589.64
-445799.45
-447376.99
-447560.96
-494723.94
-432163.45
-569429.34
-531577.28
-643015.76
-673086.59
-697585.01
-761225.23
-724922.35
-675798.74
-771553.92
-756281.43
-732783.91
-699490.7
-670454.65
-634683.31
-529590.48
-374057.36
-382837.35
-433767.33
-447883.44
-463997.75
-480723.73
-493115.31
-509515.48
-526106.04
-498534.49
-488470.1
-457952.64
-460576.84
-449908.59
-446469.91
-290379.45
-341186.7
-333563.57
-367730.89
-392461.71
-380662.95
-401425.06
-396061.54
-384686.36
-402144.16
-384934.67
-390920.32
-373083.92
-331243.05
-341609.86
-280840.37
-323083.54
-329239.36
-337821.6
-348633.31
-356742.01
-360081.83
-363969.11
-362937.43
-353869.83
-353456.49
-343358.15
-328666.48
-321386.26
-299823.97
-296447.05
-329752.02
-321005.27
-347950.88
-351569.67
-359487.45
-367979.45
-366518.76
-369389.35
-367784.14
-357323.19
-349838.23
-333145.11
-318087.37
-312630.16
-280276.33
-292552.31
-300215.16
-312370.43
-318143.67
-327566.12
-327030.17
-328812.69
-328809.92
-323230.12
-320819.63
-313756.54
-302510.91
-295738.24
-278822.82
-273275.77
-295271.32
-295428.73
-308623.16
-309866.93
-317401.42
-319719.83
-320903.47
-320772.74
-317073.26
-310622.31
-306094.57
-297735.45
-285362.64
-287334.3
-271540.47
-276089.48
-283818.82
-286857.04
-296751.55
-297548.86
-301145.89
-302435.19
-301137.64
-299161.78
-295572.05
-290001.08
-283876.33
-276481.49
-269496.75
-261484.61
-273083.39
-274113.72
-282244.34
-281763.53
-289150.06
-286737.42
-289532.72
-288213.41
-284803.34
-282450.34
-277960.31
-273508.76
-269686.71
-264386.23
-258545.84
-259833.08
-264037.3
-264453.89
-269144.73
-269531.75
-272221.66
-272027.43
-270835.26
-271654.29
-267860.26
-266594.07
-262964.15
-259554.05
-257769.79
-249535.29
-255550.55
-255866.84
-260746.44
-261591.03
-265556.67
-264296.17
-266999.72
-266389.6
-264512.21
-264482.95
-262521.11
-259176.91
-257971.15
-256243.4
-247155.62
-245710.17
-248320.16
-248396.87
-250185.79
-249795.61
-252061.83
-252181.95
-252686.6
-252396.53
-251720.1
-250295.08
-249583.45
-248190.42
-247825.91
-240532.28
-240880.83
-240680.8
-242571.82
-242977.7
-245680.3
-245049.39
-246617.34
-246423.63
-246560.48
-245107.64
-245891.3
-243256.58
-243965.84
-243050.7
-234656.3
-233279.34
-235449.7
-234366.76
-235902.73
-235316.41
-236036.47
-236430.26
-236947.22
-236361.35
-236844.92
-236752.47
-236363.29
-236423.48
-237290.41
-228989.78
-228103.29
-228786.38
-228767.85
-229717.15
-229475.03
-230405.46
-230793.7
-231314.15
-232003.29
-231534.9
-232314.06
-230053.77
-232419.77
-232080.98
-222789.77
-221874.76
-223614.4
-221548.69
-222671.79
-221736.15
-224147.7
-221890.43
-222223.61
-222105.23
-221965.46
-222724.14
-220924.35
-222128.7
-222002.3
-217966.57
-216224.92
-217230
-215514
-217317.6
-216990.34
-216831.53
-217766.21
-217708.75
-218689.87
-218295.95
-219676.09
-219421.42
-219412.75
-221513.46
-211951.09
-210807.08
-211133.22
-209970.99
-210616.44
-210040.03
-210697.24
-209850.7
-210112.12
-210032.47
-209865.58
-210224.8
-210854.53
-209839.72
-211013.86
-205235.32
-204604.12
-205270.92
-204694.89
-204848.03
-204048.56
-203713.26
-204725.62
-204215.53
-205311.27
-203989.61
-206636.67
-205323.3
-208195.45
-207614.93
-199364.45
-198506.79
-198611.08
-197606.11
-198216.91
-197509.26
-198650.8
-197502.71
-198219.63
-197601.74
-197536.07
-198659.55
-197556.6
-199015.88
-198572.98
-193451.61
-192225.8
-192753.57
-191310.97
-191547.54
-190670.07
-191271.12
-191779.82
-190750.02
-192006.21
-191629.63
-193488.71
-192666.18
-194041.07
-194321.89
-184822.26
-185703.99
-185027.12
-184829.48
-184955.18
-184228.03
-184693.02
-183945.59
-184518
-184678.88
-184564.94
-185568
-184615.41
-184768.28
-186536.74
-180098.23
-178332.15
-178565.47
-177869.72
-177818.34
-177527.15
-177750.3
-177336.59
-177144.08
-178010.92
-177457.95
-178642.52
-177406.04
-179952.33
-179441.33
-171406.93
-171299.28
-170914.46
-170799.83
-170525.55
-169944.29
-170556.5
-169721.29
-170331.72
-170406.06
-169757.48
-171682.69
-170830.12
-171632.71
-171939.86
-165234.52
-164108.75
-164064.46
-163024.03
-163206.46
-162560.49
-163005.25
-162718.37
-162583.05
-163330.29
-162130.78
-164029.92
-163088.72
-164626.8
-164921.16
-157677.95
-155919.43
-156489.79
-155261.24
-155620.5
-155068.53
-155397.78
-154884.19
-155230.87
-155578.53
-156168.08
-156693.87
-155776.06
-157631.88
-157365.92
-150391.1
-148530.38
-149054.47
-148085.59
-148358.71
-148080.17
-148034.72
-147887.73
-147807.67
-148128.45
-147874.25
-149475.64
-148167.86
-150045.06
-150759.34
-143237.15
-141264.19
-141307.33
-140761.51
-140953.04
-140469.42
-140523.2
-140194.65
-140757.02
-140719.25
-141016.04
-141680.34
-141173.56
-143438.1
-142862.55
-135809.44
-134524.7
-134913.57
-133570.47
-133865.29
-133339
-133457.28
-133329.66
-133331.96
-133871.04
-133585.87
-134816.32
-134267.19
-135892.11
-136664.77
-129566.33
-127180.95
-127587.57
-126588.71
-126980.24
-126269.68
-126451.98
-126274.83
-126512.42
-126742.87
-126749.15
-128038.15
-127245.6
-129675.54
-129566.22
-122854.35
-121034.28
-121193.41
-120284.19
-120379.56
-120257.93
-120253.19
-119894.37
-119863.99
-120458.45
-120320.2
-121630.08
-120867.58
-122897.08
-122967.56
-116956.42
-114604.01
-115106.3
-113962.15
-114066.04
-113945.91
-113644.92
-113706
-113595.57
-114118.52
-114046.88
-115367.22
-114787.33
-117106.22
-116985.56
-111117.75
-108990.06
-109248.47
-108296.61
-108594.5
-108082.02
-108254.78
-107990.95
-108251.12
-108582.7
-108597.63
-109746.37
-109324.43
-111354.1
-111149.03
-105684.51
-103568.13
-103952.66
-103053
-103067.23
-102788.42
-102846.69
-102768.7
-102873.11
-103281.27
-103150.78
-104509.64
-104015.71
-106188.06
-106065.37
-100442.75
-98784.122
-98992.377
-98045.175
-98371.172
-98009.592
-98116.189
-98068.226
-98170.534
-98499.975
-98540.148
-99539.403
-99351.703
-100790.45
-100914.58
-95679.836
-94543.644
-94464.136
-94120.09
-93808.936
-93729.313
-93662.936
-93628.791
-93727.093
-94045.684
-94101.663
-95188.463
-94967.193
-96512.349
-96891.7
-91915.668
-90109.371
-90310.607
-89708.783
-89927.526
-89544.029
-89858.196
-89622.289
-89950.69
-90093.543
-90039.509
-91229.236
-90731.825
-92320.755
-92296.344
-87659.495
-86353.758
-86519.433
-86002.577
-86016.383
-85973.002
-85876.593
-86026.924
-86063.488
-86243.759
-86316.692
-87277.499
-86974.591
-88250.785
-88206.269
-84181.284
-82472.52
-83018.963
-82247.951
-82639.276
-82273.984
-82548.682
-82438.192
-82502.735
-82874.831
-82752.64
-83775.052
-83322.947
-84384.704
-84389.286
-80322.471
-79104.102
-79529.898
-78993.197
-79234.913
-79097.661
-79243.1
-79113.012
-79327.569
-79527.996
-79468.284
-80282.796
-79859.887
-80732.512
-80804.831
-76865.226
-75583.683
-76172.127
-75530.912
-75932.952
-75668.227
-75851.013
-75806.68
-75913.994
-76172.43
-76020.788
-76809.796
-76386.776
-77055.068
-77093.226
-73209.007
-72221.418
-72730.635
-72273.744
-72623.87
-72413.042
-72655.658
-72489.487
-72665.927
-72805.088
-72695.074
-73398.308
-72946.056
-73375.515
-73472.422
-69630.301
-68597.539
-69220.331
-68718.184
-69100.353
-68944.388
-69092.56
-68998.096
-69121.25
-69284.043
-69155.227
-69795.601
-69293.515
-69606.18
-69731.375
-65745.305
-64923.591
-65522.014
-65082.665
-65558.778
-65335.446
-65533.147
-65360.962
-65522.851
-65607.677