/*--------------------------------*- C++ -*----------------------------------*\
  =========                 |
  \\      /  F ield         | OpenFOAM: The Open Source CFD Toolbox
   \\    /   O peration     | Website:  https://openfoam.org
    \\  /    A nd           | Version:  6
     \\/     M anipulation  |
\*---------------------------------------------------------------------------*/
FoamFile
{
    version     2.0;
    format      ascii;
    class       pointScalarField;
    location    "1.23";
    object      p;
}
// * * * * * * * * * * * * * * * * * * * * * * * * * * * * * * * * * * * * * //

dimensions      [1 -1 -2 0 0 0 0];

internalField   nonuniform List<scalar> 
28033
(
-1702606.4
2476097.8
192.78954
-168.94195
-3259185.1
3356274.5
65.135019
40.50491
-1454616.5
-1254849.3
-1049210.6
-839417.67
-581015.76
-369968.68
-154092.54
67442.404
288168.23
476823.97
703911.82
817266.18
1044152.4
1301387.9
1233660.8
179.3125
527.07591
817.65575
829.2109
875.05793
556.72269
444.13446
70.810866
-149.30462
-545.47525
-698.95029
-755.31061
-761.71138
-614.66181
-418.84928
-370869.27
-427312.19
-371374.24
-411921.19
-395035.21
-408753.5
-405351.84
-405408.06
-401074.53
-400184.3
-392247.04
-386714.24
-380540.33
-373941.22
-365645.54
-356803.93
-349411.48
-340144.13
-330992.99
-321352.11
-313097.24
-302193.75
-293653.47
-283664.13
-273874.7
-264717.78
-255155.96
-245866.18
-236525.54
-227639.59
-218915.93
-209810.06
-201565.92
-193378.87
-184752.18
-177420.22
-169538.88
-162999.14
-154943.86
-148324.55
-140716.06
-134138.39
-127141.8
-120690.85
-113916.6
-107522.26
-100886.68
-94580.791
-87996.689
-81771.16
-75308.445
-69134.115
-62888.51
-56840.636
-50866.791
-45105.515
-39502.286
-34149.602
-29058.764
-24281.445
-19806.101
-15717.158
-11976.222
-8673.6891
-5682.3207
-3207.0905
-1252.1921
649.05567
2111.6578
3163.1919
3979.4239
4566.1272
4853.5286
4967.2454
5001.5201
4871.5818
4747.7816
4533.6942
4407.6643
4230.4347
4112.0018
4033.7374
3981.074
3974.5938
3912.1406
3885.9611
3815.7432
3674.3556
3559.307
3218.3897
2946.4655
2518.4513
1815.6822
1356.0066
476.57042
499857.77
424054.91
451950.12
409330.28
446952.38
438555.93
444905.14
438100.74
441359.05
432384.2
430420.83
422170.08
415173.76
408261.52
398928.47
390767.96
381127.55
371689.39
362568.95
352591.04
342544.05
333831.68
323016.75
314444.61
304831.28
295007.66
286726.93
276508.75
268605.58
258341.06
250009.83
240753.54
232305.57
223749.65
215416.6
207661.01
198551.7
191141.24
182642.92
175378.43
167463.72
160246.26
152779.4
145818.29
138695.32
131982.87
125185.23
118668.91
112150.58
105786.24
99458.73
93227.448
87024.462
80903.946
74808.171
68808.273
62856.248
57025.249
51303.575
45760.369
40388.661
35283.432
30426.521
25913.052
21721.106
17967.221
14568.793
11634.043
9152.0149
7193.6722
5327.5652
4134.5535
3199.7405
2535.8354
2154.2008
1955.7855
1870.8871
1908.0275
1917.2255
1957.238
1890.0936
1796.9578
1556.3662
1283.0606
854.68454
430.79294
-94.649727
-577.55469
-1056.9157
-1440.9541
-1726.8403
-1823.9816
-1743.8127
-1337.33
-761.70514
-2573738.5
-2454618.9
-1676319
-1684883.3
-1104801.1
-616637.13
-315535.17
136036.11
510275.74
917937.63
1242818.2
1622510
2024902.8
2269801
2438285.8
692634.76
577656.89
299772.61
518559.85
436468.84
462927.7
444979.12
462190.88
441905.21
454506.38
448182.32
435106.11
436198.33
419842.93
418884.48
404851.46
395772.25
385470.49
374531.64
366758.21
354432.84
342991.64
334931.03
324964.16
314510.27
305435.05
291794.93
285182.36
271234.12
263830.82
255121.35
245170.54
236384.01
227361.13
219166.61
207798.52
201882.59
193814.71
185991.52
178173.77
170766.25
163311.96
156108.28
148845.01
141835.99
134718.91
127763.51
120701.98
113748.34
106784.02
99890.352
93003.716
86226.977
79501.762
72905.297
66438.157
60153.421
54068.709
48231.761
42683.079
37424.952
32540.722
27996.004
23859.688
20104.675
16762.989
13868.569
10711.111
10470.368
7078.6781
5982.4768
4776.8928
3784.2968
3069.8507
2518.6239
2076.7218
1729.6068
1462.7028
1190.2462
940.26409
647.83063
376.17238
30.884229
-249.36573
-603.50874
-861.35161
-1164.1689
-1332.5296
-1499.0151
-1524.0693
-1484.4937
-1322.2944
-1043.9525
-714.68899
-390.90584
-478.94831
-653.55964
-778.63571
-1053.3529
-688.19641
-807.51124
-272.7702
-232.05674
254.76841
737.416
554.00119
735.68084
315.51196
585.61289
95.877735
648.60438
1865.3896
2426.623
2912.0822
3199.3317
3329.9353
3326.2992
3245.5051
3117.6966
2947.2417
2849.6605
2843.497
2861.1132
2993.0902
3253.186
3560.6914
3980.3641
4460.4591
4919.8988
5381.0115
5742.0302
5956.9367
5953.7918
5731.299
5131.4539
4064.7358
2681.3166
1619.9518
-1192.885
-3594.4648
-6706.9476
-10281.022
-14198.61
-18533.607
-23191.15
-28139.593
-33366.779
-38770.829
-44368.357
-50100.129
-55931.758
-61850.905
-67848.229
-73897.572
-80004.456
-86204.342
-92422.412
-98784.982
-105216.35
-111732.34
-118434.43
-125172.77
-132249.42
-139303.91
-146301.55
-154021.64
-161119.93
-166631.91
-178420.62
-184941.78
-190771.27
-203103.03
-209151.29
-217763.87
-222346.92
-237015.79
-239497.72
-254210.22
-261112.57
-270017.74
-278916.07
-283986.65
-300377.22
-306335.4
-310899.7
-328121.98
-329390.97
-346283.11
-347738.77
-363156.67
-375249.62
-377158.66
-380950.58
-398316.34
-400719.58
-401507.52
-415548.25
-414643.96
-414910.92
-402425.62
-398998.29
-438396.21
-410701.43
-357934.5
-499114.57
-1119816.6
-1278529.5
-1353812.3
-1446773.9
-1472571.4
-1536265
-1528614.6
-1561441.2
-1533529.1
-1483198.5
-1524293.9
-1404595.9
-1332764.1
-1407896.9
-1003311.7
2141730.9
2649769.2
2582359.3
2757603.1
2648665.9
2534312.2
2893260
3047873.6
2876726.9
2885733.6
2791590.3
2720288
2576851.2
2566733.4
2376986.2
-3.4588128
60.140098
234.937
354.65967
486.94304
617.80689
757.21229
863.16541
993.17049
1028.322
1019.2319
1044.0003
882.48914
631.20328
370.19884
-265.89255
-698.18991
-1004.7804
-1181.6865
-1177.8914
-1117.2659
-967.04019
-799.49263
-627.84257
-449.38479
-277.2304
-165.3544
-53.559996
94.91944
47.642906
-369187.74
-374978.07
-332765.61
-341225.88
-349680.15
-352889.81
-357606.9
-358790.72
-359370.68
-356213.99
-352742.04
-350817.72
-344282.42
-338266.55
-331254.91
-326265.47
-317836.24
-310541.89
-302131.86
-294518.5
-286467.36
-277923.3
-269435.32
-260540.86
-251685.24
-243589.76
-234148.87
-225591.44
-216997.17
-208662.15
-199498.37
-191679.25
-184512.93
-176240.08
-169136.38
-161149.83
-154329.61
-146738.86
-140151.04
-133922.22
-127448.57
-120998.7
-114897.18
-108502.49
-102406.44
-96352.337
-90220.054
-84307.011
-78235.447
-72392.151
-66468.23
-60726.882
-55017.149
-49487.39
-44087.256
-38900.119
-33913.77
-29196.789
-24762.497
-20617.839
-16804.724
-13336.176
-10231.312
-7449.3493
-5059.0656
-3018.0861
-984.33985
283.94348
1446.2254
2165.0009
2942.2729
3312.5016
3683.3877
3941.2442
4116.9703
4192.0568
4260.6625
4282.5944
4295.1708
4239.2483
4251.2882
4206.4417
4154.6588
4012.2138
3866.3978
3674.5131
3492.7554
3254.7825
2946.609
2635.623
2276.3292
1896.0788
1472.1816
1189.4029
748.64686
-346534.75
-311027.79
-269560.53
-289082.89
-289510.96
-295331
-298209.19
-302567.56
-302419.26
-303698.23
-301517.66
-299901.46
-295675.12
-292661.03
-287308.9
-281877.16
-275866.97
-270078.8
-263381.46
-256435.7
-249255.2
-241317.92
-234458.07
-226593.99
-219108.72
-211000.82
-203688.47
-195857.59
-188193.79
-180546.38
-173467.23
-166228.01
-158874.87
-151928.92
-145160.95
-138684.89
-132333.24
-126264.68
-120310.67
-114414.53
-108533.08
-103293.2
-97290.874
-91914.96
-86370.675
-81073.361
-75650.272
-70414.423
-65052.346
-59933.241
-54705.969
-49716.266
-44755.729
-40000.069
-35391.857
-31012.408
-26850.718
-22974.018
-19353.043
-16041.648
-13025.35
-10344.885
-7949.4027
-5818.1882
-4156.3789
-2409.829
-1494.3229
37.561896
563.1688
1559.9721
2209.9137
2710.8747
3204.5274
3534.1397
3774.5223
3912.1212
4122.2856
4115.355
4194.5511
4154.0343
4128.8746
4053.9404
3823.1185
3697.4549
3360.172
3198.9116
2927.7355
2613.5311
2331.2711
1960.9193
1700.1706
1372.0574
1063.9674
1062.566
695.43224
-283895.55
-270632.37
-220647.21
-239525.15
-232840.57
-240686.05
-246373.83
-250252.51
-250033.02
-252216.43
-251278.71
-250385.21
-247709.01
-245070.28
-241076.27
-237504.37
-232543.82
-227554.86
-222141.3
-216312.73
-210648.57
-204578.82
-198288.32
-191796.36
-184999.24
-178591.2
-171767.86
-164994.44
-158461.65
-151890.25
-145330.26
-138851.87
-132823.59
-126754.65
-121100
-115263.74
-110084.82
-104982.66
-99818.249
-94780.577
-89684.588
-84791.764
-80169.798
-75535.583
-70916.459
-66283.847
-61656.562
-57102.924
-52550.832
-48101.693
-43652.756
-39387.212
-35158.279
-31142.557
-27252.871
-23597.49
-20146.683
-16951.996
-14001.515
-11332.148
-8930.5681
-6803.9176
-4914.2933
-3311.3945
-1954.8136
-843.67342
17.179715
294.93521
1157.9665
1502.631
1980.6492
2281.2813
2538.6837
2805.3603
3053.9855
3247.0337
3408.0807
3566.8492
3648.0653
3705.5595
3724.4692
3652.5702
3581.6217
3334.2411
3036.4141
2770.1351
2449.7656
2185.5027
1844.2079
1570.0022
1291.2459
1076.1778
832.17115
938.67953
662.48304
-215589.98
-215786.38
-168011.65
-191219.39
-177212.75
-189234.89
-191497.61
-194233.32
-195446.16
-198861.46
-197957.39
-198195.72
-196231.62
-195343.67
-191946.34
-189476.2
-185449.54
-182217.13
-177733.86
-173350.85
-168679.45
-163480.63
-158492.76
-152996.09
-147900.08
-142208.24
-136909.53
-131323.21
-125882.88
-120373.77
-115131.34
-109901.14
-104835.47
-99836.705
-95331.784
-90275.824
-86058.343
-80782.229
-76524.747
-72461.264
-68832.756
-64977.721
-61141.074
-57299.317
-53602.692
-49872.073
-46210.347
-42575.735
-38924.709
-35358.326
-31822.501
-28397.796
-25059.708
-21883.694
-18844.541
-16027.316
-13387.725
-10991.674
-8821.8116
-6902.2262
-5213.2862
-3750.0157
-2516.2689
-1475.4096
-631.1402
132.45343
543.14224
878.33977
1560.3978
1767.8028
2110.2409
2504.5726
2846.1298
3139.6258
3278.9823
3439.7021
3529.7325
3603.7459
3631.2161
3615.6757
3541.5914
3436.5192
3235.9705
3043.2362
2855.76
2510.3794
2196.6062
1850.7908
1525.7939
1199.6544
965.55313
719.90671
618.6372
735.05174
559.06699
-177449.13
-155541.64
-120952.38
-135461.88
-129820.59
-135866.18
-139204.94
-141753.77
-142586.52
-145075.96
-144828.11
-144786.28
-144279.96
-143249.34
-141061.43
-139479.85
-136725.97
-134078.73
-130778.1
-127636.78
-124054.84
-120347.93
-116422.4
-112540.82
-108329.84
-104096.1
-99849.665
-95496.946
-91310.318
-87131.497
-82987.11
-78995.788
-75064.256
-71434.318
-67832.813
-64305.148
-62339.862
-60623.21
-57450.199
-55861.718
-52545.666
-49580.776
-46727.69
-43813.091
-40896.345
-37925.539
-35000.659
-32033.203
-29107.769
-26237.765
-23382.241
-20644.071
-17976.85
-15448.274
-13060.197
-10854.327
-8805.8409
-6980.6921
-5345.845
-3919.404
-2684.5771
-1641.1435
-788.48593
-86.331489
554.61722
883.27956
1427.052
1504.6896
1881.2806
2064.3777
2198.0071
2401.895
2803.0513
3118.329
3188.9501
3295.4429
3351.7196
3400.9225
3403.9258
3371.6874
3295.7489
3162.7572
2983.9463
2777.3867
2469.5254
2181.6362
1828.9404
1553.54
1208.0363
940.97075
711.8873
521.36216
437.56022
607.69951
406.9891
-101638.23
-103267.64
-73030.214
-88845.798
-79702.982
-82505.985
-87000.725
-87820.698
-87973.106
-91387.065
-90138.445
-91408.822
-90454.35
-90517.695
-88702.546
-88302.7
-86075.151
-84806.39
-82492.988
-80509.176
-77895.47
-75410.34
-72796.96
-69942.101
-67137.176
-64145.722
-61351.539
-58372.958
-55492.888
-52557.608
-49821.471
-47045.087
-44477.276
-41988.898
-39463.87
-37513.593
-36001.151
-35035.182
-33402.445
-32184.753
-31104.168
-29214.192
-27247.821
-25371.499
-23486.823
-21530.809
-19573.632
-17634.404
-15662.612
-13729.325
-11807.088
-9958.5605
-8155.5374
-6482.7602
-4894.2936
-3470.2339
-2176.26
-1063.8908
-95.257712
685.97744
1327.8965
1793.0058
2160.8117
2390.8153
2519.5138
2616.9119
2623.8755
2576.8857
2560.5039
2542.9648
2562.431
2634.9082
2870.9019
2898.9728
2866.0248
2883.6919
2970.5904
2993.6363
3028.2334
2992.663
2947.2406
2832.4717
2652.0609
2457.7497
2164.1193
1918.6635
1555.5179
1282.2561
907.54903
664.94046
398.57257
227.53052
162.8739
271.35476
295.70335
-43882.135
-37053.784
-24261.321
-35630.226
-26254.845
-30734.48
-32931.829
-32941.598
-33545.354
-34919.905
-35323.144
-35105.505
-35767.958
-35598.576
-35113.32
-35084.565
-34113.983
-33714.282
-32521.509
-31841.777
-30482.025
-29545.022
-28033.739
-26711.699
-25148.852
-23688.838
-22078.568
-20482.786
-18888.083
-17497
-15976.543
-14690.648
-13419.949
-12245.183
-11228.45
-10390.443
-9369.4732
-8997.8063
-7731.8894
-6663.6597
-6101.3138
-5555.9321
-4721.2577
-4169.5893
-3435.0143
-2685.2788
-1862.7463
-1068.7673
-167.55954
669.88178
1555.8746
2377.5077
3178.9387
3894.2613
4547.9028
5078.3817
5519.0681
5827.901
6031.2166
6105.1559
6077.8797
5949.5554
5749.8254
5462.9172
5174.2261
4815.9194
4493.212
4183.4389
3902.6528
3627.6309
3431.9333
3267.2924
3065.192
3048.2655
3028.6437
3021.1575
3050.6228
3052.2534
3038.502
2995.2264
2913.3581
2761.5302
2587.9166
2349.8017
2052.2316
1753.9702
1362.5801
1073.1097
677.40708
469.8039
146.93383
56.009855
-65.535435
111.60114
9.1826933
27425.462
19873.325
25617.626
21191.331
22622.304
22475.843
21368.085
20784.427
22563.882
19386.615
20793.497
19615.822
19217.651
18436.026
18617.284
17465.143
17693.021
16911.58
17092.199
16559.725
16800.199
16524.938
16953.868
16944.246
17105.931
17287.332
17457.007
17650.721
17704.289
17890.84
17947.16
17918.665
17908.885
17687.177
17471.985
17254.21
16670.689
16259.027
15835.779
15533.066
15040.205
14444.539
14143.539
13726.081
13373.698
13133.196
12869.425
12685.246
12553.129
12432.736
12347.845
12256.066
12159.075
12031.429
11859.482
11628.83
11343.264
10970.824
10543.076
10025.886
9467.2509
8831.1311
8179.6843
7488.1033
6793.0135
6130.8295
5486.8397
4871.2666
4350.9191
3887.5198
3522.5765
3220.9104
3063.1726
2938.3668
2804.2137
2733.8265
2748.5529
2734.8207
2723.6842
2711.1871
2627.4726
2553.2251
2362.7291
2201.948
1895.9103
1656.6549
1281.6185
998.08414
596.82508
344.77631
27.87698
-116.04721
-170.71052
-159.76987
-183.39117
81495.628
80207.963
73979.38
71882.856
73743.666
76389.01
74321.963
77277.28
75989.525
76531.523
75341.419
75573.958
73522.243
73064.733
71630.029
70133.49
69017.223
67348.231
66364.319
64588.649
63797.417
62406.675
61319.031
59696.802
58683.719
57305.687
56282.892
54870.121
53810.45
52472.52
51204.009
49815.009
48457.318
46876.531
45531.551
43735.582
42382.553
40579.523
39051.905
37329.035
35847.695
34222.797
32850.419
31362.2
30057.43
28811.094
27667.767
26562.902
25586.148
24613.618
23720.063
22835.913
21982.136
21104.246
20225.893
19308.613
18355.302
17352.177
16311.611
15220.694
14100.659
12956.479
11803.983
10656.082
9560.4466
8492.0868
7481.0864
6573.5703
5761.6895
5031.1687
4435.0922
3940.5827
3539.3437
3192.73
3010.9127
2913.0112
2802.9203
2757.2048
2713.7091
2651.9857
2567.1347
2430.5011
2259.7314
2022.8493
1734.7168
1436.4103
1049.3004
750.87733
327.74246
131.42051
-230.8031
-309.05968
-443.07413
-412.77495
-380.95772
147863.65
146122.7
124683.33
129367.98
130350.43
131890.5
133380.09
132669.89
135218.16
133134.1
133023.46
131750.22
129860.93
127865.43
125970.63
123113.68
120969.71
118125.63
115628.21
112782.22
110493.7
106666
103898.27
101116.51
98716.439
96162.679
93570.511
91044.75
88476.087
85872.506
83323.676
80678.198
78085.492
75391.125
72674.312
70014.743
67253.148
64553.045
61876.362
59258.067
56676.175
54103.15
51658.083
49287.747
46968.375
44784.866
42645.844
40601.871
38655.839
36753.766
34923.387
33145.496
31392.386
29664.304
27961.228
26250.66
24547.165
22838.853
21138.003
19425.518
17746.675
16074.316
14448.942
12886.03
11386.513
9970.5589
8662.4582
7488.5584
6430.4026
5505.9244
4750.8877
4108.4177
3606.7666
3216.8765
2981.3957
3014.3281
2853.8098
2839.8632
2696.1962
2697.1548
2509.6199
2470.1243
2191.2413
2041.3575
1683.1897
1421.6427
1006.8111
704.63142
286.21403
48.740533
-297.95971
-405.88049
-561.25886
-537.44545
-404.69855
214135.38
179442.75
165627.56
170363.94
174031.95
176364.74
177370.34
179609.44
180499.76
179478.03
178244.59
177336.49
174135.48
171805.14
168780.31
165119.33
162144.62
157999.29
154839.8
151170.35
148059.96
147528.81
145523.08
142023.34
138567.17
134342.26
130832.26
126682.18
122896.68
118992.57
115175.92
111280.13
107547.07
103529.9
99799.501
95768.683
92104.076
88174.796
84531.071
80758.066
77220.447
73617.141
70267.956
66876.013
63702.77
60579.104
57620.496
54724.417
51977.576
49281.463
46697.439
44167.321
41698.284
39271.944
36887.291
34514.813
32170.461
29844.948
27528.779
25243.926
22987.241
20775.014
18636.613
16563.847
14607.327
12765.257
11053.819
9499.7687
8091.9195
6865.6281
5820.5952
4952.8262
4221.1282
3722.6141
3267.7015
2866.3909
2708.3577
2607.2382
2533.8841
2447.3302
2398.8772
2256.6476
2119.7035
1900.6104
1632.7263
1326.5564
966.60112
602.65768
235.71982
-106.31486
-374.73102
-575.40656
-636.5629
-683.4607
-703.39601
250468.2
246260.35
226845.62
225870.09
229864.61
229714.56
234732.42
234672.78
234811.47
234833.68
232600.24
230252.8
227139.96
223321.23
219231.27
215007.29
209992.21
205379.24
200527.61
195345.42
191087.69
185354.54
183956.72
180212.16
175116.93
170348.61
165281.81
160078.12
155112.03
150012.76
145062.87
139974.06
135124.74
130137.85
125257.34
120445.98
115632.85
110866.51
106209.82
101605.11
97090.27
92708.398
88413.894
84242.068
80184.567
76230.243
72398.419
68648.158
65016.903
61460.873
57984.346
54581.8
51236.957
47943.71
44706.073
41501.684
38361.041
35256.894
32220.324
29247.607
26357.628
23576.994
20900.524
18364.691
16006.953
13807.757
11779.925
9979.2286
8371.8395
6988.7662
5835.3346
4861.4297
4114.992
3485.6337
3166.657
2875.2519
2546.7249
2416.6705
2293.0637
2222.3556
2097.5108
1983.7677
1795.137
1586.7935
1296.5473
997.15019
642.79827
291.77794
-39.887915
-376.21455
-567.84051
-806.03675
-776.78998
-849.36864
-702.72164
353646.78
327487.2
287287.14
298665.41
292767.7
301325.19
299405.61
302503.29
300244.69
300449.49
296505.32
293931.97
288724.4
284485.58
278295.72
272951.96
266506.66
260188.7
253782.02
247135.05
240641.27
234169.91
226346.11
219555.03
213271.15
206931.75
200841.77
194293.85
188117.08
181773.03
175557.22
169344.57
163413
157327.79
151495.1
145477.74
139672.08
133856.34
128292.85
122647.53
117298.18
111893.55
106735.34
101607.03
96677.749
91833.57
87151.623
82561.195
78120.107
73763.142
69515.877
65365.612
61290.467
57296.61
53373.976
49521.707
45738.117
42029.309
38399.902
34862.165
31434.896
28119.445
24952.212
21930.288
19137.869
16489.561
14085.443
11934.2
9986.4881
8300.5284
6865.39
5667.5284
4684.5451
3948.631
3376.0807
2888.8074
2598.3389
2404.2309
2257.6785
2138.475
2026.6273
1888.9309
1706.4248
1496.9096
1207.4715
915.21131
551.56708
211.19668
-145.7873
-461.6505
-696.40676
-929.21775
-889.63616
-921.87849
-772.76653
397991.15
385436.59
334437.19
347034.88
350206.76
351888.46
353432.88
355100.16
353793.21
351330.63
348631.98
343335.62
338302.75
332462.99
324945.67
318800.68
310826.08
303295.71
295804.24
287654.11
280056.96
272203.59
264498.99
257415.4
249245
241677.06
234185.72
226588.79
219669.93
212016.46
205041.63
197685.76
190541.62
183441.47
176571.08
169838.3
163023.16
156498.96
149913.01
143551.12
137253.49
131103.13
125123.29
119228.67
113513.42
107884.93
102398.78
97009.663
91731.519
86534.803
81427.963
76390.195
71422.166
66510.987
61675.476
56896.748
52202.37
47595.771
43097.531
38735.103
34516.925
30489.638
26663.455
23061.23
19760.357
16638.395
13916.25
11494.668
9401.2905
7592.973
6107.2407
4939.9253
3985.0345
3315.0739
2804.4469
2492.9366
2286.9051
2177.2221
2070.8431
2026.103
1915.2405
1798.56
1593.1569
1356.4132
1024.4287
681.44893
268.09114
-117.46583
-510.49584
-841.97169
-1079.4639
-1237.6732
-1142.2956
-1094.8553
-794.30714
532119.34
398991.67
403380.01
400895.14
408570.51
403114.32
408896.02
408254.64
405292.91
403342.12
397909.98
393704.93
386049.26
379628.27
370995.98
363334.61
354706.72
345885.12
336854.27
328105.68
318768.84
309865.95
301352.28
292589.84
283804.48
274644.21
266026.94
257205.58
249420.76
240961.2
233038.78
224553.24
216508.37
208107.76
199965.54
192528.88
185147.79
177569.8
170194.24
162893.87
155756.37
148765.55
141905.26
135183.17
128614.77
122170.7
115866.07
109678.93
103591.67
97621.668
91718.92
85918.105
80177.58
74521.962
68941.302
63442.571
58041.586
52757.243
47605.141
42612.93
37812.514
33236.088
28903.023
24861.444
21134.043
17673.95
14655.56
11946.998
9594.1876
7633.8267
6117.0929
4811.8604
3820.1676
3130.1349
2650.5172
2333.0668
2182.994
2069.2278
2024.9665
1961.446
1886.4798
1734.6271
1542.0749
1250.4367
920.05926
516.23683
99.706805
-324.43915
-727.01665
-1043.6667
-1294.3483
-1381.0448
-1373.7395
-1189.1532
-943.80984
-758782.93
-863925.43
-815580.96
-851319.35
-856296.4
-866108.86
-903623.06
-877132.84
-870164.51
-875372.9
-859031.46
-823865.55
-814345.73
-862468.38
-657793.21
-782624.96
-847851.66
-777081.64
-835812.27
-824218.56
-859422.42
-826816.32
-865058.01
-855849.31
-857961.1
-837396.67
-833180.08
-826100.01
-841748.25
-700424.46
-556776.01
-675435.91
-565390.98
-600996
-605912.1
-593713.94
-608743.97
-598680.74
-604572.76
-595951.66
-592794.71
-599091.83
-554134.41
-630777.57
-557191.97
-492026.15
-519914.47
-509661.29
-501272.77
-526338.53
-514748.46
-530532
-527526.04
-523668.86
-524032.59
-526476.99
-502597.29
-505783.35
-553699.56
-368468.33
-329441.39
-385842.93
-318936.16
-360381.41
-338032.5
-359796.07
-349721.33
-354971.74
-351532.78
-354362.03
-347624.4
-347799.69
-350388.25
-361825.42
-326870.84
-238948.7
-246731.38
-226628.36
-234992.28
-236909.75
-239234.37
-238205.49
-239118.18
-242194.64
-241605.62
-232427.63
-245959.57
-225230.8
-251043.29
-232689.97
-98856.073
-96206.254
-98145.529
-89589.18
-96887.959
-93768.665
-96569.527
-93356.017
-93021.735
-93079.697
-94274.789
-85179.893
-103298.48
-90943.447
-111492.39
22449.005
34400.337
39358.02
33887.71
37382.809
37038.736
36188.824
37601.17
36866.574
31294.089
45188.167
28775.947
20237.421
48724.619
-18551.781
152899.48
171190.67
156518.98
170021.55
166314.95
170160.7
168487.7
170013.75
170213.56
160973.71
171960.43
157484.13
151665.07
177854.05
63431.599
254427.62
308203.01
280948.11
292418.91
291507.19
297567.1
297260.5
298152.88
302162.42
290744.45
313851.95
281971.42
275623.3
320377.51
202606.18
397537.99
461966.28
408767.78
445763.16
430104.96
438771.9
436104.59
438682.79
438206.83
425928.86
428294.45
428644.46
397367.82
434793.16
301829.85
557084.23
537332.68
541841.35
535772.43
555697.26
556825.5
560361.56
564121.67
565052.45
560926.86
576921.75
515276.85
541824.19
568165.42
441563.41
649519.39
683047.07
639600.94
653814.49
634327.65
650643.12
647888.69
645192.84
642655.74
631637.15
638493.04
650257.31
591545.34
684571.13
421198.99
781750.07
902378.58
814022.83
862589.32
887912.85
876344.52
883901.35
915283.11
899207.84
928212.85
876429.21
861130.49
882338.57
845795.1
804275.63
934862.8
762941.96
720805.27
729866.8
757837.44
799832.24
775637.34
743298.81
717598.22
713658.95
732799.25
734273.05
734200.86
787301.22
715925.9
732939.09
681744.33
805443.56
821804.4
845670.76
911935.38
874121.33
813718.32
927482.52
911490.83
884526.74
843579.92
820181.92
780868.64
678387.24
570638.7
567002.01
617757.64
629562.87
647511.53
669999.15
683042.05
698912.41
713804.98
687774.92
678023.5
640802.5
651446.72
644605.22
641599.97
441208.21
490227.34
490176.53
521394.15
552476.3
534215.29
556941.45
549287.17
534465.23
556444.48
538014.74
548382.41
528683.72
484068.29
490570.13
460605.84
510443.14
517467.19
523490.22
531923.92
544585.58
545184.5
548095.94
547631.18
536436.09
536457.37
523917.34
510763.48
501839.37
477774.3
472053.33
501962.14
493896.55
524067.79
525623.08
534310.39
544914.47
542938.79
546165.02
547948.86
532520.26
525402.23
503981.84
492054.44
479404.18
463169.5
477506.5
485516.49
502483.43
506643.98
518417.72
515540.07
517894.32
517796.29
509514.15
509188.88
498078.2
489532.89
478673.85
458947.23
457651.4
478445.23
482252.69
492659.66
494700.67
503304.01
505757.04
507616.92
506538.09
503405.25
494353.76
490711.67
480566.56
467139.69
467655.39
458148.84
464308.07
473831.96
480389.34
489566.62
492655.01
494976.86
496828.43
493986.89
492099.55
487304.9
481650.41
472602.11
464353.94
455273.65
449170.21
461476.66
464677.97
471904.81
471890.68
479844.25
476856.74
480307.05
478255.89
474899.83
471570.48
465452.13
461886.73
454751.15
450633.81
446558.58
449243.61
454996.41
457748.96
463223.92
465110.69
467811.78
467694.29
466107.89
466760.96
461417.78
460472.19
454724.2
450017.17
447255.08
437296.49
443811.15
446215.11
451009.07
452481.47
456768.4
455488.48
458644.18
458019.44
455911.85
455641.75
452920.76
449222.44
446290.98
445043.5
432355.98
433008.12
437182.54
437972.2
440677.49
441794.82
443874.52
444663.91
444518.47
444197.9
442775.76
440320.82
438933.68
435938.34
435712.04
424593.16
425750.68
426002.94
429463.97
430522.26
433460.99
433148.68
434597.15
434737.76
434230
432955.76
432900.46
430433.75
429757.19
428772.98
414810.05
415673.65
419362.21
418047.59
420771.02
421407.89
421684.88
423264.38
423066.67
422558.8
422186.35
422038.49
420472.08
419510.91
420960.75
407112.59
406725.37
407658.42
409141.6
410238.4
410912.58
411665.08
411583.49
412467.13
412359.24
412442.66
411940.35
410765.49
411825.66
411537.31
396706.04
397274.89
399885.09
398208.9
399749.31
400191.87
402446.75
401005.97
400817.44
401059.28
399788.93
401007.13
398712.43
399217.36
400193.33
388391.22
387266.38
388930.75
387766.55
390094.03
390542.97
390034.77
390859.79
391233.41
391196.21
391375.97
392117.55
392236.9
391775.54
394352.15
378909.73
378341.09
379259.87
378207.68
379548.45
379591.99
380518.21
380277.81
379973.88
380549.46
379329.74
380262.98
378347.5
379927.69
380503.96
367904.45
367887.94
369546.52
369117.38
369219.72
369587.55
368369.96
370256.83
369531.18
370238.09
369564.79
370976.44
370485.06
372538.91
373054.12
359106.87
358053.19
359089.5
357521.51
359338.89
359235.04
360249.65
359412.04
359993.4
360110.73
358397.14
361025.89
359003.61
361347.75
361060.54
349329.23
348470.77
349181.42
348480.25
348623.79
348164.49
349163.95
349657.44
348698.46
349521.84
349395.15
350514.3
349409.64
351112.37
351832.85
338090
338505.35
339096.18
338066.85
338950.43
338637.65
339064.07
338638.11
339260.38
339263.41
339206.95
340556.09
339939.86
340254.06
342058.8
329632.5
328301.65
328831.39
328401.44
328627.58
328760.4
328904.2
328968.59
327750
329914.17
328106.72
329561.34
327878.79
331029.74
331341.34
318896.21
318545.46
319217.97
318239.94
318732.97
318820.22
318619.16
318531.26
318660.14
319024.43
318135.34
320314.06
319384.49
320416.53
321057.08
309699.38
308908.18
308707.64
308445.72
308410.59
307922.58
308754.94
308559.54
308309.95
309208.46
307738.18
309612.12
308474.48
310166.63
310802.36
300850.93
298147.4
299050.81
297845.86
298650.89
298582.99
298796.25
298555.49
298630.79
299015.22
299412.06
299555.82
298484.1
300699.47
300512.8
290058.29
289010.94
288969.04
289007.72
288568.62
289348.05
288616.81
289006.12
288416.12
288948.23
288262.52
290241.09
288192.45
289968.28
291010.22
281690.01
279161.23
279420.35
278902.62
279678.1
279259.8
278872.09
278959.96
278965.48
279110.51
278843.09
279362.22
279050.14
281144.57
280325.41
271034.01
270427.84
270785.21
269649.03
269471.11
269674.3
269265.54
269590.09
269116.78
269714.94
269016.94
270298.76
268979.91
270025.34
271676.42
263347.64
260250.51
260795.7
260535.72
260494.05
260223.73
259999.21
260072.4
259623.14
259904.18
259486.86
260630.66
259452.17
261382.87
261558.14
253338.32
251582.57
251770.48
251250.94
250817.1
251689.13
250529.48
250721.4
249560.87
250944.54
250169.33
251356.25
250456.12
251509.39
252124.28
245028.42
242226.63
242964.77
242157.36
241969.59
242014.67
241439.36
241591.99
241166.66
241654.51
241018.64
242113.52
241260.23
242393.32
242836.63
235933.46
233511
233926.9
233275.27
233050.95
233039.75
232516.37
232625.96
232185.13
232674.85
232077.84
233119.11
232237.77
233398.46
233641.38
227176.58
224710.72
225285.96
224448.6
224230.37
224181.51
223811.39
223834.02
223418.91
223767.01
223242.23
224194.85
223459.06
224660.61
224847.44
218262.05
216373.32
216696.91
216040.99
215806.34
215690.75
215125.75
215326.14
214731.86
215354.23
214603.47
215677.91
214792.38
215984.94
215879.39
209692.95
208300.2
208094.02
208276.58
206899.92
207283.11
206651.46
206700.85
206377.95
206496.7
206194.75
206981.48
206578.07
207105.36
208266.1
202273.2
199552.2
199840.92
199185.8
199178.82
198729.88
198682.06
198405.07
198287.63
197953.87
197958.3
199003.73
198093.38
199475.54
199289.92
193415.73
191722.88
191815.55
191387.39
190760.92
190950.9
190308.93
190532.38
190005.59
190424.57
189927.41
190739.79
190260.81
190987.1
191476.39
186026.25
183587.03
184134.39
183318.66
183202.35
182956.46
182678.49
182600.44
182246.96
182601.23
182076.9
183101.36
182272.96
183348.46
183512.3
177845.99
175991.04
176281.32
175643.85
175352.3
175284.17
174901.57
174852.15
174587.89
174822.68
174410.19
175193.38
174664.81
175588.63
175880.91
170379.96
168335.69
168798.84
168055.17
167917.11
167704.52
167429.42
167371.53
167071.74
167383.85
166895.25
167772.78
167168.73
168111.37
168318.46
162712.73
161010.24
161299.31
160698.72
160485.13
160355.52
160082.47
159948.88
159747.65
159949.33
159574.33
160382.21
159828.21
160723.36
160976.84
155482.46
153716.36
154098.54
153448.1
153316.14
153174.96
152885.02
152790.32
152558.2
152796.58
152404.32
153181.38
152633.91
153533.65
153741.85
148174.57
146657.52
146928.47
146352.05
146223.08
146078.6
145813.69
145647.74
145479.04
145650.06
145291.7
146045.31
145535.55
146392.18
146610.54
141184.46
139669.91
139986.11
139399.68
139276.97
139173.24
138874.45
138725.22
138564.25
138693.24
138392.44
139086.72
138604.13
139425.75
139596.43
134180.58
132836.72
133092.28
132501.92
132393.81
132277.03
131981.7
131816.07
131661.56
131775.83
131501.46
132124.02
131720
132435.44
132652.76
127395.7
126098.52
126335.47
125763.6
125644.56
125551.95
125246.81
125064.73
124931.59
125005.98
124742.45
125326.95
124957.95
125578.92
125828.82
120655.59
119447.84
119658.93
119068.78
118942.5
118857.69
118519.99
118336.92
118194.73
118234.5
117997.33
118530.32
118198.88
118733.72
119038.37
114024.54
112872.92
113047.08