/*--------------------------------*- C++ -*----------------------------------*\
  =========                 |
  \\      /  F ield         | OpenFOAM: The Open Source CFD Toolbox
   \\    /   O peration     | Website:  https://openfoam.org
    \\  /    A nd           | Version:  6
     \\/     M anipulation  |
\*---------------------------------------------------------------------------*/
FoamFile
{
    version     2.0;
    format      ascii;
    class       pointScalarField;
    location    "0.2";
    object      p;
}
// * * * * * * * * * * * * * * * * * * * * * * * * * * * * * * * * * * * * * //

dimensions      [1 -1 -2 0 0 0 0];

internalField   nonuniform List<scalar> 
625
(
479355.43
-766647.28
-327.69273
2571.8024
923323.86
-1461911.6
2180.4436
-713.18512
374810.41
-35960.925
-77480.422
-1088.6809
-25.586264
1291.7815
196737.03
218979.29
215014.38
213170.89
194531.6
191610.73
179567.14
168901.88
165789.17
149523.36
141967.35
129450.81
117585.78
103780.95
89917.403
75556.759
60793.998
47632.526
33973.622
23203.623
13519.284
4878.47
1405.3362
-263181.13
-182606.09
-242507.6
-195297.7
-187402
-189891.36
-170541.44
-162578.2
-157517
-144452.79
-134882.82
-122902.86
-111253.67
-97709.576
-84163.099
-70021.454
-56315.829
-43213.17
-30809.46
-20858.089
-11367.777
-4805.9369
-408.26012
514023.63
-36017.971
-162959.01
-264012.48
-342629.59
-247664.46
-222704.37
-255617.92
-201348.57
-188678.6
-191407.95
-177466.1
-168920.15
-154603.04
-142496.96
-127268.93
-111805.44
-96094.453
-79460.708
-63775.098
-48618.158
-34653.66
-22640.387
-12682.489
-5325.5439
120.60355
1002.889
-1392.2114
-1557.8358
1646.8358
6448.2499
13853.339
24441.901
37126.455
50864.255
66276.945
82623.805
99034.819
115361.2
130565.71
146264.78
157052.18
163004.82
193546.18
190948.17
203723.15
206902.3
237869.53
214575.17
245238.55
259850.54
217453.51
526864.85
519852.77
489653.48
-841377.08
-846089.89
-830920.31
2573.0221
2962.362
3615.96
-1165.8328
-1408.8131
-1106.7072
120516.67
133073.83
134191.89
120689.89
112753.51
114772.24
102151.93
101196.35
91289.377
88578.494
83341.822
76493.962
68670.577
60414.239
51857.393
42805.413
34181.562
25915.574
18214.559
12631.85
6952.1269
3622.9965
1575.7042
-33478.124
-24794.568
-34146.22
-19015.441
-28932.536
-23060.978
-24308.545
-20534.963
-19348.086
-17725.575
-16561.438
-14693.319
-12609.883
-10270.218
-8127.78
-6058.9924
-4051.6995
-2334.4093
-1419.2334
-77.199732
232.02735
1357.3605
1412.9628
-165305.46
-140666.31
-131377.73
-119840.66
-133552.63
-112532.93
-114708.76
-106414.57
-100730.44
-92682.214
-85242.683
-75987.904
-67562.661
-58444.848
-49543.271
-40534.249
-31878.758
-23869.919
-17256.208
-10417.389
-6680.5482
-2706.383
-396.58384
305446
300023.58
310554.98
-38899.4
-23678.775
-56742.132
-57964.028
-88582.951
-139865.57
-380476.22
-371345.09
-390051.97
-309292.05
-289230.97
-278790.39
-250150.77
-236016.18
-251257.59
-210268.05
-208260.96
-210375.27
-211560.61
-207550.28
-220624.71
-195620.19
-186821.37
-189910.95
-189012.36
-184265.66
-192257.88
-181369.52
-165503.12
-178215.9
-169602.37
-159905.14
-169016.42
-158258.37
-148385.38
-158351.26
-146082.41
-137858.26
-145255.77
-133118.11
-125055.08
-132169.21
-118293.74
-111784.91
-117656.91
-103395.72
-97404.159
-102454.38
-87903.801
-82807.382
-87076.186
-72442.138
-68025.048
-71225.305
-57437.397
-53498.021
-55898.905
-43129.051
-40056.422
-41638.934
-30328.445
-27652.925
-28706.215
-19478.656
-17516.369
-17963.443
-9712.3797
-8336.7881
-8543.9056
-3333.1537
-2941.3095
-2786.1011
-22.762426
1445.7805
873.44205
-1459.2196
-1667.3952
-2175.1919
-941.66553
-1259.0164
-1048.8761
2561.7988
2537.048
3020.201
271505.58
236252.51
265511.46
259367.82
230891.79
250208.7
259611.1
229285.37
250123.3
224101.54
207742.25
227018.85
219519.56
208179.19
213498.67
209807.9
182967.19
204675.34
195239.74
182425.77
198552.98
190513.6
170698.29
185666.62
173311.66
164249.07
172987.29
168077.15
150803.62
167709.06
156457.18
141302.78
152869.52
144680.04
127802.91
141829.25
129180.52
115813.37
127535.6
114723.48
102552.24
112678.45
98528.719
88424.373
96815.982
82046.313
74162.632
80773.903
65763.921
59919.274
64902.582
50039.494
46287.448
49517.717
35077.776
33396.355
35507.504
22839.107
21665.369
23589.777
12071.439
11124.668
12863.636
4173.2951
4445.8114
5411.2192
659.80457
556.39586
1181.9825
135162.86
155298.26
122923.76
139508.41
131162.11
123945.27
118066.01
113199.61
100633.43
96689.77
92523.985
81858.859
73285.332
65078.434
56165.804
47335.331
38584.832
30531.61
23087.067
16002.738
10348.961
5263.737
503.81213
-26141.511
12938.566
781.26475
23376.834
24966.894
19349.019
24335.708
22357.942
20004.957
20574.802
20377.237
18828.931
17672.452
16494.546
14953.357
13132.83
11178.077
9362.3895
7202.8843
5271.8345
3756.849
1261.6523
438.16469
-98568.233
-91596.858
-133596.35
-111524.88
-114416.04
-112934.32
-101767.8
-96476.34
-88965.584
-85113.3
-79562.25
-73104.548
-67147.112
-59614.563
-52430.358
-44802.072
-37055.896
-29382.559
-22134.958
-15312.605
-9781.1947
-4988.4963
-2821.5363
172678.54
196563.12
165612.07
151362.74
171084.29
155283.54
115821.61
123074.21
146767.11
103191.16
143770.35
118387.42
120658.96
108151.74
119173.82
90004.499
117393.31
121348.18
96222.652
111166.47
107211.05
89474.49
101618.32
103513.14
87647.278
94056.383
104602.7
77783.629
92687.871
91519.365
72595.711
83856.888
85944.62
64258.269
77320.691
78619.072
58641.417
69405.985
70715.922
51196.247
60557.674
61868.817
43798.215
51392.86
53220.271
36254.198
42452.336
44223.146
29259.049
33500.554
35406.569
22381.218
25136.858
27016.744
16258.541
17510.524
19633.061
11462.478
11934.783
13373.552
5808.8623
7186.4974
7082.0681
4437.6964
3667.0015
4737.3211
602.24315
286.01542
135.10952
-39843.35
-51560.593
-31125.756
-17922.84
3566.847
-10992.356
3308.3867
-1085.3409
-7103.6643
-2845.0035
-1724.905
-17541.188
-4157.784
2746.6438
5151.663
-4031.1693
9010.4446
-8298.7716
-182.15227
4033.447
-5759.9704
-4789.3217
6675.1627
-1652.4486
-3116.1304
8084.4334
-5299.1791
-815.8766
6670.1368
-1423.988
-1108.4435
7258.6475
-1514.5013
831.89209
8953.4799
167.49719
1897.3133
9232.1266
338.38724
2571.3466
9265.5505
1688.1304
3098.2585
9696.0478
2529.3541
3562.6112
9441.1608
3321.6881
3747.3725
8842.539
3839.7431
3495.7503
8080.7319
4038.8512
3593.7045
6375.7213
4286.0094
3150.1748
5170.1931
3302.2869
2544.6721
2571.2283
2789.6325
1459.2885
2456.0053
1936.3122
1603.2398
1954.102
1940.2638
-163161.97
-181963.57
-203545.03
-113970.89
-96140.029
-140811.07
-112153.07
-167975.38
-147479.27
-144356.9
-118818.16
-127043.43
-109806.99
-127434.77
-124989.29
-109909.1
-120346.65
-119779.17
-106482.59
-114627.41
-107830.75
-97321.37
-105853.98
-111213.1
-89627.875
-103678.59
-98189.806
-87243.83
-94176.836
-93813.221
-78461.422
-87572.311
-86617.299
-72353.954
-80049.532
-80077.24
-64519.039
-72955.933
-72341.692
-57079.986
-64514.99
-64346.695
-48932.18
-56037.418
-55873.935
-41046.353
-47324.412
-47555.971
-33080.03
-38551.668
-38938.735
-26044.078
-30125.867
-30807.09
-18961.861
-22118.689
-22867.296
-13186.463
-14673.334
-15713.414
-8575.3801
-9000.896
-10106.366
-3031.5193
-3299.642
-2992.9002
-1536.5178
-1745.1946
-3207.6933
)
;

boundaryField
{
    free
    {
        type            calculated;
    }
    fixed
    {
        type            calculated;
    }
    freeTop
    {
        type            calculated;
    }
}


// ************************************************************************* //
