/*--------------------------------*- C++ -*----------------------------------*\
  =========                 |
  \\      /  F ield         | OpenFOAM: The Open Source CFD Toolbox
   \\    /   O peration     | Website:  https://openfoam.org
    \\  /    A nd           | Version:  6
     \\/     M anipulation  |
\*---------------------------------------------------------------------------*/
FoamFile
{
    version     2.0;
    format      ascii;
    class       pointScalarField;
    location    "1.49";
    object      E;
}
// * * * * * * * * * * * * * * * * * * * * * * * * * * * * * * * * * * * * * //

dimensions      [1 -1 -2 0 0 0 0];

internalField   nonuniform List<scalar> 
28033
(
78189.145
70165.808
6922.6834
6004.9176
89635.029
83274.285
7201.4044
7677.9228
45861.632
31924.279
21435.702
15350.559
8756.9437
5528.7805
3528.563
3108.8351
4656.2023
7394.5192
12150.113
19518.505
28695.247
39520.913
59896.429
8931.899
7871.3298
7780.7869
7259.6777
6616.8818
6711.3348
5500.9129
6025.9899
5774.0046
5431.2749
6102.8299
5848.1144
6260.1531
6866.6426
7704.0261
58627.985
35694.663
34139.721
33882.383
35016.683
35140.958
35474.465
35265.346
35236.403
34632.401
34372.294
33755.169
33051.197
32295.784
31371.462
30383.724
29297.861
28492.128
27415.117
26440.788
25550.091
24590.427
23641.87
22835.077
21627.587
20975.185
19668.511
18940.498
17686.232
16860.167
16006.849
14956.839
14002.766
13238.939
12432.254
12025.925
10947.777
10506.776
9681.2056
8866.6001
8042.6646
7277.7191
6469.3256
5779.6311
5129.472
4645.8445
4081.4613
3789.7032
3306.9726
3062.1223
2622.7923
2329.291
1909.1302
1556.962
1176.6099
844.84201
537.71057
291.7827
82.785864
-71.047558
-207.81505
-288.80822
-419.91881
-405.24479
-486.04758
-503.2353
-452.43814
-446.46266
-280.79095
83.387612
230.52708
598.96524
865.90373
1287.5464
1651.9303
2036.0008
2392.8625
2825.1998
3105.7158
3448.1334
3859.2987
4100.6835
4564.5142
4564.3194
5059.7248
5130.508
5597.2044
5661.5693
6240.868
6141.5519
6984.8141
6599.0017
7728.6101
7341.3152
7713.3449
60298.692
34288.363
42123.37
36186.426
38846.877
38355.384
38127.986
38078.108
38206.091
37283.439
37499.555
36412.081
36388.228
35307.223
34752.369
33740.578
32862.495
31710.304
30641.549
29718.436
28197.445
27567.075
26063.831
25979.466
24385.609
24232.393
22575.76
22036.307
20413.505
19634.607
17863.768
16998.015
15673.434
14724.444
13675.627
12928.051
12094.55
11293.455
10519.403
10067.648
9313.3576
8777.8686
8130.026
7606.6049
6986.084
6544.7796
6023.4073
5651.8573
5250.8107
4910.6798
4554.8335
4196.4994
3778.1531
3358.2672
2855.9269
2363.6611
1859.2068
1385.3273
972.46575
652.203
418.54806
300.74695
278.26167
341.17596
473.21072
639.76965
888.25792
1160.6434
1532.8486
1636.0389
2067.6766
2216.2687
2784.6739
2958.1677
3443.6593
3719.4461
4014.8166
4364.8116
4524.9669
4785.1568
4966.6091
5078.3186
5327.5807
5441.3491
5714.4159
5910.4278
6236.513
6484.8043
6841.1802
7113.6981
7411.8598
7606.2023
7759.836
7771.6868
7618.128
56997.847
38216.201
25837.013
20724.606
11105.846
6964.7749
4901.0551
4277.4307
5878.0618
10082.857
14203.907
21751.86
31064.932
44403.09
59065.441
106014.72
53712.767
26480.381
44219.105
37916.85
39513.911
40023.623
40017.1
40385.051
40315.52
39945.39
38281.19
39397.074
36250.319
37677.348
34363.365
36186.342
31227.785
33849.829
29631.237
30541.784
29636.424
27908.518
27877.678
25117.92
25411.089
23984.671
22224.79
22169.251
18681.991
17936.163
16902.138
15802.153
15363.286
14429.888
15756.01
13046.986
13640.431
12790.801
12129.918
11370.89
10540.436
9703.0515
8919.1509
8242.8005
7645.9694
7154.5621
6709.4086
6268.5562
5779.9222
5203.9219
4528.1667
3770.5373
2947.3419
2167.4457
1445.9834
881.35306
505.08644
311.62702
325.34327
447.25002
688.73028
922.50552
1157.7687
1325.1157
1441.0597
1574.0152
1070.4678
2020.0173
1760.2179
1927.8683
2022.3896
2339.2138
2636.2465
2911.8592
3168.66
3383.1872
3572.9841
3680.3026
3842.9375
3953.6652
4174.8996
4364.995
4696.014
4959.9689
5346.6796
5612.7581
5945.0266
6116.3425
6320.832
6378.6626
6466.6054
6542.3304
6504.0818
7132.9254
8104.3361
8328.103
6822.0645
6780.1011
6533.8008
6073.6472
5935.6269
5614.9981
7129.3919
5331.9767
6950.1893
5474.268
8809.6638
6295.7407
9172.6107
8581.3727
6996.332
7905.1861
7143.054
7003.2502
6576.3004
6240.8312
5899.2456
5498.7039
5209.3698
4862.5649
4610.7734
4411.3641
4093.9683
3923.8925
3695.3636
3493.3446
3259.2553
3006.8097
2729.9451
2441.4098
2131.0928
1848.3755
1501.7452
1408.7887
1042.3572
1125.365
-666.21507
694.22728
104.67362
97.833554
-94.14733
-208.22878
-268.05693
-266.96941
-179.49676
-4.5523198
258.31764
598.90558
998.41442
1432.7992
1884.6458
2328.134
2759.384
3170.9674
3571.7914
3979.0697
4389.3375
4855.8271
5342.869
5865.4077
6480.3413
7052.207
7709.1602
8280.3069
9011.2245
9336.5037
10619.437
10244.885
11363.667
12984.363
12336.466
14070.892
14919.939
16376.427
17203.17
18017.187
19036.391
19955.576
21500.318
22658.392
23264.372
23212.873
25780.459
25587.305
26578.538
28028.687
28735.419
30275.167
30853.853
32112.711
32633.777
34186.61
33795.976
36590.823
35113.232
35827.084
36197.342
37033.99
34835.703
35007.973
36897.729
36731.694
25921.537
69293.318
45786.63
46232.006
43910.606
44448.678
44989.022
46236.062
45460.253
46406.904
46251.828
46103.6
44272.183
43034.323
44119.232
45569.487
49273.817
51079.133
52081.89
49863.983
52854.645
52618.395
51688.654
54962.428
57997.116
56458.69
56566.198
53944.103
52187.073
51296.476
50637.177
56425.905
6914.3747
6916.5402
6968.5675
6876.5139
6856.2954
6813.5104
6791.059
6778.187
6823.364
6847.0666
6972.2607
6937.9868
7075.4153
6777.9573
7611.4303
7872.9316
7419.7099
7724.0775
7385.8395
7608.7913
7529.5417
7547.2162
7541.3492
7592.8547
7595.1422
7713.3547
7635.1523
7724.6497
7558.8916
8074.4097
43988.237
29565.368
27543.15
27018.505
26930.497
27410.872
27696.101
28021.906
27773.427
28095.051
27200.152
27178.632
26082.274
26071.4
24797.684
24787.562
23948.074
23574.526
22814.497
22367.959
21552.921
20724.896
19948.848
18735.153
17918.185
16791.375
15917.259
15018.123
14450.277
13891.306
13378.912
13172.941
13012.242
12804.053
12702.423
12133.531
11838.676
11272.915
10901.364
10289.782
9909.2805
9328.7891
8906.4986
8430.196
7788.838
7203.0414
6451.7373
5706.3918
4847.2653
4057.056
3258.2379
2612.826
2093.6354
1777.709
1650.3994
1697.8138
1888.0034
2154.1898
2451.1064
2717.0646
2909.9292
3033.6015
3017.2505
2994.825
2776.9805
2636.3735
2660.657
2417.9383
2446.1013
2015.7514
2018.5511
1877.3106
1848.8797
1820.6639
1814.1939
1876.8224
2030.0388
2180.6847
2537.548
2809.8858
3340.4217
3725.685
4258.9036
4611.0398
4970.9123
5439.9128
5722.0769
5980.751
6282.1803
6324.603
6812.5549
6715.6492
7525.7209
7342.3196
8346.7106
28322.368
20114.609
21085.002
19251.378
19919.585
19440.802
19762.229
19715.176
19791.354
19668.227
19435.149
19274.189
18844.545
18486.789
17992.628
17857.031
17027.866
16930.829
16316.723
16029.691
15366.569
14986.28
14243.157
13755.38
13048.952
12493.978
11823.223
11302.958
10777.592
10362.411
9988.8258
9754.1768
9307.3535
8993.0918
8707.2378
8348.0367
8152.5075
7854.5291
7423.6077
7019.1782
6638.5254
6262.6441
5925.9977
5469.2031
5082.0994
4747.4018
4318.3932
3933.2754
3518.9194
3109.9922
2705.255
2357.1944
2045.8966
1816.9847
1662.6552
1591.9127
1581.1518
1628.0344
1699.0796
1770.1952
1829.0381
1862.374
1858.3401
1828.0433
1811.8121
1841.6852
1606.7057
2129.8644
1988.1835
2040.4751
2235.5983
2219.6956
2266.2277
2362.4857
2488.516
2645.0732
2865.1769
3088.7547
3448.9641
3644.9864
4189.2087
4286.9051
4930.7658
4821.006
5786.8885
5971.3309
6454.3337
6453.8812
7061.9621
6891.9757
7598.7745
7297.0744
8273.9985
7105.8565
9258.9798
18373.374
12089.156
14335.927
12860.533
13481.215
12794.707
13030.981
13087.472
13069.866
13088.137
12893.126
12916.187
12448.886
12444.64
12023.656
11849.912
11572.653
11441.515
11059.466
10915.905
10589.452
10300.132
9951.7014
9537.2143
9103.4063
8653.995
8267.1468
7839.9002
7577.84
7249.8048
7074.3005
6791.7559
6741.3727
6566.6675
6446.8631
6220.9497
5892.6956
5447.8729
5313.3504
5004.0386
4782.3452
4546.836
4195.8175
4060.855
3881.2832
3633.7625
3371.4017
3109.3861
2797.0564
2469.1556
2184.3019
1895.5488
1698.6005
1546.9107
1504.5201
1510.3302
1600.999
1713.6019
1847.1926
1959.3148
2051.9585
2104.9987
2096.9161
2096.7983
2047.9415
1931.5839
2101.025
1872.3583
1996.9621
1859.9119
1955.3316
1913.9621
2133.318
2259.2563
2426.2257
2593.0153
2801.3073
3065.6791
3310.1282
3602.2862
3968.4162
4234.6881
4515.7137
5198.3619
5378.0016
5306.7496
5507.99
5812.5462
6067.0308
6094.6393
6651.688
6358.9846
7279.6551
6399.6131
9678.2437
11417.196
7269.7019
7960.8889
7931.9072
7978.461
7831.5386
7936.1957
7972.3802
7780.5994
7934.9965
7782.0493
7797.3735
7492.4917
7650.6172
7121.6346
7391.3599
6853.4758
7038.7887
6624.663
6769.4832
6306.4466
6370.017
5899.1638
5849.9805
5433.4901
5309.6251
4926.2058
4801.91
4487.9511
4400.2059
4171.2696
4136.3251
4008.2961
3856.2461
3840.6492
3592.6934
3608.5351
3821.7576
3650.3442
3473.5183
3273.6176
3143.0626
2992.1681
2842.6819
2650.819
2499.5139
2370.3657
2241.4347
2101.0916
1986.3663
1861.7887
1744.2632
1649.9661
1562.1935
1508.0518
1474.4419
1473.8266
1487.8852
1528.0214
1570.0817
1620.204
1658.8181
1675.2748
1727.1213
1698.1975
1766.8321
1706.0523
1811.149
1955.4475
1793.1739
2166.6918
2253.6281
2121.2065
2069.8732
2303.2155
2440.1069
2668.9065
2834.9408
3124.6943
3329.638
3675.4018
3836.4708
4405.5302
4356.5199
4871.6039
4976.7391
5832.1507
5761.3622
6487.5974
6280.5441
7198.1478
6578.7767
8172.5091
6288.6232
10542.694
7288.3488
3077.3505
4383.8331
3470.8134
4226.6436
3764.3791
4225.649
3914.0985
4178.7027
4125.7446
4114.3425
4062.3814
4020.9946
3951.5629
3841.0914
3895.7512
3711.0084
3870.44
3661.5276
3795.2831
3593.0929
3719.9135
3443.0381
3517.047
3194.5213
3146.8269
2936.6112
2800.9076
2700.3844
2603.9371
2582.6276
2542.2862
2511.9642
2526.1119
2477.0015
2353.772
2530.3246
1917.6006
1911.7273
1790.2174
1861.0474
1692.8815
1661.6359
1636.4148
1618.4204
1577.3664
1541.5726
1449.2452
1377.5008
1278.3091
1195.1818
1101.8038
1062.8703
1009.1354
1022.2418
1031.3054
1080.5682
1126.2917
1185.0406
1231.2592
1268.8354
1291.1051
1304.4949
1352.2016
1274.323
1388.6898
1440.3055
1311.0953
1482.0741
1512.0355
1812.9578
1718.5205
2217.0886
2939.6468
2976.3315
3212.7608
3343.3698
3601.1333
3812.4036
4054.9684
4340.277
4631.4879
4851.9254
5252.9537
5467.4826
5795.2662
5830.6249
6047.1939
6235.9181
6319.7376
6730.0802
6626.6415
7732.796
6134.7205
11082.117
4148.6528
1242.0509
1684.3988
1280.3689
1439.2145
1531.4194
1479.8994
1652.6794
1605.4084
1742.5854
1641.44
1826.4788
1597.0583
1834.64
1557.5931
1791.0724
1539.7714
1812.005
1559.3732
1871.4851
1615.3519
1863.1796
1587.4057
1773.2844
1461.2653
1663.351
1324.8249
1483.199
1252.8118
1334.6419
1212.3792
1219.6419
1212.3244
1193.4997
1157.6128
1224.5962
1135.6276
1544.521
1468.473
1465.309
1326.4594
1365.9981
1268.5806
1321.2599
1281.3888
1274.634
1223.5506
1219.2068
1176.7224
1159.2141
1129.2135
1123.1767
1115.0225
1133.813
1156.5206
1197.5061
1240.1589
1282.9283
1334.3751
1360.7933
1376.8159
1432.6659
1412.5993
1393.9296
1523.7071
1437.1873
1523.4517
1573.7704
1715.6316
1762.9122
1827.1072
2000.2871
2091.1236
1670.5196
1782.4766
1927.6168
2158.2473
2351.2927
2598.99
2812.5459
3145.1606
3261.8878
3772.9102
3768.0873
4368.0479
4361.6151
5094.7532
5077.6384
5929.7566
5736.8286
6860.7148
6278.2358
7941.7861
6263.9085
11382.465
2801.7866
-118.1843
633.787
-320.98687
329.65563
26.09295
461.33639
272.04025
598.13163
468.30227
632.79292
498.9187
569.52874
493.25431
443.91178
514.84193
435.38442
569.5284
484.98856
710.78788
550.93444
829.51962
576.09898
800.47008
589.77741
654.61766
484.35612
539.59838
387.76354
471.81551
390.0408
493.36104
492.72981
499.31699
560.36785
517.64784
477.52065
393.19786
335.35309
362.91674
296.71978
341.26669
345.97928
408.54226
470.46781
524.59148
649.51194
681.23428
762.85756
765.21967
811.30649
785.14883
820.34637
809.21852
858.27963
884.36506
964.47172
1023.8828
1114.7911
1165.1181
1273.507
1290.0506
1334.6282
1443.7959
1397.5738
1524.47
1561.5081
1679.2831
1784.7864
1852.8473
2195.5414
2134.9305
2475.718
2701.0082
3074.8186
3289.7881
3515.4188
3701.5124
3964.2509
4179.3913
4433.7678
4748.1332
4960.4363
5299.9948
5534.6373
5791.2034
5988.7034
6176.5792
6389.227
6388.5889
6801.8698
6485.0123
7956.976
6089.1936
11733.444
2474.1594
255.07152
597.46781
271.01323
436.67209
528.01819
595.14178
652.3284
745.10156
779.17078
765.88378
873.69488
788.5071
868.50042
799.18678
881.07794
793.7107
931.6926
850.65493
988.25188
832.62551
974.58922
813.75946
1085.7457
744.70683
1026.3526
735.01862
901.26965
685.07177
792.35154
634.57933
707.46751
577.43297
636.96881
600.83162
532.60119
599.20974
541.12284
535.13632
530.81905
455.98093
484.44806
479.01922
520.41566
500.10079
589.21719
584.87759
648.35891
657.00612
700.87907
691.74457
713.9006
706.1284
707.60258
713.25533
721.06739
745.4014
762.92427
794.37819
838.86213
857.57371
881.35467
950.19287
917.94762
991.3558
1000.5686
1072.1823
1120.9648
1193.264
1347.4346
1361.8401
1542.9164
1730.167
1668.3881
1650.05
1755.2075
1945.8868
2103.445
2335.3107
2470.8579
2796.2178
2869.0108
3287.7261
3326.3972
3828.4352
3871.2362
4485.582
4530.4924
5251.1561
5307.1992
6308.0145
6215.0419
7755.5999
6351.7616
11486.571
3214.2691
880.00944
1714.6412
1100.8928
1578.8247
1435.2382
1822.8099
1616.6359
1922.732
1702.7783
1849.9887
1620.1343
1600.217
1401.5311
1309.1014
1184.5882
1120.1838
1074.2875
1053.2392
1137.4284
1162.3438
1416.3412
1307.2325
1300.7505
1147.7376
1195.6329
921.46002
970.75354
739.00262
782.92233
644.07296
677.79375
612.96093
666.04932
499.72893
616.69102
396.17979
427.81313
249.2252
174.30116
101.0187
37.541205
59.213992
30.610161
151.77972
180.91619
310.9459
356.67327
461.63979
477.41645
535.69004
522.67281
543.36412
529.95325
555.9422
568.00797
624.95908
658.19271
752.41209
787.36105
855.97468
924.51821
932.61345
1003.5948
1028.563
1116.8263
1155.7629
1263.5164
1420.7826
1525.8941
1762.6449
1954.2428
2176.1819
2422.7409
3000.6423
3154.9595
3409.8078
3635.7114
3842.3164
4118.3644
4298.4095
4633.934
4816.3084
5170.8143
5384.5327
5691.7905
5914.1238
6166.9878
6390.6827
6562.6156
6856.7274
6719.7098
7814.5199
6389.3265
11301.622
5901.5678
3649.4521
4693.6621
4281.1841
4888.8752
4838.4861
5060.61
4867.1915
4998.4067
4978.0398
4881.3638
4877.1447
4795.178
4675.4598
4616.6075
4437.2963
4382.8277
4208.1542
4171.7285
3999.5728
3927.442
3722.4727
3463.8474
3477.3224
3288.5493
3258.6681
2993.6991
3027.4683
2712.1262
2737.4182
2447.4168
2437.65
2247.515
2118.7824
2097.1975
1902.453
1841.0257
1729.7552
1586.7469
1567.4026
1432.9967
1422.4174
1305.3614
1338.6837
1240.9171
1281.2319
1232.4275
1256.5079
1215.5452
1218.9671
1170.1981
1140.4997
1095.6685
1057.8667
1018.9397
1000.1777
980.42306
984.60417
997.89849
998.89393
1051.3702
1054.1396
1093.4924
1125.3199
1173.634
1182.8797
1265.0884
1352.0289
1415.7237
1523.6438
1634.2195
1740.5443
1845.1136
1974.0716
2121.2805
1954.9057
2322.435
2336.8025
2687.6721
2765.2097
3140.8577
3236.2484
3646.0504
3737.5917
4185.2962
4250.8535
4785.9327
4812.739
5454.4388
5496.8497
6233.1909
6391.2833
7437.2331
6984.9709
11209.496
6656.6684
5764.6533
6613.4477
6560.2083
7240.4819
7163.896
7297.2928
7159.9551
7286.7723
7084.8141
6907.4333
6735.0962
6495.7699
6172.8186
6047.127
5611.781
5705.6258
5190.7402
5385.1295
4922.8622
5197.5958
4844.9875
5040.849
4900.3781
4652.7602
4343.5231
4080.3982
3731.9219
3403.8207
3148.7163
2842.5861
2726.6084
2387.571
2423.6571
2053.4152
2033.5396
1790.2918
1651.6283
1481.3482
1259.8655
1140.7483
918.53309
876.53833
731.71396
734.75155
667.98408
689.04916
624.39842
620.27061
529.14294
456.1542
327.83706
220.23445
79.848984
-14.184879
-102.36272
-141.41436
-149.75773
-122.45265
-65.057914
9.0147878
91.839809
171.58359
293.42691
347.12106
501.53841
609.29277
730.10657
873.78832
1063.3994
1250.4321
1452.8824
1657.038
1990.8472
2248.6628
2718.5845
2775.1686
3089.7558
3216.7602
3503.8056
3720.62
4025.0322
4295.0997
4646.5426
4941.9449
5344.3305
5633.7721
6057.2958
6355.5649
6721.393
7127.2185
7253.1384
8001.5317
7514.8746
10170.665
14815.036
10118.395
11952.141
12100.223
12763.294
12577.898
12877.474
12671.675
12743.143
12579.778
12407.731
12176.878
12007.769
11559.787
11358.846
10989.515
10701.549
10350.649
10135.939
9793.9896
9479.1333
9336.9466
9505.1435
9196.491
8903.3572
8588.1143
8223.5772
7946.6361
7594.4375
7334.6897
7057.9963
6740.2431
6554.6473
6262.9547
6061.6718
5853.9441
5516.7261
5314.3079
4905.4223
4699.3054
4276.4305
4083.7406
3706.7386
3541.5904
3257.3119
3122.0016
2935.1817
2824.0673
2693.0599
2591.7186
2476.931
2381.2556
2283.0569
2201.0349
2136.7787
2093.9896
2071.07
2067.1483
2080.0179
2091.3203
2105.0931
2107.2029
2097.4705
2071.3409
2029.6855
2003.3661
1956.8339
1956.4115
1990.7078
2033.1341
2089.3837
2148.8249
2350.9286
2297.2944
2476.9633
2572.3774
2662.1494
2860.101
3044.6352
3239.1339
3477.8034
3657.289
3892.7573
4070.9417
4299.8408
4441.8845
4675.1343
4797.0604
5038.9573
5244.3723
5577.3317
5940.5251
6909.1781
6957.0691
10160.55
22828.208
18924.389
19885.52
19327.092
19292.09
18929.469
19102.957
18572.394
18695.975
18252.543
17977.779
17656.113
17024.2
16624.267
16040.652
15419.56
15006.908
14303.008
14053.344
13294.682
13110.735
12385.119
12097.394
11347.844
11122.06
10157.26
9777.8572
8906.0816
8333.0888
7727.3528
7110.1802
6733.2699
6184.6965
5943.279
5478.7931
5181.9267
4867.7658
4504.6855
4242.0626
3817.4031
3579.7909
3194.7798
2958.5727
2663.9958
2443.8367
2191.7916
1984.511
1707.3757
1456.7996
1132.4169
813.56833
454.00086
118.50212
-211.50923
-478.45909
-689.47899
-823.24568
-874.55127
-861.3159
-784.00719
-675.7328
-523.84232
-402.17518
-216.21718
-119.89252
82.311055
153.86077
340.16815
448.24704
600.71879
698.6561
969.29133
932.46687
1254.2366
1279.7434
1545.2091
1606.6111
1800.7851
1924.4047
2194.0206
2410.6581
2755.8622
3094.5519
3544.194
3948.0332
4481.083
4925.0231
5489.0265
5971.1836
6503.6481
7023.7041
7453.4238
7959.6416
7970.7596
9253.7461
33231.875
26712.227
27004.804
25427.73
26476.257
26056.487
26394.832
26352.209
26520.379
26261.499
26099.525
25573.331
25249.191
24530.447
23947.105
23159.403
22582.746
21678.629
21393.666
20431.029
20181.917
19294.065
18760.664
17976.995
17316.186
16512.613
15910.585
14965.8
14347.777
13444.319
12889.234
12142.271
11649.786
11189.102
10586.409
10232.02
9710.0451
9305.7736
8688.2059
8276.4832
7639.4051
7186.8982
6613.2496
6189.8358
5724.7771
5370.7749
5010.8681
4701.1907
4387.3903
4075.8643
3745.5779
3403.0042
3058.0908
2714.6044
2405.8083
2137.3587
1930.1752
1784.5488
1706.4224
1675.6452
1685.5354
1717.3876
1755.1731
1791.9535
1812.8234
1867.3701
1881.9473
1980.9935
1991.7875
2056.588
2244.3178
2255.5765
2516.8388
2584.0436
2771.3232
2874.4381
3060.988
3179.8029
3348.8628
3510.1051
3685.0182
3892.2947
4127.446
4348.5283
4633.8569
4855.603
5145.8997
5341.8905
5587.8733
5773.6736
5955.7645
6199.2511
6492.5904
7088.2837
8346.819
41005.329
33138.159
32351.83
30964.158
32430.264
31818.061
32518.285
32439.018
32216.268
31913.856
30969.976
30507.059
29621.209
28771.553
28234.937
27197.172
26946.542
25753.243
25602.882
24129.356
24026.542
22018.868
21781.244
19739.104
19218.971
17826.16
17218.646
16453.945
16035.254
15776.38
15379.687
15185.568
14816.434
14444.519
13813.082
13363.61
12746.696
11996.695
11377.534
10578.898
9957.4896
9250.8144
8621.2392
7940.3019
7258.1886
6504.9908
5743.6293
4930.1969
4162.4635
3438.1727
2831.7314
2378.2835
2106.6833
2006.7858
2083.2078
2275.6297
2530.3984
2807.6879
3028.9693
3174.1933
3210.8465
3156.4494
2986.2321
2780.6936
2509.9067
2256.779
1893.752
1705.2423
1338.0366
1378.32
985.34795
1022.5292
733.84115
807.86752
720.6555
920.1443
1066.0711
1411.7439
1823.8662
2329.7847
2831.1461
3443.4206
3893.5682
4463.5565
4803.5935
5247.0286
5482.3659
5830.7237
6075.8283
6411.1289
6792.641
7304.1429
7709.1789
8503.4775
8610.1245
23371.925
23717.386
18309.997
17656.665
16673.549
16832.945
16241.157
16545.768
16532.174
17295.623
16779.045
16903.86
19362.035
20787.67
26148.769
17518.42
14868.159
11928.38
12185.896
10777.212
10852.116
10246.533
10498.271
10882.017
10637.51
10909.403
11650.785
12484.443
14908.436
18352.98
11432.529
8835.1494
5371.4776
5190.8606
4203.1373
3956.7037
3927.4017
3621.6913
3723.7598
3913.8224
4284.5016
4563.5298
5580.853
8155.1991
11510.488
7658.941
5975.666
4351.7689
3451.1742
3271.1742
2932.5915
2889.1299
2727.1347
2991.1914
3006.2469
3372.9356
3632.7562
4846.8185
6507.2367
7981.3732
4639.4542
3302.2513
1769.736
1463.3441
971.39191
899.33616
752.69389
761.49271
723.7642
849.52005
1031.303
1416.1891
2148.4102
3110.6059
5326.6272
3753.3962
2258.3426
1357.9473
1124.0609
844.66709
785.63802
665.89491
700.21117
713.57752
775.1565
951.09313
1101.804
1523.2558
2400.1286
3947.2898
1944.0782
1058.1615
541.39831
254.32361
125.61051
-14.20552
-44.988624
-93.720233
-72.306326
-6.6028246
88.606592
347.51443
637.74642
1400.7283
2597.7113
1974.1209
1104.8056
595.2179
417.77984
249.05525
196.39199
136.03861
151.10967
170.19287
207.14234
313.81676
472.89178
718.62161
1343.5964
2478.5879
2069.5081
1214.6979
574.91528
372.59542
176.62748
93.687946
51.361913
74.894009
69.209356
225.97018
278.76269
518.91
850.82781
1683.0331
2606.813
3987.4397
2769.2104
1723.3644
1405.5035
1092.488
1008.0409
938.04654
922.18491
946.17068
952.23498
1251.2521
1302.2198
1986.0794
3152.8788
4572.8621
5300.9327
3931.1967
2426.1388
2085.2045
1590.2514
1577.4685
1406.3467
1514.4523
1484.6947
1669.2072
1900.0231
2348.4278
3223.0017
4799.205
6476.5843
9616.5365
6488.7057
4981.9012
4137.4786
3711.0617
3347.3169
3317.3769
3224.9032
3334.8759
3439.6951
3870.283
3982.6707
5452.7998
7446.2196
10304.265
13672.296
10981.973
8422.2258
7577.9984
6827.3998
6766.8027
6418.0709
6721.6828
6765.284
6645.4195
7250.308
7506.6158
8983.5534
11923.527
14645.088
22852.66
17730.861
15308.837
14062.028
13341.482
12992.911
13431.899
13581.48
13471.329
13235.64
13467.983
13958.58
15368.108
17948.534
23910.227
30570.69
30809.513
24584.55
23895.742
22755.208
21542.491
23085.807
24192.691
22461.867
23599.517
22895.677
23582.594
25289.274
28588.199
34829.864
73692.524
65265.802
64675.12
66448.615
68041.631
67200.627
70324.263
73017.409
74087.521
73858.956
71852.183
68561.691
68347.138
69636.306
68000.393
55468.1
46203.43
46617.465
45350.505
42508.41
45696.007
44427.057
44473.462
47627.015
44152.235
45462.823
43800.333
47559.348
51545.482
57537.138
40099.535
41883.128
39395.564
38183.751
40712.725
35462.829
35188.268
35462.886
32362.064
37372.882
36625.606
42109.017
41444.805
40431.027
42893.605
39115.479
43344.313
42609.039
39583.303
39039.519
39105.919
38208.119
38854.958
39120.069
38346.627
40357.807
40910.272
42487.254
43693.686
40888.814
41579.358
42334.554
40792.756
43591.952
41350.126
41262.523
41798.235
41071.014
41796.486
44135.503
42432.239
43981.038
42321.066
42382.506
42135.142
38252.963
41080.895
41118.067
41349.571
41208.239
41058.608
40419.161
40354.495
40817.005
39881.542
41585.217
41186.554
41472.35
41680.43
39276.571
39328.944
41097.113
41372.265
41253.461
41469.396
41783.55
42037.305
41936.201
42261.607
42655.997
41899.214
42484.059
41700.083
40660.002
40953.717
39237.133
39620.779
40560.697
41363.619
41667.099
41348.725
41389.273
41711.88
41197.827
41906.998
41699.327
41539.984
41123.262
39831.303
40020.905
38508.631
40038.039
40310.883
40954.459
40377.719
41139.854
40955.417
41237.251
41433.806
41101.353
41078.563
40565.729
40439.251
39999.329
39350.637
39143.677
38651.512
39594.712
39678.296
40241.666
40061.514
40356.128
40294.853
39655.098
40863.36
39817.332
40711.063
39793.783
39488.944
40103.295
38185.251
38938.924
39081.125
39712.855
39462.966
40042.93
39851.501
40041.48
40524.227
39744.461
40664.358
39859.959
39970.877
39760.951
39838.67
38731.588
37707.124
38341.994
38346.723
38662.016
38640.351
38726.143
38615.597
38255.833
38713.56
38107.069
38401.506
38042.814
37838.434
39093.89
37630.825
37525.508
37195.61
37926.913
37634.585
37907.627
37993.738
37912.274
38462.961
38306.821
38593.874
38483.514
38504.024
38680.822
38872.226
36995.358
36273.723
36933.964
36290.024
36685.355
36933.913
36824.939
36525.716
36225.334
36251.27
35862.263
36134.004
35885.192
35656.755
37476.451
36098.439
35117.431
35273.87
35896.52
35962.554
35580.755
35504.62
35698.548
36087.336
36173.509
36707.31
36625.223
36766.322
37114.547
37501.671
34697.396
34329.94
34721.514
34457.835
33931.31
34631.849
34640.38
34228.511
33955.987
33905.29
33308.888
33617.14
33533.191
33423.433
34958.946
33573.905
32566.017
32814.501
32864.132
33513.101
33197.84
33150.815
32938.013
33581.094
33458.662
34173.299
34149.643
34173.303
34009.659
35755.777
32228.863
32047.539
31999.459
32020.001
31547.295
32042.114
31700.908
32146.399
31772.315
31891.207
31354.405
31298.443
31215.271
31366.144
31889.018
31441.062
30681.038
31286.416
30900.349
31213.994
30694.647
31416.432
30663.473
31089.083
30995.268
31019.694
31458.974
31771.25
31757.445
33452.188
29935.287
29642.555
29481.589
29793.568
29604.347
30031.896
29831.459
29912.827
29918.877
29910.423
30248.545
30103.565
29800.558
29672.981
30373.402
29726.856
28966.591
29531.468
28968.659
29145.794
28701.453
29281.398
28963.315
29184.372
28729.439
28984.145
29014.105
30031.047
29565.466
30950.607
28326.965
28271.637
27975.392
28385.198
27914.693
28611.916
27899.652
28347.799
27721.544
28991.026
28444.487
28816.518
28088.544
27625.492
30243.867
28617.091
27046.824
27810.862
27093.221
27500.425
27221.986
27423.237
26993.96
27525.904
27073.508
26819.21
26957.465
27264.427
27348.769
29447.934
26971.402
26929.065
26437.28
26739.755
26219.482
26106.894
25991.736
26049.847
26145.574
26130.249
26382.091
26847.291
27205.452
26493.577
29694.263
27348.126
25511.154
25449.878
25059.333
25532.502
24990.036
25691.141
25164.846
25385.704
25189.346
25559.858
25612.179
25264.976
25192.417
28133.301
25357.73
24375.052
24542.335
24367.72
24125.636
24452.21
23905.483
23967.523
23986.78
23979.208
24072.913
24433.723
25199.064
25210.997
27049.169
24747.421
23350.117
23559.636
22963.694
23525.97
22789.691
23078.9
22933.594
22991.809
23029.704
23159.619
22311.722
23079.167
22202.543
26069.442
22890.566
21694.291
21448.558
21977.292
21117.428
21193.769
21302.56
21121.48
21491.065
21317.626
21731.018
22188.759
21989.016
22358.593
23999.542
21733.256
20611.609
20300.561
19906.294
20090.633
20078.507
20051.055
19982.811
20000.558
20056.5
20075.743
20512.662
20257.384
19648.794
23149.192
19656.589
18521.082
18866.813
18744.736
18694.898
18627.872
18545.53
18532.735
18403.069
18413.829
18443.106
18410.026
19500.114
18721.314
20524.221
18766.175
17925.635
18204.472
17604.627
17855.148
16960.036
17565.568
17176.322
18143.412
17490.358
17627.751
17513.114
17441.125
17218.629
18821.57
17405.524
16362.697
16447.006
16256.604
16347.222
16325.47
16400.068
16354.754
16231.394
16205.637
16304.728
16409.389
16493.369
16456.289
17625.355
15954.711
15138.989
15532.831
15315.223
15538.032
15278.907
15593.828
15208.047
15593.847
15340.356
15722.49
15462.554
15684.015
15554.639
16136.312
14880.468
14350.106
14666.908
14497.954
14660.917
14539.718
14666.703
14635.804
14728.687
14746.297
14738.06
14837.743
14876.925
14768.186
15187.131
14003.651
13592.137
14012.527
14135.105
13975.277
13916.658
14134.392
14016.715
14211.046
14184.204
14384.952
14345.307
14449.436
14545.994
14766.679
13314.887
13131.662
13418.783
12923.177
13376.473
13270.648
13460.069
13328.407
13704.669
13143.628
13775.165
13566.639
13858.449
13643.776
14227.733
12439.096
12373.378
12920.036
12731.293
13029.251
12677.731
13073.407
12782.422
13045.268
13384.527
13182.042
13324.989
13203.309
13416.525
13524.926
12260.607
12425.85
12546.908
12580.561
12455.806
12538.182
12528.579
12527.908
12680.026
12424.185
12781.699
12566.984
13006.051
12839.839
12901.761
12120.665
11596.094
12053.565
11720.143
12145.486
11730.166
12133.105
11823.127
12058.469
12023.858
12088.167
12280.119
12267.515
12218.588
12622.395
11304.641
11173.618
11352.839
11391.092
11335.395
11281.87
11385.189
11209.149
11498.532
11221.292
11599.694
11391.921
11586.466
11617.436
11906.644
10880.096
10509.103
10859.672
10550.541
10834.476
10504.854
10767.69
10571.523
10710.438
10670.439
10766.053
10760.242
10906.549
10826.762
11250.998
10102.015
9914.761
9984.1378
9973.4931
10030.354
9834.3511
10061.436
9759.6466
10059.79
9823.3359
10020.091
10013.478
10045.983
10052.508
10593.263
9537.8248
9151.3248
9409.7372
9192.809
9365.1912
9119.1631
9308.7132
9111.5863
9289.0571
9125.7715
9313.5061
9242.9344
9301.1631
9296.6065
9939.8364
8784.4273
8563.997
8630.7389
8536.0989
8658.2194
8408.8418
8647.4156
8380.2035
8579.1108
8439.502
8535.6299
8552.0755
8569.9446
8540.4289
9424.185
8322.2782
7916.5171
8085.8098
7932.775
8057.2579
7822.3195
8040.7609
7780.0887
8001.1426
7803.9966
7953.4859
7946.877
7963.3181
7907.0526
9066.913
7813.3586
7431.4175
7534.9788
7389.9885
7493.4714
7268.8051
7467.0204
7242.2088
7390.5893
7279.4671
7364.0795
7396.4355
7446.0189
7313.1834
8881.9398
7552.4483
7001.3677
7122.5636
6947.8524
7074.9308
6815.2335
7051.4735
6762.1394
6970.6573
6816.8841
6905.8876
6960.5204
7030.4122
6819.9183
8820.121
7322.8576
6643.2583
6742.4347
6574.9155
6616.9072
6382.8814
6550.6976
6325.0272
6477.1619
6364.3605
6445.2183
6522.3845
6653.141
6349.3871
8838.5239
7177.8727
6307.1932
6418.4685
6165.3078
6257.1258
5978.7464
6205.5828
5925.1231
6096.8553
5972.2039
6047.2693
6125.1241
6295.9607
5892.586
8801.7735
6999.6535
5962.7337
6016.0785
5803.1866
5811.7103
5541.1115
5687.2595
5429.6902
5575.2452
5470.1035
5545.8591
5629.0439
5865.9232
5373.6652
8645.4633
6743.4953
5508.5986
5607.1917
5297.0819
5326.1674
5028.2743
5228.5714
4957.2756
5109.9435
4988.3715
5054.2806
5120.4977
5370.0762
4809.4289
8257.8156
6311.0949
5005.126
5035.7155
4753.395
4755.1272
4475.7937
4607.0344
4328.4602
4454.7837
4334.5788
4409.1553
4455.629
4732.2159
4142.7454
7616.3341
5738.9541
4330.1364
4412.1438
4094.0088
4104.2306
3792.2781
3962.323
3702.6432
3841.7117
3713.6792
3774.7367
3786.1785
4038.6462
3443.2655
6711.6311
4948.7552
3611.1202
3685.97
3383.4235
3385.5626