/*--------------------------------*- C++ -*----------------------------------*\
  =========                 |
  \\      /  F ield         | OpenFOAM: The Open Source CFD Toolbox
   \\    /   O peration     | Website:  https://openfoam.org
    \\  /    A nd           | Version:  6
     \\/     M anipulation  |
\*---------------------------------------------------------------------------*/
FoamFile
{
    version     2.0;
    format      ascii;
    class       pointVectorField;
    location    "0.19";
    object      lm;
}
// * * * * * * * * * * * * * * * * * * * * * * * * * * * * * * * * * * * * * //

dimensions      [1 -2 -1 0 0 0 0];

internalField   nonuniform List<vector> 
625
(
(0 0 0)
(0 0 0)
(3481.8355 160.6474 78.851033)
(3344.3603 -756.35933 25.612405)
(0 0 0)
(0 0 0)
(3387.5267 -793.35942 21.706628)
(3524.2983 113.94626 76.966306)
(0 0 0)
(0 0 0)
(0 0 0)
(3444.176 -71.952751 62.293991)
(3408.0504 -295.76773 49.62669)
(3379.5089 -521.37112 38.706465)
(23.907272 68.605637 54.095715)
(81.009534 126.55463 55.863193)
(176.03725 176.47457 45.937835)
(296.1942 218.6398 37.835699)
(435.38266 247.03222 28.856201)
(587.97801 264.61728 19.534691)
(748.88652 271.28027 10.647655)
(911.91876 267.12504 0.89881161)
(1073.0144 253.98361 -7.7615146)
(1227.9391 234.18787 -17.436214)
(1372.5481 210.9885 -24.954617)
(1504.6592 187.6812 -29.879758)
(1624.1727 168.35424 -30.569797)
(1733.0603 156.70092 -25.340934)
(1836.2822 155.30882 -13.774763)
(1941.401 164.36112 3.3569464)
(2057.6923 182.96863 23.73961)
(2194.32 205.1016 44.469249)
(2357.2668 226.94109 61.089831)
(2549.3543 239.76476 72.819556)
(2768.1009 241.34031 77.75763)
(3004.3561 227.89104 78.165778)
(3248.0627 197.18322 76.99442)
(8.0944021 -62.135325 -79.044641)
(82.340575 -121.78848 -60.642237)
(184.02655 -182.21621 -53.852639)
(299.06412 -225.19727 -44.586915)
(437.09265 -261.97192 -34.946904)
(588.99846 -288.3795 -26.185881)
(744.83183 -306.53869 -18.588456)
(904.74089 -316.54184 -11.785388)
(1060.5118 -320.39342 -6.5248868)
(1210.1163 -318.48869 -3.7618762)
(1348.3827 -313.1237 -3.3275857)
(1474.5441 -306.61847 -5.9243823)
(1587.2011 -301.55182 -11.570824)
(1689.0608 -302.11155 -19.533498)
(1784.7657 -311.63625 -28.844534)
(1881.3446 -333.40199 -38.022315)
(1987.8024 -369.21411 -44.790748)
(2112.5721 -418.41328 -47.864202)
(2262.8653 -478.6151 -45.194791)
(2441.6136 -544.36385 -37.075756)
(2647.6473 -610.11785 -23.489974)
(2873.4072 -669.60157 -6.8297475)
(3110.3862 -717.57189 10.369814)
(0 0 0)
(0 0 0)
(0 0 0)
(25.631591 -39.532839 55.636244)
(93.375786 -147.58203 59.754567)
(186.45142 -173.48831 38.730812)
(310.19789 -229.31532 30.069465)
(449.56445 -264.89477 21.079893)
(598.88147 -288.88786 10.055903)
(758.40296 -304.9112 1.6188535)
(914.6921 -313.48026 -6.4145941)
(1070.901 -314.85309 -14.269865)
(1218.0562 -310.96878 -20.621019)
(1354.5732 -305.38984 -24.895957)
(1478.5679 -300.04496 -26.694935)
(1589.8991 -299.18386 -24.714076)
(1691.4904 -306.03817 -19.030524)
(1788.2743 -323.65108 -9.6313471)
(1887.8868 -354.25684 2.1159115)
(1999.0239 -398.20893 14.251871)
(2130.1895 -454.06639 24.51018)
(2287.4328 -518.43881 30.873995)
(2473.4164 -586.28325 32.50075)
(2684.6674 -651.67622 30.104412)
(2915.1004 -709.9824 25.689093)
(3153.0046 -756.85429 22.978783)
(3421.8016 -558.46537 34.72493)
(3447.4176 -338.13186 50.83454)
(3487.0345 -119.06889 67.285276)
(3291.7926 151.30951 62.690318)
(3047.0583 179.81581 44.624182)
(2806.2657 193.95085 24.382328)
(2580.0338 194.89753 3.9253789)
(2377.5631 185.20473 -13.095465)
(2203.4536 170.76938 -25.478234)
(2057.3063 157.3357 -31.934615)
(1934.3632 149.51831 -32.480435)
(1826.3038 150.69811 -27.913216)
(1724.2152 160.88726 -19.862785)
(1619.344 178.70488 -10.184683)
(1505.5692 201.3132 -1.2219306)
(1379.0489 224.71502 5.783479)
(1239.2748 246.50723 9.7278081)
(1087.9724 261.64521 9.8016745)
(927.79882 273.4523 6.4152549)
(764.69413 271.82605 1.4350487)
(602.09475 263.2049 -7.4307728)
(449.89221 243.24065 -15.802737)
(305.61556 212.9306 -27.600784)
(182.99256 172.94049 -39.656537)
(86.67865 119.90509 -44.221881)
(37.005294 62.235824 -44.266718)
(0 0 0)
(0 0 0)
(0 0 0)
(0 0 0)
(0 0 0)
(0 0 0)
(3354.5647 -770.64746 23.119089)
(3367.3994 -781.70388 23.783259)
(3375.8585 -790.58797 23.744344)
(3496.5296 153.27271 79.307755)
(3508.5393 141.88503 77.961297)
(3517.5232 129.80261 76.637679)
(-0.14161368 29.950249 34.953924)
(63.156936 53.337829 23.135053)
(160.74301 76.487895 20.643946)
(283.93287 95.204306 15.811125)
(426.21247 108.52626 11.255176)
(581.81937 116.04835 6.826239)
(744.82441 117.84751 2.0711149)
(909.48947 114.4088 -2.2509921)
(1071.1201 106.8503 -7.3743516)
(1225.8481 95.912071 -12.350215)
(1369.2993 83.949803 -16.640662)
(1499.9863 72.143249 -20.23938)
(1616.9586 62.742096 -21.554436)
(1722.5582 57.052182 -19.73678)
(1821.6465 54.924095 -14.396651)
(1921.9837 56.378376 -5.4043602)
(2032.9341 58.399995 6.4120272)
(2163.8563 58.832514 19.235244)
(2322.1357 55.03354 31.807543)
(2510.715 43.093817 42.264538)
(2726.6161 23.089278 49.574629)
(2963.0287 -3.4523693 55.842507)
(3209.3555 -37.564097 59.43494)
(-7.7000854 0.7448299 -1.7883702)
(57.902059 -2.1582601 -4.5286986)
(156.96907 -1.9646613 -3.5389589)
(279.49664 -3.2072805 -2.6994559)
(422.91642 -7.01391 -3.1501267)
(578.67981 -10.494824 -3.4703179)
(741.26719 -15.451766 -4.3352367)
(905.88875 -21.847861 -5.9562764)
(1067.5274 -30.011184 -8.2685498)
(1221.7595 -39.002314 -11.407901)
(1364.436 -48.711749 -14.927875)
(1493.7871 -58.154975 -18.563525)
(1608.6823 -66.440958 -21.03744)
(1711.7609 -73.409441 -22.001909)
(1807.8201 -79.131489 -20.470863)
(1905.0011 -84.809041 -16.213404)
(2012.6652 -92.50329 -9.4961916)
(2140.6656 -104.12524 -0.95880165)
(2295.7535 -122.28655 8.6567244)
(2481.532 -147.42502 17.851601)
(2695.5473 -179.99056 27.612064)
(2929.9009 -217.48229 35.093382)
(3176.3928 -258.04154 43.640356)
(-11.441585 -25.489307 -28.791111)
(61.193676 -47.51073 -31.993212)
(159.84173 -75.030966 -27.128937)
(282.58412 -99.960048 -24.057176)
(425.7935 -120.41241 -19.747575)
(579.95835 -136.61564 -15.39198)
(742.3961 -149.91892 -12.355861)
(906.29009 -160.60247 -9.5094465)
(1066.7191 -169.05424 -8.1029862)
(1219.4953 -176.06153 -7.7920747)
(1360.4557 -181.7109 -9.2460411)
(1487.4254 -186.58824 -11.826226)
(1599.6881 -191.46821 -15.530382)
(1699.7033 -197.06796 -19.601358)
(1792.7534 -205.32737 -23.046622)
(1887.071 -217.62052 -25.253051)
(1992.2654 -236.22381 -25.201071)
(2118.2561 -262.40512 -22.440362)
(2271.9458 -296.46233 -16.930705)
(2456.8126 -338.39174 -8.1226299)
(2669.3133 -384.56951 1.6811654)
(2902.7595 -433.96054 13.985325)
(3145.0349 -480.54001 25.965107)
(0 0 0)
(0 0 0)
(0 0 0)
(0 0 0)
(0 0 0)
(0 0 0)
(0 0 0)
(0 0 0)
(0 0 0)
(37.194952 -27.822711 -32.647528)
(45.266613 -36.257115 -6.2816688)
(40.620092 -26.890541 18.529378)
(117.19986 -137.39235 -32.513258)
(117.58442 -137.08126 -2.3624191)
(114.26003 -133.06663 29.871868)
(199.95937 -183.37098 -26.9134)
(205.03326 -178.8954 -4.3944837)
(205.44892 -185.23353 20.120425)
(314.88264 -230.50626 -24.015034)
(324.32346 -229.67539 -4.8374905)
(319.04033 -230.26858 13.766582)
(452.70161 -267.9045 -19.243519)
(455.32311 -268.12797 -6.4160478)
(457.16533 -269.04794 8.5538649)
(596.48024 -294.23135 -15.514926)
(602.26426 -291.07028 -6.0682198)
(602.57469 -292.36323 2.6354453)
(751.34147 -310.53293 -12.704889)
(754.80108 -310.50919 -8.0110973)
(757.49606 -310.29918 -2.6533768)
(906.66948 -320.526 -9.1824536)
(910.508 -317.96609 -8.9510627)
(912.08519 -317.91524 -6.5350498)
(1060.7044 -322.46567 -7.9078707)
(1062.2257 -320.8771 -10.426937)
(1065.1404 -319.9791 -11.632112)
(1207.3825 -319.46182 -7.8684189)
(1208.2894 -317.50853 -12.805544)
(1211.7752 -315.73819 -16.208387)
(1344.7473 -312.47213 -9.1988878)
(1344.8108 -310.81044 -15.80436)
(1348.0981 -309.00631 -19.840152)
(1470.6898 -304.77977 -12.432179)
(1469.9355 -303.91173 -18.800696)
(1473.2015 -302.34216 -22.182009)
(1584.7903 -299.29598 -16.658464)
(1584.0665 -299.72965 -21.339433)
(1586.9388 -299.17534 -22.450882)
(1689.7933 -300.32897 -21.532906)
(1689.4241 -302.63855 -22.968034)
(1691.8025 -303.66303 -20.266543)
(1789.7264 -311.43485 -26.124623)
(1790.5614 -315.87845 -22.88713)
(1792.4441 -318.8954 -15.353077)
(1891.5384 -335.79426 -29.553372)
(1894.2478 -342.5638 -21.055769)
(1895.6053 -347.76428 -8.3457329)
(2002.9819 -374.9031 -30.853148)
(2007.9174 -383.66421 -17.421805)
(2009.2136 -390.90746 -0.33276875)
(2131.9727 -427.75873 -29.590022)
(2139.4893 -438.17763 -12.611465)
(2141.0251 -446.9964 7.3824441)
(2284.4902 -491.19324 -25.253931)
(2294.1118 -502.28284 -6.8662701)
(2296.597 -512.26955 13.406819)
(2463.3706 -559.41302 -18.077079)
(2474.8536 -570.87389 -0.94582576)
(2478.7502 -581.37178 17.085419)
(2667.0179 -626.0634 -8.2896886)
(2679.2319 -636.80834 5.2757013)
(2684.8161 -647.53675 18.900221)
(2889.7743 -685.58642 2.5864793)
(2902.0586 -695.91711 11.47752)
(2909.5675 -706.12178 19.563594)
(3122.7728 -733.04538 13.360016)
(3134.604 -742.71924 17.347515)
(3144.3913 -752.18324 21.02079)
(3459.2085 -80.597498 64.693839)
(3472.0398 -91.783918 65.429238)
(3480.0487 -103.6788 65.718688)
(3421.2417 -305.98603 51.091494)
(3433.3182 -317.7528 51.270353)
(3441.5135 -327.02003 50.895123)
(3389.8041 -534.60978 37.808777)
(3403.1127 -545.95851 36.959157)
(3411.8127 -553.99298 36.391339)
(52.534584 58.819719 24.055149)
(53.690218 63.568798 6.0200711)
(53.645882 63.253584 -16.14154)
(105.32968 123.88363 28.496617)
(111.23366 124.72566 3.5637689)
(112.29915 122.41875 -22.705088)
(199.63681 177.99138 24.168619)
(202.91683 176.91203 5.274431)
(201.29431 177.75812 -20.179691)
(313.74546 219.00745 19.886559)
(318.681 219.36007 3.8144658)
(318.04924 220.07408 -13.633005)
(448.65442 249.14851 16.796397)
(455.37309 248.3287 5.7668654)
(455.26572 248.84723 -5.4616966)
(598.73198 267.65704 12.245778)
(603.62801 267.49517 6.3990851)
(605.49211 267.8211 -1.6208931)
(755.76498 274.43361 7.3593272)
(760.12454 273.58819 5.1807495)
(762.59553 273.84855 3.5044955)
(915.47694 271.22272 2.4200025)
(919.77611 271.06177 4.8703359)
(922.9925 271.32985 5.012538)
(1073.85 258.94812 -2.5313098)
(1075.8212 259.97033 1.0585847)
(1080.0929 260.07719 5.9853756)
(1225.347 240.91071 -10.122751)
(1227.2196 239.46109 -1.9636267)
(1230.442 241.28737 3.4964381)
(1367.6713 217.03524 -15.77943)
(1367.6235 216.66365 -8.0039936)
(1370.6322 218.18443 -1.6010064)
(1498.8518 192.02191 -21.586214)
(1497.2863 192.2398 -13.927181)
(1499.5653 193.80483 -8.0624677)
(1618.6218 169.72743 -24.496112)
(1615.9242 170.21282 -18.924379)
(1617.0196 171.71715 -15.430904)
(1729.627 153.74324 -23.728231)
(1726.5461 154.44337 -21.710665)
(1726.5096 155.6937 -21.916865)
(1836.8225 147.39583 -17.99985)
(1834.4519 147.69534 -20.811262)
(1833.6588 148.42736 -25.65737)
(1947.595 151.75038 -7.465196)
(1947.0424 151.17385 -15.41893)
(1945.8412 151.08626 -25.482622)
(2070.2301 166.41786 7.3507777)
(2072.1321 164.21429 -5.7946522)
(2071.6994 162.56683 -20.444515)
(2212.4768 187.10336 23.723053)
(2217.7154 182.80736 7.1336287)
(2218.2386 179.70134 -10.85837)
(2379.7495 208.74735 39.996977)
(2387.7834 202.15188 21.771633)
(2390.3925 196.92125 2.6661547)
(2573.5678 224.20925 54.392024)
(2584.3757 215.82127 36.017065)
(2588.8019 208.33203 18.534056)
(2790.5905 228.31031 62.887035)
(2802.3997 218.08032 48.93888)
(2808.9503 208.54935 35.484001)
(3023.6642 216.96163 69.608194)
(3035.4423 205.848 60.358025)
(3043.997 194.36169 51.49308)
(3263.584 189.33348 74.191685)
(3275.4295 178.03828 69.481773)
(3284.5333 165.40574 65.546825)
(1.3378771 15.448178 -26.287983)
(72.248898 55.204729 -19.230833)
(164.75976 71.115555 -15.34077)
(292.67317 90.867839 -10.826198)
(437.98978 104.08975 -5.5291073)
(594.6031 113.08177 -1.9737918)
(759.32508 117.81538 1.5193519)
(923.97217 117.34253 2.3053069)
(1084.9125 112.52737 2.1049858)
(1237.4285 104.8298 -0.25428293)
(1377.3442 94.056547 -5.0101884)
(1503.3803 81.489089 -10.030489)
(1615.6563 68.714977 -15.708285)
(1717.7185 56.74333 -20.418666)
(1815.6335 46.284797 -22.685287)
(1918.0387 37.890214 -22.00767)
(2034.3763 30.765528 -17.509425)
(2173.5961 23.13641 -9.5688863)
(2341.3638 12.977335 1.3834659)
(2539.3595 -2.0390045 14.205764)
(2763.3839 -23.570593 27.802115)
(3004.406 -51.368527 41.073086)
(3252.7079 -83.39004 54.572745)
(-6.5894737 7.2550606 4.7715054)
(67.620776 6.2270564 -0.2218838)
(165.11851 -0.31668445 1.6682329)
(293.16858 -0.85577542 0.44291095)
(436.41333 -6.0092304 0.7190016)
(592.55686 -7.6396298 0.58456824)
(755.98535 -12.653898 0.27462667)
(919.09613 -17.632171 -1.3358793)
(1079.0346 -24.863882 -2.6998068)
(1230.2823 -32.852272 -6.0507363)
(1369.0642 -42.810442 -9.2726233)
(1494.2315 -54.073723 -12.703126)
(1605.6659 -65.794578 -15.883179)
(1706.7926 -78.426973 -17.221886)
(1803.4373 -91.173083 -16.534266)
(1904.1834 -104.67968 -13.386803)
(2018.5549 -119.69094 -7.5838398)
(2155.3284 -137.84836 -0.16192864)
(2320.4875 -160.42993 8.6875461)
(2515.4553 -188.55064 17.574392)
(2736.4254 -222.4537 26.189171)
(2974.1514 -260.48356 35.34097)
(3221.5146 -301.31057 43.063192)
(-10.935401 -21.055453 25.473681)
(74.073971 -42.270899 25.920458)
(170.64439 -80.491438 28.966209)
(294.58347 -98.146524 17.317498)
(439.42519 -120.2657 14.721163)
(593.64934 -136.77637 8.7132915)
(756.72598 -148.94418 2.7886691)
(918.9269 -157.9857 -2.0093909)
(1077.8449 -164.26042 -7.8293935)
(1227.7615 -169.51748 -13.208341)
(1365.2971 -174.23535 -17.566033)
(1488.7447 -179.66341 -20.782523)
(1598.2033 -187.08719 -21.42057)
(1697.1045 -197.68241 -19.256184)
(1791.2669 -212.65504 -13.955807)
(1889.3436 -232.90612 -5.9272364)
(2000.9881 -259.49617 3.7259875)
(2135.106 -292.62164 13.416251)
(2297.8536 -332.10139 21.945161)
(2490.8311 -377.02493 27.799578)
(2709.6999 -424.97481 31.664449)
(2946.6202 -474.27262 32.981344)
(3189.3013 -520.91192 34.446741)
(14.166881 13.080101 14.441112)
(17.102739 15.834836 5.2276566)
(21.086877 13.342498 -11.219689)
(86.360633 54.430576 11.408263)
(92.24683 55.851917 0.91475478)
(89.024426 54.836317 -13.133071)
(180.24902 77.924469 9.0691148)
(185.61654 76.533385 -0.14213239)
(182.42003 76.279332 -8.7232193)
(299.98224 97.693912 7.1095893)
(305.31772 97.300376 1.8169904)
(304.13045 96.243663 -5.139497)
(439.90928 110.82065 5.3690761)
(445.62886 110.42657 2.0903658)
(445.41438 109.8131 -2.8143269)
(592.20027 118.43908 3.7223294)
(596.79418 118.13913 2.0962449)
(597.85979 117.11893 0.31255272)
(752.32163 120.32636 1.9833878)
(755.99268 120.07304 1.8180163)
(758.39234 120.39567 1.8650509)
(913.92084 117.46155 -0.56464405)
(916.8404 117.63825 0.41193664)
(920.59702 118.29345 1.8128632)
(1073.3823 110.0776 -3.8125198)
(1075.2592 110.32787 -2.2098746)
(1079.2335 112.04645 0.33748063)
(1225.683 98.835438 -7.9906531)
(1226.2286 100.29738 -6.031421)
(1230.92 101.59544 -2.4704249)
(1367.629 86.177492 -12.08875)
(1366.8068 87.905432 -10.58531)
(1371.0014 90.074759 -7.4540399)
(1497.0609 72.898302 -16.737838)
(1495.5692 75.241597 -15.502953)
(1498.7941 76.467003 -12.515417)
(1614.0985 61.306082 -19.768821)
(1611.9896 63.139522 -19.369611)
(1613.901 63.693981 -17.529919)
(1721.1332 52.145364 -20.560777)
(1719.1968 53.514617 -21.335442)
(1719.7056 52.64605 -21.132195)
(1823.1898 46.696583 -18.133507)
(1822.2883 46.59047 -20.332595)
(1821.5474 44.085561 -21.997573)
(1927.9501 44.522914 -12.042355)
(1928.8071 42.451586 -15.780145)
(1927.3587 38.186744 -19.623632)
(2043.8467 44.199602 -2.6378731)
(2047.2374 39.900074 -7.9793573)
(2046.0171 33.805683 -13.628644)
(2179.8757 43.449806 8.763903)
(2186.06 36.582362 2.4847727)
(2185.5944 29.207048 -4.631969)
(2341.7929 39.737551 21.073947)
(2350.4346 30.579157 14.026956)
(2351.9174 21.676646 6.711726)
(2531.3494 29.448934 32.777061)
(2543.2989 18.808749 26.557446)
(2546.2209 8.8732077 18.856923)
(2746.6961 11.363419 41.766551)
(2760.5194 0.88087782 37.843382)
(2765.5983 -10.269346 31.274156)
(2981.5194 -13.943751 50.732457)
(2993.8112 -25.404715 47.193729)
(3001.2127 -36.824376 43.415915)
(3224.7966 -45.211772 57.707875)
(3236.9605 -57.094212 55.957644)
(3245.7872 -68.690965 54.602806)
(6.7070811 2.4377994 -1.6892517)
(11.776992 4.6294323 -2.7879419)
(13.646995 3.8463828 1.0444088)
(79.91827 0.78309998 -4.5786514)
(85.08296 3.156648 -2.8594186)
(81.023574 1.4216737 -2.1145822)
(176.61787 -0.14446408 -4.4384638)
(181.85458 -1.3235128 -0.89772804)
(179.51521 -1.8588227 -0.72603254)
(297.46879 -3.563156 -3.5034972)
(303.32732 -2.6103537 -0.015133528)
(301.43229 -4.3597296 -0.26273687)
(436.47834 -5.9236082 -2.8413802)
(442.58528 -7.612385 0.11907484)
(441.66744 -7.7836999 -0.70411429)
(589.75644 -9.7480884 -3.1422946)
(593.56542 -10.348486 -0.38429873)
(594.61426 -10.159201 -0.023904719)
(748.50807 -14.471235 -3.7682594)
(752.47403 -16.206411 -0.84008853)
(754.61341 -15.191712 -1.0181442)
(910.37527 -21.128973 -5.0586863)
(913.02833 -21.939436 -2.657958)
(916.34159 -19.893853 -2.282333)
(1069.0395 -28.735584 -7.3437966)
(1070.5335 -29.693479 -5.2029489)
(1074.2963 -27.525817 -4.5377952)
(1220.2515 -37.677155 -10.737993)
(1221.2649 -38.370014 -8.5689722)
(1224.8771 -35.223249 -7.9197724)
(1361.046 -47.404924 -14.486189)
(1361.1616 -47.610994 -12.544401)
(1364.372 -44.733968 -12.084285)
(1488.9516 -57.216121 -18.6409)
(1488.8192 -57.519189 -16.832477)
(1490.9394 -55.164866 -16.093955)
(1604.0287 -66.62011 -21.633746)
(1603.9764 -67.034486 -19.806985)
(1604.573 -65.787227 -19.564973)
(1708.7569 -75.448287 -23.224612)
(1709.3345 -76.411849 -21.374132)
(1708.5179 -76.676588 -21.226939)
(1808.2468 -83.432693 -22.150672)
(1810.0351 -85.602868 -20.221081)
(1808.0995 -87.883525 -20.265085)
(1910.1735 -92.042156 -18.319123)
(1913.7646 -95.763514 -16.287089)
(1911.286 -99.867681 -16.544024)
(2023.4018 -102.29091 -11.688253)
(2029.0982 -107.8779 -9.6228657)
(2026.8975 -113.87714 -9.9516776)
(2156.6192 -116.2898 -3.1885072)
(2164.4797 -124.0091 -1.1054789)
(2163.5151 -131.25936 -1.6338031)
(2315.6891 -135.60384 6.6646959)
(2325.7173 -145.0567 8.4108114)
(2326.5768 -153.65077 8.0666517)
(2503.9186 -161.09743 16.237333)
(2514.5954 -172.94943 18.207205)
(2518.1768 -181.6592 17.364833)
(2718.2716 -193.08745 27.159797)
(2727.2226 -205.17164 26.914166)
(2734.8247 -214.93044 26.179701)
(2948.6214 -230.26844 34.450406)
(2960.9821 -241.18828 35.98238)
(2968.1371 -251.62392 34.849969)
(3191.1439 -269.15913 42.633354)
(3203.5166 -281.51616 42.902907)
(3212.6014 -290.90085 42.699655)
(9.2233194 -15.78029 -12.316242)
(7.9660872 -14.559966 -0.35948798)
(7.0474958 -13.264067 11.070121)
(89.903763 -47.123808 -18.729994)
(93.834184 -41.584148 -1.6948843)
(90.088725 -43.437977 11.596423)
(182.10613 -78.973678 -16.058658)
(187.99905 -81.569712 -3.3024029)
(186.3966 -81.473051 10.623929)
(302.49225 -104.75471 -13.793098)
(305.78568 -103.89449 -1.9413283)
(305.95927 -103.19561 8.247725)
(440.74103 -124.60349 -12.118989)
(445.63655 -125.18738 -3.9070528)
(446.53052 -124.86915 3.363345)
(591.39526 -141.56386 -10.060093)
(595.06607 -142.03926 -3.7441287)
(597.30763 -141.17475 1.9035809)
(749.49343 -154.20842 -8.5194309)
(753.43715 -154.50586 -4.7411468)
(755.97457 -152.8132 -1.3993098)
(909.63934 -164.09248 -7.6862557)
(912.46344 -163.9164 -5.8538255)
(916.0258 -162.51305 -4.0046678)
(1066.4591 -171.31019 -7.4769979)
(1069.1837 -170.80418 -7.4490002)
(1072.699 -168.57573 -7.5766795)
(1216.5666 -176.7668 -8.4065277)
(1218.2532 -175.46091 -9.9669783)
(1221.9337 -173.4119 -11.219498)
(1355.6621 -180.52369 -10.459102)
(1356.5331 -179.29508 -12.773664)
(1360.0191 -177.37094 -14.875213)
(1482.2128 -184.06279 -13.243206)
(1482.4004 -182.65731 -15.745531)
(1485.2353 -181.37655 -17.982816)
(1595.7809 -188.07173 -16.518235)
(1595.3134 -187.20085 -18.16768)
(1597.5688 -186.99983 -19.647742)
(1698.8919 -194.1277 -19.489121)
(1698.464 -194.11939 -19.415667)
(1700.0613 -195.60423 -19.391808)
(1796.6679 -203.97426 -21.333501)
(1796.7367 -205.39904 -18.83867)
(1797.8911 -208.7208 -16.586709)
(1896.6211 -219.29949 -21.565519)
(1898.0935 -222.57374 -16.173196)
(1898.9947 -227.68605 -11.458569)
(2007.6574 -241.73873 -19.574499)
(2010.8576 -246.8704 -11.642454)
(2012.1594 -253.59752 -4.439396)
(2138.3303 -271.91977 -15.362524)
(2144.006 -279.15278 -5.5376505)
(2146.1573 -287.03394 3.2480961)
(2294.99 -309.84097 -9.1233038)
(2302.7443 -318.56001 1.2563604)
(2306.291 -327.16001 10.826063)
(2479.9215 -353.88845 -0.91992837)
(2490.0183 -364.08504 8.4512933)
(2495.4931 -372.88236 17.218145)
(2691.0691 -401.47731 7.8621696)
(2701.6547 -412.21471 15.805133)
(2709.1057 -421.01271 22.392071)
(2920.3694 -450.29955 17.859517)
(2932.3827 -461.10278 23.188042)
(2941.3355 -469.70229 27.109262)
(3158.3726 -496.06338 27.540803)
(3170.4528 -506.64129 29.34907)
(3180.1322 -515.20696 31.265857)
)
;

boundaryField
{
    free
    {
        type            zeroGradient;
    }
    fixed
    {
        type            fixedValue;
        value           uniform (0 0 0);
    }
    traction
    {
        type            zeroGradient;
    }
}


// ************************************************************************* //
