/*--------------------------------*- C++ -*----------------------------------*\
  =========                 |
  \\      /  F ield         | OpenFOAM: The Open Source CFD Toolbox
   \\    /   O peration     | Website:  https://openfoam.org
    \\  /    A nd           | Version:  6
     \\/     M anipulation  |
\*---------------------------------------------------------------------------*/
FoamFile
{
    version     2.0;
    format      ascii;
    class       pointScalarField;
    location    "1.32";
    object      p;
}
// * * * * * * * * * * * * * * * * * * * * * * * * * * * * * * * * * * * * * //

dimensions      [1 -1 -2 0 0 0 0];

internalField   nonuniform List<scalar> 
3969
(
-1263611.4
1819246.9
-169.20897
-661.18228
-2496916.6
3533921.6
-820.36474
369.50398
-1046189.1
-720487.51
-362027.2
-14217.89
258851.67
641011.19
676796.08
1077.4764
1634.3492
1579.9835
472.88604
-731.75222
-1451.9185
-1242.5414
-351819.93
-417411.68
-399656.26
-424719.35
-406826.24
-409898.44
-389310.17
-379153.33
-360766.26
-342699.92
-327086.55
-310185.9
-294897.34
-278970.85
-263547.64
-247229.97
-233216.36
-218248.86
-205011.76
-191072.7
-178860.33
-166608.15
-155124.57
-144815.36
-134151.94
-124574.57
-115459.18
-106998.41
-99027.663
-91092.306
-83669.916
-76499.443
-69466.472
-62605.301
-56096.948
-49733.144
-43248.049
-37252.049
-31097.192
-25617.994
-20274.615
-15321.696
-10976.419
-6648.3506
-3893.8487
-1225.692
115.61005
442076.54
385957.36
429600.58
390019.23
422966.31
385821.64
393240.96
367925.97
362824.19
342457.54
331428.06
317165.19
301496.7
288804.62
273497.97
259467.12
246526.69
231756.24
219776.34
206791.83
193403.64
183212.38
170337.07
159948
148656.01
138090.83
127579.55
117634.86
108311.65
98891.467
90969.307
82121.255
74468.878
66505.575
59134.1
51946.235
45190.236
38432.31
32251.957
26162.279
20726.086
16025.059
11635.933
7965.1378
4578.3774
2022.9246
361.7343
-1785160.9
-1323246.1
-535771.6
77749.202
615400.55
1219274.6
1019377.5
484127.31
573018.48
364613.19
496053.71
433114.87
443537.7
417937.33
407893.49
384874.66
362086.75
361362.44
332663.48
326914.47
306878.19
289476.16
275268.42
254796.81
240424.07
223260.04
207601.45
193683.62
180344.8
167755.77
155986.57
145363.48
136386.58
126491.03
115890.52
108117.24
99646.493
91434.002
83813.723
76257.993
68973.728
62089.597
55126.167
47627.564
41746.606
35581.516
29421.234
23603.257
18414.473
13384.968
8982.8817
5197.4298
2050.3657
-357.23927
-1957.836
-1195.0287
-1502.1046
915.11791
991.75559
1471.0561
1644.4773
-571.28966
-1378.4341
-3120.9124
-6357.3808
-10017.913
-14448.165
-19490.76
-24919.407
-31107.29
-37334.995
-42951.73
-53427.456
-59484.803
-67471.692
-76073.855
-84558.414
-93486.024
-102900.48
-112331.86
-122416.32
-132916.07
-143479.14
-155002.46
-166927.74
-179163.49
-192154.93
-205085.95
-217973.88
-232058.42
-245113.27
-259911.46
-270036.55
-280714.1
-303070.39
-328696.3
-323148.45
-350265.45
-353210.56
-365088.7
-397381.02
-415420.31
-403327.89
-436629.26
-423141.07
-399022.92
-442200.7
-446470.18
-1035396.9
-1164125.8
-1226536.6
-1218548.6
-1186256.1
-1161520.1
-869909.45
1485651.3
1828015.1
2084179.6
2221487.3
2098810.9
2123661.9
1713328.9
-61.550226
-301.34604
-555.39819
-951.77093
-979.46104
-722.39487
-644.97493
204.04456
516.24682
523.61045
750.56152
402.26877
-129.12764
219.16756
-308257.3
-325537.1
-326695.72
-326529.78
-325742.97
-316264.02
-306488.76
-298368.13
-281228.19
-274204.3
-258400.25
-243689.35
-233508.13
-218769.94
-206468.06
-194072.6
-182822.84
-170841.47
-159505.88
-148919.93
-138983.4
-129069.85
-120227.78
-111823.24
-104229.07
-96533.744
-89432.013
-83089.957
-76616.593
-70596.711
-64863.048
-59197.884
-53786.689
-48471.452
-43424.512
-38251.197
-33360.028
-28579.129
-24124.548
-20014.653
-15810.302
-12352.721
-8845.66
-6141.2346
-3819.7779
-1542.1944
-19.09934
-197931.57
-201362.04
-197052.41
-211647.37
-209752.51
-216005.83
-205314.47
-199238.22
-190238.15
-182009.56
-171811.01
-163404.91
-153167.26
-143908.67
-136281.56
-127282.58
-119509.91
-110896.14
-103543.9
-96038.872
-88666.992
-81839.817
-75514.962
-69951.886
-64521.355
-59973.507
-55988.804
-51385.057
-47876.838
-44161.016
-40672.446
-37368.308
-34062.391
-30965.532
-27849.213
-24851.694
-21884.431
-19169.019
-16405.719
-13783.09
-11117.964
-8908.6675
-6523.0305
-4533.2588
-2947.502
-1011.1544
21.372168
-91457.218
-109466.93
-94885.835
-106705.95
-102137.84
-107563.91
-101659.47
-102265.14
-95856.487
-90086.327
-87079.497
-80028.386
-75673.872
-68238.846
-62361.117
-57735.877
-53194.164
-48954.794
-45269.326
-41425.139
-38817.927
-36143.635
-33288.533
-30669.056
-28565.22
-26371.696
-24484.533
-22991.843
-21495.1
-20017.428
-18545.703
-17153.912
-15726.682
-14328.517
-13001.907
-11582.702
-10231.744
-8821.3191
-7250.0755
-6122.2612
-4780.8783
-3847.5612
-2489.9477
-1893.6799
-1052.8301
-212.24302
16.403713
3873.7168
402.11172
13995.841
524.34785
10043.741
3526.1439
12231.69
8108.893
10694.834
5888.5568
10859.46
7854.6937
11347.076
9758.6166
10454.931
10285.409
11212.302
11296.193
11790.708
12623.262
12620.596
14026.04
15451.431
14830.663
14197.633
13373.633
12351.068
11125.795
10144.458
9021.9929
8019.3542
6925.7808
6068.4559
5094.4214
4221.1628
3389.2356
2729.4521
2104.8968
1312.6648
547.33936
282.9373
-58.761662
-3.1623293
-264.97615
16.365277
2.4372847
-144.31798
124226.44
106247.59
116438.48
113459.17
118883.88
114524.5
113211.57
109863.84
106828.53
100768.37
99045.54
92157.544
91807.873
84945.823
83335.818
78528.699
75839.266
72161.13
68926.089
66281.578
60874.29
55953.658
51910.191
47252.168
44394.265
42288.369
38626.411
35275.61
32484.221
29471.348
26689.301
24016.843
21497.948
18946.029
16599.691
14345.98
12348.789
10194.403
9627.5754
8001.2199
6594.8958
5170.3257
4137.4891
2972.5381
2207.8265
1111.9944
-65.221938
243644.23
222247.36
228331.76
231371.69
233234.13
225373.69
223050.33
213147.17
209441.82
197040.76
193543.87
183626.54
177573.74
169663.9
162514.29
153774.56
146551.47
138687.96
131494.06
124451.38
116173.27
110540.86
99545.103
91988.148
85097.757
79019.546
73660.347
67603.438
62142.935
56763.269
51844.496
46835.741
42123.223
37571.693
33219.305
28997.111
24966.168
21240.534
17688.397
14895.5
11940.676
9214.128
6814.712
4515.7286
2826.5863
1226.8174
-105.71878
394869.21
300350.28
344074.84
334680.42
341404.45
329224.23
325062.23
311906.19
305903.43
290345.78
283861.94
269584.06
258676.69
245240.2
233002.8
220235.45
207941.15
197128.48
185606.56
174733.09
165062.54
154049.16
144390.84
134961.21
125945.02
117230.21
109726.7
100683.26
92579.597
84940.648
77442.876
70306.469
63264.368
56605.623
50061.167
43801.147
37736.033
32255.398
27048.404
21627.671
17144.816
13029.225
9600.7439
6438.7046
4145.9461
1965.5434
318.80933
-713728.91
-703933.43
-734069.53
-723114.04
-727432.2
-700227.1
-648491.68
-495927.21
-576829.11
-525182.78
-546771.79
-542221.91
-523015.72
-509854.13
-251658.56
-291047.56
-234774.67
-259265.13
-232805.76
-229254.77
-252306.98
-42424.203
-14443.873
2994.9585
-18217.917
-6909.7992
33788.838
-61121.904
168961.56
174390.48
198458.53
185939.22
191898.93
198342.28
122690.56
493742.54
525155.9
525266.46
535938.13
554613.1
547363.4
504069.83
656053.17
571430.63
515555.43
532485.09
509391.69
468471.29
527495.11
635025.44
643996.94
721449.63
741084.18
757264.21
754274.12
607739.18
517436.4
579447.01
575565.94
582847.51
608490.04
589652.71
546464
426696.66
473956.57
498782.72
500262.53
497132.57
474531.68
488771.31
440333.45
469733.79
463408.08
484438.82
469292.51
469430.12
444947.33
426999.49
448761.98
463400.4
464444.34
465931.19
451934.79
452996.17
423708.99
414824.95
423322.96
428955.37
428781.25
420311.57
420712.16
399019.27
407457.99
412299.43
414891.94
414126.84
415212.87
414687.88
394019.3
386237.2
390267.76
390372.29
383124.96
389596.98
389068.38
372531.87
373344.94
371895.23
373201.04
375370.63
376775.82
378656.6
364172.21
355486.4
351772.12
354433.91
353413.13
352764.71
352040.82
345953.32
342028.74
336974.53
338339.26
337863.59
335911.88
344490.59
329899.13
323520.13
320888.93
323808.37
320791.09
315793.52
323666.62
316707.61
304503.26
306407.3
303432.2
305384.33
302473.71
312329.67
298138.96
289111.41
293222.35
289925.32
291461.35
286850.22
292833.53
284876.03
274036.49
277855.9
272133.78
273764.26
269700.69
276633.82
269236.84
258751.62
264054.18
258345.71
261137.95
256803.07
262801.84
253935.46
245975.41
249280.91
242930.2
245629.98
240168.98
244545.3
239970.52
232176.5
235174.45
228534.02
232337.79
225743.55
231078.62
225761.76
218840.19
221333.6
214259.6
217900.29
211032.49
216447.17
211823.77
205879.83
207958.26
201190.89
205201.03
198106.72
203348.31
199446.11
192872.48
194834.43
187840.21
191592.18
184470.83
189525.43
186480.49
180681.31
182228.77
175951.14
179464.7
172470.75
177523.22
174730.87
168625.5
170429.42
164094.51
166930.22
160621.93
165186.21
162844.6
157936.9
158693.66
152768.37
155796.38
149910.34
154189.25
151305.73
147697.46
146155.61
142998.98
144326.47
139680.45
143483.77
140097.49
137640.74
134451.18
134431.55
133504.91
131606.59
133866.04
131235.67
127676.21
125617.23
124941.28
123847.5
121172.78
123896.42
121903.81
118024.79
116713.46
115073.32
114032.52
112684.05
113421.4
112094.04
108826.55
107680.5
105883.78
104736.32
104197.86
104243.99
103234.98
99749.784
99207.268
97242.13
96617.397
95968.528
95879.84
94016.292
91535.101
90555.116
88925.839
88195.774
87730.7
87721.632
85825.633
83188.084
82477.984
81006.745
80430.146
80098.155
80209.975
77334.168
75236.61
74501.325
73309.576
72815.878
72651.318
72839.463
69461.86
67570.509
66906.54
65863.682
65406.291
65398.354
65542.723
61647.988
60053.298
59396.56
58554.093
58237.26
58489.807
58698.728
54171.245
52874.734
52199.36
51685.578
51311.862
51358.854
51916.511
47102.172
45622.421
45267.287
44363.415
44694.663
45179.337
45421.331
40183.501
39396.321
38447.39
38431.722
37926.714
38353.266
38772.407
33416.685
32500.553
32016.904
31738.076
31690.899
32330.395
32681.516
27386.963
26578.39
26177.729
25859.307
25782.02
26505.468
26963.292
21370.667
20896.15
20317.38
20083.825
20149.539
20913.994
21279.899
16279.853
15803.156
15166.655
15188.278
15056.625
15894.977
16289.871
11424.837
10890.926
10322.454
10289.137
10137.764
11161.53
11497.077
7525.6748
7020.1491
6504.1798
6473.5786
6341.6599
7279.4593
7501.7437
3914.7138
3318.5428
2869.3424
2777.4018
2677.6748
3537.2899
3722.0871
1504.7064
1070.7134
753.78052
651.31711
590.03173
1224.6289
1525.3057
1.0206989
-320.75713
-615.20488
-673.30482
-697.8036
-271.65117
-288.24246
1692.2785
1832.6984
1801.3761
1761.0113
1471.3739
1354.1006
1423.3778
2939.5712
3068.0605
2794.7332
2922.5922
2703.283
2269.0017
2558.1284
1864.9139
2165.2083
1825.7058
1763.0774
1637.5471
1425.27
1495.8623
529.01446
739.26286
664.31918
677.90042
361.90111
335.91973
147.49781
-1229.2395
-1032.859
-1481.1611
-1570.4158
-1818.0424
-1837.2991
-1702.266
-1952.1206
-1936.646
-2019.8423
-2152.0416
-2412.871
-2287.939
-2255.1257
-1773.2569
-1795.0394
-1973.323
-2132.0563
-2235.18
-2118.3246
-2339.3119
-460485.3
-459754.47
-535178.09
-512893.56
-531898.1
-498499.9
-481751.25
-496196.12
-507089
-538163.49
-535957.23
-540925.87
-499411.07
-489856.48
-475900.15
-481460.25
-494947.61
-498205.12
-492906.87
-458321.8
-460408.2
-442925.92
-463117.52
-473351.91
-481528.26
-471021.25
-453703.04
-454519.2
-437555.22
-440738.59
-445393.33
-448631.27
-445905.29
-427138.99
-421872.82
-411572.53
-420297.92
-425880.09
-422736.38
-421947.3
-405538.85
-408125.85
-402158.45
-401810.59
-404450.78
-403060.89
-407114.16
-395902.52
-403053.31
-378696.84
-381536.68
-386078.98
-374951.86
-383277.88
-371877.91
-376779.96
-366861.75
-368402.28
-369032
-365395.45
-371842.51
-359601.93
-372833.36
-350048.57
-346786.52
-348724.03
-344491.79
-350217.99
-341451.4
-353081.54
-333503.86
-331343.84
-337635.17
-330972.42
-338438.68
-330117.45
-338891.63
-315033.34
-317144.5
-316625.33
-312810.12
-318116.69
-311241.97
-323300.48
-301246.22
-298552.2
-301887.86
-298534.5
-304950.34
-297647.47
-300790.67
-283667.56
-284391.21
-284536.53
-283277.5
-287043.46
-284127.62
-290978.43
-267634.56
-268929.3
-268210.67
-269951.93
-271802.89
-270330.24
-279343.49
-254547.01
-252220.92
-253837.61
-253470.21
-258549.98
-255760.97
-261963.35
-238195.49
-238567.76
-238662.32
-240900.26
-242883.89
-241243.12
-247903.01
-223721.29
-223570.2
-225242
-225964.74
-228361.64
-228172.89
-233572.26
-208873.32
-210058.7
-211276.58
-212343.63
-215120.19
-215194.28
-220620.69
-195847.38
-196206.33
-197927.48
-199147.5
-201855.73
-202212.14
-207382.75
-183072.04
-183108.08
-185529.38
-186327.94
-189276.21
-189755.73
-194867.94
-170645.27
-170703.21
-173277.9
-173936.03
-176844.56
-177241.25
-182690.56
-159311.15
-159160.3
-162305.36
-162453.3
-165498.33
-165896.06
-171131.25
-148156.95
-148275.75
-150918.54
-151113.78
-154030.05
-154057.04
-159642.91
-137937.78
-137259.89
-140477.71
-140316.31
-143190.89
-143253.76
-148668.53
-128112.42
-127297.26
-130603.58
-130171.61
-132966.96
-132796.72
-138018.88
-118625.33
-118027.41
-121124.35
-120271.08
-123255.78
-122631.74
-127991.17
-110156.47
-108986.21
-111709.96
-110924.28
-113851.62
-113220.4
-118106.38
-101134.94
-100055.41
-103011.1
-102143.71
-104651.3
-103774.24
-108412.34
-93166.737
-92336.619
-94529.133
-93647.857
-95815.96
-95118.972
-99255.287
-85349.596
-84327.576
-86370.642
-85490.691
-87447.498
-86545.031
-90318.278
-77725.654
-76790.169
-78427.757
-77556.314
-79167.3
-78231.595
-81702.624
-70400.602
-69471.02
-70911.975
-69987.982
-71235.156
-70446.615
-73501.235
-63218.134
-62366.82
-63487.486
-62498.918
-63607.267
-62752.8
-65355.338
-56443.313
-55547.222
-56299.824
-55459.271
-55983.266
-55634.387
-57483.074
-49236.989
-48543.62
-49203.283
-48158.812
-48986.77
-48432.189
-49820.663
-43094.982
-42531.51
-42302.9
-41968.474
-42006.663
-41501.369
-43261.82
-36705.496
-36030.884
-35750.764
-35226.091
-35430.506
-34329.114
-36497.078
-30372.376
-29964.236
-29383.277
-29082.272
-28986.991
-28482.576
-30008.453
-24837.713
-24327.896
-23778.53
-23433.204
-23172.167
-22742.545
-24022.295
-19214.589
-18744.049
-18138.854
-17784.666
-17511.668
-17452.425
-18436.277
-14254.02
-13785.573
-13139.925
-12908.616
-12676.457
-12736.866
-13518.092
-9841.6478
-9376.5682
-8694.6721
-8595.96
-8260.3284
-8549.8695
-9080.2265
-5731.5664
-5106.3693
-4670.1756
-4569.9571
-4431.3769
-4906.6573
-5378.9396
-2900.9922
-2556.6805
-2150.6192
-2073.3481
-1883.8662
-2301.6693
-2552.9603
-717.89511
-398.37842
-53.234928
-5.0363351
-110.48602
-522.73293
-766.43729
-110.77226
-171.8265
58.517443
16.580089
84.7528
-90.928065
-77.170373
-493066.84
-332202.34
-330715.6
-322938.6
-333348.69
-336999.4
-318846.86
-312695.98
-304655.11
-294202.77
-279086.26
-269544.34
-254978.98
-242278.59
-232373.82
-220293.09
-207825.55
-196840.58
-186307.98
-175675.1
-165443.27
-155148.44
-145410.83
-136078.72
-126717.61
-117962.26
-108866.58
-100257.04
-92122.535
-84079.015
-76537.993
-69208.948
-62113.685
-55186.923
-49183.508
-41941.639
-36270.433
-31383.449
-25693.491
-20963.579
-16638.7
-12677.03
-9279.66
-6378.9945
-3977.6456
-2106.9122
36.692619
-276320.96
-262018.67
-195822.84
-229018.06
-267991.78
-236119.32
-250987.23
-230803.98
-232070.58
-214556.59
-213056.62
-198597.9
-189565.94
-180166.06
-172550.88
-165456.74
-156462.19
-147450.89
-140188.31
-131780.05
-123810.36
-116263.64
-108582.54
-101120.39
-93467.706
-85466.476
-80792.628
-73502.758
-67522.87
-61568.899
-55920.838
-50461.047
-45232.55
-40402.018
-35310.095
-30890.574
-26768.235
-22472.117
-18737.205
-15096.156
-11970.547
-8887.5935
-6418.7667
-4153.1233
-2402.0056
-645.01834
280.23444
-130049.25
-147030.95
-75479.834
-124401.82
-110764.12
-98511.002
-107868.14
-98883.605
-97792.06
-91380.486
-94176.82
-88314.824
-89979.645
-85732.609
-84988.787
-82792.582
-78673.816
-75376.679
-72792.86
-68022.43
-64695.075
-61016.961
-57184.834
-53508.28
-49997.432
-46424.561
-42870.554
-38682.935
-35533.927
-31929.036
-28714.167
-25566.824
-22637.433
-19694.881
-16987.719
-14529.029
-12150.01
-9975.369
-7942.4352
-6427.1498
-4928.6723
-3604.4075
-2646.2247
-1875.9458
-1194.9511
-871.15896
456.17487
21441.067
-21553.717
15167.289
-15611.796
-876.50986
-9537.7046
-10129.419
4061.5742
-8411.5293
-4279.6488
-6085.9425
-8145.632
-11909.835
-16036.221
-18591.012
-18176.143
-18916.449
-18982.212
-18765.335
-17829.463
-17820.574
-17122.78
-16170.641
-15456.723
-13997.211
-12505.317
-11153.386
-10003.252
-8647.9449
-7337.8984
-6328.7106
-5315.5579
-4305.5644
-3404.6181
-2622.6435
-1855.7135
-1118.6242
-625.87335
-117.63607
143.34154
449.36951
667.14191
601.24848
687.83454
313.27399
528.07338
349.41942
201086.63
107589.03
118451.5
83216.517
105816.07
83428.806
98451.631
88241.166
79829.652
82656.577
70962.311
73959.914
64727.575
66906.721
60217.286
58019.519
52423.729
49511.421
45430.737
42100.199
38711.399
35908.701
33235.3
30760.202
28455.227
27127.116
25094.813
23601.498
22352.872
21119.325
19857.622
18746.259
17419.523
16166.794
14997.48
13794.735
12452.92
11169.13
9888.3912
8426.94
7029.5393
5652.1832
4340.2317
2962.1051
1929.1602
594.33592
626.31508
307667.65
243188.42
205038.05
206753.12
213759.44
205728.14
206230.4
186645.59
193434.52
185030.37
180161.79
173622.47
160488.05
156328.78
144077.8
135782.85
124912.96
116690.12
107756.64
100488.01
93645.866
86768.044
80582.716
73460.672
66909.287
61084.771
57391.518
53072.094
49447.958
45784.22
42587.694
39223.282
35932.963
32838.599
29727.107
26687.958
23683.129
20730.973
17940.364
15014.282
12379.63
9875.4998
7334.5198
5329.4205
3122.709
1541.1436
81.058951
402907.66
342827.42
338239.2
327364.18
347362.07
330447.86
333693.13
316288.39
314305.81
293594.05
284461.48
267245.41
254471.46
240537.06
226761.72
214628.11
203015.84
189773.37
178936.43
166968.34
155988.05
145211.57
135502.52
125568.85
117743.67
105170.37
97944.712
90934.71
84323.35
78190.648
72137.331
66147.065
60609.77
54912.366
49585.366
44310.672
39233.136
34448.438
29377.673
24804.102
20378.144
16053.393
12341.327
8699.5321
5718.6423
2685.9437
1260.123
-602240.85
-649817.12
-635601.41
-660063.19
-652748.75
-609370.64
-565122.8
-399676.78
-471690.98
-467074.7
-477457.26
-464333.67
-433983.31
-385250.28
-381780.01
-423816.27
-451908.1
-451975.96
-441442.74
-434538.94
-407751.98
-363995.59
-372227.16
-386132.93
-393353.09
-377361.41
-378820.1
-334334.94
-347572.2
-362883.28
-383198.3
-374954.25
-371103
-362999.52
-329799.82
-337283.43
-347713.28
-345284.7
-354350.13
-344280.37
-340235.32
-338574.06
-324719.94
-329358.89
-335765.5
-336023.99
-324501.35
-330614.72
-316953.39
-309577.72
-322589.16
-315160.68
-322665.16
-318504.61
-311539.45
-306877.23
-300238.08
-302347.06
-295690.35
-309674.55
-295033.17
-303281.38
-296152.84
-282672.36
-287286.62
-289982.12
-294075.98
-285744.22
-290257.11
-283724.79
-268340.09
-277608.59
-270763.09
-276991.49
-270136.06
-274368.3
-271082.49
-260252.07
-258679.08
-260274.08
-263801.95
-261189.28
-262401.65
-258888.66
-242215.76
-246877.28
-246034.44
-252292.81
-245538.84
-249781.46
-250308.17
-230677.45
-231529.68
-233473.78
-237467.73
-233801.45
-237785.4
-238697.89
-218001.28
-219230.66
-222172.67
-222633.79
-222542.79
-224993.01
-223612.19
-203861.22
-205669
-209667.53
-210931.89
-210669.84
-211739.02
-214126.92
-191318.74
-192810.09
-196681.07
-197997.48
-198115.86
-200623.52
-202657.69
-179298.2
-181182.28
-185457.53
-185733.64
-187065.21
-189039.02
-191666.08
-167542.04
-170044.17
-172907.55
-174577.21
-175791.99
-177705.86
-179977.81
-156630.06
-158724.62
-162207.21
-163444.77
-164990.34
-166843.92
-169752.72
-144863.01
-148796.34
-151206.23
-152925.36
-154324.82
-156539.45
-159087.11
-135082.21
-139124.9
-141029.95
-142691.11
-144527.06
-146565.95
-149400.63
-125198.56
-129703.12
-130657.63
-133051.62
-134548.74
-137280.02
-139194.43
-116177.64
-120552.83
-121269.51
-123341.07
-125348.78
-127489.12
-129510.23
-107071.66
-112521.23
-112221.86
-115385.57
-116293.73
-119352.97
-120989.5
-99822.239
-104189.31
-104589.07
-106113.96
-108188.24
-110389.51
-111870.64
-92694.868
-96384.54
-96110.216
-98415.379
-99875.078
-102246.41
-103424.89
-85097.807
-88598.069
-89093.159
-90935.497
-91991.554
-93973.078
-95283.632
-78548.831
-82540.045
-81894.867
-83402.541
-84658.512
-86541.269
-87705.862
-72473.518
-75220.013
-75185.016
-76415.245
-77607.165
-79039.377
-80162.251
-66203.917
-68852.814
-68548.123
-69611.443
-70559.587
-71973.207
-72823.397
-60430.607
-62644.326
-62482.308
-63199.428
-64049.46
-65191.988
-65956.254
-54685.167
-56606.628
-56203.362
-56782.677
-57534.325
-58620.585
-59160.375
-49300.697
-50756.508
-50430.37
-50719.928
-51477.383
-52280.253
-52554.639
-43829.167
-44967.646
-44514.392
-44647.349
-45420.343
-45913.122
-46364.494
-38607.438
-39301.948
-39174.309
-39063.132
-39761.617
-40363.175
-40681.931
-33710.537
-34564.068
-33850.163
-33451.344
-34515.811
-33992.719
-35086.561
-28905.593
-28447.583
-28604.127
-28226.944
-28227.454
-29536.44
-29048.737
-24356.09
-23717.556
-23845.927
-23374.191
-23917.206
-24276.588
-24509.74
-19824.555
-19354.66
-19113.553
-18685.635
-18826.515
-19485.193
-19420.446
-15667.997
-14842.074
-14747.117
-14138.23
-14694.035
-15032.444
-15321.084
-11957.373
-11375.054
-11087.094
-10629.173
-10985.939
-11195.082
-11435.903
-8389.9607
-7555.2944
-7345.8348
-6819.6061
-7184.6888
-7449.1053
-7973.8819
-5709.8665
-5144.102
-4971.4387
-4407.5814
-4811.7461
-4926.764
-5217.751
-2944.9512
-2601.945
-2129.132
-1800.992
-2113.5198
-2113.2214
-2604.5834
-1336.7516
-881.52056
-691.84022
-462.77751
-683.00864
-776.62939
-839.87895
388.30409
612.72132
817.56599
907.67485
719.64081
865.40134
308.432
-381051.82
-385818.92
-422861.96
-410510.84
-422175.41
-379215.51
-377842.89
-278276.2
-348327.84
-362062.61
-373075.88
-369757.46
-337049.5
-313053.29
-288171.39
-267482.15
-303239.38
-287286.66
-297806.43
-264739.34
-263514.09
-239070.64
-258142.46
-276228.59
-269222.07
-275174.87
-259155.58
-226853.12
-249062.01
-255164.21
-270801.5
-258427.1
-270222.09
-247893.18
-237551.92
-231852.14
-237501.4
-245926.7
-238407.64
-239254.59
-238494.64
-226593.16
-226281.91
-236390.41
-248326.11
-237076.86
-245119.41
-238681.54
-221213.86
-217424.02
-218741.17
-224169.17
-217570.49
-224867.17
-214943.8
-213953.83
-207608.05
-210957.47
-225389.19
-216437.72
-218170.93
-216489.97
-208250.09
-195127.12
-202237.15
-207884.85
-195557.58
-205083.47
-199085.7
-198746.64
-187801.59
-192868.95
-197011.05
-193058.15
-198575.83
-195759.49
-188700.79
-177054.61
-179435.56
-189241.38
-180225.77
-188734.82
-180941.58
-185559.81
-165768.31
-172240.36
-180010.93
-170797.18
-178801.05
-174904.35
-172380.49
-156460.3
-162572.2
-168163.14
-161126.99
-168669.41
-164819.36
-161693.68
-146367
-155404.36
-156585.28
-154096.85
-159401.4
-157132.98
-154221.24
-137704.7
-145162.37
-146254.7
-145903.12
-148419.61
-148630.24
-144786.86
-128478.01
-137094.93
-137728.19
-137313.75
-140187.95
-141837.78
-139516.83
-120042.41
-128606.86
-128369.95
-129555.01
-131625.24
-133456.33
-130121.83
-112675.2
-119802.68
-120345.47
-121517.94
-123747.47
-125523.7
-123666.27
-104383.17
-111672.42
-112260.42
-113962.1
-115711.11
-117781.58
-116544.38
-97980.972
-104047.36
-104841.75
-106355.44
-108409.89
-110559
-110000.3
-91550.805
-96585.375
-97294.444
-99200.103
-101262.95
-103335.97
-102944.34
-85785.574
-89177.852
-90649.3
-92366.003
-94747.068
-95857.026
-96739.292
-79789.435
-82720.028
-84621.708
-86310.642
-88189.285
-89363.553
-90660.218
-74372.592
-76680.49
-78606.823
-79757.082
-82458.581
-82490.346
-84902.957
-69132.338
-71294.551
-72002.547
-75326.123
-75100.29
-76814.237
-78727.11
-63580.239
-65900.336
-67163.12
-67940.199
-71064.167
-69912.785
-72681.564
-59397.544
-60363.034
-62586.288
-62902.139
-65123.374
-64716.154
-67101.739
-54805.064
-55773.115
-57557.674
-57709.551
-60148.312
-59211.786
-61477.772
-50342.013
-51465.412
-52449.111
-52903.103
-54749.607
-54011.676
-56017.323
-46277.055
-47156.911
-48241.275
-48375.224
-50099.051
-49175.521
-50927.034
-42167.268
-43160.879
-43661.544
-43817.4
-45258.598
-44310.257
-45853.797
-38429.456
-39178.4
-39539.902
-39595.719
-40832.078
-39863.968
-40970.664
-34593.915
-35368.806
-35397.931
-35445.318
-36459.142
-35269.712
-36366.453
-30944.41
-31693.935
-31512.631
-31625.066
-32277.104
-31302.996
-32266.454
-27369.231
-28181.887
-27678.875
-27732.387
-28164.681
-27050.656
-27684.35
-23936.001
-24641.928
-23881.456
-24084.115
-24118.583
-23431.068
-23550.468
-20555.939
-21441.534
-20372.666
-20551.217
-20634.859
-19691.973
-20070.955
-17180.157
-18038.597
-17200.571
-17038.871
-17147.583
-16506.782
-16203.652
-14098.136
-15136.964
-13848.65
-13797.659
-13827.131
-12987.377
-12869.181
-11362.657
-11985.687
-10798.754
-10915.175
-10765.657
-10184.715
-10079.757
-8527.5607
-9356.3272
-8056.5767
-8255.963
-7941.3888
-7481.4217
-7459.7428
-6264.4715
-6795.9919
-5476.509
-5771.4492
-5328.2891
-5191.8851
-5187.9518
-3962.4469
-4316.2982
-3197.4647
-3461.3394
-3152.9444
-3139.5262
-3258.1263
-2299.5504
-2663.3899
-1513.2027
-1857.5293
-1529.1762
-1539.3296
-1823.7478
-466.9944
-340.89352
461.84513
188.37972
362.48624
217.99271
-273.18089
306.55614
304.99881
846.05296
742.41194
574.4081
808.39076
324.96269
-225092.85
-220628.45
-206248.47
-222593.77
-208274.32
-192672.49
-185216.8
-155035.65
-225331.44
-207239.41
-223144.3
-193074.6
-193586.94
-157882.4
-158249.17
-144797.68
-161446.68
-158383.13
-150445.13
-134171.15
-128805.31
-121923.06
-145884.95
-154842.69
-162064.19
-146195.02
-149003.76
-118486.99
-137147.64
-130231.18
-142433.31
-132234.97
-132308.83
-118690.34
-114067.49
-116838.41
-132007.14
-126259.37
-127209.85
-129473.91
-117054.67
-116833.08
-118794.71
-125082.02
-113812.62
-123298.55
-121312.38
-111604.69
-109808.02
-111300.7
-122541.52
-111341.91
-117526.63
-114156.19
-103083.78
-109031.31
-107679.99
-120643.63
-101511.2
-111921.48
-107238.54
-104322.81
-104697.15
-106003.82
-110142.54
-96343.989
-103407.72
-105021.14
-97216.038
-99862.094
-97928.878
-106681.11
-90570.79
-103014.38
-99046.22
-94930.656
-96635.072
-92061.443
-98600.239
-85363.317
-94035.941
-92698.841
-88407.537
-92554.291
-84073.583
-96820.545
-80045.736
-90012.16
-89290.827
-84619.54
-88056.733
-79941.379
-87813.533
-76937.323
-85520.307
-86850.618
-77209.953
-88655.552
-75291.992
-80459.02
-71906.108
-80114.546
-80410.447
-75034.722
-83509.284
-68824.973
-73621.02
-69846.384
-73472.331
-77043.092
-70896.858
-80992.877
-62834.131
-69354.485
-64887.134
-70172.498
-72069.167
-68182.656
-75953.469
-58881.756
-63410.422
-60971.414
-65205.478
-67957.559
-64347.235
-71688.159
-53370.771
-59213.181
-56587.382
-61301.849
-63374.317
-60762.929
-67797.963
-49664.406
-54826.114
-52932.873
-57175.917
-59326.049
-57599.519
-64521.953
-45246.552
-50752.195
-49017.569
-53182.606
-55233.736
-54481.996
-59980.026
-41501.373
-46703.197
-45499.359
-49632.641
-51817.498
-50761.081
-56606.624
-38025.863
-43018.907
-42279.975
-46657.384
-47500.031
-48001.463
-52943.663
-34867.867
-39487.981
-39451.122
-42522.33
-43884.123
-44828.684
-49058.242
-32211.024
-36529.869
-36185.355
-39260.493
-40296.257
-41932.695
-45322.196
-29757.231
-32724.829
-33756.089
-35849.528
-37339.704
-38542.863
-41679.197
-27406.584
-30958.15
-31166.766
-33482.829
-33641.607
-35719.753
-38055.685
-25289.298
-28821.429
-28201.096
-30473.46
-31163.358
-32429.41
-35260.15
-23347.761
-26128.865
-25734.267
-27700.768
-28434.937
-29442.705
-32194.012
-21415.02
-24108.182
-23699.745
-25401.34
-25867.681
-26642.796
-29204.684
-19750.604
-22025.804
-21287.208
-23008.473
-23081.251
-23952.044
-26214.255
-18076.569
-20002.306
-19269.581
-20680.999
-20736.289
-21410.008
-23415.007
-16472.747
-18083.009
-17152.945
-18519.711
-18359.696
-18846.867
-20765.736
-14922.459
-16164.186
-15279.421
-16421.733
-16119.367
-16602.603
-18325.146
-13401.411
-14375.601
-13369.723
-14260.465
-13897.813
-14213.685
-15727.94
-11906.654
-12537.195
-11514.29
-12292.142
-11860.546
-12220.155
-13577.105
-10511.736
-10855.461
-9864.9658
-10370.517
-10134.352
-9995.1309
-11491.855
-8956.4605
-9233.941
-8060.1055
-8762.8367
-8056.8573
-8304.4947
-9502.2882
-7818.9274
-7596.3171
-6480.6836
-7001.4052
-6432.699
-6653.2455
-7579.6471
-6550.5316
-6280.1797
-5043.1674
-5653.4238
-4953.065
-5018.9234
-5875.5556
-5278.6882
-4493.2382
-3727.8974
-4039.168
-3527.3718
-3739.7506
-4635.6865
-4053.9512
-3770.4675
-2858.4025
-3156.1732
-2602.0785
-2734.3137
-3260.0272
-2944.9401
-2107.7178
-1451.8558
-1634.8655
-1176.213
-1546.1607
-2134.8853
-2105.1861
-1768.2013
-1324.3819
-1493.5055
-1093.2199
-1493.4326
-1469.5226
-997.98806
-590.02404
-112.44129
-125.22381
124.26064
-189.20529
-157.33369
-488.42224
-496.9376
-36.895864
-402.2365
-178.81448
-481.79017
-243.72069
369.12845
951.48589
959.23152
903.94716
1077.7271
795.07445
838.6663
-16465.139
9520.2463
3428.3446
7762.9606
11194.761
16927.317
-3386.8576
-2392.8204
-10422.853
-9708.4128
-19160.445
-7525.7884
-9328.2093
-512.66474
-30228.269
8187.1512
-4002.7827
10506.86
5115.8252
12309.022
-635.9476
-7342.8287
-4996.8582
-24620.079
-15143.935
-15478.435
-21109.153
7653.9901
-17220.895
-18267.909
-24550.434
-5218.0922
-21772.84
9364.1962
-8953.014
-14682.261
-6374.3477
-12359.445
-16765.212
-13204.823
-14885.093
-2006.7989
-16791.251
-21271.015
-31016.965
-16543.391
-23371.466
-10471.167
-10551.768
-17569.908
-14418.402
-13169.532
-16877.804
-13458.755
-15954.204
-6915.0485
-13660.471
-12748.529
-24987.406
-16326.954
-22884.391
-14980.527
-4765.5445
-9407.4215
-15212.289
-15802.408
-12355.968
-14256.839
-10031.663
-9160.2235
-9749.3346
-11902.399
-16820.459
-13152.974
-16248.528
-13624.742
-8356.1267
-4852.7973
-11394.526
-11181.965
-10973.738
-12167.005
-11626.25
-7277.6992
-6019.959
-8517.8515
-10901.867
-11447.601
-14668.415
-12491.167
-7912.5516
-1662.304
-6743.9224
-11129.979
-12113.415
-6994.8777
-12531.327
-3642.6931
-1829.5504
-8108.6973
-4289.9755
-12126.588
-6969.1418
-13273.856
-7359.9054
2212.8053
-5784.3897
-3177.1503
-11907.906
-4875.1658
-12524.817
-6538.7956
1868.5314
-4108.0203
-3012.0374
-11616.298
-4741.0027
-12422.258
-7684.7334
3917.929