/*--------------------------------*- C++ -*----------------------------------*\
  =========                 |
  \\      /  F ield         | OpenFOAM: The Open Source CFD Toolbox
   \\    /   O peration     | Website:  https://openfoam.org
    \\  /    A nd           | Version:  6
     \\/     M anipulation  |
\*---------------------------------------------------------------------------*/
FoamFile
{
    version     2.0;
    format      ascii;
    class       pointVectorField;
    location    "1.32";
    object      u;
}
// * * * * * * * * * * * * * * * * * * * * * * * * * * * * * * * * * * * * * //

dimensions      [0 1 0 0 0 0 0];

internalField   nonuniform List<vector> 
3969
(
(0 -5.7242653e-20 0)
(0 -3.1306114e-19 0)
(-1.8284536 -0.55171838 -0.001560088)
(-1.9194764 -0.13481805 -0.0020302465)
(0 3.1222645e-18 0)
(0 2.5789834e-18 0)
(-1.9184295 -0.13605718 -0.0019657601)
(-1.8274238 -0.55289472 -0.0016052903)
(0 1.3042562e-19 0)
(0 7.8394486e-19 0)
(0 3.5110352e-19 0)
(-2.0995774e-18 -1.8905109e-19 0)
(0 1.0345496e-18 0)
(0 -5.9644888e-19 0)
(0 -5.6956118e-19 0)
(-1.8398671 -0.49951894 -0.0015801069)
(-1.8511958 -0.44736195 -0.0016101497)
(-1.8625285 -0.39526025 -0.0016939856)
(-1.8738611 -0.34319852 -0.0017793491)
(-1.885215 -0.2911602 -0.0018823891)
(-1.8966201 -0.2390977 -0.0019600929)
(-1.9080589 -0.18698666 -0.0020086824)
(-0.0043800585 -0.013411181 -0.01435966)
(-0.0063410171 -0.022018433 -0.018256174)
(-0.01241502 -0.032308628 -0.020000334)
(-0.021703625 -0.042633102 -0.020592079)
(-0.033459375 -0.053186208 -0.020514091)
(-0.048086415 -0.064026925 -0.020173823)
(-0.064733946 -0.074659325 -0.019858186)
(-0.083984815 -0.085644558 -0.01936812)
(-0.10516879 -0.096339932 -0.019085649)
(-0.12862485 -0.10721787 -0.018581527)
(-0.15395308 -0.11809454 -0.018371281)
(-0.18124479 -0.12899094 -0.01796929)
(-0.21038424 -0.13991371 -0.017675562)
(-0.24118108 -0.15096555 -0.017370031)
(-0.27374981 -0.16199147 -0.01703521)
(-0.30775483 -0.17312097 -0.016703338)
(-0.34329566 -0.18432371 -0.016387534)
(-0.3802073 -0.1955941 -0.01602866)
(-0.41845638 -0.20695598 -0.015663578)
(-0.45792523 -0.21838 -0.015264778)
(-0.4985702 -0.22988631 -0.014852435)
(-0.54028947 -0.24147518 -0.014405576)
(-0.58303402 -0.25313136 -0.013934706)
(-0.62673046 -0.26487836 -0.013433254)
(-0.67130916 -0.27667792 -0.012905232)
(-0.71670669 -0.2885796 -0.01235697)
(-0.76286893 -0.30052565 -0.011787955)
(-0.80974118 -0.31255183 -0.011201504)
(-0.85727867 -0.32463035 -0.010602443)
(-0.90541557 -0.33675437 -0.009999237)
(-0.95411748 -0.34892529 -0.009388771)
(-1.0033355 -0.36112656 -0.0087794274)
(-1.0530286 -0.37334748 -0.008173999)
(-1.1031538 -0.38558036 -0.0075720137)
(-1.1536718 -0.39781157 -0.0069820373)
(-1.2045492 -0.41002249 -0.0064066817)
(-1.2557276 -0.42221024 -0.005837819)
(-1.3071895 -0.43434939 -0.0053001225)
(-1.3588737 -0.44644171 -0.0047798996)
(-1.4107569 -0.45846138 -0.0042932227)
(-1.4627937 -0.47041758 -0.0038261161)
(-1.5149431 -0.48228263 -0.0034006887)
(-1.5671875 -0.49406279 -0.0030028324)
(-1.6194429 -0.50575916 -0.0026449169)
(-1.6717729 -0.5173467 -0.002324275)
(-1.7240024 -0.52887648 -0.0020432491)
(-1.7762614 -0.54030602 -0.0018042794)
(-0.0021443654 0.011574798 0.016022457)
(-0.010000139 0.020904778 0.014965571)
(-0.016444114 0.030644419 0.018192259)
(-0.027242308 0.040248899 0.017303765)
(-0.041428204 0.049962764 0.017171351)
(-0.057612759 0.058840014 0.016227691)
(-0.077253579 0.067360299 0.015337421)
(-0.098865576 0.074970718 0.014276881)
(-0.12320211 0.08194454 0.013242079)
(-0.14967313 0.08801881 0.012101919)
(-0.17830363 0.093350035 0.011024873)
(-0.20899359 0.097816086 0.0099327022)
(-0.24151976 0.10144257 0.0088236959)
(-0.27582115 0.10422815 0.0077468257)
(-0.31177426 0.1062091 0.0067216104)
(-0.34925751 0.10733334 0.0057180733)
(-0.38820971 0.10767905 0.0047763516)
(-0.42842336 0.10721214 0.0038809973)
(-0.46993749 0.10601704 0.0030361675)
(-0.51253054 0.10405686 0.0022706026)
(-0.55619723 0.10145097 0.0015539376)
(-0.60081228 0.098097348 0.00093524392)
(-0.64632531 0.094175576 0.00035554606)
(-0.69265892 0.089600871 -0.00012587701)
(-0.73969871 0.08444883 -0.00053961024)
(-0.78743913 0.078740236 -0.00088738602)
(-0.8357589 0.072519161 -0.001183712)
(-0.88471734 0.065789454 -0.0014209612)
(-0.93417308 0.058576863 -0.0015967332)
(-0.98409841 0.050922403 -0.0017545358)
(-1.0344724 0.042855168 -0.0018697584)
(-1.0852177 0.034392337 -0.0019662549)
(-1.1363235 0.025560766 -0.002041622)
(-1.1877252 0.016381186 -0.002103056)
(-1.2394002 0.0068814603 -0.0021534204)
(-1.2913037 -0.00292039 -0.0022009971)
(-1.3433925 -0.012999596 -0.0022376918)
(-1.3956281 -0.023334941 -0.0022761765)
(-1.447994 -0.033884936 -0.0023134549)
(-1.5004266 -0.044652253 -0.002340118)
(-1.5529227 -0.055582102 -0.0023705023)
(-1.605423 -0.066670016 -0.0023831903)
(-1.6579244 -0.077873689 -0.0023930944)
(-1.7103758 -0.089177908 -0.002371777)
(-1.7627811 -0.10054664 -0.0023358066)
(-1.8150992 -0.11195814 -0.0022640318)
(-1.8673329 -0.12339893 -0.0021589724)
(0 -3.4058732e-20 0)
(0 3.9903992e-19 0)
(0 -4.8763632e-19 0)
(1.0324991e-18 -1.0509859e-19 0)
(0 -8.9245148e-19 0)
(0 -4.1599969e-19 0)
(0 -3.4014963e-19 0)
(-0.0063120254 0.0077954152 -0.012532858)
(-0.011358382 0.025585175 -0.016722373)
(-0.016651851 0.028939043 -0.017003351)
(-0.02911136 0.043390537 -0.018225779)
(-0.04182431 0.051080137 -0.018339476)
(-0.059029726 0.061295905 -0.017886807)
(-0.077943877 0.069512322 -0.018068892)
(-0.099970003 0.077530053 -0.017457951)
(-0.12404237 0.084612728 -0.017581951)
(-0.15050621 0.090733659 -0.017111651)
(-0.17907512 0.096300999 -0.017279474)
(-0.20959129 0.10045207 -0.016858763)
(-0.24209865 0.10413433 -0.016790877)
(-0.27636801 0.10680017 -0.016558694)
(-0.31215422 0.10853236 -0.016321729)
(-0.34962881 0.10959574 -0.016134269)
(-0.38838549 0.10964864 -0.015849786)
(-0.42855303 0.10901492 -0.015583958)
(-0.46990314 0.10756142 -0.015283408)
(-0.51239148 0.10535541 -0.014940106)
(-0.55593819 0.10245696 -0.01458503)
(-0.60042914 0.098852992 -0.014187737)
(-0.6458364 0.094625988 -0.013764875)
(-0.69202463 0.089753922 -0.013304508)
(-0.73903877 0.084359433 -0.012803492)
(-0.78673437 0.078343032 -0.012244223)
(-0.83503006 0.071980778 -0.011767903)
(-0.8838855 0.065016761 -0.01121211)
(-0.93330587 0.057649227 -0.010672225)
(-0.98320015 0.049836423 -0.010105763)
(-1.0335349 0.041637543 -0.0095328504)
(-1.0842699 0.033069134 -0.0089634997)
(-1.1353529 0.024155261 -0.0083925793)
(-1.1867543 0.014916244 -0.0078255439)
(-1.238418 0.0053721325 -0.0072671326)
(-1.2903367 -0.0044361195 -0.0067162156)
(-1.3424111 -0.014549482 -0.0061829503)
(-1.3946644 -0.024830396 -0.0056685384)
(-1.4470269 -0.035380505 -0.0051668171)
(-1.4994686 -0.046103561 -0.0046972753)
(-1.5519529 -0.057001957 -0.0042480722)
(-1.6044572 -0.068046264 -0.0038330428)
(-1.6569392 -0.079213846 -0.0034461344)
(-1.7093846 -0.090483783 -0.0030923295)
(-1.7617659 -0.10182401 -0.0027713077)
(-1.8140642 -0.11322303 -0.0024826525)
(-1.8662812 -0.12463491 -0.0022235032)
(-1.9070236 -0.18820346 -0.0018928383)
(-1.8955771 -0.24031426 -0.0018353491)
(-1.8842071 -0.29235963 -0.0018062335)
(-1.872805 -0.34440406 -0.0018013434)
(-1.8615213 -0.39643819 -0.0017843031)
(-1.850155 -0.44855755 -0.0017555404)
(-1.838839 -0.50070496 -0.0016927305)
(-1.7752496 -0.54149023 -0.0017358611)
(-1.7229865 -0.53005793 -0.001873872)
(-1.6707186 -0.51854748 -0.001968785)
(-1.6184176 -0.5069679 -0.0020401922)
(-1.5661303 -0.49529958 -0.002080805)
(-1.5138887 -0.48355164 -0.0021018873)
(-1.4617353 -0.4717195 -0.0021105673)
(-1.4096979 -0.45980843 -0.0021058357)
(-1.3578302 -0.44782516 -0.0020941261)
(-1.3061551 -0.43578232 -0.0020816781)
(-1.2547248 -0.42364963 -0.0020585616)
(-1.2036313 -0.41150174 -0.0020486356)
(-1.1527758 -0.3992877 -0.0020031776)
(-1.1023385 -0.38705032 -0.0019730594)
(-1.0522929 -0.3747904 -0.0019160064)
(-1.002702 -0.3625162 -0.0018544197)
(-0.95359705 -0.35023889 -0.0017678053)
(-0.90502601 -0.33796458 -0.0016545706)
(-0.8570245 -0.32570478 -0.0015092069)
(-0.80965163 -0.31345903 -0.0013247712)
(-0.76292631 -0.3012496 -0.0010851759)
(-0.71693797 -0.28906189 -0.00080131529)
(-0.67168683 -0.27692983 -0.00044361137)
(-0.62726248 -0.26482652 -2.0927279e-05)
(-0.58371037 -0.25279181 0.00047955063)
(-0.54108928 -0.24081538 0.0010527986)
(-0.4994674 -0.22890864 0.001709891)
(-0.45890477 -0.2170798 0.0024412068)
(-0.41949146 -0.20534193 0.003249792)
(-0.38127074 -0.19367762 0.00412681)
(-0.34435092 -0.18214273 0.0050929409)
(-0.30878136 -0.17069243 0.0060776105)
(-0.27464325 -0.15938772 0.0071411399)
(-0.24228375 -0.1480108 0.0081516901)
(-0.2114127 -0.13696266 0.0094326341)
(-0.18209032 -0.12588667 0.010388519)
(-0.15477577 -0.11503217 0.011701677)
(-0.12923904 -0.1040952 0.012775971)
(-0.10559446 -0.093445654 0.014096609)
(-0.08444183 -0.08245114 0.015182445)
(-0.065134834 -0.072145762 0.016368125)
(-0.0478039 -0.061359924 0.017454424)
(-0.033545133 -0.050846775 0.018509382)
(-0.021403579 -0.040683876 0.018848142)
(-0.012289926 -0.030811842 0.018623385)
(-0.006738868 -0.019820974 0.01686378)
(-0.0085922487 -0.012692794 0.010344075)
(0 4.2138694e-19 0)
(0 3.3004554e-19 0)
(0 -1.7102893e-19 0)
(0 -1.1238052e-18 5.6240602e-19)
(0 -9.8671083e-19 0)
(0 -2.1694316e-19 0)
(0 1.0374321e-18 0)
(0 1.4721064e-18 0)
(0 1.4032897e-18 0)
(0 1.3333644e-18 0)
(0 1.1515709e-18 -1.4146564e-19)
(0 3.1108858e-18 0)
(0 1.3637693e-18 0)
(0 -2.512774e-19 0)
(-1.9193891 -0.13492093 -0.0020146359)
(-1.9193036 -0.13503768 -0.0019960898)
(-1.9191938 -0.13517546 -0.0019957688)
(-1.9190707 -0.13532487 -0.0019894822)
(-1.9189269 -0.13548781 -0.0019940469)
(-1.9187651 -0.13566695 -0.0019956159)
(-1.9185978 -0.13584714 -0.0019732259)
(-1.8283269 -0.55192337 -0.001569117)
(-1.8282027 -0.5521045 -0.0015727751)
(-1.8280765 -0.55228284 -0.0015758328)
(-1.8279508 -0.55244325 -0.0015743234)
(-1.827819 -0.55258622 -0.0015744514)
(-1.8276874 -0.55271092 -0.0015827437)
(-1.8275537 -0.55281262 -0.0016004383)
(-0.00012880144 -0.010801948 -0.012811287)
(-0.0029438837 -0.01601231 -0.013243214)
(-0.0086686552 -0.024029422 -0.015064812)
(-0.018096164 -0.031190666 -0.015475)
(-0.030026005 -0.038861194 -0.015557693)
(-0.045133202 -0.047068199 -0.015473028)
(-0.062275832 -0.055060101 -0.015235764)
(-0.0820015 -0.063697982 -0.015117065)
(-0.10392955 -0.072019359 -0.014811172)
(-0.12792534 -0.08086593 -0.014720164)
(-0.15390509 -0.089623662 -0.01453202)
(-0.18182306 -0.098568677 -0.014371891)
(-0.21157941 -0.10780273 -0.01421702)
(-0.24301375 -0.11707572 -0.01404892)
(-0.27615424 -0.1265544 -0.013921281)
(-0.31078466 -0.13620695 -0.013737825)
(-0.34690415 -0.14603648 -0.013579485)
(-0.38438637 -0.15599072 -0.013392197)
(-0.42317526 -0.16615015 -0.013174558)
(-0.46317843 -0.17644925 -0.012933383)
(-0.5043212 -0.18691851 -0.01266504)
(-0.54652502 -0.19753005 -0.012356923)
(-0.58972837 -0.2083013 -0.012024766)
(-0.63384561 -0.21920327 -0.011653193)
(-0.67883156 -0.23025787 -0.0112625)
(-0.72462684 -0.24143065 -0.010823957)
(-0.77114654 -0.25273125 -0.010372259)
(-0.81836189 -0.2641542 -0.0098963043)
(-0.86621605 -0.27567558 -0.0094087724)
(-0.91465105 -0.28729551 -0.0089043292)
(-0.9636292 -0.2990075 -0.0083938381)
(-1.0131079 -0.31078588 -0.0078790512)
(-1.0630378 -0.32263341 -0.0073638431)
(-1.1133865 -0.3345301 -0.0068498129)
(-1.1641089 -0.34646223 -0.0063466836)
(-1.2151621 -0.35842153 -0.005848119)
(-1.2665115 -0.37038888 -0.0053653548)
(-1.3181158 -0.38234927 -0.0049016492)
(-1.3699301 -0.39430303 -0.0044546715)
(-1.4219198 -0.4062164 -0.0040373319)
(-1.4740424 -0.41810155 -0.0036347304)
(-1.5262647 -0.42992259 -0.0032716701)
(-1.5785487 -0.44169952 -0.0029247863)
(-1.6308522 -0.45339563 -0.0026202137)
(-1.6831823 -0.46503267 -0.002332383)
(-1.7354286 -0.47659872 -0.0020734799)
(-1.7876972 -0.48808412 -0.0018302786)
(0.0034355048 -0.0068733449 -0.0084874437)
(5.9811272e-05 -0.009254619 -0.0090354098)
(-0.0064342705 -0.015952926 -0.010219169)
(-0.015838163 -0.020053647 -0.0107048)
(-0.028570346 -0.025731115 -0.010821233)
(-0.043496067 -0.031153208 -0.010742499)
(-0.061179752 -0.037039301 -0.01092296)
(-0.08135763 -0.043089889 -0.01062565)
(-0.10361758 -0.04933065 -0.010904748)
(-0.12807971 -0.055954843 -0.010744071)
(-0.15462495 -0.062624333 -0.010875058)
(-0.18303612 -0.069787538 -0.010836503)
(-0.21332463 -0.077044942 -0.010940028)
(-0.24535246 -0.084631066 -0.010995671)
(-0.27904241 -0.092449435 -0.011047795)
(-0.31422283 -0.10060084 -0.011022098)
(-0.350862 -0.10897162 -0.011021692)
(-0.38885768 -0.11761704 -0.010970175)
(-0.42814793 -0.12651601 -0.010896106)
(-0.46864449 -0.13565698 -0.010795821)
(-0.51026233 -0.14503066 -0.010650082)
(-0.55293277 -0.15464467 -0.0104726)
(-0.59654928 -0.16445801 -0.010254254)
(-0.64108836 -0.17451052 -0.010006444)
(-0.68645983 -0.18473691 -0.009709886)
(-0.73259886 -0.19517232 -0.0094035822)
(-0.77946065 -0.20578291 -0.0090571326)
(-0.82699887 -0.2165564 -0.0086876453)
(-0.87513518 -0.22749617 -0.00830127)
(-0.92385446 -0.23858227 -0.0078962748)
(-0.97309061 -0.24979988 -0.0074777496)
(-1.0228076 -0.26113768 -0.0070575552)
(-1.0729624 -0.27258489 -0.006626407)
(-1.1235155 -0.28412037 -0.0062030913)
(-1.1744232 -0.29573702 -0.0057777822)
(-1.2256478 -0.30741236 -0.0053639978)
(-1.2771507 -0.31913915 -0.0049560482)
(-1.3288841 -0.33089198 -0.004566839)
(-1.3808193 -0.34267069 -0.0041887646)
(-1.4329113 -0.35443977 -0.0038324646)
(-1.4851258 -0.36621462 -0.0034883728)
(-1.5374192 -0.37794586 -0.0031761682)
(-1.5897716 -0.38966383 -0.0028733497)
(-1.6421214 -0.40131357 -0.0025981906)
(-1.6944967 -0.41293056 -0.0023409062)
(-1.7467689 -0.42447703 -0.002089757)
(-1.7990731 -0.43595932 -0.0018688195)
(0.0053962124 -0.0035358617 -0.0051420106)
(0.0014596566 -0.0049872776 -0.0051289019)
(-0.0046084556 -0.007883276 -0.0056484801)
(-0.014978785 -0.010385985 -0.0059900029)
(-0.027406801 -0.013085743 -0.0059907093)
(-0.043234612 -0.016530619 -0.0063223484)
(-0.061371705 -0.019569612 -0.0061120347)
(-0.081857786 -0.023523979 -0.0065536234)
(-0.10467651 -0.02740716 -0.0066038553)
(-0.12970718 -0.031813255 -0.0067976525)
(-0.15659601 -0.03659823 -0.0070376812)
(-0.18552632 -0.041649817 -0.0072252082)
(-0.21622906 -0.047147447 -0.0074718682)
(-0.24869441 -0.052947307 -0.0076625192)
(-0.2827728 -0.059223245 -0.0078821233)
(-0.31841705 -0.065792632 -0.0080234524)
(-0.35551125 -0.072742516 -0.0081910545)
(-0.39397251 -0.080026562 -0.0082898877)
(-0.43372081 -0.087645969 -0.0083929362)
(-0.47462534 -0.095581784 -0.0084397236)
(-0.51664262 -0.10383435 -0.0084626645)
(-0.55966901 -0.11236867 -0.0084382875)
(-0.60367858 -0.12123098 -0.008374738)
(-0.64857385 -0.13034069 -0.0082553606)
(-0.69427913 -0.13973122 -0.0081176585)
(-0.74075806 -0.14937791 -0.0079142393)
(-0.78795147 -0.15926537 -0.0076804859)
(-0.835782 -0.16937456 -0.0074223692)
(-0.88421446 -0.17970653 -0.0071325795)
(-0.93320004 -0.1902226 -0.0068244699)
(-0.98268038 -0.20092814 -0.006504016)
(-1.0326318 -0.21179823 -0.0061685911)
(-1.0829972 -0.22281814 -0.0058298922)
(-1.1337451 -0.23397551 -0.005486842)
(-1.1848314 -0.24524752 -0.0051461629)
(-1.2362177 -0.25662683 -0.0048075329)
(-1.2878652 -0.26808649 -0.0044786395)
(-1.3397342 -0.2796196 -0.00415856)
(-1.3917838 -0.29120406 -0.0038469638)
(-1.4439705 -0.30281668 -0.0035597892)
(-1.4962606 -0.31445455 -0.0032775884)
(-1.5486252 -0.32608101 -0.0030267246)
(-1.6010197 -0.33771717 -0.0027681271)
(-1.6534189 -0.34930079 -0.0025556961)
(-1.7058095 -0.36088009 -0.0023220448)
(-1.7581175 -0.37238769 -0.0021234056)
(-1.8104366 -0.38386766 -0.0019096427)
(0.0056030484 -0.00048849666 -0.00083617755)
(0.0012643731 0.00018192166 -0.00010375437)
(-0.0053221308 -0.00048240169 -0.00052001017)
(-0.015229991 -0.00023811247 -0.0009682867)
(-0.028538406 -0.00071681402 -0.0013216164)
(-0.044196733 -0.0014453801 -0.0014600533)
(-0.062512103 -0.0022621361 -0.0021642825)
(-0.083238175 -0.0038672509 -0.0022908316)
(-0.10636828 -0.0054824549 -0.0028410987)
(-0.13155356 -0.0079018763 -0.0032464597)
(-0.15891667 -0.010478795 -0.0036457237)
(-0.18829058 -0.013740118 -0.0040215186)
(-0.21943533 -0.017337258 -0.0043706496)
(-0.25242243 -0.021455648 -0.0047527288)
(-0.28697248 -0.026045103 -0.0050698428)
(-0.32312149 -0.031097429 -0.0054051679)
(-0.36065233 -0.036592605 -0.0056836651)
(-0.39956968 -0.042519988 -0.0059536183)
(-0.43971612 -0.048841448 -0.0061860791)
(-0.48104942 -0.055593478 -0.0063640006)
(-0.52349981 -0.062722601 -0.0064983929)
(-0.56698778 -0.070278067 -0.006584456)
(-0.61136098 -0.078141138 -0.0066109891)
(-0.65660749 -0.086362953 -0.006618373)
(-0.70265084 -0.094914899 -0.0065474418)
(-0.74944153 -0.10378713 -0.0064523847)
(-0.79689662 -0.11294833 -0.0063338267)
(-0.84499447 -0.12239006 -0.0061792511)
(-0.89366716 -0.13209728 -0.005987569)
(-0.9428722 -0.14204731 -0.0057873265)
(-0.99256586 -0.15223546 -0.005553014)
(-1.0427091 -0.16262774 -0.0053171897)
(-1.0932507 -0.17322175 -0.0050625711)
(-1.1441615 -0.18399014 -0.00480897)
(-1.1953941 -0.19491764 -0.0045498199)
(-1.2469083 -0.20598695 -0.0042947377)
(-1.2986724 -0.21717732 -0.0040445396)
(-1.3506318 -0.22846712 -0.0038009985)
(-1.4027604 -0.23983503 -0.0035708617)
(-1.4550204 -0.25127432 -0.0033433751)
(-1.5073871 -0.26276997 -0.0031252274)
(-1.5597989 -0.27428484 -0.0029190935)
(-1.6122494 -0.28582752 -0.0027188785)
(-1.664684 -0.29734616 -0.0025310501)
(-1.7171126 -0.30887837 -0.0023354341)
(-1.7694526 -0.32035767 -0.0021524631)
(-1.8217786 -0.33183041 -0.0019675756)
(0.0053360522 0.0023376509 0.0031726065)
(0.00012637171 0.0040817286 0.0038769939)
(-0.0056380683 0.006743199 0.0035932091)
(-0.016575368 0.0089815372 0.0034477064)
(-0.029610703 0.011212896 0.0033489135)
(-0.04575174 0.012890501 0.0026145989)
(-0.064344631 0.01432386 0.0024142665)
(-0.085595285 0.01510846 0.0018670611)
(-0.10891087 0.015564373 0.0013190376)
(-0.13467216 0.015376002 0.00082192716)
(-0.16241091 0.01474237 0.00031892269)
(-0.19206938 0.013401582 -0.00026424162)
(-0.2236478 0.011693517 -0.0008513067)
(-0.25694256 0.0092528125 -0.001393117)
(-0.2918928 0.006381041 -0.0019586286)
(-0.32838286 0.0029165797 -0.002478716)
(-0.36634292 -0.0010865108 -0.0029412433)
(-0.40562259 -0.0056051279 -0.0033747743)
(-0.44617731 -0.01063926 -0.0037630734)
(-0.48787369 -0.016161483 -0.0040896222)
(-0.53067714 -0.022163345 -0.004393367)
(-0.57440016 -0.028568898 -0.0046411598)
(-0.61906847 -0.035448219 -0.0048311331)
(-0.6646341 -0.04270209 -0.0049631378)
(-0.71098178 -0.050392941 -0.0050408626)
(-0.75804715 -0.058440216 -0.005084278)
(-0.80579741 -0.066856643 -0.0050688464)
(-0.85416312 -0.07560572 -0.0050097948)
(-0.90308345 -0.084677027 -0.0049195325)
(-0.95251971 -0.094046372 -0.0047979402)
(-1.0024296 -0.10369698 -0.0046549987)
(-1.0527702 -0.11360208 -0.00449812)
(-1.1034948 -0.12375422 -0.0043235978)
(-1.1545747 -0.13412088 -0.0041474343)
(-1.2059546 -0.14468919 -0.0039630706)
(-1.2576106 -0.15544089 -0.0037799175)
(-1.3094933 -0.1663497 -0.0035971501)
(-1.3615704 -0.17739197 -0.0034219304)
(-1.4137998 -0.18856609 -0.0032347984)
(-1.4661627 -0.19984282 -0.003073166)
(-1.518584 -0.2111814 -0.0029114803)
(-1.5710603 -0.2225716 -0.0027649606)
(-1.6235469 -0.23400837 -0.0026058207)
(-1.676024 -0.24544684 -0.0024699425)
(-1.7284601 -0.25691482 -0.0023078904)
(-1.7808158 -0.26834543 -0.0021761234)
(-1.8331254 -0.27979719 -0.0020171259)
(0.0037810788 0.0048630608 0.0075594074)
(-0.0022890192 0.009465309 0.0078664536)
(-0.0086400745 0.014446577 0.0086235819)
(-0.019657985 0.01933339 0.0085212225)
(-0.032901627 0.023888646 0.0079147635)
(-0.049122378 0.028017256 0.0074548666)
(-0.068061287 0.031783512 0.006779138)
(-0.089326741 0.03480236 0.0060352334)
(-0.11307437 0.037451051 0.0053130102)
(-0.13897377 0.039265832 0.0045369063)
(-0.16703662 0.040624639 0.0037693782)
(-0.19703398 0.041222665 0.0030350461)
(-0.22895808 0.041273673 0.0023266447)
(-0.26261647 0.040614752 0.0015908808)
(-0.29791219 0.03935594 0.00091013352)
(-0.33477278 0.037411553 0.00024359264)
(-0.37306241 0.034875977 -0.00036469655)
(-0.41269494 0.031698176 -0.00096024953)
(-0.45357842 0.027965645 -0.0014843776)
(-0.49559981 0.023635097 -0.0019712763)
(-0.53871121 0.018814255 -0.0023975345)
(-0.58278505 0.01333446 -0.0027653678)
(-0.62777474 0.0074589031 -0.0030470831)
(-0.67365149 0.0011589396 -0.0033178761)
(-0.72026061 -0.005665874 -0.0034983124)
(-0.7675727 -0.012901442 -0.0036180262)
(-0.81554721 -0.020595112 -0.0036994561)
(-0.86410888 -0.028665845 -0.0037553846)
(-0.91321301 -0.037115846 -0.0037530378)
(-0.96283078 -0.045907736 -0.0037342562)
(-1.0129023 -0.055027186 -0.0036812892)
(-1.063387 -0.064451526 -0.0036165478)
(-1.1142515 -0.074162604 -0.0035291674)
(-1.1654485 -0.084127818 -0.0034406969)
(-1.216936 -0.09434538 -0.0033357813)
(-1.2686852 -0.1047755 -0.0032354151)
(-1.3206461 -0.11540427 -0.0031313285)
(-1.3727822 -0.12621137 -0.0030297922)
(-1.4250754 -0.13716528 -0.0029326671)
(-1.4774467 -0.14825088 -0.0028409721)
(-1.5299075 -0.15945346 -0.0027448309)
(-1.5823985 -0.17073906 -0.0026460784)
(-1.6349079 -0.18208203 -0.0025512012)
(-1.6873875 -0.19346595 -0.0024472234)
(-1.7398249 -0.20487991 -0.0023336474)
(-1.7921914 -0.21629234 -0.002211787)
(-1.8444891 -0.2277244 -0.0020746464)
(0.0012643998 0.0081927312 0.010770823)
(-0.005188552 0.014340418 0.011603603)
(-0.01159985 0.022128022 0.012993647)
(-0.022982117 0.029160244 0.012652875)
(-0.035929913 0.03609225 0.012449545)
(-0.05276069 0.042708599 0.011628249)
(-0.071570256 0.048661713 0.010987283)
(-0.093280077 0.054082122 0.010034185)
(-0.11721261 0.058847049 0.0092433545)
(-0.14340329 0.062806386 0.0082763026)
(-0.17186484 0.066206434 0.0073575379)
(-0.20211861 0.068703377 0.0065249534)
(-0.23444755 0.070615098 0.0055561116)
(-0.26839903 0.071698516 0.0046780486)
(-0.30409205 0.072067706 0.0038034848)
(-0.3412704 0.071695906 0.0029722871)
(-0.37992543 0.070613742 0.0021731403)
(-0.41988868 0.068838036 0.0014392163)
(-0.46109836 0.066388929 0.00074886562)
(-0.50345357 0.063295023 0.00012438832)
(-0.54685131 0.059548753 -0.00042980593)
(-0.59122618 0.055267011 -0.00094557517)
(-0.63652323 0.050328264 -0.0013585625)
(-0.68263083 0.044922042 -0.0017341038)
(-0.72947733 0.038947895 -0.0020152968)
(-0.7770213 0.03249345 -0.0022658245)
(-0.82521234 0.025550242 -0.002472865)
(-0.87398197 0.018159222 -0.0026081804)
(-0.92329079 0.010345126 -0.0027007077)
(-0.97308913 0.0021395051 -0.0027650401)
(-1.0233248 -0.0064433218 -0.0027973431)
(-1.0739688 -0.015375072 -0.0028090801)
(-1.1249687 -0.024635085 -0.0028033872)
(-1.1762908 -0.034198283 -0.0027864241)
(-1.2278894 -0.044050864 -0.0027569432)
(-1.2797358 -0.054154698 -0.0027289472)
(-1.3317777 -0.064500112 -0.0026930844)
(-1.3839977 -0.075057476 -0.0026600345)
(-1.4363343 -0.085802942 -0.0026182303)
(-1.488769 -0.096710478 -0.0025853081)
(-1.5412656 -0.10776018 -0.0025446499)
(-1.5937939 -0.11892072 -0.0025073456)
(-1.6463181 -0.13016925 -0.0024549335)
(-1.6988142 -0.14148051 -0.0023973828)
(-1.7512549 -0.15283954 -0.0023131406)
(-1.8036274 -0.16421312 -0.0022230926)
(-1.855895 -0.17559898 -0.0021070578)
(0 -1.2427765e-19 0)
(0 6.9712949e-19 0)
(0 6.0239775e-19 0)
(0 5.3160545e-19 -1.8222746e-19)
(0 2.1001227e-19 0)
(0 -7.37593e-21 0)
(0 1.020885e-19 0)
(0 3.811809e-20 0)
(0 -2.4767795e-19 0)
(0 -6.1060053e-19 0)
(0 -7.585516e-19 -1.2595439e-19)
(0 -1.2435767e-19 0)
(0 1.5318609e-19 0)
(0 2.9588982e-19 0)
(0 2.4494718e-19 0)
(0 3.858257e-19 0)
(0 7.0466062e-19 0)
(0 7.049706e-19 3.550952e-19)
(0 6.0884832e-19 0)
(0 7.089377e-19 0)
(0 2.4006705e-19 0)
(-4.2714699e-18 2.0122734e-19 0)
(1.8261689e-18 -4.57311e-19 0)
(-1.0602993e-19 -1.8345562e-19 0)
(3.2874984e-19 -3.227792e-19 -2.4494622e-19)
(-6.1479088e-19 -4.5116892e-19 0)
(-1.5735712e-18 -6.4492684e-19 0)
(2.4048565e-19 -5.3251766e-19 0)
(0 4.0756429e-19 0)
(0 1.4588757e-19 0)
(0 -2.8291327e-19 0)
(0 2.7580415e-20 7.2176756e-19)
(0 3.1109352e-19 0)
(0 4.5309312e-19 0)
(0 -1.2588391e-19 0)
(0 -3.2949551e-19 0)
(0 -2.6937756e-19 0)
(0 6.336242e-20 0)
(0 3.1614373e-19 -7.203863e-20)
(0 2.3391034e-19 0)
(0 -8.4778019e-20 0)
(0 2.1888654e-19 0)
(0 3.9596052e-20 0)
(0 -2.3310809e-19 0)
(0 3.4127944e-19 0)
(0 2.1732834e-20 2.4981261e-19)
(0 3.3811539e-19 0)
(0 5.3470963e-19 0)
(0 4.8426556e-19 0)
(-0.0065442499 0.0040531715 0.0081457047)
(-0.0078979605 0.0050662695 0.0055241967)
(-0.0093226293 0.0052087381 0.0028348983)
(-0.0098249165 0.0055374495 0.00065792556)
(-0.0096445867 0.005100662 -0.0015138055)
(-0.0093490887 0.0053271579 -0.0038562209)
(-0.0076516302 0.0039037452 -0.0065095937)
(-0.014129139 0.021113978 0.011882897)
(-0.016672194 0.022480935 0.0067431831)
(-0.017657146 0.020985189 0.0030098091)
(-0.017888304 0.020293491 -6.4375015e-05)
(-0.018111308 0.021439423 -0.0031221953)
(-0.016594678 0.021458385 -0.006883716)
(-0.015056088 0.02170019 -0.011596562)
(-0.019484363 0.02821126 0.012888968)
(-0.022479391 0.026957065 0.0091162132)
(-0.024522981 0.027851067 0.0039442345)
(-0.024843093 0.02781356 0.0002645028)
(-0.024572411 0.02733997 -0.0042406011)
(-0.023181614 0.027928176 -0.0076194247)
(-0.021282638 0.029525411 -0.013300768)
(-0.032257937 0.040820471 0.012690642)
(-0.034832614 0.041127762 0.0084804716)
(-0.036430637 0.040722352 0.0037134536)
(-0.036988018 0.040540906 -0.00014183547)
(-0.036711796 0.040835258 -0.0044557634)
(-0.03534769 0.041781092 -0.0091556756)
(-0.032538545 0.041439679 -0.013431167)
(-0.044827593 0.049536845 0.012490172)
(-0.04765272 0.04902464 0.0084692885)
(-0.049626082 0.049080182 0.0037796467)
(-0.050055534 0.049073349 -0.00055421804)
(-0.049880486 0.049354484 -0.0049025102)
(-0.04840123 0.049916896 -0.0090597903)
(-0.046129516 0.050717841 -0.014074456)
(-0.062143189 0.059465055 0.011702397)
(-0.064473196 0.059162361 0.0077168748)
(-0.06633349 0.059052293 0.003196036)
(-0.06683885 0.05924102 -0.00070081565)
(-0.066518127 0.059381161 -0.0052464427)
(-0.06495613 0.059755986 -0.0095595035)
(-0.062495832 0.060371792 -0.013724893)
(-0.080843922 0.067283538 0.010994463)
(-0.083399808 0.067111466 0.0069052774)
(-0.085114372 0.067215019 0.0027318081)
(-0.085624086 0.067253617 -0.001239057)
(-0.085368312 0.067681396 -0.0055012452)
(-0.084048759 0.068442128 -0.0094219421)
(-0.081732424 0.068977698 -0.014013036)
(-0.10279642 0.075354565 0.010062301)
(-0.10514764 0.075245809 0.0063971516)
(-0.10687509 0.075220699 0.002132926)
(-0.1073943 0.075457657 -0.0017171443)
(-0.10689881 0.075542889 -0.0056330429)
(-0.10567318 0.076138913 -0.0097519193)
(-0.10322948 0.076710075 -0.013613287)
(-0.12676592 0.082044758 0.0092427405)
(-0.12910417 0.081907436 0.0053071936)
(-0.13063288 0.082007013 0.0015568265)
(-0.13108544 0.082134216 -0.0021050836)
(-0.13086132 0.082736759 -0.0059854513)
(-0.12954049 0.08316011 -0.0097218997)
(-0.12745726 0.084036163 -0.013852033)
(-0.15317185 0.088258958 0.0082299859)
(-0.15535514 0.08818932 0.0047676147)
(-0.15684851 0.088099918 0.00094438486)
(-0.15745958 0.088573578 -0.0027194355)
(-0.15706735 0.088801184 -0.0063454489)
(-0.15583564 0.089332591 -0.010006466)
(-0.15365705 0.089953216 -0.013695391)
(-0.18167848 0.093510473 0.0073069351)
(-0.18376821 0.093362542 0.0038221426)
(-0.18520687 0.093531537 0.00013826666)
(-0.18554951 0.093582984 -0.0030494635)
(-0.18534277 0.094035947 -0.0066666998)
(-0.18405019 0.09457681 -0.010011082)
(-0.18213402 0.095549986 -0.013828823)
(-0.21218309 0.097880925 0.0064269281)
(-0.2141604 0.097830601 0.0029600327)
(-0.21544954 0.097893371 -0.00021435458)
(-0.21603771 0.098212056 -0.0036311797)
(-0.21567989 0.098577306 -0.007061877)
(-0.21442037 0.099190573 -0.010225339)
(-0.21266958 0.099811458 -0.013737498)
(-0.2446411 0.10160555 0.005424118)
(-0.24638018 0.10141521 0.0021904884)
(-0.24772655 0.10155182 -0.00095528569)
(-0.24806997 0.10163152 -0.0041200679)
(-0.24776588 0.10205392 -0.0073125914)
(-0.24664919 0.1026897 -0.010295751)
(-0.24487549 0.10332962 -0.013683155)
(-0.27871181 0.1042976 0.0045712743)
(-0.28040336 0.10417777 0.0014737093)
(-0.28173529 0.10423097 -0.0014579205)
(-0.28203446 0.1044464 -0.0045108134)
(-0.28186897 0.10488571 -0.0075920332)
(-0.28071074 0.10544113 -0.010427581)
(-0.27909502 0.10608508 -0.013694469)
(-0.31454444 0.10630511 0.0036934792)
(-0.31618129 0.10613203 0.00069994345)
(-0.31730257 0.10615044 -0.0020600549)
(-0.31764625 0.10631598 -0.005026585)
(-0.317371 0.10665863 -0.007830259)
(-0.31630081 0.10719702 -0.010580807)
(-0.31473549 0.10782807 -0.013598402)
(-0.35188924 0.10736697 0.0028433023)
(-0.35334712 0.10718618 5.4760669e-05)
(-0.35451315 0.10721154 -0.0025893148)
(-0.3547843 0.10736976 -0.0053205814)
(-0.35456668 0.10774173 -0.0080722342)
(-0.35355832 0.10827736 -0.010629477)
(-0.35205941 0.10888368 -0.013544164)
(-0.39063177 0.1076884 0.0020693652)
(-0.39207814 0.1075154 -0.00062258662)
(-0.39311186 0.10748485 -0.0030886414)
(-0.39332597 0.10761769 -0.0057497103)
(-0.39313815 0.10795041 -0.0082891384)
(-0.39213523 0.10842499 -0.010724285)
(-0.39072772 0.10901982 -0.013452959)
(-0.43075059 0.10719867 0.0013018401)
(-0.43206319 0.10699436 -0.001189181)
(-0.43303384 0.10694709 -0.0035625933)
(-0.43324927 0.10709101 -0.0060269342)
(-0.43305042 0.10738069 -0.0084202527)
(-0.43210211 0.10785289 -0.010748843)
(-0.43074553 0.10839992 -0.013306502)
(-0.47208009 0.10596634 0.00062789372)
(-0.47330192 0.10575192 -0.0017511079)
(-0.47421658 0.10568106 -0.0039877531)
(-0.47436926 0.10579292 -0.0063135642)
(-0.4741875 0.10604196 -0.0085813858)
(-0.47326083 0.10647951 -0.01076808)
(-0.47200877 0.10700239 -0.013152357)
(-0.51453476 0.10399506 -1.5391025e-05)
(-0.51567567 0.1037478 -0.0022439937)
(-0.51650728 0.10366205 -0.0043316875)
(-0.51665661 0.10376303 -0.0065334017)
(-0.51646538 0.10397235 -0.0086410911)
(-0.51559747 0.10439345 -0.01071427)
(-0.51438174 0.10485029 -0.012941326)
(-0.55806175 0.10132037 -0.00057966406)
(-0.55911064 0.10107572 -0.0026643261)
(-0.5598788 0.10096601 -0.0046521617)
(-0.55999162 0.10102448 -0.0067082682)
(-0.55980381 0.10120571 -0.0086936025)
(-0.55896146 0.10157397 -0.010636914)
(-0.55781876 0.10198984 -0.012716685)
(-0.60253917 0.097978661 -0.0010750108)