/*--------------------------------*- C++ -*----------------------------------*\
  =========                 |
  \\      /  F ield         | OpenFOAM: The Open Source CFD Toolbox
   \\    /   O peration     | Website:  https://openfoam.org
    \\  /    A nd           | Version:  6
     \\/     M anipulation  |
\*---------------------------------------------------------------------------*/
FoamFile
{
    version     2.0;
    format      ascii;
    class       pointVectorField;
    location    "0.11";
    object      lm;
}
// * * * * * * * * * * * * * * * * * * * * * * * * * * * * * * * * * * * * * //

dimensions      [1 -2 -1 0 0 0 0];

internalField   nonuniform List<vector> 
28033
(
(-1.780536e-14 4.8656612e-16 1.3104288e-15)
(-5.4375576e-15 3.3318594e-15 9.9433006e-16)
(8076.6165 33.837261 -43.068736)
(7799.0986 -2131.8455 40.721772)
(-1.338461e-14 3.0090723e-15 -2.870051e-16)
(-1.2587315e-14 4.9008913e-15 -4.4266115e-15)
(7821.9878 -2171.7601 -44.158901)
(8097.3511 27.417611 44.860721)
(-5.6329745e-15 1.0535579e-15 6.7193838e-16)
(-2.4534443e-15 3.0423504e-16 5.8836893e-16)
(-5.4923298e-15 2.4302826e-15 8.9528572e-16)
(-2.6209443e-15 -1.1537891e-15 -6.7979696e-16)
(-7.2548563e-15 1.5542294e-15 1.0013199e-15)
(-4.7613589e-15 -9.2108094e-16 -7.3952737e-16)
(-1.132389e-15 -2.2256662e-17 -6.4484848e-16)
(-7.4239857e-16 -2.4218299e-16 -3.6669977e-16)
(-1.1196198e-15 4.5550132e-16 8.383863e-16)
(-2.3465882e-16 2.2667819e-16 1.4996246e-15)
(-4.0583243e-15 -8.7236639e-16 -1.3429605e-15)
(-5.8237189e-15 8.4462789e-16 7.5519031e-16)
(-5.1611762e-15 1.0100276e-15 9.7613867e-16)
(-1.7679952e-15 -8.1010255e-16 4.5192313e-16)
(-4.4158752e-15 1.0299569e-15 -9.452958e-16)
(8056.5562 -125.98582 -48.50629)
(8029.5246 -280.53631 -56.246457)
(8001.5429 -427.82016 -58.167453)
(7972.6606 -565.18742 -55.455446)
(7945.8556 -693.30554 -48.829187)
(7921.9762 -813.63975 -35.495875)
(7900.7643 -926.6999 -20.261864)
(7884.5841 -1037.8617 -1.3882932)
(7871.5063 -1148.6284 16.971411)
(7860.7854 -1264.268 34.007478)
(7853.9166 -1386.9396 46.927847)
(7846.2171 -1518.7987 52.91175)
(7840.1999 -1661.3555 56.983274)
(7831.1334 -1814.04 53.915293)
(7817.7671 -1974.105 46.97227)
(-2.3575331 -15.16901 -16.364757)
(-6.7517234 -20.508295 -22.503582)
(-12.620866 -20.897606 -23.405783)
(-18.890385 -20.643344 -23.98758)
(-28.055716 -17.821901 -18.852704)
(-38.228721 -12.342793 -10.787366)
(-49.165513 -3.951923 0.44674493)
(-58.851777 6.8179974 13.350706)
(-65.786297 20.516794 26.944826)
(-67.901849 36.507503 39.797469)
(-63.62548 54.128454 50.816921)
(-51.838849 72.703502 58.926676)
(-31.726294 91.356008 63.912461)
(-2.7076348 109.32528 64.672305)
(33.700568 125.4051 62.335564)
(76.763258 139.56007 57.579509)
(125.61156 151.57816 50.74342)
(178.14542 160.79855 42.436816)
(231.93611 167.39793 35.167664)
(286.40641 172.04407 28.376549)
(339.50594 174.83612 23.60674)
(390.97235 176.75417 21.009822)
(439.9361 177.80911 20.391013)
(486.62193 179.0668 22.226573)
(531.58573 180.66519 25.684946)
(575.93498 182.91774 29.790992)
(620.42651 186.09418 34.280813)
(666.20017 190.33365 38.352181)
(714.68271 195.17006 40.944862)
(766.42696 200.52436 42.166647)
(822.02703 206.0493 41.221052)
(881.91475 211.28042 38.383393)
(945.83641 216.16878 33.956301)
(1013.107 219.67875 28.357297)
(1083.8201 222.31124 21.847632)
(1156.5649 223.23291 14.893782)
(1231.0634 223.12351 8.4457338)
(1305.9623 221.13625 2.6026745)
(1380.9957 218.00261 -2.0565232)
(1455.2657 214.01933 -4.9818463)
(1528.2207 209.16303 -6.0997106)
(1599.6425 204.17298 -4.955651)
(1669.2879 199.15408 -1.5599497)
(1737.2894 194.67592 4.2027993)
(1803.8748 190.94565 12.141799)
(1869.6613 188.23553 21.937463)
(1935.3133 186.66271 33.178259)
(2001.7442 186.26206 45.210878)
(2069.9149 186.98469 57.360009)
(2140.8525 188.69264 68.849373)
(2215.5371 191.16615 78.920988)
(2294.8705 194.11136 86.861022)
(2379.5823 197.15512 92.05567)
(2470.1931 199.86397 94.030227)
(2566.9364 201.75592 92.488101)
(2669.722 202.34481 87.340641)
(2778.0901 201.18425 78.735346)
(2891.2099 197.92531 67.074984)
(3007.9036 192.37155 53.012985)
(3126.7059 184.52448 37.430791)
(3245.9997 174.59183 21.377628)
(3364.118 162.94205 5.9958892)
(3479.5331 150.22101 -7.5830134)
(3590.9741 136.94006 -18.385361)
(3697.541 123.96255 -25.641492)
(3798.676 111.86269 -28.675073)
(3894.3866 101.13811 -27.25196)
(3985.1758 92.922679 -21.935037)
(4071.5971 86.788648 -12.446793)
(4155.1052 83.806351 0.57715458)
(4236.6707 83.706844 15.912276)
(4317.6931 87.180546 33.580779)
(4400.0089 94.155659 52.592816)
(4485.2837 104.52988 72.160496)
(4575.4821 118.1091 91.367353)
(4672.5279 134.52669 109.28722)
(4778.2411 153.07213 125.02676)
(4894.1629 173.05896 137.64873)
(5021.6796 193.38347 146.58856)
(5161.2865 213.31502 151.03407)
(5313.5684 231.37772 150.90082)
(5478.128 246.75661 145.83423)
(5654.063 258.7018 136.14971)
(5840.5243 266.32013 121.93605)
(6035.418 268.83852 104.08838)
(6237.0441 265.80572 83.266508)
(6442.5583 257.06337 60.406817)
(6649.2791 242.27291 37.308799)
(6853.865 222.82993 15.025397)
(7053.6035 197.52592 -4.5681125)
(7245.3526 170.73264 -20.218751)
(7427.2792 139.27083 -31.218924)
(7599.8615 109.9005 -37.010349)
(7760.3876 81.531634 -38.691375)
(7917.0019 55.789372 -36.725745)
(10.212008 10.06026 19.810193)
(-3.0737492 7.5673918 2.1098635)
(-14.02313 16.434641 6.1759051)
(-17.572589 8.6499182 -1.8002012)
(-28.401131 6.0703891 -6.7201233)
(-40.700411 0.27113158 -17.217203)
(-53.21179 -7.723343 -28.913212)
(-65.613202 -17.835636 -42.36156)
(-74.093665 -31.703609 -54.619577)
(-77.706255 -46.913581 -65.500741)
(-73.297653 -66.251533 -72.452365)
(-61.427851 -86.295141 -75.616777)
(-39.867203 -108.95337 -74.752602)
(-10.163908 -131.9853 -69.514621)
(27.403843 -155.34325 -61.260677)
(70.704107 -178.25912 -50.941799)
(118.14795 -199.5196 -40.212453)
(167.75655 -219.64535 -29.979198)
(217.74966 -237.65966 -21.586749)
(266.97703 -253.88967 -16.196357)
(313.55374 -268.39375 -13.539801)
(357.67654 -281.47483 -14.7036)
(399.26428 -293.97304 -18.681058)
(438.03167 -305.55999 -25.188301)
(475.52528 -317.81942 -33.618596)
(513.19907 -330.45258 -41.953488)
(551.65106 -344.28721 -50.354599)
(592.8252 -359.16918 -56.833536)
(637.37648 -375.75683 -61.735561)
(686.29177 -393.19428 -63.468648)
(740.05632 -412.41807 -63.010303)
(798.21567 -431.90895 -59.943807)
(861.05555 -452.29476 -54.780732)
(927.74396 -472.85624 -47.954626)
(997.51944 -493.26788 -40.288536)
(1069.5971 -513.15 -32.092761)
(1143.1344 -532.35944 -24.185231)
(1217.2997 -551.24461 -16.90233)
(1291.4698 -568.87735 -10.530553)
(1365.1309 -586.27719 -5.5487141)
(1437.3577 -603.04365 -2.402965)
(1507.7754 -619.57348 -1.5146877)
(1576.0602 -636.08941 -3.092537)
(1642.1416 -652.90095 -7.3128029)
(1706.2286 -670.29938 -14.082229)
(1768.8636 -688.59679 -23.089549)
(1830.8499 -708.08557 -33.79007)
(1893.2243 -729.02445 -45.446628)
(1957.1347 -751.62534 -57.226798)
(2023.7447 -776.0121 -68.282709)
(2094.1344 -802.21089 -77.84567)
(2169.2238 -830.11793 -85.278552)
(2249.7318 -859.49611 -90.10247)
(2336.1517 -889.9801 -91.988144)
(2428.7344 -921.09547 -90.743111)
(2527.4707 -952.30107 -86.293327)
(2632.0576 -983.03338 -78.699413)
(2741.864 -1012.7641 -68.18147)
(2855.9035 -1041.0446 -55.16828)
(2972.8479 -1067.55 -40.328554)
(3091.0857 -1092.0979 -24.570449)
(3208.8456 -1114.6597 -9.0004158)
(3324.3657 -1135.3598 5.2021136)
(3436.0833 -1154.4482 16.875513)
(3542.8024 -1172.3168 25.113007)
(3643.7931 -1189.3999 29.229983)
(3738.9676 -1206.3053 29.022438)
(3828.5433 -1223.704 24.603444)
(3913.2395 -1242.0872 16.312719)
(3994.4208 -1262.3723 4.6421143)
(4073.1552 -1284.8645 -9.2942326)
(4150.9075 -1310.591 -25.244527)
(4229.121 -1339.7275 -42.492665)
(4309.4097 -1372.6812 -60.488857)
(4393.5452 -1409.5773 -78.589102)
(4483.2545 -1450.3522 -96.172167)
(4580.3046 -1494.6643 -112.55877)
(4686.3277 -1542.0164 -126.93901)
(4802.7424 -1591.7138 -138.53185)
(4930.6491 -1642.9468 -146.63045)
(5070.6719 -1694.7945 -150.6113)
(5223.0733 -1746.3522 -150.03444)
(5387.5874 -1796.6905 -144.68277)
(5563.5132 -1844.9402 -134.56353)
(5749.6469 -1890.2797 -119.99815)
(5944.2912 -1931.9806 -101.56537)
(6145.2134 -1969.3884 -80.244884)
(6349.6556 -2002.0506 -57.237497)
(6554.4731 -2029.6529 -34.150952)
(6756.3364 -2052.1648 -12.58918)
(6951.9958 -2070.0992 5.8990232)
(7139.039 -2083.9831 19.980302)
(7315.8721 -2095.1538 29.278111)
(7482.826 -2106.39 34.369646)
(7643.1941 -2117.4758 36.315979)
(3.2927448e-15 -1.3239155e-15 2.3845803e-16)
(2.4470133e-15 -9.6672015e-16 3.215493e-17)
(-9.0574249e-15 9.0550918e-16 6.4029168e-16)
(-1.2642219e-16 -5.721845e-16 4.4370095e-16)
(-7.6811722e-15 -4.9270561e-16 4.1193361e-16)
(-7.3893964e-15 2.7533729e-15 -1.0951501e-15)
(-3.2915852e-15 -8.1743692e-16 3.8364228e-16)
(-1.9032499e-15 5.3200654e-16 -8.2319016e-17)
(-4.7409759e-15 -4.8623412e-16 4.3918642e-16)
(-1.2869644e-14 1.1845665e-15 6.4228907e-16)
(-9.6157521e-15 1.4157374e-15 5.9836601e-16)
(-9.4077204e-15 4.9518432e-16 1.1192419e-15)
(-5.982767e-15 2.6210694e-16 3.0473736e-16)
(-1.1478475e-14 -5.3386198e-16 1.6580808e-15)
(-5.257323e-15 3.6289085e-16 2.8600704e-16)
(7.326011 3.86387 -17.507058)
(-4.0023854 20.182783 -14.91661)
(-8.4724459 8.6125669 -16.21718)
(-14.778249 5.2572442 -15.27503)
(-22.598067 6.5520428 -12.390593)
(-34.202004 -4.145639 -2.0222518)
(-46.796484 -9.5651091 8.3155758)
(-57.980569 -20.963929 22.425385)
(-66.862704 -33.567135 34.848396)
(-70.114197 -50.449038 46.279243)
(-65.590902 -65.168754 56.20756)
(-56.217293 -86.873924 60.467487)
(-34.233116 -107.19385 63.56709)
(-8.1374397 -129.42758 61.076553)
(28.599809 -151.19151 57.832462)
(69.706549 -172.70735 51.323001)
(114.9341 -193.845 44.645521)
(163.19027 -210.55097 38.037494)
(212.07694 -228.20066 32.430797)
(260.35756 -241.63051 28.928863)
(307.35767 -256.34685 25.955128)
(351.79885 -266.49914 27.400359)
(393.87081 -277.4561 29.966999)
(433.14843 -289.26265 34.917979)
(472.16566 -300.94272 40.849409)
(510.13827 -313.54476 47.375965)
(550.10769 -325.5172 52.862372)
(592.33403 -341.85894 57.735973)
(637.58494 -356.04994 59.979393)
(688.22015 -375.62228 60.00539)
(742.39445 -393.71485 57.767069)
(802.15591 -413.36952 52.61373)
(865.96688 -433.71716 46.192902)
(933.52592 -454.02885 38.311645)
(1004.2581 -474.41597 29.818641)
(1077.0242 -494.2596 21.962668)
(1150.5985 -514.46755 13.70177)
(1225.9224 -532.44214 6.955271)
(1300.4172 -550.3361 1.0094935)
(1374.4219 -567.31652 -3.0976458)
(1446.7257 -583.68428 -5.2208299)
(1516.9061 -599.70132 -4.9065488)
(1584.5469 -615.69598 -1.7803779)
(1649.4714 -632.02233 4.3335839)
(1711.9699 -649.03955 13.332058)
(1772.6743 -667.10967 24.814549)
(1832.5813 -686.53837 38.060045)
(1892.9471 -707.59129 52.120606)
(1955.1285 -730.45157 65.944017)
(2020.4533 -755.22726 78.509683)
(2090.0824 -781.91582 88.952439)
(2164.9475 -810.40915 96.622365)
(2245.7115 -840.46913 101.10323)
(2332.7852 -871.73786 102.17081)
(2426.3328 -903.74216 99.749774)
(2526.276 -935.9267 93.872907)
(2632.2601 -967.69398 84.687277)
(2743.6097 -998.46206 72.492217)
(2859.2788 -1027.7214 57.802743)
(2977.851 -1055.0886 41.400374)
(3097.5888 -1080.3456 24.336558)
(3216.5761 -1103.4553 7.8755675)
(3332.9068 -1124.5655 -6.6487389)
(3444.8998 -1143.9757 -17.968356)
(3551.3201 -1162.1276 -25.136328)
(3651.4848 -1179.5828 -27.49393)
(3745.2401 -1196.7032 -24.974903)
(3833.1341 -1214.0307 -18.14329)
(3915.7347 -1235.2683 -6.6375206)
(3994.9232 -1253.3808 7.7846783)
(4071.3856 -1277.2151 24.620937)
(4147.1103 -1303.1428 43.149005)
(4223.2721 -1332.7169 62.457339)
(4301.9573 -1366.2799 81.961542)
(4384.7564 -1403.9146 100.91934)
(4473.606 -1445.6503 118.54909)
(4570.3719 -1491.2063 134.05169)
(4676.749 -1540.0862 146.59614)
(4794.201 -1591.5957 155.4012)
(4923.7934 -1644.9105 159.81883)
(5066.1444 -1699.1141 159.38731)
(5221.387 -1753.2651 153.87813)
(5389.1741 -1806.4152 143.31835)
(5568.67 -1857.6395 127.99402)
(5758.5507 -1906.041 108.47888)
(5956.9513 -1950.7835 85.649726)
(6161.4626 -1991.1084 60.706061)
(6369.1349 -2026.4223 35.160989)
(6576.6121 -2056.3407 10.737061)
(6780.3953 -2080.8453 -10.782901)
(6977.1979 -2100.2747 -27.82108)
(7164.4888 -2115.5991 -39.377976)
(7340.8998 -2128.1529 -45.054689)
(7507.0331 -2139.9459 -46.044701)
(7665.1305 -2152.8821 -44.741059)
(7841.4598 -2013.6624 -45.878469)
(7854.6255 -1855.0716 -48.067252)
(7861.2364 -1700.0378 -48.042258)
(7868.2876 -1557.731 -44.55052)
(7872.5107 -1421.8616 -36.189062)
(7879.2539 -1297.8741 -25.134591)
(7887.6917 -1178.856 -9.6517628)
(7900.1341 -1064.1709 7.3429508)
(7916.4264 -950.34183 22.767658)
(7937.4112 -834.10623 37.436945)
(7961.0352 -711.61436 48.364407)
(7989.0288 -579.76875 55.566048)
(8020.0679 -441.33889 55.390495)
(8047.3909 -287.88246 55.027274)
(8077.359 -133.00768 47.948871)
(7937.8657 47.337619 38.665438)
(7777.4039 75.476396 38.55785)
(7612.0535 104.86906 32.930543)
(7437.016 137.07957 25.258805)
(7250.6881 169.32629 11.755333)
(7054.8694 199.67311 -6.5992238)
(6851.6352 226.6126 -28.033825)
(6643.5322 248.9208 -52.041063)
(6433.9064 265.6585 -76.37495)
(6225.8945 276.39557 -99.738794)
(6022.3469 280.95652 -120.53548)
(5826.1224 279.60729 -137.64956)
(5639.0516 272.46991 -150.05928)
(5463.0181 260.61821 -157.58793)
(5299.0064 244.64578 -159.46033)
(5148.0529 225.37301 -155.81718)
(5010.2105 204.00968 -146.9532)
(4884.9515 181.68412 -133.56415)
(4771.2358 159.54497 -116.61775)
(4667.6507 138.62493 -97.032686)
(4572.4618 119.87249 -75.91802)
(4483.7393 103.99841 -54.2838)
(4399.5801 91.510681 -33.092324)
(4318.1573 82.810822 -13.135315)
(4237.6338 77.585619 4.7993975)
(4156.3583 76.734013 19.883612)
(4073.7996 79.924213 31.617634)
(3986.3063 85.759107 40.226644)
(3896.0834 94.057288 43.667553)
(3799.7607 106.43361 42.96307)
(3698.1096 120.18096 37.695359)
(3590.8658 135.39 28.297963)
(3478.5915 151.09698 15.423578)
(3362.2562 166.41052 0.0154496)
(3243.2678 180.49817 -16.765873)
(3123.2583 192.64693 -33.702185)
(3003.9731 202.33594 -49.618427)
(2887.0748 209.27753 -63.503551)
(2774.0092 213.43619 -74.571665)
(2665.9108 214.98818 -82.296277)
(2563.5554 214.2861 -86.405259)
(2467.3596 211.79177 -86.853835)
(2377.4031 208.02997 -83.799767)
(2293.4657 203.53652 -77.5737)
(2215.0637 198.83373 -68.669341)
(2141.48 194.40685 -57.716119)
(2071.8192 190.6829 -45.469287)
(2005.0161 188.03242 -32.754543)
(1939.9897 186.71056 -20.410478)
(1875.5887 186.87467 -9.2259528)
(1810.819 188.5967 0.10738619)
(1744.9327 191.6803 7.1745404)
(1677.1389 195.94377 11.638955)
(1607.5426 201.09165 13.464336)
(1535.5881 206.61213 12.812042)
(1462.0405 212.1163 9.6633561)
(1386.7302 217.58833 4.9395479)
(1311.3087 221.93836 -1.618047)
(1235.1336 224.3462 -9.0583213)
(1159.2829 227.14536 -17.648139)
(1085.0343 227.73074 -26.465497)
(1013.1503 226.29896 -34.738684)
(943.43867 225.47883 -42.291218)
(877.71021 222.41644 -48.743059)
(815.72198 217.78845 -52.5009)
(758.60689 213.34609 -55.283536)
(705.21486 208.45071 -53.762559)
(655.96332 203.43612 -51.78009)
(610.10222 198.82421 -46.553419)
(566.37161 193.44226 -40.091843)
(524.05621 188.52657 -33.287797)
(480.91182 183.8539 -26.74205)
(436.41708 181.23431 -22.165724)
(390.68414 174.91812 -18.346222)
(342.17507 169.97768 -18.119304)
(291.4122 165.1294 -20.073586)
(239.47145 156.3458 -24.313449)
(187.47754 147.99287 -30.899255)
(136.08576 137.02116 -37.833944)
(88.935851 124.18319 -45.962883)
(45.267631 108.04072 -52.798959)
(7.5848371 94.124669 -58.070086)
(-22.231292 79.301127 -60.422482)
(-43.664478 59.118973 -59.406226)
(-58.264874 46.668215 -56.08959)
(-64.275425 32.099756 -47.817046)
(-64.109133 16.245925 -37.580527)
(-58.790715 8.1691536 -26.489877)
(-50.391111 -0.89962788 -13.897524)
(-39.665921 -8.0012663 -2.4062095)
(-30.38029 -11.608421 6.9384917)
(-20.967675 -13.264028 13.632512)
(-15.20035 -11.725859 14.649463)
(-11.23361 -13.379757 14.193682)
(-3.0115828 -12.167896 12.959518)
(-6.8708141e-15 1.5083581e-15 1.9262289e-16)
(-1.2504183e-14 5.7375616e-16 8.4327435e-16)
(-8.3449101e-15 1.4891922e-15 5.3018253e-16)
(-4.9731758e-15 1.4991158e-15 6.2376313e-16)
(-3.4146159e-15 1.5624416e-15 3.1576894e-17)
(2.0582335e-15 9.3962624e-16 -5.746342e-16)
(2.2101935e-15 3.7457559e-17 -1.1841335e-16)
(2.4553765e-15 -8.5141669e-16 -9.3419562e-16)
(1.2987427e-15 1.0081898e-16 1.7950851e-15)
(-4.5074861e-15 9.063971e-16 1.0710522e-15)
(-5.2682467e-15 2.1856155e-15 1.0652666e-15)
(-7.4917339e-15 1.915055e-15 2.2418828e-16)
(-9.400838e-15 1.3708275e-15 6.2833768e-16)
(-6.2048683e-15 1.3247981e-15 5.4317906e-16)
(-6.971104e-15 1.5128103e-15 7.5678131e-16)
(-1.2693866e-14 6.2923345e-15 -2.1364834e-15)
(-5.2452578e-15 2.6791924e-15 -5.3037742e-16)
(-1.0752404e-15 9.8318743e-16 -1.0111087e-16)
(-2.7353382e-15 1.7746034e-15 7.3085398e-17)
(1.0178949e-15 -1.5450237e-16 -4.119182e-16)
(-1.4303492e-15 4.136346e-16 -3.3264033e-16)
(-1.0059749e-14 4.7133437e-15 -1.6449855e-15)
(2.9801421e-15 -1.9180379e-15 -8.3172098e-16)
(-4.79756e-15 2.8035442e-15 1.1420498e-15)
(-5.4778068e-15 3.5047253e-15 -3.934403e-16)
(-1.8117877e-15 1.1581936e-15 -9.1309836e-16)
(-3.9812639e-16 4.7407236e-16 -2.2932148e-16)
(-1.5272242e-15 1.100363e-15 -2.2557932e-16)
(-4.1024849e-15 1.9838802e-15 2.8069696e-17)
(-5.3424143e-16 2.551799e-16 -1.9455919e-16)
(7801.8586 -2139.3092 40.370159)
(7802.3165 -2146.9693 37.189923)
(7802.1778 -2154.1092 31.807359)
(7801.1194 -2159.5498 25.780305)
(7800.5641 -2163.8305 19.069949)
(7799.725 -2167.1362 12.457742)
(7799.5762 -2169.6597 5.5830391)
(7800.1834 -2172.0201 -1.3574272)
(7801.8768 -2174.2057 -8.3608)
(7804.4439 -2176.3986 -15.386981)
(7808.0943 -2177.928 -22.298484)
(7811.4481 -2178.1695 -29.19674)
(7815.112 -2177.2846 -35.646802)
(7818.793 -2175.1438 -40.250959)
(7821.7895 -2172.7103 -44.301984)
(8081.2993 38.703474 -42.213016)
(8083.3599 42.49853 -39.579129)
(8084.8078 46.330195 -34.968019)
(8085.1796 49.42755 -28.836529)
(8086.1316 51.368058 -21.86991)
(8086.554 52.352292 -14.582049)
(8087.4239 52.670873 -6.9445981)
(8089.0681 52.704485 0.69424737)
(8091.655 52.566642 8.2392798)
(8094.8601 52.112223 15.706282)
(8098.2825 50.994489 22.858581)
(8100.9533 48.423819 29.646541)
(8102.3437 44.678051 36.280175)
(8103.2649 39.223728 40.324916)
(8101.2816 33.219747 44.398605)
(1.7098673 -7.1678474 -17.803393)
(-7.1535453 -8.5618461 -14.85859)
(-12.819152 -8.8390493 -19.16774)
(-19.861808 -7.709994 -18.314856)
(-29.557806 -4.6294238 -13.965457)
(-40.268159 0.46800762 -7.4161252)
(-52.224219 6.479351 1.6744126)
(-62.273251 14.684931 11.931442)
(-70.34936 23.679317 22.700552)
(-73.239768 33.668543 33.139399)
(-69.772803 44.114853 41.600617)
(-58.683362 55.138876 48.323535)
(-39.288446 65.524275 52.038315)
(-11.221864 75.845014 53.219092)
(24.889895 85.414616 51.511092)
(67.987005 94.603093 47.92437)
(116.42718 102.19604 42.700024)
(168.96136 109.25713 37.08062)
(223.1942 115.60632 31.252456)
(277.73052 120.77197 26.497108)
(331.46433 125.59146 23.0198)
(382.91192 129.52057 21.130964)
(432.20737 133.01861 20.980932)
(479.10555 136.34008 22.369855)
(523.92788 139.15176 24.940723)
(567.88085 141.79289 28.09985)
(611.98971 144.49095 31.325219)
(657.29079 146.86498 34.082197)
(705.0579 148.96653 35.84274)
(756.00199 151.22067 36.108132)
(811.01354 152.79739 35.05377)
(870.18812 154.03685 32.311163)
(933.42799 154.81021 28.318149)
(1000.3915 154.94513 23.356984)
(1070.5921 154.21741 17.633675)
(1143.3786 152.73847 11.769163)
(1217.7187 150.58501 6.2933884)
(1292.8427 147.46334 1.4123291)
(1368.1192 143.88207 -2.4327566)
(1442.5436 139.95541 -4.7654306)
(1515.8394 135.73997 -5.4858626)
(1587.3253 131.60692 -4.2760613)
(1657.1469 127.8239 -1.0787909)
(1725.08 124.43939 4.12941)
(1791.5294 121.67233 11.20144)
(1856.9978 119.5155 19.904901)
(1922.2142 117.9218 29.76862)
(1988.0646 116.82077 40.275689)
(2055.5405 116.05348 50.786074)
(2125.6857 115.4531 60.636102)
(2199.5177 114.80342 69.170672)
(2277.9739 113.87741 75.795782)
(2361.8341 112.41982 80.014146)
(2451.6666 110.17219 81.460394)
(2547.7564 106.88118 79.921746)
(2650.0563 102.33491 75.360347)
(2758.1425 96.389413 67.931174)
(2871.2016 89.006794 57.99204)
(2988.0546 80.277198 46.10202)
(3107.2224 70.428613 32.99846)
(3227.0421 59.798091 19.578849)
(3345.7993 48.818783 6.772716)
(3461.9018 37.994708 -4.4415267)
(3574.0168 27.738837 -13.286896)
(3681.1227 18.496734 -18.975526)
(3782.7929 10.674792 -21.181986)
(3878.8985 4.4184062 -19.917282)
(3969.445 -0.4296906 -14.844657)
(4055.9251 -2.9792006 -6.5591148)
(4138.7692 -3.6269598 4.7748898)
(4219.4747 -2.2268372 18.141528)
(4299.4756 1.4382355 33.294806)
(4380.4676 7.1524324 49.508744)
(4464.2294 14.654216 66.045525)
(4552.7632 23.773804 82.20645)
(4648.0633 34.028045 97.160171)
(4752.0076 44.927024 110.21059)
(4866.3257 55.910865 120.61804)
(4992.2517 66.254724 127.81514)
(5130.7469 75.472159 131.22709)
(5282.0357 82.647775 130.7738)
(5446.1361 87.536299 125.98646)
(5621.8655 89.455718 117.25662)
(5808.2587 88.040355 104.63789)
(6003.8624 82.917193 89.146991)
(6206.241 74.119434 71.102103)
(6413.2818 61.723811 51.626197)
(6621.458 46.05581 31.686817)
(6828.0146 27.610147 12.784749)
(7029.7263 6.9897957 -4.3224401)
(7223.2111 -15.03126 -17.817366)
(7407.4154 -37.676963 -28.408808)
(7580.4546 -60.650602 -34.774246)
(7742.1409 -82.146802 -39.40182)
(7899.3685 -105.17335 -41.99485)
(1.7516256 -6.2557989 -13.078513)
(-6.7215623 -7.9165804 -13.145048)
(-13.277329 -7.8826819 -17.051001)
(-21.610913 -7.8118856 -14.629803)
(-31.882222 -3.7846009 -11.168606)
(-43.667988 -0.017089958 -5.3697728)
(-55.24383 6.1583725 2.2262739)
(-66.207316 12.455693 10.964914)
(-73.758635 19.597816 20.188549)
(-76.679783 26.880634 28.466491)
(-73.257258 34.324773 35.961981)
(-62.302469 41.49611 41.181872)
(-43.089644 48.45196 44.571376)
(-15.322949 54.89947 45.277964)
(20.270032 60.845924 44.179601)
(62.784164 66.205641 41.031933)
(110.64633 71.203875 37.087064)
(162.35666 75.685062 32.246103)
(215.91926 79.684538 27.821086)
(270.15817 83.417446 23.874065)
(323.15934 86.732944 21.100761)
(374.5658 89.803445 19.629516)
(423.57846 92.571896 19.534816)
(470.3479 95.111745 20.644712)
(515.30487 97.279893 22.694266)
(559.43452 99.165774 25.192767)
(603.58222 100.60249 27.657104)
(648.93771 101.72455 29.687672)
(696.57948 102.48761 30.752554)
(747.50061 102.71134 30.840973)
(802.11599 102.51738 29.536439)
(860.93434 101.93881 26.999034)
(923.88605 100.88732 23.513289)
(990.51853 99.197258 19.104854)
(1060.5322 96.991479 14.326943)
(1132.9669 94.341636 9.388263)
(1207.1435 91.111104 4.7524524)
(1282.1601 87.437413 0.69801168)
(1357.2393 83.479336 -2.4573362)
(1431.5773 79.349429 -4.3766577)
(1504.7368 75.087745 -4.8739637)
(1576.2362 71.020111 -3.8465949)
(1645.8418 67.122437 -0.89953899)
(1713.6632 63.500908 3.654949)
(1779.917 60.165785 9.8051896)
(1845.1687 57.077318 17.318439)
(1910.1078 54.128246 25.826494)
(1975.6438 51.229064 34.847497)
(2042.7716 48.237838 43.838961)
(2112.5488 45.029226 52.227223)
(2186.0084 41.456776 59.456358)
(2264.1012 37.379794 65.030593)
(2347.6204 32.644436 68.544357)
(2437.1422 27.105624 69.709683)
(2532.9539 20.634421 68.369831)
(2635.0074 13.148683 64.51647)
(2742.87 4.6382094 58.294085)
(2855.7212 -4.8080969 50.011875)
(2972.372 -14.996849 40.134341)
(3091.3368 -25.634669 29.279668)
(3210.9485 -36.361314 18.173214)
(3329.4936 -46.780921 7.5878598)
(3445.3736 -56.521208 -1.6633096)
(3557.2739 -65.288223 -8.9519464)
(3664.1451 -72.866861 -13.526222)
(3765.6989 -78.80045 -15.56956)
(3861.3167 -83.709128 -13.878547)
(3952.0524 -86.772197 -9.680807)
(4038.2058 -88.750377 -2.8303318)
(4120.5968 -89.305286 6.6783626)
(4200.8591 -88.752965 17.944945)
(4280.3503 -86.752831 30.638876)
(4360.6989 -83.819445 44.174317)
(4443.838 -80.035336 57.936893)
(4531.6573 -75.683733 71.30957)
(4626.1947 -71.108887 83.664472)
(4729.3802 -66.713589 94.430558)
(4842.9148 -62.88295 102.96716)
(4968.1306 -60.088749 108.90804)
(5106.0014 -58.554627 111.65871)
(5256.6818 -58.846078 111.25674)
(5420.3692 -60.97598 107.26853)
(5595.8637 -65.566198 100.04559)
(5782.7211 -72.489787 89.108382)
(5978.4261 -81.122204 75.805567)
(6181.03 -92.851199 60.077184)
(6388.2008 -106.98961 43.439908)
(6597.1134 -123.11315 26.463007)
(6803.9192 -140.69443 9.8137568)
(7006.6927 -159.9439 -4.659162)
(7200.7015 -179.0364 -17.56605)
(7385.7354 -199.95236 -27.384013)
(7559.8522 -220.49678 -34.800916)
(7721.2755 -240.21419 -41.496786)
(7878.9986 -262.80382 -45.569325)
(0.5242385 -4.7571716 -10.685651)
(-6.95378 -5.8545584 -10.44545)
(-14.363616 -5.1931736 -13.581925)
(-22.579305 -4.4798923 -11.816011)
(-33.757993 -1.78003 -9.5219162)
(-45.203191 1.525075 -4.8017948)
(-57.67667 5.385548 1.4740554)
(-68.05206 9.9455459 8.6002078)
(-75.897639 14.343455 15.684538)
(-78.786281 19.241026 22.91223)
(-75.496253 23.421838 28.655962)
(-64.608521 27.868599 33.406502)
(-45.645072 31.433224 36.072697)
(-18.368016 35.051299 37.327741)
(16.715189 38.014712 36.518798)
(58.492295 40.998819 34.761869)
(105.7261 43.479095 31.687308)
(156.6214 46.005596 28.454514)
(209.64424 48.317796 25.08747)
(263.07187 50.578335 22.273549)
(315.76305 52.778879 20.20396)
(366.77729 54.82291 19.142419)
(415.64691 56.725863 19.037706)
(462.4267 58.368243 19.815552)
(507.50682 59.692496 21.200261)
(551.71591 60.57639 22.84013)
(596.04027 61.031633 24.404305)
(641.56778 60.976402 25.489396)
(689.38471 60.296517 25.929686)
(740.2385 59.134766 25.370736)
(794.88023 57.363818 23.863539)
(853.57642 55.093379 21.439567)
(916.16397 52.233826 18.176743)
(982.57364 48.976293 14.378639)
(1052.1419 45.257772 10.225777)
(1124.2058 41.128622 6.0786073)
(1197.95 36.683976 2.2755513)
(1272.5145 31.921306 -0.96166053)
(1347.324 27.019997 -3.4613717)
(1421.4614 22.10556 -4.893294)
(1494.4263 17.23254 -5.123169)
(1565.7657 12.492132 -3.948421)
(1635.2691 7.984574 -1.3155652)
(1702.9698 3.6159905 2.7477321)
(1769.164 -0.58887554 8.1046018)
(1834.3308 -4.7189319 14.609727)
(1899.1894 -8.9213976 21.898416)
(1964.6232 -13.296265 29.568785)
(2031.6327 -17.979769 37.143693)
(2101.2715 -23.081097 44.139739)
(2174.5777 -28.713853 50.092325)
(2252.5054 -34.977683 54.602399)
(2335.8522 -41.974313 57.353156)
(2425.1908 -49.787579 58.134656)
(2520.8029 -58.480396 56.848965)
(2622.6234 -68.062189 53.516707)
(2730.2053 -78.472185 48.280178)
(2842.7093 -89.556319 41.407202)
(2958.938 -101.07315 33.290429)
(3077.4066 -112.69223 24.432125)
(3196.4588 -124.05231 15.424954)
(3314.4094 -134.77866 6.9105096)
(3429.6877 -144.56407 -0.46840211)
(3541.0312 -153.1543 -6.1452043)
(3647.3282 -160.41985 -9.6780563)
(3748.5213 -166.28567 -10.798065)
(3843.7933 -170.76863 -9.0446409)
(3934.201 -174.90777 -5.7142748)
(4020.4585 -177.15341 1.2857665)
(4102.8287 -178.5845 9.3314915)
(4183.0886 -179.07939 19.027354)
(4262.6037 -178.94693 29.68143)
(4343.0673 -178.33661 40.863521)
(4426.2083 -177.47885 52.028994)
(4514.0494 -176.50596 62.852085)
(4608.5773 -175.88691 72.579193)
(4711.688 -175.84037 80.98717)
(4825.0517 -176.71855 87.485943)
(4949.9878 -178.80543 91.776551)
(5087.4627 -182.32474 93.491929)
(5237.7015 -187.53179 92.546482)
(5400.8154 -194.4452 88.568977)
(5575.8303 -203.36524 82.247105)
(5761.9078 -214.70461 72.793769)
(5957.8378 -228.33443 61.437651)
(6160.1644 -242.29261 47.975032)
(6367.4793 -258.57322 34.345308)
(6576.0477 -275.68665 19.517417)
(6783.283 -294.12459 6.2373523)
(6985.8469 -312.7779 -6.8575242)
(7180.2942 -332.15247 -17.252672)
(7365.7883 -351.92629 -26.594626)
(7540.1402 -372.09976 -33.65526)
(7701.4099 -390.97625 -40.962377)
(7858.7154 -412.77123 -47.02575)
(-0.45922533 -3.1000283 -8.4126817)
(-7.1957922 -4.6630529 -9.0643995)
(-14.199107 -3.5108178 -12.248817)
(-23.096906 -3.6453746 -10.652281)
(-34.132072 -1.1102403 -8.6348746)
(-46.555888 0.52634994 -4.3560509)
(-58.411392 3.5279344 0.71037383)
(-69.217008 6.1510886 6.1860931)
(-76.832245 9.2796191 12.458101)
(-79.682826 11.839666 17.812267)
(-76.293493 14.388033 22.914317)
(-65.582384 16.379263 26.501861)
(-46.902365 18.088197 29.173543)
(-19.968267 19.369949 30.032831)
(14.36371 20.314585 30.036344)
(55.59764 21.058322 28.589382)
(101.90407 21.631098 26.690886)
(152.13014 22.162178 24.247027)
(204.27059 22.642555 21.877593)
(257.13317 23.21795 19.761121)
(309.21206 23.766261 18.243043)
(359.84302 24.395727 17.366435)
(408.41777 24.907645 17.199536)
(455.1182 25.347764 17.622375)
(500.24979 25.479189 18.449973)
(544.64748 25.29407 19.452702)
(589.19713 24.63951 20.30468)
(635.01537 23.447852 20.82834)
(682.98646 21.687778 20.723492)
(734.03902 19.326409 19.938068)
(788.69155 16.372998 18.411102)
(847.22583 12.852675 16.163529)
(909.73985 8.8347603 13.372805)
(975.82354 4.3452843 10.17456)
(1045.1049 -0.60686361 6.8266591)
(1116.7624 -5.8419495 3.5647781)
(1190.3033 -11.387724 0.55628186)
(1264.7727 -17.116063 -2.0739132)
(1339.1293 -23.009816 -3.9267406)
(1412.9386 -28.873284 -4.9002048)
(1485.5707 -34.708791 -4.8704228)
(1556.6339 -40.402576 -3.7452182)
(1625.8909 -45.974878 -1.4065333)
(1693.41 -51.447962 2.0717193)
(1759.4569 -56.868384 6.6391489)
(1824.5233 -62.332735 12.085573)
(1889.3087 -67.968582 18.142864)
(1954.694 -73.880101 24.458135)
(2021.6738 -80.181369 30.63386)
(2091.297 -86.966359 36.271098)
(2164.5986 -94.323598 40.997173)
(2242.5277 -102.32906 44.502711)
(2325.8725 -111.05407 46.556097)
(2415.1923 -120.55345 47.018488)
(2510.746 -130.85542 45.842311)
(2612.444 -141.93603 43.069974)
(2719.8105 -153.70664 38.835552)
(2831.9824 -165.99088 33.361327)
(2947.7496 -178.53763 26.959278)
(3065.6256 -191.02271 20.019873)
(3183.9746 -203.10925 13.013534)
(3301.141 -214.46313 6.4301164)
(3415.6144 -224.80532 0.78833057)
(3526.104 -233.97429 -3.506076)
(3631.7974 -241.882 -6.0077992)
(3732.1122 -248.57171 -6.6305248)
(3827.0517 -254.19797 -5.2076927)
(3917.0581 -258.68811 -1.7311983)
(4002.6906 -262.28338 3.5486788)
(4084.8392 -265.36706 9.8634646)
(4164.9644 -267.98572 17.641189)
(4244.5457 -270.29645 25.905433)
(4325.251 -272.38985 34.486664)
(4408.6042 -274.4535 43.195462)
(4496.7587 -277.06795 51.235893)
(4591.5377 -280.07826 58.700853)
(4694.8954 -283.96223 64.983929)
(4808.4073 -288.86651 69.822188)
(4933.4139 -294.98987 72.980413)