/*--------------------------------*- C++ -*----------------------------------*\
  =========                 |
  \\      /  F ield         | OpenFOAM: The Open Source CFD Toolbox
   \\    /   O peration     | Website:  https://openfoam.org
    \\  /    A nd           | Version:  6
     \\/     M anipulation  |
\*---------------------------------------------------------------------------*/
FoamFile
{
    version     2.0;
    format      ascii;
    class       pointVectorField;
    location    "1.29";
    object      u;
}
// * * * * * * * * * * * * * * * * * * * * * * * * * * * * * * * * * * * * * //

dimensions      [0 1 0 0 0 0 0];

internalField   nonuniform List<vector> 
625
(
(0 0 0)
(0 0 0)
(1.8728014 -0.094904999 0.1541798)
(1.7683367 -0.53879845 0.13053596)
(0 0 0)
(0 0 0)
(1.7736561 -0.58165156 0.12860988)
(1.8779894 -0.13824404 0.15298374)
(0 0 0)
(0 0 0)
(0 0 0)
(1.8460471 -0.20656534 0.14737383)
(1.8197485 -0.3163598 0.14225691)
(1.7944409 -0.42673955 0.13636743)
(0.0048016066 0.017448617 0.016409575)
(0.017087189 0.036275941 0.017029541)
(0.039976669 0.053953536 0.01950503)
(0.073201811 0.071075508 0.020893145)
(0.11322932 0.085391352 0.023392622)
(0.16364634 0.097973926 0.026053913)
(0.22010829 0.10805703 0.029742695)
(0.2842983 0.11518314 0.033761392)
(0.35501032 0.12036651 0.038814174)
(0.43153902 0.1222147 0.043884211)
(0.51372441 0.12183032 0.049998617)
(0.60097554 0.11852739 0.056424316)
(0.69268901 0.11261953 0.063352326)
(0.78857153 0.10410759 0.070696492)
(0.88801943 0.093119049 0.078379048)
(0.99062951 0.079585979 0.086402643)
(1.095962 0.064046719 0.094511647)
(1.2034775 0.04596874 0.10303913)
(1.312937 0.026348605 0.11132726)
(1.4235246 0.0048261746 0.11998978)
(1.5353644 -0.018389053 0.12866223)
(1.6476253 -0.042465114 0.13718955)
(1.7597876 -0.068096346 0.14617831)
(-0.0036578285 -0.013149448 -0.020418715)
(0.010318888 -0.027748901 -0.015904827)
(0.030833274 -0.045586774 -0.01775634)
(0.05972552 -0.062485871 -0.014561061)
(0.095383129 -0.077707989 -0.012381314)
(0.14094915 -0.097586377 -0.0086276909)
(0.19089357 -0.11399552 -0.0053749958)
(0.24925836 -0.13346898 -0.00048830592)
(0.31314705 -0.15338257 0.0042060288)
(0.38319223 -0.17362188 0.01000739)
(0.45871543 -0.19572771 0.016122115)
(0.53931559 -0.21816596 0.022927671)
(0.62481143 -0.24200099 0.030195779)
(0.71452968 -0.26660851 0.037934454)
(0.80836713 -0.29210545 0.046157421)
(0.90573978 -0.31843273 0.054688095)
(1.0063663 -0.34536246 0.063618452)
(1.1098112 -0.37278202 0.072721295)
(1.2157018 -0.40062426 0.082166045)
(1.3236174 -0.42850854 0.091586722)
(1.4332745 -0.45659138 0.10132474)
(1.5440316 -0.48429208 0.11091204)
(1.6557531 -0.51171624 0.12058769)
(0 0 0)
(0 0 0)
(0 0 0)
(0.0032206045 -0.0093287205 0.013718052)
(0.014928592 -0.039950533 0.017430806)
(0.037383232 -0.050186656 0.014863525)
(0.064865428 -0.070987048 0.014626807)
(0.10419486 -0.09450678 0.017265483)
(0.14762167 -0.11045823 0.016775996)
(0.19885359 -0.13360996 0.020244203)
(0.25715383 -0.15456733 0.022129696)
(0.32098481 -0.17743592 0.025941356)
(0.39104005 -0.20093598 0.030045898)
(0.46617107 -0.22460306 0.034420773)
(0.54667721 -0.25026244 0.039822043)
(0.63168352 -0.27564414 0.045396075)
(0.72119722 -0.30247811 0.051570915)
(0.81465161 -0.32962771 0.058177395)
(0.91174098 -0.35735541 0.065103875)
(1.0120989 -0.3855668 0.072401935)
(1.1153374 -0.4139626 0.079965443)
(1.2210302 -0.44250136 0.087747473)
(1.3289048 -0.47102899 0.095744387)
(1.4383365 -0.49926471 0.10387836)
(1.5492639 -0.5273304 0.11217084)
(1.6608823 -0.55469371 0.12056092)
(1.7999693 -0.46942266 0.13471527)
(1.8245349 -0.35943284 0.14093594)
(1.8511503 -0.25023611 0.14748324)
(1.7651901 -0.11142279 0.14292787)
(1.6523399 -0.085681964 0.13310852)
(1.5398985 -0.060930417 0.12317143)
(1.4279921 -0.037168963 0.113092)
(1.3170256 -0.014811458 0.10305546)
(1.2074954 0.0059875905 0.093052232)
(1.0997923 0.025129855 0.083190122)
(0.99436852 0.042251611 0.073512658)
(0.89169486 0.057411613 0.064090964)
(0.79218922 0.070302149 0.054982003)
(0.69629861 0.080848659 0.046268985)
(0.60460792 0.089051491 0.03796786)
(0.51727707 0.094548068 0.030167213)
(0.43517686 0.097929146 0.02276058)
(0.35828935 0.098161955 0.016440608)
(0.28794092 0.095490501 0.010023157)
(0.22339595 0.091648317 0.0042654037)
(0.16590506 0.083850546 -0.00018736597)
(0.11671411 0.073841332 -0.0049108274)
(0.074522515 0.061400926 -0.0079213599)
(0.041305196 0.048978198 -0.01237743)
(0.016886711 0.031254974 -0.012777527)
(0.0080771006 0.014838571 -0.011204437)
(0 0 0)
(0 0 0)
(0 0 0)
(0 0 0)
(0 0 0)
(0 0 0)
(1.7694192 -0.54994282 0.12978897)
(1.7709415 -0.56073167 0.12965809)
(1.7719919 -0.57147441 0.12913126)
(1.8745864 -0.10524347 0.15393751)
(1.8759456 -0.11625412 0.15346857)
(1.8772308 -0.12687068 0.15324534)
(-0.0032927896 0.010298203 0.011473702)
(0.009328879 0.020803259 0.0093236484)
(0.032179899 0.030394823 0.011594003)
(0.063629307 0.03879023 0.012660478)
(0.10358388 0.045785473 0.015156822)
(0.15282452 0.050760393 0.018145757)
(0.20801617 0.053619448 0.021587914)
(0.27128339 0.054658522 0.025894835)
(0.34025592 0.05329944 0.030654268)
(0.41571968 0.049509892 0.035991664)
(0.49651121 0.043777546 0.042022885)
(0.58230278 0.035447575 0.048447148)
(0.67274977 0.025031611 0.055400467)
(0.76735465 0.012365459 0.062775944)
(0.86562804 -0.0024644891 0.070528311)
(0.96720512 -0.01921776 0.078552689)
(1.0715895 -0.037965042 0.086886367)
(1.1783275 -0.058385412 0.095418041)
(1.2871453 -0.08024163 0.10398809)
(1.3973164 -0.10368861 0.11293576)
(1.5088552 -0.128215 0.12151543)
(1.6209015 -0.15341573 0.13049748)
(1.7334579 -0.18008703 0.13923399)
(-0.0070387469 0.0025185032 0.00074754097)
(0.0075754005 0.0034683962 -0.00035579534)
(0.028109597 0.0050821191 0.001641649)
(0.05903547 0.0058727254 0.0034382992)
(0.0985705 0.0042266805 0.0060331401)
(0.14536605 0.0020168654 0.0090723753)
(0.19980877 -0.0016844663 0.012617111)
(0.26128583 -0.0077759591 0.017192197)
(0.32876768 -0.014905122 0.021815896)
(0.40269847 -0.024358253 0.027493339)
(0.48170504 -0.035367816 0.033470653)
(0.56609562 -0.048426208 0.040076324)
(0.65500935 -0.063289186 0.047170808)
(0.74819762 -0.079914434 0.054693505)
(0.84516557 -0.098305109 0.062587456)
(0.945531 -0.11826775 0.07083662)
(1.0488294 -0.13973685 0.079357992)
(1.1546762 -0.1624602 0.088053687)
(1.2626787 -0.18645314 0.096995523)
(1.3722264 -0.21128775 0.10594393)
(1.4833365 -0.23697898 0.11504274)
(1.5951035 -0.26321221 0.12418112)
(1.707891 -0.2899049 0.13321765)
(-0.0086225814 -0.0058959679 -0.007150411)
(0.006518873 -0.011937713 -0.0070555704)
(0.025382504 -0.017526447 -0.006587502)
(0.056892542 -0.025992878 -0.0046009629)
(0.094467128 -0.035638995 -0.0023432562)
(0.14027373 -0.044094656 0.00048645052)
(0.19370391 -0.056443558 0.0046372243)
(0.25315139 -0.068087504 0.0086211556)
(0.31939916 -0.081755881 0.013652443)
(0.3914464 -0.096979746 0.019233821)
(0.46892367 -0.11317287 0.025217496)
(0.55168658 -0.13129316 0.031958121)
(0.63895586 -0.15051099 0.039042497)
(0.73066511 -0.17124344 0.046640024)
(0.82616511 -0.19329244 0.054650637)
(0.92524201 -0.21645109 0.062988414)
(1.0273022 -0.24076147 0.071640536)
(1.1321546 -0.26598043 0.080549187)
(1.2391302 -0.29189926 0.089589058)
(1.348136 -0.31853059 0.098901816)
(1.4584731 -0.34547076 0.10807658)
(1.5699761 -0.37262896 0.11750314)
(1.6821689 -0.39982149 0.12685883)
(0 0 0)
(0 0 0)
(0 0 0)
(0 0 0)
(0 0 0)
(0 0 0)
(0 0 0)
(0 0 0)
(0 0 0)
(0.0047624924 -0.0054733731 -0.0094967925)
(0.0074751885 -0.0078072291 -0.0025736041)
(0.0072006935 -0.0056798836 0.0038893325)
(0.020722789 -0.033834438 -0.0087464555)
(0.021200862 -0.035455086 -0.0012980121)
(0.021074868 -0.034939443 0.0084534617)
(0.038467193 -0.046469017 -0.0097115125)
(0.041821338 -0.047003869 -0.0021547182)
(0.04281952 -0.052421545 0.0076734596)
(0.067088448 -0.065212904 -0.006892353)
(0.070374402 -0.069273082 -6.1707168e-05)
(0.069627596 -0.069361441 0.0078509036)
(0.10423335 -0.084134596 -0.0053521134)
(0.10695168 -0.086623839 0.00087781307)
(0.10784849 -0.091657239 0.0095549101)
(0.14714832 -0.10152354 -0.0025540961)
(0.15062445 -0.10571415 0.0040392217)
(0.15106718 -0.10912773 0.011029205)
(0.19836091 -0.12091013 0.0010981292)
(0.20152746 -0.12646535 0.0061648074)
(0.20227455 -0.13115557 0.014178095)
(0.25584102 -0.14062529 0.0049234082)
(0.25888081 -0.14505862 0.010139775)
(0.25986617 -0.15102991 0.016629571)
(0.31943265 -0.16072465 0.0096449061)
(0.32244485 -0.16749586 0.014329349)
(0.32324545 -0.17306133 0.020702818)
(0.38922918 -0.18258292 0.014786085)
(0.39203609 -0.18899041 0.019193474)
(0.39319127 -0.19596974 0.025091344)
(0.46413986 -0.20440426 0.020642883)
(0.46698372 -0.21203945 0.024682487)
(0.46792351 -0.21917073 0.030001934)
(0.54455785 -0.22810875 0.02705003)
(0.5471128 -0.23604818 0.030666693)
(0.54821633 -0.24380341 0.035639507)
(0.62946123 -0.25202055 0.033898126)
(0.63198273 -0.2604738 0.037201177)
(0.63301991 -0.26893981 0.041717767)
(0.71887512 -0.27721335 0.041304252)
(0.72120245 -0.2862573 0.044267893)
(0.72223319 -0.29496739 0.048231306)
(0.81226027 -0.30304411 0.04911688)
(0.81444891 -0.31237194 0.051669017)
(0.81549934 -0.32169044 0.055246077)
(0.90924468 -0.32959638 0.057267345)
(0.91131936 -0.33936934 0.059528779)
(0.91233062 -0.34893635 0.062597754)
(1.0094932 -0.3567345 0.065809975)
(1.0114107 -0.36674109 0.067691194)
(1.0124466 -0.37667772 0.070278441)
(1.1125824 -0.38428168 0.074553501)
(1.1144174 -0.39456328 0.076091088)
(1.115443 -0.40474052 0.078256594)
(1.2181202 -0.41211834 0.083564645)
(1.2198181 -0.42254258 0.084782926)
(1.2208667 -0.43292627 0.086434248)
(1.32577 -0.44005735 0.092689607)
(1.3274016 -0.45066085 0.09357069)
(1.3284762 -0.46119072 0.094807744)
(1.4350179 -0.46796986 0.1019917)
(1.4365378 -0.47855722 0.10252878)
(1.4376689 -0.48920079 0.10331962)
(1.5456471 -0.49562143 0.11126354)
(1.5471401 -0.5063818 0.11154096)
(1.5483092 -0.51713967 0.111917)
(1.6571357 -0.52304861 0.12059328)
(1.6584709 -0.53368371 0.12051236)
(1.6598325 -0.54435004 0.12057893)
(1.8478993 -0.21711791 0.14775076)
(1.849301 -0.22796264 0.14751997)
(1.8504047 -0.23878119 0.14749599)
(1.8211417 -0.32708089 0.14211421)
(1.8225533 -0.33806885 0.14161264)
(1.823539 -0.34861534 0.14129309)
(1.7957995 -0.43784323 0.13582751)
(1.797295 -0.4486021 0.13554586)
(1.7984208 -0.45917878 0.13517581)
(0.012506879 0.0138653 0.0079542244)
(0.012113807 0.015430629 0.0026497334)
(0.013020821 0.014501604 -0.0036562548)
(0.022954566 0.033403604 0.0093691032)
(0.024798719 0.032924261 0.00046911325)
(0.024029395 0.031218687 -0.0066292946)
(0.04821911 0.052236298 0.010730125)
(0.047856729 0.050527205 0.0046288834)
(0.048254336 0.049695892 -0.0050254982)
(0.078642318 0.06716315 0.012793136)
(0.080596058 0.065289221 0.0056768344)
(0.080203475 0.064102627 -0.0022658292)
(0.12031384 0.082359748 0.01585387)
(0.12236599 0.079376998 0.0082899411)
(0.12172614 0.07682678 0.0014625949)
(0.16988344 0.093279809 0.018398806)
(0.17072354 0.089393314 0.012925774)
(0.17112587 0.086872465 0.0051513722)
(0.22613369 0.10267589 0.022645233)
(0.22789521 0.098710751 0.016557569)
(0.22812562 0.094984209 0.0096622341)
(0.29033248 0.10933699 0.027027624)
(0.29187448 0.10454265 0.021387848)
(0.29172834 0.10066131 0.014980623)
(0.36033893 0.11398908 0.032365399)
(0.3619069 0.10776427 0.026822104)
(0.36242265 0.10300764 0.020919525)
(0.43697959 0.114819 0.037841764)
(0.43833873 0.10876405 0.033236352)
(0.43877759 0.10315778 0.027151546)
(0.5187617 0.11381073 0.044284098)
(0.52007999 0.10708 0.03944191)
(0.52052859 0.10094807 0.034137808)
(0.60560224 0.1099856 0.051073152)
(0.60699903 0.10257158 0.04672274)
(0.60756286 0.09584832 0.041760517)
(0.69705444 0.10356501 0.058398934)
(0.69843074 0.095580018 0.054314005)
(0.69896351 0.088311589 0.049702947)
(0.79260055 0.094618483 0.066104765)
(0.79391756 0.086121457 0.062388622)
(0.79451109 0.078326543 0.058163297)
(0.89173585 0.083208533 0.074251884)
(0.89305957 0.074235621 0.070814065)
(0.89371798 0.065946208 0.0669874)
(0.99405314 0.069425779 0.082579693)
(0.99536729 0.060043147 0.079541694)
(0.99602929 0.051335843 0.076101206)
(1.0990789 0.053521267 0.091287586)
(1.1003543 0.043761742 0.088538093)
(1.1011291 0.034593851 0.085513628)
(1.2063458 0.035382132 0.10005204)
(1.2076673 0.025364244 0.097656455)
(1.2084454 0.0159184 0.095059202)
(1.3154378 0.0156045 0.10896394)
(1.3167267 0.0052634871 0.1070222)
(1.3176263 -0.0045710209 0.10477596)
(1.4258722 -0.0060736796 0.11816898)
(1.4272893 -0.016512155 0.11623686)
(1.4282086 -0.026631334 0.11452599)
(1.5374629 -0.029199517 0.12703597)
(1.5388209 -0.039916664 0.12564419)
(1.539776 -0.050154718 0.1243174)
(1.6494645 -0.053548347 0.1358929)
(1.6507775 -0.063995616 0.13503046)
(1.6518853 -0.074630373 0.1340127)
(1.7620626 -0.078739318 0.1453131)
(1.7632737 -0.089538988 0.14445115)
(1.7645236 -0.10039381 0.14384507)
(-0.0012505539 0.0051668751 -0.0068015664)
(0.011976801 0.019486119 -0.0069350614)
(0.033214644 0.022820765 -0.0034747901)
(0.066974308 0.029849041 -0.0024325645)
(0.10724674 0.033708969 0.0012247264)
(0.15608451 0.036029986 0.0046059622)
(0.21242995 0.036303316 0.0088482812)
(0.27509398 0.034372839 0.013840721)
(0.34472574 0.030377514 0.019188704)
(0.41990483 0.024188766 0.025335706)
(0.50058873 0.01579954 0.031822662)
(0.58641664 0.0051003662 0.039048176)
(0.67677326 -0.0075173948 0.046639829)
(0.77128008 -0.022235847 0.054672264)
(0.86955431 -0.038913849 0.063141213)
(0.97109111 -0.057329381 0.071860989)
(1.0754982 -0.077440792 0.080920904)
(1.182362 -0.099060859 0.090128331)
(1.2911768 -0.1219733 0.099533146)
(1.4016486 -0.14605486 0.10899027)
(1.5132637 -0.17111071 0.11855502)
(1.625481 -0.19682372 0.12805428)
(1.7384456 -0.22353786 0.13779153)
(-0.0058418901 0.0022732908 0.0012258822)
(0.0079647488 0.0018826273 0.00086685604)
(0.031871588 -0.0023833355 0.0030588387)
(0.063532657 -0.0026575601 0.0035427007)
(0.10289628 -0.0077065381 0.0059463327)
(0.15098704 -0.012765604 0.0092514616)
(0.20532464 -0.019320896 0.012285686)
(0.26703298 -0.027935485 0.016780113)
(0.3348062 -0.038129125 0.021454764)
(0.40845137 -0.049908046 0.026826636)
(0.48753037 -0.063586078 0.032756375)
(0.57182698 -0.079067721 0.039238856)
(0.66052288 -0.095986889 0.046164867)
(0.75362124 -0.11476056 0.053615257)
(0.85046227 -0.13480912 0.061384502)
(0.95068485 -0.15641809 0.06954488)
(1.0539554 -0.17914762 0.077997436)
(1.1597411 -0.20307652 0.086623021)
(1.2677181 -0.22785174 0.095540146)
(1.3774196 -0.25343839 0.10446865)
(1.4885076 -0.27959474 0.11354748)
(1.600283 -0.30614409 0.12264468)
(1.7135464 -0.33313136 0.13176665)
(-0.007433775 -0.0069160554 0.0067171125)
(0.010642943 -0.011504006 0.0071703329)
(0.031976129 -0.027378512 0.010547209)
(0.061519186 -0.031808261 0.0090446876)
(0.10132018 -0.047035403 0.01255333)
(0.14720973 -0.058901392 0.014138049)
(0.20035625 -0.072133244 0.016836358)
(0.26059301 -0.08869464 0.020707438)
(0.32640993 -0.10386695 0.024430009)
(0.39861495 -0.12241968 0.02934316)
(0.47583774 -0.14111312 0.034514198)
(0.55839971 -0.16154967 0.040279857)
(0.64542458 -0.18319243 0.046647392)
(0.73691452 -0.20587087 0.053311436)
(0.83217227 -0.22979855 0.060509921)
(0.93099312 -0.25456698 0.06799417)
(1.0329268 -0.28022958 0.075802772)
(1.1375482 -0.30656589 0.083857704)
(1.2444995 -0.33342556 0.092148092)
(1.353383 -0.36067749 0.10050471)
(1.4636605 -0.38804253 0.10913065)
(1.5752555 -0.41553566 0.11758248)
(1.687334 -0.44268918 0.12646416)
(0.0023228053 0.0049882118 0.0052524609)
(0.0020638849 0.0052830506 0.0020990737)
(0.0041290133 0.0042180313 -0.0029697837)
(0.016492804 0.019957876 0.0043955875)
(0.018998818 0.019208383 5.5133548e-05)
(0.016915559 0.018765204 -0.0041022512)
(0.039670128 0.027406457 0.0064282798)
(0.039518361 0.02593818 0.0029550311)
(0.040020358 0.024100724 -0.00094400859)
(0.070337273 0.036194771 0.0081767753)
(0.072606129 0.034216035 0.0040897464)
(0.072224249 0.03153775 0.00032690454)
(0.11103704 0.041909724 0.01010914)
(0.11277255 0.03885722 0.007023887)
(0.11278979 0.035946288 0.0037046313)
(0.15920939 0.045977442 0.013775401)
(0.16097901 0.042770508 0.010560557)
(0.16059734 0.038900021 0.0070167629)
(0.21444349 0.048349772 0.017379631)
(0.2163663 0.044423682 0.014075566)
(0.21683034 0.039954523 0.011251273)
(0.27716047 0.048764902 0.021653309)
(0.27925394 0.043413044 0.018894054)
(0.27917668 0.038301456 0.015730844)
(0.34603781 0.046112011 0.026851878)
(0.34788998 0.040975177 0.024010626)
(0.34821357 0.035433611 0.021493192)
(0.42100247 0.042230271 0.032270671)
(0.42300814 0.035879945 0.029604527)
(0.42322693 0.029443665 0.027068702)
(0.50150437 0.035626892 0.038556587)
(0.50324576 0.028702364 0.036177062)
(0.50357759 0.022012406 0.033685996)
(0.58689559 0.026775091 0.045190338)
(0.58872401 0.019351994 0.042871003)
(0.58913774 0.011848005 0.040665643)
(0.67706261 0.015877717 0.05235826)
(0.67880509 0.0078067845 0.050255085)
(0.67919494 -0.00014202167 0.048215219)
(0.77130811 0.0026907722 0.060001503)
(0.77295547 -0.0058166636 0.0580593)
(0.77341441 -0.014294109 0.056144084)
(0.86925023 -0.012453773 0.067954629)
(0.87087767 -0.0214804 0.066174853)
(0.87138473 -0.030398807 0.06446632)
(0.97054224 -0.029593518 0.076272376)
(0.9720814 -0.03899246 0.074703234)
(0.97261255 -0.048304641 0.073121245)
(1.0745691 -0.048518327 0.084845405)
(1.0760768 -0.058271474 0.083416313)
(1.0767163 -0.067977785 0.08204146)
(1.1810961 -0.069135829 0.09359934)
(1.182577 -0.079212405 0.092394191)
(1.1832072 -0.089137878 0.091148597)
(1.2895897 -0.091094949 0.10251661)
(1.2909383 -0.10141422 0.10145892)
(1.2917685 -0.11173667 0.10044636)
(1.399447 -0.11459859 0.11160751)
(1.4010179 -0.12515714 0.1107307)
(1.4017675 -0.13551535 0.10975048)
(1.5106809 -0.13906289 0.12045044)
(1.5123846 -0.14963448 0.11997536)
(1.5131121 -0.16023023 0.11920345)
(1.6226784 -0.16441676 0.12973631)
(1.623997 -0.17498513 0.12926071)
(1.6249378 -0.18585484 0.1285453)
(1.7351544 -0.19061494 0.13880173)
(1.7363752 -0.20147992 0.13836918)
(1.7375714 -0.21231203 0.13801456)
(-0.0024802412 0.0015820159 -0.00030198007)
(-0.0011937959 0.001760989 -0.0011908923)
(0.0004150058 0.001931474 -0.00014019445)
(0.012986063 0.0030758565 -0.0020683146)
(0.014838879 0.0029572889 -0.0013407001)
(0.012916946 0.0014888968 -0.0007240613)
(0.035416444 0.0031999006 0.00071591771)
(0.036749495 0.0012092822 0.0019906688)
(0.036933967 -9.5149898e-05 0.0018448502)
(0.065068534 0.0026581786 0.0015107345)
(0.068841008 -0.00016857375 0.0023686287)
(0.067780734 -0.0030039257 0.002517414)
(0.10533397 0.00080430792 0.0046662065)
(0.10792686 -0.0028799332 0.006160532)
(0.10684701 -0.004832448 0.0048773817)
(0.15167479 -0.0025203633 0.0077394944)
(0.15443464 -0.0067764453 0.0082681133)
(0.15422421 -0.010291443 0.008334764)
(0.20591576 -0.0067982775 0.010950798)
(0.20888182 -0.012225866 0.012237339)
(0.2084424 -0.016344871 0.01116152)
(0.26724411 -0.013947505 0.015917462)
(0.26995789 -0.019637396 0.016643764)
(0.26950459 -0.023629177 0.016069061)
(0.33433819 -0.021494243 0.020351919)
(0.33694531 -0.028037233 0.021045155)
(0.33702118 -0.033550654 0.02038898)
(0.40801322 -0.031737394 0.026133779)
(0.41061675 -0.038935722 0.02695089)
(0.41051652 -0.044570204 0.026218735)
(0.48672712 -0.043504583 0.032199925)
(0.48905024 -0.051147446 0.03275812)
(0.48918135 -0.05764408 0.032002841)
(0.57074261 -0.057072054 0.038780336)
(0.57309598 -0.065353898 0.039323625)
(0.57328483 -0.072373376 0.038634907)
(0.65937763 -0.072462626 0.046011681)
(0.66156336 -0.081233734 0.046486537)
(0.66173809 -0.088822018 0.045698173)
(0.7521768 -0.089580869 0.053536319)
(0.7542446 -0.098846528 0.053872769)
(0.75454836 -0.10692231 0.053169099)
(0.84887315 -0.10833299 0.061548924)
(0.85082933 -0.11793911 0.061858202)
(0.85118561 -0.12654455 0.061116261)
(0.94889013 -0.12864271 0.069850744)
(0.95072968 -0.13862649 0.07004797)
(0.9511697 -0.14762581 0.069329552)
(1.051906 -0.15031904 0.07845985)
(1.0536484 -0.16055861 0.078589375)
(1.0541535 -0.17000087 0.077896594)
(1.1574824 -0.17328031 0.087250641)
(1.1590972 -0.18381007 0.087314459)
(1.1597428 -0.19349906 0.086621501)
(1.2651485 -0.19731891 0.096264207)
(1.266743 -0.20794435 0.096224385)
(1.2674175 -0.2180423 0.095630774)
(1.3746017 -0.2222435 0.10527756)
(1.3759728 -0.2332478 0.10526893)
(1.376862 -0.2433312 0.10461337)
(1.4855665 -0.24793351 0.11465995)
(1.4865509 -0.25882442 0.11417113)
(1.4877989 -0.26924904 0.11383144)
(1.5968542 -0.27423593 0.12362946)
(1.5982797 -0.28492181 0.12351158)
(1.5991853 -0.29564436 0.12287863)
(1.709486 -0.30072248 0.13281738)
(1.710964 -0.31174045 0.13251019)
(1.7122023 -0.32227962 0.13216689)
(-0.0023793057 -0.0043993733 -0.0033769253)
(-0.0024984372 -0.0040768058 -0.00044077277)
(-0.0024015595 -0.0039902437 0.0027880203)
(0.014698412 -0.011594992 -0.0040285732)
(0.016794147 -0.0096404832 6.7452133e-05)
(0.01543086 -0.011989847 0.0038646513)
(0.033681202 -0.019695112 -0.00313919)
(0.03615828 -0.024368354 0.0014172704)
(0.036976297 -0.02532593 0.0057992325)
(0.065208802 -0.02996961 -0.0018102734)
(0.066754559 -0.029936052 0.0020794623)
(0.067206516 -0.032961671 0.0054130792)
(0.10220344 -0.038668323 0.00089477154)
(0.10492067 -0.043059667 0.0046186163)
(0.10561956 -0.045188902 0.0082844245)
(0.14803968 -0.049754647 0.0029158379)
(0.15023677 -0.053234002 0.0066613049)
(0.15105573 -0.057301614 0.0096273082)
(0.20090515 -0.062143453 0.0071299706)
(0.20319614 -0.066444963 0.010569073)
(0.20425433 -0.070113887 0.013320583)
(0.26012661 -0.074562132 0.010874226)
(0.26231735 -0.079959166 0.013682999)
(0.26356004 -0.085175262 0.016607932)
(0.32598834 -0.089276767 0.01559728)
(0.32815224 -0.094851884 0.0186523)
(0.32947514 -0.10050468 0.021247103)
(0.39762257 -0.10499722 0.021118258)
(0.39980124 -0.11157777 0.023658799)
(0.40105567 -0.11776266 0.025960713)
(0.47471741 -0.12195892 0.026836443)
(0.47671857 -0.12900381 0.029231842)
(0.47813925 -0.13601012 0.031484954)
(0.55706442 -0.14062391 0.033429025)
(0.55906043 -0.14825649 0.035646091)
(0.56040378 -0.15575427 0.037526588)
(0.6439217 -0.1603576 0.040340544)
(0.64576553 -0.16862778 0.042244914)
(0.64714718 -0.17672387 0.044033067)
(0.73522212 -0.18162345 0.047761288)
(0.73701141 -0.19024813 0.049509163)
(0.73833592 -0.19881972 0.05105864)
(0.83032479 -0.20397426 0.055619368)
(0.83199428 -0.21309567 0.057114878)
(0.83335768 -0.22216902 0.05845301)
(0.92897414 -0.22748542 0.063788522)
(0.93060311 -0.23699913 0.065077812)
(0.93188094 -0.24642728 0.066206568)
(1.0306951 -0.25202285 0.072298785)
(1.0321873 -0.26181001 0.07335069)
(1.0335228 -0.27160803 0.074298523)
(1.1351157 -0.27734935 0.081029393)
(1.1366222 -0.28749108 0.08189212)
(1.1379108 -0.297541 0.082596636)
(1.241805 -0.30343476 0.089955219)
(1.2431812 -0.31371281 0.090584575)
(1.2444781 -0.3239789 0.091138296)
(1.3504162 -0.32998965 0.099093165)
(1.351845 -0.3405105 0.099483073)
(1.3531691 -0.35095314 0.099805284)
(1.4604443 -0.35688241 0.10811289)
(1.4617512 -0.36744067 0.1084101)
(1.463082 -0.37795781 0.10859165)
(1.5716968 -0.38398859 0.11742939)
(1.5730542 -0.39469763 0.11755648)
(1.5744795 -0.40531514 0.11750533)
(1.6835459 -0.41107482 0.12662936)
(1.6848704 -0.42161538 0.12651041)
(1.6861759 -0.43245785 0.12625132)
)
;

boundaryField
{
    free
    {
        type            calculated;
    }
    fixed
    {
        type            calculated;
    }
    traction
    {
        type            calculated;
    }
}


// ************************************************************************* //
