/*--------------------------------*- C++ -*----------------------------------*\
  =========                 |
  \\      /  F ield         | OpenFOAM: The Open Source CFD Toolbox
   \\    /   O peration     | Website:  https://openfoam.org
    \\  /    A nd           | Version:  6
     \\/     M anipulation  |
\*---------------------------------------------------------------------------*/
FoamFile
{
    version     2.0;
    format      ascii;
    class       pointVectorField;
    location    "0.29";
    object      lm;
}
// * * * * * * * * * * * * * * * * * * * * * * * * * * * * * * * * * * * * * //

dimensions      [1 -2 -1 0 0 0 0];

internalField   nonuniform List<vector> 
625
(
(-3.6361799e-15 2.112754e-16 -3.2990721e-16)
(2.8178306e-17 1.9013092e-16 6.1994168e-17)
(3715.6444 -789.8446 217.14774)
(3400.075 -1512.4072 105.9195)
(6.5239771e-16 2.739523e-16 -5.5565719e-16)
(-3.7042918e-15 1.4868296e-15 -1.3023874e-15)
(3465.9064 -1619.7046 102.34358)
(3779.5207 -904.58332 212.34014)
(-1.9658614e-16 -3.2115893e-17 -1.1045223e-16)
(1.4766345e-16 -3.4299605e-16 -2.8648028e-16)
(-1.0135278e-15 7.0169807e-16 1.7538027e-16)
(3634.985 -972.49932 187.54221)
(3555.0572 -1149.7754 160.4174)
(3479.5786 -1329.0152 133.79635)
(25.591711 81.295531 67.823962)
(105.82324 160.55017 69.422813)
(238.72344 220.47198 61.8329)
(414.85548 257.75087 48.475555)
(616.41145 267.85464 35.124006)
(841.65932 249.89232 17.455066)
(1071.7286 207.59659 -0.43513862)
(1299.0842 143.31578 -19.174306)
(1513.5668 64.064654 -33.12016)
(1707.3308 -24.586421 -44.483942)
(1877.6364 -113.43351 -48.999332)
(2023.1484 -197.03672 -46.562257)
(2147.0149 -269.54869 -36.329378)
(2254.2523 -327.47133 -18.070395)
(2353.1652 -370.67781 7.3840092)
(2451.3963 -401.57533 38.189492)
(2558.3746 -425.26613 71.216823)
(2680.1146 -448.23548 103.63857)
(2820.6424 -476.35351 131.96899)
(2979.9768 -515.18586 156.04277)
(3156.0498 -566.88714 175.13354)
(3341.676 -631.39179 190.39573)
(3531.3523 -709.986 203.14455)
(-8.6738908 -86.003081 -120.75036)
(77.972304 -164.14026 -86.759732)
(203.2833 -268.05527 -87.400822)
(347.53493 -348.72623 -67.697831)
(522.9074 -427.83451 -54.333783)
(724.09945 -507.46072 -38.20255)
(927.81423 -569.31325 -25.558743)
(1138.6912 -627.13567 -12.388454)
(1339.6258 -673.07373 -2.4821439)
(1529.5149 -708.01315 4.9248583)
(1698.7352 -735.50953 8.7730868)
(1847.0414 -756.3527 9.3825446)
(1973.3868 -774.18924 6.7393888)
(2080.866 -794.10248 2.6226571)
(2175.4324 -820.88563 -1.60468)
(2263.9363 -858.89922 -4.3519682)
(2354.8544 -911.64057 -3.9417325)
(2455.4779 -979.09906 0.001988522)
(2572.1245 -1060.4095 8.8625114)
(2707.8976 -1150.554 22.037465)
(2863.4445 -1246.2843 40.204397)
(3034.5114 -1340.9003 61.282132)
(3216.7245 -1430.6261 83.902238)
(-4.8813632e-16 1.9183015e-16 -1.0607077e-16)
(-2.6214496e-15 -5.6404768e-16 7.244144e-16)
(-2.4010456e-15 1.4295629e-15 -1.6975308e-16)
(20.58782 -55.594606 82.556903)
(89.877732 -210.38449 95.187289)
(208.89357 -253.09114 68.366429)
(357.23716 -349.98598 52.32796)
(536.90255 -439.47915 42.987725)
(730.92743 -501.92862 20.479008)
(938.53745 -570.83367 7.2406142)
(1141.9982 -625.5628 -8.6182765)
(1342.2685 -672.40371 -20.768378)
(1527.7167 -711.19188 -29.08169)
(1694.5369 -741.99776 -33.127258)
(1841.6425 -770.4865 -32.303771)
(1968.3021 -798.44374 -26.093543)
(2078.2083 -830.8127 -15.15196)
(2176.4496 -871.67659 0.31687589)
(2270.7645 -923.37113 17.974387)
(2369.5426 -988.61021 35.334918)
(2480.4118 -1066.9253 50.195993)
(2608.2486 -1156.9407 61.606446)
(2755.0246 -1254.4167 70.239106)
(2918.846 -1354.3844 77.70955)
(3096.4765 -1451.0166 85.172983)
(3281.2089 -1540.2707 93.85508)
(3544.576 -1436.3024 129.45685)
(3616.4182 -1261.667 158.81446)
(3698.2436 -1088.5565 187.9862)
(3595.4274 -823.94056 191.6329)
(3401.3362 -746.4729 165.8915)
(3207.3883 -678.31601 137.13029)
(3021.3042 -619.25676 107.85851)
(2849.3925 -570.60782 80.583193)
(2695.8328 -529.30553 56.657638)
(2561.7512 -491.28327 37.134933)
(2445.0192 -451.40094 22.987013)
(2340.1064 -404.5119 14.346869)
(2238.9101 -347.1358 10.846616)
(2132.3679 -278.00885 11.286547)
(2011.9167 -197.76708 13.480928)
(1870.747 -109.52739 15.787258)
(1706.4128 -20.18886 16.823281)
(1515.6716 70.609523 14.702886)
(1306.8609 145.88676 10.662282)
(1083.5119 207.99969 3.6863874)
(853.95558 246.25183 -6.3211538)
(634.21572 261.50026 -18.824226)
(424.70399 248.75264 -32.34508)
(249.13483 215.5014 -46.727069)
(115.44322 148.727 -56.646309)
(42.415848 78.346453 -50.410193)
(-1.3028228e-15 -3.4252847e-16 3.3068324e-16)
(-2.0449562e-15 -3.5718549e-16 -7.3673077e-16)
(-1.4121951e-15 -1.0527101e-15 6.223458e-16)
(-1.2019486e-15 6.189313e-16 -3.4292956e-16)
(-1.2511779e-16 -6.848356e-17 2.1836215e-16)
(-3.8898857e-17 4.7141393e-16 -3.1043199e-16)
(3415.5124 -1543.5641 104.09633)
(3432.9992 -1571.7447 104.59726)
(3447.8984 -1597.8068 104.17808)
(3734.2593 -817.50582 215.95157)
(3751.7708 -845.79315 213.77553)
(3766.9523 -873.59517 212.36777)
(-6.9608582 38.1274 43.55036)
(76.522531 72.419257 27.26585)
(206.24296 93.616236 24.119703)
(378.75637 97.843913 16.7176)
(578.87878 85.382682 9.9038754)
(801.60893 52.188537 1.0041098)
(1030.0501 4.239595 -8.868693)
(1258.0523 -56.6222 -17.532733)
(1473.1579 -124.57899 -26.043416)
(1669.1905 -196.62977 -30.900511)
(1842.1351 -265.83926 -32.711165)
(1989.7571 -329.81435 -30.181788)
(2114.3406 -384.53186 -22.840562)
(2220.7907 -429.65292 -10.307697)
(2316.1204 -466.83074 7.0467478)
(2408.763 -499.18327 28.252598)
(2507.8323 -531.91634 51.790972)
(2620.458 -569.11268 75.694778)
(2752.3493 -614.49363 98.892499)
(2904.4714 -670.59179 120.38163)
(3074.6194 -737.13431 139.46322)
(3258.3442 -811.74012 157.36253)
(3449.4448 -893.25847 172.8335)
(-22.124188 -0.36278602 -10.253978)
(63.147301 -3.5847715 -13.105404)
(189.40748 -13.202944 -11.228745)
(356.33553 -33.29918 -8.6965143)
(553.67377 -70.702628 -9.932003)
(770.20022 -116.52809 -11.117632)
(995.22836 -171.97795 -13.307291)
(1219.3727 -234.78912 -16.130803)
(1431.8379 -299.89532 -18.439589)
(1627.1438 -364.7249 -20.520134)
(1798.2287 -424.85423 -20.57638)
(1945.0843 -478.81334 -18.87699)
(2068.3396 -524.50125 -14.258297)
(2173.045 -562.9862 -6.5323686)
(2265.9035 -596.68189 4.6362816)
(2355.8189 -629.24318 18.735423)
(2451.364 -665.60498 35.246711)
(2560.2511 -709.11592 52.965977)
(2687.4828 -763.02279 71.501185)
(2835.171 -827.35653 89.7627)
(3001.9302 -902.00204 108.68564)
(3182.6901 -983.36806 125.94089)
(3372.3464 -1069.0038 143.89409)
(-32.701951 -35.780428 -44.402013)
(58.900487 -65.419226 -46.604139)
(180.03888 -109.26992 -43.018608)
(346.32509 -164.86919 -37.956332)
(537.07144 -225.34174 -32.244134)
(748.17845 -285.18892 -25.745083)
(968.47639 -352.34227 -20.508033)
(1187.2354 -415.67123 -16.075687)
(1396.2149 -476.5392 -12.792861)
(1587.8212 -533.0912 -9.4557589)
(1756.8849 -581.85801 -7.6647527)
(1901.7514 -624.13969 -5.9283604)
(2023.1289 -659.16093 -4.4003811)
(2125.787 -689.82504 -2.0040867)
(2216.2815 -719.64559 2.01576)
(2303.6002 -752.95219 8.1173589)
(2395.9154 -794.29286 16.665192)
(2501.4012 -846.2752 27.466798)
(2625.1222 -910.03259 40.711371)
(2769.2616 -985.22267 56.588602)
(2932.4707 -1068.2155 73.948363)
(3110.2274 -1157.2575 93.456322)
(3295.7639 -1245.8655 113.30614)
(-2.5953868e-15 -2.1703571e-16 4.2716933e-18)
(-3.8783653e-15 3.5858996e-16 7.5215743e-16)
(-9.8459492e-16 7.8127033e-16 2.7525688e-16)
(-3.9146975e-16 7.8165185e-18 1.2560621e-16)
(1.6350797e-16 -2.4226884e-16 -1.2066667e-17)
(-1.0304172e-15 -9.2669207e-16 -7.5672327e-16)
(-6.4481012e-16 3.525084e-16 2.7116342e-16)
(-3.5205005e-15 9.4737515e-16 -2.5196009e-17)
(-3.8147498e-15 1.043275e-15 1.2924308e-16)
(38.979149 -36.698906 -51.59291)
(50.796519 -48.664248 -10.058823)
(45.354261 -34.138135 28.038655)
(131.18086 -199.01621 -46.824767)
(129.33349 -199.15513 -2.1720155)
(124.30299 -191.68017 50.982654)
(228.49508 -272.77686 -43.581224)
(237.41847 -264.50166 -5.9928548)
(238.02877 -278.83159 37.873701)
(367.74678 -361.91456 -34.095554)
(382.33139 -364.68166 -4.5139906)
(372.27179 -358.5782 26.866542)
(544.7841 -447.69078 -28.912486)
(547.48091 -445.77083 -7.6837669)
(547.96957 -449.01483 20.49977)
(728.76464 -518.6661 -22.138593)
(736.27204 -515.91866 -6.098624)
(735.6201 -515.48342 9.3046369)
(931.3462 -582.11662 -16.457006)
(933.02054 -582.55477 -9.7319715)
(934.90361 -582.98972 -0.18021726)
(1132.0488 -636.65718 -11.006199)
(1135.8792 -634.06452 -11.525281)
(1136.2069 -634.77082 -8.3985413)
(1330.7845 -679.09384 -7.2685049)
(1329.5195 -678.62898 -12.275375)
(1330.9153 -678.65371 -16.05886)
(1515.9726 -713.22016 -4.6936921)
(1513.2017 -712.40424 -14.328562)
(1516.5576 -714.16527 -21.599528)
(1684.3549 -737.70483 -3.4857678)
(1681.2398 -739.09239 -15.256987)
(1683.6055 -741.77099 -24.322642)
(1834.0907 -758.25384 -3.4212755)
(1829.5805 -761.5457 -15.667357)
(1832.4552 -766.15815 -24.272108)
(1963.2187 -776.60121 -4.4055762)
(1959.779 -783.15057 -14.633446)
(1962.1142 -790.70707 -20.596325)
(2075.8625 -799.33044 -4.7003712)
(2073.2493 -809.12725 -11.270426)
(2075.3765 -819.52099 -13.40746)
(2175.779 -829.80364 -3.8129528)
(2175.2156 -843.50309 -5.5828259)
(2177.2176 -857.27766 -2.5831755)
(2270.1863 -872.95772 -0.8819952)
(2272.0945 -890.43244 2.7219192)
(2274.2936 -907.06251 10.779681)
(2366.3269 -930.67841 4.4978223)
(2371.065 -951.55378 12.541006)
(2374.1168 -971.06255 24.609491)
(2471.4256 -1002.8593 12.000294)
(2479.2499 -1026.8507 23.003542)
(2483.7871 -1049.0715 37.529907)
(2590.9099 -1087.7157 22.035354)
(2601.7859 -1113.8849 34.191511)
(2608.3496 -1138.493 48.835347)
(2728.1971 -1180.7258 34.63969)
(2741.7876 -1208.4036 46.341838)
(2750.5235 -1235.0121 59.075507)
(2883.2661 -1277.5143 50.454923)
(2898.7164 -1305.6411 60.134066)
(2909.7196 -1333.287 69.622621)
(3053.491 -1373.052 68.017266)
(3070.0124 -1401.2968 74.949694)
(3083.2315 -1428.6568 80.824068)
(3233.8821 -1462.5374 86.296709)
(3250.4279 -1490.2392 89.591191)
(3265.9074 -1516.9675 92.292844)
(3653.6666 -1001.2534 188.19207)
(3671.1356 -1029.896 187.52228)
(3685.4132 -1057.7512 187.08845)
(3572.6938 -1179.3609 160.61662)
(3589.6999 -1208.0998 159.77594)
(3604.3076 -1234.0817 158.84959)
(3495.3827 -1359.9368 132.73773)
(3512.959 -1388.4196 131.61368)
(3528.2566 -1413.5005 130.82056)
(60.891215 70.467891 32.858787)
(62.536539 77.064333 10.278619)
(69.095111 74.353879 -18.409993)
(138.44112 151.33098 33.182493)
(144.00246 154.27063 1.0235316)
(141.69066 152.36148 -27.262907)
(270.0084 217.34702 31.748832)
(276.82161 213.93377 8.8129165)
(277.55343 216.61978 -22.496436)
(437.39995 251.13769 24.861326)
(444.59375 250.34691 5.9688732)
(442.819 249.7373 -15.81343)
(636.43588 264.46019 19.824289)
(643.89339 263.39334 7.0026611)
(643.70151 264.19898 -6.2658556)
(854.34008 248.80598 9.6667386)
(858.4421 246.41925 5.6725439)
(860.32314 247.28307 -1.465765)
(1077.8837 208.42999 -1.1790696)
(1081.2441 207.22831 0.47282399)
(1082.4663 206.70483 1.6573966)
(1299.3078 146.69147 -11.991602)
(1300.4365 144.12061 -2.8929887)
(1301.567 145.09041 3.1531602)
(1508.2367 67.003036 -20.97585)
(1505.7064 66.832519 -10.033303)
(1508.1621 67.998131 2.2583317)
(1697.6327 -19.815209 -29.421679)
(1694.2584 -21.345929 -11.976902)
(1695.2678 -20.321223 1.9884579)
(1864.9467 -110.5632 -32.366431)
(1859.7817 -111.54566 -16.51557)
(1860.5415 -109.87763 -0.70727689)
(2009.519 -197.30906 -31.774962)
(2003.2759 -198.26166 -15.965018)
(2004.1439 -197.14535 -1.7935245)
(2133.5143 -274.3505 -24.70035)
(2128.0018 -275.5943 -12.721813)
(2128.0003 -275.30144 -1.5204866)
(2243.5625 -338.23931 -12.051261)
(2238.8777 -340.48351 -4.2641011)
(2238.9832 -341.60066 2.2283225)
(2346.166 -388.11825 7.2887308)
(2344.0349 -392.33534 9.3322777)
(2344.5381 -395.26646 10.772493)
(2450.2999 -425.69446 31.546648)
(2451.306 -432.5175 28.299153)
(2452.7625 -438.17267 24.457613)
(2563.5382 -454.75553 59.506901)
(2568.0686 -465.24676 51.164059)
(2571.095 -474.1771 43.053929)
(2691.5092 -481.06844 88.135692)
(2699.7176 -495.50486 76.652595)
(2704.6049 -508.3995 65.553055)
(2837.2344 -510.86103 116.05117)
(2848.607 -529.5652 103.0677)
(2855.6782 -546.31121 90.767797)
(3000.1156 -549.33713 141.94327)
(3014.2569 -571.08715 128.9695)
(3023.4406 -591.92627 117.5788)
(3177.0772 -599.71463 163.63589)
(3192.6604 -624.67965 153.85076)
(3204.2134 -648.67723 144.95735)
(3362.4475 -662.51132 183.80855)
(3378.4606 -689.44889 177.20364)
(3392.5454 -715.81733 171.34087)
(3550.3741 -738.13486 200.71878)
(3567.3881 -766.30835 196.71438)
(3582.384 -793.96187 193.75911)
(-2.2748058 20.361553 -29.245411)
(89.496383 76.500366 -23.392349)
(212.42194 82.1975 -13.39461)
(389.54808 92.501701 -10.501793)
(591.78635 78.174611 -3.465562)
(811.36759 47.605346 1.7186307)
(1040.0369 2.6805776 4.5744272)
(1263.2368 -56.853627 6.0440948)
(1473.9273 -125.14922 4.9223982)
(1666.4281 -198.15321 4.881358)
(1834.5296 -270.06544 1.9090955)
(1978.1725 -340.82938 1.5353149)
(2100.4088 -403.74217 1.7809432)
(2206.0708 -460.74746 5.2634474)
(2303.8762 -511.88431 12.786707)
(2402.5464 -559.21851 24.282804)
(2510.803 -606.32045 39.799499)
(2635.3197 -656.72151 58.298523)
(2779.5274 -713.3517 79.100067)
(2943.614 -777.8585 101.33595)
(3124.5254 -850.28181 124.38392)
(3316.0052 -928.04639 146.8637)
(3512.5211 -1008.8025 168.53305)
(-19.592712 10.040325 12.613589)
(74.191424 6.3242272 7.7923828)
(200.51882 -13.743626 10.487897)
(373.68613 -32.73114 9.0001278)
(568.08776 -69.5242 7.2791407)
(784.99721 -116.00695 6.6492512)
(1007.0427 -170.48544 3.202794)
(1226.8726 -233.71683 -0.053142109)
(1434.2797 -300.6568 -2.5980603)
(1624.3283 -367.72045 -5.8502625)
(1790.4874 -432.25948 -7.6546873)
(1934.1809 -492.96095 -7.2070688)
(2055.6533 -546.79552 -5.107436)
(2161.3442 -597.04289 0.95287797)
(2258.0321 -643.34326 10.093288)
(2354.9726 -689.61881 22.755416)
(2460.746 -738.66774 37.877624)
(2581.9041 -794.01419 54.364115)
(2722.0274 -857.88936 71.755896)
(2881.4873 -930.41097 89.517824)
(3057.3428 -1011.0895 107.46267)
(3244.2208 -1095.1679 126.11462)
(3437.3299 -1182.0184 143.10225)
(-34.023503 -31.117794 39.407936)
(75.713717 -53.323024 38.688073)
(196.45694 -125.88338 50.143363)
(359.37488 -160.74106 30.611626)
(553.30822 -227.34253 28.291601)
(761.37709 -289.30066 18.193855)
(979.07332 -351.13403 7.4568154)
(1194.3206 -417.68833 -0.56292022)
(1397.9502 -476.86764 -9.5241576)
(1585.2161 -535.3431 -16.050438)
(1750.1256 -587.31707 -19.357859)
(1892.7111 -634.32424 -19.876599)
(2013.9059 -677.70926 -15.627668)
(2118.8015 -719.14474 -7.4127545)
(2214.0006 -761.97776 5.1507169)
(2308.3618 -808.95181 20.568448)
(2410.6187 -863.17135 37.335948)
(2527.6916 -926.85731 53.623162)
(2663.7415 -1000.8939 69.03629)
(2818.9274 -1084.2853 82.954651)
(2990.6661 -1174.0606 96.185599)
(3173.9738 -1266.0503 108.19392)
(3361.7339 -1356.1226 119.69067)
(13.354062 18.144604 19.430081)
(16.246839 21.290109 6.1834075)
(22.611365 18.530376 -12.435688)
(108.85035 70.877245 10.377425)
(117.65463 72.089072 0.92447373)
(112.02122 70.796001 -15.797264)
(234.85986 87.354626 9.3267753)
(240.05813 85.429139 1.1026491)
(238.51207 86.427967 -6.8768841)
(401.50818 94.908792 7.2392376)
(409.9509 94.534561 2.0368179)
(406.6627 92.465744 -4.3429554)
(598.49836 81.698165 3.2112801)
(604.72766 79.088257 2.6922433)
(603.75997 80.120918 -1.6637975)
(813.67608 50.164461 -0.051886353)
(818.70441 49.554447 0.57381758)
(818.10942 49.151667 1.0285244)
(1036.9395 3.523714 -5.7167794)
(1039.1828 2.7935025 -2.0138738)
(1040.5027 3.1210615 1.6455574)
(1258.121 -55.793966 -11.608958)
(1258.7829 -56.813057 -5.7865041)
(1260.3654 -56.030138 0.40609702)
(1468.6712 -125.07818 -17.221347)
(1466.621 -124.5035 -9.189558)
(1468.2983 -123.54981 -1.4586001)
(1660.3914 -197.19727 -21.019348)
(1656.7007 -196.09849 -12.857695)
(1658.8643 -196.57759 -3.6067347)
(1830.6833 -268.31929 -22.660167)
(1825.3555 -268.2232 -14.951819)
(1827.0251 -268.19855 -5.9401587)
(1976.8447 -335.04326 -21.579703)
(1971.5174 -334.77426 -14.337792)
(1972.3299 -337.03187 -6.4363246)
(2102.1329 -393.32612 -16.466535)
(2096.9636 -395.00758 -11.194035)
(2096.8058 -399.00792 -4.5131861)
(2210.665 -443.55732 -7.1582822)
(2206.7816 -447.14782 -3.452985)
(2205.9001 -453.76014 0.51728777)
(2309.6796 -485.96131 6.9845897)
(2307.9028 -492.70118 8.2512638)
(2306.8586 -502.03866 10.036577)
(2407.5235 -523.68494 25.039617)
(2408.5522 -533.80334 24.296502)
(2408.0374 -546.39881 23.601377)
(2512.2981 -560.29197 46.201438)
(2516.536 -574.57442 43.408772)
(2517.4308 -590.30287 40.869796)
(2630.8958 -600.39762 68.612755)
(2638.3654 -618.61822 64.549876)
(2641.2268 -637.44216 60.539308)
(2767.5516 -646.93949 91.398478)
(2777.8903 -669.11815 86.459521)
(2783.3517 -690.86284 82.053188)
(2922.4535 -703.01863 113.46836)
(2936.2787 -728.09673 109.15538)
(2943.8296 -752.27028 104.16303)
(3094.1651 -768.57606 133.73722)
(3110.4164 -795.36615 131.08814)
(3120.6042 -821.6601 126.83291)
(3278.4049 -842.43879 153.81576)
(3294.2609 -870.6224 151.40527)
(3307.4393 -897.65249 149.03625)
(3468.4391 -921.89472 171.40694)
(3485.2725 -950.90168 169.82459)
(3500.0136 -978.40217 168.69776)
(-1.0089359 3.1084274 -6.9054124)
(6.3934793 5.9064549 -4.23419)
(10.862884 4.8972291 3.9695303)
(92.623638 -3.2176459 -13.179651)
(100.5397 -0.30117742 -6.868047)
(92.065428 -3.6266376 0.65901143)
(217.83544 -16.205264 -9.1847857)
(223.76877 -18.317897 1.8757137)
(222.11199 -18.381396 4.7909659)
(379.64012 -41.162183 -8.8865877)
(389.34004 -42.8981 -0.4682253)
(385.08323 -45.193121 3.6294053)
(572.50344 -75.581864 -7.0638925)
(578.3914 -78.966383 1.8529102)
(575.97961 -77.135483 2.0493661)
(783.02442 -121.71332 -8.1805104)
(786.25898 -124.3978 -2.1196592)
(786.96997 -123.33014 1.8604368)
(1001.2137 -175.32137 -10.806929)
(1003.5468 -178.90984 -3.3681809)
(1003.9795 -177.80666 -1.6546718)
(1219.549 -238.207 -12.485226)
(1218.8796 -240.67248 -6.6932663)
(1221.1891 -237.45936 -4.6956307)
(1426.4762 -301.78752 -15.301077)
(1423.9594 -303.97306 -11.04304)
(1426.1638 -302.96901 -8.2175865)
(1617.2119 -365.84013 -17.79257)
(1613.0287 -368.94036 -13.138685)
(1615.3415 -366.89146 -10.815147)
(1785.6801 -427.05638 -18.388448)
(1780.9679 -429.56943 -14.726957)
(1782.5663 -429.54048 -13.319838)
(1931.6195 -481.80558 -17.488637)
(1926.6621 -485.62554 -14.756792)
(1927.7473 -486.52881 -12.71917)
(2055.9534 -530.16963 -13.821774)
(2052.0308 -535.07432 -11.282468)
(2051.8088 -538.87321 -10.402315)
(2163.3519 -572.44045 -6.9307538)
(2160.9111 -579.61081 -4.9006655)
(2160.1841 -585.5318 -4.2603065)
(2260.7054 -610.67525 3.5639949)
(2260.6329 -620.17974 5.3069867)
(2259.7 -629.65119 5.7431831)
(2355.9932 -648.25405 17.172947)
(2358.7536 -661.02223 18.966915)
(2358.4191 -673.40215 19.209434)
(2457.543 -689.11967 33.525344)
(2463.3614 -705.11639 34.997395)
(2464.4238 -720.83557 35.317988)
(2572.0956 -736.48801 51.087196)
(2580.8426 -756.00782 52.471856)
(2584.2574 -774.47752 52.776883)
(2703.9271 -792.88612 69.686338)
(2715.5811 -815.52271 70.77166)
(2721.5108 -836.98937 71.076475)
(2855.1969 -858.79308 88.348105)
(2868.4511 -884.44729 89.439219)
(2877.2641 -907.9312 89.359771)
(3023.7861 -933.93432 107.98778)
(3036.6062 -960.84256 108.16251)
(3049.3246 -986.56178 107.95009)
(3202.9448 -1014.8705 125.6533)
(3219.2702 -1042.6874 126.91387)
(3232.4955 -1069.0851 126.4571)
(3390.8176 -1099.4841 143.19375)
(3407.794 -1128.5578 143.19243)
(3423.0119 -1154.6698 143.04197)
(-2.1547713 -22.251127 -20.071249)
(-5.532887 -20.828902 -1.0877423)
(-5.2538535 -18.022991 17.730359)
(99.421245 -68.366599 -28.027627)
(107.0578 -57.184486 0.20490478)
(100.77716 -60.80135 20.650497)
(211.99307 -122.45743 -25.214122)
(219.82299 -132.50081 -1.3608)
(219.95637 -129.20387 22.481869)
(372.95723 -182.64905 -21.976161)
(377.24931 -177.84713 -1.2141584)
(377.09903 -176.89293 16.232406)
(555.34385 -238.25012 -18.224275)
(561.9118 -242.88577 -2.685863)
(562.92511 -239.11475 10.575881)
(759.50977 -301.51387 -16.840204)
(763.09832 -303.26347 -5.1985525)
(765.33108 -300.51203 5.3057948)
(971.89318 -364.69345 -13.644043)
(973.86077 -366.3245 -6.2002484)
(977.56807 -362.04182 0.094526735)
(1183.654 -425.08433 -12.907046)
(1184.4289 -427.27745 -9.77215)
(1188.0937 -424.65587 -6.1882941)
(1387.0876 -483.96394 -12.240945)
(1385.9041 -485.2445 -11.361297)
(1390.1164 -482.75337 -10.775126)
(1574.6635 -537.54011 -11.003627)
(1572.3783 -538.41166 -13.024982)
(1576.0722 -537.28546 -15.154619)
(1742.0791 -584.05876 -10.465652)
(1738.4697 -585.88818 -14.13948)
(1742.4755 -586.36793 -17.096829)
(1887.6585 -625.31371 -9.3887421)
(1883.9804 -627.47643 -13.259689)
(1886.8751 -630.0299 -16.941428)
(2011.9731 -660.94338 -7.6057197)
(2008.3985 -664.86126 -10.740555)
(2011.2029 -670.34183 -13.818044)
(2119.22 -694.27972 -4.1655756)
(2117.0364 -700.20253 -5.6793141)
(2119.1834 -708.68383 -7.0409692)
(2215.6048 -728.32303 1.4213979)
(2215.0813 -737.03465 2.5094781)
(2217.3712 -748.87881 3.1889133)
(2308.8543 -767.04079 9.5434423)
(2310.9309 -779.01951 13.155879)
(2313.4565 -793.86069 16.165921)
(2407.1078 -813.85762 19.916032)
(2411.8875 -829.14019 25.599728)
(2415.7357 -846.82675 30.882793)
(2517.2892 -870.74993 32.044833)
(2525.3491 -889.68259 39.1567)
(2530.9401 -909.69176 45.717221)
(2644.437 -938.74993 45.813651)
(2655.2081 -960.50943 53.231398)
(2663.2299 -982.87361 60.40986)
(2789.8742 -1016.3247 61.340325)
(2803.4001 -1041.2698 68.126724)
(2814.0236 -1065.0664 74.856488)
(2953.3367 -1101.3874 78.002523)
(2967.9992 -1127.9163 84.076724)
(2981.1662 -1152.8903 89.214265)
(3129.5569 -1190.2822 96.334541)
(3145.9557 -1218.1663 100.75062)
(3160.9018 -1243.4375 103.93104)
(3313.1471 -1278.712 114.2607)
(3330.0191 -1306.7562 115.87218)
(3346.0232 -1332.0943 117.40754)
)
;

boundaryField
{
    free
    {
        type            zeroGradient;
    }
    fixed
    {
        type            fixedValue;
        value           nonuniform List<vector> 
25
(
(-2.5953868e-15 -2.1703571e-16 4.2716933e-18)
(-1.3028228e-15 -3.4252847e-16 3.3068324e-16)
(-1.9658614e-16 -3.2115893e-17 -1.1045223e-16)
(-3.6361799e-15 2.112754e-16 -3.2990721e-16)
(-3.8783653e-15 3.5858996e-16 7.5215743e-16)
(-2.0449562e-15 -3.5718549e-16 -7.3673077e-16)
(-9.8459492e-16 7.8127033e-16 2.7525688e-16)
(-1.4121951e-15 -1.0527101e-15 6.223458e-16)
(-4.8813632e-16 1.9183015e-16 -1.0607077e-16)
(6.5239771e-16 2.739523e-16 -5.5565719e-16)
(-3.9146975e-16 7.8165185e-18 1.2560621e-16)
(1.4766345e-16 -3.4299605e-16 -2.8648028e-16)
(1.6350797e-16 -2.4226884e-16 -1.2066667e-17)
(-1.0304172e-15 -9.2669207e-16 -7.5672327e-16)
(-2.6214496e-15 -5.6404768e-16 7.244144e-16)
(-6.4481012e-16 3.525084e-16 2.7116342e-16)
(-1.0135278e-15 7.0169807e-16 1.7538027e-16)
(-3.5205005e-15 9.4737515e-16 -2.5196009e-17)
(-3.8147498e-15 1.043275e-15 1.2924308e-16)
(-2.4010456e-15 1.4295629e-15 -1.6975308e-16)
(-1.2019486e-15 6.189313e-16 -3.4292956e-16)
(2.8178306e-17 1.9013092e-16 6.1994168e-17)
(-1.2511779e-16 -6.848356e-17 2.1836215e-16)
(-3.8898857e-17 4.7141393e-16 -3.1043199e-16)
(-3.7042918e-15 1.4868296e-15 -1.3023874e-15)
)
;
    }
    freeTop
    {
        type            zeroGradient;
    }
}


// ************************************************************************* //
