/*--------------------------------*- C++ -*----------------------------------*\
  =========                 |
  \\      /  F ield         | OpenFOAM: The Open Source CFD Toolbox
   \\    /   O peration     | Website:  https://openfoam.org
    \\  /    A nd           | Version:  6
     \\/     M anipulation  |
\*---------------------------------------------------------------------------*/
FoamFile
{
    version     2.0;
    format      ascii;
    class       pointVectorField;
    location    "0.53";
    object      u;
}
// * * * * * * * * * * * * * * * * * * * * * * * * * * * * * * * * * * * * * //

dimensions      [0 1 0 0 0 0 0];

internalField   nonuniform List<vector> 
625
(
(0 0 0)
(0 0 0)
(1.9836952 -0.13889741 0.031552686)
(1.8622753 -0.61579149 0.01608349)
(0 0 0)
(0 0 0)
(1.8721385 -0.63051928 0.014823836)
(1.993377 -0.15413843 0.031171123)
(0 0 0)
(0 0 0)
(0 0 0)
(1.9526345 -0.25883864 0.026803226)
(1.9221305 -0.3768046 0.023670551)
(1.8926493 -0.49544112 0.019822485)
(0.0033474639 0.016523483 0.015557779)
(0.014716056 0.033844493 0.016904593)
(0.036349883 0.051342611 0.01798836)
(0.068803678 0.067888652 0.018240786)
(0.10876274 0.082029067 0.018587775)
(0.15922255 0.094740736 0.018416877)
(0.21696819 0.10473921 0.01872001)
(0.28304461 0.11206218 0.018670593)
(0.35664178 0.11695417 0.018936319)
(0.43692416 0.1185776 0.018758362)
(0.52380405 0.11750061 0.019048076)
(0.6165133 0.11320939 0.019280637)
(0.71450625 0.1058856 0.019606673)
(0.81726792 0.095543766 0.020082449)
(0.92416862 0.082272781 0.02069399)
(1.0346388 0.066092159 0.021474675)
(1.1481385 0.047461674 0.02229589)
(1.2640508 0.026019934 0.023460137)
(1.3819839 0.0027351475 0.024424042)
(1.5010823 -0.022709352 0.02579374)
(1.6214337 -0.049936947 0.027214757)
(1.7420792 -0.078130622 0.028596863)
(1.8625359 -0.10792692 0.030547587)
(-0.0033475978 -0.013510517 -0.019983594)
(0.0092494856 -0.029032638 -0.016913948)
(0.029140325 -0.04800364 -0.019451039)
(0.056723911 -0.066012197 -0.018537999)
(0.092153584 -0.08394921 -0.018453907)
(0.13707897 -0.10485483 -0.01784323)
(0.18760443 -0.12460548 -0.017790432)
(0.24673495 -0.14634419 -0.016841875)
(0.31241819 -0.16940285 -0.01643782)
(0.38477369 -0.19301388 -0.015460602)
(0.46343449 -0.21841489 -0.01448245)
(0.5480495 -0.24479002 -0.013164405)
(0.63811767 -0.27240078 -0.011725353)
(0.73325618 -0.3011178 -0.009982319)
(0.83305912 -0.33082442 -0.0080262545)
(0.93698674 -0.36140363 -0.0058671243)
(1.0446442 -0.39268431 -0.0034651865)
(1.1555019 -0.42448005 -0.00095756929)
(1.2691122 -0.45663661 0.0017880675)
(1.384978 -0.4888936 0.0044972118)
(1.5027092 -0.52118624 0.0074276393)
(1.6216385 -0.55312625 0.010213421)
(1.7415462 -0.58465755 0.013016935)
(0 0 0)
(0 0 0)
(0 0 0)
(0.0022822621 -0.0085811692 0.013254721)
(0.01292762 -0.036618329 0.016681307)
(0.034087725 -0.047230732 0.013686697)
(0.061815933 -0.067243167 0.012333949)
(0.10008803 -0.088984411 0.012655248)
(0.14429114 -0.1065641 0.010365168)
(0.19613518 -0.12852324 0.01029682)
(0.25588867 -0.15111805 0.0090239077)
(0.32204787 -0.17456454 0.0084990661)
(0.3948736 -0.19951782 0.0078521572)
(0.47384434 -0.22546017 0.0072232322)
(0.55862619 -0.25302049 0.0068746614)
(0.64876861 -0.28151142 0.0065967416)
(0.74394959 -0.31122835 0.0064875881)
(0.84365749 -0.34187451 0.0065952644)
(0.94748673 -0.3732942 0.0068722082)
(1.0549901 -0.40536093 0.0073461046)
(1.1657077 -0.43783391 0.0080228061)
(1.2791446 -0.4705035 0.0088521439)
(1.3949437 -0.50322672 0.009866644)
(1.5124318 -0.53568228 0.011020503)
(1.6314828 -0.56790938 0.012320632)
(1.7512292 -0.59941351 0.013766251)
(1.9027481 -0.50998613 0.018879868)
(1.9314519 -0.39169117 0.023137186)
(1.9622661 -0.27433577 0.02772739)
(1.872465 -0.12324176 0.028032256)
(1.7513913 -0.093350536 0.025210092)
(1.6306142 -0.064561055 0.022253878)
(1.5103342 -0.03693574 0.019199317)
(1.3909659 -0.010935543 0.01619758)
(1.2730612 0.013207671 0.013231408)
(1.1570839 0.035255923 0.010402551)
(1.0435915 0.05486266 0.0076977761)
(0.93309798 0.071934983 0.0051863276)
(0.82618858 0.08617626 0.0028472174)
(0.72337607 0.097468208 0.00075326226)
(0.62532217 0.10578963 -0.0012063341)
(0.53241054 0.11086233 -0.0029094389)
(0.44538551 0.11316852 -0.0045782005)
(0.36446374 0.11209589 -0.0057300286)
(0.29105021 0.10760019 -0.0071854467)
(0.22412233 0.10153909 -0.008625698)
(0.16521034 0.091851003 -0.0096067375)
(0.1153145 0.079643502 -0.010907292)
(0.073110865 0.065339078 -0.011559381)
(0.040125908 0.050955097 -0.014030241)
(0.01671416 0.032373026 -0.013202335)
(0.0081230751 0.014982803 -0.010762786)
(0 0 0)
(0 0 0)
(0 0 0)
(0 0 0)
(0 0 0)
(0 0 0)
(1.8644431 -0.61992053 0.015514143)
(1.8671062 -0.62369727 0.015550497)
(1.8693009 -0.62740768 0.015190376)
(1.9866437 -0.14220008 0.031528646)
(1.9891149 -0.14621609 0.031254804)
(1.9915084 -0.14980287 0.031217378)
(-0.004065434 0.009715083 0.010654072)
(0.0072698322 0.019005404 0.008877303)
(0.028680102 0.027998637 0.0097415239)
(0.059535079 0.035662698 0.0095940856)
(0.098887986 0.041978585 0.0098638653)
(0.14812296 0.046561049 0.010041957)
(0.20438437 0.048754731 0.010127082)
(0.26906761 0.049208068 0.010379062)
(0.34069014 0.046912904 0.010540407)
(0.41954643 0.042137261 0.010735385)
(0.5046331 0.034960805 0.011142457)
(0.59556486 0.024966243 0.011531546)
(0.69188724 0.012471473 0.012102918)
(0.79305629 -0.0026053277 0.012821731)
(0.89846154 -0.020214321 0.013699411)
(1.0076246 -0.040069822 0.014709011)
(1.1199559 -0.062226877 0.015933735)
(1.2349012 -0.086282493 0.017293078)
(1.3520503 -0.11201907 0.018712111)
(1.4706682 -0.13945964 0.020490333)
(1.59063 -0.16807703 0.02195696)
(1.7110441 -0.19741941 0.023892987)
(1.8318996 -0.22825802 0.025618352)
(-0.007383735 0.0018368558 0.00023438554)
(0.005430476 0.0017935118 -0.00096654197)
(0.025296774 0.0026981424 -0.00057360654)
(0.055169204 0.0022260419 -1.9296023e-05)
(0.094033336 -9.9664053e-05 6.4529091e-05)
(0.14097965 -0.0033971606 0.00034114043)
(0.1959359 -0.0083938707 0.00058145813)
(0.25884641 -0.015505992 0.00098379292)
(0.32863809 -0.024449593 0.0012771889)
(0.40554292 -0.035469959 0.0018374014)
(0.48857193 -0.04866308 0.0024023872)
(0.57764759 -0.064032145 0.0031617881)
(0.6720867 -0.081539514 0.0040992489)
(0.77145276 -0.1011688 0.0052011798)
(0.87518663 -0.12277298 0.0064675451)
(0.98283261 -0.14626275 0.0079442323)
(1.0937789 -0.17145228 0.0095768701)
(1.2075942 -0.19809056 0.011329622)
(1.32374 -0.22613315 0.013289336)
(1.4415805 -0.25510146 0.015231384)
(1.5610019 -0.28497049 0.017352444)
(1.6810816 -0.31540299 0.019516032)
(1.8021453 -0.34627536 0.021602605)
(-0.0086484953 -0.006791615 -0.0072985219)
(0.0046466734 -0.013406129 -0.0081244012)
(0.023105911 -0.020659686 -0.0085075732)
(0.05306877 -0.030083971 -0.0084035918)
(0.090190098 -0.040783955 -0.0084509945)
(0.13588059 -0.051413861 -0.0082049464)
(0.18957671 -0.064741621 -0.007832615)
(0.25041158 -0.078749146 -0.0074549141)
(0.31849652 -0.094509046 -0.006971235)
(0.39333518 -0.11204488 -0.0062942144)
(0.47445279 -0.13114487 -0.0055577133)
(0.56155131 -0.15205306 -0.0045495929)
(0.65402543 -0.17462569 -0.003409791)
(0.75152329 -0.19879857 -0.0020716944)
(0.85350035 -0.2245404 -0.00049654735)
(0.95951655 -0.25162906 0.0012460614)
(1.0689759 -0.27995653 0.0031811936)
(1.1815409 -0.30936106 0.0053085976)
(1.2964789 -0.33951441 0.0074999036)
(1.4136012 -0.37041264 0.0099422955)
(1.5321367 -0.40164204 0.012234132)
(1.6518654 -0.43304065 0.014755896)
(1.7722568 -0.46443006 0.017205613)
(0 0 0)
(0 0 0)
(0 0 0)
(0 0 0)
(0 0 0)
(0 0 0)
(0 0 0)
(0 0 0)
(0 0 0)
(0.0045903058 -0.0056264114 -0.0089028676)
(0.0069774504 -0.007587228 -0.0020106617)
(0.0063439064 -0.0053539935 0.0042024006)
(0.019466955 -0.033380887 -0.0092212735)
(0.019875927 -0.033989651 -0.0014575738)
(0.019287511 -0.032701513 0.0081628291)
(0.036574786 -0.04747658 -0.010832005)
(0.039409895 -0.046951975 -0.0030269158)
(0.040089844 -0.050052617 0.0066849307)
(0.064398559 -0.06700968 -0.010103312)
(0.067824966 -0.068790316 -0.0026300567)
(0.066861413 -0.067544936 0.0055776686)
(0.10104761 -0.086881551 -0.01058672)
(0.10370782 -0.087253377 -0.0037617348)
(0.10436057 -0.088976386 0.0051592122)
(0.14410352 -0.10637956 -0.010617758)
(0.14778629 -0.10748698 -0.003103762)
(0.14805596 -0.10778994 0.0042527401)
(0.19559389 -0.12724468 -0.010266396)
(0.19920473 -0.12918217 -0.0043494959)
(0.19998264 -0.12988592 0.0041492846)
(0.25443276 -0.14965889 -0.010233333)
(0.25775908 -0.15013137 -0.0039305094)
(0.25879567 -0.1516066 0.0031237554)
(0.31976243 -0.17215569 -0.0098545801)
(0.32330151 -0.1742313 -0.0042190464)
(0.32449954 -0.17524444 0.0028940607)
(0.39194181 -0.19673654 -0.009499772)
(0.39553554 -0.19846223 -0.0040168178)
(0.39696596 -0.1999336 0.0025044462)
(0.47029749 -0.22205365 -0.0088141744)
(0.47389279 -0.22420744 -0.0038016306)
(0.4753812 -0.22574758 0.0022990618)
(0.55456554 -0.24883691 -0.0079927399)
(0.55808437 -0.25109863 -0.0033922935)
(0.55980526 -0.25292414 0.0022720642)
(0.64423765 -0.27658476 -0.0069790444)
(0.64776921 -0.27910111 -0.0027711503)
(0.64954123 -0.28121515 0.0024082539)
(0.7390135 -0.30552619 -0.0057118303)
(0.74243063 -0.30824847 -0.0019399899)
(0.74430725 -0.31056115 0.0027029665)
(0.83836397 -0.33536085 -0.0042341498)
(0.84170588 -0.33827103 -0.00090989541)
(0.84366655 -0.34086381 0.0032279244)
(0.94188822 -0.36604366 -0.0025557532)
(0.94514002 -0.36914489 0.00034098971)
(0.94713843 -0.3719461 0.0039546163)
(1.0491124 -0.39736098 -0.00065096208)
(1.0522312 -0.40061008 0.001804708)
(1.0543031 -0.40364176 0.0048585526)
(1.1595667 -0.42918115 0.0014056045)
(1.1626125 -0.43258463 0.0034174824)
(1.1647134 -0.43578685 0.0059849107)
(1.2727875 -0.46127376 0.0036319792)
(1.2756866 -0.46475203 0.0052472988)
(1.277831 -0.46813274 0.0072516994)
(1.3883171 -0.49346897 0.0059541325)
(1.3911399 -0.49707398 0.0071578428)
(1.3933363 -0.50056579 0.0086820664)
(1.505622 -0.52559901 0.008394743)
(1.5083158 -0.52918038 0.0091942785)
(1.5105708 -0.53277219 0.010245196)
(1.6243772 -0.55742538 0.010806652)
(1.6270246 -0.56112758 0.011303197)
(1.6293337 -0.5648415 0.011882631)
(1.7440272 -0.58893794 0.013226525)
(1.7465055 -0.59255631 0.013322486)
(1.7490059 -0.59616755 0.013599257)
(1.9556569 -0.26234815 0.027384991)
(1.9581886 -0.26617522 0.027354893)
(1.9604033 -0.26993503 0.027523087)
(1.9246531 -0.38046365 0.023739093)
(1.9271995 -0.38444767 0.023441572)
(1.9293187 -0.38793045 0.023288778)
(1.8951105 -0.49954882 0.019476568)
(1.8977562 -0.50327938 0.01936708)
(1.9000256 -0.50679916 0.019175238)
(0.010991407 0.012879352 0.0077552324)
(0.011269674 0.014837409 0.0028260176)
(0.012337974 0.014491003 -0.0032314808)
(0.021041359 0.031802716 0.0094660385)
(0.023440897 0.032229068 0.00090531782)
(0.023270715 0.031372706 -0.006544834)
(0.044913535 0.050456191 0.0097437663)
(0.045681585 0.050127939 0.0033031407)
(0.046460092 0.05061672 -0.0063327808)
(0.075275351 0.065467626 0.010383317)
(0.077984531 0.065484566 0.0030293937)
(0.078247407 0.065986104 -0.0051578337)
(0.11650163 0.081064074 0.011144419)
(0.11958262 0.080375479 0.0034214018)
(0.11975354 0.080139482 -0.0039327148)
(0.16663406 0.092591084 0.010943096)
(0.16872027 0.091694622 0.004895583)
(0.16993958 0.091732982 -0.0033844147)
(0.22424247 0.10243784 0.011602274)
(0.22718668 0.10169869 0.0050786957)
(0.22826006 0.10128921 -0.0024173318)
(0.29043014 0.10969211 0.011854449)
(0.2932163 0.10881249 0.0056916699)
(0.29411597 0.10847944 -0.0013587764)
(0.36339715 0.11470941 0.012421262)
(0.36643017 0.11270563 0.0063787937)
(0.36797533 0.11214964 -0.00031870909)
(0.44398701 0.11573554 0.012550659)
(0.44668083 0.11443784 0.0073460768)
(0.44822097 0.1132175 0.00064985111)
(0.53045013 0.11439527 0.013198577)
(0.53321507 0.11274336 0.0079030083)
(0.53484616 0.11154055 0.001881147)
(0.62286745 0.10998465 0.013753242)
(0.62567521 0.10803823 0.0089113769)
(0.62741568 0.10657552 0.0032973939)
(0.72056709 0.10249785 0.014493316)
(0.72335528 0.10027674 0.010014739)
(0.7251142 0.098596443 0.0048216361)
(0.82300197 0.091999835 0.01536424)
(0.82572869 0.089536238 0.011295557)
(0.82754146 0.087612157 0.0065471996)
(0.92955334 0.078582251 0.016432733)
(0.93222846 0.075878152 0.012733632)
(0.93411221 0.073710775 0.0084908979)
(1.0396647 0.062340472 0.017597639)
(1.0423238 0.05941517 0.014372098)
(1.0442125 0.05703224 0.010589868)
(1.1528193 0.043547146 0.019021625)
(1.1553799 0.040398266 0.016154988)
(1.1573564 0.037730906 0.012909218)
(1.2683733 0.022165546 0.020492614)
(1.27095 0.018866052 0.01807749)
(1.2729275 0.016071359 0.015330696)
(1.3858842 -0.0011702686 0.022126855)
(1.3883986 -0.0046800164 0.020202633)
(1.3904642 -0.0077581096 0.017913174)
(1.5047689 -0.026666325 0.024075055)
(1.5073578 -0.030239964 0.022232781)
(1.5094452 -0.033499074 0.02055527)
(1.6247621 -0.05376797 0.025732836)
(1.6272785 -0.05753705 0.024491693)
(1.6293754 -0.060857101 0.023263617)
(1.7451002 -0.082214418 0.027493923)
(1.7475609 -0.085685577 0.026790833)
(1.7498103 -0.08935723 0.025930709)
(1.8659758 -0.11156776 0.029848247)
(1.8683168 -0.11538066 0.029158628)
(1.8706811 -0.11923976 0.028755753)
(-0.0012875584 0.0053881427 -0.0070322207)
(0.011389594 0.02073596 -0.0076327176)
(0.031749123 0.025795767 -0.0057523102)
(0.064930477 0.033892786 -0.0060717164)
(0.10521134 0.039633426 -0.0050531011)
(0.15457992 0.04347313 -0.0044856064)
(0.21201327 0.045286571 -0.0037653984)
(0.27692683 0.044849596 -0.0029432689)
(0.34929116 0.041882486 -0.0021599744)
(0.42822289 0.036408651 -0.0010974463)
(0.51349734 0.028276519 -0.00017615137)
(0.60462302 0.017331121 0.0011691331)
(0.70099595 0.0038587418 0.0025476013)
(0.80215305 -0.012226694 0.0041219819)
(0.90754895 -0.030804583 0.0059224999)
(1.0166554 -0.051668808 0.0078611163)
(1.1289364 -0.074632976 0.010007574)
(1.2439 -0.099516576 0.01226059)
(1.3609619 -0.1260127 0.014665932)
(1.4797587 -0.15390859 0.017122398)
(1.5996957 -0.18293738 0.01967936)
(1.7202233 -0.21275989 0.022189962)
(1.8414464 -0.24357846 0.024983975)
(-0.006123214 0.0024383472 0.00099941947)
(0.0069138839 0.0035462568 -9.6433215e-06)
(0.029421876 0.00081120695 0.0010333002)
(0.060821207 0.0011597734 0.00015427834)
(0.09997286 -0.0020366248 0.00033345198)
(0.14832301 -0.0062189541 0.00071098369)
(0.2038599 -0.011688353 0.00064671523)
(0.26737145 -0.01949431 0.0010128261)
(0.3377638 -0.029336356 0.0013629109)
(0.41492365 -0.041059226 0.0016911411)
(0.49835724 -0.055231756 0.0022567897)
(0.58761021 -0.071617669 0.0029416456)
(0.6821396 -0.090069459 0.003754199)
(0.78157675 -0.11071284 0.0047991559)
(0.88530785 -0.13327779 0.0060047346)
(0.99289 -0.15768538 0.007389541)
(1.1038183 -0.18368372 0.0089902247)
(1.2175482 -0.2111468 0.010683092)
(1.3336325 -0.2397206 0.012619793)
(1.4515396 -0.26928398 0.014570178)
(1.5708802 -0.29951021 0.016642583)
(1.6909005 -0.33022322 0.018786142)
(1.812389 -0.36136211 0.020906806)
(-0.0076102613 -0.006307089 0.0062008358)
(0.008698456 -0.010464386 0.0061932279)
(0.0291737 -0.023957148 0.0085249701)
(0.058622063 -0.028960631 0.0059916117)
(0.097564387 -0.042176354 0.0070249801)
(0.14412942 -0.05359921 0.0062936962)
(0.19802883 -0.066741734 0.005812255)
(0.25989515 -0.082351819 0.0058271917)
(0.32826303 -0.098455568 0.005401783)
(0.40362564 -0.11716821 0.005419728)
(0.48492742 -0.13720736 0.0054051512)
(0.57219613 -0.15913377 0.0055089465)
(0.66474538 -0.18278105 0.0058460637)
(0.76224945 -0.20802591 0.0062817785)
(0.86415374 -0.23479142 0.0069293173)
(0.97003541 -0.26285724 0.0077518616)
(1.0793985 -0.29209744 0.0087383435)
(1.1917529 -0.32225508 0.0098991909)
(1.3066235 -0.35312902 0.011233366)
(1.4235791 -0.38451593 0.012610625)
(1.5419956 -0.41606913 0.014249534)
(1.6617571 -0.44780547 0.01570052)
(1.7819642 -0.47911726 0.017619762)
(0.001405688 0.0046879129 0.004919445)
(0.0015911978 0.0051984021 0.0020431977)
(0.0035633923 0.004527477 -0.0027086689)
(0.014642804 0.018637591 0.0043041264)
(0.017377762 0.018741226 2.7294009e-05)
(0.015972799 0.018917957 -0.004419145)
(0.036521634 0.026276709 0.0048575415)
(0.037405706 0.025978741 0.0011680174)
(0.038113541 0.025657166 -0.0027707785)
(0.06684835 0.034551355 0.0051563959)
(0.069802978 0.034381068 0.0010840878)
(0.069801848 0.033638484 -0.0027979913)
(0.10709561 0.040351097 0.0050473408)
(0.10962421 0.039766964 0.0017129999)
(0.11024707 0.039135547 -0.0020377957)
(0.15553555 0.044499451 0.005689214)
(0.15840112 0.044013176 0.0021511796)
(0.15875107 0.043168794 -0.0014984657)
(0.21195959 0.046770561 0.0058956931)
(0.21493582 0.046133271 0.0024144398)
(0.21592484 0.045097837 -0.00084734664)
(0.27633711 0.04695711 0.0061875466)
(0.27948022 0.045617204 0.0031033083)
(0.28040276 0.044437573 -0.00038770495)
(0.34791954 0.044127924 0.0066452046)
(0.35110296 0.043151004 0.00345203)
(0.35225043 0.041982741 0.00056530981)
(0.42644612 0.039461384 0.0069975358)
(0.42965317 0.037928261 0.0040900531)
(0.43086177 0.036354531 0.0011665424)
(0.51125198 0.031964223 0.0075928314)
(0.51435444 0.030150928 0.0048886154)
(0.51573927 0.028650256 0.0021029669)
(0.60187236 0.021785303 0.0082170463)
(0.60504103 0.019863608 0.0056795571)
(0.60653841 0.017966276 0.0031537711)
(0.6979041 0.0091372985 0.0090218718)
(0.700999 0.0068731313 0.0067028171)
(0.7025381 0.0048097586 0.0044110426)
(0.79870435 -0.0061655583 0.0099995638)
(0.80172788 -0.0086166438 0.0079004276)
(0.80335001 -0.010930417 0.0057965879)
(0.90375147 -0.02386703 0.011131165)
(0.90671272 -0.026577738 0.0092630248)
(0.908403 -0.02910463 0.0074041049)
(1.0125583 -0.043894248 0.012447718)
(1.0154294 -0.046820856 0.010828712)
(1.0171587 -0.049582017 0.0091699403)
(1.1244844 -0.06608413 0.013942869)
(1.1272836 -0.069204187 0.012530707)
(1.1291056 -0.072185925 0.011140313)
(1.2391209 -0.090215087 0.015566542)
(1.2418586 -0.093543161 0.014437212)
(1.243682 -0.096660296 0.013218188)
(1.3558839 -0.11596363 0.017351582)
(1.3584703 -0.11944612 0.016393672)
(1.3604647 -0.12284945 0.015471853)
(1.474116 -0.14339086 0.019306725)
(1.4768782 -0.14704601 0.018586082)
(1.4787874 -0.15045867 0.017735445)
(1.5936849 -0.17191513 0.021057186)
(1.59657 -0.17553591 0.020774132)
(1.5984416 -0.17912632 0.020146144)
(1.7140112 -0.2013886 0.02330565)
(1.7164904 -0.20498533 0.023016033)
(1.7185619 -0.20883489 0.022482041)
(1.834767 -0.2317434 0.025369138)
(1.8371173 -0.23561501 0.02514497)
(1.8394434 -0.2393985 0.024992217)
(-0.0031037839 0.0012210153 -0.00037093776)
(-0.0016023712 0.0016731233 -0.00081871426)
(-0.00016303749 0.0020121325 9.2850629e-05)
(0.011285738 0.002014622 -0.0020367525)
(0.013324257 0.0027073955 -0.0013327752)
(0.01187465 0.0021621986 -0.00099676517)
(0.032551927 0.0020392346 -0.001170803)
(0.034433012 0.0014628212 0.00012693724)
(0.034666473 0.0014970032 8.8521946e-05)
(0.061965805 0.00069660316 -0.0013392703)
(0.065956164 0.00012331389 -0.00036321553)
(0.065107127 -0.00063853118 -0.0002914752)
(0.10130174 -0.001239558 -0.00081012659)
(0.10453023 -0.0023382272 0.00059213892)
(0.10405161 -0.0021962323 -0.00035646847)
(0.14811263 -0.0051470604 -0.00058422983)
(0.1516948 -0.006299651 0.00021018117)
(0.15168577 -0.0067897727 0.00015851773)
(0.20312797 -0.010277365 -0.00049181906)
(0.20675611 -0.011914457 0.00078732709)
(0.2069848 -0.01252757 3.3829492e-05)
(0.26586168 -0.017830275 7.6406197e-05)
(0.26958383 -0.019409818 0.00098072468)
(0.26977794 -0.019720344 0.00049852705)
(0.33553272 -0.02677491 0.0003045659)
(0.33918118 -0.028746254 0.0012036453)
(0.33989989 -0.029709539 0.00069908422)
(0.41221317 -0.038166652 0.00088049418)
(0.41591311 -0.040343514 0.0017936563)
(0.41663313 -0.041207174 0.0012744681)
(0.49506496 -0.051647817 0.0015096897)
(0.49863681 -0.053917247 0.0023021425)
(0.49961076 -0.055176789 0.0017148885)
(0.58384175 -0.067205092 0.0022559511)
(0.58742113 -0.069779238 0.0030024194)
(0.58851487 -0.071210213 0.0024695075)
(0.67799544 -0.084925979 0.0032496184)
(0.6814822 -0.087725764 0.003924565)
(0.68265189 -0.089431262 0.00334275)
(0.77701729 -0.10475976 0.0043703086)
(0.78039676 -0.10776851 0.0049638477)
(0.7817145 -0.10968853 0.0044095763)
(0.88043836 -0.12650315 0.0057108951)
(0.88370139 -0.12970185 0.0062399391)
(0.88511963 -0.13193448 0.0056841375)
(0.98771 -0.15014144 0.0072238659)
(0.99085618 -0.15352404 0.0076742376)
(0.992373 -0.15598452 0.007122263)
(1.0983286 -0.17539132 0.0089312974)
(1.1013434 -0.17892698 0.009303994)
(1.1029579 -0.18165476 0.0087844029)
(1.2118016 -0.20213648 0.010759002)
(1.2146799 -0.20583932 0.011075506)
(1.216425 -0.20874893 0.01054375)
(1.3275752 -0.23013199 0.012782815)
(1.3303811 -0.23388641 0.012973675)
(1.3321812 -0.23707886 0.012555569)
(1.445246 -0.25912177 0.014773134)
(1.4478022 -0.26317739 0.015025943)
(1.4498055 -0.26633826 0.014539663)
(1.564463 -0.28894189 0.017173342)
(1.5666172 -0.29286488 0.016921565)
(1.5689769 -0.29631178 0.016735178)
(1.6840345 -0.31943386 0.01917689)
(1.6865857 -0.32311617 0.019265212)
(1.6886328 -0.32681878 0.018819961)
(1.8048909 -0.35006197 0.021385219)
(1.8075168 -0.35407544 0.021278603)
(1.8098761 -0.35757348 0.021121657)
(-0.002715493 -0.004617441 -0.0031892641)
(-0.0027196409 -0.0041067804 -0.00019647109)
(-0.0027191359 -0.0038343804 0.0028327809)
(0.012906889 -0.012494572 -0.0045496195)
(0.014978963 -0.010191719 -0.00026883915)
(0.013644899 -0.011334536 0.0032878926)
(0.031412804 -0.021303201 -0.0046928528)
(0.033917309 -0.023643819 -0.00027900528)
(0.034285116 -0.023480479 0.0041008267)
(0.061678406 -0.031863535 -0.0048580053)
(0.063770898 -0.030679665 -0.00064424444)
(0.064090175 -0.031373981 0.0028503891)
(0.098545968 -0.041637542 -0.0046726025)
(0.10136051 -0.042956436 -0.000770842)
(0.10200632 -0.043042786 0.0029355015)
(0.14428921 -0.053700161 -0.0049547029)
(0.14717149 -0.05443693 -0.00099537582)
(0.14791415 -0.055074845 0.0023188919)
(0.19770234 -0.067004409 -0.0045872195)
(0.20061968 -0.067813005 -0.00071755404)
(0.20175637 -0.068107982 0.0022657139)
(0.25844 -0.081198835 -0.0043943825)
(0.26139585 -0.082472391 -0.0011772265)
(0.26280854 -0.083522204 0.0020411482)
(0.32628537 -0.097457795 -0.0041894365)
(0.32935693 -0.098840295 -0.00074680155)
(0.33093996 -0.09964345 0.0021859653)
(0.40086453 -0.11524522 -0.0036312527)
(0.40396729 -0.11679871 -0.00060569277)
(0.4056832 -0.11798749 0.0020724719)
(0.48166065 -0.13458627 -0.0031397457)
(0.48474497 -0.13649416 -0.00027203877)
(0.48669574 -0.13788375 0.0023116444)
(0.56841417 -0.15580721 -0.0023526489)
(0.57148405 -0.15789772 0.00029792518)
(0.57351589 -0.15951987 0.0026043089)
(0.66050336 -0.17859079 -0.0014261269)
(0.66350674 -0.1809552 0.0009629347)
(0.66568405 -0.18282903 0.0031003328)
(0.75759823 -0.20301619 -0.00031213234)
(0.76055917 -0.20557867 0.0018571903)
(0.7627957 -0.20771064 0.0037780574)
(0.85915196 -0.22890434 0.0010390464)
(0.86202095 -0.23169037 0.0029491999)
(0.86435039 -0.23409445 0.004643571)
(0.96471269 -0.25613967 0.0025588168)
(0.96752578 -0.25915349 0.0042380852)
(0.96988307 -0.26178173 0.0056987345)
(1.0737676 -0.28457171 0.0042941307)
(1.0764662 -0.28773776 0.0057003138)
(1.0788944 -0.29059524 0.006955689)
(1.1858573 -0.31397314 0.0061814099)
(1.1885279 -0.31733627 0.0073687789)
(1.1909753 -0.32040549 0.0083646682)
(1.3004326 -0.34419631 0.0082162143)
(1.3029877 -0.34766757 0.0091397958)
(1.3054463 -0.35086461 0.0099573298)
(1.4171124 -0.37496615 0.010429809)
(1.4196777 -0.37856304 0.011091432)
(1.4221916 -0.38193475 0.01165229)
(1.5352861 -0.40609531 0.012533928)
(1.5377349 -0.40970832 0.013066258)
(1.5402499 -0.41314099 0.013474616)
(1.6547287 -0.437407 0.014910701)
(1.6572129 -0.44112987 0.01526279)
(1.65981 -0.44465813 0.015405853)
(1.7747416 -0.46867969 0.017176369)
(1.7771799 -0.47219685 0.017268404)
(1.7796642 -0.47596009 0.017211442)
)
;

boundaryField
{
    free
    {
        type            calculated;
    }
    fixed
    {
        type            calculated;
    }
    traction
    {
        type            calculated;
    }
}


// ************************************************************************* //
