/*--------------------------------*- C++ -*----------------------------------*\
  =========                 |
  \\      /  F ield         | OpenFOAM: The Open Source CFD Toolbox
   \\    /   O peration     | Website:  https://openfoam.org
    \\  /    A nd           | Version:  6
     \\/     M anipulation  |
\*---------------------------------------------------------------------------*/
FoamFile
{
    version     2.0;
    format      ascii;
    class       pointVectorField;
    location    "0.32";
    object      lm;
}
// * * * * * * * * * * * * * * * * * * * * * * * * * * * * * * * * * * * * * //

dimensions      [1 -2 -1 0 0 0 0];

internalField   nonuniform List<vector> 
28033
(
(0 0 0)
(0 0 0)
(5090.6712 -201.23778 20.921671)
(4858.9198 -1316.6884 -21.944578)
(0 0 0)
(0 0 0)
(4857.2539 -1318.5585 19.488848)
(5090.9604 -205.03003 -18.194223)
(0 0 0)
(0 0 0)
(0 0 0)
(0 0 0)
(0 0 0)
(0 0 0)
(0 0 0)
(0 0 0)
(0 0 0)
(0 0 0)
(0 0 0)
(0 0 0)
(0 0 0)
(0 0 0)
(0 0 0)
(5075.8306 -270.7206 17.16108)
(5062.7268 -340.76404 13.655693)
(5049.5143 -411.08672 10.037331)
(5036.5352 -481.3371 7.0056534)
(5023.3321 -551.80769 4.3112114)
(5009.7847 -622.18852 1.9544653)
(4995.9074 -692.40151 -0.3246497)
(4981.7326 -762.49226 -2.1723197)
(4967.1383 -832.29636 -3.9843615)
(4952.1259 -901.86229 -5.6782096)
(4936.9775 -971.1408 -7.3042002)
(4921.286 -1040.2787 -9.4869064)
(4905.5237 -1109.3094 -11.832403)
(4889.7202 -1178.267 -14.640463)
(4873.9455 -1247.4945 -18.074648)
(13.091484 23.675959 24.628726)
(16.668488 34.196106 32.665517)
(22.114777 47.113189 39.597759)
(29.575543 60.221974 44.683804)
(38.482857 73.511726 48.137472)
(50.319429 87.7484 51.307719)
(64.614482 101.87127 53.401571)
(81.695965 116.18529 55.247193)
(101.51188 130.6539 56.608805)
(124.16061 144.90142 57.861383)
(149.44913 159.08083 58.848743)
(177.59442 172.83755 59.699325)
(208.32092 186.21233 60.6431)
(241.77861 198.95915 61.362876)
(277.6174 211.00048 62.077)
(316.02336 222.13728 62.52599)
(356.52295 232.35752 63.028011)
(399.11359 241.5083 63.274902)
(443.29577 249.66035 63.412332)
(488.96549 256.77909 63.548024)
(535.69226 263.02252 63.691668)
(583.17849 268.36186 63.923654)
(631.33522 273.14307 64.370654)
(679.89647 277.3004 64.90415)
(728.94614 281.10721 65.64101)
(778.54367 284.53982 66.338121)
(829.12519 287.74266 66.827324)
(880.80069 290.48527 66.802043)
(934.10725 292.77563 65.997626)
(989.58997 294.48514 64.009073)
(1046.9943 295.00346 60.592392)
(1106.8332 294.358 55.662891)
(1168.9577 292.39004 49.094783)
(1232.9453 288.58489 41.115446)
(1298.1327 282.91005 31.783856)
(1363.6446 275.35298 21.707371)
(1428.5895 266.1334 11.555181)
(1491.8979 255.36297 1.766509)
(1552.3866 243.33978 -7.0195516)
(1609.4442 230.66022 -14.152065)
(1662.1321 217.76359 -19.262312)
(1710.2898 205.11257 -22.041774)
(1753.6944 193.26935 -22.397904)
(1792.6956 182.72085 -20.37066)
(1827.8602 173.76123 -16.373939)
(1859.9636 166.69357 -10.682716)
(1890.0052 161.63883 -3.9148697)
(1919.0214 158.62496 3.4386092)
(1948.0486 157.56213 10.816933)
(1978.0337 158.2865 17.780579)
(2009.7695 160.57044 23.973231)
(2043.8697 164.15011 29.183108)
(2080.7488 168.76091 33.322623)
(2120.6429 174.13196 36.428789)
(2163.6347 180.02548 38.628248)
(2209.7004 186.21375 40.104691)
(2258.7533 192.50219 41.058248)
(2310.6914 198.70031 41.671208)
(2365.4291 204.63711 42.075829)
(2422.9165 210.13255 42.338383)
(2483.1577 215.01256 42.451082)
(2546.1809 219.07072 42.350364)
(2612.0438 222.14916 41.898685)
(2680.7939 224.01993 40.989654)
(2752.3958 224.54894 39.43818)
(2826.8855 223.50746 37.210224)
(2903.9109 220.84726 34.237546)
(2983.4743 216.42225 30.481961)
(3065.1627 210.24572 25.943218)
(3148.5327 202.19732 20.877311)
(3233.1436 192.55011 15.51078)
(3318.5147 181.23913 9.9640661)
(3404.1551 168.46727 4.5287563)
(3489.5762 154.34499 -0.57915149)
(3574.3882 139.10461 -5.1609675)
(3658.1894 122.87662 -9.0576335)
(3740.7608 105.92717 -12.153848)
(3821.8038 88.374567 -14.381134)
(3901.2718 70.48095 -15.703278)
(3978.9848 52.346044 -16.126324)
(4055.0165 34.226867 -15.66692)
(4129.2909 16.204631 -14.400306)
(4202.0038 -1.5370908 -12.338393)
(4273.1622 -18.955631 -9.6005052)
(4342.9774 -35.8771 -6.2884575)
(4411.6778 -52.364488 -2.5495294)
(4479.4487 -68.265111 1.4994114)
(4546.648 -83.74262 5.6441295)
(4613.4465 -98.742517 9.7291303)
(4680.2793 -113.40896 13.558064)
(4747.1765 -127.84657 16.840434)
(4814.7348 -142.18019 19.662842)
(4882.6196 -156.53896 21.295991)
(4951.4756 -171.3202 22.479244)
(5020.9797 -185.76553 21.940654)
(2.2726379 -22.641475 -26.318356)
(11.320359 -28.277517 -24.198317)
(13.924099 -42.511529 -33.801393)
(18.660547 -50.716114 -33.931088)
(27.013791 -64.726365 -37.640618)
(36.69822 -78.74316 -39.166565)
(48.542691 -91.592741 -41.580631)
(62.859931 -106.81152 -43.259398)
(80.235473 -121.64604 -45.288406)
(99.472285 -136.81088 -47.281116)
(121.99073 -152.36208 -49.149035)
(146.83262 -167.85377 -50.905639)
(174.86587 -183.40646 -52.246229)
(205.37033 -198.88368 -53.368542)
(238.71293 -214.00322 -53.816708)
(274.60072 -229.04757 -53.89579)
(312.66852 -243.48463 -53.296627)
(352.85627 -257.72513 -52.391118)
(394.59087 -271.45292 -51.034347)
(437.49904 -284.76865 -49.559483)
(481.25246 -297.73843 -48.20634)
(525.50464 -310.49296 -46.885207)
(569.93228 -322.93799 -46.097044)
(614.72264 -335.48872 -45.508063)
(659.58245 -348.05035 -45.235493)
(705.17258 -360.85573 -45.18752)
(751.56927 -374.02049 -44.918894)
(799.55565 -387.46009 -44.19113)
(849.43569 -401.30708 -42.660845)
(901.80186 -415.27103 -39.840211)
(957.02714 -429.32936 -35.74094)
(1015.0401 -443.16222 -30.013379)
(1075.7808 -456.40258 -22.861929)
(1138.8789 -468.74978 -14.422509)
(1203.4512 -479.86243 -5.1253258)
(1268.7152 -489.25312 4.3547947)
(1333.4104 -496.94064 13.745142)
(1396.3927 -502.65235 21.964352)
(1456.6135 -506.45597 28.673825)
(1513.1181 -508.39351 33.344467)
(1565.2097 -508.83873 35.692616)
(1612.5116 -508.158 35.626474)
(1654.9672 -506.85709 33.227182)
(1692.8725 -505.48377 28.801498)
(1726.8 -504.60955 22.770014)
(1757.5484 -504.76733 15.652443)
(1786.0448 -506.42996 7.9860221)
(1813.2712 -509.97088 0.27664963)
(1840.1662 -515.65438 -7.0592512)
(1867.5724 -523.61993 -13.718447)
(1896.1854 -533.89951 -19.530097)
(1926.5383 -546.421 -24.446407)
(1959.0047 -561.03979 -28.520093)
(1993.8258 -577.55952 -31.870746)
(2031.1411 -595.7585 -34.645376)
(2071.0361 -615.41353 -36.978732)
(2113.5759 -636.31531 -38.964545)
(2158.8365 -658.27834 -40.633918)
(2206.9227 -681.14434 -41.949096)
(2257.9689 -704.78012 -42.812115)
(2312.1275 -729.06332 -43.082205)
(2369.5483 -753.88464 -42.602346)
(2430.3481 -779.11731 -41.232757)
(2494.5834 -804.63683 -38.87208)
(2562.223 -830.27679 -35.489479)
(2633.1343 -855.87413 -31.130794)
(2707.0892 -881.2313 -25.925044)
(2783.7388 -906.18717 -20.036575)
(2862.652 -930.39879 -13.856134)
(2943.3794 -953.82239 -7.3662874)
(3025.3736 -976.31391 -1.1809636)
(3108.1256 -997.63238 4.5961329)
(3191.2068 -1017.758 9.7214563)
(3274.1638 -1036.6244 14.02926)
(3356.6389 -1054.243 17.421945)
(3438.3197 -1070.635 19.835295)
(3518.9751 -1085.8978 21.27574)
(3598.4096 -1100.1004 21.770819)
(3676.5012 -1113.3956 21.383432)
(3753.1634 -1125.8921 20.182119)
(3828.3448 -1137.7417 18.243189)
(3902.0508 -1149.0884 15.656016)
(3974.3038 -1160.0648 12.493558)
(4045.1947 -1170.8298 8.8678178)
(4114.8358 -1181.4894 4.8658942)
(4183.3999 -1192.2025 0.63222881)
(4251.0939 -1203.0434 -3.7115551)
(4318.1562 -1214.1449 -7.9904701)
(4384.8485 -1225.5484 -12.046935)
(4451.4355 -1237.3366 -15.700561)
(4518.1712 -1249.504 -18.78841)
(4585.256 -1262.0854 -21.155032)
(4652.859 -1275.0359 -22.690853)
(4721.0839 -1288.4119 -23.29198)
(4789.7539 -1302.0903 -22.99386)
(0 0 0)
(0 0 0)
(0 0 0)
(0 0 0)
(0 0 0)
(0 0 0)
(0 0 0)
(0 0 0)
(0 0 0)
(0 0 0)
(0 0 0)
(0 0 0)
(0 0 0)
(0 0 0)
(0 0 0)
(9.5863937 -9.8857473 21.23327)
(14.693068 -40.366829 29.933853)
(11.431424 -37.127551 38.951309)
(17.431351 -59.597826 45.36685)
(22.960207 -68.628231 51.31551)
(32.669827 -83.247487 53.937347)
(43.943541 -97.22672 57.284904)
(59.661318 -113.03478 59.898597)
(76.702651 -127.22288 61.543114)
(97.697915 -143.66212 63.136976)
(121.48045 -159.29616 64.30181)
(147.54643 -174.59866 64.318604)
(177.58008 -191.55631 64.637852)
(209.17784 -206.36631 63.834581)
(244.56397 -223.4245 63.050416)
(281.23071 -237.82401 61.812846)
(320.54721 -253.62932 60.459102)
(361.07457 -268.19866 58.810093)
(403.14159 -282.70704 57.72808)
(445.64785 -296.47589 56.678085)
(488.67801 -310.07137 56.500964)
(531.85338 -323.36835 56.844166)
(574.8004 -335.89702 57.973144)
(617.86172 -348.59942 59.699952)
(660.91402 -361.10641 61.886475)
(704.62411 -373.6742 64.272681)
(749.00078 -386.64863 66.249309)
(795.56617 -399.32464 67.998879)
(843.66785 -412.31103 67.923162)
(895.15604 -425.38844 66.918676)
(949.25028 -438.07962 63.631627)
(1006.6817 -450.33576 58.531243)
(1066.997 -461.82748 51.363714)
(1129.8532 -472.1863 42.522053)
(1194.4247 -482.08019 32.573933)
(1259.905 -488.63344 21.896054)
(1324.3307 -495.12017 10.933044)
(1387.7071 -499.22525 0.89887877)
(1447.951 -501.80787 -7.6862962)
(1504.6274 -502.83816 -14.423066)
(1556.8196 -502.75062 -18.813869)
(1604.2259 -501.89208 -20.74117)
(1646.8078 -500.73129 -20.224915)
(1684.8773 -499.76909 -17.518168)
(1719.0362 -499.49349 -13.012354)
(1750.1026 -500.36965 -7.210727)
(1779.0275 -502.7836 -0.66216978)
(1806.8093 -507.05527 6.1067853)
(1834.3969 -513.39065 12.639272)
(1862.6399 -521.91039 18.585235)
(1892.2275 -532.63102 23.726865)
(1923.6843 -545.49603 27.971127)
(1957.3593 -560.37819 31.344372)
(1993.4627 -577.11279 33.951013)
(2032.0921 -595.50538 35.94978)
(2073.2828 -615.35652 37.503988)
(2117.0409 -636.4701 38.758964)
(2163.3843 -658.66364 39.807232)
(2212.3553 -681.76659 40.683517)
(2264.0348 -705.62663 41.356853)
(2318.5306 -730.09396 41.744719)
(2375.9621 -755.02818 41.730788)
(2436.4376 -780.28008 41.185439)
(2500.0192 -805.69438 39.999818)
(2566.7173 -831.11137 38.09186)
(2636.4439 -856.36558 35.435745)
(2709.0257 -881.17616 32.067203)
(2784.3342 -905.81317 28.060902)
(2861.6764 -929.07709 23.709503)
(2940.9473 -952.19743 18.933752)
(3021.7662 -973.94878 14.120055)
(3103.4664 -994.72576 9.4507625)
(3185.7551 -1014.3263 5.0537636)
(3268.1667 -1032.7594 1.1205059)
(3350.3473 -1050.006 -2.2456087)
(3431.9781 -1066.1091 -4.9777981)
(3512.7943 -1081.1369 -7.0339182)
(3592.5768 -1095.1844 -8.4121398)
(3671.1593 -1108.3706 -9.1291502)
(3748.4133 -1120.8313 -9.2137543)
(3824.2541 -1132.7153 -8.7019274)
(3898.6344 -1144.177 -7.6312213)
(3971.5518 -1155.3693 -6.0384606)
(4043.0442 -1166.4431 -3.9704729)
(4113.2052 -1177.5299 -1.4770311)
(4182.1662 -1188.7571 1.3703412)
(4250.1222 -1200.2082 4.4794797)
(4317.2947 -1211.9789 7.7357907)
(4383.9583 -1224.0832 10.988975)
(4450.3861 -1236.5805 14.080216)
(4516.8764 -1249.415 16.809811)
(4583.6794 -1262.6222 19.006018)
(4651.0526 -1276.082 20.460541)
(4719.0548 -1289.9364 21.040217)
(4788.1008 -1303.8533 20.607081)
(4872.4201 -1249.1 15.364172)
(4888.4 -1179.4761 11.339337)
(4904.2643 -1110.0027 8.1864332)
(4920.1557 -1040.6752 5.1851006)
(4936.0294 -971.18297 2.9345978)
(4951.4769 -901.80427 0.77510295)
(4966.575 -832.3771 -0.57580066)
(4981.448 -762.90743 -1.9267041)
(4995.666 -693.3686 -3.2461498)
(5009.5562 -624.00983 -4.2266569)
(5023.338 -554.4426 -5.5531997)
(5036.3223 -484.73232 -6.9540718)
(5049.7784 -415.17054 -8.9247075)
(5062.937 -345.25227 -11.458031)
(5075.9942 -275.02472 -14.470789)
(5020.9837 -189.94793 -20.00182)
(4950.9166 -174.59779 -21.013933)
(4881.4458 -159.61023 -21.617912)
(4812.5003 -144.49657 -21.092162)
(4744.1068 -129.32219 -19.83481)
(4676.2061 -113.97214 -17.693313)
(4608.6636 -98.369276 -14.800009)
(4541.3339 -82.453318 -11.238352)
(4473.9703 -66.180775 -7.1424111)
(4406.3281 -49.512623 -2.6943141)
(4338.1465 -32.462053 1.9149176)
(4269.1253 -15.056217 6.5065467)
(4199.0374 2.6707648 10.849428)
(4127.635 20.602323 14.80513)
(4054.7388 38.631609 18.163238)
(3980.2159 56.628281 20.779573)
(3903.9898 74.459777 22.538524)
(3826.0348 91.960739 23.365526)
(3746.4 108.95898 23.213991)
(3665.1928 125.27704 22.080879)
(3582.5964 140.74749 19.987696)
(3498.8493 155.18634 17.012296)
(3414.2787 168.44572 13.250784)
(3329.2409 180.3689 8.8530066)
(3244.1946 190.82584 3.9918452)
(3159.6252 199.77762 -1.0883958)
(3075.7647 206.92267 -6.3095929)
(2993.8122 212.50674 -11.418265)
(2913.1103 216.42345 -16.128735)
(2834.9776 218.70982 -20.398706)
(2759.2748 219.46232 -24.164491)
(2686.3816 218.77337 -27.322757)
(2616.3643 216.81973 -29.937836)
(2549.299 213.7448 -32.054007)
(2485.1814 209.73788 -33.766638)
(2423.9692 204.98307 -35.170248)
(2365.6104 199.6751 -36.34483)
(2310.0658 194.00372 -37.333832)
(2257.3224 188.16581 -38.125273)
(2207.4037 182.35733 -38.644813)
(2160.3563 176.78379 -38.757683)
(2116.2344 171.65584 -38.282031)
(2075.0603 167.19733 -37.013115)
(2036.791 163.63502 -34.755646)
(2001.2665 161.20055 -31.360727)
(1968.1844 160.1127 -26.762415)
(1937.0574 160.5687 -21.005906)
(1907.2322 162.72486 -14.269364)
(1877.8698 166.66647 -6.8557357)
(1848.03 172.44033 0.78373664)
(1816.6833 179.91321 8.1858793)
(1782.8479 189.01856 14.702571)
(1745.612 199.34755 19.934091)
(1704.2488 210.71238 23.258764)
(1658.2943 222.56694 24.416559)
(1607.7738 234.48939 23.309946)
(1552.6558 246.05197 19.989156)
(1493.6174 256.36901 14.360389)
(1431.4052 267.00039 7.1436881)
(1366.8564 274.03291 -0.62299099)
(1301.2636 280.23015 -9.4661406)
(1235.9335 285.26573 -18.173585)
(1171.0507 287.56895 -25.567348)
(1108.2885 288.76949 -32.221917)
(1047.2616 288.36417 -37.261604)
(989.48852 286.62678 -41.11974)
(933.26083 284.54685 -42.956538)
(880.2433 281.00171 -43.853406)
(828.36853 277.79466 -43.937207)
(778.18689 273.97862 -43.368243)
(728.92272 269.90669 -42.581527)
(680.30851 265.86049 -41.980408)
(632.16197 261.12361 -41.391495)
(584.09981 256.5546 -41.802699)
(536.536 251.29946 -42.414169)
(489.51247 245.31021 -43.41648)
(443.21617 238.90652 -44.996132)
(398.38315 231.27712 -46.359813)
(354.82728 223.21689 -48.069531)
(313.70948 213.59153 -49.169169)
(274.73687 203.58359 -50.227551)
(238.18151 192.54376 -50.716115)
(204.412 180.60443 -50.872347)
(173.86618 167.6967 -50.365392)
(145.85476 154.73074 -49.827114)
(120.82322 140.76703 -48.750706)
(98.829858 126.62498 -47.342346)
(79.666746 112.33054 -45.900519)
(62.876527 97.808717 -44.116763)
(49.014403 83.863236 -42.436108)
(37.308554 69.683729 -39.770887)
(29.030267 55.313219 -36.934074)
(21.69017 43.810623 -33.67471)
(16.151304 29.815302 -27.123338)
(17.739023 19.326961 -16.59094)
(0 0 0)
(0 0 0)
(0 0 0)
(0 0 0)
(0 0 0)
(0 0 0)
(0 0 0)
(0 0 0)
(0 0 0)
(0 0 0)
(0 0 0)
(0 0 0)
(0 0 0)
(0 0 0)
(0 0 0)
(0 0 0)
(0 0 0)
(0 0 0)
(0 0 0)
(0 0 0)
(0 0 0)
(0 0 0)
(0 0 0)
(0 0 0)
(0 0 0)
(0 0 0)
(0 0 0)
(0 0 0)
(0 0 0)
(0 0 0)
(4862.1619 -1318.8092 -21.805386)
(4865.9274 -1321.1305 -20.958853)
(4870.2646 -1324.2669 -19.281464)
(4874.675 -1327.7685 -16.81988)
(4878.7294 -1331.1852 -13.588357)
(4882.0228 -1334.1894 -9.7525147)
(4884.1343 -1336.2839 -5.4870051)
(4884.8177 -1337.1975 -1.0245041)
(4883.9844 -1336.8575 3.4157797)
(4881.7499 -1335.3094 7.6100485)
(4878.2795 -1332.7107 11.345329)
(4873.9859 -1329.5052 14.499914)
(4869.3821 -1326.1451 16.913912)
(4864.7879 -1323.148 18.543115)
(4860.755 -1320.5864 19.572503)
(5094.6722 -200.94162 20.82569)
(5099.3429 -200.58531 19.815839)
(5104.3717 -199.95392 17.997027)
(5109.3698 -199.19659 15.36782)
(5113.9653 -198.32193 12.101642)
(5117.7118 -197.58844 8.3021872)
(5120.1286 -197.12186 4.1923147)
(5120.9449 -197.06209 -0.044076454)
(5120.0882 -197.436 -4.1820711)
(5117.6498 -198.23174 -8.0160762)
(5113.9132 -199.33713 -11.366452)
(5109.3057 -200.64192 -14.070324)
(5104.3376 -201.96043 -16.104486)
(5099.4882 -203.10711 -17.311411)
(5095.1281 -204.17959 -18.124401)
(7.2848138 16.631579 24.865101)
(12.346776 26.910584 27.172178)
(16.529779 39.895378 35.315257)
(24.649528 51.44339 37.920464)
(32.534141 63.316131 42.306914)
(44.660668 75.381742 44.378483)
(58.175469 87.192406 46.683714)
(75.365707 99.546409 48.08198)
(94.550323 111.45405 49.468746)
(117.01153 123.57201 50.526925)
(142.02243 135.15616 51.30265)
(169.98035 146.70778 52.192379)
(200.52574 157.4785 52.780192)
(233.786 167.95867 53.477054)
(269.62963 177.43512 53.97333)
(307.96128 186.41419 54.492203)
(348.48589 194.42854 54.812716)
(390.939 201.771 55.210853)
(435.20456 208.17645 55.463046)
(480.84527 214.05573 55.740588)
(527.53788 219.11072 56.086874)
(575.04101 223.72033 56.497366)
(623.08998 227.79884 56.995455)
(671.56725 231.4126 57.675284)
(720.51554 234.59877 58.296004)
(770.03172 237.35017 58.882414)
(820.39127 239.43323 59.16946)
(871.99814 240.95695 59.018047)
(925.20135 241.60774 58.057447)
(980.38955 241.24711 56.116384)
(1037.9224 239.8915 53.052333)
(1097.875 237.30435 48.668675)
(1160.073 233.43009 42.999298)
(1224.2395 228.17013 36.177898)
(1289.729 221.86727 28.291586)
(1355.6145 214.37213 19.921601)
(1421.0691 206.04997 11.5212)
(1484.9172 197.18173 3.2980321)
(1546.0278 187.81792 -3.9117017)
(1603.6673 178.49515 -9.8546074)
(1656.9626 169.39647 -14.183909)
(1705.5597 160.76813 -16.574769)
(1749.3029 152.91375 -16.975498)
(1788.5171 145.99162 -15.5638)
(1823.6571 140.12217 -12.39899)
(1855.5858 135.42653 -7.9141191)
(1885.2318 131.91012 -2.4651105)
(1913.6761 129.56838 3.4985476)
(1941.9653 128.35001 9.5603322)
(1971.0815 128.17656 15.351176)
(2001.8526 128.94755 20.584156)
(2034.9317 130.54711 25.071367)
(2070.772 132.85159 28.725376)
(2109.6439 135.72066 31.556129)
(2151.6579 139.0129 33.642522)
(2196.8116 142.56603 35.114111)
(2245.0314 146.21331 36.116606)
(2296.2207 149.76845 36.786059)
(2350.2919 153.03958 37.224409)
(2407.1942 155.82455 37.485326)
(2466.9204 157.92008 37.573056)
(2529.4941 159.13015 37.439081)
(2594.9669 159.28397 36.987517)
(2663.3758 158.22258 36.140448)
(2734.7091 155.80615 34.761598)
(2808.9911 151.96811 32.808418)
(2885.9576 146.72053 30.186449)
(2965.3982 139.97149 26.97268)
(3047.0855 131.75669 23.09017)
(3130.5286 122.11457 18.842303)
(3215.323 111.25725 14.257645)
(3300.9272 99.177171 9.5467358)
(3386.8783 86.056756 4.8969488)
(3472.6771 72.002129 0.50218908)
(3557.8978 57.157723 -3.4763486)
(3642.161 41.649877 -6.8942539)
(3725.1748 25.641562 -9.652489)
(3806.6882 9.2349333 -11.670089)
(3886.5671 -7.3929086 -12.910236)
(3964.6815 -24.15681 -13.361894)
(4041.0284 -40.87305 -13.044418)
(4115.5965 -57.511952 -11.975492)
(4188.4841 -73.944364 -10.235662)
(4259.8362 -90.069793 -7.9523657)
(4329.7322 -105.83743 -5.1351505)
(4398.4696 -121.32519 -1.9613738)
(4466.2088 -136.51433 1.450596)
(4533.3436 -151.44704 4.9347263)
(4600.0576 -166.21084 8.3306388)
(4666.6939 -180.85858 11.458735)
(4733.5811 -195.53063 14.156611)
(4800.7957 -210.24803 16.293815)
(4868.7539 -225.14419 17.636502)
(4937.2047 -240.2658 18.36709)
(5006.4783 -255.21622 18.018117)
(1.2252849 16.427573 22.229503)
(5.7728024 20.813646 25.864862)
(12.806648 35.420821 30.424026)
(18.66772 42.864007 34.441479)
(28.062075 54.393883 36.833562)
(38.958564 63.720499 38.972152)
(53.167489 74.368361 40.473807)
(69.406457 84.154772 41.901977)
(88.852566 94.235332 43.037271)
(110.96652 103.9186 43.758886)
(135.90682 113.53191 44.705714)
(163.67148 122.66444 45.216396)
(194.1491 131.49548 45.971644)
(227.42091 139.7163 46.43137)
(263.17427 147.41079 47.075741)
(301.52066 154.44906 47.404364)
(341.87707 160.84677 47.96059)
(384.43955 166.57246 48.25252)
(428.54474 171.69607 48.643965)
(474.11026 176.22083 48.96817)
(520.62805 180.26139 49.362573)
(568.00642 183.82416 49.762699)
(615.88848 186.97253 50.323761)
(664.29344 189.65543 50.853601)
(713.13078 191.90096 51.412977)
(762.6341 193.57372 51.843376)
(813.04485 194.65495 52.037546)
(864.69715 194.9502 51.724703)
(918.03639 194.35055 50.836485)
(973.44375 192.78843 49.065274)
(1031.0753 190.10094 46.353571)
(1091.0987 186.29997 42.515812)
(1153.4128 181.39369 37.653829)
(1217.6244 175.51354 31.796389)
(1283.0546 168.72437 25.204527)
(1349.0097 161.27988 18.147242)
(1414.3486 153.38209 11.01734)
(1478.0947 145.23685 4.1975866)
(1539.1963 137.17096 -1.8931259)
(1596.7691 129.3918 -6.9151355)
(1650.0764 122.08198 -10.574479)
(1698.6436 115.35609 -12.621296)
(1742.5005 109.50195 -13.086262)
(1781.7376 104.37741 -11.958437)
(1816.9368 100.13486 -9.4515643)
(1848.8254 96.7171 -5.7909409)
(1878.375 94.101489 -1.3296938)
(1906.6054 92.229732 3.5941921)
(1934.5648 91.044489 8.6268935)
(1963.2164 90.474113 13.472527)
(1993.4008 90.456918 17.884778)
(2025.783 90.92213 21.707524)
(2060.8449 91.804022 24.858578)
(2098.8885 93.018774 27.338168)
(2140.0619 94.479941 29.199966)
(2184.3995 96.069049 30.54493)
(2231.859 97.659642 31.482159)
(2282.3695 99.089393 32.12059)
(2335.8606 100.18959 32.539841)
(2392.2883 100.76827 32.78405)
(2451.6402 100.63857 32.858459)
(2513.9316 99.61479 32.720355)
(2579.1987 97.544885 32.300043)
(2647.4629 94.276404 31.54519)
(2718.6891 89.730179 30.307872)
(2792.8863 83.918536 28.625793)
(2869.5238 76.699743 26.4356)
(2948.9062 68.062236 23.65095)
(3030.6305 58.178638 20.365692)
(3114.094 47.214856 16.716706)
(3198.9019 35.159512 12.813775)
(3284.5733 22.226727 8.7838069)
(3370.6376 8.5080073 4.804086)
(3456.6025 -5.8733971 1.0191167)
(3542.0425 -20.775549 -2.4288189)
(3626.5487 -36.106117 -5.4073236)
(3709.8463 -51.725623 -7.8372934)
(3791.6403 -67.568774 -9.6314917)
(3871.8171 -83.492522 -10.779748)
(3950.1908 -99.45094 -11.241798)
(4026.7996 -115.32312 -11.049708)
(4101.568 -131.08017 -10.216809)
(4174.6338 -146.62823 -8.8189274)
(4246.0544 -161.95788 -6.825316)
(4316.0347 -177.12076 -4.4736689)
(4384.8508 -192.05013 -1.8281257)
(4452.6789 -206.78742 1.0304384)
(4519.8238 -221.43182 3.9259555)
(4586.5705 -236.0057 6.7510607)
(4653.2426 -250.5925 9.3344872)
(4720.0983 -265.30273 11.523497)
(4787.2978 -280.06328 13.273586)
(4855.2825 -295.07268 14.277266)
(4923.5876 -310.24607 14.867844)
(4992.9192 -325.35122 14.314912)
(-1.8356418 11.854421 19.179794)
(3.8190674 17.509036 21.30629)
(6.834102 27.624948 26.986276)
(14.503958 35.439046 29.398657)
(23.008957 44.18604 31.589386)
(34.904105 52.888367 32.980278)
(48.314669 61.04952 34.540886)
(65.144348 69.408092 35.612371)
(84.23753 77.216547 36.218826)
(106.32961 85.355246 37.148169)
(131.08577 92.662031 37.539001)
(158.78865 100.17213 38.229311)
(189.17375 106.81986 38.562852)
(222.2834 113.40334 39.196072)
(258.01958 119.12883 39.48787)
(296.10845 124.57074 40.099783)
(336.52732 129.25856 40.403905)
(378.81347 133.54206 40.911506)
(422.79606 137.20699 41.283559)
(468.10197 140.491 41.758778)
(514.49656 143.29126 42.190556)
(561.62761 145.72815 42.75385)
(609.36694 147.7567 43.262621)
(657.57659 149.41143 43.846538)
(706.35992 150.59631 44.354793)
(755.82229 151.2759 44.76022)
(806.24812 151.27156 44.874493)
(858.02808 150.54607 44.643586)
(911.47838 148.94336 43.813486)
(966.96894 146.38206 42.322503)
(1024.7535 142.86172 40.004576)
(1084.8914 138.32464 36.839531)
(1147.2336 132.87946 32.820761)
(1211.4052 126.61138 28.021955)
(1276.7816 119.73933 22.61054)
(1342.5832 112.38161 16.846778)
(1407.7367 104.86695 11.021975)
(1471.317 97.382949 5.3749405)
(1532.2532 90.148407 0.34796383)
(1589.6208 83.325036 -3.8602331)
(1642.8144 77.093206 -6.9601953)
(1691.3715 71.552269 -8.8317537)
(1735.1644 66.69972 -9.3833243)
(1774.4351 62.601022 -8.6679421)
(1809.653 59.17731 -6.8098069)
(1841.5679 56.390723 -4.0097157)
(1871.0842 54.148968 -0.52049273)
(1899.2147 52.384799 3.3844435)
(1926.9675 51.016892 7.4274294)
(1955.3051 49.983501 11.362472)
(1985.0551 49.228416 14.989982)
(2016.8949 48.703348 18.172665)
(2051.3225 48.365832 20.833369)
(2088.6671 48.161556 22.960411)
(2129.1096 48.031704 24.586614)
(2172.7172 47.889141 25.783257)
(2219.4803 47.633581 26.632033)
(2269.3562 47.131347 27.218736)
(2322.2938 46.238095 27.605269)
(2378.2594 44.787664 27.832618)
(2437.242 42.617765 27.905081)
(2499.2561 39.571382 27.792101)
(2564.3198 35.506487 27.456586)
(2632.4394 30.315004 26.823987)
(2703.5576 23.939977 25.809876)
(2777.6852 16.335613 24.432622)
(2854.4504 7.5443463 22.549122)
(2934.0498 -2.4589532 20.15121)
(3015.6012 -13.660078 17.594026)
(3099.0096 -25.702667 14.549907)
(3183.758 -38.547724 11.31455)
(3269.4234 -52.152532 7.9380288)
(3355.4787 -66.361378 4.5686552)
(3441.4513 -81.038946 1.3641854)
(3526.8869 -96.101174 -1.5599363)
(3611.443 -111.41963 -4.1118996)
(3694.7855 -126.91457 -6.2018038)
(3776.6779 -142.48528 -7.7734915)
(3856.9335 -158.06764 -8.7904114)
(3935.4375 -173.58851 -9.2313168)
(4012.146 -188.98768 -9.1202343)
(4087.0414 -204.23735 -8.4659038)
(4160.2452 -219.30117 -7.3320642)
(4231.7803 -234.19601 -5.7949102)
(4301.9573 -248.9036 -3.9586456)
(4370.8849 -263.43758 -1.7975579)
(4438.8094 -277.88984 0.48310509)
(4506.064 -292.26331 2.8047016)
(4572.9325 -306.682 5.0467509)
(4639.6747 -321.15371 7.0794508)
(4706.6071 -335.78815 8.7957801)
(4773.9045 -350.53305 10.112556)
(4841.8795 -365.53654 10.87955)
(4910.2309 -380.65489 11.205243)
(4979.6258 -395.80564 10.725678)
(-3.4997026 11.532657 15.989569)
(-0.51200535 13.85873 19.560517)
(3.7338545 22.740237 22.562521)
(10.668049 28.16138 24.775611)
(19.790255 35.801715 26.211317)
(30.674599 42.252619 27.743738)
(44.790732 49.201531 28.832512)
(61.057924 55.448362 29.367887)
(80.230372 62.040907 30.315446)
(102.16032 67.970384 30.593724)
(126.9268 73.896346 31.234107)
(154.4763 79.340664 31.439267)
(184.76433 84.509887 32.029834)
(217.88176 89.195827 32.225298)
(253.38195 93.410199 32.833328)
(291.53409 97.175583 33.107134)
(331.65349 100.39169 33.65322)
(373.87945 103.19632 34.060575)
(417.60932 105.49144 34.576114)
(462.7985 107.43566 35.04059)
(508.89303 108.96069 35.597245)
(555.8776 110.18097 36.10118)
(603.3989 111.03923 36.660432)
(651.54439 111.54258 37.185929)
(700.22055 111.60754 37.643009)
(749.69006 111.17864 37.952352)
(800.18355 110.15575 38.043923)
(852.04669 108.43531 37.761902)
(905.62899 105.91615 37.062031)
(961.28199 102.55495 35.779973)
(1019.1549 98.283299 33.877346)
(1079.3468 93.153831 31.295158)
(1141.6625 87.243574 28.02871)
(1205.7427 80.651106 24.190935)
(1270.9201 73.586844 19.843711)
(1336.466 66.210661 15.276025)
(1401.265 58.837717 10.536148)
(1464.4709 51.581178 6.0522127)
(1525.0291 44.668989 2.0184581)
(1582.1458 38.22411 -1.3995672)
(1635.0937 32.444698 -3.9525655)
(1683.4652 27.316379 -5.5435089)
(1727.1783 22.957766 -6.1188107)
(1766.4193 19.244416 -5.6802292)
(1801.6683 16.160426 -4.3498196)
(1833.6272 13.60453 -2.2576022)
(1863.1809 11.476041 0.398632)
(1891.2935 9.6672117 3.4178648)
(1918.9608 8.0864788 6.5715249)
(1947.1136 6.6547524 9.6759401)
(1976.5751 5.308514 12.563346)
(2008.0233 3.9988206 15.121374)
(2041.9679 2.6881517 17.279841)
(2078.7628 1.3322136 19.022318)
(2118.6152 -0.10925948 20.364303)
(2161.6249 -1.7051749 21.357725)
(2207.8133 -3.528783 22.061213)
(2257.1639 -5.6893545 22.54139)
(2309.6433 -8.3023663 22.847923)
(2365.2321 -11.506659 23.015633)
(2423.9196 -15.43472 23.048619)
(2485.7157 -20.22853 22.936076)
(2550.6266 -25.992591 22.642793)
(2618.6229 -32.822354 22.09978)
(2689.7169 -40.771334 21.312808)
(2763.7007 -49.837993 20.137019)
(2840.4652 -60.031096 18.703229)
(2919.9032 -71.197782 16.866859)
(3001.4317 -83.411875 14.708603)
(3084.7171 -96.463637 12.234683)
(3169.3958 -110.20231 9.5983493)
(3254.9523 -124.57378 6.8466581)
(3340.8944 -139.38683 4.1564672)
(3426.8042 -154.56675 1.5342537)
(3512.2182 -169.94446 -0.89104511)
(3596.767 -185.43287 -3.0332201)
(3680.1344 -200.97178 -4.8060059)
(3762.0631 -216.47752 -6.164585)
(3842.374 -231.90322 -7.066717)
(3920.9387 -247.19474 -7.5109415)
(3997.7148 -262.31917 -7.4955892)
(4072.6976 -277.26116 -7.0390075)
(4145.9683 -292.00245 -6.2036949)
(4217.6376 -306.56868 -4.9998651)
(4287.9044 -320.95247 -3.5095698)
(4356.9227 -335.25116 -1.8567272)
(4424.9769 -349.46705 -0.086507056)
(4492.3788 -363.68223 1.6991841)
(4559.3581 -377.94731 3.4289529)
(4626.2199 -392.29919 4.9638388)
(4693.2961 -406.82907 6.2684131)
(4760.6329 -421.45701 7.2139329)
(4828.7041 -436.35365 7.7681507)
(4897.0763 -451.24527 7.9546932)
(4966.516 -466.31117 7.5877703)
(-5.4315338 8.2206444 13.347431)
(-2.4788029 10.673657 14.731715)
(0.59434618 17.138967 18.124095)
(7.6849064 22.072515 19.821809)
(15.999704 27.299186 21.437191)
(27.838827 32.799328 22.2621)
(41.482216 37.638927 22.783317)
(57.992606 42.849834 23.714075)
(77.115499 47.256439 23.786878)
(99.100908 52.030709 24.370797)
(123.71242 55.958483 24.425274)
(151.22552 60.099966 24.9218)
(181.53408 63.442257 24.936984)
(214.39027 66.731151 25.4986)
(249.98416 69.309934 25.623909)
(287.82139 71.676754 26.162787)
(327.92852 73.406859 26.49288)
(369.87578 74.846262 27.034075)
(413.47948 75.781326 27.465777)
(458.3434 76.419084 28.055388)
(504.27229 76.67478 28.550081)
(550.97244 76.64727 29.148631)
(598.32876 76.27944 29.687084)
(646.25216 75.602053 30.230792)
(694.82734 74.528534 30.675677)
(744.23193 73.041046 31.021446)
(794.71661 70.996999 31.144872)
(846.62086 68.356532 31.031187)
(900.28676 65.014894 30.53356)
(955.99142 60.914369 29.622947)
(1013.9386 56.044438 28.222974)
(1074.1415 50.424142 26.294257)
(1136.4157 44.102347 23.874639)
(1200.3713 37.230033 20.975726)
(1265.3517 29.9381 17.703832)
(1330.6294 22.435427 14.213783)
(1395.1485 14.931104 10.570456)
(1458.1217 7.5762769 7.2398589)
(1518.3353 0.57858297 3.9136558)
(1575.1029 -5.7858821 1.1644209)
(1627.8051 -11.537448 -1.0140163)
(1675.9835 -16.560437 -2.4786114)
(1719.5668 -20.900917 -3.1822829)
(1758.7135 -24.565583 -3.1290876)
(1793.9049 -27.652943 -2.3694345)
(1825.8287 -30.258572 -1.0021042)
(1855.3342 -32.515518 0.83924573)
(1883.3662 -34.539452 2.9954269)
(1910.8935 -36.446797 5.3036092)
(1938.8294 -38.331925 7.6158745)
(1967.9906 -40.273056 9.796776)
(1999.052 -42.326499 11.753058)
(2032.5365 -44.536259 13.419738)
(2068.8121 -46.939748 14.774966)
(2108.1114 -49.572053 15.823303)
(2150.5608 -52.482849 16.600004)
(2196.2077 -55.728027 17.147309)
(2245.0589 -59.390618 17.519978)
(2297.1017 -63.560731 17.757524)
(2352.3266 -68.347346 17.892772)
(2410.7257 -73.863454 17.936754)