/*--------------------------------*- C++ -*----------------------------------*\
  =========                 |
  \\      /  F ield         | OpenFOAM: The Open Source CFD Toolbox
   \\    /   O peration     | Website:  https://openfoam.org
    \\  /    A nd           | Version:  6
     \\/     M anipulation  |
\*---------------------------------------------------------------------------*/
FoamFile
{
    version     2.0;
    format      ascii;
    class       pointScalarField;
    location    "1.32";
    object      E;
}
// * * * * * * * * * * * * * * * * * * * * * * * * * * * * * * * * * * * * * //

dimensions      [1 -1 -2 0 0 0 0];

internalField   nonuniform List<scalar> 
3969
(
25902.982
24183.761
-838369.86
-466413.55
27482.777
29128.255
-687398.38
-1292290.8
12075.325
5526.2879
2496.8785
1395.0067
4027.7095
11561.954
22544.221
-444886.63
-438426.88
-456882.33
-478978.33
-495497.76
-504198.56
-375685.07
27993.771
22165.024
22269.987
22997.531
22564.36
23195.276
22434.324
22797.146
21947.972
22035.041
21840.417
21628.164
21409.957
20868.172
20393.298
19693.167
18919.25
17714.654
16442.592
14714.483
12672.358
10402.909
7599.4558
4674.9839
1274.4337
-2213.8588
-6250.0719
-10308.872
-14546.613
-18889.399
-23210.457
-27243.544
-31112.325
-34555.439
-36968.899
-39529.815
-39916.244
-41317.71
-39601.541
-39361.203
-35689.293
-32644.368
-28862.843
-22201.358
-18091.362
-11082.698
13241.511
26044.448
16217.855
23270.733
19085.536
20170.551
17820.021
16763.146
14449.42
12338.144
10678.855
7770.8616
6053.6167
3556.9678
1834.7084
175.21304
-1287.1687
-1982.6981
-3351.8563
-3094.5683
-3418.4657
-2840.2957
-1510.2075
-391.13583
2128.863
4792.1179
8449.7511
11415.177
15605.388
20333.683
25398.602
31206.004
36541.195
42088.432
47105.569
51665.697
55824.671
58035.663
60034.946
60408.451
59723.98
57347.256
53813.457
48695.818
42748.391
36041.532
28631.826
13777.096
12494.213
5544.7584
1947.5049
2482.9127
3585.9554
10462.584
20230.815
42457.52
29435.744
18402.383
26766.195
22410.394
20815.799
20655.047
15669.518
17513.469
9196.1235
12606.943
8127.4489
6661.5684
5100.5319
3038.0635
3089.5884
1408.0636
1672.5046
1318.7331
1489.9271
2151.5356
2967.6778
4434.5739
6046.807
8342.3623
11273.526
15599.589
19279.429
23212.859
26955.964
30585.784
34163.668
37282.487
40292.488
42354.009
44315.229
49109.484
44479.629
44688.69
42848.448
40036.111
36855.686
32082.685
26954.689
20842.71
14593.563
13345.932
-1098486.7
-918314
-1061291.7
-935508.29
-889014.83
-782939.92
-989669.96
15496.166
4712.5956
3295.3213
-646.88613
-4727.5114
-8435.9962
-11792.108
-14873.939
-17380.478
-18599.73
-19484.462
-23309.737
-22605.345
-22386.322
-21751.993
-20340.946
-18782.231
-16576.641
-14136.163
-11510.146
-8676.5884
-5668.1962
-2728.3203
12.027936
2794.9855
5340.2376
7833.2961
9964.2188
12134.878
13703.474
15599.001
16207.924
18059.118
19776.3
20036.635
20492.193
21311.035
21552.977
21906.879
22029.52
23772.797
22063.196
23720.568
21843.274
21864.734
21566.127
31343.427
20314.437
19336.004
18804.503
18629.849
18420.962
18102.884
18964.983
15081.5
16296.335
17597.702
18566.087
18964.627
21081.042
17725.818
-522852.23
-522245.63
-522109.37
-522156.98
-522166.4
-521977.83
-522312.49
-950803.19
-948988.22
-949043.54
-949021.96
-949163.3
-949929.15
-952147.59
16709.974
12853.914
14056.388
14131.615
14344.938
14877.829
14698.483
15160.919
15036.953
15255.327
15077.905
14799.636
14583.76
14104.071
13266.551
12425.678
11364.736
9883.9246
8378.2861
6658.9811
4839.4123
2934.1012
1180.3235
-770.08652
-2276.5899
-3717.7143
-4829.2338
-5804.1991
-6208.7141
-6514.9845
-6291.8271
-5862.3558
-5263.6739
-4287.6474
-3206.4214
-1992.968
-580.05896
813.63804
2255.3656
4127.6711
6008.1882
7353.8071
10350.936
11466.849
14156.179
18818.081
22388.445
7378.7445
5768.5896
6853.734
6607.1277
7036.6479
7372.806
7247.0095
7692.61
7510.4266
7616.7457
7377.1236
7416.4688
7242.183
6861.7452
6663.5388
6082.5055
5459.6176
4645.2056
3896.2553
3136.3055
2359.4929
1814.167
1114.8447
904.34769
600.91026
564.07542
803.69655
1155.4609
1658.8683
2638.2546
3818.9673
5094.4304
6596.774
8220.1801
9926.6279
11423.251
13515.028
14074.172
16652.21
16830.052
19161.491
19504.781
21561.553
21496.057
23676.402
21290.353
13792.458
3248.7955
1478.9889
2554.9241
2047.495
2053.6831
2110.1656
1805.5883
1949.8087
1433.8211
1871.2067
1515.5791
1558.0082
1243.224
798.84092
816.86984
626.17763
501.3821
336.67184
406.01645
336.4144
484.96146
644.99148
1460.7925
2147.8197
3201.5682
4286.0779
5912.4737
7613.4211
9629.2456
11649.794
13725.311
15875.574
17978.117
20009.633
21894.046
23814.893
25071.118
27108.617
28110.638
28812.99
29896.458
28934.253
29825.268
28191.761
28547.106
24464.076
8630.9852
1716.2615
-126.27884
321.78029
-156.685
-531.4775
-461.84889
-1138.0338
-971.617
-1616.3267
-1829.9326
-2231.5804
-1979.1394
-2589.145
-2297.9426
-2811.3622
-1990.0168
-2169.8931
-1332.7643
-1189.6364
-465.42833
118.98118
1470.3835
2659.8751
3619.1003
4566.9628
5998.0904
7089.2145
8417.5852
9916.4347
11492.773
13215.377
15115.214
16718.235
18673.851
20305.33
21534.46
23257.543
23909.286
25299.129
26233.38
26154.493
25446.794
25545.786
23123.199
23719.882
18797.16
8280.2915
4050.4262
1615.2959
2326.7678
1190.8172
1237.2099
973.67376
113.52089
286.14187
-589.14826
-538.83097
-467.98263
-782.64339
-517.24263
-808.88623
-333.71897
-356.70852
12.623439
294.96184
691.4838
1176.2628
1916.2101
2872.1219
4166.3625
3868.319
4014.5672
3820.8532
3532.4812
3220.9709
2756.1132
2191.3097
1569.9851
814.18123
-8.2803811
-627.43634
-1705.7492
-2026.7514
-2946.2507
-3183.6295
4844.539
15621.421
15030.273
15270.187
14354.057
13540.864
12582.417
11026.119
13644.258
9951.6379
7526.0899
8136.0212
7579.6276
7662.1611
6975.0171
6290.0741
5627.5211
4765.8665
4143.0925
3595.0265
3263.1841
2885.94
2657.4556
2495.2279
2605.0864
2536.783
2704.6146
2822.5792
2895.7848
3013.866
2845.617
2359.9406
2097.7801
1554.9933
882.5727
239.85299
-603.1178
-1533.1293
-2499.5832
-3626.5512
-4743.1315
-5868.6048
-6810.3353
-8033.9496
-8392.2789
-9201.5865
-9577.6597
-9516.4932
-6817.9517
-6766.3284
-5819.2073
-5206.0269
-2977.5394
-1100.3075
13.514842
13214.858
15432.981
12393.699
13636.12
12534.186
13122.334
11557.272
11148.257
9103.0423
9291.5294
6794.2514
7429.3953
5126.2152
5299.6761
4224.5756
3936.2092
3374.9157
2963.9112
2605.8814
2151.1074
1698.5715
1476.1915
730.99055
35.109342
-689.29589
-879.80255
-1032.0438
-1555.6144
-1876.76
-2313.755
-2726.2707
-3287.5457
-3332.4896
-3650.4806
-3282.0962
-3368.738
-2110.4104
-1826.7878
301.29812
1100.0361
-4157.6662
-3556.4248
-494.53216
2914.9143
7438.326
10648.455
17164.243
23571.772
6818.1645
6773.4414
5300.5223
5065.2591
5163.6943
5175.9373
7047.4612
3119.5996
2399.461
1869.3084
1737.6791
1778.2286
2012.0174
2901.5123
1233.5377
680.04395
249.47476
265.14518
206.25756
325.38791
744.98383
651.57907
184.44578
150.62266
122.338
260.24611
670.78241
1238.0283
1283.8865
760.59434
529.06962
491.96348
677.04149
1123.5321
1903.6238
6341.2088
4683.7799
4386.4256
4177.3082
4557.7751
5324.967
7235.9533
10432.147
11100.936
8930.8705
9284.7535
9293.779
10095.889
13654.152
30918.253
29062.223
31089.058
33897.818
34231.07
36490.382
35556.507
25200.454
25741.353
23955.814
23652.579
26960.186
27183.839
29274.414
23825.764
25158.159
27095.563
26154.26
26141.434
26088.031
27697.551
23297.508
25067.079
23670.23
25119.298
25217.385
26083.914
23574.761
22018.004
23201.849
25324.693
24571.645
24646.424
24403.33
24927.643
20780.207
20379.916
19848.89
20951.431
20298.723
20444.824
20176.475
18037.081
18485.703
20232.066
19874.091
20753.057
20452.528
20897.825
16203.643
16356.897
15757.714
16087.942
15267.814
15217.515
15422.017
13980.814
13648.664
14691.973
14792.94
15693.992
16167.641
17154.11
11046.035
11512.924
11078.165
12509.485
10802.432
10686.381
10663.806
9909.2627
9393.113
9950.7544
8994.0061
10255.47
10599.261
10697.992
6403.5753
7284.1789
6748.9563
8138.7903
7673.4363
5977.3932
8097.0755
5376.8407
4786.9107
5705.3344
4939.3621
5198.342
6206.1004
5675.8433
2556.5274
3167.0276
3809.197
3117.6724
4549.2805
2907.5936
4467.2887
1697.6347
2151.7414
1936.4541
2014.0449
1768.5648
1649.4345
2314.2749
257.82323
115.2652
1204.0223
217.75018
1296.5206
583.7312
1869.738
-960.72644
-144.11512
-177.0928
-509.56164
26.487208
-703.4963
511.56121
-1109.2589
-1334.7883
-539.7002
-1132.2893
-458.86635
-1121.392
86.892194
-1587.2617
-1424.4116
-724.91461
-1580.2601
-638.81379
-1573.6661
-17.623459
-1235.2897
-1322.1066
-547.06284
-1204.602
-311.92766
-1289.2572
83.520581
-423.08282
-763.83991
297.48691
-615.87239
348.90423
-794.54947
772.2612
763.91623
368.57612
1496.4099
514.61645
1546.925
343.27832
1899.1693
2532.9525
2019.7454
3140.3309
2288.8347
3256.2233
2151.9353
3576.7837
4811.918
4306.3194
5373.9795
4407.1882
5398.1391
4223.5064
5492.2867
7590.0944
7336.9853
7570.9257
7657.9844
8014.3413
7224.4073
8125.5173
10901.478
10649.769
10599.347
10682.763
10761.575
10682.493
11666.389
15110.672
14559.028
14533.077
14012.781
14748.238
14627.322
15840.446
19584.494
18510.885
19248.625
18027.878
19043.171
17980.64
19905.122
23580.25
23625.515
22968.535
23036.533
23271.979
23079.092
24107.676
29173.481
27779.289
28588.721
27266.584
28169.666
27393.777
28664.712
33625.135
33214.099
33021.215
32140.744
32710.085
32048.489
33271.93
38944.373
37793.19
38067.928
36795.903
37464.581
36626.338
37905.163
43406.151
42565.853
42639.826
41264.107
41813.978
41005.11
42253.344
47661.746
46614.538
46865.115
45297.23
45888.07
44856.799
46270.758
51127.366
50379.963
50454.973
48940.444
49386.303
48691.259
49640.029
54374.555
53206.723
53523.236
51730.552
52205.242
51890.376
52329.22
55394.622
54837.211
55103.495
53749.399
54345.933
48690.073
50344.77
51691.956
51778.37
51565.49
50833.418
50412.963
56050.714
54718.801
56158.454
55381.823
55892.237
54291.887
54869.606
53984.763
54724.907
54881.885
54157.198
54413.78
53452.629
53525.518
52908.476
53343.855
51830.544
51060.998
51693.072
50521.683
50933.955
50494.061
50571.656
47917.542
47381.443
47813.148
47112.575
47305.632
46880.915
46648.928
42634.182
42154.168
42729.65
42075.454
42357.023
42154.447
41841.686
36458.659
36331.663
36742.01
36494.656
36549.228
36605.265
35594.306
29366.508
29319.467
29625.878
29462.799
29764.453
29744.831
28814.034
22285.447
22554.315
22952.416
23095.466
23179.518
23200.088
21977.056
12073.526
12720.798
12549.028
13027.92
12885.719
12835.93
13040.627
-555342.99
-608781.29
-608674.86
-608729.21
-608723.72
-608010.48
-607932.91
-587495.64
-586197.41
-586129.45
-586272.7
-586140.81
-631702.47
-585759.92
-644773.14
-599863.53
-599620.28
-599739.28
-599455.39
-547372.15
-599365.64
-632734.67
-632966.78
-633803.68
-633151.56
-634251.49
-632759.58
-633564.9
-658197.22
-589398.54
-655003.18
-655633.92
-654005.84
-654947.5
-655586.93
-612374.8
-731167.53
-679549.46
-679209.01
-737000.14
-679273.24
-680835.07
-734315.89
-678451.18
-678788.88
-678816.99
-612068.58
-678490.83
-677600.77
26900.914
24187.593
22639.093
21814.483
21984.296
22693.083
21970.696
24158.107
22192.278
21769.983
21452.287
21284.395
21251.119
22210.87
24341.448
24827.665
23984.718
23397.768
24055.384
23344.456
23387.812
24048.192
24072.492
23698.084
23954.468
23260.09
22362.763
22617.87
24579.229
24153.425
24661.297
24079.69
24106.805
23230.04
22909.312
23431.193
23297.162
23111.402
22567.933
22780.311
22012.676
22433.944
24121.832
23337.829
23597.69
22685.88
23330.949
22827.298
22964.456
22757.088
22227.686
22395.362
21910.599
21773.356
21428.299
22066.29
23289.559
22568.378
22770.519
21808.774
22672.892
21727.176
22679.403
22740.842
21743.088
21913.818
21148.723
21727.659
21139.061
21939.31
22337.919
21584.173
22217.651
21122.584
22001.836
21032.758
21883.138
21792.157
21343.392
21252.709
20859.273
21179.184
20929.463
21539.205
21555.98
20702.03
20770.019
20177.239
20734.861
20050.478
20433.279
21047.079
20403.049
20456.314
19851.179
20262.932
19986.293
20163.296
19931.957
19620.369
19652.614
19455.471
19804.447
18946.185
19552.794
19495.506
18602.299
18612.729
18099.313
18808.733
18663.961
18610.394
18870.042
17983.995
17889.554
17579.897
17891.7
17015.63
17498.013
17521.137
16494.273
16839.147
16112.822
16474.542
15888.286
15989.888
15906.973
15159.327
15258.293
14642.812
15068.144
14363.066
14585.191
14189.454
13415.898
13469.683
13001.776
13101.879
12514.325
12663.537
12013.085
11412.602
11433.912
10841.103
10988.591
10436.162
10624.446
9702.3758
9302.4098
8992.6248
8598.4883
8584.0937
8027.6054
8262.26
6785.1915
6561.306
6174.9536
5897.9394
5771.2434
5335.47
5646.576
3833.8371
3985.6843
3254.0294
3162.5301
2993.0717
2547.9542
2840.3345
360.89279
943.29122
-104.82593
104.50004
-186.12253
-584.45081
-205.43426
-2875.6459
-2210.3249
-3392.1942
-3192.9702
-3359.2026
-3950.6072
-3443.8741
-6753.8329
-5759.1672
-7037.1752
-6690.495
-6851.5679
-7458.9574
-6718.4451
-10526.296
-9453.5147
-10472.623
-10266.673
-10326.114
-10904.405
-10104.155
-14115.611
-12877.105
-14410.936
-13802.856
-13912.485
-14460.729
-13424.59
-17996.279
-16606.42
-18000.31
-17329.859
-17367.388
-17902.161
-16596.911
-21308.474
-20218.754
-21453.482
-20719.267
-20762.301
-21294.697
-19574.249
-24630.619
-23512.006
-24569.753
-23989.663
-23921.046
-24238.203
-22303.566
-27416.306
-26527.141
-27508.915
-26812.873
-26638.056
-27085.893
-24540.438
-29733.958
-29148.797
-29794.231
-29145.615
-29081.288
-29182.937
-26607.22
-31424.789
-31055.541
-31528.302
-31099.749
-31052.463
-31323.753
-27958.554
-32786.624
-32477.446
-32709.431
-32500.05
-32061.574
-35914.601
-32030.455
-36976.089
-37240.96
-37473.799
-37371.627
-36673.356
-33288.615
-26826.423
-32022.56
-32709.42
-32592.227
-32612.561
-32220.625
-33238.726
-28437.259
-31382.416
-31426.834
-31564.274
-31410.77
-31629.14
-31515.5
-27053.507
-29601.87
-30363.746
-30081.084
-29976.239
-29963.991
-29823.811
-25302.318
-26645.641
-26967.909
-26978.228
-27098.219
-27250.679
-27401.551
-22815.061
-23242.185
-23778.838
-23842.066
-23495.574
-23783.332
-23822.008
-19565.342
-19714.39
-20445.737
-20092.364
-20270.943
-20609.177
-20419.393
-15944.13
-14412.193
-14239.687
-14614.472
-14404.177
-14782.391
-14552.366
-11528.36
-9500.8204
-10468.725
-10229.933
-10286.445
-10422.385
-10522.522
-7178.941
-5625.6816
-4682.9912
-5156.5624
-4626.3209
-4827.113
-4520.1988
-3102.5526
17313.21
16011.121
16370.955
16255.616
16190.184
16798.652
16878.449
22649.953
16710.082
15530.972
15696.569
15817.52
15397.762
15643.703
14758.101
14253.144
13955.294
13216.012
11880.896
11398.826
9686.0008
8701.0364
7387.2255
5820.7969
4868.5399
3476.0115
2735.2863
1840.0159
1561.7883
1563.873
1906.1709
2792.8678
3714.8079
6115.032
8038.8388
10408.336
13063.122
15804.316
18625.448
21153.596
23632.096
25494.941
27617.42
31931.933
29977.617
30246.878
29989.95
29692.574
28805.432
27536.966
26106.987
24257.392
22380.619
29802.064
8195.9731
9549.3873
6994.218
7655.0452
8914.0341
8326.1536
9474.7966
9664.3185
10228.353
10676.713
10599.092
11045.15
10633.846
10462.172
10084.355
9881.8725
9721.3649
8978.1307
8813.8392
8171.6409
7689.6943
7248.3431
6673.8977
6355.1433
6137.2309
5140.8815
4552.4287
6327.2866
6460.7043
6925.5768
7554.9143
8288.6679
9015.6586
9799.0248
10583.08
11464.147
11473.125
11622.937
12319.664
12015.889
12176.333
11616.87
11448.881
10513.127
10566.332
7627.2788
13719.928
3097.059
3148.4523
1903.3542
3485.1664
2284.0046
2707.9049
3303.2921
2511.4858
3491.1742
2794.7122
3208.6966
3319.6312
4960.7508
6429.914
6352.1845
6769.2819
6926.6211
7000.8056
7118.0487
6838.9307
6615.97
6107.6401
5531.9453
4643.7763
3963.9536
2763.4967
1838.5843
325.21869
-689.40213
-2099.0254
-3203.5729
-4427.0102
-5249.9914
-6049.3021
-6575.9745
-6814.134
-6670.5508
-6368.1633
-5871.9166
-4875.2123
-3699.2637
-2245.8276
-672.69197
1851.1288
3440.2634
6578.7672
4487.7719
1448.6147
1469.4158
-508.32457
2618.9575
-475.53471
1862.8146
-1078.2943
799.44295
437.41108
470.92166
1970.3765
1123.5378
3065.809
5833.0984
5947.4683
6768.1624
7010.2219
7158.4695
7296.7512
7129.735
6704.3586
6154.8786
5141.5912
4331.2955
2970.839
1926.3201
-74.235805
-1512.3719
-3359.0979
-5040.2666
-6726.8822
-8279.8009
-9679.379
-11111.887
-12013.263
-12841.724
-13222.004
-13434.002
-12724.681
-11970.165
-10280.315
-8628.8161
-5304.9855
-2788.6604
1971.9629
6013.5168
3856.4197
4222.2838
1102.0004
1974.9365
1746.3239
1164.8956
1618.8028
1542.1077
2285.1583
671.39135
2909.3276
440.31127
2815.5849
1880.4226
2275.2475
2584.9006
2730.4802
3118.4533
3291.1046
3451.1906
3354.8047
3159.9466
2724.8397
2344.5141
1391.2118
271.52025
-1187.4833
-2324.4612
-3719.3277
-5152.8339
-6649.4748
-7983.9325
-9301.741
-10445.443
-11320.47
-11802.212
-12232.125
-11859.902
-11376.248
-10251.816
-8518.4915
-6588.0822
-3466.0503
-518.86611
3508.4674
7597.9323
13140.958
13188.922
10802.416
8693.7874
5109.619
8469.0427
4789.7378
6787.8978
6018.5644
3294.6283
5728.4446
3312.9791
4171.5913
3413.767
2254.3968
3056.3278
2019.8724
2271.8527
2050.4959
2052.8405
2042.2594
2042.4844
2048.179
2064.4543
2132.8158
1929.66
1193.4548
1546.2647
1678.2564
1680.2991
1641.906
1629.9506
1674.1824
1662.2468
1736.4902
2099.7516
2294.0503
2769.6008
3656.8204
4305.3369
6159.642
7106.3241
9228.3372
10861.922
13210.404
15226.824
17918.243
19401.032
19646.777
26710.065
14160.988
17929.046
14185.249
16455.766
14034.96
13362.975
11470.927
11095.801
8700.7575
9435.006
10024.181
7455.4564
7457.6653
5687.6441
5307.0686
4088.9216
3237.9206
2547.5997
1532.3455
722.04209
-346.57296
-1351.9073
-2891.0265
-3928.8304
-4242.5093
-4740.8205
-5218.97
-5728.2727
-5809.942
-5838.0706
-5692.1199
-5183.6465
-4361.8034
-3515.6292
59.164689
-364.95664
1930.6321
3717.2533
6684.4393
9403.9965
12699.518
15842.638
19724.912
22657.281
26854.328
28260.35
19883.239
16430.932
15751.821
15278.01
15112.828
14726.135
14711.42
17570.103
17585.159
15873.126
15441.98
14900.154
15064.047
15386.086
16556.306
17271.867
17198.904
16615.194
16349.036
16179.302
15761.011
16598.348
16722.039
16694.514
16618.015
16106.628
15826.617
14866.451
16422.002
16860.512
16969.302
16478.088
16471.245
15745.817
15084.277
15985.468
16094.19
15768.076
16351.804
15505.879
15506.688
15126.844
16193.308
16039.302
16234.804
15541.337
15352.578
15293.055
14841.293
15577.89
15711.515
15151.321
15788.786
15246.823
14936.937
14571.157
15683.202
15542.69
15050.981
15467.184
14789.235
14973.038
14460.44
14954.409
14844.345
14425.403
14702.185
14115.956
14305.977
13655.285
14628.089
14500.673
14085.446
14477.462
13993.269
14083.405
13685.552
14069.794
13613.122
13287.494
13449.982
12851.563
13196.521
12400.194
13377.574
13026.017
12544.62
13050.8
12602.511
12802.137
12214.041
12446.546
11858.103
11844.862
11718.972
11571.409
11237.573
11144.794
11228.378
10974.242
10548.578
10815.625
10252.965
10728.912
9931.5457
10069.15
9623.4138
9441.5473
9620.8212
9387.3825
9441.7129
8854.8719
8645.5165
8163.4262
7919.316
8145.3153
7819.5644
7936.6506
7437.0749
7171.5674
6786.6039
6562.4027
6726.627
6567.2154
6849.9169
6229.4416
5723.1296
5230.6328
5035.6947
5277.6696
5207.3117
5306.9213
4783.6692
4263.0037
3834.7318
3690.6781
3947.94
3818.1739
4123.7315
3706.2075
3050.6295
2464.7507
2470.6449
2599.8922
2663.9403
2918.763
2523.6854
1918.1428
1200.5713
1358.5789
1544.8505
1659.6318
1952.0814
1678.7646
1205.787
281.91855
765.12377
738.49391
931.7217
1094.5507
1084.1794
630.12811
-425.37237
310.07173
184.1598
451.80319
691.2196
896.92305
734.1003
-743.90762
179.76253
73.041399
226.01841
343.70226
923.34076
651.44127
-662.44278
644.73728
79.455612
286.46303
446.23644
1129.9478
1454.6184
-311.89349
992.80995
778.71155
865.89739
1147.9407
2408.5529
2482.8688
963.43857
1902.5435
1808.8677
1798.7011
1882.4449
3516.5863
3599.126
1806.0168
3630.3287
3010.6793
3016.4117
3117.1985
5071.6104
5172.488
3779.6388
5130.0868
4530.2176
4601.6974
4622.2134
6851.1831
7087.9725
5511.8109
6911.0228
6552.1566
6383.2878
6384.0483
8821.6138
8887.0398
7602.6485
9006.1657
8451.2371
8242.2911
8247.4159
10906.544
10926.557
9881.4459
10928.778
10637.759
10343.186
10338.48
13185.03
13013.566
11958.342
13091.819
12749.577
12415.113
12443.09
15202.614
14811.918
14225.437
14952.894
14781.083
14459.629
14359.115
17355.594
16993.714
16011.789
16772.588
16675.12
16194.683
15877.836
17765.299
17550.01
17440.745
18071.341
17989.197
17935.747
17681.149
24691.693
19587.283
21722.746
22292.543
22668.467
21502.023
22588.159
22049.568
20350.222
20574.502
20710.569
21033.407
20900.074
20901.599
23852.353
22286.845
21770.162
21928.234
22303.978
21775.197
22081.788
24289.147
22302.359
22197.168
22300.31
22826.707
22603.7
22827.603
24978.361
23021.773
22526.026
22717.761
23240.508
22761.226
23343.962
25219.488
23758.863
23330.823
23719.475
23936.082
23933.592
24134.155
25232.632
22865.676
22619.694
22584.969
23328.253
23003.725
23439.726
24691.756
23667.578
22867.205
23925.304
23838.644
23993.683
24207.105
24619.321
24499.556
25304.879
24895.376
25331.885
25223.907
25462.748
25222.197
28831.124
28543.894
29011.029
28746.572
29017.773
28984.259
29179.782
8251.2935
6712.3241
5863.4957
5617.1554
5185.6887
5249.6191
5015.0323
8301.8246
8857.6357
8011.0477
8048.2694
7847.3371
7907.7104
7894.7155
8215.5175
8178.3261
8091.422
7679.0054
7684.5797
7050.084
7170.7821
8330.2826
8819.7927
8829.8367
8913.772
8310.2811
8209.7984
7051.5818
8714.4618
8503.9567
8995.2471
8289.6503
8627.1576
7713.4868
7925.9643
8681.0456
8797.2228
8269.0099
8468.9407
7865.9063
7925.2672
7523.5568
8867.5956
8737.942
9120.385
8549.3408
8718.6972
8337.6282
7968.2234
8999.4097
9135.5025
8584.1264
8720.7373
8435.4868
8243.3509
8200.7284
9102.3616
8992.0231
9072.7348
8748.7419
8381.4312
8541.2216
8229.2797
9117.0425
9266.9639
8994.3444
8808.0877
8928.1135
8613.1314
8711.5307
9080.1534
9196.6569
8986.0543
8946.4879
8508.2744
8629.1691
8334.0064
8784.6068
9132.3223
8868.269
8639.505
8714.8876
8541.764
8552.637
8562.1234
8890.4371
8887.0327
8844.685
8429.2135
8584.062
8036.3335
8398.981
8348.3829
8599.0849
8131.5051
8055.2573
8159.3762
7750.38
8187.12
8117.0428
8136.7556
7978.8099
7980.4774
7816.1618
7517.7786
7750.3749
7253.2666
7708.9981
7438.7891
7371.7607
7236.2763
6825.2158
7060.9337
7129.6244
7234.5098
6859.3024
6931.4078
6771.7754
6718.5834
6582.8486
6483.2855
6653.7788
6451.0808
6386.8306
6219.7261
5849.4709
5969.6071
5905.4544
6173.3154
5813.4325
5860.6721
5574.9597
5519.3137
5429.8831
5421.4559
5598.8034
5409.7447
5259.0396
5031.3318
5004.1401
4891.2485
4823.3269
5110.951
4803.7178
4736.5101
4549.0943
4520.645
4494.8063
4629.5299
4720.9184
4513.1141
4435.0422
4015.0345
4240.1248
4214.7228
4198.808
4295.4772
4172.7233
3858.425
3741.4719
4037.3425
4261.7565
4191.3759
4245.9242
3960.2565
3862.8634
3815.1072
4144.7968
4246.2492
4221.1587
4009.2195
3976.2364
3874.6531
3746.8068
4148.2538
4688.0894
4754.1487
4878.3263
4472.6256
3973.3253
4239.9549
4810.4551
5685.7428
5214.6958
4935.1338
4786.1155
5161.464
4974.9867
5719.1812
6833.0106
5691.9816
5348.7126
5550.3959
5537.4752
5936.5335
6453.1676
7466.9624
6961.8686
7048.683
6495.162
6622.9119
7134.4067
7500.5759
9281.7076
8151.2208
7784.9258
7831.3332
7938.5116
8458.6969
8950.8183
10822.075
9341.8421
9282.3776
9264.8026
9216.5851
9901.9906
10455.689
12533.354
10994.651
10797.533
10792.106
10759.496
11650.512
12192.24
14465.27
12507.737
12313.453
12326.324
12394.632
13270.057
13775.521
16160.154
14047.871
13883.59
14023.872
13955.814
14789.09
15437.234
17970.74
15547.989
15408.768
15488.454
15304.911
16351.275
17057.53
19293.581
16761.47
16807.41
16836.399
16901.25
17886.159
18569.82
21065.222
18431.431
18105.668
18252.723
17803.158
18931.44
19354.867
21747.33
18403.878
19014.264
18767.458
19045.848
19908.899
20619.35
23052.152
20152.415
20244.431
19959.822
19824.947
20758.294
21103.045
23130.07
19378.613
20330.555
19857.418
20275.596
20889.768
21509.912
23445.831
20704.23
20972.884
20662.206
20586.487
21186.894
21665.113
23429.156
19929.792
20774.554
20173.902
20535.763
21029.015
21498.762
22837.602
20344.877
20720.451
20454.633
20693.36
20953.589
21101.221
21671.653
19163.747
19619.923
19270.605
19279.562
19441.978
19815.838
21755.128
19723.049
19905.655
19603.885
19881.374
20243.542
20216.414
17641.194
15711.693
15669.57
15552.397
15585.127
15545.309
15701.892
15431.279
13760.457
13979.434
13620.977
13840.164
13731.749
14557.094
3724.1395
3034.0571
2523.3024
2350.3134
2097.2895
2086.685
1868.1774
2763.4131
3005.943
2731.4949
2613.9042
2654.7999
2279.481
2468.1505
3399.7655
2941.5772
2878.6571
2706.0786
2537.6759
2241.4459
2422.5484
2860.9742
3245.3971
3773.1351
3861.4415
3677.0425
3764.7834
2818.2813
3483.8856
3272.5073
3212.6826
2428.4654
2622.3584
1631.0299
2477.6593
3102.5294
2132.8326
2232.1797
2546.7442
2321.8209
2517.9155
2244.4279
3569.1146
2834.6853
3582.8396
3087.1433
3164.9258
2806.2794
2841.9426
3515.5623
2364.0703
2194.5427
1694.7414
1669.6201
1683.2879
1752.9183
3267.5284
2360.628
2959.6095
2784.2104
3058.5665
2870.9982
2834.4687
3776.4772
2236.9784
2446.6506
1880.7079
1859.7803
1906.8954
1963.5669
3583.5167
2116.8425
2642.595
2251.2812
2421.8643
2317.8686
2466.425
4132.6183
2103.8517
2724.0436
2095.1457
2416.9032
2236.6575
2519.8291
4125.7029
2126.0868
2218.3581
2665.5309
2563.5961
2413.2585
2982.1358
3294.4003
2760.7658
3069.4537
2434.9587
2906.353
2674.0842
3030.6282
3334.1945
2931.2424
3185.6808
2843.7945
2610.919
2784.1147
2930.8728
3487.8365
3206.2374
3296.1688
2907.7663
2948.111
2861.8632
3165.3915
3727.0604
3251.1871
3384.3561
3151.8938
2919.9077
3004.3263
3276.7034
3765.2404
3276.232
3493.5332
3181.5721
3148.3446
3149.0659
3424.4331
3921.9238
3475.6908
3612.1418
3352.7372
3282.8303
3161.4563
3617.2342
3956.2758
3486.2499
3693.7146
3488.8307
3413.3621
3398.7429
3800.7804
4208.7484
3787.5683
3996.6807
3737.3691
3733.8101
3534.4262
3950.1088
4406.1048
3795.661
4079.4759
4019.7581
3824.2823
3749.3849
4186.9399
4800.0961
4080.8632
4610.5206
4236.958
4233.8089
4119.582
4508.4438
5092.8476
4369.1318
4808.1112
4593.1849
4699.998
4302.7658
4498.781
5782.0105
4623.5682
5270.8442
5131.9033
5064.7506
4640.282
5195.1334
6322.6933
4905.9729
5897.5181
5270.2731
5535.061
5181.8073
5171.7595
7256.0249
5639.5966
6412.0536
6153.9674
6374.1184
5604.8428
6115.8697
8052.4212
6245.4354
6842.6769
6562.4819
6783.2439
5951.0788
6497.4781
9111.8582
6973.7894
7815.8941
7066.3973
7568.7901
6616.0615
7198.2038
10250.229
7595.3481
8112.0077
7829.5458
8279.2409
7080.4926
7930.5911
11329.461
8357.0746
9134.07
8673.4552
9001.4161
7982.6776
8760.9863
12598.595
9278.8741
9852.428
9203.7371
9834.0266
8635.6302
9503.2893
13723.009
10082.218
10559.693
10167.943
10673.015
9467.5181
10349.187
14812.17
10899.293
11478.831
10948.132
11489.468
10403.489
11258.045
15797.073
11821.87
12311.31
11807.213
12425.088
11396.816
11924.438
16796.304
12778.473
13182.721
12656.163
13305.631
12217.442
12619.103
17299.445
13376.87
13768.951
13524.944
14171.566
13140.26
13384.056
18074.614
14393.614
14918.481
14405
15098.734
14040.904
13902.464
17947.579
15186.571
15047.134
15244.334
15577.962
14876.217
14376.802
18501.652
15396.476
15810.244
15714.419
16283.026
15502.347
14651.79
18511.797
16757.383
16438.637
16848.602
16827.611
16224.318
14913.306
18211.097
15704.267
16019.627
16258.438
16502.596
16443.817
15141.328
18166.662
17037.142
16983.017
17361.675
17269.604
17053.868
14861.744
17703.802
16162.966
16034.554
16426.832
16263.469
16350.864
15087.65
17544.726
16303.334
16225.916
16745.848
16372.922
17113.651
14896.21
15324.098
14319.155
14383.336
14893.714
14576.061
14997.659
13741.237
5476.2214
4426.3964
4476.5465
4608.7443
4795.1162
5045.1305
5140.5006
1524.8739
1346.1098
1063.9879
1088.0076
913.16389
892.28969
422.75808
615.04176
1508.3553
1580.3478
1872.1807
1754.6321
1694.0796
1572.6761
541.30455
273.33416
-48.660532
12.506304
-70.399795
-92.695542
-222.98657
510.77497
1950.1692
2637.0421
3179.2291
2954.9941
2835.1538
1933.2721
155.03889
16.32498
-716.0712
-1066.4498
-1251.7005
-1378.0184
-530.4102
156.1716
1033.2609
1044.308
1861.7879
1843.4832
2041.2261
1254.2237
211.95057
-192.43256
-575.78828
-427.38998
-557.14169
-1175.6794
-74.304399
813.65833
588.98049
174.37824
792.17556
211.27761
982.37458
582.34979
976.22814
444.99808
656.20983
-40.106436
965.67744
75.319484
860.56375
1198.9426
1125.5051
-48.598308
640.44166
134.34797
433.59131
645.34938
1823.5183
774.71618
1701.2432
975.4295
1815.566
1386.051
1553.876
1854.0829
1973.821
1248.7084
661.44873
1457.4111
928.97234
1694.0622
2519.4759
1539.2488
1489.9815
1943.4576
2607.6032
1897.6093
2435.6309
2414.3885
2639.7307
812.64895
1681.4607
2098.0306
2009.1049
2550.2899
1606.302
2206.6834
2772.7261
2114.2382
2927.411
2263.3975
2928.0329
2066.1045
2666.6477
3023.417
2731.3169
2981.0384
2881.9219
3315.8648
2480.7053
2807.7328
3618.52
3089.7014
3597.686
3295.2502
3801.2086
3042.0962
3445.2797
4069.9844
3594.273
3903.98
3792.9471
4123.2538
3411.3494
3524.6999
4461.3416
3872.3988
4333.7568
4167.7518
4440.1577
4004.5487
3964.9987
4795.7689
4307.1996
4674.1611
4459.6867
4782.3291
4373.8987
3933.9578
5050.7158
4508.3432
4746.5126
4714.3156
4865.0122
4691.8419
4236.6014
5316.2671
4550.1227
5007.0324
4914.1413
5041.7284
4883.9801
4276.6702
5219.5642
4749.8453
5016.8609
4954.8123
4751.0275
5376.4895
4317.2219
5285.9802
4793.3963
4975.6149
4999.2354
4965.0921
5496.4164
4304.667
5328.1296
4657.4226
4694.7797
5087.6955
4576.8888
5629.7211
4516.38
5209.3799
4724.9451
4889.6554
5056.7917
4754.9632
5562.7473
4314.3869
5074.5444
4586.6759
4679.4451
4953.7045
4373.4831
5874.7353
3942.3844
5129.2011
4452.7608
4575.5545
5052.3713
4248.0171
6044.6252
3967.3007
4884.4741
4589.6318
4311.9913
5065.1329
3941.7697
6102.1364
3864.9127
4733.0722
4493.7578
4361.6814
5176.7207
3650.4095
6350.0222
3934.9874
4766.6009
4627.4727
4224.8634
5129.5753
3404.9047
6622.2931
3949.3092
4652.1665
4560.0952
4076.9201
5247.2881
3122.5381
6847.4907
3903.8038
4639.7611
4655.0114
4213.1609
5383.1609
3038.3489
7249.0925
4071.8122
4755.322
4745.7552
4203.8024
5348.456
2794.3678
7567.8165
4226.8781
4732.144
4759.6791
4211.222
5395.9445
2699.2249
7864.4858
4196.8695
4670.0186
4793.883
4375.556
5275.8851
2809.1645
8469.5964
4592.7238
4959.2675
5090.2691
4276.2115
5510.8041
2694.4505
8236.0563
4573.4757