/*--------------------------------*- C++ -*----------------------------------*\
  =========                 |
  \\      /  F ield         | OpenFOAM: The Open Source CFD Toolbox
   \\    /   O peration     | Website:  https://openfoam.org
    \\  /    A nd           | Version:  6
     \\/     M anipulation  |
\*---------------------------------------------------------------------------*/
FoamFile
{
    version     2.0;
    format      ascii;
    class       pointScalarField;
    location    "1.32";
    object      p;
}
// * * * * * * * * * * * * * * * * * * * * * * * * * * * * * * * * * * * * * //

dimensions      [1 -1 -2 0 0 0 0];

internalField   nonuniform List<scalar> 
3969
(
883724.1
-1115127.9
7205.9407
3313.4782
1550569.4
-2488054.8
4731.7494
2930.8445
669784.53
498527.03
274717.51
49976.952
-135841.79
-392680.25
-453255.48
-12302.591
-3127.5005
-2476.8724
2131.068
6396.8295
9924.6823
10051.318
269186.86
312407.26
299696.93
314716.31
306981.91
306032.94
295829.15
288965.24
278799.15
266967.21
257856.17
247731.89
235757.69
227049.1
216163.98
204691.65
195991.08
184583.49
175776.01
164674.08
155958.46
146077.92
137399.15
128836.2
120425.61
112590.2
104914.57
98331.062
92862.253
86349.08
81547.949
76698.061
72002.423
67840.405
63955.587
60205.912
56190.115
53190.508
48218.586
45475.111
39917.979
36245.64
32159.567
26116.147
23609.998
18758.73
13393.356
-262174.59
-220069.51
-268297.55
-235271.68
-264962.32
-240447.88
-249317.31
-233381.82
-231929.33
-221503.2
-215184.09
-209051.13
-196308.95
-192346.58
-181282.04
-173435.15
-164461.23
-154363.79
-146333.66
-136971.45
-127250.27
-120309.2
-110349.78
-103656.37
-95058.819
-88194.439
-80165.627
-74057.984
-68340.686
-62709.627
-59031.645
-54070.612
-50785.411
-46860.548
-44096.737
-40712.27
-38302.366
-34945.046
-32780.656
-29462.679
-26286.209
-23306.648
-20273.894
-16534.584
-12717.537
-9968.8589
-5334.3604
1145365.3
856619.37
373376.7
-57973.898
-408693.22
-867202.32
-716519.85
-327909.65
-375985.84
-236372.76
-327884.18
-289090.5
-289750.84
-283164
-270293.4
-265400.16
-235888.52
-255857.05
-227499.52
-229827.24
-216236.91
-205541.87
-198836.42
-183911.32
-176226.7
-163949.67
-153280.27
-144232.24
-134812.42
-125620.18
-117280.75
-109766.64
-103401.45
-96120.734
-87688.247
-81660.545
-75607.633
-69356.643
-64455.495
-59841.263
-54908.016
-51383.722
-48030.439
-42098.575
-40013.61
-36885.487
-33426.623
-29743.398
-26519.418
-22021.646
-18144.295
-14233.326
-9984.6799
-5927.1311
14806.74
9318.3634
5966.648
5732.7772
-3633.1551
-3570.5983
-12457.697
24466.16
21034.452
23003.022
28141.803
32788.655
37007.084
41743.863
45254.35
49795.921
52754.292
55658.383
62914.672
64827.902
69164.025
73771.186
78562.573
83302.987
89034.447
94484.234
100913.64
108433.1
115192.16
123340.1
131635.73
141044.84
150506
160416.52
169254.82
180662.59
189761.56
200882.79
210214.44
217184.17
229567.41
244581
247165.13
260758.39
264193.59
274245.05
288137.28
302601
293174.13
311581.84
298054.28
292284.84
305527.94
308860.6
726607.32
784504.83
823192.08
803666
795587.8
792924.87
629946.33
-875927.01
-1138695.9
-1331098.7
-1433999.1
-1379810.9
-1386442.6
-1064886.6
4887.2927
5301.3752
6091.1504
6871.3276
6700.1189
5263.8279
5372.9169
-913.84238
1481.5168
316.22044
-80.53919
511.98711
4535.4306
323.11394
242686.83
243909
241856.05
245013.36
243805.29
242006.48
235845.71
233244.77
222065.96
219695.7
210126.52
199683.71
195665.39
185597.73
178435.05
170158.07
162595.95
153819.66
145493.96
137451.96
129743.91
121567.7
114267.83
107193.03
100940.66
93767.499
87618.601
82539.933
76634.17
71743.155
67331.649
62689.125
58838.634
55131.543
51583.877
48167.129
44371.286
41690.404
38086.931
35306.97
31378.041
28968.845
23960.717
21034.938
17729.794
11239.436
5967.3645
162842.11
162015.37
155688.2
164172.68
164864.89
167944.1
162453.59
159815.08
154783.77
152676.37
145174.29
141735.74
134433.79
128129.89
123622.38
116927.17
111999.68
105184.65
100145.49
94040.328
88207.401
82342.681
76869.592
71886.417
66715.462
62641.342
58781.163
54155.595
51258.781
47706.736
44862.904
41998.093
39537.62
37137.888
34930.559
32733.856
30756.534
29276.183
26257.891
25113.494
22044.946
20352.861
17009.399
16021.52
12209.648
8039.5228
2473.1208
79655.227
90505.438
79173.152
86739.236
85504.896
86920.121
85105.439
84860.972
81995.42
79845.488
78505.161
74825.987
72422.739
67873.976
64969.641
62049.816
59694.056
56508.185
54602.618
51422.319
49651.177
46960.32
44802.905
42039.848
39857.268
37350.014
35065.608
33482.053
31591.133
29652.366
28132.942
26286.319
24837.145
23179.984
22053.917
20361.252
19292.391
17706.668
16577.699
15570.471
13547.957
13264.66
10674.227
10117.599
7455.0586
4620.6627
3282.7334
10022.711
14762.641
5311.4162
13341.259
6942.0813
9218.532
4380.8511
6159.9788
3473.3332
8914.0224
4159.9779
7052.4945
5867.8536
6393.0096
7345.0885
7031.9171
7594.5858
7690.0862
8136.7607
7617.9491
8038.3623
7702.6545
6631.5287
6547.1843
7202.4106
7135.6779
7335.0567
7341.8058
7189.2402
7134.7991
7127.3202
6770.5277
6589.5832
6340.3148
6070.1717
6012.7787
5402.2861
5305.7804
5287.4516
4985.7445
5008.6973
4821.1608
3678.6378
4907.3868
3907.0969
4936.4653
5085.763
-70568.088
-57410.381
-66071.549
-66834.929
-72851.326
-71213.491
-72475.026
-68710.291
-69177.722
-61733.444
-64535.352
-55802.041
-57875.428
-50697.647
-50144.844
-45250.053
-42831.662
-39502.644
-36176.676
-33890.038
-29005.799
-24481.387
-21667.441
-17213.806
-16174.505
-15600.214
-12982.852
-11376.156
-10035.612
-9005.0476
-7686.1476
-7399.0672
-6130.5915
-6109.1052
-5086.428
-4878.9145
-4762.5571
-3730.5066
-4630.3225
-3887.1988
-3724.0382
-3462.4444
-2314.2892
-1399.0124
-649.59971
1122.4692
3544.3393
-143313
-130810.3
-138394.62
-146022.91
-147989.07
-145725.93
-145310.69
-138448.09
-138930.62
-129719.43
-129899.54
-121286.1
-118420.74
-113080.46
-107942.22
-101037.16
-96021.351
-89475.765
-83771.461
-78460.058
-71465.317
-66821.075
-58262.926
-52582.737
-47176.182
-43042.227
-39186.759
-35767.222
-32548.68
-29554.49
-27534.225
-24981.588
-23176.093
-21360.697
-19818.271
-18323.153
-16882.898
-15940.521
-14761.503
-14440.416
-13209.101
-11826.7
-9553.193
-7783.5416
-5028.8931
-1297.1108
4892.6554
-248001.93
-177331.22
-214423.68
-209423.24
-218725.16
-210358.8
-211948.15
-201657.58
-203857.29
-188090.88
-189020.13
-179470.67
-171786.7
-163369.05
-154628.74
-146638.58
-137104.11
-129593.68
-121432.33
-113190.2
-106373.66
-98240.19
-91162.202
-84359.159
-78047.423
-72425.057
-67564.363
-61772.956
-56680.279
-52179.445
-48294.018
-44423.858
-41030.757
-38094.821
-35146.218
-32683.217
-30512.673
-27901.324
-26298.941
-23468.064
-20922
-18231.581
-15261.874
-13080.805
-9524.2486
-5857.7136
479.63053
550992.73
500711.06
520700.71
516062.61
519403.32
499627.17
462255.3
358632.73
398378.97
370370.98
376706.96
373582.01
357742.33
344420.36
195139.75
224038.84
189255.71
196606
184437.3
176074.61
187452.85
61586.688
42159.33
20716.827
35765.069
17515.615
-13502.833
53459.272
-70480.564
-78408.821
-92521.719
-85440.658
-96093.737
-102435.52
-59721.575
-304350.65
-318705.62
-327862.85
-340105.23
-355820.8
-349044
-333205.28
-389955.18
-356606.08
-308741.2
-318078.86
-305653.08
-283650.8
-329067.52
-416981.23
-439531.63
-502337.91
-525793.96
-539291.95
-533490.84
-416743.71
-322829.37
-373605.29
-378105.27
-390255
-407590.21
-394619.25
-361607.08
-278431.78
-319431.31
-337089.21
-341123.76
-341559.13
-321565.6
-336457.2
-274385.18
-298391.28
-294534.96
-315055.6
-304427.84
-304385.81
-289235.41
-275073.7
-293812.04
-306839.03
-309661.16
-310019.37
-299554.34
-302225.87
-267399.66
-263986.13
-270601.56
-279086.28
-281129.04
-275404.49
-275225.52
-255083.38
-264609.04
-269724.68
-276948.32
-275072.72
-277619.12
-278190.61
-251671.11
-250400.76
-251554.21
-257251.33
-256992.52
-259013.6
-258162.48
-240949.28
-244455.86
-245997.34
-251830.07
-253189.38
-257102.68
-258729.33
-235725.18
-234251.56
-234501.32
-237987.13
-238130.69
-236173.97
-240042.67
-225830.9
-228176.83
-225712.94
-230717.8
-230424.82
-232806.01
-236729.09
-215415.83
-216994.95
-216419.1
-221307.77
-220559.73
-217216.73
-224925.23
-211258.26
-205129.36
-210090.13
-209001.02
-212333.57
-211028.27
-218222.74
-196789.06
-196833.88
-201312.01
-200659.64
-204004.65
-199924.16
-205924.02
-191038.96
-187590.65
-192190.17
-189668.18
-192974.75
-190461.32
-197041.59
-179541.09
-177176.69
-182047.19
-180602.03
-185141.6
-182372.81
-188291.93
-169823.12
-168631.29
-172589.97
-171141.15
-174949.07
-171916.78
-176659.11
-159961.58
-159014.91
-163259.78
-161205.79
-166107.81
-162596.66
-167919.11
-150150.9
-149915.3
-153799.12
-151591.47
-156085.88
-152786.03
-157871.92
-140420.2
-140535.21
-144374.84
-142090.69
-147020.67
-143877.78
-148588.2
-131679.6
-131035.03
-135088.83
-132410.33
-137310.28
-134295.47
-138748.25
-122419.88
-122384.24
-125763.02
-123830.96
-128364.46
-125610.12
-130163.17
-114232.73
-112982.64
-117449.86
-114908.35
-118899.89
-116984.85
-120918.29
-105256.35
-105660.87
-108731.72
-106081.72
-110669.6
-108934.02
-112905.12
-97598.12
-97948.021
-99571.194
-98751.949
-102238.83
-101179.52
-104814.86
-89348.29
-90816.371
-90891.377
-91699.392
-94263.353
-94948.355
-97905.331
-84458.836
-83455.969
-84741.337
-84828.177
-86171.939
-87435.97
-89510.109
-78128.395
-77034.761
-77932.59
-78480.433
-79700.549
-80987.389
-81788.446
-72133.264
-71101.063
-72167.683
-71923.971
-72723.772
-74858.92
-75081.633
-66979.322
-65756.252
-66805.572
-66411.788
-67684.881
-69441.618
-69474.535
-61702.668
-61387.016
-61634.533
-61502.656
-62145.315
-63840.45
-63795.262
-57679.575
-56782.27
-57212.035
-56871.755
-57538.693
-59161.996
-59217.204
-53277.223
-53101.852
-53035.707
-52867.9
-53326.554
-54927.569
-55039.707
-49924.831
-49560.388
-49524.451
-49290.626
-49685.659
-51063.318
-50848.958
-46347.428
-46378.871
-45976.256
-45773.28
-45993.56
-47396.577
-47197.019
-43359.435
-43457.604
-42917.789
-43048.521
-43085.32
-43537.082
-44034.528
-40584.495
-40136.172
-40313.751
-39386.359
-40057.381
-41499.513
-40636.051
-37999.716
-38328.934
-37330.519
-37747.465
-37208.792
-37709.691
-37830.233
-34805.836
-35152.707
-34210.484
-34553.271
-34145.081
-34696.606
-34537.764
-32086.191
-32014.609
-31933.941
-31609.957
-31363.877
-31967.055
-31613.65
-28721.116
-29157.642
-28657.401
-28489.718
-28340.838
-28565.047
-28117.147
-25657.405
-26093.419
-25621.566
-25770.115
-25297.2
-25506.682
-25070.107
-21926.404
-22750.668
-22305.832
-22625.521
-21782.34
-21995.639
-21380.214
-18450.804
-18842.192
-18795.935
-18705.104
-18106.115
-18258.209
-17312.489
-15282.531
-16499.335
-16135.501
-16382.583
-15678.979
-15165.931
-14129.886
-13044.242
-13212.38
-13474.618
-13386.821
-12633.985
-12742.801
-11487.422
-9614.7593
-10131.19
-10499.399
-9509.2308
-10530.654
-9637.8979
-8002.2364
-19276.59
-22191.619
-24961.385
-25029.476
-23865.788
-22658.787
-19865.389
-9023.0325
-9738.7994
-10233.949
-10905.343
-10199.667
-8628.6455
-6847.2572
-6332.2527
-7625.4791
-8562.8248
-8411.8042
-7933.7187
-6061.5552
-4997.739
2992.5566
3603.3289
3523.7554
3603.781
4393.7598
3742.2743
4901.1896
8451.1198
8596.2301
8528.0628
9584.1377
8594.0777
8484.246
8131.9634
13224.721
16126.16
16821.831
17086.052
18275.7
15432.977
14771.526
17035.798
17808.239
19225.866
19366.294
18585.835
17546.279
15850.563
334893.08
335114.35
371402.93
360922.29
368905.93
346492.86
336549.9
349029.18
357612.9
370941.68
367978.66
368390.13
344799.98
334866.12
334431.09
338351.62
345834.84
345093.24
344055.37
326434.52
319810.85
318106.73
329601.18
333049.57
336089.94
331650.81
319949.85
317023.34
317895.76
319616.24
321491.46
322936.39
319751.7
314395.76
304626.21
302533.23
305243.74
308330.63
303927.76
304105.69
293752.16
292245.1
300088.19
299407.34
299994.52
298399.1
302098.25
293187.72
296957.39
284386.4
282704.09
287059.78
276519.24
281984.9
276497.83
275854.37
278881.63
280752.32
280025.91
275737.33
280416.11
273310.03
277244.8
268978.3
265103.18
264745.38
260653.67
264995.41
258245.76
262111.28
259491.09
256246.31
261404.3
254154.93
259571.05
252496.08
256781.76
246576.37
247816.33
246868.31
241572.08
245961.81
240723.02
245033.04
240913.04
235894.04
237901.1
232943.78
236778.69
231470.91
230808.05
228384.34
226783.22
226012.56
224179.56
225881.27
223084.44
227140.6
218654.74
216994.71
214807.09
214428.06
214894.54
212331.86
214599.02
210599.98
205558.65
205886.5
203203.14
205911.39
202518.09
203611.01
199005.92
196032.09
195251.2
194288.4
194692.29
192284.69
193366.33
188871.09
185009.04
185360.22
183432.55
184193.15
182313.78
182680.87
178498.65
175848.7
175548.43
173380.09
174429.92
172616.28
173435.44
168743.16
165094.59
165104.3
163270.43
164184.31
162361.3
162891.98
159526.97
155448.85
155948.26
153760.54
154701.56
153133.56
153672.09
149723.07
145697.1
146507.94
144343.7
145028.4
143205.72
144052.04
141099.61
136881.19
138022.45
135425.49
135959.69
134522.13
135688.18
132318.11
128118.45
129113.97
126457.55
126968.92
125485.15
126887.28
124259.49
119240.36
121126.39
118012.42
118668.53
117409.48
119069.15
116368.11
111200.96
113319.19
110094.89
110635.86
109786.73
111069.05
108545.25
104454.64
105828.58
103131.33
103254.32
102602.99
104159.87
102405.69
97582.014
98598.811
96421.905
96469.139
95997.617
97711.489
94902.191
90653.889
92878.13
90097.132
89951.569
89811.781
91260.521
89057.825
85945.48
86552.158
84484.52
84360.629
84484.173
85693.602
83725.589
80209.679
81351.905
79547.725
79146.287
79200.784
80501.099
78068.614
75638.318
76255.411
74751.798
74079.559
74510.841
75685.193
73509.551
71362.399
71890.079
70462.139
69825.479
70321.379
71485.103
69094.443
67296.798
67504.535
66651.538
65886.919
66397.749
67305.434
64731.689
63275.035
63677.644
62759.49
61763.79
62676.661
63200.905
60826.357
60060.117
60117.216
59346.889
58669.17
59594.286
59781.574
57033.033
56562.584
55935.952
56177.766
54693.032
54696.819
56104.763
52701.561
53350.922
52576.727
52391.137
51781.925
51594.334
52902.806
48853.951
48774.148
48469.246
48508.235
48039.537
47578.2
48993.844
45496.236
46117.864
45522.645
45745.708
44524.38
44052.85
45217.087
40434.368
40625.2
40417.052
40685.327
39880.707
40242.435
40767.57
37151.996
37800.34
37498.445
37671.407
36848.404
36223.487
36734.389
32404.481
33059.183
32776.913
33264.885
32074.982
31691.652
31668.017
27107.812
27875.194
27837.703
28171.252
27388.025
26756.707
27384.592
24585.276
26801.872
27188.53
27666.118
26649.411
25293.295
23983.856
20996.187
21879.408
21759.394
21821.282
21760.724
21776.359
19946.627
23689.328
26481.293
27798.256
28478.819
28312.073
28370.258
26327.922
320961.19
245412.38
245520.73
239363.75
249688.9
252415.25
240245.88
241237.47
234682.93
229928.99
221430.1
213899.95
205734.08
195757.95
187938.5
179916.27
170206.35
161973.76
152698.63
144072.06
135355.58
126484.19
118272.69
110549.59
102921.65
95857.979
88654.402
82737.169
77046.347
71759.375
66750.062
62351.092
58017.724
54184.037
51071.76
46721.446
43755.732
41055.345
37326.032
34472.528
31461.076
28050.686
25025.416
21092.403
17178.553
11881.447
4017.8595
193653.76
186269.16
142509.75
161590.78
185978.08
171913.07
181736.98
169851.97
173432.99
163588.52
161085.77
155756.05
146596.73
144093.09
137659.86
131663.46
125452.44
117265.82
112327.1
104692.47
98517.845
91962.221
86049.218
79699.916
74072.044
67762.741
64295.4
59076.684
55258.763
51608.632
48131.807
45245.36
42259.278
40171.46
37139.948
35587.887
33062.049
31033.603
28999.926
27247.967
24827.411
22614.063
20150.618
17167.03
14230.101
10370.755
3947.6901
87060.523
103097.35
61342.156
93844.127
84214.682
77358.949
83447.727
79081.594
79869.3
74398.29
80056.788
74500.046
78875.28
74352.153
73328.664
72029.471
68157.979
65686.662
62920.464
58515.718
55442.083
52046.865
48528.447
45396.136
42384.261
39536.792
36898.493
33614.763
31374.92
29166.597
27125.966
25426.521
23774.496
22213.417
20588.513
19511.415
17990.402
17019.264
15521.065
14728.979
13426.49
12213.876
10855.203
9357.0739
7739.8918
6187.8915
137.8806
-15410.491
16321.03
-6128.6196
11333.893
1099.5633
7827.7721
8581.984
636.66554
6781.4789
8555.173
7011.3411
10656.788
9378.8343
13153.774
14803.8
14255.011
14896.369
14902.449
14779.886
14094.661
14440.633
13977.38
13693.895
13405.397
12687.191
12098.634
11627.012
11494.629
10962.311
10667.637
10281.806
10550.258
10035.409
10082.749
9674.0484
9766.0615
9167.738
9124.224
8535.3427
8497.3228
8019.4843
7672.5193
7249.676
6451.5011
6452.2186
4784.8435
2305.7251
-139911.36
-68856.062
-78936.407
-58713.269
-69626.34
-58492.948
-67026.036
-62804.428
-54509.466
-58747.129
-48387.872
-52696.509
-45171.409
-46315.278
-41796.281
-39922.616
-36938.077
-34613.08
-32041.202
-29680.489
-27059.292
-25024.437
-22790.921
-20891.384
-18484.037
-16873.845
-14760.103
-12955.994
-11861.885
-10647.792
-9553.7866
-8505.585
-7657.6498
-6575.0075
-6025.9999
-5135.61
-4858.3318
-3875.8044
-3828.0776
-2864.3902
-2641.8018
-1708.1222
-1459.2336
-456.72882
408.91731
1616.6478
2810.6208
-210528.97
-158036.32
-138190.91
-139161
-145624.17
-141000.39
-144843.63
-129781.06
-139926.83
-131628.73
-131109.03
-126112.46
-118003.53
-115981.77
-107521.53
-103071.8
-95334.004
-89063.757
-82566.497
-76792.254
-71562.886
-66143.375
-61043.553
-54861.359
-49646.463
-44683.94
-41262.258
-37574.755
-34235.551
-30947.07
-28544.785
-25670.073
-23444.743
-21219.076
-19284.436
-17553.122
-15752.258
-14333.582
-12841.638
-11357.681
-10041.483
-8395.1139
-6850.2985
-4935.0244
-2905.1258
369.61353
3421.289
-267982.41
-214267.14
-220056.07
-217428.61
-231492.72
-224905.95
-222016.86
-215618.35
-212620.04
-201435.73
-195619.42
-187744.63
-178363.58
-170201.7
-161014.92
-153251.48
-146272.05
-137493.24
-131336.89
-122874.01
-115498.03
-107719.07
-100851.71
-93163.555
-86986.808
-76766.039
-72428.999
-67261.667
-62583.777
-58358.091
-54360.109
-50087.441
-46790.905
-43477.612
-39966.343
-37268.589
-34902.691
-31522.443
-29343.308
-26545.389
-24154.863
-20821.008
-18487.172
-14891.616
-10753.786
-6983.7242
-1636.6918
419454.56
453105.47
437924.52
452591.11
442710.35
414307.77
383528.4
290989.74
329874.62
325436.08
330064.74
321209.17
307181.03
277384.28
276582.22
299950.84
307338.96
309044.86
301191.2
294995.47
275911.45
266027.34
268991.68
273511.77
279549.49
266418.32
265051.77
244647.46
256403.9
260861.86
268735.12
262480.07
257483.72
255488.6
233608.61
251263.14
258990.56
249828.73
257929.94
250994.84
244894.4
245955.3
246950.65
243361.4
243108.2
244875.84
232104.6
240311.45
232524.47
236731.32
247065.31
237856.01
240118.54
238180.41
233427.05
230221.65
235882.06
232605.31
221238.13
232810.06
221569.67
224615.7
221057.97
225336.88
224109.68
224993.33
226716.11
218266.81
221240.27
219288.1
215941.6
221043.99
210955.65
215222.65
208246.71
212654.63
208418.11
213823.77
209258.65
205741.52
208081.07
205264.55
203139.56
203083.38
202864.63
202656.03
197520.59
203006.49
194786.09
198675.34
197735.49
194664.49
191565.84
192080.82
191670.15
187042.35
188643.91
186811.78
187437.27
185374.52
183026.92
183233.69
180049.26
182052.69
180042.64
177679.02
175436.8
175711.2
175107.97
171778.72
170947.91
171606.58
167926.05
167657.97
165662.27
166897.97
162602.54
163742.81
163515.85
160228.26
158986.32
158685.08
157324.47
154696.59
155029.98
155051.19
150367.86
150897.27
148133.26
149157.12
145957.24
146086.77
145408.97
142884.55
142006.35
140648.41
140749.27
137763.19
137755.31
137748.77
132252.33
134135.29
131512.23
132141.44
129076.61
129194.96
128550.01
124833.69
126552.23
123435.61
123796.97
121177.76
121064.99
121159
115864.18
118393.53
114542.76
115518.58
112886.48
113695.45
112315.16
108069.54
110872.84
106907.24
107864.5
105965.55
105909.19
104712.85
99634.902
104055.79
99396.592
101012.75
98475.183
99351.519
97443.501
93764.628
97501.846
93326.587
93422.397
93034.337
92049.473
90995.635
87975.626
90336.659
86220.174
87354.141
86551.67
85756.031
84586.022
81105.803
83322.306
82091.657
81225.259
80475.857
80434.201
78286.285
75604.082
80039.743
74933.069
75727.904
75662.694
75085.242
73108.137
71630.258
72961.674
70821.172
71163.083
70725.241
70068.053
68065.098
66190.709
68625.078
66031.855
66076.886
65937.507
65456.588
63564.732
62355.187
63988.913
62087.921
61989.853
62060.74
61653.746
59413.244
58518.189
59683.763
58036.526
57895.062
58240.878
57593.376
55549.85
54688.23
55585.071
54445.455
54232.912
54375.613
53988.144
51707.812
51318.166
51802.471
51246.938
50686.691
51322.307
50628.397
48744.216
47996.906
48451.341
47817.513
47361.1
47858.014
47851.427
45139.451
45538.759
44468.763
44982.654
43724.264
44953.817
43809.248
42719.919
41772.727
41228.784
41606.414
41059.677
41220.929
41456.538
39888.031
39037.454
38040.526
38715.41
38059.355
38488.227
38599.634
36610.318
35270.889
35004.309
35521.631
34995.003
35196.245
35269.765
33864.564
32833.481
31638.619
32771.387
31442.281
32145.431
32095.335
30677.751
28873.931
28834.17
29623.324
28910.289
29630.628
28970.845
27752.937
25421.748
24155.554
25374.62
24356.769
24797.254
24862.141
24283.617
22216.849
21980.215
23508.152
22300.681
23332.688
22947.473
21552.075
17445.571
16968.854
17562.986
16984.233
17488.64
17418.491
16891.934
11487.532
10976.931
12544.368
11196.7
12051.174
12035.855
10825.563
5079.367
2799.4283
2753.4287
2439.012
3173.8899
2299.9894
4816.622
285002.74
294318.48
315603.44
307072.36
309626.17
278577.3
272071.48
215870.55
255042.7
258130.53
262344.17
257109.31
235962.42
221064.59
209995.08
195083.43
216396.4
208159.15
212290.02
189443.39
185907.72
179850.76
186114.32
193103.3
188261.34
187606.51
179441.5
162529.21
185760.27
184658.38
190475.32
183452.18
189448.56
177668.75
173662.09
175770.31
173101.47
173861.87
169813.28
166366.21
168864
163588.48
173538.55
173726.77
180036.92
170160.73
174943.03
173061.04
165584.46
169411.12
165035.38
163650.62
159339.64
163754.78
157332.79
160000.07
165704.77
159187.74
166778.39
160704.55
159144.2
159904.95
159732.99
156299.46
156807.18
159095.13
148865.41
153937.83
152731.64
153644.53
154756.63
151985.05
151147.09
146689.44
150128.62
148316.13
148043.52
149459.64
142977.63
149068.43
141784.57
146042.14
141878.98
146746.88
141648.48
139072.02
144188.84
133917.68
139180.51
135456.48
138123.3
137215.87
134630.41
136346.71
129181.77
134072.73
131923.16
130223.35
130828.93
129531.58
129706.88
124131.37
128121.34
124713.11
124536.8
124810.33
122485.95
122685.36
119111.69
120183.09
119983.69
117650.5
118994.95
117754.47
118021.15
112998.32
114886.37
114953.7
113909.8
112156.98
111114.05
109985.07
107282.52
108236.24
108319.3
105885.3
107275.33
105070.68
104942.05
101859.56
102446.14
102609.04
100929.15
99979.657
98502.908
98430.94
95755.449
95937.507
96109.557
94518.713
95184.131
93163.123
92824.94
90179.081
90082.944
90623.427
89129.054
89571.081
86871.807
86472.062
84420.267
84218.425
84805.936
82731.669
84605.328
81210.579
81199.9
79453.962
79168.964
78957.204
77537.112
79507.554
75853.886
76158.802
74483.066
73723.699
73365.792
72466.851
74665.757
71053.55
71152.449
69537.897
68963.6
68312.559
67749.44
69975.608
66507.362
65592.91
65583.948
63438.517
62976.77
63256.607
64769.694
61747.226
61288.018
60909.403
59360.884
58686.618
58508.848
61378.674
58276.808
57115.611
56369.146
55598.004
54362.285
54761.253
57203.487
53608.479
53716.712
52815.349
52011.947
50378.195
50810.812
53373.418
50330.903
49791.843
49452.079
47824.396
47072.918
47233.095
49868.606
47365.779
46832.599
46235.588
44951.516
44196.685
44213.802
46700.817
44517.894
43442.987
43577.585
41970.289
41452.139
41131.314
43737.343
41715.359
40840.361
40815.838
39348.466
38620.693
38399.35
40775.919
39367.907
38247.111
38660.39
36858.267
36522.387
36133.527
38199.461
37172.943
36056.583
36107.051
34912.342
34289.826
34158.522
35650.783
34975.726
33498.217
34306.698
32549.395
32332.45
31343.002
33098.174
32864.734
31815.937
31926.73
31104.494
30005.041
29955.874
30602.237
31211.104
29463.998
30269.091
28735.876
28578.773
27922.47
28405.67
28523.201
27715.383
27913.922
27102.893
26822.925
25770.192
26162.845
27247.319
25655.346
26200.352
25013.456
24779.952
23619.334
23987.24
24315.632
23539.871
23882.704
23291.464
22987.56
21759.08
21272.892
22581.903
21150.088
21937.764
20953.55
20698.193
19690.476
19178.864
19438.73
18904.071
19209.221
18448.49
18443.061
17322.835
16653.605
17764.055
16835.878
17189.504
16854.755
16520.157
15205.17
12105.383
13261.379
12384.775
12939.043
12312.599
12073.15
10831.689
8763.8927
9458.205
8420.2648
8794.5659
8755.6604
8873.8859
7588.7384
3186.742
980.9236
-425.39322
-6.1533979
312.51518
411.51799
1502.4142
174897.05
176139.31
162159.23
173861.28
158504.34
143467.28
135023.12
121395.97
162648.9
153778.54
159707.39
138136.62
141814.52
114145.68
116151.94
109404.38
113738.49
111918.64
105022.67
95152.339
86156.806
96601.89
108331.2
111407.05
114561.11
99950.051
103960.96
85437.907
104028.25
95349.967
99104.428
91373.452
88517.424
85100.537
77767.402
92446.425
98720.372
91097.745
90679.24
90427.459
84149.741
82152.659
97408.707
95407.537
84351.133
88140.928
85443.384
81294.576
80906.597
91756.851
94704.666
83261.141
86379.139
81727.847
78017.126
80467.926
91929.365
94719.446
81379.85
84454.833
80958.901
80702.34
79705.137
90894.469
90595.157
77392.655
79449.541
80246.561
75677.817
77889.186
87177.476
89467.541
74845.455
82024.122
77521.33
77257.427
75384.994
82169.874
84741.747
72985.236
76351.249
75281.683
71393.695
75067.261
78794.72
85629.711
69105.714
76007.601
71651.554
72575.009
71560.811
76574.749
78423.869
69761.669
72343.061
73109.563
66155.149
73143.658
72908.115
74893.362
65288.901
71002.08
68020.676
64926.888
68992.49
70062.323
70478.214
65816.803
65872.9
66511.614
62284.813
67515.447
64744.953
68501.034
61049.005
64097.183
62950.573
60151.04
62559.886
63633.806
63760.505
59427.315
60769.38
60332.998
57137.965
59403.188
58232.53
61385.57
56065.354
58245.949
56647.906
54434.76
55713.108
56416.839
58193.253
53613.186
54794.122
53725.958
51706.066
53063.426
52295.604
55063.375
50154.838
51830.963
50338.396
49210.735
48735.098
49608.913
51691.518
47687.983
48837.751
47843.151
45851.672
45989.698
46426.448
48675.814
44645.979
46273.174
43821.112
43280.462
42709.855
43700.902
45390.133
42163.738
42842.52
40714.395
40897.046
39502.187
41069.124
42327.862
39237.215
39883.66
37704.777
38333.687
36447.682
38872.461
38686.418
37151.082
37067.184
35039.78
36046.44
33672.554
36501.855
36819.227
34645.162
35279.612
31936.444
34206.346
30824.93
34408.21
35010.687
32216.849
32505.69
30333.603
31440.07
29238.558
31993.987
32090.176
29815.56
30293.896
28087.06
29244.976
27283.414
30535.293
29993.729
28530.958
28273.28
26367.92
27526.135
25473.519
28601.054
28047.162
26379.588
26412.325
24502.565
25886.797
23813.006
27065.033
26032.491
24809.115
24701.503
22968.357
24217.454
21919.058
25569.993
24274.506
23306.203
23111.692
21453.742
22565.089
21059.399
24078.991
22656.088
21890.869
21629.742
20076.233
21572.527
19625.147
22770.04
21096.088
20530.914
20043.135
18930.665
19694.066
18550.278
21266.509
19651.603
19068.884
18924.916
17636.11
18891.002
17552.074
20397.477
18268.604
18177.44
17427.502
16729.707
17047.76
16760.527
18594.82
16995.905
16377.115
16388.302
15286.161
16223.431
15835.651
17652.935
15702.066
15638.321
14829.828
14589.2
14816.692
14819.359
16106.882
15159.345
14069.129
14554.105
13457.118
13948.801
13745.724
14826.055
12490.885
12866.445
12079.003
11999.985
12207.293
12865.228
13294.048
12955.727
12323.468
12331.003
11845.723
11714.895
11798.411
12195.98
9834.8311
10107.277
9408.0115
9522.8233
9320.5633
10727.811
10033.455
9550.8882
9756.3644
9508.0613
9485.5777
9386.022
9629.2817
7861.1792
6184.7713
6379.1622
5384.6273
5957.8998
5383.3694
6574.0393
6027.071
4960.304
4467.217
4312.8852
4815.6239
4510.697
6337.8638
3002.3368
-322.43578
-105.70303
-553.82613
-602.1192
-865.63225
1025.9209
32199.921
16523.75
17233.569
17444.925
8801.9309
2610.9779
8935.8592
16266.553
19356.593
16035.719
16694.333
7567.7788
6882.9856
-1307.3609
30421.532
5345.2214
7904.9948
-1415.4593
2960.8256
-8567.3812
1091.0931
14089.606
5851.4094
12579.118
6797.2066
1855.3213
7333.5975
-5543.6793
16608.183
11592.851
12601.916
-4569.8813
9782.5906
-10268.847
3865.3686
14184.697
7331.7592
3777.5215
5683.1601
1646.9716
3829.7286
2796.8141
15562.446
8870.4394
16337.862
1345.3883
8282.0328
1355.1254
3712.8878
15000.948
11808.639
5819.6957
7574.7788
5060.8242
5873.7856
4828.4694
16898.426
6139.6988
11260.421
5070.9576
7016.5274
5229.6625
2485.8696
11235.72
10312.335
9869.6902
5015.6255
6252.2946
4948.3832
5566.9641
12565.503
9719.2549
8480.5254
5247.8742
5962.9268
5834.3419
5263.3101
12430.077
9056.9189
7936.9416
6376.5558
5906.7954
7382.2551
5946.7051
12735.28
8895.7365
8945.7473
5976.5538
7539.6552
6990.5098
5359.1381
12138.122
7436.8301
12399.985
6746.4689
5950.828
7093.622
3665.8315
13183.58
11635.356
7794.6249
7911.0263
5419.8305
7278.2414
6754.8146
11431.618
10162.598
7596.9518
8364.4909
4961.4094
7895.413
6451.1327
13050.012
10224.388
8528.1185
9972.8403
5526.7537
8076.4045
7339.3572
11835.37
9735.1445
8976.1451
9779.122
5364.9652
7825.7249
7314.4009
12525.449
11377.207
9550.9918
10289.258
5913.4183
8430.7181
8083.49
12849.888
10735.29
9116.6948
9763.6579
5963.722
8521.7829
7160.1975
12863.727
11540.993
9467.926
10476.817
6932.954
8313.1817
7368.6412
13623.484
11807.142
9373.947
10504.519
6334.2954
8304.0685
7336.682
13462.948
12080.575
9760.6821
10075.943
6789.4917
8609.9177
7183.874
13996.196
11707.287
9957.9058
9791.2075
7481.6011
8609.2815
7027.5627
13762.435
11729.438
10352.821
9710.3276
8212.7651
8351.6092
6776.3504
13466.907
12493.222
10359.376
9649.2851
8485.4288
7890.9512
7031.669
14048.072
11652.744
10222.403
9338.8432
8191.9613
8002.8807
6191.9614
13279.614
11176.796
10138.716
8843.7113
7989.5384
7873.2376
5762.5442
13243.619
10923.274
9949.9669
9021.2672
8115.1237
7749.0499
5890.5681
12464.744
10622.93
9757.922
8593.8995
7579.6953
7537.699
5729.391
11842.43
10211.655
9257.8181
8138.3698
7531.0818
7407.211
5364.6533
11236.377
9806.5058
8919.6392
8153.9143
7140.8404
7307.7447
5068.3139
10601.447
9432.295
8636.2732
7691.5623
6893.1674
7247.2912
5033.8131
10045.48
9017.1431
8140.0899
7488.9386