/*--------------------------------*- C++ -*----------------------------------*\
  =========                 |
  \\      /  F ield         | OpenFOAM: The Open Source CFD Toolbox
   \\    /   O peration     | Website:  https://openfoam.org
    \\  /    A nd           | Version:  6
     \\/     M anipulation  |
\*---------------------------------------------------------------------------*/
FoamFile
{
    version     2.0;
    format      ascii;
    class       pointVectorField;
    location    "1.77";
    object      lm;
}
// * * * * * * * * * * * * * * * * * * * * * * * * * * * * * * * * * * * * * //

dimensions      [1 -2 -1 0 0 0 0];

internalField   nonuniform List<vector> 
3969
(
(-4.0340813e-15 -4.7705825e-17 1.3312818e-16)
(9.2297575e-16 -2.6090405e-16 -6.0252577e-16)
(7372.8388 1569.5604 -68.957176)
(7571.523 -187.78866 -73.614521)
(-7.1783695e-15 2.6020842e-15 -1.0366567e-15)
(-4.622429e-15 2.1493156e-15 -1.5432914e-15)
(7602.3892 -162.39955 -74.962402)
(7403.746 1595.0957 -68.650167)
(-6.09887e-15 1.0869625e-16 -2.0095736e-16)
(-3.193382e-15 6.5333688e-16 6.3735029e-17)
(-2.9260211e-15 2.9260844e-16 -4.8432863e-17)
(-1.7497804e-15 -1.5755452e-16 -2.074758e-16)
(-4.3254872e-15 8.6218995e-16 7.3228779e-16)
(-2.4697388e-15 -4.9707839e-16 4.8086129e-16)
(5.2680668e-16 -4.7467027e-16 -5.3018058e-16)
(7397.8741 1350.3291 -69.053582)
(7423.1339 1130.6721 -69.345431)
(7448.3563 910.34471 -70.123239)
(7473.2511 690.0949 -71.025477)
(7497.8903 469.92505 -71.934277)
(7522.4758 250.15573 -72.648827)
(7546.8725 30.8728 -73.238332)
(28.017673 53.145219 52.550433)
(42.128234 86.434345 66.558021)
(66.000675 123.45868 77.351196)
(99.114598 157.88644 85.692224)
(137.4235 190.96777 93.514343)
(184.56388 223.14814 100.65484)
(235.85859 252.3504 109.01597)
(294.96154 281.35512 116.36804)
(358.11641 307.71581 125.30938)
(427.86804 333.82645 132.61715)
(502.13041 359.20687 141.30467)
(582.18577 384.56693 148.39684)
(667.94345 410.2771 155.63469)
(759.40036 436.90608 161.60258)
(857.63726 464.68428 166.50811)
(962.42061 494.16254 170.07685)
(1074.6158 525.2683 172.25081)
(1194.5951 558.48819 172.73246)
(1322.8429 593.83875 171.42078)
(1459.7788 631.21637 168.24428)
(1605.6695 670.67494 163.23106)
(1760.76 712.00458 156.29478)
(1925.0213 754.98502 147.65359)
(2098.5871 799.10728 137.32971)
(2281.0109 844.46583 125.46681)
(2472.153 890.01153 112.36175)
(2671.3521 935.69541 98.159554)
(2878.0208 981.06411 83.169765)
(3091.4377 1025.4803 67.753156)
(3310.5837 1068.5997 52.178291)
(3534.5281 1110.0752 36.819629)
(3762.2065 1149.5251 22.053929)
(3992.585 1186.7618 8.1108008)
(4224.638 1221.6646 -4.7495529)
(4457.3334 1254.0779 -16.160791)
(4690.1868 1284.2867 -26.362768)
(4921.8749 1312.1106 -35.021402)
(5152.4703 1338.2188 -42.095733)
(5381.1381 1362.5723 -47.999781)
(5608.0896 1385.6926 -52.659541)
(5832.8863 1408.3005 -56.365073)
(6055.8023 1430.0798 -59.106686)
(6277.366 1452.0836 -61.246977)
(6496.7739 1474.5464 -62.993264)
(6716.4208 1496.9119 -64.24504)
(6934.8367 1520.5908 -65.947116)
(7153.3856 1544.8379 -67.077614)
(-2.1911528 -29.096096 -42.738729)
(25.434027 -50.711623 -29.324755)
(46.023995 -75.544264 -32.441974)
(83.589863 -100.4495 -15.544192)
(128.8185 -127.09487 -5.0067864)
(179.26907 -152.76338 10.122986)
(239.01235 -179.26368 23.513165)
(302.24402 -204.99654 36.766083)
(372.69755 -231.28016 48.764083)
(448.18605 -257.63357 59.680588)
(528.56462 -284.20146 68.557517)
(615.24638 -311.44634 76.137424)
(706.94901 -339.25219 81.553083)
(805.02487 -367.41389 85.324691)
(909.20547 -396.27092 87.023253)
(1020.4101 -425.21736 86.913604)
(1139.0227 -454.48344 84.972146)
(1265.3537 -483.18219 81.423446)
(1400.3102 -511.65542 76.496543)
(1543.8529 -538.65336 70.174974)
(1696.5286 -564.67881 62.996751)
(1858.6167 -588.09893 54.844696)
(2030.0226 -609.55035 46.408408)
(2210.8716 -627.69252 37.586956)
(2400.451 -642.50691 28.705821)
(2598.7498 -653.44663 19.722265)
(2804.9431 -660.31979 11.544322)
(3018.8892 -662.77454 3.5464439)
(3239.2591 -660.71866 -3.8071113)
(3465.2358 -654.14347 -10.294687)
(3695.7167 -643.178 -16.065585)
(3929.5575 -628.06716 -21.018236)
(4165.7553 -609.0971 -25.238153)
(4403.1456 -586.71293 -28.785563)
(4640.7598 -561.435 -31.828283)
(4877.7339 -533.82179 -34.492444)
(5113.3873 -504.35186 -36.832908)
(5347.0031 -473.82999 -39.2884)
(5578.1921 -442.63136 -41.681374)
(5806.9886 -411.26594 -44.328585)
(6033.0997 -380.22684 -47.214667)
(6256.8517 -349.82031 -50.454995)
(6478.3772 -320.22281 -53.994052)
(6698.2481 -291.72753 -57.80535)
(6916.9107 -264.30447 -61.780423)
(7135.0206 -237.93142 -65.746721)
(7353.0274 -212.48041 -69.728642)
(-3.9179893e-16 -2.8384427e-17 -1.6191597e-16)
(6.8869455e-16 3.3255846e-16 -2.9305012e-16)
(-3.0379221e-16 -4.0639439e-16 3.7376104e-16)
(8.6048107e-16 -8.7588792e-17 1.0515471e-16)
(5.0258192e-16 -7.4376592e-16 6.4035694e-16)
(-2.9679417e-15 -3.4669267e-16 7.3060073e-16)
(8.9003905e-16 -2.834795e-16 1.0120244e-16)
(24.171518 -31.039579 46.043352)
(40.48465 -96.164858 66.392711)
(54.273365 -100.88876 75.164518)
(90.18985 -152.18863 87.92395)
(126.13582 -175.60231 99.340084)
(173.86458 -207.87887 107.80522)
(226.15858 -235.35769 120.19554)
(285.94043 -260.22648 128.98626)
(351.47374 -286.01401 140.91085)
(422.91736 -307.13365 149.69031)
(500.50246 -330.42496 160.63366)
(583.81329 -349.96775 168.50173)
(673.46104 -370.8388 176.70727)
(770.35331 -390.48677 182.72663)
(873.45191 -409.93875 187.16956)
(985.13042 -429.68195 190.06483)
(1104.1693 -448.83057 190.5731)
(1232.4433 -467.96849 189.20057)
(1369.4629 -486.84449 185.58963)
(1516.1953 -504.86798 179.81541)
(1672.524 -522.32673 172.00674)
(1838.7985 -538.35163 162.23184)
(2014.894 -553.06234 150.66692)
(2200.6628 -565.64653 137.48552)
(2396.0117 -576.33257 122.75198)
(2600.7148 -584.01391 106.6771)
(2812.4703 -589.46695 90.552217)
(3031.5201 -591.54301 74.074834)
(3256.9429 -590.13803 57.372531)
(3487.5524 -585.23073 40.898741)
(3722.1958 -576.90431 25.040275)
(3959.6947 -565.07798 10.061076)
(4198.7791 -549.95399 -3.7129025)
(4438.4268 -531.79601 -16.15344)
(4677.5817 -510.76442 -27.016908)
(4915.2994 -487.66443 -36.261982)
(5151.7001 -462.29399 -44.081953)
(5384.4761 -435.30743 -50.28052)
(5615.32 -407.44578 -55.292043)
(5843.122 -378.83703 -59.021267)
(6068.1432 -350.02749 -61.911662)
(6290.8294 -321.32479 -64.082246)
(6511.3765 -293.06285 -65.799768)
(6730.3792 -265.43522 -67.253614)
(6948.4165 -238.59377 -68.728291)
(7166.0097 -212.55308 -70.389078)
(7384.0617 -187.14862 -72.525828)
(7577.8929 56.076559 -73.755347)
(7553.5496 275.16075 -72.779826)
(7529.4235 495.27007 -72.271137)
(7504.0837 715.60377 -71.863126)
(7479.712 935.87207 -71.458739)
(7453.9774 1156.3326 -71.024239)
(7428.7745 1375.888 -69.896826)
(7184.4104 1570.2322 -64.292219)
(6965.4241 1546.157 -59.754129)
(6746.9637 1522.885 -55.14662)
(6527.8229 1500.6892 -50.520304)
(6307.6989 1479.2315 -46.286997)
(6086.1768 1458.3585 -42.415782)
(5862.7627 1437.8644 -39.03582)
(5637.1872 1417.2548 -36.268257)
(5409.3078 1396.406 -34.25804)
(5179.3146 1374.756 -32.454934)
(4947.6302 1351.6465 -31.197082)
(4713.9794 1327.4822 -30.206416)
(4479.4653 1300.9742 -29.523556)
(4244.9268 1272.4887 -28.366907)
(4011.1068 1241.4579 -27.120337)
(3778.9692 1207.809 -25.326423)
(3549.5747 1171.4781 -22.901273)
(3324.0929 1132.4801 -19.756509)
(3103.3684 1091.0462 -15.840462)
(2888.63 1047.2951 -11.125327)
(2680.5622 1001.6699 -5.6211534)
(2480.1511 954.40024 0.50892476)
(2287.8854 906.12378 7.2235837)
(2104.3305 857.04083 14.331115)
(1929.7278 807.8044 21.546892)
(1764.5329 758.72982 28.873384)
(1608.4838 710.26978 35.880041)
(1461.7586 662.79108 42.424511)
(1323.89 616.62144 48.209395)
(1194.7789 571.9699 53.029369)
(1073.8254 529.24257 56.610361)
(960.59176 488.06535 58.861502)
(854.3095 449.73858 59.078867)
(755.77185 412.27563 58.654397)
(663.20673 376.9816 55.497582)
(575.80749 343.37557 51.421135)
(494.42806 311.79561 44.223312)
(417.98639 280.50529 36.883714)
(346.60058 251.76321 26.244738)
(281.78866 221.55111 16.323917)
(221.24316 194.28681 4.3650636)
(166.54064 164.99716 -7.6381597)
(118.73151 137.61115 -20.4589)
(77.969835 109.41098 -30.317633)
(45.409967 83.765096 -38.74408)
(21.756405 52.339901 -42.896564)
(23.129998 34.326793 -29.262073)
(-6.7652979e-16 3.5118239e-16 1.2802193e-16)
(-2.3129286e-15 2.7505878e-16 1.3239036e-16)
(-3.6393531e-15 -1.4253491e-16 -1.5464221e-16)
(-4.9195801e-15 -9.3657526e-16 4.6870719e-16)
(-4.0844143e-15 -8.2232132e-16 1.723462e-16)
(-2.0271537e-15 -1.8079967e-16 2.6438577e-16)
(-2.0670014e-15 8.6459225e-16 1.4474963e-15)
(-4.5036838e-15 1.2268482e-15 -2.065022e-16)
(-1.9919023e-15 1.1694967e-15 -1.6367101e-16)
(-2.9438013e-15 1.1112212e-15 -1.969436e-16)
(-2.4504202e-15 9.597151e-16 -1.1789697e-16)
(-5.2893259e-15 2.5926013e-15 -8.0820905e-16)
(-1.8775489e-15 1.1365606e-15 -5.8525306e-16)
(-7.4714327e-17 -2.094137e-16 9.7564992e-17)
(7575.2911 -184.16755 -73.443651)
(7578.7338 -180.94055 -73.604229)
(7582.2878 -177.59305 -73.997075)
(7585.8949 -174.29388 -74.578592)
(7589.7527 -170.96334 -74.934195)
(7593.6513 -167.80988 -75.170069)
(7598.0209 -164.7878 -74.999173)
(7376.1878 1571.4107 -69.01173)
(7379.7462 1573.6787 -69.166917)
(7383.3377 1576.4034 -69.074702)
(7387.1404 1579.5318 -68.812624)
(7391.1506 1582.8265 -68.679193)
(7395.2551 1586.6916 -68.562513)
(7399.5267 1590.6912 -68.527747)
(11.335015 40.497969 50.861671)
(28.911071 64.188595 53.427594)
(51.335979 95.975937 65.885382)
(85.097876 122.50076 73.510362)
(123.38533 147.86986 81.859401)
(171.9842 173.75566 89.740296)
(224.16214 195.64018 97.990001)
(283.94839 219.0434 106.65269)
(348.74429 238.68659 114.54437)
(418.93325 259.6133 123.09524)
(494.18175 278.68718 130.82131)
(574.95573 297.99438 138.06881)
(661.23008 317.68724 144.55635)
(753.33011 337.59748 149.88159)
(851.948 358.46378 154.46841)
(957.19436 380.32068 157.26714)
(1069.8811 403.73201 158.92304)
(1190.3865 428.53751 158.86358)
(1319.33 455.20504 157.10717)
(1457.0879 483.6051 153.68138)
(1603.9601 513.93056 148.4823)
(1760.151 546.01904 141.64821)
(1925.8165 579.78906 133.22024)
(2100.8037 615.05131 123.35459)
(2284.9485 651.68151 112.10432)
(2477.9503 689.17379 99.887181)
(2679.1163 727.48464 86.643299)
(2887.8406 766.2297 72.877607)
(3103.3694 804.96641 58.756205)
(3324.6123 843.32803 44.593128)
(3550.5906 881.11637 30.712182)
(3780.2441 917.85998 17.376781)
(4012.4146 953.44099 4.7874767)
(4246.1512 987.56119 -6.7212833)
(4480.3588 1020.0931 -17.156595)
(4714.2776 1050.993 -26.332676)
(4947.0875 1080.3353 -34.335515)
(5178.3577 1108.1068 -40.875462)
(5407.6592 1134.434 -46.481309)
(5634.8723 1159.7178 -51.005465)
(5859.7417 1184.1532 -54.77997)
(6082.6831 1207.7966 -57.601573)
(6303.7919 1231.3772 -60.205119)
(6523.1644 1254.5092 -62.083997)
(6742.3498 1277.8639 -63.923201)
(6960.2563 1301.6047 -65.784466)
(7178.717 1325.8237 -67.337475)
(-2.6352074 30.115528 38.330676)
(15.160778 42.619932 43.648326)
(40.534246 72.446236 53.597158)
(72.993954 87.910824 62.650553)
(115.27518 109.25414 70.575892)
(161.93486 126.39518 78.61685)
(216.12262 143.29624 88.31036)
(276.76785 158.47948 95.500912)
(341.95751 172.4088 105.51523)
(412.94553 186.08434 112.91852)
(489.14714 198.32936 121.17036)
(570.48746 211.34431 127.89383)
(657.50176 223.58363 134.40527)
(750.39067 236.48601 139.6202)
(849.62101 249.7709 143.59066)
(955.74279 264.27311 145.99266)
(1069.1576 279.76393 147.09782)
(1190.5192 296.64998 146.46657)
(1320.2963 315.1722 144.32528)
(1458.994 335.33328 140.52597)
(1606.8514 357.40495 135.13808)
(1764.2275 381.31326 128.2483)
(1931.0349 407.03629 119.97983)
(2107.2956 434.61978 110.39255)
(2292.8476 463.83283 99.750195)
(2487.1538 494.54664 88.18884)
(2689.7494 526.50431 75.925791)
(2899.9315 559.42964 63.187671)
(3116.8772 593.07558 50.30186)
(3339.5705 627.16038 37.440512)
(3566.9671 661.33926 24.880884)
(3797.9842 695.3192 12.82749)
(4031.4834 728.85357 1.5491462)
(4266.4345 761.59175 -8.83088)
(4501.7446 793.42592 -18.211533)
(4736.7024 824.1805 -26.496026)
(4970.4218 853.67167 -33.708668)
(5202.3949 882.06596 -39.84343)
(5432.1874 909.22743 -45.100181)
(5659.7897 935.41787 -49.477175)
(5885.0149 960.90852 -53.222938)
(6108.0341 985.38954 -56.263626)
(6329.359 1009.8124 -59.037608)
(6548.723 1033.6388 -61.342914)
(6767.839 1057.5528 -63.534487)
(6985.567 1081.705 -65.701796)
(7203.7703 1106.1125 -67.50608)
(-11.511149 20.366981 28.960442)
(8.0454254 31.692805 33.056629)
(30.031873 47.681414 41.704683)
(67.063665 60.143693 50.258641)
(106.67735 71.530668 58.04897)
(157.21493 83.457982 67.985741)
(212.47561 90.714687 75.572062)
(273.49442 100.07833 86.12993)
(340.11649 106.10665 94.555028)
(412.16034 112.63265 102.98178)
(488.76336 118.42941 111.06118)
(571.08193 123.75911 117.87602)
(658.56698 129.11853 124.12286)
(752.08617 134.61148 128.65512)
(852.01466 141.05158 132.28613)
(958.75379 147.80104 134.23226)
(1072.8486 155.73105 134.86273)
(1194.9115 164.84831 133.83484)
(1325.4695 175.44546 131.36525)
(1464.8083 187.71725 127.32304)
(1613.4238 201.898 121.84297)
(1771.4485 217.8901 115.04491)
(1939.0487 236.04654 106.95023)
(2116.284 256.25434 97.731786)
(2302.6648 278.31074 87.65126)
(2498.0777 302.43118 76.732221)
(2701.8376 328.19337 65.295808)
(2913.3253 355.65415 53.471883)
(3131.4327 384.44308 41.677225)
(3355.3569 414.21054 29.960673)
(3583.966 444.85474 18.574721)
(3816.1766 475.9458 7.7451483)
(4050.8223 507.19339 -2.3502017)
(4286.8279 538.34279 -11.65831)
(4523.1759 569.09989 -20.023883)
(4759.0289 599.23896 -27.457635)
(4993.5255 628.68312 -33.974866)
(5226.227 657.24876 -39.602943)
(5456.7156 684.90387 -44.484025)
(5684.7668 711.73381 -48.628151)
(5910.344 737.78091 -52.331347)
(6133.6402 763.04431 -55.363227)
(6354.9712 788.11319 -58.399537)
(6574.4204 812.42637 -60.772827)
(6793.2415 836.91421 -63.353772)
(7010.8343 861.18364 -65.635343)
(7228.9327 885.70073 -67.916183)
(-14.237872 11.058992 15.448542)
(4.7487889 14.975391 18.502539)
(28.742965 24.865946 27.04359)
(62.172677 28.60588 37.065392)
(105.88042 33.365033 46.472865)
(154.96995 36.883446 55.682694)
(210.67307 37.805991 67.429553)
(272.19087 39.666152 75.988266)
(339.54224 38.683436 86.100719)
(411.83071 38.834326 94.838038)
(489.61759 36.984555 102.76365)
(572.82633 35.814645 109.61748)
(661.23619 33.928693 115.26957)
(756.04812 32.489898 119.59179)
(856.65339 31.377037 122.6769)
(964.48093 30.892455 124.26238)
(1079.3672 31.378728 124.27558)
(1202.37 32.981381 122.75777)
(1333.6894 35.904411 119.80102)
(1473.9149 40.671663 115.26063)
(1623.6052 47.14993 109.45978)
(1782.7855 55.7851 102.45287)
(1951.487 66.554025 94.176452)
(2129.5461 79.57311 85.120711)
(2317.0584 94.986212 75.188586)
(2513.3299 112.70242 64.773794)
(2717.9443 132.59299 54.068835)
(2930.1456 154.53315 43.239933)
(3149.0887 178.37255 32.435336)
(3373.7971 203.83661 21.869321)
(3603.1896 230.79088 11.702754)
(3836.1858 258.70274 2.1772622)
(4071.5434 287.51758 -6.7312845)
(4308.2907 316.70919 -14.80382)
(4545.3266 346.09394 -22.07877)
(4781.7903 375.34472 -28.52547)
(5016.8664 404.32842 -34.242477)
(5250.1099 432.68194 -39.170352)
(5480.9141 460.50179 -43.550383)
(5709.2835 487.6424 -47.431057)
(5935.1499 514.32475 -51.01124)
(6158.5278 540.21992 -54.13634)
(6379.9902 565.94009 -57.294107)
(6599.434 590.87811 -60.001482)
(6818.2901 615.91934 -62.934724)
(7035.9363 640.55257 -65.642063)
(7253.9788 665.32261 -68.356222)
(-16.617255 2.8667341 3.5273125)
(5.2641763 5.2719976 6.5352249)
(24.235497 4.1433304 16.035364)
(62.624897 2.3981853 24.716512)
(104.47574 -1.5974229 33.712638)
(155.57968 -5.5541941 45.625505)
(211.97748 -11.84736 55.111955)
(275.42331 -17.774883 65.515101)
(343.09199 -25.408769 75.490475)
(416.93245 -33.041187 84.36309)
(495.36886 -41.903671 92.334709)
(579.16031 -50.053003 99.472633)
(668.57823 -59.413383 105.14706)
(763.72191 -67.832701 109.49348)
(865.20691 -76.568713 112.41623)
(973.54624 -84.530805 113.68829)
(1089.3156 -91.735163 113.2951)
(1212.9711 -97.821301 111.41115)
(1345.1014 -102.62211 108.06387)
(1486.0805 -105.57007 103.19048)
(1636.3935 -106.97253 97.362226)
(1795.6748 -106.12241 90.180977)
(1964.5736 -102.59768 82.169484)
(2143.5166 -96.937754 73.335702)
(2331.4872 -88.410398 64.009044)
(2528.4944 -77.316538 54.228684)
(2733.9098 -63.452161 44.216531)
(2946.9477 -46.956167 34.134165)
(3166.6824 -27.998793 24.251487)
(3392.1644 -6.7261514 14.672341)
(3622.3685 16.551761 5.6151858)
(3856.0857 41.549973 -2.8835702)
(4092.2117 67.982723 -10.696101)
(4329.6726 95.39264 -17.757717)
(4567.371 123.55342 -24.11641)
(4804.4248 152.05608 -29.76617)
(5040.1257 180.67257 -34.781752)
(5273.7921 209.04082 -39.195329)
(5505.0496 237.08183 -43.297244)
(5733.7629 264.80172 -46.948283)
(5959.8518 291.9064 -50.376044)
(6183.4819 318.43941 -53.558488)
(6405.0053 344.53806 -56.794099)
(6624.6853 370.01136 -59.690704)
(6843.4099 395.34235 -62.900752)
(7061.0628 420.17131 -65.763273)
(7278.9172 445.07426 -68.849207)
(-14.042923 -6.0493287 -12.288362)
(8.8093074 -12.729188 -5.6581236)
(29.801782 -20.669769 -0.095186459)
(67.65946 -30.818535 9.7826923)
(110.42603 -41.848192 21.458417)
(161.41015 -53.490572 32.78853)
(219.19642 -66.814448 44.471392)
(282.16871 -79.552942 55.988041)
(351.22588 -94.159923 66.488467)
(425.12754 -108.08241 76.14923)
(504.6382 -123.40321 84.727915)
(589.04474 -138.41624 91.645236)
(679.25678 -154.18495 97.226283)
(775.31303 -169.58555 101.2991)
(877.58358 -185.20681 103.64785)
(986.8564 -200.17807 104.4153)
(1103.3927 -214.74439 103.51947)
(1227.9411 -228.22017 101.14304)
(1360.8141 -240.61544 97.203461)
(1502.6322 -251.33433 92.038699)
(1653.5376 -260.45793 85.59854)
(1813.9912 -266.55351 78.387257)
(1984.1919 -270.57198 69.689832)
(2163.5759 -272.72495 61.202384)
(2352.34 -271.54087 51.77992)
(2549.8657 -267.19337 42.203372)
(2755.7077 -259.66691 32.799581)
(2969.0353 -249.07119 23.559897)
(3189.022 -235.30943 14.571671)
(3414.8045 -218.68992 6.0840586)
(3645.2393 -199.3592 -1.8543048)
(3879.1812 -177.65501 -9.1059017)
(4115.5606 -153.84705 -15.673151)
(4353.2096 -128.38018 -21.539663)
(4591.1038 -101.51813 -26.756757)
(4828.3801 -73.782056 -31.367993)
(5064.251 -45.437988 -35.471278)
(5298.0764 -16.91012 -39.223719)
(5529.5621 11.797455 -42.638007)
(5758.3692 39.975547 -46.021237)
(5984.5759 68.035164 -49.312729)
(6208.3098 95.335386 -52.499823)
(6429.8755 122.28854 -55.798642)
(6649.5818 148.59419 -59.043718)
(6868.181 174.54265 -62.453447)
(7085.9347 200.0583 -65.744068)
(7303.7311 225.20238 -69.206021)
(-9.7749605 -16.073098 -22.970238)
(13.677315 -26.469836 -17.800186)
(34.419462 -43.58291 -13.636085)
(74.334934 -60.633184 -2.105052)
(115.47413 -79.008624 8.8687216)
(169.04562 -98.586303 22.057408)
(225.87779 -118.44029 34.122324)
(290.34234 -138.70215 46.567062)
(359.6604 -159.80245 57.382911)
(434.27387 -180.37753 67.705509)
(514.78562 -202.51905 76.568473)
(599.74915 -223.88481 83.319227)
(691.06767 -246.42973 89.125488)
(787.69035 -268.7589 92.893722)
(891.08792 -291.36207 95.090074)
(1001.0437 -313.6827 95.488599)
(1118.5642 -335.69761 94.232383)
(1243.8486 -356.92265 91.285688)
(1377.5982 -377.13323 86.966861)
(1520.1722 -395.96214 81.316721)
(1671.8671 -412.7416 74.48342)
(1832.9052 -427.80292 66.989134)
(2003.8177 -439.82221 58.408466)
(2183.7933 -449.31964 49.760094)
(2373.1197 -455.51397 40.631548)
(2570.9349 -458.05511 31.676319)
(2777.2101 -457.1297 22.855591)
(2990.8899 -452.26961 14.142241)
(3211.3001 -443.76021 5.9278827)
(3437.4329 -431.7178 -1.666372)
(3668.1567 -416.2707 -8.560894)
(3902.3961 -397.68836 -14.769095)
(4138.99 -376.31903 -20.253302)
(4376.8631 -352.55271 -25.078539)
(4614.9489 -326.82032 -29.298727)
(4852.398 -299.57667 -33.027224)
(5088.3786 -271.32895 -36.364606)
(5322.3763 -242.35179 -39.505362)
(5553.8785 -213.19831 -42.54377)
(5782.8446 -184.00052 -45.548766)
(6009.1499 -155.14873 -48.599634)
(6232.8936 -126.8199 -51.765847)
(6454.4321 -99.052325 -55.142316)
(6674.1406 -71.9242 -58.596195)
(6892.6757 -45.394244 -62.219583)
(7110.4984 -19.464779 -65.785157)
(7328.4117 5.8161238 -69.419014)
(-1.8726199e-15 -1.0357256e-16 4.2324109e-16)
(-4.3693994e-15 5.8098526e-16 1.0825799e-16)
(-1.86708e-15 5.0203615e-16 5.7484399e-16)
(-1.1298519e-15 4.4303811e-16 -1.5186772e-16)
(-1.5283164e-15 1.7502349e-16 4.7144117e-17)
(-3.9278597e-15 -6.147074e-18 -1.0233878e-17)
(-3.270765e-15 8.5080195e-17 2.8271762e-17)
(-1.444637e-15 3.1767481e-17 -1.0328492e-16)
(-1.9600489e-15 -2.0641393e-16 2.5996682e-17)
(-1.0758982e-15 -5.0887233e-16 -1.6282415e-16)
(-1.1902312e-15 -6.3217422e-16 -1.0496995e-16)
(-2.2455722e-15 -1.0363924e-16 3.7607835e-16)
(-1.7254929e-15 1.2766475e-16 7.9907906e-17)
(-6.542485e-16 2.4659353e-16 4.7610311e-16)
(-1.0183069e-15 2.0413811e-16 3.0876606e-16)
(-1.2825224e-16 3.2154578e-16 2.6910031e-16)
(-2.4669526e-15 5.8726168e-16 -3.2350189e-17)
(-1.9694108e-15 5.8752001e-16 2.9593509e-16)
(-1.9972486e-15 5.0741204e-16 1.6376266e-16)
(-5.0142844e-16 5.9082617e-16 -1.5096731e-17)
(2.8672985e-17 2.0007103e-16 -2.079567e-16)
(-3.5598279e-15 1.6770216e-16 6.1584209e-17)
(1.5219227e-15 -3.8112137e-16 -3.4960392e-16)
(-8.8364966e-17 -1.5289127e-16 1.7491834e-16)
(2.7397895e-16 -2.6900304e-16 -2.0413732e-16)
(-5.1236454e-16 -3.7600259e-16 -4.411389e-17)
(-1.3114086e-15 -5.3747975e-16 1.2489795e-16)
(2.0041989e-16 -4.4379834e-16 -1.4360784e-16)
(-1.3448657e-15 3.3966264e-16 -2.7012678e-16)
(-2.2010094e-15 1.2158219e-16 1.1470551e-16)
(-1.2722141e-15 -2.3577892e-16 -7.7366055e-17)
(-2.6936153e-15 2.298542e-17 6.0151854e-16)
(-1.8084585e-15 2.5926424e-16 8.2177642e-17)
(-1.0121806e-15 3.7760621e-16 1.5728837e-17)
(-3.5076342e-15 -1.049112e-16 -1.8966684e-16)
(-1.2388067e-16 -2.746004e-16 -1.3203227e-16)
(-1.1077126e-15 -2.2449831e-16 5.9960705e-17)
(-7.9462407e-16 5.2806017e-17 1.8160622e-16)
(-1.481116e-15 2.6347307e-16 -6.003674e-17)
(5.3541372e-16 1.9494005e-16 5.7756958e-17)
(-2.5861876e-15 -7.0653702e-17 -1.8824779e-16)
(-1.6152529e-15 1.8241927e-16 3.8488004e-16)
(-1.0389662e-15 3.299921e-17 2.9700946e-16)
(-3.8817577e-15 -1.9427146e-16 -1.2145786e-15)
(-1.6161979e-15 2.8442108e-16 -1.856842e-16)
(8.1577518e-16 1.8112067e-17 2.0819295e-16)
(-2.485062e-15 2.8178417e-16 -5.4749215e-16)
(-1.8307085e-15 4.4562511e-16 -1.4619564e-16)
(-1.4586292e-15 4.0358521e-16 -4.0281137e-16)
(14.081306 -10.073933 -21.518306)
(19.892618 -14.967678 -14.341723)
(26.348811 -15.920244 -5.6577331)
(29.35486 -17.329452 1.2440474)
(29.953392 -16.58795 7.8547522)
(30.613007 -18.292673 15.317567)
(27.064479 -12.927827 23.706966)
(39.930403 -60.458041 -22.527411)
(48.89455 -70.884271 -7.7053244)
(53.167132 -67.101156 2.4734505)
(55.39892 -65.751372 11.940491)
(57.638894 -71.955842 21.138316)
(54.113448 -73.531421 32.941399)
(51.003645 -76.623099 48.99616)
(57.304124 -75.736532 -16.722745)
(68.53857 -75.278123 -7.4802644)
(76.338514 -82.878944 9.3983936)
(77.693761 -84.671094 19.473812)
(77.874735 -84.190606 33.92613)
(74.263445 -88.176593 43.385114)
(69.119386 -98.638171 63.660524)
(99.388363 -113.60531 -3.2995446)
(106.71375 -120.64043 7.3548849)
(111.92891 -122.69527 21.531728)
(113.76419 -124.86251 31.914792)
(113.46706 -128.52215 44.887775)
(109.13524 -136.07511 60.035655)
(100.47026 -137.5839 72.696099)
(137.87226 -136.25186 7.765128)
(146.85009 -140.76277 18.075878)
(153.00588 -146.07224 32.352153)
(153.47939 -149.16326 44.981366)
(152.70758 -153.70649 57.752628)
(147.54462 -158.74665 70.334032)
(140.03816 -166.95992 86.280011)
(191.74163 -166.27407 22.739823)
(197.09063 -171.27189 33.012699)
(201.87452 -175.67986 46.329118)
(202.10053 -180.70492 56.952991)
(200.08877 -184.42711 70.690138)
(194.09521 -190.84316 83.538208)
(185.37581 -197.2274 95.690115)
(246.97227 -189.45181 35.607809)
(253.08198 -195.05173 46.971864)
(256.6543 -201.22142 59.30458)
(256.24166 -205.28166 70.377272)
(254.00328 -210.98962 83.467762)
(247.91074 -218.01038 94.911655)
(239.11677 -225.23215 108.47948)
(311.25052 -216.21245 49.235371)
(316.05548 -222.49076 59.312193)
(318.99165 -227.69536 72.268771)
(318.03728 -232.8532 83.442394)
(314.25509 -236.97998 95.016495)
(307.95711 -243.38267 107.18883)
(298.16302 -250.16508 118.26866)
(380.29612 -240.89018 60.861794)
(384.43324 -246.19138 72.826771)
(386.20586 -251.32984 84.42139)
(384.51196 -256.30074 95.000256)
(381.02614 -262.45527 106.95902)
(373.9632 -268.31072 118.17828)
(364.51815 -275.97396 130.39056)
(454.95298 -265.91447 72.236452)
(458.74356 -271.57222 83.013121)
(460.13742 -276.30549 95.221515)
(458.70853 -281.90984 106.84052)
(454.16539 -285.98741 118.28519)
(446.5689 -291.77266 129.45228)
(436.28964 -297.86681 140.30902)
(535.69294 -291.62627 81.367712)
(538.80074 -295.94741 93.263961)
(539.7594 -300.70018 105.88937)
(537.01484 -304.37576 116.05973)
(532.55955 -308.99147 127.96747)
(524.35775 -314.39114 138.70026)
(514.00517 -321.07995 150.33868)
(621.52957 -316.70374 89.149159)
(624.53312 -320.49055 101.79312)
(624.98791 -324.50334 113.01628)
(622.99433 -328.70885 125.14277)
(617.7359 -332.32804 137.12939)
(608.86837 -337.29335 147.83436)
(598.62056 -342.02294 159.11988)
(713.89892 -343.48143 95.300718)
(716.17905 -345.96908 107.97963)
(716.92097 -349.40635 120.25876)
(713.88882 -351.94711 132.27708)
(708.28307 -354.98172 144.06468)
(699.56776 -359.62229 154.79731)
(688.30884 -363.17612 166.62144)
(811.51717 -369.57058 99.308961)
(814.12188 -371.33116 112.52007)
(815.03219 -373.63916 124.7118)
(811.81361 -375.8375 137.26594)
(806.65583 -378.41227 149.49151)
(797.21684 -381.53125 160.6573)
(785.9914 -384.49263 172.82487)
(916.29868 -397.01204 101.52898)
(919.25572 -397.52925 115.33034)
(919.63433 -398.63851 127.91384)
(916.70082 -400.06132 141.03576)
(910.90679 -401.13478 153.15905)
(901.39054 -403.67343 164.69437)
(889.71561 -405.26664 176.96078)
(1027.94 -424.11043 101.86614)
(1030.8366 -423.33325 115.89006)
(1031.895 -423.7439 128.89761)
(1028.8614 -423.94654 142.05794)
(1023.2855 -424.55849 154.84256)
(1013.6818 -425.83197 166.5849)
(1001.7049 -426.46699 179.46263)
(1146.9058 -451.61419 100.26877)
(1150.5536 -449.92064 114.85986)
(1151.5939 -448.87435 128.06572)
(1148.6028 -448.31401 141.80544)
(1143.1848 -447.71738 154.69265)
(1133.3435 -448.03223 166.72151)
(1121.3351 -447.41422 179.87337)
(1274.0667 -478.89209 97.087373)
(1277.9893 -475.74162 111.72025)
(1279.401 -473.83789 125.35841)
(1276.8173 -472.18891 139.11449)
(1271.5217 -470.77329 152.22454)
(1261.8533 -469.89083 164.64796)
(1249.6646 -468.21327 178.08004)
(1409.4999 -505.66686 92.192829)
(1413.9036 -501.60373 107.10131)
(1415.8065 -498.41849 120.87693)
(1413.3975 -495.98479 134.78722)
(1408.4377 -493.41236 148.13636)
(1398.8111 -491.62914 160.65623)
(1386.9418 -488.83159 174.26931)
(1553.6826 -531.60853 85.985964)
(1558.6951 -526.19988 100.83426)
(1560.9643 -522.19573 114.61265)
(1559.1038 -518.67557 128.57807)
(1554.437 -515.34352 141.89498)
(1545.27 -512.45641 154.55629)
(1533.4862 -508.6404 168.301)
(1707.0252 -556.0939 78.534369)
(1712.4975 -549.9902 93.25179)
(1715.2746 -544.83151 107.00596)
(1713.8281 -540.5329 120.81179)
(1709.6225 -536.27561 134.11244)
(1700.8189 -532.44973 146.67044)
(1689.5388 -527.66025 160.43627)
(1869.535 -578.94912 70.123628)
(1875.5372 -571.73961 84.543086)
(1878.7795 -565.74734 98.009737)
(1877.9304 -560.58181 111.53599)
(1874.2274 -555.65063 124.62933)
(1866.0668 -550.85683 137.03283)
(1855.2721 -545.33343 150.69404)
(2041.336 -599.37667 61.086023)
(2047.8878 -591.55362 74.975981)
(2051.5235 -584.74089 88.039069)
(2051.2708 -578.94302 101.1168)
(2048.1173 -573.32154 113.89574)
(2040.6525 -567.76619 125.90283)
(2030.62 -561.45651 139.30956)
(2222.4158 -617.21428 51.548643)
(2229.3518 -608.65813 64.721796)
(2233.3132 -601.14969 77.201793)
(2233.7753 -594.70198 89.636391)
(2231.2322 -588.45423 101.87491)
(2224.662 -582.13371 113.44959)
(2215.4186 -575.3385 126.43178)
(2412.1967 -631.63649 41.629236)
(2419.6354 -622.61891 54.0395)
(2423.8695 -614.5906 65.783713)
(2425.1854 -607.63548 77.533096)
(2423.0212 -601.07273 89.024702)
(2417.5802 -594.38521 100.03394)
(2409.3007 -587.23053 112.16437)
(2610.7168 -642.7674 31.717004)
(2618.2219 -633.17925 43.207528)
(2622.8765 -624.90486 54.064327)
(2624.5911 -617.39401 65.185737)
(2623.1002 -610.5758 75.344388)
(2619.008 -603.14718 85.751251)
(2611.8898 -595.72067 96.577989)
(2816.872 -649.59757 22.122881)
(2824.5591 -639.96577 32.438384)
(2829.6037 -631.47274 42.217151)
(2832.17 -623.69606 52.021338)
(2831.4949 -616.40509 61.710844)
(2828.2905 -608.83006 71.4169)
(2822.0584 -601.35839 81.172323)
(3030.5385 -652.25491 12.720482)
(3038.0837 -642.84943 22.034921)
(3043.5593 -634.06929 30.52486)
(3046.2334 -626.11283 39.401737)
(3046.6163 -618.91328 47.994742)
(3044.3239 -611.16481 56.597797)
(3039.6015 -603.70025 65.602626)
(3250.4526 -650.72132 4.0082913)
(3257.9584 -641.45717 12.143865)
(3263.4849 -632.78441 19.196536)
(3266.8173 -624.85576 27.163683)
(3267.7914 -617.70777 34.379469)
(3266.6626 -609.75941 42.064374)
(3263.27 -602.52933 49.861001)
(3475.8087 -644.82825 -3.9262977)
(3483.0588 -635.86828 2.7462692)
(3488.7679 -627.28142 8.6210271)
(3492.4086 -619.46121 15.309716)
(3494.155 -612.34175 21.342523)
(3494.1016 -604.56786 27.895508)
(3492.0348 -597.48741 34.475447)
(3705.4758 -634.65202 -11.129938)
(3712.5098 -626.04123 -5.8620181)
(3718.1596 -617.7261 -1.2129673)
(3722.1648 -610.10401 4.2226575)
(3724.5491 -603.16544 9.0061696)
(3725.5397 -595.56867 14.409521)
(3724.8369 -588.79292 19.701688)
(3938.4974 -620.37151 -17.478572)
(3945.1386 -612.21797 -13.616877)
(3950.7303 -604.26376 -10.161929)
(3955.0161 -596.89381 -6.0175225)
(3958.0113 -590.19273 -2.4319619)
(3959.9853 -582.84924 1.8265589)
(3960.5506 -576.39558 5.844491)
(4173.7232 -602.26318 -23.01527)
(4179.9436 -594.62249 -20.498215)
(4185.4043 -587.05645 -18.165815)
(4189.8918 -580.02545 -15.250854)
(4193.3794 -573.5523 -12.762701)
(4196.2414 -566.55066 -9.6363996)
(4197.9616 -560.48171 -6.8255662)
(4410.1465 -580.72104 -27.769486)
(4415.9204 -573.59204 -26.464474)
(4421.177 -566.51995 -25.174025)
(4425.759 -559.82797 -23.363782)
(4429.6855 -553.68138 -21.949223)