/*--------------------------------*- C++ -*----------------------------------*\
  =========                 |
  \\      /  F ield         | OpenFOAM: The Open Source CFD Toolbox
   \\    /   O peration     | Website:  https://openfoam.org
    \\  /    A nd           | Version:  6
     \\/     M anipulation  |
\*---------------------------------------------------------------------------*/
FoamFile
{
    version     2.0;
    format      ascii;
    class       pointScalarField;
    location    "0.66";
    object      p;
}
// * * * * * * * * * * * * * * * * * * * * * * * * * * * * * * * * * * * * * //

dimensions      [1 -1 -2 0 0 0 0];

internalField   nonuniform List<scalar> 
28033
(
1219903.9
-1784077.2
-10.124806
239.132
2268576
-2527056.7
191.37811
-127.51566
1045706.1
912014.93
782725.73
636275.54
470253.9
319342.07
163551.54
-1430.7288
-170833.56
-315647.52
-500732.3
-595773.07
-802216.38
-986312.87
-980008.6
-372.38958
-935.67021
-1315.7112
-1218.6508
-1237.6796
-812.50229
-676.4937
-264.77744
33.849971
507.09545
653.64955
839.6107
894.67325
818.52932
547.39692
329109.79
346427.16
314304.92
334942.83
324637.51
333360.03
332437.54
331900.87
329180.51
328742.89
323052.83
318266.1
314485.65
309263.98
302868.88
295919.61
291292.91
284167.53
278295.27
271693.41
266563.05
259679.27
255474.36
249502.77
244650.7
240269.25
236010.62
231667.8
227876.25
224061.84
220624.47
216902.64
213709.51
210230.18
206096.72
202816.76
199197.87
196134.39
191074.77
187623.4
182579.43
178020.89
173098.7
168613.95
163417.72
158664.78
153413.86
148535.09
143205.25
138289.87
132963.38
127937.52
122684.66
117519.82
112267.12
106997.94
101681.95
96292.276
90881.417
85449.866
79971.292
74516.398
69042.21
63837.07
58606.484
53609.654
49441.296
44670.98
40141.453
36085.791
32228.85
28836.595
25857.221
23279.799
20962.072
19027.342
17344.117
15971.208
14679.754
13634.465
12629.453
11732.823
10767.155
9763.0281
8960.7589
8107.2967
7113.7076
6262.6035
5092.1218
4316.0099
3076.5079
2380.7589
1487.1178
763.09644
191.0813
-311165.65
-257454.39
-307941.87
-272308.46
-311245.17
-303547.12
-311087.25
-304517.94
-310053.14
-301390.49
-302568.14
-295462.24
-291541.99
-286896.47
-280928.04
-275199.68
-269576.91
-262974.91
-257413.14
-251982.88
-245394.06
-241518.61
-235061.34
-231585.95
-226482.19
-222469.35
-218838.68
-214473.42
-211691.78
-207380.58
-204068.48
-200714.79
-197069.98
-193980.29
-190434.83
-187569.59
-182825.54
-179673.42
-175104.5
-171430.8
-166979.34
-162775.54
-158255.63
-153882
-149243.56
-144784.27
-140147.37
-135609.16
-131026.07
-126458.91
-121888.28
-117310.65
-112704.56
-108097.48
-103406.16
-98706.685
-93920.816
-89082.798
-84175.696
-79240.817
-74230.271
-69251.018
-64249.909
-59333.62
-54460.559
-49808.092
-45293.83
-41063.582
-37154.88
-33440.037
-29977.981
-27078.507
-24500.802
-22237.684
-20380.602
-18810.93
-17513.934
-16496.951
-15562.241
-14842.692
-14093.31
-13424.607
-12645.315
-11874.979
-10910.399
-9926.5332
-8760.0147
-7553.1825
-6238.3003
-4931.3207
-3594.0312
-2415.0187
-1336.5438
-395.18097
-0.82964116
1851074.9
1745539.2
1250421.1
1271375
878664.69
527596.43
328354.53
-26711.377
-298895.79
-638064.22
-889332.76
-1213890.3
-1544815.6
-1793345.6
-1920666.4
-522066.08
-391726.13
-174518.28
-372325.76
-301932.17
-324360.44
-314180.16
-326831.22
-312200.85
-318453.39
-320783.05
-302969.96
-312601.4
-293370.11
-301796.62
-289652.67
-285623.6
-273346.11
-270744.08
-262368.06
-256679.9
-249692.81
-248066.32
-242744.15
-237215.06
-235213.04
-227100.84
-227345.22
-219379.19
-218829.91
-214856.59
-212190.46
-208198.45
-205559
-202800.5
-195106.52
-194526.69
-190785.33
-186729.19
-182619.62
-178361.27
-173942.91
-169428.6
-164722.62
-159994.55
-155186.4
-150242.13
-145266.26
-140220.46
-135187.05
-130107.61
-125011.17
-119909.17
-114765.6
-109607.14
-104361.86
-99144.444
-93813.871
-88469.4
-83110.608
-77681.109
-72309.491
-66910.269
-61614.588
-56369.042
-51260.621
-46481.644
-41422.776
-38111.091
-32802.862
-29740.435
-26302.858
-23275.99
-20702.479
-18479.435
-16611.929
-15067.481
-13845.459
-12784.297
-11929.401
-11168.696
-10507.263
-9807.7864
-9198.1816
-8450.235
-7719.4831
-6853.7715
-5993.1685
-5001.0667
-4042.4199
-3051.8049
-2084.1647
-1234.7833
-440.95588
136.43258
843.20088
1198.5559
1233.1099
1515.8061
888.78947
1019.4218
170.89139
289.23318
-504.18855
-1274.051
-1002.8427
-1392.8616
-1163.4337
-1513.8266
-470.67853
339.86135
792.93234
1576.1352
2526.3028
3799.0657
5138.3528
6531.443
7924.4831
9292.3297
10604.618
11788.475
12800.561
13782.738
14693.997
15550.245
16498.691
17449.733
18526.324
19825.761
21260.562
23054.279
25145.16
27624.585
30391.683
33700.495
37064.842
40295.566
46008.884
50119.819
54999.018
60181.462
65659.57
71019.349
76609.282
82199.667
87742.109
93331.693
98754.171
104193.21
109477.62
114729.41
119828.76
124951.59
129910.3
134914.63
139815.13
144752
149619.1
154530.82
159342.13
164264.19
168860.74
173865.37
178640.52
182822.48
187465.94
191610.17
193515.77
201447.66
204174.85
205783.87
213254.15
214787.83
218956.73
219433.29
227616.94
226929.6
235042.43
236800.44
242704.66
246264.59
249302.63
258035.36
262632.09
266109.68
275037.37
278838.88
286547.68
291798.52
299972.86
309697.01
308183.33
315202.09
323364.43
331066.84
329117.35
337206.32
335292.15
336310.79
330586.71
327710.62
342152.79
333935.34
308154.6
393272.28
907457.66
970504.93
1020717.2
1062317.7
1082925.5
1114633.4
1113379
1127844.7
1115131.7
1089256.3
1108280.1
1039796.7
1001496.1
1053420.7
831914.36
-1453222.9
-1835275.6
-1818044
-1962370.7
-1913478.6
-1828849.9
-2101156.5
-2242495.3
-2099600.6
-2107825
-2023155.3
-1953103
-1837376.1
-1813537.8
-1705567.5
235.57232
342.00095
586.0259
760.29826
891.14024
944.67998
986.56548
888.73726
772.10589
510.65214
327.11284
-2.4243702
-146.0396
-386.28098
3.0784829
184.68265
268.29127
168.98442
-62.455799
-360.40798
-608.90597
-874.0746
-1049.8023
-1117.168
-1132.4213
-1039.915
-825.73162
-635.54889
-304.35816
-217.21168
311722.39
317423.39
282332.42
284489.49
289513.24
293234.63
294143.69
295883.84
295687.4
293674.19
290655.75
289952.18
284214.38
280230.79
274671.24
272026.79
264891.59
260589.87
254664.93
249802.66
245016.75
240173.04
234913.68
230409.84
225766.56
221818.87
217274.78
213635.57
209813.02
206400.79
202550.64
198975.01
196161.61
192301.54
189182.01
185597.77
182089.91
177754.17
174273.43
170610.09
166693.63
162414.23
158219.91
153577.22
148987.57
144445.92
139560.97
134946.13
129979.45
125228.04
120251.28
115409.97
110419.6
105499.4
100510.85
95534.082
90517.851
85512.634
80519.939
75516.693
70558.824
65631.562
60848.777
56178.079
51375.121
47145.592
42528.356
38677.781
34907.348
31781.846
28587.169
25847.121
23152.924
20782.024
18546.235
16729.729
14983.642
13559.466
12192.162
11197.619
10113.191
9313.355
8524.3139
8012.7742
7390.018
6707.9133
6031.6768
5312.3106
4659.9647
3926.7993
3227.2955
2547.7045
1782.1233
946.1259
171.99278
290786.6
267125.39
234038.46
243238.92
242789.58
245696.42
246772.52
249583.05
249385.78
250235.11
248039.86
247028.37
243652.27
242037.63
237517.61
234108.21
229438
226304.22
221232.96
217299.04
212628.82
207857.78
203970.28
199907.62
196056.31
191841.51
188640.09
184934.66
181567.38
178164.13
175208.65
172056.44
168876.45
165831.04
162910.34
159635.41
156355.09
153255.19
149891.78
146366.12
142656.44
139357.49
134940.06
131180.87
127023.14
123041.16
118758.5
114670.98
110271.87
106105.02
101688.13
97438.79
93049
88751.906
84412.306
80095.495
75800.167
71547.01
67300.881
63129.419
59001.123
54973.277
51079.8
47165.856
43591.934
40182.124
37314.961
33836.787
31455.99
28363.319
25547.969
22993.748
20525.273
18318.449
16344.613
14690.309
12976.352
11732.203
10451.099
9481.7632
8501.4383
7709.4944
7172.8294
6544.9121
6259.0453
5558.7934
5033.5427
4567.0286
3996.4866
3594.0466
2889.1613
2479.0874
1780.2796
797.14042
57.263692
233730.47
227020.97
192662.97
202750.31
198168.9
203374.79
205585.11
208371.81
208084.05
208876.17
208025.72
207751.42
205308.25
203358.85
200492.02
198310.45
194443.62
191482.15
187653.24
184505.73
180882.21
177553.37
174162.88
170697.88
167106.07
164050.06
160784.61
157572.59
154740.52
151754.96
148928.67
146045.5
143425.63
140626.87
137987.36
135190.49
132721.35
129985.12
127272.27
124194.53
120878.46
117616.49
114594.75
111249.1
107855.27
104260.5
100621.1
96939.524
93182.092
89440.121
85606.93
81856.925
78007.027
74259.368
70455.305
66717.759
63006.064
59325.975
55692.27
52127.323
48620.195
45201.262
41843.292
38546.379
35563.359
32656.896
29975.417
27425.313
25013.581
22786.518
20641.423
18645.503
16723.63
15005.576
13360.101
11930.423
10666.814
9493.6082
8511.6849
7647.9283
6841.8216
6297.1505
5641.6718
5367.2018
5201.4268
4650.1463
4359.4028
3916.2452
3639.7178
3210.4294
2750.8709
2319.7854
1714.3932
648.2831
97.699423
185174.76
182988.07
148947.66
161022.74
153913.27
160602.47
161196.22
163654
163690.51
165912.88
164824.46
165326.49
162805.06
163142.93
159800
158964.74
155430.65
154282.52
150734.61
148633.29
145309.25
142849.48
139821.97
137027.78
134555.67
131783.33
129353.68
126833.64
124424.51
121962.32
119808.05
117418.37
115229.46
112920.43
111075.13
108259.1
106299.21
103253.23
100950.91
98353.151
96453.615
93797.017
91072.412
88193.352
85426.07
82551.634
79634.986
76715.751
73694.855
70698.014
67640.061
64630.273
61573.55
58587.391
55582.552
52665.978
49751.986
46917.598
44128.376
41421.093
38770.796
36183.917
33674.467
31276.976
28940.649
26640.419
24617.658
22497.409
20138.22
18385.542
16642.192
14608.261
12918.231
11336.598
10034.666
8860.2264
7836.212
6964.2122
6189.0452
5551.4905
5030.1266
4562.873
4238.0012
3871.5772
3513.4233
3385.301
3188.423
2942.8941
2737.1599
2458.0362
2112.3034
1814.6444
1212.4545
420.2787
-32.833688
149553.46
134658.8
108920.35
119274.77
115893.69
119790.13
121291.54
122998.44
123054.59
124274.15
123927.04
123555.48
123066.21
122097.38
120469.93
119570.13
117071.02
116030.07
113376.77
111952.43
109781.05
107997.17
105723.04
104056.93
101932.08
99928.573
98056.87
96044.244
94277.661
92495.926
90721.768
88937.15
87308.524
85718.373
84040.607
82306.366
82080.123
81574.965
79993.473
80249.527
77633.092
75725.244
73928.18
71818.315
69710.812
67401.81
65048.836
62630.418
60184.561
57701.783
55193.979
52727.939
50214.326
47767.791
45331.403
42946.735
40588.763
38298.59
36061.137
33863.874
31737.222
29617.733
27656.791
25658.358
23620.678
22016.951
19908.564
18465.034
16609.998
15017.928
13622.942
12112.016
10106.751
8654.0465
7672.5506
6650.4175
5894.1073
5158.533
4568.3592
4069.723
3632.5378
3340.706
3050.8613
2845.006
2788.0934
2652.959
2604.5508
2350.613
2317.9274
2015.855
1865.9509
1488.944
1144.1533
325.79456
157.06459
92057.034
92359.166
70808.547
81363.493
75305.603
78139.93
79354.757
80974.997
80063.61
82401.146
80647.511
82071.836
80016.463
80797.816
78664.766
78820.659
76762.848
76807.593
74430.868
74119.53
72098.028
71094.096
69585.635
68426.206
66962.612
65769.093
64589.934
63319.669
62222.832
60914.25
59862.945
58669.984
57705.307
56513.791
55423.425
54696.023
54272.362
54032.777
54668.699
53918.995
53839.104
52386.812
50990.357
49621.567
48160.823
46596.881
44979.246
43368.66
41670.556
39975.869
38256.686
36544.198
34812.971
33131.575
31453.329
29811.58
28216.416
26660.414
25135.038
23666.274
22227.022
20859.21
19466.234
18132.267
16923.26
15505.335
14394.348
13191.008
12001.133
10937.454
9711.6615
8614.3353
7537.29
6711.8867
5772.8654
5129.3256
4369.1092
3829.1777
3261.611
2895.7869
2483.2721
2257.2521
2037.286
1907.6326
1827.0427
1689.5326
1723.1327
1532.0906
1673.6908
1388.5032
1472.0853
1154.2866
971.65361
367.77072
-47.556932
46531.036
41919.901
33307.28
40945.923
35795.117
37851.53
38993.305
39138.871
38687.53
39034.516
39238.191
38475.466
38559.812
38529.558
37423.451
37960.732
36546.339
36853.99
35533.192
35930.29
34595.483
34814.28
33794.562
33557.423
32830.465
32434.434
31772.855
31291.659
30714.657
30254.936
29826.459
29351.17
28944
28443.419
28257.348
27779.394
27547.299
27516.043
26620.31
25692.902
25480.695
25038.595
24350.123
23966.356
23358.788
22746.464
22003.751
21341.117
20526.107
19780.139
18965.987
18182.198
17373.216
16605.768
15826.508
15081.706
14358.409
13649.795
12957.557
12291.608
11641.103
10979.134
10343.876
9716.86
9025.2965
8438.9682
7727.0669
7038.2978
6353.4543
5717.996
5065.3776
4447.6657
3802.8916
3207.161
2690.6938
2199.5685
1701.8251
1327.9099
986.59966
760.99662
531.53834
476.61332
364.71007
394.6455
441.39697
502.15845
710.02845
666.32318
990.32764
730.71337
1106.8953
671.41792
843.79976
177.60927
231.2247
-6478.3614
-719.86943
-6140.0649
-366.77567
-2995.9994
-1766.8001
-2173.1297
-1520.84
-4031.8142
-1632.3998
-3755.6932
-2684.6619
-3398.3086
-2772.8199
-3453.5905
-2342.4882
-3386.4009
-1952.6422
-2881.7038
-1891.7075
-2429.8717
-1611.4157
-2294.0608
-1643.5579
-1866.798
-1598.31
-1497.5574
-1390.419
-1245.2311
-1166.0445
-988.15123
-956.21206
-722.7087
-489.40618
-278.22142
-166.47966
469.86818
439.93543
1037.4331
998.51266
1382.7784
1751.6277
1771.1539
1948.2297
2111.6105
2151.8958
2227.3609
2311.0549
2309.8301
2325.4175
2313.2533
2308.1788
2276.1601
2268.1092
2268.4578
2264.4453
2294.0563
2331.2732
2371.7391
2445.2387
2496.971
2571.6459
2627.8432
2663.3382
2716.5677
2658.4663
2628.5313
2561.8964
2412.9622
2241.487
2004.2767
1733.2241
1321.7264
1044.6588
796.19865
566.71469
211.39792
-56.936521
-295.40319
-518.66012
-659.36345
-772.73491
-782.26564
-799.72606
-655.29608
-614.50015
-337.97587
-316.17496
118.63259
0.75494973
513.05601
246.76352
530.97673
219.3286
241.61254
-47818.809
-46582.677
-41139.61
-38917.343
-40354.303
-42145.875
-41776.387
-43895.653
-43897.875
-44781.876
-44388.658
-44772.807
-44373.151
-43491.606
-43473.565
-42150.892
-42173.884
-40291.009
-40919.026
-38700.524
-39068.727
-37425.734
-37329.829
-35658.695
-35499.279
-34134.25
-33806.557
-32743.673
-32151.508
-31278.07
-30548.851
-29764.058
-28835.213
-28081.132
-27220.516
-26170.938
-25468.578
-24368.358
-23441.042
-22489.96
-21593.36
-20604.985
-19851.786
-18856.947
-18026.268
-17244.084
-16504.128
-15727.377
-15082.061
-14393.22
-13742.74
-13091.357
-12482.474
-11825.581
-11196.917
-10568.496
-9906.5911
-9260.4905
-8611.1159
-7956.4717
-7311.273
-6692.8811
-6081.2601
-5506.1735
-5003.0412
-4512.1866
-4053.2471
-3676.4854
-3378.2688
-3069.6472
-2907.3046
-2717.2068
-2639.2504
-2440.3257
-2787.4548
-2933.4636
-2906.6552
-2873.7176
-2911.2008
-2839.1054
-2806.8265
-2646.7527
-2543.0913
-2289.7669
-2075.38
-1801.3289
-1427.1838
-1249.134
-686.44398
-748.91427
5.2504397
-264.79121
347.55065
109.71633
310.70905
-96262.85
-92689.426
-78685.83
-79830.401
-82241.413
-83206.192
-85421.569
-85234.601
-88332.456
-86986.404
-87617.89
-87313.328
-86235.739
-84922.491
-84418.713
-82029.75
-81264.351
-78976.472
-78015.514
-75499.695
-74881.015
-71572.844
-70550.47
-68282.925
-67507.295
-65746.709
-64734.072
-63088.106
-61969.422
-60598.284
-59379.293
-58049.758
-56781.716
-55485.772
-53892.254
-52771.416
-51038.344
-49774.377
-48134.484
-46774.492
-45233.091
-43721.363
-42213.033
-40772.663
-39267.675
-37845.749
-36399.402
-34947.59
-33583.096
-32185.23
-30811.974
-29467.106
-28128.064
-26774.628
-25445.405
-24114.637
-22757.158
-21423.703
-20085.629
-18731.145
-17410.242
-16099.316
-14791.941
-13571.709
-12348.682
-11215.254
-10139.386
-9211.7505
-8308.3314
-7540.4128
-6858.8606
-6276.675
-5822.8652
-5172.7689
-4926.3827
-5201.2684
-4837.9545
-4803.0202
-4554.6233
-4495.5003
-4231.1349
-4149.4431
-3815.3423
-3623.0834
-3237.8079
-2916.409
-2454.9726
-2113.9634
-1551.7665
-1308.5341
-653.35522
-594.02068
-34.458933
100.53925
50.628401
-144825.68
-115460.95
-106871.29
-109522.47
-113088.32
-114979.54
-117104.29
-119048.95
-120755.42
-120274.19
-120400.03
-119695.1
-118238.97
-116492.61
-115258.69
-111993.87
-111494.82
-107562.08
-107040.54
-103943.87
-103568.44
-103211.88
-103126.99
-100549.84
-99880.836
-96932.98
-95867.343
-93266.689
-91861.194
-89651.035
-87935.177
-86020.311
-84227.296
-82156.186
-80311.918
-78182.615
-76234.281
-74143.493
-72060.706
-69963.57
-67877.428
-65703.215
-63663.129
-61531.094
-59453.586
-57389.069
-55395.716
-53354.302
-51413.231
-49430.587
-47497.022
-45558.651
-43644.508
-41709.951
-39798.941
-37876.818
-35944.591
-34031.525
-32104.419
-30190.297
-28294.94
-26420.988
-24587.357
-22809.52
-21078.787
-19447.148
-17850.845
-16346.85
-14945.192
-13631.517
-12457.644
-11454.297
-10400.254
-9632.8938
-8762.9414
-7756.5348
-7187.6505
-6734.905
-6353.8905
-6029.0963
-5782.8857
-5424.174
-5150.5871
-4774.4441
-4393.042
-3957.4156
-3475.3044
-2991.0629
-2401.3595
-1986.4835
-1311.6415
-1048.6582
-371.70503
-139.49914
540.07333
-171257.48
-163541.96
-150942.46
-148830.4
-153478.56
-154065.92
-159074.94
-159655.91
-161024.11
-160931.91
-160713.99
-158567.97
-157522.29
-154145.71
-152322.57
-148966.92
-146285.78
-142714.66
-140732.46
-136567.05
-135325.83
-131072.77
-132433.32
-130371.47
-128534.73
-125780.59
-124030.92
-121166.8
-119268.63
-116611.7
-114718.81
-112225.74
-110121.81
-107866.85
-105411.28
-103230.85
-100634.56
-98262.541
-95640.318
-93156.805
-90466.645
-87922.527
-85260.874
-82656.344
-80009.815
-77378.382
-74778.662
-72130.397
-69544.239
-66958.073
-64370.116
-61805.822
-59249.817
-56682.498
-54125.906
-51565.291
-48991.649
-46418.658
-43838.873
-41258.01
-38676.724
-36134.772
-33583.245
-31107.634
-28675.003
-26357.096
-24058.921
-21992.008
-19965.842
-18139.495
-16488.028
-14934.299
-13632.904
-12417.409
-11642.569
-10784.728
-9869.9241
-9252.8948
-8674.8338
-8270.6665
-7787.1625
-7388.8271
-6930.7433
-6484.4184
-5944.9886
-5397.1752
-4766.1448
-4118.6216
-3396.8733
-2791.2337
-1923.2808
-1576.6665
-658.43763
-373.28096
205.12328
-242438.75
-218802.07
-188352.9
-200643.81
-197963
-206096.79
-206131.29
-209530.17
-209080.68
-209461.24
-207576.42
-206255.09
-202847.03
-200192.23
-196498.44
-192566.68
-188980.56
-184480.53
-181275.46
-176671.13
-174002.98
-169408.39
-166015.24
-161679.93
-159343.66
-155707.75
-153851.93
-150165.42
-147935.71
-144738.61
-142272.78
-139109.69
-136762.5
-133806.49
-131146.31
-128186.99
-125166.54
-122192.44
-119153.62
-116018.44
-112937.15
-109743.07
-106554.2
-103335.8
-100125.48
-96905.842
-93731.69
-90505.926
-87356.419
-84181.979
-81014.327
-77863.523
-74715.065
-71549.65
-68395.037
-65232.514
-62055.3
-58883.159
-55707.736
-52532.975
-49381.367
-46247.358
-43149.602
-40107.068
-37165.622
-34277.645
-31488.448
-28871.27
-26341.946
-23986.604
-21796.652
-19820.026
-17999.874
-16393.261
-14999.98
-13683.443
-12666.052
-11742.33
-10929.084
-10217.336
-9584.3524
-8970.735
-8386.765
-7793.8903
-7149.636
-6491.1814
-5771.7083
-5014.5186
-4237.187
-3455.8659
-2606.7941
-2047.1296
-1106.9993
-617.99757
188.46799
-267765.93
-254057.54
-217912.11
-235234.84
-237943.74
-243221.79
-244854.2
-248370.01
-247689.27
-246495.92
-246020.03
-241722.61
-239215.19
-235163.7
-230051.6
-225937.36
-221146.38
-215417.83
-211710.31
-206007.2
-201931.03
-197564.03
-193894.79
-190561.15
-186758.84
-183233.1
-179975.7
-176552.34
-174129.35
-170644.51
-167991.34
-164718.55
-161744.67
-158535.52
-155557.37
-152629.21
-149202.86
-146085.66
-142494.27
-139092.19
-135462.76
-131844.04
-128182.43
-124468.38
-120758.18
-117004.63
-113253.5
-109494.4
-105739.39
-101986.02
-98221.945
-94471.048
-90702.734
-86921.93
-83123.639
-79309.566
-75455.264
-71591.41
-67688.096
-63787.02
-59853.848
-55953.52
-52057.027
-48207.312
-44455.908
-40712.863
-37165.713
-33893.672
-30719.38
-27761.683
-25092.184
-22715.16
-20485.423
-18660.889
-16984.902
-15611.851
-14449.807
-13518.759
-12645.551
-11998.208
-11336.057
-10754.985
-10125.183
-9496.841
-8748.022
-7982.7822
-7080.8653
-6145.6769
-5124.7555
-4084.0991
-3051.7222
-2113.0956
-1110.3866
-419.45711
105.94867
-377913.72
-248905.73
-269103.29
-271075.3
-280653.49
-277342.61
-285085.2
-285301.58
-284089.41
-283765.35
-280116.07
-278313.92
-273089.9
-268693.52
-263201.86
-257878
-253085.75
-246963.48
-242049.31
-235756.16
-231114.99
-225549.1
-222108.5
-217138.42
-214340.09
-208751.7
-206044.3
-201255.73
-199144.43
-195140.73
-192337.66
-188674.03
-185370.85
-181614.03
-177816.48
-174914.09
-171303.48
-167636.18
-163719.6
-159815.46
-155729.24
-151631.83
-147405.74
-143138.78
-138854.62
-134508.22
-130194.53
-125853
-121510.63
-117183
-112836.34
-108500.17
-104149.95
-99772.676
-95390.183
-90964.817
-86507.546
-82017.626
-77499.727
-72940.756
-68383.338
-63830.251
-59294.904
-54821.902
-50435.135
-46069.593
-41948.96
-38023.267
-34392.926
-30977.946
-28026.741
-25168.375
-22737.261
-20612.428
-18821.065
-17294.975
-16116.18
-15043.619
-14197.478
-13450.842
-12798.062
-12113.182
-11467.532
-10697.251
-9894.8142
-8955.0478
-7948.0927
-6832.4008
-5668.8154
-4486.2408
-3323.9357
-2227.5121
-1244.9933
-466.96446
224.00442
657767.32
677924.21
658774.36
677756.15
681792.18
686931.75
710356.58
695601.75
689609.34
688581.59
683785.23
660891.23
653070.79
690494.34
577221.24
625713.97
643371.1
614108.63
635631.6
636940.31
650979.24
632889.94
655935.67
649605.32
653374.17
640933.19
636395.42
636268
642649.86
543220.13
463317.5
534876.38
471319.37
493791.85
493936.64
488891.71
495963.48
490920.98
495223.28
488216.32
487586.77
490557.58
459119.29
506954.37
457189.55
403293.37
415230.21
413112.08
408214.47
422027.82
417251.24
424633.4
423759.95
420555.86
421923.57
421643.86
407937.06
406900.18
438768.21
302524.58
285190.48
325229.02
284460.83
310115.53
298023.52
310515.84
305539.82
306569.57
307037.77
307391.79
302682.36
302799.72
300104.23
308344.31
271673.27
210115.65
222883.13
207649.36
215562.41
215775.78
217121.4
215860.88
216296.29
217252.92
216537.12
209240.6
218480.33
203599.09
217884.08
204810.85
109166.43
110355.85
113409.09
106840.93
113540.44
113286.87
112543.45
111838.81
111276.99
111963.06
110121.45
105168.22
113608.99
106142.58
109046.47
13431.847
14037.249
7118.7928
14435.968
10345.269
12180.784
10624.907
11434.891
9162.0133
15034.481
1185.3273
14919.891
19010.67
-3896.077
47967.494
-77127.543
-88365.111
-75440.352
-84924.103
-81303.725
-83174.338
-83200.877
-83498.92
-85232.659
-78805.352
-90320.427
-76316.73
-77815.773
-98030.354
-15801.139
-158007.67
-191513.12
-172022.19
-177573.44
-178664.09
-180785.28
-183648.65
-182832.81
-188082.5
-177572.35
-200653.46
-172376.72
-173427.05
-207290.26
-115528.07
-260528.81
-311204.79
-264629.72
-294144.97
-280233.15
-289179.07
-286300.99
-287771.64
-289383.71
-277368.79
-285035.22
-278597.12
-263161.95
-291463.35
-187936.19
-379373.94
-361203.62
-364904.19
-354950.24
-372710.64
-372070.68
-376516.31
-379772.05
-381268.63
-376831.87
-395046.99
-345970.25
-366482.68
-399062.4
-285690.93
-438801.24
-482080.52
-427984.38
-448674.67
-429743.39
-445010.11
-440674.39
-440787.44
-437927.77
-432413.57
-438796.86
-442430.12
-402550.65
-481621.11
-257329.43
-544458.43
-646069.21
-566553.76
-610566.48
-629217.75
-622175.64
-628305.36
-658597.62
-642681.41
-660897.11
-620930.64
-607133.76
-621580.9
-601137.26
-558666.45
-600591.32
-523875.96
-478601.86
-482642.1
-503479.15
-542894.58
-518726.57
-500825.84
-480687.99
-476599.43
-486994.02
-489733.52
-487465.05
-544233.28
-485284.03
-539543.3
-507457.13
-603566.27
-634052.88
-659288.6
-716558.15
-689083.01
-644750.2
-733239.41
-718636.05
-695518
-658845.25
-632037.78
-600471.22
-501822.64
-383378.32
-387867.96
-435268.93
-449580.85
-465987.81
-483895.61
-497275.13
-511814.64
-528776.72
-502105.57
-491868.13
-460487.18
-463876.97
-457276.95
-458875.59
-309966.37
-357211.37
-349583.69
-384603.09
-409304.17
-395987.44
-416589.69
-412368.12
-398994.09
-417953.67
-400658.68
-407659.57
-392672.08
-346763.41
-361193.59
-314954.72
-360049.98
-364312.5
-373634.86
-383501.79
-392459.12
-395393.55
-398844.33
-398570.52
-388621.27
-388739.93
-378330.52
-363104.12
-356211.83
-334774.4
-335285.14
-367375.86
-359548.44
-386712.69
-390799.11
-398979.48
-407817.11
-406292.15
-409257.55
-408745.01
-396961.63
-389244.98
-370961.86
-355460.18
-349209.34
-324493.92
-339455.21
-347628.85
-362109.99
-367755.88
-377932.52
-377111.98
-379075.3
-379167.51
-372731.08
-370818.09
-362428.81
-351201.37
-342535.18
-323838.57
-322421.59
-346681.97
-347953.45
-362137.35
-364378.3
-372694.78
-375486.44
-376804.43
-376784.76
-372940.71
-365154.61
-360691.57
-350346.92
-335783.44
-337859.09
-324233.4
-330641.14
-340199.31
-345156.77
-356079.5
-357510.25
-361168.97
-362764.54
-360850.63
-358998.85
-354212.54
-348262.42
-340828.37
-330351.98
-322163.09
-316535.37
-331250.33
-334127.95
-344156.52
-344280.11
-352603.07
-350783.28
-353773.23
-352792.24
-348492.61
-345561.4
-339959.26
-334470.46
-327249.9
-322256.92
-316382.18
-319624.17
-325958.95
-328093.04
-334104.18
-335293.88
-338642.04
-338415.65
-337160.8
-337885.75
-332749.02
-330954.15
-325273.47
-319823.31
-316021.05
-308231.88
-316941.27
-318902.4
-325577.32
-327165.96
-332143.26
-331107.2
-334344.79
-333134.86
-331197.21
-330365.99
-327197.67
-322760.22
-319469.25
-316668.88
-306147.45
-307294.92
-312048.74
-313224.04
-316479.76
-316627.58
-319500.52
-319919.82
-320306.37
-319625.47
-318111.5
-315947.95
-313964.31
-310286.54
-308871.25
-300724.57
-302474.76
-303457.78
-307717.87
-308633.67
-312391.7
-312226.85
-314259.69
-313824.01
-313752.14
-311643.41
-311566.39
-307556.6
-307027.23
-304704.52
-293601.6
-294738.13
-298286.57
-297729.49
-300739.82
-300612.51
-301430.44
-302850.11
-302970.9
-301878.14
-301977.29
-301073.76
-299577.98
-298286.38
-298158.2
-288335.28
-288286.02
-290320.57
-291534.63
-293517.76
-293768.83
-295181.39
-295485.63
-296478.54
-297027.37
-296011.9
-296014.49
-293209.26
-294739.62
-293398.9
-280977.23
-281459.74
-284097.37
-283343.34
-284884.94
-284761.03
-287770.63
-285579.31
-285958.86
-285614.89
-285335.61
-285602.8
-282505.1
-283519.85
-282720.87
-275557.43
-274727.8
-276614.12
-275184.89
-278278.04
-278310.66
-278701.12
-279766.59
-279975.17
-280737.19
-280101.44
-281362.22
-280468.23
-279993.19
-281804.24
-269458.14
-268527.11
-270008.19
-268758.96
-270446.53
-270221.01
-271861.3
-271026.33
-271605.01
-271437.53
-271267.19
-271100.99
-271543.38
-270058.25
-270940.52
-262643.75
-261865.13
-263687.24
-263183.95
-264012.07
-263672.33
-263206.26
-265166.69
-264674.56
-265678.34
-264761.96
-266701.38
-265586.7
-268630.45
-267893.03
-256557.73
-256049.77
-256650.31
-255850.26
-257008.48
-257057.8
-258575.78
-257218.14
-259015.7
-258031.51
-257655.61
-259436.44
-257567.7
-259880.13
-258818.58
-251670.6
-249935.88
-251302.51
-249805.45
-251169.51
-249896.69
-251706.41
-252122.94
-251698.36
-252528.25
-252736.69
-254266.28
-253578.96
-255586.28
-255766.94
-244034.63
-245216.8
-244808.29
-244548.76
-244958.07
-244909.71
-245556.57
-245504.28
-246463.45
-246584.51
-246685.92
-248025.52
-247038.05
-247737.94
-248979.6
-240838.89
-239017.03
-239894.94
-239065.53
-240016.75
-239561.49
-240351.43
-240407.31
-240273.25
-241625.47
-241291.97
-242237.84
-241397.3
-244433.14
-243801.19
-234731.78
-234202.09
-234660.07
-234309.4
-234716.97
-234436.49
-235602.34
-234812.73
-236224.8
-236097.26
-236095.44
-238213.29
-237261.57
-238907.82
-238609.59
-230979.02
-229803.04
-230053.82
-229418.04
-230255.86
-229548.18
-231003.29
-230750.15
-231157.04
-231933.84
-230886.92
-232785.04
-232449.45
-233924.61
-234376.44
-226958.01
-224367.92
-226077.79
-224457.4
-225994.83
-225464.66
-226500.64
-226160.29
-227147.06
-227507.75
-228513.2
-228872.85
-227810.86
-230720.47
-229529.28
-222262.18
-221044.42
-221739.77
-221370.01
-221758.09
-222252.22
-222407.81
-222995.56
-222977.99
-223599.43
-223476.61
-225233.54
-223995.27
-225596.83
-226586.23
-219190.05
-216801.25
-217661.39
-217587.01
-218670.43
-218250.77
-218911.58
-218872.59
-219883.62
-219926.72
-220482.78
-221077.51
-220640.8
-223052.2
-221786.69
-214416.02
-214429.49
-214978
-214072.43
-215042.89
-214975.99
-215574.74
-215940.53
-216186.95
-216832.84
-216579.35
-217812.11
-217459.66
-218237.37
-219496.44
-212414.58
-209847.21
-211594.3
-210909.23
-212299.55
-211569.72
-212367.04
-212626.87
-213365.83
-213288.5
-213702.99
-214663.77
-213821.37
-215795.27
-215658.39
-208604.94
-207218.98
-208288.63
-208041.29
-208704.55
-209173.87
-209542.91
-209465.68
-209797.36
-210713.76
-210636.89
-211673.84
-210956.23
-212008.13
-212369
-205630.36
-203652.98
-205285.27
-204827.28
-205779.12
-206040.87
-206369.55
-206686.24
-206941.78
-207465.98
-207482.46
-208524.02
-207881.37
-209094.59
-209066.12
-202237.08
-200641.31
-202033.75
-201801.96
-202854.43
-202750.88
-203437.77
-203469.24
-204106.51
-204429.64
-204524.37
-205386.81
-204776.81
-205652.03
-205758.73
-198763.1
-197354.2
-198783.92
-198623.65
-199577.97
-199699.64
-200333.37
-200487.23
-200972.11
-201295.96
-201352.19
-202200.4
-201637.76
-202527.51
-202484.06
-194935.75
-194126.09
-195483.14
-195162.08
-196183.28
-196549.05
-196816.47
-197402.64
-197414.77
-198324.97
-197779.88
-199065.78
-197935.68
-199247.11
-198490.17
-190684.75
-191211.03
-191401.26
-192829.64
-192458.69
-193204.38
-193446.34
-193789.68
-194186.92
-194522.69
-194719.19
-195240.42
-195073.25
-195175.37
-196222.68
-188347.74
-186562.2
-188288.38
-188049.69
-189549.11
-189093.11
-190268.26
-189925.93
-190903.36
-190526.41
-190900.47
-191818.19
-191006.85
-191936.63
-191645.64
-183764.36
-183221.86
-184278.34
-184736.67
-185133.49
-185760.89
-185965.76
-186499.84
-186732.75
-187096.08
-187084.82
-187821.86
-187361.67
-187781.36
-187886.08
-180243.57
-178778.74
-180395.51
-180340.88
-181381.17
-181405.07
-182164.24
-182230.66
-182683.71
-183058.67
-182997.23
-183902.15
-183133.91
-183855.53
-183710
-175707.53
-174798.67
-176121.67
-176334.65
-177055.13
-177399.14
-177920.96
-178047.91
-178600.1
-178814.83
-178855.44
-179524.3
-179011.94
-179601.81
-179548.18
-171501.85
-170309.03
-171787.05
-171759.01
-172684.48
-172797.64
-173430.31
-173576.62
-174067.49
-174382.33
-174339.24
-175131.65
-174552.65
-175248.2
-175102.28
-166938.67
-165934.84
-167223.97
-167348.77
-168146.03
-168347.69
-168989.07
-169036.52
-169616.75
-169805.64
-169878.17
-170586.01
-170083.45
-170724.34
-170608.86
-162457.62
-161270.33
-162636.1
-162605.75
-163440.87
-163655.58