/*--------------------------------*- C++ -*----------------------------------*\
  =========                 |
  \\      /  F ield         | OpenFOAM: The Open Source CFD Toolbox
   \\    /   O peration     | Website:  https://openfoam.org
    \\  /    A nd           | Version:  6
     \\/     M anipulation  |
\*---------------------------------------------------------------------------*/
FoamFile
{
    version     2.0;
    format      ascii;
    class       pointVectorField;
    location    "0.43";
    object      lm;
}
// * * * * * * * * * * * * * * * * * * * * * * * * * * * * * * * * * * * * * //

dimensions      [1 -2 -1 0 0 0 0];

internalField   nonuniform List<vector> 
3969
(
(-4.0340813e-15 -4.7705825e-17 1.3312818e-16)
(9.2297575e-16 -2.6090405e-16 -6.0252577e-16)
(1067.1799 -283.23939 -16.682217)
(892.70713 -667.88475 18.604906)
(-7.1783695e-15 2.6020842e-15 -1.0366567e-15)
(-4.622429e-15 2.1493156e-15 -1.5432914e-15)
(876.62852 -679.45569 3.1069752)
(1034.7116 -284.18427 -6.6921912)
(-6.09887e-15 1.0869625e-16 -2.0095736e-16)
(-3.193382e-15 6.5333688e-16 6.3735029e-17)
(-2.9260211e-15 2.9260844e-16 -4.8432863e-17)
(-1.7497804e-15 -1.5755452e-16 -2.074758e-16)
(-4.3254872e-15 8.6218995e-16 7.3228779e-16)
(-2.4697388e-15 -4.9707839e-16 4.8086129e-16)
(5.2680668e-16 -4.7467027e-16 -5.3018058e-16)
(1040.1887 -342.36453 -16.624934)
(1012.14 -394.3507 -16.191051)
(987.55868 -439.43107 -11.184149)
(967.2203 -480.11841 -3.7679598)
(949.85426 -521.03774 4.469211)
(933.09066 -565.00841 11.396874)
(915.06572 -613.70875 16.023053)
(-18.69693 -10.563234 -2.112571)
(-41.232813 -16.668653 4.5471516)
(-60.176528 -19.508762 15.560137)
(-76.637712 -21.420728 22.238715)
(-87.551324 -20.686061 25.60295)
(-92.161756 -20.975939 24.408136)
(-94.8006 -20.893243 21.618581)
(-95.584315 -21.027872 18.956687)
(-99.644053 -20.011875 19.900058)
(-106.4296 -17.376737 24.966999)
(-117.20802 -11.709147 35.71036)
(-129.25101 -3.9049583 49.905664)
(-138.81816 6.1393591 65.599291)
(-141.88009 15.966422 78.780867)
(-134.76709 23.635698 85.75753)
(-114.80985 26.849157 84.550037)
(-82.047459 23.674053 74.39961)
(-39.362839 13.099982 56.019136)
(8.809798 -4.4077512 32.551286)
(56.086343 -27.308228 8.0723849)
(96.224379 -52.764037 -12.779899)
(124.15982 -77.52204 -26.272747)
(137.13076 -98.256543 -29.939974)
(135.34024 -112.39404 -23.552445)
(121.80241 -118.35311 -8.8077609)
(102.04206 -116.24479 11.025179)
(82.536923 -106.97135 31.75193)
(69.612484 -92.916462 49.416236)
(68.258978 -76.774281 61.208885)
(81.19197 -61.185314 65.847698)
(108.36076 -48.327367 63.915234)
(147.4467 -39.457646 57.587159)
(194.56313 -35.015763 50.013597)
(245.23629 -34.627711 44.193683)
(295.73625 -37.440702 42.554198)
(344.09545 -42.718948 45.950974)
(389.34102 -49.771432 53.244609)
(433.79893 -58.545471 62.999318)
(479.73452 -69.35791 71.583809)
(530.38236 -82.848234 75.914564)
(587.80646 -99.605474 74.338178)
(653.01726 -120.28818 65.801384)
(724.57852 -144.71272 51.32979)
(799.7788 -171.82244 34.137859)
(874.27019 -200.16074 16.145023)
(944.85036 -230.58597 2.3419174)
(1009.3681 -258.90583 -8.1410448)
(-17.58213 27.631427 28.127632)
(-29.189193 37.22469 37.773684)
(-53.573661 40.631251 35.97181)
(-68.007863 43.215562 39.538982)
(-81.202716 42.829297 36.361913)
(-88.11702 43.08307 37.125591)
(-91.994468 46.132145 35.978128)
(-94.741498 49.270236 36.399238)
(-97.395958 54.652764 36.671546)
(-101.92897 58.079452 36.915272)
(-109.38316 61.457815 36.319094)
(-117.49471 58.801658 36.155573)
(-125.40562 51.403064 35.208047)
(-128.99138 37.338108 34.089767)
(-125.7218 17.867975 33.447002)
(-112.47217 -5.5358564 33.782994)
(-88.262322 -30.081797 35.628998)
(-53.658765 -52.159449 39.30042)
(-11.132305 -69.272194 44.673819)
(34.85289 -78.643405 51.118859)
(79.166682 -79.57895 57.696365)
(116.57337 -72.779898 63.176537)
(142.81206 -60.027927 65.912394)
(155.33697 -44.48599 65.038004)
(154.54878 -30.210101 59.798248)
(142.93964 -20.211209 50.526229)
(124.67047 -17.315299 38.14028)
(105.48786 -23.169696 23.995048)
(90.762435 -37.919152 9.9892861)
(84.926883 -60.542852 -2.0036)
(90.715545 -89.173434 -10.341128)
(108.70596 -121.56309 -14.142346)
(137.52334 -155.68214 -13.233274)
(174.2964 -190.00761 -8.4456309)
(215.62163 -223.94003 -1.1805568)
(258.292 -257.68775 6.8565082)
(300.22232 -291.84204 13.663169)
(340.89371 -327.46069 17.906779)
(381.00694 -365.23503 19.212069)
(422.82 -405.32539 17.583549)
(468.37349 -447.05647 14.035955)
(519.56895 -489.04892 9.8168852)
(577.03884 -529.47411 5.9909722)
(640.09379 -566.48322 4.0394719)
(706.45779 -598.52371 4.1451011)
(773.11094 -625.45821 6.9072076)
(836.67368 -647.76494 11.784408)
(-3.9179893e-16 -2.8384427e-17 -1.6191597e-16)
(6.8869455e-16 3.3255846e-16 -2.9305012e-16)
(-3.0379221e-16 -4.0639439e-16 3.7376104e-16)
(8.6048107e-16 -8.7588792e-17 1.0515471e-16)
(5.0258192e-16 -7.4376592e-16 6.4035694e-16)
(-2.9679417e-15 -3.4669267e-16 7.3060073e-16)
(8.9003905e-16 -2.834795e-16 1.0120244e-16)
(-16.280355 9.1990501 -9.2214935)
(-32.587196 14.04334 2.141003)
(-57.555782 27.059604 17.826394)
(-75.549112 23.433128 24.189474)
(-84.094964 26.235361 28.514412)
(-86.049036 26.445287 24.123025)
(-81.687563 23.991963 19.155149)
(-79.808634 23.680047 12.726312)
(-79.064917 19.328892 13.93926)
(-86.902141 21.584409 17.962563)
(-99.971701 17.172488 33.025289)
(-116.79536 17.935118 48.875353)
(-134.31581 13.081827 69.769631)
(-145.58615 6.4206992 85.743464)
(-145.9537 -4.0255608 95.054377)
(-131.20254 -19.770174 93.958858)
(-101.29715 -37.589719 82.07927)
(-58.415505 -57.712559 61.669611)
(-7.7994807 -75.926417 36.504619)
(43.45988 -90.304903 11.976223)
(88.09632 -98.172364 -6.7333137)
(119.98019 -98.552509 -15.66005)
(135.54304 -91.634767 -12.915877)
(134.16456 -79.431491 0.85083564)
(118.81492 -64.994083 22.72954)
(94.960279 -53.098811 47.464346)
(70.328055 -47.585212 70.517764)
(49.506215 -50.721206 87.358599)
(38.408415 -64.701546 96.420697)
(39.819856 -88.827502 96.742656)
(54.511875 -121.50951 89.85309)
(80.713057 -159.77353 78.77759)
(115.03049 -200.37894 67.260618)
(153.494 -240.21345 58.739337)
(192.67219 -276.70504 55.617536)
(229.71253 -310.05533 58.305522)
(265.25014 -340.98222 66.156741)
(300.22244 -367.74921 76.134234)
(337.47926 -395.61967 84.922995)
(379.47793 -425.38198 89.330975)
(428.78601 -457.76012 87.462833)
(486.3742 -492.97221 78.685706)
(551.19446 -529.68067 64.400222)
(620.56742 -566.07508 47.315021)
(690.68679 -599.99214 30.812729)
(757.66738 -629.95416 17.674686)
(818.88889 -655.32629 9.9062448)
(899.74539 -619.50078 -2.3321966)
(916.92048 -565.51731 -4.9699129)
(931.05622 -517.15697 -4.5081446)
(947.24463 -474.57263 -2.0581535)
(964.19082 -432.52635 1.3110333)
(987.30852 -390.51023 1.7687671)
(1011.0784 -339.04346 -1.0525216)
(980.80175 -260.17652 -9.2060726)
(923.94281 -227.39593 -7.9051273)
(861.83012 -197.24573 -6.5150522)
(795.26384 -171.11857 -3.0697717)
(727.53491 -150.92327 2.2054706)
(660.38422 -136.85217 8.1640814)
(595.56828 -127.95413 13.601842)
(533.93182 -122.27431 17.154715)
(475.84533 -117.24694 17.688949)
(419.92038 -110.8786 15.097274)
(365.5839 -102.24302 8.8441321)
(311.55681 -92.068739 0.9631984)
(257.2692 -80.189532 -9.609376)
(204.03218 -69.991306 -18.914905)
(153.36085 -63.995487 -26.192655)
(108.20802 -64.442342 -29.56215)
(71.472614 -72.161391 -28.493475)
(45.766046 -86.592024 -22.859343)
(32.554942 -105.41125 -13.466657)
(31.398561 -125.03291 -1.4806874)
(40.428465 -141.11563 11.322584)
(55.635645 -150.17163 23.655237)
(72.402872 -149.38686 34.104156)
(85.37061 -137.81746 41.978189)
(90.275315 -116.89579 47.183424)
(84.137833 -89.648065 49.948006)
(66.077976 -60.101408 50.836716)
(37.477671 -33.05198 50.694843)
(1.486958 -12.175403 50.06728)
(-37.386176 -0.089478747 49.49238)
(-74.436583 2.5478068 49.149897)
(-105.22641 -2.9634034 48.881906)
(-128.13699 -13.195902 48.646161)
(-139.75913 -25.789699 48.337321)
(-143.52318 -39.149383 48.281595)
(-140.30721 -46.809039 46.436485)
(-133.46757 -50.460313 44.463321)
(-125.42017 -50.01922 42.606773)
(-117.91053 -46.535896 40.450374)
(-112.1316 -43.021574 39.02584)
(-106.70178 -38.632094 36.899149)
(-101.84646 -38.434341 35.632158)
(-93.161534 -37.989952 34.174281)
(-82.771601 -40.438911 32.438822)
(-66.784314 -38.126681 29.000071)
(-49.612693 -35.673305 24.241688)
(-34.736652 -23.323728 16.922681)
(-6.7652979e-16 3.5118239e-16 1.2802193e-16)
(-2.3129286e-15 2.7505878e-16 1.3239036e-16)
(-3.6393531e-15 -1.4253491e-16 -1.5464221e-16)
(-4.9195801e-15 -9.3657526e-16 4.6870719e-16)
(-4.0844143e-15 -8.2232132e-16 1.723462e-16)
(-2.0271537e-15 -1.8079967e-16 2.6438577e-16)
(-2.0670014e-15 8.6459225e-16 1.4474963e-15)
(-4.5036838e-15 1.2268482e-15 -2.065022e-16)
(-1.9919023e-15 1.1694967e-15 -1.6367101e-16)
(-2.9438013e-15 1.1112212e-15 -1.969436e-16)
(-2.4504202e-15 9.597151e-16 -1.1789697e-16)
(-5.2893259e-15 2.5926013e-15 -8.0820905e-16)
(-1.8775489e-15 1.1365606e-15 -5.8525306e-16)
(-7.4714327e-17 -2.094137e-16 9.7564992e-17)
(887.88051 -672.92519 15.906941)
(886.68565 -678.63115 14.769521)
(885.5072 -685.90199 14.957805)
(884.58858 -692.50375 14.290074)
(882.67306 -696.12366 12.419841)
(880.87968 -694.65899 8.9338099)
(877.5139 -688.93278 4.1944126)
(1072.0705 -275.71094 -13.864051)
(1074.4616 -271.48834 -9.5467132)
(1072.2525 -271.60321 -6.2434756)
(1065.887 -274.51775 -4.9297722)
(1056.8197 -278.41938 -5.3811212)
(1047.2373 -281.83562 -6.0538458)
(1040.1746 -283.65748 -7.2469242)
(-14.79243 -0.71404536 1.3084932)
(-35.668426 -4.1269166 5.3356237)
(-56.100935 -8.1211645 15.821031)
(-72.863245 -11.437848 21.633306)
(-85.161331 -15.127029 25.228851)
(-90.584548 -17.297108 25.245118)
(-93.889766 -18.780708 24.002177)
(-95.291805 -17.745088 23.114127)
(-99.060116 -15.216733 24.124517)
(-105.91326 -9.9729478 29.202471)
(-116.63529 -3.3703532 37.774957)
(-128.75753 3.9073709 49.105447)
(-139.47754 10.550818 61.236166)
(-144.41437 14.125329 71.12102)
(-139.61887 13.68572 76.65723)
(-122.31028 7.6835345 75.572415)
(-92.153946 -3.9750905 67.5602)
(-51.000113 -20.680329 53.460587)
(-3.0478788 -40.717873 35.480204)
(45.599284 -61.797193 16.854084)
(88.61433 -81.291454 0.91786014)
(120.46152 -96.84762 -9.3795627)
(137.66558 -106.85151 -12.362777)
(139.5218 -110.60645 -7.8449345)
(128.29035 -108.52185 2.8359383)
(108.88524 -101.86282 17.151635)
(87.572118 -92.387982 31.877333)
(70.691646 -82.511793 44.331901)
(64.15862 -73.766399 52.210187)
(71.271123 -67.570336 54.835019)
(92.986117 -64.388676 52.739271)
(127.70117 -64.160312 47.750289)
(171.96501 -66.314826 42.146989)
(221.46504 -70.177894 38.271808)
(272.08432 -75.295723 37.795975)
(321.12661 -81.667157 41.178325)
(367.6347 -89.556989 47.46783)
(412.39361 -99.840612 55.377122)
(457.8683 -113.49466 61.76278)
(507.15395 -131.05539 64.729913)
(562.54529 -152.89701 62.848511)
(625.49237 -178.40201 55.291115)
(695.60572 -206.73333 43.379645)
(769.52082 -236.00645 28.741368)
(844.63115 -264.87 14.358789)
(917.59551 -293.37549 2.2413665)
(982.10852 -319.47309 -7.6215633)
(-15.376403 2.3507835 6.420077)
(-33.383991 1.0338913 9.4431183)
(-53.463009 0.45959628 20.203626)
(-71.096849 -4.8669793 24.790751)
(-81.858267 -7.2965161 28.092706)
(-89.087054 -9.4846036 28.34139)
(-92.822275 -10.073419 28.213568)
(-95.014403 -8.6771348 27.224008)
(-99.570548 -5.4979682 29.292449)
(-106.68654 -0.12803523 33.253518)
(-117.12158 6.0195891 40.153618)
(-128.96878 12.036291 49.238991)
(-139.00731 15.958144 58.455836)
(-143.67287 16.236337 65.995349)
(-138.60416 11.82232 69.747659)
(-121.5171 1.8338552 68.288838)
(-91.773409 -12.945821 61.670838)
(-51.327021 -31.606672 50.41278)
(-4.2205615 -51.812905 36.441471)
(43.850461 -71.444381 22.129162)
(86.700492 -87.812494 10.073375)
(119.01299 -99.349079 2.3756423)
(137.07926 -105.12409 0.25865534)
(140.16476 -105.08966 3.6603502)
(130.13835 -100.44024 11.464382)
(111.40124 -92.815528 21.712882)
(90.041726 -84.262838 31.983837)
(72.341952 -76.833995 40.233091)
(63.974699 -71.806426 45.092752)
(68.467264 -69.99339 46.071217)
(87.107836 -71.387976 43.834748)
(118.72163 -75.515633 39.766639)
(160.19889 -81.555709 35.661661)
(207.52286 -88.916775 33.273297)
(256.79339 -97.219373 33.643043)
(305.16164 -106.67054 36.926224)
(351.38844 -118.03093 42.393847)
(396.20839 -131.96775 48.4881)
(441.49689 -149.68419 53.326979)
(490.28177 -171.39591 55.051875)
(544.76647 -197.14621 52.853713)
(606.27727 -226.07447 46.103035)
(674.6767 -257.09521 36.194705)
(747.54498 -288.03799 24.206209)
(821.09933 -318.14811 12.464344)
(893.95816 -347.27931 2.2158895)
(957.58911 -373.30766 -6.5700084)
(-14.534624 5.7599176 8.4159651)
(-29.734497 7.0958146 12.696946)
(-51.190753 5.5035048 21.76757)
(-65.784788 2.9865127 25.913069)
(-79.099698 1.3085316 29.263272)
(-85.795128 -0.13682977 30.319754)
(-90.347362 -0.35277614 29.618356)
(-93.553516 1.646331 30.159686)
(-98.695564 5.0236557 31.401189)
(-106.00487 10.211121 34.603192)
(-116.7365 15.701117 40.627969)
(-127.7665 20.386686 47.584266)
(-137.57559 22.638397 55.014494)
(-141.12873 21.297762 60.837345)
(-135.49825 15.370723 63.921612)
(-118.14616 4.3512715 63.1868)
(-88.493462 -10.995353 58.343301)
(-48.472822 -29.324758 49.958483)
(-1.9372387 -48.614237 39.485044)
(45.543579 -66.575279 28.761096)
(88.107162 -80.908524 19.713269)
(120.27088 -90.453872 13.954455)
(138.68743 -94.324784 12.237229)
(142.29485 -93.066366 14.444462)
(132.90793 -87.790431 19.68771)
(114.85362 -80.433678 26.42879)
(93.779308 -73.065051 32.914055)
(75.906061 -67.429805 37.510021)
(66.473046 -64.814119 39.462796)
(69.316493 -65.85799 38.664677)
(85.79369 -70.551737 35.681351)
(114.92255 -78.216411 31.780526)
(153.92661 -88.087839 28.436392)
(199.08448 -99.473044 26.873314)
(246.61103 -111.9246 27.791603)
(293.762 -125.74913 31.201911)
(339.357 -141.32465 36.306033)
(383.76216 -159.51075 41.681391)
(428.88084 -181.02331 45.691089)
(477.19158 -206.20346 47.018599)
(530.87191 -235.02345 44.990179)
(591.29517 -266.42583 39.098905)
(658.26178 -299.41409 30.880496)
(729.70623 -331.89724 20.469457)
(802.05887 -363.32556 11.39965)
(873.97542 -392.62712 2.4405253)
(936.70348 -418.9208 -3.7228956)
(-14.45548 5.284609 12.350762)
(-30.242205 6.2782189 17.197891)
(-49.619934 6.6866188 25.53653)
(-66.891503 7.0140214 30.401946)
(-78.624491 6.4256431 33.023827)
(-86.25424 8.2958839 33.233349)
(-91.094034 9.0345134 33.476645)
(-94.754968 12.841681 33.206355)
(-99.666624 16.384884 34.018634)
(-106.92401 21.804094 37.10583)
(-116.76028 26.423588 41.104438)
(-127.6042 30.604749 46.645689)
(-136.24659 32.114169 52.194885)
(-138.72859 29.839445 56.414249)
(-132.36125 23.59618 58.774248)
(-114.01657 12.36038 58.092909)
(-83.912023 -2.3566261 54.385534)
(-43.460418 -19.896361 48.27576)
(2.9932114 -37.87828 40.663013)
(50.482306 -54.510154 33.19409)
(92.724488 -67.535335 26.842971)
(124.92338 -76.088426 22.878813)
(143.28403 -79.666384 21.916223)
(147.07017 -78.421324 23.45243)
(138.13756 -73.654043 26.780467)
(120.41617 -67.157702 30.519106)
(99.504825 -60.857433 33.551652)
(81.481019 -56.520012 34.836658)
(71.647736 -55.449717 34.00945)
(73.536229 -58.391404 31.263313)
(88.564361 -65.30646 27.376282)
(115.87531 -75.786322 23.549002)
(152.88362 -89.057142 20.86784)
(196.01093 -104.48504 20.26874)
(241.65867 -121.58988 22.086121)
(287.30548 -140.32989 26.018008)
(331.59201 -160.97524 31.119314)
(375.00842 -183.99014 35.976469)
(419.19429 -209.85972 39.337646)
(466.76419 -238.79657 40.136929)
(519.65857 -270.38613 37.828221)
(579.08431 -303.88971 32.459317)
(644.72681 -338.24187 25.39572)
(714.93559 -371.76769 16.827491)
(785.86622 -403.88081 10.141925)
(856.45889 -433.19406 3.5813761)
(918.63128 -459.72719 0.38348144)
(-14.627616 10.115247 15.456494)
(-28.026855 12.965075 19.93065)
(-50.717084 15.033413 29.050559)
(-65.533054 16.109286 31.675988)
(-78.4811 18.157328 33.704389)
(-85.351876 19.844271 34.249837)
(-90.312718 21.90117 34.035849)
(-92.801573 25.400348 33.353711)
(-97.846525 28.774548 34.562505)
(-104.70998 33.77301 36.382729)
(-115.01341 37.263624 39.838962)
(-125.27336 40.380928 44.119726)
(-133.70851 40.013071 48.064649)
(-136.1509 37.094571 51.602092)
(-129.39428 29.564241 53.413783)
(-111.07586 18.326985 53.271957)
(-80.826144 3.6654209 51.12634)
(-40.478962 -12.945108 47.388566)
(6.1604999 -29.689388 42.754647)
(53.63638 -44.865827 38.397194)
(96.206534 -56.139155 34.517481)
(129.03406 -63.347371 32.898586)
(148.304 -65.616053 32.35466)
(152.47844 -63.529696 32.901811)
(143.67803 -58.616039 33.930438)
(125.96198 -52.649611 34.646353)
(104.75915 -47.479954 34.247477)
(86.076531 -44.711096 32.278215)
(75.192398 -45.747139 28.855745)
(75.784224 -51.171885 24.455007)
(89.395319 -61.045825 19.908859)
(115.23669 -74.910392 16.223852)
(150.90727 -91.970696 14.180377)
(192.77388 -111.65193 14.436204)
(237.42846 -133.19746 16.834749)
(282.10009 -156.65358 20.95001)
(325.60147 -181.97723 25.768894)
(368.04561 -209.56068 30.018015)
(411.34164 -239.29961 32.880029)
(457.98739 -271.50533 33.383703)
(509.29547 -305.65285 31.393908)
(567.11149 -341.15457 26.822847)
(631.09011 -376.9554 21.15762)
(699.89088 -411.54974 14.436119)
(769.70359 -444.24301 9.8927084)
(839.05256 -473.52351 5.2599205)
(901.25973 -500.07297 4.7577541)
(-12.538142 10.256237 17.09391)
(-28.256651 13.570648 26.096372)
(-51.208068 17.192278 31.571202)
(-67.039947 21.249233 34.887632)
(-79.502041 24.214288 35.984369)
(-86.640102 27.697951 36.40817)
(-90.402036 30.590314 35.288544)
(-93.388878 34.55526 35.619084)
(-97.867071 38.100046 35.822773)
(-104.8723 42.924118 37.220491)
(-114.17162 46.095112 39.41268)
(-124.41975 48.750669 41.899738)
(-132.53401 48.321915 44.678473)
(-134.80053 44.662487 46.912384)
(-128.0612 36.905319 48.026451)
(-109.64575 25.277184 48.240807)
(-79.459179 10.523705 47.231431)
(-38.907208 -5.9373223 45.691618)
(7.9059863 -22.326641 43.915568)
(55.858025 -36.633589 42.520479)
(99.09493 -47.355736 41.764103)
(132.64326 -53.533896 41.603061)
(151.96423 -54.544602 41.942529)
(157.43417 -51.46764 42.053287)
(149.54441 -45.923304 41.254555)
(132.59374 -40.008034 39.295117)
(111.71225 -35.283688 35.493899)
(92.910979 -33.878746 30.035323)
(81.472585 -36.933792 23.469041)
(81.088822 -45.307988 16.709675)
(93.330549 -58.906264 10.835587)
(117.61093 -77.10616 6.8554722)
(151.60002 -99.037169 5.4378879)
(191.84939 -123.73285 6.8298479)
(235.01728 -150.29834 10.499078)
(278.34064 -178.57072 15.818947)
(320.4334 -208.12932 21.384096)
(361.67465 -239.26117 26.039952)
(403.57723 -272.15062 28.519815)
(448.24528 -306.73576 28.663116)
(498.51877 -343.116 26.129147)
(554.97156 -380.45518 21.893473)
(617.52241 -417.72867 16.778184)
(684.88775 -453.69727 11.619795)
(753.37703 -487.1989 8.4039818)
(820.86898 -516.98421 6.2654262)
(882.68468 -543.30021 8.3651367)
(-13.548109 17.747416 21.937437)
(-30.076275 21.875926 30.660032)
(-53.320314 26.664822 34.631436)
(-68.506706 30.227356 36.495461)
(-81.521089 33.775171 36.718419)
(-87.19279 37.180461 36.082729)
(-91.021878 40.431656 35.667514)
(-92.994654 45.198186 35.493072)
(-96.774941 48.814382 35.478257)
(-103.09906 53.926429 36.37737)
(-111.88131 55.198533 37.539298)
(-122.42837 56.729725 38.530615)
(-130.54475 52.291074 40.214016)
(-133.99083 44.968691 40.849139)
(-128.21426 32.658695 41.588314)
(-111.44791 17.248849 41.900945)
(-82.451812 -0.44008621 42.408438)
(-42.976678 -18.253067 43.305223)
(3.541242 -34.164613 44.791508)
(51.832205 -46.402414 46.936057)
(96.162472 -53.820539 49.424775)
(131.11144 -55.874963 51.50555)
(152.62638 -53.407796 52.895669)
(159.39966 -47.415519 52.524917)
(152.84471 -39.894933 49.71098)
(136.28837 -33.473921 44.249118)
(114.94929 -29.764152 36.529922)
(95.152478 -30.750984 27.165196)
(82.181406 -37.373485 17.563609)
(80.059791 -49.974367 8.7783202)
(90.645008 -67.983548 2.0855254)
(113.58435 -90.594672 -1.6453008)
(146.62459 -116.74034 -2.0744243)
(186.26352 -145.49628 0.63029473)
(229.06522 -176.03734 5.4967422)
(271.81522 -208.33163 11.575611)
(313.13637 -242.02202 17.21968)
(353.13905 -277.26296 21.323144)
(393.34055 -314.10474 23.2764)
(435.9753 -352.36403 22.880128)
(483.91809 -391.78794 20.288452)
(538.15456 -431.13466 16.477525)
(598.94565 -469.43903 12.350166)
(664.93957 -505.41525 8.9293848)
(732.93968 -537.89854 7.2846973)
(800.00701 -566.56916 7.5562543)
(862.22833 -591.50695 10.213561)
(-1.8726199e-15 -1.0357256e-16 4.2324109e-16)
(-4.3693994e-15 5.8098526e-16 1.0825799e-16)
(-1.86708e-15 5.0203615e-16 5.7484399e-16)
(-1.1298519e-15 4.4303811e-16 -1.5186772e-16)
(-1.5283164e-15 1.7502349e-16 4.7144117e-17)
(-3.9278597e-15 -6.147074e-18 -1.0233878e-17)
(-3.270765e-15 8.5080195e-17 2.8271762e-17)
(-1.444637e-15 3.1767481e-17 -1.0328492e-16)
(-1.9600489e-15 -2.0641393e-16 2.5996682e-17)
(-1.0758982e-15 -5.0887233e-16 -1.6282415e-16)
(-1.1902312e-15 -6.3217422e-16 -1.0496995e-16)
(-2.2455722e-15 -1.0363924e-16 3.7607835e-16)
(-1.7254929e-15 1.2766475e-16 7.9907906e-17)
(-6.542485e-16 2.4659353e-16 4.7610311e-16)
(-1.0183069e-15 2.0413811e-16 3.0876606e-16)
(-1.2825224e-16 3.2154578e-16 2.6910031e-16)
(-2.4669526e-15 5.8726168e-16 -3.2350189e-17)
(-1.9694108e-15 5.8752001e-16 2.9593509e-16)
(-1.9972486e-15 5.0741204e-16 1.6376266e-16)
(-5.0142844e-16 5.9082617e-16 -1.5096731e-17)
(2.8672985e-17 2.0007103e-16 -2.079567e-16)
(-3.5598279e-15 1.6770216e-16 6.1584209e-17)
(1.5219227e-15 -3.8112137e-16 -3.4960392e-16)
(-8.8364966e-17 -1.5289127e-16 1.7491834e-16)
(2.7397895e-16 -2.6900304e-16 -2.0413732e-16)
(-5.1236454e-16 -3.7600259e-16 -4.411389e-17)
(-1.3114086e-15 -5.3747975e-16 1.2489795e-16)
(2.0041989e-16 -4.4379834e-16 -1.4360784e-16)
(-1.3448657e-15 3.3966264e-16 -2.7012678e-16)
(-2.2010094e-15 1.2158219e-16 1.1470551e-16)
(-1.2722141e-15 -2.3577892e-16 -7.7366055e-17)
(-2.6936153e-15 2.298542e-17 6.0151854e-16)
(-1.8084585e-15 2.5926424e-16 8.2177642e-17)
(-1.0121806e-15 3.7760621e-16 1.5728837e-17)
(-3.5076342e-15 -1.049112e-16 -1.8966684e-16)
(-1.2388067e-16 -2.746004e-16 -1.3203227e-16)
(-1.1077126e-15 -2.2449831e-16 5.9960705e-17)
(-7.9462407e-16 5.2806017e-17 1.8160622e-16)
(-1.481116e-15 2.6347307e-16 -6.003674e-17)
(5.3541372e-16 1.9494005e-16 5.7756958e-17)
(-2.5861876e-15 -7.0653702e-17 -1.8824779e-16)
(-1.6152529e-15 1.8241927e-16 3.8488004e-16)
(-1.0389662e-15 3.299921e-17 2.9700946e-16)
(-3.8817577e-15 -1.9427146e-16 -1.2145786e-15)
(-1.6161979e-15 2.8442108e-16 -1.856842e-16)
(8.1577518e-16 1.8112067e-17 2.0819295e-16)
(-2.485062e-15 2.8178417e-16 -5.4749215e-16)
(-1.8307085e-15 4.4562511e-16 -1.4619564e-16)
(-1.4586292e-15 4.0358521e-16 -4.0281137e-16)
(-23.834029 11.03243 15.973553)
(-25.177103 11.102586 11.580042)
(-24.70338 11.799488 9.463391)
(-25.550653 12.599105 8.1071234)
(-24.805684 11.481888 5.0222088)
(-23.862571 10.791192 1.9168031)
(-20.211118 11.463983 -2.9244514)
(-37.208853 26.795211 34.823894)
(-41.125385 21.804312 26.518189)
(-42.493049 22.735923 20.051508)
(-42.202246 22.599268 17.851099)
(-41.799922 20.231985 14.607887)
(-40.839233 20.326696 10.973626)
(-38.001336 19.760303 7.1985439)
(-57.377605 40.992915 34.374789)
(-56.991568 42.147803 27.860576)
(-58.540762 35.527392 28.472775)
(-60.610226 35.224971 22.983786)
(-59.886746 35.75173 20.787378)
(-57.941014 36.092879 17.581252)
(-58.542111 30.055691 18.315771)
(-69.243282 41.863573 38.992665)
(-73.634938 37.982981 35.210455)
(-75.831094 36.840804 32.701842)
(-77.051203 35.251442 27.229017)
(-76.031905 33.135469 24.871608)
(-76.921643 28.60052 25.365105)
(-75.353575 31.394272 23.574988)
(-81.467846 43.594496 35.225996)
(-81.61337 41.552784 33.538331)
(-81.997486 36.688788 32.068468)
(-83.910626 34.986721 29.757258)
(-83.202282 31.606024 26.475082)
(-82.133439 29.474945 25.763784)
(-81.561095 26.080853 27.817976)
(-86.682088 44.117777 36.130633)
(-89.029248 43.070804 34.05758)
(-90.256462 40.74458 31.377362)
(-90.774554 35.376649 27.171059)
(-90.195645 33.141823 25.171226)
(-89.896632 26.507998 23.634827)
(-87.216785 26.699896 23.537028)
(-91.436731 46.00884 33.569683)
(-92.716106 44.547997 32.599551)
(-92.473288 39.079514 29.361337)
(-92.931245 35.718953 25.352807)
(-91.185244 30.022768 22.657932)
(-88.492886 24.179525 19.059275)
(-85.354135 20.100864 18.807464)
(-93.836143 48.719666 33.942922)
(-94.38202 46.210265 31.142187)
(-94.884206 43.069244 28.194406)
(-94.297196 38.062669 24.041849)
(-92.869243 33.670811 19.952394)
(-89.882419 28.192914 16.190196)
(-85.586903 24.000071 13.771826)
(-96.486802 52.239439 33.877245)
(-97.970709 51.120639 32.255631)
(-97.655945 46.842393 28.757106)
(-97.166566 41.477389 24.006668)
(-94.261003 34.933316 20.333973)
(-90.992018 28.965732 15.941504)
(-86.084951 22.255734 12.92574)
(-102.05693 57.278222 35.2773)
(-101.8521 53.855083 33.5715)
(-102.13919 50.192402 30.892291)
(-100.82815 44.999755 28.202244)
(-99.054446 40.399136 24.905608)
(-95.672608 35.671277 20.939233)
(-91.42181 28.454237 17.923448)
(-107.90412 58.145959 37.038082)
(-108.42072 56.026557 37.207233)
(-107.90466 52.006093 36.456231)
(-107.76939 47.628511 34.530269)
(-106.22452 42.094638 32.510796)
(-103.86107 36.958585 31.190567)
(-101.54163 29.675505 30.491286)
(-116.09781 56.925657 39.063926)
(-115.16201 53.622778 41.392382)
(-115.36757 49.51993 41.920138)
(-115.11475 44.646068 43.064102)
(-114.61056 40.169281 43.787559)
(-113.99261 37.442981 44.936769)
(-113.99462 29.760938 46.142946)
(-121.87286 48.132065 41.311688)
(-120.80473 45.343908 45.251258)
(-120.76442 41.576533 49.205004)
(-121.52555 37.473656 52.250605)
(-122.16024 34.244923 55.050452)
(-123.38844 30.253405 59.73506)
(-126.35774 25.507109 64.587117)
(-124.54241 35.113341 41.980983)
(-122.269 31.692473 48.384094)
(-122.78492 27.680038 53.931401)
(-124.03621 23.577351 59.20998)
(-125.47143 19.68992 64.644118)
(-129.10312 17.473744 71.698033)
(-133.5965 14.049793 79.617669)
(-120.01736 14.931217 42.660759)
(-117.66722 11.584803 50.207616)
(-118.5273 8.2859236 57.061116)
(-120.05624 3.8099421 63.559592)
(-122.41185 1.1924903 70.033218)
(-127.20367 -1.9223765 78.558528)
(-132.84906 -2.6200065 88.397588)
(-106.63874 -8.2574267 42.482397)
(-104.4001 -11.413874 50.133137)
(-105.27223 -15.346536 56.797023)
(-107.16003 -19.608179 62.989799)
(-109.79472 -23.07272 69.774281)
(-114.93171 -26.234479 77.801581)
(-120.27981 -25.304978 87.769564)
(-83.450105 -32.855629 42.382988)
(-81.693796 -36.172247 48.796457)
(-82.977349 -39.331364 53.658179)
(-84.809438 -44.013108 58.640562)
(-87.275112 -47.55522 63.68453)
(-91.579013 -51.252964 69.690021)
(-95.323669 -49.706393 77.608578)
(-50.772524 -55.136752 42.764026)
(-50.281724 -57.87906 46.293762)
(-51.809287 -61.040603 48.630718)
(-53.496581 -66.112317 50.576496)
(-55.558026 -70.233721 52.910142)
(-57.937285 -74.762097 55.500125)
(-59.342805 -73.500859 59.544541)
(-11.430262 -71.880342 43.905033)
(-12.481108 -74.120913 44.057447)
(-14.428319 -77.104033 42.657488)
(-15.998544 -82.198522 41.239788)
(-17.324318 -86.95281 39.900882)
(-17.30434 -91.944071 38.281651)
(-15.968029 -92.484381 37.335235)
(31.045773 -80.688297 46.31717)
(28.196063 -82.407679 42.438841)
(25.527684 -85.065172 37.521843)
(24.095493 -90.377803 32.483284)
(23.247036 -95.534102 27.298084)
(25.691736 -101.18269 21.668108)
(29.396252 -103.8492 15.610847)
(71.929758 -80.708963 49.474668)
(67.167604 -81.578657 42.241628)
(63.790817 -84.246338 34.332559)
(62.122853 -89.301909 26.308237)
(61.557728 -94.914054 18.043636)
(65.776021 -100.61418 9.2920202)
(70.905399 -105.86492 -0.91190737)
(106.64408 -72.327135 52.942472)
(100.36659 -72.666539 43.450466)
(96.07156 -75.199421 33.723116)
(93.937633 -80.167874 24.008738)
(93.154361 -85.827003 13.972607)
(97.965266 -91.505964 3.7364439)
(103.17125 -98.773119 -8.720005)
(131.62911 -57.821375 55.666205)
(124.33203 -57.651223 45.469599)
(119.23825 -60.41572 35.683115)
(116.24325 -65.12341 25.912693)
(114.72778 -70.808774 15.921679)
(118.7287 -76.043879 6.0820341)
(122.68531 -84.481619 -6.2197973)
(144.76997 -40.543847 56.603271)
(137.30854 -40.391864 47.519561)
(131.44421 -43.416665 39.356591)
(127.51538 -48.137988 31.171183)
(124.86061 -53.483349 23.111157)
(126.69898 -58.274016 15.570477)
(128.11049 -66.593319 5.9933536)
(146.43778 -24.708761 54.666313)
(139.4233 -24.604617 48.583973)
(133.31837 -28.220436 43.297972)
(128.3739 -33.02473 38.313283)
(124.0931 -38.319412 33.773095)
(122.90727 -42.599304 29.975553)
(120.97674 -49.613875 25.145441)
(138.35416 -13.631502 49.62729)
(132.74358 -14.220656 47.564777)
(126.80427 -18.641172 46.077497)
(120.84079 -23.820588 45.591179)
(115.10087 -29.115197 44.831731)
(110.32583 -33.36266 45.808029)
(104.70673 -38.397788 46.447559)
(124.55937 -10.65872 41.501393)
(120.99589 -12.251293 43.752396)
(115.41571 -17.63056 46.717479)
(109.03146 -23.658291 50.456083)
(101.52287 -29.120138 54.400041)
(93.68345 -33.510775 59.908858)
(85.042229 -36.415249 65.651189)
(109.78521 -17.442653 31.002876)
(108.16864 -20.345202 37.587567)
(103.63605 -26.650904 44.628226)
(96.81696 -33.577993 52.146956)
(88.870468 -39.475315 60.24692)
(78.480692 -44.082519 69.413859)
(67.494709 -45.174552 79.702163)
(98.851319 -34.11503 19.737933)
(99.146879 -38.301145 29.826381)
(95.763916 -45.635026 39.710444)
(89.184556 -53.539232 50.39341)
(80.687311 -60.120326 61.305264)
(69.013947 -64.957335 73.093445)
(56.821819 -65.044177 86.523062)
(95.463722 -59.350545 9.2210151)
(97.184955 -64.849984 21.488172)
(95.013722 -73.09865 33.158807)
(88.94466 -81.968491 45.626193)
(80.647553 -89.253127 58.079985)
(68.81548 -94.674924 70.949354)
(56.462159 -94.543227 85.774698)
(102.05824 -91.005282 1.0535869)
(104.61329 -97.647993 14.125566)
(103.46694 -106.5596 26.285326)
(98.158741 -116.16308 39.217271)
(90.381187 -124.22908 51.854389)
(79.351327 -130.13954 64.438196)
(67.680415 -130.85637 78.850404)
(119.20648 -126.39965 -3.5091257)
(121.92131 -133.81852 9.1166045)
(121.5045 -143.15835 20.629245)
(116.98119 -153.23304 32.957377)
(109.93652 -161.882 44.72005)
(100.38405 -168.2124 55.980329)
(89.863215 -170.4176 68.614653)
(145.87004 -162.97258 -3.9148401)
(148.22474 -170.79378 7.3317965)
(148.10611 -180.25133 17.567495)
(144.21966 -190.41596 28.630903)
(137.91352 -199.37051 38.875048)