/*--------------------------------*- C++ -*----------------------------------*\
  =========                 |
  \\      /  F ield         | OpenFOAM: The Open Source CFD Toolbox
   \\    /   O peration     | Website:  https://openfoam.org
    \\  /    A nd           | Version:  6
     \\/     M anipulation  |
\*---------------------------------------------------------------------------*/
FoamFile
{
    version     2.0;
    format      ascii;
    class       pointVectorField;
    location    "0.96";
    object      u;
}
// * * * * * * * * * * * * * * * * * * * * * * * * * * * * * * * * * * * * * //

dimensions      [0 1 0 0 0 0 0];

internalField   nonuniform List<vector> 
28033
(
(0 0 0)
(0 0 0)
(2.7143391 -0.39494485 0.010969127)
(2.5217469 -0.98414975 0.0084407364)
(0 0 0)
(0 0 0)
(2.5225833 -0.9871427 0.0080284349)
(2.7151788 -0.39797908 0.010433964)
(0 0 0)
(0 0 0)
(0 0 0)
(0 0 0)
(0 0 0)
(0 0 0)
(0 0 0)
(0 0 0)
(0 0 0)
(0 0 0)
(0 0 0)
(0 0 0)
(0 0 0)
(0 0 0)
(0 0 0)
(2.701967 -0.43214547 0.010592019)
(2.6897091 -0.46900715 0.01042221)
(2.6775185 -0.50577306 0.010224364)
(2.6654149 -0.54250602 0.010091507)
(2.6533661 -0.57918194 0.0099694498)
(2.6413609 -0.61583337 0.0098655614)
(2.6294071 -0.65247177 0.0097794584)
(2.6174826 -0.68911752 0.0096991273)
(2.6055844 -0.72577665 0.0096147081)
(2.5936914 -0.76247498 0.009531184)
(2.5818089 -0.7992093 0.0094252987)
(2.5698986 -0.83600871 0.0092937421)
(2.5579906 -0.87287266 0.0091495967)
(2.5459992 -0.90981794 0.0089807604)
(2.5339984 -0.94688765 0.0087433862)
(0.0078680033 0.011214925 0.012383375)
(0.010100513 0.017881534 0.016770222)
(0.013226925 0.024694625 0.020041698)
(0.017553195 0.031644124 0.022053226)
(0.022603467 0.038675907 0.023248553)
(0.028956536 0.04573321 0.024033467)
(0.036309436 0.052791164 0.024420196)
(0.044790877 0.059582311 0.024540255)
(0.054293173 0.066395678 0.024516003)
(0.064864664 0.072831852 0.024369403)
(0.076355951 0.079152821 0.024129073)
(0.088841467 0.085122547 0.023808056)
(0.10220911 0.090890729 0.023541628)
(0.11654571 0.096296624 0.023147732)
(0.13163821 0.10143153 0.022843838)
(0.14763168 0.10620866 0.02243832)
(0.1644015 0.11071322 0.022141596)
(0.18199045 0.11481453 0.021770446)
(0.20028741 0.11864207 0.021454682)
(0.21936601 0.12208418 0.021102023)
(0.23912085 0.1252167 0.020822795)
(0.25960458 0.12797917 0.020474289)
(0.28074015 0.13040841 0.020212891)
(0.30256558 0.13250186 0.019903918)
(0.32499271 0.13422629 0.019624567)
(0.34807326 0.13563184 0.019344025)
(0.37173321 0.13666173 0.019086769)
(0.39601214 0.13739032 0.018810189)
(0.42084085 0.13772618 0.018544201)
(0.4462321 0.1377491 0.018294502)
(0.47217892 0.137433 0.018029356)
(0.49862171 0.13676173 0.017769228)
(0.52558783 0.13576997 0.017527378)
(0.55304625 0.13441214 0.017273967)
(0.58098045 0.13275707 0.017020681)
(0.60938023 0.13074294 0.016774441)
(0.63820445 0.12841446 0.016542639)
(0.66748502 0.12576007 0.016309078)
(0.69714591 0.12277946 0.016065545)
(0.72722466 0.11949233 0.015848648)
(0.75766648 0.11588008 0.01562493)
(0.78848329 0.11198099 0.015419303)
(0.81964807 0.10776225 0.015208099)
(0.85115552 0.10325872 0.015016956)
(0.88297547 0.098454177 0.014825707)
(0.91511508 0.093371627 0.01464646)
(0.94753992 0.088005824 0.014474754)
(0.98025947 0.082366421 0.014309464)
(1.0132399 0.076460331 0.014153161)
(1.0464904 0.070289992 0.014002897)
(1.0799814 0.063866282 0.013859466)
(1.1137169 0.05718933 0.013721945)
(1.1476759 0.05027224 0.013590004)
(1.1818546 0.043113381 0.013463039)
(1.2162404 0.035726828 0.013340271)
(1.2508241 0.028111452 0.013222312)
(1.285597 0.020279548 0.013107349)
(1.3205495 0.012232696 0.012996487)
(1.3556727 0.0039808273 0.012888606)
(1.3909583 -0.0044733927 0.012784205)
(1.4263974 -0.01311999 0.012682633)
(1.4619833 -0.02195644 0.012584038)
(1.4977041 -0.030971669 0.012489767)
(1.5335596 -0.040169906 0.01239518)
(1.5695321 -0.049524652 0.012310143)
(1.6056251 -0.059056169 0.012220537)
(1.6418189 -0.068740762 0.012142438)
(1.6781177 -0.078575259 0.012064806)
(1.7145083 -0.088557822 0.011983132)
(1.7509921 -0.098678099 0.011913367)
(1.7875533 -0.10893465 0.011844388)
(1.8241903 -0.11932207 0.01178042)
(1.8609037 -0.12982434 0.011715392)
(1.8976723 -0.14046189 0.011659957)
(1.9345161 -0.15118782 0.011597028)
(1.9713957 -0.16205818 0.011549819)
(2.0083463 -0.17298678 0.011489396)
(2.0453208 -0.18406927 0.011448156)
(2.0823561 -0.19518385 0.011390189)
(2.1194075 -0.20645336 0.011355524)
(2.1565097 -0.21774757 0.011297399)
(2.193619 -0.22917097 0.011269422)
(2.2307701 -0.24063625 0.011215733)
(2.2679164 -0.25219423 0.011191574)
(2.3050989 -0.26380636 0.011147312)
(2.3422766 -0.27548301 0.011121439)
(2.3794658 -0.28723606 0.01108966)
(2.4166531 -0.29901123 0.011070983)
(2.4538404 -0.31087178 0.011044616)
(2.4910218 -0.32273114 0.011035692)
(2.5281845 -0.33469667 0.011037998)
(2.5653755 -0.34658725 0.011012428)
(2.6025063 -0.35863129 0.011067994)
(2.6397145 -0.37060585 0.011051992)
(2.6768861 -0.38260442 0.011117378)
(0.0028001784 -0.013393524 -0.014951286)
(0.0051055115 -0.017814375 -0.018034889)
(0.0069696483 -0.024465605 -0.023062924)
(0.0089661082 -0.029733212 -0.024822999)
(0.013148759 -0.036489265 -0.026520212)
(0.017909784 -0.043401532 -0.027258086)
(0.023767262 -0.049874071 -0.02769596)
(0.030692781 -0.057106754 -0.027641593)
(0.038670779 -0.064162378 -0.02749556)
(0.04737129 -0.071305045 -0.02711537)
(0.057102423 -0.078633058 -0.026670863)
(0.067506786 -0.085894435 -0.026148787)
(0.07882366 -0.093341226 -0.025559714)
(0.09080082 -0.10078232 -0.025029712)
(0.10357676 -0.10826685 -0.024399333)
(0.11702327 -0.11589128 -0.023866093)
(0.1311796 -0.12343507 -0.023262871)
(0.14602352 -0.1312075 -0.022704406)
(0.16151378 -0.13893208 -0.022163531)
(0.17768771 -0.1467926 -0.021628913)
(0.19446796 -0.15469184 -0.021076823)
(0.21190465 -0.16274171 -0.020603906)
(0.22990696 -0.17075504 -0.020071156)
(0.24857739 -0.17902291 -0.019589026)
(0.26776799 -0.18723573 -0.019110072)
(0.28762605 -0.19567322 -0.018601296)
(0.30797019 -0.2041314 -0.018171036)
(0.32896419 -0.21275097 -0.017657673)
(0.35043056 -0.22144916 -0.017237242)
(0.37250947 -0.23026753 -0.016729509)
(0.39505984 -0.2392188 -0.016295976)
(0.41818138 -0.24826187 -0.015815447)
(0.44177369 -0.25743831 -0.015366144)
(0.46590094 -0.26672319 -0.014891907)
(0.49049055 -0.27613264 -0.014434311)
(0.51557598 -0.28564114 -0.013975219)
(0.54111617 -0.29526634 -0.013489754)
(0.56711593 -0.30502764 -0.013029882)
(0.59355411 -0.31487276 -0.012554447)
(0.62043142 -0.32484904 -0.012082838)
(0.64772213 -0.33492561 -0.01160777)
(0.67542496 -0.34511097 -0.011133975)
(0.70352159 -0.35540335 -0.010657309)
(0.73200541 -0.36579787 -0.010183089)
(0.76085979 -0.3762947 -0.009708279)
(0.79008042 -0.38689116 -0.0092342225)
(0.81964828 -0.39758442 -0.0087630791)
(0.84956082 -0.40837311 -0.0082921434)
(0.87980059 -0.41925493 -0.0078252113)
(0.91036245 -0.43022594 -0.0073600614)
(0.94123309 -0.44128638 -0.0068986794)
(0.97240469 -0.45243097 -0.0064407867)
(1.0038664 -0.46365855 -0.0059867823)
(1.0356101 -0.47496652 -0.0055370488)
(1.0676252 -0.48635101 -0.0050918145)
(1.0999042 -0.4978097 -0.0046513721)
(1.132437 -0.50934044 -0.0042156676)
(1.1652158 -0.52093829 -0.0037852413)
(1.1982313 -0.53260199 -0.0033600985)
(1.2314763 -0.54432787 -0.0029400224)
(1.2649409 -0.55611211 -0.0025258636)
(1.2986186 -0.56795275 -0.0021169495)
(1.3325 -0.5798459 -0.0017140041)
(1.3665784 -0.59178906 -0.0013164157)
(1.4008448 -0.60377797 -0.00092549205)
(1.4352932 -0.61581252 -0.00053915828)
(1.4699146 -0.62788571 -0.00016089331)
(1.5047028 -0.64000039 0.00021436511)
(1.5396514 -0.65214497 0.00057864187)
(1.5747514 -0.66432047 0.00094478824)
(1.6099949 -0.67653359 0.0012982227)
(1.6453802 -0.68876371 0.0016487207)
(1.6808972 -0.70102811 0.0019929932)
(1.7165402 -0.71330366 0.0023296512)
(1.7523051 -0.72560759 0.002664202)
(1.7881822 -0.73791943 0.0029877191)
(1.8241698 -0.75025177 0.003311334)
(1.8602602 -0.76258917 0.0036241632)
(1.8964472 -0.77494064 0.0039363561)
(1.9327279 -0.78729144 0.0042385581)
(1.9690936 -0.79965249 0.004539925)
(2.0055422 -0.81200621 0.0048314523)
(2.0420652 -0.82436479 0.0051221645)
(2.078661 -0.83671234 0.005403201)
(2.1153198 -0.84905631 0.0056820744)
(2.1520408 -0.86138742 0.0059525943)
(2.1888151 -0.87370709 0.0062195042)
(2.22564 -0.88600952 0.0064768048)
(2.2625069 -0.89829855 0.006732441)
(2.2994161 -0.91056504 0.0069763048)
(2.3363548 -0.92281329 0.0072165514)
(2.3733288 -0.93504989 0.0074477885)
(2.4103213 -0.94727153 0.0076823454)
(2.44737 -0.95948929 0.0078933406)
(2.484432 -0.97176977 0.008145101)
(0 0 0)
(0 0 0)
(0 0 0)
(0 0 0)
(0 0 0)
(0 0 0)
(0 0 0)
(0 0 0)
(0 0 0)
(0 0 0)
(0 0 0)
(0 0 0)
(0 0 0)
(0 0 0)
(0 0 0)
(0.0069986789 -0.0055396832 0.010948414)
(0.0070409521 -0.020814288 0.017532718)
(0.0069130613 -0.021648347 0.021094486)
(0.0099962126 -0.031495921 0.024558089)
(0.013247861 -0.036257516 0.025938609)
(0.018487946 -0.043703579 0.026566124)
(0.024215735 -0.050132714 0.026918533)
(0.031470174 -0.057718002 0.02694007)
(0.039317184 -0.064392994 0.026651882)
(0.048168929 -0.072022694 0.026245645)
(0.058024453 -0.079297592 0.025904188)
(0.068323333 -0.086472997 0.025257516)
(0.079816541 -0.094336121 0.024853207)
(0.091643268 -0.1013799 0.024163322)
(0.10463139 -0.10958089 0.023742715)
(0.11793186 -0.11663036 0.023151666)
(0.13218957 -0.12478652 0.022708787)
(0.14697565 -0.13213892 0.022091645)
(0.16250242 -0.14032044 0.021702255)
(0.17868286 -0.14800001 0.021158341)
(0.19541705 -0.15609625 0.020798659)
(0.21289752 -0.16412118 0.020307861)
(0.23087432 -0.17231444 0.019953245)
(0.24955365 -0.18056256 0.019539465)
(0.2687488 -0.18885724 0.019165417)
(0.28859025 -0.19737822 0.018809825)
(0.30895848 -0.2058096 0.018424601)
(0.3299148 -0.21459466 0.018096887)
(0.35141983 -0.22323631 0.017726082)
(0.37344947 -0.23221614 0.017398862)
(0.39603913 -0.24116036 0.01705803)
(0.41912837 -0.25028963 0.016727668)
(0.44273988 -0.25950509 0.016393953)
(0.46684753 -0.26885752 0.01606296)
(0.49144278 -0.27832878 0.015751434)
(0.51652024 -0.28785584 0.015414805)
(0.54203785 -0.29760572 0.015108416)
(0.56803796 -0.30739319 0.014802332)
(0.59445728 -0.3173124 0.014505101)
(0.62131874 -0.32734197 0.014209155)
(0.64859043 -0.33747955 0.013927967)
(0.67626997 -0.34772285 0.013653065)
(0.70434396 -0.3580698 0.013388537)
(0.73280107 -0.36851801 0.013134276)
(0.76163016 -0.37906457 0.012889916)
(0.79082176 -0.38970874 0.012655852)
(0.82036434 -0.40044542 0.012430914)
(0.85024867 -0.41127558 0.012215762)
(0.88046391 -0.42219347 0.012009389)
(0.91100095 -0.43319949 0.01181147)
(0.94184927 -0.444289 0.011621994)
(0.97300075 -0.45546119 0.011438676)
(1.0044449 -0.46671277 0.011263444)
(1.0361734 -0.47804074 0.011092796)
(1.0681763 -0.48944449 0.010929349)
(1.1004461 -0.5009182 0.010769475)
(1.1329717 -0.51246255 0.010616252)
(1.1657465 -0.52407198 0.010466328)
(1.19876 -0.53574517 0.010322061)
(1.2320048 -0.54747879 0.010181901)
(1.2654713 -0.55926959 0.010046694)
(1.2991523 -0.57111486 0.0099159079)
(1.3330381 -0.58301198 0.0097905451)
(1.367122 -0.59495653 0.0096696568)
(1.4013949 -0.60694736 0.0095541973)
(1.4358494 -0.61898075 0.0094440582)
(1.4704797 -0.6310513 0.0093379158)
(1.5052729 -0.64316838 0.0092412497)
(1.5402355 -0.65529794 0.0091448287)
(1.5753324 -0.6674827 0.0090555334)
(1.6105924 -0.67968312 0.0089717428)
(1.6459821 -0.69191083 0.008894532)
(1.6815096 -0.70416236 0.0088181599)
(1.7171619 -0.7164356 0.008749108)
(1.7529355 -0.72872588 0.0086820629)
(1.7888243 -0.7410331 0.0086196655)
(1.8248222 -0.75335282 0.0085594085)
(1.8609243 -0.76568443 0.0085033151)
(1.8971236 -0.77802368 0.0084489538)
(1.9334165 -0.79036907 0.0083984368)
(1.9697951 -0.80271756 0.00834911)
(2.0062569 -0.81506745 0.0083040566)
(2.042793 -0.8274143 0.0082599774)
(2.0794018 -0.83975854 0.0082206191)
(2.116074 -0.85209367 0.0081828345)
(2.1528075 -0.8644219 0.0081509387)
(2.1895939 -0.8767345 0.0081208861)
(2.2264302 -0.88903779 0.0080988602)
(2.2633083 -0.9013186 0.0080792766)
(2.3002257 -0.91358947 0.0080700678)
(2.3371737 -0.92583273 0.0080628167)
(2.3741533 -0.93807339 0.0080699343)
(2.411152 -0.95028656 0.0080735497)
(2.4482036 -0.96252378 0.0080926233)
(2.4852349 -0.9747879 0.0080871627)
(2.53487 -0.94989815 0.0080462298)
(2.5468539 -0.91285692 0.0081157406)
(2.5588364 -0.87587464 0.0082516504)
(2.5707509 -0.83902497 0.0083931807)
(2.5826606 -0.80222504 0.008590131)
(2.5945366 -0.76548346 0.0087788758)
(2.6064294 -0.72879814 0.009007328)
(2.6183245 -0.69212161 0.0092265192)
(2.6302577 -0.65550175 0.0094481159)
(2.6421976 -0.61883797 0.0096716346)
(2.6542077 -0.58220697 0.0098692039)
(2.6662488 -0.54551883 0.010055607)
(2.6783605 -0.50881392 0.01022289)
(2.6905055 -0.47199515 0.010350274)
(2.7028013 -0.43520385 0.010449001)
(2.6777693 -0.38565622 0.010061923)
(2.6405106 -0.37365937 0.0098518471)
(2.6033595 -0.36164351 0.0096156559)
(2.56619 -0.34965951 0.009396364)
(2.5290247 -0.33770842 0.0091503395)
(2.4918479 -0.32578966 0.0089059887)
(2.4546642 -0.31391348 0.0086519341)
(2.4174735 -0.30207756 0.0083889985)
(2.3802788 -0.29029613 0.0081229146)
(2.3430864 -0.27856423 0.0078462877)
(2.305896 -0.26689414 0.0075671631)
(2.2687157 -0.25528549 0.0072805476)
(2.231547 -0.24374471 0.0069888424)
(2.1943925 -0.23227149 0.0066874174)
(2.1572611 -0.22087856 0.0063829606)
(2.1201568 -0.20956409 0.0060724336)
(2.0830838 -0.1983355 0.0057581624)
(2.0460449 -0.18719653 0.0054377821)
(2.0090476 -0.17614986 0.0051118237)
(1.9720939 -0.16520378 0.0047809861)
(1.935191 -0.15435825 0.004444193)
(1.898342 -0.14362274 0.0041018767)
(1.861554 -0.13299734 0.0037538253)
(1.8248289 -0.12249109 0.0033991581)
(1.7881777 -0.11210606 0.003040095)
(1.7515995 -0.10184533 0.0026740609)
(1.715097 -0.091723371 0.0022984981)
(1.6787076 -0.081757941 0.0019298143)
(1.6423853 -0.071905735 0.0015439255)
(1.6061764 -0.062219413 0.0011552127)
(1.5700729 -0.052686276 0.00075941876)
(1.5340862 -0.043315579 0.00035963143)
(1.4982204 -0.034112416 -4.5866315e-05)
(1.4624845 -0.025083254 -0.00045735597)
(1.426886 -0.016234089 -0.00087394223)
(1.391433 -0.0075701312 -0.001295894)
(1.3561336 0.00090138201 -0.0017233309)
(1.3209966 0.0091757599 -0.0021555246)
(1.2860307 0.017245502 -0.0025926394)
(1.2512449 0.025106053 -0.0030343554)
(1.2166485 0.032749775 -0.0034803437)
(1.1822514 0.040171959 -0.0039300383)
(1.1480629 0.047365286 -0.0043836862)
(1.1140935 0.054324425 -0.0048399697)
(1.0803535 0.06104261 -0.0052992832)
(1.0468537 0.06751385 -0.0057605081)
(1.0136049 0.073731824 -0.0062234684)
(0.98061857 0.079690161 -0.0066873872)
(0.94790643 0.08538253 -0.0071521425)
(0.91548052 0.090803305 -0.0076163972)
(0.88335338 0.095944045 -0.0080804687)
(0.85153695 0.10080397 -0.0085439769)
(0.82004631 0.10536665 -0.0090040044)
(0.78889298 0.10964129 -0.0094670033)
(0.75809262 0.11360538 -0.0099208294)
(0.72766114 0.11726743 -0.010377812)
(0.69760135 0.12062926 -0.010833563)
(0.66793345 0.12365974 -0.011284609)
(0.638722 0.12632326 -0.01171204)
(0.60987583 0.12876179 -0.01218239)
(0.58148313 0.13081285 -0.012624662)
(0.55361332 0.1324836 -0.013046161)
(0.52613666 0.13391265 -0.013493831)
(0.49918411 0.13497036 -0.013945397)
(0.47270777 0.13568936 -0.01438545)
(0.44682313 0.13602288 -0.014828374)
(0.42138232 0.13610457 -0.015256055)
(0.39660222 0.13573291 -0.015697402)
(0.37229643 0.13511987 -0.01615567)
(0.34863231 0.13413079 -0.016608656)
(0.32554276 0.13278756 -0.017058506)
(0.30307099 0.13113576 -0.017527142)
(0.28130833 0.12902227 -0.017950147)
(0.26009701 0.12673878 -0.018452055)
(0.2396178 0.12401488 -0.018914939)
(0.2198516 0.12090573 -0.019357704)
(0.2007395 0.11758937 -0.019882813)
(0.18244024 0.11375805 -0.020294861)
(0.16481708 0.1097959 -0.020837042)
(0.14806026 0.10528583 -0.021253383)
(0.13210654 0.10057991 -0.021744323)
(0.11688385 0.095510355 -0.022169454)
(0.10259171 0.090236032 -0.022671965)
(0.089233658 0.084393977 -0.022990548)
(0.0767108 0.078634468 -0.023451592)
(0.065166228 0.072315205 -0.023702847)
(0.054669831 0.065866961 -0.023915773)
(0.045121199 0.059205105 -0.023995672)
(0.036620075 0.05241466 -0.023903643)
(0.029221007 0.045457791 -0.023555144)
(0.022958631 0.038337061 -0.022729375)
(0.017853411 0.031141399 -0.02145108)
(0.013947434 0.024578118 -0.019492301)
(0.010352528 0.01726489 -0.015860319)
(0.010991943 0.010529708 -0.0095526891)
(0 0 0)
(0 0 0)
(0 0 0)
(0 0 0)
(0 0 0)
(0 0 0)
(0 0 0)
(0 0 0)
(0 0 0)
(0 0 0)
(0 0 0)
(0 0 0)
(0 0 0)
(0 0 0)
(0 0 0)
(0 0 0)
(0 0 0)
(0 0 0)
(0 0 0)
(0 0 0)
(0 0 0)
(0 0 0)
(0 0 0)
(0 0 0)
(0 0 0)
(0 0 0)
(0 0 0)
(0 0 0)
(0 0 0)
(0 0 0)
(2.5217948 -0.98448575 0.008407173)
(2.5218325 -0.9847538 0.0083705987)
(2.5218756 -0.98498833 0.0083320556)
(2.5219255 -0.98522086 0.008303867)
(2.5219779 -0.98544292 0.0082777166)
(2.5220336 -0.98565575 0.0082625383)
(2.5220872 -0.98585827 0.0082467328)
(2.5221411 -0.98605232 0.0082377131)
(2.5221935 -0.98623899 0.0082246606)
(2.5222427 -0.98641428 0.0082104119)
(2.5222964 -0.9865913 0.008194489)
(2.5223469 -0.98673907 0.0081678888)
(2.5224028 -0.98689355 0.008138962)
(2.5224627 -0.98702305 0.0081026871)
(2.5225301 -0.98715873 0.008061233)
(2.7145844 -0.39505815 0.010933065)
(2.7146859 -0.39522201 0.010928047)
(2.7147838 -0.39538007 0.010893681)
(2.7148826 -0.39555122 0.010863476)
(2.7149573 -0.39572927 0.010831039)
(2.7150316 -0.39591358 0.010785116)
(2.7150977 -0.39609683 0.010742777)
(2.7151535 -0.39628605 0.010693236)
(2.7152024 -0.39647492 0.010646184)
(2.7152412 -0.39666592 0.010601788)
(2.7152724 -0.39686305 0.010559335)
(2.7152935 -0.39706165 0.010522733)
(2.7153147 -0.39726487 0.010503763)
(2.7153071 -0.39749736 0.010459093)
(2.7153396 -0.39769355 0.010451827)
(0.0046810444 0.0085542825 0.012509071)
(0.007336474 0.0149522 0.014472048)
(0.010283702 0.02141837 0.017756265)
(0.014618941 0.027689054 0.019033817)
(0.019423222 0.033873372 0.020373906)
(0.025764484 0.04006419 0.02094945)
(0.032906016 0.046087747 0.021327254)
(0.041403075 0.052147573 0.02144185)
(0.050694537 0.057907332 0.021440429)
(0.061182635 0.063619249 0.021334637)
(0.072557529 0.068972272 0.021077436)
(0.084957576 0.074250096 0.020912405)
(0.098207136 0.079078965 0.020568056)
(0.11238672 0.083818614 0.020327876)
(0.12737162 0.088081964 0.019985805)
(0.14326406 0.092217883 0.019730708)
(0.15990831 0.095882984 0.019382485)
(0.17731003 0.099372607 0.019137404)
(0.1955101 0.10242399 0.01881816)
(0.21443778 0.10524141 0.018559154)
(0.23405021 0.10766949 0.018283648)
(0.25438514 0.10978794 0.018036117)
(0.27538088 0.11159471 0.017765475)
(0.29700624 0.11303996 0.0175378)
(0.31930753 0.11417334 0.017282834)
(0.34220418 0.11496137 0.01706585)
(0.36571351 0.11544059 0.016822657)
(0.38979581 0.11555885 0.016608736)
(0.41447014 0.11535733 0.01638359)
(0.43968839 0.11484679 0.016166877)
(0.46544 0.11396848 0.015945211)
(0.4917324 0.11278878 0.015735278)
(0.5185252 0.11127421 0.015527244)
(0.54580173 0.1094437 0.015315754)
(0.57356429 0.10728879 0.015110659)
(0.60178407 0.10480009 0.014908174)
(0.63044942 0.10202704 0.014710229)
(0.65953383 0.098916012 0.014511092)
(0.68905115 0.095513883 0.014319965)
(0.71895194 0.091801636 0.0141407)
(0.74924529 0.087792828 0.013964511)
(0.77989412 0.083478653 0.013789198)
(0.8109089 0.078893945 0.013630131)
(0.84225904 0.074002356 0.013470418)
(0.87393061 0.068849038 0.013321421)
(0.90591899 0.063414321 0.01318101)
(0.93820289 0.057712151 0.013044264)
(0.97077674 0.051747698 0.012918902)
(1.0036228 0.045525681 0.012797432)
(1.0367351 0.039051165 0.012683942)
(1.0700975 0.032332511 0.012575271)
(1.103703 0.02537184 0.012473672)
(1.1375388 0.018179235 0.012375163)
(1.1715962 0.010756315 0.012282988)
(1.2058647 0.0031134507 0.01219355)
(1.2403348 -0.004747883 0.012108942)
(1.274998 -0.012817052 0.01202674)
(1.309844 -0.021092326 0.011948486)
(1.3448648 -0.029564034 0.011872613)
(1.3800518 -0.038228865 0.011799916)
(1.4153961 -0.047078651 0.011729314)
(1.4508905 -0.056108413 0.011661955)
(1.4865245 -0.065312241 0.011596986)
(1.5222954 -0.074685166 0.011535042)
(1.5581869 -0.084212214 0.011474105)
(1.5942044 -0.093911192 0.011419707)
(1.6303397 -0.10374465 0.011363925)
(1.6665616 -0.11372968 0.011315816)
(1.7028939 -0.12385122 0.011268781)
(1.7393071 -0.13410941 0.011225864)
(1.7758139 -0.14449244 0.011182212)
(1.8123958 -0.15499972 0.011143954)
(1.8490581 -0.16562293 0.011104075)
(1.8857822 -0.17636172 0.011070476)
(1.9225776 -0.18720163 0.011035325)
(1.9594221 -0.19815753 0.011007562)
(1.99633 -0.2091912 0.010974276)
(2.0332745 -0.22034596 0.010952657)
(2.0702751 -0.23155543 0.010920551)
(2.1073022 -0.24288763 0.010904301)
(2.1443728 -0.25426297 0.010874865)
(2.1814689 -0.26574157 0.010860596)
(2.2185909 -0.27727605 0.010836544)
(2.2557289 -0.28888209 0.010824285)
(2.292891 -0.30054502 0.010801834)
(2.3300599 -0.31227575 0.010795987)
(2.3672454 -0.32405604 0.010783641)
(2.4044244 -0.3358794 0.010776302)
(2.4416174 -0.34775143 0.010772838)
(2.4787823 -0.35967151 0.010783597)
(2.5159757 -0.37160036 0.010768335)
(2.5531261 -0.38358443 0.010795343)
(2.590277 -0.39562941 0.010793785)
(2.6274594 -0.40763183 0.010777382)
(2.6645901 -0.41984367 0.010752763)
(0.0016682887 0.0075733267 0.011242403)
(0.004029034 0.011522076 0.013058879)
(0.0077782506 0.018042519 0.015286371)
(0.011524 0.023030912 0.016732534)
(0.016610636 0.028796933 0.017569727)
(0.022664065 0.034018852 0.018043694)
(0.029930128 0.039509711 0.01832108)
(0.038104509 0.044591173 0.018423492)
(0.047465563 0.04970038 0.018447861)
(0.057816201 0.054467681 0.018249188)
(0.069103914 0.059151819 0.018194989)
(0.081382346 0.063488869 0.017877806)
(0.094529935 0.067676382 0.017739673)
(0.108604 0.071506666 0.017422153)
(0.12348048 0.075124189 0.017258264)
(0.13926257 0.078408588 0.016901135)
(0.15570034 0.081441669 0.016755287)
(0.17307021 0.084127291 0.016447109)
(0.19107032 0.086543073 0.016250777)
(0.20986899 0.088620675 0.015996099)
(0.22931749 0.090404834 0.015802658)
(0.24951186 0.091871679 0.01555199)
(0.27031178 0.093021182 0.015376926)
(0.29182484 0.093850424 0.015162251)
(0.3139296 0.094352682 0.014978976)
(0.33667714 0.094563976 0.014774313)
(0.36000174 0.094426908 0.01460041)
(0.3839331 0.093983885 0.014422595)
(0.40842334 0.093229061 0.014235715)
(0.4334676 0.09214541 0.014061603)
(0.4590531 0.090751357 0.013895943)
(0.48516639 0.089043918 0.01372065)
(0.5117707 0.087030204 0.013550332)
(0.53888051 0.084692815 0.013387448)
(0.56646661 0.082053346 0.013220148)
(0.59451416 0.079114106 0.013063207)
(0.62301391 0.075861105 0.012902487)
(0.6519427 0.072314934 0.012756108)
(0.68127202 0.068470727 0.012608874)
(0.71101486 0.064347236 0.012469228)
(0.74112927 0.059919707 0.012326762)
(0.77162398 0.055230796 0.012205767)
(0.80247638 0.050238927 0.012069378)
(0.83366105 0.044993772 0.011962748)
(0.86518336 0.039475703 0.0118462)
(0.89701889 0.033692143 0.011745612)
(0.92915502 0.02765332 0.011647468)
(0.96158357 0.021362005 0.01155996)
(0.99428922 0.014822763 0.011473283)
(1.0272623 0.00804328 0.011397921)
(1.0604904 0.0010282539 0.011323704)
(1.0939642 -0.0062183222 0.011257268)
(1.1276723 -0.013686733 0.011193153)
(1.1616049 -0.021376638 0.011135096)
(1.1957526 -0.029276539 0.011078784)
(1.2301054 -0.037386006 0.011027453)
(1.2646547 -0.045694003 0.01097744)
(1.2993905 -0.054199969 0.010931845)
(1.3343051 -0.062892286 0.010887211)
(1.3693893 -0.07177077 0.010846053)
(1.4046344 -0.080824191 0.01080667)
(1.4400334 -0.090050659 0.010769662)
(1.4755764 -0.099443367 0.010735762)
(1.5112583 -0.10899288 0.010701664)
(1.5470685 -0.11869696 0.010672611)
(1.5830105 -0.12855349 0.010645939)
(1.6190398 -0.13853549 0.010621812)
(1.6551941 -0.14867719 0.010603741)
(1.6914543 -0.15894425 0.010574025)
(1.7278083 -0.16934236 0.010557305)
(1.764257 -0.17985306 0.010535159)
(1.8007804 -0.19048849 0.01052433)
(1.8373892 -0.20122439 0.010506523)
(1.8740599 -0.21208043 0.010502258)
(1.9108114 -0.22302174 0.010485465)
(1.947606 -0.23408251 0.010487849)
(1.9844786 -0.24520643 0.010469463)
(2.0213781 -0.25645498 0.010478985)
(2.0583518 -0.26774293 0.010458294)
(2.0953362 -0.27916034 0.010475126)
(2.1323923 -0.29059916 0.010452473)
(2.1694487 -0.30215524 0.010470229)
(2.2065582 -0.31374669 0.010460514)
(2.2436725 -0.32542111 0.010461864)
(2.2808352 -0.3371325 0.010458664)
(2.3179802 -0.34891568 0.010473428)
(2.3551584 -0.36073601 0.010473464)
(2.3923225 -0.37259797 0.010487833)
(2.4295031 -0.38453146 0.010502913)
(2.466672 -0.39644937 0.010501785)
(2.5038456 -0.40846121 0.010526234)
(2.5409847 -0.42047457 0.010531422)
(2.5781552 -0.43253281 0.010529211)
(2.615288 -0.4446423 0.010520435)
(2.6524671 -0.45682813 0.010492416)
(-0.00028859916 0.0060033084 0.0097326513)
(0.0019571963 0.0095677675 0.011083993)
(0.0045566217 0.014539068 0.013422569)
(0.0086355822 0.019144047 0.01430321)
(0.013585458 0.023852781 0.014870405)
(0.019826771 0.02859046 0.015220774)
(0.026809516 0.033033415 0.015426169)
(0.035190972 0.037492234 0.015508157)
(0.044385538 0.041595666 0.015358626)
(0.05466422 0.045750427 0.01539203)
(0.065867826 0.049430398 0.015117539)
(0.078081142 0.053146326 0.015051349)
(0.091110827 0.056364919 0.014767556)
(0.10506948 0.059566678 0.014664994)
(0.1198663 0.062300835 0.014345349)
(0.13543409 0.064925859 0.014263673)
(0.15186379 0.067129785 0.013975585)
(0.16900831 0.069164933 0.01383158)
(0.18690926 0.070819648 0.013613019)
(0.20554235 0.07223843 0.013462799)
(0.22487854 0.073332923 0.013254459)
(0.24488559 0.074122316 0.01312245)
(0.26557552 0.074629264 0.012939076)
(0.28688996 0.074805281 0.01279787)
(0.30885126 0.074717968 0.012629161)
(0.33141313 0.074285435 0.012499753)
(0.35458662 0.073572837 0.0123524)
(0.37832997 0.072552273 0.012208507)
(0.40265044 0.071223516 0.012073208)
(0.42751726 0.069590985 0.011947927)
(0.45292965 0.067659748 0.011806677)
(0.47885236 0.065428075 0.011679001)
(0.50529591 0.062890418 0.011555361)
(0.53222584 0.060059244 0.011428349)
(0.55963207 0.056936849 0.011308518)
(0.58750179 0.053516726 0.011188108)
(0.61580467 0.049816927 0.011081088)
(0.64453113 0.045828216 0.010973201)
(0.67371129 0.041552604 0.010866085)
(0.70327235 0.036987139 0.010756567)
(0.73322983 0.032166865 0.010670625)
(0.76355928 0.027062383 0.010564636)
(0.79424165 0.021698018 0.010496495)
(0.82527584 0.016072337 0.010413746)
(0.85663978 0.01018516 0.010341312)
(0.88831877 0.004051313 0.010278946)
(0.92030492 -0.0023302173 0.010218726)
(0.95258494 -0.0089526604 0.010165522)
(0.98514533 -0.015811502 0.010118302)
(1.017976 -0.02290018 0.010077231)
(1.0510665 -0.03021516 0.010038357)
(1.0844044 -0.037749446 0.010007454)
(1.1179813 -0.045497911 0.0099772882)
(1.1517854 -0.05345631 0.0099533808)
(1.1858088 -0.061616192 0.0099306135)
(1.2200402 -0.069975632 0.009912302)
(1.2544721 -0.078525097 0.0098952728)
(1.2890941 -0.087262543 0.009881865)
(1.3238986 -0.096178604 0.0098688802)
(1.358876 -0.10527135 0.0098598138)
(1.3940188 -0.11453131 0.0098506507)
(1.4293186 -0.12395644 0.009844641)
(1.4647664 -0.13353789 0.0098397024)
(1.5003569 -0.14327043 0.0098349988)
(1.5360812 -0.15315328 0.0098355777)
(1.5719241 -0.16317335 0.0098332861)
(1.6079105 -0.1733158 0.0098404752)
(1.643982 -0.18361436 0.0098351867)
(1.6801675 -0.19403955 0.0098507111)
(1.7164502 -0.20456373 0.0098590643)
(1.7528249 -0.215215 0.0098694308)
(1.7892848 -0.22596718 0.0098834041)
(1.8258318 -0.23682927 0.00989374)
(1.8624509 -0.24778723 0.0099092798)
(1.899143 -0.25884544 0.0099218566)
(1.935896 -0.26999166 0.0099411254)
(1.9727154 -0.28122455 0.0099541057)
(2.0095802 -0.29254351 0.0099770607)
(2.0465058 -0.30393296 0.0099904751)
(2.0834649 -0.31540592 0.01001612)
(2.1204787 -0.3269327 0.010027849)
(2.1575109 -0.33855134 0.010062564)
(2.1945919 -0.35019356 0.010067965)
(2.2316891 -0.36193478 0.010104823)
(2.2688134 -0.37369352 0.010120946)
(2.3059465 -0.3855255 0.010156467)
(2.3431054 -0.39737689 0.010168246)
(2.3802584 -0.40930932 0.010210964)
(2.4174382 -0.42123449 0.010216825)
(2.454588 -0.43323376 0.010261324)
(2.4917595 -0.44525851 0.010275711)
(2.5289081 -0.45729452 0.010296189)
(2.5660625 -0.4694142 0.010306376)
(2.6032112 -0.48151491 0.010301191)
(2.6403717 -0.49369018 0.010283339)
(-0.0014396511 0.0053155852 0.008091019)
(-0.00010969215 0.0074896693 0.0094293448)
(0.0025231882 0.011647531 0.010829891)
(0.0063743828 0.015172492 0.01144925)
(0.011342142 0.019226373 0.011926711)
(0.017209802 0.022916498 0.012215846)
(0.024447433 0.026746639 0.012346178)
(0.032563018 0.030208488 0.012260683)
(0.041715763 0.033721377 0.012388511)
(0.051932887 0.036851688 0.012149237)
(0.063077894 0.0399096 0.012164017)
(0.075133096 0.042664884 0.011916648)
(0.088074621 0.045231813 0.01189484)
(0.10196656 0.047551656 0.011604537)
(0.11654499 0.049578483 0.011601331)
(0.13210702 0.051403617 0.011333908)
(0.14830386 0.052910668 0.011259627)
(0.16536897 0.054183668 0.0110823)
(0.18309074 0.055144027 0.010980003)
(0.20160995 0.055859219 0.010814964)
(0.22073684 0.056257031 0.010725121)
(0.24062647 0.056402992 0.010583306)
(0.26110439 0.056238246 0.010481869)
(0.28228545 0.055806824 0.010365448)
(0.30405094 0.055064076 0.010271177)
(0.32646062 0.054041602 0.010169814)
(0.34944021 0.052739273 0.010065331)
(0.37302085 0.051124457 0.0099812457)
(0.39715198 0.049235783 0.0098885925)
(0.42184837 0.047051281 0.0097948491)
(0.4470645 0.044583459 0.0097098551)
(0.47282017 0.041818529 0.0096293991)
(0.49907107 0.038776733 0.0095404554)
(0.52581717 0.03545108 0.0094642806)
(0.55304556 0.03183036 0.0093823211)
(0.58072971 0.027951364 0.0093081139)
(0.60887813 0.023764216 0.0092328095)
(0.63749008 0.019327432 0.0091528634)
(0.66646323 0.014605138 0.009090558)
(0.69585823 0.0096430205 0.0090439509)
(0.72563555 0.004400307 0.0089809176)
(0.75579196 -0.0011021225 0.0089438445)
(0.78630811 -0.0068498302 0.0088939333)
(0.81716996 -0.012852907 0.0088550357)
(0.84836686 -0.019095705 0.0088268406)
(0.87988419 -0.025581258 0.0088026381)
(0.91171249 -0.032302057 0.0087811545)
(0.94383578 -0.039252645 0.0087698827)
(0.97624406 -0.04642938 0.0087604874)
(1.0089264 -0.053825649 0.0087564755)
(1.0418709 -0.061437126 0.0087567537)