/*--------------------------------*- C++ -*----------------------------------*\
  =========                 |
  \\      /  F ield         | OpenFOAM: The Open Source CFD Toolbox
   \\    /   O peration     | Website:  https://openfoam.org
    \\  /    A nd           | Version:  6
     \\/     M anipulation  |
\*---------------------------------------------------------------------------*/
FoamFile
{
    version     2.0;
    format      ascii;
    class       pointScalarField;
    location    "0.2";
    object      E;
}
// * * * * * * * * * * * * * * * * * * * * * * * * * * * * * * * * * * * * * //

dimensions      [1 -1 -2 0 0 0 0];

internalField   nonuniform List<scalar> 
625
(
122.74117
30.593725
-140147.86
-64695.211
195.77093
132.91387
-101180.12
-213395.36
36.483674
94.278095
24.03304
-73381.075
-74111.461
-54116.172
227.75069
176.01673
340.93537
565.58128
843.55046
1176.059
1590.0474
1967.8338
2455.7569
2938.3531
3394.2828
3706.6072
3904.0358
3894.0934
3662.1326
3193.4245
2706.4971
2025.7242
1810.3341
1328.739
1531.7484
1766.376
2853.0739
434.09865
149.45412
600.44021
569.39698
722.50583
942.54342
1156.5966
1499.1459
1837.9618
2272.5341
2716.4255
3220.037
3683.6141
4194.9128
4687.6081
5108.3954
5527.1805
5734.294
5991.6304
5772.6585
5806.9494
5446.3903
4574.2947
17.354278
86.847365
-52.401971
276.09648
958.06494
-23.606117
723.50035
812.33181
1089.8978
1476.2776
1771.1232
2541.3816
3180.1255
3920.9496
4685.8226
5379.889
6026.4033
6494.0931
6816.6937
6887.3023
6740.7614
6287.9846
5728.8082
4885.711
4183.3833
1887.5754
-151742.6
-164612.19
-156262.52
2013.6147
1420.7979
1852.1664
1698.9015
1876.6393
2232.0173
2528.4832
2963.5346
3218.1105
3409.1671
3413.3705
3313.422
3093.2721
2793.0135
2327.6174
2053.3281
1670.6405
1205.7608
972.03066
646.73387
457.14931
125.79744
314.65779
108.37815
118.63543
131.25675
7.899821
-21.62612
-68.621529
-74081.049
-73999.246
-74618.731
-158324.63
-158963.9
-159731.97
164.37675
83.45629
78.284169
195.73447
276.56164
449.31928
665.3089
955.7151
1258.4822
1575.3045
1845.7483
2132.1818
2384.8141
2625.8021
2904.217
3192.2572
3620.5804
3953.5328
4529.1133
4659.5892
5240.1692
5109.9936
5800.9268
161.36381
116.59252
78.368339
66.230514
103.19429
208.51861
378.11834
582.13855
846.49668
1176.3483
1532.4664
1926.2859
2299.9878
2716.9313
3074.2872
3459.0459
3780.1866
3976.3312
4381.7602
4124.1471
4694.29
4381.1173
5887.8866
169.38035
144.27537
255.95035
506.52067
794.79451
1065.2302
1335.4905
1608.1666
1814.5964
1996.8178
2097.7346
2139.4794
2117.6386
1982.2236
1775.8375
1553.9141
1178.4528
1175.4897
828.1944
1354.6122
1798.3967
2823.9227
4411.0863
-19.374062
-27.987457
-5.9521364
47.043365
36.620533
62.49205
-58.996618
-61.28932
-51.117529
354.46092
411.41088
335.3892
841.57056
639.99418
657.55487
366.76267
204.0684
450.42703
584.49689
654.05091
422.47709
777.38912
644.69626
770.21419
870.01692
831.20446
837.40628
1155.6898
1209.7561
1256.13
1562.4761
1575.879
1630.8036
2094.0244
2018.2084
2129.569
2654.0781
2530.0744
2793.9847
3298.5154
3121.7958
3472.5322
4005.07
3710.6456
4231.2389
4696.3058
4310.6582
4953.8296
5421.2732
4884.8023
5653.7384
6049.0343
5382.8189
6244.4901
6585.2987
5795.5602
6712.0341
6953.2731
6044.4889
6992.9884
7135.7244
6171.264
7053.7683
7090.2896
6031.0367
6873.5501
6666.2899
5710.6914
6460.3856
6336.1211
5317.1929
5918.9109
5564.8944
4964.4807
5488.1698
4210.8924
3312.4616
4021.1642
-101200.43
-101066.11
-101519.58
-91612.794
-101201.41
-101947.32
-106929.6
-98526.848
-99057.391
268.07684
248.02366
198.27516
157.95035
114.18487
200.04543
507.00157
426.63709
394.84237
633.02437
598.80609
610.94675
884.29599
872.79523
849.74031
1267.374
1284.4448
1138.5512
1634.5677
1556.2593
1457.5119
2046.6844
2032.7402
1926.6937
2517.0563
2442.7254
2296.7982
2983.458
2850.818
2701.2865
3413.7689
3236.2118
3112.664
3772.856
3536.8096
3446.1435
4011.6256
3716.2112
3669.2707
4086.2249
3750.51
3752.7849
3948.0008
3608.314
3672.3338
3663.8207
3328.2238
3395.0938
3221.4439
2884.1505
3052.6044
2740.5861
2524.901
2578.3294
2374.9534
2113.1352
2279.5052
1917.07
1890.6864
1979.9105
2305.0202
2155.4249
2187.1655
1520.1087
1478.9014
1632.3574
2556.9829
2155.4559
2344.1242
117.72382
89.567401
105.35438
355.87214
454.79256
708.91195
1013.1031
1356.964
1697.5303
2196.0688
2586.9313
2981.5091
3352.7759
3688.5293
4003.1861
4300.1668
4543.7976
4816.1452
4888.4956
5052.5653
5112.9458
5006.1051
6151.6035
77.28497
167.22173
90.076859
180.5259
171.38874
268.039
372.57572
515.43541
706.02092
925.30611
1174.3187
1453.503
1753.5603
2069.4788
2355.6768
2618.8731
2858.0777
3049.4493
3273.6807
3521.6293
3974.6935
3991.1915
6559.4948
168.52452
18.062174
274.36448
412.52785
802.97181
1008.8312
1374.5828
1601.4783
1785.5857
1947.4639
2012.8723
1994.7985
1884.7609
1675.6786
1390.1515
1050.8196
794.36012
602.43763
695.20155
1127.6893
1616.7111
3184.6218
3684.0845
65.561825
35.47502
59.357753
100.98289
71.213354
91.732941
81.637605
48.185193
65.821218
226.93758
229.24045
234.13459
318.73398
333.89444
303.99128
507.07779
550.73694
493.48876
749.56029
777.14346
738.25057
1029.9284
1083.6195
1015.0703
1353.9557
1425.4617
1384.9857
1760.9336
1734.6647
1776.7456
2167.1424
2134.5888
2184.9773
2541.6104
2499.1579
2570.469
2932.8714
2820.4195
2943.1288
3298.6421
3140.4137
3316.0814
3669.4164
3472.9997
3666.2849
4051.6626
3809.0259
4010.706
4398.3181
4158.1313
4381.3939
4764.5851
4559.0349
4630.0544
5021.2133
4632.0707
4986.8586
4891.5768
5100.6959
5022.2906
5298.0505
5306.7526
5165.8817
5238.7313
5243.7965
5264.292
5934.1659
5584.4392
5998.1468
105.56058
86.411193
80.642725
129.89408
117.43533
89.875363
98.623875
2.6615057
37.739203
137.45001
67.948818
56.552099
166.86846
75.874438
72.431821
274.38655
157.25617
178.60459
376.28062
304.94363
312.92495
565.50967
476.86674
535.81674
806.24691
710.49766
765.80463
1047.9108
997.25953
1036.0555
1354.989
1301.0441
1352.7539
1671.7149
1640.7107
1657.5417
2001.231
2001.7016
1953.9999
2334.8343
2361.1839
2253.7242
2625.3023
2684.6484
2513.0602
2903.7838
2985.8311
2753.0454
3124.7374
3220.1635
2909.3927
3300.3607
3334.2051
3090.3831
3505.4268
3596.0561
3258.7858
3470.1035
3828.2909
3350.7777
4297.6986
3847.0283
4094.8983
3890.6579
3802.2193
3496.9513
5464.4457
5725.836
5507.0781
186.44682
151.21666
178.05163
120.8213
-28.708791
27.919127
264.15354
234.50018
309.12889
519.52762
441.6582
474.32487
706.30845
707.87528
711.74247
933.50266
999.70811
1034.7786
1175.7885
1257.7446
1228.0358
1374.2336
1527.4338
1519.1787
1543.6817
1766.0948
1707.527
1702.8469
1926.2582
1896.5402
1800.848
2043.1552
2035.95
1852.4286
2081.5515
2107.4071
1833.9438
2027.8948
2127.5949
1731.2345
1886.2029
2050.6398
1574.6341
1652.4695
1914.7809
1355.233
1434.1791
1719.9477
1151.8485
1105.8604
1482.651
1014.6882
1066.246
1489.4114
989.02458
1028.3222
1321.3219
1459.8527
1434.8499
1911.314
1509.8752
1752.8761
1951.9611
2773.9219
3210.65
3664.6915
4154.8453
3729.1136
4104.2852
)
;

boundaryField
{
    free
    {
        type            zeroGradient;
    }
    fixed
    {
        type            zeroGradient;
    }
    traction
    {
        type            zeroGradient;
    }
}


// ************************************************************************* //
