/*--------------------------------*- C++ -*----------------------------------*\
  =========                 |
  \\      /  F ield         | OpenFOAM: The Open Source CFD Toolbox
   \\    /   O peration     | Website:  https://openfoam.org
    \\  /    A nd           | Version:  6
     \\/     M anipulation  |
\*---------------------------------------------------------------------------*/
FoamFile
{
    version     2.0;
    format      ascii;
    class       pointScalarField;
    location    "0.34";
    object      p;
}
// * * * * * * * * * * * * * * * * * * * * * * * * * * * * * * * * * * * * * //

dimensions      [1 -1 -2 0 0 0 0];

internalField   nonuniform List<scalar> 
28033
(
911969.86
-1239354.2
6446.2883
2686.9772
1665851.4
-1748292.9
3670.4302
1074.5261
739640.16
659947.61
563268.02
460774.41
342764.09
238862.14
132391.37
19240.496
-97624.226
-194985.22
-323847.21
-392178.61
-523451.48
-661012.07
-647253.73
-13498.542
-7376.3753
-7854.0679
-4708.5561
-4160.747
-2317.9573
-510.70018
1530.3315
3297.5814
5584.0656
7617.2176
8874.5485
10679.093
11966.531
11076.92
225619.9
243360.91
215777.37
229062.95
222052.01
225897.5
223450.03
222048.61
219187.93
216951.35
212486.24
208727.66
204417.82
200070.8
195093.19
190019.61
185148.43
180248.58
174677.88
169705.87
164888.95
159431.55
154904.2
150032.38
145176.88
140955.2
136584.26
132492.52
128461.34
124806.91
121224.04
117700.66
114588.61
111563.76
108465.81
105851.82
103314.56
101212.64
98510.635
96656.703
94333.664
92435.487
90645.882
89144.3
87576.258
86348.937
85106.254
84165.867
83199.243
82550.042
81882.373
81469.091
81099.333
80889.571
80759.548
80718.544
80750.171
80806.917
80875.98
80944.536
80940.027
80843.871
80572.781
80333.318
79778.755
79016.148
78394.943
77091.016
75411.522
73630.205
71752.838
69717.32
67285.083
64959.943
62125.744
59732.163
56495.778
54091.957
50684.572
48230.068
44929.916
42430.361
39196.565
36355.953
33507.289
30585.934
28102.06
25701.574
22239.187
20516.413
18434.949
14384.769
15409.377
14252.315
12181.423
-221770.99
-180018.94
-208903.26
-183626.41
-206230.36
-201423.24
-202563.01
-198622.13
-199255.02
-193707.76
-191828.45
-187252.34
-182976.72
-179284.35
-174046.52
-169884.97
-164735.22
-159875.78
-155193.56
-150264.77
-145164.46
-140949.03
-135721.41
-131589.81
-127239.68
-122717.98
-119188.51
-114809.81
-111644.8
-107590.15
-104420.45
-101080.99
-98124.593
-95272.904
-92637.473
-90329.158
-87498.258
-85475.9
-83099.586
-81266.778
-79270.946
-77589.63
-75910.276
-74475.462
-73074.67
-71894.307
-70785.084
-69850.444
-69029.421
-68344.313
-67789.802
-67352.049
-67041.627
-66840.245
-66739.901
-66739.408
-66814.336
-66943.223
-67122.607
-67302.565
-67468.23
-67582.057
-67614.898
-67497.329
-67270.663
-66807.369
-66246.661
-65467.319
-64536.964
-62683.494
-61755.931
-59607.334
-57926.477
-55752.478
-53583.885
-51203.409
-48748.384
-46247.38
-43640.832
-41012.035
-38400.069
-35729.002
-33027.189
-30477.978
-27794.351
-25206.695
-22688.897
-20256.939
-17593.381
-15447.886
-13257.073
-10746.676
-9008.7088
-8490.8281
-6096.2155
1337902.1
1264587.8
899569.83
916306.2
639993.51
395808.36
259767.36
18417.506
-169170.79
-397524.68
-571449.58
-792467.95
-1021801.3
-1196036.5
-1287298.5
-364098.15
-270877.11
-121915.08
-250943.05
-200787.09
-214599.35
-204353.62
-212931.44
-198933.78
-203513.61
-201866.54
-192075.98
-193680.79
-183306.52
-183410.32
-176134.82
-169657.18
-165619.34
-158651.55
-155841.77
-149465.8
-143424.48
-140077.25
-135394.03
-131281.93
-127388.62
-121079.8
-119135.94
-112956.06
-110789
-107555.84
-104248.36
-101103.67
-98242.352
-95817.037
-91480.468
-90145.238
-87907.416
-85691.367
-83624.794
-81717.934
-79978.635
-78352.852
-76879.548
-75562.643
-74387.057
-73333.764
-72430.16
-71650.363
-71032.684
-70546.067
-70202.164
-69989.572
-69914.887
-69940.526
-70076.477
-70292.649
-70562.481
-70852.101
-71146.953
-71373.213
-71533.914
-71541.751
-71404.955
-71054.384
-70503.019
-69978.06
-69030.852
-65135.94
-66133.991
-64017.24
-61939.149
-59837.094
-57458.088
-54959.651
-52358.054
-49655.179
-46948.02
-44139.752
-41331.426
-38509.211
-35733.541
-32907.585
-30230.919
-27532.515
-24926.433
-22356.01
-19938.591
-17488.18
-15219.429
-13111.072
-10973.146
-10031.407
-8417.7793
-8485.1198
13708.205
13844.133
10297.56
11046.165
6674.1954
6887.9597
2921.7572
1660.4326
-818.85322
-3249.4133
-3173.733
-6295.7314
-6355.2001
-11063.122
-9468.2426
20791.663
16119.61
15828.927
17912.072
19424.478
22042.132
24462.148
27168.657
29790.754
32653.778
35472.962
38248.53
41256.545
44235.397
47323.853
50250.316
53349.765
56266.953
59198.191
62071.841
64796.537
67491.48
69979.904
72291.678
74242.702
75782.067
76545.107
81274.823
79968.643
81908.741
82567.676
83109.704
83334.222
83496.112
83438.44
83316.025
83144.581
82945.095
82786.602
82687.028
82672.736
82761.651
83000.513
83339.267
83852.922
84493.239
85290.566
86221.867
87333.385
88541.863
89933.86
91457.586
93125.271
95063.458
96857.1
98941.112
101067.83
102634.91
106601.09
108750.88
110692.05
115155.68
117404.37
120849.47
122725.41
128580.53
130331.75
136248.09
139863.07
144251.55
148712.96
152127.51
159183.97
163360.24
166549.99
174590.81
176790.26
184825.75
187079.29
194066.21
200551.22
203221.31
206279.87
214103.72
216367.79
218036.08
224638.99
225749.04
226419.73
223485.65
223159.33
235652.25
231406.68
215892.79
282753.01
658067.64
719775.95
759535.54
789874.03
804037.21
826707.51
825569.86
836204.5
827267.89
808068.68
822686.15
773006.12
746134.83
780398.54
619175.61
-1037606.3
-1315612.5
-1299713.9
-1403491.8
-1360944.1
-1302693.3
-1493595.3
-1588245.5
-1490422.8
-1493948.7
-1437013.1
-1390003.5
-1309874.8
-1289906.3
-1201920.2
2377.38
2426.659
3050.1849
3425.5298
4419.2588
5083.5125
5207.3286
5315.3318
5345.7624
5055.4441
4776.7176
3932.8332
3552.6055
3091.7604
3101.7775
-654.75112
2251.7988
1542.8336
1025.6157
260.74188
181.92827
-381.25517
-330.15869
-225.0661
-89.569478
683.58185
1249.0417
1433.7947
4710.2833
-79.004896
224583.14
221899.55
194186.72
196412.17
197511.65
197307.6
197790.37
197414.84
196143.33
193910.97
191040.64
188795.32
184727.62
181052.49
176711.42
173148.22
168424.99
164191.85
159473.35
155272.72
150952.46
146516.04
142185.39
137976.04
133674.71
130008.37
125805.98
122174.06
118502.83
115172.87
111549.22
108476.03
105834.51
102717.85
100192.45
97432.436
95085.318
92504.028
90507.538
88632.448
86854.124
85072.392
83503.002
81954.911
80569.05
79392.645
78232.623
77326.429
76439.771
75771.119
75159.956
74713.678
74345.627
74096.003
73919.859
73815.568
73753.682
73703.554
73661.884
73569.752
73409.119
73112.537
72769.376
72266.159
71284.089
70494.291
69171.358
67814.038
66225.386
64599
62794.991
60817.209
58597.71
56569.357
54111.627
51900.711
49296.326
47081.075
44267.484
42127.96
39353.515
36972.935
34574.483
32431.627
29877.816
27561.432
25341.438
22715.599
20742.376
19049.443
15941.838
14525.955
12918.898
7474.5857
3092.7894
209484.29
185523.59
162367.63
167983.26
165594.46
166623.39
166975.93
167471.62
166427.21
165648.03
163784.21
161794.82
158991.97
156435.49
153056.12
149732.89
146112.05
142733.17
138893.19
135296.02
131304.79
127535.06
123944.73
120319.2
116746.09
113216.08
109905.1
106649.16
103456.09
100378.2
97559.509
94772.112
91966.336
89400.967
87008.596
84631.1
82425.476
80405.178
78458.344
76592.923
74837.326
73475.076
71653.707
70407.521
69088.759
68025.034
66971.413
66145.563
65332.081
64741.261
64170.24
63775.576
63426.478
63186.255
62997.401
62854.998
62734.548
62620.733
62477.462
62292.719
62025.54
61687.933
61295.793
60711.218
60008.587
59928.909
59196.482
58251.8
57166.354
55873.208
54368.445
52884.852
50988.642
49407.249
47021.691
45519.883
42902.114
41406.873
38636.13
37216.717
34473.526
32632.517
30454.89
27555.292
25505.318
23564.565
21072.317
19465.033
17474.312
15032.554
13041.703
11247.51
7544.4775
4250.4334
-1852.9822
164448.69
159312.28
133673.68
139717.51
135228.99
137828.88
139041.32
139599.06
138385.29
138675.9
137028.97
135840.47
133580.97
131693.65
128898.54
126653.1
123460.41
120790.68
117580.49
114638.02
111560.49
108643.64
105501.67
102586.54
99469.888
96710.78
93794.133
91052.717
88392.233
85829.149
83294.552
80859.084
78628.305
76411.731
74387.65
72374.057
70686.32
69010.676
67387.528
65815.258
64288.347
62854.701
61771.467
60636.061
59618.404
58644.991
57785.931
57017.041
56354.051
55783.298
55295.727
54915.986
54584.781
54346.932
54140.852
53977.328
53835.276
53685.624
53511.674
53296.129
53019.098
52658.45
52217.902
51548.558
51043.573
50421.885
49982.751
48480.582
47845.475
46724.154
45533.927
44038.493
42422.295
40879.349
39308.876
37559.268
35949.961
34076.281
32515.737
30565.962
28884.742
27246.557
25116.548
23673.995
22112.513
20270.182
18267.663
16886.174
14868.238
13150.003
11551.664
8520.736
6682.2968
1856.1036
-302.13954
132812.32
129095.58
104045.58
112334.98
105893.83
110147.67
110246.54
110314.02
110374.12
110785.86
109566.18
108801.67
107230.77
105902.31
103767.64
101937.7
99561.045
97596.219
95015.64
92826.139
90282.163
87900.304
85431.696
83092.775
80746.695
78479.058
76235.542
74066.936
71922.547
69854.633
67874.045
65961.976
64096.922
62297.875
60732.979
58884.907
57416.057
55504.45
54033.862
52743.414
51715.179
50643.424
49531.959
48503.863
47630.617
46824.024
46106.491
45482.967
44924.211
44452.465
44053.912
43730.954
43465.488
43263.188
43089.541
42957.634
42826.603
42688.093
42530.331
42331.329
42082.826
41764.397
41354.571
40928.362
40379.818
39786.397
39136.351
38146.244
37218.871
36284.014
35452.43
34266.232
33556.652
32477.128
31164.189
29877.159
28486.032
27245.459
25720.498
24472.165
23017.117
21737.001
20193.11
18857.979
17304.671
16416.387
14934.915
13576.069
12102.939
10763.625
8643.0495
7056.2451
4472.3575
1686.2519
-1906.3511
109285.58
96253.707
76740.413
83708.881
80463.095
82761.897
83159.786
83897.01
83385.503
83874.714
82810.759
82387.067
81186.052
80287.323
78508.079
77439.374
75506.399
74069.697
72131.644
70596.597
68681.354
67044.388
65182.936
63568.717
61755.992
60123.963
58399.462
56810.322
55223.963
53727.423
52225.63
50805.839
49418.332
48159.39
46904.504
45683.58
45210.779
44867.479
43775.369
43589.463
42466.078
41599.628
40903.273
40175.121
39534.157
38886.601
38322.466
37792.744
37349.206
36945.752
36609.031
36330.295
36089.546
35894.433
35730.276
35585.327
35443.196
35296.407
35140.476
34931.521
34721.185
34374.589
34108.538
33650.962
33139.736
32690.161
32123.309
31338.192
30498.529
29730.526
28919.008
27927.859
26632.872
25626.553
24395.596
23392.676
22446.807
21339.365
20362.35
19361.033
18189.6
17348.22
16124.17
15393.282
14129.873
13534.483
11995.453
11263.344
9819.4555
8481.9915
7102.1824
5729.8864
4067.5205
1314.1282
-1113.6804
68988.563
67906.255
51828.939
59158.51
54325.122
55255.72
57104.248
56674.848
56361.443
57212.372
56117.391
56062.72
55146.813
54544.723
53354.008
52717.084
51290.013
50521.838
49116.026
48141.819
46781.625
45756.171
44508.177
43473.937
42280.765
41248.876
40193.807
39194.426
38158.837
37186.994
36222.966
35301.07
34416.151
33560.634
32667.702
32016.202
31515.573
31125.744
30921.069
30680.921
30512.395
29926.668
29373.427
28901.692
28456.468
28017.656
27628.317
27281.35
26970.748
26696.222
26467.585
26272.124
26106.328
25975.474
25861.347
25755.138
25659.1
25550.4
25419.745
25272.923
25074.931
24873.015
24582.765
24268.02
23987.277
23481.465
23178.349
22635.307
22148.158
21675.051
21051.911
20360.423
19811.687
18273.812
17370.831
16708.909
16016.125
15328.308
14562.454
14053.697
12968.403
12776.09
11433.047
11346.3
9933.2394
9966.7111
8445.1818
8573.8078
7080.7747
7096.3289
5955.5851
5040.0849
3598.5769
1590.1904
353.45816
38413.272
34234.111
26643.598
32514.803
27490.981
29837.453
30398.872
29812.585
29818.8
30154.35
29514.753
29434.971
28952.269
28778.063
28028.904
27871.855
27048.059
26845.457
26032.313
25803.754
25087.097
24789.743
24155.961
23763.796
23160.639
22803.973
22232.303
21804.441
21299.717
20908.3
20431.037
20039.687
19611.187
19196.571
18863.014
18528.164
18174.99
17942.833
17453.863
17087.701
16851.739
16638.258
16371.121
16232.851
16061.496
15897.723
15739.631
15611.098
15474.232
15366.549
15270.453
15185.136
15116.153
15056.417
14998.186
14942.957
14887.55
14809.934
14730.217
14620.08
14494.38
14338.351
14164.74
13965.817
13720.188
13510.478
13196.608
12926.945
12623.669
12309.88
11991.295
11661.115
11129.678
11051.71
10873.888
10510.846
10132.805
9675.196
9375.7159
8876.9117
8507.4434
8196.7527
7535.5644
7564.1419
6684.9096
6864.055
5961.6556
6163.1161
5226.2393
5156.6543
3948.1959
3475.6244
2914.2297
2088.3696
1369.4371
2697.4978
5115.3139
1017.4662
4208.7619
3115.5502
3382.2155
3792.3914
3705.9029
2915.2741
3950.4088
3100.7948
3435.9852
3378.9659
3534.884
3251.2368
3728.5954
3413.8829
3818.9571
3629.3625
3997.575
3870.6567
4211.0957
4036.693
4269.9577
4314.7956
4462.6528
4506.3938
4647.8977
4705.0938
4778.553
4803.8787
4868.7981
4857.1084
4935.2359
4933.4684
4907.1003
5012.6007
4989.2934
4983.0324
4901.2267
4947.4795
5018.1855
4946.9601
4931.087
4913.2012
4859.0773
4832.1449
4793.7931
4751.1294
4703.9951
4661.9814
4619.9664
4578.8931
4540.4736
4515.0653
4480.0052
4454.1198
4430.7329
4392.1844
4358.8648
4312.8707
4259.8931
4193.3776
4128.6081
4073.1622
3980.503
3940.833
3866.3195
3801.5019
3753.7603
3673.9769
3631.7556
3524.1191
3515.3087
3497.8888
3520.7978
3419.4872
3408.5731
3342.6225
3272.9914
3270.2619
3082.7225
3155.7172
2987.564
2867.0631
3031.9587
2478.1642
3105.1135
2198.1684
3109.2303
2602.9449
3500.4074
3254.5883
2676.0257
2898.744
-25459.086
-25189.569
-22413.521
-20016.792
-21361.311
-22405.125
-21126.158
-22864.734
-22319.815
-22288.771
-22320.21
-21963.651
-21445.942
-21049.232
-20557.062
-19700.024
-19416.608
-18393.025
-18081.328
-17122.462
-16790.418
-16002.878
-15442.215
-14471.262
-13969.453
-13180.995
-12664.451
-11956.289
-11479.103
-10879.104
-10398.369
-9899.7369
-9452.0863
-8993.5599
-8644.3991
-8168.801
-7883.1549
-7473.1818
-7165.7804
-6804.9338
-6531.0677
-6235.8851
-6007.8241
-5725.1268
-5491.5392
-5294.7982
-5111.7305
-4942.0818
-4803.8132
-4679.2851
-4559.0712
-4461.5845
-4378.2088
-4297.2712
-4231.2448
-4189.7358
-4138.7335
-4117.9305
-4111.4248
-4103.6283
-4120.6822
-4153.8854
-4179.8739
-4209.0043
-4269.2582
-4272.0815
-4293.8762
-4270.9675
-4236.9461
-4140.9411
-4064.035
-3869.7018
-3707.1466
-3480.5361
-3475.3418
-3423.646
-3057.2845
-2878.517
-2576.5674
-2407.5934
-2028.625
-1938.5094
-1483.9877
-1330.6543
-1035.7304
-455.55606
-562.66248
641.90975
142.72192
1565.0579
976.42915
1641.5621
1390.5376
2644.6993
3877.1473
-58558.134
-56959.404
-47186.733
-48641.153
-49498.621
-49630.77
-50257.545
-50129.261
-50828.589
-49908.134
-49732.702
-48830.656
-47966.086
-46762.686
-45788.533
-44261.401
-43205.802
-41603.055
-40420.02
-38832.224
-37669.748
-35583.622
-34054.192
-32612.457
-31491.829
-30241.472
-29124.581
-27978.059
-26955.113
-25906.564
-25014.763
-24077.632
-23278.132
-22465.777
-21697.305
-21028.51
-20326.914
-19723.112
-19120.312
-18599.428
-18086.916
-17603.037
-17169.463
-16795.77
-16430.378
-16131.207
-15844.79
-15600.506
-15400.32
-15230.295
-15085.649
-14983.506
-14897.454
-14832.69
-14790.717
-14759.923
-14732.494
-14720.292
-14704.444
-14677.269
-14664.832
-14623.587
-14573.401
-14508.1
-14428.092
-14291.76
-14145.955
-13964.169
-13716.272
-13460.468
-13113.412
-12719.973
-12302.69
-11457.806
-10347.21
-9628.5372
-8984.8346
-8527.0269
-7871.9255
-7565.1
-6639.6208
-6618.1816
-5477.0858
-5443.9461
-4529.2459
-3948.6114
-3670.0426
-2180.6649
-2592.829
-502.49647
-794.98459
416.59266
1501.593
2991.8823
4508.0791
-92114.444
-71947.699
-66589.199
-67808.848
-69230.92
-70355.531
-70680.068
-71406.362
-71857.547
-70822.349
-70262.737
-69407.352
-67753.056
-66281.759
-64780.804
-62674.075
-61224.158
-58958.672
-57405.094
-55456.341
-53970.918
-53721.452
-52323.605
-50587.793
-49073.981
-47209.958
-45728.473
-44009.156
-42554.646
-41086.84
-39744.35
-38444.772
-37285.506
-36069.298
-35029.142
-33931.739
-33010.388
-32046.793
-31206.04
-30369.495
-29616.734
-28878.109
-28228.056
-27589.499
-27017.353
-26493.902
-26027.866
-25600.897
-25228.56
-24895.851
-24601.352
-24349.728
-24127.833
-23941.735
-23778.84
-23648.9
-23535.845
-23446.405
-23368.404
-23309.976
-23245.654
-23187.809
-23131.735
-23040.649
-22978.963
-22808.358
-22641.587
-22364.85
-22081.512
-21674.879
-21207.474
-20744.326
-20058.333
-19258.366
-18291.171
-17962.055
-16556.875
-15642.08
-14707.539
-13825.233
-12994.732
-11978.532
-11165.872
-10173.992
-9173.1224
-8381.7696
-7096.5388
-6395.6539
-5026.7747
-3893.4003
-2849.5511
-908.21943
445.76223
2539.4325
6401.5552
-108843.28
-106587.79
-96352.897
-95659.945
-97231.794
-97360.979
-98922.836
-99147.338
-98205.589
-98114.322
-96420.196
-94797.947
-92896.065
-90651.494
-88334.43
-85918.442
-83337.639
-80728.339
-78318.229
-75582.044
-73432.52
-70572.858
-69802.559
-67888.196
-65677.2
-63595.904
-61483.349
-59354.75
-57457.183
-55509.957
-53788.195
-52049.175
-50517.801
-48982.974
-47575.979
-46267.391
-44990.919
-43810.996
-42690.747
-41654.175
-40663.934
-39779.11
-38937.643
-38188.369
-37493.331
-36871.138
-36320.195
-35825.153
-35405.64
-35054.233
-34757.078
-34529.933
-34357.612
-34234.423
-34156.762
-34121.234
-34107.514
-34109.141
-34130.615
-34130.231
-34115.259
-34083.307
-33989.626
-33838.432
-33677.75
-33371.474
-33087.354
-32666.258
-32155.968
-31524.895
-30874.871
-30005.266
-29113.33
-28176.863
-26964.089
-26333.403
-25077.473
-23726.856
-22382.329
-21061.773
-19636.068
-18290.433
-16861.746
-15491.262
-14002.914
-12821.49
-11037.065
-10090.57
-8334.0313
-6848.5205
-5768.5797
-2787.0509
-913.97699
3563.7769
7833.5891
-160055.04
-145166.13
-122759.17
-130719.93
-126724.2
-131548.8
-129931.2
-131004.58
-129495.33
-128783.76
-126458.46
-124332.12
-121577.57
-118753.36
-115543.76
-112360.97
-109109.64
-105603.32
-102472.58
-99002.791
-95861.793
-92617.772
-89129.094
-85963.643
-83156.722
-80448.056
-77914.021
-75303.218
-72900.338
-70543.836
-68344.338
-66207.254
-64315.763
-62432.473
-60737.152
-59029.267
-57465.81
-55974.519
-54616.772
-53294.242
-52110.188
-50960.581
-49921.363
-48945.228
-48061.075
-47256.083
-46539.125
-45892.396
-45334.529
-44850.085
-44430.409
-44090.455
-43803.922
-43577.674
-43395.848
-43262.888
-43147.987
-43067.781
-42994.506
-42916.486
-42838.627
-42732.042
-42582.945
-42385.431
-42157.578
-41786.453
-41440.6
-40856.263
-40285.794
-39530.818
-38653.366
-37687.286
-36583.046
-35342.886
-33998.842
-32693.313
-31209.569
-29692.247
-28044.869
-26401.84
-24746.245
-23039.199
-21347.792
-19618.126
-17961.019
-16174.921
-14468.403
-12861.995
-10703.089
-9395.9438
-6816.9816
-4727.9152
-2339.156
1421.3823
6083.4449
-180541.91
-171032.53
-145665.21
-155142.36
-156020.82
-157717.16
-157150.15
-158375.64
-156598.07
-154596.4
-152820.63
-149365.65
-146400.27
-142963.38
-138819.8
-135405.05
-131273.44
-127143.76
-123409
-119147.84
-115361.06
-111603.29
-107789.75
-104472.5
-100654.55
-97399.392
-94160.049
-91026.578
-88359.776
-85420.348
-82911.848
-80287.775
-77935.519
-75605.476
-73543.382
-71603.929
-69668.117
-67965.609
-66251.61
-64725.784
-63251.57
-61909.769
-60670.992
-59524.555
-58491.385
-57547.006
-56707.224
-55965.676
-55326.602
-54788.976
-54349.412
-54012.959
-53769.107
-53613.146
-53537.829
-53528.912
-53570.488
-53645.229
-53735.562
-53814.404
-53868.952
-53864.553
-53786.185
-53605.439
-53299.493
-52826.779
-52299.078
-51573.75
-50797.303
-49751.614
-48668.566
-47301.977
-45817.064
-44308.151
-42498.223
-40710.643
-38767.297
-36775.436
-34706.386
-32660.927
-30546.695
-28415.833
-26308.123
-24219.55
-22037.316
-20046.052
-17913.54
-15846.77
-13713.986
-12009.369
-8992.0386
-7832.66
-4445.0751
-586.9528
5869.1179
-256818.11
-170575.15
-179915.25
-180318.51
-184379.91
-180643.92
-184086.3
-183478.23
-180717.89
-179316.22
-176079.37
-173150.59
-168924.21
-165214.95
-160532.98
-156290.66
-152065.88
-147241.02
-142722.84
-138286.09
-133625.92
-129435.05
-125357.85
-121118.18
-117162.32
-113101.88
-109381.87
-105707.51
-102648.87
-99432.553
-96486.683
-93475.9
-90725.02
-87904.658
-85304.766
-83157.991
-81047.627
-78966.801
-77018.979
-75198.008
-73491.593
-71923.156
-70460.066
-69123.172
-67913.808
-66822.212
-65860.622
-65024.301
-64305.573
-63719.659
-63241.195
-62891.142
-62638.036
-62489.329
-62423.603
-62429.377
-62478.649
-62567.142
-62654.172
-62727.344
-62758.947
-62730.572
-62600.138
-62366.613
-61943.175
-61358.781
-60558.633
-59674.373
-58925.491
-57665.848
-56266.745
-54554.727
-52962.111
-50980.199
-48970.188
-46831.293
-44681.432
-42327.981
-40028.92
-37609.267
-35183.851
-32720.687
-30356.196
-27828.985
-25488.609
-23153.153
-20681.266
-18498.476
-16268.373
-14083.501
-11716.977
-10724.773
-7431.0655
-4847.2539
1409.8987
491163.58
491234.33
476863.27
491425.42
494379.69
497806.29
515893.12
503181.51
500664.44
498275.8
495263.11
478810.82
471507.34
496849.82
413783.21
446936.65
472160.84
442239.68
464308.98
463234.53
474785.42
460206.26
477179.37
472351.93
475373.7
464732.66
461792.8
461013.82
464277.88
391135.09
325019
381796.4
335460.02
351213.82
352711.81
348195.09
354384
349997.83
353362.6
348001.33
347107.54
349921.83
326914.28
361231.03
324040.92
290750.85
300292.32
298226.49
296229.18
305881.87
302881.14
307849.4
307852.7
304296.39
305668.78
305388.66
294364.14
292979.69
316099.72
217784.75
205912.3
236601.05
205339.6
224436.43
217438.78
224773.68
222204.63
222211.98
223140.51
222906.15
219072.59
218977.79
215924.85
222012.13
195708.25
153212.84
164626.14
151894.07
158554.7
158361.19
159710.6
159621.42
159599.86
160453.48
159554.65
155390.15
161051.46
150264.93
161949.08
149981.77
86283.564
87618.085
88352.944
85063.202
89459.686
88948.233
89124.444
89397.329
87380.286
88482.892
87778.135
81835.346
88028.077
83890.884
81514.76
20480.745
21502.262
14954.139
20207.686
17864.968
18378.993
18571.338
18274.582
16786.715
21260.938
12463.079
20321.774
22969.256
9926.2652
41493.099
-43353.339
-50636.417
-44890.132
-49223.06
-48421.736
-48703.596
-49301.486
-48084.926
-50572.08
-44105.613
-51462.776
-43769.699
-42506.234
-55658.209
-4641.3246
-97849.111
-121031.38
-108987.33
-113316.4
-113750.75
-116464.2
-116695.66
-117103.5
-120279.24
-113191.49
-127915.16
-109758.26
-110561.44
-129232.74
-73048.033
-169392.59
-202246.57
-173869.76
-192199.11
-185272.2
-188820.39
-188169.26
-188094.86
-190486.83
-180935.52
-185353.02
-183080.44
-168675.13
-188749.28
-121631.68
-251439.62
-245508.47
-246083
-245087.04
-254178.01
-255731.3
-257564.06
-260780.62
-261379.73
-256665.79
-269270.7
-233885.49
-249207.23
-264258.29
-192703
-293520.2
-318705.33
-289290.85
-299272.75
-289883.66
-298347.1
-297191.42
-296711.02
-294022.78
-290551.46
-292815.9
-297817.38
-269205.06
-320219.37
-171290.92
-369371.14
-445533.97
-391186.93
-425494.92
-437445.88
-432335.84
-436561.18
-456116.6
-446408.77
-458251.89
-432770.9
-421786.93
-432808.61
-412028.49
-389535.03
-412146.94
-352933.81
-326844.49
-331088.91
-346546.92
-371596.05
-357107.94
-342790.57
-327946.85
-326422.14
-334288.91
-335560.87
-332457.36
-367940.56
-325561.76
-381568.63
-357226.9
-428280.35
-445208.21
-463572.94
-502453.11
-481397.45
-450181.16
-512309.4
-502520.58
-486047.42
-461952.05
-442244.81
-421742.18
-349638.43
-269146.61
-273872.06
-307923.68
-317854.43
-330295.33
-341763.86
-351254.29
-360509.44
-371407.72
-353814.38
-346830.04
-325323.59
-326518.62
-321022.38
-317540.52
-209947.36
-241825.61
-237243.39
-260669.44
-276480.07
-267990.05
-281905.24
-278212
-270236.5
-282284.31
-270237.02
-275157.03
-263821.61
-233952.03
-242792.21
-213484.79
-244456.17
-247933.68
-254814.28
-261097.13
-268128.73
-269732.77
-272308.44
-271578.43
-265338.3
-264539.41
-256528.8
-246843.55
-241498.99
-225972.17
-222689.6
-243076.14
-236423.85
-256394.78
-257893.86
-263348.13
-270059.5
-268695.2
-270538.52
-270304.24
-262241.86
-257405.38
-245231.01
-234871.21
-230725.83
-213565.87
-223607.31
-230079.48
-239185.12
-242365.43
-249596.96
-248859.25
-250075.76
-249490.81
-245410.19
-243954.27
-238237.52
-231564.83
-225468.66
-212677
-210575.84
-225646.64
-226551.87
-236006.19
-235997.75
-241184.77
-243057.48
-243739.39
-243152.46
-241027.03
-235664.03
-232590.25
-226469.26
-216767.52
-218117.18
-209656.35
-214186.04
-219655.03
-224044.2
-230362.52
-231901.38
-234073.91
-235088.44
-233571.85
-232802.34
-229483.22
-225758.62
-220518.74
-214289.89
-209035.06
-204074.04
-211746.7
-213752.4
-219438.64
-219064.33
-223923.01
-222704.9
-224328.82
-222732.29
-221180.73
-218741.75
-215251.14
-212400.85
-208268.37
-206110.94
-201424.24
-203819.41
-207391.02
-209127.04
-212493.19
-213516.93
-215151.9
-215078.98
-214447.36
-214268.21
-211230.86
-209973.03
-206664.31
-203252.59
-201761.82
-195963.18
-200276.89
-201581.18
-205015.96
-205932.51
-208798.52
-208320.53
-209808.45
-209148.64
-208154.13
-207382.56
-205452.46
-203008.32
-200866.22
-199217.84
-192748.36
-193560.46
-195895.56
-196506.9
-198080.79
-198556.16
-199597.77
-199667.49
-199625.79
-199098.58
-198086.53
-196541.58
-195547.87
-193575.39
-193583.12
-188260.22
-189013.09
-189482.51
-191675.39
-192253
-194081.72
-193929.37
-194828.15
-194641.77
-194334.43
-193241.36
-192907.96
-191147.38
-190630.71
-189214.26
-182614.56
-183569.64
-185168.43
-184775.32
-186183.6
-186326.45
-186478.46
-187179.75
-186960.89
-186510.09
-186270.07
-185790.02
-185037.89
-183847.35
-184875.43
-178550.16
-178249.57
-178955.85
-179727.5
-180150.51
-180627.58
-181348.92
-180670.06
-181378.52
-181302.95
-180931.08
-180663.21
-179524.28
-180116.15
-179521.57
-172751.89
-173301.13
-174193.04
-173755.71
-174223.8
-174523.28
-175453.69
-174445.13
-174464.6
-174342.37
-173880.45
-174070.65
-173064.1
-172951.08
-173496.66
-168389.65
-167842.98
-168574.08
-167897.62
-168955.49
-169133.41
-169011.94
-169179.71
-169420.58
-169410.53
-169182.15
-169536.08
-169507.85
-168548.27
-170150.25
-163595.45
-162871.69
-163377.01
-162616.72
-163209.55
-163047.72
-163368.27
-162838.54
-162958.61
-163003.8
-162620.91
-162711.71
-162333.47
-162721.06
-162952.32
-157903.03
-157577
-158147.52
-157858.7
-157716.91
-157732.05
-157172.72
-158138.96
-157720.18
-158000.44
-157486.16
-158189.39
-157919.75
-158646.02
-159077.61
-153252.14
-152507.77
-152817.99
-152026.03
-152426.38
-152331.23
-152507.22
-151887.61
-152363.98
-152088.25
-151663.96
-152834.27
-151819.09
-153118.6
-152741.71
-148484.65
-147466.06
-147783.4
-147080.48
-147076.64
-146633.52
-147084.03
-147142.72
-146810.41
-147156.31
-146996.3
-147585.88
-147234.21
-147813.52
-148384.3
-142875.95
-142765.52
-142678.76
-142109.96
-142182.44
-141849.55
-141963.7
-141605.7
-141949.14
-141719.59
-141793.65
-142535.01
-142276.43
-142133.09
-143666.42
-138793.17
-137592.51
-137660.04
-137214.38
-137167.55
-136864.92
-137055.11
-136932.67
-136512.37
-137418.31
-136739.83
-137219.82
-136769.12
-138244.9
-138411.42
-133820.86
-132822.9
-133182.15
-132555.53
-132440.98
-132316.31
-132057.18
-131798.39
-132068.05
-132058.52
-131928.12
-132787.42
-132504.66
-132931.05
-133498.22
-129326.34
-128554.31
-128211.25
-127940.27
-127694.96
-127400.3
-127652.71
-127461.07
-127357.74
-127789.46
-127072.77
-128211.88
-127807.62
-128606.71
-129070.88
-125441.86
-123742.02
-124027.43
-123179.66
-123507.97
-123097.58
-123286.01
-122917.71
-123114.14
-123185.61
-123535.4
-123468.79
-123373.89
-124426.08
-124362.27
-120669.92
-119907.44
-119679.3
-119545.89
-118940.72
-119377.21
-118888.29
-119050.55
-118826.2
-119033.52
-118895.29
-119799.44
-119081.65
-120008.51
-120883.17
-117236.13
-115662.75
-115589.92
-115321.8
-115487.79
-115117.81
-114992.61
-114880.27
-115058.8
-115035.46
-115112.13
-115509.92
-115297.24
-116524.67
-116148.47
-112778.85
-112395.02
-112245.28
-111561.19
-111484.15
-111401.21
-111237.4
-111311.76
-111174.11
-111478.35
-111294.16
-111845.07
-111653.32
-112060.22
-113227.3
-109934.78
-108278.02
-108545.33
-108100.64
-108152.94
-107748.44
-107776.98
-107714.82
-107724.28
-107607.6
-107745.51
-108161.16
-107949.9
-108939.5
-109158.23
-106253.23
-105177.89
-105208.08
-104810.24
-104620.07
-104750.64
-104366.07
-104279.89
-104085.64
-104561.01
-104346.66
-104903.86
-104650.24
-105300.43
-105769.5
-103255.66
-101796.52
-102084.21
-101615.06
-101484.72
-101463.85
-101207.58
-101230.77
-101070.75
-101284.03
-101179.48
-101669.37
-101485.92
-102164.92
-102524.79
-100067.48
-98848.114
-99018.444
-98607.788
-98538.244
-98412.299
-98254.717
-98192.832
-98135.547
-98308.623
-98206.286
-98671.651
-98492.676
-99149.029
-99437.388
-97158.454
-95935.22
-96153.539
-95739.87
-95631.266
-95534.495
-95422.841
-95363.651
-95313.235
-95427.854
-95362.389
-95761.191
-95670.445
-96291.617
-96583.179
-94249.709
-93297.628
-93475.449
-92979.889
-92969.436
-92941.556
-92679.843
-92806.768
-92589.824
-92934.24
-92634.611
-93225.903
-92905.882
-93672.344
-93593.695
-91400.214
-90895.861
-90701.224
-90805.726
-90195.495
-90340.068
-90145.672
-90141.193
-90121.887
-90197.042
-90172.534
-90476.136
-90556.111
-90821.212
-91606.395
-89452.291
-88117.734
-88371.5
-87966.189
-88088.526
-87738.53
-87892.935
-87648.766
-87814.125
-87655.302
-87756.127
-88185.793
-87955.114
-88633.572
-88735.537
-86887.731
-86014.516
-86073.169
-85860.866
-85604.3
-85674.103
-85441.165
-85520.511
-85433.668
-85506.261
-85469.058
-85812.25
-85771.856
-86166.777
-86482.023
-84911.518
-83701.275
-83996.182
-83577.263
-83601.736
-83425.797
-83417.615
-83336.727
-83315.068
-83420.925
-83342.881
-83760.369
-83565.611
-84073.576
-84283.192
-82700.946
-81730.508
-81909.511
-81594.873
-81511.571
-81462.924
-81386.535
-81324.332
-81356.489
-81406.501
-81363.99
-81678.501
-81583.841
-82039.31
-82273.026
-80857.407
-79779.76
-80058.246
-79662.307
-79682.179
-79546.946
-79529.723
-79469.156
-79486.628
-79565.589
-79493.367
-79833.567
-79715.02
-80150.02
-80350.79
-79018.21
-78049.132
-78257.993
-77930.648
-77916.594
-77825.957
-77822.638
-77733.001
-77797.044
-77831.899
-77797.7
-78112.767
-77994.863
-78403.536
-78611.895
-77412.539
-76385.866
-76655.631
-76289.742
-76323.41
-76233.147
-76231.985
-76163.074
-76219.679
-76264.65