/*--------------------------------*- C++ -*----------------------------------*\
  =========                 |
  \\      /  F ield         | OpenFOAM: The Open Source CFD Toolbox
   \\    /   O peration     | Website:  https://openfoam.org
    \\  /    A nd           | Version:  6
     \\/     M anipulation  |
\*---------------------------------------------------------------------------*/
FoamFile
{
    version     2.0;
    format      ascii;
    class       pointScalarField;
    location    "1.22";
    object      E;
}
// * * * * * * * * * * * * * * * * * * * * * * * * * * * * * * * * * * * * * //

dimensions      [1 -1 -2 0 0 0 0];

internalField   nonuniform List<scalar> 
3969
(
54394.715
53504.135
12524.29
-14396.572
58984.472
55189.214
-11922.849
8655.2154
23909.313
9560.5095
2721.6189
2516.7879
7960.3027
19266.805
41007.527
3352.5354
-5155.4401
-3187.2601
2109.6086
8384.5856
12212.86
9783.9751
48617.685
35931.298
34660.084
33172.356
31423.698
29606.774
27185.657
25610.541
22992.177
21506.517
20055.841
18249.193
17188.974
15709.379
14649.541
12896.179
11994.874
10326.182
9085.3329
7371.6609
5755.8394
3978.1739
2204.989
520.41385
-1503.4974
-3199.4853
-5376.9997
-7522.3116
-9497.1208
-11809.084
-14077.447
-16264.595
-18479.146
-20629.51
-22351.501
-23811.539
-24900.173
-25902.526
-25980.986
-26346.87
-24851.187
-24478.586
-21237.047
-19850.574
-15274.036
-12509.148
-807.85409
55661.965
36248.702
44436.311
37578.74
37959.442
32884.441
30855.184
27097.018
23865.871
21318.368
17402.308
15600.281
12636.48
10740.738
8715.928
7171.4036
6260.2036
4905.5652
4682.4884
4348.759
4566.5
5426.3391
6194.1976
8132.3523
9799.5401
12706.018
13961.401
17139.012
20027.002
22375.56
26010.199
28508.703
31732.466
34142.722
36673.643
38878.109
39937.807
40576.225
40828.217
39728.879
38385.404
35382.366
31872.401
27035.289
22168.787
16212.554
5504.6837
27747.658
12102.933
3254.0118
4227.6932
6850.0931
16655.299
35961.736
78355.648
57778.252
32433.617
47645.569
38511.673
35872.381
34194.721
26679.029
27683.914
19881.53
21752.708
18133.115
16973.769
15113.239
12399.124
12012.66
9635.4081
9259.916
8372.8381
7947.6205
8081.3705
8112.449
8776.1829
9141.5013
10457.667
12016.281
14210.982
16172.213
18678.17
20975.474
23201.446
25762.043
27757.204
29634.418
30625.01
31945.057
35341.442
31491.308
30660.856
29018.048
26199.984
23484.344
19462.93
15266.113
10576.666
4922.5859
7061.2056
10906.012
9714.5978
9264.3029
4856.0089
377.92106
-5743.8164
2990.4701
-506.86945
-1214.6163
-1950.9373
-4745.336
-6740.3404
-8450.2936
-9794.6255
-10854.208
-11391.63
-11690.807
-11036.769
-12239.833
-12174.651
-11339.722
-10881.198
-10172.195
-9453.1039
-8440.0783
-7574.5942
-6332.1244
-5319.4545
-3924.0367
-2890.1105
-1643.1488
-374.43251
1014.6959
2448.702
3929.4533
5663.4571
7129.0046
9166.8557
10809.471
13375.981
13811.207
16152.553
18190.736
20572.87
22228.298
24562.475
26220.5
29924.107
30514.59
35771.77
34984.17
37240.967
37412.759
62990.51
34541.78
37272.662
36411.146
37159.42
36921.725
36644.717
37654.125
37397.625
39269.456
41958.147
43287.553
43094.306
44915.975
39028.184
-13696.663
-13363.671
-13532.187
-13414.981
-13581.91
-13505.488
-13018.171
12322.718
11909.208
11882.819
11962.555
11901.484
11984.642
11248.89
29033.555
20102.869
21031.223
19833.527
19214.542
18865.837
16888.297
16385.909
14413.97
13702.692
12177.854
10852.401
9859.4138
8470.3773
7296.516
6239.2818
5601.1119
4360.7975
3763.6752
2759.7338
2095.4939
1309.8146
827.44675
43.791475
-417.52576
-763.20107
-1163.1637
-1270.589
-951.62062
-868.13956
-423.82722
41.881788
289.7512
826.69283
1290.82
1560.6999
2096.6536
2299.0665
2876.5755
3254.3705
3772.3938
4395.2191
5151.765
5184.8018
6779.5154
6397.2558
9127.4786
11522.53
7741.9302
9086.201
8400.428
8656.4826
8744.9828
7857.6657
7925.3304
6792.156
6421.5185
5543.4255
4864.1996
4111.3923
3369.1132
2893.9825
2209.5466
1563.5994
939.73868
547.08179
218.97019
47.342475
162.73975
37.230733
463.24366
878.10056
1286.3615
1922.6009
2804.2641
3516.8877
4552.7702
5636.2241
6535.1581
7535.5735
8445.9136
9194.2857
9908.8245
10692.554
10728.038
11573.426
11154.773
12143.552
11173.933
12101.978
10694.13
11798.786
9023.0278
7644.5707
4407.94
481.6711
2776.4852
1551.0443
2318.5933
2387.2384
2520.2389
2593.0862
2163.8661
2452.089
1791.684
1683.0881
967.4651
648.02954
-95.978205
-444.33252
-611.21183
-823.90852
-650.69046
-861.79529
-702.6913
-844.38121
-187.41553
467.24618
1184.1337
2131.3064
3701.4961
4775.6433
6584.6697
8237.1182
9774.7712
11457.807
12904.673
14330.913
15579.325
16695.362
17569.503
18433.25
19044.908
19074.921
18778.043
17948.803
17185.149
14987.43
13909.487
9553.2724
5705.121
3581.6087
1182.0176
2431.9346
2638.7489
2453.2935
2822.7517
2244.2599
2031.497
1727.0338
707.80461
503.89046
145.14578
-670.86218
-564.11784
-1534.5695
-1005.0154
-1646.4244
-1119.2601
-1317.9593
-853.81721
-218.78548
947.17185
1955.8294
2670.6867
3451.5771
4620.1983
5299.3383
6197.2507
7176.8566
7977.3385
8856.7893
9760.8372
10368.186
11222.862
11665.507
12175.279
12635.912
12652.537
13157.965
12838.648
13091.771
11817.518
11672.037
9534.7889
9477.6501
5574.8022
3533.8018
9940.8689
6868.6928
8792.3193
7648.335
7674.6761
7127.0423
6269.302
5681.572
5054.9382
4111.8487
4486.0104
3088.5588
2905.5852
2112.6117
1818.2733
1350.8415
1101.9224
934.32553
841.48432
854.40102
1124.0062
1410.3694
1435.1361
864.554
608.62079
-164.39194
-784.73188
-1289.3943
-1913.6456
-2596.2778
-3318.0353
-3946.3406
-4816.3758
-5352.8192
-6226.1051
-6625.2762
-7186.4229
-7211.4912
-2373.8793
5036.3005
4449.0481
4481.1166
4010.4629
3469.9832
2956.9304
594.07553
2929.8725
22570.392
18931.718
20325.969
19748.379
19272.82
18470.07
17408.779
16046.572
15285.742
13648.362
13289.436
11750.563
11249.314
10393.623
9582.6836
9261.4232
8518.7814
8211.0662
7692.7576
7167.0838
6845.52
6373.0771
4665.3022
4118.2802
3180.7201
2389.3035
1516.3369
336.14893
-1044.3711
-2301.5792
-3655.4435
-5157.569
-6474.572
-7609.2862
-9049.3874
-9604.9792
-10480.997
-11141.834
-10902.312
-9107.0416
-9918.4139
-9911.9801
-9218.8562
-8512.1936
-7329.461
-5519.2339
2860.2859
32576.656
29319.525
29552.579
28669.495
27415.149
25736.719
23992.082
21654.124
20918.1
17963.747
18039.894
15070.547
14555.506
12494.875
11873.361
10524.925
9818.9547
8864.7087
8009.3481
7181.3188
6159.3791
5054.9929
3921.6425
2468.082
1178.9519
353.39953
-746.88515
-1716.5355
-2607.4517
-3230.9264
-4132.4893
-4772.8782
-5586.3032
-6091.8917
-6901.0256
-6915.8497
-7487.5048
-6608.3632
-6575.9816
-10719.987
-10439.18
-8032.0734
-5552.6415
-2695.1167
309.60321
4289.0547
9610.1573
12187.637
13245.078
10560.578
10544.92
10904.309
11602.994
15420.042
5259.7121
5527.0414
4261.6057
4646.4779
4747.9805
5420.5398
6896.0835
1156.1382
473.52314
-274.46042
-11.097153
-148.74615
141.90001
1145.4376
868.98886
360.45579
191.33048
166.70229
363.39092
938.95864
1954.3968
3305.8757
2269.3935
1920.406
1796.966
2025.4874
2659.0606
3978.9226
11309.154
8246.4557
7699.8269
7196.3956
7657.7448
8683.9104
11961.057
21251.666
20700.347
17885.393
18348.119
17851.036
19042.975
24407.914
65079.355
59154.538
63482.079
67400.897
66973.971
70404.348
67670.084
53268.495
54154.585
48438.188
46443.2
52863.602
52963.52
55482.807
41008.39
42257.743
44995.876
43659.155
42651.728
42415.634
46449.108
43422.793
46201.184
43670.482
44500.858
44692.193
45948.453
42303.373
38688.686
38978.598
41248.57
40511.652
40163.653
39114.725
40913.007
37235.327
35770.491
35415.173
35936.327
35372.77
35342.62
34727.163
32830.625
32009.051
33515.2
32747.626
33111.338
33176.207
34216.502
29853.144
28712.093
28650.457
28115.352
27073.979
27327.202
27127.858
26907.32
25133.295
25306.917
25004.769
25875.886
25562.901
27433.024
22973.774
21949.982
21296.026
22464.693
20593.309
20564.238
21161.302
21230.296
19493.707
20153.547
17928.137
19297.615
18507.511
20133.753
17661.211
17237.525
15998.948
17061.019
16451.72
14285.363
17939.498
16307.734
13993.062
14667.158
13068.588
13402.616
13344.324
15141.862
13034.014
11921.206
12814.537
11402.853
12928.721
10703.565
14377.254
11783.879
10707.333
10390.997
9669.2731
9717.5127
8753.6213
11299.703
10264.511
8306.9625
9474.6511
7991.2021
9240.9421
7748.5237
10825.684
8459.0266
7652.8343
8069.7308
6556.6491
7667.5727
5977.9643
8791.9184
7988.7234
6454.2325
7378.2755
5967.7447
7039.9465
5537.6044
8123.7571
7212.7695
5804.7435
7051.6562
5016.2109
6469.6698
4763.8136
7597.635
7060.9006
5834.7577
6737.207
5250.995
6438.5725
4845.0403
7289.8924
7409.1991
5822.3865
7148.52
5183.7851
6475.6586
4827.3317
7499.358
7882.5026
6600.5755
7505.4823
5809.5293
7105.1817
5445.4879
8001.6669
9102.2956
7508.7049
8462.3211
6898.0523
8064.4229
6570.2834
9096.8246
10444.417
9187.1446
9746.5505
8383.709
9329.774
7696.943
9994.5483
12316.128
11333.693
10847.993
10668.175
10857.174
9810.9964
12065.286
14653.794
13405.433
12932.403
12645.705
12181.701
11967.214
14127.12
16975.372
15765.191
15612.001
14835.453
16152.408
14635.179
16786.142
19789.875
17926.34
18788.748
17266.692
18034.1
15753.472
19015.208
21126.343
21104.62
20169.917
20479.533
20278.979
19867.06
21380.83
24637.513
22654.667
23790.227
22855.443
23475.874
22153.555
23990.359
26264.366
26240.321
25947.814
26022.208
25874.281
25227.436
26549.424
29518.762
28380.552
28795.945
28661.411
28777.011
28146.265
29353.749
31394.934
31054.54
31198.823
31495.019
31340.099
30945.386
32115.823
33868.664
33390.845
33622.152
33840.403
33510.513
33335.442
34475.006
35527.944
35299.122
35241.551
35831.914
35600.413
35712.258
36256.886
37366.951
36812.321
36932.811
37366.67
36702.207
37529.747
38084.555
37516.489
37160.99
37413.791
37912.365
38058.72
34285.254
36269.128
34848.644
34370.338
34757.961
35157.419
34646.353
39139.512
38669.967
37380.008
36895.801
37397.621
37278.556
37188.18
37161.569
38377.436
36411.621
35807.491
35560.198
36188.018
35549.244
35857.395
36942.106
34095.285
33305.651
33532.923
33595.517
33326.185
33512.816
34198.979
31075.164
30286.145
30137.268
30558.03
30063.833
30383.332
30908.49
27019.803
26398.713
26682.641
26706.174
26389.597
26644.965
26942.176
22191.209
22008.375
21797.02
22020.711
21593.014
22070.491
21979.583
17149.817
16894.625
16901.482
16954.449
16824.018
17085.634
16788.414
11188.318
11350.805
11064.961
11352.426
10994.048
11298.607
10751.994
5735.2331
5794.5284
5792.5813
5710.6118
5824.6851
5807.9094
5954.4436
968.35591
2340.9202
2284.143
2387.0857
2280.5893
2210.3524
2134.0579
-8261.2342
-5922.3733
-6289.4802
-6231.8375
-6474.9563
-5648.4768
-7200.0631
-1142.731
-1140.9891
-907.00327
-913.83664
-950.79855
-1836.6174
-2158.0234
2616.7434
2956.2869
2755.6968
2996.5905
2421.6257
3067.6531
1751.2333
9814.7942
13370.354
11588.438
11225.662
11702.349
11199.914
10223.408
13680.42
13008.341
12173.758
12464.343
11074.455
12297.071
10609.696
9780.5052
10526.83
10594.838
10473.577
11433.653
10641.053
10521.506
47478.947
42982.747
41050.983
39943.431
40885.506
42688.567
41694.51
42575.86
39106.779
39829.937
39694.81
40026.338
40376.4
42088.572
41501.65
43256.089
42336.975
41872.533
43743.074
42467.043
42297.029
37236.503
38319.256
38919.969
39818.28
39046.629
37708.858
37541.011
36218.15
36918.305
38119.658
37956.186
38418.98
37055.67
35878.913
31174.072
32301.697
32767.355
32881.156
32918.033
31406.283
31568.343
30630.244
30610.619
31346.735
31468.244
31527.439
31247.799
30698.297
26354.351
26818.143
27101.066
27234.445
26899.402
26364.926
26741.812
25329.562
25177.438
25789.441
25501.469
26158.685
24605.535
25764.118
22901.389
22503.666
22955.727
22845.868
22777.564
22357.992
22848.922
20925.129
20951.191
21472.875
21085.372
21513.66
20513.731
21099.642
19557.918
19145.162
19127.253
19656.561
19415.097
19292.759
19611.05
17951.29
17307.017
18053.311
17338.344
17953.141
16807.826
17987.055
16470.949
16048.615
16235.12
16125.778
16389.568
16471.729
16794.057
14996.046
14314.389
14855.588
15011.963
15425.068
13599.029
14819.971
13419.034
12795.446
13506.663
12333.391
13421.175
12832.499
13094.475
11966.093
11845.259
11869.53
11919.617
12135.952
11166.407
11876.368
10738.56
9944.8675
10669.731
9967.6006
10405.25
9662.4264
10053.348
8878.6699
8744.8184
9003.3941
8458.0938
9152.1045
8142.7058
8617.9785
7518.0279
7042.0129
7371.6568
7021.5665
7417.5944
6513.2421
6955.0658
5636.0668
5289.0219
5803.9862
5180.883
5812.6256
4974.6737
5423.7283
4007.279
3681.6781
3965.0241
3528.6956
4144.9443
3195.3588
3829.0066
2239.32
1662.0153
2153.4946
1692.9605
2286.9074
1526.0234
2463.4444
673.26239
99.780108
501.48257
-12.773703
668.01805
6.7492509
1142.1048
-911.211
-1611.6518
-1296.3926
-1660.5255
-1056.8579
-1699.7913
-185.14404
-2191.4023
-3400.3485
-2715.6446
-3307.113
-2632.7437
-3172.9934
-1279.2475
-3963.3068
-4952.1137
-4575.9182
-5034.2323
-4397.8613
-4920.4149
-2815.75
-5480.502
-6794.3126
-6343.1577
-6651.9773
-5993.9103
-6532.3915
-4117.5772
-7470.4151
-8828.6422
-7931.0429
-8699.0696
-7981.4903
-8499.5894
-5952.926
-9444.9154
-10348.775
-10122.094
-10561.974
-9777.1728
-10259.668
-7562.0394
-11227.539
-12464.376
-11937.895
-12340.115
-11668.974
-12177.279
-9299.2259
-13159.748
-14140.241
-13752.264
-14143.297
-13591.896
-13964.4
-10960.734
-14885.915
-15838.756
-15554.662
-15973.487
-15432.468
-15696.268
-12512.686
-16429.897
-17353.448
-17168.815
-17344.621
-16932.662
-17070.131
-13822.191
-17685.604
-18749.994
-18514.722
-18714.328
-18623.421
-18468.646
-15359.378
-18880.744
-19776.018
-19531.159
-19977.534
-19526.072
-22453.427
-18950.369
-22463.154
-23444.823
-23559.492
-23553.752
-23216.637
-20661.281
-14961.92
-19963.085
-20919.264
-21034.841
-21008.076
-20819.175
-20786.356
-17395.945
-19961.392
-20598.714
-20803.913
-20761.191
-20792.365
-20879.351
-16858.183
-19563.66
-20661.399
-20819.716
-20556.203
-20715.612
-20411.606
-16896.921
-18598.283
-19392.27
-19329.485
-19278.028
-19429.884
-19482.88
-16371.426
-18000.752
-18750.648
-18878.096
-18855.302
-18966.494
-18635.573
-15432.252
-15470.477
-15947.446
-16170.288
-15912.417
-16112.946
-15985.643
-13874.656
-14310.523
-15019.408
-14989.13
-14994.803
-15251.289
-15012.593
-12410.684
-10492.765
-10637.13
-10782.707
-10758.368
-10957.379
-10423.733
-8928.4784
-8584.7063
-8895.0113
-8945.3226
-9103.0465
-8985.8006
-9016.5224
-8030.0611
-631.12832
-565.23517
-823.91499
-757.06134
-820.90913
-787.46144
-688.89988
52226.793
32413.618
28485.115
26553.194
26673.909
24794.846
22719.27
21241.13
18914.966
17250.868
15636.638
12621.039
11306.436
8886.7864
6921.7668
6396.5066
4525.6206
3694.3988
2573.7724
2116.7473
1444.8453
1297.3666
1002.2949
945.07117
861.6544
1203.3736
1980.8757
2828.6745
4198.8491
5739.2182
7618.2737
9455.63
11291.476
12832.045
14694.301
15296.682
18520.174
16941.557
17237.026
17173.115
17095.235
16650.609
15958.139
14830.387
13571.132
10802.52
13885.223
21243.219
19591.214
13259.383
13172.842
15328.158
11721.848
13698.787
12113.863
11738.63
10966.483
9677.9856
8943.5747
7950.9232
6761.4747
6219.2103
5352.019
4690.3453
3968.5524
3760.0885
3414.383
3377.1692
3467.9046
3660.5354
4153.5356
4729.7863
5113.4677
5878.8316
8016.9465
9079.8456
10240.758
11140.692
11969.045
12465.99
13103.166
13107.656
13327.953
12863.458
12305.9
12166.025
10914.721
10107.02
8554.0435
7328.93
5023.8864
4329.8766
-40.536705
6582.4467
6411.5902
5400.2416
3939.3443
4506.8956
4851.9177
3647.9475
5283.2
3994.1627
4892.8049
4209.8662
4018.8151
4525.2845
4270.4237
4911.1915
5188.1757
4740.097
4938.7638
4696.8813
4306.6334
4288.1184
3813.5507
3600.2292
3200.971
2653.747
2381.9274
1661.8808
1734.0946
596.60381
397.967
-245.04382
-679.50001
-1325.3983
-1656.1071
-2214.3546
-2693.4601
-2941.3205
-3395.0156
-3463.8275
-3608.3759
-3632.4081
-3613.143
-3202.2318
-3219.5267
-2412.8769
-1964.6879
-1552.045
2753.2834
2312.2033
2651.7801
78.161935
4023.8827
795.25709
3782.4997
72.434735
3144.2388
1213.3726
1974.6207
2391.3646
1388.8677
2137.3155
5495.5027
4631.1034
4914.2635
4848.9339
4262.7744
4372.6121
3840.4248
3532.2896
3000.9738
2381.1071
2105.7098
1448.4064
1246.6308
409.60858
-65.584679
-827.18949
-1558.8003
-2320.6949
-3055.8758
-3681.2231
-4579.523
-5013.0419
-5633.4708
-6155.2845
-6587.1601
-6590.0337
-6969.9935
-6497.7036
-6606.0071
-5476.2282
-5410.7207
-2923.2688
-3773.2646
844.50624
7785.0917
3952.2016
6066.7107
5369.2472
6337.8261
5390.2794
6510.7506
6815.9243
5073.2045
7462.6433
4639.8434
6669.99
5530.2515
5839.9355
5577.4855
5507.7585
4947.1467
4817.6371
4200.9247
3846.2166
3201.0274
2492.8352
2034.0734
898.42528
-238.86729
-1796.2775
-3143.3157
-4372.3616
-5622.7094
-6955.5036
-8241.7144
-9492.3051
-10774.494
-11766.301
-12494.789
-13400.863
-13622.136
-13540.638
-13617.289
-12368.1
-11694.806
-9565.3407
-8007.5447
-5080.1296
-2500.4809
620.31013
1556.2123
17740.846
17268.514
13477.853
18240.311
13334.747
15673.366
14544.548
11863.574
13547.134
10771.045
10812.82
11108.777
8204.6469
9315.7356
7528.7218
7221.6082
6610.3158
5885.3618
5566.8599
4870.5546
4444.4838
3871.2558
3504.8968
2755.4286
1949.483
1168.6878
1584.7841
1116.2047
938.93701
529.31104
534.74885
34.569122
-76.704324
0.17670409
-109.15637
-9.2632325
538.37297
406.25609
1716.6124
1793.5673
2846.4139
3425.3553
4608.3496
5013.0883
6865.2882
6303.5813
6793.2889
43107.993
26198.481
32035.683
24609.078
28370.928
23912.112
23582.575
20790.662
20095.441
16987.891
15083.626
15533.603
12621.765
12995.701
10518.916
10930.584
9504.6713
9116.5761
8153.0645
7256.8275
6165.3056
4930.7354
3631.3693
1868.522
436.34053
-608.41721
-2148.365
-2867.2746
-4219.9304
-4873.9755
-6145.7047
-7329.7481
-8214.0053
-9098.3855
-9875.8446
-8682.3826
-9939.9365
-8934.5776
-8402.0693
-6092.1699
-4024.0668
-1368.8949
1280.737
4248.5826
6911.5117
9410.8781
12242.791
36829.538
31032.8
30653.608
30102.784
30492.593
29984.221
30777.677
30652.34
32411.929
30027.383
30148.964
29712.879
30126.142
30599.509
27358.406
30445.327
31026.461
30581.002
30757.908
30612.014
30210.345
26021.267
27586.662
28200.657
28822.019
28404.668
27949.892
26353.057
23682.709
25620.172
27454.861
27002.054
27451.066
26856.871
25575.849
22165.4
23469.609
23894.169
25010.79
24592.657
24173.371
24005.186
20277.989
20835.367
22439.298
21885.732
22038.809
22109.498
21402.182
18335.785
19246.899
19694.277
20124.569
20577.743
19780.806
20158.338
16685.056
17252.177
17697.118
18324.263
17797.636
18341.824
18058.048
14874.534
15147.511
15893.574
15533.933
16101.632
15920.677
16080.494
12942.657
13784.925
13957.466
14441.013
14653.466
14655.97
14958.607
11727.722
11549.323
12574.603
11905.824
12416.996
12245.931
12634.209
9943.075
10400.314
10502.165
10674.515
11165.508
11027.049
11151.156
8612.1618
8486.7613
9521.238
8866.2426
9687.4657
8738.6249
9609.6169
7044.0138
7565.7724
7092.5477
7492.3071
7386.7915
8077.4792
7720.0003
6151.5481
6023.4378
6404.2069
6482.424
6692.4068
6309.7801
6290.784
4554.8014
4626.6655
4816.5445
4855.0153
4976.8066
4941.8963
5138.9196
3576.0577
3684.2254
3948.0882
3886.7371
4156.545
4221.9979
4013.4409
2767.8361
2678.7662
2824.1656
2822.9576
3139.3754
2879.0613
2813.2094
1875.691
1913.1974
2091.8591
2170.4337
2260.9988
2212.0621
2212.2622
1532.2279
1344.4319
1597.4764
1455.13
1653.0056
1519.5192
1415.6168
1059.65
835.30067
1177.3136
1054.6835
1240.7436
1121.5909
1078.07
1025.6667
724.39215
1166.04
884.74037
1023.7
689.25109
819.55555
897.22455
431.60528
1090.1679
764.54398
918.47824
690.61883
832.0811
1154.9274
534.34006
1125.384
913.77505
939.32708
503.69524
810.65755
1150.3103
529.36683
1405.1694
850.09376
1058.4103
618.91887
1103.9321
1672.0543
936.69429
1753.2425
1380.1408
1398.2428
1210.2934
1575.2279
2377.6836
1632.9162
2065.7684
2013.9908
1980.3344
1465.9116
2197.5585
3135.1921
2008.9576
3441.106
2757.8656
2735.2386
2423.4045
3230.373
4136.6209
3656.8267
4061.9488
3599.6724
3876.0521
3345.2235
4258.6963
5441.447
4412.2273
5250.0937
5073.7408
4997.8568
4414.858
5575.3397
6464.6792
5864.389
6569.6668
6119.8264
5990.9915
5657.317
6893.6347
7800.873
7225.6804
7707.1799
7497.4748
7466.2072
7055.3486
8457.3902
9056.1013
8480.5259
8951.2549
8828.0362
8603.3428
8389.416
9482.7688
10180.208
9760.1481
10093.189
9974.5215
9797.7895
9106.6735
11004.477
11222.335
10729.035
11014.736
10993.047
10591.628
10875.858
11789.629
11712.252
11564.27
11454.101
11698
11642.098
10752.318
15508.275
12539.328
13591.457
14099.343
14192.641
13612.131
14161.765
13277.011
12959.815
12949.138
12676.539
13078.67
12524.69
12296.475
14439.023
13487.931
12969.982
12589.443
13338.131
12450.455
12986.141
14279.615
13399.465
13088.161
12790.433
13401.443
12653.247
12901.603
14372.297
13567.956
13096.368
12682.963
13305.785
12517.716
13097.921
14237.047
13299.623
13077.326
12626.655
13381.121
12682.45
13126.801
13825.672
12693.561
12133.036
11997.917
12464.37
11762.198
12255.095
13250.653
12838.211
12675.024
12406.558
12863.344
12335.083
13230.65
13094.612
11310.004
10839.353
10821.213
11090.558
10853.664
10980.739
10785.672
12443.245
12263.162
12134.025
12240.389
12046.569
12141.659
12232.268
14603.735
11082.71
10174.599
9922.4939
9666.4212
9961.8554
10538.615
14178.32
16705.603
15646.227
16295.715
16352.338
16466.097
16543.419
13026.598
14238.278
14795.735
14538.937
14930.155
13979.18
14141.18
12160.013
13973.867
14876.565
15278.333
14852.998
14755.108
12567.219
12080.151
12937.245
14492.53
14157.524
14990.602
13728.833
13658.148
11300.447
12299.249
11995.051
12558.11
11917.34
11936.176
11556.087
10725.297
11241.751
12363.984
12346.552
12614.725
12489.593
11527.304
10089.357
10951.605
10409.15
10986.876
10841.027
10435.042
10651.562
9449.5815
9568.4106
9978.7692
10229.966
9725.674
10201.929
9792.5649
8576.1887
9037.8536
9019.4642
9183.7617
9485.8324
9262.5906
9360.4511
7873.2513
8160.0289
8044.549
8521.8939
7887.6343
8158.4606
7977.123
6935.8403
7391.153
6965.3268
7341.1838
7286.5728
7419.6692
7436.0982
6184.4455
6361.2774
6451.6736
7001.6427
6499.6868
6708.1538
6223.1484
5250.2875
5194.171
5533.3679
5241.0463
5287.6937
5146.9621
5630.6983
4733.7606
4617.341
4795.1891
4692.8888
5252.8673
4627.0362
4762.2976
4022.7483
3312.2662
3969.6293
3644.5317
3988.2264
3400.1768
3725.4459
3043.4475
3135.5551
3254.5565
3090.8087
3439.6645
3033.4558
3455.5687
2842.0226
2399.7514
2601.4212
2569.217
2763.3141
2365.7035
2545.6746
2103.2351
1955.1883
2167.4222
2005.9608
2346.5616
1841.6863
2193.0861
2003.3346
1778.2809
1825.0143
1876.9162
1938.0879
1563.2657
1948.8789
1601.4333
1507.1845
1668.6051
1540.684
1738.2448
1602.2417
1751.8389
1705.556
1894.242
1726.767
1707.649
1969.5726
1539.1523
1891.6455
1882.8688
1879.854
1769.5536
1914.7236
1798.3239
1990.0808
2201.7516
2465.2199
2451.4673
2394.914
2129.7031
2393.4103
2736.928
2834.1078
3084.4013
3052.4715
2909.7829
2630.9564
3020.9721
3124.0881
3135.3987
4217.7551
3961.7922
3891.197
3840.3857
3531.9213
4136.8831
4659.6699
5214.3428
5129.7267
4781.741
4314.2002
5253.0798
5462.3827
5639.9473
7013.3089
5295.3653
5949.5112
5854.0414
5924.371
6667.6142
6590.5555
7656.4246
7499.4822
7457.8112
6749.9755
7114.6861
8155.7458
7665.7038
9319.2987
8585.5132
8284.6571
8111.9367
8552.1422
9427.7658
8967.4439
10589.204
9561.8513
9640.3798
9515.9258
9583.0548
10716.876
10332.918
11843.572
11006.112
10967.323
10707.385
10890.398
12286.189
11726.163
13284.619
11994.862
11953.205
11817.919
12099.319
13456.173
12716.514
14368.403
12951.283
13051.525
12983.017
13033.416
14218.61
13948.821
15401.277
13760.203
13886.39
13789.555
13748.839
15671.135
15110.166
16206.672
14289.657
14497.057
14424.415
14688.921
15806.79
15457.724
17008.517
14947.463
15020.388
15208.542
14548.813
16788.043
16032.246
17167.882
14552.272
15082.521
15111.826
15124.98
16814.46
16199.16
17471.983
14988.255
15477.348
15265.92
15094.154
16389.623
16225.543
16926.955
13817.403
14883.173
14319.028
14658.504
15979.081
15813.991
16688.523
14098.354
14974.666
14522.472
14600.21
15401.877
15113.691
15133.614
12301.504
13346.241
12627.698
12907.551
13728.976
13989.117
14492.893
12318.238
13053.047
12703.238
12913.546
13362.846
13096.136
12065.272
9829.6781
10551.166
10041.883
10012.621
10229.049
10623.134
11504.811
10061.139
10411.59
10127.64
10263.153
10726.937
10382.685
7447.107
5755.1167
6108.2492
5666.6533
5865.6561
5398.2296
5091.273
7234.6248
6942.0764
6391.4604
6358.9216
6356.8575
6430.5306
6856.8707
5278.1485
4430.7425
3862.3715
3773.8651
3473.9745
3545.7424
3249.3748
2863.8807
4199.1536
3928.3364
4310.7123
4224.8779
3854.4758
4010.2106
4757.7985
5039.8602
5168.1893
5229.7317
5031.111
4743.2268
4510.9925
3078.7999
4191.7723
5415.823
5985.4485
5753.3178
5715.0692
4383.8473
4653.7338
5179.7516
5614.7588
4937.7699
5115.6648
4131.6588
4822.1098
3628.8822
3045.7949
3709.2078
4345.8738
4088.7671
4324.0582
3698.8875
4091.2606
3888.6685
5209.886
5163.8486
5449.5795
5060.6587
4919.304
3885.543
3178.2838
3336.8717
3159.0882
3043.0273
3467.6041
3269.9017
3258.5647
2879.3789
3846.3096
4103.3333
4606.0253
4525.3114
4165.2545
3686.2916
2981.8463
3193.3206
3128.2713
2863.1107
3205.2571
3077.2655
2914.956
2152.462
2818.9565
2590.1817
3140.8854
3131.6914
3112.1553
3050.6219
2199.8663
2562.9038
2673.0049
2915.7518
3020.0314
2936.6446
2689.9093
1294.2756
2292.6415
1957.1854
2399.0724
2287.2551
2966.5552
2027.5201
1873.219
2373.2873
1943.9245
2547.7444
2476.0522
2573.5242
2044.604
1635.5353
1856.474
2020.8914
1646.0919
2046.924
2346.7232
1564.513
1620.6509
1935.1065
1769.5427
1879.3925
1741.0167
2441.1791
1768.8621
1296.7005
1679.6676
1770.744
1347.1068
1659.4904
2032.8953
1536.4729
1017.2948
1797.3337
1370.5597
1421.9878
1579.7749
2061.862
1710.6671
1176.2632
1649.1928
1500.0545
1267.0094
1409.3574
1800.6523
1741.0114
906.43872
1703.2483
1362.1184
1248.0284
1553.2537
1977.9566
2129.398
1307.9013
1895.8272
1553.7115
1518.7884
1486.6305
1965.0204
2542.8156
1251.7763
1968.1052
1740.2003
1477.3654
1693.7374
2263.1505
3033.4429
1697.9358
2552.0331
1761.0226
2103.786
1912.617
2618.2687
3688.3987
2039.0021
2724.3311
2317.6349
2670.2839
2022.519
2665.6887
4391.0501
2374.1985
3331.5543
2995.7972
3155.8899
2330.6643
3680.256
5099.2633
2857.8392
4018.4829
3040.7113
3568.9028
2914.5487
3412.7961
6389.7981
3509.255
4477.0907
3625.2186
4688.869
3107.7769
4714.8621
6926.2581
4111.5612
4956.2199
4646.2532
4968.7328
3621.7472
5148.8999
8095.6198
5196.2369
6178.6849
4840.4132
6105.1771
4203.7818
6040.696
9100.5703
5604.7734
6232.024
5604.0389
6676.7418
4537.6127
6701.4453
9912.0045
6429.7314
7361.1118
6592.0424
7503.7307
5439.3167
7578.5332
10912.245
7223.4785
7966.4549
6953.7067
8055.5193
5926.7281
7958.7128
11659.496
7892.9164
8497.2513
7762.6399
8742.2261
6384.4633
8677.2127
12346.947
8492.0982
9199.1364
8280.0744
9149.8822
7267.9283
9230.3243
12911.331
9105.7044
9616.6662
8636.7561
9727.7002
7484.1426
9239.7801
13356.293
9511.8306
10073.852
9107.0989
9928.2274
8101.7028
9698.4261
13472.53
9749.6435
10221.371
9198.6993
10358.322
8187.9784
9814.9091
13473.32
9793.8923
10472.494
9365.2055
10272.335
8489.4409
9453.8496
12905.124
10096.248
10188.035
9425.2667
10032.807
8489.2553
9465.9721
12598.835
9954.6341
9748.1589
9470.9246
9807.854
8872.9842
9043.5776
11596.776
9764.6205
9214.3113
9209.559
9200.7784
8231.7319
8276.6126
10942.953
9032.7092
8526.9452
8676.2358
8410.2093
8381.2298
7898.3979
9641.8204
8565.9977
7912.4501
8216.0631
7938.968
7860.6885
6591.497
8236.3476
7090.8613
6532.896
6968.3322
6268.4166
6642.8976
5734.8795
7152.3611
6532.5927
6048.9853
6475.8162
5785.8861
7023.7622
4919.9623
4422.8815
3875.7802
3716.5224
4001.3831
3542.1147
3976.5173
2133.4267
3036.4473
2876.0941
2564.603
2763.5437
2446.0499
3016.6502
2741.0377
2784.2285
2702.8743
2297.9606
2286.4788
2040.96
1965.9816
994.70772
1508.9322
3086.0126
3455.5235
4016.5428
3912.7219
3708.1167
3261.244
2225.9282
2221.9396
1994.2925
2103.1747
1995.7547
1761.2318
1011.6318
2433.8309
3886.2835
4951.8551
5443.3163
5595.5547
5248.293
4427.3613
2240.6462
2039.5033
1412.3691
888.78668
758.4141
689.46217
1030.765
3095.5626
3265.2705
3482.7022
3944.0469
4222.6578
4172.6719
3744.8853
2524.0194
1962.3953
1278.1658
1568.1811
1097.4248
833.69229
1756.1208
3286.1035
2716.2218
2592.5235
2684.2603
2637.5804
3145.1021
3145.9994
3190.4147
2453.8071
2135.4171
1681.0626
2384.4553
1444.6333
2685.2296
3064.2981
2512.8901
1736.494
1984.7459
1774.4155
2330.1986
2807.1547
3291.936
1849.5432
2889.6197
1784.415
2942.7926
2282.1696
2709.6101
3099.2246
2549.2641
2273.6457
1190.9776
2255.9754
1794.4654
3306.8237
3316.6689
1756.8122
1808.6933
1859.7775
2848.8788
2145.9866
2331.72
3038.0285
1988.8417
1226.7898
1090.7149
1958.4673
1711.6074
2446.5674
1792.1662
1518.8716
2452.4129
919.77138
2518.0057
1523.368
2109.4593
1931.0817
1567.02
2201.3258
1285.323
1876.5813
1512.6079
2171.3895
1825.0823
1417.8469
2205.7584
1142.7846
2068.5325
1731.8588
2393.5267
1983.8566
1780.3886
2331.8797
1358.0264
2007.275
1534.5332
2289.5476
1814.2878
1577.7536
2262.2843
1194.3436
2107.5358
1781.5629
2433.921
2076.5099
1946.1449
2408.863
1446.2853
2267.7615
1587.6993
2370.1761
2082.962
1720.7854
2398.2733
1541.8272
2082.9893
1869.6803
2460.2602
2302.9422
2034.9426
2650.5918
1481.8084
2326.442
1957.1064
2451.8647
2571.9366
2126.9006
2226.359
2026.2017
2280.5576
2121.8268
2272.3585
2839.7426
1998.3045
2591.3918
2236.0914
2070.7619
2248.1247
2739.3992
3130.6137
2080.8587
2916.4321
1858.9398
1821.3011
2610.8527
2160.3844
3691.861
2357.6888
2753.7326
2214.6532
2185.874
2680.6113
2752.3181
3532.1087
2273.6552
2896.1887
2623.258
1954.1564
3046.3235
2327.1791
3938.9517
2347.865
3284.6034
2497.1213
2333.0029
3230.0274
2481.558
4212.6953
2467.0024
3020.0564
2861.8408
1802.2087
3350.654
2365.208
4124.1529
2341.4612
3052.1722
2856.0542
2187.561
3796.4271
2375.4405
4281.9167
2476.0474
3175.1775
3038.0215
2057.9421
3698.2506
2247.969
4328.0547
2471.4875
3031.9222
2976.0951
1923.0138
3877.1786
2112.2364
4295.393
2278.8715
3022.1382
2991.5979
2090.202
4135.7825
2134.4086
4298.616
2319.5077
2987.1417
3012.0545
2023.1851
3966.3802
1758.4775
4168.1887
2189.1443
2837.8427
2943.9544
1969.2171
4034.6122
1747.4458
4031.6625
2052.6539
2644.1378
2827.532
2106.2985
3825.7281
1578.1134
3950.8799
2025.66
2521.7552
2956.0559
1742.8083
3836.7756
1245.5388
3511.3932
1780.3739
2426.1566
2527.5776
1887.3389
3491.5435
1235.9609
3068.8363
1910.7871
2287.5545
2574.2261
1931.7153
3460.8829