/*--------------------------------*- C++ -*----------------------------------*\
  =========                 |
  \\      /  F ield         | OpenFOAM: The Open Source CFD Toolbox
   \\    /   O peration     | Website:  https://openfoam.org
    \\  /    A nd           | Version:  6
     \\/     M anipulation  |
\*---------------------------------------------------------------------------*/
FoamFile
{
    version     2.0;
    format      ascii;
    class       pointScalarField;
    location    "2";
    object      E;
}
// * * * * * * * * * * * * * * * * * * * * * * * * * * * * * * * * * * * * * //

dimensions      [1 -1 -2 0 0 0 0];

internalField   nonuniform List<scalar> 
625
(
2148.0579
-643.53284
17930.411
13970.437
11969.971
710.50828
16004.085
17046.403
-393.50515
-371.12226
2538.1081
18535.654
10651.22
15721.824
4091.0677
1671.153
1160.3415
3600.2513
-887.29192
3271.9623
1010.0062
1237.0813
2991.9053
1289.7106
2017.7671
2247.1949
3517.8273
3334.4841
5232.0914
5887.1335
7267.7705
8847.7741
11236.192
11657.988
15944.471
14138.286
17979.709
13949.229
1205.3232
18784.224
13764.88
9271.4861
20244.411
8983.9676
14517.94
14727.129
11015.67
14994.988
13229.207
14261.82
14154.676
15181.587
15394.965
16355.237
16940.054
18265.094
17811.522
20577.376
18481.115
20322.448
3346.5659
1176.6319
-1649.4451
9173.6693
27140.928
-5055.1645
13512.143
22555.057
6935.2991
13175.35
17522.592
12881.573
20905.112
14299.374
20851.639
18421.714
20386.888
21171.575
20375.939
21434.365
20436.601
20236.661
19051.962
18047.298
16865.549
17604.27
15155.958
6619.5426
19204.521
19928.112
14862.387
15565.972
13216.834
11726.232
10031.755
8307.362
7060.5947
5851.7293
5213.3223
3499.2804
4839.4148
2861.2198
4888.1133
3059.4649
2792.6724
5225.1615
5906.3029
5667.9543
794.14894
13476.946
5414.7765
14986.067
2545.1545
3992.6248
4363.375
-1778.5873
-2267.3178
-3132.4594
12878.28
14994.627
13497.695
16306.401
17680.736
16824.082
5180.2308
468.78954
1125.4322
540.78313
-1510.2966
587.39934
-1363.1641
-264.45264
-1139.1827
-752.86595
757.78065
656.3985
1689.2944
2368.8185
3611.8126
4441.6826
6365.7254
7264.8941
9471.2157
10894.205
13662.049
13074.916
20563.858
2168.0538
375.84118
2172.1586
-22.25386
1829.7555
2154.6194
279.34195
3051.4871
1472.6373
3822.5797
2632.3338
3717.6308
4133.7075
5061.3379
5569.4584
6667.7533
7281.6691
8035.3128
9637.5805
9200.5531
11853.599
10939.725
20994.688
3708.5848
-1310.2513
-866.19641
-2760.9049
-1960.2999
-7081.9528
-3623.4916
-6137.9014
-7030.1379
-5210.0241
-7349.2198
-4727.7132
-5436.6366
-3782.2641
-3457.374
-1523.6043
-426.78624
2154.3179
3502.9286
7930.9392
9426.4373
14433.76
19813.228
-474.81274
436.47101
420.10343
-696.78291
-772.02223
358.50853
415.94046
-1154.3461
-1502.4855
13465.388
14792.475
11392.441
18437.657
11892.61
15052.29
9614.2662
1475.2371
9101.025
15956.285
16018.115
7225.5915
20095.876
10010.919
20029.937
15591.777
18513.227
14641.837
19754.265
13432.046
16096.444
18680.051
11461.947
19312.626
16539.972
17501.769
15708.192
21033.738
15022.517
21330.943
17554.585
17091.019
18080.161
21314.505
16830.05
20689.134
19166.007
17769.111
21311.984
21604.268
18485.305
21051.223
20917.659
18819.504
22456.031
21424.871
19700.712
21953.982
21642.834
19879.42
21925.679
21056.654
20018.441
21589.987
20966.365
20440.254
21010.29
19930.74
20004.044
19697.645
19209.338
19501.656
18669.773
17182.166
18637.98
17661.75
17472.488
18016.595
17035.364
18684.771
19802.544
18610.667
9049.1237
10228.956
6608.5619
18125.951
18624.069
17153.93
4637.3339
9837.2108
8312.2792
952.12048
2276.4876
4918.2864
7720.2335
6659.5419
13241.007
2166.9971
3193.2242
4247.2754
6770.3187
5179.4329
8735.2062
6057.7689
1650.9595
8668.9624
5305.1295
4491.8684
7963.7051
6355.3624
2574.5074
7786.0221
5449.0282
4956.1604
6280.5775
7890.8267
1876.5531
10056.002
6362.4358
4276.6045
7217.1717
8978.3254
3465.8533
9210.1198
8007.325
4823.6192
8769.9463
9646.8464
4956.1322
9584.9965
10326.898
6435.6033
10602.129
10991.78
7256.3261
11172.972
12372.495
8810.0541
12174.965
12957.209
10080.048
13064.507
14470.735
12237.387
14035.482
14323.282
13287.152
14372.817
17139.032
16601.276
16146.943
15526.237
14306.413
14328.055
19105.728
18587.92
18750.209
8567.1546
5403.3276
496.75471
4718.8619
-1652.8749
1126.7659
-330.92859
-697.75805
-1857.964
165.02422
-1597.1812
82.023072
-260.62028
655.90883
1515.8363
2754.403
3993.5478
6020.5294
7812.6155
10432.347
13874.82
14800.102
23124.942
1762.5992
5497.6659
-828.13464
5947.7513
1716.2648
7675.7745
3953.195
7167.0475
7046.7254
7868.2274
7682.018
10413.663
9139.8023
11773.856
12157.053
13293.784
14566.506
15338.839
16275.942
16422.706
17809.468
13874.034
25653.538
1107.4924
-5813.0722
-1718.3078
-11724.623
-4797.9285
-5676.1599
-12325.835
-3038.0058
-12791.298
-4842.5533
-9501.3673
-6578.0248
-6982.5816
-5497.8263
-4405.1505
-2379.9322
-339.47867
2227.7399
5500.2938
9162.3999
12675.123
17085.392
20690.287
2612.7612
4559.3933
5167.4197
1003.2838
2542.9844
3663.3004
546.93645
-914.23582
1923.4025
258.53367
2173.7328
3265.6437
1666.8009
-1776.5519
2007.4743
884.4667
1612.0351
2288.891
963.7868
-1448.157
1622.7228
1765.0417
1245.9556
2758.1769
2180.4726
-1928.4718
709.48938
2670.2984
1120.0437
3524.2659
3259.7275
327.2138
1389.0505
3225.1191
740.19502
3751.1368
4367.393
1615.3095
3279.288
4980.3415
2165.2104
4400.082
5691.9093
2954.2445
4684.6859
6702.4112
4193.92
5876.9252
7740.7797
5319.0134
6515.4899
8701.7103
7011.8081
7732.9953
10328.641
8510.4371
9177.9518
10170.502
11699.941
9958.5968
11476.569
15197.185
12247.414
14497.31
12926.72
11804.978
20216.073
20371.494
20644.071
446.58513
668.96709
891.4717
2040.4299
3539.912
3996.4234
1592.2054
-1286.8669
794.89741
1956.3057
4671.6222
4936.368
4545.9253
1623.8846
1524.3479
2887.9298
3673.0582
4849.1412
3998.8533
2967.8368
3211.7394
5619.9806
4504.1421
3828.8274
4086.2504
3665.4523
4340.0109
6100.3831
5509.2279
4659.0381
6478.4787
4449.0931
5217.0472
7183.3644
5960.9501
6145.7167
8131.2114
6553.5284
6413.7128
8442.8344
7099.6462
6748.6578
9639.69
8191.7582
7921.2645
10043.242
8690.4406
7991.7573
11010.669
9749.0684
9096.1284
11490.421
10283.51
9429.3367
12755.76
11704.525
10678.108
13320.184
11439.065
10602.426
16988.601
10564.748
13988.923
12967.98
11759.291
10901.379
21707.344
22336.244
22514.325
6373.8474
5161.7639
3321.9134
-2539.1942
-6084.176
-5623.2822
-216.31118
2699.1855
2793.095
173.18504
-6783.0232
-5649.2171
-3082.7872
-3342.6421
-1911.0809
-1569.637
-6422.8979
-3323.0259
-219.34699
-6899.3892
-4163.3426
-3958.9761
-6569.7888
-1389.39
-321.70938
-7940.8721
-3448.8722
-1584.542
-6916.4481
-1360.4427
-1580.2811
-7670.7044
-1563.0445
-353.33957
-6280.5334
-945.21093
-346.16595
-6863.1753
16.012445
1039.8434
-5195.4009
924.24769
2004.4671
-4747.1319
1944.3016
3355.8337
-2938.6181
3553.9393
5060.3855
-1230.2978
5147.298
6819.2477
1362.6319
7080.9838
9051.9669
3472.9754
8848.7464
11190.814
7941.8667
11986.2
13440.21
9928.2996
12852.201
16500.329
16141.394
18457.151
20377.752
18604.027
19766.557
)
;

boundaryField
{
    free
    {
        type            zeroGradient;
    }
    fixed
    {
        type            zeroGradient;
    }
    freeTop
    {
        type            zeroGradient;
    }
}


// ************************************************************************* //
