/*--------------------------------*- C++ -*----------------------------------*\
  =========                 |
  \\      /  F ield         | OpenFOAM: The Open Source CFD Toolbox
   \\    /   O peration     | Website:  https://openfoam.org
    \\  /    A nd           | Version:  6
     \\/     M anipulation  |
\*---------------------------------------------------------------------------*/
FoamFile
{
    version     2.0;
    format      ascii;
    class       pointVectorField;
    location    "2";
    object      lm;
}
// * * * * * * * * * * * * * * * * * * * * * * * * * * * * * * * * * * * * * //

dimensions      [1 -2 -1 0 0 0 0];

internalField   nonuniform List<vector> 
625
(
(-3.6361799e-15 2.112754e-16 -3.2990721e-16)
(2.8178306e-17 1.9013092e-16 6.1994168e-17)
(6467.5143 -201.59311 694.67219)
(6212.2549 -1477.8858 667.80225)
(6.5239771e-16 2.739523e-16 -5.5565719e-16)
(-3.7042918e-15 1.4868296e-15 -1.3023874e-15)
(6211.1259 -1777.6477 673.908)
(6466.786 -501.72198 701.52509)
(-1.9658614e-16 -3.2115893e-17 -1.1045223e-16)
(1.4766345e-16 -3.4299605e-16 -2.8648028e-16)
(-1.0135278e-15 7.0169807e-16 1.7538027e-16)
(6404.1384 -520.30608 688.17952)
(6340.1888 -839.23829 681.82125)
(6276.2079 -1159.601 674.61322)
(15.431984 72.279029 66.131797)
(80.363194 146.62849 60.675581)
(189.81731 218.41233 50.161489)
(347.72596 282.31574 32.771051)
(533.35125 335.58554 17.615527)
(759.28795 379.49247 1.0064084)
(1006.9377 412.25179 -11.046972)
(1281.6284 433.55562 -21.24716)
(1575.1769 445.3887 -25.180828)
(1883.3226 444.37948 -24.906969)
(2204.2097 435.70195 -17.047018)
(2533.2469 416.69234 -2.0907111)
(2868.1116 389.70678 20.957757)
(3204.6362 355.04908 52.356559)
(3542.4143 314.14408 92.059328)
(3878.031 267.45615 140.04776)
(4211.3215 217.25199 194.73237)
(4541.3184 161.42951 257.33539)
(4867.9657 105.36568 323.63094)
(5190.6531 46.037994 395.43401)
(5511.7389 -15.903825 469.92298)
(5830.365 -76.482614 544.13343)
(6148.3688 -139.28177 620.63573)
(-1.4600284 -81.186081 -106.93103)
(70.788111 -163.42836 -93.921199)
(174.64478 -253.28559 -109.80967)
(310.42343 -333.58417 -110.56394)
(479.48906 -405.66744 -115.5024)
(684.29735 -481.44719 -117.04366)
(907.63652 -544.24738 -118.82782)
(1159.7282 -607.84419 -114.39067)
(1429.6469 -668.37604 -108.1126)
(1716.118 -722.59513 -95.314016)
(2016.5568 -777.46748 -77.196601)
(2327.4047 -829.23592 -52.551425)
(2646.1347 -879.26588 -21.339011)
(2969.9112 -928.72765 16.961021)
(3297.2934 -977.65919 62.203481)
(3625.5771 -1026.9959 113.8517)
(3954.1841 -1077.1368 171.91288)
(4281.4997 -1128.734 234.80401)
(4607.4408 -1182.2499 302.73301)
(4931.2229 -1237.5746 373.1996)
(5253.6644 -1295.5023 446.71911)
(5573.8814 -1355.0562 520.42858)
(5893.8214 -1416.2393 594.8441)
(-4.8813632e-16 1.9183015e-16 -1.0607077e-16)
(-2.6214496e-15 -5.6404768e-16 7.244144e-16)
(-2.4010456e-15 1.4295629e-15 -1.6975308e-16)
(16.929511 -41.835565 65.517307)
(81.715381 -167.96149 67.755584)
(194.13477 -216.97012 39.89718)
(340.39018 -303.19661 18.158537)
(523.21777 -388.99198 5.6258646)
(731.35658 -462.27534 -16.925886)
(964.31984 -542.48123 -26.846779)
(1221.1561 -623.41553 -39.131527)
(1493.4073 -702.10485 -42.844462)
(1783.4734 -783.15038 -41.980141)
(2082.0007 -861.51699 -34.24322)
(2391.8728 -941.7354 -18.811089)
(2705.6047 -1019.6121 4.544403)
(3024.7338 -1097.259 35.999418)
(3344.8857 -1173.1666 75.86283)
(3666.0227 -1247.4244 123.66734)
(3986.5225 -1319.9247 178.72133)
(4306.1369 -1390.3563 240.37592)
(4624.5084 -1459.0309 307.25331)
(4942.0231 -1525.555 378.22472)
(5258.6753 -1590.7032 451.79268)
(5575.6379 -1654.3094 526.61829)
(5893.0803 -1716.1939 601.07365)
(6275.1791 -1460.0831 681.18097)
(6338.8943 -1140.0369 687.80084)
(6402.6832 -821.65027 694.52716)
(6146.5491 -439.63181 628.91662)
(5826.3279 -374.71608 554.73595)
(5505.8204 -307.82018 480.92867)
(5184.087 -237.39191 407.54908)
(4860.552 -164.83024 336.38619)
(4535.1058 -90.643668 268.19725)
(4207.0926 -15.728016 204.22081)
(3876.9916 58.175319 145.48082)
(3545.1447 129.72721 92.759863)
(3212.3291 197.15063 46.446488)
(2880.3149 258.18265 7.6109181)
(2550.7738 311.59549 -24.639472)
(2225.7408 356.33059 -50.414426)
(1908.9838 387.73257 -67.368807)
(1603.7681 406.97701 -80.520789)
(1311.5402 415.68247 -88.236024)
(1038.5688 409.50828 -91.390922)
(787.85669 386.10951 -89.861731)
(565.99689 350.65408 -88.091031)
(371.76618 299.79969 -82.995447)
(213.71606 239.97149 -80.306702)
(99.823247 158.06683 -75.198785)
(50.13483 80.965675 -51.439243)
(-1.3028228e-15 -3.4252847e-16 3.3068324e-16)
(-2.0449562e-15 -3.5718549e-16 -7.3673077e-16)
(-1.4121951e-15 -1.0527101e-15 6.223458e-16)
(-1.2019486e-15 6.189313e-16 -3.4292956e-16)
(-1.2511779e-16 -6.848356e-17 2.1836215e-16)
(-3.8898857e-17 4.7141393e-16 -3.1043199e-16)
(6212.1135 -1553.7634 668.95562)
(6211.2465 -1627.8718 670.20373)
(6210.6114 -1701.6731 672.1979)
(6466.5824 -278.00508 696.00765)
(6466.8697 -352.32447 696.7963)
(6467.1889 -426.60748 699.83842)
(-15.279352 34.685748 39.55144)
(50.590698 68.253103 21.278719)
(159.51802 99.581231 12.494962)
(313.61083 127.13076 -1.8912417)
(498.15254 148.31214 -14.890119)
(721.15783 164.27301 -26.389356)
(965.96937 170.84536 -36.452302)
(1237.6088 172.36801 -42.278406)
(1526.362 165.79701 -44.364714)
(1832.535 151.81214 -39.829113)
(2150.3921 131.9071 -29.343626)
(2476.9209 104.56505 -11.806799)
(2808.9193 72.185437 13.491892)
(3143.9408 34.157504 46.553935)
(3479.8938 -8.4995976 87.703632)
(3814.3175 -55.139341 136.04022)
(4147.3172 -105.74357 191.76396)
(4476.4762 -159.42611 253.65823)
(4803.1749 -214.99837 319.76488)
(5126.3477 -274.14443 391.40352)
(5447.6238 -334.45269 463.94161)
(5766.4352 -395.50584 538.79147)
(6085.1577 -458.3866 613.97073)
(-27.791963 -2.6058037 -11.183986)
(45.233251 -11.259642 -21.924075)
(148.84331 -14.142715 -30.684542)
(298.0432 -21.14479 -38.344455)
(481.46771 -33.112408 -48.341265)
(696.16805 -45.501467 -56.462354)
(936.75584 -61.989114 -62.445937)
(1202.9967 -82.229042 -64.666308)
(1486.8057 -106.65141 -62.316082)
(1788.0832 -134.65667 -55.422414)
(2100.3938 -166.36929 -41.935753)
(2422.898 -202.01045 -21.818946)
(2751.3528 -240.89599 5.696649)
(3083.6864 -283.35232 40.536347)
(3417.181 -328.78651 82.865683)
(3750.5868 -377.15927 132.25052)
(4082.3155 -428.22507 188.39661)
(4411.2664 -481.61388 249.97125)
(4738.3538 -537.46714 316.69633)
(5061.2724 -595.25383 386.9297)
(5383.3011 -655.03629 459.7686)
(5702.4928 -715.4159 533.33606)
(6021.4308 -777.82109 607.82418)
(-29.519975 -42.114086 -44.98943)
(45.976107 -79.749913 -54.888351)
(144.4697 -120.2511 -64.326761)
(294.02639 -164.19468 -71.462716)
(470.61651 -209.10974 -80.128451)
(680.31618 -247.55264 -85.575374)
(917.0712 -292.07504 -88.669741)
(1176.1663 -333.09829 -88.49101)
(1454.459 -375.14264 -84.764016)
(1750.0188 -418.33508 -74.599611)
(2057.6067 -461.65298 -59.0543)
(2375.6328 -506.60137 -36.538517)
(2699.7959 -552.34007 -7.2593826)
(3028.5495 -599.38508 29.248777)
(3359.1246 -647.88592 73.001814)
(3690.2775 -697.74436 123.48173)
(4019.9769 -749.51521 180.35896)
(4348.4363 -802.95264 242.77685)
(4673.8797 -858.33499 309.61229)
(4997.6537 -915.78005 380.35511)
(5318.8204 -974.92806 452.72703)
(5638.6417 -1035.4363 526.789)
(5957.5571 -1097.8416 601.11343)
(-2.5953868e-15 -2.1703571e-16 4.2716933e-18)
(-3.8783653e-15 3.5858996e-16 7.5215743e-16)
(-9.8459492e-16 7.8127033e-16 2.7525688e-16)
(-3.9146975e-16 7.8165185e-18 1.2560621e-16)
(1.6350797e-16 -2.4226884e-16 -1.2066667e-17)
(-1.0304172e-15 -9.2669207e-16 -7.5672327e-16)
(-6.4481012e-16 3.525084e-16 2.7116342e-16)
(-3.5205005e-15 9.4737515e-16 -2.5196009e-17)
(-3.8147498e-15 1.043275e-15 1.2924308e-16)
(36.536886 -33.320767 -45.072799)
(45.618999 -41.750336 -10.401853)
(39.73118 -29.877128 22.439673)
(118.37685 -174.32257 -55.601624)
(118.24098 -170.18128 -17.965561)
(113.45303 -161.15932 29.442952)
(204.99371 -240.27756 -69.077076)
(217.2345 -231.52824 -31.29791)
(219.72685 -240.8533 9.9563665)
(344.71262 -328.78815 -74.480256)
(360.85705 -329.62382 -43.735039)
(357.59606 -319.17829 -9.1801693)
(516.59193 -406.63441 -85.281102)
(529.28617 -400.65615 -57.877404)
(535.04416 -402.47893 -23.386082)
(713.99524 -479.3017 -92.361266)
(732.58521 -479.43264 -65.680383)
(738.4836 -477.2957 -39.233516)
(940.91245 -549.09073 -95.804395)
(957.81083 -553.18884 -77.45641)
(967.50514 -556.10486 -48.78062)
(1189.9012 -618.85811 -97.75301)
(1208.5404 -621.0523 -80.194591)
(1219.6275 -629.10376 -58.560878)
(1457.4055 -679.9974 -93.645792)
(1475.9997 -692.22068 -80.148261)
(1487.8516 -703.60674 -60.13732)
(1742.568 -744.01263 -85.289559)
(1760.7853 -759.98771 -74.14096)
(1775.1895 -777.28371 -57.751642)
(2039.757 -803.58807 -69.829814)
(2058.0031 -825.89994 -61.602218)
(2071.8542 -848.96549 -47.768332)
(2348.5399 -862.28727 -47.839021)
(2365.1066 -891.17356 -42.279831)
(2379.7764 -920.33032 -30.876805)
(2663.6447 -919.1238 -18.828504)
(2679.5272 -954.59202 -15.160714)
(2693.5223 -990.37845 -5.6699904)
(2985.0838 -975.53444 17.839789)
(2999.0224 -1017.3997 19.831854)
(3012.1584 -1059.344 27.186771)
(3308.9611 -1030.7682 61.838788)
(3321.1912 -1079.0163 62.386773)
(3333.3397 -1127.1577 68.407557)
(3634.6834 -1086.1499 112.76267)
(3645.1117 -1140.207 112.53689)
(3655.5815 -1193.8256 117.4265)
(3960.5475 -1141.5323 170.38265)
(3968.8167 -1200.8078 169.68385)
(3977.7774 -1259.4754 173.52326)
(4285.6352 -1197.4938 233.55783)
(4292.2169 -1261.2123 232.63539)
(4299.2609 -1324.1962 236.06849)
(4609.6138 -1254.3715 301.52621)
(4614.1876 -1321.8407 300.85894)
(4619.5508 -1388.3245 303.71443)
(4932.1269 -1312.2282 372.87342)
(4935.3037 -1382.3624 372.63303)
(4938.9203 -1451.6508 375.29655)
(5253.1549 -1371.2717 446.74829)
(5254.7881 -1443.3062 446.87978)
(5257.1351 -1514.7425 449.29409)
(5573.1556 -1431.2695 521.16571)
(5574.1008 -1504.9429 521.93624)
(5575.2764 -1578.0127 524.46664)
(5892.956 -1492.5504 596.10518)
(5893.0307 -1566.7803 597.498)
(5893.3989 -1640.2637 599.47689)
(6403.2171 -596.64202 689.41306)
(6402.8524 -671.60643 690.34114)
(6403.0651 -746.40196 692.94273)
(6339.4647 -915.68178 683.14312)
(6339.2406 -990.12583 683.68073)
(6338.6238 -1064.8862 686.32127)
(6276.1471 -1235.3565 675.64178)
(6275.6682 -1309.6983 676.95649)
(6275.2329 -1384.8897 679.15107)
(53.443713 64.240017 33.396864)
(58.322209 71.83496 10.345706)
(68.287607 70.451583 -16.918413)
(114.80276 143.94721 25.316028)
(125.23365 152.58835 -8.3856905)
(124.49234 151.08737 -43.373609)
(227.96306 227.56561 16.739807)
(235.66899 229.44407 -11.548585)
(241.3506 233.37968 -51.05314)
(378.76177 282.96175 0.59629362)
(390.4235 289.63842 -24.723314)
(391.89541 290.86324 -58.694675)
(565.89233 342.67189 -10.551629)
(577.38574 344.34209 -38.544195)
(580.06854 346.7229 -64.779394)
(788.36037 380.77775 -26.094159)
(797.07424 380.24886 -44.010278)
(802.45543 381.10684 -72.090046)
(1033.8542 411.46812 -35.838323)
(1043.8015 410.15821 -54.514068)
(1048.6596 407.01156 -76.321134)
(1306.472 429.93392 -43.161635)
(1315.049 423.10617 -57.820147)
(1319.9172 417.23424 -77.324823)
(1594.7179 437.07642 -44.196628)
(1604.4166 423.97487 -59.948073)
(1607.805 415.27749 -71.82561)
(1902.5805 431.17561 -42.429578)
(1908.4389 413.36174 -48.996254)
(1913.8882 398.71582 -63.312971)
(2219.2674 416.28681 -31.495764)
(2225.1162 393.92766 -39.851813)
(2228.1774 374.42436 -48.513094)
(2546.0459 391.54627 -14.743228)
(2549.2308 361.72601 -19.117325)
(2553.0564 337.26677 -25.433906)
(2876.6317 357.15595 11.10885)
(2879.6507 321.80676 7.8628445)
(2881.7333 290.94703 4.5932549)
(3211.1172 316.05152 44.323813)
(3212.1184 273.8677 43.428705)
(3213.6674 237.25034 41.828052)
(3545.5045 267.89841 86.481664)
(3545.7577 219.65625 86.270672)
(3546.4086 177.29505 87.035491)
(3879.0251 214.87174 135.61562)
(3878.4834 160.78238 137.12149)
(3878.3114 112.61782 138.97461)
(4210.5689 157.71314 192.90352)
(4209.3709 98.358276 194.47961)
(4208.5545 44.96242 197.62734)
(4539.2787 97.36025 255.68938)
(4537.7131 33.9008 257.90531)
(4536.49 -24.398917 261.78959)
(4864.7727 36.188184 323.92309)
(4863.4724 -31.678647 326.55046)
(4862.1371 -94.447355 330.63178)
(5187.9096 -27.292001 396.55369)
(5187.0172 -97.35877 398.19119)
(5185.2599 -163.65347 402.67454)
(5509.2316 -90.710719 470.95722)
(5508.4299 -163.3216 472.84898)
(5506.8092 -232.1608 476.99546)
(5828.587 -153.12136 545.47788)
(5827.8144 -226.19482 548.24789)
(5826.8214 -298.08632 551.85742)
(6147.8467 -216.39051 622.42764)
(6147.0758 -290.69104 624.92395)
(6147.0676 -363.93552 626.79758)
(3.1250209 25.073778 -36.714426)
(72.975597 100.5031 -46.011288)
(180.44595 116.6058 -47.086248)
(341.64156 150.34598 -57.043194)
(530.63319 167.58424 -64.451864)
(754.33283 172.63385 -68.175942)
(1002.0103 171.10715 -72.249935)
(1273.2542 154.23101 -71.161625)
(1562.3098 130.62131 -66.619252)
(1866.0738 93.825576 -55.525176)
(2180.2689 51.349199 -41.000266)
(2502.79 -3.9601233 -16.394129)
(2830.5642 -62.424879 12.777797)
(3160.2992 -128.16247 49.975198)
(3491.4825 -197.81319 94.384997)
(3821.5131 -269.90098 145.18346)
(4150.1245 -343.5164 202.41595)
(4476.6392 -417.16309 264.9459)
(4800.8112 -489.79278 331.94126)
(5123.0916 -560.79137 402.23551)
(5444.0254 -629.43082 474.88755)
(5763.1243 -695.57865 548.36231)
(6083.3238 -759.80693 622.15416)
(-18.451593 12.748227 1.9936059)
(56.174974 24.32538 -14.206546)
(172.40383 7.7888511 -17.506121)
(330.502 8.4055383 -33.009543)
(516.01386 -8.4966351 -43.184532)
(738.67236 -33.657155 -49.885139)
(981.44973 -58.774096 -58.525603)
(1251.1557 -98.01869 -59.97375)
(1535.1842 -141.03893 -58.307849)
(1836.2676 -192.28579 -50.652432)
(2146.1205 -248.25535 -37.37444)
(2466.4214 -312.17872 -16.036876)
(2789.6506 -377.63792 11.046813)
(3117.0835 -448.77675 47.07701)
(3444.7619 -520.80249 89.570788)
(3772.1277 -594.66526 139.51254)
(4098.1209 -668.36212 195.97774)
(4422.0953 -741.52996 257.87606)
(4744.1788 -813.03647 324.79607)
(5064.338 -882.7105 394.87968)
(5383.521 -950.34349 467.49844)
(5701.2301 -1015.274 541.04672)
(6020.756 -1078.8162 615.03553)
(-26.750293 -24.500253 25.746012)
(62.732144 -41.186085 17.642718)
(174.146 -99.608239 17.987498)
(325.26469 -124.58088 -7.048246)
(510.91367 -181.25287 -14.333956)
(728.57012 -229.29492 -29.001858)
(966.83075 -283.33419 -39.163773)
(1232.4482 -345.01785 -44.11442)
(1510.9142 -405.86339 -45.985142)
(1807.8316 -473.48999 -41.501149)
(2113.3784 -543.10394 -30.550098)
(2428.3961 -615.60491 -12.855855)
(2748.0257 -690.04404 12.853673)
(3071.4284 -765.53442 45.957371)
(3395.7382 -841.5924 86.850949)
(3719.9874 -917.15199 135.25454)
(4043.3003 -991.82235 190.38304)
(4364.8149 -1064.8086 251.55631)
(4684.984 -1135.9561 317.83272)
(5003.5104 -1204.9496 387.60713)
(5321.2511 -1271.5383 460.47499)
(5638.663 -1336.1578 534.02915)
(5956.6822 -1398.7335 608.4651)
(10.114499 18.745921 18.029769)
(13.305344 22.177113 3.4819663)
(22.956726 21.570171 -14.091817)
(84.803928 75.25701 3.2835797)
(97.214267 80.446492 -12.799692)
(94.10004 80.255401 -34.498553)
(195.19905 103.90173 -5.4904153)
(200.02104 107.02698 -21.513445)
(205.88223 113.24703 -35.02134)
(344.39701 134.50682 -18.718873)
(359.37508 139.4857 -33.696687)
(360.44867 139.5991 -46.14393)
(532.0154 154.634 -31.977144)
(541.91551 156.27006 -41.864778)
(547.01197 159.54441 -55.774856)
(749.55908 166.69066 -41.069802)
(762.42143 168.34933 -51.908304)
(766.50833 168.31065 -61.78284)
(993.63867 172.29309 -50.006509)
(1004.9789 170.22087 -59.11899)
(1011.2337 167.15178 -67.186345)
(1261.7053 170.0644 -54.939407)
(1274.0969 161.27819 -61.615844)
(1279.7814 156.5768 -68.307967)
(1549.4212 156.68574 -55.473462)
(1559.8616 146.55471 -59.90803)
(1566.1082 136.81867 -65.892784)
(1852.0524 138.28617 -49.351121)
(1861.7189 122.18632 -53.478317)
(1868.2164 106.25112 -56.506097)
(2166.5326 111.97427 -37.736912)
(2175.2521 89.140451 -40.629027)
(2180.9486 69.389851 -42.427585)
(2489.8446 77.952378 -18.9404)
(2497.3615 49.374165 -19.917384)
(2502.8612 23.202958 -20.628545)
(2818.9067 38.583831 7.6661192)
(2825.138 3.4963463 7.2233503)
(2829.657 -29.127891 8.4829154)
(3151.1277 -6.6535832 41.836772)
(3155.8178 -48.069167 42.997854)
(3159.6277 -86.905527 44.553049)
(3484.2529 -56.4183 84.117579)
(3487.8187 -104.07225 85.635163)
(3490.535 -149.12844 88.501486)
(3816.843 -109.98153 133.58029)
(3819.0478 -163.25098 136.09163)
(3820.9585 -214.46845 139.20556)
(4147.5704 -166.72666 190.28888)
(4148.8825 -225.18319 192.9016)
(4149.9122 -281.83774 196.59811)
(4475.8932 -225.5975 252.77573)
(4476.3361 -288.53762 255.79888)
(4476.5277 -350.22557 259.49908)
(4801.4555 -285.64455 320.21548)
(4801.2174 -352.78897 323.39889)
(4801.3828 -418.83543 327.15552)
(5124.2176 -348.50842 391.90682)
(5124.2601 -418.00953 394.79028)
(5123.244 -486.8322 398.12254)
(5445.5807 -410.26081 465.26379)
(5445.7322 -481.53408 468.21957)
(5444.4197 -553.66467 471.64192)
(5764.8744 -472.85572 540.62504)
(5764.047 -545.68761 543.14925)
(5763.3349 -619.77625 545.803)
(6084.0449 -535.34634 616.05239)
(6083.5894 -609.3536 617.87805)
(6083.53 -684.17909 620.05354)
(-6.9477303 2.4952139 -7.4040946)
(1.1606916 6.8103477 -5.1251312)
(8.51109 6.5450275 -0.54727613)
(73.216847 -2.4136243 -23.875651)
(83.176402 4.9532382 -20.046231)
(78.013718 5.440874 -17.69592)
(181.10967 -5.4857542 -30.830213)
(191.85455 -3.1351047 -22.491343)
(193.48009 2.4052667 -21.949855)
(328.63242 -17.360664 -42.545391)
(346.42802 -12.578627 -36.692639)
(345.08443 -11.986468 -35.709318)
(512.00265 -26.092912 -50.930536)
(527.037 -25.063661 -43.900943)
(527.84666 -19.778981 -47.475592)
(725.30978 -43.014828 -60.22056)
(741.74841 -44.723464 -56.537235)
(744.71795 -43.063063 -55.338684)
(964.78058 -61.575953 -67.316687)
(980.68481 -66.47779 -60.974358)
(984.84151 -68.216297 -63.218229)
(1228.9351 -87.482062 -69.114598)
(1244.9749 -96.516895 -64.912346)
(1249.709 -98.943224 -66.453215)
(1510.3763 -115.44118 -67.319712)
(1525.5552 -128.89982 -64.534746)
(1531.6365 -138.69247 -64.898274)
(1809.2515 -148.68167 -60.769312)
(1823.5982 -169.58404 -57.033827)
(1829.8649 -181.82888 -57.468695)
(2119.4144 -187.70385 -47.201501)
(2132.273 -212.62241 -43.570804)
(2138.8067 -232.48409 -45.054049)
(2439.0687 -229.50396 -26.898498)
(2450.8362 -261.70317 -23.930009)
(2457.1052 -286.61285 -24.143525)
(2764.8016 -275.70992 0.86297824)
(2774.8704 -313.57659 3.9578381)
(2780.6588 -345.84607 3.4949526)
(3094.0687 -325.13925 36.1077)
(3102.6981 -369.81019 39.058942)
(3107.6563 -407.80277 38.782044)
(3425.117 -377.53572 79.123692)
(3431.9259 -427.80106 81.704397)
(3436.2323 -472.73699 82.035421)
(3755.8674 -432.42844 129.01762)
(3761.1827 -488.38837 131.83531)
(3764.559 -539.14121 132.17048)
(4085.4535 -489.34898 186.04457)
(4089.286 -550.07677 188.45123)
(4091.7567 -606.78078 189.26587)
(4412.861 -547.87922 248.44423)
(4415.3673 -613.08033 250.91678)
(4417.2179 -674.33728 251.95674)
(4738.1903 -607.83886 315.96697)
(4739.7262 -676.03209 318.2775)
(4740.7124 -742.11424 319.70707)
(5060.8167 -668.97564 387.11877)
(5061.3989 -740.42881 389.18114)
(5062.1502 -808.4654 390.67215)
(5382.7142 -730.02801 460.83178)
(5381.4381 -803.73619 461.43671)
(5382.7416 -874.2887 464.45976)
(5700.9551 -791.97432 534.4816)
(5701.19 -865.20273 536.66405)
(5700.9849 -939.22007 538.53824)
(6020.819 -854.20482 609.79116)
(6020.4126 -928.71488 611.56895)
(6020.5309 -1002.9736 613.42491)
(-2.9570403 -23.180563 -19.736028)
(-3.2464406 -21.740576 -4.2842766)
(-2.3224942 -17.314337 11.891077)
(84.00175 -67.975251 -35.177032)
(93.671045 -56.258345 -13.744861)
(86.533133 -55.381675 3.2713128)
(180.95125 -113.11577 -44.580677)
(192.08188 -118.25651 -24.263469)
(194.15648 -108.1823 -2.992684)
(331.04177 -160.91346 -54.94256)
(341.2771 -151.75015 -36.962465)
(345.33234 -146.66896 -21.25043)
(505.04796 -201.85336 -64.611423)
(518.87476 -204.56379 -48.667017)
(524.26156 -196.02555 -33.243835)
(714.82961 -248.36326 -74.297128)
(728.75501 -248.70166 -59.294854)
(736.49781 -244.17788 -45.925858)
(949.14257 -294.47681 -78.929301)
(962.05086 -298.36227 -65.434509)
(973.49796 -294.92412 -54.374607)
(1206.197 -339.30124 -81.266955)
(1221.0369 -347.96958 -71.551944)
(1232.807 -350.95789 -60.384664)
(1483.1628 -387.82451 -80.030725)
(1496.4134 -400.97739 -69.51327)
(1510.5635 -406.98922 -59.777408)
(1775.6798 -437.06011 -71.361914)
(1789.3904 -454.30223 -63.21658)
(1803.3776 -467.45233 -55.463748)
(2080.4377 -486.62252 -57.561493)
(2092.9257 -510.92343 -50.931051)
(2108.3298 -529.82492 -43.432062)
(2395.4306 -538.49881 -36.541097)
(2407.128 -568.22944 -30.81434)
(2421.6907 -594.0116 -24.787501)
(2716.5306 -591.17929 -8.3298321)
(2726.6146 -627.41688 -3.6327573)
(2741.2685 -660.37913 1.4684549)
(3042.1606 -645.24685 27.472091)
(3051.1369 -687.35311 31.219347)
(3064.338 -727.37843 35.686152)
(3369.8769 -700.34438 70.706333)
(3377.1124 -748.41945 73.913144)
(3389.3808 -795.34798 77.620765)
(3698.0473 -756.49977 121.09903)
(3703.9998 -809.91445 123.87417)
(3714.4276 -863.44458 126.87989)
(4025.5325 -813.70421 178.24127)
(4029.942 -872.12749 180.44423)
(4038.7921 -931.35026 183.20277)
(4351.5828 -871.72809 240.87822)
(4354.8911 -934.4015 243.14099)
(4361.7462 -998.74777 245.37068)
(4675.6073 -930.93276 308.60634)
(4677.6775 -997.10545 310.48954)
(4682.7791 -1065.2912 312.58166)
(4997.9662 -990.73657 379.80865)
(4999.52 -1059.7158 381.58818)
(5002.68 -1131.2147 383.51055)
(5318.2548 -1051.2572 453.07035)
(5318.9265 -1122.2374 454.95224)
(5320.8251 -1195.4414 457.03866)
(5637.8441 -1112.4522 527.78556)
(5638.2476 -1184.9953 529.59291)
(5639.2216 -1259.6814 531.82692)
(5956.8317 -1174.1062 602.90247)
(5956.7219 -1247.7152 604.41653)
(5956.6839 -1323.4124 606.11679)
)
;

boundaryField
{
    free
    {
        type            zeroGradient;
    }
    fixed
    {
        type            fixedValue;
        value           nonuniform List<vector> 
25
(
(-2.5953868e-15 -2.1703571e-16 4.2716933e-18)
(-1.3028228e-15 -3.4252847e-16 3.3068324e-16)
(-1.9658614e-16 -3.2115893e-17 -1.1045223e-16)
(-3.6361799e-15 2.112754e-16 -3.2990721e-16)
(-3.8783653e-15 3.5858996e-16 7.5215743e-16)
(-2.0449562e-15 -3.5718549e-16 -7.3673077e-16)
(-9.8459492e-16 7.8127033e-16 2.7525688e-16)
(-1.4121951e-15 -1.0527101e-15 6.223458e-16)
(-4.8813632e-16 1.9183015e-16 -1.0607077e-16)
(6.5239771e-16 2.739523e-16 -5.5565719e-16)
(-3.9146975e-16 7.8165185e-18 1.2560621e-16)
(1.4766345e-16 -3.4299605e-16 -2.8648028e-16)
(1.6350797e-16 -2.4226884e-16 -1.2066667e-17)
(-1.0304172e-15 -9.2669207e-16 -7.5672327e-16)
(-2.6214496e-15 -5.6404768e-16 7.244144e-16)
(-6.4481012e-16 3.525084e-16 2.7116342e-16)
(-1.0135278e-15 7.0169807e-16 1.7538027e-16)
(-3.5205005e-15 9.4737515e-16 -2.5196009e-17)
(-3.8147498e-15 1.043275e-15 1.2924308e-16)
(-2.4010456e-15 1.4295629e-15 -1.6975308e-16)
(-1.2019486e-15 6.189313e-16 -3.4292956e-16)
(2.8178306e-17 1.9013092e-16 6.1994168e-17)
(-1.2511779e-16 -6.848356e-17 2.1836215e-16)
(-3.8898857e-17 4.7141393e-16 -3.1043199e-16)
(-3.7042918e-15 1.4868296e-15 -1.3023874e-15)
)
;
    }
    freeTop
    {
        type            zeroGradient;
    }
}


// ************************************************************************* //
