/*--------------------------------*- C++ -*----------------------------------*\
  =========                 |
  \\      /  F ield         | OpenFOAM: The Open Source CFD Toolbox
   \\    /   O peration     | Website:  https://openfoam.org
    \\  /    A nd           | Version:  6
     \\/     M anipulation  |
\*---------------------------------------------------------------------------*/
FoamFile
{
    version     2.0;
    format      ascii;
    class       pointVectorField;
    location    "0.21";
    object      lm;
}
// * * * * * * * * * * * * * * * * * * * * * * * * * * * * * * * * * * * * * //

dimensions      [1 -2 -1 0 0 0 0];

internalField   nonuniform List<vector> 
28033
(
(0 0 0)
(0 0 0)
(2762.9319 -195.87926 -16.886762)
(2807.9999 -121.66129 33.9082)
(0 0 0)
(0 0 0)
(2798.0591 -122.96426 -2.8501321)
(2769.2484 -192.88387 24.551176)
(0 0 0)
(0 0 0)
(0 0 0)
(0 0 0)
(0 0 0)
(0 0 0)
(0 0 0)
(0 0 0)
(0 0 0)
(0 0 0)
(0 0 0)
(0 0 0)
(0 0 0)
(0 0 0)
(0 0 0)
(2734.0571 -188.15778 -15.938372)
(2698.4367 -180.20632 -14.146031)
(2673.6684 -172.86232 -12.144298)
(2663.284 -167.71932 -10.302654)
(2669.325 -163.20631 -8.1135384)
(2691.0924 -159.91312 -5.4944266)
(2725.5961 -157.47859 -1.9195086)
(2767.3685 -155.34301 1.6288024)
(2810.9984 -153.12897 6.0385475)
(2849.498 -150.51603 10.76375)
(2877.3815 -147.30683 15.243033)
(2891.0317 -143.5983 20.288282)
(2887.6587 -138.97589 23.929026)
(2868.7685 -133.68875 27.63877)
(2838.5483 -127.49518 30.957316)
(14.930875 28.423912 29.060707)
(16.119135 42.118435 42.720473)
(19.50071 56.882032 53.233782)
(25.591954 72.738635 61.716307)
(33.886335 87.813895 68.038553)
(45.324253 103.67065 73.269628)
(59.905665 118.89447 76.810246)
(77.528341 133.95196 79.286011)
(98.402389 148.518 80.413846)
(122.31771 162.60559 80.296903)
(149.02289 175.94595 78.967088)
(178.47419 188.80842 76.713387)
(210.3043 200.83367 73.578784)
(244.25152 212.26475 69.797984)
(279.8047 222.86999 65.612408)
(316.76849 232.89116 61.335157)
(354.96405 242.28457 57.038982)
(394.12792 251.12304 52.893616)
(434.05384 259.45422 48.988655)
(474.80335 267.3155 45.432491)
(516.36958 274.84794 42.117644)
(558.81482 281.94498 39.055147)
(602.27865 288.70873 36.163884)
(646.85092 295.09339 33.322004)
(692.58647 300.98569 30.520464)
(739.60216 306.41604 27.678303)
(787.91073 311.19384 24.716136)
(837.43949 315.29173 21.603412)
(888.08513 318.49515 18.375128)
(939.72776 320.89556 14.965634)
(992.08026 322.13722 11.458867)
(1044.9091 322.35777 7.8232853)
(1097.9578 321.61022 4.1130853)
(1150.8358 319.74309 0.34476542)
(1203.1765 316.98715 -3.3396066)
(1254.737 313.2958 -6.75115)
(1304.931 308.98335 -9.9637985)
(1353.6078 304.18677 -12.610066)
(1400.3427 299.19351 -14.580059)
(1444.9291 294.16087 -15.697994)
(1487.226 289.44074 -15.796389)
(1527.2396 285.21185 -14.734568)
(1564.9964 281.68623 -12.479148)
(1600.7729 279.10432 -8.9651568)
(1634.9522 277.50917 -4.4272004)
(1668.0675 277.02797 1.0068599)
(1700.744 277.61736 6.9785741)
(1733.7218 279.22602 13.102859)
(1767.7166 281.69618 18.947118)
(1803.4673 284.82989 24.062606)
(1841.5655 288.35677 28.049447)
(1882.5017 291.97745 30.582059)
(1926.5354 295.3623 31.454523)
(1973.7341 298.17302 30.595935)
(2023.9251 300.09123 28.076443)
(2076.7446 300.81693 24.091598)
(2131.6697 300.10163 18.928587)
(2188.083 297.74295 12.915776)
(2245.345 293.59447 6.3745311)
(2302.8625 287.54932 -0.43773373)
(2360.1342 279.55654 -7.3609054)
(2416.8111 269.57811 -14.383931)
(2472.6422 257.60544 -21.550111)
(2527.5282 243.62374 -29.109828)
(2581.4004 227.62542 -37.260209)
(2634.1397 209.65556 -46.090725)
(2685.575 189.77051 -55.884049)
(2735.3805 167.91885 -66.626438)
(2782.9336 144.48171 -77.879624)
(2827.5322 119.40429 -89.256743)
(2868.0815 93.202415 -100.03869)
(2903.7552 66.237852 -109.6271)
(2933.4337 39.028637 -117.10276)
(2956.2273 12.031035 -121.68905)
(2971.5977 -14.034632 -122.89479)
(2979.3105 -38.888562 -120.35068)
(2979.6108 -61.733451 -114.23692)
(2973.2745 -82.637403 -104.80998)
(2961.2939 -100.88081 -93.010819)
(2945.2009 -116.99003 -79.541411)
(2926.5152 -130.45915 -65.744874)
(2906.6946 -141.86958 -52.406612)
(2887.237 -151.37519 -40.685049)
(2869.1115 -159.38965 -31.004223)
(2852.9549 -166.1652 -23.849211)
(2838.9647 -171.87462 -19.115655)
(2827.1357 -177.05743 -16.612183)
(2816.6964 -181.44944 -15.6712)
(2807.7265 -185.7179 -15.96296)
(2798.6731 -189.04418 -16.531789)
(2790.1377 -192.30648 -17.273397)
(2781.1513 -194.52224 -17.901312)
(2771.8918 -196.02067 -17.717067)
(2763.1051 -196.13432 -18.265571)
(2754.1696 -196.21954 -17.839648)
(9.2820284 -30.094054 -36.760728)
(17.369967 -42.425242 -41.095623)
(21.182526 -59.833121 -56.008258)
(25.224007 -72.748858 -62.588929)
(34.444258 -89.635417 -69.754751)
(44.934926 -105.51366 -74.906642)
(58.603314 -120.79256 -78.868917)
(75.321991 -136.3228 -81.506324)
(95.333784 -151.25791 -82.798466)
(117.94414 -165.4593 -82.985056)
(143.76801 -179.2906 -81.846726)
(171.90228 -192.26733 -79.709894)
(202.5598 -204.68276 -76.69294)
(235.21313 -216.46399 -72.986142)
(269.55314 -227.56901 -68.789202)
(305.47351 -238.20898 -64.363802)
(342.48352 -248.29126 -59.791795)
(380.60786 -258.01204 -55.395856)
(419.70423 -267.39882 -51.159317)
(459.57561 -276.43649 -47.19403)
(500.30106 -285.24541 -43.621701)
(541.92593 -293.78244 -40.343297)
(584.36009 -302.01818 -37.375828)
(627.81525 -309.97636 -34.653807)
(672.24742 -317.5484 -32.055199)
(717.75772 -324.66662 -29.477885)
(764.35642 -331.32942 -26.786509)
(812.06619 -337.34752 -23.837439)
(860.81034 -342.78844 -20.511751)
(910.49578 -347.46922 -16.760827)
(960.9279 -351.4912 -12.52752)
(1011.9527 -354.75114 -7.7997947)
(1063.193 -357.30614 -2.7104736)
(1114.34 -359.17397 2.5996429)
(1164.9912 -360.4555 7.9574629)
(1214.7519 -361.15699 13.070792)
(1263.1911 -361.50614 17.626295)
(1309.8913 -361.50776 21.454106)
(1354.7299 -361.43761 24.263256)
(1397.3 -361.35557 25.820662)
(1437.5235 -361.4697 25.958771)
(1475.3617 -361.92521 24.58509)
(1510.9222 -362.89179 21.692)
(1544.4447 -364.50524 17.359514)
(1576.3051 -366.8962 11.766975)
(1607.0039 -370.15441 5.1818216)
(1637.1377 -374.34183 -2.0492324)
(1667.3801 -379.47293 -9.5167186)
(1698.4264 -385.52302 -16.776462)
(1730.9635 -392.41697 -23.375323)
(1765.6116 -400.04314 -28.886584)
(1802.8849 -408.2444 -32.942088)
(1843.1526 -416.83784 -35.261027)
(1886.6086 -425.61139 -35.678378)
(1933.2606 -434.33894 -34.153933)
(1982.9317 -442.7831 -30.78139)
(2035.2834 -450.70915 -25.768803)
(2089.8495 -457.88072 -19.420414)
(2146.092 -464.0806 -12.090427)
(2203.4529 -469.0994 -4.1410829)
(2261.4061 -472.7511 4.1023463)
(2319.511 -474.87323 12.404463)
(2377.4207 -475.32241 20.625202)
(2434.8945 -473.984 28.757104)
(2491.7564 -470.76158 36.863054)
(2547.8712 -465.6126 45.119935)
(2603.0497 -458.43913 53.621487)
(2656.9704 -449.3352 62.546897)
(2709.3412 -438.02877 71.789439)
(2759.2141 -425.0187 81.349539)
(2805.7858 -409.95846 90.644226)
(2848.3683 -393.23911 99.32838)
(2885.6631 -374.93983 106.81516)
(2916.815 -355.31393 112.452)
(2941.0754 -334.73952 115.7342)
(2957.9228 -313.54871 116.20759)
(2967.3517 -292.21728 113.73763)
(2969.7029 -271.17265 108.39628)
(2965.8221 -250.9146 100.55917)
(2956.8707 -231.83393 90.875472)
(2944.2777 -214.33426 80.14066)
(2929.5337 -198.65164 69.222838)
(2914.0621 -184.94512 58.969764)
(2899.0577 -173.23085 50.050543)
(2885.3742 -163.3959 42.948373)
(2873.4863 -155.25141 37.840354)
(2863.4754 -148.52843 34.680735)
(2855.1387 -142.94663 33.175905)
(2848.0189 -138.23441 32.906492)
(2841.6399 -134.20082 33.411002)
(2835.5122 -130.67351 34.214394)
(2829.2754 -127.64469 35.012123)
(2822.8116 -125.14796 35.518982)
(2816.0565 -122.9968 35.609273)
(2811.42 -122.11285 35.290597)
(0 0 0)
(0 0 0)
(0 0 0)
(0 0 0)
(0 0 0)
(0 0 0)
(0 0 0)
(0 0 0)
(0 0 0)
(0 0 0)
(0 0 0)
(0 0 0)
(0 0 0)
(0 0 0)
(0 0 0)
(17.993099 -12.741666 26.484057)
(20.303328 -50.166672 43.223085)
(19.394605 -52.57268 52.710142)
(26.910995 -76.975569 64.040843)
(33.572987 -89.240458 70.27305)
(45.53222 -106.02035 75.179895)
(59.165265 -121.54282 78.45324)
(77.157305 -137.04175 80.904879)
(97.416263 -151.62257 80.961578)
(121.1378 -166.33648 80.364516)
(147.65433 -179.91288 78.364068)
(176.53354 -192.93402 75.359855)
(207.76856 -205.84216 71.628274)
(240.94856 -217.33905 67.35908)
(275.42987 -229.00218 62.812556)
(311.31877 -239.39779 58.339901)
(348.47537 -249.87079 54.08135)
(385.72811 -259.37704 49.910088)
(424.62565 -268.84327 46.290238)
(463.42173 -277.73662 42.945129)
(503.59712 -286.44306 39.921114)
(544.63216 -294.91673 37.133289)
(586.43653 -303.14468 34.463949)
(629.55007 -311.03271 31.809747)
(673.8291 -318.67998 29.099277)
(719.58255 -325.95369 26.238718)
(766.32155 -332.58188 22.998978)
(814.7973 -339.24495 19.687487)
(863.84473 -344.54195 15.830656)
(914.23718 -349.8573 11.880304)
(965.38386 -354.00195 7.6461156)
(1016.6786 -357.42707 3.3495454)
(1068.1292 -360.01564 -1.0206795)
(1119.2159 -361.74947 -5.2476853)
(1170.2125 -363.16403 -9.1856033)
(1218.2756 -362.94698 -12.793431)
(1266.8709 -363.00117 -15.87366)
(1313.2827 -362.49384 -18.207644)
(1357.5174 -361.72656 -19.622449)
(1399.6148 -360.92969 -20.039724)
(1439.3491 -360.35618 -19.246225)
(1476.6609 -360.18451 -17.147065)
(1511.6048 -360.63148 -13.681077)
(1544.37 -361.87845 -8.8707265)
(1575.2911 -364.07877 -2.8374626)
(1604.8651 -367.34581 4.1791436)
(1633.7261 -371.74032 11.827291)
(1662.628 -377.27446 19.653122)
(1692.3911 -383.89778 27.12797)
(1723.8533 -391.51155 33.690858)
(1757.7956 -399.96225 38.797741)
(1794.8832 -409.05845 41.972851)
(1835.5969 -418.57212 42.864349)
(1880.1924 -428.257 41.278427)
(1928.669 -437.85147 37.209324)
(1980.7742 -447.09399 30.837049)
(2036.0247 -455.72884 22.513706)
(2093.7642 -463.51453 12.714547)
(2153.2292 -470.22741 1.9855234)
(2213.6331 -475.6698 -9.1274049)
(2274.2412 -479.66638 -20.147059)
(2334.4379 -482.06972 -30.71521)
(2393.7587 -482.75676 -40.632692)
(2451.8984 -481.62527 -49.853874)
(2508.6909 -478.59873 -58.488188)
(2564.0232 -473.62539 -66.718065)
(2617.8454 -466.5546 -74.701158)
(2670.3282 -457.94785 -82.618325)
(2719.7632 -446.40829 -90.524258)
(2767.018 -433.3447 -98.303485)
(2811.4537 -418.48711 -105.79528)
(2851.3439 -401.63716 -112.14952)
(2886.2707 -383.11578 -117.28454)
(2915.3419 -363.25636 -120.44672)
(2937.8409 -342.32733 -121.26544)
(2953.3957 -320.76454 -119.45039)
(2962.0053 -299.02268 -114.95142)
(2964.0474 -277.59697 -107.97463)
(2960.3016 -256.97584 -98.960405)
(2951.8559 -237.60429 -88.53977)
(2939.9959 -219.85048 -77.446305)
(2926.0536 -203.96326 -66.413601)
(2911.2742 -190.06526 -56.087694)
(2896.6771 -178.1432 -46.932557)
(2882.9838 -168.06104 -39.20618)
(2870.5752 -159.59749 -32.926147)
(2859.5228 -152.4764 -27.943969)
(2849.6677 -146.42747 -23.963245)
(2840.6987 -141.21035 -20.665024)
(2832.301 -136.66105 -17.755111)
(2824.2271 -132.71473 -15.038276)
(2816.3524 -129.34717 -12.413289)
(2808.6953 -126.6867 -9.9407875)
(2801.5061 -124.66405 -7.5595339)
(2792.0399 -123.38265 -5.2050059)
(2831.8739 -129.70174 -1.5665541)
(2864.8258 -135.26901 -0.70638994)
(2880.0028 -139.25489 -0.5977902)
(2882.3206 -142.24979 -0.56556091)
(2869.9366 -144.10893 -0.12321297)
(2840.0742 -145.69739 0.53608238)
(2805.2393 -146.81239 2.0297255)
(2766.6814 -148.69939 3.294981)
(2720.617 -150.22991 6.2998772)
(2687.0599 -153.10924 8.5698684)
(2672.1532 -157.68531 11.428668)
(2668.6412 -162.32173 14.308975)
(2680.4891 -168.78574 16.839314)
(2708.8722 -176.41772 19.951661)
(2750.1554 -185.23018 22.19552)
(2764.5766 -193.12044 25.419903)
(2776.0505 -193.64903 26.341014)
(2785.051 -193.01206 27.466928)
(2794.0985 -191.84405 27.847542)
(2803.4271 -190.11284 28.792471)
(2812.5811 -187.89165 29.572189)
(2822.1739 -185.36715 30.807454)
(2832.4962 -182.53766 32.814111)
(2843.9676 -179.412 35.842029)
(2856.9165 -175.84563 40.280883)
(2871.5416 -171.57198 46.192761)
(2887.6509 -166.33782 53.621535)
(2905.0077 -159.6224 62.304032)
(2922.7143 -151.1263 71.974283)
(2940.1195 -140.47301 81.957122)
(2955.7915 -127.17031 91.69677)
(2968.5455 -111.14528 100.37666)
(2977.1739 -92.356278 107.46594)
(2980.5794 -70.902426 112.43391)
(2977.9464 -47.160682 114.98086)
(2968.7705 -21.540101 114.98066)
(2952.9054 5.3206714 112.56577)
(2930.515 32.868728 107.97576)
(2902.0684 60.404832 101.67712)
(2868.1761 87.495732 93.953907)
(2829.5853 113.55412 85.531814)
(2787.718 137.92579 76.493768)
(2740.6109 161.87035 66.669155)
(2692.1648 183.05728 57.59026)
(2641.1909 203.07177 48.407884)
(2588.0647 221.24988 39.179249)
(2533.1007 237.73672 29.983449)
(2476.4828 252.53101 20.773291)
(2418.4898 265.54711 11.589896)
(2359.4531 276.72761 2.5341426)
(2299.8268 285.98063 -6.218772)
(2240.1826 293.22463 -14.415887)
(2181.1742 298.42269 -21.759109)
(2123.5029 301.59198 -27.931809)
(2067.847 302.84104 -32.641498)
(2014.8076 302.35768 -35.649696)
(1964.8385 300.42582 -36.809531)
(1918.2109 297.38913 -36.080872)
(1874.9767 293.64772 -33.540423)
(1834.9746 289.60954 -29.378199)
(1797.8332 285.6753 -23.881871)
(1763.0202 282.20036 -17.412774)
(1729.8735 279.47547 -10.38083)
(1697.663 277.71529 -3.2046114)
(1665.6659 277.04601 3.6972923)
(1633.135 277.49187 9.9869366)
(1599.5131 279.06909 15.292295)
(1564.2077 281.56599 19.504338)
(1526.8931 284.96467 22.324828)
(1487.3162 288.93963 23.829643)
(1445.3649 293.38479 23.955907)
(1401.0284 297.96147 22.882608)
(1356.1247 302.87946 20.559477)
(1305.3855 307.00573 17.354552)
(1255.8655 310.82468 13.565131)
(1205.6866 314.36403 9.1029496)
(1151.5422 316.83442 4.1748456)
(1099.1754 318.4926 -0.48633864)
(1046.0545 319.51423 -5.2876164)
(993.86994 319.49654 -9.8778199)
(940.61012 318.3226 -14.394835)
(889.61581 316.49408 -18.244758)
(838.49531 313.53901 -22.011369)
(788.98473 310.07412 -25.321708)
(740.66542 305.7937 -28.350668)
(693.41826 300.85867 -31.208764)
(647.46357 295.24961 -33.921423)
(602.55376 289.27496 -36.693513)
(558.50241 282.79388 -39.561955)
(515.49748 275.66734 -42.600042)
(473.5125 268.54583 -46.010742)
(431.97925 260.41905 -49.653636)
(391.84428 252.44471 -53.668082)
(351.97223 243.27677 -57.836845)
(313.87036 234.03771 -62.27912)
(276.83719 224.13809 -66.587133)
(241.01866 213.39164 -70.665501)
(207.0356 201.75533 -74.327526)
(175.83155 189.91595 -77.535434)
(146.36003 177.09243 -79.64247)
(119.6686 163.51259 -80.757512)
(96.573153 149.1416 -80.74228)
(76.034567 134.86168 -79.459319)
(58.77151 119.47102 -76.768492)
(44.631997 104.04971 -72.7734)
(33.872172 87.639107 -67.012472)
(26.605288 71.760086 -60.10108)
(21.271884 57.209752 -51.942057)
(18.57778 40.125855 -39.011431)
(23.823438 26.299356 -20.962876)
(0 0 0)
(0 0 0)
(0 0 0)
(0 0 0)
(0 0 0)
(0 0 0)
(0 0 0)
(0 0 0)
(0 0 0)
(0 0 0)
(0 0 0)
(0 0 0)
(0 0 0)
(0 0 0)
(0 0 0)
(0 0 0)
(0 0 0)
(0 0 0)
(0 0 0)
(0 0 0)
(0 0 0)
(0 0 0)
(0 0 0)
(0 0 0)
(0 0 0)
(0 0 0)
(0 0 0)
(0 0 0)
(0 0 0)
(0 0 0)
(2805.7285 -120.13624 34.060053)
(2803.1973 -119.72926 33.119986)
(2800.4509 -118.86664 30.978419)
(2798.3062 -118.39158 27.937456)
(2796.5055 -118.04442 24.174193)
(2795.1122 -117.50092 19.946572)
(2794.1983 -116.95151 15.514763)
(2793.6758 -116.33941 11.203049)
(2793.5245 -115.69583 7.1647465)
(2793.6467 -115.09734 3.6566348)
(2794.1262 -114.97 0.73822034)
(2795.035 -115.42948 -1.3143464)
(2795.9655 -116.58753 -2.5924519)
(2796.8989 -118.08623 -2.9814437)
(2797.5449 -120.25834 -3.1034374)
(2762.4996 -196.70623 -17.49971)
(2761.411 -196.17792 -17.008511)
(2760.7566 -195.09946 -15.376999)
(2760.5947 -193.5719 -12.80009)
(2760.7546 -191.94261 -9.4580491)
(2761.0634 -190.4628 -5.4540448)
(2761.5272 -189.33921 -1.095568)
(2761.9702 -188.71556 3.4628986)
(2762.3023 -188.70186 8.0315025)
(2762.5852 -189.26014 12.334265)
(2762.8454 -190.26218 16.301165)
(2763.3778 -191.41184 19.570177)
(2764.2633 -192.55923 22.092239)
(2765.3345 -193.35133 23.794996)
(2767.1592 -193.56345 24.621208)
(7.0141404 22.464289 29.565354)
(10.128041 35.156944 35.707659)
(12.914149 49.619081 45.857921)
(19.126993 62.76237 51.570997)
(26.645967 75.417213 57.674524)
(37.976265 88.056236 61.573176)
(51.804942 100.27029 64.974217)
(69.05691 112.28631 67.026604)
(89.149667 123.98546 68.174213)
(112.35917 135.21835 68.350499)
(138.4527 146.17176 67.503659)
(167.23751 156.68979 65.871415)
(198.41416 166.80522 63.497864)
(231.70804 176.52505 60.594102)
(266.84237 185.86307 57.284407)
(303.48948 194.80793 53.781776)
(341.39859 203.31748 50.217236)
(380.36314 211.45714 46.724496)
(420.23128 219.13954 43.401418)
(461.00855 226.48722 40.23867)
(502.65117 233.34737 37.345492)
(545.2542 239.7979 34.572738)
(588.922 245.83885 31.940323)
(633.77066 251.39137 29.421119)
(679.92743 256.4652 26.864623)
(727.45684 261.04572 24.309093)
(776.39995 264.98052 21.661309)
(826.7345 268.33908 18.932852)
(878.36548 270.99188 16.051421)
(931.16631 272.87312 13.120435)
(984.85166 274.00767 10.018931)
(1039.222 274.35517 6.8823723)
(1093.9254 273.90139 3.7231662)
(1148.638 272.61283 0.56552651)
(1202.8965 270.78964 -2.5449465)
(1256.2155 268.27832 -5.424869)
(1308.4065 265.40076 -8.0028521)
(1358.9111 262.31787 -10.210192)
(1407.384 259.15451 -11.781178)
(1453.6204 256.08906 -12.598807)
(1497.4012 253.37724 -12.580339)
(1538.6715 251.09262 -11.553383)
(1577.4819 249.40485 -9.4640807)
(1614.1219 248.32212 -6.4092449)
(1648.9297 247.93782 -2.4105867)
(1682.5197 248.16846 2.2910157)
(1715.5289 248.95122 7.4215547)
(1748.7364 250.14814 12.638685)
(1782.9275 251.60596 17.553412)
(1818.8675 253.1368 21.784251)
(1857.2096 254.5528 24.982584)
(1898.4591 255.65501 26.881858)
(1942.9014 256.2623 27.312753)
(1990.5943 256.19558 26.237217)
(2041.349 255.3005 23.730293)
(2094.7681 253.42591 19.981861)
(2150.2854 250.44292 15.246456)
(2207.2409 246.22155 9.8141077)
(2264.9516 240.64012 3.9594685)
(2322.7879 233.57766 -2.1079984)
(2380.2302 224.92536 -8.2699505)
(2436.8977 214.57113 -14.511254)
(2492.551 202.43601 -20.905275)
(2547.0597 188.46182 -27.636293)
(2600.3452 172.6507 -34.82494)
(2652.306 155.11529 -42.668621)
(2702.6576 135.95222 -51.321178)
(2751.187 115.42825 -60.292706)
(2797.1478 93.737821 -69.904397)
(2839.701 71.2709 -79.160838)
(2878.0875 48.601931 -87.884806)
(2911.2122 26.075557 -95.288826)
(2938.0948 4.1781051 -100.79449)
(2957.9272 -16.723512 -103.76149)
(2970.2564 -36.308985 -103.87607)
(2974.9354 -54.433953 -100.92755)
(2972.3599 -70.879796 -95.125015)
(2963.2702 -85.848369 -86.808089)
(2948.8695 -99.164954 -76.707726)
(2930.5768 -111.29666 -65.493783)
(2909.9328 -122.06734 -54.211147)
(2888.4017 -131.91372 -43.496178)
(2867.4148 -140.82327 -34.110825)
(2847.9527 -149.04465 -26.519721)
(2830.5262 -156.44997 -20.973895)
(2815.3279 -163.19154 -17.366669)
(2802.3398 -169.11921 -15.433165)
(2790.9374 -174.27176 -14.792659)
(2781.0246 -178.57382 -15.014958)
(2771.3347 -182.06961 -15.561957)
(2762.129 -184.68289 -16.256906)
(2752.9109 -186.59031 -16.719695)
(2742.9485 -187.66145 -16.939887)
(2734.2662 -188.08437 -17.225081)
(2727.3285 -188.21024 -16.73392)
(-0.14475018 19.6928 25.193884)
(2.2641665 26.446032 31.65078)
(7.4219199 41.06601 38.544824)
(12.523423 51.052626 44.259331)
(21.064467 62.382262 48.439986)
(31.693192 72.774236 51.928368)
(45.619095 83.179711 54.526976)
(62.255177 93.048172 56.440882)
(82.036495 102.67869 57.459592)
(104.68118 111.96969 57.751267)
(130.21351 120.94229 57.227616)
(158.3758 129.67191 56.065607)
(188.96343 138.08345 54.276221)
(221.76054 146.29838 52.041599)
(256.42628 154.20998 49.424815)
(292.71467 161.89146 46.63886)
(330.37246 169.28728 43.717136)
(369.20898 176.40889 40.84561)
(409.09347 183.21314 38.029239)
(449.96932 189.66278 35.373126)
(491.79901 195.75368 32.821005)
(534.70432 201.44398 30.416492)
(578.75528 206.72685 28.116935)
(624.06155 211.54576 25.866539)
(670.76125 215.90079 23.620997)
(718.93299 219.76217 21.361372)
(768.62297 223.08678 19.037724)
(819.81274 225.86836 16.628316)
(872.4583 228.03023 14.152856)
(926.35716 229.6073 11.563004)
(981.34605 230.52863 8.9367654)
(1037.0988 230.78983 6.2582456)
(1093.2696 230.44402 3.5547693)
(1149.4898 229.53375 0.85247801)
(1205.3154 228.13364 -1.7294571)
(1260.3651 226.30746 -4.1430386)
(1314.096 224.23913 -6.3039145)
(1366.1437 221.99959 -8.0916217)
(1416.1112 219.8133 -9.3832099)
(1463.6855 217.77948 -10.048311)
(1508.6684 216.03021 -9.9905121)
(1550.9879 214.64808 -9.0919979)
(1590.7586 213.73664 -7.3321464)
(1628.1456 213.23395 -4.7093037)
(1663.6167 213.15394 -1.368507)
(1697.725 213.3822 2.5939954)
(1731.1723 213.81545 6.8776824)
(1764.7554 214.31993 11.216474)
(1799.2884 214.74634 15.258677)
(1835.5538 214.95701 18.693793)
(1874.224 214.82105 21.217313)
(1915.8052 214.22699 22.615347)
(1960.5789 213.08557 22.751122)
(2008.5859 211.31441 21.606062)
(2059.6163 208.84699 19.257511)
(2113.2461 205.60627 15.876818)
(2168.8851 201.51028 11.687581)
(2225.852 196.45035 6.9421442)
(2283.4478 190.30604 1.8635505)
(2341.0391 182.93367 -3.379206)
(2398.0935 174.18892 -8.6908423)
(2454.237 163.93114 -14.076609)
(2509.2092 152.05526 -19.602278)
(2562.8718 138.5344 -25.427464)
(2615.1035 123.35623 -31.632047)
(2665.7918 106.72736 -38.414727)
(2714.9175 88.644567 -45.503314)
(2761.9611 69.436561 -53.283206)
(2806.0366 49.944157 -61.053292)
(2846.5134 30.294014 -68.720019)
(2882.3612 10.973939 -75.624508)
(2912.687 -7.6366885 -81.353211)
(2936.5909 -25.093801 -85.36882)
(2953.3688 -41.291737 -87.192227)
(2962.6889 -55.975586 -86.671228)
(2964.5332 -69.367418 -83.607896)
(2959.3838 -81.309772 -78.367203)
(2948.0856 -92.336834 -71.084198)
(2931.8471 -102.2518 -62.605295)
(2912.0389 -111.76973 -53.257039)
(2890.2619 -120.51173 -44.108508)
(2867.7956 -129.15774 -35.39574)
(2846.0689 -137.1439 -28.043092)
(2822.801 -144.83918 -21.764681)
(2802.7499 -151.9832 -17.395626)
(2786.7392 -158.41484 -14.59427)
(2772.9011 -164.08325 -13.218036)
(2760.6833 -168.79634 -12.823158)
(2750.0017 -172.81618 -13.078574)
(2739.769 -175.61844 -13.710522)
(2730.0565 -177.9002 -14.276015)
(2720.7708 -179.32534 -14.881707)
(2710.7244 -180.01216 -15.114089)
(2702.3144 -180.33631 -15.482766)
(2695.2957 -180.22728 -14.946814)
(-3.9252016 14.971846 21.5977)
(-1.5221163 21.368146 26.034152)
(1.2298842 31.942896 32.596603)
(7.5866124 40.973042 36.396851)
(15.770393 49.807248 39.889329)
(26.918077 58.813903 42.358282)
(40.665875 67.14774 44.651534)
(57.336052 75.252168 46.107488)
(76.884322 83.052805 47.000899)
(99.318783 90.641357 47.328382)
(124.52336 97.941106 47.031907)
(152.34283 105.06235 46.230029)
(182.64727 111.99022 44.915925)
(215.10077 118.75869 43.240827)
(249.51302 125.32229 41.26564)
(285.62088 131.75187 39.088678)
(323.18262 137.94238 36.801337)
(362.01516 143.95342 34.506544)
(401.98041 149.67012 32.230889)
(443.00828 155.13174 30.032213)
(485.10974 160.23381 27.919278)
(528.32569 164.99954 25.892837)
(572.72468 169.34839 23.91339)
(618.44951 173.304 21.974782)
(665.6034 176.81064 20.032876)
(714.26913 179.8732 18.07585)
(764.50683 182.44667 16.067586)
(816.3162 184.54963 14.012015)
(869.59958 186.14509 11.893837)
(924.23897 187.22615 9.7394679)
(979.98446 187.80332 7.5389258)
(1036.5571 187.87691 5.3278295)
(1093.6133 187.49279 3.1266208)
(1150.7435 186.64794 0.99470247)
(1207.5037 185.4681 -1.0489609)
(1263.3961 184.01242 -2.9423306)
(1317.9833 182.37701 -4.5971699)
(1370.8283 180.71331 -5.9627866)
(1421.5176 179.10529 -6.91057)
(1469.7349 177.67488 -7.3745051)
(1515.2799 176.49446 -7.2308471)
(1558.0894 175.64022 -6.472827)
(1598.1881 175.11125 -4.9428236)
(1635.8792 174.84788 -2.7943554)
(1671.5888 174.83022 -0.04610774)
(1705.8732 174.91614 3.1632306)
(1739.4609 174.98858 6.615692)
(1773.1488 174.91341 10.070128)
(1807.7603 174.56026 13.251711)
(1844.0769 173.81902 15.892357)
(1882.773 172.60375 17.753299)
(1924.3409 170.8569 18.66621)
(1969.0592 168.5451 18.528424)
(2016.9543 165.64848 17.343402)
(2067.8124 162.15406 15.185921)
(2121.2037 158.03175 12.211987)
(2176.5402 153.23305 8.6163617)
(2233.1459 147.67382 4.606861)
(2290.3337 141.24637 0.36119345)
(2347.4751 133.80337 -3.9796679)
(2404.0506 125.20636 -8.3640745)
(2459.6773 115.30857 -12.79802)
(2514.0801 104.02967 -17.366064)
(2567.1138 91.326092 -22.164665)
(2618.5777 77.226009 -27.351489)
(2668.3907 61.971025 -32.846517)
(2715.9854 45.576504 -39.102511)
(2763.4923 28.741927 -45.163043)
(2805.4249 11.637302 -51.664026)
(2843.7834 -5.2513634 -57.720969)
(2877.3439 -21.55166 -63.151132)
(2905.1988 -36.912469 -67.484654)
(2926.5559 -51.054113 -70.338691)
(2940.8756 -63.840479 -71.31385)
(2947.9128 -75.311679 -70.365827)
(2947.7453 -85.494294 -67.340754)
(2940.9876 -94.589279 -62.572536)
(2928.4338 -102.87538 -56.283111)
(2911.3839 -110.50029 -49.073042)
(2891.0749 -117.79847 -41.392218)
(2869.0686 -124.76865 -33.909042)
(2846.555 -131.70692 -26.965043)
(2824.7452 -138.26541 -21.243574)
(2804.4515 -144.58401 -16.363688)
(2781.6888 -150.25363 -13.577155)
(2765.6279 -155.77853 -11.461076)
(2751.5994 -160.52357 -10.624455)
(2739.2374 -164.65217 -10.345381)
(2728.4051 -167.78312 -10.797249)
(2718.0879 -170.26928 -11.262636)
(2708.5818 -171.89938 -11.964221)
(2699.5439 -173.04701 -12.51074)
(2689.9117 -173.39629 -12.845429)
(2682.2512 -173.64365 -13.168587)
(2675.1451 -173.2966 -12.780431)
(-6.2050226 12.851881 17.475276)
(-5.7019254 16.641252 21.632491)
(-2.3648716 25.120475 25.855385)
(3.4834202 31.795036 29.114954)
(12.127807 38.928695 31.61556)
(23.23685 46.09121 33.69335)
(37.290921 52.751549 35.38342)
(54.013041 59.163085 36.493668)
(73.739142 65.47489 37.236703)
(96.209665 71.447346 37.515301)
(121.43309 77.258453 37.347186)
(149.3095 82.923948 36.772334)
(179.5592 88.441395 35.832061)
(212.03132 93.815358 34.63342)
(246.45834 99.079122 33.151874)
(282.61148 104.19152 31.552006)
(320.24611 109.15224 29.842338)
(359.21755 113.9352 28.100413)
(399.35233 118.48769 26.353486)
(440.62101 122.79448 24.647827)
(482.97578 126.80216 22.966745)
(526.47746 130.48975 21.328104)
(571.20505 133.82181 19.704624)
(617.26407 136.78532 18.092117)
(664.74702 139.34079 16.461859)
(713.74518 141.50333 14.805277)
(764.30716 143.2527 13.107038)
(816.41191 144.58957 11.373728)
(869.99242 145.50927 9.6087917)
(924.8975 146.0236 7.8254429)
(980.89833 146.13467 6.042607)
(1037.7087 145.85777 4.285991)
(1094.9496 145.22047 2.5761409)
(1152.2218 144.27598 0.93175001)
(1209.0592 143.07407 -0.60528022)
(1264.9952 141.69333 -2.0034874)
(1319.5657 140.19848 -3.2101311)
(1372.2886 138.72758 -4.1719023)
(1422.7774 137.34079 -4.8090621)
(1470.7915 136.09844 -5.0708652)
(1516.0842 135.08603 -4.9123875)
(1558.6186 134.28987 -4.2211701)
(1598.4693 133.74889 -3.0661641)
(1635.9127 133.3688 -1.3858974)
(1671.3845 133.09628 0.72316271)
(1705.4642 132.80614 3.1529386)
(1738.8693 132.38945 5.7363227)
(1772.3839 131.72677 8.2893252)
(1806.8193 130.70664 10.593413)
(1842.9384 129.25369 12.443527)
(1881.3904 127.30951 13.667843)
(1922.653 124.85285 14.136594)
(1966.9892 121.87976 13.791161)
(2014.4217 118.40397 12.643197)
(2064.7418 114.4327 10.766678)
(2117.5349 109.96004 8.295853)
(2172.2368 104.95329 5.3860363)
(2228.2009 99.344039 2.1993376)
(2284.7667 93.032796 -1.1245762)
(2341.3332 85.890121 -4.4937359)
(2397.3892 77.789573 -7.8775697)
(2452.5568 68.611205 -11.296227)
(2506.543 58.272679 -14.824132)
(2559.1857 46.757492 -18.561175)
(2610.2228 34.155467 -22.579374)
(2659.5035 20.596374 -26.968236)
(2706.6562 6.3745113 -31.687238)
(2751.1124 -8.2075679 -36.511681)
(2792.4194 -22.835173 -41.608831)
(2829.553 -37.000835 -46.253758)
(2861.893 -50.42758 -50.379808)
(2888.5284 -62.907315 -53.545745)
(2908.7825 -74.141178 -55.40613)
(2922.1834 -84.153883 -55.94255)
(2928.491 -92.842728 -54.82765)
(2927.9184 -100.50034 -52.212599)
(2921.0444 -107.20765 -48.23722)
(2908.7036 -113.32494 -43.117701)
(2892.1265 -118.95421 -37.403651)
(2872.5059 -124.46663 -31.320558)
(2851.3101 -129.79494 -25.516112)
(2829.6218 -135.18996 -20.179694)
(2808.7086 -140.40336 -15.733727)
(2789.0591 -145.57056 -12.23888)
(2771.5246 -150.41931 -9.8378847)
(2755.9082 -154.87008 -8.3532614)
(2742.4248 -158.71918 -7.8223142)
(2730.3859 -161.82297 -7.8255161)
(2719.9576 -164.38427 -8.2671839)
(2710.1426 -166.10334 -8.8183274)
(2701.1116 -167.30911 -9.4989831)
(2692.7797 -168.08498 -9.9787426)
(2683.8737 -168.10977 -10.332687)
(2677.0457 -168.36323 -10.721604)
(2670.0216 -167.97621 -10.56724)
(-8.2704652 9.0431625 13.608737)
(-8.143379 11.954255 15.776172)
(-5.5795852 18.098309 19.665617)
(0.4051397 23.431841 21.854519)
(9.1940893 28.643667 23.859435)
(20.848358 34.180404 25.124219)
(35.235049 39.088853 26.321926)
(52.493637 44.109857 27.114535)
(72.603157 48.764381 27.589867)
(95.448784 53.33606 27.825242)
(121.10538 57.690254 27.67092)
(149.25799 62.001273 27.313312)
(179.86569 66.114769 26.675964)
(212.61045 70.195504 25.863763)
(247.33616 74.102435 24.854863)
(283.72574 77.948356 23.797321)
(321.64777 81.607351 22.603915)
(360.84993 85.142263 21.422418)
(401.25931 88.447735 20.196775)
(442.7706 91.555779 18.986399)
(485.38802 94.375313 17.761884)
(529.14272 96.929255 16.543512)
(574.10297 99.154694 15.297931)
(620.35775 101.06124 14.038182)
(668.00257 102.62197 12.732916)
(717.11106 103.85942 11.393656)
(767.71356 104.74264 10.016991)
(819.78755 105.30364 8.6197748)
(873.25508 105.53605 7.2090901)
(927.94585 105.45001 5.8153103)
(983.64138 105.05831 4.4499195)
(1040.0236 104.38164 3.1414925)
(1096.7445 103.44231 1.9076434)
(1153.3818 102.27549 0.76271043)
(1209.4879 100.92676 -0.26150192)
(1264.6014 99.465692 -1.1698321)
(1318.2956 97.944854 -1.9207257)
(1370.2129 96.539968 -2.4424033)
(1420.2893 95.164166 -2.801642)
(1467.4599 93.92636 -2.9158254)
(1511.9369 92.807137 -2.7120008)
(1553.6647 91.912619 -2.2071767)
(1592.7755 91.147114 -1.3187986)
(1629.5439 90.488751 -0.10840373)
(1664.3998 89.856737 1.3875351)
(1697.9319 89.144738 3.0904003)
(1730.8353 88.257411 4.8903291)
(1763.8711 87.083728 6.6469004)
(1797.8262 85.543818 8.2083191)
(1833.431 83.577333 9.4314206)
(1871.3117 81.152047 10.193483)
(1911.9283 78.265159 10.407435)
(1955.54 74.932755 10.038731)
(2002.1789 71.182413 9.099181)
(2051.661 67.034145 7.6525198)
(2103.6071 62.496506 5.7954289)
(2157.4994 57.546993 3.6420034)
(2212.7329 52.129566 1.3109529)