/*--------------------------------*- C++ -*----------------------------------*\
  =========                 |
  \\      /  F ield         | OpenFOAM: The Open Source CFD Toolbox
   \\    /   O peration     | Website:  https://openfoam.org
    \\  /    A nd           | Version:  6
     \\/     M anipulation  |
\*---------------------------------------------------------------------------*/
FoamFile
{
    version     2.0;
    format      ascii;
    class       pointScalarField;
    location    "0.21";
    object      p;
}
// * * * * * * * * * * * * * * * * * * * * * * * * * * * * * * * * * * * * * //

dimensions      [1 -1 -2 0 0 0 0];

internalField   nonuniform List<scalar> 
28033
(
84516.766
-133331.02
6013.8806
1957.8681
183975.42
-175344.27
2876.7921
-55.532597
91094.466
83403.522
74010.672
59496.253
43596.343
28647.166
11508.056
-5527.7155
-23333.73
-37809.523
-58280.018
-65109.487
-85184.413
-95026.598
-101550.06
-15438.714
-9908.8479
-10798.538
-7233.0359
-6568.2399
-4004.1788
-1672.6006
1031.7195
3511.7587
6121.3321
9002.6095
10510.859
12393.451
13241.102
11400.553
24856.215
28975.402
28718.588
32848.972
34770.034
37198.623
39069.672
40867.512
42890.429
44405.025
45948.953
47750.355
49246.725
50916.836
52405.422
53969.222
55529.391
57227.943
58468.189
60224.106
61672.642
63052.075
64626.411
66016.847
67217.364
68657.711
70032.159
71139.693
72387.712
73525.208
74692.503
75798.645
77090.531
78179.906
79286.563
80329.313
81624.055
82903.953
83792.268
85234.584
86240.568
87304.386
88505.411
89928.304
91174.09
92692.862
94129.015
95757.231
97304.693
99004.736
100595.44
102235.06
103747.7
105186.16
106455.69
107552.78
108453.14
109107.95
109512.52
109713.9
109635.21
109298.04
108683.47
108032.45
106986.82
105771.46
104556.1
102675.78
100266.03
97796.885
95103.748
92260.529
88885.398
85479.863
81501.89
77860.739
73322.034
69609.925
64794.215
61053.33
56373.699
52593.433
48055.29
43876.042
39828.633
35770.661
32310.638
28825.603
24566.466
21813.432
19371.181
14350.601
15510.292
13713.183
11527.655
-23680.431
-24461.232
-30278.423
-30498.71
-35449.493
-37725.644
-39034.049
-41590.353
-43120.69
-44840.208
-46459.068
-48113.179
-49595.384
-51310.6
-52658.07
-54315.12
-55621.516
-57236.985
-58570.6
-60065.263
-61386.904
-62864.804
-64061.615
-65558.634
-66860.291
-67920.923
-69444.248
-70293.045
-71783.161
-72556.898
-73891.339
-74787.523
-75925.397
-76971.459
-78074.947
-79276.725
-80003.862
-81250.179
-82087.246
-83269.239
-84233.439
-85390.008
-86475.143
-87700.152
-88921.937
-90268.247
-91642.32
-93108.197
-94613.926
-96155.391
-97705.359
-99224.902
-100689.78
-102049.44
-103273.55
-104330.06
-105179.76
-105806.52
-106196.98
-106336.05
-106225.22
-105865.55
-105271.16
-104414.14
-103337.48
-101968.24
-100533.47
-98738.687
-97016.346
-94061.639
-91879.506
-88694.618
-85752.734
-82232.013
-78705.433
-74836.098
-70875.058
-66821.498
-62656.82
-58494.052
-54376.67
-50244.851
-46127.484
-42229.333
-38220.772
-34394.91
-30641.995
-27058.282
-23309.189
-20137.942
-17020.463
-13748.133
-11313.628
-10195.126
-7196.4903
167806.08
162533.25
127680.83
121793.99
88314.097
49881.147
27523.51
-6926.6921
-38508.853
-68930.706
-96337.446
-124222.56
-153466.08
-163086.82
-172529.34
-39041.151
-34825.173
-19333.795
-40385.887
-33030.286
-40243.892
-39945.105
-43799.676
-43427.772
-46835.264
-48310.985
-48899.557
-51864.628
-51920.541
-55058.501
-55917.653
-56592.063
-59664.984
-59768.808
-62820.508
-63591.519
-64164.577
-66608.863
-67895.786
-69431.858
-71042.246
-70774.066
-73691.604
-73155.827
-75578.4
-76664.281
-77747.719
-78949.384
-80060.984
-81608.056
-81001.365
-83419.594
-84446.533
-85487.142
-86607.071
-87738.633
-88905.471
-90107.695
-91369.018
-92710.337
-94110.886
-95581.713
-97114.032
-98699.196
-100322.52
-101955.76
-103560.52
-105100.92
-106539.13
-107826.9
-108940.64
-109843.18
-110516.16
-110944.13
-111128.17
-111051.08
-110747.91
-110177.11
-109391.96
-108339.82
-107080.09
-105816.55
-104300.47
-99523.229
-99499.705
-96664.916
-93440.835
-90202.581
-86579.909
-82699.598
-78619.47
-74387.538
-70086.03
-65687.239
-61282.439
-56874.455
-52544.644
-48210.359
-44028.027
-39852.946
-35797.982
-31788.768
-27971.873
-24186.97
-20659.006
-17424.694
-14264.642
-12503.402
-10143.925
-9399.8083
14067.315
15244.444
11987.658
12611.641
8029.2257
7693.7453
3356.5708
1133.3282
-2082.2166
-4983.9734
-5332.6268
-9507.5149
-8727.5933
-13914.106
-10969.581
20608.567
15718.548
15453.595
18003.388
19899.967
23190.054
26392.162
29993.083
33442.902
37449.491
41209.981
44995.632
49185.674
53354.243
57678.326
61873.029
66299.362
70538.54
74823.325
79037.098
83063.114
86975.504
90628.645
93932.691
96973.177
99375.711
100320.35
106485.99
105699.29
108008.19
109241.58
110347.28
111104.2
111730.75
112061.74
112175.73
112069.72
111698.3
111107.08
110281.57
109238.03
107994.45
106599.62
105052.63
103428.41
101734.89
100030.12
98327.568
96677.39
95074.308
93509.956
92121.688
90599.169
89496.743
88109.466
86859.577
85521.068
83877.779
83957.323
82114.846
80385.72
80847.785
78642.468
77702.406
75661.935
76022.664
73032.861
73444.916
71454.793
70347.847
68819.714
66913.326
66690.869
64511.988
62627.704
62184.464
59403.241
59172.755
56280.871
55480.695
54237.508
52356.674
50110.628
49681.075
46962.904
45193.159
44663.749
42096.04
40274.422
37807.586
35927.343
34200.566
33063.843
27697.649
30627.44
48402.397
55506.97
58213.519
60974.807
64404.062
65425.638
67504.316
67065.521
67250.192
65192.27
65797.723
61427.392
56526.354
64084.182
48815.828
-103742.87
-119288.61
-116651.13
-128062.93
-121987.49
-120073.78
-139207.92
-145004.49
-136621.24
-135478.51
-128294.89
-123609.14
-114735.72
-115011.75
-116563.84
1021.6703
623.56856
732.84724
609.65556
1225.8713
1482.9823
1410.6427
1399.4767
1483.4325
1360.512
1378.0204
1045.4149
1125.5105
1162.4677
1761.4856
-1061.9594
2347.8836
2185.4631
2175.3772
1760.5009
1999.5635
1694.9226
1878.2303
1970.798
1938.2029
2517.8421
2605.8093
2363.7247
5296.3875
-623.49669
29219.6
26960.28
26248.247
28770.729
30623.881
32325.791
34260.231
36176.521
37648.043
39319.344
40969.018
42448.2
43953.307
45397.301
46904.399
48343.787
49796.38
51181.934
52713.744
53949.573
55457.027
56787.891
58096.463
59384.856
60567.121
61970.563
62999.323
64256.043
65349.13
66620.158
67581.926
68569.671
69816.578
70651.131
71854.443
72871.706
73866.04
74737.801
75948.051
77022.01
78333.158
79394.595
80556.045
81752.813
82948.826
84312.334
85585.844
87007.296
88358.903
89776.972
91131.409
92471.557
93723.583
94890.082
95923.903
96819.658
97540.057
98057.171
98396.83
98511.151
98388.761
97995.691
97479.865
96706.881
95382.039
94098.735
92186.625
90445.685
88447.102
86111.531
83675.182
80965.433
77960.898
75086.802
71653.433
68416.98
64724.786
61337.685
57309.615
53979.122
49937.787
46345.877
42725.472
39399.065
35683.822
32308.548
29112.167
25582.904
22757.574
20423.657
16626.091
14694.012
12759.015
6662.2172
1629.7398
27282.299
22497.905
21515.972
24089.358
24625.54
26584.327
28458.831
29777.096
31300.434
32811.704
34095.356
35415.389
36743.501
38046.803
39278.524
40521.956
41692.375
43019.714
44076.455
45326.441
46437.952
47471.317
48612.541
49699.658
50802.715
51742.673
52814.349
53863.551
54779.848
55735.893
56672.107
57647.18
58496.892
59395.963
60413.213
61153.172
62048.088
63004.483
63893.998
64808.406
65729.302
66837.821
67582.72
68737.934
69742.448
70906.816
71976.556
73177.751
74276.827
75462.02
76545.269
77643.11
78645.366
79586.592
80424.852
81145.75
81728.688
82170.285
82438.674
82537.906
82419.897
82132.808
81716.122
81003.857
80078.292
79848.249
79225.198
77924.189
76561.054
74688.295
72693.394
70599.497
68050.617
65646.877
62467.378
60102.515
56486.671
54048.539
50142.228
47700.149
43780.17
40862.624
37509.368
33279.672
29947.495
27025.531
23646.506
21284.578
18672.642
15578.757
13199.06
10815.815
6937.0609
2990.7119
-3855.5993
22437.598
19929.847
18668.797
19843.827
20074.53
22085.558
23227.828
24471.165
25777.888
27050.942
28144.208
29358.348
30447.111
31519.434
32605.363
33628.772
34676.13
35650.831
36682.301
37666.358
38653.642
39655.902
40584.534
41563.966
42367.984
43330.625
44153.711
44978.464
45800.885
46608.215
47413.984
48129.109
48955.898
49706.867
50491.842
51268.826
52167.376
52940.975
53777.195
54517.963
55312.259
56075.02
57164.35
57996.002
58984.43
59895.616
60871.13
61825.586
62794.89
63747.545
64668.084
65570.882
66400.833
67184.963
67876.082
68468.639
68959.023
69311.795
69516.874
69571.823
69448.451
69149.177
68694.352
67873.599
67203.296
66481.98
65844.037
64278.217
63271.84
61917.406
60299.931
58277.395
55993.289
53867.614
51601.294
49134.863
46769.235
44071.045
41631.853
38847.904
36160.288
33743.195
30549.121
28213.418
25595.751
22947.289
20117.769
18225.155
15604.311
13424.387
11396.291
7853.3414
5746.0887
65.755141
-2683.61
18232.964
15867.136
14374.702
15291.137
15477.08
16886.839
17931.122
18797.283
19939.989
20869.61
21804.585
22709.679
23632.529
24484.538
25349.59
26207.962
27020.313
27902.322
28667.497
29471.041
30223.855
30955.517
31712.198
32403.613
33156.208
33844.776
34525.449
35243.527
35871.269
36526.822
37152.898
37775.667
38396.547
38929.748
39668.646
40091.416
40696.397
41107.485
41633.147
42240.424
43048.973
43767.039
44333.225
44977.89
45702.503
46399.317
47126.205
47849.465
48560.506
49257.861
49934.313
50581.529
51190.824
51758.274
52263.069
52711.257
53078.328
53350.247
53520.863
53582.636
53518.639
53312.108
52955.51
52518.705
51939.845
51182.568
50564.975
49302.137
47977.644
46879.544
45699.128
44191.346
43026.217
41395.144
39578.991
37746.581
35765.599
33901.857
31729.747
29770.01
27642.565
25674.005
23408.249
21266.877
19226.16
17951.001
15969.164
14156.688
12290.122
10545.297
8168.4053
6184.8579
3311.8862
156.16809
-4170.8592
14758.138
11640.901
9925.9683
11440.239
11096.563
12407.441
13103.061
13714.148
14573.072
15346.475
15936.333
16764.779
17382.766
18055.496
18721.262
19366.02
19980.671
20607.411
21206.407
21847.968
22447.201
23077.281
23624.453
24241.773
24764.836
25315.526
25831.291
26330.03
26826.417
27316.148
27800.949
28259.696
28702.271
29218.144
29680.295
30105.026
31087.443
32003.512
32526.16
33720.671
34067.535
34587.99
35292.45
35890.302
36519.909
37069.144
37670.701
38218.125
38790.086
39330.756
39864.697
40377.941
40867.848
41322.181
41746.7
42118.869
42433.139
42674.451
42840.901
42900.188
42893.459
42648.56
42512.854
42028.098
41473.026
40983.756
40255.093
39328.737
38349.458
37386.011
36300.979
34881.267
32874.695
31286.696
29624.113
28128.818
26803.622
25240.895
23770.486
22322.007
20606.128
19352.263
17539.769
16496.303
14649.695
13750.449
11821.49
10896.161
9136.3794
7700.0763
6157.7501
4473.3228
2756.1164
-326.85506
-3210.8531
9030.2182
7556.744
6524.2713
7297.7559
6722.9333
7591.9367
8150.2281
8339.3883
9149.935
9435.7777
9989.6044
10409.694
10891.247
11279.871
11767.273
12174.54
12589.676
13043.73
13429.068
13830.624
14204.226
14574.839
14956.644
15332.766
15692.947
16058.706
16406.192
16763.157
17073.956
17389.834
17697.976
17975.608
18301.867
18574.711
18837.111
19209.659
19741.45
20123.636
21469.388
22020.369
22824.931
23140.398
23508.061
23900.894
24290.825
24646.423
25016.105
25368.228
25717.012
26049.982
26376.246
26687.959
26984.849
27268.23
27532.214
27767.737
27977.338
28147.185
28266.299
28333.964
28324.058
28292.901
28108.905
27896.998
27690.97
27184.567
26919.779
26361.466
25820.704
25259.007
24493.72
23533.854
22661.076
20882.215
19525.066
18706.493
17765.02
16839.17
15871.568
15054.932
13756.259
13268.275
11711.219
11377.944
9769.0031
9663.1247
7951.4761
7888.2386
6261.1555
6100.6058
4813.4204
3733.3739
2227.124
98.345776
-1231.7532
3519.1618
2870.0865
2364.8973
2938.5233
2434.164
3097.3278
3254.6588
3372.366
3666.1997
3948.3823
4010.4768
4384.5965
4507.1377
4754.7542
4974.041
5189.0626
5385.4088
5642.8817
5836.2485
6095.2772
6318.6541
6564.8401
6790.8806
7013.9796
7211.5532
7423.0312
7604.8496
7786.5852
7955.9568
8140.4928
8300.537
8470.2303
8614.1705
8757.1418
8942.1463
9098.2866
9258.5149
9532.6703
9487.1574
9632.3614
9843.3999
10047.163
10201.527
10454.748
10659.271
10854.726
11049.358
11237.602
11416.579
11596.049
11774.763
11946.522
12122.998
12290.353
12456.63
12607.043
12750.736
12867.167
12958.442
13014.51
13051.211
13011.647
12971.147
12869.677
12693.13
12569.33
12279.627
12048.956
11779.047
11451.991
11128.955
10780.297
10106.429
10197.792
9990.7761
9591.7696
9070.8733
8587.3966
8160.2134
7583.2977
7098.6222
6732.2257
5939.7084
5984.8358
4949.3646
5224.5362
4150.795
4570.2569
3487.2701
3666.5081
2401.6329
2132.2641
1590.4833
891.24282
296.59095
-1413.9924
-1960.8385
-1746.2761
-1792.8813
-1852.3271
-1856.7908
-1700.7068
-2087.6325
-1768.8525
-2048.9607
-1984.2246
-2041.1502
-2045.1007
-2109.428
-2066.935
-2088.9926
-2094.1381
-2047.4274
-2070.6825
-2044.3874
-2007.947
-1949.7226
-1976.0155
-1948.69
-1906.5398
-1894.5651
-1865.6469
-1854.4188
-1846.1775
-1862.6489
-1866.1871
-1890.4825
-1905.5116
-1890.7274
-1914.4993
-1943.2952
-1862.1859
-1917.3902
-1854.951
-1942.208
-1877.0795
-1840.0505
-1892.9908
-1911.8521
-1942.277
-1993.7648
-2024.4678
-2073.5118
-2116.9231
-2163.1839
-2202.4683
-2234.092
-2251.9375
-2261.0643
-2243.8639
-2222.5254
-2178.3354
-2122.0973
-2070.5914
-1987.9989
-1934.0752
-1854.9741
-1786.4289
-1717.6548
-1618.1658
-1578.4285
-1444.9127
-1359.7624
-1271.8446
-1111.1011
-1049.2812
-953.89345
-904.90143
-747.9967
-628.70963
-440.60049
-362.41998
-206.68355
-121.01129
-19.500689
142.56371
111.57917
367.34165
376.69922
425.90833
817.37934
420.2316
1295.3626
448.62548
1662.6415
1136.2636
2270.5311
2059.7993
1775.9976
2252.6065
-6995.2976
-6248.159
-5648.3954
-5600.0983
-6061.2861
-6242.9434
-6541.539
-6903.9012
-7230.4575
-7448.9442
-7884.9013
-8017.5553
-8372.645
-8603.8853
-8821.2523
-9052.4095
-9291.1444
-9450.9188
-9683.8867
-9849.6617
-9989.5075
-10248.616
-10368.595
-10487.972
-10645.565
-10792.98
-10941.68
-11079.679
-11231.749
-11370.951
-11509.65
-11656.381
-11792.525
-11944.947
-12105.996
-12201.899
-12395.729
-12482.572
-12631.47
-12720.533
-12851.578
-12981.787
-13140.277
-13255.239
-13401.114
-13567.748
-13734.999
-13909.968
-14085.453
-14258.966
-14413.875
-14558.564
-14680.751
-14778.255
-14844.23
-14892.101
-14898.157
-14883.073
-14840.964
-14766.107
-14668.262
-14554.414
-14397.364
-14219.775
-14058.235
-13791.04
-13553.293
-13263.71
-12915.374
-12539.377
-12180.131
-11629.202
-11216.79
-10713.292
-10344.848
-9965.64
-9369.773
-8904.0217
-8324.1852
-7861.4464
-7209.9147
-6785.0168
-6057.5939
-5540.302
-4975.2653
-3991.0846
-3901.4719
-2209.7637
-2628.4078
-609.06833
-1153.9759
114.72205
49.647059
1842.0332
3677.8578
-12248.843
-11405.057
-9697.9515
-10661.188
-10901.543
-11458.66
-11984.88
-12796.92
-13191.792
-13865.757
-14420.172
-14899.356
-15450.545
-15929.447
-16364.625
-16811.678
-17247.042
-17625.55
-18005.755
-18405.386
-18694.392
-18745.226
-18971.589
-19366.813
-19655.855
-20002.199
-20259.691
-20583.12
-20860.859
-21174.753
-21474.622
-21775.264
-22100.513
-22384.752
-22655.363
-22974.137
-23225.644
-23542.856
-23798.66
-24129.309
-24434.821
-24754.071
-25086.1
-25455.012
-25818.419
-26217.766
-26605.015
-27008.157
-27413.116
-27810.014
-28188.591
-28552.373
-28878.187
-29168.672
-29412.477
-29609.528
-29747.825
-29827.868
-29861.994
-29809.664
-29723.473
-29558.277
-29321.244
-29046.015
-28672.954
-28245.386
-27746.027
-27177.311
-26516.555
-25843.117
-24996.532
-24153.136
-23222.497
-21751.541
-19682.725
-18424.548
-17340.443
-16376.706
-15238.564
-14465.837
-13019.552
-12516.759
-10844.506
-10306.601
-8842.2173
-7794.6805
-6963.8525
-5001.0364
-5026.5586
-2310.6309
-2457.0222
-504.78979
824.92662
2760.067
5003.4037
-17104.31
-13134.027
-12779.881
-13820.891
-14053.584
-15301.38
-15921.298
-16971.408
-17633.459
-18501.851
-19290.003
-19992.956
-20695.578
-21414.226
-22014.067
-22663.817
-23288.732
-23836.099
-24401.625
-25084.77
-25872.798
-26756.536
-27305.037
-28070.582
-28617.727
-29123.218
-29599.054
-30075.54
-30508.002
-30973.196
-31399.39
-31860.274
-32305.243
-32726.479
-33179.799
-33597.054
-34052.379
-34458.973
-34909.735
-35343.925
-35799.411
-36246.742
-36736.069
-37214.995
-37719.286
-38236.732
-38761.793
-39292.138
-39816.913
-40327.267
-40814.319
-41273.31
-41686.833
-42057.831
-42367.996
-42623.735
-42805.011
-42923.542
-42961.937
-42921.305
-42798.797
-42589.253
-42291.881
-41894.238
-41445.098
-40857.54
-40175.539
-39379.444
-38529.176
-37505.886
-36430.279
-35359.449
-34015.853
-32469.886
-30874.888
-29410.16
-27256.13
-25602.903
-23983.045
-22396.799
-20888.804
-19137.734
-17641.639
-15915.339
-14257.584
-12744.885
-10881.632
-9505.2427
-7671.7129
-5876.1923
-4517.6257
-1944.6151
-284.39604
2602.0756
7177.9102
-19029.188
-18235.89
-16949.241
-17996.634
-18610.485
-20169.335
-21008.817
-22322.838
-23301.983
-24415.568
-25353.956
-26307.164
-27209.967
-28108.192
-28930.53
-29781.64
-30567.895
-31291.313
-32102.678
-32792.882
-33692.435
-34487.358
-35714.206
-36711.931
-37350.291
-38128.224
-38735.754
-39379.301
-39965.75
-40563.785
-41186.062
-41729.104
-42372.153
-42943.104
-43520.24
-44112.67
-44654.931
-45243.07
-45803.091
-46407.272
-46986.103
-47631.958
-48269.789
-48960.118
-49660.736
-50396.88
-51152.038
-51920.705
-52696.917
-53470.625
-54222.386
-54946.594
-55621.493
-56238.038
-56777.959
-57234.928
-57594.259
-57845.923
-57993.093
-58013.81
-57914.511
-57702.97
-57320.034
-56853.657
-56228.108
-55474.904
-54584.606
-53601.321
-52411.354
-51080.437
-49697.125
-48026.28
-46289.48
-44554.404
-42377.505
-41009.856
-38845.2
-36536.061
-34261.365
-32052.852
-29654.322
-27410.428
-25024.754
-22752.526
-20333.22
-18288.83
-15638.723
-13898.123
-11390.691
-9161.3747
-7558.5113
-3755.2897
-1505.6824
3851.6999
8831.08
-26734.755
-24210.768
-21046.657
-23100.512
-23693.302
-25630.171
-26912.127
-28333.852
-29773.544
-31012.838
-32331.941
-33490.624
-34742.603
-35838.04
-36932.292
-38068.512
-39122.276
-40096.582
-41149.281
-42093.362
-43046.549
-44112.416
-44665.225
-45591.796
-46297.267
-47250.58
-48011.86
-48819.426
-49559.175
-50353.943
-51061.023
-51765.544
-52564.996
-53278.209
-54036.315
-54760.762
-55467.823
-56191.529
-56935.601
-57660.433
-58438.168
-59206.567
-60013.74
-60837.734
-61688.927
-62567.652
-63459.665
-64359.7
-65259.933
-66144.909
-66997.361
-67812.767
-68564.845
-69250.585
-69845.982
-70353.768
-70744.359
-71026.728
-71180.842
-71196.98
-71084.167
-70805.863
-70376.445
-69805.034
-69026.444
-68139.666
-67059.542
-65778.332
-64380.031
-62752.597
-60951.722
-59048.775
-57001.171
-54721.933
-52361.316
-50000.127
-47474.318
-44860.548
-42149.174
-39387.601
-36616.788
-33791.885
-30974
-28132.887
-25392.901
-22554.685
-19859.074
-17312.282
-14303.248
-12198.035
-8950.8402
-6092.2303
-3254.8635
1496.3926
7080.8683
-27287.38
-27039.148
-23957.047
-27430.685
-28584.586
-30628.429
-32263.775
-33991.292
-35598.364
-36969.017
-38552.546
-39811.621
-41186.708
-42562.12
-43749.329
-45147.864
-46317.194
-47470.35
-48708.186
-49782.667
-50866.903
-51995.151
-52921.449
-54147.959
-54980.691
-56075.265
-56996.871
-57887.948
-58950.98
-59775.759
-60740.037
-61527.087
-62431.412
-63233.791
-64177.109
-65101.072
-65891.128
-66820.512
-67622.03
-68542.396
-69422.182
-70356.691
-71322.496
-72324.732
-73380.636
-74472.514
-75608.899
-76779.681
-77972.848
-79172.172
-80356.74
-81506.942
-82592.991
-83593.254
-84482.585
-85238.174
-85840.052
-86275.997
-86530.772
-86602.902
-86478.827
-86168.41
-85659.957
-84951.469
-83990.399
-82891.18
-81504.915
-80077.361
-78456.904
-76421.392
-74404.313
-71988.919
-69358.321
-66682.41
-63613.015
-60527.029
-57257.34
-53918.061
-50511.741
-47136.381
-43697.748
-40295.088
-36913.432
-33622.775
-30249.242
-27136.382
-23896.647
-20833.307
-17704.163
-15125.977
-11304.811
-9368.472
-5313.2206
-615.53688
6588.0163
-34853.671
-26687.496
-27535.502
-31518.524
-32236.77
-34954.281
-36822.282
-38812.137
-40369.088
-42254.134
-43801.379
-45297.918
-46861.105
-48303.235
-49824.177
-51346.881
-52703.573
-54100.268
-55475.024
-56770.752
-57975.552
-59326.179
-60427.376
-61793.093
-62907.682
-64079.277
-65139.786
-66217.316
-67423.393
-68487.391
-69570.605
-70561.174
-71561.413
-72438.409
-73439.615
-74586.633
-75572.622
-76555.572
-77516.12
-78555.263
-79556.147
-80625.152
-81712.794
-82862.156
-84060.233
-85313.725
-86622.051
-87973.986
-89349.707
-90739.814
-92108.123
-93440.44
-94693.126
-95851.369
-96875.641
-97746.694
-98438.911
-98940.427
-99231.604
-99305.965
-99164.474
-98804.452
-98211.823
-97389.477
-96317.901
-94933.123
-93250.294
-91429.451
-89728.743
-87490.198
-85028.038
-82108.326
-79258.468
-75979.07
-72555.368
-68983.495
-65379.953
-61529.709
-57748.369
-53844.541
-49948.884
-46073.553
-42308.466
-38440.354
-34805.069
-31202.766
-27550.263
-24243.336
-20924.612
-17834.53
-14601.774
-12834.476
-9017.5794
-5756.5776
1298.9913
56915.579
55800.308
50690.849
53156.349
52891.739
53337.173
55677.153
53901.555
54730.42
53497.537
53781.391
52440.702
51395.304
56609.171
48909.65
54898.889
54645.633
50171.149
51129.11
51727.966
52752.463
51129.365
53048.424
52603.241
53121.297
52163.301
52281.741
52498.058
53644.421
48770.654
40883.039
49307.574
42183.095
44685.189
43139.683
43355.458
43934.338
43274.126
43600.412
43428.283
43188.58
44611.009
41627.63
47961.176
46639.199
39297.122
37974.76
37337.734
36632.612
37696.282
37187.145
37317.898
37950.969
37635.214
37812.261
38073.656
37714.2
37232.498
42010.591
32789.595
27116.039
30932.504
26022.933
28560.563
27830.919
28101.661
28324.704
27816.378
28623.14
28610.042
28536.148
28778.073
28807.073
30154.406
28546.539
18403.796
19464.279
18025.781
18464.579
18148.733
18441.067
18398.905
18667.492
18448.069
18872.846
18641.243
19126.891
19017.836
19904.136
20184.18
8231.9019
8359.7005
8002.4944
7697.1708
8771.7579
8114.7958
8735.6989
8628.6833
8595.0399
8867.7206
9114.0841
8296.2371
9884.4248
9351.1247
10849.738
-1587.2639
-2292.6986
-2520.2773
-1902.0858
-1938.3756
-2004.9367
-1500.7626
-1790.849
-1383.7547
-1518.8183
-1385.9405
-1343.3553
-130.51777
-1967.8447
2632.2877
-13663.716
-13654.774
-12920.976
-12873.884
-12817.069
-12637.412
-12556.5
-12067.735
-12758.016
-10791.23
-11937.675
-11703.151
-10044.603
-12367.18
-4899.1601
-20964.564
-24341.624
-21572.226
-22007.248
-21532.485
-21791.008
-21272.485
-21719.199
-21217.317
-21244.736
-21891.669
-21135.423
-19788.389
-23654.268
-17149.419
-32713.951
-36266.227
-31266.952
-33410.408
-31844.986
-31567.562
-31813.946
-31104.864
-31993.619
-29922.889
-30545.205
-32088.043
-28001.516
-32130.222
-23954.981
-44490.852
-42207.898
-39979.823
-40285.385
-40205.68
-40948.095
-40258.451
-40963.959
-40433.366
-40468.824
-40835.854
-37199.676
-38713.76
-41135.476
-35707.417
-50947.141
-51557.816
-48397.848
-47166.608
-46512.987
-46284.223
-46338.452
-46222.329
-45968.114
-44134.532
-45690.648
-47697.149
-42396.384
-51874.566
-30841.897
-51706.772
-61442
-48450.182
-54632.049
-53722.236
-53218.471
-53780.64
-55146.722
-53576.45
-57701.367
-53447.169
-52237.979
-54633.971
-52473.732
-56786.387
-65224.094
-54321.588
-52697.357
-52002.313
-53304.872
-57301.577
-53469.59
-50350.954
-51060.495
-49544.877
-52205.409
-52430.863
-51479.216
-57817.518
-52856.104
-34449.944
-31573.375
-35487.901
-35926.903
-38800.311
-40240.04
-40317.134
-38703.67
-42859.611
-42223.325
-40881.631
-37255.309
-35837.826
-35476.92
-28057.41
-35534.794
-33449.54
-36606.02
-37623.992
-39164.55
-40834.846
-41911.796
-41498.197
-42678.524
-41413.86
-40861.327
-38665.029
-38977.838
-40003.372
-40138.14
-28868.031
-30378.686
-28862.826
-30752.63
-31597.096
-30427.109
-31683.313
-31188.533
-30739.666
-31910.332
-31053.418
-32041.876
-32069.619
-29221.803
-31953.989
-35550.406
-39390.607
-38965.78
-39874.044
-39854.361
-40936.012
-41099.912
-41446.509
-41680.376
-40876.017
-40872.053
-39689.178
-39567.917
-39020.951
-37679.15
-37745.171
-38862.669
-37026.035
-39287.583
-39011.623
-39296.574
-40415.393
-39922.992
-40510.37
-40818.839
-40058.438
-39700.788
-38852.274
-37709.804
-37941.807
-38957.285
-40415.253
-41037.372
-42065.912
-41870.222
-42848
-42689.118
-42791.205
-42751.972
-42289.531
-42300.014
-41826.556
-41720.58
-40898.018
-39563.546
-40906.784
-42236.012
-42152.205
-43294.231
-43011.314
-43489.43
-43869.97
-43916.8
-44021.269
-43872.137
-43319.001
-43089.269
-42416.882
-41396.11
-41624.192
-42865.345
-43416.425
-43995.475
-44690.026
-45158.627
-45447.36
-45753.778
-45810.368
-45877.336
-45699.638
-45550.842
-44951.264
-44766.058
-43567.129
-43237.37
-44085.611
-44887.566
-45170.176
-45727.613
-45511.979
-46021.614
-46114.243
-46313.025
-46228.199
-46096.582
-45760.308
-45451.134
-45307.092
-44503.515
-44911.881
-45952.535
-46247.495
-46891.262
-47251.679
-47673.852
-47910.463
-48218.7
-48231.519
-48393.49
-48175.879
-48064.938
-47671.454
-47376.59
-46709.728
-46796.207
-47383.853
-47896.673
-48188.592
-48470.82
-48440.498
-48783.864
-48896.605
-48981.336
-48902.254
-48990.616
-48620.649
-48432.543
-48050.356
-47913.701
-47531.764
-48918.914
-49151.282
-49718.98
-49812.799
-50107.873
-50289.802
-50413.833
-50432.478
-50474.829
-50292.327
-50076.439
-49796.673
-49668.759
-49069.826
-49431.414
-50676.398
-50783.576
-50958.337
-51487.44
-51493.738
-51778.955
-51763.057
-51928.476
-51919.803
-51760.574
-51566.012
-51472.071
-50994.554
-51040.584
-50615.954
-51859.171
-52341.299
-52807.669
-52658.359
-52954.682
-53055.641
-53087.802
-53326.606
-53123.887
-53028.047
-52808.409
-52563.136
-52356.488
-51986.982
-52218.035
-53719.53
-53727.034
-54083.437
-54440.055
-54513.441
-54691.518
-54736.72
-54588.937
-54837.283
-54650.382
-54371.982
-54248.936
-53950.35
-53793.181
-53583.443
-55020.697
-55413.364
-55794.02
-55954.714
-56000.294
-56205.662
-56344.911
-56300.11
-56185.328
-56156.605
-55952.921
-55800.092
-55413.059
-55424.7
-55257.644
-56746.431
-56716.535
-57235.315
-57340.043
-57615.803
-57806.879
-57878.015
-57782.207
-57869.28
-57662.984
-57460.891
-57285.844
-57172.08
-56484.453
-57031.301
-58359.26
-58419.234
-58846.926
-58819.947
-59077.701
-59275.442
-59465.744
-59261.482
-59342.39
-59235.839
-58973.147
-58888.489
-58440.739
-58463.917
-58218.994
-59670.765
-59866.49
-60379.064
-60647.848
-60707.418
-60861.494
-60834.69
-61098.612
-61032.665
-60901.344
-60686.926
-60425.084
-60162.26
-59960.712
-59986.858
-61244.468
-61295.411
-61796.99
-61896.841
-62219.726
-62449.631
-62525.346
-62276.691
-62476.494
-62271.183
-61900.314
-61995.521
-61664.832
-61502.262
-61281.961
-62801.762
-62832.199
-63369.838
-63487.041
-63713.072
-63808.641
-64094.563
-64087.953
-64120.692
-63848.344
-63769.636
-63504.207
-63122.697
-63093.429
-62793.426
-63919.325
-64337.012
-64722.699
-64983.828
-65202.226
-65335.208
-65533.925
-65461.989
-65631.805
-65198.381
-65159.387
-65113.969
-64787.778
-64271.663
-64638.252
-65632.649
-65513.402
-66162.533
-66340.723
-66683.416
-66672.55
-67021.732
-66987.012
-66855.635
-66998.916
-66614.475
-66370.753
-66064.059
-65902.944
-65788.15
-66820.317
-66983.187
-67515.312
-67849.334
-67956.253
-68324.497
-68260.109
-68270.204
-68386.686
-68110.23
-67934.786
-67830.773
-67556.748
-67166.961
-67198.638
-68012.676
-68417.865
-68631.888
-69149.438
-69300.914
-69378.264
-69823.834
-69683.23
-69750.09
-69629.991
-69204.635
-69201.96
-69029.033
-68544.33
-68623.615
-69639.728
-69485.953
-70113.375
-70168.485
-70610.294
-70840.256
-71022.539
-70930.573
-71026.001
-70833.496
-70740.465
-70395.884
-69961.786
-70104.615
-69631.678
-70435.911
-70856.07
-71044.413
-71769.942
-71572.344
-72213.552
-72159.102
-72349.846
-72249.328
-72174.765
-71873.132
-71955.867
-71346.781
-71049.343
-71312.036
-72057.155
-71813.901
-72234.919
-72640.896
-73079.045
-73241.842
-73362.053
-73441.777
-73514.796
-73308.619
-73169.284
-72858.85
-72566.886
-72604.282
-72037.768
-72744.489
-73273.715
-73563.395
-73833.938
-74019.194
-74437.092
-74562.912
-74694.717
-74673.555
-74536.593
-74260.278
-74219.924
-73743.396
-73447
-73588.811
-74437.233
-73987.791
-74638.254
-74991.571
-75407.06
-75360.505
-75724.257
-75761.518
-75882.196
-75545.476
-75312.824
-75219.635
-74803.809
-74649.839
-74544.524
-75334.932
-75301.334
-75726.122
-76094.477
-76294.211
-76746.592
-76702.677
-76838.271
-76717.349
-76750.518
-76450.172
-76303.311
-75871.165
-75702.985
-75642.799
-76613.971
-76191.615
-76848.612
-77091.687
-77432.846
-77724.149
-77872.208
-77913.995
-77874.741
-77772.29
-77481.963
-77374.132
-76958.632
-76821.333
-76749.192
-77593.306
-77297.879
-77844.515
-78115.907
-78467.472
-78765.547
-78843.57
-78952.593
-78916.287
-78828.152
-78524.774
-78423.681
-77983.023
-77877.403
-77780.847
-78656.338
-78290.425
-78862.853
-79105.176
-79478.796
-79729.322
-79877.873
-79945.771
-79903.098
-79801.677
-79542.654
-79394.718
-79046.15
-78861.238
-78884.418
-79562.152
-79369.567
-79908.421
-79993.78
-80393.975
-80767.028
-80788.152
-80981.373
-80858.55
-80898.975
-80499.492
-80529.145
-79919.137
-80142.47
-79665.954
-80362.252
-80504.1
-80675.534
-81292.949
-81239.869
-81666.961
-81763.621
-81834.428
-81846.236
-81840.736
-81482.364
-81399.603
-81100.086
-80963.06
-81171.311
-81841.235
-81180.77
-81822.71
-81940.05
-82478.782
-82492.816
-82773.599
-82724.795
-82805.528
-82553.8
-82437.108
-82397.843
-81986.139
-81979.767
-81929.919
-82704.635
-82376.986
-82742.499
-83067.688
-83131.362
-83538.055
-83507.54
-83694.918
-83593.668
-83573.714
-83292.923
-83338.266
-82969.296
-82979.679
-82946.758
-83887.554
-83201.304
-83743.595
-83854.09
-84143.606
-84323.794
-84452.991
-84499.959
-84489.49
-84459.655
-84240.755
-84304.888
-83908.169
-84022.994
-84000.622
-84793.783
-84255.052
-84658.821
-84814.636
-84979.26
-85226.927
-85268.547
-85344.179
-85347.227
-85316.192
-85108.569
-85183.955
-84897.729
-85028.373
-85017.016
-85921.629
-85215.253
-85653.799
-85697.102
-85908.426
-86042.6
-86129.801
-86180.596
-86197.746
-86196.236
-86013.089
-86169.802
-85873.862
-86061.872
-86078.839
-86958.022
-86279.871
-86622.781
-86670.283
-86795.843
-86946.104
-87003.045
-87040.489
-87089.051
-87086.977
-86975.369
-87144.357
-86906.844
-87142.206
-87188.629