/*--------------------------------*- C++ -*----------------------------------*\
  =========                 |
  \\      /  F ield         | OpenFOAM: The Open Source CFD Toolbox
   \\    /   O peration     | Website:  https://openfoam.org
    \\  /    A nd           | Version:  6
     \\/     M anipulation  |
\*---------------------------------------------------------------------------*/
FoamFile
{
    version     2.0;
    format      ascii;
    class       pointVectorField;
    location    "0.1";
    object      lm;
}
// * * * * * * * * * * * * * * * * * * * * * * * * * * * * * * * * * * * * * //

dimensions      [1 -2 -1 0 0 0 0];

internalField   nonuniform List<vector> 
28033
(
(0 0 0)
(0 0 0)
(2566.573 315.4943 -0.43437995)
(2505.2639 -540.20722 4.8279331)
(0 0 0)
(0 0 0)
(2507.6389 -543.41953 -0.94665068)
(2569.0854 315.33562 5.4343142)
(0 0 0)
(0 0 0)
(0 0 0)
(0 0 0)
(0 0 0)
(0 0 0)
(0 0 0)
(0 0 0)
(0 0 0)
(0 0 0)
(0 0 0)
(0 0 0)
(0 0 0)
(0 0 0)
(0 0 0)
(2554.8771 262.23809 0.31318591)
(2541.664 209.10733 0.707369)
(2531.4005 156.15523 0.84818468)
(2524.8262 103.19866 0.71643882)
(2522.379 50.124583 0.64042975)
(2523.6933 -3.2648443 0.61510098)
(2527.9548 -57.191894 1.0573784)
(2533.5344 -111.53685 1.4175939)
(2539.1644 -166.35631 2.0232684)
(2543.3286 -221.15355 2.4993188)
(2544.7432 -275.89756 2.8652449)
(2542.8953 -330.15807 3.3250895)
(2537.2601 -383.8542 3.3699389)
(2528.3422 -436.71286 3.6125534)
(2516.9297 -488.76023 4.0688368)
(-30.34612 -48.760773 -44.512717)
(-45.020575 -66.552579 -60.438448)
(-68.873834 -82.811017 -65.700054)
(-100.31446 -99.175708 -64.639633)
(-140.30672 -111.88725 -53.737125)
(-188.43327 -122.55512 -37.572259)
(-242.93989 -129.21664 -15.594288)
(-301.61883 -132.0844 8.8051637)
(-362.35546 -130.81951 34.705579)
(-421.95198 -124.29621 59.71109)
(-477.10155 -112.9902 81.467821)
(-525.94031 -97.349808 99.051104)
(-566.59194 -77.605172 111.81762)
(-597.72553 -54.474839 119.03481)
(-619.27893 -29.041924 120.99737)
(-631.82242 -2.2411443 119.39354)
(-635.84832 25.153789 114.58574)
(-632.37079 51.967999 107.28538)
(-623.08186 77.408186 98.872488)
(-609.09795 100.85071 90.024171)
(-591.50672 121.97906 80.910535)
(-571.27675 140.33561 71.91959)
(-549.36543 155.92974 62.991429)
(-526.4524 169.01937 54.305201)
(-503.35564 179.68929 45.760985)
(-480.31181 188.52051 37.383981)
(-457.64666 195.98541 29.2265)
(-435.5617 202.59632 21.37779)
(-414.06913 208.7977 13.82292)
(-392.91284 215.03652 6.9005798)
(-371.71809 221.7785 0.51075768)
(-350.54263 228.90445 -5.1350167)
(-328.78084 236.7394 -9.7402432)
(-306.30015 245.00588 -13.183989)
(-282.93738 253.65328 -15.290838)
(-258.56491 262.56657 -15.85558)
(-233.46909 271.34187 -14.708119)
(-207.16877 279.82822 -12.024059)
(-180.04766 287.83214 -7.8916787)
(-151.77358 295.19697 -2.4657543)
(-122.1561 301.81316 3.6114217)
(-91.035735 307.7585 9.9603859)
(-58.125689 312.85739 16.025229)
(-23.268594 317.29059 21.448277)
(13.580348 321.02554 25.813768)
(52.433231 324.21132 28.945807)
(93.044346 326.90684 30.843304)
(135.17027 329.25097 31.563846)
(178.44151 331.36918 31.324186)
(222.53847 333.40976 30.34619)
(267.15257 335.51058 28.877541)
(312.08414 337.80823 27.129902)
(357.2078 340.40472 25.277541)
(402.49942 343.3718 23.445029)
(447.99778 346.73516 21.712511)
(493.79183 350.47303 20.12452)
(539.99379 354.52428 18.69224)
(586.71915 358.79842 17.398295)
(634.08095 363.18251 16.204868)
(682.18152 367.56076 15.050848)
(731.1015 371.82058 13.870451)
(780.91162 375.86906 12.584359)
(831.63601 379.5998 11.156314)
(883.30392 382.93877 9.5244447)
(935.80657 385.8243 7.7343649)
(989.12997 388.1422 5.7869555)
(1043.0357 389.85146 3.7764933)
(1097.3534 390.89216 1.7804926)
(1151.891 391.24369 -0.11008477)
(1206.4254 390.89979 -1.7879863)
(1260.7057 389.85607 -3.2173489)
(1314.6204 388.23086 -4.4302708)
(1368.0755 386.13178 -5.3864064)
(1420.9826 383.61968 -6.0890947)
(1473.4194 380.94713 -6.6085528)
(1525.4106 378.0004 -6.9187763)
(1577.0419 375.21376 -7.1305346)
(1628.4577 372.16126 -7.1304797)
(1679.5965 369.4773 -7.0715963)
(1730.71 366.46181 -6.7628913)
(1781.6337 363.81842 -6.4270487)
(1832.5714 360.89186 -5.8410441)
(1883.5141 358.19665 -5.3303565)
(1934.5396 355.28865 -4.6844892)
(1985.7947 352.49997 -4.2468996)
(2037.2786 349.66283 -3.8398844)
(2089.2124 346.69529 -3.7254969)
(2141.4547 343.85877 -3.7557131)
(2194.1682 340.6896 -3.9650892)
(2247.0385 337.63786 -4.153628)
(2300.0972 334.23103 -4.3484749)
(2353.1382 330.84037 -4.2129553)
(2405.8883 327.22106 -3.8560583)
(2458.5047 323.5005 -3.0092591)
(2510.5994 319.47031 -1.8127638)
(-18.969442 46.106094 59.799375)
(-48.859595 61.142962 55.442834)
(-76.195177 84.211403 70.18518)
(-107.92165 92.76987 62.878517)
(-152.71232 107.93392 52.768636)
(-203.63572 118.37452 33.810301)
(-259.20477 125.1136 11.415942)
(-318.28211 128.64039 -14.287202)
(-377.54033 127.12458 -39.669907)
(-433.57784 121.37901 -63.258742)
(-484.38663 110.38016 -83.171705)
(-528.38244 95.211209 -98.05149)
(-563.30056 76.230336 -108.3224)
(-590.22685 53.789097 -113.50725)
(-608.54489 29.796916 -114.86651)
(-619.01536 3.908928 -113.07845)
(-623.29119 -21.538755 -109.25507)
(-621.71346 -46.758967 -104.54424)
(-615.37701 -70.531654 -98.758814)
(-604.99823 -92.30998 -92.697187)
(-591.36931 -112.14077 -85.943897)
(-574.65702 -129.54259 -78.656718)
(-555.56183 -144.77878 -70.434801)
(-534.70653 -157.8662 -61.404018)
(-512.27371 -169.05762 -51.794897)
(-489.05332 -178.80994 -41.27955)
(-465.44479 -187.17444 -30.946644)
(-441.80574 -194.7786 -20.566559)
(-418.47677 -201.64703 -11.116975)
(-395.57927 -208.26704 -2.4969652)
(-373.07469 -214.73583 4.5722535)
(-350.80683 -221.12375 10.140176)
(-328.56819 -227.59688 14.068523)
(-306.29709 -234.1069 16.265748)
(-283.77031 -240.66143 16.703208)
(-260.9108 -247.15998 15.458433)
(-237.5962 -253.57825 12.572121)
(-213.61323 -259.82709 8.306759)
(-188.69727 -265.82055 3.0457116)
(-162.53797 -271.59953 -2.9763061)
(-134.92956 -277.06618 -9.3331435)
(-105.47502 -282.20215 -15.594934)
(-73.922938 -286.99483 -21.327321)
(-40.072212 -291.43648 -26.173758)
(-3.8825631 -295.53351 -29.8674)
(34.556079 -299.31261 -32.267151)
(75.001248 -302.82354 -33.354784)
(117.11308 -306.14392 -33.227605)
(160.48471 -309.37786 -32.074009)
(204.70087 -312.64928 -30.143396)
(249.38303 -316.09175 -27.714386)
(294.22397 -319.83445 -25.064486)
(339.01372 -323.98638 -22.443509)
(383.64621 -328.62515 -20.051589)
(428.12059 -333.78833 -18.02285)
(472.52676 -339.47089 -16.416384)
(517.02817 -345.63266 -15.21375)
(561.83723 -352.20287 -14.328318)
(607.18353 -359.09701 -13.62585)
(653.28915 -366.22298 -12.944537)
(700.32885 -373.49166 -12.137703)
(748.42342 -380.81891 -11.085708)
(797.60373 -388.12226 -9.7359768)
(847.83184 -395.32589 -8.0857969)
(898.98571 -402.33968 -6.2065795)
(950.91016 -409.08732 -4.182194)
(1003.3826 -415.47382 -2.1389157)
(1056.2108 -421.44354 -0.14317155)
(1109.1947 -426.88438 1.6698675)
(1162.1493 -431.82642 3.3016557)
(1214.8784 -436.30633 4.7620827)
(1267.4014 -440.31586 6.0714581)
(1319.5548 -444.04005 7.203793)
(1371.2862 -447.52601 8.1480127)
(1422.6156 -450.93735 8.8878181)
(1473.5489 -454.35424 9.3807707)
(1524.1686 -457.8723 9.6285843)
(1574.5507 -461.52301 9.5937463)
(1624.7902 -465.32562 9.3169997)
(1674.9801 -469.24557 8.8229448)
(1725.2019 -473.28482 8.1911788)
(1775.5281 -477.38669 7.4932785)
(1826.0087 -481.57331 6.8254081)
(1876.727 -485.82307 6.2643449)
(1927.705 -490.16127 5.8767689)
(1979.0515 -494.62188 5.7165162)
(2030.7642 -499.17483 5.7778364)
(2082.9129 -503.86225 6.048471)
(2135.4194 -508.60734 6.4532542)
(2188.2537 -513.38674 6.8844329)
(2241.2374 -518.11765 7.2328311)
(2294.2526 -522.7609 7.3690661)
(2347.1307 -527.237 7.1966316)
(2399.7452 -531.59317 6.7016036)
(2452.5661 -535.83929 5.8273693)
(0 0 0)
(0 0 0)
(0 0 0)
(0 0 0)
(0 0 0)
(0 0 0)
(0 0 0)
(0 0 0)
(0 0 0)
(0 0 0)
(0 0 0)
(0 0 0)
(0 0 0)
(0 0 0)
(0 0 0)
(-34.39846 21.262474 -43.689894)
(-54.078787 77.250191 -60.376711)
(-75.87082 76.012052 -63.773999)
(-112.48418 102.51377 -63.958765)
(-153.26399 109.7011 -52.939837)
(-204.35124 120.73178 -34.529257)
(-258.979 124.9325 -13.851332)
(-317.24574 128.47954 10.962583)
(-376.08291 124.80112 35.162059)
(-430.47008 117.37262 58.300893)
(-481.77213 108.13944 78.507682)
(-527.01055 93.000046 93.553431)
(-561.5021 74.777134 105.04522)
(-591.00521 53.755749 111.12332)
(-608.83081 30.032763 113.22322)
(-620.80423 6.0322291 113.13898)
(-625.89196 -20.729642 109.22848)
(-623.51393 -44.979618 104.7992)
(-617.58512 -68.971368 98.821899)
(-606.18283 -91.05592 92.410428)
(-591.75012 -111.12076 84.633815)
(-574.66287 -128.12472 76.522948)
(-555.08616 -143.09474 67.646885)
(-534.22287 -156.35447 57.983601)
(-511.81833 -167.13022 47.989444)
(-489.18233 -176.94057 37.561103)
(-465.87309 -183.78894 27.710035)
(-443.4225 -192.05972 17.752637)
(-420.53282 -197.71254 9.2424305)
(-398.46174 -204.60416 0.98119227)
(-375.90942 -210.71391 -5.9146214)
(-353.51388 -217.1189 -11.594664)
(-330.81587 -223.68776 -15.856971)
(-307.81029 -230.43362 -18.590518)
(-284.39097 -237.32134 -19.865423)
(-260.57298 -244.65121 -18.79337)
(-236.16963 -251.66964 -16.829263)
(-211.05767 -258.61423 -12.681263)
(-185.37187 -265.45725 -7.4268647)
(-158.56822 -271.91238 -1.211081)
(-130.51558 -278.01352 5.4501261)
(-100.86651 -283.64147 12.028949)
(-69.355121 -288.80152 18.063086)
(-35.817948 -293.48943 23.170552)
(-0.17534781 -297.73716 27.084113)
(37.515451 -301.60168 29.676905)
(77.097831 -305.16103 30.938147)
(118.3222 -308.51237 30.960539)
(160.8883 -311.77553 29.911696)
(204.46589 -315.08138 28.015007)
(248.73109 -318.57021 25.527388)
(293.38472 -322.37917 22.726711)
(338.18071 -326.62817 19.887948)
(382.94266 -331.40654 17.263237)
(427.58437 -336.75923 15.050242)
(472.11785 -342.68227 13.368126)
(516.65348 -349.1205 12.236801)
(561.38368 -355.97958 11.57569)
(606.55388 -363.13842 11.219074)
(652.42139 -370.46872 10.952994)
(699.21337 -377.85079 10.55908)
(747.09023 -385.18133 9.8593946)
(796.1211 -392.38383 8.7557872)
(846.27972 -399.39058 7.2296724)
(897.45497 -406.15176 5.3562339)
(949.46736 -412.61659 3.2497734)
(1002.123 -418.69372 1.0417209)
(1055.2445 -424.48157 -1.0867138)
(1108.492 -429.63269 -3.1258369)
(1161.7398 -434.54559 -4.9826241)
(1215.0048 -438.78381 -6.5824596)
(1267.872 -442.70739 -7.9874633)
(1320.4277 -446.25406 -9.1850627)
(1372.521 -449.60213 -10.141191)
(1424.1507 -452.8378 -10.858732)
(1475.3284 -456.09009 -11.299878)
(1526.1008 -459.44167 -11.446097)
(1576.5483 -462.9476 -11.286128)
(1626.7611 -466.62758 -10.835534)
(1676.8336 -470.47005 -10.129382)
(1726.8572 -474.46271 -9.2344051)
(1776.9129 -478.5729 -8.2230414)
(1827.0847 -482.80548 -7.1949528)
(1877.4563 -487.14891 -6.232441)
(1928.1231 -491.62834 -5.4285239)
(1979.1694 -496.24326 -4.8293231)
(2030.6721 -500.99435 -4.4781617)
(2082.6671 -505.86267 -4.3358318)
(2135.1196 -510.78078 -4.3546736)
(2187.9617 -515.71691 -4.4270586)
(2241.0529 -520.56864 -4.4410718)
(2294.2332 -525.31296 -4.2705186)
(2347.3381 -529.88175 -3.8697428)
(2400.3332 -534.30073 -3.1687283)
(2452.3258 -538.38811 -2.1540262)
(2519.9781 -491.92377 0.26668889)
(2531.6222 -439.67648 1.0557373)
(2539.2649 -386.2019 1.4712016)
(2544.0415 -331.95559 1.5777434)
(2545.4932 -277.26585 1.6234115)
(2542.9396 -221.92803 1.7030041)
(2539.2088 -166.78992 1.5731474)
(2534.2005 -111.82279 1.5465828)
(2527.5484 -57.300708 1.7372588)
(2523.6017 -3.3851099 1.6586461)
(2523.5697 49.984515 1.8589584)
(2527.1061 102.85113 1.9087498)
(2533.8232 155.85054 2.4077589)
(2545.1976 208.80803 3.0066409)
(2559.7767 262.10072 4.0140203)
(2513.8472 319.57092 6.4379647)
(2461.5476 323.61868 7.1533817)
(2408.6897 327.5552 7.8784844)
(2355.5205 331.25777 7.9933989)
(2302.3626 334.69339 8.0689806)
(2249.0888 337.99339 7.7887508)
(2195.9609 341.03436 7.3653812)
(2142.993 344.00458 6.8230189)
(2090.3229 346.84804 6.2990749)
(2037.9739 349.67897 5.8757901)
(1985.9922 352.47106 5.6628926)
(1934.3489 355.22481 5.6977897)
(1883.0403 357.9263 5.9906933)
(1831.977 360.55072 6.4925218)
(1781.1715 363.05405 7.1409459)
(1730.4749 365.49908 7.7969696)
(1679.7949 367.89049 8.3330014)
(1628.9932 370.28939 8.6217622)
(1577.9292 372.74963 8.5836085)
(1526.4606 375.26845 8.1774084)
(1474.4753 377.83882 7.4068224)
(1421.9087 380.35731 6.3251816)
(1368.7639 382.72565 5.006126)
(1315.0781 384.76107 3.5261188)
(1261.0127 386.37025 1.9441935)
(1206.6926 387.38045 0.36979794)
(1152.384 387.69225 -1.2629685)
(1098.1811 387.15688 -2.8675279)
(1044.1759 386.17883 -4.5606983)
(990.73739 384.44402 -6.2029224)
(937.86769 382.1178 -7.8165744)
(885.74537 379.28063 -9.3160437)
(834.44182 375.99751 -10.66453)
(784.03448 372.34692 -11.821236)
(734.53644 368.41085 -12.783813)
(685.92155 364.27886 -13.601259)
(638.1063 360.05541 -14.368544)
(590.96202 355.85908 -15.210002)
(544.32676 351.80908 -16.259371)
(498.02719 348.01814 -17.628761)
(451.90734 344.57202 -19.380551)
(405.85139 341.52143 -21.513453)
(359.81098 338.8664 -23.951322)
(313.81574 336.56362 -26.548498)
(267.9856 334.52164 -29.101578)
(222.51946 332.62284 -31.36312)
(177.69713 330.72645 -33.068905)
(133.82473 328.69522 -33.953159)
(91.262717 326.39842 -33.780003)
(50.311666 323.71239 -32.370499)
(11.224185 320.56043 -29.634901)
(-25.747845 316.89004 -25.619061)
(-60.652858 312.52924 -20.381453)
(-93.39341 307.66314 -14.41988)
(-124.25423 302.06673 -7.9213058)
(-153.25036 295.91151 -1.5963684)
(-181.05714 289.18856 4.3912552)
(-207.49797 282.32481 8.8000725)
(-232.59272 273.92381 12.47956)
(-257.43123 266.24658 13.797075)
(-281.41213 258.43649 13.035745)
(-304.39845 250.12399 11.359493)
(-327.666 242.56883 6.9971928)
(-350.3673 235.2425 1.5919755)
(-372.82241 227.99018 -5.1660683)
(-395.09391 221.58593 -12.557645)
(-417.57162 214.2898 -20.451576)
(-440.13129 207.98566 -28.697434)
(-462.96414 200.24894 -36.812655)
(-485.63268 191.52777 -44.520482)
(-508.04026 181.25787 -52.09357)
(-530.42667 168.53285 -59.06807)
(-551.70562 154.89834 -66.632754)
(-572.1109 137.04271 -73.272105)
(-590.38102 117.41703 -80.560895)
(-606.14781 95.675964 -88.25899)
(-619.09289 71.541076 -96.290973)
(-627.03243 45.894608 -104.43279)
(-630.90192 20.81193 -112.05058)
(-626.45906 -6.3342133 -118.67462)
(-615.79744 -31.776505 -122.31169)
(-596.57544 -52.749221 -122.79645)
(-567.67106 -73.201455 -117.23288)
(-529.33226 -92.973832 -106.69823)
(-482.27738 -104.15964 -90.75481)
(-428.27525 -115.36169 -67.564132)
(-369.24866 -122.47637 -41.702715)
(-307.00133 -123.63002 -13.755344)
(-245.79887 -123.76395 14.183694)
(-188.57444 -118.80416 38.512328)
(-140.04284 -107.22866 57.601829)
(-97.713861 -95.301369 69.322377)
(-66.362132 -82.57365 72.762498)
(-45.526684 -62.829425 59.916577)
(-42.260036 -45.583735 35.586234)
(0 0 0)
(0 0 0)
(0 0 0)
(0 0 0)
(0 0 0)
(0 0 0)
(0 0 0)
(0 0 0)
(0 0 0)
(0 0 0)
(0 0 0)
(0 0 0)
(0 0 0)
(0 0 0)
(0 0 0)
(0 0 0)
(0 0 0)
(0 0 0)
(0 0 0)
(0 0 0)
(0 0 0)
(0 0 0)
(0 0 0)
(0 0 0)
(0 0 0)
(0 0 0)
(0 0 0)
(0 0 0)
(0 0 0)
(0 0 0)
(2504.5515 -539.44089 4.7544501)
(2503.6994 -538.54829 4.8581759)
(2502.3592 -537.32262 4.9267459)
(2500.6421 -535.86413 4.8099311)
(2498.8808 -534.41894 4.3810329)
(2497.3256 -533.197 3.7029273)
(2496.3446 -532.47773 2.793676)
(2496.1391 -532.40618 1.815622)
(2496.7512 -533.03363 0.83945062)
(2498.0464 -534.21616 0.040372781)
(2499.8273 -535.85329 -0.5447867)
(2501.7815 -537.60702 -0.85989131)
(2503.5951 -539.35609 -0.96108238)
(2505.1263 -540.80726 -0.88499511)
(2506.3482 -542.23477 -0.88732393)
(2565.939 314.15126 -0.57444234)
(2564.8525 312.91382 -0.84354307)
(2563.2862 311.58802 -1.166725)
(2561.2475 310.11347 -1.1845465)
(2558.9747 308.70239 -0.88427227)
(2556.9432 307.54622 -0.24661232)
(2555.5646 306.88912 0.68683654)
(2555.1568 306.82811 1.7898568)
(2555.8034 307.39227 2.9514676)
(2557.3906 308.44133 3.9812341)
(2559.593 309.77936 4.8030008)
(2562.0306 311.17642 5.2949982)
(2564.3367 312.4451 5.5309118)
(2566.2379 313.50947 5.4991953)
(2567.8192 314.35034 5.471301)
(-17.749215 -32.20909 -44.588838)
(-39.23862 -43.344761 -46.180568)
(-63.11162 -55.808165 -53.4317)
(-95.980793 -63.761194 -48.749565)
(-136.15773 -68.955046 -40.277356)
(-185.33959 -72.6146 -26.029775)
(-240.62374 -74.649249 -8.4877743)
(-300.51841 -75.068067 11.411235)
(-362.1618 -73.499407 31.631242)
(-422.63926 -70.2417 51.413159)
(-478.98301 -64.693964 68.606868)
(-529.16 -56.607802 82.612257)
(-571.21821 -45.499137 92.791464)
(-604.01039 -31.906078 98.989485)
(-626.84113 -15.555217 101.31623)
(-640.33453 3.081035 100.40277)
(-645.23143 23.105583 97.066864)
(-642.40802 43.805294 91.869367)
(-633.18942 64.695031 85.390047)
(-618.91599 84.743588 78.351035)
(-600.7025 103.35833 71.07919)
(-579.76733 120.05107 63.582526)
(-557.04044 134.79511 56.190982)
(-533.38027 147.44831 48.78895)
(-509.49239 158.21988 41.517951)
(-485.82575 167.32995 34.369158)
(-462.78399 175.2986 27.300553)
(-440.52598 182.3369 20.426531)
(-418.89683 188.91381 13.88875)
(-397.82908 195.4001 7.6428315)
(-376.95331 201.80987 1.908932)
(-355.82792 208.55189 -3.1788389)
(-334.19757 215.55097 -7.404037)
(-311.84199 222.90043 -10.693815)
(-288.54 230.33326 -12.809545)
(-264.10134 238.00847 -13.525886)
(-238.68244 245.58787 -12.720355)
(-212.22402 252.69175 -10.585967)
(-184.60212 259.50739 -7.1413564)
(-155.92001 265.57281 -2.5873256)
(-125.80359 270.89939 2.5407824)
(-94.223067 275.3758 7.9399959)
(-60.860169 279.00828 13.171636)
(-25.612058 281.87027 17.798285)
(11.592714 284.10726 21.523245)
(50.733161 285.86999 24.253049)
(91.596896 287.31258 25.901504)
(133.91021 288.62672 26.573137)
(177.32498 289.95637 26.411181)
(221.507 291.43639 25.615692)
(266.16195 293.16703 24.388243)
(311.08688 295.21688 22.915453)
(356.17074 297.62337 21.350223)
(401.39717 300.39199 19.807438)
(446.82165 303.4972 18.365565)
(492.5462 306.88326 17.06915)
(538.69386 310.47307 15.929336)
(585.39032 314.16792 14.930603)
(632.75088 317.86352 14.033927)
(680.87473 321.45415 13.179129)
(729.83899 324.8459 12.294793)
(779.706 327.96362 11.316681)
(830.49966 330.7319 10.192017)
(882.2194 333.10992 8.8927147)
(934.78716 335.0865 7.4173093)
(988.1782 336.56427 5.8132766)
(1042.129 337.61052 4.1362418)
(1096.4794 338.1458 2.5022322)
(1151.0475 338.12604 0.87016755)
(1205.5194 337.57623 -0.5685531)
(1259.7695 336.53303 -1.87426)
(1313.5582 335.01215 -2.9868409)
(1366.8348 333.12297 -3.9173539)
(1419.4811 330.89045 -4.6445588)
(1471.5974 328.4571 -5.226061)
(1523.1917 325.80614 -5.6460947)
(1574.3941 323.15322 -5.9393497)
(1625.3032 320.32256 -6.0617752)
(1675.9676 317.65471 -6.0826805)
(1726.5369 314.76647 -5.8773663)
(1776.9379 312.05114 -5.6069552)
(1827.3642 309.17188 -5.1556496)
(1877.7466 306.30228 -4.6777424)
(1928.2586 303.29214 -4.1822989)
(1978.9547 300.27312 -3.8099287)
(2029.9205 297.06795 -3.5362598)
(2081.3138 293.87927 -3.4791933)
(2133.0292 290.56967 -3.5189278)
(2185.2367 287.23781 -3.6569641)
(2237.5908 283.85552 -3.78907)
(2290.2425 280.45516 -3.7803217)
(2342.7488 277.00513 -3.5276204)
(2395.118 273.46475 -3.0429844)
(2447.3904 269.91329 -2.1119705)
(2499.6444 266.10021 -1.0360848)
(-9.46609 -25.491956 -34.148061)
(-31.997882 -27.066908 -38.770727)
(-60.602077 -38.094938 -43.001607)
(-94.092187 -41.462906 -39.711587)
(-136.82864 -44.588293 -31.968283)
(-186.12972 -46.128033 -20.180956)
(-241.60232 -46.717382 -5.3605326)
(-301.10435 -46.318573 11.019285)
(-362.07331 -45.203102 28.119341)
(-422.12978 -42.848557 44.157226)
(-478.55515 -39.181641 58.386254)
(-528.98941 -33.664331 69.87409)
(-571.75561 -26.134805 78.248012)
(-605.5404 -16.468313 83.285872)
(-629.85972 -4.6074236 85.247265)
(-644.81876 9.1995596 84.579517)
(-651.02471 24.538466 81.861611)
(-649.30946 40.785166 77.595499)
(-640.80151 57.385772 72.464023)
(-626.83571 73.666213 66.736577)
(-608.73514 89.110649 60.736185)
(-587.52005 103.3744 54.677434)
(-564.35892 116.20128 48.596473)
(-540.15636 127.51278 42.541324)
(-515.70559 137.35704 36.517881)
(-491.60773 146.00288 30.467842)
(-468.19087 153.57086 24.487353)
(-445.60406 160.40818 18.635753)
(-423.86889 166.76796 12.874029)
(-402.70974 172.80396 7.4512573)
(-381.78717 178.79392 2.3758223)
(-360.72862 184.84189 -2.1579677)
(-339.2254 191.03786 -6.0080954)
(-316.86936 197.36542 -8.988777)
(-293.47871 203.84137 -10.88712)
(-268.99536 210.37852 -11.596262)
(-243.40299 216.75081 -11.020323)
(-216.59626 222.80598 -9.2428851)
(-188.64671 228.41328 -6.3413622)
(-159.4952 233.33621 -2.5437546)
(-128.91656 237.44926 1.8150267)
(-96.794066 240.76717 6.3209052)
(-62.941296 243.22417 10.803264)
(-27.225731 244.94557 14.649549)
(10.38347 246.14285 17.787086)
(49.833526 246.9699 20.070568)
(90.915799 247.60735 21.448465)
(133.35893 248.26642 21.994473)
(176.82819 249.07542 21.82616)
(221.00263 250.16016 21.116754)
(265.60499 251.57883 20.034913)
(310.44633 253.36641 18.748401)
(355.42778 255.51679 17.3928)
(400.54396 258.0005 16.078219)
(445.85867 260.76214 14.880471)
(491.47966 263.72963 13.842402)
(537.53644 266.8139 12.976855)
(584.15761 269.9175 12.268316)
(631.45772 272.94328 11.673048)
(679.53541 275.79823 11.129861)
(728.4649 278.40655 10.569303)
(778.30071 280.71323 9.9208936)
(829.0605 282.65978 9.1431507)
(880.73002 284.25901 8.186567)
(933.26134 285.47522 7.0669172)
(986.58356 286.28375 5.8322133)
(1040.4173 286.71202 4.5144028)
(1094.696 286.68326 3.1043378)
(1149.1433 286.31501 1.7639261)
(1203.5466 285.54388 0.52640972)
(1257.6477 284.37271 -0.60469441)
(1311.2794 282.80627 -1.6087127)
(1364.3394 280.95796 -2.4891709)
(1416.7523 278.76215 -3.2130908)
(1468.585 276.43796 -3.86452)
(1519.8487 273.824 -4.3116718)
(1570.6954 271.27194 -4.7262375)
(1621.1966 268.43683 -4.8787897)
(1671.4486 265.83099 -5.0261532)
(1721.5432 262.8543 -4.8285718)
(1771.5206 260.19119 -4.7175913)
(1821.4517 257.12369 -4.2747543)
(1871.3966 254.22272 -3.9543294)
(1920.9595 250.96574 -3.5167263)
(1970.9601 247.72626 -3.2535346)
(2021.4461 244.37282 -3.0325339)
(2072.3713 241.02412 -3.0159049)
(2123.6265 237.5998 -3.0265343)
(2175.3695 234.10209 -3.1925309)
(2227.3044 230.75397 -3.2317147)
(2279.491 227.23639 -3.211375)
(2331.6233 223.83909 -2.9267881)
(2383.6602 220.35177 -2.440349)
(2435.5602 216.72416 -1.5799189)
(2487.5833 213.0068 -0.55588977)
(-8.0745096 -17.208897 -27.336652)
(-31.802329 -17.662272 -29.106881)
(-58.398688 -22.304637 -34.108273)
(-94.345999 -24.086437 -30.101322)
(-137.28589 -24.648935 -23.894604)
(-187.03409 -25.256102 -13.887679)
(-242.38405 -25.012021 -2.1050352)
(-301.51813 -24.573742 11.075815)
(-362.18368 -23.748628 24.363578)
(-421.89216 -22.463747 36.978916)
(-478.11297 -20.258969 48.048974)
(-528.76332 -16.953392 57.027334)
(-572.04559 -12.079916 63.524885)
(-606.72745 -5.5349138 67.518043)
(-632.16063 2.8747736 69.140062)
(-648.32317 12.968321 68.733191)
(-655.62988 24.503238 66.748601)
(-654.86737 37.014109 63.629934)
(-647.14469 50.064366 59.712518)
(-633.65924 63.121797 55.326329)
(-615.63819 75.790379 50.757187)
(-594.33345 87.641878 46.024483)
(-570.92856 98.522631 41.252215)
(-546.38263 108.28784 36.39925)
(-521.56337 117.02189 31.494321)
(-497.05677 124.73231 26.544469)
(-473.2722 131.63371 21.572815)
(-450.42254 137.8769 16.577071)
(-428.40688 143.62268 11.709405)
(-407.05573 149.06138 6.989917)
(-385.98944 154.30408 2.5685971)
(-364.85189 159.50544 -1.4190129)
(-343.22757 164.7007 -4.8163892)
(-320.80762 169.97359 -7.4334144)
(-297.39345 175.29528 -9.1777899)
(-272.83892 180.55762 -9.8676344)
(-247.12189 185.71207 -9.4545222)
(-220.19364 190.51258 -7.9721247)
(-191.94858 194.91432 -5.5591512)
(-162.38032 198.68812 -2.4207012)
(-131.37634 201.77428 1.2062332)
(-98.778158 204.10622 4.9699671)
(-64.488997 205.73331 8.6127028)
(-28.381785 206.6981 11.774057)
(9.5615761 207.25437 14.304571)
(49.228364 207.53095 16.116656)
(90.43804 207.70989 17.173585)
(132.90904 207.97457 17.538173)
(176.33592 208.44879 17.317974)
(220.40782 209.22784 16.658065)
(264.8745 210.35375 15.704894)
(309.55644 211.83896 14.602333)
(354.37004 213.6581 13.468743)
(399.31468 215.76606 12.402197)
(444.45851 218.0971 11.468847)
(489.9123 220.57112 10.707315)
(535.80755 223.09894 10.128632)
(582.27306 225.58605 9.7111611)
(629.42637 227.94519 9.4109918)
(677.36548 230.09257 9.1675811)
(726.16396 231.97032 8.9057942)
(775.87104 233.52756 8.5652274)
(826.50227 234.74873 8.0894559)
(878.04861 235.63377 7.4404964)
(930.45203 236.15545 6.6450206)
(983.59035 236.35149 5.7143305)
(1037.3165 236.27594 4.6214956)
(1091.7565 235.80574 3.5988735)
(1146.0225 234.95583 2.5244029)
(1200.2341 233.85642 1.4957756)
(1254.19 232.40718 0.52074089)
(1307.6431 230.6701 -0.3735113)
(1360.5387 228.66783 -1.1932142)
(1412.7521 226.44714 -1.9174802)
(1464.3838 224.01861 -2.570051)
(1515.4072 221.46322 -3.1041177)
(1566.0181 218.82167 -3.545424)
(1616.2059 216.09139 -3.8131566)
(1666.181 213.34844 -3.9541987)
(1715.9308 210.5196 -3.9119715)
(1765.5915 207.71199 -3.7655217)
(1815.2117 204.6813 -3.4312525)
(1864.82 201.77177 -3.1917479)
(1914.6174 198.55353 -2.7778876)
(1963.7269 195.30391 -2.6053715)
(2014.0189 191.86765 -2.4364422)
(2064.6765 188.49456 -2.4982858)
(2115.7382 184.90276 -2.5580792)
(2167.2358 181.5234 -2.7485575)
(2218.9446 177.95508 -2.754685)
(2270.9141 174.51171 -2.7919827)
(2322.8835 171.06109 -2.4556278)
(2374.7486 167.53584 -2.0852365)
(2426.6027 163.88049 -1.2384168)
(2478.3978 160.19034 -0.32418648)
(-8.2652975 -13.479951 -20.512517)
(-31.22721 -11.18265 -22.856826)
(-59.784929 -13.255783 -25.339707)
(-95.860677 -12.858188 -22.298161)
(-139.44127 -12.299941 -17.196378)
(-189.16496 -12.039049 -9.2940761)
(-244.35327 -11.369967 -0.067888842)
(-302.99892 -10.782165 10.049564)
(-363.07925 -10.216843 20.283866)
(-422.23412 -9.4203974 29.838795)
(-478.14514 -8.1751542 38.230886)
(-528.74642 -6.1635141 44.956616)
(-572.27932 -3.0746547 49.834966)
(-607.5078 1.3195596 52.803319)
(-633.7287 7.1376667 54.010856)
(-650.77559 14.35527 53.714076)
(-658.97172 22.797365 52.247495)
(-659.02908 32.146184 49.898205)
(-651.92184 42.077491 47.005391)
(-638.8315 52.185544 43.791111)
(-621.0414 62.117964 40.367939)
(-599.79243 71.606686 36.847599)
(-576.265 80.442503 33.247429)
(-551.50019 88.541913 29.572302)
(-526.37489 95.842164 25.814005)
(-501.54736 102.41894 21.966372)
(-477.45181 108.34084 18.013777)
(-454.25214 113.70172 14.047881)
(-431.94419 118.63248 10.062538)
(-410.30685 123.23367 6.1798491)
(-389.02677 127.63011 2.4938293)
(-367.69127 131.89483 -0.86796054)
(-345.93711 136.11923 -3.7478019)
(-323.44213 140.35091 -6.024235)
(-299.94741 144.5282 -7.5148215)
(-275.32368 148.70137 -8.1454228)
(-249.43888 152.69799 -7.858045)
(-222.19703 156.4786 -6.742708)
(-193.80074 159.76916 -4.8126721)
(-163.99154 162.60088 -2.2089669)
(-132.69828 164.77726 0.70651128)
(-99.785716 166.33737 3.7441804)
(-65.19251 167.30833 6.5914558)
(-28.818369 167.78953 9.050279)
(9.3138886 167.94016 10.995615)
(49.091856 167.89749 12.325493)
(90.318331 167.82551 13.049512)
(132.72667 167.86737 13.218954)
(176.01967 168.12292 12.93329)
(219.90901 168.66215 12.311667)
(264.15898 169.5102 11.478144)
(308.60441 170.66588 10.54925)
(353.17112 172.09576 9.6246729)
(397.86213 173.75355 8.785502)
(442.74919 175.57191 8.0891038)
(487.94375 177.47634 7.5707473)
(533.57785 179.38423 7.2365474)
(579.78389 181.21191 7.0675908)
(626.6812 182.88237 7.0216229)
(674.3697 184.3277 7.0366503)
(722.92357 185.49657 7.0457072)
(772.39428 186.36838 6.981321)
(822.79291 186.92002 6.79277)
(874.12511 187.16385 6.4527441)
(926.28772 187.09877 5.975479)
(979.23122 186.78716 5.3189099)
(1032.7471 186.15479 4.6255687)
(1086.6867 185.30455 3.8701663)
(1140.8108 184.13811 3.0243705)
(1194.8395 182.73949 2.2160133)
(1248.6622 181.05393 1.457653)
(1301.9954 179.13426 0.7093478)
(1354.776 176.99537 -0.011057496)
(1406.9446 174.63822 -0.72032045)
(1458.5113 172.15633 -1.3515491)
(1509.471 169.53946 -1.8955765)
(1559.9985 166.88152 -2.3667317)
(1610.0722 164.11521 -2.6449791)
(1659.9502 161.39898 -2.8644296)
(1709.5348 158.51421 -2.8185862)
(1759.107 155.70088 -2.7452413)
(1808.5423 152.64769 -2.4853163)
(1858.1346 149.69553 -2.2686604)
(1907.7631 146.36218 -1.9720243)
(1957.7468 143.18332 -1.8599264)
(2007.973 139.67727 -1.7266206)
(2058.7178 136.19001 -1.8265405)
(2109.729 132.72253 -1.9250364)
(2161.2804 129.12483 -2.0779584)
(2212.9781 125.6074 -2.1540807)
(2265.0443 122.10457 -2.1894188)
(2317.0255 118.51839 -1.8960179)
(2369.0799 114.97153 -1.6236981)
(2421.0495 111.15329 -0.84816644)
(2473.0059 107.40938 -0.17431815)
(-9.3841285 -8.4397546 -14.763303)
(-33.092396 -6.1454135 -15.267207)
(-61.752558 -6.4567547 -17.773754)
(-98.259163 -5.7997901 -15.12422)
(-142.08923 -4.5560028 -11.429603)
(-192.00867 -3.8923102 -5.4276015)
(-247.03361 -3.0898456 1.2512918)
(-305.35824 -2.5114114 8.6393742)
(-364.99693 -2.0841187 15.953762)
(-423.6998 -1.6339381 22.734027)
(-479.28833 -0.92410807 28.650651)
(-529.7217 0.21925459 33.335841)
(-573.3114 2.1377624 36.712048)
(-608.80924 4.9581583 38.718735)
(-635.47553 8.8513336 39.51841)
(-653.07639 13.774416 39.255943)
(-661.86001 19.660192 38.206364)
(-662.44249 26.290802 36.580437)
(-655.77837 33.438839 34.612998)
(-643.00808 40.804821 32.406388)
(-625.37751 48.164213 30.110911)
(-604.14314 55.273447 27.727783)
(-580.52282 62.001931 25.283381)
(-555.58621 68.228249 22.738523)
(-530.22794 73.94388 20.092184)
(-505.13603 79.134924 17.302263)
(-480.72771 83.837001 14.409579)
(-457.23128 88.119269 11.39994)
(-434.60976 92.037786 8.3418844)
(-412.68828 95.681569 5.3006753)
(-391.12995 99.100825 2.3723393)
(-369.57434 102.39986 -0.33045679)
(-347.66326 105.62474 -2.6851745)
(-325.0339 108.79097 -4.527493)
(-301.4826 111.95685 -5.7958427)
(-276.81806 115.04411 -6.3270628)
(-250.90199 118.05702 -6.1869902)
(-223.86344 120.73408 -5.2912045)
(-195.31908 123.25046 -3.7562951)
(-165.36365 125.20351 -1.8692001)
(-133.86311 126.71309 0.36182361)
(-100.7715 127.72865 2.6216888)
(-65.969447 128.29656 4.7614518)
(-29.417973 128.48998 6.5983314)
(8.820926 128.4409 8.0149859)
(48.629453 128.26435 8.9654186)
(89.806986 128.09637 9.4588056)
(132.08936 128.03081 9.5394835)
(175.18973 128.14772 9.28593)