/*--------------------------------*- C++ -*----------------------------------*\
  =========                 |
  \\      /  F ield         | OpenFOAM: The Open Source CFD Toolbox
   \\    /   O peration     | Website:  https://openfoam.org
    \\  /    A nd           | Version:  6
     \\/     M anipulation  |
\*---------------------------------------------------------------------------*/
FoamFile
{
    version     2.0;
    format      ascii;
    class       pointVectorField;
    location    "0.59";
    object      lm;
}
// * * * * * * * * * * * * * * * * * * * * * * * * * * * * * * * * * * * * * //

dimensions      [1 -2 -1 0 0 0 0];

internalField   nonuniform List<vector> 
625
(
(-3.6361799e-15 2.112754e-16 -3.2990721e-16)
(2.8178306e-17 1.9013092e-16 6.1994168e-17)
(-2786.201 879.74779 515.84005)
(-2696.8913 1436.3693 161.20556)
(6.5239771e-16 2.739523e-16 -5.5565719e-16)
(-3.7042918e-15 1.4868296e-15 -1.3023874e-15)
(-2416.0459 1129.009 149.24421)
(-2518.2518 582.60547 507.20532)
(-1.9658614e-16 -3.2115893e-17 -1.1045223e-16)
(1.4766345e-16 -3.4299605e-16 -2.8648028e-16)
(-1.0135278e-15 7.0169807e-16 1.7538027e-16)
(-2547.125 935.96797 397.74572)
(-2594.4148 1093.3752 327.60375)
(-2775.2071 1318.6339 259.98605)
(-24.613157 -35.955234 -20.776965)
(-72.04558 -71.06739 -3.7382464)
(-143.90218 -102.28348 8.4328235)
(-238.64053 -122.69287 25.423563)
(-348.53963 -132.39767 39.669788)
(-477.44439 -132.73321 54.521164)
(-617.78408 -119.18379 67.956525)
(-768.23659 -94.171676 80.592966)
(-926.89816 -57.337361 92.654507)
(-1086.877 -9.4820291 103.72288)
(-1247.4269 47.759184 115.73993)
(-1404.9014 112.68343 129.12651)
(-1556.4047 183.5927 145.6224)
(-1700.2196 258.13156 165.90694)
(-1834.221 333.88656 190.69018)
(-1957.7586 408.46937 219.85708)
(-2069.9766 479.87716 251.83634)
(-2172.7282 545.48874 287.61322)
(-2264.0706 605.63241 322.36419)
(-2352.3759 660.85461 359.50978)
(-2433.2824 708.88543 395.35077)
(-2512.8838 755.70836 429.13058)
(-2592.1162 798.5144 462.78105)
(-9.7228012 37.383182 47.355306)
(-57.507474 80.336821 16.50688)
(-128.43431 133.77612 6.3290102)
(-206.31289 177.69005 -16.251365)
(-298.15919 221.78675 -34.242658)
(-403.45865 272.66322 -54.764457)
(-515.16699 318.66598 -73.722495)
(-633.77898 368.46164 -93.399785)
(-757.89157 421.47944 -111.45543)
(-886.6358 477.01133 -128.7136)
(-1018.0127 536.71284 -142.90457)
(-1151.5552 600.21735 -153.19664)
(-1286.4199 667.7267 -158.17783)
(-1422.1833 738.50489 -156.54118)
(-1557.8296 811.99353 -147.52394)
(-1692.9472 886.99449 -130.54341)
(-1826.55 962.77147 -105.56625)
(-1958.1819 1038.1836 -73.912247)
(-2087.3648 1111.7514 -36.237357)
(-2213.2371 1183.6985 3.9392292)
(-2335.0533 1250.6281 45.848137)
(-2451.5774 1312.3047 85.708624)
(-2571.3935 1372.0214 126.13518)
(-4.8813632e-16 1.9183015e-16 -1.0607077e-16)
(-2.6214496e-15 -5.6404768e-16 7.244144e-16)
(-2.4010456e-15 1.4295629e-15 -1.6975308e-16)
(-1.9552568 25.431267 -46.246659)
(-7.5500347 98.04997 -69.550279)
(-53.43839 124.65244 -74.108395)
(-100.74903 167.96734 -84.786393)
(-168.36866 215.71522 -97.698953)
(-251.77413 249.93095 -103.18916)
(-335.29936 291.3126 -118.27774)
(-435.6617 331.78124 -128.61769)
(-539.45627 369.08856 -140.00817)
(-648.14813 407.52667 -150.95044)
(-762.73435 446.9115 -160.91544)
(-881.21781 486.32664 -167.95811)
(-1005.3319 529.06569 -171.21458)
(-1133.6597 573.12494 -169.27491)
(-1265.5176 620.10951 -161.465)
(-1399.5001 669.25741 -147.18806)
(-1533.7149 720.69238 -126.3663)
(-1666.7226 774.45158 -98.956926)
(-1796.8843 830.07652 -65.509783)
(-1923.0097 887.36799 -26.606038)
(-2043.7602 944.51425 16.073831)
(-2157.6393 1001.1183 60.674795)
(-2250.7565 1048.6122 103.58662)
(-2506.6917 1013.4412 247.0612)
(-2307.3935 796.5208 310.31628)
(-2352.2714 673.47013 396.61876)
(-2351.0574 514.42406 456.54828)
(-2281.4948 471.07729 421.46998)
(-2193.708 423.20877 383.57259)
(-2102.3722 377.75928 344.09657)
(-2005.6642 332.95196 304.61086)
(-1901.8158 287.29544 266.45683)
(-1790.7081 241.89328 230.97178)
(-1671.3665 194.73665 199.04118)
(-1544.5802 147.4691 171.531)
(-1411.2526 99.760734 148.62059)
(-1272.9285 52.98569 130.04634)
(-1131.3256 8.0097292 115.75179)
(-988.93159 -33.94874 104.89505)
(-853.85489 -72.453094 98.206617)
(-705.66477 -103.01102 90.662218)
(-573.27939 -127.17274 87.912074)
(-448.25005 -142.43941 84.413705)
(-332.55607 -147.6242 80.032938)
(-229.53683 -145.29975 77.367969)
(-141.00727 -127.92791 69.989535)
(-75.241285 -107.61945 64.329132)
(-21.779211 -71.457453 53.695775)
(-14.268368 -36.323665 34.582365)
(-1.3028228e-15 -3.4252847e-16 3.3068324e-16)
(-2.0449562e-15 -3.5718549e-16 -7.3673077e-16)
(-1.4121951e-15 -1.0527101e-15 6.223458e-16)
(-1.2019486e-15 6.189313e-16 -3.4292956e-16)
(-1.2511779e-16 -6.848356e-17 2.1836215e-16)
(-3.8898857e-17 4.7141393e-16 -3.1043199e-16)
(-2626.5089 1361.9061 159.49046)
(-2556.2056 1284.6372 156.43025)
(-2486.2004 1208.0788 151.65329)
(-2720.6402 804.61694 513.8152)
(-2653.1998 731.24889 509.39195)
(-2585.7135 658.10008 509.55267)
(-7.5219226 -10.328879 -11.38636)
(-48.415104 -28.170029 0.42250946)
(-109.84172 -42.167434 3.885861)
(-196.602 -48.601219 13.139233)
(-301.59585 -51.720394 18.047839)
(-431.99593 -41.505845 25.853478)
(-577.1326 -20.29284 31.318598)
(-736.66807 13.570891 37.090212)
(-904.07049 61.076279 42.798001)
(-1071.0267 119.74499 48.871732)
(-1233.8494 187.97622 55.808303)
(-1385.8579 262.05609 64.917575)
(-1524.6822 338.532 76.875623)
(-1648.6957 413.91404 92.28784)
(-1758.1752 485.20732 111.55622)
(-1854.9858 550.81703 134.17405)
(-1941.4748 609.23863 160.23212)
(-2021.8493 661.92805 189.00727)
(-2098.8891 709.34797 219.52823)
(-2178.7409 753.86114 253.02759)
(-2261.1083 798.21944 286.52032)
(-2352.9201 843.47026 323.66652)
(-2466.322 896.2431 363.16707)
(1.6694596 -4.2832613 4.0758383)
(-52.057326 -7.5567199 8.2974213)
(-126.30803 -3.4661785 8.7056299)
(-225.69248 6.8018496 7.4129963)
(-342.50933 28.715068 6.2077898)
(-471.94663 57.726603 3.5696249)
(-608.25408 95.253405 -0.76868688)
(-746.99463 139.77567 -4.5811012)
(-882.98655 189.82242 -9.024304)
(-1013.4629 243.11151 -12.521339)
(-1136.3588 299.24085 -13.914444)
(-1251.2469 356.07241 -12.640314)
(-1359.5437 413.77648 -7.5668546)
(-1462.9064 471.82069 1.8303502)
(-1563.9741 530.5915 16.139382)
(-1665.3501 590.39775 35.676892)
(-1769.773 651.82745 60.490955)
(-1880.5045 715.56677 90.455086)
(-1998.2677 781.5723 125.34104)
(-2127.2094 851.5482 164.14325)
(-2264.0766 922.85258 207.17574)
(-2412.6033 998.67744 251.42184)
(-2549.81 1066.8785 295.57059)
(4.9020227 15.684163 21.373188)
(-61.212839 34.858157 13.780001)
(-143.03269 62.267469 2.4500137)
(-248.14839 98.135047 -9.1406274)
(-360.15904 135.49514 -22.025804)
(-480.57699 174.60039 -35.026924)
(-599.99175 217.87103 -47.088098)
(-717.42596 261.40316 -57.993815)
(-831.21539 306.59471 -66.883681)
(-940.69647 353.54282 -73.03326)
(-1048.4574 402.74599 -76.877749)
(-1155.61 454.54859 -77.352002)
(-1264.9013 510.21156 -74.861019)
(-1377.9528 570.05703 -68.644498)
(-1496.4198 634.6022 -58.258156)
(-1621.0231 704.0096 -43.126629)
(-1752.4604 777.66131 -22.337316)
(-1890.2176 854.98325 4.5993705)
(-2034.7131 935.65 37.469933)
(-2184.553 1016.789 77.175393)
(-2338.8519 1099.1559 120.24537)
(-2493.9279 1180.4874 167.16163)
(-2626.3325 1244.4968 213.66968)
(-2.5953868e-15 -2.1703571e-16 4.2716933e-18)
(-3.8783653e-15 3.5858996e-16 7.5215743e-16)
(-9.8459492e-16 7.8127033e-16 2.7525688e-16)
(-3.9146975e-16 7.8165185e-18 1.2560621e-16)
(1.6350797e-16 -2.4226884e-16 -1.2066667e-17)
(-1.0304172e-15 -9.2669207e-16 -7.5672327e-16)
(-6.4481012e-16 3.525084e-16 2.7116342e-16)
(-3.5205005e-15 9.4737515e-16 -2.5196009e-17)
(-3.8147498e-15 1.043275e-15 1.2924308e-16)
(-25.136096 20.423401 15.374963)
(-25.203513 22.340734 -7.7368985)
(-16.728072 10.69966 -22.829767)
(-66.560174 102.30819 -3.7274592)
(-52.799121 96.783366 -24.910378)
(-37.909272 83.767509 -48.937783)
(-124.24017 140.77612 -14.39825)
(-108.86238 130.19808 -34.278861)
(-88.463746 129.06099 -58.610998)
(-190.42112 185.53135 -34.332003)
(-169.1642 182.16898 -51.626399)
(-140.69818 167.18562 -70.811068)
(-278.24206 235.82073 -50.356554)
(-247.70997 226.31167 -64.698313)
(-214.36305 217.28688 -83.706133)
(-372.18416 279.02689 -68.211603)
(-336.30001 268.83224 -82.445635)
(-297.02594 256.30025 -94.431293)
(-475.19234 324.46699 -86.586418)
(-434.00284 312.48804 -96.10411)
(-389.85551 296.363 -108.80937)
(-588.62927 371.3265 -104.88488)
(-538.65041 355.90967 -112.86256)
(-491.02695 338.55118 -122.75586)
(-705.93633 419.49747 -122.01924)
(-651.20795 401.42427 -129.40921)
(-597.98741 379.04054 -135.74743)
(-827.67264 469.79164 -138.32442)
(-767.89702 446.85782 -144.07044)
(-709.5867 420.20691 -148.77394)
(-953.56673 523.26092 -151.71517)
(-889.22011 495.48192 -156.7897)
(-826.57409 463.86601 -159.9531)
(-1082.3211 579.22099 -161.47912)
(-1014.4912 545.95884 -165.96656)
(-947.46493 509.08752 -168.189)
(-1214.4126 639.18908 -166.00344)
(-1143.4096 600.5304 -170.52326)
(-1072.8972 557.83217 -171.7918)
(-1348.5448 701.8353 -164.11832)
(-1275.5915 657.41061 -169.14783)
(-1202.6257 609.25546 -169.855)
(-1484.4723 767.36011 -155.07144)
(-1410.2475 717.67593 -161.16839)
(-1335.5338 663.47507 -161.38565)
(-1621.0513 834.84908 -138.48021)
(-1546.0287 779.79568 -145.87878)
(-1470.86 720.03446 -146.11277)
(-1756.8149 903.7165 -114.41633)
(-1681.818 843.67546 -123.07343)
(-1606.6587 778.69149 -123.99352)
(-1890.9106 973.15299 -83.600594)
(-1815.6941 908.72845 -93.577061)
(-1741.5459 839.11578 -95.26048)
(-2021.2361 1042.584 -47.404149)
(-1947.0526 973.75174 -57.729717)
(-1873.7892 900.75278 -60.725479)
(-2147.589 1110.6397 -7.3623042)
(-2073.7175 1038.6554 -17.604052)
(-2001.5548 963.09819 -21.244623)
(-2267.8167 1175.3801 34.248443)
(-2195.4096 1100.7357 25.677966)
(-2123.9262 1024.1683 21.457426)
(-2381.5388 1236.1902 76.855449)
(-2309.6174 1159.9704 69.782138)
(-2238.8601 1082.3568 65.268623)
(-2485.5643 1289.2816 118.36605)
(-2415.6575 1211.8641 111.81522)
(-2345.5144 1136.0423 108.94599)
(-2505.2176 872.67183 397.64182)
(-2442.5388 803.85314 394.04443)
(-2379.5136 734.10316 393.28071)
(-2503.3842 1010.07 319.71823)
(-2447.4406 943.19213 316.51633)
(-2384.4889 872.91459 315.30331)
(-2684.5234 1229.6165 254.08086)
(-2626.0779 1159.741 250.86385)
(-2556.4628 1081.5812 248.25228)
(-36.197173 -36.777764 -4.289961)
(-31.752343 -33.698148 8.7250885)
(-29.660898 -26.315487 19.433318)
(-73.478625 -73.646186 11.87987)
(-63.448506 -66.492023 25.305553)
(-47.563108 -61.681313 40.033464)
(-141.46347 -106.927 21.72245)
(-123.25221 -104.1654 33.380538)
(-106.44407 -97.723374 51.089972)
(-223.57199 -126.81853 36.272718)
(-202.00072 -120.9913 45.747994)
(-176.01705 -117.39457 60.008394)
(-328.90738 -139.61711 45.640243)
(-299.9646 -136.49225 55.713621)
(-267.96446 -134.42307 67.092069)
(-447.82857 -140.5998 58.725866)
(-411.16121 -138.27914 63.3714)
(-375.01629 -135.7629 73.213996)
(-580.32342 -127.54864 68.002064)
(-539.83012 -128.56444 72.311101)
(-496.15157 -129.43538 79.238667)
(-723.97381 -105.40613 78.107073)
(-675.48399 -108.9203 80.839772)
(-627.56632 -111.97455 84.687419)
(-874.83868 -71.390479 88.54094)
(-819.69846 -77.724123 87.650947)
(-766.80641 -86.377951 88.954051)
(-1023.5812 -25.84361 97.349905)
(-969.46102 -39.564334 96.487436)
(-910.47438 -49.613957 95.602173)
(-1181.6153 27.598549 109.30103)
(-1120.5737 9.8130063 106.81333)
(-1057.9476 -7.2734935 104.52711)
(-1334.1241 87.628762 122.18157)
(-1270.5507 63.300322 119.02068)
(-1204.2007 40.772684 115.23702)
(-1482.3517 152.42244 138.44727)
(-1416.9426 121.74448 134.03517)
(-1347.6444 92.421562 129.70895)
(-1623.7542 219.87273 157.85621)
(-1557.403 182.53482 152.8512)
(-1486.2709 146.25382 148.17249)
(-1756.6635 287.96335 181.65057)
(-1690.1262 244.13952 175.73964)
(-1617.9222 200.82157 171.19561)
(-1880.1977 354.69683 209.09465)
(-1813.8932 304.85863 202.90326)
(-1741.6566 254.65415 198.56394)
(-1993.8414 418.95207 240.69095)
(-1928.1761 363.13904 233.95301)
(-1856.3698 306.94623 230.5277)
(-2098.6354 478.02059 274.86526)
(-2033.2017 418.16534 268.45498)
(-1963.1162 357.33696 265.68665)
(-2195.2003 535.02526 311.30954)
(-2130.8202 470.67556 305.68516)
(-2061.2921 404.98706 303.58654)
(-2286.6756 586.34277 350.10252)
(-2221.2406 518.76739 343.18241)
(-2153.9229 451.66061 343.01332)
(-2371.6864 634.56721 387.26886)
(-2306.4495 564.29676 382.45071)
(-2240.9745 496.59129 382.18662)
(-2456.1958 682.4678 422.98503)
(-2391.6637 612.47971 420.88148)
(-2326.3189 543.43942 420.3725)
(-2538.6843 728.31487 461.4623)
(-2474.5024 657.05546 459.49714)
(-2408.3371 586.53727 457.69943)
(8.3503186 -13.042438 19.139532)
(-6.8450183 -47.265737 31.257123)
(-42.635311 -51.596094 31.530551)
(-100.71282 -64.38217 38.245406)
(-178.83923 -67.251848 42.719307)
(-275.13361 -61.64282 41.566518)
(-392.38546 -50.088833 43.780135)
(-521.4086 -27.583279 41.65057)
(-665.69038 4.632506 41.96276)
(-815.26464 42.979667 40.880345)
(-967.2988 88.438184 43.763882)
(-1116.8092 137.33694 48.775782)
(-1260.9929 187.58136 59.016673)
(-1396.8255 237.62555 74.395532)
(-1522.3922 285.68948 95.592694)
(-1636.9516 331.46792 121.97342)
(-1740.351 374.58301 152.68239)
(-1833.6992 415.53441 186.04678)
(-1918.9981 455.49602 221.2054)
(-1998.0782 494.92981 256.27871)
(-2074.1892 535.12795 290.99762)
(-2151.9865 576.34788 324.87827)
(-2216.4986 615.00976 356.3995)
(23.305533 -7.9414605 1.5714371)
(3.3141123 -9.4388987 -1.9159413)
(-44.84561 -5.0487164 -5.977067)
(-112.18391 0.50516443 -4.3423225)
(-200.71758 13.275696 -10.2027)
(-306.75673 37.049681 -13.324706)
(-422.44581 63.446063 -17.471037)
(-546.54403 97.876149 -20.924894)
(-672.31022 135.20182 -25.086114)
(-795.15204 174.05663 -26.730746)
(-914.28099 213.65298 -27.402248)
(-1026.8924 250.92485 -24.720373)
(-1133.9465 287.70366 -18.676603)
(-1235.9075 322.50865 -7.9561599)
(-1334.2856 357.81317 7.421343)
(-1430.9271 393.84713 27.777532)
(-1527.6489 432.42987 53.021621)
(-1626.9859 474.10721 82.547731)
(-1730.498 520.40537 116.44653)
(-1840.9899 571.08694 153.08869)
(-1958.5378 626.36256 192.39926)
(-2086.5608 687.65182 233.79962)
(-2243.6735 758.72472 277.91379)
(31.898527 26.641486 -28.115063)
(-6.9432439 41.420415 -37.096095)
(-59.944732 83.744964 -44.506465)
(-131.21473 103.31623 -48.434679)
(-220.66519 139.62174 -56.092315)
(-316.56762 174.8059 -60.963109)
(-414.71413 206.11925 -68.051284)
(-514.16224 238.97778 -74.814584)
(-612.56722 271.05956 -80.769139)
(-709.10707 300.92643 -85.859805)
(-805.75538 331.09008 -88.93033)
(-903.6976 361.4855 -89.499833)
(-1005.4988 393.64147 -86.581256)
(-1112.5035 429.04226 -79.695294)
(-1225.7181 468.23764 -68.371066)
(-1345.7909 511.74459 -52.118112)
(-1472.5686 559.4669 -30.723281)
(-1606.0409 611.55071 -3.8865076)
(-1745.4117 667.76493 28.274343)
(-1890.3244 728.27269 65.191415)
(-2038.3264 793.01962 107.56104)
(-2188.0453 861.34408 151.70934)
(-2343.9079 934.45686 199.96638)
(-11.542082 -7.7151413 -2.3613656)
(-7.1190424 -8.3907323 5.5468263)
(-7.3618036 -7.3890033 11.825591)
(-51.74413 -33.57389 8.176858)
(-44.517093 -32.404331 14.551356)
(-29.859094 -34.701453 22.928008)
(-106.59907 -43.185616 11.610796)
(-89.711373 -41.498718 18.785345)
(-73.870149 -45.013787 26.804938)
(-182.76034 -53.486286 18.786451)
(-163.21732 -52.274912 26.782232)
(-138.83719 -54.667142 33.071501)
(-280.08219 -54.718902 24.429188)
(-253.27644 -53.420567 30.010314)
(-223.26772 -57.925141 37.23572)
(-397.85934 -45.651711 28.991963)
(-363.11302 -46.43762 34.311352)
(-326.93267 -52.340707 39.046498)
(-532.55601 -27.165105 33.143378)
(-491.76567 -29.292997 37.008972)
(-449.68032 -36.980424 40.122201)
(-682.44421 3.6642119 37.105905)
(-634.011 -1.2790866 38.221602)
(-585.15442 -12.682312 39.635944)
(-841.29041 46.830428 40.027559)
(-786.84892 38.19941 39.575246)
(-732.28192 23.301612 39.546205)
(-1004.0638 100.48825 44.275297)
(-944.02092 87.245898 40.883529)
(-884.07385 66.881435 39.734741)
(-1164.6265 163.01258 49.442676)
(-1100.0316 144.52969 44.457994)
(-1035.5806 117.73179 42.072184)
(-1318.0924 231.08897 56.951743)
(-1250.3312 206.03606 50.290978)
(-1182.6885 172.28419 47.194182)
(-1461.0613 301.77489 67.865415)
(-1391.6788 270.01456 60.304976)
(-1321.6066 228.80017 57.191448)
(-1591.3652 371.64358 82.693557)
(-1521.5412 333.11989 75.46009)
(-1450.6398 284.57897 72.364879)
(-1708.3454 438.30156 102.09286)
(-1639.2694 393.24103 95.644926)
(-1568.4093 337.94773 93.099219)
(-1812.7262 499.91491 125.57362)
(-1744.9802 448.92999 121.06581)
(-1675.198 388.07457 118.96617)
(-1906.2366 555.47733 153.10678)
(-1840.3033 499.57274 150.47673)
(-1771.842 434.6351 149.22378)
(-1991.6274 605.93032 183.53231)
(-1926.8795 545.89807 183.25116)
(-1860.8411 478.3406 182.23717)
(-2071.4632 652.11545 216.61065)
(-2009.7126 589.19947 217.69501)
(-1943.7517 519.41267 217.4418)
(-2159.4334 697.34251 252.2166)
(-2080.8692 627.00428 252.83556)
(-2025.4876 560.34379 252.93757)
(-2235.9114 738.62728 286.96528)
(-2161.6427 669.43654 288.91408)
(-2106.0437 601.3364 288.35058)
(-2315.3853 780.14955 324.0092)
(-2253.1643 712.90845 325.46971)
(-2192.1949 642.92538 323.41421)
(-2405.1935 825.06271 361.24024)
(-2342.7556 756.88193 360.44404)
(-2279.7391 687.20679 358.03007)
(-6.0459992 -4.627822 3.6542839)
(-1.8300771 -4.8378911 4.8582743)
(1.2985145 -8.2414727 3.2617148)
(-51.486272 -6.1553406 9.4140945)
(-40.921117 -7.5514829 7.0360536)
(-23.904571 -9.0316202 1.990055)
(-120.97338 -1.9317319 7.8373424)
(-100.49344 -2.3626798 2.048469)
(-82.707848 -5.3694139 -1.1211777)
(-208.42365 9.1019714 7.1276267)
(-185.14774 9.4334421 3.5877515)
(-155.5079 7.6933276 -1.5346549)
(-318.76076 28.992367 4.7472786)
(-284.17984 27.570041 -1.8473813)
(-249.31865 20.8655 -5.8092349)
(-439.59706 56.233631 0.42910411)
(-400.02307 52.833307 -4.0691926)
(-358.69763 46.529229 -9.5582899)
(-571.53897 91.886763 -3.9117127)
(-524.77134 86.693398 -9.9846567)
(-476.72289 77.025017 -14.626498)
(-706.49295 134.21116 -9.5668026)
(-653.31097 125.15136 -15.161678)
(-600.449 112.2422 -18.598786)
(-840.79041 181.63813 -14.886579)
(-782.65939 169.16021 -20.252727)
(-725.33829 152.04654 -23.858314)
(-970.2262 232.28114 -19.55037)
(-907.75122 214.67932 -24.289294)
(-846.92697 193.18197 -26.786251)
(-1093.0845 284.66763 -21.978594)
(-1027.4415 261.88016 -25.998469)
(-964.25993 235.29696 -28.284433)
(-1208.226 337.56218 -21.449799)
(-1140.5538 308.32123 -24.987918)
(-1075.805 276.64439 -26.663552)
(-1316.3106 390.0126 -16.796251)
(-1247.4716 354.76513 -19.26853)
(-1182.3176 317.83274 -21.214977)
(-1418.8575 442.13249 -7.5097938)
(-1349.8265 400.45844 -9.1293987)
(-1285.0713 358.45235 -11.465428)
(-1517.7869 494.14648 7.1995956)
(-1449.3707 446.63784 6.4910085)
(-1385.3556 399.75344 3.5737024)
(-1615.7517 546.60183 27.157333)
(-1548.4398 493.74911 27.346293)
(-1485.3511 442.48135 23.672739)
(-1715.2566 600.3615 52.742507)
(-1649.2975 543.22098 53.460971)
(-1586.9544 487.5512 49.217472)
(-1819.1037 656.38919 83.290498)
(-1754.5909 595.24637 84.277186)
(-1692.5272 535.99152 79.605801)
(-1929.3268 714.68005 118.56096)
(-1865.545 651.15541 119.49395)
(-1803.6187 587.89662 115.01197)
(-2048.2725 777.26123 157.53563)
(-1985.222 709.69177 158.25247)
(-1922.7782 645.41234 153.24993)
(-2165.1458 838.14965 199.04643)
(-2129.7452 779.12475 198.46192)
(-2048.1725 705.3558 196.00456)
(-2313.8101 911.02762 243.96126)
(-2249.3506 842.51822 242.36562)
(-2185.5359 770.22065 238.77469)
(-2456.4026 981.58765 288.64928)
(-2390.8905 909.70927 286.10624)
(-2324.1873 837.23843 282.70591)
(-4.9883693 16.191557 9.5463517)
(3.2729398 12.237816 -3.5526568)
(9.4989719 14.45228 -14.322069)
(-66.840699 42.977244 2.472351)
(-56.713292 33.77684 -14.123256)
(-35.85773 39.914798 -26.717466)
(-138.75583 75.689157 -9.1995809)
(-119.33481 79.618819 -23.517963)
(-95.243984 79.287683 -35.548443)
(-233.42426 113.48456 -19.284808)
(-206.46622 107.08248 -32.494124)
(-173.53468 106.69876 -41.5146)
(-337.25574 147.55125 -32.887812)
(-303.03491 145.29807 -42.879402)
(-265.03132 141.20475 -50.896938)
(-449.03487 187.43899 -43.933154)
(-408.49344 182.89371 -52.589494)
(-364.03817 176.41819 -58.379923)
(-561.62545 227.61799 -55.736577)
(-514.86959 219.47687 -63.022181)
(-465.9748 210.69781 -67.252539)
(-673.36522 267.71765 -66.281507)
(-621.16002 257.3069 -71.294376)
(-568.21389 244.54417 -75.165609)
(-782.01838 308.88632 -74.949415)
(-725.6142 294.38383 -79.247748)
(-669.09359 278.958 -81.768296)
(-887.91274 350.62299 -81.009479)
(-827.74697 332.01193 -84.831368)
(-768.29338 312.74953 -86.952788)
(-992.47705 394.02547 -84.771762)
(-929.79009 370.55189 -88.272753)
(-867.07148 347.11933 -90.11085)
(-1096.9698 439.27126 -85.260534)
(-1031.9187 410.87129 -88.640631)
(-966.67915 383.10635 -90.699367)
(-1203.9217 487.84523 -82.796356)
(-1137.5505 454.23067 -86.022333)
(-1069.5991 421.29918 -88.154606)
(-1314.8025 540.1413 -76.616325)
(-1247.4815 501.54866 -79.589491)
(-1177.2433 462.9457 -81.86051)
(-1431.1402 596.8115 -66.352639)
(-1363.3914 553.24482 -68.917986)
(-1291.0318 508.44278 -71.226516)
(-1553.7734 657.95212 -51.349248)
(-1485.6235 609.68284 -53.298981)
(-1411.8886 558.41492 -55.74446)
(-1682.9546 723.37668 -30.549868)
(-1614.5997 670.43599 -32.152284)
(-1540.0663 612.67073 -34.632668)
(-1818.6847 792.96021 -3.8796903)
(-1749.827 735.03172 -4.7801445)
(-1675.2126 671.43794 -7.6020001)
(-1960.3086 865.55523 29.505837)
(-1891.1057 802.90622 28.723786)
(-1817.1331 734.66381 25.449439)
(-2107.3983 940.887 69.078588)
(-2037.3252 873.96786 68.0405)
(-1964.1239 801.39851 64.264728)
(-2257.7621 1018.0246 112.82942)
(-2186.6971 946.31832 111.69485)
(-2115.1388 872.30331 108.37637)
(-2409.0616 1094.266 160.61327)
(-2337.7486 1020.1837 159.08718)
(-2266.7315 943.79097 155.63726)
(-2557.11 1167.4441 209.16903)
(-2486.4847 1091.3963 206.48271)
(-2415.3603 1013.2542 202.34986)
)
;

boundaryField
{
    free
    {
        type            zeroGradient;
    }
    fixed
    {
        type            fixedValue;
        value           nonuniform List<vector> 
25
(
(-2.5953868e-15 -2.1703571e-16 4.2716933e-18)
(-1.3028228e-15 -3.4252847e-16 3.3068324e-16)
(-1.9658614e-16 -3.2115893e-17 -1.1045223e-16)
(-3.6361799e-15 2.112754e-16 -3.2990721e-16)
(-3.8783653e-15 3.5858996e-16 7.5215743e-16)
(-2.0449562e-15 -3.5718549e-16 -7.3673077e-16)
(-9.8459492e-16 7.8127033e-16 2.7525688e-16)
(-1.4121951e-15 -1.0527101e-15 6.223458e-16)
(-4.8813632e-16 1.9183015e-16 -1.0607077e-16)
(6.5239771e-16 2.739523e-16 -5.5565719e-16)
(-3.9146975e-16 7.8165185e-18 1.2560621e-16)
(1.4766345e-16 -3.4299605e-16 -2.8648028e-16)
(1.6350797e-16 -2.4226884e-16 -1.2066667e-17)
(-1.0304172e-15 -9.2669207e-16 -7.5672327e-16)
(-2.6214496e-15 -5.6404768e-16 7.244144e-16)
(-6.4481012e-16 3.525084e-16 2.7116342e-16)
(-1.0135278e-15 7.0169807e-16 1.7538027e-16)
(-3.5205005e-15 9.4737515e-16 -2.5196009e-17)
(-3.8147498e-15 1.043275e-15 1.2924308e-16)
(-2.4010456e-15 1.4295629e-15 -1.6975308e-16)
(-1.2019486e-15 6.189313e-16 -3.4292956e-16)
(2.8178306e-17 1.9013092e-16 6.1994168e-17)
(-1.2511779e-16 -6.848356e-17 2.1836215e-16)
(-3.8898857e-17 4.7141393e-16 -3.1043199e-16)
(-3.7042918e-15 1.4868296e-15 -1.3023874e-15)
)
;
    }
    freeTop
    {
        type            zeroGradient;
    }
}


// ************************************************************************* //
