/*--------------------------------*- C++ -*----------------------------------*\
  =========                 |
  \\      /  F ield         | OpenFOAM: The Open Source CFD Toolbox
   \\    /   O peration     | Website:  https://openfoam.org
    \\  /    A nd           | Version:  6
     \\/     M anipulation  |
\*---------------------------------------------------------------------------*/
FoamFile
{
    version     2.0;
    format      ascii;
    class       pointScalarField;
    location    "0.59";
    object      p;
}
// * * * * * * * * * * * * * * * * * * * * * * * * * * * * * * * * * * * * * //

dimensions      [1 -1 -2 0 0 0 0];

internalField   nonuniform List<scalar> 
625
(
705003.48
-1062952.8
-1208.9303
5817.0984
1288493.6
-2107472
4448.6073
-903.085
479232.98
24404.33
-144658.91
-2574.5207
21.439584
3385.394
336572.97
331182.6
332205.12
316634.21
276108.97
268557.82
241228
220670.63
218942.19
192682.61
188540.29
175650.59
166147.51
152701.75
139269.03
123291.54
105003.62
87139.892
67079.283
47261.809
30293.281
12478.475
2646.5126
-359971.14
-217308.18
-309500.98
-242501.49
-234501.67
-236507.26
-214286.35
-205982.73
-201130.11
-189649.75
-182433.53
-170307.5
-161543.11
-146868.51
-131536.41
-113750.88
-93762.508
-74586.641
-52110.078
-36622.549
-18141.231
-6394.2629
2157.3602
738203.38
-53618.972
-300913.52
-369776.33
-488778.13
-370712.93
-337465.55
-408885.3
-334895.18
-327386.09
-326840.76
-312784.7
-296539.5
-269843.83
-248908.54
-217427.04
-189768.45
-161520.13
-130221.45
-104233.23
-78084.636
-54815.025
-35260.577
-17946.288
-4603.4602
3829.685
3392.8389
-1702.394
-2657.6097
2156.9232
9237.6604
20429.503
36729.638
55492.622
77077.261
98523.888
120909.71
142261.95
161767.42
180188.47
197698.19
211948.65
213488.87
256860.57
255882.66
272234.24
274153.98
324883.21
289881.27
343257.33
349055.85
319655.21
761664.52
738026.61
666920.48
-1171678.9
-1163816.4
-1167162.5
6969.5601
6659.0012
9186.4332
-3592.3752
-2608.6635
-1561.702
140477.58
167411.24
181207.44
166065.15
167175.84
173438.68
157555.19
159447.75
148825.98
142623.99
136441.07
126047.37
114082.51
100719.41
87583.01
71831.459
57214.674
43257.19
28874.59
19533.068
9760.0086
4585.9444
1431.9441
-22992.759
5062.0549
-13954.897
8782.8179
-2299.2695
553.55855
-5393.3272
-3495.808
-8963.9278
-15370.378
-18444.291
-22745.357
-24735.866
-23922.202
-22110.449
-19013.583
-14312.333
-9194.2295
-5690.5779
-1240.2649
-949.03039
2930.5085
2208.1278
-237094.8
-209242.98
-204016.15
-178833.37
-210910.37
-175048.74
-180800.56
-164661.15
-155767.33
-141226.8
-125287.55
-110106.36
-94554.256
-79783.041
-66442.97
-54277.659
-43189.249
-32724.579
-25186.651
-14826.807
-9073.1455
-5290.797
-303.00678
400407.9
372624.73
421467.66
-17756.184
10384.589
-31393.381
-119454.02
-162075.11
-245964.96
-509138.14
-510284.11
-538520.01
-414764.75
-381872
-354185.26
-363320.41
-336138.48
-345846.58
-304942.1
-298884.47
-298375.02
-314319.14
-312786.9
-321092.41
-300087.37
-291102.67
-290826.62
-288134.05
-283145.15
-305224.05
-279105.57
-271042.8
-284459.25
-263311.81
-257903.08
-271532.32
-246678.74
-242679.45
-258203.26
-226190.88
-223859.08
-237802.66
-206408.17
-204975.88
-218173.25
-182054.86
-182127.14
-192785.11
-157781.64
-157828.67
-166948.03
-132504.06
-133189.71
-141476.7
-107618.53
-108783.13
-114143.97
-84333.281
-83945.793
-88481.079
-61622.671
-62050.433
-65122.861
-42565.042
-41501.679
-42991.297
-25391.444
-24361.58
-25181.263
-11229.867
-10103.89
-10541.57
-1081.7654
-3146.7897
-1138.5912
-338.88538
3496.2507
1675.6291
-2928.7144
-2819.8967
-3456.2128
-1538.9648
-1768.6296
-1433.9203
4417.6397
5263.4541
6301.5371
379272.24
391072.05
392773.69
373708.68
354958.88
335207.02
369200.1
350547.57
352747.66
317626.44
295492.98
304395.74
304885.69
301028.83
278070.72
298042.83
246537.99
270050.46
265941.95
243574.8
253469.82
261284.87
224105.89
234392.19
237656.2
212905.56
219109.92
233730.15
194578.19
215986.6
219372.04
185480.08
201228.36
207640.9
168983.26
192665.73
189321.7
158587.31
179653.7
173828.57
145101.75
164876.69
154038.49
131164.28
147660.81
133423.89
115319.98
128505.32
110891.53
98913.68
107636.15
89010.269
81149.759
85682.695
64583.379
62685.084
63613.32
44196.561
44250.371
43243.54
25093.156
25949.123
23485.449
9196.216
10432.195
9061.3356
1681.4697
1780.1069
1548.0662
204557.96
244219.6
208974.32
217639.78
226038.54
197845.46
189974.13
178172.14
159326.27
143097.18
132615.9
111007.71
93182.237
77452.732
61771.103
48349.816
36593.295
27440.462
19862.07
13933.074
9422.4522
6108.9979
818.34006
-36603.861
3049.2121
-21747.237
-5072.6863
-7081.0785
-26663.426
-20973.394
-22851.252
-25234.197
-18960.042
-10393.919
-4692.3305
4350.2481
12564.541
19101.929
23286.377
24510.247
23973.541
19818.743
15876.657
10882.813
5115.913
551.85321
-188116.03
-190793.91
-227942.28
-199281.91
-184509.95
-176614.17
-146220.29
-138071.01
-120670.25
-111134.45
-104336.99
-98532.481
-96925.318
-91671.434
-89221.941
-83474.757
-75563.558
-66080.504
-55033.33
-41818.163
-30081.42
-18279.022
-8409.1293
250315.91
241169.48
218833.74
243879.49
222428.74
209167.18
193615.13
172677.84
213118.1
190888.61
212565.95
173624.92
223667
167692.73
191068.64
176184.13
184324.49
195055.21
188438.94
184131.23
176740.36
178097.34
164344.14
170947.12
159577.64
154136.77
165350.02
143402.47
151915.99
144920.76
125318.31
132479.5
128437.77
103493.27
119403.9
114512.22
86258.092
103783.65
96115.426
68405.784
86126.182
78905.974
51098.573
68832.843
62257.226
36665.797
53140.29
47070.047
25554.128
37994.407
33565.636
16227.825
24949.386
21808.494
9774.6423
13750.824
13421.333
7618.0682
7735.2438
6761.0658
2748.4818
435.26567
1718.1218
3126.9839
1464.7015
2595.4885
-11.788254
-1803.1128
-1430.0774
-22422.879
-40651.528
-2239.87
-23129.796
9457.0222
16818.093
-191.12296
-1432.1481
12360.256
-11444.25
-11230.836
-3519.5978
-22007.456
-15439.321
14134.575
-27396.032
-5515.0825
-415.49041
-16833.463
-16966.119
-8380.148
-29673.296
-20805.058
-6758.4621
-25783.725
-13527.016
-12445.801
-17384.614
-16655.711
-16160.885
-15795.222
-14791.613
-18986.221
-9130.3005
-7882.9436
-18845.606
-2754.7653
-2716.608
-21608.034
2694.264
1094.8441
-20165.406
5905.6634
7127.2174
-17591.199
9562.9434
11038.632
-14747.679
11109.535
12719.59
-10559.107
10330.408
13854.055
-6692.8159
10655.923
12307.331
-1477.8035
7631.727
10714.549
-871.10422
8639.3087
582.15933
3334.7739
3046.8137
4691.6622
3889.9843
1758.1999
1953.1115
2327.639
-301833.25
-321236.08
-367160.49
-206384.12
-173707.5
-264263.89
-198306.21
-246112.2
-259191.96
-243396.94
-179543.2
-239093.48
-188061.55
-171661.41
-213062.94
-183811.12
-154720.29
-209162.79
-169370.34
-139707.85
-185203.28
-154145.5
-125234.01
-173332.37
-135558.18
-115426.17
-155710.5
-125221.04
-108293.86
-141617.51
-111479.98
-102867.56
-127009.97
-99013.136
-98433.688
-114625.84
-86232.353
-98392.411
-103922.56
-76450.99
-95612.77
-92981.106
-66484.784
-91886.242
-82838.014
-57858.853
-85601.026
-75062.101
-49393.6
-77673.475
-65434.202
-42174.567
-66151.037
-56050.705
-34335.473
-53362.005
-46844.938
-24851.855
-40779.177
-35322.62
-21577.369
-26415.714
-24188.808
-9341.5446
-12585.941
-8876.2262
-5111.5766
-5953.317
-8615.433
)
;

boundaryField
{
    free
    {
        type            calculated;
    }
    fixed
    {
        type            calculated;
    }
    freeTop
    {
        type            calculated;
    }
}


// ************************************************************************* //
