/*--------------------------------*- C++ -*----------------------------------*\
  =========                 |
  \\      /  F ield         | OpenFOAM: The Open Source CFD Toolbox
   \\    /   O peration     | Website:  https://openfoam.org
    \\  /    A nd           | Version:  6
     \\/     M anipulation  |
\*---------------------------------------------------------------------------*/
FoamFile
{
    version     2.0;
    format      ascii;
    class       pointScalarField;
    location    "1.36";
    object      p;
}
// * * * * * * * * * * * * * * * * * * * * * * * * * * * * * * * * * * * * * //

dimensions      [1 -1 -2 0 0 0 0];

internalField   nonuniform List<scalar> 
28033
(
-1433290.5
1863377
-261.78092
-244.17116
-2716724.7
2612493.4
-330.19429
244.57289
-1283835.5
-1124356.8
-966407.82
-798085.63
-577515.02
-396527.41
-209190.8
-12511.018
184441.87
356777.8
550684.24
651047.68
856788.94
1047090.2
995512.28
841.24411
2044.7962
2798.4074
2681.2531
2640.7539
1921.6767
1432.6327
568.30491
-149.88437
-1036.9791
-1553.1515
-2059.2885
-2107.854
-1903.4967
-1136.2577
-318275.55
-376877.56
-335417.95
-378118.12
-364987.24
-384118.55
-385962.13
-391976.31
-393124.77
-398724.72
-395163.92
-395441.28
-395164.3
-393991.34
-390250.31
-386764.79
-385538.6
-380704.76
-376988.2
-372428.61
-369476.26
-363379.79
-360456.67
-354927.38
-349950.13
-345458.54
-340839.73
-335004.97
-329947.43
-324643.73
-319133.49
-312589.75
-307376.46
-301514.56
-294364.02
-288257.14
-281421.83
-275629.85
-267521.96
-260985.84
-252942.89
-245756.23
-238011.9
-230699.15
-222870.88
-215538.33
-207830
-200594.78
-193044.07
-186005.64
-178739.95
-171905.53
-165023.39
-158425.27
-151909.55
-145604.8
-139413.47
-133392.69
-127478.9
-121737.9
-116065.03
-110537.96
-105061.57
-99819.523
-94545.448
-89666.698
-85218.598
-80186.153
-75138.079
-70492.176
-65880.019
-61673.79
-57628.271
-53811.088
-50117.19
-46698.944
-43425.744
-40393.893
-37434.861
-34725.178
-32069.409
-29547.949
-26926.976
-24290.36
-21863.263
-19354.158
-16923.216
-14476.41
-12000.318
-9615.7097
-7256.7792
-5138.7046
-3202.653
-1609.3593
-414.29777
386315.31
335116.98
372461.74
346199.61
384243.33
380438.91
394990.92
391557.17
402112.45
397722.12
403067.12
399332.58
399330.22
398246.37
394904.68
392873.75
388860.85
385737.81
382662.71
378289.3
374189.21
371461.9
365729.04
363633.25
358793.15
354063.9
351186.18
344841.74
341834.4
334598.91
330550.93
323726.69
318130.11
311546.23
305116.13
298440.81
289788.21
283136.45
274317.84
266890.88
258387.81
250366.19
242025.02
234049.74
225947.52
218253.83
210592.79
203301.38
196194.39
189375.14
182789.73
176448.65
170285.7
164326.1
158459.13
152726.94
147018.26
141364.45
135685.31
130018.95
124290.32
118580.37
112820.02
107095.09
101377
95778.422
90255.252
84984.6
79993.395
74759.745
70239.639
65732.875
61732.695
57898.846
54408.158
51167.23
48141.067
45324.468
42611.237
40075.458
37524.094
35018.513
32437.976
29831.403
27073.35
24282.106
21333.315
18360.506
15312.044
12306.401
9347.9166
6614.1133
4115.5017
1967.3052
622.625
-2208739.7
-2146207.1
-1517858.5
-1535377.7
-1041873.8
-612003.63
-359688.58
47397.139
369477.25
738426.02
1016474.9
1346932
1686752
1886869.2
2008673
538072.91
462843.9
254193.35
440905.09
379485.43
409435.15
396172.82
420363.81
404768.3
426132.93
424112.7
415147.24
424212.75
411123.06
419314.89
408693.45
405702.53
402372.63
395249.23
396622.63
388494.56
381399.21
379928.56
377834.9
369907.98
368683.24
355658.1
358522.9
344429.88
344993.15
338769.01
332639.9
326246.28
320203.65
314214.51
301186.37
299170.55
291528.91
283799.4
276128.07
268315.24
260375.64
252388.75
244307.22
236311.73
228258.07
220287.37
212322.07
204501.71
196796.7
189264.62
181856.97
174669.37
167613.45
160762.8
154044.11
147529.94
141133.77
134899.67
128816.04
122824.03
117004.41
111256.19
105660.62
100143.47
94767.598
89815.517
84423.318
79085.113
74733.139
70272.848
65830.4
61622.254
57676.828
53893.47
50315.563
46942.433
43781.733
40745.542
37856.288
35038.001
32325.932
29617.629
26992.002
24315.982
21680.062
18977.26
16316.249
13608.689
10968.085
8382.2912
5918.1529
3699.1249
1728.6171
238.46085
-1561.3724
-2399.2101
-2331.6774
-2899.1901
-1675.3669
-1833.3434
-131.33419
178.50706
1320.7166
2464.2589
1903.1701
3379.7872
2195.3384
2627.0021
943.50635
-625.65003
-1339.6243
-2915.6613
-5123.0752
-7670.992
-10535.178
-13494.149
-16571.856
-19518.471
-22575.084
-25415.355
-28052.139
-30753.371
-33417.448
-35970.646
-38517.189
-41142.877
-43768.508
-46608.921
-49582.641
-52804.893
-56292.496
-60132.853
-64139.446
-68560.28
-73237.63
-77133.858
-84605.421
-88966.633
-94808.631
-100533.29
-106492.08
-112403.1
-118365.04
-124289.59
-130173.84
-136032.18
-141813.81
-147594.12
-153353.79
-159136.73
-164980.14
-170932.09
-177008.95
-183275.5
-189759.94
-196456.68
-203445.53
-210669.96
-218117.39
-225929.68
-233620.66
-242002.5
-249864.87
-257761.03
-266672.46
-273931.75
-277545
-294166.76
-296800.04
-300095.81
-316905.08
-317594.66
-324406.98
-324414.05
-340663.69
-333158.2
-350364.72
-350237.67
-355894.28
-359438.5
-357952.76
-372879.26
-370131.78
-369975.1
-382962.49
-377112.16
-390312.47
-384051.85
-396828.05
-403113.61
-397071.87
-395682.23
-407847.39
-404743.49
-400184.88
-406688.89
-399940.55
-394210.02
-378981.27
-369064.67
-398215.56
-362984.04
-313935.32
-411017.99
-915521.18
-1032342.8
-1087357
-1168962.9
-1180551.5
-1238928.6
-1225404.6
-1256850.6
-1225919.8
-1179282.2
-1219739.5
-1113585.8
-1053155.9
-1126710.8
-781163.74
1559978.5
1937036.8
1908151.8
2046557.8
1981972.9
1892190.4
2170771.5
2298347.6
2164714.4
2174168.3
2097147.8
2036662.4
1919272
1911317.7
1798664.6
-281.65665
-521.44919
-1145.308
-1694.4574
-2161.0457
-2445.1843
-2567.0574
-2495.0796
-2194.0727
-1758.9083
-1198.5986
-630.35664
-52.790337
332.87162
-79.41923
-406.44942
-316.59909
-5.4743212
607.09457
1152.2638
1720.9446
2134.3543
2398.1481
2458.1575
2343.4461
2010.7333
1514.5143
1000.0564
309.93554
241.28028
-318552.17
-343556.12
-306358.79
-316420.02
-328588
-336999.47
-344194.47
-349301.71
-353883.64
-354501.15
-355467.53
-358143.15
-355956.58
-354054.56
-351745.85
-351632.33
-347353.51
-344722.86
-341001.05
-337756.01
-334080.93
-330433.84
-326155.42
-321260.17
-316989.14
-312983.53
-307466.9
-302397.12
-297885.34
-292490.5
-286287.21
-281317.45
-276988.15
-270598.52
-265184.92
-258781.18
-253146.94
-246228.68
-240287.38
-234643.13
-228288.3
-221687.52
-215284.94
-208454.01
-201754.37
-195099.01
-188224.03
-181610.86
-174763.67
-168203.5
-161535.2
-155103.81
-148694.01
-142490.04
-136392.92
-130487.9
-124727.9
-119148.78
-113740.81
-108492.23
-103396.39
-98436.652
-93661.118
-89042.191
-84407.077
-79963.528
-74899.887
-70872.363
-66866.035
-63113.189
-59336.122
-55656.5
-52052.581
-48625.355
-45239.252
-42065.111
-38998.763
-36078.808
-33265.509
-30702.578
-28102.846
-25800.892
-23514.49
-21551.072
-19411.503
-17304.937
-15228.579
-13190.001
-11220.373
-9284.0528
-7419.5709
-5586.4619
-3860.5917
-1898.9579
-255.30217
-304066.18
-289377.29
-250916.79
-270072.78
-274513.1
-281466.44
-285623.53
-292742.92
-295390.9
-299879.27
-300369.14
-302369.34
-301280.8
-302236.7
-300301.91
-298570.71
-296208.04
-294373.38
-291429.6
-288078.01
-285342.52
-280499.9
-277891.29
-273536.91
-270227.51
-265082.14
-261760.16
-257224.24
-252711.04
-248108.2
-244077.63
-239415.34
-234327.84
-229480.49
-224768.71
-219960.47
-215150.72
-210207.89
-205309.45
-200085.02
-194615.89
-189766.36
-183821.56
-178362.03
-172601.54
-167075.73
-161217.02
-155582.02
-149683.28
-144051.17
-138230.21
-132655.13
-127054.64
-121639.56
-116323.76
-111183.68
-106186.75
-101391.52
-96739.928
-92286.474
-87983.074
-83838.162
-79903.796
-76034.265
-72381.456
-69031.791
-66169.5
-62370.847
-59630.803
-56224.512
-52959.47
-49766.947
-46602.398
-43438.405
-40408.725
-37596.459
-34672.879
-32126.482
-29488.711
-27158.079
-24791.073
-22629.751
-20604.49
-18348.971
-16662.378
-14651.796
-12896.904
-11316.949
-9708.8687
-8205.8264
-6638.8995
-5112.6838
-3694.7159
-1581.8774
45.391213
-254033.1
-255671.2
-209223.61
-227990.45
-224818.02
-232648.14
-238756.47
-245048.96
-246660.27
-250038.02
-251487.01
-252946.13
-252798.91
-252449.34
-251340.88
-250454.73
-248757.56
-246395.07
-244295
-241446.04
-239024.7
-235910.39
-233147.37
-229524.57
-225884.48
-222480.02
-218961.74
-214625.25
-211274.78
-207169.01
-203288.1
-198958
-195395.77
-191383.22
-187670.97
-183413.31
-179812.14
-175917.02
-171799.94
-167490.38
-163050
-158564.62
-154315.95
-149732.56
-145146.47
-140374.16
-135493.44
-130622.76
-125656.05
-120751.85
-115778.34
-110957.85
-106116.47
-101451.87
-96865.707
-92449.568
-88181.583
-84092.895
-80156.185
-76415.263
-72820.339
-69379.44
-66116.181
-62855.432
-59916.483
-57240.402
-54945.397
-51686.268
-49278.02
-46826.487
-44355.915
-41663.352
-38925.543
-36373.647
-33840.084
-31345.326
-29019.234
-26667.434
-24502.794
-22416.69
-20383.969
-18639.063
-16718.963
-15367.379
-14103.072
-12414.349
-11008.392
-9736.6779
-8490.2133
-7230.1656
-5979.9415
-4619.8617
-3290.6487
-1040.6571
399.60857
-197603.23
-208335.15
-162409.5
-184979.07
-173751.3
-184340.83
-186950.28
-191471.74
-192738.33
-197648.54
-198065.1
-200290.08
-199404.42
-201081.64
-199316.57
-199436.94
-197215.02
-196625.31
-194551.56
-192468.77
-190447.92
-187567.91
-185376.51
-181986.76
-179869.19
-176344.89
-173651.17
-170417.08
-167461.4
-164011.4
-161151.66
-157802.84
-154854.33
-151408.63
-148753.42
-144974.92
-142310.51
-137747.7
-134474.03
-131180.05
-128372.95
-125033.26
-121589.4
-117959.31
-114400.89
-110670.57
-106891.14
-103057.27
-99100.424
-95153.763
-91152.759
-87205.144
-83265.083
-79437.312
-75680.036
-72081.129
-68603.197
-65304.735
-62159.886
-59198.504
-56404.786
-53750.43
-51245.32
-48881.026
-46687.072
-44374.282
-42666.972
-40646.832
-37997.339
-36019.05
-34036.289
-31784.333
-30008.866
-28049.783
-25963.648
-24014.827
-22102.086
-20281.863
-18526.799
-16880.641
-15348.919
-13910.69
-12574.304
-11153.583
-9936.6921
-9158.9434
-8197.4412
-7295.886
-6401.9004
-5515.1948
-4601.4566
-3550.2531
-2467.4441
-652.10067
520.59293
-169132.15
-155534.23
-122807.47
-136933.37
-131954.61
-137497.47
-140785
-144047.88
-145121.35
-148020.15
-149067.54
-149497.65
-150398.06
-150454.61
-149857.28
-149471.56
-148454.94
-147406.62
-145756.03
-144248.57
-142649.66
-140607.54
-138575.03
-136475.04
-134274.16
-131556.45
-129514.75
-126598.34
-124391.57
-121740.52
-119459.21
-116839.88
-114590.94
-112283.9
-110155.99
-107749.85
-107358.59
-107052.34
-105039.41
-104821.37
-102112.47
-99699.976
-97328.141
-94681.05
-91945.986
-88990.088
-85978.527
-82815.558
-79600.591
-76339.354
-73025.591
-69746.949
-66474.974
-63280.993
-60171.373
-57186.608
-54319.44
-51622.138
-49065.62
-46680.015
-44457.435
-42326.92
-40399.284
-38636.086
-36612.715
-35298.045
-33473.258
-31863.924
-30074.948
-28446.3
-26843.787
-24874.746
-22638.581
-20958.115
-19283.71
-17647.365
-16222.816
-14775.432
-13424.06
-12177.238
-10962.482
-9940.9458
-8906.9887
-8091.5188
-7319.4601
-6654.7823
-5989.5979
-5375.4473
-4785.9656
-4172.0762
-3565.9956
-2669.864
-2039.7967
-354.87112
331.25958
-104302.3
-110601.9
-79443.886
-94850.266
-86063.052
-88889.909
-91987.093
-93992.155
-93421.281
-97635.616
-96554.295
-98703.399
-97914.317
-99446.655
-97811.216
-98811.48
-97293.582
-97362.148
-95795.882
-95236.762
-93556.009
-92183.593
-90831.949
-89039.263
-87472.988
-85590.54
-84075.334
-82083.628
-80583.806
-78544.8
-77108.152
-75176.726
-73858.684
-72152.97
-70708.431
-69519.851
-69186.848
-68973.223
-68686.159
-68317.895
-68212.838
-66726.035
-65112.689
-63432.822
-61674.252
-59707.147
-57657.435
-55518.023
-53257.951
-50941.194
-48562.752
-46180.472
-43777.789
-41447.825
-39160.991
-36982.512
-34917.858
-32991.981
-31203.487
-29572.63
-28068.956
-26752.377
-25505.256
-24329.755
-23458.198
-22258.376
-21512.513
-20549.823
-19615.959
-18746.182
-17573.911
-16408.22
-15338.044
-13816.084
-12391.657
-11343.447
-10221.154
-9222.1759
-8241.624
-7372.3407
-6519.7287
-5819.0732
-5172.3533
-4646.906
-4169.7081
-3811.697
-3470.3908
-3156.706
-2931.0724
-2584.5438
-2349.2479
-1759.0418
-1461.8707
-155.31394
455.26882
-58811.784
-53308.777
-38511.419
-48820.744
-39874.366
-43380.115
-45010.101
-45351.94
-45583.824
-46581.896
-47738.762
-46813.694
-48394.146
-47967.182
-48057.662
-48230.897
-47760.518
-47508.185
-46858.248
-46553.15
-45538.358
-45095.42
-44040.114
-43032.901
-42087.82
-40834.156
-39860.353
-38525.995
-37559.972
-36417.623
-35619.388
-34595.226
-34002.622
-33144.23
-32749.892
-32249.555
-31713.125
-31873.524
-30892.576
-29804.387
-29694.115
-29382.799
-28662.649
-28192.682
-27471.255
-26621.474
-25629.293
-24587.788
-23354.966
-22116.949
-20768.304
-19426.651
-18055.569
-16740.545
-15460.541
-14276.475
-13190.433
-12223.51
-11373.237
-10657.607
-10075.935
-9581.0793
-9181.3487
-8940.0993
-8583.7864
-8457.1911
-8189.7755
-7932.6323
-7665.9857
-7326.6515
-6947.9519
-6518.5906
-5798.7419
-5621.6111
-5043.7422
-4482.5242
-3781.0968
-3183.9005
-2608.1761
-2074.1956
-1612.2686
-1265.8561
-946.57658
-780.31645
-633.29186
-624.17686
-640.45505
-731.62106
-865.37856
-873.96726
-1025.7044
-737.38464
-881.63284
105.44199
-65.334081
4379.2651
-3361.361
7109.6543
1228.1332
4615.6425
4170.7566
4354.655
3468.3973
6368.6513
3099.8258
5161.0457
3964.9731
4335.2139
3417.9583
4214.9968
3062.954
3932.8978
3019.2916
3783.6748
3349.1885
3976.9746
3762.3163
4732.3505
4885.1772
5398.1153
5867.1383
6172.1721
6751.8229
6850.7914
7366.3771
7367.8675
7674.474
7472.3926
7458.6049
7016.0706
6934.2913
5975.8929
5593.1764
4954.9682
4760.8034
4036.5699
3381.8633
3044.6739
2651.2744
2338.8804
2268.5546
2202.9557
2305.5544
2522.968
2830.2881
3215.1616
3653.0289
4114.7384
4572.0156
4986.6254
5355.0624
5626.5875
5809.5505
5886.8508
5826.6899
5697.456
5432.5403
5075.5532
4704.0405
4209.6433
3779.0757
3308.856
2857.2882
2510.5746
2153.0692
1998.2606
1897.8653
1859.9851
1749.7987
1762.3098
1905.6393
2126.3286
2279.023
2475.2907
2591.4682
2673.1386
2691.6906
2607.1772
2479.221
2220.3812
1941.79
1551.2061
1216.9814
773.47568
520.96781
82.330334
58.885091
-337.50197
90.743859
-313.36687
49479.47
49795.95
47625.354
45453.902
48445.515
51051.274
50268.346
53310.391
52886.439
54722.84
53353.88
55473.448
53595.666
54409.243
53633.156
53530.112
52938.829
52603.308
52651.385
51887.105
52077.149
51927.8
51844.184
51383.133
51355.301
51075.738
50986.98
50625.203
50283.337
49923.694
49221.213
48639.638
47643.644
46723.003
45593.742
44215.823
42965.868
41435.931
39856.04
38233.923
36686.077
35129.442
33749.986
32328.962
31095.032
30010.311
29053.671
28206.867
27544.748
26951.737
26471.787
26048.644
25681.906
25300.462
24914.618
24485.377
23972.402
23390.465
22699.087
21920.564
21039.044
20060.668
19047.152
17932.011
16859.282
15729.731
14635.452
13620.024
12655.602
11777.431
11047.477
10307.376
9816.7171
9310.3759
9246.3509
9164.646
8837.1567
8686.2851
8399.0852
8164.3156
7868.8937
7493.8765
7086.9201
6559.2466
5997.5207
5350.5766
4639.8518
3945.7767
3118.8949
2497.3328
1578.9456
1195.9667
297.07772
223.28713
-556.25956
108408.51
107705.14
92899.787
95768.647
98807.735
100861.48
103512.06
103668.48
108112.82
106841.8
108579.21
108852.23
108592.06
108223.78
108350.53
106905.87
106720.08
105661.64
104888.95
103849.74
103485.28
100847.11
100111.24
99096.343
98505.421
97652.214
96634.309
95737.369
94501.862
93440.139
91953.944
90602.402
88852.861
87172.055
84976.302
83053.229
80587.44
78354.142
75774.725
73429.871
70893.31
68439.954
65986.437
63713.687
61432.001
59383.039
57392.486
55573.769
53902.305
52343.815
50887.969
49539.472
48232.115
46957.386
45693.564
44405.075
43058.262
41661.842
40190.078
38620.903
36990.652
35286.61
33515.855
31727.754
29922.147
28117.307
26380.062
24719.919
23129.401
21666.343
20315.336
19114.086
18005.146
16830.381
15303.033
14610.948
14101.165
13411.063
12822.893
12299.492
11605.245
11020.78
10211.225
9477.8878
8545.5432
7660.4729
6619.368
5661.0234
4571.0811
3624.2993
2577.6883
1763.5122
828.68967
184.07412
-329.88234
167496.52
140303.16
128475.9
132635.81
137966.41
140199.74
143234.56
146693.95
149116.95
150441.05
150899.22
152393.86
151297.6
151531.14
150631.68
149457.41
149034.57
147223.27
146569.65
145610.42
145216.79
146545.17
146646.15
146549
145625.1
143880.42
142669.84
140714.73
138921.73
136994.77
134761.85
132595.32
130055.44
127381.78
124429.32
121406.98
118202.78
114871.32
111429.03
107969.68
104465.06
100946.76
97565.068
94194.562
90981.577
87892.548
84976.746
82189.538
79589.02
77103.374
74760.534
72515.365
70345.657
68221.071
66121.981
64007.335
61857.019
59674.21
57406.615
55081.071
52699.916
50234.632
47769.997
45246.334
42785.602
40315.021
37930.261
35602.444
33405.274
31323.429
29423.173
27688.678
26060.155
24599.126
23366.107
21849.405
20322.193
19348.691
18277.342
17306.352
16358.522
15316.603
14273.015
13134.513
11954.544
10709.771
9417.5042
8129.9794
6751.4318
5547.3509
4130.142
3083.8334
1619.4799
690.62719
-1106.8085
202975.53
197162.6
181306.73
181002.15
186534.84
187696.93
194889.12
196663.9
199926.71
202180
203336.91
203691.82
204012.98
203103.15
202410.8
201462.49
199558.67
198295.83
196816.14
194693.5
194224.94
192137.58
194526.07
193921.48
192081.13
190474.06
188268.94
185864.93
183304.92
180583.76
177727.98
174532.87
171308.43
167818.06
164008.69
160230.65
155988.74
151810.72
147367.46
142995.41
138407.04
134022.39
129538.02
125235.39
120982.26
116902.51
112969.2
109187.69
105582.41
102139.6
98823.448
95647.235
92561.973
89547.315
86579.885
83624.041
80666.425
77677.251
74646.849
71576.64
68443.447
65287.775
62095.581
58884.48
55735.939
52582.257
49519.394
46609.54
43786.507
41132.209
38662.384
36318.546
34160.458
32229.404
30507.223
29068.294
27259.542
25840.519
24338.697
22956.261
21529.749
20094.786
18596.924
17057.946
15435.964
13777.591
12049.706
10331.776
8545.154
6951.2046
5121.6141
3879.4986
2092.3712
1021.6688
-846.17654
287255.33
263614.01
233211.18
244379.75
243312.58
253096.06
254906.86
261190.21
262437.01
266454.15
266222.06
268246.15
266411.92
266988.43
264347.11
263631.24
261110.42
259165.04
256713.07
254380.25
251920.49
249891.16
246227.32
243037.98
240254.64
237518.04
234852.86
231440.39
228252.11
224765.14
220929.15
216980.56
212912.87
208574.53
203907.3
199107.84
193903.2
188742.7
183383.45
177897.36
172458.6
166928.01
161472.36
156082.15
150813.54
145691.1
140742.18
135953.1
131371.03
126953.19
122693.18
118595.3
114603.58
110710.15
106879.66
103090.89
99304.808
95517.843
91705.699
87858.111
83985.653
80082.75
76171.513
72249.469
68424.233
64573.22
60916.883
57335.84
53887.362
50593.243
47524.561
44644.106
41988.452
39514.151
37177.64
35124.85
33112.299
31234.717
29396.23
27604.287
25856.106
24073.609
22261.918
20417.532
18500.668
16558.46
14564.335
12570.923
10570.369
8668.8854
6673.5673
5126.0539
3049.8096
1553.1943
-438.54308
319736.43
312090.86
273460.93
288834.53
294806.73
301394.69
306733.95
312230.16
315751.04
317734.08
320161.81
319584.72
319604.84
318789.37
316002.63
314938.65
311823.78
309093.51
306660.64
303293.01
300501.57
297292.4
294321.1
291923.47
287996.05
284742.25
281201.05
277186.5
273871.18
269287.11
265178.78
260237.37
255203.93
249926.88
244445.3
238856.07
232680.88
226697.1
220129.29
213786.07
207164.33
200606.09
194090.14
187626.57
181315.44
175130.65
169142.32
163346.33
157758.28
152372.51
147179.06
142162.88
137294.83
132543.71
127889
123287.25
118715.13
114153.91
109570.08
104975.7
100337.21
95698.441
91023.546
86380.678
81761.555
77162.509
72727.946
68467.262
64337.527
60387.1
56741.44
53259.354
49987.34
47012.932
44190.667
41623.7
39170.488
36909.662
34728.916
32629.669
30540.943
28456.873
26315.106
24138.166
21860.748
19545.623
17136.086
14716.177
12263.349
9854.3458
7510.9042
5371.5839
3166.5963
1567.5502
-59.809861
426094.45
322864.2
334564.68
335582.73
350393.36
350165.17
360414.29
364309.01
367397.01
370337.76
370838.35
372590.35
370028.74
369657.73
366085.62
365037.51
361082.76
357853.51
354835.24
351371.56
347092.46
343939.16
340062.76
336640.72
332764.14
328218.44
324329.65
319504.62
316014.32
310770.68
306041.39
300233.31
294488.07
287883.99
281241.75
275335.03
268483.87
261299.05
253916.14
246518.47
238850.15
231315.34
223705.07
216221.69
208858.37
201662.44
194683.87
187924.47
181386.08
175106.4
169019.4
163161.54
157465.44
151922.19
146493.78
141142.13
135838.82
130556.58
125275.34
119971.74
114658.37
109323.02
103987.49
98676.117
93394.959
88132.418
82990.102
77942.451
73311.091
68921.664
64702.598
60634.412
56940.414
53464.429
50231.488
47265.914
44510.775
41862.058
39383
36927.06
34549.877
32141.488
29708.025
27198.227
24629.5
21963.889
19245.579
16480.953
13705.166
11002.571
8398.2189
5972.8626
3815.489
1970.2463
188.20383
-646587.83
-738350.91
-686078.18
-714608.26
-714699.13
-722191.63
-751995.12
-729179.78
-719483.89
-729945.97
-710209.28
-680740.38
-675830.72
-724643.93
-552378.65
-689667.64
-735604.13
-670707.86
-711638.95
-700764.73
-729690.75
-701068.55
-733037.82
-724261.46
-725156.75
-708834.61
-706832.27
-702577.29
-721928.5
-604252.82
-517824.79
-620070.27
-510039.73
-543508.56
-544480.02
-529669.14
-542861.8
-532245.54
-536797.21
-528971.07
-525780.01
-532149.57
-492145.96
-561550.41
-507954.1
-466165.18
-481663.38
-470779.87
-457444.09
-478280.98
-466503.03
-478774.11
-476602.04
-472110.48
-471327.46
-474594.56
-452401.53
-458552.6
-502326.7
-340821.87
-328528.51
-378710.2
-310709.59
-347918.4
-321599.75
-344633.67
-331053.51
-335310.98
-330792.82
-333546.13
-326458.64
-327427.78
-329760.35
-341389.8
-310767.07
-250718.07
-261362.86
-233625.84
-242063.37
-240894.25
-242246.38
-238816.96
-239445.52
-242675.79
-240956.81
-231898.45
-244466.47
-225288.24
-248320.45
-233002.45
-130751.41
-125703.26
-126425.34
-113920.16
-120600.35
-116927.15
-118232.07
-113685.72
-113364.38
-111379.74
-112993.39
-103699.34
-118522.17
-110474.24
-118162.23
-18896.39
-14568.754
106.04223
-8395.8752
-1348.8097
-2885.5594
-1215.6119
-240.31804
210.57968
-4336.5913
9747.9924
-3802.6668
-11091.217
16496.788
-42510.329
89465.293
107116.76
95919.893
110210.08
106173.4
111206.76
110001.06
113419.47
112723.33
109829.43
118345.77
107090.24
105203.53
129741.06
30883.456
184670.93
228545.68
210933.95
218644.03
220188.78
224146.76
226576.5
226156.1
232011.27
221491.99
243643.97
218068.47
213256.92
258235.09
146321.81
304121.99
363474.28
317439.18
351219.15
336161.9
347251.18
343234.71
347978.43
346644.03
340042.17
342791.03
343097.61
320865.06
358447.14
233028.67
439817.95
420959.24
430129.72
419800.75
439187.73
438984.47
443560.06
446039.41
448854.7
445875.24
462230.06
414323.67
435779.93
470577.48
346926.71
517426.51
556595.54
510962.62
529258.21
510323.87
526361.63
522376.77
522147.48
520553.87
515240.51
520716.52
530039.88
484920.08
568909.41
335007.48
616296
706900.94
637504.5
672765.52
695230.59
687635.72
693973.7
720740.69
708597.84
730484.69
689850.77
678511.93
696755.02
679148.75
629384.79
725222.34
596616.45
558279.34
562446.92
584333.68
622412.97
599212.52
574408.26
555244.77
553010.2
568202.73
572286.5
575543.79
625969.76
574564.98
554625.56
522996.89
609503.77
629868.11
647430.96
701208.18
676323.4
631135.39
718443.49
705219.57
682802.46
649764.63
630484.78
601341.27
527644.36
441680.64
438349.01
475790.99
483035.05
499860.49
515433.08
526864.32
541417.83
552100.58
532931
525015.07
497031.22
506051.51
504628.72
511657.59
371249.75
411221.14
411494.51
436499.29
462372.76
447722.06
466049.37
461833.92
448612.25
466828.4
452046.41
459798.87
446868.98
409492.19
417337.3
386783.1
425652.28
431033.57
435419.34
442868.56
452199.34
453009.91
455366.2
455108.08
446869.27
447793.42
439656.71
427656.29
422998.96
405146.56
405956.12
433777.95
427898.48
451363.71
453992.89
461051.97
469197.65
468054.38
470510.15
472402.88
460117.7
454196.79
437149.34
427851.32
418883.06
405215.26
416423.09
422124.35
436813.19
441051.59
450621.99
448378.1
450935.2
451474.8
445154.92
444753.43
436499.18
428694.22
420508.14
404438.2
405596.28
424423.8
427034.74
436172.37
439060.4
446663.79
448901.8
450397.13
450394.02
447504.86
440256.75
438029.52
429245.84
418346.67
419503.58
412348.5
416798.44
425945.05
430109.16
438966.63
440704.78
443389.48
444927.45
443297.52
441073.96
437604.89
432975.69
425864.28
418563.4
410866.36
408702.94
421328.56
423194.16
430453.54
430991.6
438473.75
435865.76
439182.93
438436.58
434486.71
432629.06
427250.77
424329.71
417638.43
413800.29
413109.6
414646.63
420329.55
421997.13
427132.29
428275.75
431275.25
431139.46
429841.29
431126.23
426844.27
426438.67
421799.16
417601.06
415731.25
409114.07
416150.47
417444.45
422675.99
423975.38
428165.88
427229.18
430522.55
430774.77
428372.16
429159.6
426940.5
423593.5
421112.89
420266.87
411178.09
410796.27
415024.2
415855.23
418561.12
419064.22
421631.69
422671.65
422963.28
422921.54
422278.86
419911.84
419341.69
415964.18
416449.95
409152.61
410275.69
409991.61
413736.18
414414.48
417412.19
417214.8
418997.67
419614.33
419204.61
418478.58
418954.93
416526.96
416200.53
415373.76
405712.46
405569.05
409611.26
408281.16
411205.13
411523.84
412060.58
413690.32
413914.77
413379.4
413578.62
413504.09
412264.45
411330.43
413160.56
403667.95
403143.85
403981.13
405801.32
406961.65
407330.34
407725.5
409086.63
409676.03
409774.38
410306.77
410021.39
408899.18
410043.7
409701.29
399574.28
399500.37
402632.37
400557.23
402105.77
402220.47
405245.03
403547.37
403643.24
403889.81
402787.97
404114.29
401913.37
402335.63
403088.05
397536.81
395470.06
397500.27
396445.81
398833.18
399374.15
398664.46
399858.65
400210.71
400297.85
400865.62
401792.17
401802.87
401401
404539.56
393651.86
393216.51
393607.66
392908.99
394259.17
394358.36
395374.12
395298.16
395060.23
395691.49
394560.59
395615.59
393254.01
395319.14
395518.75
388621.11
388300.41
390055.33
389917.95
389933.66
390190.33
389341.52
390914.01
390380.07
391148.69
390603.83
392105.5
391446.14
393472.54
394183.01
386049.02
384481.94
385631.47
383996.9
386137.62
385864.41
387170.67
386499.71
387170.04
387375.7
385535.38
388383.96
386091.76
388478.67
388181.29
382097.38
381154.99
381741.17
381290.78
381251.66
381064.83
382045.33
382708.38
381561.09
382286.27
381903.97
383365.73
381714.66
384007.22
384212.16
376494.8
376726
377410.1
376572.5
377637.38
377124.24
378059.46
377368.75
378104.57
378367.65
378388.87
379809.95
378872.39
379019.08
381127.29
374341.06
372319.44
373134.99
372944.96
373051.62
373293.3
373683.19
373633.41
372558.59
374281.61
372551.06
374004.93
372549.21
375249.76
375716.74
368534.16
368581.15
369011.9
368512.82
368916.2
369277.25
368951.04
369157.27
369246.08
369742.6
368240.25
371145.87
370003.07
370815.52
371232.14
364984.55
364289.22
364303.22
364380.72
364165.47
363794.3
364983.88
364574.78
364465.05
365173.97
363442.47
365417.68
364476.03
365154.96
366504.56
361582.79
358935.97
360063.49
358871.82
359749.02
360099.23
360236.38
360128.34
360087.71
360662.26
360788.57
361354.41
359354.24
362345.53
361403.17
355357.99
354475.69
354705.53
355334.06
354743.76
355927.26
355356.76
355690.96
355178.84
355613.22
354636.83
356897.6
353954.14
355299.03
356907.46
352292.55
349461.04
350166.28
349716.44
351010.68
350750.84
350393.63
350632.74
350667.74
350758.07
350336.19
350580.58
350280.02
352415.16
350932.07
345483.54
345051.73
346138.58
345148.96
344891.69
345763.29
345331.17
345797.57
345266.05
345742.5
344727.38
346314.92
344217.82
344831.09
346602.08
342642.7
338818.68
339944.14
340493.6
340392.29
340218.04
340375.16
340464.28
340037.47
340442.65
339143.72
340993.5
338944.14
340632.96
340858.52
335512.62
333940.29
334600.89
334516.25
334117.88
335708.25
334223.66
334855.68
333298.28
334952.62
333797.63
335018.66
333628.17
334040.15
334922.6
330769.31
327554.9
329099.13
328710.21
328736.28
329212.02
328659.89
328916.47
328395.75
329088.44
327799.86
329338.59
327702.58
328538.12
328989.54
324063.93
321632.38
322635.07
322502.92
322426.31
323022.07
322334.31
322744.42
322168.21
322731.37
321686.71
322854.14
321403.56
321966.23
322363.76
317608.75
314909.94
316316.43
315908.93
315963.33
316384.01
316039.2
316280.75
315626.77
316209.83
315071.86
316379.55
314956.66
315643.68
316095.28
310013.73
308460.59
309332.63
309071.4
309101.34
309623.02
308997.9
309320.18
308817.22
309255.5
308370.59
309417.63
307964.09
308917.41
308675.46
302656.63
301363.78
301890.01
302938.4
301392.31
302383.81
301911.53
301979.61
301703.43
302172.32
300961.53
302320.86
301127.71
301310.8
302882.15
296437.28
293419.19
294393.32
294267.27
294661.63
294545.95
294541.75
294569.49
294123.95
293928.74
293587.15
294960.96
293377.92
294498.68
294463.42
287552.51
286048.23
286697.76
287082.37
286285.17
287267.65
286456.73
287060.21
286254.79
287023.99
285941.08
287165.41
286064.3
286485.44
287332.5
280402.83
277671.72
279020.07
278738.81
278753.12
279063.4
278754.83
278927.35
278421.94
279018.62
278026.3
279492.59
277984.67
279066.34
279475.92
271734.27
269779.39
270759.56
270689.93
270457.18
271032.11
270562.7
270826.03
270403.25
270897.82
270010.69
271204.44
270192.16
271114.71
271664.11
263664.77
261367.27
262526.28
262285.11
262259.73
262576.91
262276.7
262509.68
262065.98
262687.26
261752.93
263161.41
262014.01
263112.53
263631.73
255129.92
253183.85
254123.1
254040.93
253891.91
254332.38
254038.94
254179.21
253889.85
254377.7
253642.56
254939.62
253925.55
255109.28
255645.01
246901.03
244832.63
245827.2
245624.89
245552.69
245972.11
245635.31
245854.36
245516.56
246103
245342.92
246672.11
245717
247028.97
247543.53
238534.4
236676.36
237499.05
237332.47
237275.41
237667.31
237389.45
237511.81
237290.04
237792
237132.8
238462.33
237592.27
238986.25
239475.93
230448.33
228544.2
229346.11
229138.95
229045.64
229499.83
229151.16
229318.92
229092.7
229588.25
229016.58
230310.34
229531.15
230981.37
231442.2
222416.84
220621.1
221337.43
221061.79
221009
221423.63
221096.96
221236.36
221048.18
221529.78
221023.39
222262.03
221599.46
223033.75
223525.13
214670.63
212901.52
213517.82
213244.32
213144.39
213591.36
213225
213361.69
213182.68
213643.52
213171.23
214376.74
213813.31
215203.63