/*--------------------------------*- C++ -*----------------------------------*\
  =========                 |
  \\      /  F ield         | OpenFOAM: The Open Source CFD Toolbox
   \\    /   O peration     | Website:  https://openfoam.org
    \\  /    A nd           | Version:  6
     \\/     M anipulation  |
\*---------------------------------------------------------------------------*/
FoamFile
{
    version     2.0;
    format      ascii;
    class       pointScalarField;
    location    "0.79";
    object      p;
}
// * * * * * * * * * * * * * * * * * * * * * * * * * * * * * * * * * * * * * //

dimensions      [1 -1 -2 0 0 0 0];

internalField   nonuniform List<scalar> 
28033
(
1984650.7
-2935518.8
9871.687
6549.5719
3644643.5
-4194239.4
7159.6894
4885.1996
1647729.9
1471623.3
1269598.3
1028507
772621.45
524802.66
272995.32
-14566.745
-296792.61
-562165.58
-874702.04
-1043331.2
-1425010.5
-1688527.1
-1707802.8
-7013.2964
-2539.756
-3364.974
-629.20896
-132.20005
1886.5499
3665.5278
5797.5048
7677.3525
9735.2739
11879.521
12971.465
14352.801
15057.934
13723.982
545872.1
580271.06
536561
569843.62
559342.57
573874.91
576857.21
579140.49
579132.94
581224.27
577381.93
573324.93
572087.77
567669.96
562639.71
555998.54
553252.71
546646.77
540871.05
534641.07
529495.39
522488.3
517580.53
510840.09
504063.1
498153.49
491892.83
484701.4
478172.45
471215.42
464414.7
456510.85
449841.48
442953.28
433625.76
426842.59
418344.06
411783.76
401748.98
394143.69
384509.47
375544.8
366113.18
357255.95
347436.89
338276.42
328440.44
319071.32
309131.54
299739.04
289808.29
280346.7
270625.81
261138.21
251636.17
242277.56
232996.05
223844.68
214792
205923.94
197157.93
188534.91
180017.9
171892.28
163636.75
156017.33
149078.88
141143.34
133043.8
125868.28
118451.38
111737.15
104892.52
98622.34
92050.338
86404.389
80187.719
75157.763
69268.051
64814.947
59499.533
55303.013
50516.426
46316.244
42154.341
38294.982
34790.494
31422.614
27367.717
24687.522
21987.753
17594.314
17738.373
15991.717
13835.892
-477625.8
-403692.3
-498031.37
-447246.73
-518530.72
-509377.99
-525641.56
-518316.63
-532317.05
-521562.4
-528761.96
-520702.97
-520768.04
-517621.9
-513613.81
-509679.32
-504888.68
-499613.59
-495993.81
-490432.13
-484511.14
-482020.61
-473417.94
-471587.74
-464368.67
-458980.54
-454723
-446975.3
-443223.54
-434218.48
-429405.57
-421750.46
-415027.58
-408591.56
-401392.88
-395171.68
-385398.02
-379401.98
-369752.01
-362819.25
-353795
-345747.86
-336797.71
-328333.25
-319245.1
-310495.9
-301369.63
-292374.14
-283277.62
-274165.56
-265077.84
-255982.2
-246927.09
-237934.34
-228963.36
-220106.18
-211302.21
-202603.3
-194003.79
-185522.55
-177141.78
-168911.95
-160806.19
-152801.36
-144991.43
-137260.96
-129832.3
-122530.13
-115815.78
-108139.49
-101666.7
-94832.201
-88663.294
-82350.847
-76507.324
-70773.198
-65254.692
-60057.081
-54976.297
-50214.168
-45621.802
-41255.192
-36994.977
-33092.791
-29144.395
-25508.513
-21937.229
-18633.149
-15182.319
-12299.821
-9425.462
-6475.8986
-4249.6447
-3012.0481
-773.93409
3028437.9
2843662.4
2082481.5
2094329.6
1463453.7
867327.66
545362.77
-57167.247
-511593.36
-1107838.6
-1522278
-2094273.1
-2647651.9
-3103804.1
-3299623.6
-871892
-629204.9
-268674.87
-624797.97
-502512.01
-549569.68
-530638.21
-566497.5
-533385.5
-559028.07
-564593.41
-538246.73
-560709.3
-531923.55
-554484.29
-537762.45
-530711.71
-522427.68
-515557.56
-514567.89
-504457.48
-493152.66
-497261.77
-490452.74
-484882.11
-482354.95
-463568.34
-470842.44
-449641.91
-453788.77
-446792.22
-439877.06
-432705.41
-426443.08
-420717.54
-402155.39
-402846.59
-394731.47
-386090.73
-377813.41
-369145.86
-360383.37
-351409.17
-342303.55
-333111.65
-323832.12
-314339.45
-304829.42
-295197.77
-285621.87
-275990.72
-266421.35
-256874.73
-247405.48
-238001.62
-228653.82
-219471.6
-210333.71
-201346.86
-192502.28
-183749.15
-175181.8
-166719.41
-158422.77
-150234.46
-142196.03
-134759.28
-127010.16
-118232.96
-111793.01
-104984.04
-98007.815
-91300.178
-84908.955
-78697.088
-72756.636
-67060.861
-61717.398
-56534.173
-51626.229
-46873.612
-42429.414
-38024.993
-33996.003
-29968.745
-26245.204
-22467.951
-19106.06
-15606.841
-12501.887
-9502.0552
-6731.0204
-4929.0508
-2950.9764
-2200.3611
16092.93
16428.855
13837.284
14548.481
10773.867
11054.789
7382.9883
5863.86
3301.9682
754.75878
1114.0303
-2679.1205
-1434.3427
-5926.9789
-3595.0392
21363.677
17494.522
17792.4
20353.894
22424.72
25664.83
28797.5
32329.132
35753.102
39729.973
43559.773
47383.954
51824.474
56296.118
61047.861
65873.418
71110.264
76352.942
82029.32
87836.815
93907.799
100270.25
106846.46
113538.92
120522.64
127590.06
133285.02
144561.28
150513.05
158901.44
167012.75
175537.6
184005.7
192739.34
201558.6
210527.91
219655.39
228845.27
238222.02
247653.82
257216.28
266829.8
276582.62
286307.28
296161.17
305995.6
315855.84
325703.86
335566.2
345279.21
355051.52
364603.21
374145.89
383791.99
392413.84
401989.89
409676.66
414353.24
431615.38
435027.99
439866.48
457662.22
458331.5
467780.21
469003.02
486887.43
480560.48
500383.96
500895.41
510372.02
514548.49
516541.39
532604.48
531939.7
535206.19
548161.85
545992.61
558665.56
556443.41
569347.23
579001.27
571006.83
577678.62
586495.94
589937
584761.97
594976.55
587775.83
584588.92
573909.28
569344.45
581571.06
572128.42
528685
651876.13
1446294.6
1556461.8
1643575.2
1703435.5
1738167.6
1783926.5
1784762.4
1805055.2
1785740.1
1749360.9
1773968.3
1667425.6
1616480.6
1690523.9
1379171.9
-2315707.4
-2938571.4
-2929231.2
-3168183
-3111285.8
-2973197.1
-3419529.7
-3659168.8
-3421481.3
-3430843.9
-3289074.5
-3160034.5
-2964940.6
-2931292.4
-2772054.4
6007.4592
6093.6239
6724.9175
7148.3597
8071.3138
8619.6862
8777.7671
8875.3567
8783.0368
8495.4036
8127.2001
7328.952
6818.7762
6471.6762
6540.725
4046.6003
6396.4251
5817.8654
5249.5553
4454.3951
4314.7929
3825.1192
3893.2355
4067.3945
4269.5564
5095.3679
5671.7896
5942.0883
8763.1412
4391.3111
527160.43
537205.48
485391.28
490485.03
499871.56
507319.9
511314.34
515703.3
517724.05
517448.39
514597.5
516981.01
510977.38
508369.73
502300.82
502014.85
494237.88
490977.42
484133.98
480594.2
474634.8
470542.54
463865.4
458388.64
452139.77
447978.68
440797.64
435028.6
429007.06
423239.41
415376.61
409563.94
404143.32
396522.76
389966.19
382343.41
375493.79
366978.46
359731.19
352747.25
345064.35
336820.99
328951.33
320458.42
312057.65
303765.65
295034.48
286673.33
277893.94
269398.29
260667.97
252143.86
243506.86
235018.19
226541.88
218174.1
209880.69
201685
193619.19
185656.85
177811.27
170044.01
162531.2
155127.44
147563.7
140479.45
132403.35
125782.38
119230.84
112817.66
106556.51
100478.93
94417.728
88818.559
83115.913
77921.618
72685.791
67937.514
63012.819
58904.916
54344.175
50397.798
46582.368
43065.395
39396.003
35982.089
32696.057
29272.303
26360.681
23864.394
20277.609
18172.445
16057.761
10973.413
6626.2709
485740.01
446423.99
400550.02
415162.13
417088.66
422208.84
426057.2
430979.33
432622.88
434712.94
433707.86
433475.65
430238.23
429729.37
425399.27
422265.1
417631.76
415371.19
409904.25
406447.8
401437.2
396117.07
391979.94
387450.55
382942.42
377238.78
372895.21
368078.68
362610.35
357387.31
352506.95
347284.47
341075.67
335486.03
329781.6
323920.64
317795.41
311791.28
305666.39
299139.04
292342.4
286294.83
278596.39
272000.72
264791.56
257925.75
250623.23
243654.91
236255.1
229220.78
221847.02
214745.92
207480.21
200375.17
193255.58
186232.42
179250.79
172393.1
165583.81
158903.52
152298.46
145805.6
139553.89
133284.69
127252.1
122232.12
117219.1
111324.02
106604.29
100885.1
95550.881
90476.159
85044.176
80185.728
74878.224
70735.064
65477.263
61872.697
56945.832
53726.571
49248.246
45912.142
42534.918
38399.031
35027.659
31873.476
28548.916
26075.977
23300.092
20389.416
17807.642
15481.807
11939.644
8432.1153
2663.6565
372877.87
377753.99
330070.07
347285.16
341686.55
350028.06
354648.29
359322.33
359174.75
361692.69
360281.47
361217.62
358204.29
357093.3
353144.73
352196.68
347376.94
345205.76
340405.8
338025.58
333271.92
330769.77
326305.89
323028.59
317860.17
314906.79
310297.17
306005.29
301719.38
297666.66
292861.15
288259.96
283878.11
279351.89
274716.85
269626.89
265254.26
260527.18
255366.73
249987.7
244324.73
238669.66
233482.7
227860.56
222200.63
216342.37
210408.45
204483.05
198465.26
192502.07
186424.38
180482.43
174427.04
168514.15
162565.15
156706.1
150891.62
145165.28
139471.28
133902.79
128379.69
122941.48
117669.2
112206.15
107322.04
102817.02
98748.86
93553.658
89356.336
85270.252
81011.961
76515.831
72045.048
67898.791
63895.22
59920.733
56343.138
52540.999
49305.729
45840.42
42652.467
39857.325
36479.194
33797.374
31055.372
28331.719
25403.7
23372.586
20747.657
18518.812
16382.938
13195.251
11094.949
6110.0224
3673.4475
302805.12
302151.16
255012.82
272213.39
263094.55
273957.76
275498.9
278828.74
279906.57
283375.56
281973.13
283513.77
280307.98
281452.45
277635.34
277276.18
272996.04
272790.05
268269.13
266830.31
262842.23
260557.95
256872.96
254008.99
250973.07
247939.02
244507.95
241738.1
238235.28
234902.63
231560.36
228141.09
224598.31
220778.27
217564.97
213015.38
209593.05
203864.35
199596.74
195432.57
191889.83
187630.04
183163.44
178565.68
174155.38
169637.57
165083.43
160566.24
155927.46
151344.95
146681.21
142095.48
137440.47
132884.1
128279.39
123787.84
119277.81
114868.11
110473.36
106177.37
101935.68
97751.486
93634.344
89628.865
85812.518
81730.7
78605.71
74819.732
70375.112
67096.719
63742.79
60038.363
57120.437
53862.724
50701.163
47652.404
44742.932
42018.391
39276.865
36745.995
34310.286
32003.484
29598.281
27227.153
25062.422
23642.031
21538.385
19660.571
17677.089
15877.693
13559.224
11640.177
8936.1819
6044.8271
2403.7835
240117.5
221497.92
186096.21
202997.26
199654.56
205247.04
207236.14
210471.4
210110.33
212073.51
211296.91
211329.17
210091.35
209912.07
206905.13
206978.1
203283.84
203122.7
199177.44
198991.4
195424.63
194669.37
191104.76
190277.82
186921.08
185229.37
182375.94
180204.27
177382.95
175321.34
172503.69
170127.79
167336.89
165046.96
162256.69
159575.95
159029.74
159001.17
156507.67
156817.72
152747.21
149736.36
146759.44
143515.41
140199.26
136706.31
133166.77
129572.99
125962.52
122319.62
118647
115022.35
111339.02
107715.64
104083.08
100508.73
96928.791
93430.615
89939.413
86515.854
83166.008
79743.515
76554.952
73406.198
69836.258
67317.296
63935.237
61006.457
57824.889
54950.999
52202.905
48870.075
44950.266
42315.869
39544.8
37159.648
35074.938
32950.348
30971.064
29168.061
27183.951
25690.623
23743.333
22488.636
20639.301
19550.666
17658.07
16495.728
14742.339
13224.15
11660.169
9939.4023
8345.0313
5483.7461
3136.5189
148725.12
149603.52
117778.29
135690.89
126920.35
131067.27
133985.5
135749.36
134279.61
138338.97
135397.5
137731.7
134927.8
136323.33
133239.29
134447.51
131083.92
132279.62
128543.45
129211.87
125813.29
125662.91
123135.94
122648.56
120246.65
119580.57
117616.63
116612.8
114892.15
113490.65
111845.33
110306.29
108766.25
107116.13
105284.6
104080.41
103553.91
103435.49
103325.59
102934.71
102860.2
100721.43
98539.451
96490.982
94298.853
92040.29
89732.846
87464.094
85105.712
82771.847
80398.506
78050.643
75652.611
73311.461
70950.65
68612.065
66299.893
64015.898
61744.678
59521.738
57293.531
55182.889
53010.498
50824.445
49032.637
46630.42
44965.979
42965.191
41020.13
39247.736
37132.798
35024.959
33193.054
30845.738
28593.697
27155.389
25634.76
24250.184
22905.836
21801.154
20270.139
19544.759
17927.305
17344.893
15739.949
15310.009
13669.704
13229.5
11764.701
11232.231
10044.799
8880.4582
7565.6514
5540.0843
4363.5162
79579.738
69644.627
61052.8
69345.459
62490.177
65777.385
67402.365
66474.462
66542.471
66421.257
66390.419
65433.286
65133.928
65309.208
63399.668
64435.574
61856.067
63103.844
60413.249
62146.184
59370.199
60965.526
58650.266
59497.811
57596.651
58098.993
56447.575
56564.254
55178.202
55145.395
54092.002
53808.915
52907.474
52404.89
51736.352
51228.091
50328.884
50496.456
48894.965
47162.54
46859.177
46150.883
45109.389
44522.185
43689.732
42850.356
41907.335
41063.283
40056.972
39141.082
38144.286
37181.324
36173.382
35215.21
34211.314
33246.885
32273.565
31333.995
30365.208
29448.176
28534.774
27610.534
26692.56
25897.12
24858.405
24143.315
23188.892
22293.388
21456.891
20596.782
19787.156
18926.565
17816.903
17629.604
16985.582
16378.788
15548.341
14909.65
14311.182
13639.893
13063.899
12619.425
11812.815
11682.852
10719.51
10757.147
9790.8257
9872.8924
8970.5703
8728.275
7799.5881
7172.5015
6820.3068
5826.28
5517.9496
-11253.356
-4444.2439
-11478.785
-3374.9171
-5866.6818
-4208.7602
-5114.5308
-4128.4516
-8230.1623
-4904.2505
-8530.6143
-7105.1866
-8754.6556
-7746.211
-9669.5618
-7642.3533
-10022.577
-7493.1259
-9814.336
-7661.8369
-9362.5673
-7185.0537
-9240.0414
-7477.9968
-8479.0016
-7255.1382
-7723.0884
-6877.5865
-6951.6861
-6388.2266
-6324.0784
-5892.8735
-5667.3914
-5157.7836
-4843.6884
-4595.5428
-3731.2708
-3398.3216
-2966.2047
-3006.5518
-2413.6874
-1785.7845
-1632.5922
-1194.8761
-791.52295
-510.21769
-135.08368
231.00751
539.08304
862.92408
1158.1966
1460.1907
1725.0764
2000.435
2265.5433
2516.2462
2772.3009
3036.1929
3253.6155
3544.0049
3741.2707
4005.5458
4247.693
4432.2148
4719.0183
4857.0093
5075.0268
5280.543
5399.5306
5589.6953
5586.7573
5628.7624
5613.7492
5864.3425
6007.9229
6103.349
6030.2432
6148.809
6097.876
6184.5658
6238.5292
6139.3304
6343.7277
6200.9981
6254.6286
6370.0411
6054.4028
6516.1601
5884.0935
6543.7908
6264.2772
6817.6899
6830.4768
6396.4606
6885.7722
-77124.515
-80015.154
-65843.324
-63096.596
-64192.842
-68319.514
-66758.425
-71866.252
-71537.182
-74439.286
-74268.036
-75957.648
-75796.058
-75731.1
-76323.979
-74995.074
-76202.892
-73677.987
-75795.461
-72470.196
-74183.986
-71864.948
-72819.349
-69830.197
-70662.864
-68052.427
-68526.62
-66108.672
-66053.469
-64093.79
-63512.526
-61796.027
-60842.506
-59260.778
-58213.64
-56465.429
-55412.973
-53731.942
-52313.101
-50650.145
-49211.386
-47584.261
-46219.402
-44524.644
-43025.931
-41500.292
-40021.624
-38464.098
-37034.45
-35547.936
-34093.999
-32640.551
-31241.548
-29805.602
-28411.201
-27037.886
-25652.202
-24295.205
-22961.376
-21624.585
-20323.124
-19030.076
-17804.099
-16523.455
-15418.684
-14209.722
-13088.611
-12009.049
-10955.805
-9930.3714
-8966.4379
-7929.5394
-7119.2708
-6150.1651
-5631.2772
-5090.0513
-4182.0819
-3525.769
-2701.5288
-2067.457
-1339.0935
-773.51105
-62.850348
461.76424
1001.1292
1793.0174
1944.7434
3170.2967
2994.2303
4340.2371
4211.6929
4894.7143
5195.5553
6273.3587
7912.6413
-162379.46
-162006.7
-131858.77
-135281.25
-137961.86
-139653.09
-143374.05
-144278.88
-149972.23
-149347.94
-151698.58
-152268.72
-152764.73
-151774.56
-152692.55
-150068.73
-150703.58
-147950.93
-147880.33
-144949.32
-145237.25
-139434.87
-138600.38
-135393.82
-135003.6
-132192.24
-130994.18
-128396.05
-126844.05
-124414.66
-122666.75
-120190.75
-118308.45
-115847.43
-113511.86
-111194.42
-108632.8
-106199.39
-103557.57
-101084.02
-98464.589
-95781.701
-93060.853
-90413.902
-87610.696
-84907.844
-82121.564
-79333.925
-76608.266
-73848.491
-71104.378
-68405.608
-65718.736
-63036.21
-60402.521
-57792.3
-55191.633
-52630.741
-50121.812
-47587.943
-45150.209
-42722.562
-40326.252
-38008.139
-35732.543
-33470.928
-31314.9
-29241.887
-27204.739
-25249.084
-23352.574
-21549.442
-19821.258
-17596.628
-14891.995
-13474.167
-12188.009
-10846.186
-9382.4515
-8515.8148
-6803.9525
-6337.2527
-4575.0746
-4156.1841
-2713.4903
-1910.5559
-1080.3964
395.26927
573.4028
2571.5473
2730.0613
4107.4129
5348.9998
6918.1991
8633.4298
-249357.29
-197313.03
-176889.28
-180722.16
-186253.29
-188702.51
-193893.93
-197826.27
-202756.36
-203879.94
-205782.62
-207566.38
-207123.61
-206426.69
-206892.03
-203469.9
-204962.72
-200324.59
-201115.03
-198200.3
-199156.64
-198920.91
-198824.74
-197133.23
-196953.73
-192527.64
-191789.19
-187288.61
-185659.6
-181796.2
-179477.6
-175952.51
-173324.41
-169697.68
-166645.8
-163058.94
-159849.61
-156156.94
-152716.96
-148992.63
-145408.74
-141513.91
-137863.44
-133940.81
-130121.95
-126207.55
-122364.3
-118427.98
-114571.92
-110661.6
-106796.87
-102937.5
-99105.313
-95287.823
-91508.008
-87764.381
-84035.934
-80373.031
-76727.358
-73137.298
-69600.84
-66090.982
-62699.321
-59304.39
-56101.513
-52869.861
-49785.624
-46703.671
-43752.315
-40841.758
-38070.718
-35474.781
-32745.783
-30199.243
-27963.536
-24920.818
-22122.994
-20044.313
-17921.875
-15989.834
-14300.371
-12407.86
-10886.327
-9210.6991
-7663.1757
-6314.1986
-4661.7516
-3527.3758
-1875.7153
-513.43384
856.40262
2801.6916
4531.1783
6676.0207
10544.441
-295684.18
-279672.65
-251648.51
-246513.04
-252759.93
-255574.48
-264100.51
-268455.35
-271616.33
-275875.16
-277632.49
-277334.74
-278565.08
-276830.28
-276091.04
-274295.03
-272307.15
-269277.43
-268403.49
-263917.71
-264328.02
-259958.72
-263273.78
-261404.36
-259335.23
-256172.87
-253367.56
-249183.33
-246110.45
-241652.66
-238507.13
-233836.11
-230404.07
-225929.59
-221839.26
-217550.96
-212994.02
-208459.16
-203742.63
-199058.86
-194066
-189266.87
-184202.38
-179206.62
-174088.46
-168958.66
-163826.72
-158621.61
-153457
-148295.82
-143129.92
-138004.43
-132912.09
-127842.39
-122826.52
-117858.89
-112936.57
-108065.48
-103272.64
-98526.783
-93834.863
-89255.888
-84711.938
-80241.729
-75944.146
-71644.63
-67482.911
-63491.893
-59574.912
-55733.695
-52151.671
-48483.321
-45055.955
-41850.007
-38764.743
-36163.61
-32933.148
-30041.956
-27278.094
-24723.159
-22144.341
-19799.735
-17437.691
-15280.352
-13037.694
-11195.864
-8864.4534
-7352.221
-5146.086
-3318.6794
-1743.1423
1189.563
3391.1378
7495.6457
11770.541
-410868.71
-370345.98
-306379.09
-328464.34
-323938.55
-340068.99
-342219.35
-350727.82
-353797.09
-358016.52
-358584.21
-360372.69
-358616.12
-358547.74
-355530.18
-353039.17
-350908.43
-346133.7
-344464.71
-339517.11
-337237.79
-332881.44
-329096.81
-322815.57
-320274.27
-314892.54
-312470.67
-306382.12
-303181.81
-297615.62
-293598.06
-287977
-283860.73
-278406.92
-273559.67
-268088.91
-262681.34
-257084.99
-251609.99
-245667.63
-240008.15
-233951.84
-227968.84
-221820.86
-215671.67
-209433.24
-203216.38
-196903.79
-190652.94
-184369.43
-178087.51
-171853.19
-165632.71
-159452.61
-153315.95
-147245.63
-141206.71
-135258.1
-129372
-123546.24
-117828.04
-112178.2
-106628.21
-101135.18
-95872.386
-90578.166
-85551.307
-80586.441
-75751.414
-70998.851
-66433.53
-62014.488
-57784.149
-53617.54
-49599.637
-45843.603
-42131.197
-38643.869
-35214.489
-31955.103
-28872.755
-25872.363
-23028.898
-20286.881
-17697.432
-15129.402
-12717.118
-10484.069
-7850.8516
-6071.143
-3160.3456
-894.11256
1890.5463
5627.384
10189.96
-443922.44
-423744.22
-350004.7
-388829.49
-391739.87
-407047.6
-410308.17
-422080.97
-424889.58
-426787.61
-430857.06
-428713.04
-428821.32
-427078.05
-423103.56
-421093.49
-417257.27
-412187.03
-409982.07
-404000.57
-400469.53
-396139.57
-391638.46
-388199.33
-382886.54
-378261.85
-373531.65
-367623.27
-363850.84
-357348.69
-352742.29
-346258.21
-340800.08
-334505.14
-328578.54
-322653
-316030.21
-309856.05
-302788.54
-296189.31
-289100.39
-282007.67
-274822.76
-267500.1
-260143.58
-252675.1
-245178.63
-237638.31
-230085.17
-222526.61
-214974.82
-207458.39
-199974.83
-192536.21
-185158.35
-177848.9
-170607.66
-163453.34
-156379.14
-149412.54
-142530
-135774.35
-129109.55
-122548.72
-116134.39
-109717.12
-103534.49
-97634.771
-91877.739
-86083.141
-80746.495
-75375.602
-70155.647
-65256.211
-60385.8
-55780.552
-51338.405
-47103.185
-43034.269
-39203.743
-35479.435
-31963.681
-28553.284
-25368.248
-22159.791
-19271.355
-16318.215
-13559.964
-10773.132
-8468.8908
-5120.8115
-3404.2465
214.20935
3943.9002
9677.6336
-630196.68
-397642.57
-436473.83
-444261.56
-465270.63
-461974.82
-479464.28
-485769.55
-486436.74
-491289.74
-491113.2
-492597.84
-488651.86
-486581.5
-482735.35
-479112.72
-476860.28
-469672.88
-467536.92
-460146.25
-456253.71
-450091.21
-447237.31
-440398.04
-437641.37
-429738.28
-426094.63
-418209.29
-415390.98
-407713.52
-402797
-395370.63
-389295.21
-381522.94
-374252.94
-368389.01
-361440.01
-353810.6
-346227.89
-338616.06
-330541.19
-322574.26
-314326.06
-306015.63
-297615.51
-289116.24
-280596.96
-272035.39
-263427.76
-254863.47
-246261.86
-237728.71
-229211.1
-220748.83
-212358.06
-204036.57
-195787.8
-187640.52
-179588.69
-171631.05
-163798.43
-156089.09
-148494.31
-141047.61
-133726.94
-126401.74
-119218.64
-112182.38
-105808.14
-99419.686
-93284.051
-86992.419
-81195.008
-75472.048
-69965.379
-64702.869
-59744.746
-54816.125
-50250.368
-45758.408
-41532.626
-37431.127
-33600.145
-29774.882
-26258.864
-22827.777
-19450.967
-16383.334
-13349.968
-10552.415
-7635.4178
-5963.4157
-2622.903
73.301947
5743.4936
1164407
1121098.4
1098530.8
1126371.2
1131275.5
1138949.6
1175695.1
1152145.6
1142326
1139003.8
1132328.1
1097294.4
1088385.9
1142486.6
994029.77
1031517.7
1050372.1
1005312.5
1029272.8
1041005.3
1057474.3
1029723.8
1066364.8
1055623
1064062.7
1042642.7
1037700.6
1037848.5
1046598.5
908272.86
785842.82
882767.84
793078.01
829603.31
826262.75
820670.6
829910.18
822813.27
829922.13
817271.45
815269.55
820951.5
770472.3
841008.24
785304.05
681260.93
680386.27
684736.74
675386.87
695246.51
690226.9
699595.88
700089.26
693267.81
696307.67
697191.14
673996.23
677182.77
719661.18
531367.59
487192.75
548857.25
486261.05
523251.56
509377.2
526302.85
520520.67
518803.5
522412.84
521222.12
514027.6
512579.85
505517.76
518869.81
467338.28
357266.43
367818.51
349432.31
359295.85
360691.22
361929.52
359468.85
360742.73
363322.5
361095.82
352211.65
366509.81
345925.09
364436.36
350680.58
191400.21
194565.47
198629.11
191083.23
200462.53
202142.65
199785.53
200980.35
196396.71
199642.51
194762.43
184484.16
198151.01
179929.82
190603.93
22267.792
19361.215
12464.601
23437.098
16581.803
20757.029
17133.709
19674.958
13443.726
27016.93
1270.447
25074.294
35279.383
-6023.6273
87075.552
-127111.33
-144879.64
-121928.24
-134928.46
-129754.47
-130744.14
-132498.47
-129920.32
-135747.44
-122972.45
-143966.8
-123522.08
-122877.91
-169078.91
-16059.179
-267543.24
-331702.67
-290321.79
-303183.93
-303169.07
-306947.85
-311932.53
-308863.36
-321157.72
-300269.34
-343288.86
-295829.94
-295806.51
-361647.14
-176675.67
-433760.96
-536230.47
-441320.71
-496426.85
-469523.66
-485183.76
-478988.79
-479865.18
-485185.37
-462853.92
-478905.97
-470797.36
-439456.97
-507004.37
-286474.32
-638874.67
-611558.39
-616340.14
-599478.37
-626179.57
-627066.43
-633312.08
-639478.34
-643910.99
-631807.99
-670469.02
-586571.42
-620116.72
-696041.07
-446546
-718329.5
-831773.37
-712206.41
-760312.35
-721874.52
-751158.56
-740408.48
-743572.32
-734773.82
-731027.66
-739128.24
-744383.97
-679187.54
-833371.24
-387084.95
-881535.81
-1081187.8
-924200.5
-1013755.2
-1036736.3
-1030835.5
-1037241
-1089956.8
-1063471.7
-1089915.1
-1027471.3
-1000459.9
-1025527.7
-1005062.8
-899693.04
-938473.28
-860659.34
-766471.38
-771250.61
-804718.62
-866053.69
-825880.35
-798246.91
-764379.08
-758992.8
-774964.12
-782074.56
-781751.85
-885204.15
-788386.49
-887246.05
-831760.78
-990409.94
-1054689.4
-1099013.1
-1201197.2
-1154517.5
-1082016.4
-1229086.9
-1202135.8
-1161119.1
-1098463.8
-1044927.9
-997940.48
-822612.39
-611385.53
-620305.66
-703922.06
-727685.88
-760870.24
-786115.43
-809971.36
-834569.75
-863315.98
-817765.17
-799368.76
-748876.89
-749973.04
-741465.91
-750920.29
-512938.02
-598352.3
-578305.41
-641307
-680410
-660180.91
-696164.96
-690138.23
-669104.64
-698770.56
-669624.95
-678085.37
-656560.7
-574916.52
-607765.84
-517695.54
-595118.71
-601900.99
-621320.31
-641068.07
-654637.66
-662043.08
-669016.55
-667630.51
-652251.7
-652094.79
-635312.85
-605878.4
-595688.5
-558522.93
-561510.19
-620791.66
-601297.33
-650879.51
-658111.87
-673223.68
-687397.73
-685547.86
-690238.9
-688118.12
-670641.39
-655679.47
-627101.24
-596107.24
-593150.47
-543585.79
-572494.04
-588561.36
-613060.91
-623740.52
-642134.76
-641946.48
-645662.47
-646329.29
-635141.52
-630579.53
-617271.17
-596300.61
-580424.65
-546901.23
-544813.01
-590192.09
-589496.94
-617973.43
-620865.07
-635886.17
-640852.31
-643367.15
-643208.53
-636316.68
-623375.86
-614728.94
-596772.81
-569508.16
-575150.08
-552309.16
-565442.21
-582525.68
-591753.02
-611642.77
-614439.13
-622389.43
-625025.93
-622922.45
-618703.9
-611257.67
-598688.6
-586705.72
-565612.27
-550826.07
-543211.16
-570168.29
-573973.27
-593572.94
-593129.37
-609187.45
-605379.46
-611394.49
-608613.79
-602186.6
-596187.85
-585990.29
-576280.51
-562875.79
-554412.78
-547017.12
-554223.78
-565738.79
-570042.34
-581248.7
-583544.33
-589829.46
-590012.33
-588523.26
-588336.04
-580260.69
-575603.11
-566562.52
-554705.49
-549655.97
-538170.29
-554975.68
-557952.38
-571635.93
-573882.86
-583883.93
-582412.86
-587915.15
-586293.63
-582621.19
-580553.25
-574997.7
-565611.17
-559463.01
-552793.69
-541264.75
-543138.18
-551604.73
-554613.63
-560336.37
-561330.12
-566740.26
-567201.19
-568346.34
-566817.12
-563910.85
-559002.62
-555671.62
-548213.41
-545889.53
-536411.57
-540988.15
-542660.08
-551072.06
-553000.19
-560436.22
-559642.12
-563773.84
-563081.83
-562302.48
-557718.56
-557496.04
-549475.06
-547832.35
-542610.43
-530779.56
-533149.84
-539723.16
-540659.03
-545708.01
-545827.43
-547945.47
-550277.56
-550646.23
-548700.15
-548282.31
-545997.69
-542707.88
-539298.33
-538796.92
-527244.78
-528580.48
-532315.17
-536174.77
-538715.77
-540724.86
-543879.22
-543451.77
-545422.6
-545949.17
-543349.96
-542999.22
-535978.23
-537939.76
-534810.46
-520661.77
-523068.06
-528195.83
-527753.52
-531069.37
-531430.75
-536541.93
-532766.75
-532856.53
-532289.02
-530659.92
-530236.83
-524656.18
-524785.84
-521931.02
-518446.01
-517514.92
-521871.49
-520766.87
-526098.48
-527598.01
-528157.92
-529849.29
-530658.05
-531288.71
-529297.37
-530301.72
-528527.81
-523802.07
-528335.58
-513396.72
-513258.87
-516509.38
-516063.82
-518927.78
-519646.81
-521651.35
-519943.03
-520710.04
-519779.56
-518595.67
-517623.76
-517061.07
-513532.11
-513359.65
-506653.35
-507611.67
-510888.01
-512654.84
-513856.36
-514324.85
-513755.2
-516767.29
-516041.41
-517238.63
-513323.73
-516930.37
-512841.22
-516136.52
-513519.02
-502666.6
-502664.47
-505140
-504759.14
-507517.09
-507898.06
-510791.77
-508470.12
-510615.31
-508420.04
-507398.35
-508658.04
-505082.36
-506071.81
-503481.05
-498511.8
-497566.74
-500888.14
-500243.05
-501880.9
-501553.32
-503728.46
-505013.35
-503523.14
-504571.82
-503365.43
-504995.12
-502008.4
-502970.76
-500692.32
-489408.74
-492834.63
-493482.92
-495016.29
-496665.12
-496372.43
-498506.1
-497290.35
-498852
-497850.4
-496914.44
-498311.51
-494734.87
-492698.64
-495852.06
-488398.09
-486099.75
-489065.6
-489651.46
-491055.09
-491719.5
-493083.14
-492818.22
-491906.39
-494004
-491214.86
-491989.51
-488645.11
-491576.9
-489595.78
-479771.42
-481024.26
-482657.4
-484810.23
-485034.96
-486030.25
-486917.55
-485937.61
-487549.13
-486438.19
-484636.36
-486949.4
-484430.35
-483301.94
-482646.84
-475481.06
-476527.38
-477411.11
-478404.82
-479519.67
-479340.28
-481585.16
-481129.38
-481110.99
-482050.9
-478469.57
-481144.59
-478116.59
-478017.54
-478020.69
-470813.48
-468683.42
-472309.45
-471294.37
-473498.92
-474122.05
-475536.54
-474708
-475561.03
-475264.58
-475486.74
-474711.06
-471196.15
-473489.88
-469996.77
-463339.16
-463475.52
-464614.25
-466984.82
-467281.42
-469551.23
-469301.59
-469948.25
-469403.76
-469779.44
-467720.99
-470184.99
-465023.25
-465647.26
-467135.08
-459230.45
-456484.37
-459285.78
-459912.38
-462323.72
-462593.62
-462981.31
-463065.17
-463924.69
-463070.9
-462505.32
-462119.69
-459804.09
-462080.05
-457597.3
-450482.41
-451934.01
-454166.63
-454385.09
-455353.51
-456523.5
-456992
-457588.17
-457344.6
-457693.14
-455669.3
-457086.2
-453530.42
-452764.02
-454664.35
-447661.63
-443417.18
-447059.6
-447966.09
-449997.53
-449468.62
-450780.05
-450929.41
-451004.14
-450367.06
-448996.9
-450107.79
-446947.86
-447890.01
-446898.52
-439111.95
-438411.66
-440511.72
-441785.4
-442291.73
-444833.99
-443876.11
-444309.55
-443078.69
-444682.78
-442796.98
-443802.06
-440695.49
-440325.92
-440347.5
-433711.52
-430711.51
-433987.84
-434729.87
-435969.77
-437251.82
-437109.88
-437507.42
-437064.41
-437669.45
-435660.98
-437037.53
-433764.68
-434120
-433416.27
-426163.93
-424288.68
-426783.15
-427989.78
-429112.84
-430308.86
-430204.16
-430711.83
-430367.68
-430708.25
-429050.04
-429876.21
-427034.1
-426910.46
-426037.69
-418938.82
-416913.68
-419646.93
-420585.55
-421676.18
-422734.72
-423087.12
-423398.26
-422922.02
-423317.83
-421405.59
-422621.11
-419744.78
-419801.35
-419303.53
-410672.2
-409973.93
-412415.65
-413131.56
-414240.75
-415797.18
-415468.44
-416205.57
-415578.77
-416317.44
-414283.92
-415430.15
-412090.03
-412818.45
-410544.21
-402221.53
-403074.11
-403679.32
-407304.22
-405986.26
-407777.75
-407828.52
-408017.57
-407934.32
-408119.72
-406369.84
-407189.22
-405166.3
-404091.92
-405642.94
-397033.89
-393946.38
-396891.67
-397472.09
-399486.09
-399320.59
-400431.43
-400117.68
-400165.65
-399424.59
-398515.69
-399802.06
-396731.77
-397171.3
-396087.06
-387466.29
-386738.42
-388360.28
-390443.73
-390037.82
-392021.66
-391436.2
-392418.41
-391595.54
-392070.88
-390431.41
-391369.95
-389051.05
-388381.63
-388400.91
-380617.33
-377828.43
-380650.47
-381455.99
-382495.05
-383274.86
-383609.38
-383823.64
-383385.73
-383834.83
-382084.46
-383431.53
-380393.11
-380660.53
-380017.89
-371303.06
-369846.92
-371969.76
-373245.03
-373656.77
-374966.28
-374907.95
-375247.97
-374947.98
-375169.86
-373577.18
-374400.66
-372191.96
-372049.29
-371685.98
-363258.45
-360955.2
-363481.07
-364251.72
-365119.53
-365914.54
-366140.03
-366455.7
-366063.95
-366520.72
-364782.24
-365996.13
-363477.94
-363500.97
-363074.01
-354155.18
-352409.28
-354530.33
-355566.44
-356146.21
-357135.62
-357349.38
-357466.74
-357304.96
-357494.49
-356079.44
-357035.74
-354731.63
-354750
-354439.74
-345530.77
-343372.47
-345690.33
-346414.75
-347115.68
-348046.08
-348147.63
-348409.09
-348116.07
-348484.75
-346981.28