/*--------------------------------*- C++ -*----------------------------------*\
  =========                 |
  \\      /  F ield         | OpenFOAM: The Open Source CFD Toolbox
   \\    /   O peration     | Website:  https://openfoam.org
    \\  /    A nd           | Version:  6
     \\/     M anipulation  |
\*---------------------------------------------------------------------------*/
FoamFile
{
    version     2.0;
    format      ascii;
    class       pointVectorField;
    location    "1.58";
    object      lm;
}
// * * * * * * * * * * * * * * * * * * * * * * * * * * * * * * * * * * * * * //

dimensions      [1 -2 -1 0 0 0 0];

internalField   nonuniform List<vector> 
28033
(
(0 0 0)
(0 0 0)
(-3953.4347 -494.99294 -75.774861)
(-3896.7827 1027.0722 -85.864468)
(0 0 0)
(0 0 0)
(-3874.8272 1070.0745 -87.762133)
(-3932.9027 -451.24694 -70.490945)
(0 0 0)
(0 0 0)
(0 0 0)
(0 0 0)
(0 0 0)
(0 0 0)
(0 0 0)
(0 0 0)
(0 0 0)
(0 0 0)
(0 0 0)
(0 0 0)
(0 0 0)
(0 0 0)
(0 0 0)
(-3837.2337 -388.45629 -73.156314)
(-3696.1519 -285.70281 -70.055083)
(-3592.0695 -191.84716 -68.406511)
(-3538.9617 -104.78382 -67.877867)
(-3543.5488 -20.790953 -68.953382)
(-3603.4644 64.448609 -71.366863)
(-3707.9378 154.31282 -74.876671)
(-3839.941 251.33445 -79.129283)
(-3977.8147 355.56031 -83.634861)
(-4099.4789 465.29576 -87.815412)
(-4185.444 576.87425 -90.975592)
(-4221.2936 685.58271 -92.731071)
(-4200.8692 786.66828 -93.077076)
(-4125.9437 876.53346 -91.573227)
(-4011.5521 954.51655 -88.853305)
(13.403486 18.193038 15.622702)
(23.423808 25.646344 18.279352)
(35.114683 30.553785 18.408778)
(47.256216 35.615642 17.875516)
(59.863224 38.569461 16.104392)
(72.390556 41.151517 14.392533)
(84.971286 42.424506 12.118031)
(97.2264 43.193267 10.119148)
(109.22108 42.768204 7.8949891)
(120.75804 41.89371 5.8522826)
(131.88563 40.01573 3.7068109)
(142.40864 37.665043 1.7971288)
(152.58362 34.493695 -0.45754419)
(162.04984 30.815514 -2.449724)
(171.31054 26.439044 -4.9431879)
(179.77362 21.508149 -7.206552)
(187.98413 15.905087 -10.059706)
(195.50587 9.7344201 -12.83931)
(202.54127 2.774777 -16.0905)
(208.75909 -4.8131023 -19.376508)
(214.29581 -13.179718 -23.041297)
(218.72712 -22.335539 -26.702789)
(222.12077 -32.243598 -30.609522)
(224.09563 -43.088834 -34.4762)
(224.51845 -54.670891 -38.370014)
(223.09709 -67.137 -42.102948)
(219.69612 -80.312223 -45.727747)
(214.01503 -94.380513 -49.09746)
(205.85846 -108.96225 -52.154894)
(195.08407 -124.27282 -54.92263)
(181.49086 -140.00495 -57.280401)
(164.98284 -156.1141 -59.277084)
(145.5188 -172.5106 -60.942519)
(123.02441 -188.91703 -62.232782)
(97.519684 -205.43047 -63.175193)
(69.009154 -221.66082 -63.773367)
(37.590598 -237.7043 -64.213308)
(3.3362766 -253.25126 -64.344349)
(-33.653572 -268.24676 -64.249706)
(-73.256969 -282.7091 -64.021948)
(-115.32888 -296.33364 -63.591668)
(-159.74003 -309.28316 -63.015366)
(-206.40994 -321.32982 -62.243661)
(-255.19541 -332.5205 -61.256495)
(-305.93444 -342.79187 -60.049352)
(-358.58687 -352.18369 -58.546118)
(-412.9821 -360.66029 -56.734645)
(-469.05972 -368.26477 -54.557409)
(-526.67145 -375.0149 -51.998201)
(-585.72876 -380.9589 -49.032361)
(-646.07978 -386.13786 -45.665237)
(-707.59937 -390.61812 -41.919278)
(-770.12121 -394.45972 -37.839029)
(-833.4795 -397.7414 -33.497535)
(-897.48898 -400.54153 -28.9895)
(-961.95398 -402.95443 -24.426351)
(-1026.681 -405.06808 -19.949158)
(-1091.4687 -406.98715 -15.695626)
(-1156.1331 -408.82501 -11.81378)
(-1220.5088 -410.66283 -8.4596463)
(-1284.4478 -412.63673 -5.7646024)
(-1347.8642 -414.82434 -3.8406797)
(-1410.6365 -417.36778 -2.8051056)
(-1472.8633 -420.26217 -2.6747003)
(-1534.4604 -423.66469 -3.6128718)
(-1595.4864 -427.73918 -5.3578822)
(-1656.3546 -432.20399 -8.1461772)
(-1716.9512 -437.46786 -11.643952)
(-1777.4201 -443.28926 -16.220413)
(-1838.4193 -449.77366 -21.252105)
(-1899.8842 -456.76232 -26.76812)
(-1962.2263 -464.28705 -32.653679)
(-2025.7323 -472.22736 -38.656088)
(-2090.6319 -480.51179 -44.68533)
(-2157.2316 -488.96442 -50.560846)
(-2225.661 -497.47262 -56.122643)
(-2296.1904 -505.88009 -61.278882)
(-2368.7927 -514.00751 -65.908941)
(-2443.7094 -521.7197 -69.960723)
(-2520.7234 -528.82896 -73.361951)
(-2600.0117 -535.17768 -76.087412)
(-2681.2803 -540.58296 -78.190396)
(-2764.4888 -545.00688 -79.596364)
(-2849.3508 -548.20069 -80.430281)
(-2935.6772 -550.24728 -80.733758)
(-3023.1594 -550.81668 -80.574945)
(-3111.5427 -550.03736 -80.033198)
(-3200.3955 -547.90447 -79.201961)
(-3289.5443 -544.22695 -78.210731)
(-3378.4141 -539.438 -77.087627)
(-3466.9222 -533.05397 -76.119097)
(-3554.5498 -525.89398 -75.183339)
(-3641.1619 -517.30459 -74.651311)
(-3726.3458 -508.25442 -74.433879)
(-3808.8623 -498.12449 -74.465499)
(8.1629742 -16.367899 -20.312143)
(22.443226 -22.842579 -16.40261)
(36.470175 -30.547284 -16.0915)
(48.750558 -33.54148 -12.639435)
(63.062185 -38.230991 -8.8964303)
(76.646732 -40.625739 -5.1097632)
(89.917311 -42.983678 -0.99521322)
(103.09184 -44.081008 2.7163034)
(115.61461 -44.834922 6.4609445)
(127.65828 -44.643614 9.702288)
(138.96567 -43.95491 12.78203)
(149.75318 -42.526259 15.48527)
(159.72557 -40.559403 17.937887)
(169.20717 -37.901044 20.201006)
(177.95502 -34.727733 22.281127)
(186.25221 -30.782803 24.313998)
(193.84113 -26.305446 26.289928)
(200.91585 -21.012858 28.29324)
(207.40526 -15.082869 30.408537)
(213.098 -8.2686626 32.586252)
(218.12909 -0.74268622 34.898617)
(222.1872 7.7293387 37.328519)
(225.23502 16.962725 39.836337)
(227.04811 27.140508 42.416055)
(227.48155 38.100085 44.978763)
(226.16253 50.025767 47.449611)
(223.07755 62.687617 49.814129)
(217.82304 76.154729 51.904321)
(210.36487 90.333652 53.754787)
(200.3589 105.11114 55.145453)
(187.7992 120.47955 56.169768)
(172.44405 136.27321 56.672486)
(154.30453 152.47374 56.661273)
(133.22674 168.94466 56.091319)
(109.27833 185.62497 54.994674)
(82.405451 202.44105 53.349155)
(52.758849 219.22652 51.189307)
(20.31057 236.09068 48.623539)
(-14.724713 252.80419 45.663044)
(-52.322608 269.42529 42.402331)
(-92.274751 285.86814 38.922503)
(-134.47695 302.1078 35.320285)
(-178.75453 318.11254 31.679604)
(-224.9899 333.85597 28.092896)
(-273.01385 349.30867 24.644371)
(-322.72075 364.44722 21.406057)
(-373.95444 379.23897 18.451996)
(-426.61905 393.65739 15.829639)
(-480.57469 407.66692 13.591288)
(-535.72814 421.23557 11.76164)
(-591.9507 434.3302 10.366009)
(-649.1452 446.91974 9.4082943)
(-707.18588 458.97819 8.8893)
(-765.96933 470.48996 8.7939909)
(-825.36783 481.4458 9.1043185)
(-885.27286 491.8541 9.7916055)
(-945.56109 501.74073 10.822068)
(-1006.1261 511.14284 12.159988)
(-1066.8594 520.12667 13.762474)
(-1127.6752 528.77108 15.586183)
(-1188.4959 537.17619 17.586217)
(-1249.2731 545.45855 19.715512)
(-1309.9805 553.75166 21.924597)
(-1370.6292 562.19281 24.163814)
(-1431.2475 570.92791 26.389192)
(-1491.933 580.1159 28.530155)
(-1552.7473 589.87814 30.556465)
(-1613.9048 600.32186 32.41553)
(-1675.4984 611.63458 34.003724)
(-1737.741 623.80957 35.316181)
(-1800.9827 637.11475 36.270565)
(-1865.2261 651.16078 36.816337)
(-1930.9236 666.49351 36.84158)
(-1998.1777 682.66169 36.343707)
(-2067.2247 699.84403 35.272906)
(-2138.2499 717.83827 33.563168)
(-2211.4169 736.57209 31.197051)
(-2286.8511 755.89947 28.139983)
(-2364.5715 775.64668 24.38652)
(-2444.6494 795.65725 19.957512)
(-2527.0009 815.72684 14.864294)
(-2611.5526 835.66876 9.1548114)
(-2698.1521 855.29401 2.8786463)
(-2786.5916 874.40952 -3.8755935)
(-2876.6344 892.83908 -11.03626)
(-2967.9758 910.41818 -18.484361)
(-3060.3117 926.99977 -26.127801)
(-3153.2642 942.45211 -33.828926)
(-3246.4829 956.68412 -41.48527)
(-3339.5651 969.61751 -48.963912)
(-3432.1402 981.20178 -56.150664)
(-3523.8094 991.4636 -62.943737)
(-3614.2549 1000.4226 -69.266169)
(-3703.1994 1008.27 -75.071616)
(-3798.2718 1017.1806 -80.578125)
(0 0 0)
(0 0 0)
(0 0 0)
(0 0 0)
(0 0 0)
(0 0 0)
(0 0 0)
(0 0 0)
(0 0 0)
(0 0 0)
(0 0 0)
(0 0 0)
(0 0 0)
(0 0 0)
(0 0 0)
(13.791073 -8.9220541 17.538867)
(24.851496 -29.211087 20.857203)
(36.228475 -30.398574 19.684702)
(49.354034 -37.652243 20.480697)
(62.235667 -41.231409 18.855715)
(74.479399 -42.873601 16.936474)
(87.69751 -45.785762 15.017777)
(99.470127 -45.653627 12.992776)
(111.85273 -46.3269 10.780812)
(122.98937 -44.956705 8.9153177)
(133.49786 -43.786447 6.7221569)
(144.54351 -41.365294 4.8206119)
(153.64446 -38.516945 2.5826647)
(163.70803 -35.08502 0.43705368)
(171.81477 -30.764273 -2.0350073)
(180.65162 -26.323393 -4.6055274)
(188.66044 -20.569273 -7.5355634)
(195.84198 -15.123044 -10.528695)
(203.08173 -7.8676024 -14.068117)
(209.02102 -1.0616696 -17.60175)
(214.76296 7.3935756 -21.466285)
(219.45244 16.214901 -25.501699)
(222.85661 25.834373 -29.706811)
(225.16412 36.336859 -33.812704)
(225.90048 47.752703 -37.918818)
(225.01691 59.77443 -41.897495)
(222.02727 72.874187 -45.58935)
(217.08633 86.509189 -49.179856)
(209.50135 100.89032 -52.1869)
(199.64161 116.10841 -55.067231)
(187.07251 131.69979 -57.372911)
(171.73482 147.79834 -59.304362)
(153.57022 164.2671 -60.81352)
(132.6226 180.99891 -61.962396)
(108.87419 198.03368 -62.78332)
(82.140251 214.18955 -63.060634)
(52.973512 231.59819 -63.402746)
(21.056832 248.11388 -63.379972)
(-13.317728 264.50621 -63.178789)
(-50.099146 280.53654 -62.838039)
(-89.145463 296.1869 -62.377266)
(-130.33796 311.36647 -61.792988)
(-173.58782 326.08842 -61.09241)
(-218.77569 340.28172 -60.245803)
(-265.82438 353.97785 -59.22917)
(-314.64345 367.14654 -57.999998)
(-365.15996 379.82433 -56.519202)
(-417.29387 392.01406 -54.744793)
(-470.9696 403.75981 -52.645662)
(-526.09927 415.08523 -50.197683)
(-582.58812 426.04227 -47.399389)
(-640.32539 436.66836 -44.260747)
(-699.18531 447.02333 -40.82637)
(-759.02397 457.15139 -37.149967)
(-819.68422 467.12418 -33.324805)
(-880.99508 476.98878 -29.447815)
(-942.77626 486.8265 -25.651351)
(-1004.8515 496.69344 -22.061945)
(-1067.0403 506.67253 -18.828396)
(-1129.1889 516.83218 -16.085613)
(-1191.1503 527.25744 -13.97001)
(-1252.8243 538.01917 -12.595342)
(-1314.1288 549.20908 -12.061669)
(-1375.0497 560.89261 -12.431426)
(-1435.586 573.1599 -13.749609)
(-1495.8402 586.0557 -16.014964)
(-1555.8741 599.7098 -19.222316)
(-1616.8643 614.28989 -23.189914)
(-1675.0996 628.87227 -27.886159)
(-1736.8395 645.11574 -33.34199)
(-1798.0412 661.92964 -39.301537)
(-1860.3738 679.43292 -45.451998)
(-1923.9146 697.82677 -51.827972)
(-1988.9928 716.85783 -58.183991)
(-2055.8574 736.52637 -64.348181)
(-2124.7347 756.72454 -70.201915)
(-2195.8044 777.31911 -75.603475)
(-2269.2046 798.18759 -80.45489)
(-2345.0121 819.15726 -84.665486)
(-2423.2554 840.08637 -88.19304)
(-2503.8938 860.79027 -91.004283)
(-2586.8373 881.10456 -93.0996)
(-2671.9337 900.85532 -94.503089)
(-2758.9826 919.88366 -95.25799)
(-2847.7325 938.03251 -95.426429)
(-2937.8978 955.17134 -95.089607)
(-3029.1485 971.17571 -94.33652)
(-3121.1348 985.95953 -93.27483)
(-3213.4807 999.44165 -92.015785)
(-3305.7915 1011.5981 -90.679184)
(-3397.6855 1022.4029 -89.396412)
(-3488.7371 1031.9179 -88.282799)
(-3578.6394 1040.1972 -87.465648)
(-3667.0281 1047.4389 -86.995883)
(-3745.5878 1051.588 -86.820074)
(-4000.4686 1001.3976 -88.272036)
(-4122.0589 926.28019 -88.575773)
(-4179.6422 833.1875 -88.032645)
(-4193.8063 731.55788 -87.049631)
(-4155.7818 622.21314 -85.477558)
(-4060.1317 508.96049 -82.99443)
(-3944.5217 398.91781 -80.432883)
(-3820.4204 294.40919 -77.736105)
(-3671.1511 195.03807 -74.384424)
(-3564.2209 104.16211 -71.979159)
(-3522.4899 18.88594 -70.553328)
(-3524.0069 -65.525759 -69.857651)
(-3579.996 -152.05209 -69.660501)
(-3693.6521 -246.09972 -70.408075)
(-3852.5941 -349.21297 -71.166565)
(-3802.734 -456.62527 -64.623947)
(-3725.309 -467.06959 -59.6688)
(-3639.5451 -475.9837 -54.160293)
(-3552.2347 -483.90092 -48.10998)
(-3463.7398 -490.77499 -41.496587)
(-3374.3151 -496.41593 -34.540153)
(-3284.2888 -500.81047 -27.219489)
(-3194.0393 -503.87526 -19.745765)
(-3103.8926 -505.60357 -12.189781)
(-3014.248 -506.02885 -4.6912665)
(-2925.38 -505.18752 2.6481476)
(-2837.6773 -503.15711 9.6958606)
(-2751.3184 -500.05789 16.400105)
(-2666.6899 -495.97089 22.653403)
(-2583.8897 -491.12194 28.391371)
(-2503.1237 -485.62148 33.528729)
(-2424.5187 -479.63098 37.99383)
(-2348.0887 -473.35028 41.824688)
(-2273.8779 -466.96525 44.954915)
(-2201.82 -460.62741 47.412773)
(-2131.8311 -454.53435 49.197599)
(-2063.7701 -448.80093 50.352896)
(-1997.4442 -443.59887 50.894848)
(-1932.7291 -438.95025 50.864564)
(-1869.2215 -435.01988 50.314303)
(-1806.9735 -431.75196 49.367716)
(-1746.2769 -429.6511 47.894964)
(-1684.3328 -426.82606 45.688847)
(-1624.2167 -426.34205 43.96469)
(-1564.1071 -425.39342 41.391127)
(-1503.9345 -425.1929 38.886599)
(-1443.6801 -425.21513 36.111179)
(-1383.2222 -425.39849 33.296991)
(-1322.5236 -425.58301 30.436716)
(-1261.5238 -425.63249 27.600604)
(-1200.2391 -425.39818 24.850464)
(-1138.7093 -424.74487 22.237584)
(-1076.9936 -423.55842 19.817528)
(-1015.1805 -421.73407 17.648678)
(-953.37698 -419.19062 15.780029)
(-891.70051 -415.86553 14.26244)
(-830.28071 -411.71541 13.139702)
(-769.25157 -406.71553 12.45001)
(-708.75068 -400.85819 12.223414)
(-648.91655 -394.14571 12.479909)
(-589.88877 -386.5974 13.230289)
(-531.80593 -378.23043 14.470146)
(-474.81008 -369.07778 16.182793)
(-419.045 -359.16636 18.342641)
(-364.65162 -348.52473 20.895123)
(-311.79572 -337.19184 23.798454)
(-260.61514 -325.18642 26.961373)
(-211.28314 -312.54717 30.333613)
(-163.98489 -299.30785 33.787976)
(-118.86064 -285.47861 37.254873)
(-76.118594 -271.15713 40.637755)
(-35.858197 -256.39035 43.827305)
(1.7472129 -241.7072 46.859424)
(36.28964 -225.14135 49.231097)
(68.246046 -209.67387 51.45121)
(97.348752 -193.96163 53.195988)
(122.51605 -177.10322 54.177329)
(145.27132 -161.29585 54.733855)
(164.75317 -145.23697 54.847611)
(181.6631 -129.5739 54.383035)
(194.55908 -113.86568 53.373463)
(205.81571 -99.233734 51.904243)
(213.40781 -84.608569 50.137968)
(219.17024 -71.006267 48.000168)
(222.59726 -58.068069 45.723042)
(224.01143 -45.810393 43.209755)
(223.8203 -34.621059 40.676596)
(221.88771 -23.984589 38.077466)
(218.64702 -14.639789 35.599714)
(214.40892 -5.8768716 33.210532)
(209.30897 1.9675659 30.859308)
(203.07345 8.8893254 28.754773)
(196.68366 15.198704 26.656071)
(189.03382 20.529756 24.800132)
(181.40896 25.433164 22.8305)
(173.17254 29.418823 21.106296)
(164.10454 32.997987 19.041714)
(154.31799 35.534887 17.105304)
(144.76883 38.207037 14.793731)
(133.89026 39.237644 12.581567)
(122.42406 40.580822 9.5762564)
(111.08521 40.647688 6.8299013)
(98.640041 40.614412 3.3569445)
(85.970507 39.218193 0.10271662)
(72.651099 37.575566 -3.7562854)
(59.958966 34.650761 -7.1746927)
(46.987254 31.566184 -10.551033)
(34.452266 27.25824 -13.286426)
(22.474825 21.261189 -13.655059)
(15.090253 16.02655 -11.795801)
(0 0 0)
(0 0 0)
(0 0 0)
(0 0 0)
(0 0 0)
(0 0 0)
(0 0 0)
(0 0 0)
(0 0 0)
(0 0 0)
(0 0 0)
(0 0 0)
(0 0 0)
(0 0 0)
(0 0 0)
(0 0 0)
(0 0 0)
(0 0 0)
(0 0 0)
(0 0 0)
(0 0 0)
(0 0 0)
(0 0 0)
(0 0 0)
(0 0 0)
(0 0 0)
(0 0 0)
(0 0 0)
(0 0 0)
(0 0 0)
(-3896.1659 1032.5037 -85.67026)
(-3895.5998 1037.5879 -85.327994)
(-3895.0405 1042.1414 -85.113643)
(-3894.3789 1046.2276 -85.03333)
(-3893.6575 1049.9145 -85.186386)
(-3892.7331 1053.2134 -85.513055)
(-3891.6154 1056.1678 -85.993039)
(-3890.297 1058.85 -86.544215)
(-3888.7716 1061.2715 -87.137101)
(-3887.073 1063.4461 -87.654689)
(-3885.2193 1065.4138 -88.103538)
(-3883.2101 1067.0862 -88.341595)
(-3881.1379 1068.4804 -88.400031)
(-3879.0205 1069.4862 -88.252426)
(-3876.8338 1070.1422 -87.920777)
(-3953.8149 -494.11222 -75.766926)
(-3953.6268 -492.94671 -75.778615)
(-3953.4092 -491.49224 -75.711715)
(-3953.026 -489.69715 -75.392062)
(-3952.5697 -487.73748 -74.919935)
(-3951.9057 -485.56234 -74.258114)
(-3951.0578 -483.23635 -73.520598)
(-3949.9765 -480.75578 -72.732953)
(-3948.6643 -478.10786 -71.98215)
(-3947.098 -475.2609 -71.322694)
(-3945.2868 -472.16856 -70.800236)
(-3943.2159 -468.74964 -70.482259)
(-3940.9682 -465.01551 -70.341045)
(-3938.4579 -460.75286 -70.383456)
(-3935.9102 -456.15414 -70.539026)
(7.875014 8.9844915 14.662262)
(19.651013 13.628303 13.786972)
(30.728221 18.459474 15.956656)
(42.525026 22.37144 15.244896)
(54.70236 25.481875 14.429878)
(66.804373 27.802187 13.030347)
(79.250335 29.68993 11.520044)
(91.093498 30.481531 9.9312026)
(103.29264 31.093914 8.2069226)
(114.62543 30.5349 6.5206909)
(125.96866 29.864758 4.8805765)
(136.62055 28.05959 3.0673759)
(147.10495 26.140111 1.4237284)
(156.94198 23.117459 -0.4923296)
(166.62726 19.979113 -2.3661257)
(175.67128 15.84356 -4.5385035)
(184.44107 11.407039 -6.7011573)
(192.79345 6.1622096 -9.2599117)
(200.56699 0.44259564 -11.891359)
(207.86865 -5.9998563 -14.799855)
(214.46809 -13.054313 -17.886979)
(220.26324 -20.780962 -21.185013)
(225.0197 -29.236058 -24.545222)
(228.65639 -38.344085 -28.095733)
(230.7647 -48.188189 -31.596593)
(231.2313 -58.726294 -35.095649)
(229.69121 -69.994195 -38.492203)
(225.97314 -81.878142 -41.762768)
(219.70803 -94.408232 -44.784203)
(210.74568 -107.51888 -47.550224)
(198.82712 -121.08008 -50.050113)
(183.78576 -135.08167 -52.167752)
(165.49204 -149.39019 -54.017314)
(143.88708 -163.86032 -55.511497)
(118.84434 -178.45278 -56.710616)
(90.405566 -192.92011 -57.612845)
(58.626981 -207.29795 -58.244263)
(23.620934 -221.27191 -58.667777)
(-14.609549 -234.86979 -58.857896)
(-55.833395 -247.95419 -58.862543)
(-99.934306 -260.31512 -58.723559)
(-146.70569 -271.95606 -58.368674)
(-196.08754 -282.81507 -57.807922)
(-247.8184 -292.78036 -57.04316)
(-301.75617 -301.85875 -56.011572)
(-357.76184 -310.01062 -54.689891)
(-415.66353 -317.22864 -53.019835)
(-475.31494 -323.5528 -50.982711)
(-536.54727 -329.00187 -48.533942)
(-599.19969 -333.64142 -45.672808)
(-663.08441 -337.53155 -42.402336)
(-728.0122 -340.75927 -38.756088)
(-793.77151 -343.41178 -34.787873)
(-860.13743 -345.59129 -30.583988)
(-926.8752 -347.40311 -26.242489)
(-993.74153 -348.95516 -21.894148)
(-1060.4954 -350.35343 -17.675411)
(-1126.9014 -351.70963 -13.725865)
(-1192.7505 -353.11747 -10.201414)
(-1257.8519 -354.66575 -7.2352446)
(-1322.0675 -356.44817 -4.9473836)
(-1385.2822 -358.52273 -3.42866)
(-1447.4663 -360.95225 -2.7839397)
(-1508.6482 -363.72983 -3.0301965)
(-1568.799 -367.00792 -4.1383815)
(-1628.1784 -370.64172 -6.1425665)
(-1686.954 -374.65212 -9.0173292)
(-1745.1287 -379.13315 -12.642547)
(-1803.1902 -383.88758 -16.917924)
(-1861.4278 -389.00198 -21.585044)
(-1919.9752 -394.29606 -26.647637)
(-1979.269 -399.8013 -31.887661)
(-2039.5108 -405.37977 -37.19864)
(-2100.9769 -410.95892 -42.467295)
(-2163.9213 -416.39315 -47.518134)
(-2228.4766 -421.65472 -52.28221)
(-2294.8409 -426.58772 -56.657459)
(-2363.0223 -431.10991 -60.585587)
(-2433.1467 -435.14704 -64.00122)
(-2505.0959 -438.54613 -66.90768)
(-2578.9233 -441.30417 -69.275004)
(-2654.4037 -443.26687 -71.146916)
(-2731.4486 -444.43729 -72.484772)
(-2809.846 -444.74132 -73.454102)
(-2889.4591 -444.04982 -73.971393)
(-2970.0546 -442.49645 -74.162794)
(-3051.3079 -439.98531 -74.077998)
(-3133.0258 -436.57097 -73.785915)
(-3214.9473 -432.28257 -73.360598)
(-3296.7216 -427.16608 -72.894339)
(-3378.3324 -421.25671 -72.453902)
(-3459.1976 -414.74005 -72.078421)
(-3539.4884 -407.41323 -71.907111)
(-3618.7915 -399.79624 -71.83515)
(-3705.1588 -392.08233 -72.035058)
(5.889221 7.0121125 10.509654)
(15.883412 8.6096052 11.818746)
(26.889159 12.150824 13.484785)
(38.171344 15.387154 13.187374)
(49.980097 17.487318 12.709864)
(61.911586 19.833867 11.852546)
(73.764248 21.187137 10.733515)
(85.953374 22.416384 9.5520566)
(97.613932 22.836618 8.116056)
(109.25026 23.000778 7.0171985)
(120.64779 22.418114 5.3934795)
(131.65736 21.484996 4.2714675)
(142.40073 19.846117 2.5893952)
(152.77928 17.854665 1.2958755)
(162.92508 15.199798 -0.55463543)
(172.54283 12.042979 -2.0351081)
(182.15185 8.3889903 -4.1912659)
(191.05763 4.131815 -6.083704)
(199.86149 -0.65296308 -8.4794867)
(208.01767 -6.0055427 -10.877025)
(215.72172 -11.946753 -13.630206)
(222.62587 -18.480784 -16.401657)
(228.75208 -25.599264 -19.483159)
(233.69147 -33.36838 -22.557334)
(237.36862 -41.717332 -25.778167)
(239.37306 -50.727032 -28.960161)
(239.52219 -60.313461 -32.147066)
(237.43324 -70.529825 -35.186281)
(232.85616 -81.284096 -38.104014)
(225.44221 -92.588816 -40.803423)
(214.9806 -104.35054 -43.261819)
(201.16331 -116.51706 -45.454323)
(183.8724 -128.99265 -47.368471)
(162.90828 -141.70212 -48.974263)
(138.22111 -154.49567 -50.324411)
(109.74919 -167.29733 -51.378595)
(77.503415 -179.96076 -52.20332)
(41.585926 -192.36566 -52.809044)
(2.119605 -204.37485 -53.209886)
(-40.771071 -215.88806 -53.423607)
(-86.886907 -226.75816 -53.469123)
(-136.06476 -236.93753 -53.317511)
(-188.07006 -246.24257 -52.950345)
(-242.68542 -254.73682 -52.391228)
(-299.71262 -262.27945 -51.533393)
(-358.93973 -268.89145 -50.374407)
(-420.13825 -274.55474 -48.859865)
(-483.11297 -279.30962 -46.955482)
(-547.63566 -283.18924 -44.62583)
(-613.48635 -286.27628 -41.87735)
(-680.42607 -288.64548 -38.707943)
(-748.20635 -290.40695 -35.16612)
(-816.56229 -291.66418 -31.312152)
(-885.21629 -292.54194 -27.236456)
(-953.88837 -293.15465 -23.052775)
(-1022.2893 -293.62142 -18.893573)
(-1090.1463 -294.05502 -14.895081)
(-1157.2021 -294.55252 -11.210749)
(-1223.2251 -295.20421 -7.9784732)
(-1288.0361 -296.07869 -5.3282713)
(-1351.4864 -297.24075 -3.3649444)
(-1413.5075 -298.71965 -2.1782852)
(-1474.0881 -300.51317 -1.8532583)
(-1533.2301 -302.70472 -2.2969301)
(-1591.1234 -305.1768 -3.6902751)
(-1647.874 -307.99474 -5.7595136)
(-1704.3732 -311.23738 -8.6690746)
(-1760.9597 -314.70693 -12.139919)
(-1816.4288 -318.24978 -16.106234)
(-1871.8201 -321.86828 -20.505882)
(-1927.4736 -325.54508 -25.166932)
(-1983.6717 -329.17854 -29.972021)
(-2040.7113 -332.6992 -34.817508)
(-2098.8282 -336.02806 -39.54471)
(-2158.2505 -339.12101 -44.067529)
(-2219.0655 -341.90987 -48.318521)
(-2281.4997 -344.31299 -52.203607)
(-2345.4738 -346.28731 -55.705948)
(-2411.1815 -347.79783 -58.764181)
(-2478.4069 -348.72403 -61.422621)
(-2547.2885 -349.16366 -63.588729)
(-2617.515 -348.89289 -65.416601)
(-2689.2597 -348.06774 -66.767097)
(-2753.6844 -345.37927 -67.5265)
(-2822.2306 -342.75731 -67.999865)
(-2896.1968 -339.89429 -68.528754)
(-2971.047 -336.43931 -68.779108)
(-3046.3471 -332.40469 -68.898259)
(-3122.0549 -327.71133 -68.932372)
(-3197.9 -322.60302 -68.86264)
(-3273.8339 -316.83767 -68.879428)
(-3349.4506 -310.80217 -68.811168)
(-3425.1605 -304.08429 -68.996303)
(-3500.0936 -297.28299 -69.008292)
(-3581.9174 -290.18216 -69.419879)
(5.3772365 4.7744638 8.3897815)
(14.491851 5.7816129 9.3181639)
(24.612018 8.0627569 11.143934)
(35.463913 10.124738 11.05669)
(46.973886 11.781838 11.141505)
(58.449915 13.430369 10.491807)
(70.755661 14.921789 9.7644001)
(82.359084 15.632841 8.8673917)
(94.452281 16.511453 8.0864483)
(106.20656 16.377421 6.8994324)
(117.85117 16.418721 6.0570183)
(129.13192 15.424061 4.7965549)
(140.36172 14.570972 3.8223932)
(151.17839 12.727598 2.4131771)
(161.74492 10.807241 1.3040685)
(172.14773 8.1964661 -0.35478177)
(182.10352 5.2262513 -1.786739)
(191.87029 1.6977822 -3.622521)
(201.25078 -2.2646772 -5.5160841)
(210.22184 -6.7354211 -7.66522)
(218.66004 -11.734892 -9.9099261)
(226.50761 -17.179755 -12.420884)
(233.4645 -23.217008 -14.999912)
(239.45598 -29.69534 -17.743036)
(244.11568 -36.767777 -20.543089)
(247.25058 -44.291864 -23.394715)
(248.46563 -52.38516 -26.211605)
(247.51444 -60.937636 -28.977761)
(243.99051 -69.994808 -31.633738)
(237.63264 -79.459713 -34.123416)
(228.0656 -89.351306 -36.42906)
(215.08617 -99.558157 -38.509473)
(198.39391 -110.06113 -40.359455)
(177.87372 -120.72079 -41.968412)
(153.34765 -131.49421 -43.345031)
(124.81404 -142.2535 -44.495853)
(92.263829 -152.88192 -45.465286)
(55.7933 -163.24525 -46.258164)
(15.39632 -173.24484 -46.852968)
(-28.669005 -182.75703 -47.276669)
(-76.197558 -191.70985 -47.560415)
(-126.96542 -199.92272 -47.651422)
(-180.76685 -207.40684 -47.582405)
(-237.29651 -214.01522 -47.27401)
(-296.32411 -219.73806 -46.687153)
(-357.5765 -224.56814 -45.800518)
(-420.81292 -228.49467 -44.541466)
(-485.76754 -231.55888 -42.88874)
(-552.1835 -233.81128 -40.8082)
(-619.79258 -235.33804 -38.297261)
(-688.32151 -236.22729 -35.363156)
(-757.47872 -236.59856 -32.057979)
(-826.97046 -236.56422 -28.436907)
(-896.48634 -236.25494 -24.600888)
(-965.72206 -235.78426 -20.66034)
(-1034.3675 -235.27568 -16.742479)
(-1102.1439 -234.82652 -12.990256)
(-1168.7777 -234.525 -9.5429421)
(-1234.0572 -234.4481 -6.5309543)
(-1297.796 -234.63768 -4.0769198)
(-1359.8822 -235.13782 -2.2754723)
(-1420.2669 -235.93166 -1.2144104)
(-1478.9461 -237.0679 -0.9001227)
(-1536.0032 -238.46727 -1.3722807)
(-1591.6699 -240.12077 -2.6494673)
(-1645.8852 -241.99199 -4.5320439)
(-1698.6027 -244.0897 -7.3009187)
(-1756.7377 -246.889 -10.416162)
(-1808.8752 -248.9221 -14.159112)
(-1861.4219 -251.17239 -18.096833)
(-1914.1514 -253.1957 -22.301239)
(-1967.4127 -255.15449 -26.614784)
(-2021.4451 -256.90124 -30.889662)
(-2076.4455 -258.41964 -35.088815)
(-2132.6389 -259.62868 -39.117939)
(-2190.1895 -260.52319 -42.896964)
(-2249.1923 -261.05012 -46.405678)
(-2309.6961 -261.19391 -49.588792)
(-2371.7691 -260.91235 -52.447746)
(-2435.3142 -260.19966 -54.954089)
(-2500.4157 -259.03953 -57.135686)
(-2566.829 -257.38935 -59.006385)
(-2634.6012 -255.32029 -60.549666)
(-2703.6828 -252.69481 -61.862155)
(-2761.2874 -248.67777 -62.733866)
(-2831.6077 -245.1528 -63.59705)
(-2903.2387 -241.33452 -64.26238)
(-2975.5476 -236.97017 -64.872841)
(-3048.5599 -232.30455 -65.319241)
(-3121.973 -227.21635 -65.768015)
(-3195.866 -221.79043 -66.163684)
(-3269.9587 -216.0995 -66.554842)
(-3344.4438 -209.93265 -66.987759)
(-3418.8372 -203.7414 -67.341848)
(-3498.2621 -197.2195 -67.813553)
(5.3790232 3.762759 6.4600716)
(13.905297 4.4976529 7.5671142)
(23.587813 5.7208444 9.1736026)
(34.165194 7.1595064 9.5486523)
(45.421728 8.0878905 9.6743156)
(57.552731 9.6662144 9.2867798)
(69.300048 10.341682 8.8816033)
(81.617124 11.272841 8.507061)
(93.872102 11.597865 7.545451)
(105.95837 11.817006 7.1824614)
(117.9112 11.519086 6.1234828)
(129.80446 10.9966 5.5826124)
(141.36467 10.039106 4.4063623)
(152.63959 8.6200406 3.7499079)
(163.84922 7.0281943 2.3730829)
(174.55758 4.7637614 1.4350011)
(185.16936 2.3379575 -0.045933313)
(195.38187 -0.65808143 -1.421528)
(205.30802 -3.9326438 -3.1294084)
(214.74256 -7.723166 -4.8307861)
(223.76915 -11.824812 -6.8631148)
(232.03417 -16.415471 -8.8989842)
(239.56298 -21.357509 -11.166446)
(245.9851 -26.748741 -13.470181)
(251.15989 -32.514646 -15.898848)
(254.70471 -38.702523 -18.311427)
(256.38632 -45.275209 -20.756791)
(255.79455 -52.224574 -23.125413)
(252.65493 -59.527581 -25.424293)
(246.55713 -67.172069 -27.580668)
(237.25689 -75.093649 -29.603555)
(224.39041 -83.273291 -31.441556)
(207.78659 -91.620719 -33.104979)
(187.20632 -100.10946 -34.57399)
(162.54673 -108.59813 -35.877225)
(133.767 -117.07364 -36.987535)
(100.75345 -125.34054 -37.9541)
(63.646998 -133.42907 -38.759405)
(22.743682 -141.09393 -39.447466)
(-21.908871 -148.35713 -40.052194)
(-70.093076 -154.99089 -40.48964)
(-121.56937 -161.00643 -40.806709)
(-176.02636 -166.27815 -40.930608)
(-233.20638 -170.77952 -40.845961)
(-292.83441 -174.47904 -40.513151)
(-354.62234 -177.35531 -39.874009)
(-418.28784 -179.42843 -38.880034)
(-483.54913 -180.74026 -37.505593)
(-550.1244 -181.35279 -35.708891)
(-617.72983 -181.35409 -33.494833)
(-686.0718 -180.83784 -30.874429)
(-754.85243 -179.92558 -27.889378)
(-823.7669 -178.72493 -24.603485)
(-892.50412 -177.36574 -21.109144)
(-960.75966 -175.95098 -17.509831)
(-1028.2343 -174.59703 -13.93033)
(-1094.6538 -173.38088 -10.502137)
(-1159.7691 -172.38524 -7.3514337)
(-1223.3788 -171.66114 -4.6017153)
(-1285.3255 -171.23477 -2.3647048)
(-1345.521 -171.12268 -0.72797134)
(-1403.9393 -171.3297 0.25177524)
(-1460.5827 -171.81898 0.53668206)
(-1515.6686 -172.52847 0.083336293)
(-1569.139 -173.50897 -0.99615899)
(-1621.5484 -174.56215 -2.8060387)
(-1672.772 -175.78271 -5.088853)
(-1723.2401 -176.9169 -8.0046291)
(-1773.6018 -178.08672 -11.251618)
(-1823.7697 -179.23931 -14.724679)
(-1874.227 -180.19355 -18.534115)
(-1925.282 -181.00933 -22.317353)
(-1977.0711 -181.60033 -26.178562)
(-2030.0338 -181.92769 -30.019748)
(-2084.334 -181.94195 -33.716657)
(-2140.054 -181.65391 -37.283647)
(-2197.3525 -181.01221 -40.608317)
(-2256.2738 -180.05294 -43.718488)
(-2316.892 -178.69881 -46.540897)
(-2379.1646 -177.01136 -49.135351)
(-2443.1249 -174.92616 -51.434382)
(-2508.6134 -172.46803 -53.515143)
(-2575.7624 -169.66591 -55.329632)
(-2644.1583 -166.42911 -56.965342)
(-2714.102 -162.83469 -58.326082)
(-2785.0291 -158.90997 -59.605628)
(-2857.3494 -154.69028 -60.702592)
(-2930.5869 -150.15053 -61.729692)
(-3004.8099 -145.30484 -62.643593)
(-3079.7564 -140.19594 -63.511236)
(-3155.5828 -134.77986 -64.348828)
(-3231.7894 -129.17674 -65.111918)
(-3308.9368 -123.1783 -65.949611)
(-3386.0099 -117.26758 -66.620106)
(-3465.659 -110.86007 -67.456948)
(5.843713 2.9172564 4.9629593)
(14.194038 3.1289417 5.9447865)
(24.139608 4.079055 7.3689898)
(34.546451 4.89099 7.7464179)
(46.675096 5.8810818 7.979173)
(58.324464 6.4588508 7.9793825)
(71.010222 7.3230751 8.0047046)
(83.64079 7.5633354 7.4254125)
(96.304714 8.0945061 7.3935403)
(108.86127 7.7620825 6.769925)
(121.4764 7.7746749 6.4532992)
(133.69763 6.9443971 5.7221486)
(145.72115 6.2213305 5.3313905)
(157.5967 4.9183113 4.377716)
(169.03905 3.4960576 3.7385738)
(180.27445 1.5766361 2.718281)
(191.19289 -0.4691945 1.6764266)
(201.73249 -2.9743275 0.46729368)
(211.89024 -5.7169749 -0.84514091)
(221.59741 -8.7651827 -2.3693935)
(230.69888 -12.155394 -3.9625431)
(239.09981 -15.785927 -5.7148347)
(246.60351 -19.77104 -7.5615923)
(252.9893 -23.978423 -9.489654)
(257.99903 -28.535526 -11.467399)
(261.35452 -33.307091 -13.465475)
(262.72003 -38.395896 -15.454757)
(261.79379 -43.687839 -17.398264)
(258.20111 -49.263479 -19.267388)
(251.66553 -54.998304 -21.046585)
(241.82756 -60.952196 -22.709595)
(228.47336 -67.012376 -24.244689)