/*--------------------------------*- C++ -*----------------------------------*\
  =========                 |
  \\      /  F ield         | OpenFOAM: The Open Source CFD Toolbox
   \\    /   O peration     | Website:  https://openfoam.org
    \\  /    A nd           | Version:  6
     \\/     M anipulation  |
\*---------------------------------------------------------------------------*/
FoamFile
{
    version     2.0;
    format      ascii;
    class       pointVectorField;
    location    "0.22";
    object      u;
}
// * * * * * * * * * * * * * * * * * * * * * * * * * * * * * * * * * * * * * //

dimensions      [0 1 0 0 0 0 0];

internalField   nonuniform List<vector> 
28033
(
(0 9.7513776e-20 0)
(0 6.6606899e-19 0)
(1.3935975 -0.022752465 0.00060283567)
(1.3381816 -0.35098686 0.00022714952)
(0 6.0338794e-19 0)
(0 9.7973273e-19 0)
(1.338578 -0.35131713 0.00019303316)
(1.3939934 -0.022942711 0.00058814867)
(0 2.122213e-19 0)
(0 6.1565325e-20 0)
(0 4.9303761e-19 0)
(0 -2.3413083e-19 0)
(0 3.1473895e-19 0)
(0 -1.8577219e-19 0)
(0 -4.4650051e-21 0)
(-1.4807361e-19 -4.830412e-20 0)
(0 9.0363484e-20 0)
(0 4.4781917e-20 0)
(0 -1.7193524e-19 0)
(0 1.6642938e-19 0)
(0 1.9940494e-19 0)
(0 -1.605479e-19 0)
(0 2.0507836e-19 0)
(1.390101 -0.043356607 0.00052975366)
(1.3865809 -0.06393584 0.00045277595)
(1.3830647 -0.0844827 0.00040731628)
(1.3795538 -0.10498952 0.00037621652)
(1.3760592 -0.12546214 0.00036926074)
(1.3725801 -0.14591559 0.00037801903)
(1.3691166 -0.16634298 0.00039524144)
(1.3656752 -0.18677353 0.00041985293)
(1.362246 -0.20720483 0.00044376115)
(1.3588247 -0.22765621 0.00046343999)
(1.3554134 -0.24813446 0.00046776957)
(1.3519936 -0.26864435 0.00045096858)
(1.3485732 -0.28918925 0.00042619465)
(1.3451336 -0.30977202 0.00037513303)
(1.3416713 -0.33037832 0.00030612214)
(0.0021171608 0.0038682253 0.0044467428)
(0.0019717819 0.006118984 0.0064359507)
(0.0021875964 0.0085961298 0.0079678248)
(0.0028908285 0.011270876 0.0090218728)
(0.0039175318 0.014053069 0.0097458843)
(0.0055099359 0.016982322 0.010270772)
(0.007562522 0.019980649 0.010618201)
(0.010125953 0.022990254 0.010830301)
(0.013168354 0.026067291 0.010955791)
(0.016705971 0.029106832 0.011006746)
(0.020686221 0.032151208 0.010998893)
(0.02513582 0.035153712 0.010944226)
(0.030003531 0.038129418 0.010894876)
(0.035318959 0.041050375 0.010800221)
(0.041005837 0.043923952 0.010732061)
(0.047111636 0.046740261 0.010641917)
(0.053582055 0.049514808 0.01059455)
(0.060439989 0.052217686 0.010546355)
(0.067658674 0.054893934 0.010520066)
(0.075252141 0.057501354 0.010512354)
(0.083209648 0.060077147 0.010533612)
(0.091553811 0.06259354 0.010550318)
(0.10026966 0.065064337 0.010599894)
(0.10939174 0.067493144 0.010637687)
(0.11890673 0.069853221 0.010678055)
(0.12884355 0.072164387 0.010707612)
(0.13919495 0.074388942 0.010728433)
(0.14998567 0.076558171 0.01071644)
(0.16120738 0.078613 0.010678999)
(0.17286859 0.080580857 0.010614233)
(0.18497209 0.08243552 0.010503849)
(0.19749368 0.084156295 0.01036085)
(0.2104466 0.085754406 0.010184208)
(0.22380543 0.087188186 0.0099708326)
(0.23756093 0.088492587 0.0097180162)
(0.25168784 0.089617979 0.0094425713)
(0.26616047 0.090593919 0.0091531193)
(0.28096969 0.09140217 0.0088424793)
(0.29607223 0.092044178 0.0085184378)
(0.31145953 0.092535074 0.008205138)
(0.32709672 0.092863587 0.0078911568)
(0.34296863 0.093056104 0.0075963911)
(0.35905339 0.093102562 0.0073169558)
(0.37533389 0.09302396 0.0070651626)
(0.39179194 0.092824353 0.0068402294)
(0.40842178 0.092517362 0.0066461393)
(0.42521002 0.092109564 0.0064834552)
(0.44215825 0.091611139 0.0063504586)
(0.45926024 0.091027971 0.006245604)
(0.47652234 0.090366741 0.0061644311)
(0.49394508 0.089630535 0.0061023538)
(0.51153722 0.088822118 0.0060532829)
(0.52930351 0.087941268 0.0060109428)
(0.54725239 0.086986889 0.0059686499)
(0.56538949 0.085955813 0.0059200489)
(0.58372029 0.084844064 0.0058593167)
(0.60224783 0.083646481 0.0057816857)
(0.62097271 0.082357792 0.0056834226)
(0.63989268 0.080972768 0.0055623792)
(0.65900276 0.079486036 0.0054179613)
(0.67829441 0.077893933 0.0052510709)
(0.69775754 0.076193555 0.0050634983)
(0.71737729 0.074383775 0.0048600039)
(0.73714344 0.072462059 0.0046418414)
(0.7570309 0.070436029 0.0044209637)
(0.77703549 0.068301869 0.0041921553)
(0.79712857 0.066065421 0.0039720422)
(0.81730434 0.063733813 0.0037561663)
(0.83754365 0.061316466 0.0035480875)
(0.85783684 0.058812616 0.0033590297)
(0.87817184 0.05623566 0.0031867374)
(0.89854231 0.053588712 0.0030309278)
(0.91894096 0.050881161 0.0028930073)
(0.93936579 0.04811609 0.0027719597)
(0.95981322 0.045301453 0.0026660283)
(0.98028411 0.042437847 0.0025725291)
(1.0007778 0.039532779 0.002489059)
(1.0212983 0.036584613 0.0024114862)
(1.0418442 0.033599721 0.0023373649)
(1.0624209 0.030572617 0.002263354)
(1.0830285 0.027510185 0.0021840707)
(1.1036668 0.024406071 0.0021022397)
(1.1243386 0.021263145 0.0020096677)
(1.1450369 0.018079177 0.0019104461)
(1.1657662 0.014857578 0.0018011918)
(1.1865157 0.011589632 0.0016829941)
(1.2072845 0.0082815851 0.0015587016)
(1.2280577 0.0049371485 0.0014290509)
(1.2488355 0.0015479804 0.0012993042)
(1.2695974 -0.0018627406 0.0011699573)
(1.2903456 -0.0053178611 0.001051538)
(1.3110596 -0.0087788354 0.00093678357)
(1.3317426 -0.012272532 0.00084458626)
(1.3523836 -0.015761045 0.00075622011)
(1.3729947 -0.019257795 0.00068584447)
(0.00096482453 -0.0041551292 -0.0050555906)
(0.0013584405 -0.005892633 -0.0061742584)
(0.0013011225 -0.0083717088 -0.0082705646)
(0.0014528734 -0.010617015 -0.0092172295)
(0.0023998772 -0.013356517 -0.010118486)
(0.0036259808 -0.016204988 -0.01067306)
(0.0054047837 -0.018992152 -0.011087689)
(0.0076482969 -0.022020124 -0.01130605)
(0.010422147 -0.025037423 -0.011449257)
(0.013585307 -0.028090521 -0.011486999)
(0.017257089 -0.03122033 -0.011468165)
(0.021300955 -0.034330988 -0.011405941)
(0.025792042 -0.03749774 -0.011304441)
(0.030641113 -0.040666379 -0.011215134)
(0.035875704 -0.043842791 -0.011097162)
(0.041453063 -0.04705705 -0.011016044)
(0.047376817 -0.050257065 -0.010930305)
(0.053633858 -0.05350468 -0.010873956)
(0.060211096 -0.05676992 -0.01084937)
(0.067123301 -0.060055443 -0.010840418)
(0.074358017 -0.063392847 -0.010851027)
(0.081933677 -0.066771536 -0.010891637)
(0.089841494 -0.070181078 -0.010929869)
(0.098121894 -0.073668684 -0.010978196)
(0.10675246 -0.077193162 -0.011022906)
(0.11578156 -0.080782643 -0.011042643)
(0.12519248 -0.084440036 -0.011061267)
(0.13502114 -0.088137708 -0.011026719)
(0.14525831 -0.091913839 -0.010980399)
(0.15592077 -0.09571603 -0.010869262)
(0.16700707 -0.099592014 -0.010735672)
(0.17851345 -0.10348717 -0.010549108)
(0.19043792 -0.10742694 -0.010326077)
(0.2027709 -0.11138473 -0.010060463)
(0.21549679 -0.11536193 -0.0097636486)
(0.2285993 -0.11933974 -0.0094438507)
(0.24205908 -0.12331034 -0.0090875705)
(0.25585793 -0.12728892 -0.0087339553)
(0.26996645 -0.13123489 -0.0083679473)
(0.28437356 -0.13517104 -0.0080059805)
(0.29904615 -0.13907902 -0.0076530819)
(0.3139686 -0.14296262 -0.0073172233)
(0.32911744 -0.14682069 -0.0070029374)
(0.34447671 -0.15065527 -0.0067160974)
(0.36002911 -0.15446946 -0.0064592433)
(0.37576382 -0.15826822 -0.0062346316)
(0.39166986 -0.16205733 -0.0060430349)
(0.4077424 -0.16584311 -0.0058830564)
(0.42397789 -0.1696332 -0.0057527626)
(0.44037686 -0.17343408 -0.0056481892)
(0.4569423 -0.17725323 -0.0055645915)
(0.47367933 -0.18109643 -0.0054962469)
(0.49059482 -0.18496915 -0.005436739)
(0.50769649 -0.18887527 -0.0053795119)
(0.52499213 -0.19281736 -0.0053179996)
(0.54248888 -0.19679617 -0.0052463098)
(0.56019249 -0.20081115 -0.0051591584)
(0.5781066 -0.20485958 -0.0050527607)
(0.59623227 -0.20893776 -0.0049244707)
(0.61456773 -0.21304021 -0.0047734025)
(0.6331081 -0.21716076 -0.0046000765)
(0.65184561 -0.22129208 -0.0044068029)
(0.67076974 -0.22542697 -0.0041967415)
(0.68986809 -0.22955781 -0.0039744832)
(0.70912584 -0.23367762 -0.0037449399)
(0.72852844 -0.23777995 -0.0035133784)
(0.7480595 -0.24185986 -0.0032854039)
(0.76770417 -0.24591342 -0.0030637229)
(0.78744712 -0.24993333 -0.0028575287)
(0.80727546 -0.25392264 -0.0026604562)
(0.82717615 -0.25788693 -0.0024841964)
(0.84714172 -0.26181159 -0.0023236398)
(0.86716342 -0.26571592 -0.0021807346)
(0.88723502 -0.26958974 -0.0020537353)
(0.90735227 -0.27344362 -0.001941596)
(0.92751298 -0.27727783 -0.0018411509)
(0.94771576 -0.28109638 -0.0017502633)
(0.96796167 -0.28490349 -0.0016647065)
(0.98824937 -0.28869971 -0.0015826849)
(1.0085827 -0.29248943 -0.0015001607)
(1.0289608 -0.29627155 -0.0014150854)
(1.0493861 -0.30004762 -0.0013244719)
(1.0698583 -0.30381647 -0.0012268458)
(1.090377 -0.30757654 -0.001121097)
(1.11094 -0.31132521 -0.0010067874)
(1.1315443 -0.31505965 -0.00088465738)
(1.1521841 -0.31877573 -0.00075612441)
(1.1728533 -0.32246977 -0.00062360367)
(1.1935429 -0.32613764 -0.00049020212)
(1.2142438 -0.32977601 -0.0003593404)
(1.2349453 -0.33338181 -0.00023512772)
(1.2556374 -0.33695418 -0.00012058687)
(1.2763103 -0.34049455 -1.78963e-05)
(1.2969578 -0.34400566 7.1121157e-05)
(1.31758 -0.34749904 0.00015123894)
(0 -2.6656305e-19 0)
(0 -1.9563684e-19 0)
(0 1.836933e-19 0)
(0 -1.1612795e-19 0)
(0 -9.9769987e-20 0)
(0 5.5544842e-19 0)
(0 -1.6397459e-19 0)
(-3.7970499e-19 1.0613716e-19 0)
(0 -9.6453078e-20 0)
(0 2.3405246e-19 0)
(0 2.7906951e-19 0)
(0 9.755911e-20 0)
(0 5.1749097e-20 0)
(0 -1.057796e-19 0)
(0 7.2298829e-20 0)
(0.0022699033 -0.0016984006 0.003600962)
(0.0018733826 -0.0068076994 0.006194794)
(0.0011734604 -0.0073593787 0.007658814)
(0.0017708381 -0.011158989 0.0092163737)
(0.0023226515 -0.013136912 0.0099478133)
(0.0037789102 -0.01625423 0.010517308)
(0.0054464355 -0.018925598 0.010861724)
(0.0078426721 -0.02207074 0.011117627)
(0.010540748 -0.024931137 0.011183459)
(0.013793565 -0.028139135 0.01120976)
(0.017506257 -0.031192898 0.011186052)
(0.021523968 -0.03428036 0.01107579)
(0.026094575 -0.037534425 0.010983495)
(0.030902399 -0.040589568 0.010842753)
(0.036220892 -0.04391981 0.010733159)
(0.041767438 -0.046992475 0.010616369)
(0.047723229 -0.05031896 0.010544244)
(0.05398779 -0.053485768 0.010446856)
(0.060574695 -0.056820077 0.010434603)
(0.067511328 -0.06009574 0.010401798)
(0.074733436 -0.063438449 0.010436777)
(0.082316438 -0.066833511 0.01045791)
(0.090238359 -0.070273355 0.010521247)
(0.098516506 -0.073758608 0.010572336)
(0.1071535 -0.077299665 0.010626578)
(0.11619327 -0.08089636 0.010669171)
(0.12558134 -0.084540207 0.010682105)
(0.13543657 -0.088280592 0.010684174)
(0.14565083 -0.092012866 0.010629091)
(0.15632647 -0.095872219 0.010553736)
(0.16741256 -0.09971707 0.010422966)
(0.17892089 -0.10362173 0.010249752)
(0.19084874 -0.10755352 0.010029408)
(0.20318022 -0.11150937 0.0097706606)
(0.2159197 -0.11549287 0.009476883)
(0.22901372 -0.11942766 0.0091473532)
(0.24247651 -0.1234491 0.008798216)
(0.25628528 -0.12740153 0.0084368011)
(0.27039646 -0.13135513 0.0080673535)
(0.28480782 -0.13528916 0.0076983988)
(0.29948427 -0.13919989 0.0073416159)
(0.31440903 -0.14308654 0.0070010491)
(0.32956066 -0.14694828 0.0066845089)
(0.34492082 -0.15078776 0.0063969415)
(0.36047377 -0.15460708 0.006142215)
(0.37620726 -0.15841167 0.0059222923)
(0.3921114 -0.16220644 0.0057380871)
(0.40818055 -0.16599851 0.0055884605)
(0.42441143 -0.16979402 0.0054710532)
(0.44080489 -0.17360077 0.0053815666)
(0.45736366 -0.17742478 0.0053150278)
(0.47409355 -0.18127265 0.0052646548)
(0.49100137 -0.18514933 0.0052239522)
(0.50809531 -0.18905872 0.0051851392)
(0.52538335 -0.19300358 0.0051416136)
(0.54287305 -0.19698449 0.0050863361)
(0.56057026 -0.20100113 0.0050141942)
(0.57847908 -0.20505085 0.0049204995)
(0.5966006 -0.20913015 0.0048028248)
(0.6149334 -0.21323367 0.0046599203)
(0.63347249 -0.21735549 0.0044925533)
(0.65221053 -0.22148845 0.0043028454)
(0.67113668 -0.22562575 0.0040946169)
(0.69023865 -0.22975942 0.003872309)
(0.70950165 -0.23388312 0.0036415)
(0.72891039 -0.23799107 0.0034074355)
(0.74844991 -0.24207318 0.0031763327)
(0.76810104 -0.24614635 0.0029526241)
(0.7878568 -0.25015676 0.0027474541)
(0.80768487 -0.25417183 0.002547717)
(0.82760073 -0.25813745 0.0023734208)
(0.84757011 -0.26207776 0.0022176532)
(0.86759859 -0.2659889 0.0020809874)
(0.88767366 -0.26987498 0.0019650648)
(0.90779328 -0.2737376 0.0018660277)
(0.92795429 -0.27758074 0.001782484)
(0.94815594 -0.28140734 0.0017110873)
(0.96839817 -0.28522057 0.001648723)
(0.98868232 -0.28902239 0.0015913936)
(1.0090098 -0.29281541 0.0015357888)
(1.0293825 -0.29660016 0.0014783141)
(1.0498018 -0.30037744 0.0014159953)
(1.0702685 -0.3041464 0.0013464099)
(1.0907822 -0.30790581 0.0012680836)
(1.1113413 -0.31165327 0.0011802045)
(1.1319423 -0.31538591 0.0010833627)
(1.1525801 -0.31910024 0.00097893309)
(1.1732479 -0.32279236 0.00086946504)
(1.1939369 -0.32645884 0.00075830857)
(1.2146376 -0.3300958 0.00064930474)
(1.2353391 -0.33370154 0.00054677021)
(1.2560308 -0.33727382 0.00045410822)
(1.2767036 -0.34081521 0.00037465317)
(1.2973497 -0.34432791 0.00030790663)
(1.3179669 -0.34782256 0.00025413055)
(1.3420693 -0.33070323 0.00017430176)
(1.3455341 -0.31009527 0.00015896553)
(1.3489738 -0.28950385 0.00016416304)
(1.3523938 -0.26895753 0.00018644898)
(1.3558146 -0.24843723 0.00022786917)
(1.3592193 -0.22795229 0.00027903754)
(1.362643 -0.20749127 0.00034491088)
(1.3660684 -0.18703883 0.00041298933)
(1.3695145 -0.16659977 0.00047260142)
(1.372968 -0.14614678 0.00053710332)
(1.376456 -0.12569218 0.00058146262)
(1.3799404 -0.10519091 0.00061909604)
(1.3834636 -0.084690095 0.00062859918)
(1.386973 -0.064119888 0.00063247195)
(1.3904983 -0.043544714 0.00060751075)
(1.373395 -0.019450515 0.0005001316)
(1.3527807 -0.015955623 0.00042599579)
(1.3321387 -0.012467151 0.00033526407)
(1.311456 -0.0089882312 0.00023686437)
(1.2907414 -0.0055251552 0.0001216268)
(1.269998 -0.0020869186 -5.5095646e-07)
(1.2492366 0.0013230108 -0.00013162542)
(1.2284665 0.0046986505 -0.00026437146)
(1.2076961 0.0080371414 -0.00039689058)
(1.1869359 0.011336281 -0.00052633934)
(1.1661907 0.014595136 -0.00065007746)
(1.1454692 0.017812239 -0.00076622147)
(1.1247725 0.020990253 -0.00087648538)
(1.1041039 0.024128158 -0.00098100564)
(1.0834681 0.027226248 -0.0010793143)
(1.0628627 0.030287273 -0.0011736077)
(1.0422872 0.033310078 -0.0012666032)
(1.0217388 0.036295332 -0.0013620137)
(1.0012161 0.039243242 -0.0014628354)
(0.9807163 0.042150544 -0.0015720658)
(0.96023817 0.045017075 -0.001693324)
(0.93978075 0.047837158 -0.0018287374)
(0.91934463 0.050609106 -0.0019805952)
(0.89893229 0.053323852 -0.0021494543)
(0.87854769 0.055980633 -0.0023366936)
(0.8581995 0.058569396 -0.002537945)
(0.8378842 0.061077489 -0.0027588674)
(0.81765611 0.063494653 -0.0029806108)
(0.79745531 0.065844417 -0.0032215374)
(0.7773585 0.068082741 -0.0034586561)
(0.7573526 0.070224608 -0.0036990438)
(0.73746227 0.072258957 -0.0039298724)
(0.71770033 0.07418379 -0.0041507178)
(0.69808402 0.075997528 -0.0043557543)
(0.67862702 0.077700245 -0.0045418728)
(0.65934198 0.079293776 -0.0047065306)
(0.64023928 0.080780825 -0.0048484876)
(0.62132641 0.082166066 -0.0049676277)
(0.60260826 0.083454258 -0.0050654931)
(0.58408662 0.084651238 -0.0051447036)
(0.56576078 0.085762376 -0.0052092635)
(0.54762745 0.086792985 -0.0052640039)
(0.52968166 0.08774719 -0.0053146707)
(0.511917 0.088628182 -0.0053671936)
(0.4943267 0.089437292 -0.0054278016)
(0.47690402 0.090174507 -0.0055022952)
(0.45964334 0.090837404 -0.0055959548)
(0.4425405 0.091422476 -0.0057131086)
(0.42559413 0.091923398 -0.0058572571)
(0.40880458 0.092333931 -0.0060298926)
(0.39217741 0.092643772 -0.0062322282)
(0.37571838 0.09284683 -0.0064628087)
(0.35944114 0.092927396 -0.0067194688)
(0.34335738 0.092884226 -0.0069998397)
(0.32748797 0.092696805 -0.0072956015)
(0.31185197 0.092367846 -0.007606279)
(0.29646514 0.091891358 -0.0079224986)
(0.28135169 0.091238277 -0.0082391475)
(0.26657857 0.090420834 -0.0085394559)
(0.25207992 0.089473515 -0.0088430826)
(0.23794607 0.088333622 -0.0091196242)
(0.22422462 0.087024819 -0.0093615789)
(0.21084704 0.085602001 -0.009584285)
(0.19788969 0.084012018 -0.0097791052)
(0.18534131 0.082288567 -0.0099372699)
(0.17326184 0.080422167 -0.010063454)
(0.16156865 0.07849004 -0.010143279)
(0.15036325 0.076393706 -0.010204374)
(0.13955302 0.074271773 -0.010247523)
(0.12919018 0.072034568 -0.010257207)
(0.11924426 0.069738624 -0.010257922)
(0.1097069 0.067385002 -0.010246657)
(0.10060406 0.064942446 -0.010217081)
(0.091858269 0.062507261 -0.01021645)
(0.083508669 0.059987843 -0.010213392)
(0.07554926 0.057412173 -0.01020707)
(0.067938135 0.054830028 -0.010250851)
(0.06071834 0.052146833 -0.010271176)
(0.053843178 0.049472689 -0.010353196)
(0.047363503 0.046684561 -0.010413104)
(0.041271009 0.043881538 -0.010505166)
(0.035534897 0.041017466 -0.010589427)
(0.030217338 0.038120975 -0.010700531)
(0.025349254 0.035109879 -0.010750324)
(0.020874351 0.03217119 -0.010831794)
(0.01686425 0.029100653 -0.010830127)
(0.013340521 0.026051444 -0.010794904)
(0.01028286 0.023006996 -0.010671992)
(0.007694517 0.019986383 -0.01046841)
(0.0056293386 0.016998139 -0.010122107)
(0.0040547701 0.014034418 -0.0095709868)
(0.0030381568 0.011149697 -0.0088121775)
(0.0024685657 0.0086554568 -0.0077919828)
(0.0022032762 0.0059428301 -0.0060193814)
(0.0033317393 0.0036739155 -0.0033131799)
(0 3.0255328e-19 0)
(0 1.1505125e-19 0)
(0 2.9861715e-19 0)
(0 3.0060706e-19 0)
(0 3.1330534e-19 0)
(0 1.8841659e-19 0)
(0 7.5110987e-21 0)
(0 -1.7072855e-19 -1.8732762e-19)
(0 2.0216515e-20 0)
(0 1.8175338e-19 0)
(0 4.3826597e-19 0)
(0 3.8401241e-19 0)
(0 2.7488231e-19 0)
(0 2.6565236e-19 0)
(0 3.0335311e-19 0)
(0 1.2578949e-18 0)
(0 5.3559491e-19 0)
(0 1.9654811e-19 0)
(0 3.5475935e-19 0)
(0 -3.0886429e-20 0)
(0 8.2689317e-20 0)
(0 9.4224026e-19 0)
(0 -3.8343322e-19 -1.6626858e-19)
(0 5.6045397e-19 0)
(0 7.0062645e-19 0)
(0 2.3153343e-19 0)
(0 9.4771374e-20 0)
(0 2.1997256e-19 0)
(0 3.9659568e-19 0)
(0 5.1012781e-20 0)
(1.3382204 -0.35108226 0.00022811117)
(1.3382529 -0.35117732 0.00021756425)
(1.3382912 -0.3512657 0.00020525703)
(1.3383307 -0.35134387 0.00019647003)
(1.3383722 -0.35141304 0.00019272287)
(1.338411 -0.35147007 0.0001943575)
(1.338446 -0.3515136 0.00019918257)
(1.3384756 -0.35154355 0.00020661372)
(1.3384993 -0.35155943 0.00021400323)
(1.3385179 -0.35156121 0.00021924278)
(1.3385318 -0.35154931 0.0002217588)
(1.3385413 -0.35152307 0.00021930622)
(1.3385509 -0.35148576 0.00021263147)
(1.3385604 -0.35143809 0.00020199382)
(1.3385721 -0.35138122 0.00019464849)
(1.3936876 -0.022701871 0.0006047015)
(1.3937663 -0.022656859 0.00061272958)
(1.3938447 -0.022621277 0.00062283605)
(1.3939155 -0.022595221 0.00062760724)
(1.3939844 -0.022578348 0.0006280921)
(1.3940421 -0.022570429 0.00062210611)
(1.394089 -0.022570383 0.00061299995)
(1.3941231 -0.022578114 0.00060097181)
(1.3941441 -0.022593256 0.00058884914)
(1.3941517 -0.022616074 0.0005784262)
(1.3941474 -0.022646996 0.00057127099)
(1.394131 -0.022687475 0.00056955245)
(1.3941071 -0.022736057 0.00057235418)
(1.3940746 -0.022798072 0.00057916658)
(1.394038 -0.022865584 0.00058647988)
(0.00094691976 0.0023720854 0.0045435547)
(0.00088166325 0.0035050545 0.0055520365)
(0.00092307985 0.0048903329 0.0070089491)
(0.0015364793 0.0062063263 0.0077269371)
(0.002336502 0.0076000805 0.008473043)
(0.0038089984 0.0091074232 0.0088915456)
(0.0056300578 0.010655913 0.0092307347)
(0.0080638041 0.012342802 0.0094205452)
(0.010872461 0.014031553 0.0095549544)
(0.014226319 0.015819394 0.0096172379)
(0.018010101 0.017596321 0.0096092515)
(0.022268621 0.019459748 0.009606172)
(0.026938765 0.021288104 0.0095392031)
(0.03204428 0.02319313 0.0094928797)
(0.037546158 0.025061866 0.0094170622)
(0.043462256 0.026995772 0.0093664027)
(0.049750216 0.028902904 0.0093026106)
(0.056410263 0.030864115 0.0092742719)
(0.063457597 0.032806292 0.0092439469)
(0.07087533 0.034797731 0.0092364671)
(0.078660545 0.036783982 0.0092453627)
(0.08683668 0.038792296 0.0092662306)
(0.095397196 0.040826079 0.0092904585)
(0.10435081 0.04285365 0.0093319579)
(0.11372795 0.044897208 0.0093582881)
(0.12352194 0.046935341 0.0093882079)
(0.13374992 0.04897374 0.0093973062)
(0.14442008 0.050983566 0.009397813)
(0.15555105 0.05296878 0.0093663548)
(0.16713269 0.054925263 0.0093097072)
(0.17917144 0.05681639 0.0092230605)
(0.19167214 0.058658399 0.0091028342)
(0.20461765 0.060425886 0.0089539227)
(0.21799437 0.062113843 0.0087702882)
(0.2317982 0.063713198 0.0085596388)
(0.24600344 0.065208498 0.0083232634)
(0.26058736 0.066617723 0.008068103)
(0.27552338 0.067907515 0.0077991452)
(0.29080034 0.06910066 0.0075186651)
(0.30637338 0.07018434 0.0072441129)
(0.3222286 0.071160735 0.0069723647)
(0.33833263 0.072031744 0.0067098219)
(0.35467187 0.072806368 0.0064664474)
(0.37122014 0.073480657 0.0062431303)
(0.38795874 0.074064328 0.0060439519)
(0.40487733 0.074557781 0.0058723974)
(0.42196315 0.074963372 0.0057267158)
(0.43921178 0.075284219 0.0056082243)
(0.45661836 0.07551938 0.0055131399)
(0.47418468 0.075669167 0.0054390123)
(0.49191216 0.075730601 0.0053807966)
(0.50980652 0.075700572 0.0053337128)
(0.52787296 0.075573918 0.0052917101)
(0.5461181 0.075344984 0.0052493585)
(0.56454733 0.07500688 0.0052008475)
(0.5831651 0.074552585 0.0051415128)
(0.60197359 0.073974735 0.0050671545)
(0.62097236 0.073266379 0.0049748944)
(0.64015817 0.0724211 0.0048632512)
(0.65952434 0.071433172 0.0047318969)
(0.67906122 0.070298506 0.0045817879)
(0.69875664 0.069014243 0.0044151392)
(0.71859526 0.067578035 0.0042354299)
(0.73856175 0.065989553 0.0040466984)
(0.75863424 0.064252773 0.0038519157)
(0.77880563 0.062363584 0.0036567246)
(0.79904952 0.060333748 0.0034657725)
(0.81934216 0.058160371 0.0032837569)
(0.83968107 0.055850439 0.00311027)
(0.86004615 0.053405889 0.0029519857)
(0.88043027 0.050838274 0.0028055861)
(0.90082375 0.048147184 0.0026747426)
(0.92122036 0.045340894 0.0025574137)
(0.94161615 0.042421814 0.002455125)
(0.96200886 0.039393816 0.0023641323)
(0.98239949 0.036260826 0.0022836741)
(1.0027877 0.033026762 0.0022102293)
(1.0231765 0.029692451 0.002141792)
(1.0435682 0.026263209 0.0020750339)
(1.0639659 0.022737473 0.0020080648)
(1.0843718 0.019122125 0.0019373797)
(1.1047875 0.015415303 0.0018633888)
(1.1252145 0.011620874 0.0017810937)
(1.1456504 0.0077451711 0.0016935472)
(1.1660952 0.0037847072 0.0015972475)
(1.1865502 -0.00025006231 0.0014969943)
(1.2070049 -0.00435743 0.001390383)
(1.2274544 -0.0085295795 0.0012814361)
(1.2478951 -0.012759912 0.0011710001)
(1.2683119 -0.017040876 0.001063812)
(1.2887063 -0.021365945 0.00096024234)
(1.3090612 -0.025720999 0.00086335317)
(1.3293789 -0.030110305 0.00077570782)
(1.3496502 -0.034507287 0.00069174465)
(1.3698861 -0.038930293 0.00061315899)
(-0.00030787264 0.0011689881 0.0040632554)
(-0.00048654099 0.00053690384 0.0050663195)
(-0.00015523553 0.0011718001 0.006004492)
(0.00014363694 0.0011197794 0.0067879067)
(0.00099474203 0.0015269999 0.0072823583)
(0.0022305278 0.0017941966 0.0076529328)
(0.0040115543 0.0022939301 0.0079070645)
(0.006191768 0.0027740974 0.0080907994)
(0.0089081501 0.003385509 0.0082153481)
(0.012077789 0.0040369022 0.0082413591)
(0.015698831 0.0047884817 0.008290814)
(0.01977683 0.0055880064 0.0082435459)
(0.024278654 0.0064781027 0.00823475)
(0.02921727 0.0074171654 0.0081676027)
(0.034546272 0.0084398562 0.0081381475)
(0.040297855 0.0095227192 0.008062209)
(0.046402197 0.010686505 0.0080411133)
(0.052926577 0.011909864 0.0079928228)
(0.059797903 0.013218191 0.0079778098)
(0.067067613 0.014590179 0.007963489)
(0.074701679 0.016041761 0.0079714842)
(0.082733969 0.017565496 0.0079773434)
(0.091150103 0.019155064 0.0080067517)
(0.099982361 0.020815033 0.0080291609)
(0.10922576 0.022528027 0.0080585026)
(0.11890514 0.02430755 0.0080758846)
(0.12902484 0.026120445 0.0080915714)
(0.13960382 0.027978203 0.0080881337)
(0.15064561 0.029860325 0.0080647472)
(0.16216162 0.031759588 0.0080192347)
(0.17415221 0.033662444 0.007951938)
(0.18661765 0.035560247 0.0078525207)
(0.19954748 0.037443156 0.0077266239)
(0.21293677 0.039293462 0.0075752594)
(0.22677357 0.041111384 0.0073963704)
(0.24103346 0.042884515 0.0071982924)
(0.25570252 0.044602649 0.0069826792)
(0.27074875 0.046264889 0.0067537149)
(0.28614201 0.047863346 0.0065198395)
(0.30186349 0.04940219 0.0062829415)
(0.31788198 0.050866428 0.0060470513)
(0.33416981 0.052270514 0.0058244798)
(0.35070637 0.053596417 0.0056128541)
(0.36746333 0.054858577 0.0054222442)
(0.38442539 0.056047029 0.0052497205)
(0.4015752 0.057163284 0.0051014428)
(0.41889967 0.058203069 0.0049755327)
(0.43639169 0.059164852 0.0048728961)
(0.45404585 0.060042217 0.0047898853)
(0.47186157 0.060830993 0.004725257)
(0.48983983 0.061522894 0.0046736018)
(0.50798498 0.06211086 0.0046314252)
(0.52630138 0.062585306 0.0045931908)
(0.54479476 0.062937159 0.0045542237)
(0.56346966 0.063156215 0.0045096943)
(0.58232946 0.063232961 0.0044554873)
(0.60137533 0.06315771 0.0043882033)
(0.62060569 0.062921787 0.0043056415)
(0.64001578 0.062517413 0.0042065171)
(0.65959758 0.061937804 0.0040908208)
(0.67934009 0.061177995 0.0039597774)
(0.6992292 0.060234219 0.0038149006)
(0.71924824 0.059102635 0.0036608146)
(0.73937983 0.057785626 0.0034975527)
(0.7596035 0.056280001 0.0033326856)
(0.77990739 0.054591697 0.0031674055)
(0.80024418 0.052715968 0.0030118909)
(0.82063474 0.050653677 0.0028568665)
(0.84105056 0.048417136 0.002707064)
(0.86147211 0.046006825 0.0025731248)
(0.88189163 0.043427769 0.0024488708)
(0.90229731 0.040680502 0.0023390147)
(0.92268519 0.037771999 0.0022408195)
(0.94305137 0.034702087 0.0021547881)
(0.96339412 0.031476683 0.0020776451)
(0.98371251 0.028097953 0.0020094961)
(1.0040087 0.024569764 0.0019461679)
(1.0242849 0.020894404 0.0018874755)
(1.0445446 0.017077815 0.0018288211)
(1.0647897 0.013119115 0.0017714567)
(1.0850262 0.009028913 0.0017088391)
(1.1052514 0.0048039207 0.0016456412)
(1.125475 0.0004545821 0.0015744192)
(1.1456862 -0.0040183929 0.001495679)
(1.1659016 -0.0085961459 0.0014131529)
(1.1860991 -0.013287577 0.0013278039)
(1.2062886 -0.0180745 0.0012380441)
(1.2264581 -0.022948759 0.0011448614)
(1.2466093 -0.027906425 0.0010534009)
(1.2667271 -0.032926641 0.00095901074)
(1.2868146 -0.038012649 0.00087307354)
(1.3068558 -0.043138243 0.00078371646)
(1.3268571 -0.048311624 0.00070806322)
(1.3468027 -0.053499399 0.00062301337)
(1.3667164 -0.05872422 0.00054920506)
(-0.0010615944 -6.5175971e-05 0.0036147358)
(-0.0013076015 -0.0013157091 0.0042928928)
(-0.0014707786 -0.0018451867 0.005247757)
(-0.0010384259 -0.0025689183 0.0057772044)
(-0.00031401125 -0.0031438316 0.0061398085)
(0.00097005594 -0.0036168131 0.0064097159)
(0.002564643 -0.0040778444 0.0066331186)
(0.0047508579 -0.0044057889 0.0067782114)
(0.0073242189 -0.0047093047 0.0068316269)
(0.010388577 -0.0048408165 0.0069157603)
(0.013889991 -0.0049682341 0.0068962834)
(0.017855276 -0.0049172858 0.0069149449)
(0.022233451 -0.0048448721 0.0068636371)
(0.027039121 -0.0046052412 0.0068534894)
(0.032257896 -0.0043186717 0.0067842192)
(0.037862728 -0.0038853429 0.0067728779)
(0.04387594 -0.0033793448 0.0067158625)
(0.050255093 -0.0027359788 0.0067000117)
(0.057025076 -0.0020048156 0.0066730674)
(0.06417129 -0.0011470005 0.0066702069)
(0.071702073 -0.00018576725 0.0066649511)
(0.079621098 0.00088417159 0.0066814289)
(0.087939603 0.0020663559 0.0066930701)
(0.096663336 0.0033447999 0.0067171819)
(0.10581307 0.0047294186 0.0067340757)
(0.11539749 0.0061973415 0.0067545406)
(0.12543328 0.0077536303 0.0067631862)
(0.1359288 0.0093840196 0.0067605115)
(0.1469017 0.011076751 0.0067437531)
(0.15835404 0.01282366 0.0067099735)
(0.17029272 0.014613333 0.0066517532)
(0.1827164 0.016435484 0.0065724086)
(0.19562311 0.018275225 0.0064725356)
(0.20900282 0.020126895 0.0063479378)
(0.22284055 0.021977939 0.0062037045)
(0.23711817 0.023818845 0.006041633)
(0.25180872 0.025646899 0.0058654201)
(0.26688926 0.027447141 0.0056803113)
(0.28235412 0.029220493 0.0054842597)
(0.29815276 0.030952905 0.0052839419)
(0.31426214 0.032655704 0.0050936383)
(0.33065563 0.034309738 0.0049032315)
(0.34730498 0.035919951 0.0047317281)
(0.36418703 0.037479728 0.0045714397)
(0.38128082 0.038983817 0.0044282349)
(0.39856766 0.040430201 0.0043047438)
(0.41603539 0.041810324 0.0041996175)
(0.43367426 0.043119194 0.0041133805)
(0.45147857 0.044347184 0.0040439264)
(0.4694462 0.045486411 0.0039891394)
(0.48757809 0.046525662 0.0039449786)
(0.50587703 0.047454857 0.0039086114)
(0.52434739 0.048261561 0.0038749749)
(0.54299381 0.048934516 0.0038406345)
(0.56182039 0.049461258 0.0038013047)
(0.58082964 0.049830672 0.0037537222)
(0.60002216 0.050031444 0.0036952621)
(0.61939522 0.05005392 0.0036240198)
(0.63894339 0.049889202 0.0035391557)
(0.65865772 0.04952995 0.0034409017)
(0.67852588 0.048970355 0.0033299773)
(0.69853298 0.04820554 0.0032087201)
(0.71866168 0.047233125 0.0030792675)
(0.73889269 0.046051871 0.0029431821)
(0.75920755 0.044659042 0.0028070995)
(0.77958157 0.043058181 0.0026687874)
(0.80000789 0.041256123 0.0025401863)
(0.82044994 0.039240826 0.0023995764)
(0.84090513 0.037010132 0.0022920542)
(0.86135245 0.034592964 0.0021813165)
(0.88178329 0.031971283 0.0020834742)
(0.90218846 0.02915657 0.0019956153)
(0.92256483 0.026150056 0.0019154142)
(0.94290433 0.022953643 0.0018455271)
(0.96320615 0.019570259 0.0017828759)
(0.98347202 0.016003564 0.0017266633)
(1.0037017 0.012257977 0.0016744662)
(1.0238988 0.0083352296 0.0016251422)
(1.0440664 0.0042414902 0.0015768477)
(1.0642075 -2.0491445e-05 0.0015275902)
(1.0843268 -0.0044438251 0.0014761367)
(1.1044251 -0.0090255315 0.0014226234)
(1.1245052 -0.013754485 0.0013628024)
(1.1445725 -0.018629644 0.0013013452)
(1.1646217 -0.023634832 0.0012346641)
(1.1846469 -0.028766269 0.0011655821)
(1.2046555 -0.034010501 0.0010898272)
(1.2246379 -0.039363461 0.0010166118)
(1.2445939 -0.044805893 0.0009384092)
(1.2645107 -0.050331212 0.00086404031)
(1.284393 -0.055925103 0.000789284)
(1.3042252 -0.061572953 0.00071544999)
(1.3240148 -0.067272791 0.00064620173)
(1.3437458 -0.072991969 0.00056962572)