/*--------------------------------*- C++ -*----------------------------------*\
  =========                 |
  \\      /  F ield         | OpenFOAM: The Open Source CFD Toolbox
   \\    /   O peration     | Website:  https://openfoam.org
    \\  /    A nd           | Version:  6
     \\/     M anipulation  |
\*---------------------------------------------------------------------------*/
FoamFile
{
    version     2.0;
    format      ascii;
    class       pointScalarField;
    location    "1.33";
    object      p;
}
// * * * * * * * * * * * * * * * * * * * * * * * * * * * * * * * * * * * * * //

dimensions      [1 -1 -2 0 0 0 0];

internalField   nonuniform List<scalar> 
3969
(
-1230065.6
1758084.7
-155.49219
-558.09321
-2416279.9
3447074.3
-701.52573
266.31922
-1024031.6
-707532.29
-358840.58
-19495.211
248400.91
620102.98
657272.28
861.99565
1249.0415
1210.0209
284.3233
-705.2661
-1256.767
-1033.8474
-343880.27
-409167.27
-392334.67
-417939.84
-401090.39
-405495.43
-386335.39
-377895.98
-361211.03
-344957.88
-331245.01
-316059.17
-302534.28
-288217.31
-274364.14
-259428.28
-246616.28
-232571
-220007.2
-206393.16
-194246.56
-181698.17
-169662.1
-158512.33
-146716.74
-135756.84
-125190.15
-115191.95
-105650.81
-96123.134
-87203.037
-78655.444
-70333.996
-62391.607
-54985.464
-47900.113
-40857.322
-34625.545
-28327.049
-22917.696
-17782.767
-13140.444
-9228.7413
-5417.0466
-3025.06
-977.90898
224.03585
429131.14
375062.93
419782.54
382152.89
415787.1
380398.19
389365.11
365591.26
362281.48
343637.02
334444.02
322014.35
308037.71
297042.57
283296.25
270605.56
258828.58
244957.69
233571.86
220969.63
207486.82
197134.88
183547.28
172394.59
159865.62
147943.47
135859.7
124179.09
113046.29
101784.79
92101.335
81554.976
72391.001
63123.779
54749.431
46814.636
39647.474
32798.612
26686.727
20980.204
16035.511
12008.954
8345.1098
5463.1239
2838.6062
1046.0249
-1.0714032
-1732922.3
-1282572.6
-516655.61
84095.444
608941.59
1198520.6
1001839.6
472033.27
559422.7
357833.82
487067.31
426756.71
438320.91
414222.93
405970.93
384839.91
363685.71
364982.35
337848.91
334154.24
315943.83
299900.74
287398.33
267953.96
254699.96
238122.15
222939.35
209053.05
195503.33
182347.63
169728.38
158029.09
147837.67
136267.69
123978.11
114537.5
104363.45
94518.951
85367.527
76415.532
67916.293
59974.866
52047.728
44679.037
37797.822
31665.947
25577.322
20004.354
15228
10752.139
6983.941
3859.8399
1362.7918
-511.40722
-1683.2019
-1016.818
-1355.7066
835.65235
732.11565
1188.4549
1452.1504
-391.17086
-902.3715
-2096.7148
-4666.987
-7601.6657
-11306.44
-15645.602
-20510.281
-26307.641
-32283.508
-38114.162
-48570.213
-55566.107
-64327.956
-74238.977
-84255.831
-94871.19
-106186.38
-117479.02
-129564.3
-141913.06
-154178.1
-167315.49
-180612.23
-193948.43
-207752.5
-221189.26
-234191.72
-248145.46
-260548.09
-274574.7
-283370.72
-292317.4
-313665.53
-337576.88
-329573.93
-355243.01
-355914.95
-366345.74
-396492.56
-412248.96
-399369.78
-430166.83
-415008.17
-391471.97
-430799.23
-433617.04
-1005163.8
-1127954.8
-1187780
-1179263.4
-1147243.2
-1123259
-835576.12
1432831.5
1766472
2017708.4
2151255.6
2034094.8
2059349.6
1659152.1
103.76309
-103.81882
-255.49816
-633.01408
-681.44093
-526.45769
-444.30339
199.92809
372.94051
316.11712
492.76797
118.27938
-254.76711
142.45593
-302087.4
-320478.27
-321544.73
-321736.08
-321582.56
-312988.32
-304349.66
-297475.59
-281657.94
-276093.94
-261725.8
-248384.26
-239758.77
-226237
-215139.04
-203708.65
-193317.73
-181972.12
-171108.51
-160756.14
-150852.08
-140699.56
-131431.06
-122369.18
-113982
-105295.51
-97103.196
-89640.291
-82010.227
-74851.509
-68082.399
-61412.512
-55114.267
-49032.907
-43294.329
-37572.925
-32250.476
-27144.918
-22459.878
-18315.911
-14130.369
-10838.283
-7548.4337
-5162.3767
-3083.4174
-1242.8595
85.208842
-194290.25
-199093.17
-194234.79
-208658.38
-207319.91
-213927.16
-203896.97
-198718.73
-190595.36
-183361.99
-174063.92
-166625.46
-157181.25
-148691.24
-141808.09
-133439.5
-126231.66
-118041.36
-111031.77
-103684.31
-96337.966
-89379.451
-82808.195
-76877.69
-70969.391
-65879.881
-61340.928
-56011.06
-51874.281
-47526.955
-43470.06
-39603.924
-35826.11
-32249.595
-28729.056
-25354.14
-22036.029
-19042.238
-16014.366
-13260.087
-10512.806
-8270.9182
-5951.8336
-4090.1182
-2526.299
-971.59382
65.048563
-90828.476
-109157.42
-93920.023
-105585.64
-101179.02
-106539.45
-100992.69
-102009.42
-96094.113
-90798.099
-88385.578
-81779.828
-77917.225
-70808.58
-65265.645
-60951.528
-56712.567
-52683.214
-49223.42
-45457.796
-42984.889
-40316.284
-37372.99
-34559.151
-32241.286
-29727.065
-27504.028
-25736.073
-23972.345
-22227.02
-20532.145
-18928.576
-17314.897
-15718.456
-14204.377
-12590.308
-11012.95
-9451.1875
-7689.8572
-6418.5765
-4919.8491
-3905.9906
-2500.7602
-1888.3053
-1020.6767
-324.42928
-1.3603685
2603.9783
-1224.4556
12785.504
-111.98675
9498.4508
3287.8568
12114.913
8004.9819
10682.749
5681.0328
10825.116
7747.5189
11350.784
9735.7833
10449.914
10302.963
11234.42
11326.147
11769.062
12586.781
12536.006
13999.148
15414.717
14674.856
13920.792
12951.463
11740.577
10319.231
9106.2837
7739.748
6450.5053
5130.516
4042.7753
2930.1484
1965.4117
1147.882
596.36047
160.83484
-336.65229
-811.15077
-844.70876
-924.76714
-670.47922
-765.98907
-287.1051
-268.00501
-198.39705
120165.25
102338.39
113495.57
111007.39
116981.54
113219.97
112409.23
109510.01
106890.27
101211.17
100038.37
93530.397
93675.961
87205.331
86009.074
81534.372
79099.022
75618.571
72458.004
69857.451
64391.021
59172.19
54826.691
49782.165
46518.007
44034.85
39851.013
35945.107
32572.448
28965.454
25581.193
22383.099
19366.157
16454.956
13834.879
11450.057
9474.7116
7431.8323
7209.7125
5838.4109
4685.1511
3544.903
2794.0824
1894.2729
1441.644
599.85278
-228.08475
236456.96
215948.01
222982.18
226860.08
229479.46
222581.99
221186.16
212188.31
209528.76
198049.87
195607.06
186620.12
181583.99
174572.99
168232.59
160221.28
153567.6
146165.02
139216.2
132314.47
123877.13
118125.03
106442.89
98225.249
90624.67
83720.469
77493.066
70441.591
63922.803
57487.901
51533.005
45535.515
39962.638
34695.118
29799.867
25234.864
21062.636
17365.558
13987.555
11563.349
8951.9144
6713.631
4789.364
2980.0103
1802.3481
596.30603
-316.16613
383823.67
292534.84
336574.57
328236.01
336191.85
325229.74
322496.69
310631.82
306164.52
291909.8
287001.28
274228.96
264749.53
252641.3
241659.7
229921.13
218520.14
208316.8
197221.83
186417.76
176693.3
165199.9
155046.31
144816.31
134820.62
124894.78
116205.19
105623.59
96043.978
86884.082
77908.845
69378.371
61094.98
53403.778
46054.088
39228.539
32890.757
27350.887
22351.153
17305.066
13312.787
9798.9093
6980.8638
4447.8535
2747.7773
1116.6539
-11.287529
-695135.02
-685514.69
-713800.49
-702458.15
-706515.51
-679932.37
-628748.98
-484393.09
-562383.14
-511218.66
-531686.09
-526980.81
-507946.96
-494180.42
-247583.68
-286141.88
-229748.11
-253328.69
-226751.43
-222880.66
-244698.46
-43658.425
-15968.855
2114.4129
-18286.713
-6552.8748
34221.262
-57526.866
163282.6
168608.62
193297.66
181438.82
187989.05
194984.2
122359.42
479175.77
509179.58
510454.91
520968.94
539747.31
533647.17
492258.35
638268.76
556785.85
501967.55
518537.28
497143.67
457369.61
516975.19
615749.75
625177.96
701251.95
720710.36
736517.77
734237.96
590970.14
503123.76
563311.07
559784.14
567252.1
592088.02
574657.29
532827.8
417771.85
464192.06
488559.33
489868.82
487334.9
465299.9
479202.51
431118.69
459778.12
453736.25
474522
459752.54
460249.22
436701.86
419680.46
441238.7
455937.12
457126.88
458888.89
445071.46
446316.4
417854.95
408954
417557.62
423107.3
423424.15
415234.1
415832.5
394942.58
403383.47
408265.15
411078.56
410581.06
411357.19
411142.29
391591.41
383811.28
387857.43
388100.73
381133.41
387518.6
387043.01
371959.98
372891.11
371486.05
372966.68
375326.61
376698.81
378698.43
365458.33
356808.04
353198.89
355923.88
354956.91
354302.31
353674.46
349172.05
345264.1
340192.71
341757.97
341381.73
339435.85
348196.9
334906.89
328668.46
326012.21
329181.68
326161.29
321086.08
328974.58
323681.91
311491.78
313444.13
310536.27
312515.05
309359.27
319392.69
306860.61
297820.85
302085.01
298869.07
300380.38
295574.5
301666.76
295268.29
284389.31
288384.36
282578.91
284278.36
279846.95
286974.06
281089.21
270564.89
276085.44
270294.44
273182.67
268407.98
274604.41
267013.47
259048.99
262599.21
256071.95
258888.36
252872.8
257482.53
254023.09
246270.26
249509.45
242672.9
246650.95
239457.39
245055.18
240488.63
233594.97
236371.08
229045.44
232890.64
225361.49
231045.09
226875.25
221039.67
223394.48
216371.09
220620.27
212853.83
218373.63
214540.02
208020.3
210308.34
203024.33
207037.11
199248.57
204569.43
201234.57
195551.95
197422.53
190869.06
194663.24
187022
192350.49
188866.04
182840.1
184978.43
178372.13
181451.95
174600.98
179428.38
176030.2
171228.43
172263.36
166127.82
169447.35
163100.65
167659.74
163262.41
159783.55
158359.53
155245.73
156652.39
151793.95
155808.14
150534.19
148217.22
145064.85
145350.42
144311.03
142507.55
144944.31
140058.4
136582.77
134616.03
134115.25
133045.62
130372.76
133426.05
128978.87
125118.98
123986.26
122377.08
121413.68
120149.78
121175.81
117197.43
113960.99
112983.43
111261.3
110218.44
109918.63
110214.31
106425.01
102948.66
102639.27
100720.17
100261.78
99919.001
100054.24
95308.837
92879.992
92086.436
90562.765
90004.138
89944.345
90148.59
85354.466
82766.325
82254.028
80929.869
80552.667
80724.756
81028.803
75255.769
73258.771
72702.48
71704.237
71419.131
71841.053
72192.596
66025.094
64262.499
63763.932
62967.667
62742.19
63373.205
63658.581
57141.652
55715.212
55196.736
54629.377
54540.602
55505.564
55842.37
48893.788
47762.767
47248.515
47002.927
46961.421
47490.966
48346.125
41362.182
40143.383
39836.844
39267.884
39818.982
40923.379
41346.345
34224.074
33686.517
32904.381
33131.008
32925.99
34007.636
34452.078
27656.856
26946.329
26556.012
26564.565
26744.915
27928.702
28312.91
21996.723
21406.968
21067.661
21034.534
21164.23
22305.348
22833.498
16556.768
16262.103
15749.117
15766.734
16000.674
17124.869
17543.229
12181.396
11900.846
11328.962
11537.309
11593.291
12643.939
13076.959
8147.1448
7766.9052
7255.5216
7385.901
7397.0082
8518.8381
8897.4037
5101.178
4738.148
4326.3019
4414.81
4423.083
5376.4951
5629.2486
2315.8222
1865.9703
1512.8938
1490.2857
1510.1028
2331.0087
2513.1008
712.02413
384.09428
179.01692
119.27586
143.50163
698.44791
992.55146
-331.33947
-548.21856
-723.91104
-780.33578
-768.25913
-375.31631
-476.15721
1397.0389
1470.9011
1333.5632
1282.0565
1012.4967
982.61209
1033.1755
2296.8016
2306.1702
1988.8866
2110.4716
1853.1286
1587.8328
1854.4365
1553.3042
1709.5593
1384.2773
1324.6229
1178.401
1079.7376
1173.2387
433.58439
529.55993
431.62162
457.77768
143.65309
183.26263
6.3714041
-1009.4632
-888.75795
-1297.3602
-1364.9817
-1666.7516
-1658.174
-1524.3926
-1544.4102
-1542.0661
-1564.6391
-1714.0899
-1933.0388
-1863.5194
-1814.7724
-1428.9105
-1444.4919
-1571.7789
-1734.89
-1853.0205
-1757.7228
-2006.2745
-448640.56
-446680.4
-520358.08
-497803.36
-516468.64
-483614.53
-468646.93
-485016.04
-494948.56
-525288.64
-522970.24
-527410.99
-487333.71
-477111.27
-466484.57
-471213.28
-484124.32
-487239.49
-481699.78
-448884.49
-449853.04
-435025.25
-454517.2
-464325.56
-472048.65
-461958.38
-445004.65
-445798.42
-431247.22
-434067.84
-438351.6
-441609.77
-438629.64
-421121.72
-415041.18
-406799.34
-415175.96
-420553.35
-417374.3
-416565.76
-400656.87
-402997.24
-399096.21
-398647.31
-401013.62
-399621.05
-403651.9
-392637.71
-399991.06
-377280.62
-379990.29
-384501.89
-373292.05
-381682.93
-370631.34
-375287.99
-367335.28
-368915.17
-369415.46
-365764.86
-372201.6
-360257.21
-373199.42
-352450.17
-349089.48
-351054.53
-346792.04
-352617.21
-343802.45
-355524.2
-337811.93
-335591.19
-342037.71
-335274.01
-342765.52
-334533.43
-343310.6
-321142.19
-323319.11
-322988.45
-319095.38
-324445.14
-317553.29
-329616.69
-309349.39
-306626.8
-310199.7
-306739.94
-313345.34
-305815.43
-308840.03
-293484.38
-294301
-294771.2
-293317.56
-297148.79
-293979.2
-300825.67
-279022.7
-280508.38
-279960.06
-281817.54
-283685.93
-281912.63
-291083.41
-267497.86
-265222.19
-267108.86
-266606.54
-271982.42
-268555.57
-275153.09
-252346.36
-252864.27
-253213.04
-255425.36
-257550.95
-255264.69
-262364.18
-238802.65
-238758.45
-240795.26
-241380.8
-243969.8
-243096.48
-248904.83
-224571.82
-225907.85
-227477.21
-228407.47
-231383.24
-230729.49
-236596.44
-211899.26
-212351.28
-214444.64
-215504.26
-218393.18
-217986.89
-223608.61
-199121.19
-199210.95
-202034.88
-202635.76
-205759.61
-205471.84
-211012.78
-186370.27
-186461.85
-189419.3
-189849.94
-192897.51
-192505.66
-198378.08
-174399.27
-174232.22
-177754.58
-177653.29
-180793.84
-180460.91
-186060.21
-162298.09
-162417.76
-165360.12
-165274.1
-168244.09
-167573.74
-173449.7
-150915.35
-150129.72
-153649.5
-153182.89
-156065.44
-155466.43
-161115.25
-139712.69
-138708.84
-142262.06
-141481.18
-144216.4
-143480.79
-148858.05
-128647.64
-127874.96
-131055.53
-129838.33
-132704.41
-131573.39
-137044.66
-118534.48
-117079.56
-119845.79
-118725.02
-121499.22
-120453.74
-125338.87
-107765.04
-106361.16
-109291.67
-108010.26
-110294.69
-109053.09
-113633.45
-98088.272
-96901.117
-98927.462
-97654.472
-99560.966
-98587.609
-102589.45
-88635.475
-87189.612
-88994.298
-87715.014
-89357.229
-88218.943
-91789.136
-79474.604
-78090.022
-79382.384
-78110.035
-79343.935
-78248.565
-81474.565
-70750.906
-69354.992
-70385.262
-69074.401
-69921.5
-69043.364
-71799.226
-62408.171
-61084.336
-61706.959
-60350.477
-61041.367
-60155.097
-62355.843
-54675.965
-53304.829
-53543.15
-52350.522
-52478.88
-52033.657
-53527.256
-46684.314
-45595.708
-45698.904
-44359.615
-44750.746
-44234.393
-45373.972
-40152.442
-39150.554
-38346.924
-37719.927
-37435.304
-36933.499
-38413.154
-33450.21
-32477.912
-31720.912
-30961.435
-30754.757
-29769.289
-31506.151
-27032.511
-26429.811
-25311.13
-24894.436
-24404.822
-24077.601
-25172.363
-21668.18
-21022.316
-20036.501
-19606.987
-18987.309
-18731.598
-19635.572
-16358.375
-15847.856
-14818.955
-14451.416
-13850.012
-13952.505
-14590.61
-11846.297
-11379.441
-10408.036
-10174.248
-9659.3221
-9849.0114
-10360.624
-7969.2528
-7545.7866
-6597.1257
-6537.1255
-5981.1747
-6374.0058
-6690.9358
-4476.1378
-3951.6553
-3336.9223
-3284.2624
-2968.5569
-3473.3808
-3748.6665
-2141.6537
-1833.3996
-1337.8906
-1277.2226
-973.00351
-1383.5246
-1587.6268
-506.40024
-288.04171
65.16596
65.843742
45.001723
-329.65849
-503.12287
-28.476854
-92.018155
91.756183
30.490786
141.57407
-43.365377
13.556952
-478748.64
-324485.62
-324491.74
-317571.53
-329290.81
-333591.31
-316750.28
-312145.24
-305235.12
-296485.29
-282685.21
-274753.78
-261702.54
-250120
-241615.96
-230532.2
-218726.64
-208435.64
-198274.73
-187776.05
-177458.33
-166819.17
-156539.29
-146465.71
-136181.7
-126399.83
-116019.06
-106061.28
-96572.394
-87114.405
-78197.587
-69590.398
-61317.582
-53479.112
-46637.112
-38969.749
-32713.785
-27861.264
-22350.395
-17887.463
-13936.268
-10381.365
-7433.481
-4964.1473
-2995.2802
-1491.9273
274.6683
-267276.31
-254140.16
-192069.62
-224275.34
-263558.35
-233244.92
-248754.44
-229670.69
-232288.23
-215689.27
-215663.9
-202244.96
-194391.9
-185985.6
-179450.29
-173263.47
-165054.97
-156631.17
-149729.31
-141487.76
-133488.63
-125690.54
-117605.61
-109517.04
-101141.89
-92087.105
-86599.796
-78180.875
-71057.036
-63917.547
-57114.181
-50541.731
-44340.166
-38678.392
-32915.039
-28139.717
-23768.612
-19353.268
-15717.214
-12357.304
-9560.875
-6851.2238
-4814.1566
-2987.7975
-1618.8165
-318.90661
380.6338
-124582.94
-142763.48
-74718.564
-122103.41
-109772.78
-97818.626
-107782.19
-99152.123
-98806.953
-92732.661
-96177.18
-90767.758
-93019.896
-89070.981
-88776.401
-86881.956
-82997.621
-79841.259
-77296.926
-72488.706
-69030.421
-65167.725
-61077.546
-57107.6
-53228.855
-49234.95
-45347.843
-40595.553
-36841.487
-32730.805
-28940.394
-25278.443
-21908.922
-18597.79
-15636.843
-13061.387
-10651.316
-8539.5938
-6653.0421
-5349.8991
-4040.6304
-2893.7294
-2148.7515
-1477.9963
-933.73006
-677.77029
466.96753
23895.129
-19518.085
15225.817
-14843.065
-1037.8743
-9422.8439
-10205.76
3701.2253
-8672.2453
-4701.1575
-6663.7377
-8631.464
-12609.63
-16881.207
-19756.787
-19453.275
-20348.529
-20443.848
-20267.806
-19281.565
-19253.972
-18472.005
-17453.992
-16635.765
-15046.075
-13422.797
-11873.957
-10494.857
-8877.7433
-7359.9874
-6046.132
-4804.0426
-3567.7035
-2504.5797
-1623.6363
-832.55696
-143.65424
258.05855
614.52
697.58773
865.81049
938.69429
747.05433
782.63488
344.3277
502.19576
278.04794
198973.03
106462.52
115977.25
81790.822
103518.59
82241.974
97069.466
87373.971
79186.343
82255.118
70812.019
74385.732
65287.432
68090.845
61678.297
59829.892
54529.143
51899.448
48065.262
44937.539
41681.755
38958.007
36266.089
33718.412
31182.93
29698.349
27361.486
25555.409
24037.469
22521.163
21029.047
19680.436
18136.799
16656.812
15272.7
13826.509
12245.685
10761.591
9278.7767
7712.6744
6256.9979
4856.7929
3624.0683
2354.9168
1454.0567
306.55263
452.09091
303113.35
238986.43
201533.89
203201.41
210883.62
203238.48
204563.46
185820.73
193132.55
185783.42
181925.18
176473.66
164183.24
160940.01
149238.13
141757.75
131368.76
123651.53
114995.92
107942.18
101087.37
94064.714
87542.358
79831.772
72551.999
66025.468
61750.682
56746.372
52469.327
48131.832
44323.216
40377.676
36539.57
32964.783
29410.327
26019.339
22663.505
19412.797
16504.307
13458.274
10815.605
8429.2695
6052.1397
4304.2426
2371.4937
1134.0324
-60.077651
395762.48
336432.59
331554.22
321757.17
341712.95
326063.71
330622.99
314114.37
313851.02
294636.43
287100.48
271273.12
259844.66
247252.13
234729.96
223671.33
213040.79
200560.29
190328.66
178682.57
167833.99
156896.55
146804.13
136233.06
127733.78
113902.82
105585.3
97449.606
89677.55
82418.514
75252.042
68212.003
61710.799
55100.33
49079.503
43063.459
37220.563
32301.936
26892.251
22143.776
17821.75
13636.963
10232.055
6953.9033
4431.6697
1850.3604
909.95952
-587834.2
-633984.48
-618792.5
-642368.83
-634610.53
-591844.42
-549326.3
-391133.52
-461280.34
-455544.53
-465562.93
-452240.22
-423402.66
-374773.72
-374473.4
-415603.12
-442106.05
-441907.89
-431745.45
-424352.77
-398395.24
-358082.3
-366185.53
-379089.53
-386424.87
-370196.72
-371753.84
-328146.64
-343098.45
-357999.55
-377583.81
-369444.89
-365436.21
-357572.62
-324412.21
-333916.77
-344272.81
-341428.77
-350564.87
-340585.61
-336243.58
-334789.32
-322871.19
-327240.71
-333619.73
-333946.21
-322245.92
-328642.91
-314760.75
-308979.32
-322040.37
-314581.72
-321981.48
-317866.83
-310986.29
-306060.76
-301295.75
-303311.14
-296674.44
-310899.54
-296198.35
-304210.94
-297060.33
-285114.84
-289668.9
-292632.76
-296682.12
-288262.12
-292818.69
-286075.93
-272194.48
-281771.59
-274951.74
-281235.51
-274355.62
-278493.42
-274932.82
-265711.85
-264190.98
-265967.04
-269497.06
-266998.01
-268018.03
-264233.22
-248929.2
-253886.43
-253222.77
-259549.34
-252681.86
-256780.83
-257035.73
-238781.47
-239815.35
-241982.28
-246081.94
-242442.85
-246209.87
-247094.94
-227295.9
-228696.82
-232047.11
-232410.3
-232291.54
-234640.63
-232901.26
-214055.84
-216202.16
-220536.61
-221885.46
-221499.23
-222545.32
-224703.53
-202344.48
-204254.98
-208394.75
-209862.67
-209760.95
-212319.95
-214016.28
-190918.68
-193269.35
-197799.28
-198177.23
-199350.56
-201352.64
-203712.81
-179535.27
-182572.66
-185607.02
-187448.72
-188471.74
-190396.59
-192413.08
-168765.96
-171397.9
-175055.08
-176440.34
-177788.6
-179671.74
-182344.88
-156862.01
-161424.54
-163914.71
-165786.22
-166976.94
-169221.49
-171540.96
-146761.88
-151436.26
-153354.44
-155155.35
-156788.5
-158865.84
-161507.47
-136332.15
-141456.78
-142328.08
-144869.31
-146149.09
-148955.34
-150662.15
-126561.89
-131536.08
-132134.91
-134307.63
-136133.86
-138304.94
-140130.51
-116550.42
-122603.02
-121985.64
-125341.4
-125985.41
-129151.51
-130592.09
-108297.94
-113152.22
-113291.95
-114824.05
-116724.33
-118961.44
-120253.13
-100189.14
-104096.25
-103566.22
-105941.33
-107215.43
-109650.47
-110577.7
-91380.897
-95055.885
-95248.846
-97027.655
-97862.828
-99822.972
-100886.64
-83675.095
-87774.868
-86681.715
-88137.567
-89164.473
-91031.038
-91934.336
-76494.12
-79153.712
-78700.157
-79787.797
-80774.782
-82111.714
-82932.892
-69154.163
-71595.504
-70806.315
-71681.485
-72388.07
-73647.18
-74187.55
-62368.421
-64246.53
-63608.926
-64068.862
-64681.451
-65638.106
-66076.836
-55759.637
-57238.219
-56329.216
-56595.496
-57127.602
-57986.023
-58104.948
-49618.792
-50537.496
-49701.574
-49659.238
-50180.295
-50628.122
-50559.807
-43469.848
-44008.198
-43082.741
-42905.078
-43356.029
-43706.289
-43709.58
-37832.242
-37896.327
-37304.786
-36782.936
-37267.336
-37442.704
-37403.066
-32469.778
-32649.527
-31542.81
-30927.17
-31594.103
-31033.952
-31582.241
-27545.828
-26500.408
-26220.45
-25545.497
-25352.461
-26233.775
-25518.487
-22832.137
-21547.466
-21485.5
-20651.613
-21073.333
-21147.151
-21082.916
-18347.433
-17344.633
-16918.028
-16196.992
-16225.705
-16586.994
-16262.239
-14280.678
-12948.855
-12767.047
-11870.16
-12365.175
-12458.73
-12537.045
-10791.646
-9799.8532
-9481.1729
-8805.0055
-9113.3252
-9104.9972
-9175.5857
-7426.8105
-6243.4509
-6066.8125
-5347.5038
-5698.0829
-5800.2695
-6181.5568
-5057.6047
-4250.822
-4108.6952
-3415.608
-3785.3595
-3748.6833
-3938.4508
-2486.4495
-1924.4018
-1548.0576
-1135.2012
-1435.2574
-1381.6912
-1797.733
-1136.9178
-643.52493
-489.13938
-224.82353
-400.1493
-440.83619
-416.98315
388.0403
673.2739
850.6851
966.90115
780.21097
912.83319
457.16773
-373939.32
-377356.65
-412908.55
-400261.79
-411217.7
-368548.08
-367861.71
-272888.7
-339731.87
-352730.31
-363173.63
-359458.73
-327728.4
-304108.4
-282571.51
-261981.7
-296650.41
-280884.02
-290823.57
-258595.66
-256894.14
-235241.41
-253425.02
-270613.49
-263798.5
-269282.39
-253678.32
-222784.71
-245603.11
-251061.28
-266172.57
-253909.21
-265250.17
-243817.61
-233500
-229297.24
-234390.62
-242647.87
-235145.44
-235847.91
-235301.34
-223782.99
-224613.18
-234286.88
-245955.38
-234745.15
-242523.65
-236477.88
-219470.48
-216789.39
-217666.4
-223070.5
-216426.32
-223718.29
-213927.03
-213042.93
-207964.53
-210906.54
-225366.29
-216470.24
-218024.45
-216553.01
-208413.39
-196473.54
-203338.2
-209173.82
-196693.75
-206163.79
-200339.22
-200099.78
-190331.77
-195114.15
-199350.39
-195350.21
-200952.54
-198182.47
-191047.28
-180621.18
-182662.67
-192855.06
-183667.68
-192272.57
-184265.77
-189124.28
-170287.09
-176670.1
-184783.75
-175373.41
-183615.43
-179504.96
-177141.13
-161862.11
-167997.94
-174012.22
-166750.67
-174480.85
-170398.83
-167313.44
-152572.79
-161835.26
-163381.17
-160721.55
-166318.59
-163767.78
-160836.39
-144698.81
-152398.23
-153905.37
-153346.17
-156185.86
-156013.97
-152137.97
-136102.57
-145081.34
-146096.26
-145504.25
-148688.88
-150021.29
-147507
-128196.1
-137125.73
-137285.5
-138291.52
-140680.84
-142110.3
-138557.52
-121178.96
-128751.44
-129665.67
-130707.08
-133199.1
-134605.71
-132467.63
-113090.32
-120826.1
-121778
-123323.43
-125317.25
-126998.71
-125418.83
-106746.83
-113259.92
-114375.8
-115745.04
-118021.36
-119787.55
-118855.1
-100227.61
-105643.74
-106634.92
-108396.68
-110645.36
-112335
-111519.51
-94187.606
-97917.114
-99653.618
-101235.3
-103764.74
-104468.69
-104900
-87760.933
-90994.108
-93133.72
-94667.568
-96629.918
-97410.945
-98238.493
-81776.672
-84384.959
-86430.39
-87400.226
-90181.558
-89779.929
-91714.275
-75868.21
-78220.865
-79002.45
-82374.474
-81980.819
-83293.542
-84946.172
-69435.476
-72222.376
-73251.536
-73806.262
-76911.702
-75367.936
-77545.184
-64584.603
-65532.979
-67840.751
-67897.011
-70006.731
-69180.069
-71144.484
-59176.892
-60166.093
-61823.279
-61686.713
-63957.595
-62636.072
-64433.063
-53953.935
-54949.421
-55680.754
-55880.702
-57474.578
-56341.372
-57911.694
-49088.162
-49773.124
-50538.836
-50389.088
-51795.07
-50469.937
-51846.965
-44264.562
-44971.906
-45069.148
-44924.697
-45999.756
-44677.139
-45850.988
-39881.654
-40278.629
-40154.828
-39899.444
-40724.283
-39327.684
-40110.743
-35419.83
-35767.428
-35266.625
-35023.202
-35578.117
-34025.324
-34884.553
-31289.416
-31582.883
-30855.463
-30630.916
-30827.89
-29501.977
-30222.824
-27243.064
-27603.862
-26525.447
-26305.564
-26267.707
-24893.208
-25210.776
-23489.897
-23700.965
-22423.735
-22306.276
-21951.992
-20948.058
-20936.312
-19845.358
-20340.944
-18725.136
-18676.808
-18325.042
-17204.644
-17429.762
-16365.46
-16769.411
-15448.813
-15164.753
-14832.703
-14083.675
-13690.003
-13218.965
-13826.873
-12122.119
-11973.342
-11623.638
-10708.563
-10557.567
-10513.238
-10762.183
-9260.1378
-9354.8452
-8837.1991
-8238.7358
-8116.7867
-7721.8666
-8229.3534
-6687.1904
-6881.3758
-6253.6904
-5828.1151
-5824.4707
-5673.7255
-5915.0068
-4453.3794
-4747.1494
-4067.3171
-3946.4468
-3934.2219
-3506.2079
-3651.06
-2440.259
-2771.1538
-2251.6016
-2251.0793
-2381.8201
-2042.9422
-2149.8367
-1089.9755
-1419.6136
-939.58478
-995.30348
-1295.6808
-474.96502
-331.32242
431.55865
156.27369
412.82864
264.7243
-118.36388
307.94394
469.51146
895.90707
767.88974
650.55199
853.54473
401.4277
-221743.14
-216770.3
-202085.72
-217559.71
-202988.52
-187052.44
-179974.58
-152277.53
-221046.33
-202611.66
-217951.19
-187679.58
-188964.17
-152575.93
-155499.5
-142646.01
-158685.37
-155315.69
-147355.76
-131267.09
-125104.52
-120422.33
-143977.6
-151955.04
-159088.21
-142837.35
-146179.37
-115942.63
-135554.27
-128625.15
-140598.21
-130633.93
-130292.88
-117483.35
-111573.08
-115670.99
-130928.7
-125017.08
-126014.88
-128223.44
-115803.42
-115481.27
-118382.63
-124500.96
-113452.98
-122839.22
-120720.2
-111559.92
-109169.77
-111206.11
-122272.02
-111443.89
-117472.06
-114294.21
-103315.53
-108875.77
-108124.52
-121149.85
-102340.45
-112742.42
-108074.73
-105281.51
-105375.36
-107125.95
-111131.15
-97728.654
-104657.41
-106500.66
-98663.725
-101125.89
-99476.689
-108370.4
-92508.107
-104997.71
-101128.15
-96991.791
-98442.994
-94135.137
-100821.18
-87866.213
-96575.602
-95429.266
-91004.239
-95108.089
-86548.407
-99668.717
-83058.811
-93063.083
-92474.593
-87661.685
-91039.403
-82993.735
-91171.465
-80476.312
-89020.456
-90703.1
-80551.334
-92292.813
-78850.238
-84301.238
-75794.628
-84139.182
-84545.793
-78807.471
-87566.25
-72706.996
-77788.269
-74138.682
-77771.983
-81579.606
-74966
-85526.212
-66935.648
-73885.99
-69378.494
-74841.177
-76842.875
-72498.849
-80776.928
-63197.91
-68075.302
-65659.566
-70022.573
-72916.128
-68794.951
-76785.842
-57734.767
-64059.209
-61329.642
-66233.455
-68378.881
-65277.447
-72973.419
-54101.211
-59672.714
-57666.749
-62070.182
-64291.875
-62066.195
-69697.64
-49601.832
-55554.654
-53628.506
-57978.209
-60052.335
-58847.322
-65016.272
-45720.266
-51347.209
-49939.227
-54247.955
-56431.921
-54906.571
-61403.651
-42057.102
-47435.723
-46456.797
-51021.541
-51737.396
-51897.761
-57415.007
-38655.995
-43597.045
-43327.442
-46452.218
-47715.767
-48351.897
-53073.5
-35728.885
-40312.836
-39649.666
-42835.415
-43691.794
-45128.339
-48944.636
-32973.133
-36068.803
-36851.008
-38871.149
-40190.923
-41267.778
-44585.597
-30364.602
-33994.654
-33785.581
-36174.213
-35994.293
-37997.64
-40461.282
-27939.617
-31522.989
-30355.112
-32688.141
-33049.469
-34237.834
-37141.234
-25696.834
-28401.886
-27496.913
-29431.965
-29765.432
-30717.135
-33434.493
-23513.875
-25992.989
-25044.681
-26688.826
-26726.205
-27468.391
-29832.62
-21614.118
-23573.148
-22288.454
-23915.203
-23489.516
-24333.91
-26308.001
-19750.497
-21261.588
-19969.26
-21236.496
-20743.644
-21394.982
-22946.975
-17942.301
-19039.333
-17560.652
-18735.897
-18018.956
-18486.458
-19883.353
-16235.601
-16918.978
-15496.272
-16423.295
-15532.597
-16000.727
-17084.077
-14557.894
-14915.532
-13417.464
-14073.662
-13131.417
-13439.82
-14231.98
-12907.16
-12930.786
-11432.263
-11968.536
-10988.614
-11283.601
-11947.431
-11377.906
-11104.397
-9718.6522
-10008.326
-9234.0292
-9075.7558
-9857.7979
-9692.8469
-9416.3663
-7895.1282
-8405.9747
-7189.7446
-7454.3228
-7895.0186
-8414.5951
-7645.9568
-6320.1209
-6612.6011
-5654.9729
-5874.356
-6095.0457
-7052.3542
-6309.5199
-4984.5939
-5386.9931
-4332.3083
-4405.8107
-4605.5939
-5646.4165
-4433.9119
-3690.5941
-3763.2119
-3017.7107
-3235.3132
-3598.4338
-4390.8809
-3780.9113
-2925.5966
-3013.3857
-2270.124
-2414.5366
-2465.6959
-3194.6424
-2053.2331
-1529.1841
-1529.4984
-994.69093
-1333.6241
-1594.0724
-2298.215
-1747.8392
-1452.9407
-1486.5847
-972.58158
-1351.4007
-1152.8535
-1155.8959
-555.01454
-286.28871
-128.7242
128.71336
-209.39518
-81.622898
-613.51262
-526.7802
-200.29659
-455.53813
-237.25645
-512.98705
-213.04154
365.15622
953.29652
888.31744
880.6655
973.47676
725.33618
689.34968
-17944.549
8441.251
3140.1147
7901.6997
11566.702
18084.045
-2173.3487
-3587.641
-10977.532
-9757.3848
-18688.016
-6825.8748
-8395.8471
919.68823
-30469.425
7690.9464
-3889.0308
10820.424
5454.4233
13199.207
328.76053
-7889.1049
-5258.1248
-23923.728
-14484.089
-14590.515
-20132.035
7973.0848
-17256.1
-17759.041
-23930.148
-4593.7547
-21241.566
9879.6705
-8287.774
-14820.856
-6413.7163
-12235.955
-16286.688
-12706.269
-14602.248
-1874.2283
-16889.255
-20759.381
-30550.746
-15870.047
-22782.233
-10142.631
-10200.469
-17689.905
-14370.03
-13042.741
-16670.737
-13234.013
-15828.266
-6920.1103
-13996.128
-12619.19
-24923.549
-16152.762
-22672.847
-14989.93
-4887.8867
-9652.5684
-15237.04
-15909.855
-12319.893
-14310.966
-10216.481
-9226.2928
-10154.22
-12112.996
-17098.268
-13396.802
-16523.862
-13942.002
-8728.9295
-5309.9214
-11704.43
-11499.684
-11307.951
-12522.506
-12077.53
-7799.1153
-6605.8575
-8925.2961
-11403.295
-12054.48
-15263.526
-13150.656
-8519.4079
-2235.8341
-7289.4915
-11720.465
-12878.913
-7702.2656
-13239.087
-4523.5254
-2418.3237
-8760.8291
-4872.1489
-12987.764
-7712.7084
-14225.475
-8109.5123
1660.498
-6416.2515
-3967.7111
-12822.247
-5737.2683
-13502.656
-7327.9411
1319.7772
-4822.9787
-3837.8222
-12712.155
-5628.9211
-13573.9
-8518.6994
3348.8736