/*--------------------------------*- C++ -*----------------------------------*\
  =========                 |
  \\      /  F ield         | OpenFOAM: The Open Source CFD Toolbox
   \\    /   O peration     | Website:  https://openfoam.org
    \\  /    A nd           | Version:  6
     \\/     M anipulation  |
\*---------------------------------------------------------------------------*/
FoamFile
{
    version     2.0;
    format      ascii;
    class       pointVectorField;
    location    "1.94";
    object      u;
}
// * * * * * * * * * * * * * * * * * * * * * * * * * * * * * * * * * * * * * //

dimensions      [0 1 0 0 0 0 0];

internalField   nonuniform List<vector> 
3969
(
(0 0 0)
(0 0 0)
(0.35193237 0.040575941 -0.018019933)
(0.34585492 -0.06884209 -0.018769262)
(0 0 0)
(0 0 0)
(0.34668832 -0.066723409 -0.018815713)
(0.3527907 0.042505004 -0.018204109)
(0 0 0)
(0 0 0)
(0 0 0)
(0 0 0)
(0 0 0)
(0 0 0)
(0 0 0)
(0.35095772 0.026056259 -0.018563981)
(0.34985133 0.012483969 -0.018517034)
(0.34888245 -0.00084174596 -0.018568829)
(0.3480944 -0.014028274 -0.018420232)
(0.34744325 -0.027252926 -0.018382788)
(0.34685156 -0.040628074 -0.018297478)
(0.34647515 -0.054323903 -0.018448774)
(0.0003528683 0.0012004149 0.0014482374)
(0.00062448671 0.0021047726 0.0018298713)
(0.0013640624 0.0030582788 0.0018726088)
(0.0024942642 0.0040042918 0.0017609931)
(0.0039343165 0.004989016 0.0014630409)
(0.0056885167 0.0058874995 0.0011602283)
(0.0077049303 0.0068549801 0.00074036154)
(0.0099960242 0.0077084341 0.00033607859)
(0.012516412 0.0086508338 -0.00016135228)
(0.015294203 0.0094824831 -0.00062231665)
(0.018280083 0.010418115 -0.0011556144)
(0.021534125 0.011272235 -0.0016591547)
(0.02498064 0.012213402 -0.0022178613)
(0.028694845 0.013133122 -0.0027473004)
(0.03263734 0.014125231 -0.003302145)
(0.036836909 0.015103824 -0.0038467576)
(0.041289233 0.016173604 -0.0043843165)
(0.046023649 0.017243835 -0.0049138465)
(0.05103946 0.018387476 -0.005433799)
(0.056357952 0.0195522 -0.0059392131)
(0.061994824 0.02077062 -0.0064316077)
(0.067961243 0.022018404 -0.0069096817)
(0.074276299 0.023305123 -0.007372951)
(0.080950028 0.024605105 -0.0078178284)
(0.087995918 0.025923705 -0.0082549041)
(0.095421305 0.027263352 -0.0086699395)
(0.10323771 0.028599725 -0.0090755085)
(0.11146202 0.029920952 -0.009475)
(0.12009138 0.031236372 -0.0098607688)
(0.12912446 0.032509416 -0.010240708)
(0.13856974 0.033756232 -0.010616698)
(0.14842718 0.034948333 -0.010989162)
(0.15868532 0.036085639 -0.011362052)
(0.16934313 0.03715268 -0.011736732)
(0.1804003 0.038156042 -0.012118397)
(0.19182749 0.039034212 -0.012494022)
(0.20362682 0.039904771 -0.012902748)
(0.21577894 0.040524641 -0.013281504)
(0.22825079 0.041241143 -0.013734237)
(0.2410599 0.041587179 -0.014106218)
(0.25413 0.042074839 -0.014603574)
(0.26747612 0.042225176 -0.015001597)
(0.28107324 0.042286648 -0.015470686)
(0.29481446 0.042377734 -0.01597503)
(0.30880457 0.041966337 -0.016362157)
(0.32285299 0.041814728 -0.016885501)
(0.33692403 0.041381093 -0.017203688)
(0.0003943742 -0.0016710517 -0.0020546346)
(0.0011321924 -0.0028355415 -0.0022465522)
(0.0020097276 -0.0042297343 -0.002583307)
(0.0030052034 -0.0054484991 -0.0028867657)
(0.0044786944 -0.006828261 -0.0031149876)
(0.0061592433 -0.0081189357 -0.0033995908)
(0.0080905941 -0.0093824982 -0.0037409879)
(0.010312219 -0.010631355 -0.0041018684)
(0.012730722 -0.011831168 -0.0045483516)
(0.015399856 -0.013004163 -0.0050203165)
(0.018298054 -0.014173854 -0.0055421747)
(0.021411136 -0.01531599 -0.0061221009)
(0.024746634 -0.016447616 -0.006726468)
(0.02832117 -0.017595758 -0.0073551601)
(0.032125375 -0.018737624 -0.0080131955)
(0.036184565 -0.019910065 -0.0086826719)
(0.040495532 -0.021086344 -0.0093601684)
(0.045086415 -0.022313065 -0.010040936)
(0.049945146 -0.023551016 -0.010717135)
(0.055124457 -0.024848522 -0.011380555)
(0.060588631 -0.026177018 -0.012026876)
(0.066411633 -0.027556406 -0.012656388)
(0.072552373 -0.028986112 -0.013244193)
(0.079072882 -0.030473738 -0.013816441)
(0.085926411 -0.031989106 -0.014357877)
(0.093198398 -0.033576511 -0.014857474)
(0.10079349 -0.035170155 -0.015321274)
(0.10884095 -0.036858639 -0.015747076)
(0.11727205 -0.038548852 -0.016148573)
(0.12610332 -0.040287664 -0.016509432)
(0.13534793 -0.042049824 -0.016838619)
(0.14498864 -0.04384531 -0.017134084)
(0.15503644 -0.045646754 -0.017399799)
(0.16547633 -0.047473437 -0.017637935)
(0.17631123 -0.049285819 -0.017844469)
(0.18751695 -0.051107934 -0.018036468)
(0.19910592 -0.052902532 -0.018195621)
(0.21103155 -0.054668975 -0.01833472)
(0.22331725 -0.056420826 -0.018454968)
(0.23591243 -0.058095692 -0.018558565)
(0.24881322 -0.059740541 -0.018638861)
(0.26199382 -0.061308746 -0.018710453)
(0.27541324 -0.062777509 -0.018770634)
(0.28908183 -0.064191857 -0.018803788)
(0.30289861 -0.065473597 -0.01884301)
(0.31694492 -0.066648354 -0.018888503)
(0.33108912 -0.067820344 -0.018882672)
(0 0 0)
(0 0 0)
(0 0 0)
(0 0 0)
(0 0 0)
(0 0 0)
(0 0 0)
(0.00044065973 -0.00076168712 0.0013618649)
(0.00075687465 -0.0023063612 0.0017331627)
(0.0014806765 -0.0028211477 0.0015778752)
(0.0027631398 -0.0039557194 0.0014257039)
(0.0042189465 -0.0048580908 0.0010718814)
(0.0060332324 -0.0058012694 0.00065872128)
(0.0080847888 -0.006738976 0.00020705)
(0.010416692 -0.0076832006 -0.00028448179)
(0.012940421 -0.0085621763 -0.00081178312)
(0.015738377 -0.0095458265 -0.0013367136)
(0.018730242 -0.010448619 -0.0018919456)
(0.021939476 -0.011413196 -0.0024451739)
(0.025406729 -0.012385434 -0.0030423027)
(0.029093614 -0.013424898 -0.0036074546)
(0.032987785 -0.014454981 -0.0041959207)
(0.037160892 -0.015612887 -0.0047507567)
(0.041536239 -0.016729594 -0.0053245625)
(0.046221744 -0.018013999 -0.0058535796)
(0.051133552 -0.019250016 -0.0063994349)
(0.056375931 -0.020656714 -0.0068990997)
(0.061885059 -0.02203183 -0.0074056834)
(0.067737349 -0.02355508 -0.007870176)
(0.073902098 -0.025067086 -0.0083373329)
(0.080417803 -0.026693898 -0.0087657969)
(0.087294773 -0.028341836 -0.0092009864)
(0.09456899 -0.030061581 -0.0096245184)
(0.10219009 -0.03184032 -0.010017523)
(0.1101973 -0.033647677 -0.010397769)
(0.11859635 -0.035492207 -0.010762888)
(0.12740078 -0.037367311 -0.011124281)
(0.13660154 -0.039255296 -0.011484173)
(0.14620806 -0.041164772 -0.011837376)
(0.15621194 -0.043078309 -0.012192384)
(0.16661529 -0.044988602 -0.012550091)
(0.17740398 -0.046893351 -0.012913175)
(0.18858778 -0.048781146 -0.013279059)
(0.20012178 -0.05061435 -0.013672001)
(0.21203114 -0.052475857 -0.014047333)
(0.22427079 -0.054236849 -0.014455543)
(0.23685095 -0.055968803 -0.014868876)
(0.24971906 -0.057629115 -0.015303589)
(0.2628918 -0.059220183 -0.015745339)
(0.27629151 -0.060713134 -0.016207328)
(0.28994928 -0.062127968 -0.016676785)
(0.30376745 -0.063415028 -0.017165051)
(0.31780412 -0.064603627 -0.017639785)
(0.33189289 -0.065799846 -0.018168893)
(0.34741707 -0.052231541 -0.018962486)
(0.34773327 -0.038617565 -0.018922347)
(0.34831663 -0.025205648 -0.018715387)
(0.34899393 -0.012080628 -0.018526158)
(0.34970288 0.0011429183 -0.018192253)
(0.35065122 0.014421038 -0.018069688)
(0.35187512 0.027971421 -0.017911079)
(0.33796924 0.043326437 -0.018450632)
(0.32364942 0.043645503 -0.018346947)
(0.30959914 0.044003993 -0.018331649)
(0.29565357 0.044223951 -0.018244475)
(0.28186416 0.044301774 -0.018200949)
(0.26828317 0.044241587 -0.018132941)
(0.2549387 0.044049766 -0.01804516)
(0.24185092 0.043728982 -0.017944688)
(0.22905483 0.043292201 -0.017827787)
(0.21657062 0.042751952 -0.017689737)
(0.20440395 0.042100466 -0.017528668)
(0.19265623 0.041323357 -0.017330555)
(0.18119002 0.040532472 -0.017135164)
(0.17014596 0.039613792 -0.016900755)
(0.15948426 0.038653507 -0.016646548)
(0.14922818 0.037622702 -0.016358412)
(0.13937148 0.036556021 -0.01604361)
(0.12993174 0.035438484 -0.015696718)
(0.12089806 0.034302693 -0.015319023)
(0.11228101 0.033131209 -0.014903866)
(0.10406811 0.031960699 -0.014462469)
(0.096256917 0.030769159 -0.013980875)
(0.088847259 0.029588107 -0.013469421)
(0.081816087 0.028400291 -0.012923687)
(0.075163533 0.027235965 -0.012354779)
(0.068872483 0.026068263 -0.011749496)
(0.062926713 0.024935879 -0.011134082)
(0.057318815 0.023799717 -0.010483565)
(0.052023928 0.022701236 -0.009835528)
(0.047037951 0.021600621 -0.0091650339)
(0.042330668 0.020530888 -0.0085045903)
(0.037905717 0.019458676 -0.0078398188)
(0.033722103 0.018410651 -0.0071956903)
(0.029822146 0.01733133 -0.0065522198)
(0.026146112 0.016280015 -0.0059542159)
(0.022694072 0.015203206 -0.0053721575)
(0.019465047 0.014114443 -0.0048439478)
(0.016474133 0.012999677 -0.0043593133)
(0.013678895 0.011863258 -0.0039211228)
(0.011162491 0.010675793 -0.0035317862)
(0.0088707789 0.0094458549 -0.0031825745)
(0.0067790844 0.0082151555 -0.0029394031)
(0.0050483499 0.0068669189 -0.0026610971)
(0.0035109343 0.0055849097 -0.0024929584)
(0.0023483907 0.0042157542 -0.002239728)
(0.0015008451 0.0028343355 -0.0019218353)
(0.0014303288 0.0016641681 -0.0012224944)
(0 0 0)
(0 0 0)
(0 0 0)
(0 0 0)
(0 0 0)
(0 0 0)
(0 0 0)
(0 0 0)
(0 0 0)
(0 0 0)
(0 0 0)
(0 0 0)
(0 0 0)
(0 0 0)
(0.3460322 -0.068827111 -0.018844393)
(0.34620395 -0.068663124 -0.018846969)
(0.34632905 -0.068427502 -0.018830427)
(0.34645223 -0.068202359 -0.018789107)
(0.34656173 -0.0679422 -0.018748635)
(0.34663619 -0.067621162 -0.018708565)
(0.34672501 -0.067344504 -0.018782052)
(0.35225914 0.041134436 -0.018022966)
(0.35240189 0.041376862 -0.017999234)
(0.35252349 0.041651645 -0.018075784)
(0.35264954 0.041909745 -0.018124477)
(0.35275153 0.042154938 -0.018183172)
(0.35282724 0.042344284 -0.018227997)
(0.35295823 0.042623591 -0.018212951)
(-3.6193278e-05 0.00091469253 0.001194431)
(0.00026872913 0.0014772227 0.0012136496)
(0.00099583881 0.0021310554 0.0012441473)
(0.002082051 0.0027664067 0.0010981682)
(0.0035371159 0.0034512392 0.00083319617)
(0.0052688191 0.004078296 0.00054033333)
(0.0072988775 0.0047719657 0.00013863895)
(0.0095823894 0.0053917075 -0.00026503464)
(0.01209998 0.0060658164 -0.00072455457)
(0.014881288 0.0066912441 -0.001202587)
(0.017857353 0.0073673645 -0.0017151028)
(0.021090241 0.0080131715 -0.0022342849)
(0.024523498 0.0087148957 -0.0027816369)
(0.028213391 0.0094037247 -0.0033166281)
(0.032128114 0.010136547 -0.0038818758)
(0.036306101 0.010884508 -0.0044250273)
(0.040728188 0.011677947 -0.0049805385)
(0.045434866 0.012482522 -0.0055225226)
(0.050414044 0.013332978 -0.0060565841)
(0.055706528 0.014200975 -0.0065809944)
(0.061305088 0.015103247 -0.0070884108)
(0.067239437 0.016024072 -0.007583453)
(0.073517404 0.016964304 -0.0080579757)
(0.080148049 0.017909534 -0.0085182239)
(0.087167123 0.018879275 -0.0089623677)
(0.094567075 0.019825157 -0.0093985324)
(0.10235481 0.02077407 -0.0098151392)
(0.11054734 0.021714978 -0.010215739)
(0.11915183 0.022618234 -0.010610339)
(0.12815692 0.023499457 -0.010991375)
(0.13758115 0.024342474 -0.01136639)
(0.14741645 0.025133069 -0.011734562)
(0.1576529 0.025872776 -0.012099682)
(0.16830027 0.026555821 -0.012463516)
(0.17933983 0.027155095 -0.012825298)
(0.19074698 0.027695425 -0.01319267)
(0.20255482 0.028153904 -0.013570894)
(0.2146842 0.028496387 -0.013928446)
(0.22717958 0.028799539 -0.014328285)
(0.23998359 0.028929261 -0.01469301)
(0.25305614 0.02906722 -0.015120865)
(0.26643984 0.028923085 -0.015470547)
(0.28003542 0.028890416 -0.015958076)
(0.29382565 0.028566516 -0.016313444)
(0.30785802 0.028138173 -0.016765913)
(0.32187482 0.02778069 -0.017229754)
(0.33618476 0.026868092 -0.017723472)
(-0.00036129909 0.0005061984 0.00071477854)
(-2.671316e-05 0.00078694161 0.00067503045)
(0.00074190124 0.0011913065 0.00064474699)
(0.0018664085 0.0016062784 0.00045148083)
(0.0032845927 0.0019602599 0.00020242015)
(0.0050495954 0.0023343954 -0.00010261359)
(0.0070497502 0.0027282371 -0.00049750419)
(0.0093257398 0.0030810972 -0.00086390407)
(0.011837384 0.0034925142 -0.0013482396)
(0.014589685 0.0038505582 -0.0017955246)
(0.017559466 0.0042791938 -0.0023184669)
(0.020771643 0.0046448423 -0.0028228996)
(0.024192444 0.0050993016 -0.0033814487)
(0.02787747 0.0055092137 -0.0039251139)
(0.031772502 0.0059885101 -0.0044929722)
(0.035923771 0.0064505138 -0.0050509072)
(0.040323435 0.0069695641 -0.0056243433)
(0.044993394 0.0074804366 -0.006171787)
(0.049952976 0.0080353309 -0.0067281962)
(0.05521079 0.0085919552 -0.0072635885)
(0.060791045 0.0091745463 -0.0077903819)
(0.066699121 0.0097617833 -0.0083032341)
(0.072948862 0.010359699 -0.0087968664)
(0.079570626 0.010972898 -0.0092779389)
(0.086561431 0.011568441 -0.0097445491)
(0.093919539 0.012171725 -0.01017307)
(0.10168348 0.012751119 -0.010593423)
(0.10985519 0.013311966 -0.011011708)
(0.11841564 0.01385561 -0.011391658)
(0.1274033 0.014358621 -0.011773832)
(0.1367992 0.014832259 -0.012141183)
(0.14660746 0.015251377 -0.012492845)
(0.15682502 0.015634773 -0.012846997)
(0.16745286 0.015951634 -0.013186538)
(0.17846176 0.016216893 -0.013526822)
(0.1898757 0.016414823 -0.01386461)
(0.2016554 0.016559271 -0.014202094)
(0.21376825 0.01656771 -0.014523236)
(0.22627629 0.016638472 -0.014906268)
(0.23902636 0.016436013 -0.015201474)
(0.25217026 0.016362084 -0.015601486)
(0.26550277 0.016019101 -0.015921188)
(0.27915514 0.015753859 -0.016321613)
(0.29293705 0.015244494 -0.016645708)
(0.3069824 0.014727942 -0.017063821)
(0.32110809 0.014059127 -0.017482771)
(0.33554336 0.013220549 -0.017963333)
(-0.00053234249 0.00014843862 0.00028069628)
(-0.00021250079 0.0001949759 0.0001945511)
(0.0005782207 0.00031578158 8.6758144e-05)
(0.001652504 0.0004286827 -0.00011468943)
(0.0031381089 0.00050292464 -0.00035680155)
(0.0048591178 0.00062107572 -0.00068221519)
(0.0068791656 0.00072950266 -0.0010294442)
(0.0091566919 0.00082520044 -0.0014481131)
(0.011664746 0.00094566646 -0.0018887153)
(0.014424703 0.0010676591 -0.0023585136)
(0.01738467 0.0011943373 -0.0028700472)
(0.020576429 0.0013326782 -0.0033879928)
(0.023991706 0.0015092903 -0.003954239)
(0.027633832 0.0016612907 -0.0044930929)
(0.031498875 0.0018638242 -0.0050701019)
(0.035631137 0.0020648207 -0.0056439025)
(0.040002105 0.0022952551 -0.0062216998)
(0.044660525 0.0025265683 -0.0067961139)
(0.049590388 0.0027826468 -0.0073654646)
(0.054827242 0.0030401223 -0.0079194254)
(0.060362789 0.0033115915 -0.0084585104)
(0.066230344 0.0035809052 -0.0089796397)
(0.072457909 0.0038664554 -0.0094834861)
(0.079031616 0.0041175509 -0.0099719714)
(0.085974572 0.0043804246 -0.010421528)
(0.093309468 0.004616981 -0.010874812)
(0.10105688 0.0048432893 -0.011315591)
(0.10919299 0.0050419097 -0.011716727)
(0.11774467 0.0052175716 -0.01211561)
(0.12671286 0.0053539985 -0.012499874)
(0.13608513 0.0054600671 -0.012859358)
(0.14588075 0.0055215821 -0.013215298)
(0.15608258 0.005540197 -0.01355725)
(0.166688 0.0055127227 -0.013888354)
(0.17769669 0.0054255118 -0.014213866)
(0.18909166 0.0053107466 -0.014540815)
(0.20084868 0.0050827661 -0.014843611)
(0.21299866 0.0048947872 -0.015182569)
(0.22547006 0.0045554801 -0.015484012)
(0.2382683 0.0041844012 -0.015776473)
(0.25137141 0.0038426848 -0.016146455)
(0.26472924 0.0032412352 -0.016370516)
(0.27837381 0.0028202821 -0.016782692)
(0.2921964 0.0021068641 -0.017015231)
(0.30632534 0.0014624478 -0.017433158)
(0.32048277 0.00073126826 -0.017751279)
(0.33485006 -0.00012415349 -0.018119441)
(-0.00057287505 -0.00016337286 -0.00018632672)
(-0.00022487556 -0.00033239247 -0.00036273271)
(0.000554145 -0.00049005895 -0.0005229258)
(0.0017033255 -0.00068221842 -0.0007318909)
(0.0031427401 -0.00087056967 -0.00098996188)
(0.0048999497 -0.001064017 -0.0012826073)
(0.0068968113 -0.0012296381 -0.0016659441)
(0.0091656642 -0.0014319889 -0.0020205717)
(0.011653296 -0.0015612041 -0.0024720953)
(0.014374186 -0.001746198 -0.0029186937)
(0.017312114 -0.0018637069 -0.0034257544)
(0.020496702 -0.0020062341 -0.0039517669)
(0.023890868 -0.0021027608 -0.0045143231)
(0.027513048 -0.0022282561 -0.0050662452)
(0.031383107 -0.0022895862 -0.0056713527)
(0.035489584 -0.0023813619 -0.0062525948)
(0.039853361 -0.0024275657 -0.0068580874)
(0.044483496 -0.0024992055 -0.0074437055)
(0.049399549 -0.0025430599 -0.0080322215)
(0.054610234 -0.0026043942 -0.0086048423)
(0.060147687 -0.0026587094 -0.0091676863)
(0.066027576 -0.0027166045 -0.0097221042)
(0.072228513 -0.0028024839 -0.010250646)
(0.078795594 -0.0028800728 -0.010754205)
(0.085743133 -0.0029737677 -0.01125568)
(0.093076749 -0.0030834484 -0.011730608)
(0.10079109 -0.0032172579 -0.012159871)
(0.10890618 -0.0033847585 -0.012577274)
(0.11743191 -0.0035702152 -0.012980614)
(0.12636755 -0.0038017172 -0.013344157)
(0.13571589 -0.0040533146 -0.013706623)
(0.14548329 -0.0043552299 -0.014040141)
(0.15565206 -0.0046883462 -0.014365428)
(0.16623657 -0.0050644097 -0.014671453)
(0.17720911 -0.0054700076 -0.014975989)
(0.18857338 -0.0059484088 -0.015249771)
(0.20031702 -0.0064115612 -0.015543759)
(0.21240904 -0.0069712156 -0.015805747)
(0.22484708 -0.0075648873 -0.016055244)
(0.23759263 -0.0081416105 -0.016353567)
(0.25069589 -0.0088246718 -0.01658513)
(0.26401875 -0.0095202912 -0.016849198)
(0.27767416 -0.010165325 -0.017146602)
(0.29149591 -0.011000951 -0.017342468)
(0.30556674 -0.011670622 -0.017666068)
(0.31971144 -0.012506411 -0.017850665)
(0.33410504 -0.013300696 -0.018167564)
(-0.00051857455 -0.00051531377 -0.00064658477)
(-0.00012835454 -0.00087186667 -0.00086684268)
(0.0006982272 -0.0013562006 -0.0010592827)
(0.0017759996 -0.001831627 -0.0012623187)
(0.0032642913 -0.0023188124 -0.0015182771)
(0.0049727258 -0.0027928849 -0.0018174187)
(0.0069920476 -0.0032574774 -0.0021576505)
(0.009223249 -0.0037035208 -0.002543344)
(0.011709751 -0.0041442461 -0.0029821764)
(0.014428592 -0.004570285 -0.0034549656)
(0.017370915 -0.0049634892 -0.0039758308)
(0.020526459 -0.0053592192 -0.0045171346)
(0.023897447 -0.0057360026 -0.0050696066)
(0.027515606 -0.0061042581 -0.0056636202)
(0.031348165 -0.0064602656 -0.0062567194)
(0.035440572 -0.0068205335 -0.0068595021)
(0.039777508 -0.0071618465 -0.0074741442)
(0.044394733 -0.0075220176 -0.0080788696)
(0.049284037 -0.0078629398 -0.0086887094)
(0.054481856 -0.008227433 -0.0092763625)
(0.059989535 -0.0085798666 -0.0098614049)
(0.065811039 -0.0089621894 -0.010412399)
(0.071998336 -0.0093467488 -0.010941452)
(0.078532633 -0.009767062 -0.011466444)
(0.085454009 -0.010205052 -0.011952005)
(0.092738635 -0.010667728 -0.01240916)
(0.10043477 -0.011167811 -0.012843728)
(0.10852763 -0.011686043 -0.013273264)
(0.11703157 -0.012238527 -0.013660304)
(0.12594293 -0.012820934 -0.014038815)
(0.1352711 -0.013435562 -0.014390033)
(0.14501044 -0.014086708 -0.014721566)
(0.15516369 -0.014774779 -0.015033487)
(0.16571599 -0.015477023 -0.015338423)
(0.17667022 -0.016248402 -0.015607384)
(0.18801578 -0.017002124 -0.015891373)
(0.19971839 -0.017817679 -0.01614443)
(0.21182024 -0.018665549 -0.016380651)
(0.22421029 -0.019493547 -0.016655978)
(0.23701311 -0.020352646 -0.016865852)
(0.25004393 -0.021250498 -0.01709688)
(0.26339975 -0.022102368 -0.017320393)
(0.27700035 -0.023013644 -0.017531894)
(0.29081431 -0.023918064 -0.01770911)
(0.30487437 -0.024745955 -0.017951569)
(0.31909247 -0.025643607 -0.018100769)
(0.33343655 -0.026443608 -0.018293433)
(-0.00037320289 -0.00083211083 -0.0011203859)
(0.00015831153 -0.0014359491 -0.0013604039)
(0.000976781 -0.0022302232 -0.0015988505)
(0.002105454 -0.0029888667 -0.0018426324)
(0.0035559312 -0.0037536233 -0.0020962627)
(0.0052770202 -0.0045138675 -0.0023836656)
(0.0072541852 -0.0052360326 -0.0027308763)
(0.0094952151 -0.0059743022 -0.0031067367)
(0.011961489 -0.0066541768 -0.0035471791)
(0.014668331 -0.007353475 -0.0040026209)
(0.017582486 -0.0080018085 -0.0045231374)
(0.020730788 -0.0086808496 -0.0050558734)
(0.024095063 -0.0093085331 -0.0056443134)
(0.027694156 -0.0099613532 -0.0062350724)
(0.031521496 -0.010583828 -0.0068496755)
(0.035597301 -0.0112274 -0.0074774293)
(0.039928746 -0.01185558 -0.0081120564)
(0.044529039 -0.012503691 -0.0087450432)
(0.049413566 -0.013154775 -0.0093715421)
(0.054596825 -0.013824923 -0.0099894296)
(0.060086091 -0.014524646 -0.010591463)
(0.065931341 -0.015198031 -0.011165699)
(0.072078224 -0.015951005 -0.011735963)
(0.078622593 -0.016747387 -0.012267746)
(0.085508479 -0.017533539 -0.012772374)
(0.092795242 -0.018378952 -0.013260507)
(0.10047519 -0.019226799 -0.013720016)
(0.10854469 -0.020121481 -0.014142192)
(0.11701918 -0.021037334 -0.014544186)
(0.1259099 -0.021997299 -0.014913371)
(0.13520692 -0.022985215 -0.015257238)
(0.14491849 -0.024006242 -0.01557442)
(0.15503413 -0.025047485 -0.015873026)
(0.16555781 -0.026132308 -0.01614179)
(0.17647387 -0.027209907 -0.0164043)
(0.18777202 -0.028334078 -0.016636972)
(0.19945852 -0.029454172 -0.016856929)
(0.21147831 -0.030573017 -0.017074187)
(0.22387987 -0.0317308 -0.017254379)
(0.23657362 -0.032859176 -0.017448069)
(0.24957246 -0.033957507 -0.017618536)
(0.26288624 -0.035032748 -0.017794006)
(0.27640897 -0.036146819 -0.017921095)
(0.29021509 -0.037123242 -0.018092072)
(0.30417921 -0.038110149 -0.018207587)
(0.31835181 -0.03903016 -0.018282546)
(0.33265148 -0.039792669 -0.018346843)
(-8.0413961e-05 -0.0012550843 -0.0014698497)
(0.00052336293 -0.0020124855 -0.0017989747)
(0.0013786317 -0.0031710977 -0.0020999558)
(0.0024565777 -0.0041652925 -0.0023385935)
(0.0039272367 -0.0052250188 -0.0025926715)
(0.0056024064 -0.0062502645 -0.0028854615)
(0.0075952423 -0.007271124 -0.0032168975)
(0.0098022154 -0.0082586444 -0.0036049797)
(0.01226109 -0.0092248883 -0.0040292418)
(0.014941216 -0.010176285 -0.0045063824)
(0.017845597 -0.011093399 -0.0050263104)
(0.020978646 -0.012021022 -0.005580927)
(0.024321033 -0.012920257 -0.006172526)
(0.027911916 -0.013825656 -0.0067760584)
(0.031715753 -0.014722141 -0.0074169694)
(0.035786515 -0.015630358 -0.0080571941)
(0.040096101 -0.016542514 -0.0087151887)
(0.044690769 -0.017476076 -0.0093617387)
(0.049556522 -0.018428655 -0.010014609)
(0.054726952 -0.019404927 -0.01064873)
(0.060213622 -0.020408013 -0.011272011)
(0.066008574 -0.021445904 -0.011871185)
(0.072182975 -0.02251213 -0.012448976)
(0.078691745 -0.023634936 -0.012991345)
(0.0855703 -0.024778474 -0.01352475)
(0.092834431 -0.025962252 -0.014020208)
(0.1004836 -0.027190711 -0.014464274)
(0.10853011 -0.028440374 -0.014900611)
(0.11699066 -0.029733522 -0.01529652)
(0.12585383 -0.031060775 -0.015661525)
(0.13512438 -0.032417336 -0.015999701)
(0.14480696 -0.033798844 -0.016308439)
(0.15489102 -0.03521233 -0.016588624)
(0.1653794 -0.036627165 -0.016850947)
(0.17625618 -0.038074116 -0.017081308)
(0.18752418 -0.039513239 -0.017297537)
(0.19915166 -0.040951013 -0.017500329)
(0.21116441 -0.042395512 -0.017663438)
(0.22349079 -0.043807118 -0.017843244)
(0.23615944 -0.045210569 -0.017984673)
(0.24912055 -0.046557319 -0.018124302)
(0.26238194 -0.047889661 -0.018235018)
(0.27586629 -0.049162324 -0.01834186)
(0.28961697 -0.050329998 -0.018460027)
(0.303504 -0.051507901 -0.018495964)
(0.31762904 -0.052502646 -0.018595848)
(0.33182672 -0.053379376 -0.018581786)
(0 0 0)
(0 0 0)
(0 0 0)
(0 0 0)
(0 0 0)
(0 0 0)
(0 0 0)
(0 0 0)
(0 0 0)
(0 0 0)
(0 0 0)
(0 0 0)
(0 0 0)
(0 0 0)
(0 0 0)
(0 0 0)
(0 0 0)
(0 0 0)
(0 0 0)
(0 0 0)
(0 0 0)
(0 0 0)
(0 0 0)
(0 0 0)
(0 0 0)
(0 0 0)
(0 0 0)
(0 0 0)
(0 0 0)
(0 0 0)
(0 0 0)
(0 0 0)
(0 0 0)
(0 0 0)
(0 0 0)
(0 0 0)
(0 0 0)
(0 0 0)
(0 0 0)
(0 0 0)
(0 0 0)
(0 0 0)
(0 0 0)
(0 0 0)
(0 0 0)
(0 0 0)
(0 0 0)
(0 0 0)
(0 0 0)
(0.00091585558 -0.00057153336 -0.0010060686)
(0.0010085074 -0.0006503625 -0.00061180185)
(0.0011002329 -0.00065488689 -0.00028850918)
(0.0011099059 -0.00066972936 -1.516146e-05)
(0.0010282635 -0.00058678646 0.00024842616)
(0.00091851817 -0.00056582826 0.00050366433)
(0.00069580135 -0.00038595651 0.00078871575)
(0.0016242796 -0.0026032836 -0.0017702834)
(0.0019023372 -0.0026264366 -0.0010385982)
(0.0019700381 -0.0023831996 -0.00050215788)
(0.0019122475 -0.0022400588 -0.00011935017)
(0.0018681055 -0.0022371774 0.00025226242)
(0.0016097798 -0.002125588 0.00066868566)
(0.0013562721 -0.0020367172 0.0012078674)
(0.0023199946 -0.0038091503 -0.0019095365)
(0.0025943332 -0.0035763973 -0.0013521924)
(0.0027538254 -0.0034600348 -0.00081408652)
(0.0027583534 -0.003330756 -0.00025403595)
(0.0026452936 -0.0031943279 0.00021712732)
(0.0024011818 -0.0030961154 0.0006494587)
(0.002090631 -0.0030137687 0.0012020332)
(0.0034788169 -0.0051963226 -0.0022735385)
(0.0038311304 -0.0050349156 -0.0017035718)
(0.0039490099 -0.0048036419 -0.0010700561)
(0.0039934081 -0.0046360114 -0.00056371378)
(0.0038597073 -0.0044671601 -5.7719616e-05)
(0.0036706692 -0.0042900192 0.00046149634)
(0.003249449 -0.0041311858 0.00094517201)
(0.0049314818 -0.0065715069 -0.0024910122)
(0.0051953223 -0.0062767821 -0.0019278848)
(0.0053811613 -0.0060489713 -0.0013878038)
(0.0054113284 -0.0058146932 -0.00084128156)
(0.0053239959 -0.0056167434 -0.00031352113)
(0.0050981848 -0.0054113544 0.00015475471)
(0.0047652744 -0.0051918175 0.00066576449)
(0.0065857158 -0.0077844013 -0.0028201534)
(0.0068954591 -0.0075155617 -0.0022683703)
(0.0070478401 -0.0072075359 -0.001704723)
(0.0071160282 -0.0069531671 -0.0012050959)
(0.0070112546 -0.0067036186 -0.00069188285)
(0.0068226596 -0.0063861104 -0.00019513762)
(0.0064662952 -0.0061545566 0.00024867093)
(0.0085540697 -0.0090357282 -0.0031682065)
(0.0088517485 -0.0087293917 -0.0026320669)
(0.0090548567 -0.0084187974 -0.0021167055)
(0.0090995606 -0.0081276439 -0.0016093311)
(0.0090404831 -0.0078282368 -0.0011106629)
(0.0088599066 -0.007546695 -0.0006689079)
(0.0085487584 -0.0071902915 -0.00018530795)
(0.010749539 -0.010229775 -0.0035601746)
(0.011051136 -0.0098697177 -0.0030470124)
(0.011234592 -0.009486582 -0.002523378)
(0.01131752 -0.0091650432 -0.0020508806)
(0.01126114 -0.0088447202 -0.0015696587)
(0.011098832 -0.0084712809 -0.0011021978)
(0.01079414 -0.0081171197 -0.00067903176)
(0.013180034 -0.011378152 -0.0040152187)
(0.013497834 -0.010997926 -0.0035102945)
(0.013721745 -0.010655465 -0.0030234104)
(0.013795291 -0.010260133 -0.0025383868)
(0.013763139 -0.0098858587 -0.0020756378)
(0.013614038 -0.0094920688 -0.0016387778)
(0.013348168 -0.0090888963 -0.001191931)
(0.015868588 -0.01253924 -0.0045032088)
(0.016187241 -0.012108219 -0.0040163243)
(0.01639964 -0.011674977 -0.0035257178)
(0.016507088 -0.011294069 -0.0030543918)
(0.01647443 -0.010902535 -0.0026024482)
(0.016346605 -0.010475754 -0.0021520965)
(0.016079977 -0.010042466 -0.0017314653)
(0.018753687 -0.01364198 -0.00503722)
(0.019089802 -0.013203336 -0.0045671482)
(0.01932931 -0.012769435 -0.0040846592)
(0.019436359 -0.012343026 -0.0036232693)
(0.019435064 -0.011910691 -0.0031609355)
(0.019313753 -0.011451212 -0.0027392633)
(0.019096742 -0.011010607 -0.0022797349)
(0.021896794 -0.014762763 -0.0056254583)
(0.022259678 -0.014307468 -0.0051410413)
(0.022498956 -0.013837794 -0.0046577555)
(0.022629937 -0.013388917 -0.0041945702)
(0.022631888 -0.01293854 -0.0037369246)
(0.022520191 -0.012464783 -0.00330957)
(0.022304567 -0.011967843 -0.0028419848)
(0.025249426 -0.015864349 -0.0062322592)
(0.025614262 -0.015376297 -0.0057414641)
(0.025875074 -0.014891563 -0.0052804809)
(0.026011275 -0.014418044 -0.0048053616)
(0.026035034 -0.013949721 -0.0043407318)
(0.02593069 -0.013452195 -0.0039108936)
(0.025740063 -0.012962203 -0.0034520282)
(0.028848976 -0.017000257 -0.0068631866)
(0.029233962 -0.016504021 -0.0063728346)
(0.029518255 -0.016000701 -0.0059001992)
(0.029672568 -0.015528315 -0.00541898)
(0.029708235 -0.015034016 -0.0049490567)
(0.029620143 -0.014534734 -0.0045156695)
(0.029432947 -0.013995968 -0.0040288607)
(0.032673319 -0.018120373 -0.00752167)
(0.033073272 -0.017602933 -0.0070163652)
(0.033372861 -0.017088932 -0.0065514204)
(0.033530813 -0.01658409 -0.006048915)
(0.033582116 -0.016082398 -0.0055822199)
(0.033495909 -0.015555609 -0.0051225416)
(0.033320523 -0.015034242 -0.004634465)
(0.036760974 -0.019286108 -0.0081811444)
(0.037188089 -0.018780358 -0.0076734171)
(0.0374997 -0.018248568 -0.0071898483)
(0.037687578 -0.017764481 -0.0066865959)
(0.037741584 -0.017243057 -0.0061896777)
(0.037674372 -0.016733496 -0.0057287752)
(0.037493688 -0.016171277 -0.0052084081)
(0.041097431 -0.020463489 -0.0088560747)
(0.041528897 -0.019935017 -0.0083306803)
(0.041872352 -0.019411222 -0.0078444764)
(0.042048081 -0.01889162 -0.0073135355)
(0.04212414 -0.018376539 -0.0068186631)
(0.042047132 -0.017834406 -0.0063313054)
(0.041876749 -0.017302923 -0.0057984319)
(0.045708281 -0.021687892 -0.0095207251)
(0.046177634 -0.021185411 -0.0089917578)
(0.046524524 -0.02064703 -0.0084802711)
(0.046733069 -0.020158984 -0.0079425253)
(0.04680561 -0.019626408 -0.007418795)
(0.046743892 -0.019118043 -0.0069180886)
(0.04656597 -0.018551957 -0.0063538393)
(0.050606619 -0.022946833 -0.010190137)
(0.051074108 -0.022424563 -0.0096349414)
(0.051453187 -0.02190415 -0.0091172784)
(0.051647389 -0.021386315 -0.008553399)
(0.051740765 -0.020873149 -0.0080202197)
(0.051664567 -0.020332427 -0.00749553)
(0.051494462 -0.019803137 -0.0069163149)
(0.055793811 -0.024252219 -0.010832821)
(0.056301264 -0.023761646 -0.010270181)
(0.05667736 -0.023233405 -0.0097298775)
(0.056902189 -0.022753526 -0.0091522775)
(0.056988289 -0.022222701 -0.0085940189)
(0.056926057 -0.021726128 -0.0080531407)
(0.056743137 -0.021169035 -0.0074435488)
(0.061305071 -0.02560894 -0.011471185)
(0.061806367 -0.025104597 -0.01088434)
(0.062214282 -0.024606206 -0.010330627)
(0.062424989 -0.024099132 -0.0097321001)
(0.062532062 -0.023601893 -0.0091592121)
(0.062450689 -0.023074417 -0.0085944416)
(0.062271579 -0.022552469 -0.0079664917)
(0.067128345 -0.027008556 -0.012075219)
(0.067664894 -0.02654484 -0.011477082)
(0.068068317 -0.026039098 -0.010901141)
(0.068305465 -0.025572787 -0.010290695)
(0.068399135 -0.02505451 -0.0096899935)
(0.068326014 -0.024571127 -0.0091094808)
(0.068134946 -0.024036512 -0.0084559895)
(0.073308478 -0.028479461 -0.012655905)
(0.07383542 -0.027998751 -0.012039599)
(0.07426797 -0.027525489 -0.011455166)
(0.074486655 -0.02703803 -0.010824526)
(0.074597696 -0.026566603 -0.010208206)
(0.074511655 -0.026068379 -0.0096147094)
(0.074317641 -0.025556729 -0.0089366754)
(0.079821081 -0.029967882 -0.013200745)
(0.080383128 -0.029542686 -0.012581831)