/*--------------------------------*- C++ -*----------------------------------*\
  =========                 |
  \\      /  F ield         | OpenFOAM: The Open Source CFD Toolbox
   \\    /   O peration     | Website:  https://openfoam.org
    \\  /    A nd           | Version:  6
     \\/     M anipulation  |
\*---------------------------------------------------------------------------*/
FoamFile
{
    version     2.0;
    format      ascii;
    class       pointScalarField;
    location    "0.99";
    object      E;
}
// * * * * * * * * * * * * * * * * * * * * * * * * * * * * * * * * * * * * * //

dimensions      [1 -1 -2 0 0 0 0];

internalField   nonuniform List<scalar> 
28033
(
8197.0045
8310.6862
30578.652
29953.01
9834.5625
12078.646
30676.444
30996.719
4905.0977
3055.2902
2040.9397
1529.9872
725.55946
543.72352
309.65111
360.48465
480.20742
929.9483
1237.9398
2310.0094
3344.9025
4601.3847
6630.8137
31848.437
31091.998
30905.055
30526.89
30052.106
30053.752
29304.641
29618.415
29528.171
29317.142
29798.658
29705.22
29998.069
30449.945
31068.974
7128.0809
3957.9969
3852.3677
3603.2997
3760.3492
3689.9313
3777.3481
3485.3284
3678.8784
3422.0679
3503.381
3367.4803
3257.894
3136.1793
2881.8343
2672.2269
2289.8432
2338.8075
1966.7555
1952.0715
1771.3867
1762.2586
1616.9181
1751.7356
1430.6947
1597.5274
1275.2024
1357.2007
937.11164
957.44286
812.95195
542.60297
254.68689
208.96109
29.03394
172.24003
-228.67049
-150.89492
-326.92609
-532.40814
-734.13372
-853.1609
-1039.4226
-1095.7581
-1131.713
-1015.5859
-947.60107
-668.57735
-518.54578
-198.15823
-20.421547
248.17201
414.95534
611.56335
777.64289
968.05376
1172.8479
1426.302
1714.1898
2054.7804
2426.7729
2853.1721
3265.8575
3766.6826
4280.2852
4771.6522
5305.1666
5884.6451
6520.8334
7335.4783
7959.8661
8780.1517
9518.9081
10369.223
11206.822
12044.207
12914.282
13822.015
14684.936
15586.272
16583.317
17505.268
18566.801
19408.189
20541.645
21524.498
22601.325
23672.711
24789.803
25726.629
27013.799
27651.807
29174.557
29651.101
30678.46
11898.697
1949.9581
7819.4195
4008.9385
5829.3502
5572.4216
4965.2168
5143.7946
5201.4734
4844.301
5208.9461
4883.7164
5278.1298
4931.7462
5038.5382
4793.6955
4738.829
4447.0672
4217.7637
4168.3094
3644.4272
3809.4273
3392.9487
4013.6048
3533.3444
4078.7405
3520.0976
3788.0084
3184.1901
3275.8488
2449.7687
2393.8121
1871.6273
1666.1555
1293.7896
1237.3387
1086.2697
957.36414
816.13989
930.63979
789.15744
834.18124
767.72063
816.33022
778.23188
883.72313
935.80915
1097.7607
1250.6265
1443.5661
1632.4479
1809.2731
1945.8623
2064.2873
2123.694
2180.2772
2226.9001
2298.3115
2423.9054
2625.1834
2908.0669
3294.0416
3759.5712
4312.6315
4913.1976
5557.1667
6252.5658
6943.5452
7746.8731
8382.1109
9167.681
9847.8848
10734.437
11436.984
12296.506
13083.171
13862.54
14737.534
15479.712
16352.299
17161.785
18011.59
18926.001
19846.518
20837.776
21861.106
22931.207
24005.356
25113.685
26181.057
27238.761
28219.614
29124.314
29972.864
30584.836
6292.1685
3859.7024
2539.7829
2354.6022
996.3615
677.87882
497.1648
407.58909
605.34642
1083.5413
1541.2598
2355.4507
3185.3083
4497.0004
6769.6596
15160.142
12405.321
-2456.2406
7038.6442
4198.6357
3579.8345
5332.3595
4527.2046
5576.3777
5095.255
5644.404
4760.195
6112.6935
4126.9886
5642.843
3829.5159
5840.2893
2543.7749
5383.1084
2728.3738
4204.0854
4281.6148
3965.7506
4111.9744
3284.2979
3963.139
3571.3045
3003.5029
3526.5099
1306.1609
1555.1402
1125.7421
1004.9395
1107.6625
1115.8831
2359.1032
883.74462
1838.9999
1630.5021
1574.4799
1437.3225
1232.8291
1052.731
920.08015
896.90743
949.71652
1108.9538
1310.4157
1521.2715
1694.2023
1785.3611
1792.3205
1715.5753
1585.2481
1468.7447
1409.7334
1460.5503
1674.6371
2034.2442
2563.2814
3186.7829
3904.7018
4619.4163
5333.8512
5994.9291
6589.6446
7241.0231
7546.3058
8248.3204
8836.9451
9500.482
10009.702
10772.036
11484.913
12206.312
12937.317
13659.229
14391.952
15107.701
15898.353
16701.78
17622.196
18569.102
19642.81
20702.481
21863.727
22939.445
24066.447
25036.658
26032.335
26831.19
27674.063
28359.393
29005.64
30081.317
31178.57
31141.331
30149.774
29832.309
29773.876
29219.324
29284.197
29053.489
29825.319
29061.525
29997.645
29204.71
31437.292
29813.663
31930.709
31223.887
29191.286
29228.515
28000.489
27179.315
26147.935
25121.418
24082.681
22984.45
21945.704
20877.657
19873.878
18937.609
17958.925
17086.928
16223.669
15391.221
14574.072
13767.729
12968.386
12185.28
11399.178
10654.701
9849.4124
9290.2596
8400.8754
7622.4898
6391.1646
6641.2895
5720.3805
5176.5778
4541.3747
3961.7554
3440.7643
2974.0293
2591.6151
2280.7253
2052.1695
1883.259
1769.2595
1677.3109
1602.5242
1514.2463
1414.9747
1293.8789
1158.8202
1023.3511
882.22617
782.05477
685.01807
621.78588
616.26112
580.46982
606.74946
567.15537
643.19986
360.43065
672.55899
310.48691
464.23659
1042.4565
527.00042
969.63294
1070.2612
1541.0608
1673.6207
1634.0427
1936.9269
1822.3966
2368.9021
2403.0034
2368.2315
1558.265
2838.5322
2183.6231
2107.6464
2711.8416
2475.6903
3170.5432
2926.2331
3182.4946
3252.2709
4099.3979
3019.4394
4711.2453
3634.2516
3622.1679
3934.5611
4600.9426
3808.645
3760.8043
4182.3008
5588.8026
1753.4987
10015.881
4871.8329
5144.0556
4740.3815
4839.9194
4898.8709
5138.4294
4877.1388
5198.3067
5147.6827
5320.9984
4825.3868
4720.5234
4790.8704
4790.5731
4721.9614
4951.8496
5490.7256
4374.7286
5380.2105
5203.9249
4371.858
5288.242
5899.3099
5025.1663
5614.4378
5183.7946
4787.4002
4646.9321
4263.2602
4547.5036
30599.98
30596.613
30586.992
30546.439
30504.237
30471.269
30473.009
30460.452
30499.043
30516.901
30584.123
30563.574
30629.319
30425.13
31006.778
31315.867
31025.263
31260.76
31030.236
31193.878
31134.028
31127.716
31100.165
31101.34
31068.592
31111.008
31023.258
31042.659
30952.251
31370.463
6089.5147
2940.8391
2923.4706
2921.9339
2810.5159
3114.4737
2903.9631
3216.4447
2899.9641
3220.7232
2598.6217
2871.9501
2251.7646
2570.2762
1917.42
2328.3705
2073.676
2262.5048
2062.2881
2249.8402
2052.5037
1960.4025
1816.4069
1433.6463
1231.6236
910.67901
716.75466
467.71254
480.74684
526.55438
519.3734
784.2718
1076.9148
1300.4726
1543.5752
1510.4934
1617.3922
1542.0638
1612.9085
1484.1735
1571.2949
1475.3001
1514.5461
1526.5528
1412.8805
1363.5568
1172.5455
1000.3734
729.7908
512.48194
277.07159
159.91185
130.49265
262.93227
539.8233
964.80083
1507.8279
2128.7005
2787.5701
3442.5416
4059.5785
4641.8667
5127.8379
5616.7417
6028.6441
6368.071
6977.0581
7318.8813
7872.8028
8105.5459
8644.2644
9090.6896
9587.4536
10123.545
10671.08
11288.183
12003.479
12735.294
13669.842
14556.351
15693.834
16768.352
17955.767
19156.58
20292.845
21565.608
22642.017
23767.106
24826.241
25750.086
26881.63
27636.255
28894.628
29543.246
30948.043
4055.3178
1690.3817
2474.6381
1783.1768
2306.0106
2022.1549
2279.0028
2160.7034
2226.3224
2108.2114
2091.5857
1998.9828
1861.89
1793.4546
1654.8189
1793.9534
1397.9298
1687.5775
1451.5257
1625.8073
1359.6872
1463.6498
1137.912
1173.0816
888.2778
846.81298
591.43089
584.08915
459.7461
481.71423
503.87295
642.78856
585.67608
646.56522
724.35048
768.20341
873.78506
965.71791
880.75036
869.32513
820.57431
849.75553
838.21527
790.57514
772.11106
802.98436
766.56162
754.64451
728.47585
697.59173
677.39911
696.16598
752.58642
877.00293
1070.961
1344.5325
1681.1793
2082.822
2527.0776
2991.4565
3477.0733
3957.7759
4429.9393
4921.8472
5431.2073
5914.9998
6424.3469
7275.5148
7748.5001
8287.2176
8972.1469
9484.492
10054.684
10664.639
11308.025
11985.395
12744.828
13519.681
14442.978
15269.45
16399.216
17277.096
18485.591
19295.903
20808.038
21863.315
23014.335
24003.422
25202.246
26049.33
27267.414
27992.268
29310.498
29409.66
31562.279
2791.938
882.41596
1720.6617
1150.1532
1440.6775
1322.6673
1393.5901
1553.5295
1471.9257
1600.9366
1391.7989
1531.1057
1239.3217
1395.34
1143.6847
1229.4239
1150.6604
1281.1939
1110.9623
1251.7555
1129.2969
1193.1056
1055.7488
1017.241
822.09045
745.08772
619.20744
547.13751
504.36466
518.89719
562.88969
582.68324
732.52724
845.15678
930.2955
1004.0837
919.64257
775.21546
846.06557
788.13595
842.79058
830.3189
757.44852
866.64718
910.63175
934.78819
924.74519
924.6574
885.14124
833.08202
816.43456
803.51474
865.76435
978.56528
1186.8824
1457.2815
1810.7572
2211.9637
2653.4445
3110.0445
3575.3467
4036.9651
4480.6527
4952.5814
5371.1529
5818.6218
6387.0932
6804.4256
7453.3683
7937.103
8513.3418
9070.3734
9782.3659
10438.356
11118.524
11838.614
12586.102
13410.871
14249.479
15160.984
16152.933
17094.127
18137.157
19408.853
20393.038
21273.21
22315.924
23457.064
24505.319
25434.999
26626.94
27322.42
28587.937
28882.026
31731.106
1646.5483
602.03109
936.63821
792.66068
877.5515
807.34892
936.29453
904.22676
864.34241
883.42114
872.37181
837.03287
704.30861
822.98909
529.08672
791.94546
439.75112
718.30056
443.40121
722.49711
407.08554
619.8068
286.97939
428.95193
153.32447
231.55497
-1.5772036
81.072829
-63.105753
34.239399
-24.572962
111.94037
150.52307
197.11635
288.26271
308.83567
381.66017
788.48224
711.44689
760.19934
721.81154
765.46584
787.58155
795.84448
765.5112
781.5829
803.76056
836.9568
863.15572
910.14975
962.81351
1025.3751
1121.4672
1238.8562
1400.9662
1604.2749
1859.2446
2156.2622
2506.7903
2889.4646
3312.2401
3763.8706
4220.5506
4723.6837
5214.1018
5762.242
6251.3416
6818.9688
7491.6022
7894.989
8683.0877
9291.6944
9757.8434
10276.782
11017.978
11686.535
12449.117
13212.824
14075.304
14934.815
15910.64
16824.325
18011.205
18887.364
20125.759
21141.677
22528.441
23459.026
24759.113
25557.047
26939.836
27474.599
29101.625
28867.233
32281.168
1185.3787
16.737774
574.57593
102.49439
465.15748
290.91128
513.81531
434.4186
543.34426
579.21049
499.47287
514.13379
446.48674
445.2905
351.479
438.66107
329.63601
495.5652
346.83704
523.49321
360.40298
547.32877
341.44692
493.72191
249.28152
320.06867
180.07526
186.67755
137.80664
194.65648
228.00643
331.05111
380.80465
502.84466
562.15248
625.14725
742.54161
461.28998
401.29522
393.39899
518.27815
511.10177
545.78467
620.40973
692.26788
751.98945
803.00123
819.72628
851.62186
866.57052
908.4463
949.58509
1054.9669
1168.0052
1357.4484
1573.7064
1850.6154
2156.5287
2507.3481
2878.2426
3275.0536
3696.2567
4123.6931
4610.0513
5038.3328
5586.2762
6120.6632
6550.1539
7164.019
7744.1828
8463.128
8942.289
9756.8765
10830.159
11374.437
12139.599
12839.668
13667.164
14478.074
15373.158
16307.964
17297.671
18284.171
19388.156
20433.423
21523.436
22486.076
23539.635
24574.159
25515.073
26629.012
27452.967
28795.994
28745.95
32552.748
669.70004
5.6245624
311.81283
99.03982
178.64028
164.76847
161.93232
194.23055
202.53089
196.44924
189.25817
232.99205
112.05133
221.29676
37.696679
184.16607
-16.562893
183.06434
-22.983592
224.87766
-5.2624517
223.21857
-32.62992
147.48508
-122.90401
85.851973
-196.17581
-6.5371014
-167.36081
-38.381548
-98.7883
-13.983433
16.4708
89.829622
120.6549
219.351
195.98022
504.10782
469.68027
609.42294
552.55102
632.62419
602.12604
686.5896
695.53551
731.1546
738.0142
777.71391
801.69975
848.2187
899.84105
982.65662
1083.3027
1225.453
1396.9462
1611.5941
1857.9446
2140.8713
2463.2209
2804.7986
3177.4817
3598.0711
4017.9355
4450.4205
5006.9531
5450.4194
6016.5258
6573.6335
7213.1514
7784.9934
8386.2168
9066.3557
9738.059
9984.8782
10650.901
11369.506
12146.304
12943.793
13798.816
14672.827
15652.711
16541.789
17684.885
18578.535
19811.01
20741.021
22071.838
23007.609
24393.809
25192.097
26699.86
27273.295
28926.974
28852.759
32738.494
407.98801
-320.20897
174.48872
-292.57306
19.804218
-145.95093
52.910884
-13.459685
116.10231
72.961231
124.96496
38.270116
45.447895
-8.0693192
-65.311364
-26.084058
-83.144407
2.1587795
-59.883014
100.4147
-22.845862
187.90713
-26.847616
161.01071
-15.377116
50.764176
-82.846557
-2.3222663
-121.59951
3.5406603
-35.035595
113.99482
152.85623
243.09435
313.38262
374.45728
375.90534
359.49476
325.67144
436.44171
367.16321
452.79052
465.90532
553.44602
619.17994
699.54745
808.56982
872.81391
959.52429
1007.2076
1088.5226
1140.1932
1248.0912
1355.4586
1526.3112
1721.2583
1981.2455
2268.3997
2610.6925
2961.6214
3379.9685
3779.4199
4211.5006
4720.8661
5149.0927
5711.4979
6222.1482
6814.1088
7383.1334
7957.456
8705.4199
9214.9757
9965.3341
10687.103
11492.547
12226.792
12986.497
13757.847
14603.091
15463.76
16379.603
17365.588
18346.052
19396.512
20455.305
21504.209
22561.016
23591.944
24638.556
25534.3
26663.184
27354.774
28920.268
28726.616
32907.759
428.5875
-20.210172
232.60362
29.628239
115.06441
65.45643
103.60288
52.16385
139.72482
81.24137
129.93661
129.53957
123.04025
132.00759
102.98629
134.02395
77.253263
150.50856
89.935599
169.8542
34.781798
122.4759
-14.1681
197.30613
-98.211938
149.74481
-88.795145
69.705215
-77.888293
45.642202
-43.253112
59.558508
13.164247
100.03622
136.94323
134.55656
228.98941
232.24391
282.92349
320.26647
298.64752
352.28206
372.11567
411.47117
412.6192
480.00643
492.28941
551.62652
581.09733
643.0612
683.22878
757.50814
836.83186
943.42259
1084.5898
1260.4296
1481.5955
1738.5626
2043.4504
2389.2265
2766.9211
3167.916
3638.7975
4067.8864
4589.0872
5086.5674
5641.1356
6199.118
6778.213
7424.6356
7986.6037
8654.3721
9358.5642
9897.4602
10477.798
11169.082
11937.084
12723.349
13578.135
14417.997
15395.005
16279.059
17364.585
18295.897
19477.397
20443.249
21709.794
22680.37
23989.208
24945.43
26370.748
27223.481
28845.97
28908.546
32778.458
362.98844
-246.15982
194.08762
-207.98312
3.2830886
-138.10921
58.359753
-25.005623
146.05773
42.309942
139.1627
5.5700859
-6.0822877
-126.458
-172.03293
-251.99909
-246.36093
-280.17731
-233.53302
-171.20839
-120.96184
91.431183
77.502481
67.726577
21.301289
70.15596
-96.440928
-10.963862
-148.43349
-43.845832
-95.773546
23.881857
38.757377
178.13984
127.61936
297.44408
215.74644
295.84348
231.28943
241.80484
231.96107
238.89279
294.03964
321.57291
446.30318
516.45684
644.2509
722.94754
837.17572
899.99496
994.7719
1059.4643
1159.6848
1265.0756
1421.2493
1605.6272
1849.811
2121.6669
2462.6867
2808.8886
3202.781
3631.0093
4047.59
4527.8501
5000.796
5536.1346
6053.4808
6630.947
7243.4058
7842.6936
8523.1535
9199.8907
9901.9919
10611.664
11591.055
12267.165
13069.798
13847.153
14668.394
15549.301
16423.32
17408.429
18356.317
19417.436
20435.226
21516.453
22562.186
23634.199
24675.546
25684.615
26724.149
27521.832
28911.919
28900.206
32654.388
1047.3969
374.68711
839.45533
453.36044
697.24104
574.29406
688.61182
557.40443
671.83981
655.05102
685.00478
682.68889
731.35444
677.66342
728.14908
642.84224
702.75205
604.27606
698.49082
606.30918
620.0858
534.19996
396.92234
506.25929
398.33436
451.16491
327.83628
418.12627
273.75281
368.66469
258.01264
332.51259
310.89447
306.48626
405.65998
365.73469
427.94537
440.30993
443.00365
502.93413
492.37722
548.97354
536.63392
608.58241
593.77919
664.84499
674.77482
736.89315
757.2232
812.87578
846.50922
903.69625
972.80624
1067.7532
1192.7681
1361.6555
1566.62
1823.2004
2127.7891
2456.4038
2859.322
3260.517
3715.7822
4191.0852
4703.1402
5204.7041
5762.2857
6343.9994
6913.4913
7527.0093
8139.2295
8766.0413
9398.3201
10023.897
10822.501
11385.184
12227.056
12936.706
13841.084
14674.407
15652.504
16579.931
17637.091
18627.731
19746.53
20766.103
21942.062
22953.007
24161.12
25152.254
26383.426
27383.527
28767.327
29323.553
32706.528
922.65246
342.50194
701.24689
273.23931
641.22982
392.86425
617.88303
477.37196
706.09704
548.33818
591.28637
472.94163
459.28828
266.0846
351.56378
83.064396
355.34558
25.82124
385.80287
90.949857
465.83636
-23.603121
321.44793
268.38098
234.47442
128.75455
60.454293
-55.104558
-171.90473
-203.79849
-291.72905
-215.2641
-298.35701
-113.15978
-208.42007
-67.190935
-79.763759
-31.06173
-9.4731263
-27.953867
16.91888
-13.517729
75.929507
92.88643
208.4364
272.88816
393.93699
451.89516
548.41885
586.86925
638.39164
664.00877
713.67755
765.68047
871.61317
1015.9363
1224.2236
1496.2362
1821.6617
2208.3017
2637.5987
3100.2545
3589.7581
4126.3252
4639.9387
5230.8177
5812.9441
6413.6046
7030.5231
7685.8933
8341.7891
9027.5657
9693.6768
10476.652
11204.612
12042.314
12712.72
13580.732
14335.618
15231.718
16127.635
17099.359
18098.262
19163.047
20230.285
21367.712
22451.977
23622.361
24695.802
25822.699
26935.442
27846.413
29116.686
29567.828
32010.053
2296.3153
821.99866
1351.9148
1190.7137
1484.9164
1374.2706
1585.7404
1518.4924
1634.2287
1645.7461
1627.1548
1590.8108
1643.0337
1474.5212
1495.0739
1442.3356
1401.9584
1365.7529
1400.6859
1364.4798
1335.6915
1477.6149
1392.4404
1275.096
1276.8482
1213.0246
1169.6789
1144.5153
1113.6096
1110.9629
1135.8121
1098.262
1206.3514
1187.6902
1282.8445
1325.768
1311.7733
1353.8965
1269.3932
1295.843
1176.6513
1201.1937
1092.9218
1122.827
1063.2451
1103.6763
1104.5515
1154.4012
1194.8662
1251.9919
1311.0705
1387.8061
1479.7819
1599.7655
1757.0885
1954.1572
2200.8648
2488.2465
2823.9338
3191.6522
3588.7325
4007.1122
4443.1991
4882.6811
5334.7835
5814.8029
6276.4913
6787.0011
7322.8385
7881.7715
8454.8843
9033.36
9719.7242
10258.34
10969.882
11652.938
12353.093
13167.377
13989.147
14881.111
15816.022
16774.669
17775.411
18798.081
19837.698
20875.749
21927.576
22958.152
23976.107
25036.337
26043.932
27087.163
28542.355
29233.477
32109.75
3302.976
1915.6486
2272.6975
1929.5349
1903.5201
1752.6435
1880.6567
1650.9826
1799.2269
1648.1669
1594.685
1559.8529
1326.4564
1274.8974
1115.7066
965.06842
970.45393
767.36462
936.71656
682.09066
913.18918
656.08387
853.70449
577.21142
767.0713
355.45095
366.70792
34.484393
-84.899915
-237.2427
-386.91948
-370.5344
-461.81469
-347.86145
-363.37214
-285.41117
-202.87378
-191.03413
-88.171916
-132.93033
-29.098336
-57.158593
30.842667
58.930647
143.62726
189.21385
264.30032
277.39403
303.65315
272.59489
243.42959
192.02909
164.96478
162.85972
223.11924
356.46771
570.22425
877.03507
1261.0368
1718.0803
2224.5223
2784.1299
3343.8054
3953.4866
4531.2991
5166.8962
5733.6058
6396.0057
7000.7043
7633.6466
8231.5242
8946.356
9470.0694
10230.796
10814.529
11570.652
12214.993
12984.341
13736.026
14622.364
15509.85
16520.71
17559.417
18699.649
19830.536
21058.237
22229.354
23480.274
24644.668
25866.413
26979.285
28122.383
29238.272
29926.038
31641.444
4890.1451
2447.5742
2964.5715
2374.4514
2872.1171
2763.7641
2917.3077
2991.9462
3153.7098
3117.1254
3200.4823
3042.0614
3106.9351
2874.2864
2821.9193
2584.1097
2585.8005
2314.7392
2583.1847
2295.1851
2611.9756
2392.5445
2480.2014
2279.7594
2262.0928
2064.0543
2056.195
1733.543
1706.7526
1393.4809
1401.9757
1215.05
1267.0634
1284.6116
1242.0255
1312.6082
1307.0445
1339.6745
1242.8849
1264.0174
1125.0818
1109.6
1004.2386
1001.7753
969.20263
1009.9105
1049.1804
1112.8495
1176.3174
1228.871
1268.6904
1294.2563
1321.7218
1355.478
1427.8593
1545.8867
1730.1481
1985.3622
2313.7334
2704.8276
3148.1021
3630.4984
4134.6845
4653.6222
5180.6187
5723.0849
6262.7689
6851.8312
7381.4371
7955.0653
8611.4269
9174.7091
9881.5186
10503.588
11184.517
11869.288
12598.761
13350.885
14140.003
14995.801
15872.747
16848.043
17839.379
18902.89
19983.6
21094.825
22205.609
23303.655
24372.528
25428.466
26393.985
27426.805
28368.49
29472.086
31094.426
6898.9124
2234.5137
3732.9895
2782.5635
3700.4336
3277.2748
3724.6434
3620.3816
3534.9607
3370.3595
2931.6325
2763.6092
2487.6497
2219.9532
2324.9067
1984.0745
2398.7914
1971.9819
2544.4682
1938.55
2472.009
1512.4051
1858.6542
870.81638
1078.6482
535.13082
707.83414
606.02848
938.83035
1214.2976
1543.9434
1916.0612
2215.3586
2438.013
2456.748
2555.5326
2485.2904
2353.3367
2299.8951
2099.0654
2043.8353
1907.9536
1843.0079
1723.4728
1604.665
1419.3425
1219.8694
975.65851
760.10306
581.41662
496.9538
543.73873
739.73888
1089.4933
1585.4348
2186.8072
2845.9405
3528.4812
4171.9395
4758.7283
5262.9853
5697.2841
6050.6671
6372.4103
6672.196
6966.1439
7239.031
7586.7209
7840.6328
8353.7294
8646.5996
9170.975
9546.1383
10144.623
10688.419
11435.443
12192.428
13111.491
14121.752
15223.44
16366.073
17591.011
18747.811
19970.506
21064.221
22198.271
23195.423
24235.969
25182.878
26169.433
27131.654
28196.686
29118.088
30407.833
31248.612
2458.8333
2548.9189
1869.1842
1644.3269
1650.458
1619.4763
1601.8738
1635.7375
1683.192
1875.0819
1695.9833
1729.1238
2117.642
2190.2528
2469.5778
1837.5351
1493.3912
1065.5992
1115.494
919.21572
897.05252
848.38525
819.25873
969.21446
868.63143
913.47071
1048.1528
1061.0928
1407.4199
1570.3898
1129.6539
598.83024
208.19661
179.87388
34.717867
2.9135545
27.25658
-47.277373
-18.042539
11.365117
97.180695
55.307143
181.43382
576.83313
775.06656
675.86108
517.61948
290.63133
121.74234
118.79057
59.582116
58.02759
18.023729
94.966535
78.692656
142.87503
161.66731
341.62983
644.25985
437.11144
321.82472
155.96855
-93.47451
-143.17716
-231.34175
-238.35845
-265.27091
-250.36606
-279.67736
-262.24366
-237.77801
-171.23327
-65.98001
23.522239
339.03858
404.75313
188.50048
48.349808
25.818667
-22.312688
-31.833231
-68.419461
-51.818439
-58.851106
-49.068214
-14.486465
-27.417431
33.029812
158.85769
291.69358
93.152531
-29.952407
-122.56217
-180.93652
-195.1958
-230.09195
-232.11565
-255.43818
-249.34784
-228.87308
-224.77869
-148.71463
-107.77843
33.392207
158.35121
227.47484
120.12553
16.673273
6.9967223
-35.47207
-42.980943
-60.543638
-63.110068
-52.905678
-75.666873
-50.524403
-37.924896
-33.993294
51.542189
172.95255
51.243402
-41.994093
-195.79387
-209.70602
-257.2326
-275.6041
-283.85613
-266.00559
-280.81607
-219.51984
-224.0206
-150.66021
-118.32954
74.29723
153.94443
566.15408
368.53405
185.08631
166.63447
87.54187
78.813127
70.213806
57.71046
57.624592
21.586049
96.236855
56.399708
125.06399
306.08494
352.59583
260.36166
120.7055
-158.53127
-190.2799
-291.98743
-246.81552
-311.53472
-253.64631
-290.58741
-183.27312
-173.37009
-104.97127
38.307126
340.68662
416.68585
884.87988
511.40646
305.48632
124.14768
97.914847
-32.468352
-5.7871931
-54.848467
-25.802685
-11.069302
48.975498
106.75008
257.70111
561.66914
786.47665
920.67367
991.02804
276.12389
286.28116
70.544114
115.96612
-39.510075
86.07666
113.56158
126.54567
237.09266
217.81153
410.73672
993.84278
1167.9713
2290.7166
1628.915
1163.3419
990.16781
802.53559
725.33973
870.8056
928.19571
873.17637
697.65637
774.70498
732.44012
876.93765
1245.2321
1601.6463
2546.5242
2492.4868
1367.718
1232.2542
1000.0025
938.18284
1082.3719
1262.0369
906.57592
1076.625
912.38314
1085.5676
1412.105
2206.6271
2627.9268
10407.283
12032.645
9905.9042
11146.564
11780.131
10951.181
11739.413
12835.94
11569.008
12036.794
11767.147
11291.979
11126.249
11784.616
9473.5442
10780.38
6813.3707
8166.1521
8181.1464
7110.0515
8866.6409
8380.8745
8215.3375
9007.1959
7352.0807
7838.5467
6863.3827
7577.6571
8938.1031
9739.7913
5310.6043
5344.6291
4295.2449
4479.8756
6133.3192
3851.1486
3745.7602
3745.8274
2248.3487
4577.9548
3787.3904
6111.8869
4907.3081
3696.3729
5255.5356
4267.0126
5524.4711
5397.2725
3689.0724
3771.7683
4060.2415
3594.8124
4088.7099
4231.4074
3274.3234
4211.9637
3840.9087
4813.8134
5280.1423
4296.1791
6661.9879
5846.0131
4382.8246
6238.2977
5000.3908
5254.0551
5621.552
5228.8803
5495.7415
6746.8617
5338.5087
6064.5757
4885.5153
5298.5775
6386.3964
3414.6704
4493.0294
4665.4259
4373.4116
4307.226
4273.6884
3868.1206
3848.6637
3974.1428
3242.4252
4184.9472
3818.3047
4127.3449
4762.8075
3809.5114
4827.8633
5374.5478
5119.7798
4867.3206
4830.553
5102.8261
5209.1443
5100.1534
5215.4935
5369.6186
4836.361
5243.4772
4898.6152
4658.6017
5390.9506
4589.6417
4394.7932
4655.9033
5002.0626
5135.8968
4768.1473
4826.4821
4965.0703
4561.6075
5096.0166
4980.1349
4954.1955
4903.6887
4456.903
5500.0631
4676.5791
5363.6838
5260.4988
5603.7413
5029.0959
5439.477
5272.2745
5434.4101
5324.101
5272.5204
5261.6316
5024.9314
5113.345
5170.9678
4857.6254
5248.2734
4747.4847
5045.3139
4956.6005
5122.4144
4877.2096
5012.9696
4903.0234
4675.2722
5317.6986
4601.9885
5395.0392
4861.1511
4925.8362
5703.9882
5207.9652
5561.8014
5417.7613
5805.2471
5565.8579
5932.712
5721.8275
5816.8948
6071.4736
5493.4737
6231.3548
5637.3478
5863.1744
5871.6205
6013.8808
5870.9876
5155.8902
5397.0048
5282.6671
5291.74
5156.1221
5071.7707
4960.5087
4613.4933
4983.5547
4514.6631
4843.8047
4669.0855
4641.6012
5643.1455
5575.6922
5565.8911
5201.5709
5672.044
5404.9046
5588.4626
5633.9578
5534.1358
5853.8511
5700.5484
5969.5466
5753.9442
5909.5272
5999.1053
6191.5934
5625.757
5200.4488
5338.0387
4983.2969
5086.3644
5228.1235
4967.824
4757.4024
4338.8744
4397.8587
4045.4754
4296.0467
4122.7738
3950.7685
5351.5138
5438.7409
4795.1143
4797.59
5319.8414
5273.0696
4954.155
5046.5646
5016.3451
5365.4183
5354.0311
5776.052
5568.2429
5775.7801
5885.6198
6184.3766
4901.7124
4777.2886
4854.9468
4768.9099
4224.5328
4898.1162
4422.783
4399.7933
3851.093
3928.388
3346.4629
3581.4676
3443.4119
3407.3723
4582.0978
4518.1326
3926.7581
4030.9667
4274.5091
4634.2487
4300.9423
4346.7866
4144.8355
4679.0828
4539.0437
5040.4062
4895.1044
4846.6902
4658.7587
5780.1215
4034.321
4145.7746
3918.6083
4114.4659
3658.7902
4080.2221
3710.4509
4040.8753
3556.6313
3698.1402
3148.504
3100.1909
3097.4754
3005.0337
3436.4134
4117.8946
3738.7056
4077.0709
3802.6589
4101.6401
3714.1048
4369.6167
3716.8249
4036.5482
3922.6709
3877.8736
4159.1681
4312.4186
4189.6148
5288.2986
3512.2767
3574.9279
3377.3745
3836.042
3552.948
3930.9945
3520.6785
3715.601
3567.9685
3550.0968
3862.4708
3510.5333
3299.8359
3071.4903
3633.4132
4124.3795
3750.4411
4058.8627
3768.8286
3874.6822
3646.562
3977.9683
3794.1683
3872.8588
3606.7846
3682.3605
3673.4274
4410.5053
3890.4696
4821.0409
3801.9594
3972.1434
3641.5374
4079.6918
3717.8396
4257.6271
3608.6239
4007.5622
3365.2344
4357.2019
3733.7074
4075.8556
3307.2878
3028.4096
4916.8708
4745.5458
3760.7468
4203.3909
3809.6164
4040.653
3909.7804
4041.099
3709.3019
4120.824
3736.442
3487.174
3577.3821
3713.6792
3802.9836
5287.1793
4266.7025
4398.9539
3940.8886
4259.0484
3891.2105
3795.6273
3609.9276
3724.5055
3642.8006
3621.611
3839.1512
4058.0247
4113.9973
3602.7438
6078.0864
5246.7919
3994.176
3936.4175
3742.8362
4030.2953
3705.8579
4107.2301
3777.2124
3836.6609
3731.5041
3952.0339
3984.013
3676.4203
3662.9493
5777.0256
4535.8743
3967.9626
3933.7495
3994.5319
3701.684
3988.7775
3421.8444
3614.7056
3395.829
3519.3104
3317.6181
3496.9469
4184.3258
4021.7094
5499.103
4665.8045
3837.2604
3914.2826
3558.6102
3788.3476
3326.0167
3507.2779
3381.048
3394.162
3391.2867
3484.3755
2835.1422
3285.5991
2672.2412
5586.9191
3974.5808
3252.3536
2852.6415
3511.1023
2673.0882
2825.4288
2777.0362
2706.2313
2839.0464
2745.1617
2903.1074
3290.3288
3004.7202
3195.4408
4466.7186
3600.2571
3015.1266
2661.2357
2431.4227
2524.2421
2538.2335
2459.6566
2392.5145
2342.166
2388.9373
2358.7077
2658.0717
2419.8282
1935.9397
4568.5707
2624.713
2065.9863
2168.8997
2216.7877
2011.7025
2035.5622
1885.7704
1925.4281
1730.9558
1730.6997
1601.0564
1575.0594
2343.8139
1675.2961
2910.3075
2506.7753
2205.1675
2191.9818
1882.4541
1969.8634
1277.7766
1682.1059
1426.528
2086.0947
1611.6211
1552.4516
1516.9254
1281.5847
1191.2534
2246.8096
1929.3069
1569.1699
1372.0326
1438.8487
1290.8686
1434.7111
1303.4964
1392.6389
1068.3526
1164.7089
1070.522
1195.7783
1092.8067
1086.4496
1779.202
1374.1622
1136.0142
1227.4494
1203.8163
1256.5669
1114.3318
1214.49
1003.37
1155.532
1020.6377
1153.6361
1001.1222
1006.4664
975.81356
1157.3188
1037.0078
1071.3049
1070.57
1142.264
1048.3031
1082.6406
984.26272
1094.513
964.74099
1075.8016
904.54806
1029.958
887.37161
845.59358
902.15433
933.51892
971.06148
1072.9906
1267.8002
1098.9102
1073.6614
1137.8461
1078.1559
1103.656
1098.0841
1148.6764
1114.2113
1060.1534
1159.0441
1150.4182
803.17665
1068.2956
1171.8886
846.05079
1113.58
1049.4843
1089.8766
1009.7985
1214.0895
832.28693
1136.7166
1005.0594
1105.3536
948.47622
1149.053
786.25208
998.4891
1268.5611
1221.4536
1298.9327
1080.6109
1237.6168
1085.1312
1112.9639
1451.6111
1140.224
1288.392
1034.1086
1257.7394
1078.2
1035.127
1538.3777
1380.5062
1514.9006
1263.5711
1390.0796
1229.5168
1297.3875
1257.7476
1132.0185
1215.6746
1150.6285
1305.111
1256.9057
1043.4656
1381.4886
1361.8716
1445.1938
1329.9005
1457.0242
1243.0682
1341.5515
1232.2277
1210.5011
1275.9454
1156.6758
1368.8364
1158.5765
1223.1477
1273.876
1201.9139
1470.7696
1304.4321
1465.5956
1236.4662
1269.2993
1166.6567
1140.88
1154.763
1062.5637
1149.9396
1087.2066
1039.9211
1183.4694
1141.294
1330.4301
1383.8564
1353.3606
1262.3995
1260.5517
1120.6839
1113.1649
1081.4829
992.60574
1061.7521
938.75229
1037.3511
938.69924
1002.4783
1080.4306
1158.6968
1337.3707
1083.194
1189.9859
1040.0498
980.25424
951.68807
854.24943
871.06183
809.65799
765.9092
871.53433
679.31521
836.43478
1008.0674
1161.0718
1172.7154
1052.4958
1030.0782
951.5155
864.7457
815.86628
787.99537
721.92417
716.24902
661.25984
718.64992
551.14669
703.08192
966.96977
1021.2752
1135.4017
882.19356
930.99693
822.07136
730.43029
718.79631
644.81305
604.31373
613.89542
497.70806
633.53035
432.92691
578.16347
1049.1847
1112.0974
1084.0742
897.32406
922.58007
817.28372
738.25835
715.88784
655.72494
628.13562
598.47191
529.67055
646.29619
445.35433
579.43651
1286.6147
1196.3631
1157.8694
935.20367
962.28835
846.1806
766.42506
743.89143
702.15159
634.87922
668.80492
559.92602
708.09904
542.84976
625.55
1674.7564
1471.8785
1301.9986
1092.9869
1110.4095
1007.5399
914.84352
911.81277
838.20658
815.16278
818.9037
720.93545
890.26855
745.7825
768.46425
2183.9088
1802.6641
1511.0747
1297.1446
1311.6666
1163.4998
1070.3458
1036.4774
1005.163
946.44925
980.84453
890.72621
1073.8426
983.67449
939.2025
2763.9257
2191.1387
1747.1469
1542.5488
1513.9497
1385.5329
1275.7516
1280.5935
1214.6913
1171.8336
1204.7907
1112.8939
1297.4938
1250.6233
1126.3914
3300.8195
2567.8515
1976.4664
1750.5104
1729.9238
1563.2606
1449.506
1404.1824
1353.6051
1301.4773
1341.4254
1261.7024
1449.547
1458.4939
1260.5682
3736.5433
2861.0605
2125.1498
1923.0623
1854.3444
1695.8282
1565.5365
1557.8356
1504.8768
1451.0175
1485.4648
1406.7906
1574.9073
1604.4576
1351.5756
3972.8146
3019.6711
2213.0302
1990.1379
1927.6025
1759.0561
1640.1714
1597.2488
1529.7747
1468.8922
1502.6593
1432.9431
1580.4747
1641.1804
1353.1687
3989.4373
3029.8049
2171.3873
1983.2915
1904.0644
1747.2152
1615.0786
1590.4401