/*--------------------------------*- C++ -*----------------------------------*\
  =========                 |
  \\      /  F ield         | OpenFOAM: The Open Source CFD Toolbox
   \\    /   O peration     | Website:  https://openfoam.org
    \\  /    A nd           | Version:  6
     \\/     M anipulation  |
\*---------------------------------------------------------------------------*/
FoamFile
{
    version     2.0;
    format      ascii;
    class       pointVectorField;
    location    "2";
    object      lm;
}
// * * * * * * * * * * * * * * * * * * * * * * * * * * * * * * * * * * * * * //

dimensions      [1 -2 -1 0 0 0 0];

internalField   nonuniform List<vector> 
3969
(
(-4.0340813e-15 -4.7705825e-17 1.3312818e-16)
(9.2297575e-16 -2.6090405e-16 -6.0252577e-16)
(5165.8544 -581.78953 88.820245)
(4975.3371 -1334.8756 38.071856)
(-7.1783695e-15 2.6020842e-15 -1.0366567e-15)
(-4.622429e-15 2.1493156e-15 -1.5432914e-15)
(5035.2333 -1316.3763 37.747655)
(5225.6666 -563.40357 88.374406)
(-6.09887e-15 1.0869625e-16 -2.0095736e-16)
(-3.193382e-15 6.5333688e-16 6.3735029e-17)
(-2.9260211e-15 2.9260844e-16 -4.8432863e-17)
(-1.7497804e-15 -1.5755452e-16 -2.074758e-16)
(-4.3254872e-15 8.6218995e-16 7.3228779e-16)
(-2.4697388e-15 -4.9707839e-16 4.8086129e-16)
(5.2680668e-16 -4.7467027e-16 -5.3018058e-16)
(5142.0457 -675.97877 82.52463)
(5118.2821 -770.20197 76.252589)
(5094.4942 -864.43256 69.913136)
(5070.6856 -958.71558 63.536813)
(5046.8441 -1052.9397 57.137457)
(5022.9615 -1147.0281 50.758393)
(4999.1408 -1241.0626 44.404727)
(53.638619 84.810286 82.616639)
(100.29982 145.32081 90.870117)
(169.90646 205.58204 87.777191)
(258.54425 258.78354 78.384971)
(359.98162 306.8649 66.313623)
(476.02648 347.14723 54.124036)
(600.04357 379.93272 43.330637)
(733.91367 404.79072 33.643582)
(871.73481 421.59745 27.02356)
(1014.5296 430.89777 21.919371)
(1158.83 433.48726 20.098848)
(1304.0419 429.10595 20.443638)
(1448.2828 419.26211 23.5254)
(1590.9557 403.90879 28.860538)
(1731.083 384.11495 36.299874)
(1867.9009 360.44917 45.504817)
(2001.4862 333.65397 55.946695)
(2131.1696 304.11708 67.522121)
(2257.1357 272.56165 79.665201)
(2379.2728 239.42935 91.971738)
(2497.8936 205.14566 104.11186)
(2613.1382 170.23003 115.61951)
(2725.2631 134.91269 126.27135)
(2834.7129 99.661896 135.78841)
(2941.7141 64.588026 143.93231)
(3046.6526 29.93105 150.71248)
(3149.8201 -4.3029323 155.81738)
(3251.4337 -37.699316 159.52732)
(3351.829 -70.434934 161.63826)
(3451.1857 -102.43937 162.4239)
(3549.7406 -133.67659 161.83889)
(3647.594 -164.17868 160.10515)
(3744.8939 -193.99657 157.35048)
(3841.6703 -223.1659 153.79324)
(3938.1069 -251.6424 149.43777)
(4034.0189 -279.64282 144.81726)
(4129.6779 -307.04283 139.62149)
(4224.8569 -333.85639 134.41854)
(4319.7506 -360.27067 129.22372)
(4414.2542 -386.09331 124.04192)
(4508.4907 -411.62613 119.09684)
(4602.5569 -436.70276 114.30013)
(4696.3153 -461.30156 109.75956)
(4790.1537 -485.93184 105.39942)
(4883.9071 -510.03603 101.13655)
(4977.7203 -534.03371 97.011455)
(5071.7098 -557.93707 92.949075)
(16.602849 -96.501114 -121.44717)
(72.289885 -147.92398 -117.86616)
(131.454 -209.29611 -134.90861)
(207.44381 -258.41328 -124.15796)
(300.82155 -311.83049 -119.05236)
(403.25062 -358.67367 -106.46612)
(516.19705 -401.71913 -95.503941)
(636.10171 -440.60704 -82.189414)
(762.46096 -475.53524 -68.855175)
(893.39572 -507.08349 -54.663321)
(1026.5666 -534.97097 -40.136588)
(1162.2955 -560.61958 -25.084889)
(1297.8983 -583.31571 -9.7122054)
(1433.6561 -604.61905 5.4317523)
(1567.9024 -624.24844 20.667235)
(1700.6813 -642.8975 35.60339)
(1830.7927 -660.84803 49.963057)
(1958.3039 -678.35203 63.696145)
(2082.6695 -695.89899 76.488389)
(2204.1142 -713.54372 88.211439)
(2322.0202 -731.47111 98.638338)
(2437.2195 -749.97539 107.67684)
(2549.0313 -768.7696 115.08061)
(2658.4546 -788.42143 121.04885)
(2765.0773 -808.30792 125.40153)
(2869.7305 -829.02988 128.21155)
(2972.2236 -850.08005 129.57708)
(3073.1487 -871.63274 129.55658)
(3172.5596 -893.58945 128.27055)
(3270.984 -915.90467 126.0034)
(3368.5089 -938.57464 122.80384)
(3465.3083 -961.40839 118.86408)
(3561.5756 -984.42091 114.31555)
(3657.3793 -1007.5466 109.29593)
(3752.8249 -1030.7262 103.95922)
(3847.9423 -1053.912 98.39855)
(3942.7661 -1077.1068 92.708897)
(4037.3335 -1100.2516 87.001592)
(4131.6805 -1123.4695 81.410671)
(4225.7462 -1146.6046 75.878261)
(4319.6802 -1169.8804 70.531391)
(4413.412 -1193.1265 65.391471)
(4507.0819 -1216.5661 60.464856)
(4600.6351 -1240.0337 55.716535)
(4694.2389 -1263.6673 51.166603)
(4787.8554 -1287.3805 46.748061)
(4881.5652 -1311.1562 42.417496)
(-3.9179893e-16 -2.8384427e-17 -1.6191597e-16)
(6.8869455e-16 3.3255846e-16 -2.9305012e-16)
(-3.0379221e-16 -4.0639439e-16 3.7376104e-16)
(8.6048107e-16 -8.7588792e-17 1.0515471e-16)
(5.0258192e-16 -7.4376592e-16 6.4035694e-16)
(-2.9679417e-15 -3.4669267e-16 7.3060073e-16)
(8.9003905e-16 -2.834795e-16 1.0120244e-16)
(42.873986 -59.468151 89.682311)
(81.096485 -169.92719 106.72286)
(136.50106 -184.7318 95.420009)
(223.73735 -266.86529 85.751901)
(317.13993 -312.87883 72.655892)
(423.18991 -369.14448 54.873386)
(539.30718 -420.0295 44.00932)
(659.5422 -466.27277 30.447155)
(788.15179 -511.75634 22.948087)
(916.93486 -549.73343 15.162141)
(1050.9753 -589.01438 12.493955)
(1187.2158 -619.86372 8.4830604)
(1321.2699 -651.76089 10.429021)
(1456.2355 -678.76213 12.896143)
(1588.5954 -702.90639 17.7338)
(1720.1262 -725.77528 24.447189)
(1848.6325 -744.79736 32.065556)
(1975.266 -763.07783 40.879947)
(2098.8095 -778.90926 50.136032)
(2220.0733 -793.79492 59.575853)
(2338.4881 -807.40364 68.856284)
(2454.5758 -820.40821 77.65156)
(2568.1939 -832.96131 85.665755)
(2679.7505 -845.31832 92.692651)
(2789.1443 -857.91479 98.677292)
(2896.7108 -870.66173 103.35553)
(3002.8063 -883.93876 106.72738)
(3107.4195 -897.87311 108.87216)
(3210.572 -912.66522 109.82435)
(3312.6493 -928.32713 109.62879)
(3413.5858 -944.85475 108.45727)
(3513.6255 -962.30321 106.35426)
(3612.8015 -980.61669 103.49044)
(3711.1961 -999.74161 99.977404)
(3808.8439 -1019.6683 95.977773)
(3905.8207 -1040.231 91.644713)
(4002.0575 -1061.4096 87.078073)
(4097.7489 -1083.2367 82.301257)
(4192.7821 -1105.4645 77.665196)
(4287.2754 -1128.1038 72.976505)
(4381.3246 -1151.0849 68.438988)
(4474.9722 -1174.351 64.001925)
(4568.3761 -1197.7889 59.655151)
(4661.6205 -1221.4248 55.358638)
(4754.8483 -1245.1307 51.071837)
(4848.1681 -1268.9283 46.728169)
(4941.6494 -1292.6594 42.26538)
(5059.0192 -1222.7035 44.175945)
(5082.9374 -1128.8257 50.523213)
(5106.7627 -1034.6758 56.84064)
(5130.7108 -940.53342 63.116696)
(5154.4011 -846.09176 69.360515)
(5178.1344 -751.82668 75.661199)
(5201.8503 -657.59699 82.013194)
(5131.4802 -539.58289 93.148276)
(5037.5068 -515.55383 97.986049)
(4943.7061 -491.37442 102.87073)
(4850.1985 -466.97668 107.95826)
(4756.8337 -442.36092 113.20632)
(4663.5469 -417.51892 118.62249)
(4570.2877 -392.57134 124.21422)
(4476.9099 -367.45913 129.90762)
(4383.3651 -342.34059 135.7354)
(4289.5634 -317.22968 141.57271)
(4195.2373 -292.18913 147.2951)
(4100.5148 -267.13682 152.9692)
(4005.2218 -242.33467 158.13291)
(3909.3302 -217.66637 163.15783)
(3812.6321 -193.04528 167.55218)
(3715.0871 -168.49999 171.34119)
(3616.6099 -143.92044 174.32597)
(3516.9289 -119.25886 176.42647)
(3416.0005 -94.219053 177.30423)
(3313.4932 -69.038213 177.17892)
(3209.2529 -43.110176 175.41965)
(3103.0051 -16.814037 172.34488)
(2994.4257 10.483594 167.52536)
(2883.3629 38.332258 161.22709)
(2769.4293 67.183544 153.06877)
(2652.438 96.762515 143.35616)
(2532.1553 127.13456 131.97633)
(2408.4267 157.9842 119.1975)
(2281.1049 189.18669 105.05796)
(2150.2124 220.20039 89.919855)
(2015.6623 250.74346 73.756536)
(1877.8262 280.09679 57.203899)
(1737.0582 307.60816 40.230246)
(1593.6794 331.80361 23.154301)
(1448.1124 353.67868 5.9981459)
(1301.3772 370.14834 -10.029972)
(1154.8677 382.48633 -26.37005)
(1009.2656 387.84807 -41.068354)
(866.44757 386.81302 -55.521679)
(728.94563 376.21802 -68.033482)
(596.55366 360.56982 -80.391286)
(471.37696 333.13135 -90.513524)
(359.44695 298.61342 -99.279649)
(257.57819 255.36526 -105.50573)
(173.81688 205.53082 -105.76807)
(104.88079 142.86555 -100.62772)
(83.171137 89.079283 -68.737191)
(-6.7652979e-16 3.5118239e-16 1.2802193e-16)
(-2.3129286e-15 2.7505878e-16 1.3239036e-16)
(-3.6393531e-15 -1.4253491e-16 -1.5464221e-16)
(-4.9195801e-15 -9.3657526e-16 4.6870719e-16)
(-4.0844143e-15 -8.2232132e-16 1.723462e-16)
(-2.0271537e-15 -1.8079967e-16 2.6438577e-16)
(-2.0670014e-15 8.6459225e-16 1.4474963e-15)
(-4.5036838e-15 1.2268482e-15 -2.065022e-16)
(-1.9919023e-15 1.1694967e-15 -1.6367101e-16)
(-2.9438013e-15 1.1112212e-15 -1.969436e-16)
(-2.4504202e-15 9.597151e-16 -1.1789697e-16)
(-5.2893259e-15 2.5926013e-15 -8.0820905e-16)
(-1.8775489e-15 1.1365606e-15 -5.8525306e-16)
(-7.4714327e-17 -2.094137e-16 9.7564992e-17)
(4982.7704 -1332.7208 38.030737)
(4990.2013 -1330.5045 37.964522)
(4997.6041 -1328.1852 37.884705)
(5005.0447 -1325.8164 37.855953)
(5012.547 -1323.4682 37.757467)
(5020.0592 -1321.0448 37.79889)
(5027.6274 -1318.6855 37.775642)
(5173.2072 -579.79918 88.752986)
(5180.5656 -577.75597 88.705689)
(5187.9836 -575.6005 88.630132)
(5195.4645 -573.3455 88.598159)
(5202.9662 -571.00715 88.544283)
(5210.5567 -568.53356 88.472791)
(5218.117 -566.01148 88.430428)
(26.682993 52.692173 71.819274)
(76.704868 93.134349 61.935831)
(144.19894 139.03934 62.428496)
(231.94597 178.334 54.176011)
(333.11657 213.25799 44.86046)
(449.5464 243.79074 36.031618)
(574.01403 266.86348 27.465561)
(707.87701 285.40492 21.541886)
(846.68405 295.97211 16.504385)
(989.93453 302.02387 14.490837)
(1134.6816 301.30235 14.349558)
(1280.3297 295.94228 16.287467)
(1425.1406 285.72676 20.698096)
(1568.4438 271.00245 26.810511)
(1709.0645 252.65208 34.879701)
(1846.4679 230.75574 44.368103)
(1980.5535 206.25754 55.047359)
(2110.7026 179.15557 66.531134)
(2237.0365 150.34903 78.435275)
(2359.5537 119.87879 90.38744)
(2478.4008 88.351591 102.08064)
(2593.7911 56.013979 113.06717)
(2706.0878 23.177564 123.22906)
(2815.4563 -9.8609483 132.18366)
(2922.4315 -42.87028 139.85208)
(3027.1018 -75.724344 146.08641)
(3130.0837 -108.16799 150.86611)
(3231.3948 -140.15776 154.10735)
(3331.4624 -171.63201 155.98672)
(3430.5154 -202.542 156.4992)
(3528.73 -232.84203 155.75694)
(3626.2454 -262.56715 153.91501)
(3723.2164 -291.71323 151.13561)
(3819.7164 -320.24532 147.49788)
(3915.8263 -348.28345 143.29924)
(4011.5464 -375.73425 138.59207)
(4106.938 -402.72128 133.57134)
(4201.9695 -429.17072 128.4167)
(4296.6632 -455.18885 123.24081)
(4391.0528 -480.778 118.09213)
(4485.1722 -506.03739 113.1503)
(4579.1164 -530.85381 108.28168)
(4672.8006 -555.52766 103.71877)
(4766.5939 -579.90009 99.253996)
(4860.2306 -604.08179 94.96637)
(4953.9973 -628.11403 90.767625)
(5047.9268 -652.09441 86.681349)
(5.6642821 32.91162 45.692307)
(54.608454 52.93741 38.485461)
(124.22739 89.753007 37.715124)
(210.67895 113.23071 30.893377)
(314.02754 138.56942 24.183166)
(428.35294 157.73286 17.316721)
(553.29162 172.90482 12.726622)
(687.01767 182.68449 8.0150924)
(825.50596 187.6063 6.849273)
(968.32268 188.1276 6.3123193)
(1113.1184 183.70077 8.2970135)
(1258.6967 175.59943 12.017825)
(1403.5695 163.31251 17.777804)
(1546.83 147.44145 25.157729)
(1687.5117 128.61758 34.08245)
(1825.1495 107.18549 44.061698)
(1959.3043 83.412505 54.972816)
(2089.6135 57.624687 66.503823)
(2216.1951 30.266706 78.17481)
(2338.8589 1.506851 89.853404)
(2457.8692 -28.216751 101.03638)
(2573.3873 -58.707571 111.53867)
(2685.6812 -89.659077 121.08635)
(2795.1225 -120.80459 129.41909)
(2902.014 -152.07052 136.48951)
(3006.6603 -183.17824 142.16083)
(3109.4755 -214.00616 146.40927)
(3210.6831 -244.59471 149.21899)
(3310.5137 -274.68623 150.68716)
(3409.4216 -304.40609 150.88849)
(3507.3698 -333.62381 149.869)
(3604.6674 -362.37083 147.86972)
(3701.4287 -390.6164 144.89711)
(3797.7013 -418.39484 141.23678)
(3893.6202 -445.71723 136.9671)
(3989.1064 -472.5762 132.2563)
(4084.3077 -499.00427 127.29332)
(4179.1548 -524.97244 122.12371)
(4273.6955 -550.62236 117.00247)
(4367.9814 -575.84737 111.88667)
(4461.9243 -600.84034 106.91579)
(4555.798 -625.48706 102.11747)
(4649.3761 -649.94349 97.503243)
(4743.0382 -674.25866 93.052394)
(4836.6059 -698.36706 88.730145)
(4930.2879 -722.38858 84.516962)
(5024.1925 -746.34742 80.379398)
(-7.477994 15.598085 23.878194)
(40.989588 27.472568 16.203795)
(106.47875 45.383747 12.707878)
(195.31707 59.266128 7.2477411)
(296.1992 70.880185 2.020785)
(412.48793 80.491206 -1.6346987)
(537.75027 84.348852 -5.7357567)
(670.79544 86.676684 -5.8196603)
(809.06516 83.845644 -5.8079168)
(951.81259 78.607593 -3.677891)
(1095.7035 69.726029 0.43365664)
(1240.8167 58.017272 5.8322254)
(1385.0137 43.478491 13.128834)
(1527.8335 26.248458 21.599873)
(1668.1013 7.0810136 31.360054)
(1805.5487 -14.537292 41.819363)
(1939.4585 -37.826159 53.255319)
(2069.7651 -62.793517 64.842489)
(2196.1933 -89.07006 76.691035)
(2318.7904 -116.37905 88.178734)
(2437.7148 -144.56612 99.197014)
(2553.1518 -173.37218 109.37556)
(2665.3737 -202.56258 118.54135)
(2774.7001 -232.03165 126.5034)
(2881.4855 -261.5951 133.19757)
(2985.9485 -291.08312 138.44657)
(3088.562 -320.44353 142.34943)
(3189.4334 -349.59477 144.81403)
(3289.1704 -378.355 145.91334)
(3387.7381 -406.85582 145.84382)
(3485.4595 -434.97444 144.64776)
(3582.5441 -462.70118 142.41057)
(3679.0608 -490.06027 139.3497)
(3775.1287 -517.02093 135.57933)
(3870.8124 -543.63724 131.24959)
(3966.1652 -569.82589 126.50882)
(4061.2017 -595.70004 121.49244)
(4155.922 -621.22212 116.34091)
(4250.3393 -646.401 111.16558)
(4344.4837 -671.29602 105.99771)
(4438.4124 -695.9707 101.02801)
(4532.1818 -720.33389 96.113704)
(4625.7499 -744.67346 91.460157)
(4719.3748 -768.74066 86.901007)
(4812.9339 -792.81308 82.530317)
(4906.5905 -816.71288 78.227929)
(5000.4117 -840.61617 74.082083)
(-12.309661 -1.2886441 -2.4068063)
(34.340238 -1.3800291 -12.696547)
(99.893062 4.6548173 -16.377751)
(185.0212 4.8667264 -18.907958)
(287.50599 4.3934726 -20.884809)
(401.63284 2.8176647 -22.740893)
(525.0138 -3.0997611 -20.705487)
(656.54229 -9.21873 -19.717467)
(793.77554 -19.107653 -16.306047)
(934.6816 -29.864255 -11.582968)
(1077.7771 -43.58091 -5.8413275)
(1222.1908 -58.646322 1.4049225)
(1365.4692 -75.843687 9.8716286)
(1507.7807 -94.782773 19.616689)
(1647.5817 -115.00964 29.906618)
(1784.738 -136.98554 41.332614)
(1918.3157 -159.88539 53.009432)
(2048.3511 -184.1738 64.995123)
(2174.5708 -209.25082 76.81524)
(2297.0038 -235.13293 88.154023)
(2415.8437 -261.8467 98.959339)
(2531.1306 -288.89622 108.72512)
(2643.3932 -316.25282 117.44545)
(2752.6246 -344.0373 124.95746)
(2859.2134 -371.75538 131.11129)
(2963.6783 -399.5954 135.8244)
(3066.1627 -427.241 139.13108)
(3167.1234 -454.85949 141.09312)
(3266.7447 -482.19554 141.74035)
(3365.2285 -509.38291 141.29093)
(3462.9115 -536.30323 139.65915)
(3559.8846 -562.92705 137.13387)
(3656.3268 -589.34713 133.81833)
(3752.3044 -615.443 129.82572)
(3847.9318 -641.30122 125.34064)
(3943.1666 -666.83153 120.46557)
(4038.1201 -692.17 115.39718)
(4132.7449 -717.16311 110.162)
(4227.0923 -741.96697 104.936)
(4321.2194 -766.50908 99.780524)
(4415.0259 -790.91261 94.744239)
(4508.7511 -815.11038 89.861307)
(4602.247 -839.2335 85.175559)
(4695.8108 -863.22654 80.635428)
(4789.2811 -887.20828 76.239554)
(4882.8691 -911.07049 71.943544)
(4976.6317 -934.95401 67.73234)
(-16.637859 -18.132454 -26.615635)
(33.017405 -23.458987 -38.073523)
(93.424504 -33.291264 -40.959196)
(180.89612 -45.21917 -43.18707)
(280.75541 -57.755109 -44.165138)
(394.43779 -71.346134 -41.400096)
(516.54825 -86.543652 -39.400738)
(647.77207 -101.37747 -35.373249)
(782.99462 -118.50073 -29.838319)
(923.12171 -135.32864 -23.303916)
(1064.747 -154.03004 -15.486813)
(1207.5171 -172.50538 -6.2783879)
(1349.6647 -192.84278 3.9576427)
(1490.8574 -213.14432 14.855663)
(1629.6586 -234.78992 26.675599)
(1765.8226 -257.00907 38.920773)
(1898.7151 -280.01449 51.305252)
(2028.2001 -303.68496 63.605021)
(2153.9639 -327.88345 75.644268)
(2276.1605 -352.67533 86.969189)
(2394.6803 -378.08859 97.807993)
(2509.9602 -403.5463 107.08226)
(2621.8386 -429.41671 115.69095)
(2730.924 -455.51375 122.84646)
(2837.521 -481.71146 128.48661)
(2941.7817 -507.91529 132.80064)
(3044.1703 -534.15848 135.74028)
(3144.9138 -560.37097 137.32117)
(3244.3406 -586.43079 137.64781)
(3342.6887 -612.41023 136.80558)
(3440.2107 -638.19808 134.91435)
(3537.0395 -663.82782 132.15304)
(3633.3513 -689.3044 128.62945)
(3729.217 -714.5423 124.46701)
(3824.7034 -739.63455 119.86464)
(3919.8679 -764.50478 114.89903)
(4014.7207 -789.18903 109.72418)
(4109.265 -813.68718 104.43576)
(4203.5591 -837.97911 99.159514)
(4297.519 -862.18196 93.94007)
(4391.3542 -886.17993 88.832651)
(4484.9907 -910.11327 83.883837)
(4578.5421 -933.98725 79.110595)
(4672.0298 -957.79998 74.492993)
(4765.54 -981.63836 70.029713)
(4859.1223 -1005.3879 65.652388)
(4952.841 -1029.1989 61.400958)
(-13.780984 -37.332761 -57.495112)
(38.541296 -56.238629 -64.885397)
(99.440595 -81.158997 -72.037984)
(185.0021 -106.45012 -71.903289)
(283.06663 -131.66501 -68.610414)
(393.46944 -156.33625 -63.812607)
(513.78921 -181.17774 -58.082111)
(641.45705 -204.53238 -50.425866)
(774.69537 -228.34036 -42.372039)
(912.05218 -250.62143 -32.910969)
(1051.8464 -273.31806 -22.879973)
(1192.6997 -295.08217 -11.834912)
(1333.1528 -317.13171 -0.24053857)
(1472.7057 -338.9162 12.199755)
(1610.144 -360.70684 24.934567)
(1745.3252 -382.62507 37.962705)
(1877.3047 -404.67394 50.872969)
(2006.1702 -426.99542 63.650092)
(2131.4068 -449.61362 75.860224)
(2253.2349 -472.55925 87.348074)
(2371.4664 -495.73014 97.949335)
(2486.4474 -519.49223 107.13436)
(2598.4301 -543.05188 115.60239)
(2707.2884 -567.1631 121.94381)
(2813.8443 -591.36924 127.37036)
(2918.0932 -615.81351 131.09537)
(3020.4871 -640.2896 133.42481)
(3121.2612 -664.93947 134.50278)
(3220.6998 -689.62876 134.30445)
(3319.0397 -714.31088 132.99988)
(3416.5413 -738.95882 130.69203)
(3513.3472 -763.57212 127.54434)
(3609.6461 -788.12121 123.67203)
(3705.465 -812.60554 119.26189)
(3800.9628 -837.0018 114.41724)
(3896.0816 -861.26292 109.24733)
(3990.9291 -885.45214 103.93627)
(4085.4723 -909.44934 98.513244)
(4179.732 -933.43005 93.124269)
(4273.7966 -957.26007 87.808652)
(4367.5902 -981.08104 82.641395)
(4461.2629 -1004.7509 77.630741)
(4554.7911 -1028.4545 72.825654)
(4648.2916 -1052.1252 68.190684)
(4741.8039 -1075.8319 63.704707)
(4835.3494 -1099.5275 59.328674)
(4929.0693 -1123.3099 55.039772)
(-5.1597591 -62.69826 -79.044355)
(48.563288 -87.323763 -91.266282)
(108.14527 -130.80175 -99.984585)
(192.95066 -168.24532 -96.928768)
(286.81819 -205.51345 -92.294019)
(396.22245 -242.14585 -84.480576)
(512.7333 -276.19329 -76.223778)
(638.05682 -308.21687 -66.036272)
(768.38184 -338.63173 -55.875112)
(903.10793 -366.10841 -44.070717)
(1040.6381 -393.48233 -32.05337)
(1178.7111 -417.49673 -19.170193)
(1317.4441 -441.86073 -5.6047185)
(1454.9969 -464.07744 8.0819821)
(1591.2668 -486.11743 22.024376)
(1725.1047 -507.38063 35.999949)
(1856.2487 -528.47667 49.705126)
(1984.3056 -549.41891 62.96485)
(2108.9732 -570.37218 75.461215)
(2230.407 -591.4649 87.079473)
(2348.3532 -612.76264 97.540637)
(2463.2544 -634.44757 106.81927)
(2574.8329 -656.3343 114.53829)
(2683.8939 -678.55477 120.85262)
(2790.3537 -701.09496 125.79931)
(2894.5953 -723.84903 129.03579)
(2997.036 -746.80242 131.13529)
(3097.7078 -770.14008 131.78986)
(3197.0655 -793.43426 131.14164)
(3295.3464 -816.91905 129.39598)
(3392.7891 -840.43111 126.6798)
(3489.5772 -864.06287 123.16706)
(3585.8108 -887.70088 118.99645)
(3681.6311 -911.35097 114.30705)
(3777.0721 -934.96897 109.21059)
(3872.2023 -958.57723 103.88492)
(3967.0241 -982.10689 98.38042)
(4061.5507 -1005.5877 92.818196)
(4155.875 -1029.0278 87.323983)
(4249.9049 -1052.4421 81.910914)
(4343.7512 -1075.8356 76.636013)
(4437.4251 -1099.253 71.556699)
(4530.9859 -1122.7386 66.685476)
(4624.5024 -1146.2727 61.986996)
(4718.0148 -1169.8857 57.460598)
(4811.618 -1193.5634 53.044303)
(4905.2927 -1217.328 48.737285)
(-1.8726199e-15 -1.0357256e-16 4.2324109e-16)
(-4.3693994e-15 5.8098526e-16 1.0825799e-16)
(-1.86708e-15 5.0203615e-16 5.7484399e-16)
(-1.1298519e-15 4.4303811e-16 -1.5186772e-16)
(-1.5283164e-15 1.7502349e-16 4.7144117e-17)
(-3.9278597e-15 -6.147074e-18 -1.0233878e-17)
(-3.270765e-15 8.5080195e-17 2.8271762e-17)
(-1.444637e-15 3.1767481e-17 -1.0328492e-16)
(-1.9600489e-15 -2.0641393e-16 2.5996682e-17)
(-1.0758982e-15 -5.0887233e-16 -1.6282415e-16)
(-1.1902312e-15 -6.3217422e-16 -1.0496995e-16)
(-2.2455722e-15 -1.0363924e-16 3.7607835e-16)
(-1.7254929e-15 1.2766475e-16 7.9907906e-17)
(-6.542485e-16 2.4659353e-16 4.7610311e-16)
(-1.0183069e-15 2.0413811e-16 3.0876606e-16)
(-1.2825224e-16 3.2154578e-16 2.6910031e-16)
(-2.4669526e-15 5.8726168e-16 -3.2350189e-17)
(-1.9694108e-15 5.8752001e-16 2.9593509e-16)
(-1.9972486e-15 5.0741204e-16 1.6376266e-16)
(-5.0142844e-16 5.9082617e-16 -1.5096731e-17)
(2.8672985e-17 2.0007103e-16 -2.079567e-16)
(-3.5598279e-15 1.6770216e-16 6.1584209e-17)
(1.5219227e-15 -3.8112137e-16 -3.4960392e-16)
(-8.8364966e-17 -1.5289127e-16 1.7491834e-16)
(2.7397895e-16 -2.6900304e-16 -2.0413732e-16)
(-5.1236454e-16 -3.7600259e-16 -4.411389e-17)
(-1.3114086e-15 -5.3747975e-16 1.2489795e-16)
(2.0041989e-16 -4.4379834e-16 -1.4360784e-16)
(-1.3448657e-15 3.3966264e-16 -2.7012678e-16)
(-2.2010094e-15 1.2158219e-16 1.1470551e-16)
(-1.2722141e-15 -2.3577892e-16 -7.7366055e-17)
(-2.6936153e-15 2.298542e-17 6.0151854e-16)
(-1.8084585e-15 2.5926424e-16 8.2177642e-17)
(-1.0121806e-15 3.7760621e-16 1.5728837e-17)
(-3.5076342e-15 -1.049112e-16 -1.8966684e-16)
(-1.2388067e-16 -2.746004e-16 -1.3203227e-16)
(-1.1077126e-15 -2.2449831e-16 5.9960705e-17)
(-7.9462407e-16 5.2806017e-17 1.8160622e-16)
(-1.481116e-15 2.6347307e-16 -6.003674e-17)
(5.3541372e-16 1.9494005e-16 5.7756958e-17)
(-2.5861876e-15 -7.0653702e-17 -1.8824779e-16)
(-1.6152529e-15 1.8241927e-16 3.8488004e-16)
(-1.0389662e-15 3.299921e-17 2.9700946e-16)
(-3.8817577e-15 -1.9427146e-16 -1.2145786e-15)
(-1.6161979e-15 2.8442108e-16 -1.856842e-16)
(8.1577518e-16 1.8112067e-17 2.0819295e-16)
(-2.485062e-15 2.8178417e-16 -5.4749215e-16)
(-1.8307085e-15 4.4562511e-16 -1.4619564e-16)
(-1.4586292e-15 4.0358521e-16 -4.0281137e-16)
(52.97254 -31.532644 -62.393969)
(61.646032 -39.560429 -42.917762)
(71.163619 -41.637117 -24.305156)
(75.027201 -43.72259 -8.5039464)
(72.960745 -40.742223 7.5912643)
(69.337327 -42.085016 24.638867)
(58.736295 -30.412614 46.772755)
(106.20076 -144.59033 -99.717012)
(124.0787 -159.5407 -58.780769)
(131.67124 -149.40105 -32.582052)
(132.70476 -145.09618 -10.550171)
(134.70855 -153.3123 10.679167)
(123.88518 -151.40119 36.733363)
(113.99818 -151.32379 72.818432)
(156.37479 -196.66774 -101.44283)
(177.36147 -189.01436 -75.837531)
(191.50505 -196.06652 -43.059606)
(193.76542 -196.02731 -16.969826)
(192.35452 -192.85705 12.248595)
(182.78434 -193.62588 34.320328)
(168.84798 -202.20599 73.375812)
(236.38423 -266.656 -99.282943)
(254.15098 -271.92916 -75.887427)
(264.6558 -269.65998 -45.212173)
(269.40131 -270.38391 -21.970488)
(268.07429 -271.73446 4.1966056)
(260.75111 -275.85074 34.036706)
(243.69674 -269.85712 58.831412)
(322.53278 -320.90147 -96.705613)
(340.18058 -321.31178 -75.779525)
(353.45232 -325.29146 -49.665268)
(357.18483 -325.17499 -25.091843)
(357.41315 -327.81004 -0.23622734)
(350.0747 -327.25319 22.778636)
(338.43216 -330.03419 50.801784)
(423.96114 -371.36372 -87.307323)
(438.00197 -374.30416 -69.854552)
(448.34102 -375.79188 -47.301923)
(453.35037 -379.56639 -28.432262)
(452.47167 -380.35873 -5.6237278)
(448.19785 -381.3029 16.389867)
(436.48859 -379.64043 36.246512)
(532.9214 -413.86936 -80.148008)
(546.21078 -419.42659 -64.420779)
(556.35115 -425.82821 -46.068796)
(560.53309 -427.97857 -29.197881)
(561.57366 -431.82252 -9.3634269)
(557.87593 -434.03213 7.3383065)
(550.2255 -434.34437 26.619063)
(650.49507 -455.55822 -69.438584)
(661.77762 -462.2082 -57.952296)
(670.45275 -466.3207 -42.541579)
(674.58181 -471.46589 -28.693454)
(675.91329 -473.69235 -13.524055)
(673.18221 -475.07472 2.651377)
(667.1495 -474.68153 16.771042)
(774.35583 -490.38728 -59.504721)
(783.79561 -497.82663 -49.107739)
(790.85072 -505.27746 -37.367203)
(795.21225 -510.14374 -26.853202)
(796.75019 -516.37182 -14.26802)
(796.27072 -518.07142 -2.0308428)
(792.02135 -521.19589 10.608315)
(901.92691 -522.78614 -47.344835)
(910.13071 -531.99317 -40.989465)
(916.99833 -538.49893 -31.497665)
(920.81433 -545.70653 -21.891174)
(922.46473 -549.67948 -12.587775)
(922.6808 -553.06677 -2.9052672)
(920.25192 -555.18736 6.5893938)
(1034.1126 -551.49275 -35.283773)
(1040.4186 -560.48916 -29.9709)
(1045.5153 -569.47633 -22.606645)
(1048.8503 -575.36055 -17.556586)
(1051.1606 -582.47584 -9.99925)
(1052.2042 -587.28288 -3.0030674)
(1050.5853 -591.85794 4.8730457)
(1166.976 -576.78139 -22.255981)
(1172.101 -587.09515 -18.667848)
(1176.316 -596.30697 -15.187418)
(1180.2508 -604.74931 -10.357916)
(1182.248 -611.80689 -5.146864)
(1183.3577 -616.35476 -0.29018008)
(1184.8192 -622.15083 3.4808737)
(1301.289 -600.68613 -8.485001)
(1304.5899 -610.47579 -6.8968367)
(1308.4992 -620.87555 -4.4443271)
(1311.3344 -628.53552 -2.0051339)
(1313.6301 -636.27071 0.7713929)
(1316.2863 -643.87922 3.6775946)
(1317.8633 -649.30076 6.5192759)
(1434.9752 -621.23652 5.0888924)
(1437.797 -632.34104 5.5465263)
(1441.0045 -642.96542 5.9980599)
(1443.5574 -651.87954 7.1554408)
(1446.5073 -661.12122 8.6226862)
(1448.92 -667.97793 10.005517)
(1451.7494 -675.09406 11.031948)
(1568.1631 -641.22887 19.316538)
(1570.0502 -652.20951 18.759415)
(1572.174 -662.81372 17.859372)
(1574.6961 -672.31888 18.146539)
(1577.1778 -680.81983 17.475758)
(1580.2173 -689.22426 17.907981)
(1583.5415 -696.94013 17.177662)
(1699.7644 -659.13882 33.509736)
(1700.7741 -670.29762 31.77649)
(1702.6406 -681.51384 30.180196)
(1704.8045 -691.20525 28.777528)
(1707.5292 -700.70515 27.705325)
(1710.7677 -709.78168 26.640429)
(1714.512 -718.00394 25.034542)
(1829.0349 -676.50087 47.262117)
(1829.606 -687.85894 45.22437)
(1830.9161 -698.81514 42.506555)
(1832.6985 -708.588 40.838132)
(1835.5464 -718.14241 38.447317)
(1838.6862 -727.26936 36.634855)
(1842.8972 -736.13771 33.93145)
(1956.0467 -693.259 60.828288)
(1956.233 -704.36422 57.949223)
(1957.0939 -715.19857 55.087033)
(1958.9095 -725.22 52.418858)
(1961.6087 -734.6619 49.455992)
(1964.973 -744.39396 46.979941)
(1969.2366 -753.20929 43.507527)
(2080.1699 -709.75155 73.362543)
(2079.9381 -720.44303 70.474383)
(2080.7608 -731.05467 67.157076)
(2082.1887 -740.73047 64.096528)
(2085.1177 -750.13759 60.720966)
(2088.2687 -759.63811 57.652808)
(2092.9011 -768.78064 53.537325)
(2201.3319 -726.1964 85.197317)
(2201.2493 -736.46975 82.062694)
(2201.6874 -746.56106 78.518567)
(2203.3504 -756.18055 75.209071)
(2206.1334 -765.13929 71.435813)
(2209.4879 -774.79172 68.002147)
(2214.0936 -783.47157 63.508757)
(2319.663 -742.88131 95.723177)
(2319.4078 -752.4596 92.579213)
(2320.0036 -762.0357 89.093143)
(2321.5825 -771.04779 85.547668)
(2324.5388 -779.70854 81.6761)
(2327.8249 -788.80933 77.96951)
(2332.6154 -797.325 73.211623)
(2434.9572 -759.85121 104.93888)
(2435.0313 -768.7048 101.95696)
(2435.5879 -777.51565 98.425052)
(2437.4531 -786.1679 94.883966)
(2440.378 -794.1746 90.956615)
(2443.8806 -802.93916 87.071813)
(2448.6759 -810.86799 82.255726)
(2547.4895 -777.28204 112.66305)
(2547.777 -785.31766 109.86149)
(2548.6241 -793.46191 106.49138)
(2550.6795 -801.29907 103.00336)
(2553.8093 -808.7158 99.129385)
(2557.3914 -816.79972 95.228443)
(2562.341 -824.17103 90.406002)
(2657.3889 -795.33103 118.83577)
(2658.1081 -802.43073 116.29997)
(2659.2665 -809.64098 113.07765)
(2661.6826 -816.75899 109.79234)
(2664.8338 -823.57653 106.05545)
(2668.7847 -830.90297 102.11436)
(2673.7475 -837.55814 97.463005)
(2764.86 -813.81335 123.5461)
(2766.0177 -820.12457 121.14138)
(2767.7042 -826.43918 118.31629)
(2770.2589 -832.71105 115.12804)
(2773.9605 -838.76144 111.54047)
(2777.9485 -845.22785 107.79199)
(2783.1712 -851.1018 103.36935)
(2870.2008 -833.10119 126.56984)
(2871.9759 -838.33115 124.48426)
(2873.9557 -843.6971 122.04729)
(2877.1606 -849.23875 118.70751)
(2880.9441 -854.52633 115.87746)
(2885.3079 -860.08575 112.00841)
(2890.6403 -865.25115 107.91985)
(2973.7311 -852.98052 128.25614)
(2975.7992 -857.25252 126.54228)
(2978.5816 -861.77586 124.18086)
(2981.8901 -866.20571 121.32457)
(2986.1921 -870.73522 118.51984)
(2990.7901 -875.29857 114.66376)
(2996.5845 -879.65967 111.09659)
(3075.3845 -873.30948 128.47943)
(3078.2459 -876.46616 127.08398)
(3081.3394 -880.09108 124.80264)
(3085.3846 -883.79824 122.426)
(3089.8487 -887.60896 119.62635)
(3094.9775 -891.23798 116.29625)
(3100.8938 -894.74688 112.88629)
(3175.7466 -894.15731 127.45376)
(3179.1227 -896.61796 126.235)
(3182.9428 -899.31742 124.34533)
(3187.281 -902.19162 122.18391)
(3192.2847 -905.08059 119.74847)
(3197.6122 -907.9488 116.67699)
(3203.8272 -910.52831 113.50847)
(3274.9047 -915.67888 125.34125)
(3278.8904 -917.14249 124.38062)
(3283.1778 -919.01334 122.70712)
(3288.0588 -921.07004 120.78513)
(3293.3641 -923.30034 118.59701)
(3299.0997 -925.25362 115.81584)
(3305.5977 -927.15679 112.93737)
(3373.0831 -937.4637 122.26133)
(3377.6254 -938.22363 121.48933)
(3382.4958 -939.3521 120.00633)
(3387.7624 -940.70628 118.37744)
(3393.486 -942.14143 116.45534)
(3399.5614 -943.4392 114.00456)
(3406.2915 -944.54504 111.41324)
(3470.4913 -959.69443 118.43263)
(3475.5842 -959.76462 117.78199)
(3480.8757 -960.18341 116.54342)
(3486.5968 -960.81782 115.12552)
(3492.6547 -961.67004 113.42948)
(3499.0612 -962.23931 111.26263)
(3506.051 -962.71698 108.95028)
(3567.2818 -982.18836 113.93786)
(3572.7968 -981.65229 113.41784)
(3578.5652 -981.47768 112.32096)
(3584.6636 -981.55872 111.13775)
(3591.0395 -981.79229 109.64673)
(3597.7706 -981.76667 107.81058)
(3604.98 -981.668 105.73442)
(3663.499 -1004.907 108.98762)
(3669.455 -1003.8865 108.50338)
(3675.6063 -1003.1778 107.61678)