/*--------------------------------*- C++ -*----------------------------------*\
  =========                 |
  \\      /  F ield         | OpenFOAM: The Open Source CFD Toolbox
   \\    /   O peration     | Website:  https://openfoam.org
    \\  /    A nd           | Version:  6
     \\/     M anipulation  |
\*---------------------------------------------------------------------------*/
FoamFile
{
    version     2.0;
    format      ascii;
    class       pointVectorField;
    location    "1.96";
    object      lm;
}
// * * * * * * * * * * * * * * * * * * * * * * * * * * * * * * * * * * * * * //

dimensions      [1 -2 -1 0 0 0 0];

internalField   nonuniform List<vector> 
3969
(
(0 0 0)
(0 0 0)
(2958.987 -34.580954 -146.48446)
(2935.743 -244.70392 -160.6016)
(0 0 0)
(0 0 0)
(2956.1531 -194.68316 -160.19806)
(2979.5756 16.266501 -147.27636)
(0 0 0)
(0 0 0)
(0 0 0)
(0 0 0)
(0 0 0)
(0 0 0)
(0 0 0)
(2953.4898 -59.12725 -147.44878)
(2949.4042 -84.872484 -148.62533)
(2947.4572 -111.48266 -150.70079)
(2947.4138 -138.72028 -153.0123)
(2947.5081 -166.24561 -155.54282)
(2945.6308 -193.19899 -157.78125)
(2941.1619 -219.22433 -159.42765)
(16.046606 35.5719 36.081385)
(20.282275 60.663967 47.215689)
(32.409638 91.084821 55.726713)
(53.082535 123.00416 60.781952)
(80.432359 155.39592 66.073594)
(116.75172 188.56895 70.222039)
(160.40674 220.61841 75.082652)
(213.00695 252.42381 79.151715)
(273.26944 281.98543 83.728958)
(341.92007 309.90506 87.330731)
(418.17131 335.14522 91.000954)
(501.802 357.73792 93.523736)
(592.32456 376.56509 95.481774)
(689.01187 392.22574 96.196568)
(791.03104 403.60589 95.717911)
(897.59283 411.25945 93.989691)
(1007.7419 414.71492 90.879037)
(1120.5467 414.12482 86.388419)
(1234.9049 409.51964 80.466243)
(1349.81 401.13056 73.229271)
(1464.1226 389.13869 64.767543)
(1576.9391 373.95893 55.19989)
(1687.1822 355.89744 44.714786)
(1794.0783 335.45659 33.496912)
(1896.7802 313.05728 21.739017)
(1994.6945 289.09819 9.6704661)
(2087.1764 264.146 -2.4966043)
(2173.8532 238.63924 -14.535592)
(2254.4341 212.96767 -26.323997)
(2328.8024 187.60371 -37.623251)
(2396.8627 162.85878 -48.331906)
(2458.7582 139.09558 -58.318481)
(2514.671 116.58462 -67.541741)
(2564.889 95.506751 -75.894806)
(2609.8792 76.069549 -83.442025)
(2649.9349 58.463457 -90.224649)
(2685.7882 42.510536 -96.105558)
(2717.801 28.622055 -101.4041)
(2746.806 16.311965 -106.14051)
(2773.0724 5.9327269 -110.42642)
(2797.4765 -2.9997463 -114.3728)
(2820.4718 -10.314074 -118.15256)
(2842.5146 -16.272778 -122.00456)
(2864.6707 -21.447486 -125.89926)
(2886.3693 -25.032714 -130.31633)
(2909.6151 -28.845866 -135.16793)
(2933.0992 -31.417973 -140.74928)
(-5.1883638 -18.098635 -28.248126)
(1.6027788 -34.213529 -28.856598)
(6.824051 -53.389682 -37.795801)
(26.32198 -74.358478 -34.387182)
(53.368304 -97.988388 -32.885913)
(87.85086 -120.97671 -28.025066)
(131.93136 -146.12146 -22.589224)
(182.92856 -170.67765 -15.718714)
(242.94199 -196.51145 -8.0139735)
(310.64754 -221.80786 0.78770173)
(385.98699 -247.48587 9.8044025)
(468.88957 -272.38217 19.862894)
(558.21847 -296.81832 29.619046)
(653.8194 -319.94306 39.806067)
(754.51648 -341.77937 49.255078)
(859.79136 -361.75184 58.360321)
(968.68065 -379.82698 66.396283)
(1079.8606 -395.35458 73.410887)
(1192.8579 -408.5944 79.02398)
(1306.0225 -418.91619 83.088781)
(1418.8983 -426.58504 85.523861)
(1530.0466 -431.2929 86.164493)
(1638.9087 -433.15428 84.976408)
(1744.3942 -432.23664 82.020073)
(1846.022 -428.65702 77.39813)
(1942.9435 -422.68066 71.171423)
(2035.1559 -414.59376 63.408821)
(2121.5471 -404.39901 54.284673)
(2202.1899 -392.72156 44.211938)
(2276.967 -379.78588 33.160685)
(2345.7977 -365.94543 21.420388)
(2408.8133 -351.51823 9.158978)
(2466.1323 -336.86495 -3.4384386)
(2518.0798 -322.34423 -16.180319)
(2564.9622 -308.24886 -28.904656)
(2607.1621 -294.86072 -41.541189)
(2645.2498 -282.54508 -53.799829)
(2679.5997 -271.43164 -65.891104)
(2710.7996 -261.63666 -77.404385)
(2739.35 -253.49257 -88.552887)
(2765.8447 -246.92362 -99.212316)
(2790.7522 -241.98913 -109.37268)
(2814.6981 -238.8073 -119.05041)
(2838.0957 -237.23394 -128.21197)
(2861.4645 -237.19829 -136.91212)
(2885.2462 -238.52064 -145.18125)
(2909.8666 -241.1918 -153.0119)
(0 0 0)
(0 0 0)
(0 0 0)
(0 0 0)
(0 0 0)
(0 0 0)
(0 0 0)
(7.8234729 -15.766796 24.765247)
(9.3315676 -55.028689 39.836855)
(12.802206 -62.428172 45.902847)
(32.686387 -99.793012 53.217327)
(56.132742 -121.75853 59.814717)
(90.380406 -150.50468 63.697567)
(131.28826 -178.52837 70.653145)
(181.2457 -205.12558 74.501201)
(238.23878 -232.65392 80.764254)
(303.69808 -258.12208 84.774737)
(376.35786 -283.45469 90.310545)
(456.59328 -305.38233 92.908566)
(544.45472 -327.01718 95.703703)
(637.84957 -345.34835 96.794653)
(737.37071 -361.95746 96.767494)
(841.46669 -375.42383 95.250929)
(949.62418 -386.34192 92.227933)
(1060.6521 -394.17907 87.708735)
(1173.7485 -399.26469 81.70913)
(1287.6979 -401.28355 74.241472)
(1401.6475 -400.67857 65.482408)
(1514.4592 -397.33165 55.516184)
(1625.2879 -391.68254 44.552673)
(1733.2223 -383.79693 32.740923)
(1837.4306 -374.05882 20.378634)
(1936.6747 -362.64607 7.9771419)
(2030.9745 -349.93296 -4.5851417)
(2120.3083 -336.15066 -17.383854)
(2203.7655 -321.73778 -29.930378)
(2281.2993 -307.07336 -42.053)
(2352.7591 -292.38044 -53.583357)
(2418.1933 -277.96073 -64.446444)
(2477.7602 -264.03403 -74.548943)
(2531.6755 -250.87325 -83.810832)
(2580.3247 -238.62572 -92.243235)
(2623.8636 -227.35736 -99.845061)
(2663.2968 -217.85193 -106.52714)
(2698.5142 -208.56068 -112.72935)
(2730.4589 -201.54491 -118.1583)
(2759.5071 -195.5856 -123.05913)
(2786.3022 -191.12612 -127.57407)
(2811.4077 -188.01967 -131.87702)
(2835.3903 -186.30061 -136.04484)
(2858.7543 -185.88439 -140.27877)
(2882.0679 -186.62983 -144.73425)
(2905.7602 -188.53571 -149.53016)
(2930.0066 -191.22289 -154.79229)
(2961.8892 -169.44005 -158.35913)
(2965.9753 -143.28368 -156.50505)
(2967.2947 -116.40018 -154.93101)
(2966.9958 -89.074811 -153.60165)
(2967.2063 -61.478841 -152.26323)
(2969.8089 -35.09147 -150.8517)
(2974.3496 -8.9339916 -149.24768)
(2953.2587 19.409535 -139.93778)
(2929.2696 22.363297 -132.85571)
(2905.5202 26.330183 -125.39607)
(2882.3827 31.177791 -117.70836)
(2859.4035 37.331341 -109.56774)
(2836.048 44.952829 -101.06663)
(2811.873 54.214558 -92.181176)
(2786.3634 65.219611 -82.851038)
(2758.9648 78.04066 -73.083436)
(2729.1082 92.563766 -62.919454)
(2696.4317 109.04524 -52.300382)
(2659.3564 127.45585 -41.673028)
(2619.3129 146.90703 -30.248562)
(2574.0269 168.03423 -18.983211)
(2523.8193 190.15525 -7.4964156)
(2468.1022 213.09883 3.8184102)
(2406.6181 236.51657 14.915442)
(2339.0731 260.048 25.566301)
(2265.3872 283.2514 35.597234)
(2185.4814 305.79243 44.779187)
(2099.5085 327.14819 52.958179)
(2007.6603 346.97452 59.900726)
(1910.1999 364.88555 65.366807)
(1807.7951 380.4491 69.37385)
(1700.9564 393.34387 71.711765)
(1590.4294 403.33639 72.308235)
(1477.0775 410.08005 71.197017)
(1361.8292 413.54842 68.323148)
(1245.7319 413.47605 63.893973)
(1129.7353 409.97628 57.87589)
(1015.1672 402.99478 50.595806)
(902.75514 392.73676 42.249062)
(793.92813 379.27536 32.994177)
(690.12766 362.30999 23.554383)
(591.18197 342.9037 13.036487)
(498.03726 321.41929 3.5807051)
(412.81187 297.52145 -6.2929402)
(334.36818 271.87449 -15.236765)
(264.12049 245.30113 -23.862811)
(202.77233 216.36316 -31.07497)
(149.9642 187.88948 -37.437252)
(104.25479 159.44418 -42.453095)
(69.103127 129.74117 -46.47975)
(41.381539 101.74942 -47.421693)
(22.277079 75.81619 -46.871327)
(11.929072 46.418505 -41.588045)
(19.185951 27.600378 -25.112348)
(0 0 0)
(0 0 0)
(0 0 0)
(0 0 0)
(0 0 0)
(0 0 0)
(0 0 0)
(0 0 0)
(0 0 0)
(0 0 0)
(0 0 0)
(0 0 0)
(0 0 0)
(0 0 0)
(2938.2013 -237.55002 -160.42989)
(2940.5145 -230.57061 -160.37992)
(2942.8614 -223.77136 -160.46236)
(2945.2937 -217.2516 -160.56505)
(2947.8591 -210.9972 -160.63367)
(2950.5859 -205.23134 -160.70342)
(2953.4439 -199.63721 -160.28067)
(2960.985 -29.161 -146.77032)
(2963.1914 -23.188173 -147.00814)
(2965.5702 -17.015091 -147.16122)
(2968.1538 -10.585219 -147.18286)
(2970.9252 -4.0006835 -147.12984)
(2973.7888 2.6650925 -147.12926)
(2976.7009 9.3803299 -147.20351)
(4.1723062 29.094303 35.341903)
(9.5236214 49.583708 38.075756)
(19.774757 75.593565 45.415431)
(39.659041 100.25834 50.06292)
(65.912743 124.93766 54.527767)
(102.19395 150.51455 58.90303)
(145.6009 174.62572 63.025508)
(197.84373 198.47533 67.927065)
(258.56315 220.07956 71.883965)
(327.25133 240.55395 76.383566)
(403.89775 258.44002 80.061163)
(487.97512 273.85146 83.483581)
(579.32135 286.67002 85.856076)
(676.65515 296.4959 87.485113)
(779.71898 303.13478 88.151545)
(887.36833 306.68418 87.48119)
(998.7103 306.99121 85.71419)
(1112.6809 304.12409 82.596866)
(1228.3062 298.28468 78.098778)
(1344.4285 289.60214 72.333118)
(1460.0075 278.3247 65.295887)
(1573.9785 264.76194 57.135978)
(1685.3467 249.20496 47.972051)
(1793.2616 232.06856 37.970357)
(1896.8357 213.61732 27.289602)
(1995.434 194.31296 16.247795)
(2088.4982 174.46529 4.8274713)
(2175.6472 154.3788 -6.6242551)
(2256.4933 134.43865 -17.918276)
(2331.0158 114.89594 -28.965107)
(2399.0822 96.026097 -39.581872)
(2460.8524 78.036806 -49.666255)
(2516.5214 61.090009 -59.117562)
(2566.4349 45.33804 -67.883743)
(2610.9426 30.882954 -75.984792)
(2650.6238 17.704165 -83.326433)
(2685.9016 5.9136294 -90.036217)
(2717.3922 -4.5027535 -96.156283)
(2745.6842 -13.796615 -101.71328)
(2771.4233 -21.757231 -106.94741)
(2795.2259 -28.773022 -111.75666)
(2817.6032 -34.742773 -116.5265)
(2839.2488 -40.010807 -121.1427)
(2860.7616 -44.572875 -125.96445)
(2882.1416 -48.548536 -130.94689)
(2904.94 -52.471435 -136.23499)
(2928.0388 -55.607469 -141.77675)
(-6.7503307 21.75252 26.782198)
(-2.3818592 33.821311 28.907006)
(9.4640065 57.13226 35.017262)
(27.920635 73.362074 39.095849)
(55.783157 93.180441 43.183643)
(90.651298 111.56279 46.888408)
(134.20193 129.42992 52.057718)
(186.86297 146.12874 55.931844)
(247.34346 161.39647 61.255135)
(316.39545 175.31433 65.654879)
(393.29155 186.83477 70.314967)
(477.89206 196.87835 74.211469)
(569.44405 204.14036 77.839416)
(667.43146 209.28452 80.623064)
(771.032 211.71824 82.341345)
(879.35969 211.87013 82.979535)
(991.32089 209.46825 82.42079)
(1106.0332 204.72075 80.582605)
(1222.3167 197.72805 77.439802)
(1339.1472 188.69737 72.988936)
(1455.3255 177.84664 67.264899)
(1569.8719 165.44133 60.366747)
(1681.7737 151.79769 52.360473)
(1790.1044 137.0861 43.421724)
(1894.0407 121.74686 33.744544)
(1993.0261 105.92519 23.395136)
(2086.3704 90.065964 12.57136)
(2173.6588 74.242951 1.677022)
(2254.6944 58.826827 -9.4257449)
(2329.2683 43.931547 -20.358462)
(2397.3495 29.772066 -31.072023)
(2459.0843 16.434808 -41.387559)
(2514.7055 4.0599259 -51.236899)
(2564.473 -7.3151215 -60.549411)
(2608.9101 -17.674204 -69.24043)
(2648.3702 -26.962691 -77.371576)
(2683.4905 -35.262932 -84.862107)
(2714.8168 -42.575799 -91.842588)
(2742.9888 -49.084743 -98.280274)
(2768.5761 -54.658015 -104.35177)
(2792.133 -59.757353 -110.00268)
(2814.4636 -64.084897 -115.53099)
(2835.8093 -68.103643 -120.86862)
(2857.2341 -71.792308 -126.16788)
(2878.4444 -75.089178 -131.70175)
(2901.1128 -78.648898 -137.13153)
(2923.9513 -81.513244 -143.09399)
(-15.159357 14.852677 19.627822)
(-9.6722232 24.135958 21.364675)
(-0.041872568 37.574762 24.920113)
(20.716236 49.940236 28.251323)
(46.92188 62.014187 31.208179)
(83.079588 74.455257 35.935332)
(127.34739 84.578738 39.3136)
(179.55451 94.97716 44.937531)
(240.66327 103.4553 49.627401)
(309.69049 110.71139 54.897194)
(386.87813 116.61866 59.911426)
(471.51319 120.6351 64.731202)
(563.25153 122.88835 69.15036)
(661.4225 123.35213 72.76212)
(765.29098 122.0519 75.660625)
(873.73135 118.79161 77.477419)
(985.95552 113.82025 78.197054)
(1100.7868 107.15156 77.759378)
(1217.2366 98.989288 75.983305)
(1334.1144 89.55581 72.938442)
(1450.4226 78.975887 68.560946)
(1565.0663 67.593523 62.924842)
(1676.9865 55.52287 56.081665)
(1785.4039 43.22001 48.26446)
(1889.5064 30.704507 39.399081)
(1988.465 18.312854 29.872842)
(2081.7844 6.1849941 19.830092)
(2169.0833 -5.5427711 9.3276441)
(2250.1088 -16.68308 -1.3758464)
(2324.6963 -27.147396 -12.125097)
(2392.8237 -36.830742 -22.807617)
(2454.6427 -45.684157 -33.255216)
(2510.3199 -53.693307 -43.382938)
(2560.2499 -60.861273 -53.070742)
(2604.777 -67.188707 -62.319532)
(2644.4424 -72.774839 -71.023888)
(2679.7357 -77.614346 -79.242265)
(2711.2269 -81.89254 -86.948596)
(2739.5099 -85.617509 -94.161865)
(2765.2963 -88.956196 -101.0518)
(2789.1714 -91.970878 -107.54251)
(2811.6974 -94.662789 -113.9331)
(2833.389 -97.463788 -119.94365)
(2855.0691 -99.989367 -126.18262)
(2876.5899 -102.73739 -132.16502)
(2899.4337 -105.54968 -138.3981)
(2922.2934 -108.20743 -144.59705)
(-17.474763 7.4293932 9.6023752)
(-13.104891 10.143418 9.1283192)
(-2.8776173 18.104016 12.382003)
(15.34915 23.4556 15.575976)
(43.083443 29.177825 19.482742)
(78.517576 35.084633 22.910906)
(122.18514 38.937047 28.691662)
(174.74414 43.14429 33.217198)
(235.44979 45.119783 39.140641)
(304.70866 46.838718 44.913738)
(381.81813 46.626495 50.63171)
(466.74628 45.448877 56.346605)
(558.50932 42.654309 61.428397)
(656.79573 38.798727 66.176185)
(760.42658 33.478088 70.216951)
(868.83277 27.151349 73.328599)
(980.8057 19.648107 75.414003)
(1095.3986 11.25124 76.28629)
(1211.5048 2.0395906 75.922346)
(1328.0282 -7.6694983 74.195591)
(1443.9336 -17.887818 71.162335)
(1558.0206 -28.108372 66.779863)
(1669.5452 -38.184984 61.194582)
(1777.4818 -48.317807 54.416969)
(1880.9926 -58.058852 46.668771)
(1979.5964 -67.326165 38.018948)
(2072.7435 -75.945064 28.491373)
(2160.0108 -83.858852 18.442352)
(2241.0829 -90.959048 7.9554764)
(2315.8227 -97.274007 -2.7751307)
(2384.2354 -102.7268 -13.607878)
(2446.4005 -107.37493 -24.390681)
(2502.5793 -111.27931 -34.968126)
(2553.0149 -114.43972 -45.309822)
(2598.1995 -117.0253 -55.245185)
(2638.5066 -119.03842 -64.809866)
(2674.4999 -120.66849 -73.895463)
(2706.7894 -121.94494 -82.564869)
(2735.9962 -122.98968 -90.789666)
(2762.5174 -123.92732 -98.593936)
(2786.963 -124.93874 -105.99942)
(2810.0941 -126.05271 -113.12547)
(2832.2683 -127.39012 -119.98342)
(2854.3292 -128.91461 -126.7259)
(2876.1284 -130.84466 -133.25729)
(2899.1465 -133.08333 -139.84996)
(2922.0635 -135.61192 -146.43291)
(-19.971778 0.34139141 0.48543103)
(-14.272606 0.809512 0.0063920385)
(-7.3217434 0.27517925 2.5436841)
(12.756987 0.29102289 4.690453)
(39.710324 -0.82825349 7.1533341)
(75.180709 -1.930635 12.094221)
(119.51858 -4.2389292 16.166966)
(172.08926 -7.2553324 21.804837)
(233.19424 -11.097442 27.705089)
(302.55823 -15.973718 33.929351)
(379.86371 -21.940982 40.369508)
(464.50354 -28.51483 46.933073)
(556.15082 -36.219727 53.249214)
(654.12715 -44.499301 59.226227)
(757.50794 -53.655215 64.491174)
(865.48378 -63.261612 68.999425)
(977.09491 -73.349173 72.370413)
(1091.1954 -83.567389 74.657253)
(1206.8494 -93.961863 75.667115)
(1322.8198 -104.06926 75.240894)
(1438.1763 -114.20256 73.62452)
(1551.9781 -123.43946 70.340736)
(1663.0863 -132.35125 65.756217)
(1770.6971 -140.41525 59.959897)
(1874.042 -147.50701 52.84337)
(1972.5129 -153.65702 44.68842)
(2065.5022 -158.77339 35.661327)
(2152.6825 -162.92718 25.983243)
(2233.7374 -166.07372 15.694984)
(2308.5769 -168.27168 5.0439923)
(2377.1288 -169.54444 -5.8809636)
(2439.5631 -170.00931 -16.859341)
(2496.0132 -169.78184 -27.795851)
(2546.8656 -168.94472 -38.571828)
(2592.4449 -167.70542 -49.059202)
(2633.2157 -166.13628 -59.227384)
(2669.6745 -164.43444 -68.990887)
(2702.4264 -162.62199 -78.363082)
(2732.0764 -161.00486 -87.176018)
(2758.9349 -159.74863 -95.749234)
(2783.9579 -158.66996 -103.90107)
(2807.489 -158.03357 -111.76461)
(2830.1743 -157.89996 -119.3026)
(2852.5175 -158.27358 -126.68972)
(2874.9045 -159.34975 -133.84236)
(2898.1926 -160.95116 -141.10675)
(2921.5902 -163.31764 -148.19879)
(-17.282201 -5.897731 -10.363506)
(-10.509954 -13.188384 -10.918228)
(-3.9833792 -19.932742 -11.088253)
(15.665635 -26.482344 -9.772887)
(42.06172 -34.807073 -5.7561916)
(77.520047 -42.364109 -2.0863694)
(121.57177 -52.165385 3.217187)
(173.82833 -61.376249 9.2838683)
(234.64679 -72.182536 15.70969)
(303.44544 -82.970965 23.091952)
(380.32212 -94.905647 30.501835)
(464.44932 -106.99585 38.012276)
(555.6139 -119.70234 45.442311)
(652.91585 -132.45223 52.657937)
(755.64196 -145.43216 59.276002)
(862.88163 -158.10801 65.17543)
(973.69788 -170.61684 70.079111)
(1087.0373 -182.46652 73.888908)
(1201.8491 -193.74966 76.35769)
(1317.0155 -204.02998 77.456826)
(1431.676 -213.41265 77.196229)
(1544.5029 -221.70084 74.982979)
(1655.0038 -228.40706 71.894046)
(1761.7487 -233.71651 67.023947)
(1864.6417 -237.76684 60.862357)
(1962.4933 -240.35082 53.495955)
(2055.1256 -241.69258 45.021191)
(2142.1059 -241.66734 35.694569)
(2223.1273 -240.50465 25.580582)
(2297.9801 -238.2024 14.857562)
(2366.7365 -234.95726 3.7232103)
(2429.4467 -230.94704 -7.6685603)
(2486.3229 -226.35697 -19.135728)
(2537.6529 -221.33603 -30.586408)
(2583.8064 -216.1823 -41.818285)
(2625.1773 -210.92983 -52.852775)
(2662.3527 -205.90008 -63.517575)
(2695.7553 -201.14317 -73.859079)
(2725.9318 -196.84688 -83.728244)
(2753.8459 -193.12885 -93.305515)
(2779.3829 -190.36003 -102.27448)
(2803.4816 -188.19273 -111.01663)
(2826.6015 -186.89817 -119.30299)
(2849.37 -186.395 -127.35247)
(2872.1668 -186.85759 -135.08847)
(2895.5116 -188.07074 -142.61586)
(2919.3181 -190.27437 -150.02135)
(-12.36701 -15.364251 -18.471045)
(-6.8818767 -25.67354 -19.655235)
(-1.5364056 -37.983016 -22.664448)
(18.614031 -50.820829 -20.835522)
(43.978783 -65.036716 -18.360308)
(79.948231 -80.404275 -14.07772)
(123.38405 -96.438521 -8.7032705)
(175.47048 -113.09356 -2.4228648)
(235.94812 -130.49474 4.651808)
(304.23296 -147.94082 12.579728)
(380.94117 -166.10345 20.850869)
(464.47601 -183.93709 29.326633)
(555.17551 -202.02405 37.990502)
(651.82566 -219.68778 46.439981)
(754.02152 -236.74206 54.447339)
(860.59128 -252.98974 61.717581)
(970.82702 -268.15029 68.099334)
(1083.4899 -282.06681 73.281059)
(1197.6588 -294.43883 77.199972)
(1312.2941 -305.22043 79.666855)
(1426.1733 -314.10489 80.494437)
(1538.6994 -321.21381 79.847033)
(1648.4005 -326.24679 77.429307)
(1754.867 -329.18413 73.491645)
(1857.22 -330.26061 68.124666)
(1954.8058 -329.32376 61.374458)
(2047.3813 -326.66202 53.27256)
(2134.1032 -322.47685 44.160388)
(2214.9309 -316.87316 34.071376)
(2289.6924 -309.98413 23.244859)
(2358.43 -302.12212 11.865475)
(2421.1937 -293.51321 0.11204454)
(2478.173 -284.41399 -11.834493)
(2529.6899 -275.06689 -23.847362)
(2576.0199 -265.78557 -35.737354)
(2617.6962 -256.67889 -47.477904)
(2655.1167 -248.13197 -58.895823)
(2688.7509 -240.18807 -69.965764)
(2719.3201 -233.12976 -80.58692)
(2747.2679 -227.05688 -90.808636)
(2773.1033 -222.0776 -100.62018)
(2797.4524 -218.24343 -110.0168)
(2820.8509 -215.56251 -118.95228)
(2843.8419 -214.07658 -127.56363)
(2866.866 -213.78871 -135.70938)
(2890.3367 -214.48346 -143.68133)
(2914.7733 -216.30685 -151.40375)
(0 0 0)
(0 0 0)
(0 0 0)
(0 0 0)
(0 0 0)
(0 0 0)
(0 0 0)
(0 0 0)
(0 0 0)
(0 0 0)
(0 0 0)
(0 0 0)
(0 0 0)
(0 0 0)
(0 0 0)
(0 0 0)
(0 0 0)
(0 0 0)
(0 0 0)
(0 0 0)
(0 0 0)
(0 0 0)
(0 0 0)
(0 0 0)
(0 0 0)
(0 0 0)
(0 0 0)
(0 0 0)
(0 0 0)
(0 0 0)
(0 0 0)
(0 0 0)
(0 0 0)
(0 0 0)
(0 0 0)
(0 0 0)
(0 0 0)
(0 0 0)
(0 0 0)
(0 0 0)
(0 0 0)
(0 0 0)
(0 0 0)
(0 0 0)
(0 0 0)
(0 0 0)
(0 0 0)
(0 0 0)
(0 0 0)
(4.0382263 -5.0155518 -15.563496)
(7.4983733 -7.5006518 -11.447156)
(11.086956 -8.2154294 -6.1347983)
(12.608296 -9.0419332 -1.8068157)
(12.748076 -8.6000138 2.5450902)
(12.525398 -9.4547115 7.7648062)
(9.6478215 -5.7409126 12.614009)
(11.607223 -35.185779 -22.966848)
(18.282428 -40.869309 -12.861962)
(21.565289 -39.331543 -4.8631811)
(22.995513 -38.757444 1.6956724)
(23.784516 -42.221708 8.9135286)
(21.033257 -42.743832 17.437801)
(17.669777 -43.006312 27.895946)
(17.836416 -49.602234 -26.406336)
(26.588751 -48.798177 -17.929276)
(32.412951 -53.581228 -5.3895266)
(33.559347 -54.899993 2.6888134)
(33.534543 -53.970761 13.641636)
(30.009131 -56.516583 21.439815)
(24.863683 -60.680914 36.59846)
(40.339208 -79.090627 -23.460028)
(47.298001 -82.766409 -13.662906)
(52.281737 -83.785523 -1.9636076)
(54.129916 -85.268436 6.8188594)
(53.787048 -87.403431 17.928458)
(49.762213 -91.553847 30.083779)
(42.46409 -90.86056 40.706457)
(64.677287 -101.38407 -21.783799)
(73.73989 -103.38806 -11.749187)
(79.934588 -107.06299 0.60190179)
(81.273173 -109.05304 11.959071)
(80.737076 -111.24053 23.25578)
(76.235847 -114.188 34.09569)
(69.335509 -117.48154 48.296865)
(101.27238 -127.72275 -16.695519)
(108.46098 -130.45098 -6.0434697)
(113.76449 -132.87897 5.9001345)
(115.40537 -136.46207 16.455245)
(114.07282 -138.4015 28.939046)
(109.15954 -142.08089 40.775555)
(101.23213 -144.45879 52.318166)
(143.36424 -152.37299 -11.116309)
(151.28322 -156.09234 -0.22541245)
(156.79231 -160.33202 11.646922)
(158.05785 -163.50474 22.413535)
(156.94295 -166.46693 34.846089)
(152.08842 -171.18362 45.703758)
(144.16486 -173.77734 59.221913)
(194.94664 -178.78446 -4.3889003)
(202.18426 -182.97606 6.3541285)
(206.56779 -186.42983 18.274255)
(208.07541 -190.14268 29.493678)
(205.66776 -192.74149 40.689)
(201.04155 -196.37488 52.491727)
(192.45884 -199.73037 63.618211)
(253.96643 -204.76618 3.3456608)
(260.65993 -209.30359 14.324411)
(265.2563 -213.99381 25.229561)
(265.79647 -217.12719 36.043872)
(264.18742 -221.17037 47.286849)
(258.67317 -224.49786 58.092768)
(250.69326 -228.20114 70.345861)
(320.90126 -230.98985 11.668734)
(327.06982 -235.55301 22.04912)
(330.51845 -239.38767 33.129498)
(331.48414 -243.64801 43.625491)
(328.77827 -246.71203 54.471917)
(323.69937 -250.13732 64.664444)
(315.30268 -253.66354 75.359998)
(395.55625 -256.74908 20.64813)
(400.82337 -261.58327 30.82731)
(404.20841 -266.13824 41.158315)
(403.95082 -269.17371 50.442282)
(402.08685 -272.72244 60.675857)
(396.35604 -275.9017 69.869423)
(388.23236 -279.65287 81.257885)
(477.26969 -281.8225 29.825716)
(481.83412 -286.51514 39.746693)
(483.96467 -290.45814 48.491573)
(484.0934 -293.72099 58.020654)
(481.10109 -296.77803 67.332398)
(475.31198 -299.61736 75.873362)
(468.1622 -302.8737 85.297089)
(565.55417 -306.21341 39.145229)
(568.95019 -310.40479 47.930469)
(571.00868 -314.25876 56.285259)
(570.23274 -316.9828 64.56059)
(567.49132 -319.92898 72.820977)
(562.22632 -322.74854 80.108386)
(554.80989 -324.97629 88.77948)
(659.51256 -328.91002 48.20324)
(662.1972 -332.66742 56.098224)
(663.59204 -335.93996 63.273833)
(662.22501 -338.16484 70.541748)
(659.76998 -340.77882 77.694865)
(654.12378 -342.41151 84.026464)
(647.71354 -344.62298 91.397389)
(758.92655 -350.17684 56.714716)
(760.85061 -353.36392 63.524386)
(761.24216 -355.89654 69.573686)
(759.99273 -357.84307 75.777036)
(757.0359 -359.61735 81.48382)
(752.20499 -360.98815 86.754321)
(745.99804 -362.31319 92.54931)
(862.79015 -369.31625 64.585347)
(863.49793 -371.5546 70.099909)
(863.60843 -373.62999 74.993251)
(861.65138 -374.59557 79.714427)
(859.06785 -375.95744 84.272223)
(854.31762 -376.32453 88.145567)
(848.9643 -377.13746 92.483573)
(969.99141 -386.14523 71.373642)
(970.11541 -387.74131 75.620148)
(969.22111 -388.75876 79.097792)
(967.29231 -389.21335 82.593983)
(964.57048 -389.73095 85.622292)
(960.45561 -389.49268 88.199171)
(955.72933 -389.31495 90.912997)
(1079.9498 -400.55453 77.022011)
(1078.9084 -401.00289 79.774017)
(1077.6228 -401.30069 82.010066)
(1075.3219 -400.86881 83.956224)
(1072.8466 -400.67362 85.585578)
(1069.1677 -399.41016 86.805097)
(1065.3233 -398.52595 87.829343)
(1191.3002 -412.20078 81.171629)
(1189.6238 -411.75868 82.551132)
(1187.6053 -411.02968 83.334884)
(1185.2928 -409.8594 83.868302)
(1182.8821 -408.71006 84.022699)
(1179.8899 -406.76704 83.852237)
(1176.9055 -404.88522 83.2294)
(1303.3083 -421.05455 83.817239)
(1300.726 -419.45208 83.711099)
(1298.3043 -417.82678 83.136327)
(1295.8296 -415.73921 82.191111)
(1293.6972 -413.83371 80.926671)
(1291.3395 -410.9131 79.37332)
(1289.2989 -408.17912 77.138825)
(1414.8258 -426.99947 84.760727)
(1411.671 -424.39229 83.244337)
(1408.7067 -421.74485 81.270514)
(1406.3118 -418.88504 78.9615)
(1404.3775 -416.02821 76.27492)
(1402.7648 -412.33824 73.418204)
(1401.6647 -408.66734 69.642505)
(1525.0058 -430.03838 83.96515)
(1521.1698 -426.31025 81.068664)
(1517.9257 -422.76247 77.824535)
(1515.5471 -419.03784 74.173276)
(1513.923 -415.41224 70.180547)
(1513.0563 -410.85695 66.044918)
(1512.9384 -406.37356 60.84343)
(1632.863 -430.22848 81.390418)
(1628.6115 -425.54906 77.279754)
(1625.0644 -421.12308 72.771872)
(1622.8449 -416.5901 67.935811)
(1621.5334 -412.05481 62.662203)
(1621.4435 -406.77887 57.441515)
(1622.2712 -401.50396 50.904385)
(1737.7219 -427.78284 77.151772)
(1732.9923 -422.03964 71.898796)
(1729.4069 -416.80596 66.275158)
(1727.2847 -411.41323 60.356601)
(1726.2926 -406.30767 54.02345)
(1726.9848 -400.32233 47.697526)
(1728.7241 -394.36919 39.998448)
(1838.7037 -422.65526 71.428692)
(1833.7192 -416.14044 64.983178)
(1830.1381 -410.24335 58.523818)
(1828.0124 -404.1116 51.580978)
(1827.667 -398.2444 44.241569)
(1828.957 -391.50728 37.082802)
(1831.6901 -384.91753 28.360821)
(1935.3769 -415.28559 64.127714)
(1930.1757 -408.12771 56.832809)
(1926.6741 -401.37657 49.644899)
(1924.9673 -394.75295 41.366082)
(1924.9891 -388.25768 34.022223)
(1926.6527 -380.93735 25.756729)
(1930.1417 -373.89371 16.535698)
(2027.1462 -405.92664 55.611633)
(2021.9084 -398.15658 47.781386)
(2018.5203 -390.69719 39.536356)
(2016.7129 -383.58966 31.173989)
(2017.4126 -376.34989 22.718177)
(2019.5527 -368.87815 13.764203)
(2023.9384 -361.08444 4.490744)
(2113.4999 -394.7859 45.930025)
(2108.5314 -386.35125 37.433391)
(2104.9008 -378.52182 28.703294)
(2103.8423 -370.87283 20.011104)
(2104.4243 -363.55247 10.755755)
(2107.448 -355.48141 1.8042458)
(2112.3481 -347.43416 -8.1423141)
(2194.298 -382.25262 35.390295)
(2189.3189 -373.39284 26.278208)
(2186.2005 -365.12394 17.515478)
(2185.2308 -357.27135 8.1141601)
(2186.4139 -349.38764 -1.090345)
(2189.8283 -341.19903 -10.443202)
(2195.2292 -332.82986 -20.577939)
(2269.2686 -368.66655 23.961138)
(2264.6921 -359.48739 14.698222)
(2261.7203 -350.92866 5.6509321)
(2261.171 -342.74666 -3.8060033)
(2262.6291 -334.69842 -13.176243)
(2266.4314 -326.34481 -22.61074)
(2272.2877 -317.8159 -32.798658)
(2338.5175 -354.3436 12.093266)
(2334.187 -344.91872 2.6717509)
(2331.6288 -336.1782 -6.3273591)
(2331.3874 -327.85904 -15.861256)
(2333.1903 -319.65163 -25.124265)
(2337.3415 -311.2447 -34.521164)
(2343.5062 -302.65472 -44.539709)
(2401.9757 -339.59498 -0.1771337)
(2398.1035 -330.14127 -9.4979279)
(2395.9048 -321.28594 -18.403768)
(2395.9995 -312.89042 -27.740534)
(2398.087 -304.61761 -36.832014)
(2402.4724 -296.23634 -46.008234)
(2408.8465 -287.68077 -55.745261)
(2459.9088 -324.84252 -12.584605)
(2456.4798 -315.38248 -21.709165)
(2454.6826 -306.51096 -30.324516)
(2455.1049 -298.12377 -39.379845)
(2457.4393 -289.85245 -48.151206)
(2462.0064 -281.56513 -56.968217)
(2468.4696 -273.12419 -66.293229)
(2512.5171 -310.3353 -25.00866)
(2509.5809 -301.00308 -33.767555)
(2508.2127 -292.1895 -41.994256)
(2508.943 -283.87779 -50.630948)
(2511.4801 -275.68148 -58.938384)
(2516.1223 -267.56234 -67.297035)
(2522.5941 -259.28127 -76.106521)
(2560.1164 -296.41208 -37.27397)
(2557.7066 -287.24442 -45.549933)
(2556.7706 -278.57077 -53.279608)
(2557.779 -270.37239 -61.386001)
(2560.4879 -262.31383 -69.151453)
(2565.1945 -254.32241 -77.041267)
(2571.5879 -246.33015 -85.129741)
(2603.1351 -283.32363 -49.310942)
(2601.2632 -274.42347 -57.043498)
(2600.7674 -265.90215 -64.167418)
(2602.0225 -257.90914 -71.666968)
(2604.9103 -249.93697 -78.787829)
(2609.4753 -242.36197 -86.065381)
(2615.6912 -234.6114 -93.171185)
(2642.0723 -271.4313 -60.952467)
(2640.698 -262.69459 -67.93368)
(2640.5448 -254.43958 -74.372851)
(2642.1079 -246.54946 -81.194934)
(2644.977 -238.94283 -87.651451)
(2649.4848 -231.23582 -93.989547)
(2655.4128 -223.9426 -100.86646)
(2677.0859 -260.4647 -72.202388)
(2676.4238 -252.37096 -78.370901)
(2676.7292 -244.25201 -84.230797)
(2678.3891 -236.65708 -90.175534)
(2681.401 -229.10509 -96.008861)
(2685.7147 -222.16161 -101.84642)
(2691.4937 -214.73511 -107.7192)
(2709.1037 -251.43135 -83.002073)
(2708.8511 -243.33749 -88.536539)
(2709.4988 -235.45406 -93.594598)
(2711.4607 -228.11365 -98.875765)
(2714.4418 -220.78446 -103.89806)
(2718.7146 -213.75805 -108.79059)
(2723.9799 -206.72119 -113.89212)
(2738.4524 -243.6039 -93.29649)
(2738.6814 -235.91318 -98.02947)
(2739.7203 -228.32958 -102.2831)
(2741.8155 -221.18387 -106.82691)
(2744.8334 -214.0152 -110.97282)
(2748.7762 -207.30338 -115.26438)
(2753.7265 -200.54205 -119.48505)
(2765.6939 -237.57837 -103.15994)
(2766.3722 -230.12986 -106.97564)
(2767.7157 -222.76688 -110.60443)
(2769.9714 -215.79832 -114.2972)
(2772.8834 -208.84296 -117.7998)
(2776.6778 -202.3233 -121.28581)
(2781.2444 -195.75932 -124.71016)
(2791.2634 -233.14006 -112.54378)
(2792.394 -225.96844 -115.52731)
(2794.0508 -218.84682 -118.47299)
(2796.3553 -212.0259 -121.39937)
(2799.2953 -205.26657 -124.1978)
(2802.8373 -198.89695 -126.96709)
(2806.9823 -192.51056 -129.64092)
(2815.7988 -230.42481 -121.40502)
(2817.3203 -223.42121 -123.65978)
(2819.1963 -216.45092 -125.96356)
(2821.6273 -209.78646 -128.15789)
(2824.4966 -203.19215 -130.3558)
(2827.7851 -196.93786 -132.44782)
(2831.5975 -190.72219 -134.42546)
(2839.7066 -229.27286 -129.8584)
(2841.5188 -222.43873 -131.47709)
(2843.6482 -215.61303 -133.1283)
(2846.1179 -209.07264 -134.73233)
(2848.9328 -202.57799 -136.35116)
(2852.0351 -196.45501 -137.85026)
(2855.5093 -190.3801 -139.19222)
(2863.4734 -229.63552 -137.9011)
(2865.5685 -222.86306 -138.94158)
(2867.8483 -216.1219 -140.05927)
(2870.3615 -209.63178 -141.15897)
(2873.1188 -203.26235 -142.28053)
(2876.0434 -197.20989 -143.28127)
(2879.2482 -191.28449 -144.12372)
(2887.519 -231.29539 -145.62383)
(2889.7932 -224.54419 -146.20782)
(2892.1887 -217.82101 -146.86397)
(2894.7144 -211.37535 -147.54217)
(2897.4076 -205.04118 -148.26182)