/*--------------------------------*- C++ -*----------------------------------*\
  =========                 |
  \\      /  F ield         | OpenFOAM: The Open Source CFD Toolbox
   \\    /   O peration     | Website:  https://openfoam.org
    \\  /    A nd           | Version:  6
     \\/     M anipulation  |
\*---------------------------------------------------------------------------*/
FoamFile
{
    version     2.0;
    format      ascii;
    class       pointScalarField;
    location    "0.6";
    object      p;
}
// * * * * * * * * * * * * * * * * * * * * * * * * * * * * * * * * * * * * * //

dimensions      [1 -1 -2 0 0 0 0];

internalField   nonuniform List<scalar> 
3969
(
1347498.8
-2000790.7
9131.9506
6625.6992
2470132.8
-4099782.3
7927.6695
4506.7863
1015348.1
726188.82
357039.96
-21719.278
-316877.95
-749967.89
-845454.15
-10372.628
-2919.8213
-2615.0006
2707.071
8576.3991
13177.278
13509.967
420101.8
480414.05
463586.61
480787.08
468865.69
463241.45
449415.77
434158.32
419535.46
400433.16
386221.39
370182.81
352758.16
338161.23
322731.3
306296.05
293200.2
277909.14
265259.18
251104.72
239208.54
226867.58
215769.18
205728.56
194941.25
185586.64
176055.03
167869.29
160852.54
152550.11
145472.9
138316.96
130727.67
123072.92
115699.2
108063.4
98783.931
90534.267
80467.341
72203.26
61659.276
52525.935
43796.187
33484.29
27971.532
20488.763
14584.964
-437514.7
-369472.6
-454011.21
-399736.74
-441601.55
-408736.38
-411695.51
-388914.71
-379911.63
-362805.38
-347925.23
-335927.25
-317251.38
-307145.53
-291975.95
-278590.58
-265852.69
-251796.12
-240447.61
-228469.92
-216164.79
-207311.52
-195405.42
-187128.71
-177309.82
-168696.79
-159676.99
-151262.19
-144415.36
-136661.01
-131208.66
-123442.3
-117243.26
-109528.28
-102643.55
-94483.8
-86991.248
-77353.745
-70161.851
-59956.948
-51127.409
-42343.164
-33792.6
-25035.145
-16662.579
-10499.271
-3064.2486
1844975.7
1384440.6
617928.78
-74508.782
-646512.5
-1416934.8
-1168789.2
-532306.18
-603330.98
-361467.08
-529380.67
-450124.59
-459069.85
-440963.77
-428714.23
-408162.09
-385696.36
-392861.71
-360873.21
-357593.4
-338287.3
-323695.67
-310517.95
-293897.38
-280419.91
-265500.98
-250948.43
-239283.45
-227183.59
-216222.38
-205734.25
-197460.58
-190295.25
-181499.38
-171514.9
-163817.7
-155600.48
-146616.44
-138664.15
-129984.4
-121200.5
-112813.27
-104073.97
-90161.846
-84350.132
-74384.724
-64457.811
-54132.321
-44912.282
-34656.725
-25399.255
-16981.833
-8964.4065
-2855.0914
18199.109
11812.068
8465.6557
5988.197
-3600.4229
-3264.9582
-11295.583
24969.224
23158.997
27361.976
36107.005
44839.228
53988.788
64063.957
73159.917
83344.073
91503.532
98645.283
116863.32
119921.77
129806.44
138483.19
147014.36
154311.9
162635.66
170103.88
178077.01
186704.69
194920.89
204273.18
214300.24
225044.88
236641.36
248843.98
260969.38
275154.69
288620.36
304480.04
317860.96
330962.05
347853.42
372538.4
380592.31
400303.7
412152.77
427921.69
451090.24
474819.61
469035.54
495958.38
486884.08
476596.47
501282.4
508949.78
1124256.7
1235146.3
1302792.7
1285750.1
1272546.9
1287607.7
1048792.9
-1565242
-2007944.2
-2300339.9
-2458072.3
-2333574.9
-2301296.2
-1745089.4
8152.6588
8993.4453
10045.678
11395.935
11016.294
9337.8405
9479.3351
1134.516
2640.5101
1667.1013
1037.8978
1951.0372
6328.0728
2551.4032
368588.99
368093.67
365353.95
371135.22
367478.56
366438.59
354281.48
350153.79
333633.73
327765.29
312756.77
298957.26
289693.37
276617.71
265064.87
253414.62
242160.51
230279.02
218756.24
207831.2
197582.86
187007.36
177646.25
168724.49
160890.41
151924.96
144205.13
137441.28
129717.15
122731.4
115977.7
108894.38
101959.67
95185.961
88194.024
80921.216
73089.979
66629.433
59160.58
52963.714
45296.432
39820.783
32123.877
26749.887
21659.326
13396.009
7326.4736
234501.65
228543.73
225947.41
236084.1
237130.22
242836.84
235665.81
231321
224480.85
219916.64
210821.6
204357.36
194476.2
185142.43
177927.69
168894.77
161385.53
152713.3
145044.14
137032.82
128902.88
121035.42
113690.83
106994.48
100013.71
94733.697
89569.089
83178.838
79175.756
74168.155
69842.362
65685.391
61569.231
57781.324
53869.374
49985.879
46410.827
43268.285
38637.699
35703.214
30726.552
27714.882
22554.405
20103.093
15564.671
9830.2221
3998.6241
97925.089
113257.48
104662.69
113793.88
111767.44
117466.19
114107.4
115398.95
110964.37
108469.17
105471.03
101966.32
97773.376
91893.078
86641.643
83261.458
79949.693
76159.158
73095.087
69494.681
66890.373
63967.881
60909.044
57771.651
55347.085
52340.747
49413.577
47638.754
45308.882
42920.171
40758.518
38569.366
36251.034
34063.107
31991.176
29515.583
27377.842
24630.255
22147.631
20195.109
17308.899
16630.88
12929.711
12711.858
9479.7059
6215.5167
4745.7179
-11738.103
-11012.709
-16504.442
-8192.3063
-16334.471
-11102.5
-15998.001
-11826.09
-12677.829
-7091.0579
-8511.1669
-5674.3167
-6084.4391
-4566.3905
-3817.1939
-2955.7991
-2596.4899
-1772.3352
-1504.2104
-1698.2626
-1458.2085
-2250.5466
-4221.3345
-4079.1599
-3634.367
-3694.196
-3119.0499
-2950.3077
-2694.1012
-2199.4087
-1737.3142
-1091.7017
-699.94369
133.99085
652.5387
1813.4529
1728.5456
2742.421
3853.703
4273.5832
5019.4327
5453.5917
4707.3014
6570.764
5437.5671
6721.8262
7151.4498
-139386.83
-124245.51
-126547.76
-132748.08
-137349.41
-133972.53
-133707.93
-127509.42
-124950.22
-115419.67
-114133.79
-104502.11
-102683.24
-94080.972
-90480.862
-83813.46
-79697.216
-74529.59
-70303.511
-66439.644
-60297.979
-53556.425
-50503.627
-44647.353
-43366.734
-42503.404
-39031.093
-36365.83
-34286.961
-32062.393
-29774.602
-27869.973
-25511.755
-23588.765
-21026.32
-19187.062
-17253.682
-14475.037
-14319.513
-12111.551
-10874.339
-8854.7611
-6371.6046
-3628.5622
-1851.3244
1827.3221
5013.7599
-256979.27
-241552.79
-247925.34
-261542.21
-262102.63
-257573.95
-251726.45
-240662.66
-235548.82
-221228.54
-216322.79
-202295.41
-196120.93
-187169.89
-178552.15
-168801.33
-160788.77
-151895.81
-144075.56
-136721.33
-127760.85
-121381.91
-110493.84
-102946.78
-96271.455
-90730.178
-86328.644
-81683.696
-77260.77
-72956.99
-69500.543
-65223.5
-61478.22
-57248.007
-53615.942
-48972.364
-44666.333
-40726.856
-36193.995
-31669.926
-27301.562
-22498.745
-17173.396
-12379.636
-7253.3872
-1415.3923
6681.835
-430614.71
-303157.17
-361261.53
-359338.28
-368652.37
-355825.14
-351393.27
-337921.28
-330773.82
-311786.39
-305301.39
-289535.63
-277495.24
-263335.22
-250263.52
-237107.53
-224155.73
-213402.52
-202068.01
-191993.35
-182673.25
-173258.44
-164406.34
-156514.59
-148568.56
-141835.28
-136925.94
-129300.2
-122825.32
-116486.66
-110764.03
-104486.27
-98301.144
-92144.159
-85815.343
-78906.521
-72784.714
-65409.258
-58897.56
-50171.885
-42808.359
-34874.198
-27533.628
-20906.324
-13983.929
-6896.2822
2069.0517
865105.23
795353.21
832303.22
834516.02
837770.49
820422
759264.52
539246.26
612910.76
578296.55
596748.79
594094.12
583037.01
559878.03
267547.14
320275.02
275636.84
302132.65
285831.8
285991.82
301687.14
43642.064
9497.4312
-4447.1413
26717.198
6148.2305
-22617.885
80442.902
-168614.82
-173864.75
-184733.54
-161961.84
-173281.12
-163542.89
-98509.273
-556026.72
-591552.9
-582007.02
-599121.4
-610261.7
-592694.93
-571103.8
-682287.9
-618161.79
-542138.89
-552061.09
-517425.32
-482051.02
-538187.59
-731080.68
-761160
-856830.42
-893462.77
-908643.19
-890265.89
-684067.4
-562457.11
-657272.21
-658851.28
-673049.03
-704763.48
-667545.76
-608236.5
-461685.02
-522505.92
-548742.17
-555222.32
-549945.76
-509410.38
-543632.33
-463283.8
-509702.53
-496420.99
-530002.77
-508791.08
-504835.76
-469671.78
-462372.15
-487882.39
-502359.28
-504394.95
-502907.93
-480286.75
-485231.73
-443728.68
-436284.22
-442816.97
-454214.1
-451490.73
-441389.11
-435898.97
-422967.93
-434597.16
-440990.92
-448901.52
-443911.48
-444216.5
-442995.21
-413526.52
-408238.57
-407547.65
-414941.66
-410779.35
-414073.15
-410038.46
-394383.72
-396203.61
-398020.51
-401849.96
-402267.19
-405207.75
-405717.06
-382394.01
-377940.65
-376760.58
-382183.37
-379582.31
-378271.72
-380820.54
-366346.79
-365065.28
-361904.79
-367092.03
-364526.93
-365216.97
-371718.1
-348651.96
-348219.47
-346093.93
-352337.17
-349993.55
-343640.53
-353173.44
-336365.75
-328523.02
-335556.64
-332020.55
-336415.4
-331719.79
-340516.18
-317587.13
-315964.68
-320776.54
-317776.88
-322889.96
-315442.27
-323739.25
-305455.47
-300653.71
-306515.48
-302173.87
-307043.36
-301281.87
-310018.58
-289311.36
-285169.89
-291295.34
-287590.73
-294305.46
-288503.6
-296808.17
-274095.19
-272345.16
-277201.4
-274003.85
-280496.77
-274514.16
-281499.23
-260239.12
-258743.58
-264203.68
-260356.7
-267603.62
-261083.46
-268844.68
-246785.06
-246163.37
-251543.94
-247288.79
-254506.08
-248262.42
-255886.75
-233915.41
-233863.67
-239204.12
-235074.35
-242544.58
-236364.89
-243807.67
-222860.74
-221941.01
-227604.86
-223092.1
-230402.73
-224558.84
-231545.91
-211472.83
-211084.91
-216311.35
-212431.83
-219501.89
-213582
-220925.24
-201687.53
-200355
-206398.37
-202111.43
-208052.5
-203406.46
-209929.85
-191240.63
-191613.68
-196016.04
-191438.35
-198722.89
-193953.25
-200735.75
-182010.59
-183346.46
-184920.36
-183917.44
-188638.26
-185081.33
-191046.61
-172238.68
-175143.91
-174240.39
-176170.58
-179796.34
-178600.16
-183375.72
-166709.62
-166632.8
-167334.12
-167837.6
-169794.9
-169425.03
-173647.31
-159423.32
-158722.26
-159445.41
-160339.76
-162147.86
-161982.02
-163890.58
-151685.51
-151150.81
-152032.24
-152073.92
-153051.2
-154222.53
-155003.03
-144705.69
-143905.69
-145179.6
-144552.28
-146333.25
-146731.56
-147061.61
-136916.35
-137417.42
-137381.54
-137261.02
-138027.94
-138396.86
-138589.87
-130123.46
-129842.04
-130176.77
-129633.55
-130334.82
-130630.93
-130899.3
-122122.53
-122839.17
-122439.15
-122036.43
-122369.42
-122700.85
-122767.74
-114734.01
-115109.05
-114701.49
-114173.59
-114166.16
-114364.25
-114221.04
-106370.52
-107136.14
-106449.34
-105749.95
-105482.39
-105994.11
-105739.36
-98076.191
-99187.127
-97877.234
-97781.728
-96792.938
-96909.479
-97056.445
-90445.001
-89165.721
-90026.449
-87274.736
-88342.444
-88694.216
-87449.029
-81002.944
-82084.082
-79495.432
-80055.07
-77851.59
-78597.274
-78304.228
-71540.692
-71949.235
-70392.124
-70008.434
-68700.251
-69455.131
-68988.755
-62739.344
-62343.064
-61748.91
-60416.898
-59343.02
-60283.661
-59872.157
-52903.667
-53371.624
-51847.639
-50749.88
-49985.068
-50537.318
-49980.96
-43855.767
-43855.965
-42230.758
-41833.228
-40428.388
-41172.65
-40880.803
-34134.66
-34756.723
-33142.645
-32856.003
-31090.49
-32208.114
-31754.183
-25598.806
-25440.319
-24190.308
-23507.428
-22218.11
-23304.013
-22636.043
-17966.372
-18633.086
-17169.338
-16910.143
-15666.268
-15928.836
-15248.975
-11939.289
-11428.536
-10735.903
-10178.469
-9035.3663
-9872.91
-9121.1707
-7132.7004
-7272.6249
-6963.0422
-5505.4316
-6681.2934
-5887.3748
-5053.9361
-17459.555
-20266.739
-22894.601
-23043.174
-21552.669
-20355.595
-17861.771
-9922.9939
-10731.129
-11194.341
-11941.29
-11117.718
-9072.1384
-7715.0366
-6343.6369
-7962.8794
-8767.1042
-8524.2174
-8009.1895
-6200.013
-5354.8559
3787.2238
4000.5326
3818.6544
3854.1445
4755.0787
4027.7711
5398.6661
11018.476
10906.151
10966.53
12270.143
11276.339
11118.299
10792.868
16843.4
19970.594
20707.128
20969.68
22172.882
19233.591
18566.127
20829.454
21115.372
23045.095
23068.162
22448.161
21184.634
19409.969
524404.38
528257.79
584575.46
575700.96
590491.94
562409.12
544657.04
540641.63
559048.42
583692.87
581012.5
588647.28
554371.31
542756.66
518305.09
528334.63
543046.26
545747.9
546708.41
520511.95
516076.77
492278.32
507987.27
521526.23
525413.09
522802.3
509479.04
508539.97
487180.94
492108.04
497490.79
501540.43
501532.46
495084.25
486310.43
464774.79
466255.05
477451.95
471104.23
476952.95
464919.74
468578.72
455720.93
455880.01
459970.76
458002.82
468020.88
457891.07
465798.95
433331.89
430048.99
439749.37
427441.35
437565.91
431485.88
435836.03
421192.04
422116.17
424269.16
420901.57
429533.52
421076.8
430912.61
404889.06
399375.03
403967.01
396533.52
406747.93
398312.58
408507.23
389033.15
384397.07
393116.91
383128.51
394334.66
385507.37
394743.94
370526.72
369719.22
372930.69
364874.8
373924.97
367531.5
376666.63
358613.05
352265.15
356472
350356.31
357704.76
352135.31
353502.9
341034.7
338134.12
339579.19
336020.27
341611.03
337601.06
345560.39
326326.18
323103.84
322062.57
321571.25
324605.37
321396.07
327006.86
313839.36
307208.97
309046.8
305116.39
310924.23
305818.75
309958.43
297586.59
292972.15
293642.42
292134.8
294728.3
291373.83
295315.75
284067.32
277932.22
280502.9
276818.76
280267.27
277193.64
280421.78
269587.66
264996.72
266510.09
263152.52
266732.68
263596.6
266844.28
257290.21
251090.63
253206.14
250003.52
253333.73
250248.93
253238.02
244853.08
238171.29
241073.02
237579.39
240892.38
238008.75
240794.55
233048.78
226215.57
229472.53
225856.52
228872.26
225807.04
228969.14
222258.69
215079.92
218899.98
214915.73
217841.31
215114.67
218188.83
211643.63
204721.54
208255.65
204331.67
206964.38
204160.82
207664.65
202342.78
193821.66
198688.52
194045.92
196821.76
194406.92
198227.92
193080.35
184377.2
189614.92
184814.11
187512.29
185431.68
188725.12
184033.52
176032.93
180507.98
176556.61
178355.03
176631.54
180548.48
176468.26
168062.06
171921.01
168497.74
170016.29
168705.11
172283.03
167482.38
159340.26
164533.71
160441.9
161692.1
160403.03
164168
159680.92
152997.3
156334.29
153052.43
153942.84
153101.83
156508.02
152143.59
145158.22
148901.54
145819.73
146246.25
145216.49
148748.72
143902.45
138129.84
141030.22
138309.5
138214.79
137478.19
140739.54
136023.66
130726.37
133441.82
130804.35
130280.32
129785.23
133226.76
127862.64
123346.91
125431.63
123203.85
122552.87
122108.22
124808.11
119383.19
115379.03
117197.94
115307.6
113710.03
114034.64
115658.73
110176.88
107417.11
108641.41
106509.69
105495.45
105117.68
106696.68
100687.8
99041.224
98710.167
98461.276
96175.119
96206.821
98941.132
92085.055
91133.245
90097.312
89484.756
88166.883
86125.332
90117.3
81849.436
80842.123
80228.371
79737.219
78231.646
77474.12
80132.176
72972.046
72516.162
71491.784
71139.485
69260.696
68175.798
70697.899
62234.911
61582.517
60608.604
60414.081
58750.033
59127.38
60603.114
53189.8
52819.656
51925.912
51743.606
50543.821
50102.053
51491.874
43792.348
43523.252
42391.819
42627.185
40919.434
41062.072
41665.619
33890.46
33441.115
32787.028
32924.502
32013.692
32116.091
33327.471
27923.999
29208.848
28974.63
29284.874
28084.147
27517.934
26720.518
21898.839
22113.413
21428.799
21402.081
21469.902
22238.483
20702.063
24104.184
26684.036
27392.954
28187.97
28003.645
28377.878
26459.898
522523.77
407743.28
398517.07
388725.11
400401.95
400003.15
380364.72
377532.31
364503.52
354369.68
339202
325428.48
310472.51
296465.58
282126.71
270785.38
255974.72
243634.71
231115.49
219219.04
207681.25
196528.42
186302.64
176664.79
167361.53
158671.78
149693.2
141936.17
134005.94
126334.72
118751.72
111352.95
103766.08
96222.107
90645.829
80458.21
75116.392
68805.408
60873.935
54412.769
47992.327
41307.374
35318.227
28851.773
22705.817
15663.608
6055.44
321284.91
316665.91
227670.77
265236.42
291723.47
271245.2
282774.6
263582.79
263609.35
250245.96
242400.89
232499.52
218617.74
211009.23
201687.77
192175.69
182111.04
171724.88
163974.31
154309.23
146124.89
138397.91
131094.39
123850.34
117360.22
109786.96
106986.32
100661.83
96121.695
91732.538
87212.162
83150.615
78449.696
74969.655
69301.796
65236.127
60293.681
55291.932
50583.956
45412.749
40080.002
34546.96
29354.396
23742.212
18609.48
12442.835
5620.5055
150804.73
177995.69
97168.064
156234.11
128994.01
122069.4
124051.99
119372.24
116827.71
110592.84
113675.75
108313.44
110344.41
105102.93
102095.05
99689.732
94738.588
90717.429
87190.211
81611.016
77921.889
73836.19
69855.315
66283.396
63024.594
59782.597
57058.283
53040.922
50473.869
47186.72
44284.239
41301.189
38535.054
35513.552
32359.029
30049.984
27118.578
24711.358
22139.313
20396.246
18192.843
16101.241
14192.516
12094.903
10100.451
8155.8913
1931.5386
-12660.843
38708.648
-7347.8227
23116.646
-1733.692
14167.04
7475.5773
-4745.2823
4026.3997
3129.7636
1223.8195
6027.4574
2549.6236
10410.048
10724.62
11857.44
11459.26
12004.722
12008.226
11650.469
12134.733
12161.827
12193.59
12548.542
12023.936
11923.825
11584.871
12000.991
11635.17
11799.622
11692.192
12264.596
12058.685
12221.577
12051.653
12319.9
11448.685
11422.209
11022.61
10719.143
9986.5537
9446.9569
8697.1112
7698.1391
7797.998
5598.8951
3461.5015
-213822.62
-99194.626
-127146.12
-85543.069
-118559.03
-91222.379
-110983.06
-102177.78
-93206.994
-97207.8
-84232.216
-87346.891
-79827.427
-80230.473
-73716.652
-70434.729
-66655.089
-63123.396
-59327.602
-56145.563
-52670.266
-49662.295
-46638.583
-44053.484
-41476.604
-39796.924
-36622.203
-34383.346
-32691.181
-31021.136
-29417.168
-27828.348
-26222.071
-24354.597
-22880.692
-21048.207
-19462.799
-16871.207
-15583.087
-12910.132
-10846.123
-8346.2843
-6294.5578
-3608.2852
-1293.3095
1380.161
3482.4519
-329536.07
-246064.77
-213687.66
-217593.95
-231781.02
-221894.59
-230777.23
-206763.41
-220292.84
-210314.05
-210363.3
-200890.56
-191343.42
-185540.13
-175337.14
-167709.3
-158117.51
-148684.54
-140251.62
-132675.8
-125799.78
-118568.78
-112253.46
-103466.32
-96087.824
-88218.581
-84052.403
-78558.993
-73927.99
-69067.059
-65158.833
-60590.685
-56462.272
-52241.086
-48272.376
-44043.037
-39709.435
-36055.685
-31729.085
-27143.416
-23427.151
-18673.715
-14549.468
-10034.323
-5696.0595
-95.531239
4158.022
-423046.73
-323183.48
-345535.86
-332541.67
-367817.08
-351797.5
-348390.61
-339376.04
-331533.61
-316309.64
-305178.94
-296998.4
-282165.2
-270299.36
-257421.5
-245865.51
-235289.67
-224051.72
-214852.28
-204078.03
-194256.98
-184050.16
-174803.82
-164769.6
-156542.96
-142783.46
-136417.38
-129332.58
-123156.19
-117240.34
-111557.33
-105287.05
-100011.15
-93930.496
-88065
-82160.659
-77176.162
-69428.044
-62724.017
-55868.977
-48771.206
-40688.694
-33806.52
-25828.3
-17615.464
-10020.986
-1802.4491
633719.49
690335.06
679148.46
703630.03
698143.76
662425.97
616028.6
446153.47
513083.29
507565.4
522945.96
509033.46
490202.22
452422.45
422088.75
458035.32
477214.07
482315.27
471388.07
468845.5
443610.31
401269.09
415206.82
419972.26
433466.58
416935.02
421072.17
388156.36
389260.15
400102.74
411492.76
407429.8
404888.57
400064.48
375061.32
378152.63
395727.5
381869.24
399978.35
386048.12
386067.13
383661.39
370719.26
371925.05
369197.33
374232.41
360965.98
370606.58
362805.62
355745.03
372803.41
357446.92
369222.01
363171.55
360765.94
357960.82
350888.42
350817.98
335812.06
351814.41
336846.71
345362.3
341743.66
334704.74
339455.39
333209.36
342891.53
329824.5
337869.24
332614.4
322570.37
329140
314733.41
324956.03
314746.84
321887.96
318856.51
314638.37
312682.12
305910.87
311849.71
306852.77
307399.16
306594.48
299609.76
301738.89
292844.86
301154.62
292589.19
296956.81
297859.05
287896.98
285430.49
282306.68
286808.44
278496.68
282871.49
281134.9
276314.85
273619.02
271399.25
271452.93
267779.96
270841.32
268811.53
261752.12
261037.58
258670.17
260311.07
255109.38
255630.72
256623.63
249003.39
248672.49
245357.38
247817.98
241743.2
244870.03
244464.53
236867.36
236980.83
234519.76
234511.79
230654.92
232168.76
231589.19
224628.72
225672.96
221302.25
223236.41
218756.77
219712.1
219243.46
213216.53
213791.22
210716.76
211716.65
207480.36
208358.62
208281.49
200390.89
203897.99
199430.24
200648.9
196448.69
197251.03
196877.55
189850.71
193814.35
188830.96
189830.54
186167.3
186788.44
186777.49
178879.25
184127.57
178099.25
179692.97
176078.91
177269.96
176258.02
168733.63
174351.74
168367.86
169979.69
167068.78
167528.94
166815.84
157944.34
166619.26
159357.47
161887.86
158344.33
159918.75
158197.55
150527.96
157822.13
151661.34
152444.93
151379.88
150684.17
150083.01
142717.68
149137.72
143541.79
144642.63
143502.7
143126.98
141855.71
133914.19
139936.91
137585.85
136454.81
135970.41
135643.03
134116.97
126148.18
134768.64
128423.43
129234.61
129112.29
128719.51
127051.9
119723.78
125347.59
122198.03
122269.69
122062.27
121536.84
119758.12
111911.19
118333.93
114749.23
114575.15
114867.58
114464.12
112834.38
105104.09
110629.24
108051.82
107690.71
108092.13
107914.12
106040.99
98196.276
103166.4
101003.62
100250.7
101408.75
100976.16
99407.123
91340.421
95692.744
93879.283
93175.679
94150.286
94016.869
91828.617
84458.963
87793.746
87009.714
85594.063
87720.036
86476.928
85731.159
77440.212
80868.475
80074.933
78950.378
80346.214
81190.713
79094.901
71944.948
73743.938
73135.908
70923.035
74631.998
72257.58
73726.695
65055.087
65297.273
66870.94
64939.126
65468.347
67446.391
65377.52
58627.052
58429.793
59035.952
57879.956
59644.196
60183.785
59195.711
51739.062
52161.739
52529.904
51635.765
52162.458
53375.479
52261.811
45875.632
44900.912
46110.296
44273.859
45929.368
46433.063
45875.207
39284.595
39446.97
39929.077
38864.463
40069.535
40015.044
39537.586
33159.6
31923.996
32942.686
31498.638
32537.832
32874.681
33137.813
27827.866
27530.054
28745.309
27190.168
28642.619
28425.124
27738.102
20928.893
20710.463
20756.815
20015.003
20838.685
20801.996
20965.277
14194.862
13473.848
14724.473
13262.7
14352.906
14317.801
13316.16
6236.0708
3774.0387
3456.799
3180.8545
3993.7128
2995.82
5943.9265
411072.63
431567.95
470362.7
464608.3
478406.64
441540.15
436745.65
319131.56
390381.47
399773.52
412336.27
409744.34
383229.1
359918.8
306390.32
285863.49
320446.17
309828.49
324779.9
291970.62
300620.37
263562.85
274769.19
289974.05
286067.38
290649.11
282884.71
256150.36
271026.57
268533.57
282274.64
273531.9
287447.91
267933.97
274501.27
255375.46
250484.25
255922.36
251146.07
249054.43
257538.9
254976.02
251882.81
249655.64
263241.65
249710.71
261259.55
259399.7
255032.86
244987.91
236683.26
239771.86
233432.09
241648.52
236932.23
246187.62
238856.53
228466.08
241859.58
231688.93
234370.89
237843.4
240522.63
227569.14
223058.49
229755.18
216177.72
226271.03
225563.64
231586.44
222338.4
215444.17
218932.73
211521.1
216987.98
218035.28
221443.02
214357.27
204156.5
214233.04
202601.83
211382.01
208150.28
216769.94
204734.33
197549.86
205379.64
192278.87
200746.9
196858.93
203666.58
196527.17
190598.98
195158.57
184833.07
192072.92
190513.27
191464.21
187706.29
184025.5
184282.95
176320.4
183305.33
180219.95
182397.56
179602.78
174675.15
174959.35
169532.48
172855.12
172289.05
172619.1
170727.4
166880.26
167199.51
160524.69
164428.38
164679.28
166080.79
161889.22
158585.52
157404
153017.41
155854.39
155735.03
155374.33
154279.95
149850.17
149714.87
145217.11
147621.49
147410.55
148245.66
145492.4
141766.04
141802.38
137557.6
139424.77
139396.43
140115.54
138506.36
134252.14
134144.86
130002.22
131856.68
131988.73
132768.75
131654.9
126712.86
126422.57
123144.5
124785.56
124933.63
125208.64
125247.25
119117.91
119739.01
116780.54
118415.99
117716.35
118782.29
118691.63
112765.58
113801.47
111153.65
112141.28
111630.1
112901.59
112755.95
106766.96
107808.5
105155.66
106487.42
105487.12
106907.02
106847.48
101494.32
100654.01
101402.52
99646.712
99591.624
102010.99
100058.75
95888.483
96133.409
94583.172
95688.433
93827.956
96224.362
96095.023
91354.48
90878.727
90261.111
90564.348
89478.797
91275.36
90435.068
85874.857
87013.107
85570.001
86481.676
84367.785
86356.975
85622.827
82029.61
81995.112
81489.463
81388.557
80220.344
81517.5
80817.029
77985.381
78120.267
77555.635
77503.493
76262.879
77009.445
76202.469
74300.431
73815.913
73871.703
73396.739
72491.114
72377.282
71771.512
70563.701
69857.142
70005.409
69543.249
68270.867
67499.852
67253.474
66778.842
65765.609
66488.165
65322.656
64164.353
63369.646
62480.737
63245.042
62081.122
62634.565
61867.349
61013.209
59723.735
58420.942
59773.837
57651.621
59036.692
57627.216
55976.304
54165.013
53545.371
55290.403
53602.446
54732.019
53389.941
52167.175
50346.94
48478.156
51772.881
49256.081
50890.076
49123.002
48250.037
45926.274
43866.376
46857.541
45173.948
45835.061
45032.053
44156.475
41072.863
39180.834
43255.71
40751.844
41777.468
40332.048
39356.185
36428.303
34746.685
37689.347
35759.897
36530.631
35816.373
34833.7
32248.96
29804.829
33573.548
30975.058
32360.904
30915.72
30134.686
28172.887
25687.814
27914.141
26054.703
26943.569
25703.859
25476.753
23668.359
21166.112
23408.543
21367.005
22287.997
21471.346
21121.887
19836.986
15400.424
17587.181
15635.37
16654.464
15560.368
15463.575
14238.106
10272.516
10918.419
8961.1526
9713.8112
9344.5244
9614.9703
9016.2318
4649.3486
2708.3344
717.05107
1494.8108
1549.0746
1876.8353
3279.1107
231164.46
239734.81
229171.32
253695.2
239237.17
227258.62
215531.09
163195.25
236544.25
222803.49
242330.48
213074.82
222797.66
184721.98
156017.63
144721.48
151563.85
156208.1
148511.95
139114.91
137717.46
123305.56
150411.39
154704.59
168047.98
147359.32
160879.2
129931.74
137460.13
128858.39
133181.48
125060.3
126652.62
119337.09
123358.4
120652.8
136169.22
122342.76
128430.02
126067.64
126631.16
123446.95
125556.61
130767.26
112681.95
119967.75
120161.52
115299.4
119518.18
118260.66
131763.27
108998.84
119959.37
113189.01
112166.69
117817.45
119761.52
129872.62
106896.64
114191.19
111297.31
112440
114644.49
116397.23
125350.77
100820.3
108848.88
108739.62
106837.97
110812.41
112891.48
122204.51
98067.444
109208.07
104846.61
106176
106033.24
106852.92
116637.19
93996.739
102666.65
100682.83
99679.135
103710.67
100905.49
115586.08
90222.924
100635.24
96742.424
97816.299
99449.238
98118.575
106917.12
90002.524
96261.397
96276.667
90264.142
100367.14
95885.782
100323.02
85693.591
93192.984
90755.799
87609.235
94218.412
91121.187
94407.174
84370.495
87230.332
87683.535
83664.91
91051.829
85533.57
90927.53
80022.75
84472.719
83086.711
80494.574
85247.235
82404.099
85730.251
77060.633
80544.142
79415.678
76928.688
80577.745
77242.516
82393.12
73553.382
77217.808
75192.548
73277.962
76224.115
73824.726
78518.388
70242.454
73388.687
71486.355
70046.235
72531.554
69419.734
74810.797
66722.167
69859.002
67873.159
66932.535
67836.965
65705.952
70665.002
63614.312
66596.616
64874.42
63131.376
64531.943
61984.689
67124.662
60721.514
63909.375
60686.955
60353.277
60933.304
58493.992
63267.863
57940.698
59840.401
57245.513
57384.237
57168.823
55569.453
59825.238
54985.723
56736.397
54159.146
54643.483
53877.442
52794.526
55349.945
52937.218
53164.76
51333.133
51929.145
50992.015
50334
53254.867
50077.964
51577.386
47967.795
50147.068
47615.493
47537.513
51308.917
47303.407
48591.546
46188.473
46768.208
45975.661
44923.649
47835.54
44769.69
45588.451
43771.208
44090.413
43952.219
42986.252
45214.062
42717.926
43330.886
41589.126
41724.969
41845.034
40886.952
42380.15
40203.112
40724.808
39113.13
39246.121
39839.299
38750.759
39788.396
37760.027
38187.874
36789.587
36654.331
37413.788
36867.232
36895.603
35314.748
35510.587
34318.559
33692.268
35912.879
34585.928
34356.046
32886.15
33081.363
31931.985
31899.621
33928.833
32849.882
31689.081
30383.312
30160.515
29598.79
28398.188
31584.769
30343.784
28827.808
27607.047
27851.255
26696.133
26580.995
29619.817
28580.853
26303.292
25598.914
24907.109
24935.04
23406.458
28264.186
25941.354
24095.662
22736.805
23106.005
22077.792
21754.429
25798.938
24483.103
21555.714
20557.375
20151.976
20060.359
19265.668
23556.697
22149.242
20174.575
17922.783
19183.276
17830.951
17440.708
21084.353
20052.172
16144.282
15820.194
15574.907
15359.787
15110.3
19306.184
17800.435
16402.216
14973.633
15581.675
14729.599
14241.089
16920.677
15810.026
11814.337
11680.422
11369.795
11242.813
11089.086
14846.904
13459.541
11977.815
12100.919
12109.943
11757.376
11831.26
13022.053
10155.026
7715.3233
7762.5438
6782.5907
7316.4402
6927.6598
8630.9095
8146.123
6705.8797
6090.3131
6230.605
6589.5683
6413.3482
8397.6592
4447.9896
517.52029
959.08166
629.53607
278.57703
530.90575
2172.0446
-1134.8881
-12211.497
-3339.1537
1144.5386
-3332.7697
-3444.3868
13951.864
-7109.6944
-2264.2276
-3020.5469
3481.2228
-4088.2372
2254.3924
-4918.5159
12227.323
-25319.393
-18609.921
-29055.19
-17459.927
-26158.18
1236.4199
-8574.9822
-17888.847
-3465.7468
-10045.611
-11224.054
1896.6359
-13277.418
-164.69915
-6934.367
-7061.5483
-28380.208
-4273.8839
-30941.594
4423.6959
-3679.7164
-14943.982
-18419.355
-14227.06
-14590.824
-8393.2429
-5766.9
-3670.4406
-9412.8128
-329.86066
-16869.198
-4939.0778
-12912.328
-637.03544
-1344.8727
-8540.2734
-12588.672
-11400.787
-10995.184
-7258.5302
-1823.5267
-1981.6189
-11785.618
-4939.6976
-13599.174
-5994.7069
-6780.8039
-6871.5031
-4551.4749
-6767.2031
-6415.6124
-12390.915
-7737.2137
-8254.3634
-2811.2294
-2463.2683
-7202.142
-6860.6582
-12200.591
-8750.1775
-6919.8263
-3521.9179
-2615.6705
-6220.968
-7160.0513
-9634.1588
-7991.8396
-4056.1705
-3404.4586
-192.73262
-6928.3373
-5581.066
-9832.5314
-5725.7099
-6228.1724
-2445.2196
180.07535
-6907.2667
1449.3235
-7534.8044
-8206.1392
-3842.7094
-6157.7057
2504.4876
-127.28817
-6356.3259
-5354.683
-7498.2357
-4098.0471
-2301.7908
1373.0032
-615.55014
-5729.3221
-3250.5872
-8056.1018
-2906.6242
-2299.5818
3329.4844
-536.49744
-3760.7709
-1214.1105
-6803.955
-2465.7981
-456.17453
2979.2789
378.66862
-2699.5078
-599.74506
-6411.7172
-1654.8913
-667.43971
4203.9264
1887.8039
-1561.2714
120.09601
-5107.24
-1209.3507
275.61776
4908.9325
2255.8321
-1359.4352
551.40269
-4589.9437
-304.51746
-84.434589
5586.8741
3065.0448
-462.1489
1286.6696
-3087.5686
-220.88581
348.24824
6392.8762
4260.118
-69.495443
2204.5179
-3012.5969
510.51623
866.17615
6683.8888
4632.4307
985.44645
1690.0067
-2156.5823
1029.1673
1072.027
7518.6385
4973.4478
1670.4853
2026.929
-631.43072
1864.3856
1733.6705
7295.0892
5162.4957
2544.0935
2229.8583
977.30604
1890.1563
2307.791
7043.8287
6968.2939
2823.7404
3204.8409
1976.3682
2178.16
3142.3431
8081.4225
6391.2071
3462.9878
3181.2126
2479.2145
2571.2963
2874.0457
7663.8843
6426.9222
3794.7332
3492.1705
2592.6791
3257.193
3103.45
7876.8045
6695.5625
4424.9022
4459.6653
3602.5419
4055.4642
3734.1784
7455.0046
7203.8604
4804.6434
4853.682
3707.9649
4663.4009
3818.7418
7425.6685
7341.7208
5172.1594
5547.3401
4349.2729
5464.9687
3898.3341
7214.7093