/*--------------------------------*- C++ -*----------------------------------*\
  =========                 |
  \\      /  F ield         | OpenFOAM: The Open Source CFD Toolbox
   \\    /   O peration     | Website:  https://openfoam.org
    \\  /    A nd           | Version:  6
     \\/     M anipulation  |
\*---------------------------------------------------------------------------*/
FoamFile
{
    version     2.0;
    format      ascii;
    class       pointScalarField;
    location    "1.31";
    object      p;
}
// * * * * * * * * * * * * * * * * * * * * * * * * * * * * * * * * * * * * * //

dimensions      [1 -1 -2 0 0 0 0];

internalField   nonuniform List<scalar> 
3969
(
905553.04
-1160263.4
7335.0349
3425.3058
1591155.2
-2577158.9
4858.721
3061.1248
685409.77
508336.54
278025.01
45776.901
-145278.53
-411126.88
-472029.19
-12056.839
-2838.8681
-2184.9745
2405.5677
6596.6501
10041.427
10128.268
276233.27
320057.91
306973.82
321921.07
313829.56
312625.21
302183.31
295013.99
284824.06
272832.59
263827.92
253891.11
242176.99
233867.21
223519.09
212575.65
204507.37
193706.47
185493.85
174912.05
166653.28
157108.92
148658.72
140178.53
131627.76
123474.1
115277.95
108108.46
101910.2
94503.922
88752.219
82911.657
77173.1
72007.708
67174.531
62539.369
57696.261
54111.796
48571.641
45451.913
39651.372
35814.179
31703.096
25743.645
23251.972
18651.165
13375.407
-271203.61
-227656.8
-277353.34
-243090.89
-273682.27
-248466.87
-257460.72
-241129.25
-239767.05
-229210.89
-222949.4
-217031.59
-204289.65
-200708.72
-189792.98
-182275.28
-173557.54
-163667.89
-155888.38
-146631.44
-136959.47
-130051.31
-119842.15
-113029.89
-104067.15
-96765.143
-88184.763
-81425.214
-75113.362
-68764.643
-64469.867
-58784.962
-54838.909
-50229.741
-46870.473
-42878.511
-39954.069
-36185.464
-33554.542
-29957.867
-26433.396
-23316.156
-20124.212
-16338.903
-12465.736
-9737.6935
-5127.2688
1173496.8
876713.97
379849.16
-63331.987
-423685.64
-896856.53
-738284.9
-339130.16
-387636.87
-243147.08
-337646.16
-297379.2
-298001.65
-291176.51
-278157.61
-273025.37
-243016.88
-263984.12
-235308.41
-238313.45
-224972.3
-214832.07
-208678.35
-194271.69
-187169.79
-175412.32
-165166.6
-156575.65
-147405.9
-138425.91
-130035.59
-122473.5
-115903.17
-108091.13
-98841.057
-92042.04
-84970.815
-77590.18
-71505.169
-65671.898
-59514.085
-54807.869
-50496.017
-43730.68
-40503.34
-36984.064
-33006.083
-28997.466
-25628.668
-21098.786
-17297.676
-13539.958
-9510.4754
-5570.1802
14936.236
9452.82
6192.4825
5735.6713
-3385.3539
-3404.3708
-12313.819
24548.777
21136.504
23112.706
28351.14
33044.271
37381.067
42261.427
45969.955
50802.052
54092.818
57392.904
65106.128
67782.284
72569.053
77908.631
83430.835
88872.57
95351.903
101446.3
108558.27
116655.81
123858.71
132420.66
141023.52
150591.59
160144
169997.41
178676.53
189862.89
198669.5
209422.54
218368.16
224868.28
237072.01
251802
253958.14
267598.98
270732.02
281106.79
295043.85
309787.01
300459.55
319372.1
305782.57
300280.39
314160.52
317336.58
744771.53
804710.45
845005.03
825645.65
818356.73
816010.77
649852.75
-911115.07
-1183228.2
-1381927.6
-1488325.4
-1432081.4
-1437720.4
-1105710
4950.8108
5344.8329
6094.1982
6825.6952
6643.5823
5234.6167
5388.5377
-731.82711
1685.0478
536.68707
113.72708
729.91305
4676.1954
437.08095
248435.28
249555.96
247428.99
250405.08
249000
246962.48
240546.34
237856.82
226441.28
224191.38
214600.67
204321.76
200620.82
190915.2
184182.3
176386.95
169345.31
161097.73
153272.02
145704.08
138394.94
130499.79
123379
116349.58
110045.71
102574.13
96037.436
90433.659
83878.965
78213.11
73010.673
67497.77
62777.765
58241.224
53897.258
49761.662
45346.037
42127.351
38126.363
35101.77
30971.148
28519.749
23517.822
20714.362
17492.35
11207.161
6023.4563
166215.35
164953.43
158750.03
167298.6
167860.67
170941.4
165288.91
162552
157466.92
155389.06
147904.13
144616.57
137442.17
131344.26
127144.24
120727.16
116175.27
109687.25
105014.05
99219.187
93650.281
87981.598
82644.047
77729.25
72492.086
68326.226
64276.058
59298.609
56029.665
52028.252
48692.968
45299.081
42297.634
39369.133
36652.979
33999.918
31589.331
29792.647
26458.759
25140.937
21924.971
20192.677
16841.759
15929.942
12128.389
8144.6864
2637.0805
80519.973
91313.714
79981.339
87497.797
86175.435
87603.202
85705.87
85511.646
82601.853
80546.993
79266.037
75693.548
73385.567
68964.876
66232.963
63559.938
61448.554
58525.45
56894.08
53980.818
52475.356
50005.611
48020.879
45397.474
43313.566
40775.979
38386.45
36683.818
34554.52
32309.89
30436.627
28186.335
26321.039
24241.359
22734.007
20675.954
19292.974
17518.116
16189.501
15167.189
13062.126
12870.863
10320.675
9893.1942
7361.8534
4679.1918
3439.8847
8953.6017
13359.059
3881.6952
12028.323
5433.0531
7760.8909
2832.7347
4630.7124
1942.2448
7502.047
2661.5575
5692.0038
4524.5898
5177.8706
6226.5924
6045.5779
6720.0426
6983.0834
7579.0556
7246.281
7789.3658
7580.3057
6654.6962
6776.3775
7602.8332
7655.8648
7994.86
8084.024
7958.7526
7911.3966
7864.4454
7423.9687
7127.9546
6742.8231
6337.2941
6133.9828
5392.9419
5165.0177
5035.5835
4715.2332
4711.4105
4570.7685
3448.682
4810.3462
3889.855
5000.9483
5235.4697
-74158.31
-60924.979
-69460.666
-70422.145
-76591.905
-74917.243
-76220.752
-72425.353
-72946.042
-65383.451
-68250.174
-59374.828
-61571.75
-54250.42
-53771.32
-48742.339
-46335.696
-42868.504
-39462.721
-36990.472
-31920.12
-26966.776
-23954.18
-19033.308
-17850.727
-17096.143
-14190.561
-12337.509
-10818.532
-9633.8248
-8194.4208
-7846.0492
-6534.6614
-6511.0826
-5494.1625
-5304.8376
-5237.3808
-4210.9066
-5340.7488
-4520.8232
-4302.1814
-3874.5187
-2622.7948
-1509.0221
-655.9115
1200.0151
3753.5519
-149169.9
-136332.63
-143717.36
-151710.25
-153704.82
-151381.48
-150953.63
-143979.38
-144551.62
-135230
-135560.06
-126976.73
-124237.44
-119024.57
-113987.76
-107136.51
-102198.01
-95639.34
-89928.332
-84537.374
-77321.547
-72474.81
-63451.482
-57416.541
-51631.732
-47093.169
-42897.402
-39092.384
-35504.412
-32161.469
-29838.076
-26970.614
-24906.526
-22855.968
-21087.212
-19391.816
-17776.923
-16670.082
-15329.172
-14917.199
-13528.798
-12046.167
-9653.6618
-7753.3846
-4937.3734
-1134.4914
5078.3131
-257199.38
-183560.82
-221712.32
-216656.15
-226248.35
-217602.47
-219322.13
-208861.78
-211202.94
-195228.8
-196486.07
-186992.34
-179420.75
-171183.03
-162580.04
-154766.1
-145320.47
-137974.79
-129828.81
-121639.6
-114730.32
-106471.05
-99227.638
-92226.353
-85530.49
-79519.118
-74319.549
-67935.575
-62299.644
-57233.197
-52790.192
-48343.239
-44401.917
-40948.84
-37496.013
-34593.073
-31989.063
-28990.694
-27127.951
-23987.662
-21227.65
-18369.686
-15269.841
-12972.831
-9351.3051
-5637.0456
656.10125
564806.36
513245.26
533902.68
529679.16
533191.72
513001.45
474937.75
366637.86
406735.74
378630.49
385433.3
382404.28
366672.07
352981.52
197900.81
227431.94
192293.47
200183.33
187834.26
179827.15
191397.25
60369.885
39860.756
18448.824
34044.93
15576.395
-15738.889
52997.029
-75474.578
-83738.331
-97724.182
-89936.318
-100865.29
-106499.38
-62580.274
-317014.35
-332521.39
-341003.61
-353745.87
-369532.34
-362349.7
-345911.32
-402246.08
-368646.63
-318485.41
-328450.56
-314815.28
-292385.54
-338343.96
-433055.96
-456164.74
-521049.22
-544959.94
-559350.65
-552815.27
-432097.94
-333977.58
-386599.39
-391267.62
-403633.93
-421774.03
-407700.12
-373614.51
-287525.46
-329745.97
-347781.96
-351916.06
-352202.31
-331286.51
-346884.17
-283191.27
-308225.33
-303824.91
-325055.11
-313906.49
-313740.55
-297856.76
-284042.33
-303177.52
-316325.62
-319134.8
-319352.6
-308397.95
-311148.05
-275815.81
-272151.23
-278784.48
-287413.01
-289296.12
-283409.79
-283041.97
-263148.51
-272844.68
-277888.63
-285085.16
-282973.93
-285579.24
-285958.69
-259666.61
-258145.32
-259179.85
-264892.95
-264541.67
-266563.94
-265591.19
-248746.16
-252183.01
-253586.61
-259357.88
-260663.49
-264614.35
-266235.03
-243570.32
-241885.83
-241992.38
-245393.42
-245512.6
-243410.2
-247282.3
-233662.49
-235947.06
-233251.07
-238266.87
-237875.21
-240275.14
-244336.5
-223355.75
-224829.49
-224114.92
-228991.21
-228197.31
-224749.28
-232765.02
-219579.46
-213162.98
-218131.28
-217003.19
-220312.25
-218965.41
-226427.78
-205182.91
-205094.07
-209668.27
-208910.6
-212366.97
-208112.07
-214421.4
-199899.53
-196258.86
-201002.36
-198393.04
-201805.45
-199173.87
-206074.89
-188664.38
-186166.37
-191282.14
-189748.76
-194504.69
-191571.48
-197807.12
-179306.76
-178103.97
-182321.6
-180829.57
-184881.88
-181660.87
-186689.7
-169762.66
-168870.09
-173472.38
-171366.79
-176575.16
-172839.23
-178509.11
-160227.72
-160154.47
-164432.43
-162185.84
-167031.45
-163526.83
-168962.48
-150705.97
-151052.12
-155330.01
-153048.67
-158388.13
-155042.77
-160130.22
-142128.15
-141744.64
-146308.51
-143661.55
-148998.78
-145818.24
-150636.75
-132874.38
-133191.46
-137101.01
-135243.2
-140248.2
-137341.33
-142285.48
-124642.27
-123763.79
-128830.17
-126363.2
-130804.65
-128829.15
-133125.63
-115446.27
-116339.18
-119922.73
-117376.33
-122522.81
-120740.6
-125108.3
-107493.82
-108366.47
-110380.12
-109862.11
-113727.52
-112788.03
-116740.88
-98693.997
-100799.4
-101129.25
-102438.01
-105352.4
-106231.18
-109493.03
-93375.991
-92843.161
-94455.668
-94892.793
-96572.005
-98103.353
-100513.05
-86408.974
-85724.933
-86916.755
-87888.829
-89330.495
-90939.475
-91936.673
-79611.405
-78973.439
-80288.775
-80405.007
-81391.938
-83962.96
-84299.262
-73682.251
-72794.125
-74066.799
-73980.91
-75450.083
-77595.416
-77699.491
-67560.412
-67584.535
-67931.638
-68090.827
-68840.158
-70926.702
-70927.687
-62721.787
-62065.153
-62539.199
-62439.964
-63170.442
-65170.991
-65251.655
-57468.978
-57500.273
-57394.84
-57424.5
-57878.798
-59858.983
-59969.571
-53344.909
-53110.062
-52973.81
-52891.927
-53246.28
-54953.35
-54686.869
-49038.838
-49126.815
-48558.696
-48441.88
-48563.701
-50331.61
-50045.17
-45396.303
-45462.434
-44741.549
-44910.876
-44866.923
-45401.391
-45958.995
-42069.369
-41513.386
-41521.958
-40478.073
-41128.353
-42751.706
-41800.727
-38968.745
-39223.258
-37937.038
-38343.808
-37624.101
-38318.799
-38376.197
-35436.236
-35572.047
-34406.96
-34661.865
-34132.283
-34758.207
-34488.435
-32380.564
-32150.169
-31831.822
-31414.906
-31047.555
-31660.159
-31252.695
-28774.557
-29037.008
-28326.015
-28039.406
-27785.845
-28015.979
-27499.966
-25567.809
-25884.437
-25226.509
-25251.291
-24720.868
-24872.904
-24367.2
-21745.528
-22430.047
-21840.037
-22041.898
-21158.785
-21294.571
-20630.455
-18259.131
-18542.1
-18423.11
-18215.238
-17605.92
-17672.96
-16682.737
-15078.202
-16202.828
-15789.543
-15927.495
-15243.056
-14653.203
-13558.333
-12893.76
-13009.947
-13275.119
-13120.371
-12393.293
-12426.138
-11143.283
-9390.6114
-9882.599
-10270.115
-9244.3963
-10304.509
-9386.2805
-7706.3432
-18972.766
-21862.339
-24606.095
-24720.425
-23601.126
-22449.156
-19649.898
-8669.2078
-9307.3667
-9802.1045
-10524.073
-9816.6784
-8355.5395
-6535.7415
-6004.4369
-7255.1883
-8221.7069
-8132.4919
-7691.5522
-5905.73
-4821.4072
3241.6138
3884.6962
3761.2747
3775.0944
4519.6996
3809.9879
5036.9081
8652.9845
8830.7277
8757.7427
9740.1425
8744.849
8614.4568
8257.1992
13350.994
16228.533
16829.755
17051.935
18187.972
15344.666
14736.257
17102.803
17889.048
19245.59
19362.658
18540.845
17496.842
15873.164
343648.3
344069.24
381427.07
370946.28
379194.99
356002.26
346032.32
357881.41
366707.85
380574.8
377642.53
378215.52
354156.19
344178.93
342615.95
346640.47
354573.23
353888.24
352816.08
334937.71
328173.82
325594.8
337406.18
341096.85
344289.04
339870.68
328016.49
325057.29
324977.81
326862.1
328896.17
330451.88
327256.86
321989.49
312184.39
309214.12
312066.96
315266.84
310829.02
311161.19
300765.89
299313.53
306417.29
305869.26
306521.41
305003.1
308830.79
299935.48
303888.05
290432.49
288786.32
293253.16
282578.83
288322.53
282897.47
282400.42
284785.73
286846.03
286121.86
281824.55
286651.94
279671.27
283774.29
274912.65
270980.4
270669.71
266534.72
271090.15
264417.95
268516.25
265515.56
262254.51
267522.19
260195.6
265826.5
258829.03
263270.52
252754.04
254047.1
253048.42
247737.46
252313.72
247067.73
251671.37
247486.08
242377.23
244475.72
239435.27
243474.94
238183.76
237575.4
235377.27
233675.54
232928.02
231058.07
232914.72
230112.99
234347.05
226107.32
224383.95
222165.37
221815.41
222289.98
219727.63
222149.94
218708.27
213457.49
213824.9
211056.3
213921.17
210421.4
211602.23
207710.98
204531.99
203728.64
202678.53
203132.45
200565.87
201738.64
198193.58
194048.97
194434.64
192342.08
193174
191060.99
191481.01
188410.77
185447.71
185158.8
182765.39
183865.28
181736.15
182605.41
179194.06
175158.34
175188.52
173075.05
174027.92
171798.2
172350.03
170444.24
165892.01
166426.96
163891.79
164860.69
162804.04
163337.6
160967.24
156438.71
157284.84
154720.32
155408.49
152987.46
153803.16
152552.22
147746.84
148911.6
145859.89
146350.16
144288.48
145423.57
143782.99
139008.12
140035.72
136855.88
137306.34
135149.52
136444.69
135644.49
129916.58
131859
128164.3
128745.06
126769.21
128356.06
127421.66
121512.47
123708.28
119853.24
120280.91
118741.22
119903.85
119098.87
114282.87
115659.19
112366.37
112296.84
111008.26
112452.32
112314.94
106809.07
107794.33
105100.51
104918.32
103883.79
105440.49
104002.69
99087.686
101324.7
97960.101
97547.448
96922.458
98224.916
97216.108
93556.655
94096.264
91535.744
91148.787
90906.949
91944.244
90902.45
86898.229
87974.126
85736.398
85045.373
84826.367
85948.299
84175.794
81374.414
81891.033
80026.192
79041.364
79334.477
80358.527
78537.398
76139.353
76549.241
74848.197
73906.123
74427.089
75426.992
73097.567
71162.034
71218.633
70174.483
69136.855
69757.861
70449.227
67734.576
66237.886
66496.029
65477.474
64258.325
65319.932
65746.429
62930.86
62268.647
62177.152
61365.45
60486.504
61661.027
61863.715
58423.033
58095.626
57216.272
57518.768
55906.739
56152.773
57587.451
53384.633
54228.15
53388.925
53248.425
52525.474
52692.605
53998.219
49013.125
49254.593
48730.77
48970.42
48377.323
48306.712
49694.475
45307.135
46201.948
45480.468
45905.236
44600.385
44520.271
45696.447
40009.976
40517.595
40172.518
40671.181
39790.623
40504.616
41038.944
36622.203
37550.152
37150.878
37512.409
36661.138
36341.456
36907.478
31880.225
32758.798
32392.821
33072.094
31893.504
31747.131
31776.656
26691.665
27666.765
27575.539
28062.272
27307.982
26817.967
27497.847
24233.038
26549.033
26914.484
27503.954
26519.439
25234.523
24064.65
20895.219
21889.471
21759.932
21904.946
21831.831
21888.334
20165.15
23618.662
26437.208
27767.302
28475.748
28297.458
28395.957
26383.021
328548.97
251892.93
252044.5
245753.49
256092.27
258692.1
246088.71
247212.61
240308.07
235609.14
227066.01
219591.66
211566.64
201629.97
194091.46
186237.86
176777.1
168769.44
159681.31
151224.77
142589.34
133724.12
125446.54
117576
109718.27
102361.65
94750.139
88410.368
82300.876
76543.477
71078.424
66231.059
61453.745
57265.267
53741.567
49027.901
45684.184
42694.894
38727.664
35639.639
32410.228
28761.826
25564.144
21440.772
17395.175
12001.648
4055.9905
197915.34
191107.06
146297.23
165935.26
190446.12
176031.79
185887.91
173706.87
177284.28
167363.86
164805.26
159548.2
150304.42
148022.98
141663.03
135861.49
129794.57
121726.6
116923.4
109374.63
103238.5
96685.233
90712.064
84220.825
78467.147
71887.302
68217.671
62732.725
58606.752
54664.038
50884.129
47680.644
44409.217
42044.241
38701.693
36999.058
34234.857
31898.027
29733.611
27824.841
25264.043
22924.271
20384.794
17341.915
14340.111
10489.164
4032.0159
88462.126
105256.05
62685.013
96197.986
86008.393
79021.144
84995.187
80651.547
81370.953
75861.22
81655.671
76041.562
80727.339
76110.767
75166.494
73913.021
70001.342
67514.458
64698.722
60212.308
57049.108
53548.296
49891.79
46651.694
43478.65
40461.349
37799.428
34363.351
31938.903
29707.77
27601.272
25907.635
24299.49
22788.141
21245.184
20266.545
18812.619
17903.172
16442.717
15666.071
14299.482
12998.85
11553.499
9888.6339
8123.5923
6446.2043
272.78009
-16497.511
16298.567
-6568.7446
11280.243
391.76735
7510.059
8073.7384
-59.110699
6118.397
8016.7057
6296.4518
10140.227
8642.1137
12536.987
14201.957
13572.248
14137.449
14049.462
13834.55
13045.267
13307.997
12756.116
12413.669
12077.871
11274.556
10745.978
10260.501
10192.399
9733.6891
9661.2282
9409.1282
9936.85
9631.0115
9909.8371
9725.0528
10003.815
9571.8445
9635.7511
9122.6219
9146.0434
8630.2091
8240.6363
7751.6868
6824.2778
6742.3602
4957.5649
2473.3919
-144809.33
-71390.42
-81633.97
-60822.788
-72412.56
-60759.303
-69633.994
-65275.733
-56858.1
-61205.573
-50746.683
-55262.509
-47692.946
-49064.431
-44730.394
-43010.193
-40251.023
-38098.115
-35732.153
-33542.381
-31097.074
-29185.743
-27058.246
-25238.47
-22826.712
-21238.349
-18938.061
-16903.1
-15532.314
-13975.908
-12505.464
-10995.992
-9697.5959
-8110.0961
-7086.3313
-5749.7667
-5031.4438
-3710.3693
-3368.9501
-2214.9468
-1898.7036
-904.23905
-722.8306
206.41793
904.78795
2001.2527
3015.5631
-217814.08
-163281.88
-142380.62
-143781.72
-150287.26
-145605.37
-149642.77
-134190.11
-144890.89
-136336.4
-136160.58
-131144.73
-123312.86
-121585.08
-113365.63
-109245.8
-101790.26
-95817.149
-89593.686
-84082.237
-79055.07
-73737.164
-68697.479
-62281.749
-56911.081
-51515.083
-47823.845
-43728.643
-39949.654
-36088.596
-33112.517
-29573.902
-26665.646
-23759.112
-21152.082
-18837.883
-16435.248
-14504.585
-12674.123
-10868.742
-9353.6407
-7651.1867
-6081.9737
-4283.3449
-2374.9578
711.90873
3679.1864
-276573.7
-220364.04
-226689.56
-223757.77
-238351.33
-231866.87
-228641.64
-222335.88
-219325.64
-208123.91
-202306.62
-194679.03
-185530.42
-177688.7
-168894.25
-161588.77
-155095.86
-146753.12
-141082.91
-132967.91
-125915.01
-118355.44
-111579.76
-103884.71
-97600.979
-86817.38
-82164.968
-76530.564
-71270.237
-66398.917
-61652.184
-56521.882
-52352.159
-48128.565
-43658.457
-40144.921
-36773.737
-32793.878
-29971.161
-26569.379
-23886.59
-20254.499
-17838.178
-14214.835
-10191.606
-6511.571
-1372.3117
428579.93
463502.43
448079.27
463613.51
453526.17
424922.68
393449.05
297627.21
337638.4
333235.02
338175.72
329129.44
315128.29
284630.08
282586.55
306689.71
314276.22
316271.41
308360.77
302334.7
282680.29
271730.09
274911.37
279617.2
285820.77
272507.82
271428.14
250632.05
261764.85
266459.49
274484.2
268191.6
263358.66
261401.92
239245.13
256389.31
264292.94
254966.86
263420.33
256407.76
250450.55
251651.4
251872.74
248192.29
248049.3
249896.67
237097.67
245581
237846.07
241420.65
252032.34
242611.65
245113.54
243225.76
238605.52
235430.36
240678.22
237203.86
225752.55
237600.38
226314.43
229524.46
226126.11
229962.58
228757.31
229661.04
231543.83
223075.82
226277.02
224372.38
220703.57
225803.21
215621.49
220038.36
213065.01
217596.47
213490.92
218838.32
214105.57
210599.47
213082.66
210231.94
208246.57
208280.08
208102.58
207780.63
202625.94
208273.59
199919.98
203980.67
203162.28
200243.01
196988.6
197509.69
197169
192389.06
194124.57
192369.1
193457.37
191193.75
188921.95
189061.77
185832.37
187908.55
185927.31
184087.26
181719.9
181968.11
181335.22
177843.97
177008.97
177710.71
174823.17
174438.65
172378.95
173586.75
169073.68
170196.64
169930.22
167608.58
166270.88
165851.81
164407.75
161529.08
161794.5
161738.11
158196.63
158677.64
155692.66
156656.76
153112.28
153153.3
152289.15
151154.94
150196.03
148587.53
148581.29
145214.13
145075.48
144830.71
140805.63
142722.48
139737.56
140266.16
136728.61
136679.13
135721
133648.75
135381.8
131839.1
132054.23
128918.79
128620.18
128378.44
124761.8
127387.82
123007.62
123837.07
120636.22
121249.58
119453.57
116950.08
119855.48
115317.88
116109.47
113655.1
113362.53
111708.37
108284.23
112974.34
107566.73
109065.24
105913.51
106558.43
104152.44
102174.03
106104.83
101264.53
101132.4
100231.79
98945.58
97428.428
96053.421
98559.966
93790.383
94739.243
93480.411
92386.499
90719.032
88689.734
90931.207
89208.239
87993.087
86822.963
86499.754
83842.009
82507.184
87123.045
81380.818
81954.966
81559.228
80725.758
78264.089
77926.449
79308.336
76669.228
76777.954
76082.043
75183.546
72701.382
71752.564
74223.436
71180.503
71017.574
70694.166
69992.009
67685.64
67160.951
68790.204
66554.182
66264.906
66243.848
65691.629
63079.691
62605.777
63726.356
61826.533
61504.227
61888.825
61111.983
58689.763
58055.943
58851.089
57550.086
57229.838
57459.086
56927.234
54403.911
54005.388
54344.52
53760.324
53114.98
53858.75
53224.199
51090.935
50098.257
50391.511
49759.105
49237.013
49950.04
49884.073
47014.007
47093.456
45718.39
46374.369
45169.084
46506.455
45564.093
44281.939
42899.603
42146.956
42635.444
42118.701
42489.308
42771.213
41217.353
39774.148
38416.097
39416.07
38688.477
39463.967
39633.207
37614.91
35709.521
35174.959
35975.722
35435.305
35911.031
36030.86
34649.398
33060.27
31556.25
33013.043
31614.259
32609.924
32622.697
31269.381
28969.201
28673.923
29740.45
28996.516
29976.54
29363.384
28220.669
25419.579
23907.279
25386.236
24332.61
24975.729
25092.628
24590.341
22203.358
21802.356
23515.807
22284.971
23462.491
23092.035
21790.834
17408.469
16797.593
17518.713
16945.756
17513.693
17498.551
17034.402
11533.78
10963.006
12600.978
11254.294
12133.292
12165.636
10945.743
5182.2419
2882.3663
2847.286
2519.6132
3270.529
2426.9521
4917.8016
290224.82
300252.19
322269.96
313807.75
316683.03
285123.37
278581.8
220066.22
260371.88
263630.35
268175.98
262996.24
241620.2
226248.52
214049.38
198835.9
220661.67
212373.79
216817.58
193576.74
190121.59
183222.9
189799.65
196941.03
192085.12
191633.75
183380.28
166162.82
189147.97
188186.54
194024.48
187065.56
193420.8
181386.87
177697.18
178888.04
176299.24
177064.58
173150.8
169646.16
172422.57
167267.32
176541.09
176936.98
183403.42
173407.48
178464.72
176628.51
169224.27
172311.87
168014.48
166538.84
162335.24
166892.12
160488.6
163510.99
168575.5
162023.26
169821.47
163738.28
162231.85
163166.58
163194.17
159043.68
159689.52
162016.63
151695.47
156933.43
155846.41
156997.48
157646.5
154875.43
154039.89
149593.38
153161.84
151451.52
151386.52
152443.99
145852.51
152111.66
144692.77
149152.73
145029.85
150222.65
144748.67
142112.9
147383.69
136867.88
142372.57
138641.21
141555.7
140546.43
137861.77
139717.46
132320.61
137447.53
135313.86
133746.47
134405.16
133052.81
133231.65
127445.83
131634.69
128195.01
128111.58
128731.21
126264.85
126466.87
122715.79
123885.36
123688.84
121372.63
123271.66
121848.02
122106.65
116825.8
118818.56
118854
117824.25
116773.05
115526.86
114329.73
111362.03
112382.68
112386.38
109916.8
112285.85
109784.98
109592.62
106185.22
106830.07
106844.15
105096.94
105296.72
103500.85
103345.02
100301.79
100506.36
100457.44
98772.134
100842.78
98403.304
97980.718
94896.665
94799.268
95070.521
93440.808
95487.19
92316.337
91807.458
89276.614
89049.11
89316.662
87026.85
90735.9
86770.652
86663.655
84400.021
84082.652
83461.216
81792.702
85744.496
81489.573
81692.745
79490.524
78625.11
77820.257
76624.069
80928.274
76699.903
76668
74477.553
73771.305
72629.847
71686.104
76161.284
72075.834
70882.067
70616.551
68142.695
67187.962
67233.931
70678.394
67207.646
66481.661
65458.6
63789.152
62506.633
61926.061
67033.506
63347.54
61981.014
60853.796
59813.845
58061.733
58053.985
62477.542
58398.993
58319.625
56951.845
55951.89
53751.21
53797.56
58205.531
54736.311
53939.41
53263.679
51367.611
50127.793
49898.307
54157.262
51294.354
50547.977
49670.91
48124.809
46937.026
46615.205
50416.054
47993.766
46675.001
46615.697
44742.603
43882.905
43251.097
46878.297
44680.642
43559.126
43445.337
41712.805
40684.344
40205.34
43308.867
41797.701
40454.189
40864.696
38791.474
38267.003
37774.28
40166.123
39118.342
37801.196
37892.527
36469.101
35753.984
35528.89
37062.683
36421.169
34762.164
35707.307
33739.081
33518.174
32451.553
34053.495
33884.458
32730.783
32949.767
31986.145
30877.081
30897.632
31124.893
31896.868
29996.358
30980.643
29320.854
29265.234
28762.482
28649.236
28834.595
27929.954
28391.277
27423.416
27355.429
26412.146
26168.741
27360.934
25695.367
26454.57
25188.896
25089.338
24178.895
23870.892
24245.482
23428.303
24024.378
23327.279
23240.939
22212.332
21038.891
22400.11
20948.092
21929.793
20897.726
20822.43
20044.898
18994.017
19246.35
18729.175
19201.566
18412.458
18552.124
17598.532
16466.329
17605.447
16665.176
17158.196
16806.792
16565.788
15426.749
12019.704
13103.753
12276.551
12928.95
12284.163
12135.306
11031.713
8809.8405
9522.1074
8501.7509
8915.5168
8865.3792
9023.7388
7780.4572
3289.871
1046.7332
-340.56757
96.693322
384.15882
481.95177
1588.6695
176835.38
178567.43
164328.19
176743.35
161117.94
146069.58
137630.51
122833.6
165097.42
156052.4
162405.06
140340.66
144560.31
116390.44
117469.09
110556.05
114861.62
113248.62
106317.31
96515.95
87508.446
97510.594
109607.93
112711.01
116187.59
101344.33
105744.1
86996.777
105152.35
96293.473
100119.48
92315.232
89558.258
86209.286
79111.949
93383.485
99883.239
92042.282
91857.284
91550.344
85470.485
83531.538
98437.868
96328.748
84986.945
89057.298
86358.382
82330.552
82197.202
92711.489
95720.487
84032.477
87441.138
82706.117
79181.365
81765.621
92944.275
95742.032
82130.063
85399.828
81919.556
81841.641
80973.969
91947.029
91625.647
78163.131
80415.01
81286.284
76829.248
79180.82
88257.87
90568.29
75672.042
83083.493
78607.028
78477.318
76695.859
83262.78
85905.737
73852.071
77450.341
76388.297
72595.847
76375.299
79981.541
86969.313
70081.345
77234.833
72884.21
73898.169
72852.187
77913.426
79905.332
70909.292
73661.768
74466.671
67373.556
74568.364
74451.302
76466.954
66595.306
72444.567
69453.443
66265.015
70474.38
71778.96
72226.531
67341.229
67390.669
68062.321
63656.8
69077.906
66631.32
70454.805
62691.592
65765.475
64580.22
61587.888
64123.398
65768.95
65914.185
61251.295
62583.854
62067.5
58632.287
60992.333
60550.203
63768.057
58037.845
60205.058
58455.008
55955.988
57291.155
58961.011
60777.369
55731.072
56867.254
55585.866
53249.781
54649.529
55001.229
57854.1
52403.922
54006.333
52246.261
50771.553
50253.414
52474.505
54618.945
50027.503
51070.415
49787.565
47361.792
47464.451
49427.99
51708.021
47062.419
48573.319
45722.138
44754.855
44081.747
46756.256
48460.096
44621.382
45060.892
42544.96
42258.351
40726.205
44150.055
45391.1
41655.516
42088.004
39492.665
39656.542
37636.061
41934.19
41624.111
39550.23
39077.232
36635.838
37208.75
34590.177
39493.298
39660.313
36842.505
37271.273
33399.538
35334.466
31642.398
37242.703
37754.27
34255.856
34367.308
31718.045
32437.848
30061.33
34639.5
34595.013
31684.667
31934.28
29217.978
30065.51
27949.537
32956.918
32172.342
30122.588
29716.469
27351.407
28269.511
26065.102
30745.812
29923.759
27750.468
27661.469
25294.709
26545.663
24363.575
28927.009
27587.84
25931.108
25751.678
23597.025
24808.751
22361.598
27123.91
25475.855
24180.591
23947.313
21922.857
23101.416
21519.195
25333.341
23557.645
22561.695
22325.046
20427.681
22132.052
20038.896
23741.6
21684.702
21026.327
20573.222
19204.353
20240.906
18959.55
21972.628
20036.758
19408.055
19357.31
17847.739
19427.367
17978.802
20914.214
18397.849
18414.073
17752.063
16911.957
17605.577
17219.494
18897.586
17027.158
16530.095
16685.252
15444.789
16827.797
16267.988
17853.498
15544.692
15778.881
15022.318
14773.544
15420.83
15231.483
16201.404
15004.66
14263.721
14786.047
13695.006
14560.393
14167.254
14848.987
12216.608
13030.103
12175.202
12214.435
12751.738
13279.894
13303.458
12809.097
12566.343
12502.223
12153.756
12257.629
12193.936
12187.321
9652.871
10302.319
9512.6985
9796.9978
9748.3747
11090.243
10044.747
9484.8437
9983.2138
9666.9102
9756.9505
9750.9165
9988.2747
7906.1429
6155.0974
6596.1796
5527.7282
6201.7868
5708.3436
6883.5264
6127.5613
5090.1979
4732.0991
4525.5059
5070.4182
4790.1048
6574.6933
3102.4703
-201.57631
65.741253
-413.94765
-409.42449
-672.11568
1250.2409
30143.291
14442.478
15400.509
15762.567
7106.0953
1220.7513
7968.812
14699.482
17771.199
14426.254
15167.57
6080.36
5826.1879
-2561.3834
29296.509
3676.8776
6243.2414
-3154.9131
1589.2807
-9963.65
147.21744
12713.491
4367.1848
11369.994
5543.4587
666.36618
6478.3175
-6546.2192
15393.851
10537.102
11533.07
-5917.2499
8978.78
-11538.07
3343.462
13039.886
5995.0349
2293.1318
4545.9271
441.76298
3055.2622
1923.4471
14376.017
7741.0967
15455.794
262.65221
7513.2594
487.86996
3014.4131
13901.868
10728.669
4638.8063
6610.2055
4030.497
5069.2396
4012.838
15805.292
4925.0306
10220.037
3973.3794
6062.57
4390.9837
1641.7656
10069.95
9215.9733
8776.4143
3931.8323
5260.1868
4066.1354
4753.908
11425.529
8576.4028
7354.0118
4107.4427
4922.1261
4895.5307
4370.4958
11322.116
7945.2806
6778.5832
5267.9373
4816.8557
6481.1558
5033.0087
11679.184
7717.698
7780.0013
4764.0289
6462.7845
5944.3243
4423.0979
11082.713
6288.2602
11425.114
5570.8351
4756.9724
5986.188
2664.134
12276.939
10590.19
6525.8699
6699.3477
4131.741
6117.3645
5703.6278
10508.023
9132.1265
6359.3488
7177.3167
3602.6973
6668.1616
5323.0382
12307.14
9236.2688
7352.3157
8808.726
4134.6445
6801.8352
6142.8724
11144.679
8827.2102
7854.8618
8619.2082
3931.3469
6480.1036
6002.4686
12033.929
10572.233
8499.0392
9135.9028
4461.4759
7039.1434
6690.718
12481.089
10036.502
8131.3053
8646.8829
4506.2247
7102.1773
5644.9924
12711.493
10984.557
8576.2561
9408.0873
5510.051
6855.8741
5780.1363
13683.924
11398.168
8574.4643
9538.4048
4927.243
6858.8627
5677.3174
13696.251
11829.565
9127.0895
9148.3606
5451.1614
7169.6924
5473.1745
14452.464
11617.053
9463.8472
8985.5194
6300.6425
7263.0036
5353.7219
14366.357
11832.459
10033.993
8999.9025
7164.4975
7025.363
5070.67
14214.958
12843.763
10153.751
9141.5694
7617.0911
6679.9174
5399.2512
14974.67
12094.368
10210.081
8914.9186
7443.1925
6862.4471
4618.2489
14259.851
11684.564
10242.171
8558.1489
7338.8888
6928.8057
4266.9244
14267.755
11495.041
10179.692
8874.4439
7610.9687
6957.8479
4475.1127
13470.103
11243.747
10068.234
8552.1618
7198.5955
6970.3968
4462.0263
12810.695
10830.308
9663.7605
8228.7022
7288.9148
7015.5121
4236.5021
12112.403
10388.679
9362.2413
8318.4062
6983.1401
7109.9051
4105.3108
11371.887
9976.1196
9122.6923
7931.0556
6859.9847
7243.4646
4276.1576
10694.359
9479.2646
8610.2416
7771.5141
6655.7254