/*--------------------------------*- C++ -*----------------------------------*\
  =========                 |
  \\      /  F ield         | OpenFOAM: The Open Source CFD Toolbox
   \\    /   O peration     | Website:  https://openfoam.org
    \\  /    A nd           | Version:  6
     \\/     M anipulation  |
\*---------------------------------------------------------------------------*/
FoamFile
{
    version     2.0;
    format      ascii;
    class       pointScalarField;
    location    "1.69";
    object      E;
}
// * * * * * * * * * * * * * * * * * * * * * * * * * * * * * * * * * * * * * //

dimensions      [1 -1 -2 0 0 0 0];

internalField   nonuniform List<scalar> 
625
(
18760.083
7415.0363
29441.016
8552.6185
12529.185
16087.82
10214.867
26249.739
3117.4879
55.604875
3177.3502
-2333.6226
-11061.155
42685.087
21819.328
16110.162
15394.284
15764.311
13253.707
15682.41
15456.253
14027.86
14637.569
8776.3462
4496.3844
-4133.0083
-13531.246
-26756.849
-39440.328
-54108.943
-66140.902
-76508.4
-76582.22
-73436.511
-59340.611
-44558.502
-9958.9454
19945.784
4332.5006
15612.719
7516.2431
-88.141589
1249.5856
-9129.8984
-9687.8252
-11047.922
-10967.521
-3838.7267
3911.166
18284.13
35768.281
57700.213
80904.113
104535.92
123544.14
136841.91
138584.5
128176.67
107671.82
64987.549
1953.4185
1656.887
8702.822
34760.316
43758.31
13765.257
17912.368
15963.49
-2815.8987
-3723.9451
-5476.2344
-10420.244
-7347.2548
-7093.2056
4307.229
15664.831
34365.285
56312.647
77393.209
98997.504
113253.14
120942.18
117941.81
105138.64
82688.777
61486.227
33792.635
-6918.6897
-1265.0162
-1275.8426
-15399.787
-27683.572
-37406.856
-41716.153
-40161.341
-36342.316
-29186.892
-21999.254
-14610.826
-9036.6625
-3323.0401
-70.307984
5395.7866
2970.6838
3534.0691
6613.1969
6283.0169
7475.2825
1948.6194
12706.87
8143.1283
18136.843
12236.453
11231.783
7786.6061
7729.2342
7780.8297
8494.4922
7590.1317
9669.6788
8334.9495
27774.775
29283.557
28272.305
9527.2754
4621.845
4483.7836
1276.4391
-2520.8542
-3767.6587
-8457.7693
-9807.9019
-11505.98
-11273.364
-7211.5222
-1811.8394
7765.6855
20149.615
35241.535
51034.623
66726.133
79130.754
87097.292
86375.533
82306.816
66702.815
40549.446
2959.4347
2200.6167
2785.6364
349.48831
484.78541
-1052.8725
-3300.215
-2247.0009
-2469.0684
845.77199
3264.8158
8146.3403
13489.047
19154.977
24445.599
28916.189
32195.031
32834.924
33330.718
27429.949
23631.102
13767.949
5361.5967
4690.6377
1859.6224
3361.5383
4663.6305
8908.8857
9310.6506
14501.771
14101.08
13814.898
11941.977
5877.5496
-285.97674
-11225.766
-23458.918
-38755.152
-54436.601
-70966.714
-83062.477
-92998.896
-89960.435
-79328.532
-57044.072
-15933.951
1261.4071
1315.4169
358.25162
187.54653
40.789423
1800.2908
2260.0308
2795.8473
4595.9661
22837.879
28159.595
30588.056
26640.933
25221.268
29880.059
12757.698
10179.857
19396.912
9299.9435
12159.182
10130.428
7674.1136
2553.2677
11911.22
-768.68053
1763.9979
-204.76684
-1783.101
-7186.0293
-2156.4365
-6142.067
-12805.411
-6111.944
-8921.4806
-12003.235
-10164.8
-5085.3954
-12319.247
-6384.1874
-2777.9611
-6623.228
-4205.6843
9215.8355
2730.6757
7063.4153
22167.822
18437.24
21984.19
42690.04
38505.771
41010.241
64761.344
62811.628
65681.227
89191.569
88508.152
89785.57
111842.08
112333.83
113101.58
129215.44
130390.87
131029.33
138910.38
140524.83
140544.54
137277.59
137960.02
138296.71
123495.36
124690.44
125133.99
98366.343
100315.11
101140.88
65268.141
64055.56
66579.44
-3519.3997
-2285.2228
-2144.5554
-5974.1811
-6717.0487
-10397.134
41546.1
41716.291
39963.951
20988.683
16763.951
13454.172
17735.515
11752.992
11728.147
19367.791
15150.358
15339.448
13712.945
10266.617
7456.2734
17109.838
13826.341
12927.127
14315.111
9652.6178
10431.276
14231.196
13755.314
11681.603
13677.033
10429.121
10994.556
11493.976
10700.495
10038.646
8143.9006
5007.9708
9179.0241
3503.01
3434.5058
5227.0491
-1734.1704
-4342.762
1036.12
-10725.404
-11661.339
-5884.6675
-19968.698
-22230.076
-14495.248
-31235.233
-33155.514
-24525.799
-42953.288
-45172.327
-35797.463
-53637.976
-55698.961
-45888.43
-61057.512
-63113.525
-54350.546
-64042.695
-67416.834
-57203.878
-59625.052
-66326.058
-55515.007
-45990.458
-52888.439
-44806.55
-34418.067
-35141.719
-32067.883
-6043.2752
-6052.8823
-4734.3733
8908.1386
4916.6723
2469.6597
2145.2652
-834.21131
-3665.2689
-4267.4158
-8028.2196
-8836.1066
-8365.4568
-5819.2291
16.046775
8105.0702
19401.922
33115.927
47450.384
60885.828
71572.415
76856.766
77079.15
70133.027
55151.698
47539.907
1550.6925
7627.266
-273.80029
4546.5973
984.33913
3287.3848
2501.6634
4063.5068
7187.4775
8223.2745
9627.8367
11121.274
8701.3063
6713.4263
1864.4379
-4259.6517
-10830.889
-18126.464
-24175.694
-28676.797
-29925.783
-29649.702
-12160.891
13123.651
4035.3026
11027.74
5782.4846
15268.418
17246.34
16842.743
22949.996
17164.121
16584.684
6827.6438
-2613.8917
-17239.979
-33706.838
-51825.998
-69810.444
-85230.816
-95958.922
-98685.707
-91762.031
-74436.657
-45630.294
-8758.6044
10812.645
9008.4041
7764.3195
8173.8989
6747.2674
4705.5455
5811.828
4120.8391
3879.7969
3371.0131
3123.7333
1332.7533
1713.5356
-639.59803
-489.54761
-1332.848
-2408.0198
-3426.6315
-5053.2108
-5931.9518
-5585.9741
-5931.4321
-6742.2371
-7292.5615
-7669.7481
-10117.463
-9439.9069
-6846.8643
-7618.1331
-7109.8413
-3193.8796
-5173.5328
-5185.8258
2483.9033
1075.0678
2124.1433
13119.863
10859.05
11367.916
26050.007
23465.421
24380.598
41482.884
38384.229
39422.502
57585.962
54572.515
55573.841
72798.081
69417.188
70609.13
84327.587
82117.503
82304.345
90907.26
87812.284
89737.888
85830.181
92772.108
88752.282
80565.198
84737.827
81066.477
66073.06
64858.408
64619.387
43713.306
44875.861
45633.371
2160.1088
2310.4192
2309.0754
5054.8244
7418.4717
7587.2756
2476.2948
-649.79145
1158.523
2873.4233
2948.7292
4730.153
3058.8429
-1082.0816
538.03335
1544.0677
-1341.6858
1380.8288
2356.171
-1498.4786
918.81418
3455.7722
-899.07142
598.60173
3486.4926
659.3712
2979.8438
6647.3386
3694.2384
5228.1149
8425.8944
6051.6709
7209.4446
10580.024
9001.4835
9853.8441
12603.754
11873.844
11249.016
13407.799
13071.99
11752.564
14261.254
14106.368
11829.031
13563.905
13046.51
10340.321
12446.543
11584.419
8324.8969
9639.0053
7724.0781
5123.863
7170.5959
4470.4907
1898.09
1517.997
541.37289
-2637.6351
-8072.4183
7571.2884
-3783.2691
-7625.7743
-10220.806
-10646.619
-6564.7501
-8233.9649
-7408.0351
7533.4147
9175.7662
11445.226
1088.5057
1255.6157
4578.0113
5296.389
10620.645
11595.471
8760.3753
7833.961
8422.7008
10272.629
14240.623
13766.287
14158.847
16207.767
16087.069
18085.664
19411.914
18443.856
16787.248
20619.668
20112.689
18363.206
19196.257
19370.5
14051.73
16439.004
16077.154
8121.4595
8685.0087
9653.2187
-127.57993
-735.54012
483.27842
-12122.816
-14749.032
-11445.975
-25630.148
-30294.741
-26182.118
-41420.962
-48481.299
-42436.669
-57782.365
-65982.716
-59037.279
-72786.698
-81984.939
-74342.365
-84682.552
-93125.032
-85508.131
-90496.534
-96886.229
-90890.381
-86415.733
-92349.881
-87017.762
-74885.19
-76519.034
-74274.279
-49853.048
-49712.926
-48363.783
-12085.323
-11832.698
-10203.355
)
;

boundaryField
{
    free
    {
        type            zeroGradient;
    }
    fixed
    {
        type            zeroGradient;
    }
    freeTop
    {
        type            zeroGradient;
    }
}


// ************************************************************************* //
