/*--------------------------------*- C++ -*----------------------------------*\
  =========                 |
  \\      /  F ield         | OpenFOAM: The Open Source CFD Toolbox
   \\    /   O peration     | Website:  https://openfoam.org
    \\  /    A nd           | Version:  6
     \\/     M anipulation  |
\*---------------------------------------------------------------------------*/
FoamFile
{
    version     2.0;
    format      ascii;
    class       pointScalarField;
    location    "1.83";
    object      p;
}
// * * * * * * * * * * * * * * * * * * * * * * * * * * * * * * * * * * * * * //

dimensions      [1 -1 -2 0 0 0 0];

internalField   nonuniform List<scalar> 
3969
(
-205761.71
302971.71
6038.0686
1786.0142
-324582.54
619058.52
2723.7788
564.55108
-129243.3
-92372.914
-43736.511
-1642.1846
27571.034
83772.157
81659.6
-15938.302
-7080.382
-6218.1414
-740.64314
4408.2053
9000.0016
9124.0257
-50938.031
-52561.028
-43665.949
-39299.389
-31307.282
-24001.364
-15844.186
-7447.9229
100.47909
8394.7954
15754.376
23204.477
29362.565
36166.708
42304.634
47989.835
53843.729
58727.374
63511.052
67566.58
71467.427
74660.392
77624.759
80288.96
82041.804
83455.694
84202.161
84718.73
85288.305
84482.889
83777.421
82412.172
80454.971
77963.146
75202.033
72132.852
67675.604
63996.853
57941.852
54055.794
46789.832
41350.89
35773.038
27355.439
23857.321
17163.319
11402.269
61003.218
44401.25
44173.977
32069.631
30109.096
20808.14
14510.509
6426.8924
-740.32439
-8152.4488
-15822.003
-22530.218
-29321.588
-35686.973
-41767.431
-47129.698
-52389.022
-57127.77
-61271.205
-65404.2
-68152.447
-71721.17
-73069.019
-75657.704
-76397.038
-77207.588
-76849.622
-76426.817
-75685.326
-74568.652
-73505.603
-71566.037
-69643.087
-67010.323
-64388.638
-61174.708
-58020.566
-53569.204
-50335.949
-45094.711
-40565.429
-35689.279
-30858.501
-24871.562
-19405.265
-14795.332
-8559.9877
-196499.68
-141389.11
-35277.945
30202.425
97266.19
179503.66
134939.77
79791.812
80427.857
36373.75
49741.007
35132.544
27758.471
20774.307
10493.376
3313.7804
-6219.9119
-13355.586
-20284.037
-27824.635
-35311.164
-40832.677
-48174.312
-53027.532
-59395.914
-63423.271
-68647.283
-72266.45
-76174.39
-79134.233
-81829.623
-84318.763
-86384.513
-87557.351
-88200.049
-88851.658
-88562.278
-87553.465
-86197.986
-84217.324
-81554.412
-78732.08
-75506.526
-68788.772
-66140.949
-61029.976
-55331.076
-49007.247
-43076.756
-35734.676
-28788.793
-22236.007
-15404.169
-9366.9666
14075.959
7584.0411
4443.9745
2780.3609
-7596.1686
-7067.6549
-16471.495
23635.64
19506.473
21808.896
28152.346
33999.771
39423.655
45293.259
50287.017
55662.226
59515.073
61849.042
71162.431
71667.649
75241.941
78234.454
81033.895
82661.93
84591.26
85723.012
86283.884
86838.596
86373.906
85702.219
84296.887
82657.86
80095.153
77436.612
73509.358
69977.154
64958.066
60276.716
54459.676
47724.887
43024.918
36120.196
27986.066
21289.612
13916.588
6004.6462
-2128.53
-11599.615
-16982.481
-26812.206
-34456.258
-34956.136
-51376.212
-56672.076
-178936.82
-197463.72
-204691.99
-200795.35
-198485.04
-189485.15
-164762.43
262050.14
329028.43
371376.38
401057.08
385068.61
387265.73
334646.06
3557.7311
4559.2717
5236.8663
6668.885
6115.5837
4847.5774
4460.4472
-3229.4975
-1182.6663
-2024.4826
-2716.9863
-1764.8631
2921.5094
-1607.7511
-42127.131
-38924.584
-34048.717
-29728.661
-24833.282
-18949.561
-12870.297
-7162.1843
-557.94211
5036.36
11230.819
16578.827
22968.648
28368.625
33515.567
38399.186
43004.53
46964.723
50962.344
54357.577
57683.081
60287.331
62958.411
65106.666
67110.809
68148.099
69085.901
69723.878
69606.815
69195.276
68462.188
67162.063
65472.233
63372.856
60965.002
57695.218
53896.785
50771.811
46255.285
42463.308
37037.361
33275.66
26691.713
22137.03
17925.242
9760.9519
3979.1067
-28273.853
-24108.353
-21555.669
-20610.171
-16352.1
-13730.543
-9306.5711
-5322.837
-1199.8647
2948.9041
6784.8608
10831.831
14012.729
17345.253
20551.658
23552.981
26446.163
29033.279
31583.013
33669.836
35509.254
37163.413
38686.837
40000.746
40864.953
42036.171
43005.574
42730.735
43397.138
43057.215
42911.325
42293.778
41389.448
40340.893
38975.717
37240.344
35639.518
33641.349
30404.863
28471.418
24595.94
22113.805
17704.765
15749.189
11423.756
6130.6705
-4.0533997
-12766.203
-12575.989
-11036.275
-10239.849
-7985.8902
-6654.8633
-4502.7883
-2644.8614
-587.57152
1435.2288
3430.8407
5277.8965
6891.7745
8365.252
9819.4501
11334.531
13005.488
14226.056
15790.78
16785.538
18423.24
19470.848
20650.187
21417.847
22660.946
23087.75
23473.882
24294.715
24521.418
24596.188
24634.108
24291.819
23866.379
23174.268
22453.603
21165.307
20128.918
18328.488
17036.96
15582.594
13147.506
12469.524
9159.5061
8349.0511
5369.4826
1869.5152
463.4576
-2686.2551
-1887.7367
-697.06662
-1866.5358
-553.9692
-1461.3558
-1155.3864
-1198.8223
-1484.0919
-1174.8307
-1543.9927
-1708.8322
-1873.2122
-1810.5095
-1887.0527
-2049.6642
-1969.733
-2212.2023
-2096.3275
-2350.5072
-2402.9219
-3099.7816
-3340.1343
-2897.149
-2614.2287
-2592.4985
-1987.6031
-1766.9478
-1375.0392
-913.50964
-470.90736
-22.724794
310.09074
694.14171
920.52357
1451.806
1180.448
1501.3202
1746.1875
1509.3546
1790.6989
1744.9695
620.12291
2022.361
1067.4542
1937.3124
2599.0277
11629.927
10557.295
8982.2273
8009.2777
6788.9745
4719.8932
2757.665
668.31577
-1472.2551
-3548.7314
-5878.718
-7932.3003
-9588.8905
-11617.687
-13115.054
-14763.051
-16014.86
-17476.513
-18365.083
-19653.061
-19662.511
-19924.242
-19984.535
-19332.59
-19698.947
-20247.762
-19569.742
-19114.063
-18411.366
-17948.959
-16982.921
-16508.769
-15382.764
-14931.336
-13609.51
-13081.86
-12366.292
-11043.019
-11686.086
-10670.306
-9912.7213
-9195.4875
-7611.5726
-5987.0847
-4949.3626
-2207.2148
868.4321
27960.719
22803.385
19981.218
17424.283
14621.236
10235.393
6112.6717
1778.3007
-2568.8999
-7136.8299
-10989.406
-15036.784
-19024.028
-22805.462
-25986.762
-29382.173
-32182.996
-35087.53
-37267.937
-39748.596
-40539.194
-42264.9
-41861.303
-42161.735
-41929.869
-42033.899
-41853.193
-41483.168
-40856.909
-40001.379
-39202.425
-37927.099
-36694.381
-35097.57
-33711.43
-31755.974
-29925.425
-28207.341
-26164.49
-24670.815
-22489.026
-19981.715
-16519.002
-13812.19
-9769.2259
-4952.0263
2663.4483
49358.128
29296.022
30956.134
25634.251
21448.052
15244.005
9094.4479
3201.6962
-3272.9994
-9120.2341
-14824.933
-21130.191
-26641.225
-31830.792
-37038.7
-41385.111
-45850.673
-49293.416
-53162.457
-55728.887
-58761.626
-60487.886
-62839.089
-64150.854
-65220.446
-65730.174
-66689.548
-66124.276
-65418.411
-64362.835
-63170.301
-61519.686
-59433.269
-57330.774
-54602.377
-51759.247
-48944.57
-45482.457
-42354.973
-37745.769
-33585.583
-29204.52
-24647.281
-20793.334
-15640.634
-10434.186
-2217.7025
-108066.31
-99696.496
-104202.74
-102784.26
-101569.36
-92409.533
-87280.151
-68935.211
-80313.656
-72353.418
-74494.203
-71303.174
-65038.326
-61586.493
-31552.067
-34573.68
-27545.001
-29400.503
-24899.597
-21006.955
-24568.562
-6676.2456
-1319.9347
2407.4454
757.40446
4967.1786
9979.3975
472.2486
14949.146
20321.174
23538.349
23555.673
25834.89
26295.039
17739.612
64216.575
75053.6
76557.377
81642.122
85098.929
83741.877
82703.325
78163.912
70125.507
67040.996
71441.847
66870.517
63761.464
69035.211
106574.51
109215.77
121643.6
126701.95
131587.05
129482.89
105848.11
68367.933
82563.891
83511.204
84777.786
91236.546
85559.702
79075.001
43175.887
51238.843
55555.517
57128.678
55847.558
52537.551
56898.373
38167.558
44384.668
43812.568
47482.402
46286.033
46732.867
42458.367
31575.91
35461.022
37265.848
37507.401
37701.805
36618.092
37514.474
23508.602
23387.012
24615.434
26153.08
25519.85
25653.292
25470.98
14942.636
16270.912
17625.57
17889.433
18083.621
19827.62
19621.571
7564.8541
7857.6825
8360.5812
8675.673
8304.7354
9312.9656
9925.9655
-610.76644
-590.03395
-113.77232
512.54807
692.76698
1773.0976
1634.0359
-8376.8829
-8241.8533
-8030.5934
-8023.0253
-7377.3708
-6786.2806
-6839.1613
-15915.76
-15905.673
-15511.713
-15549.343
-15090.155
-14035.063
-14834.781
-22684.425
-23587.433
-22939.208
-23210.25
-22750.864
-21555.758
-21386.362
-29822.177
-30665.463
-30257.505
-30017.707
-29922.979
-27704.705
-28063.327
-36614.766
-37136.238
-36920.43
-36674.932
-36225.272
-34740.041
-35016.363
-42835.854
-43312.304
-43360.985
-42580.985
-42769.729
-40604.236
-41246.351
-48872.833
-49170.237
-49201.325
-48571.04
-48688.637
-46560.314
-47026.677
-54089.018
-54367.44
-54730.029
-53780.768
-54126.235
-51636.299
-52522.155
-59079.215
-59414.859
-59970.343
-59046.567
-59442.367
-57093.479
-57988.724
-63447.973
-63751.753
-64525.873
-63441.03
-64037.498
-61481.01
-62569.693
-67475.915
-67923.426
-68756.982
-67668.602
-68398.716
-65889.853
-67075.672
-70976.392
-71142.312
-72310.224
-71154.538
-72121.513
-69496.65
-70825.21
-73944.521
-74360.438
-75604.346
-74525.01
-75568.586
-72880.559
-74402.964
-76584.958
-76704.572
-78349.139
-76997.45
-77976.739
-75535.327
-77093.218
-78475.604
-79120.503
-80288.55
-79095.299
-80816.495
-78237.342
-80182.458
-79988.049
-80853.527
-81207.506
-81321.14
-81791.105
-80063.588
-81581.535
-80429.515
-81909.094
-81427.771
-83351.449
-83836.942
-82554.095
-83645.022
-81800.553
-82131.309
-82750.403
-83205.502
-84106.151
-83326.048
-84915.028
-81946.754
-82042.915
-82808.548
-83628.945
-84259.493
-83942.307
-85170.087
-81385.542
-81434.643
-82566.79
-82967.304
-83667.684
-83961.519
-84930.673
-80316.588
-80553.478
-81809.525
-82175.281
-83349.68
-83493.441
-84312.829
-78936.299
-79443.559
-80355.64
-80964.828
-81939.216
-82154.416
-83120.993
-77119.337
-77521.617
-78610.505
-79243.129
-80252.648
-80653.475
-81605.318
-74873.837
-75558.73
-76448.442
-77100.977
-78134.411
-78578.966
-79594.304
-72233.472
-72885.637
-73792.933
-74575.888
-75444.921
-76052.552
-76938.774
-69132.039
-69935.532
-70757.26
-71406.064
-72330.002
-73051.453
-73982.111
-65744.784
-66841.279
-67423.588
-68408.779
-69024.007
-69506.868
-70363.138
-62017.872
-62531.057
-63517.123
-63635.726
-64957.989
-66072.855
-66547.95
-58355.368
-59381.924
-59481.442
-60548.965
-60761.681
-61340.303
-62071.459
-53585.794
-54336.203
-54593.401
-55380.28
-55754.501
-56609.217
-56950.887
-49102.755
-49457.63
-50288.833
-50431.275
-50890.176
-51582.548
-52074.194
-43591.683
-44502.688
-44651.002
-44976.977
-45388.838
-45970.136
-46092.981
-38525.26
-39105.145
-39057.761
-39697.438
-39628.577
-40130.697
-40241.554
-32496.642
-33555.481
-33340.741
-34102.073
-33491.541
-34088.428
-33952.669
-26765.768
-27054.565
-27106.337
-27317.506
-26854.804
-27473.151
-26966.109
-21690.701
-22905.154
-22596.898
-22992.215
-22474.052
-22187.959
-21380.844
-17381.946
-17370.097
-17545.283
-17519.529
-16754.088
-17139.764
-16194.779
-13127.208
-13757.424
-13771.871
-12751.353
-13757.543
-13090.838
-11676.128
-24254.841
-27214.424
-30245.696
-30213.634
-28769.176
-27225.341
-24451.78
-13877.594
-15120.496
-15766.077
-16310.862
-15504.007
-13362.095
-11652.046
-10341.064
-11997.166
-12873.879
-12460.417
-11949.471
-9644.8005
-8824.0206
135.79839
599.06565
531.63177
661.18203
1609.7034
1198.5132
2164.1303
6941.4012
7190.0541
7102.4559
8567.0248
7669.6474
7545.0186
6832.191
12503.126
15671.777
16549.972
16886.405
18244.341
15232.21
14059.007
16656.733
17169.291
19166.572
19309.02
18845.059
17443.663
15248.328
-67799.591
-70991.541
-76850.364
-75814.743
-75403.048
-68090.931
-62866.634
-62953.248
-66338.577
-68391.852
-67202.674
-67352.815
-60330.054
-58820.362
-50576.662
-51935.207
-52951.462
-52611.787
-50795.612
-45148.898
-44598.266
-41252.913
-43071.88
-43681.036
-43972.993
-41799.052
-39054.118
-36749.752
-32929.575
-33239.628
-33253.655
-32809.136
-31884.938
-28475.297
-27876.078
-24089.548
-24379.72
-23913.858
-22702.671
-22333.742
-20212.541
-19258.296
-15811.87
-15422.346
-15235.078
-14738.129
-13910.917
-12694.678
-11566.943
-7372.6965
-6825.8919
-5932.2092
-5161.4168
-4638.1882
-2998.8191
-2727.117
773.02877
1254.6383
1956.4209
2508.6471
3003.0511
4032.0712
4464.7913
9059.2593
9510.1521
10469.053
10839.936
11587.392
12169.491
12686.95
16732.164
16753.737
18045.063
18287.75
19121.459
19559.33
20448.745
23361.493
24321.539
25801.269
26103.281
26629.583
27362.606
27846.104
31412.289
31487.27
32677.501
32986.491
34053.382
34098.914
34403.082
37994.554
38066.329
39926.779
39558.955
40390.5
40443.691
40969.883
44131.032
44607.227
45332.03
46216.798
46759.402
47023.488
47520.739
50809.192
50283.743
51629.05
51508.754
53010.813
52464.982
53476.901
56485.79
55802.439
57220.349
57170.112
58409.691
57773.115
58900.462
61630.143
60604.996
62417.523
61951.593
63320.992
62562.653
63744.04
66379.917
65369.851
67161.403
66558.919
68054.969
67161.964
68335.26
70897.19
69394.401
71370.398
70569.036
72043.739
70891.838
72137.556
74836.589
72960.146
75204.115
74180.902
75800.847
74536.968
75682.778
78218.758
76087.847
78474.094
77277.659
78914.689
77282.219
78483.001
81252.345
78768.553
81260.781
79898.651
81571.19
79947.369
81037.776
83706.5
81040.421
83610.755
81859.279
83487.576
81596.278
82629.396
85934.239
82518.623
85578.236
83253.117
85191.155
83005.147
84151.661
87521.11
83551.727
86912.562
84113.932
86035.133
83896.888
84695.955
88424.154
84559.875
87427.4
84969.428
86352.468
84224.339
85202.244
89184.208
84927.055
87535.695
85114.201
86247.377
84122.125
84800.338
88806.489
84472.015
87633.156
84479.008
85708.552
83353.112
84137.858
88253.735
84179.89
86618.542
83647.746
84707.365
82384.739
83014.029
87263.411
82931.261
85485.78
82328.02
83279.175
80700.207
81440.239
85505.748
81459.428
83608.506
80559.321
81149.213
78739.034
79222.071
83414.922
79404.694
81432.443
78234.122
78696.047
76301.998
77149.957
80730.943
76997.069
78635.047
75761.443
76006.218
73992.412
74039.229
77702.572
74053.359
75589.632
72755.954
72481.422
70423.452
70343.835
73447.907
70665.413
71633.786
68889.782
68713.984
67182.64
66944.228
69250.924
67260.545
67003.576
65906.754
64673.349
63408.271
63424.93
65104.124
63721.58
62737.781
61606.298
60567.331
58400.427
59154.364
59494.411
57682.973
57612.811
56174.909
55653.737
53809.535
54454.741
54703.12
53649.072
53256.708
51972.931
50978.873
48978.864
49732.873
47900.988
46747.702
46373.523
45426.313
44602.204
43830.077
44108.891
42538.561
41765.637
41494.844
40607.538
39957.278
38429.988
38748.605
36104.301
35937.482
35301.074
35091.024
33629.21
32728.935
32474.783
28306.886
28054.602
27933.444
27612.179
26875.122
26042.882
26873.225
24767.711
26636.474
26778.589
26944.743
25636.334
24270.005
22762.22
19439.223
19761.07
19381.086
19083.168
19228.266
19430.398
17594.058
23110.66
26118.924
27168.471
27909.007
27798.753
27708.959
25552.984
-51520.451
-31119.393
-29817.153
-24924.146
-20172.695
-15735.583
-8912.6432
-3273.7378
2904.6398
9352.5028
15148.153
21512.071
27411.35
32321.386
38087.608
42856.109
46883.804
51176.067
54743.724
58083.804
60934.322
63272.94
65281.247
66831.949
67948.043
68538.372
68531.66
68564.811
67902.166
66894.79
65479.524
63805.567
61549.858
59195.086
57248.041
53011.717
50254.18
47904.435
43517.389
39732.314
35976.022
31497.594
27551.389
22498.486
17847.91
11686.663
2632.753
-28074.261
-27006.444
-16281.576
-17253.111
-16603.835
-9884.3114
-7534.806
-1892.1225
2203.3231
6968.6658
11549.161
15846.421
19791.821
23482.013
27226.787
30660.985
34144.884
36827.76
39724.918
41834.489
44025.863
45494.332
47048.579
47641.52
48646.37
48202.953
49173.218
48440.219
47823.396
47105.479
46006.95
44850.874
43245.23
42041.862
39628.469
38010.887
35759.279
33779.613
31246.106
28854.524
26198.682
22967.026
20077.797
16297.261
13022.784
8153.8086
1922.4674
-6661.8626
-7607.8408
-558.9186
-6329.6321
-2780.4176
-1165.9928
476.09206
2118.5484
4365.4665
6242.5487
7921.9184
9977.4275
12049.481
13203.018
15266.54
16783.571
18284.144
19580.748
20761.607
21758.428
22548.521
23253.099
23634.561
23981.381
23983.335
24021.434
23995.071
23440.079
22957.84
22309.56
21512.31
20700.331
19831.603
18814.314
17610.997
16893.821
15506.545
14618.401
13270.716
12627.28
11442.443
10098.594
8936.3912
7396.7575
5897.8131
4261.2592
-1914.1906
8623.6301
3287.9762
4813.273
2527.2261
5106.6597
3281.3208
3178.4677
4427.415
3263.0553
3479.553
3888.4425
3095.2327
3149.9683
3675.7235
4624.8454
4528.7844
4939.4986
4723.6438
5032.0644
4798.2973
4956.1033
4736.5836
4782.4691
4439.3109
4282.9782
3750.558
3267.3097
2880.0381
2376.4261
2132.081
1624.1453
1494.4965
1050.329
923.73784
675.77502
795.67683
490.0258
648.27433
683.09352
981.56149
1030.1795
1310.4394
1602.5463
1368.584
2253.7026
939.58798
-729.31785
31636.811
17815.746
17367.819
11768.547
13805.443
8208.6847
9036.4315
6038.1261
3827.4809
3053.8935
1092.213
-1060.1652
-2491.6104
-4695.7098
-6443.9087
-8008.4185
-9505.869
-10826.875
-12065.891
-13300.263
-14430.271
-15495.033
-16500.993
-17691.806
-18877.237
-20262.432
-20353.873
-20900.749
-21233.714
-21604.507
-21720.312
-21712.973
-21557.383
-21095.885
-20602.086
-19764.394
-18975.18
-17444.612
-16448.214
-14629.586
-13131.823
-10928.917
-9326.2337
-6920.6713
-4754.7171
-2153.7426
65.880217
44610.085
32742.788
23223.379
22198.915
18689.495
14822.926
11667.073
5701.2139
3728.8688
-1582.4212
-6298.3752
-10691.727
-14973.669
-18543.399
-21335.895
-25186.935
-27851.973
-30941.18
-33216.59
-35867.537
-37703.78
-39652.153
-40980.013
-41780.49
-41637.517
-41276.762
-41790.835
-42153.091
-42444.664
-42428.079
-42261.137
-41694.921
-40953.926
-39847.519
-38417.712
-36848.228
-34588.08
-32596.151
-29942.116
-26933.335
-24103.839
-20488.91
-17096.939
-13191.749
-9262.1625
-3951.7476
533.16623
53201.118
40265.959
39983.689
31696.209
30808.431
23716.973
17298.067
12069.172
4746.2766
-2285.4003
-8741.1518
-15381.218
-21036.165
-26782.693
-32322.012
-37176.292
-41970.465
-46209.106
-50416.908
-53833.197
-57223.569
-60109.096
-62515.605
-64496.273
-66416.001
-66803.662
-67363.788
-67719.659
-68113.334
-68270.87
-68002.846
-67159.031
-66141.29
-64448.123
-62300.764
-59876.701
-57202.342
-53431.21
-49683.921
-45261.78
-40873.574
-35349.483
-30647.086
-24787.112
-18225.618
-12463.836
-4812.7332
-84059.581
-88680.079
-88933.465
-90784.488
-88019.994
-81133.982
-72166.764
-48349.656
-56396.949
-56849.229
-56691.057
-54447.564
-48868.923
-44677.545
-41994.266
-45806.939
-49461.764
-48813.789
-46241.693
-45780.217
-38289.097
-33542.947
-33190.514
-34820.667
-34007.771
-32889.113
-31098.792
-27108.777
-26470.948
-26908.85
-28058.728
-26241.992
-25235.439
-23872.849
-20631.997
-20119.906
-19565.215
-19367.286
-19059.075
-17636.841
-16694.522
-16077.387
-13682.218
-12418.825
-11990.134
-10731.703
-9649.2469
-9030.1335
-8483.6878
-6936.6309
-6381.4271
-5514.4831
-5080.7066
-4375.4716
-3031.9306
-2766.7999
-716.76036
967.69165
1663.4551
2474.7705
3418.6341
3665.8273
3835.4678
5835.9983
6736.2405
7375.9594
8337.0223
8862.9484
9509.2257
9804.8478
11726.578
13554.043
14040.897
15080.039
15183.781
16080.062
15708.976
18342.984
19499.67
19743.889
20321.728
21209.878
21196.078
21023.09
23828.706
25095.412
25527.36
26495.56
26364.32
26794.459
26864.168
29341.855
30238.596
30962.551
31622.411
31994.807
32205.056
32283.719
34849.371
35772.972
36652.706
36804.568
36920.056
37218.197
36990.707
39348.096
40462.359
41210.62
42035.796
41462.02
42155.75
41626.5
43749.114
45597.104
45586.152
46645.34
45754.189
46430.569
45967.189
48064.867
49803.006
49837.675
50747.888
49892.672
50680.78
50010.257
51843.008
53942.615
53434.817
54517.952
53510.327
54079.642
53379.66
55290.792
57391.192
56849.918
57923.791
56747.976
57416.273
56661.364
58047.199
60807.797
59739.156
60804.057
59490.533
60045.513
59219.329
60734.173
63768.586
62342.891
63397.93
61901.728
62409.385
61665.227
62924.019
66348.794
64346.688
65401.149
63669.497
64153.094
63272.736
64527.101
68283.387
66093.844
67284.72
65544.243
65738.897
64809.55
65487.382
70430.134
67038.538
68622.199
66417.605
66884.776
65752.508
66926.927
71485.484
68254.958
69353.247
67815.983
67138.698
66530.048
67994.575
72057.2
68882.094
69864.757
68176.562
67709.236
66462.928
68105.577
71810.423
69806.727
69509.667
68236.713
67552.063
66267.946
67919.937
72716.302
68543.297
69503.322
67851.711
67181.326
65683.435
67840.378
71561.762
68382.999
68881.676
67129.557
66329.387
64613.632
66858.752
70802.377
67162.285
67662.079
65936.879
65039.65
63352.822
65721.075
69247.959
65905.473
66221.994
64463.821
63618.006
61739.964
64127.129
67407.421
64145.614
64239.944
62851.68
61816.422
59916.502
62238.208
65159.335
62051.601
62071.412
60628.864
59404.059
57155.93
59774.915
62133.637
59521.588
59160.043
58179.425
56642.231
55146.903
57053.678
59212.489
56914.947
56406.684
55593.694
54585.852
52404.713
54884.918
55605.799
53949.233
52705.56
52906.285
50427.856
49570.279
50757.265
50925.795
50598.489
49165.309
48109.294
47959.654
45579.491
47080.151
47249.096
46087.043
45896.15
44892.585
44580.118
42393.405
42466.226
43199.124
42094.49
41815.019
40483.703
40488.062
38437.073
38469.804
38009.226
37678.13
36770.687
36399.542
36141.611
34413.341
33547.766
34075.272
33860.824
33274.397
32963.544
32082.568
30578.546
28099.54
27410.895
27534.773
26730.84
26502.073
26524.196
25834.797
24295.07
24144.491
25208.357
24012.29
24652.153
24061.279
22421.737
17587.421
17584.023
17558.194
17039.117
17272.801
17190.139
16391.324
11310.723
10730.302
12227.574
10771.288
11766.562
11441.401
10043.41
3350.0922
849.12872
866.87579
816.96988
1348.7214
535.19448
3108.8403
-50075.114
-52331.173
-56455.176
-54032.308
-53099.425
-46592.022
-41803.771
-34746.254
-47442.473
-47309.42
-47717.232
-45944.109
-40143.101
-33955.707
-32496.89
-30202.791
-33117.816
-31199.051
-31039.824
-26250.676
-23476.466
-22353.475
-24789.623
-25842.027
-24123.258
-23914.894
-20857.4
-15790.856
-19541.972
-20612.192
-21060.157
-19624.209
-20021.043
-16496.639
-14789.952
-14181.798
-14858.754
-14070.171
-13040.845
-12590.518
-11465.387
-9823.9768
-9953.5561
-11004.927
-10835.613
-9780.1399
-9736.4945
-8283.1486
-6046.2651
-5455.4187
-5483.516
-4614.5269
-3849.9352
-3646.0602
-2203.1445
-2074.5199
-1048.4713
-1591.3479
-1010.7285
-208.27798
405.81912
1040.5233
1915.9863
3013.753
3023.8231
4224.6966
4838.3739
4928.9498
6202.1152
6310.6776
7474.7875
7238.8691
8279.0656
8340.5011
9350.809
9781.1969
10216.658
11596.738
11062.119
12543.447
12688.322
13413.746
13620.503
14572.033
15270.983
14951.457
16523.57
16324.012
17700.138
17509.879
18985.927
18724.887
19142.82
20416.85
20209.967
21217.641
21191.692
22222.721
22155.512
22644.489
23831.828
23456.359
24924.275
24817.722
25653.053
25566.792
25822.611
27149.382
26456.415
28117.827
27601.185
28690.05
28777.425
29062.736
30373.544
29498.591
31201.629
30893.512
31621.266
31767.956
31676.631
33030.796
32069.483
33838.511
33245.023
34053.235
34501.309
34390.879
35781.191
34770.452
36419.391
35932.39
36588.65
37033.773
36527.395
38052.22
36809.684
38556.705
37808.559
38507.533
39526.586
38722.776
40275.927
39015.857
40621.648
39945.417
40499.921
41880.539
40393.053
42045.077
40549.165
42222.299
41344.346
41816.988
43745.689
41889.457
43643.052
42210.283
43836.902
42835.012
43270.215
45461.085
43131.805
44975.022
43382.249
44787.744
43738.338
44242.171
46851.904
44499.906
46137.968
44403.348
45625.575
44547.369
44677.078
48086.538
45353.05
45978.353
45966.966
45830.404
44951.338
45559.085
47864.613
46062.979
47404.837
45131.878
46441.281
44447.665
45136.112
49453.068
46297.502
46992.239
46007.66
46276.193
44795.238
45069.446
49255.613
46261.548
47704.116
45510.503
46382.068
44055.224
44671.176
49350.025
46142.272
47045.265
45256.479
45572.857
43531.513
43807.562
48823.563
45727.438
46665.483
44634.782
44952.362
42638.642
42941.966
48019.769
45153.858
45732.945
43869.933
43901.55
41782.393
41684.8
47028.874
44314.006
44642.253
42791.842
42789.913
40320.204
40066.654
45574.346
43032.329
43119.271
41538.898
41092.651
38749.066
38669.942
43689.755
41815.051
41623.842
40092.98
39681.801
37517.917
37326.328
41808.124
40180.528
39564.191
38397.627
37687.516
35342.031
34605.541
39023.459
38159.385
37277.238
36219.086
35476.831
33276.58
33009.586
36375.067
36335.994
35041.891
34325.193
33360.38
31488.188
30785.071
33660.756
33194.444
32735.185
31419.422
31101.169
29422.915
28221.183
30596.87
31088.619
29806.927
29017.595
28175.799
26646.449
25302.58
27638.831
27439.482
26840.033
26063.325
25679.116
24271.958
23024.876
23622.876
24691.649
23317.65
23146.259
22278.38
21122.716
20345.919
20767.958
20885.879
20099.32
19865.783
19084.383
18446.095
17417.225
16816.902
17635.793
16632.976
16601.899
16143.602
15361.39
14602.651
11671.948
12964.996
11875.362
12150.329
11435.718
10881.739
9968.1191
6810.3425
7084.7628
5750.54
6129.4486
6014.9195
5980.9772
5411.3478
1176.7197
-1135.5367
-2495.0535
-2220.9829
-1871.486
-1715.4823
-411.59941
-28793.777
-27222.436
-24346.715
-25714.002
-22241.035
-18568.991
-16725.529
-18693.346
-25023.976
-22508.92
-22999.463
-18833.034
-16221.616
-14233.25
-18205.675
-13903.824
-14097.861
-13502.07
-11010.543
-8998.7431
-7940.2573
-10731.057
-11763.728
-12822.4
-12183.935
-10579.297
-9276.7733
-6571.04
-10760.32
-8999.0074
-8700.2462
-6859.0264
-6288.9208
-3969.1799
-4593.8532
-7605.2744
-6799.6727
-5821.561
-4876.8086
-4389.6046
-2839.2883
-2580.3796
-5610.5657
-4414.3163
-2421.0291
-2660.6203
-1382.114
359.70095
331.816
-3526.0572
-2428.5407
-1081.856
-497.61023
704.88989
1774.1949
1732.8705
-1398.7387
-191.38594
1557.4022
1888.3705
2902.074
3669.2166
4341.4592
680.88932
2449.9483
3308.3419
3918.8438
4853.1587
5516.3512
6114.1744
2882.5545
4649.8573
5184.8683
6011.6552
6795.4741
7472.1317
8156.0289
4418.2412
6800.904
6829.7376
8055.4776
8763.2895
9424.2784
10028.12
6570.1242
9061.4555
8829.638
9846.5138
10335.578
10869.782
11565.806
8866.8949
10806.202
10864.718
11413.925
12394.025
12251.012
13229.527
11086.402
12702.247
12262.577
13328.913
13764.252
13642.103
14662.993
12789.171
14389.88
13985.225
14822.121
15426.219
15168.757
16327.574
14068.178
16233.311
15140.899
16549.812
16665.66
16376.126
17501.678
15617.298
17477.891
16587.611
17825.731
18026.53
17604.825
18944.632
16616.028
19162.908
17671.941
19186.445
19028.241
18675.616
19818.746
17983.195
20268.734
18821.987
20176.508
20074.508
19564.015
20857.981
18807.616
21534.508
19704.852
21167.905
20738.865
20340.518
21408.621
19662.61
22271.475
20678.748
21853.565
21559.628
20860.135
22010.474
20387.084
23186.733
21377.437
22605.121
21765.929
21256.765
22257.228
21076.002
23811.888
22335.334
22868.655
22290.51
21558.235
22164.608
21672.402
24396.905
22532.856
23159.728
22466.176
21577.733
22212.821
22154.262
24409.122
23456.371
22970.432
22620.797
21718.982
21972.246
23017.541
25029.97
23133.043
23709.653
22224.938
22095.814
21526.935
22956.607
25655.5
23201.141
23582.52
22261.2
21607.23
21317.458
23090.317
25546.637
23128.031
23376.767
21739.769
21236.017
20752.373
23380.233
25385.065
22928.694
23115.788
21449.766
20871.801
20226.565
23299.541
25111.632
22645.565
22730.666
20872.356
20370.448
19616.595
23144.463
24717.667
22122.233
22150.038
20289.941
19674.997
18655.513
22934.566
24031.602
21503.431
21471.016
19494.123
18744.184
18136.009
22397.971
23258.663
20833.409
20740.571
18725.965
18317.449
17308.396
21912.179
22329.976
19997.596
19721.421
17865.499
17024.183
16275.148
20953.675
21063.991
18844.062
18708.465
16698.477
16352.372
15386.176
20354.05
20003.599
18053.445
17590.189
16079.621
14976.825
14954.646
18818.245
18476.459
16406.108
16539.512
14496.087
14293.378
13767.475
17848.324
17168.969
15302.439
14847.76
13664.059
12825.406
12709.223
16217.126
16099.992
13555.899
14404.088
12340.204
11990.055
11535.183
14589.932
12994.469
11953.954
11635.151
10576.912
10333.666
10641.37
12940.874
13096.757
11381.398
11773.698
10384.708
9945.9444
9422.638
11210.236
8995.4138
8424.5683
8108.5381
7473.4255
7324.473
8179.9023
9089.7856
8620.8422
8446.8135
8437.8915
7758.9119
7744.0536
7251.9561
6056.6868
4276.7579
4249.5435
3309.7952
3488.8921
3357.9334
3792.9462
4014.6295
3067.1811
2462.1415
2408.9945
2818.3919
2639.6956
3803.0279
427.07075
-3389.7748
-3039.6128
-3522.814
-3630.1328
-3572.2326
-2155.8884
-3398.6129
18.262481
211.12828
1563.6621
5271.8182
5272.9699
6175.5754
-470.268
-1584.0142
-415.24416
-303.31211
2970.7081
2510.1136
6396.1842
-3807.7495
878.91326
646.68077
2523.8635
3776.5114
3530.5777
5349.8316
-512.67898
232.36882
-1528.074
65.381738
1255.0419
883.36333
5406.2974
-2162.9763
-2196.8147
-1291.5239
1145.6019
915.41434
3779.0101
2963.2068
-1514.4114
281.60476
929.40355
612.89745
1858.054
1602.3001
3745.4228
-1027.7366
-1900.4867
-1499.2357
84.694125
131.66977
1529.8091
3069.5528
-1387.2642
-548.67253
337.90444
184.1459
1410.5775
1266.9619
3160.8002
-641.9441
-744.07632
-763.88934
115.21956
572.96434
1292.5609
3486.2346
-852.76554
-990.30643
130.02925
241.59393
1369.8137
1822.2369
2570.306
-1027.1442
-548.93051
-234.68261
347.05591
1054.6227
1457.1479
2769.5827
-505.24383
-678.12716
-78.418802
385.42925
1151.9633
1560.0375
3189.5319
-462.27249
-787.4643
-94.222044
573.70006
1033.3251
1712.2627
2656.8419
-452.48656
-1120.1267
708.79046
326.78143
1262.2511
1506.8337
3051.703
-585.75261
-170.64328
-758.0532
408.90748
807.75834
1744.2413
2200.4657
-463.6568
-797.17233
-154.60684
188.52968
763.73072
1188.6907
2139.0592
-664.26659
-571.00399
-265.52338
521.11542
409.17832
1404.6699
2002.4547
-440.83652
-827.80959
-64.539394
191.0131
253.88539
1095.2083
1748.2024
-420.06445
-427.95788
-134.70155
428.98039
120.44247
1251.392
1574.4454
-50.683133
-646.61877
-136.27459
110.2122
-62.741236
888.11188
1224.7904
28.057591
-266.15306
-108.49482
415.78739
-52.39654
1009.7809
1136.9916
588.02097
-129.17152
4.9967233
164.8298
-293.50657
739.64852
723.00093
549.81366
484.35812
251.75638
162.52675
-53.978574
772.6771
621.6608
1367.729
546.8747
295.39041
-90.510082
-13.289459
429.8381
489.06855
1320.2275
1179.2433
526.68723
12.919251
205.18629
183.00137
319.41574
2055.9936
1999.8488
447.09304
372.80926
320.65902
-239.88489
128.80343
2691.0792
2026.7965
959.61607
187.83383
342.23269
-520.38568
-255.95434
3118.2669
2214.1409
1123.4522
62.679684
287.73556
-766.97915
-526.18667
3624.6832
2565.0259
1316.9701
419.87504
399.48636
-829.46089