/*--------------------------------*- C++ -*----------------------------------*\
  =========                 |
  \\      /  F ield         | OpenFOAM: The Open Source CFD Toolbox
   \\    /   O peration     | Website:  https://openfoam.org
    \\  /    A nd           | Version:  6
     \\/     M anipulation  |
\*---------------------------------------------------------------------------*/
FoamFile
{
    version     2.0;
    format      ascii;
    class       pointScalarField;
    location    "0.84";
    object      E;
}
// * * * * * * * * * * * * * * * * * * * * * * * * * * * * * * * * * * * * * //

dimensions      [1 -1 -2 0 0 0 0];

internalField   nonuniform List<scalar> 
625
(
56908.268
64755.889
-909342.96
-450646.75
56320.962
59477.1
-684556.64
-1390563.7
16374.716
9467.3093
41351.988
-501147.99
-515168.03
-361042.51
78441.628
69596.967
67134.208
65486.156
62079.533
62406.662
60582.748
58703.394
54472.367
46874.78
34948.386
18147.942
-1558.4263
-23369.451
-44474.507
-63820.719
-76782.939
-85599.713
-83364.933
-78209.736
-66283.159
-48999.319
-19016.394
69488.534
47845.461
47014.14
38673.886
28918.574
20676.796
12507.536
6205.1267
2114.6842
116.89124
2365.6418
7189.1851
16519.527
28922.222
44509.577
60219.327
76481.958
87923.392
96009.744
95761.363
84456.903
69168.705
35501.434
16515.407
6058.2893
33325.271
102617.33
98715.659
62106.86
64552.528
55409.617
32537.729
35096.774
25122.064
24658.085
25064.576
27265.148
33143.102
37202.364
42270.912
45591.192
48343.212
50866.966
52378.077
52141.322
50441.212
43332.096
32675.476
13384.678
-992482.28
-1060838
-1013098.6
-14365.721
-33146.922
-43415.685
-54126.389
-61007.779
-61579.822
-59605.754
-50608.024
-39068.691
-23603.708
-7647.6224
8807.8241
22843.259
35049.184
43578.056
49226.581
53908.187
55092.868
61343.496
63152.889
70249.745
70261.356
80620.745
49568.761
49121.72
50292.538
48152.347
46256.038
47782.499
-510728.76
-510138.52
-513170.69
-1027107.2
-1027222.5
-1030839
32728.556
27747.802
28486.762
24306.682
19231.664
12902.359
6950.5963
444.67775
-3085.9455
-5680.6498
-4737.2211
-1228.7464
5591.0552
14758.744
25418.072
36801.632
47833.681
56513.042
64109.981
62477.316
61536.377
51014.074
23600.561
11364.323
5821.4357
6725.4266
2490.3582
2930.8628
3486.9014
3211.8704
6039.99
6629.7817
8671.1599
10613.702
12355.427
14973.902
18156.446
22192.489
26431.993
30927.194
32539.674
34159.594
27784.176
25649.641
11915.624
-137.08731
28902.614
28289.33
31561.318
30549.926
31877.835
32668.44
31631.379
31210.439
28015.96
23921.391
15774.409
5379.3175
-8067.9007
-23196.053
-39374.845
-53922.793
-66850.561
-73778.876
-78222.156
-72068.576
-62847.162
-45836.861
-15118.358
11060.764
11341.271
11158.867
5133.5206
4359.9667
6896.7677
19359.445
20533.051
21046.649
83731.738
82130.194
87253.063
88519.604
83834.095
79961.308
60768.087
56164.914
57979.354
54001.582
57197.678
54547.815
43463.511
40630.165
43017.89
32592.146
34489.192
33278.475
26207.339
26502.075
31061.201
20738.959
18420.369
19023.42
15763.622
17496.673
16735.28
15928.829
15433.908
15443.672
17472.17
17912.696
17805.877
23175.586
22185.486
23288.819
30762.393
27821.17
30586.75
41085.476
35047.624
39452.768
52646.673
42579.079
49322.795
64810.022
50683.554
59317.415
75820.247
58607.739
68708.357
84777.557
65682.768
76279.055
88739.413
69763.683
79888.902
86101.014
68939.851
77942.709
76402.006
62624.458
70134.83
58367.307
53426.475
57488.867
29022.586
24738.815
30857.244
-672557.96
-670932.06
-670023.17
-613639.81
-675031.1
-676294.28
-699935.57
-645665.58
-645171.68
76863.233
70675.445
69252.745
74487.258
71536.246
73444.498
71517.575
65999.157
64855.22
66898.75
61892.523
63075.014
63414.49
61611.173
59941.268
63829.142
57058.592
57206.861
61816.575
57994.814
57325.466
60973.462
55398.658
54138.011
54871.038
52127.464
48481.029
46249.05
44591.773
41660.199
36235.199
33330.282
30072.491
19323.977
17705.445
14504.3
402.21661
47.648214
-2520.4695
-19633.999
-19537.155
-21163.37
-39194.624
-38547.772
-38385.356
-55607.115
-55009.067
-53650.275
-67546.919
-67525.134
-64017.748
-73677.885
-73676.097
-70390.406
-74292.038
-75999.284
-69971.101
-65838.009
-71090.436
-64447.338
-54043.295
-59320.47
-53867.562
-43153.321
-43042.197
-41456.737
-15710.916
-16643.755
-15541.459
49405.501
46898.555
40112.206
32793.034
27972.26
18236.459
14018.914
9608.2135
5890.0769
8188.4418
11688.345
16200.519
23753.136
31689.887
39812.988
47695.866
53811.289
58625.054
58956.546
56511.092
48225.538
35694.702
26085.456
7715.9479
23215.577
9269.4685
21671.758
22267.918
25852.031
30584.003
30762.248
31104.27
26849.04
22378.788
15427.197
8504.0016
753.86281
-7343.0445
-15578.611
-23286.949
-30438.21
-35631.901
-37863.881
-37204.383
-32427.53
-21721.197
40141.282
25794.359
31544.467
31466.947
29110.294
27638.736
25922.801
23852.802
18603.637
12753.037
4409.1063
-6966.3394
-19118.718
-32352.324
-44757.365
-55184.436
-62514.755
-66126.145
-64262.78
-57511.983
-46177.256
-26766.624
-6174.3178
42158.57
37478.348
37945.321
39635.551
39356.43
37825.87
35722.62
35595.328
33135.355
29184.87
27007.258
26388.762
22945.74
23234.155
21889.438
16024.185
15260.554
13247.676
10396.851
9682.8448
7185.8104
4212.5537
4198.746
2155.0103
1881.4555
1328.1361
-1060.5253
1274.063
-169.13606
-1482.6423
3873.7959
2537.9167
1660.6354
8622.6852
7378.4558
6672.9242
16040.82
14668.068
14915.503
25313.852
23880.047
24628.923
35647.184
34567.127
35699.61
46689.944
45688.924
46647.461
56374.813
55957.076
57052.58
65268.886
65053.688
64594.491
69530.217
68011.622
69467.908
66276.274
70463.273
68118.596
62761.217
63213.712
61982.791
49901.119
51154.777
50505.155
26692.43
26080.795
27768.714
9497.0053
8351.0271
6569.2631
14325.262
20321.387
19812.406
8325.1413
5896.2722
5212.2487
9385.8552
13867.046
14045.125
11904.773
12140.714
12821.273
13179.558
14786.896
15309.021
14689.18
17578.694
18748.272
17108.259
18445.671
19184.348
17136.336
18886.327
20716.95
17342.474
18652.128
19350.577
16489.451
16936.132
17651.452
15432.244
14997.84
14951.757
14377.026
12864.597
11909.283
13035.042
10568.213
9270.6523
11858.312
8494.3373
6333.8294
10226.053
5669.0893
3759.726
8260.198
3006.3987
654.70993
5518.903
-1322.4754
-2209.1726
2118.8515
-4541.0563
-5654.3233
-3067.5497
-7410.4059
-8995.3699
-14504.282
2946.6084
-9040.7324
-10053.483
-15736.641
-14458.78
-13743.278
-19219.585
-18250.907
32022.012
33128.146
36297.909
28746.376
32392.931
38770.503
29692.718
35290.775
37580.993
30399.211
30879.768
34732.721
28833.247
30094.743
33992.711
27579.845
28405.68
31916.387
28017.802
26029.604
28809.069
24804.521
24062.523
27992.942
22375.604
21287.061
23758.132
16988.635
15970.057
18089.923
9241.0765
8285.7613
10094.778
-1013.6723
-1577.1669
-356.80108
-14168.65
-13347.448
-12760.268
-28331.295
-26010.79
-26521.497
-43092.245
-38702.23
-40034.643
-56660.711
-49532.433
-52443.574
-67078.204
-58620.034
-61944.097
-74258.819
-63042.127
-66950.831
-74882.828
-63044.168
-67644.988
-68644.733
-58502.509
-61781.879
-58890.088
-49534.636
-53483.426
-38677.855
-31489.664
-35646.676
-14367.923
-8287.3225
-10458.33
)
;

boundaryField
{
    free
    {
        type            zeroGradient;
    }
    fixed
    {
        type            zeroGradient;
    }
    traction
    {
        type            zeroGradient;
    }
}


// ************************************************************************* //
