/*--------------------------------*- C++ -*----------------------------------*\
  =========                 |
  \\      /  F ield         | OpenFOAM: The Open Source CFD Toolbox
   \\    /   O peration     | Website:  https://openfoam.org
    \\  /    A nd           | Version:  6
     \\/     M anipulation  |
\*---------------------------------------------------------------------------*/
FoamFile
{
    version     2.0;
    format      ascii;
    class       pointVectorField;
    location    "1.08";
    object      u;
}
// * * * * * * * * * * * * * * * * * * * * * * * * * * * * * * * * * * * * * //

dimensions      [0 1 0 0 0 0 0];

internalField   nonuniform List<vector> 
28033
(
(0 4.7767523e-19 0)
(0 3.2709773e-18 0)
(-1.124874 -0.26953923 0.0053122923)
(-1.1639543 0.0073264301 0.0052007391)
(0 2.9540884e-18 0)
(0 4.8113387e-18 0)
(-1.1638493 0.0069343129 0.0052880622)
(-1.1247507 -0.26999658 0.0052344476)
(0 1.0343065e-18 0)
(0 2.9867584e-19 0)
(0 2.3858748e-18 0)
(0 -1.1327062e-18 0)
(0 1.5258294e-18 0)
(0 -9.0425028e-19 0)
(0 -2.1849972e-20 0)
(-7.2883292e-19 -2.3775764e-19 0)
(0 4.4717807e-19 0)
(0 2.2253616e-19 0)
(0 -8.5642587e-19 0)
(0 8.2919423e-19 0)
(0 9.9157163e-19 0)
(0 -7.9529977e-19 0)
(0 1.0111368e-18 0)
(-1.1273272 -0.25220549 0.0053202303)
(-1.1297671 -0.23487566 0.0053283901)
(-1.1322042 -0.21755335 0.0053263189)
(-1.1346319 -0.20024119 0.0053244219)
(-1.1370575 -0.18294356 0.0053095677)
(-1.1394833 -0.1656516 0.0052949915)
(-1.1419061 -0.14837338 0.0052726418)
(-1.144339 -0.13109696 0.0052502246)
(-1.1467731 -0.11382245 0.0052279758)
(-1.149216 -0.096544489 0.005207478)
(-1.1516667 -0.079258891 0.0051917278)
(-1.1541215 -0.061962619 0.0051854741)
(-1.1565841 -0.044655436 0.0051783462)
(-1.1590481 -0.027334861 0.0051819882)
(-1.1615067 -0.010002913 0.0051894214)
(-0.00160885 -0.003146206 -0.0034268947)
(-0.001491819 -0.0048078942 -0.0050127373)
(-0.0017330617 -0.0065954415 -0.0060943596)
(-0.0023399964 -0.0085855679 -0.0068387012)
(-0.0032137339 -0.010536782 -0.0073153045)
(-0.0044403231 -0.012694537 -0.0076396013)
(-0.0060144315 -0.014826376 -0.0078548976)
(-0.007890215 -0.017060738 -0.007971172)
(-0.01010146 -0.019294902 -0.0080574557)
(-0.012601449 -0.021600734 -0.0080960859)
(-0.015419006 -0.023890988 -0.0081128061)
(-0.018512255 -0.026249986 -0.0081071854)
(-0.02190915 -0.028589722 -0.008118916)
(-0.025582103 -0.030986663 -0.0081027732)
(-0.029548714 -0.033376162 -0.0080986963)
(-0.033786285 -0.035809712 -0.0080840848)
(-0.038318466 -0.038252121 -0.0080824792)
(-0.043125306 -0.04072589 -0.0080771633)
(-0.048229615 -0.043232093 -0.0080573461)
(-0.05360964 -0.045765593 -0.008046143)
(-0.059287572 -0.048336529 -0.0080318865)
(-0.065258749 -0.050946791 -0.0079973377)
(-0.071525554 -0.053584031 -0.0079742822)
(-0.078097264 -0.056290194 -0.0079287987)
(-0.084971557 -0.059013138 -0.0078747085)
(-0.092156107 -0.061806024 -0.007810482)
(-0.099652526 -0.064617422 -0.0077445985)
(-0.10746356 -0.06751231 -0.0076515664)
(-0.11559626 -0.070415412 -0.0075530583)
(-0.12404381 -0.07338238 -0.0074499881)
(-0.13281685 -0.076395775 -0.0073214715)
(-0.14190461 -0.079433993 -0.0071873757)
(-0.15131024 -0.082519355 -0.0070485614)
(-0.16104433 -0.085619199 -0.0068984813)
(-0.17108701 -0.088769528 -0.0067283318)
(-0.1814456 -0.091926163 -0.006555509)
(-0.19210133 -0.095112784 -0.0063806395)
(-0.20306958 -0.098313442 -0.006190017)
(-0.21432868 -0.10152143 -0.0059857841)
(-0.22587475 -0.10475009 -0.0057822436)
(-0.23770618 -0.10797452 -0.0055644146)
(-0.24980842 -0.11121568 -0.0053414745)
(-0.26218146 -0.11445606 -0.0051055294)
(-0.27481455 -0.11770307 -0.0048631127)
(-0.28769923 -0.12095161 -0.0046102722)
(-0.30083031 -0.12420588 -0.0043489098)
(-0.31419803 -0.12746196 -0.0040788057)
(-0.32779808 -0.13072479 -0.0038004888)
(-0.34162145 -0.13399023 -0.003514799)
(-0.35566332 -0.13726278 -0.0032227978)
(-0.36991622 -0.14053888 -0.0029256013)
(-0.38437479 -0.14382149 -0.0026246007)
(-0.39903288 -0.14710685 -0.0023211992)
(-0.41388452 -0.15039692 -0.0020170414)
(-0.42892453 -0.15368702 -0.0017134089)
(-0.44414654 -0.15697792 -0.0014117431)
(-0.45954557 -0.1602645 -0.0011134487)
(-0.47511508 -0.16354604 -0.00081916724)
(-0.4908497 -0.16681758 -0.00053002305)
(-0.50674274 -0.17007722 -0.0002462532)
(-0.5227882 -0.17331975 3.1437597e-05)
(-0.538979 -0.17654404 0.00030410413)
(-0.55530729 -0.17974447 0.00057010381)
(-0.5717696 -0.18291983 0.00083290454)
(-0.58834946 -0.18606642 0.0010874596)
(-0.605051 -0.18918394 0.0013426483)
(-0.62185414 -0.19226311 0.0015875815)
(-0.63875764 -0.19531289 0.0018318045)
(-0.65574934 -0.19832674 0.002078249)
(-0.67282439 -0.20130684 0.0023154258)
(-0.6899688 -0.20424968 0.0025489411)
(-0.70717917 -0.20715995 0.0027803207)
(-0.72444321 -0.210037 0.0030060385)
(-0.74175719 -0.21288058 0.0032260539)
(-0.75910973 -0.21569403 0.0034389847)
(-0.77649775 -0.21847601 0.0036441177)
(-0.79391056 -0.22123013 0.0038391805)
(-0.81134714 -0.22395616 0.0040242721)
(-0.8287958 -0.2266568 0.0041971024)
(-0.84625903 -0.22932997 0.0043561573)
(-0.86372644 -0.23198207 0.0045045722)
(-0.88119665 -0.23460761 0.0046345023)
(-0.89866811 -0.23721236 0.0047531019)
(-0.91613191 -0.23979253 0.0048539407)
(-0.93359299 -0.24235609 0.0049428966)
(-0.95104418 -0.24489519 0.005017435)
(-0.96849001 -0.24741508 0.0050790787)
(-0.98591482 -0.24992029 0.0051297515)
(-1.0033399 -0.25239997 0.0051685973)
(-1.0207327 -0.25487755 0.0052016051)
(-1.0381327 -0.25732457 0.005222273)
(-1.0554925 -0.25978114 0.0052454899)
(-1.0728633 -0.26220968 0.0052554633)
(-1.0902001 -0.26465245 0.0052761264)
(-1.1075381 -0.26709077 0.0052884287)
(-0.001192395 0.0034274823 0.0044332122)
(-0.0021278917 0.00509732 0.0050079209)
(-0.0026159802 0.0072436479 0.0065549687)
(-0.0032264707 0.0091344327 0.0071947531)
(-0.004426254 0.011375657 0.0077923918)
(-0.0057703611 0.013636312 0.0081981335)
(-0.00752445 0.015878763 0.008470673)
(-0.0095761349 0.018218015 0.0086717257)
(-0.012011505 0.020563291 0.0087969432)
(-0.014711967 0.02289056 0.008895661)
(-0.017787881 0.025267893 0.008947536)
(-0.021137874 0.02760066 0.008997151)
(-0.0248341 0.029963227 0.0090150716)
(-0.028819481 0.032301283 0.0090528419)
(-0.033119903 0.034633211 0.0090669469)
(-0.037723751 0.036958877 0.0091066639)
(-0.042626844 0.039264104 0.0091374317)
(-0.047844703 0.041557864 0.0091807608)
(-0.053359713 0.043846199 0.0092428345)
(-0.059175596 0.04609142 0.0093090607)
(-0.065316826 0.04834558 0.0093813306)
(-0.071757412 0.050559538 0.0094769215)
(-0.078518313 0.052753492 0.0095659244)
(-0.085604834 0.05492104 0.0096663563)
(-0.093010531 0.057059165 0.0097732781)
(-0.10074185 0.059146973 0.0098663065)
(-0.10882064 0.061217424 0.0099720261)
(-0.1172202 0.06321406 0.010049778)
(-0.12597844 0.065187451 0.01013442)
(-0.13506216 0.067078752 0.010184365)
(-0.14450912 0.068931821 0.010230054)
(-0.15428267 0.070702433 0.010251633)
(-0.16440803 0.072406315 0.010253155)
(-0.17487189 0.074034675 0.010232249)
(-0.18566621 0.075576382 0.010190839)
(-0.196792 0.077036794 0.010134522)
(-0.20822842 0.078395353 0.010048449)
(-0.21999473 0.07968016 0.0099578183)
(-0.2320443 0.080851224 0.0098519702)
(-0.24440344 0.081935132 0.0097377592)
(-0.25703388 0.082914069 0.0096196875)
(-0.26994448 0.083793724 0.0094999021)
(-0.28311006 0.084570141 0.0093834493)
(-0.29653272 0.085244415 0.0092713521)
(-0.31019236 0.085815002 0.0091680226)
(-0.32408808 0.086282167 0.0090729714)
(-0.3382052 0.086646127 0.0089889943)
(-0.35254031 0.086906027 0.0089144859)
(-0.36708323 0.087062974 0.0088500469)
(-0.38182984 0.087116313 0.008793148)
(-0.39677247 0.087066557 0.0087424781)
(-0.41190714 0.086913743 0.0086948847)
(-0.42722771 0.086658212 0.0086478781)
(-0.44272978 0.086300023 0.008598153)
(-0.458408 0.08583974 0.0085428445)
(-0.47425739 0.085277804 0.0084791886)
(-0.49027178 0.084614746 0.0084048437)
(-0.50644568 0.083851622 0.0083179783)
(-0.52277171 0.082989433 0.008217564)
(-0.53924274 0.082029444 0.0081030977)
(-0.55585047 0.080973528 0.0079750194)
(-0.57258627 0.079823409 0.0078343555)
(-0.58944025 0.078581381 0.0076829876)
(-0.60640332 0.077249997 0.0075229539)
(-0.62346422 0.075832 0.0073574696)
(-0.64061361 0.074330312 0.0071888646)
(-0.65784045 0.072748217 0.0070213591)
(-0.67513589 0.071090005 0.0068555006)
(-0.6924868 0.069354718 0.0066987785)
(-0.70988522 0.067550427 0.006546389)
(-0.72732468 0.065682834 0.0064079291)
(-0.74479459 0.06374778 0.0062788886)
(-0.76229078 0.061756873 0.0061632758)
(-0.77980337 0.059707652 0.0060598716)
(-0.79732987 0.05760717 0.0059686463)
(-0.81486437 0.055457764 0.0058884549)
(-0.83240299 0.05326257 0.0058183207)
(-0.84994431 0.051025966 0.0057555904)
(-0.86748282 0.048750382 0.0056998337)
(-0.88501973 0.046440168 0.0056482257)
(-0.90255052 0.044097922 0.0055997623)
(-0.92007498 0.041727508 0.0055530172)
(-0.93759115 0.039332218 0.0055068018)
(-0.95509743 0.036915302 0.0054613097)
(-0.97259211 0.034480271 0.0054157171)
(-0.9900739 0.032030154 0.0053714058)
(-1.0075407 0.029568621 0.0053284632)
(-1.0249913 0.02709813 0.0052887896)
(-1.0424239 0.024622273 0.0052534412)
(-1.0598377 0.022143372 0.0052240471)
(-1.0772317 0.019664182 0.005201914)
(-1.094606 0.017186519 0.0051882994)
(-1.1119616 0.014712992 0.0051827763)
(-1.129301 0.01224488 0.0051851254)
(-1.146631 0.0097811714 0.0051932013)
(0 -1.2997239e-18 0)
(0 -9.4905554e-19 0)
(0 8.8896305e-19 0)
(0 -5.6172913e-19 0)
(0 -4.8370253e-19 0)
(0 2.7030612e-18 0)
(0 -8.0250012e-19 0)
(-1.8684723e-18 5.2228533e-19 0)
(0 -4.7734929e-19 0)
(0 1.1629212e-18 0)
(0 1.389868e-18 0)
(0 4.8613595e-19 0)
(0 2.5731753e-19 0)
(0 -5.2410687e-19 0)
(0 3.5625984e-19 0)
(-0.0020953669 0.0014425422 -0.0031315172)
(-0.0022898945 0.005645592 -0.0049873747)
(-0.0023263484 0.0062770213 -0.0058017736)
(-0.0033407299 0.0092848894 -0.0068791196)
(-0.0041746468 0.010921742 -0.0072571411)
(-0.0057275733 0.013393323 -0.007604487)
(-0.0073519078 0.015494192 -0.0077867059)
(-0.0095257588 0.017916388 -0.0079471567)
(-0.011853167 0.020128449 -0.0079919523)
(-0.014634597 0.022549284 -0.0080517975)
(-0.017672928 0.024840469 -0.0080721846)
(-0.020984561 0.027152665 -0.0080875879)
(-0.024701222 0.029521549 -0.0080811563)
(-0.028607885 0.031776455 -0.0080930219)
(-0.032947193 0.034138222 -0.0080750625)
(-0.037474784 0.036357687 -0.0080861515)
(-0.042371181 0.038659875 -0.0080799744)
(-0.047566496 0.040883862 -0.0080710517)
(-0.053047449 0.043114585 -0.0080651735)
(-0.058885284 0.045331018 -0.0080504283)
(-0.064983995 0.047501817 -0.0080401127)
(-0.071415504 0.049662953 -0.0080153226)
(-0.078201346 0.051825647 -0.0079864569)
(-0.085271443 0.053922244 -0.0079422275)
(-0.092710118 0.056037271 -0.0078945456)
(-0.1004477 0.058075593 -0.007830334)
(-0.10852472 0.060099179 -0.0077583473)
(-0.11696841 0.062095567 -0.007669896)
(-0.12571129 0.064017514 -0.007577233)
(-0.13483636 0.065924764 -0.0074628669)
(-0.14429148 0.067763742 -0.0073483195)
(-0.15406853 0.069521317 -0.0072136373)
(-0.16420519 0.07123713 -0.0070729069)
(-0.17465544 0.072853158 -0.0069211896)
(-0.18545697 0.074411227 -0.0067573534)
(-0.19653302 0.07584047 -0.0065933791)
(-0.20798132 0.077238849 -0.0064112584)
(-0.21970507 0.078489254 -0.0062266343)
(-0.23173612 0.079662699 -0.0060312594)
(-0.24405599 0.080722158 -0.0058258373)
(-0.25666044 0.081683561 -0.0056152429)
(-0.26953487 0.082531974 -0.0053926588)
(-0.282677 0.083278089 -0.0051640334)
(-0.29607251 0.083912957 -0.0049236203)
(-0.30971775 0.084445517 -0.0046775227)
(-0.32360048 0.08486951 -0.0044196497)
(-0.3377167 0.085193425 -0.0041562625)
(-0.35205582 0.085413135 -0.0038829929)
(-0.36661265 0.085535246 -0.0036050173)
(-0.38137906 0.085557949 -0.0033195772)
(-0.39634891 0.08548547 -0.0030311344)
(-0.41151491 0.085317208 -0.0027384677)
(-0.42687087 0.085055569 -0.0024446244)
(-0.44240989 0.084700484 -0.0021500619)
(-0.45812482 0.084252446 -0.0018565673)
(-0.47400927 0.083712047 -0.0015652915)
(-0.49005517 0.083078225 -0.0012770659)
(-0.50625571 0.082351782 -0.00099330092)
(-0.52260246 0.081531327 -0.00071384765)
(-0.53908777 0.08061753 -0.00043992576)
(-0.55570284 0.079609532 -0.00017087976)
(-0.57243942 0.078508096 9.2786149e-05)
(-0.58928846 0.077313488 0.00035181824)
(-0.60624107 0.076026774 0.00060629841)
(-0.62328845 0.074649643 0.00085702848)
(-0.64042176 0.073184433 0.0011046367)
(-0.65763032 0.071630561 0.0013497006)
(-0.67491322 0.070003209 0.0015907131)
(-0.69225014 0.068283162 0.0018310059)
(-0.70963638 0.066503879 0.0020685346)
(-0.72707487 0.06464363 0.0023047204)
(-0.74454419 0.062722837 0.0025349849)
(-0.76204657 0.060739319 0.0027648309)
(-0.77957246 0.058701854 0.0029884126)
(-0.79711675 0.056613123 0.0032067438)
(-0.81467351 0.054478389 0.0034183511)
(-0.83223887 0.052302175 0.003621608)
(-0.84980755 0.050088435 0.0038153767)
(-0.86737596 0.047840899 0.0039982894)
(-0.88494033 0.045563065 0.0041693527)
(-0.90249745 0.04325813 0.00432724)
(-0.92004428 0.040928414 0.0044717119)
(-0.93757862 0.038577066 0.0046017418)
(-0.95509762 0.036205404 0.0047174546)
(-0.97259982 0.033816609 0.0048187647)
(-0.9900833 0.031411323 0.0049060992)
(-1.0075467 0.0289929 0.0049800579)
(-1.0249893 0.026561688 0.0050416556)
(-1.0424103 0.024121145 0.0050921402)
(-1.05981 0.021671872 0.0051327996)
(-1.0771884 0.019217153 0.0051656483)
(-1.0945472 0.016758345 0.0051922344)
(-1.1118885 0.014298461 0.0052151638)
(-1.1292147 0.011839369 0.0052363989)
(-1.1465337 0.0093836697 0.0052599794)
(-1.1614047 -0.010382179 0.0052875685)
(-1.1589534 -0.027707028 0.0052919567)
(-1.1564898 -0.045021554 0.0052900265)
(-1.1540355 -0.06232372 0.0052830965)
(-1.1515775 -0.079617262 0.0052731915)
(-1.1491275 -0.096902329 0.0052582868)
(-1.1466822 -0.1141791 0.0052421676)
(-1.144241 -0.13146118 0.0052233188)
(-1.1418148 -0.14874007 0.0052102021)
(-1.1393725 -0.16602998 0.005194964)
(-1.1369535 -0.18332485 0.0051906959)
(-1.1345149 -0.20064189 0.0051861145)
(-1.1320949 -0.2179608 0.005195329)
(-1.1296452 -0.23530622 0.0052037107)
(-1.1272061 -0.25264872 0.0052204239)
(-1.1074032 -0.26754137 0.0052215191)
(-1.0900481 -0.26509845 0.0051995498)
(-1.0726906 -0.26265646 0.0051863427)
(-1.0553079 -0.26021345 0.0051767467)
(-1.0379116 -0.25776902 0.0051802694)
(-1.0204954 -0.25531862 0.0051868347)
(-1.0030631 -0.25286176 0.0052038741)
(-0.98561676 -0.2503959 0.0052234337)
(-0.96815755 -0.24791902 0.0052479115)
(-0.95069066 -0.24542982 0.0052740128)
(-0.93321599 -0.24292589 0.0053015529)
(-0.91574023 -0.24040492 0.005328204)
(-0.89826309 -0.23786593 0.0053559168)
(-0.88078697 -0.23530513 0.0053848312)
(-0.8633186 -0.23272115 0.0054142488)
(-0.84585841 -0.23011243 0.0054456908)
(-0.82841061 -0.22747628 0.0054804701)
(-0.81097764 -0.22481044 0.005520885)
(-0.79356287 -0.22211451 0.0055692279)
(-0.77617043 -0.21938473 0.0056266538)
(-0.75880349 -0.21662244 0.0056963981)
(-0.74146757 -0.21382404 0.0057790391)
(-0.72416709 -0.2109918 0.0058766038)
(-0.70690822 -0.20812207 0.005989043)
(-0.68969883 -0.20521976 0.0061175325)
(-0.67254177 -0.20228223 0.0062584186)
(-0.65545291 -0.19930455 0.0064183348)
(-0.63844833 -0.1963042 0.0065813355)
(-0.62150896 -0.19326531 0.0067555328)
(-0.60467153 -0.19020275 0.0069356265)
(-0.58793606 -0.18711244 0.0071188796)
(-0.57131633 -0.18399831 0.0072986484)
(-0.55481996 -0.18086194 0.0074737221)
(-0.53845886 -0.17770546 0.007640272)
(-0.52224186 -0.17453102 0.0077955048)
(-0.50617801 -0.17134071 0.0079375237)
(-0.4902759 -0.1681357 0.0080645981)
(-0.47454256 -0.16491826 0.008176496)
(-0.45898507 -0.16168873 0.0082729777)
(-0.44360866 -0.15844931 0.0083557639)
(-0.42841887 -0.15519968 0.0084259794)
(-0.41341931 -0.15194208 0.0084870704)
(-0.39861446 -0.14867566 0.0085410247)
(-0.38400688 -0.14540293 0.0085924112)
(-0.3696007 -0.1421226 0.0086433487)
(-0.35539818 -0.13883783 0.0086986853)
(-0.34140404 -0.13554687 0.0087597391)
(-0.32762094 -0.1322539 0.0088308063)
(-0.3140552 -0.12895676 0.0089117466)
(-0.30071006 -0.12566074 0.009005314)
(-0.28759444 -0.12236343 0.009109915)
(-0.274712 -0.11907169 0.0092259699)
(-0.2620749 -0.11578072 0.00935006)
(-0.24968684 -0.11250293 0.0094828009)
(-0.23756193 -0.10922814 0.0096138027)
(-0.22570658 -0.10597176 0.0097495116)
(-0.2141244 -0.10273376 0.0098768574)
(-0.20283012 -0.099500087 0.0099924411)
(-0.19188204 -0.096278319 0.010088246)
(-0.18116589 -0.093119663 0.010188723)
(-0.1707842 -0.089952757 0.010249426)
(-0.16079226 -0.086798319 0.010282455)
(-0.15102927 -0.083726819 0.01030571)
(-0.14164434 -0.080645404 0.010301469)
(-0.13255713 -0.077604696 0.010269001)
(-0.12386187 -0.07458362 0.010219704)
(-0.11540906 -0.071644409 0.010132593)
(-0.10737575 -0.068676044 0.010042128)
(-0.099583545 -0.065814822 0.0099493023)
(-0.092147085 -0.062943785 0.0098307828)
(-0.08500925 -0.060130691 0.0097192713)
(-0.078162299 -0.05735305 0.0096025582)
(-0.071672778 -0.054586863 0.0094793777)
(-0.065406754 -0.051909311 0.009388064)
(-0.059455661 -0.049236795 0.0092942566)
(-0.053817608 -0.046587329 0.0092049936)
(-0.048410473 -0.044016527 0.0091493227)
(-0.043336312 -0.041426726 0.0090861803)
(-0.038489092 -0.038924115 0.009055333)
(-0.03395715 -0.036404017 0.0090243216)
(-0.029716238 -0.033915834 0.0090001589)
(-0.025700082 -0.031509525 0.0089990256)
(-0.021996716 -0.029086912 0.0089853095)
(-0.018610755 -0.026675216 0.0089581019)
(-0.015471831 -0.02434594 0.0089380633)
(-0.012641815 -0.022008707 0.0088813432)
(-0.010157407 -0.019668501 0.0087915365)
(-0.0079466096 -0.0174455 0.0086610311)
(-0.0060642992 -0.015192338 0.0084600108)
(-0.004517931 -0.01302602 0.0081704507)
(-0.0033245796 -0.010826707 0.0077155616)
(-0.0025394658 -0.0087420488 0.0071010997)
(-0.0020273985 -0.006908827 0.0063093883)
(-0.0018631324 -0.0048452168 0.0047864413)
(-0.0027551362 -0.0031406509 0.0025754635)
(0 1.4807963e-18 0)
(0 5.6327207e-19 0)
(0 1.4619806e-18 0)
(0 1.4717229e-18 0)
(0 1.5338915e-18 0)
(0 9.2245671e-19 0)
(0 3.6773107e-20 0)
(0 -8.3585898e-19 -9.1712532e-19)
(0 9.8976739e-20 0)
(0 8.8983475e-19 0)
(0 2.1456783e-18 0)
(0 1.8800618e-18 0)
(0 1.3457787e-18 0)
(0 1.3005904e-18 0)
(0 1.4851671e-18 0)
(0 6.1773563e-18 0)
(0 2.6302362e-18 0)
(0 9.6522192e-19 0)
(0 1.7421765e-18 0)
(0 -1.5167919e-19 0)
(0 4.0607637e-19 0)
(0 4.6272181e-18 0)
(0 -1.8829901e-18 -8.1652317e-19)
(0 2.7523158e-18 0)
(0 3.4406844e-18 0)
(0 1.1370302e-18 0)
(0 4.6540976e-19 0)
(0 1.0802563e-18 0)
(0 1.9476293e-18 0)
(0 2.5051706e-19 0)
(-1.1639622 0.0073202279 0.005197339)
(-1.1639646 0.0073190116 0.0052038387)
(-1.1639675 0.007313742 0.0052166891)
(-1.1639677 0.0073033376 0.0052285264)
(-1.1639661 0.007288455 0.0052419879)
(-1.1639612 0.0072674808 0.0052527536)
(-1.1639529 0.0072416274 0.0052630367)
(-1.1639414 0.0072111915 0.0052704501)
(-1.1639278 0.0071777729 0.0052765462)
(-1.1639122 0.0071412623 0.0052815744)
(-1.163897 0.0071037879 0.0052840711)
(-1.1638811 0.007065912 0.0052872189)
(-1.1638694 0.007028247 0.0052885792)
(-1.1638588 0.0069940104 0.0052901635)
(-1.1638553 0.0069602679 0.0052886337)
(-1.1248724 -0.26956264 0.005315506)
(-1.1248651 -0.2695894 0.0053175063)
(-1.1248599 -0.26962416 0.0053160416)
(-1.1248556 -0.26966276 0.0053149154)
(-1.1248534 -0.26970631 0.0053121373)
(-1.1248511 -0.26975052 0.0053095915)
(-1.1248483 -0.26979481 0.0053047975)
(-1.1248442 -0.26983659 0.0052994926)
(-1.1248385 -0.26987495 0.0052920181)
(-1.1248306 -0.26990797 0.0052831267)
(-1.1248212 -0.26993521 0.0052729399)
(-1.1248095 -0.26995585 0.0052613533)
(-1.124797 -0.26997069 0.0052501745)
(-1.1247833 -0.26997987 0.005240647)
(-1.1247684 -0.26998757 0.0052352008)
(-0.00072405125 -0.00283614 -0.0034925487)
(-0.00075855358 -0.0042972464 -0.0043038509)
(-0.00093471303 -0.0060745971 -0.0053273852)
(-0.0015500986 -0.0077362047 -0.0058310289)
(-0.0023381092 -0.0094391402 -0.0063150058)
(-0.0035843221 -0.011232192 -0.0065657112)
(-0.0051025034 -0.01303362 -0.0067693795)
(-0.0070094194 -0.014943332 -0.0068684634)
(-0.0091943278 -0.016852114 -0.0069475103)
(-0.011700511 -0.018828273 -0.0069858237)
(-0.014529796 -0.020816215 -0.0069908619)
(-0.01763361 -0.022854183 -0.0070079651)
(-0.021044662 -0.024896313 -0.0069942041)
(-0.0247255 -0.026983025 -0.0069932641)
(-0.028717178 -0.029072189 -0.0069786706)
(-0.03297488 -0.031204826 -0.0069731896)
(-0.03753135 -0.033343248 -0.0069581101)
(-0.042350934 -0.035528045 -0.0069490625)
(-0.047485569 -0.037712791 -0.0069332857)
(-0.052888482 -0.039957897 -0.0069135217)
(-0.058592278 -0.042211686 -0.0068918381)
(-0.064593394 -0.044506701 -0.006861621)
(-0.070887055 -0.046849134 -0.0068225564)
(-0.077483865 -0.049213958 -0.0067804419)
(-0.084397393 -0.051628544 -0.0067213447)
(-0.091617461 -0.054082131 -0.0066601467)
(-0.099147762 -0.056587775 -0.0065797212)
(-0.10699896 -0.059122386 -0.0064980952)
(-0.11518199 -0.061705651 -0.0064018251)
(-0.12367201 -0.064346955 -0.0062920861)
(-0.13249732 -0.067001815 -0.0061771499)
(-0.14164842 -0.069718265 -0.0060508804)
(-0.15111974 -0.072462308 -0.0059194804)
(-0.16090705 -0.075247652 -0.0057741443)
(-0.17101668 -0.078059003 -0.005625778)
(-0.1814472 -0.080902794 -0.0054662049)
(-0.19217352 -0.083781852 -0.0053000107)
(-0.20321086 -0.086665786 -0.0051305049)
(-0.21454904 -0.089591688 -0.0049458781)
(-0.22616878 -0.092527045 -0.004761658)
(-0.23807711 -0.095479399 -0.0045698548)
(-0.25025712 -0.098445541 -0.0043645967)
(-0.26270495 -0.10142989 -0.0041549106)
(-0.27541402 -0.10442356 -0.0039357836)
(-0.2883719 -0.10743136 -0.003707572)
(-0.30157523 -0.11045018 -0.0034715659)
(-0.31501446 -0.11348065 -0.0032265805)
(-0.3286845 -0.11652328 -0.0029737104)
(-0.34257676 -0.11957679 -0.0027138745)
(-0.35668652 -0.12264271 -0.0024473373)
(-0.37100632 -0.12571929 -0.0021760173)
(-0.38553119 -0.12880736 -0.0019003627)
(-0.40025473 -0.13190502 -0.0016228189)
(-0.4151717 -0.13501216 -0.0013437542)
(-0.43027634 -0.13812618 -0.0010656789)
(-0.44556304 -0.14124637 -0.00078911543)
(-0.46102611 -0.14436913 -0.00051605686)
(-0.47665961 -0.14749322 -0.00024672186)
(-0.49245751 -0.15061479 1.7164608e-05)
(-0.50841332 -0.1537314 0.00027584092)
(-0.52452036 -0.15683945 0.0005285041)
(-0.54077153 -0.15993732 0.00077569374)
(-0.55715933 -0.16301959 0.0010168138)
(-0.5736772 -0.16608613 0.0012525327)
(-0.5903119 -0.16913192 0.0014842524)
(-0.60706762 -0.1721583 0.0017110205)
(-0.62392349 -0.17516462 0.0019338927)
(-0.64086882 -0.17813695 0.0021515093)
(-0.65790594 -0.18108891 0.0023687647)
(-0.67501755 -0.18400856 0.0025796051)
(-0.69219935 -0.18690453 0.0027899449)
(-0.70944214 -0.18977327 0.0029966315)
(-0.72673703 -0.19261611 0.0032002231)
(-0.74407668 -0.19543277 0.0033974707)
(-0.76145345 -0.19822285 0.0035897787)
(-0.77886198 -0.2009895 0.0037746437)
(-0.79629347 -0.20373108 0.0039513347)
(-0.8137448 -0.20644957 0.0041188186)
(-0.83120862 -0.20914591 0.0042757617)
(-0.84868273 -0.21181917 0.0044211409)
(-0.86616024 -0.21447258 0.0045548633)
(-0.88363959 -0.21710421 0.0046740947)
(-0.90111779 -0.21971391 0.0047820232)
(-0.91858791 -0.22230682 0.0048756035)
(-0.93605319 -0.22487707 0.0049575719)
(-0.95351039 -0.22743164 0.0050249731)
(-0.97095642 -0.22996605 0.0050825617)
(-0.98838701 -0.23248271 0.0051283762)
(-1.0058079 -0.2349862 0.0051667462)
(-1.0232061 -0.2374708 0.0051952179)
(-1.0405985 -0.23994601 0.0052204803)
(-1.0579617 -0.24240908 0.0052398725)
(-1.075326 -0.24486038 0.0052577487)
(-1.0926588 -0.24731229 0.0052784278)
(-1.1099961 -0.24975641 0.0052970012)
(0.00019212877 -0.0024857751 -0.0030287436)
(0.00019269891 -0.0032459945 -0.00389305)
(-0.00025525949 -0.0051058826 -0.0045066922)
(-0.00073243984 -0.0063960696 -0.0050676228)
(-0.0016280784 -0.0079649192 -0.0053700927)
(-0.0028037352 -0.0094613206 -0.0055874148)
(-0.0043849669 -0.01106235 -0.0057276215)
(-0.0062318747 -0.012669282 -0.0058153239)
(-0.0084451357 -0.014302367 -0.0058891635)
(-0.010962965 -0.015993207 -0.0058873847)
(-0.013789763 -0.017682894 -0.0059268008)
(-0.016907948 -0.019422623 -0.0059048246)
(-0.020328435 -0.021171565 -0.0059139078)
(-0.024043562 -0.022952974 -0.0058926715)
(-0.028036503 -0.024747109 -0.005892984)
(-0.032325213 -0.026573027 -0.0058685072)
(-0.036889376 -0.028419535 -0.0058618897)
(-0.041753761 -0.030286097 -0.0058427434)
(-0.046892781 -0.032180389 -0.0058258251)
(-0.052333969 -0.034110034 -0.0057994127)
(-0.058062262 -0.03605281 -0.005774774)
(-0.064087041 -0.03805224 -0.0057357223)
(-0.070415333 -0.040060819 -0.0056986123)
(-0.077049051 -0.04213017 -0.0056465754)
(-0.083994092 -0.044213224 -0.0055924821)
(-0.091246659 -0.046368352 -0.0055201404)
(-0.098822313 -0.048533861 -0.0054489803)
(-0.10671963 -0.050764968 -0.0053658126)
(-0.11493645 -0.05302789 -0.005268492)
(-0.12348279 -0.055341635 -0.0051676797)
(-0.13235593 -0.05768983 -0.0050612633)
(-0.14155611 -0.060090212 -0.0049423808)
(-0.15107685 -0.062525992 -0.0048166537)
(-0.16092573 -0.064998206 -0.0046881691)
(-0.17109888 -0.067511429 -0.0045497006)
(-0.18158259 -0.070061036 -0.0044068272)
(-0.19238311 -0.072636981 -0.0042606966)
(-0.2034888 -0.075247665 -0.0041059769)
(-0.21488696 -0.077881711 -0.0039453536)
(-0.22657636 -0.080544715 -0.0037814545)
(-0.2385517 -0.083226522 -0.0036044747)
(-0.25079802 -0.085935873 -0.0034249516)
(-0.26331597 -0.08866029 -0.0032349574)
(-0.27609039 -0.091407958 -0.0030397045)
(-0.28911659 -0.094173076 -0.0028334564)
(-0.30238659 -0.096958413 -0.002621112)
(-0.31589308 -0.099760488 -0.002398857)
(-0.32962776 -0.10258219 -0.0021709212)
(-0.34358555 -0.10542104 -0.0019342924)
(-0.3577586 -0.10827945 -0.0016930554)
(-0.37214188 -0.11115446 -0.001445724)
(-0.38672852 -0.11404863 -0.0011956283)
(-0.40151388 -0.11695825 -0.00094269621)
(-0.41649118 -0.11988497 -0.00068930666)
(-0.43165617 -0.12282503 -0.00043638278)
(-0.4470019 -0.12577862 -0.00018555581)
(-0.4625239 -0.12874171 6.2170519e-05)
(-0.4782152 -0.13171377 0.0003056389)
(-0.49407045 -0.13469 0.00054404446)
(-0.51008231 -0.13766932 0.00077713741)
(-0.52624494 -0.14064736 0.0010041671)
(-0.54254984 -0.14362265 0.0012261459)
(-0.55899094 -0.14658893 0.0014409528)
(-0.57555834 -0.14954903 0.0016527483)
(-0.59224433 -0.1524943 0.0018584514)
(-0.60904518 -0.15543372 0.0020600736)
(-0.62592921 -0.15834067 0.0022532024)
(-0.64292507 -0.16123668 0.0024488739)
(-0.66000358 -0.16411459 0.002645631)
(-0.67715581 -0.1669725 0.0028352493)
(-0.69437389 -0.16981097 0.0030244945)
(-0.71164892 -0.17262805 0.0032093547)
(-0.72897276 -0.17542513 0.0033904489)
(-0.74634014 -0.17820127 0.0035670265)
(-0.76374176 -0.18095813 0.0037394667)
(-0.7811716 -0.18369512 0.0039047131)
(-0.79862316 -0.18641248 0.0040637558)
(-0.81609195 -0.18911161 0.0042140655)
(-0.8335714 -0.19179316 0.0043560331)
(-0.85105865 -0.19445406 0.004485982)
(-0.86854894 -0.19710163 0.0046079515)
(-0.88603802 -0.19972608 0.0047150197)
(-0.903527 -0.20233701 0.004812701)
(-0.92100558 -0.20492518 0.004900651)
(-0.93848085 -0.20750588 0.0049746363)
(-0.95594244 -0.21005956 0.0050364448)
(-0.97339498 -0.21260033 0.0050876413)
(-0.99082721 -0.21512545 0.0051318863)
(-1.0082542 -0.21763164 0.0051642107)
(-1.0256521 -0.22012832 0.0051960184)
(-1.0430493 -0.22260497 0.0052155081)
(-1.0604117 -0.22507697 0.0052411142)
(-1.0777785 -0.22753048 0.0052549204)
(-1.0951085 -0.22998401 0.0052813996)
(-1.112448 -0.23242842 0.0052993484)
(0.00072888049 -0.0019221632 -0.0026908705)
(0.00074699087 -0.0026503716 -0.003263089)
(0.00057266069 -0.0040839709 -0.0038483257)
(-3.8707119e-05 -0.0052460338 -0.0042400111)
(-0.00090507322 -0.0065033363 -0.0044361349)
(-0.0021832927 -0.0078278629 -0.0045834444)
(-0.0037138057 -0.0091132198 -0.0046968403)
(-0.0056210685 -0.01045342 -0.004771597)
(-0.007842632 -0.011801586 -0.0047779982)
(-0.010363429 -0.013199685 -0.0048221707)
(-0.013205677 -0.014590544 -0.0048083707)
(-0.016337615 -0.016036486 -0.0048185253)
(-0.019785987 -0.017481168 -0.0047955719)
(-0.02349546 -0.018961949 -0.004801748)
(-0.02752589 -0.020455796 -0.0047715545)
(-0.03182051 -0.021980805 -0.0047703335)
(-0.036427403 -0.023516811 -0.0047433725)
(-0.041292225 -0.025086326 -0.0047328112)
(-0.046478352 -0.026675247 -0.0047025634)
(-0.051933098 -0.028294474 -0.0046796133)
(-0.057694772 -0.029940502 -0.0046463689)
(-0.063752177 -0.031619792 -0.0046079479)
(-0.070114209 -0.033330428 -0.0045622648)
(-0.076777208 -0.035078349 -0.0045102325)
(-0.083757144 -0.036863811 -0.0044478211)
(-0.09104998 -0.038691396 -0.0043786485)
(-0.098665819 -0.040553549 -0.0043053645)
(-0.10659675 -0.042470783 -0.0042157774)
(-0.11486415 -0.044418586 -0.0041270676)
(-0.12345239 -0.046422452 -0.0040291988)
(-0.13237344 -0.04845961 -0.0039249329)
(-0.14162227 -0.05055332 -0.0038111998)
(-0.15119975 -0.052676846 -0.0037008166)
(-0.16110592 -0.054853624 -0.003579534)
(-0.17132963 -0.057065555 -0.0034558477)
(-0.1818733 -0.059315293 -0.0033296937)
(-0.19272197 -0.061605755 -0.0031977617)
(-0.20387662 -0.063923705 -0.003063469)
(-0.21534054 -0.066284657 -0.0029226683)
(-0.22709664 -0.06866835 -0.0027729607)
(-0.23913119 -0.071090483 -0.0026231533)
(-0.25144584 -0.07353485 -0.002462044)
(-0.26402586 -0.076010755 -0.0022981385)
(-0.27686536 -0.078509692 -0.0021246402)
(-0.28995604 -0.081035767 -0.0019432547)
(-0.30328957 -0.083587364 -0.0017535334)
(-0.31685823 -0.086162819 -0.0015567292)
(-0.33065545 -0.088764637 -0.0013512108)
(-0.34467424 -0.09139019 -0.0011396431)
(-0.35890804 -0.094041261 -0.00092128176)
(-0.37335082 -0.09671599 -0.00069864006)
(-0.38799679 -0.099415721 -0.00047167387)
(-0.40284013 -0.10213754 -0.00024331571)
(-0.41787537 -0.1048829 -1.3416284e-05)
(-0.433097 -0.10764797 0.0002148222)
(-0.44849926 -0.11043331 0.0004417167)
(-0.46407669 -0.11323497 0.0006643704)
(-0.479823 -0.11605213 0.00088327128)
(-0.4957321 -0.11888084 0.001096285)
(-0.51179747 -0.1217198 0.0013040532)
(-0.52801182 -0.12456457 0.0015054555)
(-0.54436808 -0.12741329 0.0017010792)
(-0.56085833 -0.13026225 0.0018904178)
(-0.57747382 -0.13311051 0.002076488)
(-0.59420794 -0.13595275 0.0022553566)
(-0.61104855 -0.13878665 0.0024318354)
(-0.62798934 -0.14162446 0.0026024758)
(-0.6450208 -0.14443282 0.0027816717)
(-0.66214274 -0.14722855 0.0029375298)
(-0.67932394 -0.15002174 0.0031044511)