/*--------------------------------*- C++ -*----------------------------------*\
  =========                 |
  \\      /  F ield         | OpenFOAM: The Open Source CFD Toolbox
   \\    /   O peration     | Website:  https://openfoam.org
    \\  /    A nd           | Version:  6
     \\/     M anipulation  |
\*---------------------------------------------------------------------------*/
FoamFile
{
    version     2.0;
    format      ascii;
    class       pointVectorField;
    location    "1";
    object      u;
}
// * * * * * * * * * * * * * * * * * * * * * * * * * * * * * * * * * * * * * //

dimensions      [0 1 0 0 0 0 0];

internalField   nonuniform List<vector> 
28033
(
(0 4.422886e-19 0)
(0 3.0286602e-18 0)
(-0.63520789 -0.10738765 0.009546791)
(-0.6460909 0.039910766 0.0089772561)
(0 2.7352467e-18 0)
(0 4.4549102e-18 0)
(-0.64533424 0.037158143 0.0091762636)
(-0.63443759 -0.11013608 0.0093202702)
(0 9.5768415e-19 0)
(0 2.7654965e-19 0)
(0 2.2091269e-18 0)
(0 -1.0487943e-18 0)
(0 1.4127946e-18 0)
(0 -8.3726258e-19 0)
(0 -2.0231306e-20 0)
(-6.748403e-19 -2.2014434e-19 0)
(0 4.140507e-19 0)
(0 2.0605047e-19 0)
(0 -7.9298105e-19 0)
(0 7.6776675e-19 0)
(0 9.1811508e-19 0)
(0 -7.3638322e-19 0)
(0 9.3623087e-19 0)
(-0.63589605 -0.098147132 0.009521049)
(-0.63657348 -0.088910974 0.0095004808)
(-0.63724519 -0.079683636 0.0094736637)
(-0.63791273 -0.070463817 0.0094455364)
(-0.63857498 -0.061261226 0.0094100875)
(-0.6392403 -0.052068595 0.0093691506)
(-0.63990499 -0.04288778 0.0093249869)
(-0.64057754 -0.033712052 0.0092761253)
(-0.6412543 -0.024537857 0.0092287188)
(-0.64193812 -0.015359291 0.0091811836)
(-0.64262894 -0.0061726473 0.0091380307)
(-0.64332313 0.0030263992 0.0091017725)
(-0.64402065 0.012236704 0.009066189)
(-0.64471698 0.021457987 0.0090362959)
(-0.64540659 0.030686505 0.009007887)
(-0.0014155591 -0.0025300693 -0.002670364)
(-0.0016362331 -0.0038581715 -0.003749445)
(-0.0021869196 -0.0051594209 -0.0044236972)
(-0.0029768942 -0.0066332256 -0.0048509527)
(-0.0040012032 -0.0079841754 -0.0050726799)
(-0.0052407277 -0.0094961503 -0.0051857152)
(-0.0067466997 -0.01091388 -0.0052181626)
(-0.0084302139 -0.012414594 -0.005185694)
(-0.010358441 -0.013840382 -0.0051319212)
(-0.012451078 -0.015322083 -0.0050436391)
(-0.014762062 -0.016732131 -0.0049478709)
(-0.017226249 -0.018183158 -0.004838149)
(-0.019888869 -0.019569762 -0.0047371599)
(-0.022696074 -0.020982477 -0.0046265702)
(-0.02569295 -0.022351268 -0.0045163349)
(-0.028824356 -0.023730807 -0.0044154198)
(-0.032134532 -0.025074327 -0.0043086274)
(-0.035585951 -0.02643024 -0.0042116381)
(-0.039208407 -0.027762839 -0.0041000956)
(-0.042966559 -0.02909681 -0.0040039202)
(-0.046893137 -0.030419808 -0.0038966251)
(-0.050963008 -0.031746194 -0.0037904421)
(-0.055189639 -0.03305383 -0.0036835046)
(-0.059569486 -0.034379933 -0.0035708896)
(-0.064097111 -0.03568159 -0.0034551262)
(-0.06877711 -0.036997765 -0.0033374903)
(-0.073605127 -0.038290407 -0.0032219998)
(-0.078582148 -0.039600699 -0.0030960142)
(-0.083699781 -0.040881177 -0.0029748798)
(-0.088962082 -0.042169308 -0.0028548637)
(-0.094361258 -0.043443428 -0.0027301555)
(-0.099891676 -0.044706399 -0.0026117867)
(-0.10555223 -0.04595862 -0.0024959619)
(-0.11134224 -0.047194775 -0.002385841)
(-0.11725133 -0.048425682 -0.002271884)
(-0.12328088 -0.049637671 -0.0021725371)
(-0.1294198 -0.050839956 -0.0020740791)
(-0.13567482 -0.052029767 -0.0019785743)
(-0.14203571 -0.053210974 -0.0018872829)
(-0.14850338 -0.054382577 -0.0018002846)
(-0.15507845 -0.055547328 -0.0017123154)
(-0.1617588 -0.056708561 -0.001625289)
(-0.16854508 -0.057866995 -0.0015350646)
(-0.17543866 -0.059023184 -0.0014413305)
(-0.18244041 -0.06018293 -0.0013414659)
(-0.18955209 -0.061343399 -0.0012339651)
(-0.19677606 -0.06250866 -0.0011167139)
(-0.20411252 -0.06367851 -0.00098909484)
(-0.21156529 -0.064852879 -0.00084895245)
(-0.21913263 -0.066032365 -0.00069656907)
(-0.2268178 -0.067215305 -0.00053083021)
(-0.2346181 -0.068401716 -0.00035223298)
(-0.24253472 -0.069588306 -0.00016090052)
(-0.25056407 -0.070775508 4.2139412e-05)
(-0.25870506 -0.071958288 0.00025595425)
(-0.26695326 -0.073137305 0.00047925218)
(-0.27530536 -0.074307466 0.00071035608)
(-0.28375627 -0.075468666 0.00094795659)
(-0.2923015 -0.076616761 0.0011903604)
(-0.30093489 -0.077751699 0.0014361551)
(-0.30965194 -0.078869718 0.00168408)
(-0.31844607 -0.079971041 0.001932865)
(-0.32731282 -0.081053795 0.0021821522)
(-0.33624594 -0.082117655 0.0024304176)
(-0.345241 -0.083161423 0.0026782851)
(-0.35429407 -0.08418651 0.0029246583)
(-0.3633975 -0.085190661 0.0031691015)
(-0.37255245 -0.08617508 0.0034134982)
(-0.3817515 -0.087143948 0.0036604247)
(-0.39099417 -0.088090632 0.0039055239)
(-0.40027438 -0.089022221 0.0041508604)
(-0.4095915 -0.089935472 0.0043978302)
(-0.41894161 -0.090831908 0.0046460638)
(-0.42832253 -0.091712149 0.0048961639)
(-0.43773095 -0.09257437 0.0051470827)
(-0.44716419 -0.093421746 0.0054006258)
(-0.45661897 -0.094249663 0.0056542613)
(-0.46609124 -0.095063113 0.0059096721)
(-0.47557815 -0.095856134 0.0061639082)
(-0.48507445 -0.096634139 0.0064186587)
(-0.49457649 -0.097391619 0.0066694447)
(-0.50407948 -0.098132717 0.006919048)
(-0.51357762 -0.098854009 0.0071614512)
(-0.52306747 -0.099559709 0.0074004566)
(-0.53254291 -0.1002491 0.0076290698)
(-0.54200286 -0.10092006 0.007851542)
(-0.55143734 -0.10158135 0.0080615168)
(-0.56084949 -0.10222608 0.0082624781)
(-0.57023101 -0.10286705 0.0084503037)
(-0.57958425 -0.1034974 0.008629091)
(-0.58890973 -0.10412785 0.0087937728)
(-0.59820164 -0.10476017 0.0089542388)
(-0.60747794 -0.10539249 0.0091001644)
(-0.6167254 -0.10604317 0.0092530281)
(-0.62596799 -0.10670393 0.009394011)
(-0.0010673684 0.0027965532 0.0035707295)
(-0.0021349411 0.0040854147 0.0038345652)
(-0.0028735635 0.0057488161 0.0048848837)
(-0.0036403008 0.0070681182 0.0052223584)
(-0.0048783241 0.008693085 0.0055204068)
(-0.0061726636 0.010240824 0.0056896199)
(-0.0077527423 0.011779355 0.0057436339)
(-0.0095169989 0.013331807 0.0057635527)
(-0.011533592 0.014879857 0.0057146577)
(-0.013703714 0.016372842 0.0056655531)
(-0.016102159 0.017882842 0.0055771258)
(-0.018665719 0.019331809 0.0054993147)
(-0.021417068 0.020777157 0.0054046754)
(-0.024339567 0.022180747 0.0053271284)
(-0.027429131 0.02356132 0.0052431253)
(-0.030686544 0.024909232 0.0051774513)
(-0.034100893 0.026231862 0.0051155368)
(-0.037680659 0.02751746 0.0050618)
(-0.041416529 0.028791764 0.0050261155)
(-0.045300708 0.030009772 0.0049925384)
(-0.049358534 0.031230594 0.0049677471)
(-0.053557839 0.032397331 0.0049518929)
(-0.05792798 0.033554638 0.0049363364)
(-0.062445784 0.034668397 0.0049230819)
(-0.067133409 0.035767985 0.0049125977)
(-0.071956288 0.03681569 0.0048959239)
(-0.076961625 0.037858543 0.0048785151)
(-0.082094979 0.038844423 0.004853276)
(-0.087404543 0.039821471 0.0048238248)
(-0.092842535 0.040748709 0.0047859995)
(-0.09844456 0.041658175 0.0047432541)
(-0.10417307 0.042529574 0.0046978741)
(-0.11004792 0.043369734 0.0046460256)
(-0.11605141 0.044185723 0.0045955251)
(-0.12218024 0.044965395 0.0045439675)
(-0.12843369 0.045725441 0.0044977196)
(-0.13479614 0.046448964 0.0044544768)
(-0.14128149 0.047161056 0.0044211073)
(-0.1478651 0.047839351 0.004397039)
(-0.15456419 0.048503944 0.0043837041)
(-0.16135955 0.049144263 0.0043840949)
(-0.16826407 0.049768068 0.0043964364)
(-0.17526577 0.050371975 0.0044232349)
(-0.18237513 0.050959146 0.004461213)
(-0.18958517 0.051527431 0.0045118017)
(-0.19690326 0.052077458 0.0045713277)
(-0.20432743 0.052607877 0.004639343)
(-0.21186157 0.05311707 0.0047127613)
(-0.21950594 0.053603669 0.0047899314)
(-0.22726276 0.054065583 0.0048681142)
(-0.23513168 0.054500338 0.0049456159)
(-0.24311345 0.054906045 0.0050201526)
(-0.2512067 0.05528019 0.0050905261)
(-0.25940978 0.055620528 0.0051553046)
(-0.26772031 0.055925122 0.005213937)
(-0.27613476 0.056192334 0.0052660318)
(-0.28464865 0.056420155 0.0053119625)
(-0.29325773 0.056608223 0.0053520837)
(-0.30195602 0.056755024 0.0053876513)
(-0.31073798 0.056860657 0.0054197328)
(-0.31959757 0.056924707 0.0054499862)
(-0.32852875 0.056947824 0.0054798346)
(-0.33752504 0.056929847 0.0055112053)
(-0.34658141 0.056872423 0.0055452415)
(-0.35569148 0.056775406 0.0055837357)
(-0.36485072 0.056640521 0.0056275572)
(-0.37405445 0.056468404 0.0056777912)
(-0.38329893 0.056260436 0.0057340316)
(-0.39257824 0.056016076 0.005799121)
(-0.40189197 0.055737173 0.005868387)
(-0.41123678 0.05542609 0.0059456253)
(-0.42060786 0.055080519 0.0060279341)
(-0.43000528 0.054702723 0.0061149138)
(-0.439426 0.05429321 0.0062052301)
(-0.44886639 0.053851232 0.0062986719)
(-0.45832579 0.053378848 0.0063928688)
(-0.46779972 0.052875181 0.0064885427)
(-0.47728635 0.052342184 0.0065836024)
(-0.48678114 0.051779541 0.0066789203)
(-0.49628152 0.051189783 0.006773424)
(-0.5057819 0.050572503 0.0068685729)
(-0.51527962 0.049931481 0.0069635689)
(-0.52476824 0.049266624 0.0070612359)
(-0.53424514 0.048582479 0.0071608283)
(-0.54370386 0.047879593 0.0072659597)
(-0.55314216 0.047163153 0.0073761942)
(-0.56255456 0.046434221 0.0074950597)
(-0.57193977 0.045698383 0.0076223004)
(-0.58129454 0.044957033 0.0077605162)
(-0.59061895 0.044215538 0.0079094272)
(-0.59991322 0.04347581 0.0080696514)
(-0.60917983 0.042741991 0.0082404742)
(-0.61842285 0.0420163 0.0084199465)
(-0.62764887 0.041301851 0.0086056212)
(-0.63686876 0.040599737 0.0087938537)
(0 -1.2034392e-18 0)
(0 -8.7874862e-19 0)
(0 8.2310784e-19 0)
(0 -5.2011571e-19 0)
(0 -4.478694e-19 0)
(0 2.5028159e-18 0)
(0 -7.4305016e-19 0)
(-1.7300542e-18 4.8359394e-19 0)
(0 -4.4198681e-19 0)
(0 1.0767709e-18 0)
(0 1.2869053e-18 0)
(0 4.5012255e-19 0)
(0 2.3825521e-19 0)
(0 -4.8528054e-19 0)
(0 3.2986778e-19 0)
(-0.0018068012 0.0012176836 -0.0025797009)
(-0.0022880168 0.004599463 -0.0038888934)
(-0.0026396248 0.0050258641 -0.0043938921)
(-0.003726948 0.007250645 -0.0051106378)
(-0.0046671229 0.0084065103 -0.0052918197)
(-0.0060860214 0.010096721 -0.0054402774)
(-0.0075783248 0.011546614 -0.005460697)
(-0.0094022984 0.013142149 -0.0054778479)
(-0.011344119 0.014597684 -0.0053888005)
(-0.01354163 0.016130387 -0.0053300355)
(-0.015920937 0.017595748 -0.0052279252)
(-0.018441347 0.019002549 -0.005138255)
(-0.021205705 0.020455717 -0.0050154873)
(-0.024074486 0.021795809 -0.0049322962)
(-0.027178574 0.023177481 -0.0048003768)
(-0.030395331 0.024472437 -0.0047208607)
(-0.03379944 0.025765406 -0.0046045613)
(-0.037369843 0.027033593 -0.0045185705)
(-0.041085719 0.02824559 -0.0044091192)
(-0.04498163 0.029473848 -0.0043260746)
(-0.049022834 0.030633413 -0.004223703)
(-0.05320756 0.031783979 -0.0041389541)
(-0.057594966 0.03292836 -0.0040401707)
(-0.062089425 0.034002488 -0.0039436351)
(-0.066795175 0.035110103 -0.0038530693)
(-0.071604453 0.036123001 -0.0037518261)
(-0.076601334 0.037157875 -0.003657972)
(-0.081734391 0.038136832 -0.0035562461)
(-0.087023189 0.039098557 -0.0034620936)
(-0.092452661 0.040021983 -0.0033601073)
(-0.098041177 0.040928848 -0.0032681084)
(-0.10373949 0.041771463 -0.0031718296)
(-0.10959674 0.042612493 -0.0030801394)
(-0.11556039 0.043391578 -0.0029921238)
(-0.12166862 0.044160483 -0.0029033568)
(-0.12786935 0.044874385 -0.0028269116)
(-0.13421075 0.045580029 -0.0027462711)
(-0.14065144 0.04623321 -0.0026719112)
(-0.14720586 0.046870313 -0.0025993899)
(-0.15386536 0.047472139 -0.0025262755)
(-0.16063421 0.048054708 -0.0024556705)
(-0.16750691 0.048607752 -0.002380703)
(-0.17448829 0.049142694 -0.0023048217)
(-0.18157578 0.049652687 -0.0022210137)
(-0.18877367 0.050145852 -0.002133102)
(-0.1960805 0.050615915 -0.0020336186)
(-0.2035006 0.051069396 -0.0019265174)
(-0.21103292 0.051500384 -0.0018059092)
(-0.21867995 0.051912507 -0.0016748145)
(-0.2264413 0.05230133 -0.0015292871)
(-0.23431724 0.052667601 -0.0013718792)
(-0.24230635 0.053007928 -0.0012008276)
(-0.25040727 0.053321225 -0.0010175848)
(-0.25861751 0.053605176 -0.00082263181)
(-0.26693334 0.053857034 -0.00061676412)
(-0.27535156 0.054076136 -0.00040162632)
(-0.28386689 0.054258829 -0.00017765061)
(-0.29247489 0.05440531 5.2864875e-05)
(-0.3011699 0.054512723 0.00028978259)
(-0.30994645 0.054581284 0.00053099672)
(-0.31879898 0.054609475 0.00077624956)
(-0.32772179 0.054597793 0.0010241298)
(-0.33670967 0.054545632 0.0012745589)
(-0.3457573 0.05445408 0.0015264795)
(-0.35486003 0.054323113 0.0017802805)
(-0.36401357 0.054154554 0.0020356039)
(-0.37321277 0.053946786 0.0022925204)
(-0.38245983 0.053709951 0.0025518346)
(-0.39173662 0.053425323 0.0028103034)
(-0.40105758 0.053121227 0.0030753972)
(-0.41041125 0.052776251 0.0033410713)
(-0.4197938 0.052402548 0.0036094605)
(-0.42920571 0.051997482 0.0038814131)
(-0.43864221 0.051563472 0.0041558041)
(-0.44810098 0.051100366 0.0044326238)
(-0.4575783 0.050609201 0.0047117424)
(-0.46707114 0.050090817 0.0049917508)
(-0.47657489 0.0495456 0.0052724938)
(-0.48608626 0.048974753 0.0055521639)
(-0.49559992 0.048378835 0.0058301817)
(-0.50511213 0.047759448 0.0061043214)
(-0.51461699 0.047117376 0.0063740313)
(-0.52411106 0.046455102 0.0066366984)
(-0.5335881 0.045773647 0.0068918504)
(-0.54304533 0.045076253 0.0071371323)
(-0.55247749 0.044364719 0.007372116)
(-0.56188242 0.043642348 0.0075951553)
(-0.57125712 0.042912203 0.0078062129)
(-0.58060059 0.042176896 0.0080048783)
(-0.58991303 0.041440991 0.0081914847)
(-0.59919499 0.040705653 0.0083676677)
(-0.60845121 0.039977007 0.0085342472)
(-0.61768403 0.03925394 0.0086953189)
(-0.6269038 0.038544608 0.0088521285)
(-0.63611643 0.037842953 0.0090123964)
(-0.6446534 0.027941067 0.0091853595)
(-0.64396739 0.018713421 0.0091982145)
(-0.64326939 0.0094935058 0.0092106494)
(-0.64257814 0.00028681751 0.009217536)
(-0.64187769 -0.0089139373 0.0092236668)
(-0.64119046 -0.01809777 0.009223774)
(-0.64050015 -0.027279481 0.0092232888)
(-0.63982262 -0.036454415 0.0092198803)
(-0.63914603 -0.045632245 0.0092196962)
(-0.63847719 -0.05481424 0.0092199049)
(-0.63781198 -0.064007383 0.0092293027)
(-0.63714267 -0.073215825 0.0092371072)
(-0.63647911 -0.082430247 0.0092591019)
(-0.63580114 -0.091668294 0.0092778321)
(-0.6351234 -0.10090068 0.0093027321)
(-0.62520111 -0.10944965 0.0091223689)
(-0.61595857 -0.10879511 0.0089129977)
(-0.60671062 -0.10814539 0.0087118256)
(-0.59744236 -0.10750868 0.0085075375)
(-0.58814739 -0.10687921 0.0083166461)
(-0.578827 -0.10625114 0.0081311925)
(-0.56947542 -0.10562306 0.0079582932)
(-0.56009583 -0.10498957 0.0077947326)
(-0.55068782 -0.10434856 0.0076418629)
(-0.54125479 -0.10369686 0.0074984264)
(-0.53180001 -0.1030312 0.0073629754)
(-0.52232786 -0.10235088 0.0072347865)
(-0.51284211 -0.1016525 0.0071122281)
(-0.50334761 -0.10093599 0.0069945287)
(-0.49384901 -0.10019908 0.0068806457)
(-0.48435259 -0.09944167 0.0067689181)
(-0.47486266 -0.0986636 0.0066585702)
(-0.46538333 -0.097864442 0.0065495109)
(-0.45591898 -0.097044156 0.0064415543)
(-0.44647288 -0.096202933 0.0063349268)
(-0.43704866 -0.095341097 0.0062303927)
(-0.42764882 -0.094458594 0.0061283317)
(-0.41827671 -0.093556374 0.0060299669)
(-0.40893412 -0.09263352 0.0059356778)
(-0.39962416 -0.09169199 0.0058477224)
(-0.39034933 -0.090731033 0.0057638807)
(-0.38110994 -0.089747369 0.0056909829)
(-0.37192178 -0.08874872 0.0056188924)
(-0.36276608 -0.087727378 0.0055587369)
(-0.35366565 -0.086687567 0.0055031642)
(-0.34461552 -0.085629462 0.0054559013)
(-0.3356247 -0.084551304 0.005412839)
(-0.32669616 -0.083454616 0.0053749644)
(-0.31783632 -0.082339036 0.0053400178)
(-0.30905067 -0.081205256 0.0053068548)
(-0.30034538 -0.080053932 0.0052739868)
(-0.29172625 -0.078885861 0.0052394263)
(-0.28319921 -0.077702273 0.0052022876)
(-0.27476968 -0.076504094 0.0051606286)
(-0.26644268 -0.075293335 0.0051141229)
(-0.25822259 -0.074070863 0.0050614175)
(-0.25011285 -0.072839358 0.0050032248)
(-0.24211636 -0.071599519 0.0049387757)
(-0.23423456 -0.070354544 0.0048701057)
(-0.22646864 -0.069104631 0.004797133)
(-0.21881803 -0.067853416 0.0047230507)
(-0.21128236 -0.066600236 0.004648287)
(-0.20385951 -0.065348949 0.0045767989)
(-0.196548 -0.064097938 0.0045092939)
(-0.18934491 -0.062850992 0.0044498518)
(-0.18224856 -0.061604974 0.004398638)
(-0.17525579 -0.060365128 0.004360303)
(-0.16836637 -0.059123898 0.0043324282)
(-0.16157585 -0.057890883 0.0043214787)
(-0.15489 -0.056653015 0.0043200592)
(-0.14830118 -0.055423587 0.0043378262)
(-0.14181462 -0.054189483 0.0043632937)
(-0.13543002 -0.052957531 0.0044057739)
(-0.12917409 -0.051709313 0.0044452752)
(-0.12299752 -0.050479523 0.0045092333)
(-0.11694874 -0.049229708 0.0045685768)
(-0.11104188 -0.04796924 0.0046257998)
(-0.1052296 -0.046721101 0.0046887745)
(-0.099561867 -0.045452458 0.0047474281)
(-0.094020356 -0.044177928 0.0048008922)
(-0.088644211 -0.042887712 0.0048475913)
(-0.083374586 -0.041610457 0.0048801314)
(-0.078296092 -0.04029371 0.0049068291)
(-0.073326343 -0.039007353 0.0049350274)
(-0.068531033 -0.037683789 0.0049411673)
(-0.063878144 -0.036368597 0.0049513254)
(-0.05937417 -0.035037234 0.0049518494)
(-0.055047924 -0.033693576 0.0049467817)
(-0.050837907 -0.032363612 0.0049532531)
(-0.046793523 -0.031009222 0.0049544564)
(-0.042911019 -0.029648107 0.0049606548)
(-0.039153511 -0.028289851 0.0049787961)
(-0.035571563 -0.026912888 0.0050014516)
(-0.032114413 -0.025534787 0.0050362573)
(-0.028825863 -0.024145768 0.005083689)
(-0.025705474 -0.022715379 0.0051296151)
(-0.022697366 -0.021342608 0.0052112131)
(-0.019884088 -0.019892727 0.0052719815)
(-0.017238935 -0.018466524 0.0053512392)
(-0.014752389 -0.017007891 0.0054182609)
(-0.012442516 -0.015566493 0.0054949949)
(-0.01036188 -0.014050912 0.0055340142)
(-0.0084390783 -0.012624399 0.0055709908)
(-0.0067432103 -0.01111316 0.0055427993)
(-0.0052637798 -0.0096550307 0.0054756278)
(-0.0040383507 -0.0081256765 0.0052820567)
(-0.0030923825 -0.0066607323 0.0049796063)
(-0.0023465641 -0.0053320122 0.0045393143)
(-0.0018682684 -0.003797412 0.0035554829)
(-0.0022242426 -0.0025181626 0.0020438896)
(0 1.3710975e-18 0)
(0 5.2154435e-19 0)
(0 1.3536757e-18 0)
(0 1.3626962e-18 0)
(0 1.4202594e-18 0)
(0 8.5412025e-19 0)
(0 3.4048921e-20 0)
(0 -7.7393777e-19 -8.4918382e-19)
(0 9.164445e-20 0)
(0 8.2391496e-19 0)
(0 1.9867245e-18 0)
(0 1.740785e-18 0)
(0 1.2460822e-18 0)
(0 1.2042415e-18 0)
(0 1.3751445e-18 0)
(0 5.719732e-18 0)
(0 2.4353859e-18 0)
(0 8.9371738e-19 0)
(0 1.6131145e-18 0)
(0 -1.4044266e-19 0)
(0 3.7599385e-19 0)
(0 4.2844295e-18 0)
(0 -1.7434965e-18 -7.5603437e-19)
(0 2.5484216e-18 0)
(0 3.1857953e-18 0)
(0 1.052798e-18 0)
(0 4.3093177e-19 0)
(0 1.0002299e-18 0)
(0 1.8033471e-18 0)
(0 2.3195853e-19 0)
(-0.64603346 0.039738901 0.0089733862)
(-0.6459724 0.039574077 0.0089782872)
(-0.6459149 0.039411106 0.0089906724)
(-0.64585878 0.039247979 0.0090067594)
(-0.64580471 0.039082619 0.0090253424)
(-0.64575217 0.038915182 0.0090457952)
(-0.64570121 0.038743867 0.0090665606)
(-0.6456515 0.038570017 0.0090875241)
(-0.64560337 0.038392995 0.0091072093)
(-0.6455568 0.038213796 0.0091269157)
(-0.64551298 0.03803271 0.0091433147)
(-0.6454706 0.037851513 0.0091589312)
(-0.6454328 0.037670228 0.0091697519)
(-0.64539647 0.037493691 0.0091774176)
(-0.64536623 0.03731889 0.0091778687)
(-0.63515986 -0.10753563 0.0095496789)
(-0.63510611 -0.10769706 0.0095476125)
(-0.63505406 -0.10786474 0.0095372999)
(-0.63500237 -0.10803753 0.00952243)
(-0.63495333 -0.10821284 0.0095042392)
(-0.63490475 -0.10838884 0.0094835596)
(-0.63485685 -0.10856412 0.0094610668)
(-0.63480939 -0.10873827 0.0094375979)
(-0.63476208 -0.10891057 0.0094139847)
(-0.63471505 -0.10908116 0.0093907974)
(-0.63466801 -0.10925023 0.0093690455)
(-0.63462189 -0.10941963 0.0093497307)
(-0.63457579 -0.1095889 0.0093339292)
(-0.6345303 -0.10976326 0.0093229061)
(-0.63448578 -0.10994317 0.0093208716)
(-0.00070334173 -0.0020916101 -0.002680732)
(-0.0010996213 -0.0031673416 -0.003155515)
(-0.001606586 -0.0044596574 -0.0038491064)
(-0.0024231709 -0.0056575599 -0.0041150021)
(-0.0033962503 -0.0068501723 -0.0043658959)
(-0.0046669044 -0.0080928381 -0.0044384468)
(-0.0061416626 -0.0093104709 -0.0044904315)
(-0.0078616241 -0.010570256 -0.0044558388)
(-0.0097852841 -0.011819283 -0.004414797)
(-0.01189161 -0.013065398 -0.0043461124)
(-0.014220109 -0.014320048 -0.0042557679)
(-0.016699454 -0.015552332 -0.0041721932)
(-0.019375614 -0.016793627 -0.0040754608)
(-0.022199174 -0.018006745 -0.0039829684)
(-0.025214471 -0.019230102 -0.0038862714)
(-0.028364582 -0.020423386 -0.0037929771)
(-0.031690661 -0.021625277 -0.0037005808)
(-0.035159718 -0.022812836 -0.0036061154)
(-0.038795381 -0.023987121 -0.0035147004)
(-0.042573691 -0.025168369 -0.003417782)
(-0.04651435 -0.026335725 -0.003323925)
(-0.050603681 -0.027500485 -0.0032231582)
(-0.054844504 -0.02866821 -0.0031235618)
(-0.05923945 -0.029826774 -0.0030208293)
(-0.06378724 -0.030983705 -0.00291321)
(-0.068487363 -0.032141457 -0.0028053285)
(-0.073330812 -0.033295405 -0.0026938537)
(-0.078325744 -0.034444169 -0.0025825634)
(-0.08346804 -0.035587753 -0.0024710396)
(-0.088747564 -0.036735007 -0.0023562853)
(-0.094167322 -0.037864094 -0.00224652)
(-0.099723856 -0.038995658 -0.0021367782)
(-0.10540893 -0.040115428 -0.0020323599)
(-0.11121823 -0.041230802 -0.0019278458)
(-0.11715041 -0.042332896 -0.001830988)
(-0.1232017 -0.043429328 -0.0017347055)
(-0.12936193 -0.044518849 -0.0016433268)
(-0.13563667 -0.045593842 -0.0015587161)
(-0.1420196 -0.046669694 -0.0014697163)
(-0.14850697 -0.047732899 -0.0013889078)
(-0.15510074 -0.048792499 -0.0013059662)
(-0.16179878 -0.0498495 -0.00122168)
(-0.16860351 -0.050900102 -0.0011351368)
(-0.17551376 -0.051952276 -0.0010444064)
(-0.18253293 -0.05300335 -0.00094692352)
(-0.18966153 -0.054055549 -0.00084187429)
(-0.19690195 -0.05511098 -0.00072835824)
(-0.20425658 -0.056168993 -0.00060344224)
(-0.21172623 -0.057231046 -0.00046850195)
(-0.21931256 -0.058297218 -0.00032094841)
(-0.22701608 -0.05936693 -0.0001621821)
(-0.23483656 -0.060440444 9.1652836e-06)
(-0.2427731 -0.061516035 0.00019102707)
(-0.25082388 -0.062593566 0.00038431327)
(-0.25898634 -0.063670504 0.00058645234)
(-0.26725689 -0.064746644 0.00079759814)
(-0.27563148 -0.065818661 0.0010152622)
(-0.28410531 -0.06688636 0.0012391147)
(-0.29267324 -0.067946632 0.0014668823)
(-0.30132947 -0.068998702 0.0016981867)
(-0.31006881 -0.070040207 0.0019310289)
(-0.31888496 -0.071070475 0.0021653787)
(-0.32777281 -0.072087919 0.0023999374)
(-0.33672655 -0.073091734 0.0026343096)
(-0.34574138 -0.074079829 0.0028680597)
(-0.3548137 -0.07505643 0.0031025465)
(-0.36393817 -0.076014811 0.0033347913)
(-0.37310835 -0.076958518 0.0035678969)
(-0.38232393 -0.07788662 0.003801418)
(-0.39158157 -0.078798876 0.0040350498)
(-0.40087663 -0.079697693 0.0042696871)
(-0.41020777 -0.080581595 0.0045064042)
(-0.41957067 -0.081451587 0.0047440033)
(-0.42896414 -0.082307711 0.0049832211)
(-0.43838419 -0.083148932 0.0052239271)
(-0.44782881 -0.08397786 0.0054666641)
(-0.45729401 -0.084790985 0.0057096004)
(-0.46677643 -0.08559249 0.0059542561)
(-0.47627244 -0.086377389 0.0061977016)
(-0.48577734 -0.087151134 0.0064415535)
(-0.49528696 -0.087908028 0.0066819779)
(-0.50479678 -0.088652869 0.006920838)
(-0.51430108 -0.089382254 0.0071543737)
(-0.52379474 -0.090099971 0.0073827249)
(-0.53327344 -0.090802707 0.0076036665)
(-0.54273465 -0.091496575 0.007817127)
(-0.55216951 -0.092177409 0.0080215626)
(-0.56158046 -0.092850978 0.0082171365)
(-0.57095861 -0.093514919 0.008402929)
(-0.58030974 -0.094174795 0.0085794694)
(-0.58962719 -0.094829615 0.0087473664)
(-0.5989181 -0.095484474 0.0089086514)
(-0.60818347 -0.096137926 0.00906321)
(-0.61742731 -0.096799129 0.0092193918)
(-0.62666105 -0.097465989 0.0093698855)
(-5.9983337e-05 -0.0018014332 -0.0022638957)
(-0.00041679903 -0.0023348875 -0.0028372053)
(-0.0011059873 -0.0036415718 -0.0032518708)
(-0.0018449368 -0.0045776014 -0.0035634964)
(-0.0028968794 -0.0056486428 -0.0037096003)
(-0.0041255855 -0.0066926847 -0.0037833167)
(-0.0056512576 -0.0077550059 -0.0037993985)
(-0.0073515534 -0.0088333666 -0.0037764868)
(-0.0092867137 -0.0098794101 -0.0037467077)
(-0.011416891 -0.010970149 -0.0036657421)
(-0.013746767 -0.012015574 -0.0036069032)
(-0.016244218 -0.013090738 -0.0035233199)
(-0.018930218 -0.014133579 -0.00344104)
(-0.021784307 -0.015193612 -0.0033587533)
(-0.024798509 -0.016225026 -0.0032718839)
(-0.027970305 -0.01726627 -0.0031966264)
(-0.031313461 -0.018293721 -0.0031016019)
(-0.034797939 -0.019317569 -0.0030274192)
(-0.038444908 -0.02033114 -0.0029367631)
(-0.042245256 -0.021355932 -0.0028539805)
(-0.046199664 -0.022355581 -0.0027621322)
(-0.050300419 -0.023378005 -0.0026762325)
(-0.054564959 -0.024375314 -0.0025806042)
(-0.058973506 -0.025393506 -0.0024867517)
(-0.063540193 -0.026390417 -0.002388834)
(-0.068252006 -0.027409586 -0.0022893073)
(-0.073118978 -0.028405926 -0.0021880647)
(-0.078132386 -0.029420526 -0.0020872956)
(-0.083289387 -0.030419163 -0.0019832174)
(-0.088590603 -0.031428413 -0.001881585)
(-0.0940305 -0.03242413 -0.0017821509)
(-0.099603877 -0.033424693 -0.0016841301)
(-0.1053075 -0.034417126 -0.001585538)
(-0.11113538 -0.03540397 -0.0014952126)
(-0.11708939 -0.036387832 -0.0014026431)
(-0.12315715 -0.037365444 -0.001318051)
(-0.12934136 -0.038334543 -0.0012356842)
(-0.13563578 -0.039299691 -0.0011536464)
(-0.14203684 -0.040257738 -0.0010749105)
(-0.14854302 -0.041210097 -0.00099868838)
(-0.15515787 -0.0421585 -0.00091758372)
(-0.1618739 -0.043103301 -0.00083710716)
(-0.16869655 -0.044044448 -0.00075496143)
(-0.1756265 -0.044986076 -0.00066492836)
(-0.1826636 -0.045925904 -0.0005701517)
(-0.18981047 -0.046868951 -0.00046794759)
(-0.1970701 -0.047813114 -0.00035622017)
(-0.2044424 -0.048761269 -0.00023575032)
(-0.21193087 -0.049713405 -0.00010443598)
(-0.21953549 -0.050670812 3.7387998e-05)
(-0.22725786 -0.051632459 0.00019024989)
(-0.23509674 -0.05260029 0.00035352453)
(-0.24305251 -0.053571435 0.00052715214)
(-0.25112201 -0.054547856 0.00071016144)
(-0.25930384 -0.055526159 0.00090171134)
(-0.26759339 -0.056507336 0.0011007576)
(-0.2759875 -0.057487884 0.0013060419)
(-0.28448042 -0.058468587 0.0015165959)
(-0.29306777 -0.059445296 0.0017309516)
(-0.30174299 -0.060418955 0.0019484163)
(-0.31050152 -0.061385838 0.0021676965)
(-0.31933618 -0.06234624 0.0023885011)
(-0.32824245 -0.063297615 0.0026097551)
(-0.33721465 -0.064239677 0.0028310623)
(-0.34624635 -0.065170791 0.003053139)
(-0.35533563 -0.066095361 0.0032751506)
(-0.36446814 -0.066999332 0.0034925339)
(-0.37365374 -0.067896809 0.0037164252)
(-0.38288782 -0.068780723 0.0039398899)
(-0.3921589 -0.069655428 0.0041637027)
(-0.40146848 -0.070516139 0.0043878984)
(-0.41081164 -0.071367309 0.0046145084)
(-0.42018732 -0.072206261 0.0048411972)
(-0.42959289 -0.073035264 0.0050708142)
(-0.4390243 -0.073852718 0.0053010381)
(-0.44847965 -0.074661109 0.0055333636)
(-0.45795442 -0.075456675 0.0057653991)
(-0.4674463 -0.076244666 0.0059996942)
(-0.47695012 -0.077018967 0.0062318564)
(-0.48646277 -0.07778647 0.0064652666)
(-0.4959785 -0.078539237 0.0066943003)
(-0.50549382 -0.079285744 0.0069233828)
(-0.51500222 -0.080017652 0.00714568)
(-0.52449985 -0.080742002 0.0073677273)
(-0.53398101 -0.081456193 0.0075801224)
(-0.54344243 -0.08215941 0.007787338)
(-0.55287806 -0.082854378 0.0079860468)
(-0.56228793 -0.083539567 0.0081779021)
(-0.57166577 -0.084219761 0.0083608526)
(-0.58101404 -0.084891733 0.0085376328)
(-0.59033091 -0.085560159 0.0087052214)
(-0.59961749 -0.086226315 0.008870874)
(-0.60888141 -0.086888171 0.0090271052)
(-0.61811964 -0.087557417 0.0091896311)
(-0.62734817 -0.08822684 0.0093416413)
(0.00029116974 -0.0013595738 -0.0019734421)
(-5.0098057e-05 -0.0018473407 -0.0023419646)
(-0.00055853319 -0.002840845 -0.0027357074)
(-0.0013881189 -0.0036505391 -0.0029518448)
(-0.0024103128 -0.0045013255 -0.0030504596)
(-0.0037171149 -0.0054066784 -0.0030782491)
(-0.0052257725 -0.0062731236 -0.0030980618)
(-0.0069463448 -0.0071437058 -0.0030835719)
(-0.0089066861 -0.0080356613 -0.0030252246)
(-0.011041077 -0.0089061896 -0.0029846072)
(-0.013384607 -0.0097945427 -0.0029193223)
(-0.015890064 -0.010659486 -0.0028537289)
(-0.018604209 -0.011552144 -0.0027806293)
(-0.021449427 -0.012404567 -0.0027156651)
(-0.024489265 -0.013285379 -0.002643438)
(-0.027677259 -0.014142447 -0.0025666834)
(-0.031032206 -0.015007075 -0.0024960979)
(-0.034525508 -0.015860595 -0.0024243127)
(-0.038200179 -0.016719879 -0.0023450548)
(-0.042004874 -0.017572566 -0.0022666827)
(-0.045975924 -0.018423921 -0.0021915182)
(-0.050097516 -0.019282432 -0.002103757)
(-0.05437235 -0.020130914 -0.0020220876)
(-0.058796674 -0.020993156 -0.001933358)
(-0.063377972 -0.021843568 -0.0018463973)
(-0.068108834 -0.022710389 -0.0017514724)
(-0.072990132 -0.023564382 -0.0016634261)
(-0.078017364 -0.024434103 -0.0015673786)
(-0.083193985 -0.025292546 -0.0014766755)
(-0.088511417 -0.026163127 -0.0013837118)
(-0.093966292 -0.027022421 -0.0012954541)
(-0.099559823 -0.027892684 -0.0012032238)
(-0.10527945 -0.028750809 -0.0011207586)
(-0.11113064 -0.029615331 -0.0010363435)
(-0.11710036 -0.030471263 -0.00095657949)
(-0.12318731 -0.031325425 -0.00088043548)
(-0.12938585 -0.032176499 -0.00080384377)
(-0.13569642 -0.033020914 -0.00073231563)
(-0.14211507 -0.033864549 -0.00066000008)
(-0.14864318 -0.034702736 -0.00058624411)
(-0.1552721 -0.035539421 -0.00051332825)
(-0.16200909 -0.036372084 -0.00043835275)
(-0.16885012 -0.037204878 -0.00035703257)
(-0.17579761 -0.038035455 -0.00027211437)
(-0.18285208 -0.038868311 -0.00018101808)
(-0.19001748 -0.039702909 -8.1046921e-05)
(-0.19729333 -0.040539822 2.5585236e-05)
(-0.20468345 -0.04138183 0.00014285975)
(-0.2121885 -0.042228431 0.00026877863)
(-0.21981041 -0.043081187 0.00040564793)
(-0.22754897 -0.043939945 0.00055114278)
(-0.23540509 -0.044805896 0.00070764188)
(-0.24337693 -0.045677463 0.00087176749)
(-0.25146334 -0.046556335 0.0010455762)
(-0.25966132 -0.047439608 0.0012256909)
(-0.26796759 -0.048328651 0.0014132739)
(-0.27637786 -0.049220389 0.0016054786)
(-0.28488736 -0.050115296 0.0018029263)
(-0.29349077 -0.051010322 0.0020029862)
(-0.3021825 -0.051905933 0.0022065324)
(-0.31095674 -0.052798655 0.002411052)