/*--------------------------------*- C++ -*----------------------------------*\
  =========                 |
  \\      /  F ield         | OpenFOAM: The Open Source CFD Toolbox
   \\    /   O peration     | Website:  https://openfoam.org
    \\  /    A nd           | Version:  6
     \\/     M anipulation  |
\*---------------------------------------------------------------------------*/
FoamFile
{
    version     2.0;
    format      ascii;
    class       pointScalarField;
    location    "0.9";
    object      p;
}
// * * * * * * * * * * * * * * * * * * * * * * * * * * * * * * * * * * * * * //

dimensions      [1 -1 -2 0 0 0 0];

internalField   nonuniform List<scalar> 
625
(
1177081.1
-1769551.6
9265.0277
14945.939
2020459.1
-3556737.1
14067.911
4397.2887
846817.4
-110129.2
-209872.58
-9188.2284
7342.1247
10845.141
493247.93
550141.53
542029.97
549142.07
491033.91
484118.42
447767.67
414171.97
399602.12
355749.89
332735.63
304508.94
273306.75
245752.24
216390.74
188961.35
157961.14
134853.47
105105.05
80785.687
58811.247
34374.436
21569.136
-621096.19
-408243.82
-564434.07
-449121.54
-420637.53
-423901.46
-367536.99
-346536.55
-326021.83
-294138.97
-271359.57
-243391.7
-221954.77
-193565.61
-170173.04
-145722.49
-120999.55
-98937.62
-75345.144
-56965.111
-35961.858
-19788.249
-3769.985
1280470.2
-159844.96
-391836.31
-664210.11
-862271.08
-642480.72
-563801.54
-680231.87
-510155.33
-487531.15
-470340.15
-437343.93
-413715.49
-366756.91
-341659.75
-302370.34
-269243.82
-235568.48
-200184.59
-168281.32
-135533.83
-104515.44
-76079.361
-48810.248
-25994.3
-3073.1859
11632.312
5179.9246
-2275.4778
26056.327
38094.664
53187.056
75930.601
101370.76
126825.5
154855.94
183617.98
213066.28
244021.56
271837.48
308188.23
332694.21
366374.47
378887.42
450616.71
458816.83
479135.63
569393.02
519885.84
649009.74
532154.23
592201.59
1210649.5
1204300.7
1213920.9
-1967374.1
-1986428.6
-1991727.1
20768.278
21805.239
25292.302
-2469.4248
3606.8033
929.6072
308174.25
331982.84
344177.84
309552.32
292634.37
296333.46
263272.36
258919.53
233829.36
217832.01
204095.31
184286.32
165497.1
148374.46
130183.47
111231.06
94480.227
77803.694
59658.738
48680.501
33218.16
20705.788
14087.171
-66888.384
-54698.201
-72594.924
-34339.493
-52989.042
-38000.675
-35367.671
-26838.341
-26554.354
-19720.331
-17752.599
-14851.403
-11404.613
-7311.9636
-5690.9953
-2725.657
-208.12754
1439.5925
2708.7642
4576.8874
3594.2398
8509.1097
8386.6711
-411023.68
-343218.89
-317833.08
-275693.64
-314159.87
-248537.34
-247971.23
-225675.26
-204042.33
-185624.53
-168909.95
-150211.03
-132775.69
-116351.02
-100126.62
-83790.795
-68826.944
-53459.49
-40879.135
-25820.298
-16391.016
-8083.8523
2302.2282
813416.16
726827.26
734756.21
-136781.37
-94534.03
-165060.21
-109137.55
-188002.96
-336981.09
-949953.2
-943142.33
-1000069.7
-768424.16
-719374.19
-711793.58
-629474.86
-592351.85
-636600.94
-507090.23
-513344.89
-528109.16
-501819.4
-506211.1
-536063.01
-457408.65
-441863.66
-463838.61
-429697.62
-436162.89
-462627.26
-402408.25
-386610.75
-416642.12
-370846.13
-362965.84
-386538.81
-338201.17
-330167.63
-359193.27
-307007.64
-303454.24
-325625.56
-279844.26
-274076.32
-295151.75
-247783.46
-244578.84
-264822.87
-219044.44
-215753.1
-233553.7
-190559.68
-187608.86
-204144.11
-161829.6
-159640.29
-172991.31
-134560.91
-131623.09
-143711.56
-107558.73
-106198.27
-115562.94
-82657.388
-80013.343
-87073.563
-59200.179
-57644.241
-63079.555
-35598.529
-34753.754
-38299.184
-19149.042
-21185.742
-21870.626
-7412.7975
-2519.8025
-5532.6231
-13175.082
-13586.488
-14599.373
5091.6646
4538.2204
7442.0035
15031.147
17137.977
17309.242
664281.78
596589.89
620977.45
609001.76
568994.69
632090.97
649657.61
564549.28
585348.88
560429.64
501760.51
554793.94
547958.01
514533.64
520047.05
522855.81
449978.46
483627
480145.57
436366.57
462019.85
459549.69
403616.61
415880
421007
374374.99
395681.57
388034.38
344728.53
365339.16
361315.89
314585.07
328640.4
327262.48
285461.56
302261.35
293273.34
258323.47
269918.69
262666.89
230858.13
239794.52
229943.62
202937.65
210297.14
197662.63
175929.42
180762.31
167096.55
149390.74
152702.84
136961.51
123505.03
125123.48
105981.95
98275.401
98438.429
81231.816
73596.184
75905.417
56877.002
51223.659
52592.815
35746.737
35380.314
34738.915
27520.253
27528.338
29327.31
304847.66
394116.59
297432.76
336869.78
299760.79
285896.18
281058.16
241408.09
235309.8
209527.59
196504.9
172960.74
155177.34
139198.98
120820.72
105799.21
89242.752
74884.663
60860.906
46611.386
34771.015
22565.133
7175.715
-67335.827
9626.4576
-13470.328
25951.692
22654.48
22379.52
21057.091
25934.391
13431.027
23124.774
18849.512
18616.739
18519.75
17000.235
16976.274
16883.865
15788.131
16603.278
14417.113
14507.861
14418.46
11054.811
9363.4642
-221029.16
-213943.38
-328541.56
-303260.32
-296325.18
-313286.9
-275304.69
-269420.09
-239167.98
-227846.69
-210600.22
-190006.12
-173882.83
-154012.21
-136779.18
-117958.55
-99793.247
-81844.713
-65300.557
-47302.156
-33336.239
-16607.641
-9965.6512
390937.9
484678.27
404468.7
392454.79
413528.73
351612.09
277227.81
296284.4
333040.79
258597.56
342680.58
275778.19
302904.81
260805.94
273826.45
224836.77
273052.09
265238.6
234683.77
259778.2
230588.25
223110.48
228316.16
228098.88
198147.78
215223.51
214178.43
189218.65
206475.72
185169.83
171801.01
183344.22
176978.19
152715.33
169480.67
160014.94
143165.27
150982.01
144606.05
125906.66
133975.34
128942.31
110902.11
116691.31
113349.31
96064.595
101495.03
97468.851
82433.413
84361.732
82833.332
67248.197
69466.08
67449.082
54053.313
53602.655
54409.934
42785.226
43725.449
42200.798
28422.483
28871.36
27370.673
21975.854
19143.685
22625.499
7515.5747
3948.8645
4020.8738
-114872.06
-129936.88
-114525.37
-56693.308
-31909.277
-60865.062
-15432.338
-29846.221
-46026.357
-8267.494
-29740.051
-70188.591
-12299.589
-15462.186
-15570.908
-6855.6455
3260.3853
-42473.059
11700.199
-4856.1838
-28939.965
-7002.9325
7834.0706
-22876.024
11560.05
10414.583
-27923.083
11029.442
8540.6896
-17259.558
8466.449
11806.047
-17834.84
14210.077
16526.225
-14341.612
15016.783
15830.611
-11839.658
14819.982
16733.41
-8135.2175
15156.494
18811.254
-4990.9249
16276.969
18916.825
-2930.7011
15578.843
18118.4
385.01479
14590.85
18785.549
1583.7587
15608.249
15919.542
6036.2251
15177.957
15926.261
3612.9699
12796.536
7958.1872
7024.2574
11294.915
13518.024
8244.8552
11637.384
12254.065
12852.007
-396290.56
-444306.98
-503145.82
-288502.97
-233018.22
-359776.76
-274798.89
-402371.73
-379891.8
-359454.36
-303149.5
-349882.87
-272891.62
-318333.56
-330597.15
-262350.05
-304943.58
-317602.21
-259439.96
-278349.63
-293569.39
-224732.65
-262768.3
-289806.28
-206992.43
-248548.67
-259906.57
-196733.43
-225875.47
-240117.33
-173513.66
-205510.05
-221092.19
-156466.56
-186665.73
-199807.66
-139301.86
-170443.4
-179531.86
-123326
-149674.85
-158774.51
-105517.01
-131841.75
-138432.47
-90550.384
-113308.93
-119835.76
-74727.118
-95732.169
-99488.221
-60737.28
-77085.342
-81066.172
-45793.137
-61255.499
-63696.395
-34291.436
-44385.753
-45290.93
-23390.377
-30781.706
-30786.176
-8635.412
-11777.22
-8009.5201
-1690.6636
-7287.5239
-9180.3235
)
;

boundaryField
{
    free
    {
        type            calculated;
    }
    fixed
    {
        type            calculated;
    }
    traction
    {
        type            calculated;
    }
}


// ************************************************************************* //
