/*--------------------------------*- C++ -*----------------------------------*\
  =========                 |
  \\      /  F ield         | OpenFOAM: The Open Source CFD Toolbox
   \\    /   O peration     | Website:  https://openfoam.org
    \\  /    A nd           | Version:  6
     \\/     M anipulation  |
\*---------------------------------------------------------------------------*/
FoamFile
{
    version     2.0;
    format      ascii;
    class       pointScalarField;
    location    "0.78";
    object      E;
}
// * * * * * * * * * * * * * * * * * * * * * * * * * * * * * * * * * * * * * //

dimensions      [1 -1 -2 0 0 0 0];

internalField   nonuniform List<scalar> 
625
(
18061.034
11414.649
17196.555
15211.341
13724.211
14757.647
17646.779
18139.414
4569.2388
566.13598
5772.0861
17210.495
13826.347
16133.971
21110.725
15773.172
12577.193
10609.9
6595.9841
5314.8993
3127.638
1728.4057
1312.3248
358.1768
412.35874
649.34667
1330.1306
1933.3699
3121.5841
4229.158
5557.5283
7151.6086
8947.2
10393.788
13132.228
13689.896
16500.484
15915.016
7112.0582
12233.489
8356.2809
5680.0044
7269.2204
3232.1354
3964.2912
3508.5287
2622.7082
3551.92
3762.9246
4441.1904
5313.3792
6350.0792
7475.7426
8599.9909
10090.952
11388.266
12779.394
14593.343
15192.812
17056.593
3008.5933
690.63441
6932.5904
27513.366
29574.351
11746.586
14392.433
14689.71
4128.0989
7590.4054
4475.2258
4182.9548
4792.5002
4033.0617
5770.1978
6295.2801
7564.978
9066.5663
10012.452
11426.007
12545.34
13592.979
14596.432
15333.707
16067.668
17697.601
16835.565
13067.245
18961.605
18610.824
15241.96
14156.102
12219
10492.46
8661.7191
7054.0147
5512.8638
4208.6267
3155.2464
1983.2559
1774.3787
1135.4045
1508.6292
443.04581
1619.4929
3738.2852
4525.6973
6577.9452
7244.4566
12634.251
13766.337
19920.461
12572.384
12581.217
11829.839
9863.133
10035.191
10407.354
15098.907
16378.208
16146.844
16886.63
17876.806
17758.068
9794.4827
6701.8962
6243.3062
5046.3017
3429.4778
3315.7649
2160.1798
1883.2771
1648.9219
1446.4352
1851.8973
1937.2702
2343.1414
2857.0513
3569.333
4378.2424
5488.314
6573.102
8059.9842
9738.9587
11523.937
12462.617
17182.923
2687.2206
1978.1651
2557.2132
1504.7958
1861.5083
1858.2735
1062.9371
1773.186
1447.1342
1850.8325
2031.2667
2402.5966
2919.6684
3539.8432
4131.3937
4996.1593
5753.5551
6788.1283
8082.2956
8908.3573
10810.355
11791.459
17492.348
4295.6448
2760.1245
2396.6113
1276.2982
1685.6193
31.180978
665.03968
13.817427
-142.72083
80.801102
-59.268457
346.65531
619.1477
1123.7986
1722.9782
2690.515
3648.0144
5155.5486
6418.1075
8918.4485
10502.566
13704.978
17034.895
2604.8036
2804.8603
2242.5495
376.40093
354.0059
1017.9801
2752.1749
3416.6532
3702.5268
19739.423
22116.813
23981.774
21863.011
20596.444
21787.507
11948.055
9869
14397.429
10814.722
12872.952
11337.027
10534.873
7654.3382
11313.324
6660.0023
6986.1783
7211.7716
6492.3389
4984.8367
6955.6789
4806.1728
3238.8926
5359.2402
4205.1161
4253.9093
4471.7233
5006.1983
3299.317
5240.3009
4483.4015
4139.511
4789.0179
5636.693
4505.6323
5907.3274
6079.1952
5741.7877
7010.5849
7461.5952
6727.8746
7875.2803
8420.8338
7937.4439
9386.299
9549.6771
9234.7662
10456.824
10708.646
10394.672
11585.374
11777.467
11716.277
12777.266
12874.06
12885.513
13784.108
13781.717
14073.445
14626.103
14596.452
15030.044
15352.192
15145.589
15626.041
15896.266
16265.112
16704.345
17013.611
17673.597
18564.63
18186.956
13503.685
14286.507
13043.94
16980.774
17817.675
17189.358
20337.534
18179.552
16474.64
17351.995
14781.862
14488.426
15114.882
13011.732
13062.905
10284.462
8857.0365
8422.8075
8813.2974
7602.5363
7683.2444
5901.2017
4155.8112
5326.3901
3886.2976
3803.589
4068.7802
2972.6227
2002.414
2991.0953
2114.0392
1596.8861
2084.0622
1618.1818
651.49444
2622.947
1255.3789
1101.2991
2059.6603
2157.9752
969.24873
2959.4713
2385.175
1816.0784
3550.9318
3671.6633
2604.8529
4583.2985
4758.9292
3689.7897
5810.7047
5974.9418
4983.5019
7057.2118
7546.1011
6458.0212
8467.1127
8943.7608
8094.8601
9977.0713
10706.686
10030.397
11406.657
11989.908
11784.729
12806.492
14087.69
14031.114
14415.72
14711.507
14468.537
14869.649
17192.109
17325.823
17759.24
11462.277
9454.0113
6940.271
6366.6789
5252.9314
3208.7903
3453.1202
1870.5018
1876.9672
1323.8611
1536.5067
1531.6452
1707.9202
2134.4358
2850.0732
3704.6476
4822.5823
6199.4511
7793.0273
9801.0085
12354.947
14174.898
19467.458
1673.6311
6011.8314
1052.3698
4068.8643
2452.3234
2878.9296
2983.836
2696.7618
3430.2349
3201.9076
3855.7913
4434.8088
4872.1609
5933.5861
6858.5967
7919.335
9235.7369
10527.284
11983.304
13302.39
14958.59
14771.836
21266.009
9226.8494
2315.8998
4534.1141
2088.4372
2215.4376
1865.4105
-13.260497
1232.3925
-909.45816
284.82243
-502.43764
-90.316729
160.50274
638.84493
1470.6161
2540.1643
3873.9826
5525.3301
7511.0884
9972.0484
12471.802
15593.875
18615.829
11716.221
9917.6187
9248.8348
9847.9372
9333.7372
8299.8469
7849.4209
7274.2885
6532.3519
6314.2054
5764.4255
5055.9891
5531.1056
4872.3047
4985.4201
4200.207
3852.5118
3132.5665
3436.0123
3121.2683
3191.4792
2950.4109
2732.1353
2431.071
2534.0563
1956.6084
2194.2572
2349.9181
2312.4464
2322.9468
2598.0869
2146.5502
2216.8631
2480.5902
2265.0989
2792.9761
3069.9257
2716.1917
3116.0812
3521.1718
3164.054
3673.8355
4240.6037
3744.7094
4386.4284
5057.7206
4709.7575
5299.1958
6161.3185
5690.4887
6225.3298
7206.0166
6950.3442
7385.4676
8727.2617
8319.1949
8713.6887
9544.2714
10387.305
9965.7017
10901.397
12790.259
11836.727
13391.549
13075.654
12680.493
17314.186
17751.06
18056.836
2588.5026
2352.5625
1826.4826
4466.1797
6088.1209
5857.0761
2326.3104
922.89002
1193.3613
2708.6137
3554.8769
3498.2462
2857.9655
1731.2266
1698.9604
2440.0906
1844.794
2020.3434
2189.1162
1858.8027
1817.4762
2826.6933
1773.1964
1519.189
2274.1784
1874.3335
2013.3139
3000.6407
2343.3772
2063.2911
3230.3196
2424.9601
2483.0481
3679.3861
3080.3642
3086.0411
4333.3089
3794.3826
3547.7944
4956.1389
4357.9009
4213.6294
5769.952
5320.4559
5105.3791
6629.1964
6167.994
5897.1065
7613.3578
7232.4258
6920.3342
8648.8897
8264.9915
8015.6227
9984.9787
9730.7613
9327.6159
11333.259
10506.159
10439.426
13831.893
11008.241
12800.878
13309.739
13084.61
12733.84
18339.467
18915.056
19310.662
5624.9543
6831.8307
7935.7542
2331.9526
2132.7179
4192.3366
2475.3995
4960.4534
5464.098
2680.0299
1804.1929
3083.5355
1185.6658
2298.5591
3043.6053
1131.4313
1052.4702
2246.9152
1369.6086
505.54766
1464.4937
212.34585
197.54546
1853.3953
900.1701
-93.903922
1136.3491
827.76176
-248.6282
1406.7947
844.04435
-302.36052
1485.8458
1441.4566
-56.045836
1686.4575
1794.7165
28.815405
2211.2232
2530.8949
621.78329
2825.4481
3348.363
1241.8074
3644.0107
4416.6172
2238.5686
4762.4701
5574.2282
3432.9495
5975.62
7038.575
4984.5966
7498.8866
8553.8087
6647.7351
9022.4034
10374.802
9153.3821
11105.876
12287.823
11237.358
12861.618
14590.507
14767.209
15991.178
17618.933
17099.463
17960.172
)
;

boundaryField
{
    free
    {
        type            zeroGradient;
    }
    fixed
    {
        type            zeroGradient;
    }
    freeTop
    {
        type            zeroGradient;
    }
}


// ************************************************************************* //
