/*--------------------------------*- C++ -*----------------------------------*\
  =========                 |
  \\      /  F ield         | OpenFOAM: The Open Source CFD Toolbox
   \\    /   O peration     | Website:  https://openfoam.org
    \\  /    A nd           | Version:  6
     \\/     M anipulation  |
\*---------------------------------------------------------------------------*/
FoamFile
{
    version     2.0;
    format      ascii;
    class       pointVectorField;
    location    "0.78";
    object      u;
}
// * * * * * * * * * * * * * * * * * * * * * * * * * * * * * * * * * * * * * //

dimensions      [0 1 0 0 0 0 0];

internalField   nonuniform List<vector> 
625
(
(0 1.4979426e-19 0)
(0 1.3480282e-19 0)
(0.9819598 0.025172451 0.080574463)
(0.9633826 -0.16657988 0.078684065)
(0 1.9423218e-19 0)
(0 1.0541622e-18 0)
(0.96207458 -0.18313136 0.07861438)
(0.98067851 0.0086925037 0.080459932)
(0 -2.2770168e-20 0)
(1.0469339e-19 -2.431842e-19 0)
(0 4.9750393e-19 0)
(0.977349 -0.022687759 0.080130982)
(0.97271227 -0.070648716 0.079668262)
(0.96804138 -0.11864851 0.079167407)
(0.0053773399 0.014711643 0.013077769)
(0.016609312 0.029039312 0.013343482)
(0.034894816 0.04237397 0.015089749)
(0.060626189 0.053998701 0.015805559)
(0.0899494 0.063331852 0.017531155)
(0.12580902 0.070961198 0.019243102)
(0.16413975 0.076469849 0.021470742)
(0.20635327 0.080018676 0.023702802)
(0.25104448 0.08227145 0.02646474)
(0.29762794 0.08246793 0.029046222)
(0.34575798 0.081753737 0.031981635)
(0.39494747 0.07971351 0.034980286)
(0.44473136 0.076753637 0.038140655)
(0.49477148 0.073061401 0.041425482)
(0.54486906 0.068787103 0.044848209)
(0.59471542 0.064114798 0.048433241)
(0.64426143 0.059226114 0.052113879)
(0.69337442 0.05415803 0.055989299)
(0.74211338 0.049154041 0.059894285)
(0.79042299 0.044171427 0.063996515)
(0.83847815 0.039282627 0.068102029)
(0.88633909 0.034497464 0.072265094)
(0.93409394 0.029843395 0.076450901)
(-0.0019492081 -0.0097805215 -0.015253825)
(0.011369982 -0.020568143 -0.0098400718)
(0.029197326 -0.033055712 -0.0096287678)
(0.052768461 -0.043890894 -0.0053890018)
(0.08064766 -0.052987007 -0.0021812178)
(0.11500484 -0.064367255 0.0020810544)
(0.15108508 -0.072389433 0.005739816)
(0.19186513 -0.081491535 0.010321318)
(0.23487195 -0.089805229 0.014434644)
(0.28021943 -0.09706372 0.019034201)
(0.32738852 -0.1044291 0.023458324)
(0.37571296 -0.11081462 0.02799833)
(0.4250403 -0.11685645 0.032488726)
(0.474757 -0.12234871 0.036947725)
(0.52475694 -0.12739752 0.041389763)
(0.57464944 -0.13208265 0.045742155)
(0.62435179 -0.136495 0.050068426)
(0.67369356 -0.14068811 0.054286458)
(0.72266945 -0.14483604 0.058493322)
(0.77122911 -0.14891182 0.062568945)
(0.81952834 -0.15314037 0.066677458)
(0.86753073 -0.15742028 0.070672832)
(0.91546161 -0.16192863 0.074696262)
(0 1.3600757e-19 0)
(-1.8586078e-18 -3.9990981e-19 0)
(0 1.0135601e-18 0)
(0.0034149719 -0.0076869551 0.011029537)
(0.01420463 -0.031523639 0.013840281)
(0.032344324 -0.037708472 0.012197369)
(0.05440146 -0.051807415 0.01233805)
(0.084157887 -0.065804083 0.01489959)
(0.11629241 -0.074253613 0.014856427)
(0.15316112 -0.085727064 0.017628464)
(0.19338691 -0.094989399 0.019309342)
(0.2361275 -0.10379894 0.021912087)
(0.281475 -0.11221336 0.02463415)
(0.32816745 -0.11929236 0.027433568)
(0.37649487 -0.12647782 0.030631109)
(0.42545185 -0.13248931 0.033882845)
(0.4750309 -0.13825639 0.037375355)
(0.5247728 -0.14347472 0.041046882)
(0.57444238 -0.14823188 0.044863022)
(0.62392047 -0.15277205 0.048841537)
(0.67304927 -0.15703903 0.052948624)
(0.72181175 -0.16123489 0.057156631)
(0.77023161 -0.16538518 0.061432761)
(0.8183499 -0.16961777 0.065756243)
(0.86629796 -0.1739762 0.070081838)
(0.91416858 -0.17845601 0.074359131)
(0.96674866 -0.13523802 0.079071209)
(0.97146592 -0.087159603 0.07949795)
(0.97605154 -0.039175724 0.079954313)
(0.93280726 0.013345588 0.076364519)
(0.88503474 0.018022798 0.072291573)
(0.83726454 0.022779566 0.068300019)
(0.78932031 0.027715821 0.064280548)
(0.74112633 0.032732783 0.060284645)
(0.69259282 0.037824729 0.05623727)
(0.64364521 0.042945806 0.052148397)
(0.59430548 0.047933365 0.048003794)
(0.54463749 0.052735382 0.043783132)
(0.49473393 0.057158075 0.039492448)
(0.44481766 0.061052623 0.03512257)
(0.39519062 0.064272482 0.03069848)
(0.34604443 0.066670517 0.026182141)
(0.29793768 0.067930412 0.021688806)
(0.25148681 0.067909607 0.017239261)
(0.20656919 0.066681972 0.012676571)
(0.16450727 0.064199898 0.0081650163)
(0.12535025 0.059426336 0.0041305897)
(0.090595043 0.053419292 -0.00023908853)
(0.059637872 0.045154285 -0.0035558443)
(0.03423551 0.036485663 -0.0073190181)
(0.015284814 0.023326462 -0.010019618)
(0.0070006261 0.012827536 -0.0085756267)
(0 -2.4285268e-19 0)
(0 -2.5324451e-19 -5.2234212e-19)
(0 -7.4637148e-19 0)
(0 4.3882229e-19 0)
(0 -4.8554844e-20 1.5481876e-19)
(0 3.3423248e-19 0)
(0.9630854 -0.17063133 0.078683755)
(0.96273564 -0.17474556 0.07864633)
(0.96242193 -0.17886937 0.078631051)
(0.98159992 0.021041154 0.080533623)
(0.98127486 0.016933168 0.080505987)
(0.98097146 0.012813268 0.080499193)
(-0.00087627604 0.0082889673 0.0095597633)
(0.011137748 0.016363567 0.0076226143)
(0.029538798 0.023533808 0.0096329959)
(0.054718214 0.029208745 0.010603631)
(0.084465051 0.033961811 0.012722546)
(0.12006442 0.037034753 0.014990166)
(0.15832196 0.038729129 0.017429511)
(0.20067072 0.039377621 0.020352165)
(0.24513112 0.038785935 0.023253026)
(0.29182645 0.037089314 0.02643679)
(0.34010095 0.034804766 0.029704594)
(0.38932572 0.031559784 0.033121949)
(0.43923701 0.027918525 0.036620578)
(0.48944558 0.023800568 0.040210258)
(0.53967 0.019402561 0.043930226)
(0.58967362 0.014817821 0.047700369)
(0.63935658 0.010104137 0.051592079)
(0.68857838 0.0053680734 0.055548087)
(0.7374011 0.00065089109 0.059554036)
(0.78575434 -0.0040859947 0.06367134)
(0.83386835 -0.0087409402 0.06773889)
(0.88172061 -0.013390037 0.071895397)
(0.92948425 -0.018020169 0.076016338)
(-0.0038462486 0.0024322308 0.0011512278)
(0.0094666967 0.0034823069 0.0012247996)
(0.026939917 0.0051703285 0.0031897389)
(0.051769847 0.0059517592 0.0054723793)
(0.08183524 0.0051957751 0.0079363274)
(0.11634834 0.0041748842 0.010743276)
(0.15469966 0.0024353807 0.013776195)
(0.19658924 -0.00032338223 0.017161629)
(0.24071851 -0.0033369787 0.020531476)
(0.28734913 -0.0070704652 0.024132738)
(0.33523557 -0.011031419 0.027791348)
(0.38439231 -0.015389649 0.031556233)
(0.43421335 -0.019905272 0.035360817)
(0.48438055 -0.024533982 0.03924965)
(0.53460053 -0.029247038 0.043174241)
(0.58464187 -0.033940965 0.047132353)
(0.63436847 -0.03862214 0.051152044)
(0.68365518 -0.043240918 0.055168438)
(0.73254405 -0.047833411 0.059241919)
(0.78096753 -0.05238856 0.063318951)
(0.82913919 -0.056914931 0.067385697)
(0.87702165 -0.061439618 0.071505426)
(0.92482132 -0.066012318 0.075574756)
(-0.0052710824 -0.0033043446 -0.0044321035)
(0.0088867613 -0.0070429197 -0.0036086954)
(0.025328333 -0.010711624 -0.0021225324)
(0.050944099 -0.016232127 0.00052445084)
(0.079995375 -0.02208111 0.0031961542)
(0.11419591 -0.026727772 0.0064195914)
(0.15236615 -0.03325948 0.010094902)
(0.19342135 -0.038707644 0.01366881)
(0.23737758 -0.044538229 0.017519917)
(0.28348313 -0.050538306 0.021569846)
(0.33110788 -0.056111919 0.025564476)
(0.38005709 -0.061889724 0.029731906)
(0.42963578 -0.067285316 0.033857243)
(0.47969227 -0.07258586 0.03803684)
(0.52979489 -0.077663647 0.042204484)
(0.57980867 -0.08251945 0.046376462)
(0.62949337 -0.087235071 0.050539653)
(0.6788127 -0.09178331 0.054683106)
(0.72768812 -0.09625034 0.058813405)
(0.77618042 -0.1006639 0.06292762)
(0.82434823 -0.10506993 0.067002355)
(0.87227437 -0.10950444 0.071095603)
(0.92013016 -0.1140373 0.075137829)
(0 -1.5387832e-19 0)
(0 2.5424028e-19 5.3327962e-19)
(0 5.5392066e-19 0)
(-2.7755205e-19 5.5419116e-21 0)
(1.1592715e-19 -1.717686e-19 -8.555267e-21)
(-7.3056581e-19 -6.5702468e-19 0)
(0 2.4992846e-19 0)
(0 6.7168898e-19 -1.786397e-20)
(0 7.3968197e-19 0)
(0.0045607648 -0.0043974042 -0.0069173797)
(0.0066552918 -0.0063062155 -0.0015460597)
(0.006450029 -0.0045759365 0.0033061787)
(0.018967916 -0.02646436 -0.0045642464)
(0.018924167 -0.027615086 0.00040820416)
(0.018815075 -0.027116004 0.007406946)
(0.033826341 -0.034396505 -0.0041186973)
(0.035880252 -0.034585858 0.00090922579)
(0.036405894 -0.039008311 0.0075237845)
(0.056996483 -0.04674197 -0.00045063613)
(0.058752794 -0.049856727 0.0036393074)
(0.057766648 -0.049960248 0.0083234457)
(0.085513842 -0.05797529 0.0019604061)
(0.086569131 -0.059621229 0.0053327931)
(0.086785173 -0.063301999 0.010495552)
(0.11757857 -0.06753155 0.0052680618)
(0.11902386 -0.07030392 0.0087720444)
(0.11878497 -0.07275542 0.012150734)
(0.15423954 -0.076984601 0.0090004251)
(0.15530703 -0.080307057 0.011116253)
(0.15525552 -0.083529852 0.014942289)
(0.19417228 -0.086005995 0.012538993)
(0.19502416 -0.088650624 0.014603285)
(0.19513449 -0.092337373 0.017255757)
(0.23670296 -0.093877432 0.016502692)
(0.23755838 -0.097605277 0.018095678)
(0.23733814 -0.10089983 0.020296988)
(0.28184594 -0.10187112 0.020456591)
(0.28232744 -0.10519034 0.021612885)
(0.28250226 -0.10902517 0.02334758)
(0.32838496 -0.10864464 0.024522109)
(0.32896403 -0.11234167 0.025401762)
(0.32890913 -0.11611864 0.026612912)
(0.37660298 -0.1153332 0.028725723)
(0.3768798 -0.11904811 0.029201556)
(0.37695943 -0.1228908 0.030041172)
(0.42547726 -0.12114273 0.032850616)
(0.425746 -0.12492672 0.033084769)
(0.42579369 -0.12894547 0.033629511)
(0.47504312 -0.12667016 0.037090489)
(0.47514862 -0.1305336 0.037125253)
(0.47517638 -0.13447061 0.037318336)
(0.52477915 -0.13162237 0.041311254)
(0.52480453 -0.13551331 0.041117781)
(0.52484686 -0.13959553 0.041146551)
(0.57452814 -0.136283 0.0455101)
(0.57447803 -0.14024612 0.045245505)
(0.57446524 -0.14427145 0.045100776)
(0.62410125 -0.14064121 0.049747295)
(0.62396242 -0.14460889 0.049389484)
(0.62391941 -0.14868183 0.049135423)
(0.67336267 -0.14480504 0.053930553)
(0.67316615 -0.14883044 0.053550138)
(0.67308112 -0.15290983 0.053267504)
(0.72227438 -0.14891377 0.058122162)
(0.72202986 -0.15295931 0.057762894)
(0.72189421 -0.15703167 0.057464343)
(0.77085503 -0.15299852 0.0622632)
(0.77057249 -0.15707486 0.061956649)
(0.77037512 -0.1611617 0.06169749)
(0.81911705 -0.15718372 0.066413834)
(0.8187918 -0.1612649 0.066167642)
(0.81856918 -0.16535878 0.065953378)
(0.86716793 -0.1614863 0.070505734)
(0.86686253 -0.16562645 0.070337662)
(0.86658493 -0.1697333 0.070207788)
(0.91513002 -0.16599423 0.074610426)
(0.91479489 -0.17010407 0.07451584)
(0.91448631 -0.17422057 0.074439572)
(0.97698286 -0.026807863 0.080081684)
(0.97664778 -0.030922683 0.080034477)
(0.976351 -0.035048776 0.080008636)
(0.97236959 -0.0747555 0.079622209)
(0.97204952 -0.07886041 0.079568403)
(0.97172715 -0.082996611 0.079543571)
(0.96774648 -0.12274104 0.079140808)
(0.96739057 -0.12684771 0.079113444)
(0.96708784 -0.13101074 0.079087617)
(0.011443296 0.012312241 0.0064697792)
(0.010646502 0.012805966 0.0019777192)
(0.011788519 0.011869281 -0.0030990024)
(0.021109206 0.026642218 0.0069334387)
(0.021768309 0.026078134 0.00063206124)
(0.020435407 0.024888002 -0.0049849277)
(0.040368214 0.041374962 0.0088532514)
(0.040062155 0.039280292 0.0039919191)
(0.039893338 0.038475597 -0.0026127431)
(0.064104897 0.050894635 0.010103688)
(0.064868587 0.049239939 0.0057322702)
(0.063889875 0.047432449 0.00026416276)
(0.094151979 0.061170985 0.012815432)
(0.094751095 0.058751334 0.0080989814)
(0.093967557 0.056633421 0.0036985603)
(0.12890059 0.067829583 0.014826287)
(0.12904722 0.064678612 0.011624316)
(0.12873244 0.062579673 0.0072536251)
(0.16696054 0.073175217 0.017680061)
(0.16753153 0.070461044 0.014506687)
(0.16714625 0.067503513 0.010970742)
(0.2088726 0.076835185 0.020600206)
(0.20925279 0.073299497 0.01798007)
(0.20884557 0.070353585 0.014922615)
(0.25289353 0.078717358 0.023777818)
(0.25336798 0.07507807 0.021379469)
(0.25295608 0.071874497 0.01918596)
(0.29928803 0.078995571 0.026941644)
(0.29955474 0.075238997 0.025458198)
(0.29945503 0.071800707 0.023219644)
(0.34704969 0.078107854 0.030287353)
(0.34729659 0.074289276 0.02879903)
(0.34700806 0.070657665 0.027321205)
(0.39590118 0.076067629 0.033678069)
(0.39597251 0.07207118 0.032736164)
(0.39589886 0.068386056 0.031568013)
(0.44531595 0.073041621 0.037236847)
(0.44543793 0.069044902 0.036484448)
(0.44527963 0.065201318 0.035692765)
(0.49515103 0.069338404 0.040779942)
(0.49511386 0.06525627 0.040357359)
(0.49499226 0.061335501 0.0398462)
(0.54494997 0.065007005 0.044500512)
(0.54488938 0.060886468 0.044232891)
(0.54475765 0.056918773 0.043960527)
(0.59463238 0.060288839 0.048219534)
(0.59449335 0.056157021 0.04813993)
(0.59433774 0.052130439 0.048037463)
(0.64400866 0.055331402 0.052091571)
(0.64381739 0.05117175 0.052090952)
(0.64364411 0.047118749 0.052108851)
(0.69303511 0.050227428 0.055990109)
(0.69279411 0.04608579 0.056053489)
(0.69258382 0.042013594 0.056144952)
(0.74167593 0.045147523 0.059982965)
(0.74139519 0.040985007 0.060089377)
(0.74117407 0.03687875 0.06018933)
(0.78997914 0.040111613 0.064057146)
(0.78969353 0.035975225 0.064105006)
(0.78941803 0.031874089 0.064205773)
(0.83805611 0.03517338 0.068141253)
(0.8377332 0.031027614 0.068193622)
(0.83744048 0.026926769 0.068259283)
(0.88593162 0.030371159 0.072254834)
(0.88559913 0.026277327 0.072288542)
(0.88529374 0.022159494 0.072295716)
(0.93374707 0.025701096 0.076421402)
(0.93340714 0.021593389 0.076421797)
(0.93310912 0.017480557 0.076391737)
(-0.00025400442 0.0034855194 -0.0052279429)
(0.011346611 0.014247178 -0.0043547334)
(0.028634407 0.015414588 -0.0011183591)
(0.054927839 0.020914017 0.00068383623)
(0.084780548 0.023565288 0.0038503185)
(0.11999384 0.025079894 0.0073040514)
(0.1589079 0.026105891 0.010860932)
(0.2008675 0.025441175 0.014707158)
(0.24556058 0.024449983 0.018565611)
(0.29219712 0.022109423 0.022656289)
(0.34030728 0.019462453 0.02665309)
(0.38949806 0.015862819 0.030794498)
(0.43929139 0.012022639 0.034904792)
(0.48933083 0.007731464 0.039004721)
(0.53941413 0.0031876644 0.043131077)
(0.58924192 -0.001482263 0.047209703)
(0.63873376 -0.0062635019 0.051314084)
(0.68780598 -0.011052851 0.055386284)
(0.73644217 -0.015815977 0.059474075)
(0.78469165 -0.02054483 0.063542536)
(0.83267797 -0.025233432 0.067646945)
(0.88043737 -0.029854404 0.071742659)
(0.92819467 -0.034516358 0.075845663)
(-0.003266238 0.0018037931 0.0010752549)
(0.0091663994 0.00097188138 0.001146611)
(0.028263806 -0.0019068017 0.0034290081)
(0.053533138 -0.0020937854 0.0046712709)
(0.082754377 -0.0043754792 0.0069030059)
(0.11795326 -0.0074683414 0.010130835)
(0.15592084 -0.0097865276 0.012685426)
(0.19779159 -0.013651389 0.016157248)
(0.24194009 -0.017334336 0.019540612)
(0.28826696 -0.021635213 0.02316089)
(0.33604833 -0.025980426 0.026803387)
(0.38510349 -0.030787862 0.030649032)
(0.4346282 -0.035477036 0.034467208)
(0.48462944 -0.040421648 0.038430271)
(0.53460174 -0.045229922 0.042380372)
(0.58439959 -0.05011764 0.046425123)
(0.63389097 -0.054880437 0.050494132)
(0.68297198 -0.059601137 0.054580022)
(0.73162862 -0.064252101 0.058728109)
(0.77992418 -0.06882885 0.062853623)
(0.82793258 -0.073406628 0.067036154)
(0.8757326 -0.077932318 0.071164679)
(0.92354066 -0.082500566 0.075350112)
(-0.004739331 -0.0051451563 0.0054729403)
(0.01112861 -0.0085227049 0.0061689252)
(0.028622891 -0.020267817 0.0094419257)
(0.052315471 -0.022524251 0.0085846673)
(0.08204229 -0.032052172 0.011739657)
(0.11625865 -0.038490993 0.013322722)
(0.15358413 -0.04480722 0.01559286)
(0.19516416 -0.052439469 0.018460733)
(0.23845439 -0.058355692 0.021202424)
(0.28462019 -0.065169359 0.024310207)
(0.33194486 -0.071247326 0.027552751)
(0.38067237 -0.077274599 0.030903091)
(0.43004641 -0.083086263 0.034474165)
(0.47985751 -0.088519614 0.038075474)
(0.52975063 -0.093823194 0.041871481)
(0.57950254 -0.0988276 0.045736957)
(0.62898973 -0.10363273 0.049720145)
(0.67806818 -0.10827427 0.053776634)
(0.72677584 -0.11279783 0.0579294)
(0.77509652 -0.1172348 0.06210764)
(0.82313516 -0.1216624 0.066351533)
(0.87101061 -0.12609059 0.070590913)
(0.91881951 -0.13059387 0.074845184)
(0.0029912324 0.0037007957 0.0043516285)
(0.0027338408 0.0040539571 0.0014360823)
(0.0039551952 0.0032950569 -0.0020502776)
(0.015902953 0.015623127 0.0038846752)
(0.017375358 0.014658165 0.00082689358)
(0.015671218 0.013870925 -0.0026869568)
(0.034364161 0.020865946 0.0059017269)
(0.033687601 0.019510617 0.0031889247)
(0.033707667 0.018201066 0.00082442012)
(0.058452406 0.027192149 0.0075695117)
(0.059684148 0.025486015 0.0049020405)
(0.058860497 0.022836757 0.0026485117)
(0.088557155 0.031277586 0.0095490495)
(0.088964965 0.028593466 0.0077897379)
(0.088574721 0.026348835 0.0054527996)
(0.1230803 0.033800191 0.012515496)
(0.12374366 0.031403318 0.010649404)
(0.12303833 0.028415559 0.008791016)
(0.1612099 0.035531657 0.015268512)
(0.16172195 0.032680043 0.0137079)
(0.1615141 0.029368534 0.01216601)
(0.2029227 0.036049828 0.018413766)
(0.20359444 0.032489367 0.017131442)
(0.20306837 0.02918368 0.015839256)
(0.24715786 0.034955754 0.021733651)
(0.24746155 0.031740688 0.020785966)
(0.24726004 0.028219442 0.019564446)
(0.29341423 0.033501515 0.02518085)
(0.2938116 0.029969639 0.024269345)
(0.2936102 0.026075731 0.02338929)
(0.34130498 0.030999183 0.028702829)
(0.34154009 0.027215422 0.028044968)
(0.34131809 0.023456548 0.027366581)
(0.39016977 0.02773733 0.032359983)
(0.39036202 0.023984573 0.031872065)
(0.39026905 0.020067403 0.031293974)
(0.43981633 0.02409763 0.036051547)
(0.43992969 0.020196876 0.035656055)
(0.43980951 0.01621101 0.035309053)
(0.48975757 0.019922482 0.039814865)
(0.4897678 0.015991269 0.039598919)
(0.48966917 0.011957899 0.039317512)
(0.53974301 0.015499518 0.043658256)
(0.53969721 0.011486874 0.043492705)
(0.53959919 0.0074433269 0.043336942)
(0.58959066 0.010854168 0.047540422)
(0.5894673 0.0068519771 0.047470222)
(0.58934461 0.0027622342 0.047370846)
(0.63910508 0.0061248473 0.051499824)
(0.63892853 0.002069888 0.051459408)
(0.63879062 -0.0020278679 0.051417812)
(0.68825838 0.0013308501 0.055494282)
(0.68802747 -0.0027280952 0.055487009)
(0.68784122 -0.0068348763 0.055463059)
(0.73698808 -0.0034205677 0.059540659)
(0.73671579 -0.0074955714 0.059541723)
(0.73652485 -0.011631336 0.059532843)
(0.78534199 -0.0081963272 0.063638898)
(0.78505389 -0.012280044 0.063619738)
(0.78480049 -0.016382376 0.063594234)
(0.83345701 -0.012873338 0.067724516)
(0.8331515 -0.016942075 0.067700035)
(0.83285465 -0.021080245 0.067697014)
(0.88132272 -0.017532336 0.071871619)
(0.88097699 -0.021609368 0.071837825)
(0.88067906 -0.025759745 0.071787471)
(0.92912037 -0.022151054 0.075982895)
(0.92878674 -0.02625042 0.075934511)
(0.928486 -0.030389226 0.075888886)
(-0.00051508329 0.0013305801 -1.9415042e-05)
(0.00053997647 0.0017199764 -0.00034348747)
(0.0015316373 0.0013525792 -8.067773e-05)
(0.013350221 0.0027468725 -0.00025948545)
(0.014382284 0.0024213096 -0.00022066979)
(0.012505508 0.0012394899 0.00020320101)
(0.031668292 0.0035218379 0.0023576805)
(0.032224044 0.0018100437 0.0033935933)
(0.03204635 0.00037225545 0.0027750396)
(0.055358815 0.0031715164 0.0039865477)
(0.057478668 0.00087420299 0.0044356567)
(0.056271347 -0.001761566 0.0041808625)
(0.085585632 0.0025977353 0.0070566045)
(0.086571401 -0.00011463839 0.0079437975)
(0.085514169 -0.0019945818 0.0066096016)
(0.11942928 0.00096646512 0.0099225495)
(0.12054578 -0.0021852307 0.010007961)
(0.11994922 -0.0049638113 0.0097600329)
(0.15739736 -0.00081919903 0.012804705)
(0.15846302 -0.0043236856 0.01346493)
(0.15770267 -0.0074993364 0.012517571)
(0.19892327 -0.00401305 0.016561691)
(0.19966874 -0.0076397851 0.01680262)
(0.1990927 -0.010460616 0.016061371)
(0.24258823 -0.0069865096 0.019869797)
(0.243317 -0.010645654 0.019940761)
(0.24290969 -0.014292106 0.019396849)
(0.28887461 -0.010733671 0.023582012)
(0.28940618 -0.014790537 0.023792978)
(0.28904505 -0.018175196 0.023224071)
(0.3364223 -0.014923826 0.027327238)
(0.3368177 -0.018841833 0.0274042)
(0.33655394 -0.022590185 0.026792835)
(0.3852647 -0.01922687 0.031136739)
(0.3855553 -0.023291536 0.031145878)
(0.38538284 -0.027008529 0.030703731)
(0.43481357 -0.023800131 0.03501519)
(0.43499341 -0.027830687 0.035031196)
(0.43480998 -0.03177755 0.034548691)
(0.48469313 -0.028454065 0.038939819)
(0.48476288 -0.03260867 0.038877255)
(0.48463461 -0.036489793 0.038498643)
(0.5347181 -0.033195568 0.042918553)
(0.53469969 -0.037270482 0.042843818)
(0.53458105 -0.041284285 0.042486353)
(0.58456535 -0.037901181 0.046905314)
(0.58446583 -0.042038318 0.046812491)
(0.58434227 -0.046046963 0.046514314)
(0.63415223 -0.04260771 0.05096334)
(0.63398498 -0.046718727 0.050849741)
(0.63383608 -0.050800007 0.050586654)
(0.68335013 -0.047254978 0.055007008)
(0.68311687 -0.051392349 0.05488826)
(0.68296256 -0.055447236 0.054674885)
(0.7321428 -0.051875576 0.059107307)
(0.73188538 -0.055972966 0.05899349)
(0.7316835 -0.060090381 0.058814067)
(0.78057613 -0.056438454 0.063205624)
(0.78028037 -0.060566413 0.063080874)
(0.78004541 -0.064651638 0.0629307)
(0.82872316 -0.060972874 0.067300325)
(0.8283866 -0.065114931 0.067183226)
(0.82814482 -0.069196522 0.067119623)
(0.87660637 -0.06554461 0.071413108)
(0.87629751 -0.069622752 0.071334971)
(0.87599543 -0.073780066 0.07123034)
(0.92447477 -0.070096326 0.075530654)
(0.92414242 -0.074200403 0.075465845)
(0.92384541 -0.078329116 0.075418741)
(-0.00061666123 -0.0029741542 -0.0020455414)
(-0.00096128036 -0.002752261 -5.2732655e-05)
(-0.000786374 -0.0027404784 0.0024446515)
(0.014782156 -0.0076812909 -0.0016613284)
(0.015989453 -0.0063593381 0.0011786673)
(0.014891026 -0.0083886373 0.0036788234)
(0.030669562 -0.013333703 3.5694329e-05)
(0.031848039 -0.017077911 0.0029279959)
(0.032397155 -0.018171529 0.005940957)
(0.055920505 -0.019994293 0.0021403931)
(0.056397865 -0.020214365 0.0044233285)
(0.056511434 -0.022665816 0.0064323234)
(0.08409346 -0.024881617 0.0050608222)
(0.085175222 -0.028223684 0.0071529096)
(0.085295293 -0.030137667 0.0090323373)
(0.1180096 -0.03112722 0.0075849448)
(0.11870938 -0.033719766 0.0093643829)
(0.11880706 -0.036578096 0.010878381)
(0.15547278 -0.037328297 0.011257215)
(0.15588097 -0.040216133 0.012890586)
(0.15627781 -0.042910182 0.014003675)
(0.19602814 -0.042840661 0.014598618)
(0.19664971 -0.046341477 0.015544757)
(0.19684929 -0.049578848 0.016650816)
(0.23960073 -0.049010622 0.018156713)
(0.23986401 -0.052363425 0.019260423)
(0.24023968 -0.055748838 0.02009114)
(0.28517191 -0.054891646 0.02211489)
(0.28553577 -0.058541084 0.022782892)
(0.28574944 -0.062051253 0.023280185)
(0.33241567 -0.060550413 0.025892468)
(0.33260289 -0.064319254 0.026351182)
(0.33294676 -0.068002443 0.026809091)
(0.38098866 -0.066264241 0.029911932)
(0.38114829 -0.070063362 0.030236022)
(0.38135491 -0.073803553 0.030434648)
(0.43023504 -0.071615872 0.03390555)
(0.43027578 -0.075578399 0.034029239)
(0.43054419 -0.079456713 0.034114564)
(0.48001012 -0.076902206 0.037975311)
(0.48001392 -0.080851218 0.037971073)
(0.48017124 -0.084744767 0.037963524)
(0.52989165 -0.081907051 0.042054704)
(0.52980018 -0.085913758 0.041970687)
(0.52996684 -0.089901527 0.041847444)
(0.57969997 -0.086738834 0.046175854)
(0.57958075 -0.090773024 0.046002016)
(0.57963593 -0.094803281 0.045823006)
(0.62926438 -0.091408797 0.050302652)
(0.62906087 -0.095458498 0.05008735)
(0.62909177 -0.099528169 0.049884139)
(0.67846759 -0.095928822 0.054436728)
(0.67825457 -0.10000598 0.054216059)
(0.6781882 -0.10408875 0.053980544)
(0.72730724 -0.10037476 0.058583674)
(0.72702675 -0.10443229 0.058355008)
(0.72690531 -0.10856133 0.05813599)
(0.77577055 -0.10476346 0.06272545)
(0.77549701 -0.10886741 0.062517276)
(0.77529583 -0.11299065 0.062322525)
(0.82393294 -0.10915903 0.066834095)
(0.82361675 -0.11323266 0.066675372)
(0.82335901 -0.11736874 0.066524713)
(0.87190528 -0.11359757 0.0709769)
(0.87159296 -0.11769805 0.070854394)
(0.87131803 -0.12184216 0.070744021)
(0.9197883 -0.11808821 0.075076687)
(0.9194598 -0.12220708 0.074991708)
(0.91913439 -0.12637185 0.074912416)
)
;

boundaryField
{
    free
    {
        type            calculated;
    }
    fixed
    {
        type            calculated;
    }
    freeTop
    {
        type            calculated;
    }
}


// ************************************************************************* //
