/*--------------------------------*- C++ -*----------------------------------*\
  =========                 |
  \\      /  F ield         | OpenFOAM: The Open Source CFD Toolbox
   \\    /   O peration     | Website:  https://openfoam.org
    \\  /    A nd           | Version:  6
     \\/     M anipulation  |
\*---------------------------------------------------------------------------*/
FoamFile
{
    version     2.0;
    format      ascii;
    class       pointScalarField;
    location    "0.94";
    object      E;
}
// * * * * * * * * * * * * * * * * * * * * * * * * * * * * * * * * * * * * * //

dimensions      [1 -1 -2 0 0 0 0];

internalField   nonuniform List<scalar> 
625
(
64912.847
71941.275
-973163.64
-442668.13
65261.08
68309.062
-665693.94
-1449685.7
20243.695
8292.545
43322.483
-524693.09
-511983.1
-381036.55
89458.054
80871.077
75383.395
69394.159
59614.916
52336.905
44348.565
36406.312
30081.732
23463.328
18444.593
13083.338
8809.1805
5244.1033
2217.1101
-394.01675
-1575.6878
-3165.7442
-3653.7376
-4766.5553
-5171.9869
-6202.0461
-4504.221
81543.744
57450.412
62208.121
52489.28
45993.765
40066.77
30253.231
25801.317
19697.202
13943.929
10952.108
6068.3086
3606.9474
814.29732
-1042.722
-2841.6042
-3697.9289
-4833.3186
-4439.3014
-6153.7884
-4054.9364
-5731.7582
-4347.9473
18672.414
5252.1152
37127.16
119685.7
123297.25
85158.297
93288.302
81753.078
54825.061
58222.4
41636.69
38380.235
30725.049
22327.122
17769.793
10951.653
6742.6225
2439.8235
-1123.9121
-3879.1328
-6213.4352
-8371.8895
-9679.3682
-10852.397
-11963.021
-17653.274
-995143.56
-1098579.7
-1065452.4
-12145.517
-11080.654
-8481.1286
-8806.1298
-8709.7577
-8329.4119
-8140.1613
-6670.5182
-5250.52
-2373.2518
132.9875
5220.2803
9253.4171
17132.77
23420.667
27920.322
39720.543
46737.248
58482.327
65790.545
78843.215
81035.788
92338.314
57701.17
57499.905
58705.139
54701.496
53897.004
56077.105
-499149.25
-499187.1
-500775.92
-1091320.4
-1092931.9
-1093723.9
38706.867
31256.192
32001.701
27656.64
24528.328
21425.885
17908.394
14608.919
12589.374
9520.8911
7357.7184
5216.2253
3450.4219
2275.1996
723.38503
72.273197
-775.47925
-1484.5311
-1031.1821
-1826.0227
-822.15925
-606.5399
2885.7313
12613.09
9898.87
12979.586
10888.5
11086.402
11765.344
9583.3864
10661.976
8970.4166
8505.692
8289.8602
7433.7902
6938.5134
6220.3634
5485.6238
4928.7811
4299.8574
3779.5361
3376.4215
2111.5432
3675.8813
990.3021
6074.8617
27168.013
25441.766
24495.16
21199.682
20732.229
18415.022
15218.598
13971.438
10862.132
9973.4929
7050.0072
6003.0288
4288.5962
3277.2553
2085.1642
1681.6242
678.47776
826.20059
-246.41393
1065.6855
-617.78395
1407.0393
2542.5008
13423.609
14220.338
13538.578
4538.1127
3883.9827
6252.7433
19568.419
21480.802
22145.944
96135.435
97139.321
106064.33
107958.5
104622.19
103651.84
76437.578
71971.523
77534.307
72679.22
78526.751
79565.276
62583.598
57443.159
64722.604
53441.245
51727.674
53680.27
46163.401
44178.662
52535.041
38532.494
31743.165
38716.982
32642.602
28293.932
34261.797
28060.685
19177.531
26668.825
21305.837
14897.279
20939.526
17484.476
9887.3279
15978.316
12705.029
5267.5551
11316.671
9405.6145
2052.6822
7370.9951
6247.6831
-1141.3939
4048.3021
3654.4346
-3330.307
1243.0444
1418.2796
-5130.4842
-1113.5812
-352.78207
-6506.5683
-2955.8818
-1921.126
-7282.0684
-4527.6353
-3661.7934
-8477.1272
-6127.1734
-4300.7019
-8112.6948
-6636.8075
-5293.5509
-8135.5415
-7519.5533
-8761.6315
-10790.09
-9140.7559
-706874.61
-704986.88
-705831.57
-626349.48
-688451.16
-688602.83
-719444.47
-664696.83
-665315.51
90045.367
79735.006
80082.928
88560.713
83407.921
86678.512
81576.228
74551.194
72959.916
72312.093
65254.602
66239.707
61893.853
59598.618
57456.371
53855.551
48597.296
47184.073
45610.395
42294.204
41177.1
38822.514
34311.928
33525.045
31167.014
27461.006
25539.302
23394.418
22759.124
19464.413
19357.218
17029.952
14480.729
13650.878
11515.099
9609.9699
9190.1372
7665.1842
5894.3786
5702.4595
4199.909
2557.127
2244.6619
1226.904
110.13072
1.7825235
-799.91791
-1922.7747
-1794.0107
-2537.4271
-3175.6354
-3070.0591
-3544.4736
-4236.0448
-3858.4435
-4057.2291
-4595.7045
-4297.4563
-4552.9278
-5064.7694
-4436.0994
-5089.9633
-5214.7786
-8943.7446
-8560.0874
-8068.0355
-8962.9554
-10708.93
-10766.599
58060.324
54857.176
50856.549
44254.493
42290.549
34269.053
32186.069
26965.556
21002.906
20140.166
16015.443
12336.555
9896.4875
7451.5089
5279.5135
3641.9245
1918.3536
979.22954
-398.71059
-1023.8932
-1143.7528
-1094.3112
3280.475
7509.7735
25182.058
8245.6109
17056.873
12411.866
10230.767
11583.613
8561.9757
9396.4621
7405.3746
7263.3373
6187.8919
5869.5229
5351.4932
4852.9336
4529.4054
4301.974
4167.5784
4029.1752
4186.3856
4795.3766
2503.1523
7560.5386
42470.763
20349.865
25346.714
29455.613
21596.82
22846.143
19414.806
17333.355
12552.908
10604.559
8313.2792
5914.6823
4294.7404
2627.9619
1306.4497
352.0892
-300.88632
-808.83688
-891.06424
-570.76407
-1125.3605
1155.095
-708.22245
49041.931
44331.515
44588.163
45149.52
45576.17
43816.916
41541.325
41601.755
39238.174
36877.25
34716.101
34476.205
33450.949
33454.223
31766.336
29538.767
27155.823
26307.829
26274.633
24962.458
23560.744
22236.918
21292.39
19623.104
18951.413
17791.71
16408.633
16251.33
14275.637
13480.691
13567.125
12261.857
11210.521
10951.494
9855.1509
8411.0017
8729.5737
7722.704
6555.2312
6832.76
5754.2722
4772.9726
4867.608
4181.6464
3355.148
3746.5472
2861.4877
2004.5597
1967.1907
1511.6302
1073.7203
1376.1286
801.18921
17.929072
157.0411
-493.47259
-378.66874
-1054.3785
-1358.3866
-1520.9503
-7.1292267
-971.94236
-855.29656
-236.22679
585.39204
-222.05423
4346.5941
2472.4837
3643.3673
11068.125
9962.4352
7526.2645
18019.736
24253.116
23824.155
11537.483
9077.6313
8183.6227
12411.497
14851.006
15763.31
11230.092
10787.858
11370.917
11382.592
9206.0976
9714.7797
8965.2553
9175.6689
10499.061
9546.9148
7018.8579
7289.3048
8204.6383
6332.6882
8106.7597
7505.4199
5737.207
6502.1567
6847.665
4883.2107
5904.9814
5956.2847
4211.9261
5095.8866
5546.6844
3525.8077
4309.5394
4822.46
2964.0231
3785.1736
4393.5393
2499.4655
3148.6707
3901.2161
2230.1782
2716.7859
3533.3778
1876.326
2204.2597
3317.2663
1787.3387
2093.5538
2949.086
1891.4426
1818.3883
2491.2283
1997.1405
1651.9086
4233.9801
1962.0258
3366.9447
1050.464
682.27738
-616.93237
5918.6094
4868.3023
5054.7502
31417.233
33430.968
36673.791
25010.952
26542.215
32089.627
23782.148
31389.291
31318.442
22837.531
27452.379
29639.167
19577.025
25596.358
25811.014
15456.126
23021.135
24485.799
13892.249
19141.233
19143.891
9704.839
16964.711
18862.458
7543.1114
14680.326
15152.741
5326.3719
12223.441
12792.593
3406.1934
9684.5191
10239.709
2139.561
7894.0112
8283.0157
471.79455
6136.6073
6428.4552
-318.34249
4696.3475
4842.4717
-1221.4128
3375.9286
3745.0954
-1581.6225
2686.0855
2596.6114
-1916.8437
1367.6252
1853.9068
-1940.9069
1658.4571
1684.586
-1934.1156
248.86502
701.2451
-1153.5
1873.3201
1876.9065
-2506.0483
-638.97537
-392.39673
-311.65612
2331.0153
2964.8068
139.27407
551.9899
-422.59089
)
;

boundaryField
{
    free
    {
        type            zeroGradient;
    }
    fixed
    {
        type            zeroGradient;
    }
    traction
    {
        type            zeroGradient;
    }
}


// ************************************************************************* //
