/*--------------------------------*- C++ -*----------------------------------*\
  =========                 |
  \\      /  F ield         | OpenFOAM: The Open Source CFD Toolbox
   \\    /   O peration     | Website:  https://openfoam.org
    \\  /    A nd           | Version:  6
     \\/     M anipulation  |
\*---------------------------------------------------------------------------*/
FoamFile
{
    version     2.0;
    format      ascii;
    class       pointVectorField;
    location    "1.34";
    object      lm;
}
// * * * * * * * * * * * * * * * * * * * * * * * * * * * * * * * * * * * * * //

dimensions      [1 -2 -1 0 0 0 0];

internalField   nonuniform List<vector> 
28033
(
(-1.780536e-14 4.8656612e-16 1.3104288e-15)
(-5.4375576e-15 3.3318594e-15 9.9433006e-16)
(-1111.7982 -1171.0475 -46.326582)
(-1476.6136 -401.03805 -102.07576)
(-1.338461e-14 3.0090723e-15 -2.870051e-16)
(-1.2587315e-14 4.9008913e-15 -4.4266115e-15)
(-1454.7563 -424.85615 -58.215832)
(-1087.0838 -1201.6962 -90.539517)
(-5.6329745e-15 1.0535579e-15 6.7193838e-16)
(-2.4534443e-15 3.0423504e-16 5.8836893e-16)
(-5.4923298e-15 2.4302826e-15 8.9528572e-16)
(-2.6209443e-15 -1.1537891e-15 -6.7979696e-16)
(-7.2548563e-15 1.5542294e-15 1.0013199e-15)
(-4.7613589e-15 -9.2108094e-16 -7.3952737e-16)
(-1.132389e-15 -2.2256662e-17 -6.4484848e-16)
(-7.4239857e-16 -2.4218299e-16 -3.6669977e-16)
(-1.1196198e-15 4.5550132e-16 8.383863e-16)
(-2.3465882e-16 2.2667819e-16 1.4996246e-15)
(-4.0583243e-15 -8.7236639e-16 -1.3429605e-15)
(-5.8237189e-15 8.4462789e-16 7.5519031e-16)
(-5.1611762e-15 1.0100276e-15 9.7613867e-16)
(-1.7679952e-15 -8.1010255e-16 4.5192313e-16)
(-4.4158752e-15 1.0299569e-15 -9.452958e-16)
(-1133.9003 -1125.1155 -53.191334)
(-1154.8031 -1078.5812 -59.178034)
(-1175.6331 -1032.0871 -65.503043)
(-1196.1573 -984.88554 -70.580582)
(-1216.1605 -938.14623 -75.790216)
(-1236.6497 -891.46055 -80.233878)
(-1257.1761 -844.79554 -84.309371)
(-1278.7752 -798.10261 -88.081332)
(-1300.9318 -751.03846 -90.819118)
(-1324.3694 -703.20995 -93.215767)
(-1348.909 -654.66992 -94.833825)
(-1373.9965 -605.38963 -95.760112)
(-1400.3478 -555.28892 -97.594724)
(-1426.5442 -504.24169 -98.662498)
(-1452.239 -452.55303 -100.1641)
(31.576824 62.3808 56.705702)
(39.149188 87.308925 81.54779)
(54.893782 105.51876 95.361381)
(73.718445 128.31931 104.58694)
(98.065807 145.39229 107.27569)
(126.49716 164.31076 106.00399)
(160.77491 180.38369 99.96389)
(198.89494 196.02416 90.698425)
(241.5948 209.58583 78.017374)
(287.32079 221.94999 62.572575)
(335.27516 231.9193 45.067866)
(384.1454 240.64847 26.527336)
(433.11351 246.89766 7.2337597)
(480.54093 251.58767 -11.599509)
(525.48118 253.80175 -29.185754)
(566.5184 254.43825 -44.686456)
(603.15095 252.76383 -57.794172)
(634.30028 249.61299 -67.664673)
(659.96691 244.47142 -73.962368)
(679.40013 238.0946 -76.656552)
(693.03303 230.01737 -75.80849)
(701.12376 221.29764 -71.357958)
(704.06745 211.36681 -64.093021)
(702.79443 201.00594 -54.196319)
(698.18772 190.4103 -42.460734)
(691.13057 179.54478 -29.764868)
(682.82443 169.09969 -16.701556)
(674.2269 158.82756 -4.2052811)
(666.22623 149.26949 7.1778849)
(659.99881 140.50688 16.443028)
(655.73322 132.23755 23.347224)
(654.18624 124.97378 27.56055)
(655.57942 118.24413 28.643365)
(660.00811 112.39962 26.909494)
(667.00903 106.82609 21.894238)
(676.24736 101.46092 14.546923)
(687.29112 96.013063 5.1504762)
(699.23282 90.436622 -5.8691174)
(711.19225 83.790499 -17.847247)
(722.50131 76.355584 -29.94317)
(731.8559 67.604578 -41.603847)
(738.72501 57.167878 -52.086742)
(742.0298 44.930315 -60.749547)
(741.1556 30.668293 -67.035829)
(735.43909 14.328115 -70.604406)
(724.4749 -4.1269305 -71.149405)
(708.04078 -24.553841 -68.573515)
(686.07326 -46.806018 -62.914945)
(658.78003 -70.573021 -54.417445)
(626.49815 -95.508756 -43.431398)
(589.81243 -121.15908 -30.485179)
(549.43496 -147.03488 -16.194456)
(506.25068 -172.59881 -1.2815001)
(461.23072 -197.30231 13.489393)
(415.43341 -220.6176 27.331758)
(369.92501 -242.04613 39.480758)
(325.7638 -261.17539 49.236477)
(283.92696 -277.67814 55.995457)
(245.28246 -291.36233 59.283449)
(210.53656 -302.16533 58.796686)
(180.20794 -310.20438 54.394197)
(154.57258 -315.71903 46.144145)
(133.72999 -319.16465 34.30688)
(117.39509 -321.07046 19.261984)
(105.29839 -322.18373 1.6697716)
(96.602422 -323.27868 -17.659614)
(90.627112 -324.99836 -38.286444)
(86.489983 -328.69933 -58.892955)
(82.687245 -334.67279 -79.10007)
(78.357417 -343.89912 -97.506713)
(72.059462 -356.9297 -113.45325)
(62.966765 -374.37974 -126.71491)
(49.942655 -396.37716 -136.57207)
(32.116914 -423.11067 -142.7534)
(8.8417748 -454.48277 -145.10105)
(-20.368362 -490.18042 -143.72279)
(-55.67654 -529.767 -138.84198)
(-97.076879 -572.48616 -130.92556)
(-144.28159 -617.69385 -120.48182)
(-196.68352 -664.40866 -108.23583)
(-253.64323 -711.6881 -94.906333)
(-314.27253 -758.69144 -81.213123)
(-377.53858 -804.4634 -67.978224)
(-442.30076 -848.33954 -55.742841)
(-507.89998 -889.68127 -45.159131)
(-573.00764 -927.73496 -36.60789)
(-637.06367 -962.5575 -30.442019)
(-699.0722 -993.79094 -26.55715)
(-758.77774 -1021.88 -25.122915)
(-815.95401 -1046.7498 -25.34281)
(-870.27962 -1069.4849 -27.797214)
(-921.86639 -1090.0802 -30.467133)
(-972.10907 -1109.4479 -34.94911)
(-1019.073 -1129.2665 -38.1992)
(-1065.5408 -1149.3537 -42.818205)
(9.9263656 -28.509139 -41.342393)
(36.303805 -43.339923 -30.085003)
(54.840729 -63.03847 -37.613204)
(76.322448 -74.479434 -32.486014)
(107.01218 -90.020643 -27.765595)
(139.69783 -102.33447 -21.148801)
(176.63578 -112.28039 -13.693197)
(216.81137 -119.84949 -5.8847108)
(259.71813 -124.05426 1.9621916)
(303.89944 -124.84783 9.4900901)
(349.02302 -121.88767 16.488252)
(393.93458 -115.18824 22.740388)
(437.45029 -104.87916 28.33365)
(479.12878 -91.075917 32.844602)
(517.66962 -74.285104 36.530551)
(552.83516 -54.809275 39.322732)
(583.74541 -33.360757 41.182498)
(610.10159 -10.632009 42.311594)
(631.85415 12.916339 42.860713)
(648.9413 36.274556 42.821514)
(661.39847 59.104701 42.281599)
(669.82853 80.645081 41.824295)
(674.49139 100.37787 40.844019)
(676.1491 118.17437 40.200482)
(675.34653 133.42266 39.61712)
(672.80351 146.24612 39.056632)
(669.13089 156.66909 38.914019)
(665.09241 164.73853 38.874063)
(661.00945 170.96689 39.137532)
(657.54279 175.47222 39.604352)
(654.75446 179.1254 40.225894)
(652.99119 181.88904 41.001648)
(651.9878 184.76706 41.795594)
(651.88203 187.97927 42.626502)
(652.14663 192.08648 43.464423)
(652.70005 197.45246 44.172872)
(652.82363 204.35238 45.049825)
(652.10018 212.98109 45.825728)
(649.91415 223.22331 46.527545)
(645.66382 235.18578 47.227547)
(638.86795 248.49444 47.917896)
(629.04558 262.84628 48.633448)
(615.72312 277.7634 49.293803)
(598.64676 292.71381 49.906454)
(577.5722 307.08537 50.362449)
(552.47008 320.25934 50.598989)
(523.38455 331.60355 50.482118)
(490.54666 340.53681 49.895506)
(454.28253 346.533 48.689653)
(415.08032 349.17321 46.735292)
(373.50276 348.15077 43.898269)
(330.23571 343.30842 40.08439)
(286.00569 334.63595 35.221474)
(241.59679 322.29215 29.296167)
(197.79091 306.58968 22.341648)
(155.3571 287.99657 14.460833)
(115.00131 267.11367 5.8140802)
(77.356631 244.65004 -3.3688577)
(42.932674 221.39576 -12.808023)
(12.108063 198.17898 -22.173872)
(-14.901958 175.83361 -31.113037)
(-38.053707 155.14312 -39.253541)
(-57.49324 136.82116 -46.253753)
(-73.547112 121.43874 -51.784145)
(-86.733417 109.43145 -55.609203)
(-97.703549 101.0156 -57.541191)
(-107.30604 96.261955 -57.517348)
(-116.51515 94.912184 -55.579449)
(-126.20614 96.80377 -51.960002)
(-137.60801 101.13144 -46.727129)
(-151.7035 107.08666 -40.483446)
(-169.4005 114.10985 -33.605518)
(-191.55978 121.06558 -26.571999)
(-218.87251 127.04828 -19.933778)
(-251.85002 131.10259 -14.224472)
(-290.74793 132.36573 -9.9116763)
(-335.59098 130.08367 -7.3901931)
(-386.16159 123.67334 -6.9630502)
(-442.02577 112.73435 -8.8093141)
(-502.52351 97.074242 -12.965653)
(-566.82744 76.741929 -19.32934)
(-634.00343 51.962485 -27.665784)
(-703.04442 23.189041 -37.622291)
(-772.90951 -8.9811618 -48.738521)
(-842.63536 -43.798868 -60.483507)
(-911.3139 -80.453201 -72.276226)
(-978.20757 -118.06909 -83.527794)
(-1042.7314 -155.81384 -93.674358)
(-1104.5173 -192.89347 -102.1986)
(-1163.4091 -228.65381 -108.70116)
(-1219.4866 -262.55479 -112.88265)
(-1273.0431 -294.31411 -114.59028)
(-1324.6159 -323.73625 -113.95969)
(-1374.9175 -351.07487 -111.17414)
(-1425.2757 -376.63231 -106.7639)
(3.2927448e-15 -1.3239155e-15 2.3845803e-16)
(2.4470133e-15 -9.6672015e-16 3.215493e-17)
(-9.0574249e-15 9.0550918e-16 6.4029168e-16)
(-1.2642219e-16 -5.721845e-16 4.4370095e-16)
(-7.6811722e-15 -4.9270561e-16 4.1193361e-16)
(-7.3893964e-15 2.7533729e-15 -1.0951501e-15)
(-3.2915852e-15 -8.1743692e-16 3.8364228e-16)
(-1.9032499e-15 5.3200654e-16 -8.2319016e-17)
(-4.7409759e-15 -4.8623412e-16 4.3918642e-16)
(-1.2869644e-14 1.1845665e-15 6.4228907e-16)
(-9.6157521e-15 1.4157374e-15 5.9836601e-16)
(-9.4077204e-15 4.9518432e-16 1.1192419e-15)
(-5.982767e-15 2.6210694e-16 3.0473736e-16)
(-1.1478475e-14 -5.3386198e-16 1.6580808e-15)
(-5.257323e-15 3.6289085e-16 2.8600704e-16)
(30.622654 -18.766862 40.745781)
(53.820757 -71.966817 53.842113)
(69.287681 -75.455585 57.432087)
(99.34545 -105.04239 64.871464)
(125.63335 -117.69753 64.892667)
(160.84248 -133.5145 62.487768)
(197.83132 -144.72495 57.6627)
(240.25301 -154.39982 51.167232)
(284.64362 -158.96465 41.260548)
(331.98641 -161.69165 30.844486)
(380.73527 -161.18451 18.442996)
(429.66997 -155.47574 5.6901797)
(478.00739 -149.6141 -7.9471187)
(524.68637 -138.15958 -20.563527)
(568.22314 -127.07862 -32.957101)
(608.30095 -112.67142 -43.283408)
(644.22796 -97.14678 -51.743983)
(673.76148 -81.536151 -58.367183)
(699.77573 -65.46939 -61.569151)
(717.78437 -49.487207 -62.394702)
(732.33625 -35.130706 -60.476231)
(740.774 -21.261354 -55.714878)
(744.62593 -8.7651991 -48.798789)
(744.07921 2.2260524 -40.004088)
(740.79225 11.167214 -29.719066)
(734.42086 19.624951 -18.90718)
(727.1903 25.096239 -8.1106061)
(718.87008 31.658131 2.505301)
(710.84284 35.54393 11.226167)
(703.8159 40.601008 18.769555)
(697.89858 44.734342 23.729928)
(693.63529 49.74281 26.213525)
(691.37246 55.177302 25.803268)
(690.75242 61.721655 22.563239)
(692.24552 68.883441 16.868879)
(693.88753 78.858034 8.2021888)
(697.50445 88.28753 -2.5347569)
(700.32944 99.76825 -14.694028)
(702.53798 112.09917 -27.887693)
(703.11616 125.24223 -41.462516)
(701.27383 138.74809 -54.696628)
(696.20523 152.29283 -66.954688)
(687.23921 165.39493 -77.580749)
(673.76291 177.64931 -86.071474)
(655.37991 188.57726 -91.960705)
(631.81615 197.78949 -94.97249)
(603.0458 204.89227 -94.936193)
(569.21555 209.59333 -91.872348)
(530.70503 211.64844 -85.93364)
(488.07886 210.92425 -77.444083)
(442.08745 207.37047 -66.848825)
(393.62917 201.04666 -54.71617)
(343.71555 192.11252 -41.697592)
(293.43323 180.82274 -28.495419)
(243.88245 167.53093 -15.837315)
(196.14929 152.65519 -4.4225297)
(151.22696 136.69268 5.0920679)
(109.99447 120.16514 12.149595)
(73.15159 103.63094 16.298885)
(41.191338 87.630552 17.239443)
(14.370571 72.687441 14.821465)
(-7.3173855 59.258451 9.0695615)
(-24.14248 47.737515 0.17298305)
(-36.634852 38.403418 -11.511485)
(-45.573808 31.43939 -25.485401)
(-51.9858 26.869937 -41.140616)
(-56.991421 24.756881 -57.677388)
(-61.648699 23.782837 -74.301655)
(-68.169149 27.136523 -90.054646)
(-76.871759 28.694786 -105.35132)
(-89.346639 32.8985 -117.65437)
(-107.18178 36.554428 -127.50016)
(-130.78683 40.058044 -134.11801)
(-161.12499 42.348983 -137.25811)
(-198.51483 42.973969 -136.85199)
(-243.02831 41.34329 -132.97295)
(-294.46312 36.996455 -125.9082)
(-352.27102 29.58994 -116.13389)
(-415.64593 18.886451 -104.23815)
(-483.5673 4.790777 -90.937077)
(-554.84569 -12.654967 -76.993786)
(-628.20733 -33.289742 -63.189991)
(-702.3606 -56.821095 -50.264446)
(-776.07209 -82.876022 -38.877402)
(-848.23382 -110.98648 -29.558078)
(-917.92488 -140.65896 -22.689202)
(-984.45509 -171.35111 -18.471196)
(-1047.3973 -202.5619 -16.923084)
(-1106.6082 -233.77818 -17.885328)
(-1162.2142 -264.58986 -21.02834)
(-1214.6067 -294.5918 -25.904062)
(-1264.4095 -323.5215 -31.964173)
(-1312.3695 -351.10993 -38.626731)
(-1359.5742 -377.21583 -45.441695)
(-1406.6346 -401.85599 -51.836159)
(-1432.5137 -472.59324 -61.809601)
(-1409.1554 -521.94005 -64.58782)
(-1384.4869 -570.37905 -66.905084)
(-1360.6784 -618.72389 -69.26731)
(-1335.5129 -666.11264 -71.241735)
(-1312.2973 -713.6002 -73.34756)
(-1287.8903 -760.11979 -75.108502)
(-1265.2323 -807.4745 -76.927031)
(-1243.0932 -854.72709 -78.448177)
(-1220.393 -902.6012 -79.932599)
(-1198.6363 -951.15127 -80.803616)
(-1176.9261 -1000.8902 -82.437901)
(-1155.4479 -1051.0618 -82.988197)
(-1132.4766 -1102.122 -85.146294)
(-1110.3948 -1152.2338 -87.211815)
(-1037.5935 -1178.0904 -92.690234)
(-988.32034 -1155.576 -94.839107)
(-938.00623 -1133.2338 -95.327981)
(-885.24085 -1111.0861 -94.551545)
(-829.09208 -1088.3025 -90.763571)
(-769.91588 -1064.6478 -85.063966)
(-707.54143 -1039.719 -77.175976)
(-642.24177 -1013.0602 -67.432927)
(-574.71323 -984.44323 -56.344662)
(-505.75302 -953.71249 -44.307714)
(-436.32048 -920.65473 -32.047017)
(-367.58302 -885.5873 -19.952536)
(-300.7063 -848.36359 -8.7838754)
(-236.72904 -809.58792 1.229131)
(-176.71222 -769.47905 9.4587581)
(-121.77341 -728.69251 15.587614)
(-72.634 -687.81295 19.250803)
(-29.789441 -647.45469 20.486688)
(6.5257622 -608.29963 19.319361)
(36.323329 -570.95812 15.924743)
(59.921907 -536.04792 10.608434)
(77.902964 -504.06708 3.7618344)
(91.040625 -475.43146 -4.1593605)
(100.35851 -450.49811 -12.653588)
(106.80179 -429.24878 -21.333239)
(111.98691 -411.78286 -29.35374)
(116.83836 -398.81294 -36.445575)
(122.47975 -388.00815 -42.787077)
(129.36731 -380.9466 -47.448141)
(139.93988 -376.33379 -50.041525)
(153.74858 -373.61355 -50.946345)
(171.77109 -372.28588 -49.879688)
(194.19531 -371.62698 -47.026553)
(221.0908 -370.9842 -42.498783)
(252.27397 -369.73697 -36.545138)
(287.35072 -367.30757 -29.439006)
(325.72558 -363.20518 -21.492582)
(366.6551 -357.03061 -13.032563)
(409.27964 -348.49598 -4.3693609)
(452.67612 -337.42386 4.2066908)
(495.89559 -323.76254 12.455165)
(538.01736 -307.56875 20.179828)
(578.17763 -289.01877 27.251769)
(615.61325 -268.38097 33.589633)
(649.67846 -246.02211 39.17863)
(679.87204 -222.36632 44.031565)
(705.83474 -197.91149 48.216881)
(727.37681 -173.16033 51.802087)
(744.43931 -148.66034 54.881751)
(757.10495 -124.90985 57.529442)
(765.6369 -102.39256 59.829447)
(770.29047 -81.583204 61.837762)
(771.57517 -62.689663 63.555083)
(769.90043 -46.176652 65.095509)
(765.85323 -32.089288 66.284693)
(760.10386 -20.393678 67.303043)
(753.25391 -11.151528 68.012641)
(745.46003 -4.6490028 68.333488)
(737.41046 1.6344488 68.218416)
(730.06157 4.6003424 68.097227)
(723.33095 6.8995001 67.862971)
(717.64534 9.7137901 66.997207)
(713.2731 10.840899 66.331069)
(710.35614 13.295273 65.678627)
(708.25064 16.750698 65.082017)
(708.12428 20.984721 64.784726)
(707.74726 27.445446 64.373032)
(708.9579 34.91732 64.73666)
(709.33858 44.835001 65.034863)
(709.03304 56.738826 65.482504)
(707.52833 69.973304 66.399988)
(704.11385 85.607911 67.002258)
(697.98259 100.64734 68.348273)
(688.95897 117.72754 68.533067)
(676.08034 134.71446 68.500725)
(658.80063 150.46979 68.317209)
(638.11802 165.90436 66.28081)
(611.57832 179.64216 64.096714)
(582.1847 190.58913 59.630814)
(547.37298 200.17589 54.589034)
(509.55042 206.38047 47.886527)
(468.46475 209.1123 39.569512)
(425.19734 208.13264 30.163183)
(379.89636 206.4632 19.225059)
(334.06311 198.71785 8.0010645)
(288.14062 189.67218 -4.6057783)
(244.29471 178.32407 -17.090669)
(201.19481 164.67949 -29.357681)
(161.97048 149.04411 -40.579337)
(125.15588 133.24148 -51.21179)
(95.069759 114.1996 -58.654527)
(68.658802 97.511924 -63.778933)
(46.131878 80.913792 -66.335787)
(34.615321 60.65235 -53.07621)
(33.895615 47.332352 -33.207297)
(-6.8708141e-15 1.5083581e-15 1.9262289e-16)
(-1.2504183e-14 5.7375616e-16 8.4327435e-16)
(-8.3449101e-15 1.4891922e-15 5.3018253e-16)
(-4.9731758e-15 1.4991158e-15 6.2376313e-16)
(-3.4146159e-15 1.5624416e-15 3.1576894e-17)
(2.0582335e-15 9.3962624e-16 -5.746342e-16)
(2.2101935e-15 3.7457559e-17 -1.1841335e-16)
(2.4553765e-15 -8.5141669e-16 -9.3419562e-16)
(1.2987427e-15 1.0081898e-16 1.7950851e-15)
(-4.5074861e-15 9.063971e-16 1.0710522e-15)
(-5.2682467e-15 2.1856155e-15 1.0652666e-15)
(-7.4917339e-15 1.915055e-15 2.2418828e-16)
(-9.400838e-15 1.3708275e-15 6.2833768e-16)
(-6.2048683e-15 1.3247981e-15 5.4317906e-16)
(-6.971104e-15 1.5128103e-15 7.5678131e-16)
(-1.2693866e-14 6.2923345e-15 -2.1364834e-15)
(-5.2452578e-15 2.6791924e-15 -5.3037742e-16)
(-1.0752404e-15 9.8318743e-16 -1.0111087e-16)
(-2.7353382e-15 1.7746034e-15 7.3085398e-17)
(1.0178949e-15 -1.5450237e-16 -4.119182e-16)
(-1.4303492e-15 4.136346e-16 -3.3264033e-16)
(-1.0059749e-14 4.7133437e-15 -1.6449855e-15)
(2.9801421e-15 -1.9180379e-15 -8.3172098e-16)
(-4.79756e-15 2.8035442e-15 1.1420498e-15)
(-5.4778068e-15 3.5047253e-15 -3.934403e-16)
(-1.8117877e-15 1.1581936e-15 -9.1309836e-16)
(-3.9812639e-16 4.7407236e-16 -2.2932148e-16)
(-1.5272242e-15 1.100363e-15 -2.2557932e-16)
(-4.1024849e-15 1.9838802e-15 2.8069696e-17)
(-5.3424143e-16 2.551799e-16 -1.9455919e-16)
(-1473.2678 -404.14556 -102.77229)
(-1469.017 -405.73433 -101.40311)
(-1464.0979 -407.71744 -98.396374)
(-1458.1083 -410.0428 -94.290938)
(-1451.9732 -412.88068 -89.31709)
(-1445.742 -416.15341 -83.989712)
(-1440.107 -419.74469 -78.519439)
(-1435.5846 -423.30622 -73.301916)
(-1432.4565 -426.67949 -68.554361)
(-1431.0258 -429.5327 -64.493249)
(-1431.5117 -431.64731 -61.355079)
(-1433.6251 -432.79013 -59.054329)
(-1437.4299 -432.9793 -57.830374)
(-1442.4738 -431.41738 -57.292728)
(-1448.6748 -429.35408 -57.955358)
(-1106.9092 -1164.5656 -45.65431)
(-1100.8224 -1159.0641 -45.390819)
(-1094.7792 -1155.1062 -46.121855)
(-1088.9906 -1152.9518 -47.609341)
(-1083.8312 -1152.6537 -49.965083)
(-1079.5153 -1154.2011 -53.209058)
(-1076.3146 -1157.4684 -57.256268)
(-1074.2947 -1162.2187 -61.938018)
(-1073.5331 -1168.0265 -67.048441)
(-1073.9102 -1174.4171 -72.355288)
(-1075.3272 -1180.8571 -77.539906)
(-1077.4932 -1186.7855 -82.273543)
(-1080.1118 -1191.7627 -86.301546)
(-1082.8444 -1195.4993 -89.105737)
(-1085.2712 -1198.472 -90.534843)
(15.237371 50.231603 58.77431)
(31.043241 64.055704 68.838456)
(47.076612 84.488371 85.593312)
(67.588985 101.0875 91.407237)
(92.136976 114.8438 95.475124)
(122.43813 128.60315 93.784073)
(157.83218 140.87471 89.523659)
(197.83142 152.50409 81.457029)
(242.03975 163.3585 70.802262)
(289.17712 173.30587 57.713537)
(338.66394 182.90044 42.741312)
(388.78676 191.43149 26.731019)
(438.83328 199.37064 10.196168)
(487.00923 206.21197 -6.0733534)
(532.45267 212.36686 -21.441443)
(573.75049 217.0274 -35.057622)
(610.48929 220.71827 -46.475956)
(641.57387 222.87762 -55.345033)
(666.5923 223.56716 -61.184052)
(685.50175 222.74649 -63.83466)
(698.50852 220.31409 -63.404936)
(705.7483 216.41621 -59.999823)
(708.00621 210.91371 -53.947357)
(706.09305 204.17565 -45.731491)
(700.80281 196.19443 -35.855221)
(693.37642 187.35929 -25.065723)
(684.76467 177.63067 -13.849018)
(676.16406 167.64153 -3.0911624)
(668.25844 157.46993 6.6748608)
(662.28106 147.17214 14.825161)
(658.47307 137.59405 21.007237)
(657.48287 128.3185 24.743761)
(659.41996 119.7829 25.919422)
(664.31679 112.00637 24.51634)
(671.82322 104.97714 20.464506)
(681.50223 98.619684 14.275422)
(692.72556 92.795253 6.3573193)
(704.65606 87.356761 -3.0854267)
(716.42678 81.751116 -13.272463)
(727.20668 76.101195 -23.680329)
(735.815 69.746171 -33.678655)
(741.5445 62.427191 -42.745231)
(743.49864 53.95683 -50.087217)
(741.02887 43.942127 -55.510514)
(733.49307 32.135334 -58.509398)
(720.55381 18.428793 -58.9259)
(702.01895 2.7449403 -56.607638)
(677.93368 -14.932415 -51.656031)
(648.52428 -34.465877 -44.231367)
(614.2345 -55.670528 -34.690293)
(575.69138 -78.243419 -23.473586)
(533.68883 -101.81452 -11.146092)
(489.15862 -125.94301 1.6656276)
(443.13133 -150.13923 14.280061)
(396.69403 -173.89183 26.010504)
(350.94434 -196.68319 36.185335)
(306.94296 -218.033 44.198639)
(265.6585 -237.50512 49.524526)
(227.9313 -254.76136 51.764926)
(194.41902 -269.56541 50.661723)
(165.57808 -281.80722 46.10898)
(141.6157 -291.54345 38.188858)
(122.51123 -298.94388 27.127724)
(107.95164 -304.41095 13.304779)
(97.493586 -308.33154 -2.6455861)
(90.204784 -311.36354 -20.24608)
(85.41635 -314.28123 -38.731509)
(81.971151 -317.45691 -57.205355)
(78.653077 -322.47849 -75.407874)
(74.219111 -329.40713 -91.72565)
(67.576263 -339.24727 -105.99602)
(57.657444 -352.54587 -117.82668)
(43.35637 -369.69483 -126.61888)
(23.904297 -390.97957 -132.15713)
(-1.3113692 -416.59887 -134.35425)
(-32.676426 -446.44817 -133.27132)
(-70.308461 -480.28272 -129.17748)
(-114.084 -517.70818 -122.43316)
(-163.58719 -558.1118 -113.55563)
(-218.22689 -600.84892 -103.11346)
(-277.21082 -645.0283 -91.817784)
(-339.5834 -689.95998 -80.192278)
(-404.28417 -734.69894 -68.977828)
(-470.08053 -778.42757 -58.862093)
(-536.40182 -820.47253 -50.110821)
(-601.72004 -860.33568 -43.257792)
(-665.68266 -897.53435 -38.224475)
(-727.30203 -931.71952 -35.281155)
(-786.2676 -962.82018 -34.235499)
(-842.689 -991.17537 -34.808753)
(-895.79597 -1016.513 -36.800374)
(-946.7949 -1040.1655 -39.512609)
(-995.46865 -1061.6686 -43.037631)
(-1041.8014 -1082.7873 -45.980734)
(-1087.745 -1103.5134 -49.596148)
(4.678473 42.718423 48.425108)
(20.594007 47.474192 64.165443)
(40.656628 68.353267 76.417574)
(61.124931 80.648791 83.144359)
(88.644946 92.467945 86.035953)
(119.66272 103.78438 85.118116)
(156.47244 113.76064 81.365934)
(197.38294 123.33668 74.671709)
(242.4057 132.31203 65.471008)
(290.37737 141.30172 54.225601)
(340.40432 149.82413 41.288213)
(391.10207 158.50444 27.465661)
(441.33219 166.73756 12.958932)
(489.80294 175.07234 -1.1768032)
(535.277 182.669 -14.688926)
(576.64942 190.01849 -26.55234)
(613.20188 196.23978 -36.921763)
(644.00335 201.7312 -44.694624)
(668.97631 205.76244 -50.08843)
(687.67695 208.55894 -52.611103)
(700.4669 209.52972 -52.559192)
(707.58014 209.00172 -49.776124)
(709.83271 206.57794 -44.784259)
(707.89194 202.55654 -37.767296)
(702.77537 196.88617 -29.405837)
(695.53835 189.73907 -20.015965)
(687.23551 181.44267 -10.399998)
(678.87076 172.25016 -1.102063)
(671.46659 162.31061 7.4626333)
(665.77591 152.27967 14.599944)
(662.34026 142.17422 19.986852)
(661.63617 132.41179 23.373738)
(663.87493 123.22737 24.469238)
(668.81806 114.8587 23.362572)
(676.33235 107.32132 20.036126)
(685.91426 100.69607 14.773136)
(696.68318 94.930487 7.8807305)
(708.07918 89.766003 -0.15775515)
(719.1952 85.171198 -8.9684705)
(729.01475 80.707677 -17.950879)
(736.61707 76.180595 -26.542082)
(741.15917 70.991875 -34.391318)
(741.75396 65.122514 -40.710626)
(737.82462 57.924911 -45.283667)
(728.80862 49.231242 -47.81697)
(714.33608 38.744132 -48.08807)
(694.31808 26.296997 -46.012419)
(668.79909 11.758518 -41.637465)
(638.06823 -4.8445595 -35.151818)
(602.59715 -23.436801 -26.852912)
(563.05173 -43.808614 -17.149305)
(520.24881 -65.668932 -6.5353997)
(475.14638 -88.638218 4.4269302)
(428.77852 -112.2594 15.142871)
(382.24093 -136.03448 25.003687)
(336.61837 -159.42675 33.429797)
(292.95579 -181.91183 39.890693)
(252.19201 -202.98279 43.938126)
(215.13583 -222.21116 45.237289)
(182.39819 -239.23392 43.570203)
(154.39158 -253.83168 38.869023)
(131.27582 -265.90853 31.218021)
(112.97674 -275.49479 20.822717)
(99.167076 -282.87317 8.0675293)
(89.280432 -288.26338 -6.5536164)
(82.539374 -292.42912 -22.575575)
(78.10531 -295.95712 -38.970497)
(74.856579 -299.65004 -55.705375)
(71.454031 -303.37023 -71.616697)
(66.653056 -308.46285 -86.346244)
(59.348356 -315.91583 -99.107199)
(48.555092 -326.21147 -109.65897)
(33.186918 -339.82991 -117.52939)
(12.52315 -357.31704 -122.58604)
(-13.993963 -378.92718 -124.68615)
(-46.75167 -404.7188 -123.97224)
(-85.774591 -434.66471 -120.63258)
(-130.91755 -468.44351 -115.02496)
(-181.70895 -505.63272 -107.60442)
(-237.55881 -545.68626 -98.865976)
(-297.51357 -587.77696 -89.413536)
(-360.71453 -631.36642 -79.72862)
(-426.12185 -675.21457 -70.586514)
(-492.48055 -718.83045 -61.743495)
(-558.9724 -761.54341 -54.556724)
(-624.52305 -802.24207 -48.912162)
(-688.46627 -840.66519 -45.006233)
(-750.13219 -876.4439 -42.793067)
(-808.95215 -909.24024 -42.192912)
(-865.28962 -939.15331 -42.908547)
(-918.23275 -966.34528 -44.862848)
(-968.90569 -991.13763 -47.177772)
(-1017.6598 -1013.868 -50.469616)
(-1063.3492 -1035.7823 -52.761547)
(-1109.399 -1056.9898 -56.370707)
(1.141954 32.919978 44.120378)
(16.946709 38.459427 55.812974)
(33.933989 52.264754 68.319007)
(57.492522 63.611823 73.431641)
(85.431247 72.144069 76.877143)
(117.9667 82.150546 75.914408)
(155.75004 90.275323 73.3772)
(197.26249 98.296097 67.806553)
(243.08973 106.44023 60.199813)
(291.34309 114.29839 50.747484)
(341.70189 122.77613 39.820752)
(392.34315 131.11727 27.874667)
(442.75634 140.22216 15.474455)
(490.96011 149.01255 3.1466836)
(536.33991 158.20347 -8.4883439)
(577.57694 166.90486 -19.210803)
(613.92364 175.2891 -28.141624)
(644.67828 182.80461 -35.249276)
(669.53043 189.27001 -40.101356)
(688.23299 194.4217 -42.656857)
(701.11539 197.90487 -42.760615)
(708.44011 199.78413 -40.650366)
(710.90653 199.614 -36.452558)
(709.27451 197.77959 -30.570861)
(704.55858 193.90197 -23.315361)
(697.72025 188.58502 -15.286909)
(689.80342 181.60378 -6.9206227)
(681.93713 173.56347 1.2982021)
(674.81429 164.63432 8.7640464)
(669.41431 155.22716 15.104432)
(666.15084 145.68568 19.982675)
(665.5416 136.35383 23.051508)
(667.59921 127.54802 24.194752)
(672.3502 119.50573 23.367368)
(679.452 112.3481 20.588972)
(688.43486 106.23354 16.133448)
(698.62783 101.07902 10.234275)
(709.29281 96.846944 3.2317621)
(719.37137 93.155693 -4.3877359)
(728.09054 90.041626 -12.129982)
(734.56387 86.888991 -19.665761)
(737.87721 83.561048 -26.375173)
(737.2352 79.527536 -31.955897)
(732.02985 74.488269 -35.891364)
(721.76492 67.985094 -38.05685)
(706.13293 59.808918 -38.266893)
(685.00258 49.658252 -36.405313)
(658.49076 37.373705 -32.562594)
(626.87335 22.891821 -26.888526)
(590.66291 6.241094 -19.669267)
(550.51836 -12.436854 -11.262715)
(507.28017 -32.896221 -2.1264628)
(461.89163 -54.798606 7.2498474)
(415.39413 -77.712679 16.324389)
(368.86395 -101.15331 24.569568)
(323.37535 -124.57873 31.468781)
(279.9465 -147.44588 36.5648)
(239.49944 -169.21298 39.472791)
(202.80679 -189.395 39.90973)
(170.45973 -207.5747 37.700515)
(142.83761 -223.45036 32.813611)
(120.07798 -236.83357 25.322305)
(102.08015 -247.69437 15.460488)
(88.495537 -256.1691 3.5523876)
(78.720432 -262.52314 -9.9542413)
(72.1113 -267.11663 -24.543608)
(67.361531 -271.03942 -39.663335)
(63.282385 -273.11871 -55.077978)
(59.410696 -276.49728 -69.425093)
(54.339893 -280.83275 -82.521803)
(46.445455 -286.96491 -93.86555)
(35.134813 -295.56135 -103.14235)
(19.147542 -307.24542 -110.05787)
(-2.1414802 -322.46536 -114.38326)
(-29.349649 -341.63215 -116.14165)
(-62.761605 -364.89491 -115.40846)
(-102.46182 -392.25186 -112.45115)
(-148.23777 -423.51281 -107.56867)
(-199.63432 -458.33084 -101.1954)
(-256.00414 -496.19536 -93.766772)
(-316.50644 -536.4691 -85.86224)
(-380.12353 -578.42112 -77.817962)
(-445.8815 -621.24465 -70.381545)
(-512.77075 -664.14152 -63.454015)
(-579.55986 -706.70932 -58.438494)
(-645.1259 -747.42326 -54.044454)
(-709.25038 -786.45701 -51.387447)
(-770.92083 -822.90766 -49.954312)
(-829.86571 -856.6296 -50.030857)
(-886.17344 -887.77883 -50.976543)
(-939.07836 -915.82222 -53.002855)
(-989.89783 -941.89913 -55.207273)
(-1038.4868 -965.51766 -57.95874)
(-1084.1151 -988.18114 -60.153973)
(-1130.466 -1010.2179 -62.850201)
(-0.84639917 28.177285 37.678844)
(12.73324 31.707889 48.907621)
(31.155907 42.296042 59.288748)
(54.213373 50.516744 65.100361)
(83.21948 56.954185 68.481104)
(116.46275 65.371174 68.184826)
(154.62009 71.741558 66.561815)
(196.86958 78.928266 61.982635)
(242.84215 85.872138 55.826983)
(291.31975 93.440356 47.984089)
(341.46546 101.24132 38.693948)
(392.26881 109.89691 28.646631)
(442.1872 118.86996 17.931332)
(490.24719 128.46703 7.5206587)
(535.36315 138.28221 -2.8652176)
(576.29638 148.18193 -11.875313)
(612.47059 157.71207 -19.917062)
(643.10448 166.84473 -26.116636)
(667.93461 174.86112 -30.602318)
(686.76174 181.84064 -32.881312)
(699.88002 187.14565 -33.281694)
(707.49684 190.86134 -31.577574)
(710.42745 192.59046 -28.188884)
(709.31327 192.49027 -23.170733)
(705.16177 190.38928 -17.103313)
(698.87402 186.59476 -10.197674)
(691.6034 181.08014 -2.9979144)
(684.13223 174.41044 4.0309408)
(677.5073 166.60512 10.511081)
(672.36017 158.29462 16.069247)
(669.29636 149.63661 20.279736)
(668.64323 141.17972 23.034163)
(670.55013 133.09759 24.060793)
(674.96509 125.75633 23.444312)
(681.48886 119.34703 21.083634)
(689.82331 113.92283 17.370467)
(698.99047 109.6073 12.280981)
(708.46042 106.17773 6.3466199)
(717.52942 103.80574 -0.16697814)
(725.17596 101.67522 -6.9652192)
(730.41597 99.920927 -13.362598)
(732.52181 97.959178 -19.147995)
(730.72015 95.504725 -23.859256)
(724.36923 92.078174 -27.211574)
(713.04227 87.312905 -29.023358)
(696.44105 80.89347 -29.100804)
(674.46617 72.518055 -27.423872)
(647.23193 61.968578 -24.032805)
(615.04257 49.148001 -19.102212)
(578.3996 34.040037 -12.868138)
(537.97526 16.749069 -5.679922)
(494.59323 -2.5139279 2.0741336)
(449.19127 -23.433258 9.9391527)
(402.79139 -45.601232 17.451566)
(356.44836 -68.536399 24.13845)
(311.21099 -91.701403 29.559697)
(268.07252 -114.53911 33.319532)
(227.92396 -136.48769 35.09866)
(191.51276 -157.03297 34.661606)
(159.4077 -175.71868 31.888339)
(131.95977 -192.18829 26.754474)
(109.30082 -206.2132 19.374251)
(91.303841 -217.70806 9.9505729)
(77.631911 -226.71639 -1.1872774)
(67.659136 -233.49176 -13.646644)
(60.694227 -238.37352 -26.943056)
(55.620193 -241.81544 -40.626746)
(51.574298 -244.68963 -54.072501)
(47.279459 -247.52848 -66.79403)