/*--------------------------------*- C++ -*----------------------------------*\
  =========                 |
  \\      /  F ield         | OpenFOAM: The Open Source CFD Toolbox
   \\    /   O peration     | Website:  https://openfoam.org
    \\  /    A nd           | Version:  6
     \\/     M anipulation  |
\*---------------------------------------------------------------------------*/
FoamFile
{
    version     2.0;
    format      ascii;
    class       pointVectorField;
    location    "1.34";
    object      u;
}
// * * * * * * * * * * * * * * * * * * * * * * * * * * * * * * * * * * * * * //

dimensions      [0 1 0 0 0 0 0];

internalField   nonuniform List<vector> 
28033
(
(0 5.9268177e-19 0)
(0 4.0585077e-18 0)
(-1.8523467 -0.57597681 -0.0016301031)
(-1.9484322 -0.14814789 -0.0023522277)
(0 3.6653236e-18 0)
(0 5.9697312e-18 0)
(-1.9478873 -0.14811817 -0.0022250201)
(-1.8516831 -0.57596098 -0.0017490071)
(0 1.2833293e-18 0)
(0 3.7058594e-19 0)
(0 2.9603052e-18 0)
(0 -1.40542e-18 0)
(0 1.8931928e-18 0)
(0 -1.1219603e-18 0)
(0 -2.7110638e-20 0)
(-9.0430895e-19 -2.950009e-19 0)
(0 5.5484202e-19 0)
(0 2.7611464e-19 0)
(0 -1.0626216e-18 0)
(0 1.0288335e-18 0)
(0 1.2303054e-18 0)
(0 -9.8677855e-19 0)
(0 1.2545812e-18 0)
(-1.858377 -0.54919111 -0.0016537427)
(-1.8643913 -0.52240554 -0.0016752559)
(-1.8703934 -0.49563134 -0.001707724)
(-1.8763827 -0.46887125 -0.0017479622)
(-1.8823639 -0.4421313 -0.0017981075)
(-1.8883417 -0.41540527 -0.0018569803)
(-1.894316 -0.38869642 -0.001921495)
(-1.9002974 -0.36199508 -0.0019877016)
(-1.9062842 -0.33530024 -0.0020565472)
(-1.9122802 -0.30860092 -0.0021205139)
(-1.9182893 -0.28189513 -0.0021793892)
(-1.9243069 -0.25517508 -0.0022265655)
(-1.9303352 -0.22844058 -0.0022686322)
(-1.9363694 -0.20168798 -0.0023008103)
(-1.9424026 -0.17492146 -0.0023260145)
(-0.0037775897 -0.0078870254 -0.0079676319)
(-0.0037867041 -0.011396332 -0.011771495)
(-0.0044218981 -0.015452374 -0.014141581)
(-0.0060134342 -0.019688779 -0.01592585)
(-0.0079949598 -0.023965444 -0.016973875)
(-0.010878754 -0.028546997 -0.017731637)
(-0.014389059 -0.033183728 -0.018180558)
(-0.018637235 -0.037871562 -0.018421053)
(-0.023499777 -0.042719074 -0.018539201)
(-0.029057908 -0.047548173 -0.018565392)
(-0.035192762 -0.0524541 -0.01848195)
(-0.041946519 -0.057396728 -0.018352129)
(-0.049259779 -0.062380207 -0.01823495)
(-0.057182474 -0.067394104 -0.0180316)
(-0.065611787 -0.072431415 -0.017860486)
(-0.074610052 -0.07749413 -0.017631292)
(-0.084114313 -0.082626557 -0.017462362)
(-0.094160449 -0.087727329 -0.017253315)
(-0.10470087 -0.092933753 -0.017049483)
(-0.11574721 -0.09812381 -0.016849202)
(-0.1272788 -0.10340297 -0.016680936)
(-0.1393099 -0.10868339 -0.016468892)
(-0.15181127 -0.11404553 -0.016315432)
(-0.16479634 -0.11945262 -0.016126802)
(-0.17825604 -0.12490768 -0.01595024)
(-0.19217983 -0.13043826 -0.015772219)
(-0.20657584 -0.13600216 -0.015609514)
(-0.22142708 -0.14167182 -0.015414596)
(-0.23675707 -0.14736197 -0.015225995)
(-0.25252652 -0.15314171 -0.015035529)
(-0.26876069 -0.15899428 -0.014820245)
(-0.28543148 -0.16488661 -0.014595836)
(-0.30254205 -0.17086686 -0.014372252)
(-0.32010468 -0.17687625 -0.014130974)
(-0.33807996 -0.18298514 -0.013861254)
(-0.35648138 -0.18911897 -0.013595163)
(-0.37527224 -0.19531981 -0.013326606)
(-0.39447475 -0.20157038 -0.013041607)
(-0.41405096 -0.20785447 -0.012741676)
(-0.43399196 -0.21420107 -0.012453048)
(-0.45429632 -0.22056665 -0.012155674)
(-0.47493489 -0.22698864 -0.011862968)
(-0.49591168 -0.23343541 -0.011567401)
(-0.51720482 -0.23992289 -0.01128091)
(-0.53880551 -0.24643559 -0.010995947)
(-0.56070341 -0.25298606 -0.010717708)
(-0.58288628 -0.25956083 -0.010444311)
(-0.60535051 -0.26617135 -0.010174941)
(-0.628082 -0.27280647 -0.009909393)
(-0.65108051 -0.27947524 -0.0096454195)
(-0.6743333 -0.28616953 -0.0093819369)
(-0.69784008 -0.29289436 -0.009116918)
(-0.72159057 -0.29964447 -0.008848869)
(-0.7455825 -0.30642072 -0.0085763194)
(-0.7698075 -0.3132192 -0.0082980289)
(-0.79426049 -0.32003773 -0.0080136842)
(-0.81893348 -0.32687194 -0.0077228538)
(-0.84381881 -0.333718 -0.0074263118)
(-0.8689071 -0.34057015 -0.0071251212)
(-0.89418881 -0.3474235 -0.0068210667)
(-0.91965228 -0.35427157 -0.0065162912)
(-0.94528679 -0.36110877 -0.0062134154)
(-0.9710771 -0.36792849 -0.005916053)
(-0.99701659 -0.37472546 -0.0056246651)
(-1.0230796 -0.38149398 -0.0053479007)
(-1.0492686 -0.38822985 -0.0050798375)
(-1.0755567 -0.3949229 -0.004834707)
(-1.1019382 -0.40157989 -0.0046036847)
(-1.128399 -0.40819136 -0.0043848142)
(-1.15493 -0.41476265 -0.004192873)
(-1.1815184 -0.4212848 -0.0040187478)
(-1.2081574 -0.42776681 -0.0038604682)
(-1.234838 -0.43420687 -0.0037194538)
(-1.2615563 -0.44060629 -0.0035926267)
(-1.2883048 -0.44697127 -0.0034765629)
(-1.3150822 -0.45329995 -0.0033700683)
(-1.3418817 -0.45960146 -0.0032687096)
(-1.3687054 -0.46587379 -0.0031711151)
(-1.3955451 -0.47212563 -0.0030732102)
(-1.4224061 -0.47835277 -0.0029762557)
(-1.4492807 -0.48456608 -0.0028728263)
(-1.4761691 -0.49075962 -0.0027705582)
(-1.5030716 -0.4969395 -0.0026608232)
(-1.5299789 -0.50310335 -0.0025517761)
(-1.5568959 -0.50925478 -0.0024386035)
(-1.5838119 -0.51539102 -0.0023274206)
(-1.6107315 -0.52151054 -0.0022178759)
(-1.6376369 -0.52761822 -0.0021144968)
(-1.664543 -0.53370351 -0.0020178619)
(-1.6914219 -0.53978076 -0.0019319484)
(-1.7182959 -0.54583305 -0.0018575726)
(-1.7451389 -0.55187867 -0.0017947204)
(-1.7719681 -0.55790611 -0.0017466685)
(-1.7987708 -0.56392936 -0.0017040135)
(-1.8255626 -0.56994828 -0.0016717746)
(-0.0025418283 0.0069596215 0.0093956755)
(-0.0051655832 0.010609955 0.0099010602)
(-0.0064486853 0.015083151 0.013154164)
(-0.0083801106 0.019086594 0.013986768)
(-0.01136924 0.023619217 0.015046219)
(-0.014834218 0.028327585 0.01551749)
(-0.019107187 0.032758185 0.015839169)
(-0.024049959 0.037459943 0.015926059)
(-0.0298099 0.042002979 0.015915498)
(-0.036126205 0.046496052 0.01581739)
(-0.043254549 0.05095144 0.015638099)
(-0.050920848 0.055251575 0.015448356)
(-0.05934366 0.05949591 0.015180382)
(-0.068320598 0.063586594 0.014959989)
(-0.077963321 0.067549555 0.014665524)
(-0.088178666 0.07138376 0.014426104)
(-0.098998477 0.075047281 0.014138785)
(-0.11039398 0.078576502 0.013878896)
(-0.1223606 0.081950016 0.013619317)
(-0.13486157 0.085135651 0.013371141)
(-0.14793635 0.088185507 0.013103644)
(-0.16153419 0.091057582 0.012882234)
(-0.17564795 0.093742454 0.012628604)
(-0.19031399 0.096281377 0.012396696)
(-0.20545949 0.09862339 0.012170538)
(-0.22113518 0.10078371 0.011922778)
(-0.23730376 0.10277684 0.011708068)
(-0.25396295 0.1045535 0.01145101)
(-0.27111844 0.10616903 0.011224493)
(-0.28873664 0.10755431 0.01095604)
(-0.30684745 0.10877461 0.010703245)
(-0.32539838 0.10976287 0.010429983)
(-0.34441357 0.11055904 0.010152215)
(-0.36386239 0.11113586 0.0098605708)
(-0.38374069 0.1115032 0.0095599901)
(-0.40402388 0.11164991 0.0092599421)
(-0.42470304 0.11157487 0.0089309838)
(-0.44577927 0.11129934 0.0086151503)
(-0.46720305 0.11079096 0.0082870186)
(-0.48899437 0.11007793 0.0079604392)
(-0.51111177 0.10914803 0.0076327511)
(-0.53355449 0.10801056 0.0073092373)
(-0.5562998 0.10666685 0.0069889695)
(-0.57933959 0.10512222 0.0066764542)
(-0.60265506 0.1033802 0.0063710613)
(-0.62623992 0.10144534 0.0060744067)
(-0.65007734 0.099322505 0.005787387)
(-0.67416209 0.097014646 0.0055087771)
(-0.69848091 0.094526801 0.0052392833)
(-0.72302789 0.091861121 0.0049768082)
(-0.7477932 0.08902147 0.0047205773)
(-0.77277037 0.086009696 0.0044684769)
(-0.79795056 0.082828364 0.0042186576)
(-0.82332743 0.079479147 0.0039689561)
(-0.84889152 0.075964001 0.0037173399)
(-0.87463555 0.072284497 0.0034618948)
(-0.90054956 0.068443035 0.0032008382)
(-0.92662412 0.064441467 0.0029330599)
(-0.95284833 0.060283312 0.0026575718)
(-0.97921121 0.055971525 0.0023741714)
(-1.0057003 0.051511074 0.0020830195)
(-1.0323033 0.046906524 0.0017852995)
(-1.0590072 0.042164705 0.0014819533)
(-1.0857989 0.037291641 0.0011755773)
(-1.1126653 0.032296151 0.00086809799)
(-1.1395936 0.027185242 0.00056272681)
(-1.1665721 0.021969469 0.00026271996)
(-1.1935904 0.016656827 -3.0712216e-05)
(-1.2206344 0.01125452 -0.00031061888)
(-1.2476959 0.0057745655 -0.00057871983)
(-1.2747712 0.00022880324 -0.00082834086)
(-1.3018481 -0.0053829928 -0.0010603394)
(-1.3289276 -0.011044733 -0.0012717925)
(-1.3559982 -0.016756354 -0.0014610295)
(-1.3830639 -0.022507276 -0.0016294428)
(-1.4101179 -0.028295506 -0.0017748925)
(-1.4371625 -0.034115523 -0.00190049)
(-1.4641955 -0.039965256 -0.0020058474)
(-1.4912178 -0.045840929 -0.0020937509)
(-1.518229 -0.051742454 -0.0021648021)
(-1.5452305 -0.057666449 -0.0022229575)
(-1.5722198 -0.063613955 -0.0022678311)
(-1.5992003 -0.069581572 -0.0023045871)
(-1.6261668 -0.075570533 -0.002331361)
(-1.6531227 -0.081577064 -0.0023536553)
(-1.6800621 -0.087601888 -0.0023687408)
(-1.7069874 -0.093640375 -0.0023813131)
(-1.7338927 -0.099692528 -0.0023884433)
(-1.7607799 -0.10575287 -0.0023934578)
(-1.7876443 -0.11182032 -0.0023940284)
(-1.8144874 -0.11788927 -0.00239197)
(-1.8413073 -0.12395764 -0.0023861434)
(-1.8681071 -0.13001998 -0.0023779805)
(-1.8948893 -0.13607439 -0.0023679563)
(-1.9216614 -0.14211732 -0.0023575883)
(0 -1.6126494e-18 0)
(0 -1.177553e-18 0)
(0 1.1029925e-18 0)
(0 -6.9697274e-19 0)
(0 -6.0016022e-19 0)
(0 3.3538584e-18 0)
(0 -9.9571248e-19 0)
(-2.3183314e-18 6.4803233e-19 0)
(0 -5.9227736e-19 0)
(0 1.4429097e-18 0)
(0 1.7244968e-18 0)
(0 6.0317952e-19 0)
(0 3.1927008e-19 0)
(0 -6.5029243e-19 0)
(0 4.4203404e-19 0)
(-0.0047502153 0.0031850297 -0.0069840552)
(-0.0059478912 0.012544765 -0.010681149)
(-0.0063628893 0.01375885 -0.01240401)
(-0.0091365926 0.020417369 -0.014607391)
(-0.011319032 0.023743217 -0.015458666)
(-0.015214137 0.029053041 -0.016155156)
(-0.019095574 0.033231519 -0.016568891)
(-0.024337486 0.03827996 -0.016892181)
(-0.029765411 0.042559347 -0.016987934)
(-0.036314687 0.047413485 -0.017092414)
(-0.043256439 0.051672208 -0.017104288)
(-0.050935098 0.056095838 -0.017065142)
(-0.059330968 0.060363923 -0.016999305)
(-0.068231552 0.064418897 -0.016906092)
(-0.077915031 0.068495879 -0.016802368)
(-0.088051677 0.072231218 -0.016672171)
(-0.098851037 0.075982655 -0.016583497)
(-0.11024617 0.079475278 -0.016411972)
(-0.12214284 0.08284069 -0.016307768)
(-0.13471474 0.086073493 -0.016153626)
(-0.14768435 0.089072521 -0.016044288)
(-0.16130683 0.091953681 -0.015905738)
(-0.17539155 0.094638832 -0.015766986)
(-0.19007069 0.097191979 -0.015646592)
(-0.2051829 0.099492848 -0.015494114)
(-0.22088019 0.10170107 -0.015370212)
(-0.23699522 0.10362224 -0.01521244)
(-0.25369708 0.10547174 -0.015071234)
(-0.27079443 0.10701406 -0.014907705)
(-0.28844828 0.1084592 -0.014741705)
(-0.3065352 0.10964186 -0.014563515)
(-0.32508834 0.1106382 -0.014373531)
(-0.3440941 0.11142542 -0.014171063)
(-0.36353719 0.11199447 -0.013955334)
(-0.38341789 0.11236546 -0.013731377)
(-0.40366479 0.11247291 -0.01349664)
(-0.42436786 0.11243346 -0.013249217)
(-0.44542336 0.11211977 -0.012996811)
(-0.46684671 0.11161167 -0.012738444)
(-0.4886247 0.1108792 -0.012471464)
(-0.51073706 0.10993842 -0.012206231)
(-0.53316825 0.10878397 -0.011937144)
(-0.55590713 0.10742564 -0.011670566)
(-0.57893635 0.10586258 -0.011404048)
(-0.60224613 0.10410431 -0.011142334)
(-0.62582244 0.10215049 -0.010881718)
(-0.64965639 0.10001001 -0.010626092)
(-0.67373688 0.097683442 -0.01037156)
(-0.69805559 0.095178027 -0.010120891)
(-0.72260395 0.092494705 -0.0098697513)
(-0.74737421 0.089639095 -0.0096201629)
(-0.77235876 0.086611885 -0.0093675647)
(-0.79755025 0.083417485 -0.009113652)
(-0.82294044 0.080056459 -0.0088547132)
(-0.8485215 0.076532523 -0.0085920336)
(-0.87428411 0.072846249 -0.0083233505)
(-0.90021858 0.069001249 -0.0080501608)
(-0.92631457 0.064999098 -0.0077718092)
(-0.9525599 0.060843152 -0.0074899139)
(-0.97894321 0.056537032 -0.0072059016)
(-1.0054502 0.05208444 -0.0069213828)
(-1.0320685 0.047490632 -0.0066390484)
(-1.0587833 0.042760983 -0.0063611324)
(-1.085581 0.037901457 -0.0060904401)
(-1.1124477 0.032919402 -0.0058293549)
(-1.1393709 0.027822376 -0.0055803954)
(-1.1663345 0.022613704 -0.0053450528)
(-1.1933379 0.017317489 -0.0051271841)
(-1.2203588 0.011912822 -0.0049265598)
(-1.2473853 0.0064427147 -0.0047403344)
(-1.2744305 0.00088478717 -0.0045721149)
(-1.3014684 -0.0047340613 -0.0044230577)
(-1.3285062 -0.010416544 -0.0042847941)
(-1.355538 -0.016150877 -0.004161378)
(-1.3825625 -0.021933542 -0.004047408)
(-1.4095793 -0.027758681 -0.0039410961)
(-1.4365892 -0.033621369 -0.0038395891)
(-1.4635926 -0.039517867 -0.0037407117)
(-1.4905901 -0.045444238 -0.0036418163)
(-1.5175832 -0.05139766 -0.0035415074)
(-1.5445714 -0.057374732 -0.0034382986)
(-1.5715557 -0.063373432 -0.0033319897)
(-1.5985341 -0.069390574 -0.0032223345)
(-1.6255067 -0.075424283 -0.0031107071)
(-1.6524699 -0.081471277 -0.0029980235)
(-1.6794228 -0.087529741 -0.0028867813)
(-1.706361 -0.093595897 -0.0027787778)
(-1.7332827 -0.099668063 -0.0026770184)
(-1.7601839 -0.10574187 -0.0025834112)
(-1.7870628 -0.11181616 -0.0025004732)
(-1.8139174 -0.11788593 -0.0024296081)
(-1.8407468 -0.12395108 -0.002371404)
(-1.8675535 -0.13000635 -0.0023257505)
(-1.894339 -0.13605407 -0.0022896498)
(-1.921112 -0.14208924 -0.0022595521)
(-1.941862 -0.17489498 -0.0021798633)
(-1.9358194 -0.20166725 -0.0021370906)
(-1.9297808 -0.22842344 -0.0020990095)
(-1.9237391 -0.25515995 -0.0020695821)
(-1.9177154 -0.28188394 -0.0020467537)
(-1.9116875 -0.30859046 -0.0020297411)
(-1.9056856 -0.33529217 -0.0020181782)
(-1.8996798 -0.36199149 -0.0020082852)
(-1.8936927 -0.38869176 -0.0019965617)
(-1.8876984 -0.4154039 -0.001982443)
(-1.881721 -0.44212617 -0.0019605993)
(-1.8757228 -0.46886967 -0.0019333398)
(-1.8697353 -0.49562297 -0.0018939383)
(-1.8637236 -0.52239964 -0.0018516684)
(-1.8577108 -0.54918045 -0.0017970101)
(-1.8249035 -0.56993355 -0.0017581033)
(-1.7981084 -0.5639223 -0.0017770964)
(-1.7713049 -0.55790685 -0.0017919404)
(-1.744482 -0.55188528 -0.0018088714)
(-1.7176457 -0.54585338 -0.0018232927)
(-1.6907922 -0.53980535 -0.0018349394)
(-1.6639295 -0.53373987 -0.0018434583)
(-1.6370576 -0.52765527 -0.0018493453)
(-1.6101816 -0.52154964 -0.0018514865)
(-1.5833048 -0.51542298 -0.0018501777)
(-1.5564292 -0.5092751 -0.0018438695)
(-1.5295592 -0.50310476 -0.0018326781)
(-1.5026955 -0.49691386 -0.0018138368)
(-1.4758367 -0.49070005 -0.0017851335)
(-1.4489904 -0.48446366 -0.001746589)
(-1.422153 -0.47820559 -0.0016948371)
(-1.3953275 -0.47192424 -0.0016286087)
(-1.3685139 -0.46561806 -0.0015451677)
(-1.3417131 -0.45928725 -0.0014422147)
(-1.3149271 -0.45292811 -0.001318922)
(-1.2881579 -0.44654111 -0.0011729042)
(-1.2614089 -0.44012244 -0.0010039125)
(-1.2346848 -0.43367232 -0.00081151583)
(-1.20799 -0.42718621 -0.00059543182)
(-1.1813346 -0.4206676 -0.00035686463)
(-1.15472 -0.4141113 -9.9659488e-05)
(-1.1281698 -0.40751077 0.00018359407)
(-1.101691 -0.40088828 0.00047330698)
(-1.0752786 -0.394215 0.00078125459)
(-1.0489635 -0.38751763 0.0011000693)
(-1.0227552 -0.38078519 0.0014271356)
(-0.99666778 -0.37402619 0.0017564779)
(-0.97071391 -0.36724158 0.0020870237)
(-0.94490842 -0.3604368 0.0024154981)
(-0.91926474 -0.35361591 0.0027392792)
(-0.89379472 -0.34678455 0.0030565752)
(-0.86851106 -0.33994679 0.003365918)
(-0.84342353 -0.33310862 0.0036665641)
(-0.81854281 -0.32627374 0.0039581939)
(-0.79387629 -0.31944767 0.0042416728)
(-0.76943275 -0.31263326 0.0045176047)
(-0.74521766 -0.30583533 0.0047880613)
(-0.72123808 -0.29905556 0.005054619)
(-0.69749844 -0.2922978 0.0053199318)
(-0.67400503 -0.28556272 0.005585942)
(-0.65076199 -0.27885332 0.0058556884)
(-0.62777607 -0.27216935 0.0061305443)
(-0.60505185 -0.26551343 0.0064134287)
(-0.58259784 -0.25888473 0.0067050642)
(-0.56041921 -0.25228603 0.0070069231)
(-0.5385278 -0.24571602 0.0073195085)
(-0.51692822 -0.23917899 0.0076424032)
(-0.49563864 -0.2326712 0.0079746965)
(-0.47465955 -0.22620298 0.0083179143)
(-0.45401723 -0.21976505 0.0086613951)
(-0.43370973 -0.21337223 0.0090179906)
(-0.41375103 -0.20702672 0.0093712223)
(-0.39416029 -0.20070218 0.0097211666)
(-0.37501635 -0.1944386 0.01005917)
(-0.35615455 -0.18825025 0.010418044)
(-0.33774265 -0.18207862 0.010747342)
(-0.31983319 -0.17597276 0.011056141)
(-0.3022208 -0.16995999 0.011371691)
(-0.28510895 -0.16398072 0.011668618)
(-0.26840941 -0.15805765 0.011952284)
(-0.25224148 -0.15220582 0.012227797)
(-0.23640381 -0.14644685 0.012468083)
(-0.22117484 -0.1407007 0.01271307)
(-0.20627413 -0.13508517 0.012972622)
(-0.19190549 -0.12948744 0.013198246)
(-0.1779895 -0.12397288 0.013438828)
(-0.16451973 -0.11849713 0.013671224)
(-0.15163099 -0.11306028 0.013895642)
(-0.13907366 -0.10774135 0.014159756)
(-0.12705681 -0.10242215 0.014413626)
(-0.11558996 -0.097126395 0.014657045)
(-0.10447766 -0.091956482 0.014969594)
(-0.094020127 -0.086719112 0.015214593)
(-0.08391038 -0.081644983 0.015545192)
(-0.074452571 -0.076472604 0.015828727)
(-0.065470112 -0.071431521 0.016149327)
(-0.056978991 -0.06639282 0.016430396)
(-0.049025324 -0.061434561 0.016768796)
(-0.041786563 -0.056359992 0.01699206)
(-0.034932712 -0.051584658 0.017294356)
(-0.028776825 -0.046644567 0.017450124)
(-0.023251431 -0.041810885 0.01759229)
(-0.018366222 -0.037096948 0.017567886)
(-0.014062437 -0.032428669 0.017458853)
(-0.01055388 -0.027880064 0.017111319)
(-0.0077108607 -0.023273192 0.016381887)
(-0.0059414206 -0.018851412 0.015285172)
(-0.0044216914 -0.015200632 0.013854319)
(-0.00419822 -0.01065345 0.010441074)
(-0.0060631752 -0.0072641758 0.0055937314)
(0 1.8373173e-18 0)
(0 6.9888716e-19 0)
(0 1.8139715e-18 0)
(0 1.8260593e-18 0)
(0 1.9031959e-18 0)
(0 1.1445502e-18 0)
(0 4.5626712e-20 0)
(0 -1.0371029e-18 -1.1379352e-18)
(0 1.2280668e-19 0)
(0 1.1040741e-18 0)
(0 2.6622783e-18 0)
(0 2.3327111e-18 0)
(0 1.6697925e-18 0)
(0 1.6137245e-18 0)
(0 1.8427404e-18 0)
(0 7.6646354e-18 0)
(0 3.2634999e-18 0)
(0 1.1976117e-18 0)
(0 2.1616282e-18 0)
(0 -1.8819794e-19 0)
(0 5.0384455e-19 0)
(0 5.7412812e-18 0)
(0 -2.3363446e-18 -1.0131118e-18)
(0 3.4149717e-18 0)
(0 4.269074e-18 0)
(0 1.4107851e-18 0)
(0 5.7746323e-19 0)
(0 1.3403421e-18 0)
(0 2.4165464e-18 0)
(0 3.1083231e-19 0)
(-1.9484037 -0.14813704 -0.0023524077)
(-1.948375 -0.14812383 -0.0023475167)
(-1.9483513 -0.14810911 -0.002341369)
(-1.9483294 -0.14809473 -0.0023358894)
(-1.9483105 -0.14808036 -0.0023287334)
(-1.9482917 -0.14806722 -0.002322813)
(-1.9482709 -0.14805563 -0.0023154901)
(-1.9482468 -0.14804668 -0.0023072882)
(-1.9482181 -0.14804129 -0.0022975639)
(-1.9481841 -0.14803979 -0.002286153)
(-1.9481438 -0.14804338 -0.002272822)
(-1.9480983 -0.14805238 -0.002258391)
(-1.9480481 -0.14806613 -0.0022442349)
(-1.9479955 -0.14808394 -0.0022324684)
(-1.9479413 -0.14810378 -0.0022247402)
(-1.8523073 -0.57600353 -0.0016305633)
(-1.8522628 -0.57603193 -0.0016383111)
(-1.852221 -0.57605931 -0.0016516297)
(-1.8521793 -0.57608103 -0.0016669244)
(-1.852141 -0.57609818 -0.0016820958)
(-1.8521025 -0.5761069 -0.0016956091)
(-1.852064 -0.57610815 -0.0017076789)
(-1.8520247 -0.57610176 -0.0017171611)
(-1.8519843 -0.5760893 -0.0017250992)
(-1.8519428 -0.57607161 -0.0017311215)
(-1.8519004 -0.57605121 -0.0017364149)
(-1.8518577 -0.57602885 -0.0017406101)
(-1.8518146 -0.57600797 -0.0017445985)
(-1.8517722 -0.57598908 -0.0017479488)
(-1.8517298 -0.57597388 -0.0017482017)
(-0.0017282452 -0.0069796518 -0.0081699984)
(-0.0021666673 -0.0098573609 -0.010101885)
(-0.0026183458 -0.013963292 -0.012476629)
(-0.0043364763 -0.017513115 -0.013648354)
(-0.0060988735 -0.021205505 -0.014802366)
(-0.0091026519 -0.025014959 -0.015389853)
(-0.012525492 -0.028851428 -0.015845951)
(-0.01690777 -0.032929925 -0.016059559)
(-0.021746528 -0.03694852 -0.016215571)
(-0.027383301 -0.041170304 -0.016234316)
(-0.033591251 -0.045345433 -0.016180635)
(-0.04043659 -0.049714864 -0.016125163)
(-0.047850447 -0.053991718 -0.015986741)
(-0.055840578 -0.058454878 -0.015859861)
(-0.064397975 -0.062833781 -0.015695659)
(-0.073504389 -0.067392227 -0.015546072)
(-0.083145527 -0.071877212 -0.015368003)
(-0.093267937 -0.076495441 -0.015214748)
(-0.1039669 -0.081092644 -0.015041295)
(-0.11512502 -0.085806932 -0.014881768)
(-0.12679175 -0.090512199 -0.014724723)
(-0.13895974 -0.095300487 -0.014571822)
(-0.15159501 -0.10015904 -0.014411881)
(-0.16470955 -0.10503774 -0.014272048)
(-0.17832387 -0.11001273 -0.014112532)
(-0.19238992 -0.11503228 -0.013971616)
(-0.2069278 -0.12013935 -0.013809146)
(-0.22193268 -0.12528687 -0.013661202)
(-0.23742211 -0.13052265 -0.013496295)
(-0.25333662 -0.13584348 -0.013322967)
(-0.26973644 -0.14120062 -0.013144278)
(-0.28657731 -0.14666562 -0.012955415)
(-0.30386487 -0.15218549 -0.012760641)
(-0.32157584 -0.15778398 -0.012548439)
(-0.3397244 -0.16345053 -0.012329608)
(-0.35829212 -0.16918397 -0.012100337)
(-0.37724812 -0.1749972 -0.011863329)
(-0.39661009 -0.18085014 -0.011621821)
(-0.41635315 -0.18679447 -0.011367152)
(-0.43645314 -0.19277985 -0.011121577)
(-0.45691671 -0.19882501 -0.010871314)
(-0.47771316 -0.20491482 -0.010615146)
(-0.4988381 -0.21106669 -0.010367057)
(-0.52028399 -0.21725513 -0.010119035)
(-0.54202626 -0.22349265 -0.0098746663)
(-0.5640657 -0.22977138 -0.0096350801)
(-0.58638759 -0.23608965 -0.0093975822)
(-0.60898582 -0.24244876 -0.0091647115)
(-0.63185141 -0.24884412 -0.0089328966)
(-0.65497937 -0.25527802 -0.0087028723)
(-0.67836143 -0.26174709 -0.0084719839)
(-0.7019939 -0.2682516 -0.0082400628)
(-0.72586929 -0.27479012 -0.008004543)
(-0.74998337 -0.28136089 -0.0077655437)
(-0.77432866 -0.28796237 -0.007521303)
(-0.79889943 -0.29459181 -0.0072720983)
(-0.82368733 -0.30124661 -0.0070175023)
(-0.84868439 -0.30792271 -0.0067584722)
(-0.87388073 -0.31461631 -0.0064958894)
(-0.89926607 -0.32132249 -0.0062313568)
(-0.92482874 -0.32803585 -0.0059668465)
(-0.95055641 -0.33475163 -0.0057047481)
(-0.97643573 -0.34146248 -0.0054473719)
(-1.0024552 -0.3481649 -0.0051978522)
(-1.0285943 -0.35485003 -0.0049574272)
(-1.0548546 -0.36151724 -0.0047305131)
(-1.0812073 -0.36816411 -0.0045153893)
(-1.1076423 -0.37476862 -0.0043192604)
(-1.1341555 -0.38134809 -0.0041348958)
(-1.1607286 -0.3878846 -0.0039729814)
(-1.187357 -0.39438886 -0.0038230851)
(-1.2140306 -0.40085483 -0.0036888185)
(-1.2407426 -0.40728517 -0.0035669006)
(-1.2674868 -0.41367898 -0.0034577376)
(-1.2942594 -0.42003884 -0.0033570504)
(-1.3210569 -0.42636642 -0.0032643435)
(-1.347875 -0.43266622 -0.0031748375)
(-1.3747134 -0.43893784 -0.0030885806)
(-1.4015684 -0.445189 -0.0030011883)
(-1.4284409 -0.45141615 -0.0029136999)
(-1.4553261 -0.45762938 -0.0028213679)
(-1.4822239 -0.4638238 -0.0027279877)
(-1.5091331 -0.47000515 -0.0026295573)
(-1.5360465 -0.4761726 -0.0025298296)
(-1.5629674 -0.48232826 -0.0024268374)
(-1.5898869 -0.48847168 -0.0023268502)
(-1.6168051 -0.4946036 -0.0022270733)
(-1.6437118 -0.50071969 -0.0021330368)
(-1.6706113 -0.50682679 -0.0020443549)
(-1.6974887 -0.51291453 -0.0019648015)
(-1.7243537 -0.51899204 -0.0018940171)
(-1.7511918 -0.52505295 -0.0018333593)
(-1.7780124 -0.53109957 -0.0017818645)
(-1.8048103 -0.53713649 -0.0017363549)
(-1.8315961 -0.54316222 -0.0016962757)
(0.00035697011 -0.0062342522 -0.0069930859)
(6.3080272e-05 -0.0072882977 -0.0093295801)
(-0.0012807491 -0.011900066 -0.010560435)
(-0.0025160728 -0.014327587 -0.012097918)
(-0.0047179432 -0.017905257 -0.012728187)
(-0.0075289822 -0.02097376 -0.013306464)
(-0.011183154 -0.024482245 -0.013605879)
(-0.015385755 -0.027829449 -0.013852096)
(-0.020411976 -0.031361405 -0.013979603)
(-0.026052917 -0.034899792 -0.013972791)
(-0.032344314 -0.038544719 -0.014014109)
(-0.039244552 -0.042216473 -0.013892941)
(-0.046746089 -0.045986618 -0.013859996)
(-0.054840254 -0.049763664 -0.013708198)
(-0.06348234 -0.053647376 -0.013638837)
(-0.072709944 -0.057545306 -0.013447305)
(-0.082402482 -0.061533782 -0.013374089)
(-0.092711185 -0.065537976 -0.013200059)
(-0.10346677 -0.069642337 -0.013094599)
(-0.11477179 -0.073764932 -0.012938602)
(-0.1265521 -0.077974635 -0.012834216)
(-0.13884225 -0.082240397 -0.012676643)
(-0.15160127 -0.086566309 -0.012578822)
(-0.16486615 -0.090963026 -0.012438457)
(-0.17859976 -0.095422017 -0.012329824)
(-0.19280441 -0.099974793 -0.012188002)
(-0.20749038 -0.10457344 -0.012078578)
(-0.22264666 -0.10926538 -0.0119439)
(-0.23826194 -0.11403634 -0.011807849)
(-0.25434627 -0.1188824 -0.011664105)
(-0.27088741 -0.12381017 -0.011526552)
(-0.2878796 -0.12882632 -0.011361735)
(-0.30530653 -0.13392184 -0.011199136)
(-0.32317993 -0.13909524 -0.011024499)
(-0.341481 -0.14435908 -0.010841165)
(-0.36019081 -0.14970434 -0.01065078)
(-0.37931672 -0.155123 -0.010457203)
(-0.39883043 -0.16062316 -0.010254199)
(-0.41871655 -0.1661892 -0.010048656)
(-0.43896703 -0.1718348 -0.0098417183)
(-0.45957383 -0.17753662 -0.0096264742)
(-0.48051123 -0.18331616 -0.0094177412)
(-0.5017848 -0.18914651 -0.0092034641)
(-0.52336169 -0.19503889 -0.0090000613)
(-0.54524474 -0.2009881 -0.0087903823)
(-0.56741871 -0.20698959 -0.0085888868)
(-0.58987403 -0.21304077 -0.0083868708)
(-0.61260268 -0.21914235 -0.0081894101)
(-0.63559778 -0.22528975 -0.0079907986)
(-0.65885126 -0.23148458 -0.0077950878)
(-0.68235785 -0.23772303 -0.007596645)
(-0.70611149 -0.24400626 -0.0073980067)
(-0.73010603 -0.25033154 -0.0071954316)
(-0.75433604 -0.25669808 -0.0069902703)
(-0.77879471 -0.2631042 -0.0067800284)
(-0.80347535 -0.26954761 -0.0065661056)
(-0.82836989 -0.27602557 -0.0063473233)
(-0.85346985 -0.28253502 -0.006125407)
(-0.87876505 -0.28907204 -0.0059003509)
(-0.90424518 -0.29563207 -0.0056743309)
(-0.92989809 -0.30221032 -0.005448781)
(-0.95571124 -0.30880155 -0.0052253185)
(-0.98167231 -0.31539859 -0.0050074047)
(-1.007766 -0.32199889 -0.0047947557)
(-1.033979 -0.32859169 -0.0045924598)
(-1.0603025 -0.33518445 -0.004399487)
(-1.0867026 -0.34173918 -0.004225892)
(-1.1132023 -0.34828487 -0.0040588952)
(-1.1397701 -0.35480866 -0.0039012642)
(-1.1663941 -0.36130344 -0.0037630576)
(-1.1930681 -0.36776941 -0.0036350545)
(-1.2197823 -0.37420182 -0.0035220629)
(-1.2465307 -0.38060386 -0.0034191914)
(-1.2733091 -0.38697254 -0.0033272455)
(-1.3001128 -0.39331209 -0.0032416288)
(-1.3269375 -0.39962091 -0.0031623831)
(-1.3537811 -0.40590468 -0.0030847614)
(-1.3806419 -0.41216215 -0.003010058)
(-1.4075174 -0.41840104 -0.0029325891)
(-1.4344069 -0.42461673 -0.0028557856)
(-1.4613082 -0.43082197 -0.002772465)
(-1.4882192 -0.43700654 -0.0026897749)
(-1.5151403 -0.44318346 -0.0026012746)
(-1.5420633 -0.449346 -0.0025084395)
(-1.5689909 -0.45550525 -0.0024177187)
(-1.5959156 -0.46164585 -0.0023257261)
(-1.622837 -0.46777895 -0.0022359642)
(-1.6497438 -0.47390115 -0.0021490905)
(-1.6766451 -0.48000926 -0.0020684928)
(-1.7035204 -0.4861072 -0.0019930502)
(-1.7303851 -0.49218782 -0.0019274233)
(-1.7572217 -0.4982572 -0.0018666436)
(-1.7840411 -0.50430839 -0.0018166555)
(-1.8108375 -0.51034958 -0.0017672032)
(-1.8376226 -0.51637641 -0.0017246014)
(0.0014782626 -0.0047069846 -0.0063200907)
(0.0010745266 -0.0060467995 -0.0078106657)
(0.00061564309 -0.0093817045 -0.0091815643)
(-0.001099627 -0.011783035 -0.010258074)
(-0.0032101425 -0.014554433 -0.010711793)
(-0.0063208616 -0.017373066 -0.01114139)
(-0.0098217222 -0.020109358 -0.011448933)
(-0.0143177 -0.023013912 -0.011638346)
(-0.019320897 -0.025820222 -0.011687572)
(-0.025052437 -0.028891825 -0.011778636)
(-0.031396717 -0.031809336 -0.011729575)
(-0.038396346 -0.035000845 -0.011731554)
(-0.045971445 -0.038057012 -0.011636982)
(-0.054136884 -0.041353912 -0.011599379)
(-0.062893099 -0.044575298 -0.011458875)
(-0.072160454 -0.047958264 -0.011419793)
(-0.082032114 -0.051334096 -0.01127917)
(-0.09237847 -0.054827327 -0.011200618)
(-0.10327998 -0.058349413 -0.011081712)
(-0.11467899 -0.061959847 -0.010995904)
(-0.12658702 -0.065638625 -0.010879925)
(-0.13899116 -0.069370183 -0.010797193)
(-0.15188965 -0.073201222 -0.010689199)
(-0.16526815 -0.077076625 -0.01060009)
(-0.17913318 -0.081064807 -0.010492993)
(-0.19347549 -0.085100669 -0.010404036)
(-0.20829926 -0.089238764 -0.010303591)
(-0.22357904 -0.093456908 -0.010195109)
(-0.23934808 -0.097760992 -0.010091373)
(-0.25556412 -0.1021541 -0.0099830976)
(-0.27225029 -0.10663803 -0.0098605008)
(-0.28937832 -0.11121821 -0.00973384)
(-0.30696272 -0.11588391 -0.0096068782)
(-0.32497807 -0.12064895 -0.0094661646)
(-0.34341971 -0.12550483 -0.009321221)
(-0.3622764 -0.1304484 -0.0091711382)
(-0.38152737 -0.13548326 -0.0090145201)
(-0.40116556 -0.1405979 -0.0088553079)
(-0.42120168 -0.14581551 -0.0086893771)
(-0.44159749 -0.15109937 -0.0085161989)
(-0.46233859 -0.15647791 -0.0083506203)
(-0.48342126 -0.16192306 -0.0081743752)
(-0.50482385 -0.16744341 -0.0080107468)
(-0.52653943 -0.17303371 -0.0078399532)
(-0.54855677 -0.17868951 -0.0076721314)
(-0.57086046 -0.18440903 -0.0075073887)
(-0.59344519 -0.19018919 -0.0073423597)
(-0.6163007 -0.19602939 -0.0071789927)
(-0.63942006 -0.20192537 -0.0070162436)
(-0.66279558 -0.20787775 -0.0068533047)
(-0.68642223 -0.21388372 -0.0066886464)
(-0.71029253 -0.21994298 -0.0065230482)
(-0.73440164 -0.22605342 -0.0063539506)
(-0.75874281 -0.23221434 -0.0061822198)
(-0.78330974 -0.23842375 -0.0060065305)
(-0.80809511 -0.24467948 -0.0058274514)
(-0.83309103 -0.25097935 -0.0056448511)
(-0.8582884 -0.25732006 -0.0054595916)
(-0.88367735 -0.26369793 -0.0052723329)
(-0.90924706 -0.27010899 -0.0050848196)
(-0.9349854 -0.27654784 -0.0048979299)
(-0.96088014 -0.28300978 -0.0047138738)
(-0.98691788 -0.28948817 -0.0045345953)
(-1.0130843 -0.29597917 -0.004360148)
(-1.0393676 -0.30247323 -0.004195483)
(-1.0657521 -0.30896683 -0.0040388991)
(-1.092223 -0.31546365 -0.0038967871)
(-1.1187735 -0.32192957 -0.0037503614)
(-1.1454015 -0.32838332 -0.0036408992)
(-1.1720669 -0.33482303 -0.003528689)
(-1.1987849 -0.34123595 -0.0034314001)
(-1.2255368 -0.34762494 -0.0033434422)
(-1.2523224 -0.35399086 -0.0032621685)
(-1.2791333 -0.36032887 -0.0031897857)
(-1.3059667 -0.36664009 -0.0031209353)
(-1.3328182 -0.3729267 -0.0030570108)
(-1.3596854 -0.3791905 -0.0029931834)
(-1.3865674 -0.38543167 -0.0029303228)
(-1.4134609 -0.39165563 -0.0028647918)
(-1.4403663 -0.39786121 -0.0027974242)