/*--------------------------------*- C++ -*----------------------------------*\
  =========                 |
  \\      /  F ield         | OpenFOAM: The Open Source CFD Toolbox
   \\    /   O peration     | Website:  https://openfoam.org
    \\  /    A nd           | Version:  6
     \\/     M anipulation  |
\*---------------------------------------------------------------------------*/
FoamFile
{
    version     2.0;
    format      ascii;
    class       pointScalarField;
    location    "1.91";
    object      E;
}
// * * * * * * * * * * * * * * * * * * * * * * * * * * * * * * * * * * * * * //

dimensions      [1 -1 -2 0 0 0 0];

internalField   nonuniform List<scalar> 
625
(
347.02424
-5868.8582
27858.301
24351.899
5859.6824
-407.84865
26783.933
27549.7
-882.93085
-1372.394
-1207.5038
27762.005
20851.755
25442.728
1827.1954
-576.01709
-1200.3544
959.04979
-3430.7605
489.07032
-1722.3617
-1615.6497
36.945553
-1378.9902
-716.15302
-196.45291
1109.1565
1447.2853
3618.9306
4922.2716
7077.2234
9468.3858
12763.439
14917.942
20008.765
20645.588
26068.71
6931.399
-4175.6314
12760.553
8533.4404
4580.6694
15610.223
5339.0294
11116.632
11512.104
8640.8688
12590.56
11397.509
12747.779
13129.577
14566.842
15401.867
16969.907
18428.452
20501.707
21433.847
24990.441
24783.742
27943.124
1022.8581
632.21577
-2447.9462
6640.2801
23133.951
-7786.5868
9972.3046
18720.416
3455.8311
9873.1619
13199.094
8982.7533
16107.554
10399.28
16392.936
14907.99
17041.8
18801.39
18862.654
21105.063
21404.091
22688.079
23138.652
23859.693
24455.034
26903.345
24892.127
17892.528
28986.978
28132.648
21747.265
20678.655
17145.229
14576.04
11865.814
9460.6419
7466.6919
5761.2066
4576.5848
2551.9203
3287.2683
849.00151
2575.2669
306.25684
-454.08243
1210.9924
1488.5942
375.86942
-4896.5437
6843.2985
-1608.7283
7183.5785
592.33445
953.48225
140.70245
-4760.2389
-4354.8997
-4723.4365
23504.729
25622.808
24725.234
26757.433
27859.432
27247.505
4309.0917
92.843219
490.00104
-56.021254
-2118.6064
-226.35459
-2186.6167
-1215.2499
-2131.0013
-2015.2798
-647.44548
-784.69158
257.10548
1085.4094
2539.5657
3929.0952
6258.3751
8186.3927
11269.24
13970.103
17768.349
19482.809
27618.814
973.21343
-553.40414
1136.9465
-953.37886
890.99145
1098.778
-660.71388
1753.7112
165.52155
2284.6415
1105.57
2020.1668
2487.8806
3435.3607
4267.7451
5701.406
6968.4947
8653.3453
11059.097
12473.003
16110.429
17480.262
27874.521
691.30856
-4151.4026
-3504.4718
-5052.5054
-3939.8951
-8604.692
-5039.5459
-7333.8705
-7833.7412
-6203.8339
-7972.6607
-5502.6162
-5876.3126
-4169.054
-3426.4167
-1174.4497
606.56405
3723.8347
6309.2014
11354.028
14386.392
20584.765
27038.03
-794.95428
-263.59836
-831.81913
-1047.7821
-973.03021
100.6696
-1009.1643
-2106.3887
-1995.8608
6888.1963
10102.979
8048.0087
11820.45
7441.2764
11425.82
4246.5689
-2301.9026
6055.3007
10438.435
11573.758
3642.7526
14978.743
6259.2594
16317.82
10624.043
14155.52
10718.731
14941.93
9394.7405
12147.019
13803.845
8056.7926
15026.047
12304.41
13754.255
11589.934
16535.251
11484.112
16840.015
13566.314
13777.271
14051.787
17323.146
13735.11
16637.841
15808.353
15134.219
17768.384
18436.184
16195.863
18007.475
18500.517
17261.222
20133.284
19656.143
18723.671
20514.604
20779.863
19851.557
21571.849
21310.869
20970.894
22484.009
22451.278
22540.597
23266.891
22923.255
23458.336
23539.892
23766.324
24484.384
24153.459
23753.141
25285.797
24742.26
25648.719
26354.341
25769.393
28110.153
29142.675
28110.284
19711.903
20875.671
18004.009
27508.845
28054.328
26896.276
1454.1671
5799.7606
2685.2815
-2529.899
-2051.5782
-766.0787
4191.2332
2008.676
7254.8318
-1388.446
-956.41797
-971.5829
3238.6205
1093.072
3874.3072
2292.1211
-2057.5742
4120.9016
1627.0584
929.24634
3786.4614
2557.3144
-649.8042
3828.4865
2100.5537
1425.1095
2792.39
4015.2149
-733.9674
6682.0395
2886.3846
1560.6376
4132.9865
5367.5832
1258.0926
6214.38
4969.8737
2802.5064
6261.2646
6886.1281
3453.9931
7429.255
8202.7345
5344.4125
8964.3473
9625.3545
6796.6404
10214.491
11857.829
9048.2487
12038.387
13508.224
11212.121
13951.43
16338.089
14349.422
16067.049
17679.603
16676.834
17890.009
21508.054
20905.365
20990.581
22065.114
21098.415
21437.891
26870.455
26746.587
27051.647
3169.7956
506.83538
-3498.693
950.03161
-5112.2137
-1842.5861
-2972.9558
-3064.0323
-3785.9493
-1595.1608
-3163.2783
-1121.9572
-1191.7222
110.80871
1361.9835
3132.7911
5043.5049
7763.8434
10559.722
14142.878
18647.879
21402.32
30188.464
663.07208
3780.3907
-1538.6343
4883.4021
932.45354
6757.8345
3179.9202
5934.3677
5819.9504
6153.5809
5942.5248
7985.8278
6847.677
9082.9647
9641.1653
10973.985
12761.498
14346.122
16412.323
18096.212
21010.296
19986.471
31911.377
356.77477
-5903.1126
-1773.873
-11839.117
-5048.951
-5859.0418
-12396.29
-3690.2459
-12633.961
-5473.7139
-9642.2575
-7028.9151
-7141.5666
-5725.4304
-4274.8194
-1995.4585
557.15655
3787.0822
7833.9949
12474.841
17247.863
23041.79
28328.028
1244.226
2409.2428
2149.9702
-143.82647
429.2677
630.10581
-774.6475
-2919.8745
-1098.9196
-986.77491
219.8916
627.63393
143.31652
-3549.2688
-510.76066
-637.64192
-244.44581
-150.70353
-696.93922
-3137.5673
-533.38536
-70.947281
-608.14328
469.56547
171.76708
-3432.8497
-1211.2354
592.54465
-614.67662
1409.9664
1211.8598
-1273.7228
-396.00986
1207.6877
-774.87015
1950.6285
2523.0469
286.58144
1840.721
3358.6263
1101.527
3168.6852
4527.2968
2283.9806
3984.5616
6070.3018
4042.4968
5685.8848
7830.2099
5827.9213
7093.2633
9717.3689
8341.2067
9223.5914
12383.018
10920.765
11574.957
13704.615
14889.294
13880.938
16397.254
19482.177
17271.514
20881.633
19744.596
18861.064
27510.385
27868.476
28001.424
-158.79263
229.3359
441.64172
1318.6066
2661.9762
3049.9563
916.17143
-1804.9387
108.23887
1254.3423
3838.5951
4079.5071
3750.1173
921.18735
742.40718
1990.345
2745.6776
3852.0395
3014.598
2047.5463
2279.7442
4386.228
3282.9703
2700.3739
2886.0623
2368.6464
3144.1458
4615.3255
3897.3761
3321.3555
4829.9741
2902.2031
3847.2189
5502.3918
4101.1325
4686.1656
6394.5341
4769.3924
5108.5579
6866.1273
5323.7844
5614.4843
8261.84
6678.5646
7077.2004
9103.2657
7556.4657
7663.9632
10659.95
9254.3687
9377.2903
12017
10646.841
10593.386
14193.315
13051.153
12756.174
16155.098
14279.64
14154.75
20401.929
15467.213
18341.839
19404.163
18291.239
17866.552
28513.276
29132.177
29408.633
3556.1316
3343.4439
2288.8088
-4693.106
-7320.9605
-6218.6472
-2439.5735
818.7512
1759.3435
-1659.5287
-8101.1164
-6319.0938
-4712.0789
-4804.822
-2803.7046
-2924.3207
-7719.8784
-4204.0511
-1549.5203
-7934.7715
-4926.7528
-4926.2155
-7728.2643
-2657.1891
-1470.491
-8872.9961
-4489.1896
-2643.9829
-7885.1585
-2722.9152
-2579.657
-8405.6408
-2952.5896
-1441.2508
-7023.9049
-2443.0471
-1366.0136
-7251.7267
-1484.1351
113.24569
-5441.0049
-501.7128
1277.1018
-4548.8099
759.3884
3009.4749
-2309.2771
2741.3694
5196.8608
27.55037
4906.4544
7722.3863
3278.4117
7568.2452
10830.705
6360.1898
10472.005
14105.815
11637.535
14586.525
17919.005
15121.412
17284.652
22320.448
22237.071
23930.321
27726.905
26462.185
27338.648
)
;

boundaryField
{
    free
    {
        type            zeroGradient;
    }
    fixed
    {
        type            zeroGradient;
    }
    freeTop
    {
        type            zeroGradient;
    }
}


// ************************************************************************* //
