/*--------------------------------*- C++ -*----------------------------------*\
  =========                 |
  \\      /  F ield         | OpenFOAM: The Open Source CFD Toolbox
   \\    /   O peration     | Website:  https://openfoam.org
    \\  /    A nd           | Version:  6
     \\/     M anipulation  |
\*---------------------------------------------------------------------------*/
FoamFile
{
    version     2.0;
    format      ascii;
    class       pointScalarField;
    location    "0.75";
    object      p;
}
// * * * * * * * * * * * * * * * * * * * * * * * * * * * * * * * * * * * * * //

dimensions      [1 -1 -2 0 0 0 0];

internalField   nonuniform List<scalar> 
28033
(
1055703.4
-1427607
8.2897887
40.601122
1959653.1
-2058746.1
-140.36117
29.5926
895063.97
779317.2
669538.8
550049.1
417130.2
295089.31
171348.59
33441.534
-102810.39
-229890.18
-375126.46
-462204.13
-630732.25
-777223.54
-757266.08
-145.87751
-56.45395
-190.73062
-309.83079
-230.53296
-369.00696
-157.89923
-36.058648
-3.6195872
104.6042
456.04281
330.19503
491.94421
310.47602
189.01228
282989.27
294560.27
264990.81
282471.9
270673.23
277814.18
275379.81
274234.22
270432.8
269087.72
262690.24
257151.7
252397.34
246322.23
238933.88
231275.66
225607.92
217546.47
210390.15
202589.8
196047.46
188047.27
182221.18
175006.47
168302.72
162290.67
156103.82
150121.69
144297
138644.29
133151.38
127140.03
121936.26
116287.48
110435.93
105042.45
99431.378
94495.456
88277.485
83264.796
77442.915
72205.334
66938.874
62072.61
57055.65
52547.542
47902.557
43716.218
39374.212
35474.505
31363.633
27584.178
23669.415
19879.356
16051.266
12249.121
8438.7129
4657.722
928.51355
-2716.9572
-6235.7964
-9561.7303
-12650.356
-15430.933
-17965.734
-19992.156
-21447.554
-22717.515
-23506.297
-23635.396
-23502.214
-23007.56
-22106.88
-20893.822
-19512.023
-17884.153
-16246.327
-14520.763
-12877.989
-11298.615
-9925.8879
-8549.4227
-7368.0861
-6292.0711
-5531.1814
-4806.7422
-4289.1641
-3757.6265
-3345.1551
-2861.8013
-2381.2615
-2045.5875
-1246.9253
-796.63506
-435.90867
-258378.25
-211923.23
-246024.17
-218137.03
-245927.96
-236671.63
-243819.68
-234882.04
-239608.63
-230482.87
-231275.92
-223070.41
-220005.89
-214298.92
-208720.79
-202637.64
-196528.04
-189320.51
-183994.14
-176624.99
-169786.21
-164303.34
-156186.36
-151263.32
-143781.48
-137948.93
-131660.04
-125411.19
-119749.01
-113438.31
-107508.54
-102092.2
-96108.939
-91042.89
-85549.564
-80648.541
-74899.309
-70138.747
-64729.086
-60145.526
-55193.07
-50564.593
-45925.184
-41538.067
-37094.114
-32922.258
-28707.147
-24657.785
-20638.691
-16691.614
-12775.21
-8908.7158
-5054.9304
-1270.1481
2517.2585
6202.9024
9832.8176
13339.838
16711.432
19877.097
22850.16
25518.705
27912.83
29950.989
31642.74
32902.781
33844.481
34322.303
34498.995
34131.457
33655.546
32712.823
31624.84
30325.065
28905.645
27371.265
25832.712
24222.162
22722.139
21231.864
19884.104
18530.963
17324.389
16093.771
14972.829
13788.326
12642.008
11403.899
10141.368
8766.0146
7340.4268
5811.3915
4299.4878
2687.2068
1252.5862
1591319.3
1501072.6
1081331.4
1101688.9
767570.23
474141.1
317311.74
20439.971
-194510.37
-482541.28
-676904.82
-948058.6
-1212558.3
-1432300.6
-1533460.3
-421972.83
-317239.83
-148920.22
-297618.61
-245931.17
-258595.43
-247678.56
-259600.64
-243784.25
-249922.39
-248520.16
-232489.85
-237407.75
-219856.21
-225169.52
-212310.82
-207246.46
-193956.65
-190075.89
-180194.8
-172560.12
-164734.97
-160795.16
-153750.28
-146210.18
-141612.2
-132892.89
-130136.01
-121261.24
-118233.54
-111899.63
-107329.23
-101180.12
-96662.708
-91059.804
-84784.984
-79814.882
-75128.757
-69608.603
-64381.286
-59073.669
-53994.212
-48945.13
-44060.604
-39286.614
-34790.735
-30293.982
-26068.052
-21889.851
-17934.385
-14011.396
-10215.771
-6462.3606
-2762.4577
916.35502
4603.8687
8203.3502
11840.643
15362.411
18802.257
22115.278
25220.784
28091.748
30677.848
32908.678
34766.251
36290.43
37449.205
36580.603
37915.03
37224.233
36331.515
35161.1
33617.227
31803.334
29791.178
27670.285
25427.381
23254.773
21094.639
19091.724
17151.222
15467.518
13805.431
12409.465
11041.92
9873.0781
8686.4
7629.1133
6537.3113
5437.6963
4352.8341
3143.4509
2030.3945
866.53809
90.251379
-52.297116
164.65252
333.89014
546.78339
645.87526
1028.8093
663.86253
585.5904
867.44604
632.36191
366.8881
556.83167
261.80482
172.19903
-550.40579
-1392.7109
-2447.3852
-3566.9774
-4537.263
-5580.6419
-6492.7588
-7334.5735
-8070.4323
-8785.8038
-9459.9607
-10091.848
-10789.972
-11556.537
-12447.907
-13338.046
-14375.633
-15474.344
-16611.589
-17776.747
-18929.453
-20003.253
-20935.888
-21682.872
-22284.978
-22462.869
-21391.187
-23246.77
-21075.697
-20107.363
-18491.743
-16446.93
-14044.911
-11304.386
-8230.0697
-4902.1096
-1298.9285
2427.3013
6369.5159
10366.877
14485.545
18611.484
22844.521
27028.802
31320.036
35583.656
39946.104
44327.258
48814.147
53341.145
58090.165
62692.8
67785.973
72763.546
77672.491
83213.693
88217.372
92215.225
100579.7
104942.98
109357.73
118555.23
122168
129034.46
132265.53
142804.26
144202
155338.89
159666.38
167440.35
173539.53
178141.05
189629.95
194041.79
199539.8
209954.51
213817.05
223673.11
227736.42
238472.43
247422.96
246247.1
253100.24
262319.04
268187.56
267614.85
276468.23
275686.24
276406.13
272799.57
272826.55
285897.11
279820.6
258489.53
333483.83
795614.83
847099.75
890462.28
927275.73
942771.48
970779.67
966454.66
980893.08
966148.52
944478.47
960555.53
897886.67
869778.6
905709.88
720761.32
-1166544.4
-1487242.2
-1480099.1
-1595480.1
-1563423.2
-1489363.4
-1711095.1
-1829780.5
-1715144.3
-1723866.8
-1658498.6
-1601676
-1505763.4
-1487676.8
-1388182.1
-492.08127
-783.15686
-1384.4341
-1828.3942
-2183.5997
-2492.0088
-2664.3381
-2692.1935
-2634.5105
-2401.5593
-2022.4623
-1704.3401
-1263.3577
-649.53156
-648.38984
37.562653
412.18422
966.25472
1455.9862
1826.4674
2153.2904
2367.3243
2466.2
2479.4733
2331.1846
2107.2817
1739.81
1324.8137
869.0382
388.67741
260451.83
270124.15
240749.49
240128.11
244155.68
245608.31
245235.34
245090.4
243512.38
240019.8
235452.93
233503.39
226641.56
221349.05
214352.63
210597.33
202181.08
196533.41
188864.39
183554.38
176576.13
171132.63
164259.8
158330.53
152403.42
147446.11
141421.82
136252.96
131033.32
126121.15
120479.09
115871.43
111423.33
106260.55
101418.75
96245.319
91379.958
85923.075
81092.975
76478.036
71460.058
66609.412
61981.293
57267.038
52811.922
48550.408
44293.377
40426.543
36484.325
32870.312
29225.954
25805.21
22353.45
19031.2
15704.293
12420.27
9146.6382
5909.6706
2710.4029
-435.50013
-3483.2057
-6386.6357
-9131.3008
-11679.98
-13935.762
-15711.226
-17479.743
-18751.755
-19712.073
-20069.442
-20323.919
-19946.4
-19422.052
-18580.513
-17473.802
-16118.843
-14716.334
-13152.951
-11615.965
-10093.958
-8684.9012
-7369.8015
-6221.2058
-5362.4307
-4564.6999
-3822.3394
-3286.88
-2814.6839
-2418.8689
-2125.1972
-1835.8022
-1619.5432
-1217.294
-973.12865
-703.41925
241638.48
227047.55
199033.79
205970.17
205557.51
206257.45
205820.33
206651.41
204810.81
203796.23
200228.01
197509.25
192567.56
189286.8
183613.24
178637.17
172843.15
168259.98
162242.65
157059.82
151469.53
145694.34
140882.18
135938.67
131226.93
126113.94
121943.02
117449.63
113106.74
108773.99
104866.41
100658.33
96367.871
92105.71
87895.482
83781.725
79545.779
75335.514
71132.336
66877.934
62520.903
58647.893
54292.57
50404.295
46528.949
42893.7
39287.849
35976.281
32621.451
29577.769
26483.136
23613.457
20708.871
17939.418
15154.739
12418.943
9689.8574
6995.1854
4306.1947
1677.9014
-890.80184
-3344.5537
-5703.6218
-7873.5503
-9765.0863
-11481.379
-13194.75
-14637.71
-15332.696
-16220.229
-16513.759
-16461.264
-16267.358
-15631.335
-14766.516
-13709.311
-12593.553
-11236.28
-9971.8509
-8620.6842
-7384.3034
-6186.4022
-5032.227
-4033.3541
-3301.8619
-2735.4778
-2284.0461
-1955.4394
-1723.9484
-1539.4078
-1421.4613
-1385.4681
-1092.1925
-1037.4529
-831.7713
192466.48
193658.13
164522.27
173570.36
169385
171993.6
172844.56
173878.27
171773.3
170884.13
167952.29
166068.43
161918.96
158546.58
153850.86
150536.38
145214.23
141250.66
136007.63
132091.13
127196.38
123314.16
118976.5
114952.8
110568.02
107124.76
103242.49
99454.639
96027.235
92516.497
88972.142
85473.046
82118.687
78653.748
75225.284
71613.186
68151.564
64648.116
61128.225
57540.41
53802.875
50320.625
46918.453
43630.651
40414.549
37282.152
34238.476
31390.66
28613.751
26011.261
23459.836
21062.103
18664.826
16387.674
14091.205
11844.703
9598.2917
7363.4737
5126.796
2928.8978
756.77973
-1349.6516
-3381.5176
-5248.1794
-6978.5555
-8527.2117
-9949.3868
-10827.012
-11933.907
-12346.445
-12762.999
-12715.781
-12373.784
-11923.739
-11278.422
-10410.816
-9475.8639
-8439.2905
-7349.4115
-6286.2429
-5239.8068
-4295.842
-3403.8575
-2889.0328
-2176.1956
-1653.3312
-1259.7759
-1109.3906
-954.53329
-956.60184
-977.97493
-1047.4299
-996.56672
-860.82138
-831.90332
154509.52
157286.72
128817.5
139943.72
132827.57
137621.11
137091.69
137905.1
136385.32
137041.4
134374.09
133416.25
129453.28
128158.77
123726.64
121384.98
116704.7
114414.74
109797.61
106937.75
102755.17
99715.843
96017.456
92824.163
89877.887
86819.884
83938.702
81261.018
78526.585
75740.423
73256.803
70473.294
67878.963
65069.757
62554.827
59424.034
56964.281
53535.198
50745.594
47755.82
45177.843
42243.176
39454.181
36638.18
34019.333
31502.702
29071.305
26832.414
24645.526
22620.33
20653.291
18822.866
16997.77
15285.489
13541.451
11859.265
10137.32
8436.4064
6696.2237
4982.0112
3242.2229
1537.9691
-113.02277
-1714.2822
-3203.1281
-4624.5554
-5832.4182
-6703.77
-7589.542
-8064.7727
-8500.9531
-8750.8998
-8755.1524
-8532.028
-7954.6642
-7330.3134
-6541.6861
-5712.4878
-4830.2456
-3951.0483
-3113.1493
-2355.0873
-1686.6454
-1024.2164
-620.3758
-341.01215
-209.64886
-69.293018
-101.98735
-130.6149
-332.77577
-427.30583
-553.28965
-534.68759
-739.4174
126999.62
118339.19
97482.901
105913.86
102963.45
105090.67
105518.88
106171.01
104856.81
104808.32
103059.57
101476.96
99470.898
97557.771
94428.79
92651.349
88969.514
87223.453
83463.918
81655.247
78428.537
76512.268
73448.594
71808.059
69101.644
67159.331
65000.662
62958.522
60934.122
59106.748
57099.448
55139.484
53221.602
51273.778
49164.279
47111.403
45609.068
44109.016
41939.978
40883.854
38069.898
35916.525
33757.169
31574.121
29494.332
27462.71
25478.874
23652.862
21905.411
20254.234
18698.024
17237.162
15794.021
14435.171
13063.405
11721.311
10353.035
8979.4701
7576.1369
6161.8704
4711.4784
3303.8938
1863.4508
537.41528
-861.81619
-1908.5728
-3204.8252
-3912.8701
-4782.3965
-5345.4334
-5656.9026
-5816.2484
-5817.8939
-5458.3445
-5045.7051
-4523.7327
-3958.1312
-3313.9107
-2633.3549
-1959.8461
-1314.5006
-732.23533
-189.97271
193.57715
525.07889
641.63263
736.36533
689.56685
566.70377
411.30936
85.097922
-46.589598
-361.36914
-355.07704
-654.22637
81256.685
85227.495
65302.617
75284.872
69988.557
71611.306
72428.792
73286.468
71409.955
73152.067
70525.168
71015.688
68231.313
68082.246
65062.834
64542.103
61503.33
61067.736
57685.637
57208.018
54277.718
53300.123
51168.669
50132.279
48235.424
47324.825
45849.777
44813.752
43670.151
42462.546
41374.195
40142.192
39073.308
37648
36437.667
35183.857
34053.706
33221.99
31716.834
30409.16
29364.14
27637.302
25970.962
24434.653
22917.913
21468.219
20083.712
18842.972
17643.854
16570.682
15556.186
14631.617
13716.579
12877.619
12017.514
11161.65
10286.9
9379.9584
8417.3969
7432.6305
6396.9141
5331.6505
4261.599
3175.192
2140.852
1136.4875
195.12366
-584.00075
-1285.9704
-1824.9353
-2237.2495
-2471.9556
-2625.5289
-2201.899
-1870.4716
-1539.2283
-1156.6283
-692.08177
-247.91345
254.19898
693.03566
1106.4957
1436.03
1684.1136
1862.2006
1867.8949
1871.8063
1705.7797
1473.3492
1199.7589
750.82125
532.95694
4.6043286
43.602428
-348.31841
49091.277
45362.941
37108.66
43570.491
38790.208
40484.183
41409.576
41012.497
40392.984
40231.14
39919.751
38625.776
38182.356
37483.417
35818.371
35679.288
33677.719
33485.94
31533.122
31860.876
29785.595
30282.383
28610.875
28788.53
27641.283
27690.406
26779.438
26742.716
26018.751
25842.816
25330.461
24964.866
24400.799
23885.645
23314.868
22585.444
21862.889
21239.167
20296.964
18879.059
18200.946
17301.776
16361.081
15627.754
14856.811
14180.877
13479.873
12973.223
12414.838
12007.442
11595.488
11261.552
10906.372
10611.793
10249.585
9896.0879
9484.2549
9030.6035
8497.3343
7937.9214
7290.7398
6612.0623
5896.098
5175.9985
4417.8275
3733.2937
3067.1166
2453.2311
1922.8082
1523.2095
1228.1914
1033.1078
1164.4767
955.39248
1033.0559
1250.7717
1528.0476
1842.3439
2175.9844
2535.1001
2828.2904
3094.9866
3296.2795
3374.6194
3423.2513
3283.6603
3144.6869
2776.4157
2452.0781
1967.8259
1462.0943
1079.929
444.86908
410.09841
-218.66783
4404.7263
10836.127
3975.6223
9906.448
7522.3096
9246.6065
8758.7601
9948.0009
7547.588
10023.387
7893.1653
8874.112
7838.2336
8298.332
7092.6819
8039.3838
6421.7269
7782.1906
6229.302
7341.0038
6204.6294
7319.8834
6228.1139
7433.925
6891.3895
7828.5083
7810.4187
8501.5837
8721.2219
9247.7658
9566.1788
9821.1824
10204.298
10343.858
10563.271
10495.358
10778.946
10486.686
10602.942
10220.309
10084.899
9913.0562
9580.4826
9324.8762
9185.8863
8966.7047
8864.0249
8853.9367
8846.5518
8928.1036
9050.9573
9220.0677
9391.3422
9596.1547
9761.6373
9910.0763
10004.193
10036.487
9980.133
9863.3857
9626.1954
9336.1076
8946.114
8492.4586
7992.0813
7464.9573
6892.0214
6374.7382
5864.4051
5387.3369
4976.7537
4679.4919
4381.0695
4163.9238
4058.7165
4029.7237
4018.8986
4121.9462
4237.78
4355.6188
4479.0408
4544.5602
4606.6499
4532.3908
4471.3171
4221.3514
3972.8247
3593.043
3152.4304
2695.4171
2036.7876
1694.6714
815.07176
822.20337
69.131478
-26304.635
-26233.335
-22909.182
-19971.179
-20848.317
-21992.096
-21004.506
-22441.499
-22025.501
-22775.845
-22054.992
-22674.16
-22075.15
-21665.01
-21550.946
-20770.811
-20774.088
-19258.017
-20014.236
-17667.935
-18282.47
-16237.101
-16211.76
-14040.654
-13921.404
-11761.102
-11459.892
-9540.841
-8910.7903
-7344.0412
-6585.6369
-5303.0112
-4442.2952
-3494.7749
-2724.055
-1884.8769
-1360.1324
-702.81389
-141.86584
296.8707
699.93514
1166.2716
1479.8717
1977.7202
2396.8815
2858.8698
3336.0287
3931.4865
4472.4525
5113.9226
5763.5341
6445.1511
7091.89
7769.6674
8376.7876
8945.279
9445.1516
9863.4168
10173.065
10398.436
10509.782
10508.262
10416.689
10237.833
9967.688
9649.5515
9305.0672
8924.93
8543.2704
8169.2942
7866.6758
7537.8184
7311.6453
7132.631
7038.256
7020.089
6994.3782
7032.326
7007.4573
7032.0289
6995.0135
6936.8277
6800.3724
6594.4211
6324.2085
5908.0708
5509.9127
4887.665
4319.2502
3617.3155
2811.4238
2288.4076
1286.2286
1113.7419
313.93687
-67695.38
-65271.949
-54447.9
-53253.112
-55145.758
-54594.99
-55573.665
-54412.764
-56652.097
-54769.243
-55083.323
-54391.937
-53514.453
-52071.488
-51824.488
-49461.784
-48942.712
-46683.746
-45845.138
-43177.683
-42659.566
-38998.381
-37923.803
-34983.89
-33933.335
-31328.228
-29947.945
-27482.901
-25884.521
-23788.234
-22073.252
-20178.584
-18531.271
-16867.486
-15171.497
-13875.383
-12253.339
-11085.802
-9711.6778
-8644.7341
-7483.852
-6440.4422
-5358.4488
-4407.2714
-3345.4231
-2345.2864
-1297.1453
-200.58365
872.61752
2010.0999
3171.0398
4329.4807
5486.9069
6656.9023
7766.1029
8832.1596
9838.682
10743.351
11534.579
12237.776
12770.03
13187.761
13466.546
13597.25
13594.705
13510.685
13300.142
13007.148
12649.934
12288.191
11821.897
11443.009
10952.415
10555.36
9915.6736
9417.1155
9285.9546
9008.2129
8926.449
8685.8725
8604.0229
8294.7958
8121.1247
7727.9253
7383.2144
6872.0987
6361.6789
5677.5129
5045.121
4253.0192
3469.9646
2810.6196
1846.0874
1384.3494
726.10757
-109595.62
-86821.502
-77017.338
-77112.015
-79830.719
-79012.801
-80587.218
-80679.524
-81800.245
-80788.307
-80280.382
-79633.184
-77939.267
-76377.333
-75053.162
-72069.074
-71451.051
-67730.291
-66912.952
-63711.329
-62580.674
-61312.219
-59834.212
-56635.869
-55207.261
-51239.21
-49572.142
-45752.214
-43829.531
-40510.717
-38342.961
-35562.837
-33374.679
-30829.907
-28729.261
-26445.523
-24472.937
-22474.667
-20591.731
-18768.044
-17033.93
-15247.949
-13615.242
-11925.867
-10262.739
-8589.8051
-6953.0445
-5235.3511
-3569.0371
-1842.2821
-138.66256
1568.5741
3241.7251
4900.569
6475.9926
7988.864
9410.117
10703.88
11882.459
12910.078
13786.12
14508.287
15057.442
15453.131
15686.154
15791.462
15760.59
15621.498
15431.664
15123.41
14792.411
14438.493
14066.011
13614.737
13216.726
13022.14
12373.99
12000.514
11602.07
11273.845
10860.602
10478.213
10017.667
9509.1792
8966.7648
8304.3454
7644.8307
6846.5261
6052.9933
5207.8265
4235.4258
3540.3667
2356.7523
2006.64
794.0881
-135122.83
-127650.15
-114348.04
-110326.42
-112414
-111274.11
-114024.21
-113764.37
-113700.68
-113423.23
-112638.01
-110366.45
-109319.06
-106117.63
-104201.33
-101093.89
-98331.27
-94810.745
-92495.121
-88107.32
-86188.462
-81397.788
-80285.337
-77031.167
-74321.395
-70436.545
-67509.339
-63581.672
-60505.704
-56767.407
-53790.298
-50283.857
-47274.267
-44154.245
-41063.687
-38273.087
-35321.77
-32641.801
-29903.636
-27399.922
-24817.944
-22479.531
-20096.48
-17833.488
-15572.776
-13361.582
-11195.231
-8995.1444
-6840.7746
-4686.1999
-2525.4892
-380.96631
1741.8315
3851.4549
5903.8714
7900.1308
9816.9099
11631.318
13307.101
14851.943
16224.537
17404.385
18390.701
19188.853
19728.169
20112.192
20266.825
20261.37
20074.774
19752.613
19289.721
18749.555
18089.16
17447.197
16672.046
16060.842
15412.307
14722.269
14038.385
13368.022
12719.84
12064.802
11405.372
10725.107
10024.105
9273.125
8484.6763
7651.9635
6726.3664
5874.1087
4739.8577
4092.1085
2645.6966
2368.4505
1166.3578
-191233.96
-171827.96
-144432.6
-151585.34
-148455.41
-152885.09
-151939.8
-153453.01
-152194.8
-152021.66
-149448.85
-148198.16
-144450.33
-142030.75
-137938.34
-134239.35
-130281.29
-125739.11
-122059.96
-117078.49
-113536.74
-108212.75
-104445.76
-98692.259
-95426.897
-89985.543
-86957.087
-81550.799
-78187.042
-73355.199
-69785.792
-65347.398
-61889.537
-57846.81
-54361.367
-50680.152
-47184.528
-43799.622
-40538.032
-37297.458
-34227.277
-31167.789
-28179.789
-25258.448
-22388.042
-19544.384
-16771.177
-13960.464
-11229.888
-8487.9848
-5762.5391
-3070.366
-416.49656
2204.8479
4750.3806
7213.5418
9583.0658
11809.482
13891.95
15806.483
17514.634
19017.926
20290.123
21359.031
22103.053
22708.038
23019.651
23139.75
23057.154
22780.939
22358.656
21818.605
21207.199
20451.185
19675.122
18951.167
18129.289
17301.289
16472.569
15654.794
14845.677
14033.452
13227.666
12373.539
11538.083
10607.864
9698.3523
8672.1622
7660.3446
6584.9138
5433.2415
4522.3778
3088.5361
2630.0181
1354.4678
-214981.55
-203356.51
-170134.32
-181828.25
-182106
-185614.3
-184800.41
-186991.74
-185643.29
-183736.08
-182574.13
-178581.54
-175682.5
-171335.23
-166554.11
-161878.7
-156868.47
-151131.27
-146684.45
-140544.56
-135673.84
-129991.35
-125332.84
-120061.12
-115181.84
-109659.92
-104855.6
-99521.907
-95106.116
-89834.669
-85354.362
-80513.329
-75842.126
-71305.304
-66859.803
-62613.198
-58275.362
-54225.811
-50063.153
-46162.987
-42262.709
-38505.943
-34859.363
-31299.717
-27838.484
-24441.648
-21117.291
-17843.517
-14621.215
-11429.225
-8259.2183
-5125.0943
-2013.4877
1071.5895
4106.8068
7080.7914
9974.222
12753.974
15395.813
17857.573
20124.093
22138.884
23902.951
25396.118
26512.376
27461.899
27962.995
28210.973
28160.424
27817.631
27310.271
26533.952
25631.899
24587.418
23481.814
22298.948
21100.172
19905.544
18782.755
17655.698
16616.263
15588.241
14617.193
13650.138
12707.057
11727.332
10740.669
9682.0352
8600.7988
7435.0462
6222.0699
5043.007
3610.7235
2712.7527
1494.7299
-303208.04
-201486.61
-215214.36
-211330.79
-220687.8
-214369.97
-219392.43
-218483.84
-216274.04
-214400.15
-211191.07
-208474.41
-202909.14
-198253.22
-192439.69
-186902.45
-181963.69
-174590.07
-169930.37
-162249.74
-157002.86
-149978.58
-145576.78
-138342.84
-134169.04
-126440.59
-122069.99
-115052.37
-110909.78
-104485.94
-99795.339
-93959.993
-88851.521
-83403.668
-78055.22
-73475.805
-68565.925
-63852.195
-59110.191
-54579.97
-50055.453
-45746.038
-41492.991
-37353.987
-33354.127
-29404.153
-25585.521
-21813.794
-18096.454
-14435.303
-10792.136
-7190.2848
-3608.2949
-52.766235
3446.8986
6888.7214
10250.196
13483.485
16563.607
19463.956
22119.847
24511.68
26607.683
28366.474
29748.404
30844.055
31476.681
31785.191
31724.245
31484.721
30790.247
29920.513
28911.095
27676.616
26346.556
24977.697
23555.055
22191.153
20848.026
19564.659
18332.583
17178.643
16059.984
14994.194
13930.903
12867.881
11777.33
10629.692
9437.5731
8141.9865
6827.6093
5414.3847
3996.8208
2730.0929
1528.673
562277.98
578547.71
565630.36
580241.45
583068.71
587242.95
606271.41
593910.22
587233.72
587385.48
582048.18
561272.93
556831.08
583218.35
492488.46
532496.62
546397.42
522881.05
538786.48
542212.64
552470.74
537005.19
556383.27
549703.28
553458.03
540677.86
537356.28
536011.56
541319.11
462691.05
403367.56
456015
403172.11
421453.1
422524.58
417381.66
422585.71
418545.44
422281.49
414950.55
414161.01
415802.26
388665.95
426618.26
391432.06
350947.04
356535.53
355269.14
350376.08
361515.91
357426.79
363487.15
362100.31
358288.99
359353.93
358516.85
344455.43
346700.48
369159.17
262914.76
254860.19
285707.92
251277.17
271004.38
261214.54
271659.22
266894.54
267033.15
267102.95
266667.51
261538.84
261738.86
258055.98
264890.79
236587.87
193532.71
203332.11
187907.59
194351.16
194450.59
194802.95
193102.62
192929.2
194329.02
191903.62
186498.25
193646.64
180115.91
193265.51
181663.41
112570.6
112629.53
114585.3
108557.83
112945.97
113384.07
111063.74
111073.94
108787.57
109259.17
107069.37
100967.64
107674.98
101818.93
98753.629
30072.665
33098.589
22698.901
30173.544
24672.755
26781.022
24021.735
24980.45
21490.574
27280.916
14174.229
25491.675
30000.612
9896.235
52393.228
-38458.66
-48392.688
-39392.717
-47966.122
-45698.797
-47262.54
-48776.45
-48715.858
-51288.172
-47109.224
-57118.405
-46804.86
-48712.817
-67698.49
949.1793
-111020.49
-137084.04
-125226.11
-129396.16
-132139.79
-133888.91
-137637.22
-136382.49
-142921.09
-132963.34
-154057.93
-130735.35
-131200.37
-161371.47
-73909.004
-188166.42
-235963.32
-197093.47
-223442.28
-212413.54
-221163.45
-218560.62
-220470.96
-222165.78
-213536.62
-220694.72
-215174.12
-203386.41
-231775.49
-131333.87
-289370
-277617.54
-285489.54
-276761.87
-293013.06
-292436.06
-297559.07
-300103.65
-302795.23
-298129.74
-315945.64
-276329.75
-292622.39
-325334.82
-208558.65
-334568.06
-380481.29
-333125.98
-355145.65
-338615.18
-353547.18
-349677.14
-350090.3
-347901.32
-346301.4
-349826.41
-351048.58
-322696.24
-387417.29
-191443.77
-426121.55
-510725.16
-455095.38
-488698.46
-507277.76
-502653.56
-507274.46
-532868.68
-521779.27
-533189.63
-503181.94
-492701.79
-502209.3
-491865.1
-433089.59
-466637.21
-408496.66
-368076.65
-372791.81
-389908.72
-419005.92
-402954.6
-389527.85
-370359.28
-369488.57
-376530.32
-379048.3
-380635.24
-421930.83
-377972.99
-441684.06
-417347.67
-497500.55
-525431.49
-543833.98
-594575.23
-570294.58
-532609.68
-607011.28
-594772.66
-575244.01
-547845.64
-525120.94
-497872.19
-421575.92
-304158.55
-310324.05
-348523.92
-358394.54
-373596.36
-385752.12
-396641.74
-410295.47
-423029.04
-402384.17
-393822.67
-369772.04
-372132.79
-366159.61
-368908.16
-253610.98
-294044.74
-291130.9
-318106.65
-339808.27
-330174.38
-347067.12
-344458.82
-333796.02
-348155.65
-334350.21
-338225.99
-325602.64
-289094.91
-297905.29
-249462.72
-283802.42
-289942.07
-297049.48
-307091.6
-313403.72
-316331.84
-318913.77
-317983.3
-311137.99
-311199
-303716
-289814.24
-284672.83
-267335.07
-264614.73
-293343.13
-287945.38
-309715.79
-314127.86
-321178.98
-327789.82
-327348.23
-329214.09
-328599.69
-319243.2
-312697.63
-298044.75
-285942.74
-280713.14
-255808.01
-267562.61
-274868.57
-286527.24
-292271.01
-300408.51
-300350.42
-302270.84
-302738.39
-297538.3
-295457.08
-288967.82
-279225.96
-271849.58
-256848.21
-251357.15
-271947.8
-273443.65
-284974.29
-287530.65
-294412.98
-296749.61
-297761.62
-297694.92
-294544.2
-288429.31
-284686.51
-276562.78
-265084.37
-266475.63
-252504.09
-258000.27
-266666.91
-270199.4
-279603.76
-280718.65
-284296.85
-285570.18
-284396.98
-282607.6
-278762.47
-273807.82
-267584.59
-259438.53
-252590.83
-244586.39
-257478.46
-259318.21
-268065.42
-268553.95
-275964.08
-274126.93
-276795.66
-275879.78
-272427.45
-270002.94
-265512.48
-260843.72
-255473.19
-250274.17
-243770.52
-246576.86
-252026.46
-253566.75
-258604.25
-259465.42
-262352.37
-262193.33
-261029.66
-261728.01
-257731.1
-256212.92
-251943.16
-247396.66
-244897.7
-235394.13
-243415.66
-244654.85
-250982.86
-252445.18
-256951.78
-256235.44
-258835.6
-258461.08
-256377.73
-255970.22
-253537.6
-249647.79
-246622.71
-244068.31
-233917.88
-234466.11
-238248.57
-239628.09
-242219.53
-242439.41
-245026.73
-245242.34
-245678.16
-245194.76
-244035.13
-242005.31
-240395.72
-237522.54
-236107.72
-227447.47
-229522.86
-230250.04
-233632.72
-234634.71
-237895.3
-237761.49
-239335.01
-239179.56
-238948.71
-237192.49
-237176.57
-233811.94
-233069.28
-231006.25
-221135.75
-221298.8
-224755.21
-224850.87
-227197.87
-227258.68
-228281.85
-228753.01
-229232.16
-228326
-228310.77
-227425.31
-226223.7
-224740.39
-224599.43
-215029.81
-215476.73
-216802.94
-218157.51
-219656.1
-220049.51
-221390.87
-221685.08
-222206.44
-222526.43
-221707.31
-221758.51
-218566.25
-220062.46
-218495.42
-207757.15
-207990.58
-210533.82
-209534.44
-211218.74
-210917.2
-213756.5
-211430.06
-211686.9
-211154.37
-210606.82
-210551.58
-208265.6
-207965.12
-206942.55
-202244.9
-201237.74
-203056
-201851.57
-204254.53
-204474.14
-204587.84
-205512.66
-205428.72
-206075.27
-205257.89
-205825.41
-204994.51
-204040.03
-205000.53
-195084.57
-194602.74
-195460.19
-195012.84
-196138.06
-195910.38
-196716.89
-195958.62
-196097.5
-195603.93
-195223.32
-194635.55
-194857.27
-193347.28
-193456.18
-187628.47
-187131.94
-188416.56
-188269.08
-188747.79
-188456.96
-188082.12
-189285.03
-188702.46
-189385.71
-187745.01
-189721.57
-187955.53
-190244.84
-188613.94
-181139.08
-180228.28
-180870.54
-179924.36
-181080.14
-180545.28
-182054.4
-180720.19
-181365.44
-180455.75
-180020.01
-180673.1
-179078.19
-180196.46
-178901.39
-174547.06
-173317.33
-174153.31
-172979.71
-173502.52
-172885.99
-173624.45
-174119.77
-173096.96
-173707.71
-173438.26
-174192.23
-173486.12
-174387.31
-173879.48
-166000.19
-166355.95
-166440.08
-165968.06
-166635.31
-166048.83
-166643.45
-165868.46
-166282.54
-166270.59
-165811.16
-166073.36
-164821.31
-164715.78
-165436.98
-161087.89
-159124.86
-159676.89
-159119.64
-159302.02
-159323.62
-159551.77
-159191.02
-158751.94
-159369.45
-158481.53
-159088.49
-157579.78
-159919.78
-158701.99
-152864.62
-152569.31
-152668.74
-152316.16
-152467.36
-152010.84
-152581.89
-151914.6
-152321.79
-152056.38
-151136.84
-152527.51
-151473.85
-152036.37
-151685.78
-147316.64
-145858.55
-146348.31
-145340.17
-145763.04
-145351.58
-145917.85
-145629.63
-145358.31
-145759.59
-144562.93
-145677.23
-144440.29
-145410.58
-145365.3
-140410.23
-138716.11
-139536.57
-138650.04
-139282.89
-138974.62
-139312.65
-138822.09
-139019.44
-139026.11
-139254.75
-139513.73
-138134.91
-139610.12
-138938.34
-134184.34
-132243.6
-133554.05
-132601.7
-133367.87
-133042.12
-133261.98
-133059.76
-132870.22
-132944.28
-132292.58
-133263.09
-131719.49
-132837.04
-133097.41
-127912.35
-126311.23
-126684.82
-126527.77
-127129.75
-126704.25
-126996.04
-126718.44
-127102.42
-126849.28
-126769.26
-126916.39
-126024.3
-127508.11
-126575.12
-121577.58
-120493.98
-121601.1
-120466.8
-121202.52
-120924.18
-121206.18
-121084
-121020.84
-121285.15
-120624.77
-121530.05
-120321.32
-121205.38
-121426.48
-116067.91
-114268.49
-115189.03
-114802.58
-115443.39
-115013.88
-115392.16
-115300.11
-115342.26
-115423.36
-114887.74
-115789.71
-114555.1
-115744.6
-115404.27
-110058.42
-108993.74
-109759.89
-109303.52
-109834.54
-109904.73
-110078.11
-109778.63
-109695.32
-110010.9
-109466.92
-110269.85
-109106.84
-109899.45
-109877.52
-104590.89
-103096.19
-104169.86
-103575.75
-104149.44
-104181.69
-104223.34
-104222.45
-104136.67
-104369.32
-103884.1
-104750.98
-103670.96
-104861.02
-104477.02
-98892.391
-97697.581
-98515.061
-98168.709
-98854.562
-98644.3
-98981.395
-98792.09
-98981.56
-99102.628
-98727.907
-99415.546
-98506.558
-99338.574
-98941.017
-93260.26
-92146.235
-93026.788
-92741.821
-93173.063
-93173.193
-93461.206
-93408.974
-93483.453
-93648.305
-93209.106
-94144.427
-93142.714
-94341.86
-93866.25
-87541.964
-86816.945
-87515.705
-87209.776
-87840.75
-87797.082
-88086.032
-88105.853
-88183.045
-88339.035
-88105.787
-88726.413
-88035.966
-88614.241
-88476.946
-81893.589
-81753.898
-82045.012
-82328.832
-82331.171
-82520.098
-82661.328
-82673.084
-82812.945
-82929.771
-82824.553
-83555.134
-82996.229
-83772.972
-83926.431
-77114.052
-76185.913
-76731.513
-76608.117
-77172.872
-77045.418
-77526.072
-77367.703
-77673.552
-77667.211
-77448.812
-78393.271
-77552.101
-78650.928
-78367.289
-71543.193
-71059.269
-71454.097
-71459.301
-71644.105
-71884.557
-71933.913
-72157.7
-72226.407
-72351.104
-72302.34
-72964.767
-72490.825
-73377.646
-73035.542
-66737.239
-65652.38
-66339.941
-65971.212
-66523.242
-66382.595
-66785.472
-66744.412
-66885.601
-67151.976
-67042.227
-67868.51
-67269.361
-68283.686
-67957.374
-61432.085
-60699.654
-61172.422
-60925.154
-61271.576
-61325.101
-61581.523
-61543.263
-61826.556
-61966.683
-62000.52
-62618.91
-62233.823
-63232.138
-62967.817
-56582.389
-55610.274
-56155.577
-55711.53
-56178.47
-56056.491
-56343.443
-56378.192
-56579.237
-56819.4
-56823.471
-57527.926
-57173.3
-58207.866
-57928.217
-51677.207
-50822.755
-51234.275
-50844.989
-51226.641
-51114.402
-51446.181
-51363.893
-51650.604
-51795.529
-51911.679
-52553.852
-52284.02
-53286.482
-53076.957
-47046.207
-46006.572
-46458.212
-45924.061
-46308.64
-46201.437
-46431.209
-46419.006
-46657.318
-46866.966
-46994.276
-47654.312
-47409.615
-48445.722
-48292.096
-42405.236
-41427.506
-41814.633
-41246.059
-41706.396
-41488.848
-41761.36
-41671.311
-41953.048