/*--------------------------------*- C++ -*----------------------------------*\
  =========                 |
  \\      /  F ield         | OpenFOAM: The Open Source CFD Toolbox
   \\    /   O peration     | Website:  https://openfoam.org
    \\  /    A nd           | Version:  6
     \\/     M anipulation  |
\*---------------------------------------------------------------------------*/
FoamFile
{
    version     2.0;
    format      ascii;
    class       pointScalarField;
    location    "0.7";
    object      p;
}
// * * * * * * * * * * * * * * * * * * * * * * * * * * * * * * * * * * * * * //

dimensions      [1 -1 -2 0 0 0 0];

internalField   nonuniform List<scalar> 
3969
(
1614847.6
-2328684.1
10436.046
6915.1055
2961876.5
-4918629.2
7178.2199
5027.6846
1214402.9
857488.44
455017.78
-26270.321
-363206.18
-895100.41
-980693.29
-8753.8501
-1849.6034
-889.24404
4275.3931
9080.9951
13238.474
13064.675
512910.08
581655.37
565476.68
582837.47
567983.41
562924.53
542731.11
524213.69
505083.98
481488.61
462430.46
442476.51
422271.43
403373.14
384725.77
364948.27
347355.13
329061.91
311849.98
293827.82
277498.48
260784.42
244865.28
230156.97
214659.61
200686.82
186976.52
174587.5
163082.59
151519.82
141059.66
131221.34
121534.3
112559.29
103817.42
95832.275
86824.78
79710.689
70462.144
63882.961
54685.204
47738.535
40528.995
31838.019
27117.343
20009.572
14509.664
-516109.68
-428651.45
-527721.51
-466455.78
-516308.35
-472253.6
-481569.55
-446877.64
-442394.74
-418198.89
-403633.13
-388424.66
-365915.47
-355776.5
-335510.51
-320609.79
-305372.05
-287091.95
-274450.46
-257706.82
-242357.59
-229883.04
-213930.83
-201516.79
-187246.23
-174218.07
-160902.69
-148803.7
-137684.94
-126520.08
-117829.02
-107569.91
-99358.517
-90445.486
-82676.671
-74791.649
-67767.08
-59646.458
-53208.641
-45260.926
-38436.548
-31713.338
-25423.946
-18486.87
-12373.943
-7388.5222
-1967.3051
2228129.9
1660582.7
763501.51
-82295.163
-743770.41
-1697750.8
-1375107.1
-641734.49
-699777.56
-440464.72
-634489.17
-534146.44
-552703.38
-520469.08
-510934.18
-479456.98
-446791.7
-466383.07
-420886.56
-421919.34
-395309.07
-377976.34
-360251.13
-336857.71
-319677.09
-298848.11
-278776.65
-261713.05
-244243.54
-227766.12
-212086.77
-198035.32
-185701.89
-172185.79
-157293.85
-146542.87
-135268.25
-124145.3
-114441.64
-105013.73
-95966
-87840.338
-80231.462
-69484.749
-63924.559
-56318.531
-48914.65
-41298.96
-34546.672
-26855.678
-19923.398
-13769.224
-7562.4686
-2207.6321
17939.979
11680.056
9450.2248
6578.3504
-2032.0496
-1997.4468
-9343.1314
25144.889
22578.236
26682.206
34246.01
42138.141
49787.031
58328.91
66226.874
75088.91
82912.761
89902.704
103141.88
109827.74
119435.97
129397.73
139749.65
150310.3
162114.39
173592.49
186547.8
200408.79
213837.91
228877.54
244520.22
260791.57
277798.67
294836.74
311527.19
329857.37
347047.58
365351.26
381101.39
392675.06
421185.92
450785.07
451341.22
483482.54
490307.82
511250.41
544728.93
572248.53
560799.7
603943.62
579722.61
584961.98
616027.25
605393.91
1364301.1
1481906.8
1558462.7
1534488
1530427.4
1531417.4
1282105
-1823715.2
-2349650.6
-2719236.7
-2901759.2
-2770065.7
-2731342.6
-2046364.8
7872.2036
8760.6702
9134.9002
10250.68
9700.4649
8172.7929
8204.0388
2535.8097
4126.3881
3265.1485
2478.7797
3198.8838
7305.4424
3306.3532
446081.62
456712.71
451767.57
451932.36
444004.91
435178.18
418871.7
411098.21
388786.86
382141.94
362899.7
346188.3
334508.7
318634.52
303621.24
289027.75
275569.76
260706.59
246472.04
232843.77
219778.16
206279.88
194007.31
182013.28
171323.1
159717.65
149315.29
139927.69
130329.51
121549.79
113321.52
105295.46
97856.39
90583.507
83856.397
76801.253
70050.245
63835.248
57337.024
51611.22
44759.358
39737.501
32468.39
27326.501
22482.69
14620.801
8817.9109
281187.15
275726.62
277615.84
286992.91
285336.32
290106.92
277722
271147.85
261141.03
253648.6
241414.64
233297.88
221239.48
211159
202956.07
192737.03
183937.23
173742.03
164966.16
155562.58
146042.98
136895.32
128160.71
120404.48
112303.97
105701.83
99423.736
92143.415
86928.401
81045.467
75775.276
70859.11
65893.335
61444.519
56993.232
52696.564
48648.375
44793.6
40231.279
36860.307
32066.564
28827.597
23835.808
21365.951
16827.43
11468.235
5748.135
127201.66
145971.55
137941.69
143545.6
139827.99
142596.3
136623.82
137952.34
129463.02
126172.84
122124.07
116988.25
112019.62
105606.65
99637.466
95323.421
90895.673
86326.243
82396.848
77872.098
74743.415
71142.947
67286.36
63204.993
59917.29
56216.49
52884.61
50409.635
47635.226
44927.953
42404.645
39900.328
37471.352
35124.677
32988.076
30453.526
28492.903
25839.888
23796.664
21817.757
19258.695
18066.258
14905.161
13857.404
10958.229
7503.8883
5992.3652
-6074.8496
-8734.3834
-13889.04
-3075.6257
-14457.444
-6717.4859
-13795.314
-9616.0336
-10444.871
-727.96212
-6355.32
-727.93606
-3421.6455
33.530753
451.99333
1964.9435
1697.8755
2447.6633
2422.1084
1859.6238
1967.72
241.95329
-2135.6879
-1661.1649
-1031.7616
-674.00184
86.175156
765.14568
1205.4197
1893.7668
2394.4641
3026.4174
3374.4501
3916.1554
4262.3984
4922.1725
4929.1571
5434.0766
6118.0267
6385.5806
6802.3446
6973.5518
6153.9457
7493.8472
6506.1419
7247.5171
7760.0107
-153645.14
-134431.37
-134485.74
-141011.22
-148537.55
-142451.72
-144295.86
-136329.52
-134820.58
-122728.94
-122807.06
-110223.22
-110461.48
-99010.392
-97191.684
-89009.866
-85787.49
-79908.091
-75760.983
-71756.495
-64859.393
-57656.142
-53236.236
-46527.8
-43889.568
-41843.922
-37483.426
-33922.444
-30908.543
-27943.309
-25041.979
-22687.02
-20032.351
-18033.295
-15409.9
-13662.464
-11862.742
-9501.3573
-9733.209
-7643.176
-5902.1651
-4571.4745
-2364.169
-549.06391
920.06994
3482.9135
6282.9271
-301624.89
-278227.53
-278621.74
-295662.43
-296853.31
-290949.81
-285435.39
-271807.94
-267636.39
-248688.26
-244425.4
-229276.31
-221706.37
-211234.8
-202024.87
-190143.09
-181155.59
-170466.02
-161537.94
-152167.32
-141522.52
-133568.91
-119943.14
-110062.04
-101050.97
-93770.16
-87444.416
-80304.628
-73951.558
-67850.652
-62523.801
-56960.126
-51976.582
-47004.196
-42539.076
-38008.952
-33774.828
-29852.149
-25655.803
-22551.698
-19129.329
-15419.889
-11154.689
-7702.4148
-3462.862
1137.4581
7698.2057
-505776.34
-343339.6
-410853.55
-403010.61
-423327.95
-405523.13
-405033.12
-386975.1
-383191.09
-356927.8
-354445.45
-332927.34
-320101.14
-304652.69
-288856.44
-273972.79
-258181.4
-245713.31
-231003.18
-218000.71
-205825.75
-192337.47
-180409.53
-168881.17
-157484.55
-147436.57
-138447.82
-127228.07
-117562.31
-108500.8
-99966.551
-91806.859
-83869.195
-76625.57
-69230.04
-62381.502
-56024.643
-49490.671
-43824.193
-36888.605
-30843.143
-25002.323
-19270.885
-14534.863
-8979.0052
-3885.9069
3452.8063
1062307.5
967119.9
1009000.7
1011591.4
1011050.4
983361.2
933280.35
662080.38
719449.46
689101.46
702119.79
705284.06
693169.2
684731.44
341678.92
407327.73
353089.05
380724.33
362429.11
357635.58
374983.55
54054.359
13721.522
-9276.6996
28453.968
3711.5002
-36943.135
103274.9
-183267.34
-193980.92
-208254.26
-176631.3
-198760.35
-184719.53
-92675.785
-648200.17
-706084.01
-696307.12
-720618.75
-735434.97
-718710.95
-672533.14
-738828.57
-690057.89
-585101.75
-602482.35
-558260.96
-519086.88
-585269.97
-890267.24
-932720.31
-1055993.2
-1091631.3
-1119779.2
-1090376.7
-836697.13
-654674.29
-765222.11
-777157.91
-797232.03
-832115.02
-788835.55
-716949.31
-550489.44
-630626.73
-666749.3
-674689.38
-674830.5
-622275.34
-658727.95
-536055.57
-599058.15
-586767.11
-630557.72
-605281.13
-599759.35
-561647.6
-537793.52
-574035.26
-593692.82
-598549.07
-600999.4
-568014.97
-580163.17
-517156.84
-510525.67
-524207.33
-538198.19
-537785.81
-526408.21
-518691.57
-489545.62
-507738.62
-516750.31
-526264
-520597.23
-523175.37
-519502.45
-481397.52
-475644.14
-477938.09
-485407.59
-482681.12
-483843.77
-480233.23
-457106.53
-461547.42
-464250.51
-470777.61
-472767.75
-474602.95
-473889.54
-445684.36
-439572.65
-437461.02
-442138.49
-441299.36
-436208.85
-438455.72
-423661.43
-425561.03
-420567.64
-426163.33
-424468.68
-422054.87
-431466.13
-403753.43
-403081.98
-400219.38
-406922.1
-404191.45
-397148.63
-409496.53
-391613.78
-380822.24
-386696.97
-384148.51
-387247.11
-384351.49
-395960.98
-367097.19
-364083.17
-369440.59
-365910.96
-371342.82
-362299.21
-372860.23
-354506.97
-346233.55
-353040.46
-347535.83
-351914.44
-345873.19
-357028.48
-334502.7
-327152.6
-335916.04
-329084.96
-336784.85
-329253.6
-339589.58
-317017.48
-312729.36
-318777.63
-312542.64
-319595.49
-311312.76
-319431.3
-300734.27
-295496.67
-302765.38
-294991.17
-303488.81
-293592.08
-303143.77
-283648.21
-280158.96
-286222.09
-278084.27
-286253.36
-276721.42
-286266.12
-267206.65
-263870.3
-269845.91
-261701.56
-270469.11
-260723.05
-269995.82
-252325.51
-248000.89
-253759.59
-245440.12
-253756.11
-244247.89
-253148.74
-236407.38
-232695.84
-237802.08
-230236.65
-238059.83
-228783.48
-237874.23
-222120.41
-217339.45
-222811.13
-215078.4
-221743.97
-213822.94
-221971.17
-207096.72
-203918.7
-207594.09
-200070.85
-207255.74
-199776.82
-207728.07
-192873.17
-190903.14
-190951.69
-187524.79
-192078.72
-186302.71
-193252.98
-178493.47
-178044.05
-175256.25
-176417.84
-177763.1
-175832.94
-180577.12
-168572.3
-165023.96
-163989.86
-163847.21
-164115.21
-161877.89
-166579.99
-156768.51
-152660.91
-152349.06
-151446.52
-151504.8
-150655.46
-152372.54
-144792.78
-140968.49
-141042.11
-139423.48
-138993.35
-139514.16
-139896.02
-134202.84
-129946.85
-130673.97
-128503.02
-128853.2
-128901.02
-128993.92
-123305.75
-120203.57
-120078.39
-118320.58
-118213.97
-118370.19
-118419.98
-113910.23
-110291.62
-110610.42
-108749.2
-108826.53
-108887.9
-109062.58
-104312.59
-101451.56
-101437.4
-99819.864
-99850.016
-99895.905
-100150.7
-95624.056
-92778.344
-92888.46
-91336.766
-91336.799
-91373.341
-91448.935
-86948.534
-84559.494
-84498.706
-83037.95
-83078.114
-83209.454
-83391.702
-78787.942
-76893.852
-76629.601
-75682.537
-75542.129
-75427.646
-75492.594
-70941.815
-68878.264
-68937.493
-67436.112
-67821.213
-68146.72
-67959.454
-63511.864
-61910.829
-61230.516
-60744.544
-60283.606
-60111.307
-60500.472
-55492.698
-54151.46
-53753.034
-53085.49
-52943.511
-53003.659
-53094.702
-48471.3
-46753.936
-47027.59
-45871.431
-45858.845
-45948.504
-46130.679
-40592.443
-39801.976
-39393.493
-38605.954
-38633.896
-38684.332
-38665.749
-33677.951
-32802.203
-32338.684
-32011.383
-31689.286
-31836.712
-31820.697
-26331.657
-25920.579
-25375.549
-25301.535
-24593.662
-24996.976
-24805.438
-19629.715
-18809.533
-18587.893
-18259.803
-17732.682
-18227.225
-17702.704
-13794.959
-13862.745
-13411.257
-13376.513
-12765.155
-12741.859
-11966.488
-9393.7134
-8893.8797
-8911.1471
-8638.3929
-8053.0656
-8548.9888
-7754.1044
-5492.2037
-5604.565
-5233.0334
-4653.6326
-5329.7339
-5084.6012
-3523.7421
-15949.234
-18249.679
-20973.266
-21144.392
-20005.065
-18842.317
-16539.084
-8150.1363
-9113.0353
-9912.3818
-10522.359
-9971.3255
-8174.683
-6782.1588
-4298.9552
-5807.2434
-6588.4291
-6482.5266
-6161.3051
-4382.9017
-3305.5969
5104.2743
5493.3473
5236.6379
5219.2193
5966.2945
5455.8302
6572.8398
11617.879
11827.403
11795.066
12723.408
11988.942
11701.648
11315.234
16485.815
19028.795
19534.8
19706.018
20788.655
18028.417
17538.48
19823.401
20462.672
22144.671
22009.047
21302.641
20281.893
18753.329
644184.29
636142.11
710353.83
694751.91
713915.62
677892.15
660349.07
661032.34
675962.37
705018.46
697807.78
711421.46
670343.17
656909.63
633726.56
637533.72
658083.05
659554.4
658561.38
630438.81
622737.37
597205.01
611751.67
627393.94
629724.08
628294.68
610937.92
614292.11
591980.28
594008.47
600437.75
604316.04
602901.69
594983.71
585747.96
562341.08
564167.92
573661.09
567146.74
573041.88
556157.09
562161.58
550816.4
549357.32
552076.18
551378.01
559738.56
547616.31
557641.81
522104.99
518917.96
527541.61
512537.59
523162.76
515609.13
520807.17
506599.61
508463.21
507417.77
504301.99
511681.62
502363.42
514580.34
486905.65
479988.37
481960.53
475442.88
484102.55
474592.25
487464.52
466539.05
460998.94
468492.55
459101.35
468227.02
460685.51
469237.73
443935.88
444228.46
443335.63
437122.39
444164.43
437173.58
449051.54
428081.69
421850.8
423457.99
418871.66
424973.07
417718.79
419313.02
407343.93
404221.87
403780.52
400545.08
405075.32
401916.79
409739.52
387575.83
386022.6
382922.53
383143.03
385034.21
381207.58
389966.32
371765.7
365966.6
365831.58
363700.96
368702.7
363763.41
369681.29
351586.33
348647.16
347055.55
347112.88
348383.62
344927.72
351334.02
333496.38
330181.75
330303.07
328873.13
330702.45
328581.29
333174.8
314867.94
313026.82
312598.96
311252.95
313356.45
311328.92
316310.3
297885.36
295201.74
295370.19
294419.99
296240.81
294545.7
299077.98
281186.54
277952.24
279180.22
277616.61
279696.41
278238.63
282723.09
264383.2
261473.26
262992.59
261352.58
263224.71
261676.73
266541.71
248791.9
245705.17
247988.26
245779.82
247839.64
246476.82
251327.86
233186.68
230684.67
232451.63
230418.84
232274.34
230671.19
236004.82
218683.92
215048.44
217982.26
215474.84
217584.59
216205.06
221565.37
204660.79
200907.24
204218.05
201396.25
203648.03
202217.61
207248.72
190822.63
187756.8
190679.01
187995.99
190241.8
188740.86
194005.9
178769.01
175016.38
177678.97
175205.22
177665.79
176202.26
181371.33
165815.39
162421.08
165849.7
163241.64
165387.72
163899.46
168788.63
154588.44
151932.89
154222.41
152033.89
153993.11
152874.33
157314.86
143946.22
140957.79
143501.88
141390.12
143288.24
141935.81
146275.94
133430.36
131039.31
133090.1
131305.73
132841.57
131785.64
135754.48
123943.85
121575.47
123671.5
121797.78
123327.88
122258.35
126067.61
114590.56
112606.27
114236.64
112780.51
113966.46
113029.58
116280.35
105798.73
103711.7
105454.19
103973.92
104860.39
104644.16
107151.89
96810.183
95717.673
96883.78
95503.967
96613.063
96039.003
97920.561
88630.778
87381.252
87793.484
87570.749
87638.335
87378.767
89891.923
80420.334
79927.001
79819.545
79362.228
80028.74
78568.962
81618.449
71951.881
71078.028
71409.192
70983.608
71717.494
70623.826
73139.717
64451.565
64037.391
64144.547
63675.219
63813.866
62562.972
65074.652
55678.67
54902.769
55110.947
54668.324
55035.547
54831.848
56588.024
48513.721
48169.558
48192.45
47820.53
48183.125
47100.465
48691.827
40746.838
40472.889
40318.642
40288.671
39849.636
39311.937
40272.383
32251.394
32017.359
32054.98
31838.748
31942.057
31333.053
32884.988
27526.499
28974.265
29151.986
29390.333
28805.843
27678.779
27061.118
21816.255
21990.379
21625.02
21378.895
21731.982
21902.301
20875.119
24259.381
26779.404
27434.624
28096.312
28120.474
28145.143
26626.169
602806.1
496710.88
472015.96
468140.85
470973.49
471252.67
442085.95
437774.18
420905.2
409310.9
388695.81
374419.6
357617.12
338225.21
326744.37
310792.44
294744.9
280778.28
266535.6
252938.62
239417.19
226009
213315.75
201167.74
189064.65
177817.55
165821.41
155268.11
145095.66
135159.49
125805.02
116956.33
108323.33
100069.03
92715.454
83934.866
76944.407
70646.476
63119.291
56170.678
49630.272
42833.785
36668.299
30013.297
23878.425
17038.956
7857.9294
355823.22
374863.97
273666.45
318559.7
345407.83
319145.63
328815.95
305402.57
304832.12
287825.74
278790.32
268205.51
250614.97
244671.48
233528.72
225542.45
214283.26
203813.34
194884.7
184585.89
174986.85
165662.6
156392.37
146977.7
137712.52
127814.85
122132.3
113208.71
106098.87
99109.526
92413.725
86173.142
80047.003
74644.117
68495.002
63756.524
58458.548
53261.584
48531.875
43339.898
38660.068
33541.317
28814.369
23535.701
19030.462
13059.317
6896.8071
174083.65
219053.28
116123.51
191568.41
152389.03
143589.85
141927.51
136217.51
133074.95
123582.38
128851.62
120162.26
125490.46
119080.86
118359.89
116061.45
110648.98
107099.82
103458.78
97822.908
93811.394
89457.303
85002.179
80813.675
76927.114
73006.749
69212.869
64269.311
61017.539
57036.883
53509.901
50141.954
46842.712
43580.754
40308.27
37560.847
34367.442
31620.456
28609.901
26116.078
23500.836
20668.063
17985.415
15389.319
12615.895
10137.652
3457.1726
-14121.986
51645.957
-8993.3519
35278.958
-1467.206
21468.979
10198.743
-814.87589
4264.8527
10726.155
3593.3449
15574.154
10009.588
21214.607
22554.191
24006.919
24241.324
25255.384
25332.285
24922.53
25554.269
25355.835
25132.869
24855.995
23916.241
22817.768
21781.415
21381.146
20371.446
19464.761
18747.185
18236.665
17342.554
16736.71
15929.079
15379.712
14352.567
13827.702
12850.415
12325.633
11415.106
10553.122
9844.2296
8697.9871
8454.2533
6485.4229
4426.8511
-262452.27
-111752.5
-146696.97
-89986.155
-137199.92
-100769.71
-126450.8
-114280.4
-104505.13
-106251.99
-91732.177
-95995.677
-83613.848
-85499.296
-79054.282
-74555.624
-69430.249
-64668.203
-60015.768
-55420.767
-50997.512
-46760.557
-42835.615
-39012.298
-34924.442
-32480.548
-28672.148
-25825.817
-23476.363
-21192.604
-19011.451
-17033.263
-15057.073
-13121.025
-11574.335
-9910.4292
-8506.9414
-6824.5622
-5694.2236
-4020.2818
-2897.9967
-1298.9748
-361.84406
1179.5555
2362.4462
4123.1311
5066.4999
-416168.79
-292183.37
-249240.68
-251004.71
-270375.03
-253339.75
-270364.17
-235446.37
-262399.63
-243322.51
-243333.13
-226445.54
-216282.69
-208192.37
-194469.79
-183114.06
-170162.8
-158472.24
-147197.79
-137209.91
-127881.77
-118293.7
-109449.69
-98919.141
-89272.853
-80849.02
-75226.937
-68754.219
-63204.077
-57782.661
-53220.188
-48464.435
-44086.374
-39997.562
-36027.978
-32328.735
-28506.027
-25143.498
-21722.45
-18244.163
-15095.754
-11742.127
-8614.2911
-5404.4574
-2075.6624
1926.7024
6002.8102
-515709.14
-374887.56
-391561.47
-378099.34
-421423.48
-408834.82
-410468.64
-395547.72
-394410.23
-373359.57
-353658.76
-343579.68
-325406.32
-310853.12
-294915.99
-280938.42
-267695.85
-252152.81
-239598.29
-224924.17
-211135.1
-197247.77
-184336.96
-170830.89
-159885.71
-142195.47
-132350.67
-122485.97
-113259.15
-104780.61
-96613.052
-88466.896
-81302.396
-74030.01
-67234.439
-60814.869
-55122.86
-48678.981
-42883.62
-37144.558
-31757.737
-25862.224
-21160.581
-15632.571
-10001.259
-4914.1023
980.78014
742058.46
821477.19
795824.87
831048.33
816055.15
776093.19
723265.61
533806.97
614787.13
606673.37
624612.27
606117.56
584340.44
535118.03
496244.98
541544.7
554414.29
565352.63
549687.96
544894.77
521109
477913.29
493463.98
496495.11
511943
488791.84
499773.65
455672.94
459864.83
471853.85
480340.6
475641.52
472401.27
466956.14
439564.97
445934.79
462670.49
445463.41
464968.64
446552.96
450355.78
448470.79
433937.21
431627.23
430652.37
432557.93
417636.84
429536.51
422833.58
414584.56
433391.99
413552.06
425594.64
418518.76
417721.91
414167.64
408980.07
403229.17
388146.89
404283.67
388764.39
397519.17
394390.42
385835.32
389431.31
384659.95
392330.03
378510.34
388190.77
382185.52
371398.54
377291.32
363036.57
370329.87
361592.61
367840.24
366384.01
362115.15
356581.75
351078.54
355154.14
350478.74
351731
349138.3
342778.49
342220.29
336244.71
343386.79
333513.35
339954.03
342087.49
328044.21
325111.41
322589.26
326173.41
318188.13
323740.14
323960.35
314683.05
311073.46
309570.66
309451.69
306095.63
310719.91
308240.74
297403.49
295409.75
295371.96
296035.3
291176.98
293313.21
295768.1
282577.49
280732.73
280501.58
281445.28
277432.83
281675.58
281827.84
268124.8
266558.22
267194.91
266156.68
264087.09
266740.45
268072.62
253363.87
253231.93
252068.26
253073.12
250718.82
253069.12
253822.26
239760.47
238978.57
239070.94
239298.17
237556.15
239804.94
241192.06
224127.1
226536.47
225339.75
226136.3
224463.46
226720.19
227637.58
211207.91
213896.48
212144.44
212929.14
212011.25
214112.97
215550.44
197685.01
201393.02
198686.99
200414.2
199457
202310.01
202450.28
185104.97
188893.77
186123.52
187762.13
187631.88
189760.16
190208.49
172132.11
178018.98
174168.14
177075.96
175906.91
179310.4
179036.68
161869.72
166630.66
163690.68
164737.03
165700.2
167370.01
167756.6
151823.9
155586.19
152339.25
154562.62
154870.36
156755.45
157259.93
140768.11
144598.42
143317.29
144455.87
144475.63
146654.26
146508.46
131455.94
136793.89
132949.24
134733.03
135277.35
137095.24
137269.84
123128.33
126296.71
124430.3
125801.38
126209.26
127698.83
127900.27
114219.53
117942.68
115678.18
116975.93
117315.4
118917.35
119100.82
106497.55
109671.7
107999.56
108982.64
109444.71
110822.9
110866.47
98826.125
101815.66
100043.67
100990.94
101427.59
102670.55
102712.72
91612.13
94135.767
92795.876
93522.834
94043.349
95138.711
95052.137
84576.759
86875.798
85737.932
86222.577
86852.19
87656.831
87748.784
77806.434
79708.351
78913.057
79224.055
79997.337
80795.408
80511.508
71860.318
72848.23
72382.084
72002.864
73447.018
72935
74302.199
65091.007
65745.338
65940.76
65796.3
65853.104
67326.577
66634.272
58883.29
58897.814
59040.749
59260.939
59527.767
60362
60389.466
52105.787
53058.186
52852.25
52965.583
52818.936
53863.05
53732.18
46381.134
46109.749
46397.796
45892.813
46534.022
47141.094
47111.694
40002.979
40666.787
40781.052
40692.345
41038.399
40898.262
40976.701
33621.237
32967.153
33379.401
32832.522
33145.907
33756.934
34476.21
28637.686
28686.193
29566.566
28804.762
29727.883
29679.217
29167.668
21875.003
21754.824
21703.521
21400.689
21801.346
21847.609
22138.647
15594.102
14955.595
16132.682
15043.093
15881.781
15997.533
15201.476
8420.8855
6275.3433
6296.8527
6316.0905
6741.7782
6061.5218
8509.7957
478285.01
505078.1
553615.74
543481.46
559002.95
513752.36
509844.85
377491.78
444037.12
461749.11
470602.58
468481.8
439242.15
415537.67
359378.79
329248.4
370923.84
354682.89
371567.17
336578.67
347530.96
310049.17
317546.3
334383.36
325179.66
332497.56
323319.11
295189.37
317653.15
311861.58
324547.39
311506.75
329060.19
305916.88
316491.31
296414.61
289119.82
293066.25
286518.99
283406.22
295296.39
290733.41
292279.91
291097.7
302069.78
284576.99
299344.79
297347.54
288869.15
281646.06
272505.08
271500.07
266773.09
274211.71
269186.54
275611.77
272937.26
262482.89
276166.19
264491.66
265562.4
270274.12
269734.22
257089.98
257386.62
260342.53
245343.48
255898.96
254633.87
259594.45
252187.88
247690.89
246880.51
240480.96
245536.16
246693.09
246230.04
240573.25
233914.2
242165.47
230934.91
239893.18
235625.17
244799.49
228726.36
227197.97
232999.23
218384.59
227788.84
223761.91
228359.43
219672.53
218838.37
221748.24
210613.04
219185.3
217638.91
215591.45
208718.79
211492.41
209473.54
201556.57
209268.65
205955.77
206206.33
199782.43
201530.69
199338.08
195712.18
198294.07
199039.17
195996.21
189802.8
193040.82
190683.86
185724.77
189186.86
190954.3
189649.29
180173.97
184323.55
180376.84
178404.9
180244.74
182037.24
178532.16
172066.48
174551.23
172071.63
169859.57
171776.31
173280.88
171504.99
162030.36
165536.08
163049.51
161767.27
162816.9
164544.21
162863.66
154499.82
156723.01
154581.6
153243.75
154560.34
156307.58
155347.54
146516.26
147860.65
145698.55
145258.24
146398.82
148075.65
146898.12
139093.49
138648.48
137749.28
137398.05
138847.16
139218.01
139540.95
131213.86
130584.58
130496.39
130212
131049.62
131345.36
132469.42
123701.44
122772.85
122828.41
122289.61
124101.04
123271.08
125529.5
116360.59
115637.79
114250.56
116867.74
114967.9
116081.36
118094.36
108171.38
108350.37
107875.87
107793.72
109870.87
108069.81
111209.58
102735.07
100855.77
101902.21
101154.72
102865.13
101464.54
104605.41
95711.51
94383.373
95410.231
94620.561
96723.734
94693.553
97958.559
89424.309
88494.272
88720.97
88673.244
89889.487
88621.519
91554.133
83618.392
82777.371
83417.76
82967.5
84413.902
82964.436
85726.671
77864.808
77453.026
77444.006
77442.767
78505.842
77299.247
79700.052
72656.952
72108.083
72315.726
72179.153
73347.294
71956.479
74251.384
67413.845
67253.528
67177.513
67344.153
68077.919
66897.06
68899.693
62449.407
62519.539
62433.876
62410.247
63320.363
62030.893
64257.41
57571.868
57921.829
57427.862
57882.278
58269.825
57269.313
58623.001
52684.733
53512.368
53025.83
53227.921
53763.368
52520.049
54092.788
48011.313
49273.819
48158.044
48856.842
48903.763
48150.02
49243.614
43506.818
44226.272
44157.954
43907.841
44585.1
43868.8
44451.029
38971.47
40618.032
39656.559
39745.503
40034.41
39286.841
39594.399
34880.498
35450.526
35055.331
35067.404
35625.585
34806.592
35077.788
30155.829
31695.553
30684.385
31049.02
30980.721
30302.252
30793.475
26206.842
26699.268
26168.482
26206.423
26251.603
25993.372
26214.297
22082.525
23110.806
22254.376
22415.926
22591.332
22002.402
22052.558
16576.886
17801.062
16838.686
17166.879
16986.756
16501.797
16521.419
11763.234
12084.137
10962.954
11278.527
11369.734
11335.958
11385.281
6299.8226
4646.2334
3306.0485
3507.5132
3872.8768
3866.7936
5254.0031
278499.67
299986.49
281313.65
313093.17
290564.16
274690.4
253763.19
201299.22
291136.34
274806.47
295329.31
259593.56
272689.6
219086.78
183117.4
173615.46
176425.33
181295.92
173550.02
160166.62
156588.84
148698.1
184272.69
180429.48
197656.53
171418.68
189793.13
152006
162397.89
151719.89
152899.52
141029.86
142512.24
136539.81
139921.81
140245.17
163762.64
140247.42
149355.34
144627.2
145627.93
143441.68
147104.94
149670.22
125749.39
136564.7
134584.87
127140.53
134602.21
136978.58
151038.54
124506.06
135285.66
126466.83
123095.71
134242.92
138261.82
148427.24
119580.37
127052.27
123692.48
124054.25
128864.44
136575.85
141003.15
113150.02
120246.53
121474.6
116221.85
124157.37
131292.39
136597.74
109461.58
121897.72
116949.01
117386.55
120532.75
124257.87
129964.69
105538.72
113992.73
111622.91
109284.04
115394.5
118364.63
130007.44
100692.78
112314.89
108039.58
107965.67
110201.02
114255
119639.31
99120.652
107607.37
108333.39
97972.236
113626.85
109984.98
113765.82
94109.589
104743.77
102170.05
97155.43
108244.76
103732.94
106179.81
94151.067
98037.901
99264.274
93105.602
105996.52
97124.649
102586.56
89480.52
95272.258
94788.075
90671.434
100441.93
93821.392
96395.256
86226.81
91026.529
91263.366
87449.997
95901.798
87484.394
92242.993
82399.336
87445.946
86919.401
83691.683
91864.609
83713.768
87632.188
78805.33
83274.833
82793.189
80796.634
88482.876
78501.382
83115.222
75050.937
79413.164
79015.915
77897.863
83559.828
73971.991
78297.867
71423.026
75709.738
75573.922
73948.198
80074.745
69617.836
73972.406
68094.852
72731.641
70875.172
71291.794
76133.725
65463.45
69423.613
64912.268
68010.389
66901.003
68194.968
71998.482
61910.447
65520.205
61342.877
64380.101
63053.934
65346.466
67790.339
58441.188
60471.056
58655.618
60269.247
59922.079
61677.309
64109.27
55171.625
58205.978
55456.299
58165.766
55662.986
59273.365
59981.36
51934.862
55513.846
51980.283
54385.325
53193.467
55481.69
57248.792
48729.319
51723.339
48893.525
51288.452
50170.369
52361
54074.766
46093.026
48943.631
46654.51
48583.75
47540.479
49482.926
51025.415
43398.49
46091.751
43624.469
45814.111
44437.687
46623.509
47831.686
40903.258
43268.194
41177.73
43078.459
41941.135
43861.237
44832.809
38470.625
40605.914
38655.939
40576.974
39306.14
41061.006
42178.081
36187.42
38027.798
36361.191
37977.067
36812.982
38588.818
39482.131
33874.41
35436.296
33888.29
35322.416
34316.31
35723.045
36711.156
31631.121
32925.374
31585.606
32930.037
31946.729
33422.509
34201.133
29756.17
30484.003
29418.631
30321.814
29767.332
30411.321
31885.041
27212.278
28039.281
26799.279
28134.078
27049.791
28334.247
29317.242
25418.325
25760.352
24710.917
25457.708
25009.735
25679.885
26827.087
23118.809
23810.606
22191.095
23748.797
22656.84
23418.808
24101.697
20981.827
20419.233
19886.93
20366.82
20019.962
20556.744
21856.28
18770.427
19511.476
18394.981
19345.351
18599.229
18927.636
19440.357
16790.631
15551.535
15177.136
15334.771
15174.352
15515.958
16858.624
14413.105
14527.376
14320.069
14774.707
14466.709
14721.335
14713.675
11338.406
10268.714
10054.508
9632.9199
9786.0573
9787.7282
10485.746
9244.83
8842.3577
8088.9796
8310.3823
8583.3848
8650.617
9526.0274
5771.3144
2534.228
2597.2582
2299.2284
2002.3868
2185.2318
3341.2135
14227.83
-3668.8971
5399.373
10102.215
3704.3611
63.93236
26124.123
3365.089
2798.3928
1474.7082
7162.508
-1229.2075
3554.1859
-1503.9444
27393.115
-28404.987
-21408.202
-35718.291
-20757.944
-36555.576
3074.0277
-1159.8762
-16779.563
1275.0296
-9515.5133
-11983.07
4831.1563
-14729.699
10534.993
-1927.1707
-2860.8842
-32196.76
284.25349
-39221.921
8825.054
8779.9799
-13812.516
-20193.26
-10427.955
-16147.362
-6803.8095
-4911.7667
8234.365
-5495.1778
7887.2238
-17902.719
-139.15825
-12045.338
3308.1907
11652.543
-2841.5812
-7866.3009
-8453.3117
-5351.9457
-3394.2213
500.09385
12734.889
-8135.3587
4125.2674
-11183.828
346.90485
-4597.493
-3111.2597
6681.4155
109.12011
1523.587
-8270.5508
-1675.0774
-1796.6549
1529.7625
9628.1366
-178.69318
1174.1641
-7721.3107
-1513.0955
-4128.9452
2253.8693
7931.6009
2040.7852
-20.585449
-2010.4967
-2293.9352
4437.7777
2180.7909
9963.1405
870.19446
1464.3005
-3893.3893
2215.7457
607.56873
4210.0575
7930.7478
2697.5173
7657.4333
3009.2019
-2693.8925
5635.0353
-283.21413
10448.622
7778.6103
-1146.7164
4256.7004
-2562.7058
6179.3091
4229.7167
6566.6564
7609.5084
-577.98691
7849.7665
-2782.5323
8557.9343
4450.8964
8945.4323
7481.9762
1663.4829
9441.7174
-1036.5129
9442.1257
7017.9346
7004.3883
8161.1188
2801.7625
10386.683
9.558379
10434.666
6889.3173
7930.0873
9585.7463
4128.8449
10981.799
1642.0648
11073.243
9116.2298
7844.7288
9823.4743
4469.772
11484.982
2588.7775
12552.308
8776.9756
8185.7074
10308.095
5398.0001
11830.183
4770.9235
12465.334
9804.6362
8717.909
11266.58
5997.8897
12758.297
4977.4674
13059.192
10532.005
8853.6234
11274.214
7342.8061
11598.461
6247.1886
13431.154
11185.071
9838.8013
11439.599
8206.652
11654.096
8017.6662
13785.546
11396.185
9748.488
11039.598
9068.2807
11313.516
10029.529
13148.718
12070.366
9684.3665
12508.896
9593.5279
11928.389
10925.179
12893.623
12801.497
10784.797
11815.233
9918.1834
11492.32
11206.855
13010.574
12436.061
10495.043
11460.835
10215.891
11153.746
11269.765
12710.292
12097.803
10827.653
11471.958
10636.258
11580.417
12030.187
12766.842
12626.493
10536.047
11570.998
10656.84
11243.541
11561.801
12257.787
12284.089
10516.662
11445.224
10552.67
11184.379
11769.742
12314.409
12203.661
10308.055
11352.881
10565.243
11245.745
11469.772
12133.043
11695.33
10186.623
11301.965
10533.901