/*--------------------------------*- C++ -*----------------------------------*\
  =========                 |
  \\      /  F ield         | OpenFOAM: The Open Source CFD Toolbox
   \\    /   O peration     | Website:  https://openfoam.org
    \\  /    A nd           | Version:  6
     \\/     M anipulation  |
\*---------------------------------------------------------------------------*/
FoamFile
{
    version     2.0;
    format      ascii;
    class       pointVectorField;
    location    "1.87";
    object      u;
}
// * * * * * * * * * * * * * * * * * * * * * * * * * * * * * * * * * * * * * //

dimensions      [0 1 0 0 0 0 0];

internalField   nonuniform List<vector> 
625
(
(0 0 0)
(0 0 0)
(0.26587668 0.036693222 -0.041788391)
(0.26085816 -0.064178889 -0.032778663)
(0 0 0)
(0 0 0)
(0.25270114 -0.057273748 -0.033544232)
(0.2577464 0.043245814 -0.041909766)
(0 0 0)
(0 0 0)
(0 0 0)
(0.2642636 0.010552147 -0.040419677)
(0.26248206 -0.013691575 -0.037454708)
(0.26164725 -0.037965911 -0.035230775)
(-0.0010923643 -0.001418829 -0.0007699976)
(-0.0019238893 -0.0020870398 -0.0013496576)
(-0.0026928531 -0.0023576813 -0.0020606938)
(-0.0031733005 -0.0022405689 -0.0031312106)
(-0.0032450692 -0.0014755306 -0.0044765415)
(-0.0025075356 -0.00045718487 -0.0059954246)
(-0.0010225916 0.0013146676 -0.0077323521)
(0.0017142265 0.003201796 -0.0095285454)
(0.0056104828 0.0057425822 -0.01148714)
(0.011074054 0.0083894099 -0.013545657)
(0.018044119 0.011494417 -0.015588306)
(0.026835488 0.014626546 -0.017676459)
(0.037382301 0.018000711 -0.019772752)
(0.049877698 0.021298896 -0.021856709)
(0.064250615 0.024598354 -0.023913751)
(0.080562422 0.027672595 -0.025934898)
(0.098715979 0.030605063 -0.027993978)
(0.11864475 0.033030238 -0.029876628)
(0.1402836 0.035208379 -0.031964347)
(0.16319846 0.036800156 -0.033853947)
(0.18760731 0.037800192 -0.035705107)
(0.21285873 0.03842347 -0.037697282)
(0.23856812 0.038017967 -0.039263539)
(4.8171434e-05 -7.4375199e-05 0.00028121469)
(-0.00083962297 -0.00058599797 -0.00029068224)
(-0.0017645277 -0.0013548787 -0.0012917214)
(-0.0023544518 -0.0026966501 -0.0024795411)
(-0.0025536737 -0.0041587423 -0.0040399308)
(-0.0019861555 -0.0061692024 -0.0056216762)
(-0.00063650183 -0.0082952167 -0.0075129604)
(0.0018612756 -0.010883557 -0.0093375597)
(0.0056340597 -0.013663858 -0.011361663)
(0.010785103 -0.016729342 -0.0133488)
(0.017544568 -0.020023968 -0.015347312)
(0.025982095 -0.023530692 -0.017307004)
(0.036211466 -0.027178303 -0.019205984)
(0.048274098 -0.030996344 -0.021018388)
(0.062252319 -0.034875018 -0.02271084)
(0.078075331 -0.038813969 -0.024330069)
(0.095782483 -0.042748141 -0.02576032)
(0.11522433 -0.046609908 -0.027151556)
(0.13636876 -0.050351333 -0.028331595)
(0.15899619 -0.053891009 -0.029486492)
(0.18299447 -0.057119947 -0.030475186)
(0.20807447 -0.060014888 -0.031412768)
(0.23383014 -0.062366071 -0.032352993)
(0 0 0)
(0 0 0)
(0 0 0)
(-0.0012797249 0.00076468803 -0.00034683389)
(-0.0029883461 0.0021699635 -0.00024666939)
(-0.0041746111 0.0019232861 -0.00028567875)
(-0.0054344113 0.0019901425 -0.00082541082)
(-0.0059646074 0.0011837917 -0.0016021265)
(-0.0058741101 9.9644801e-05 -0.0025419877)
(-0.0050662565 -0.0015250686 -0.0036981841)
(-0.0027719478 -0.0036589577 -0.0049986742)
(0.00045438248 -0.0060544759 -0.0064062275)
(0.0053578801 -0.0089851118 -0.0079039197)
(0.011673457 -0.012029042 -0.0095421123)
(0.019861015 -0.015656808 -0.011129297)
(0.029708157 -0.019215524 -0.01286881)
(0.041544038 -0.023228306 -0.014558231)
(0.055202966 -0.027184385 -0.016313221)
(0.070806484 -0.031324536 -0.01806884)
(0.088264447 -0.03540019 -0.019849243)
(0.10752407 -0.039451632 -0.021628577)
(0.1284498 -0.043308615 -0.02345841)
(0.15099425 -0.046981864 -0.025295148)
(0.17476125 -0.050278809 -0.027172315)
(0.19988518 -0.05322556 -0.029113393)
(0.22558004 -0.05559779 -0.031049098)
(0.25367379 -0.030721966 -0.035653076)
(0.25397862 -0.0071031959 -0.037593627)
(0.25615504 0.016890883 -0.039167743)
(0.230748 0.044571179 -0.041372774)
(0.20457636 0.04474262 -0.040331147)
(0.17929525 0.044428493 -0.039281311)
(0.15504212 0.043533637 -0.038132995)
(0.13206309 0.042074976 -0.036848174)
(0.11063159 0.04012244 -0.035438045)
(0.090866818 0.037814021 -0.033846348)
(0.072947877 0.035088417 -0.03211614)
(0.05690731 0.032189127 -0.030228711)
(0.042851478 0.02903155 -0.028179936)
(0.030731801 0.025826081 -0.026014899)
(0.020589928 0.022544477 -0.023705381)
(0.01227153 0.019350152 -0.021329022)
(0.0057880075 0.016214445 -0.018848182)
(0.00085063831 0.013335901 -0.016344537)
(-0.0024048137 0.010453031 -0.013838692)
(-0.0044574039 0.0080907861 -0.011368035)
(-0.0053826177 0.0059031996 -0.0090498118)
(-0.0053241716 0.0040037802 -0.0067134262)
(-0.0045473525 0.0024467777 -0.004660616)
(-0.0033024615 0.0012724409 -0.0028202736)
(-0.0018688277 0.00052470546 -0.0013221168)
(-0.00039353126 -0.00018744643 9.6121217e-05)
(0 0 0)
(0 0 0)
(0 0 0)
(0 0 0)
(0 0 0)
(0 0 0)
(0.25871007 -0.062968822 -0.033223614)
(0.25686998 -0.061206764 -0.033049248)
(0.25465725 -0.059677788 -0.033301978)
(0.26415294 0.038956548 -0.041758029)
(0.26219136 0.04036461 -0.041878864)
(0.26009014 0.042199916 -0.041943021)
(-0.00089841498 -0.004805644 -0.00080762871)
(-0.0021686995 -0.0092486703 -0.0010809009)
(-0.003204622 -0.01295225 -0.0019013655)
(-0.0040355147 -0.015646594 -0.0029914514)
(-0.0043902508 -0.017095847 -0.0042811269)
(-0.0039137592 -0.017262469 -0.0058009412)
(-0.0026385216 -0.016051838 -0.0074845111)
(-4.5038374e-05 -0.013600978 -0.0093089286)
(0.0037340004 -0.0099563783 -0.011238138)
(0.009273821 -0.0054229071 -0.013249972)
(0.01633492 -0.00015184733 -0.015286159)
(0.025315064 0.0054195016 -0.017356728)
(0.036135937 0.011069903 -0.019428637)
(0.048941708 0.016383836 -0.021464079)
(0.063652574 0.02105301 -0.023468983)
(0.080271444 0.024888488 -0.025463795)
(0.098689264 0.027477821 -0.027346402)
(0.11876223 0.028848782 -0.029221024)
(0.14039646 0.028905572 -0.031084613)
(0.16329916 0.027424495 -0.032733415)
(0.18747692 0.024757005 -0.034631335)
(0.21235982 0.021073149 -0.036283962)
(0.23812109 0.015838803 -0.03805861)
(-0.00044515797 -0.00056941845 -0.00058888977)
(-0.0013558853 -0.0012038237 -0.0010734492)
(-0.0023823811 -0.0017952602 -0.0019869116)
(-0.0031012115 -0.0023682049 -0.0030569734)
(-0.0033957275 -0.0027379655 -0.0044746138)
(-0.0029832297 -0.0031936653 -0.0059847689)
(-0.0017006816 -0.0033784752 -0.0077911124)
(0.00076240973 -0.0037372855 -0.0095594733)
(0.0044476996 -0.0038386055 -0.011575768)
(0.0096711502 -0.0040939797 -0.013512353)
(0.016425999 -0.0041886585 -0.015568108)
(0.024995171 -0.0043992016 -0.017563024)
(0.035340568 -0.0045745969 -0.019543588)
(0.047622117 -0.004853658 -0.021472036)
(0.061798753 -0.0051616191 -0.023350596)
(0.077927873 -0.0056070843 -0.025142863)
(0.095907003 -0.0061679179 -0.026852214)
(0.11569367 -0.0068091286 -0.028542162)
(0.13720172 -0.0076704863 -0.030066938)
(0.16011395 -0.0086330142 -0.031648011)
(0.18450646 -0.0096822581 -0.033126494)
(0.20987272 -0.011036224 -0.034481242)
(0.23637225 -0.012276771 -0.035966893)
(4.3005099e-05 0.0035453872 -0.00028350521)
(-0.00078798203 0.006555446 -0.00072237688)
(-0.0016170249 0.0090707678 -0.0016381293)
(-0.0022319775 0.010695179 -0.0028062769)
(-0.0024255221 0.011233231 -0.0042253536)
(-0.001962376 0.010708125 -0.0058793987)
(-0.00061583539 0.0089088396 -0.0075915296)
(0.0017597454 0.0060298055 -0.0094737277)
(0.0052983997 0.0020991771 -0.011380422)
(0.010297743 -0.0027032057 -0.013322924)
(0.016722006 -0.0080866533 -0.015298731)
(0.024887362 -0.013893484 -0.017200286)
(0.034734256 -0.019759167 -0.019110996)
(0.046495085 -0.025429256 -0.020946199)
(0.060135183 -0.030682157 -0.022706777)
(0.075777812 -0.035222306 -0.02440551)
(0.093320777 -0.038909184 -0.026028185)
(0.1128786 -0.04163698 -0.027536396)
(0.1341583 -0.04326774 -0.029033429)
(0.15726742 -0.043901787 -0.030349584)
(0.18181899 -0.043589464 -0.031718007)
(0.20766946 -0.042305395 -0.03297657)
(0.23446836 -0.040318367 -0.034161788)
(0 0 0)
(0 0 0)
(0 0 0)
(0 0 0)
(0 0 0)
(0 0 0)
(0 0 0)
(0 0 0)
(0 0 0)
(-0.00033335382 2.4466042e-05 0.00033919148)
(-0.00071435027 0.00032287205 0.000415799)
(-0.001065436 0.00050520334 0.00019535654)
(-0.0013527428 0.00022935134 -5.3565668e-06)
(-0.0019326857 0.00091618859 2.2168189e-05)
(-0.0024206522 0.0016237688 3.6427014e-06)
(-0.0021700023 -0.00042565037 -0.00087693542)
(-0.0027499938 0.00041155571 -0.00060259211)
(-0.0034127732 0.0014427976 -0.0003990839)
(-0.0027239767 -0.0014295993 -0.0018957522)
(-0.0034682552 -0.00024436741 -0.0014770474)
(-0.0042565599 0.0010378728 -0.0010417115)
(-0.0028867287 -0.0027183584 -0.0032481054)
(-0.003661257 -0.00132307 -0.0026166068)
(-0.0046461657 0.00012780863 -0.002027327)
(-0.0023386976 -0.0044729459 -0.0047256067)
(-0.0031936572 -0.0029130091 -0.0039220397)
(-0.0043228874 -0.0012478072 -0.0031680109)
(-0.00095736014 -0.006533824 -0.006403495)
(-0.0017980204 -0.0048520535 -0.0054630784)
(-0.0031044038 -0.0029598864 -0.0044035942)
(0.0016791635 -0.0090401508 -0.0081229695)
(0.00056441746 -0.0070936993 -0.0070705188)
(-0.00075494236 -0.0052196895 -0.0059647844)
(0.0053476703 -0.011672199 -0.0099982316)
(0.0042866944 -0.0098111448 -0.0088427088)
(0.0028149288 -0.0077730051 -0.0074864173)
(0.010600814 -0.014825138 -0.011893068)
(0.009469074 -0.012837296 -0.010571211)
(0.0078471418 -0.010739356 -0.009133099)
(0.017298226 -0.01802046 -0.013773298)
(0.01607433 -0.015993537 -0.012421081)
(0.014359556 -0.013895194 -0.010844924)
(0.025772045 -0.021637438 -0.015666191)
(0.024486037 -0.019634693 -0.014212396)
(0.022680967 -0.017483139 -0.012548589)
(0.035918894 -0.025281011 -0.017502795)
(0.03457063 -0.023229784 -0.016031091)
(0.032679186 -0.021156063 -0.014300794)
(0.047979572 -0.029205138 -0.01928975)
(0.046556548 -0.027228657 -0.017783631)
(0.044573826 -0.025106696 -0.016038068)
(0.061845024 -0.03314516 -0.020993095)
(0.060347616 -0.031126997 -0.019515777)
(0.05832257 -0.0291194 -0.017765216)
(0.077603609 -0.037175493 -0.022632003)
(0.076046739 -0.035248663 -0.021177278)
(0.07393509 -0.033237818 -0.019480247)
(0.09515725 -0.041186394 -0.024152257)
(0.093510964 -0.039245169 -0.022791801)
(0.09138916 -0.037324379 -0.021184372)
(0.11448338 -0.045139338 -0.025637413)
(0.11280338 -0.043264429 -0.024363499)
(0.11061739 -0.041368308 -0.022847314)
(0.13543416 -0.048930862 -0.026985537)
(0.13364357 -0.047037505 -0.025833741)
(0.13144878 -0.045242555 -0.024535362)
(0.15788222 -0.052501832 -0.028295119)
(0.15606948 -0.050706441 -0.027353868)
(0.15387406 -0.048922892 -0.026199908)
(0.18163743 -0.055825192 -0.029544422)
(0.17970865 -0.053965826 -0.028756201)
(0.17753043 -0.052237167 -0.027865711)
(0.20648773 -0.058667269 -0.03072932)
(0.20457861 -0.056875525 -0.030176898)
(0.2024327 -0.055250505 -0.029602341)
(0.23215281 -0.061170636 -0.031949946)
(0.23006699 -0.059340318 -0.031723668)
(0.2280471 -0.057576627 -0.031375308)
(0.26265677 0.012676118 -0.039745904)
(0.26069619 0.014321652 -0.039671574)
(0.25850016 0.015928909 -0.039474995)
(0.26051596 -0.011918615 -0.037287929)
(0.25863862 -0.010438126 -0.037447909)
(0.25629355 -0.0086931202 -0.037535437)
(0.25973357 -0.036475542 -0.035463282)
(0.25787244 -0.034730227 -0.035369009)
(0.25562677 -0.032931639 -0.035478501)
(-0.0011989654 -0.0010404595 -0.00028078649)
(-0.00092705085 -0.00079349993 -0.00015176818)
(-0.00077012993 -0.0006704023 6.168054e-05)
(-0.0019156798 -0.0013803244 -0.0010509938)
(-0.0019100834 -0.00090555744 -0.0010062339)
(-0.0019826569 -0.00060276642 -0.0010155702)
(-0.0027000433 -0.0014555996 -0.0020139372)
(-0.0028676994 -0.0006393778 -0.0021427344)
(-0.0028942644 -7.4311194e-05 -0.0024298789)
(-0.0032096671 -0.0010750022 -0.0032899715)
(-0.0034654681 -9.5324181e-05 -0.0035794047)
(-0.0038288029 0.00080593196 -0.0041109903)
(-0.0032660718 -9.6875602e-05 -0.0048269248)
(-0.0037351609 0.0011438432 -0.0054270792)
(-0.004277731 0.0022531441 -0.0060514617)
(-0.0025860036 0.0011484509 -0.0066025855)
(-0.0032165668 0.0025606487 -0.007199831)
(-0.0039672821 0.0038769912 -0.0082048558)
(-0.0010956152 0.002981441 -0.008484744)
(-0.0018558242 0.0045446872 -0.0093171405)
(-0.0027099495 0.0059811653 -0.01041056)
(0.001597145 0.0050096572 -0.010489565)
(0.00073205421 0.0067274172 -0.01145489)
(-0.00046293717 0.0084061407 -0.012748695)
(0.0054122354 0.0076745017 -0.012566018)
(0.0044267331 0.0093801205 -0.013753786)
(0.0032017033 0.011071857 -0.015164459)
(0.010901124 0.010348396 -0.014801294)
(0.009735947 0.012196905 -0.015960157)
(0.0083463763 0.013956721 -0.017553695)
(0.01784154 0.013412459 -0.016932262)
(0.016552259 0.015316749 -0.01828577)
(0.01502314 0.017127233 -0.019961505)
(0.026552629 0.016607471 -0.019117818)
(0.02517944 0.018496871 -0.020544381)
(0.023524896 0.020366258 -0.022284475)
(0.037058704 0.019929334 -0.021280447)
(0.035597109 0.021825507 -0.022753658)
(0.033822754 0.023689939 -0.024555012)
(0.049481333 0.023214196 -0.023406292)
(0.047911362 0.025103401 -0.024903603)
(0.046035468 0.026971174 -0.026721788)
(0.063770599 0.026491748 -0.025464919)
(0.062131152 0.02833885 -0.026971556)
(0.060188199 0.030184199 -0.028771462)
(0.07999395 0.029521201 -0.027516876)
(0.07828179 0.031358801 -0.028958773)
(0.076231235 0.033199943 -0.030719753)
(0.09802473 0.032426515 -0.029434997)
(0.096230795 0.034194995 -0.030832458)
(0.094181519 0.035959516 -0.032503816)
(0.11785829 0.034825726 -0.031349033)
(0.11604323 0.036577417 -0.032667426)
(0.11386609 0.038397956 -0.034211474)
(0.13927025 0.036993229 -0.033235844)
(0.13735611 0.038708513 -0.034310948)
(0.13522164 0.040426794 -0.035745881)
(0.16211634 0.038574635 -0.034849927)
(0.16024431 0.040257364 -0.036036457)
(0.15808211 0.041946455 -0.037182718)
(0.18635352 0.039610868 -0.036704743)
(0.18444234 0.041211519 -0.037573925)
(0.18218863 0.04294139 -0.038505733)
(0.21143229 0.039979281 -0.03853908)
(0.20936046 0.041837323 -0.039042883)
(0.20724179 0.04341789 -0.039752431)
(0.23741651 0.040175726 -0.039848916)
(0.23533333 0.041722555 -0.040437179)
(0.23329666 0.043227693 -0.040714898)
(-0.00059993708 -0.0037016117 -0.00034607266)
(-0.0025359156 -0.0062934099 -0.0014195131)
(-0.0041615416 -0.0089326751 -0.002436384)
(-0.0057135121 -0.01052449 -0.0038841203)
(-0.0066758321 -0.011071816 -0.0056602983)
(-0.0068877617 -0.010524974 -0.0074410325)
(-0.006195277 -0.00879095 -0.0095329757)
(-0.0042092753 -0.0058503701 -0.011676823)
(-0.00090954071 -0.0019353342 -0.013879965)
(0.0040173203 0.0027938704 -0.016138236)
(0.010632689 0.0081505231 -0.018395213)
(0.019170665 0.013709298 -0.020601051)
(0.029593961 0.019266441 -0.022738319)
(0.042029374 0.024448696 -0.024805891)
(0.05642356 0.028952038 -0.026752157)
(0.072749743 0.032519361 -0.028603752)
(0.090910693 0.03495029 -0.030314219)
(0.11080605 0.036066754 -0.031948595)
(0.1322197 0.035830917 -0.033421745)
(0.15509651 0.034251821 -0.034842123)
(0.17910041 0.031385168 -0.036125065)
(0.20400427 0.027434694 -0.037355709)
(0.22989271 0.022302544 -0.038309338)
(-0.00093502731 0.00024813793 -0.00037538954)
(-0.0026552799 0.0012360295 -0.00096284969)
(-0.0040356534 0.0016048353 -0.0017550879)
(-0.0054918207 0.0022505935 -0.003023432)
(-0.0062662327 0.0026920022 -0.0043197959)
(-0.0064609979 0.0029574567 -0.0058851417)
(-0.0057042312 0.0033819199 -0.0076641546)
(-0.0037493165 0.0034968264 -0.0094207463)
(-0.00058096701 0.0037217185 -0.011431081)
(0.0042109354 0.0036840135 -0.013346613)
(0.010543058 0.0037660833 -0.015414634)
(0.01875672 0.0035217375 -0.017397946)
(0.02874701 0.0033702443 -0.019417267)
(0.040753354 0.0029554431 -0.021363282)
(0.054664567 0.0025359252 -0.023283315)
(0.070563167 0.0019003215 -0.025121879)
(0.088366491 0.0012188819 -0.026894742)
(0.10799455 0.00032313071 -0.028617597)
(0.12933733 -0.0006211653 -0.030200493)
(0.15226082 -0.0017385605 -0.031817124)
(0.17653148 -0.0029130752 -0.033291886)
(0.20187605 -0.0043510252 -0.034779903)
(0.22868157 -0.0055885864 -0.036186359)
(-0.00078024104 0.0042680341 -0.00045866022)
(-0.0024716952 0.00867842 -0.00075174406)
(-0.0037147595 0.012438926 -0.0014018776)
(-0.0049382689 0.015079186 -0.0020770028)
(-0.0055812063 0.016544843 -0.0031545006)
(-0.00558198 0.01676918 -0.0044400859)
(-0.0047594835 0.015598417 -0.0058016514)
(-0.0028250439 0.013164719 -0.0073856674)
(0.00028491678 0.0096381362 -0.0090457742)
(0.004910419 0.0050324021 -0.010737497)
(0.0109174 -0.00018992002 -0.012525515)
(0.018743255 -0.0059262428 -0.014302614)
(0.028251822 -0.011820516 -0.016084944)
(0.039702214 -0.017540351 -0.017882756)
(0.053064762 -0.022905868 -0.019638353)
(0.068425619 -0.027566268 -0.021389666)
(0.08578535 -0.031431081 -0.023123131)
(0.10508071 -0.034271798 -0.0248256)
(0.1262676 -0.036086744 -0.026525072)
(0.14921423 -0.036824146 -0.028251582)
(0.17360941 -0.036543801 -0.029930615)
(0.19953112 -0.035385941 -0.031774826)
(0.22611736 -0.033323426 -0.033432934)
(-0.00081574567 -0.004188624 -0.00030082956)
(-0.00084870455 -0.0041659067 -0.00021860191)
(-0.00080111353 -0.0039228598 -6.1451433e-05)
(-0.0022186323 -0.0085649031 -0.00092684899)
(-0.0023312068 -0.0080521161 -0.00090162151)
(-0.0024072478 -0.0075285455 -0.0010322823)
(-0.0032143699 -0.011991479 -0.0017975519)
(-0.0034953145 -0.011182062 -0.0019200806)
(-0.0036842444 -0.010273026 -0.0021485863)
(-0.0040930646 -0.014376817 -0.0030363325)
(-0.0044601113 -0.013333557 -0.0032969011)
(-0.0049120364 -0.012218661 -0.0035218008)
(-0.004418207 -0.015680218 -0.0044737921)
(-0.0049632518 -0.01435979 -0.004780851)
(-0.0055647175 -0.013011341 -0.0051834187)
(-0.0040005162 -0.015600396 -0.0061084438)
(-0.0046370161 -0.014137206 -0.0065415556)
(-0.0054374142 -0.012587272 -0.007008634)
(-0.0027107492 -0.014311334 -0.0079276737)
(-0.0034964813 -0.012626491 -0.0084947315)
(-0.0044594064 -0.010960099 -0.0090112151)
(-0.00016773574 -0.011685591 -0.0098767525)
(-0.001034921 -0.0099558561 -0.010473989)
(-0.0021959739 -0.0081787017 -0.011115378)
(0.0036572896 -0.0080519594 -0.011910954)
(0.0026360351 -0.0061234109 -0.012628528)
(0.0013488237 -0.004245398 -0.013299479)
(0.0091012812 -0.0034075578 -0.014016551)
(0.0080114837 -0.0014833842 -0.0148132)
(0.0065441876 0.00041832736 -0.015511599)
(0.016163136 0.0018437887 -0.016144187)
(0.014925119 0.0038362448 -0.016957834)
(0.013347851 0.0057653661 -0.017753369)
(0.025079112 0.0074414566 -0.018270215)
(0.02376735 0.0094411765 -0.019155422)
(0.022065736 0.011389059 -0.019945855)
(0.03585184 0.01305966 -0.020396079)
(0.034440129 0.015064712 -0.02127939)
(0.032632749 0.016969094 -0.022082733)
(0.048586392 0.018339833 -0.022438077)
(0.047075004 0.020336838 -0.023337858)
(0.045167946 0.022226342 -0.024142215)
(0.063196369 0.023009104 -0.024465911)
(0.06160659 0.024964573 -0.025345347)
(0.059639369 0.026800653 -0.026117509)
(0.079725508 0.026758093 -0.026407127)
(0.07805328 0.028672353 -0.027231187)
(0.075991165 0.030469642 -0.027984302)
(0.097981823 0.029347932 -0.028261017)
(0.096228251 0.031233206 -0.029061266)
(0.094159195 0.032969796 -0.029740194)
(0.1179505 0.030678155 -0.030088814)
(0.1161718 0.032488502 -0.030772331)
(0.11397974 0.034227547 -0.031421942)
(0.13939313 0.030686573 -0.031803705)
(0.13745849 0.032490144 -0.032436847)
(0.13536418 0.034083664 -0.032949196)
(0.16208388 0.029221266 -0.033411008)
(0.16028881 0.030917668 -0.033936859)
(0.15805513 0.032571878 -0.034468374)
(0.18599626 0.026517549 -0.035229064)
(0.1842227 0.028320478 -0.035425933)
(0.18189925 0.029914617 -0.035835971)
(0.21081503 0.022776336 -0.036644509)
(0.20878285 0.024556482 -0.036828961)
(0.20660939 0.02600409 -0.037201234)
(0.2363782 0.017898742 -0.038194464)
(0.23428579 0.019423498 -0.038313741)
(0.23218893 0.021026374 -0.038373559)
(-0.00059894076 -0.00020143084 -0.00020875359)
(-0.00071403483 -9.640383e-05 -5.2641732e-05)
(-0.00080455258 0.0001868711 -9.7249752e-05)
(-0.0016398521 -0.00059186652 -0.00084602059)
(-0.0019185952 -6.1948668e-05 -0.00073389469)
(-0.0021175982 0.00053721401 -0.00078812943)
(-0.0026204808 -0.00091158432 -0.0017596853)
(-0.0029207833 -0.00010247227 -0.0016871584)
(-0.0033828173 0.0008501336 -0.0016715019)
(-0.0033879072 -0.0011712368 -0.0029185208)
(-0.0038814028 -0.00010216558 -0.0028497563)
(-0.0044397865 0.0011081689 -0.0028587497)
(-0.003682346 -0.0013589453 -0.0043631099)
(-0.0041968179 -3.646307e-05 -0.0042432347)
(-0.0050195907 0.0013849471 -0.0042900987)
(-0.003257872 -0.0016038794 -0.0059381665)
(-0.0039392577 -0.00011942567 -0.0058616634)
(-0.0049081015 0.0015125372 -0.0058501951)
(-0.0019750804 -0.0016736987 -0.007776304)
(-0.002737461 -1.179684e-05 -0.0076192137)
(-0.0038456485 0.0016852411 -0.0076453011)
(0.00048050034 -0.0018949564 -0.0095925212)
(-0.00034498795 -0.00016206791 -0.0094483868)
(-0.0017117939 0.0017747918 -0.0094709894)
(0.0041364143 -0.0019256662 -0.011637132)
(0.0031763732 -6.154266e-05 -0.011470534)
(0.00173704 0.0018241902 -0.01148825)
(0.009345419 -0.0021072794 -0.013615728)
(0.0083540292 -0.00025588744 -0.013412092)
(0.0066890736 0.0017929128 -0.013426181)
(0.016085988 -0.0022070076 -0.015681798)
(0.014966182 -0.0002584638 -0.015461399)
(0.013209469 0.001723476 -0.015506584)
(0.02460199 -0.0024001227 -0.017714766)
(0.023448629 -0.00051862014 -0.017478434)
(0.02153367 0.0015535476 -0.017521985)
(0.034912664 -0.0026021984 -0.019697899)
(0.033669052 -0.00068631526 -0.019446788)
(0.031648879 0.0013177559 -0.019514061)
(0.047120187 -0.0029107838 -0.021660657)
(0.045826432 -0.0010737234 -0.021402779)
(0.043686446 0.00096116292 -0.02148825)
(0.061235524 -0.003258779 -0.023528318)
(0.059856293 -0.0014349798 -0.02325859)
(0.057654588 0.00052224644 -0.023373335)
(0.077258628 -0.003768922 -0.025338345)
(0.075833358 -0.0020309128 -0.025082565)
(0.0735389 -5.8428162e-05 -0.025218217)
(0.095141378 -0.0043572938 -0.02705079)
(0.093625431 -0.002624093 -0.026797048)
(0.091293074 -0.00073679506 -0.026960237)
(0.11481835 -0.0050520316 -0.028717546)
(0.11323222 -0.0034422196 -0.028479543)
(0.11089344 -0.0015550513 -0.028671359)
(0.13614256 -0.0059532104 -0.030252735)
(0.1344975 -0.004305914 -0.030063616)
(0.13210661 -0.0025265322 -0.030214096)
(0.15897891 -0.0068874094 -0.031841486)
(0.15724851 -0.0054951697 -0.031576198)
(0.15489981 -0.003605595 -0.031838762)
(0.1833063 -0.007985684 -0.033105989)
(0.1812077 -0.0064991273 -0.033211888)
(0.17908782 -0.0047002966 -0.033242029)
(0.20837238 -0.0094392805 -0.034632164)
(0.20643644 -0.0077418868 -0.034513844)
(0.20412817 -0.0061432404 -0.034759773)
(0.23461553 -0.010547759 -0.036045657)
(0.23284768 -0.0090756978 -0.036053936)
(0.23065893 -0.0072386562 -0.036113006)
(-0.00024721895 0.0038569437 -1.700584e-05)
(-0.00039883285 0.0040622602 9.3723527e-06)
(-0.0006128395 0.0041395746 -7.1796976e-05)
(-0.0011895807 0.0071971738 -0.00044903756)
(-0.0015398472 0.007701308 -0.00042635487)
(-0.0019841761 0.0081978724 -0.0004468449)
(-0.0019878629 0.010051211 -0.0012774542)
(-0.0024216325 0.010953292 -0.0011299709)
(-0.0030595439 0.011763651 -0.0011140205)
(-0.0025367667 0.011933086 -0.0023988425)
(-0.0031556677 0.013135619 -0.0022138728)
(-0.0039009837 0.014089718 -0.0020850611)
(-0.0027208879 0.012732847 -0.0037533646)
(-0.0033834254 0.01407747 -0.0034859656)
(-0.0043201109 0.015379263 -0.00316466)
(-0.0021846011 0.012348149 -0.0053483324)
(-0.0029736634 0.013959633 -0.0049219061)
(-0.004049314 0.01533658 -0.0046265757)
(-0.00085838305 0.010709178 -0.0070043311)
(-0.0017013825 0.012450096 -0.0065176549)
(-0.0029521015 0.014037727 -0.0061332292)
(0.0015661613 0.0079264969 -0.0088314635)
(0.00059008428 0.0097577597 -0.0082990423)
(-0.00078052937 0.011435648 -0.0077587342)
(0.0051238462 0.0040588 -0.010703686)
(0.0040366045 0.0060145222 -0.010059155)
(0.002558353 0.0078185698 -0.0095192007)
(0.010118121 -0.00070528496 -0.012593904)
(0.0089950175 0.0012769092 -0.011925412)
(0.0073582309 0.0031342009 -0.011307309)
(0.016549268 -0.0060849867 -0.014554044)
(0.015264165 -0.0040705511 -0.013821359)
(0.013589332 -0.0021711137 -0.013156274)
(0.024683831 -0.01191654 -0.01642826)
(0.023372564 -0.009887535 -0.01567177)
(0.021552963 -0.007938916 -0.014992332)
(0.034506708 -0.017807037 -0.018338427)
(0.033050051 -0.01579613 -0.017563983)
(0.031214094 -0.013861171 -0.016839788)
(0.046208476 -0.023556856 -0.020165852)
(0.044710604 -0.021554365 -0.019370905)
(0.042764253 -0.019612911 -0.018658317)
(0.059789512 -0.028855341 -0.02194463)
(0.05815785 -0.026889637 -0.021180185)
(0.056216406 -0.024972446 -0.020454732)
(0.07531859 -0.03348202 -0.023675491)
(0.073655502 -0.031554229 -0.022909681)
(0.071620172 -0.029651477 -0.022213247)
(0.092785591 -0.037248345 -0.025321801)
(0.090975055 -0.035343019 -0.024609947)
(0.088972846 -0.033480659 -0.023933912)
(0.11215089 -0.040022124 -0.026908595)
(0.11034486 -0.038178643 -0.026239605)
(0.10829334 -0.036361721 -0.02562295)
(0.13332691 -0.04176455 -0.028452315)
(0.13140473 -0.039973748 -0.027842917)
(0.12931019 -0.038120851 -0.027272989)
(0.15621867 -0.042428719 -0.029861633)
(0.154239 -0.040620978 -0.029374707)
(0.15224789 -0.038861079 -0.028901154)
(0.18050342 -0.042117038 -0.03136937)
(0.17851257 -0.040374971 -0.030928095)
(0.17641209 -0.038577659 -0.03052774)
(0.20618393 -0.040888587 -0.032709983)
(0.20412717 -0.039182341 -0.032321838)
(0.20216365 -0.037405117 -0.032096432)
(0.23266543 -0.039033233 -0.034056612)
(0.23054185 -0.03709174 -0.033905675)
(0.22855467 -0.035530192 -0.03383851)
)
;

boundaryField
{
    free
    {
        type            calculated;
    }
    fixed
    {
        type            calculated;
    }
    traction
    {
        type            calculated;
    }
}


// ************************************************************************* //
