/*--------------------------------*- C++ -*----------------------------------*\
  =========                 |
  \\      /  F ield         | OpenFOAM: The Open Source CFD Toolbox
   \\    /   O peration     | Website:  https://openfoam.org
    \\  /    A nd           | Version:  6
     \\/     M anipulation  |
\*---------------------------------------------------------------------------*/
FoamFile
{
    version     2.0;
    format      ascii;
    class       pointScalarField;
    location    "1.9";
    object      p;
}
// * * * * * * * * * * * * * * * * * * * * * * * * * * * * * * * * * * * * * //

dimensions      [1 -1 -2 0 0 0 0];

internalField   nonuniform List<scalar> 
28033
(
288630.25
-428600.95
131.14495
188.52689
641919.75
-513613.06
379.76411
-267.56987
277053.37
241097.23
208045.92
168011.98
124012.72
82721.215
40708.433
-6988.2955
-50969.445
-93633.717
-140349.66
-164283.89
-214031.97
-254931.8
-254422.53
-619.95178
-1391.387
-1987.2655
-1798.1339
-1954.9185
-1334.0846
-1022.8785
-363.33423
299.39649
778.18215
1298.991
1628.7912
1751.4318
1467.6989
869.93017
81759.328
85237.439
81279.285
86509.496
89720.761
91438.745
95234.205
95842.519
98956.134
99288.255
102046.12
102562.27
104599.42
105007.95
107393.91
107525.67
109160.08
110134.95
111150.22
111941.21
113201.97
113772.11
114430.89
115336.49
115572.59
116158.21
116537.9
116855.84
116890.44
117201.99
117007.7
117062.24
116930.15
117195.09
116257.11
116517.65
115979.37
115915.16
115382.61
115098.62
114471.65
114257.89
113497.6
113233.95
112594.81
112234.07
111643.26
111260.73
110689.12
110235
109672.51
109155.17
108499.09
107895.73
107104.89
106311.24
105337
104285.36
103010.67
101646.84
100027.3
98237.658
96161.789
94003.16
91518.754
88917.609
86317.106
83059.47
79489.006
75808.625
72034.589
68237.767
64251.759
60198.871
56045.261
51909.321
47773.997
43722.914
39648.268
35865.71
32084.284
28485.862
25008.391
21544.535
18513.114
15560.153
13047.733
10573.112
8428.7992
6344.551
4724.6632
3093.5831
1960.3472
997.03462
206.63481
-77490.302
-72115.189
-83063.754
-79368.939
-89467.907
-91463.393
-92888.634
-95353.509
-96774.801
-97994.992
-98698.242
-100042.93
-100087.19
-101539.94
-101384.82
-102783.84
-102535.03
-103714.97
-103953.82
-104727
-105224.22
-106267.37
-106426.09
-107515.61
-108084.99
-108322.31
-109446.22
-109160.9
-110202.25
-109679.34
-110303.46
-110027.05
-109750.8
-109957.21
-109024.34
-109394.86
-107902.5
-107996.54
-106645.1
-106544.17
-105272.2
-105063.87
-103925.07
-103615.28
-102670.61
-102314.88
-101507.33
-101142.33
-100417.8
-99999.155
-99278.398
-98743.313
-97925.119
-97178.671
-96164.077
-95133.009
-93811.976
-92430.619
-90759.546
-88967.17
-86919.199
-84728.327
-82303.224
-79739.9
-76988.911
-74094.57
-71130.665
-68051.299
-65060.849
-61430.118
-58346.806
-54850.446
-51600.295
-48200.072
-44917.386
-41590.592
-38350.794
-35105.747
-31946.206
-28861.759
-25863.769
-22914.674
-20094.608
-17364.175
-14757.492
-12300.725
-9975.9793
-7842.4273
-5890.5469
-4141.1295
-2638.9578
-1439.7526
-424.0598
54.262786
262.54869
534778.69
520899.19
392827.07
398747.31
294198
193587.29
142640.35
45687.931
-29559.147
-119860.5
-187133.82
-271745.29
-354628.4
-408197.88
-438017.04
-110050.19
-90198.365
-47113.988
-95139.9
-76802.449
-88877.831
-85057.058
-93222.262
-87345.038
-94376.389
-96041.683
-95452.688
-99511.479
-98246.415
-101970.4
-102516.18
-101680.06
-105029.21
-104027.69
-107393.81
-105985.02
-106423.42
-111023.17
-107566.98
-113464.3
-110814.43
-110119.4
-111551.1
-109144.33
-110489.38
-112464.03
-110316.87
-111733.95
-110037.54
-111152.01
-107267.51
-109864.78
-108247.04
-108251.39
-107047.85
-106926.32
-105816.27
-105505.82
-104508.43
-104175.23
-103220.24
-102844.52
-102005.24
-101552.94
-100816.96
-100328.43
-99639.369
-99095.161
-98395.739
-97730.436
-96974.25
-96114.11
-95184.817
-94100.884
-92886.474
-91484.87
-89933.653
-88137.305
-86171.175
-83936.19
-81513.182
-79130.137
-76173.795
-72036.593
-69657.141
-66335.679
-62637.332
-58970.509
-55198.106
-51364.579
-47477.449
-43647.657
-39838.26
-36117.351
-32484.162
-28986.093
-25614.906
-22445.116
-19408.065
-16602.043
-13949.235
-11533.588
-9272.9767
-7266.5913
-5423.7963
-3817.2137
-2420.8551
-1288.3663
-347.97136
144.60668
877.49044
2026.4647
1966.5973
2257.612
1572.903
1383.809
439.36082
-155.13863
-845.80621
-1556.6754
-1514.6818
-2562.384
-1495.276
-1708.2207
-650.91939
355.52442
389.26471
1172.9196
2436.8812
3744.4013
5609.0614
7604.9614
9933.1428
12249.126
15090.279
17803.449
20721.068
23894.985
27191.508
30594.863
34095.485
37728.833
41379.295
45139.269
48945.611
52800.708
56700.491
60600.749
64416.583
68388.566
71966.597
74284.752
81265.852
83062.645
86867.26
90178.443
93381.83
96322.606
99104.924
101628.1
103960.3
106009.2
107893.17
109459.03
110921.72
112055.58
113159.05
113925.23
114768.31
115266.9
115953.43
116279.56
116898.66
117179.33
117788.26
118029.19
118770.94
118943.29
119703.27
119887.76
120813.15
120689.38
120466.44
122886.07
122240.69
121507.1
124363.21
122154.96
123240
121238.62
123983.9
120038.25
123065.48
120843.87
121269.44
119710.01
118376.31
120026.31
118142.78
116711.1
118062.22
114692.6
116978.51
113171.31
113971.59
114718
113798.27
112490.16
112807.76
109426.3
108146.18
109204.51
107080
104723.83
100547.64
98585.031
99447.377
96024.406
86311.147
105435.02
208432.73
223064.35
236677.59
249256.05
261008
267330.12
273956.78
276104.76
277944.92
271521.53
278198.9
262060.66
252875.5
273188.9
212411.91
-350537.49
-428521.35
-416566.81
-448059.85
-427398.57
-410710.14
-467517.9
-487585.76
-453422.53
-448620.29
-424519.91
-404489.73
-373403.88
-363534.29
-346813.27
-220.75951
-223.52607
-103.76737
71.248109
273.38947
447.00812
457.72515
444.18241
360.3608
168.04273
-45.936043
-84.585297
-216.01837
-172.1961
0.031427266
153.54059
273.67921
297.42815
194.1055
36.710462
-181.17085
-312.00218
-428.40884
-486.79577
-474.22773
-336.1898
-276.24095
-43.151928
88.162045
-133.13744
80502.714
78013.515
72643.681
75248.885
78139.037
79907.68
82768.018
84608.912
86751.946
88706.238
90208.926
91718.043
92949.22
94501.726
95465.281
96597.73
97847.765
98960.374
99647.841
100767.3
101462.7
102270.71
102850.12
103505.49
103603.63
104624.12
104426.14
104770.63
104784.15
105233.36
104710.82
104987.5
104942.95
104711.17
104579.63
104325.67
104095.71
103724.96
103372.01
103238.18
102993.9
102589.1
102183.78
101820.83
101358.62
100965.33
100512.38
100051.87
99556.65
99062.945
98524.44
97951.683
97348.416
96699.07
95968.178
95193.323
94309.84
93325.801
92223.953
90997.536
89597.174
88002.129
86297.508
84410.477
82169.02
79762.71
76888.294
74219.209
71334.569
68207.963
64989.463
61483.102
57939.416
54352.668
50605.602
46895.977
43208.475
39523.408
35905.97
32516.636
29070.684
25901.513
22885.153
20166.036
17442.415
14947.503
12629.791
10480.785
8507.2713
6800.1025
5124.7384
3732.3138
2373.9424
1169.5259
-127.52575
74128.949
65145.666
59590.412
62685.256
64423.901
66204.601
69077.917
70903.145
72995.906
74306.156
76199.2
77300.865
78892.088
79816.334
81249.731
82060.352
83345.622
84058.966
85036.009
85819.32
86467.939
87039.288
87622.522
88074.589
88414.17
88679.884
88818.583
89223.795
89093.404
89207.669
89146.595
89305.429
88958.652
88993.003
88862.028
88771.004
88479.947
88462.391
88234.147
88086.749
87743.921
87655.774
87170.824
86956.526
86534.572
86238.065
85797.67
85408.862
84947.96
84509.066
83997.525
83501.923
82952.112
82387.748
81758.118
81111.383
80366.248
79578.714
78675.163
77693.759
76554.277
75292.642
73954.149
72362.208
70673.815
69098.438
67711.262
65362.082
63236.572
60693.528
57918.692
55016.504
52011.544
48748.459
45460.496
42258.155
38895.729
35726.981
32478.794
29484.939
26427.239
23618.399
20985.138
17939.569
15577.596
13232.176
11188.487
9383.4639
7775.3804
6165.8363
4853.9253
3460.8999
2309.1855
1065.7143
-435.43482
60388.904
55686.293
49344.406
51797.872
52218.642
54166.031
57048.57
58129.43
59808.16
61575.962
63092.354
64208.191
65496.444
66680.858
67710.346
68651.021
69467.626
70428.573
71077.438
71836.471
72223.144
73156.881
73104.657
73928.636
73733.208
74420.407
74142.587
74569.971
74223.923
74722.427
74310.262
74524.383
74237.271
74491.758
74216.469
74290.688
74236.467
74417.128
74095.752
74098.648
73828.233
73715.295
73497.27
73360.449
73019.073
72812.636
72409.207
72131.769
71693.624
71350.976
70879.941
70484.717
69992.947
69535.452
69007.8
68483.009
67884.678
67260.231
66540.876
65766.651
64867.343
63872.994
62773.295
61407.691
60092.703
58766.396
57575.942
55421.168
53735.82
51677.765
49486.526
46907.913
44118.204
41473.134
38708.655
35898.277
33191.959
30403.347
27754.823
25159.642
22618.442
20338.453
17924.578
15876.91
13897.453
11923.346
10082.865
8665.2237
7156.1998
5845.4496
4583.3959
3303.1857
2181.7129
582.05563
-781.94208
48121.069
43581.896
38024.115
40120.404
39565.209
42190.488
43786.629
44758.475
46709.173
47989.52
49177.024
50162.585
51570.642
52299.708
53488.056
54018.502
55219.563
55692.122
56452.789
56932.342
57650.098
57851.785
58259.724
58636.672
58694.81
58999.669
58956.082
59193.547
59059.396
59187.151
58933.897
59137.944
58964.009
58974.741
58925.636
58957.932
58707.463
58479.202
58143.399
58220.848
58112.629
58149.444
57917.396
57782.026
57582.488
57355.49
57105.464
56842.049
56512.055
56211.871
55856.505
55516.598
55148.438
54790.765
54406.696
54027.177
53618.304
53189.286
52712.423
52197.705
51612.861
50939.266
50166.787
49303.975
48357.064
47203.02
46179.263
44642.953
42677.13
41057.367
39296.118
37291.898
35507.228
33408.454
31119.881
28906.408
26634.85
24448.332
22261.394
20157.987
18159.146
16272.198
14412.933
12529.146
11003.366
9817.9275
8545.9521
7313.0424
6190.8918
5052.7925
4055.5382
2958.5512
1872.9322
667.22375
-704.16161
38732.338
31768.38
26401.786
28886.314
29160.495
30445.468
32015.689
32903.458
34256.472
35315.86
36322.125
37356.846
38297.885
39157.551
39798.438
40673.755
41363.949
41915.315
42434.293
43214.431
43246.168
43928.101
43895.008
44423.493
44116.664
44698.275
44176.738
44695.649
44177.513
44628.519
44181.108
44625.939
44112.999
44574.396
44316.308
44568.089
44890.638
45998.73
45940.368
46572.97
46582.004
46611.835
46505.252
46586.435
46377.558
46290.141
46079.143
45901.901
45616.189
45427.17
45119.934
44882.237
44602.273
44351.472
44078.965
43835.807
43561.936
43297.601
42994.073
42676.308
42307.781
41820.489
41353.812
40744.226
39924.353
39199.294
38255.716
37049.984
35776.376
34390.708
32860.867
30983.293
28683.767
26703.865
24801.229
22890.801
21164.512
19390.776
17661.071
16037.817
14417.54
12978.286
11493.097
10284.335
8959.1716
7967.0619
6872.8225
6012.3503
5072.5795
4259.5894
3455.8288
2474.1534
1721.0684
510.2414
-597.92995
24161.77
20962.407
16542.754
18624.517
17566.952
18326.676
20114.808
20213.937
21393.707
22258.897
22964.569
23688.076
24655.753
24976.735
25980.408
26455.017
27100.605
27301.529
28149.882
28101.638
28594.831
28759.359
28929.141
29089.069
29119.612
29214.617
29105.508
29279.353
28982.094
29189.66
28915.263
29063.481
28854.621
29123.555
28860.999
29204.913
29458.396
30052.025
30606.746
31266.732
31599.265
31829.706
31755.362
31823.369
31737.81
31707.709
31565.528
31477.819
31288.855
31169.817
30960.1
30828.576
30642.26
30522.673
30369.269
30283.926
30165.165
30096.635
29999.018
29915.141
29775.546
29660.903
29420.452
29131.055
28866.442
28281.355
27867.401
27145.834
26361.112
25482.818
24339.64
23095.651
21843.749
19997.853
18418.666
17142.81
15809.007
14532.701
13292.789
12102.169
10929.668
9892.1442
8863.7232
7974.4335
7052.8204
6398.6172
5532.3321
4902.7585
4152.5416
3515.0677
2841.0959
2104.7379
1448.6424
458.55138
-417.55599
11883.262
8019.8709
6692.2712
7512.4237
6694.9347
7598.4119
8572.4088
8323.7273
9370.2739
9816.3902
10288.398
10991.5
11420.053
11992.338
12555.447
12929.56
13275.434
13948.427
14076.903
14496.555
14653.071
14956.101
14859.477
15220.977
14763.713
15227.887
14675.794
15056.064
14500.72
14999.745
14391.897
14936.156
14499.493
14968.175
14666.993
15220.962
14910.738
15583.29
15109.543
15496.774
15439.82
15825.828
15697.303
15973.479
15891.814
16008.253
15932.915
15970.706
15859.07
15872.409
15763.924
15772.989
15716.249
15746.611
15759.05
15841.199
15919.479
16051.88
16175.367
16323.839
16469.799
16582.449
16661.452
16732.937
16654.684
16619.369
16376.583
16114.747
15749.079
15260.45
14703.682
14030.863
13022.086
12628.884
11882.192
11054.632
10115.675
9288.8798
8443.0351
7630.2433
6873.3031
6202.4623
5501.9584
4998.889
4377.8852
4015.6063
3459.6565
3262.6579
2760.6929
2582.499
2084.9947
1747.5268
1234.5238
518.26847
43.489413
-1653.6898
-4338.5736
-4158.6435
-4814.1615
-4067.3736
-4662.3443
-3785.0221
-4161.5077
-3698.2329
-3395.2369
-3188.2465
-2965.4426
-2410.1869
-2213.2961
-1791.8397
-1591.7303
-980.09251
-1098.4371
-612.83214
-618.11623
-292.39649
-310.17538
-183.70389
-372.1034
-287.71169
-352.86421
-579.96652
-508.11753
-751.56709
-663.47694
-937.77149
-659.07626
-956.64323
-602.666
-724.55828
-391.53373
-349.74084
129.8389
18.35053
299.69911
403.29351
715.01629
790.59292
1036.0104
1055.2333
1199.7616
1237.2971
1299.6334
1304.2824
1376.0769
1379.304
1464.417
1533.6424
1670.778
1823.1262
2051.5984
2304.626
2620.7358
2963.3255
3367.968
3756.5301
4190.9725
4616.3034
5004.647
5400.2756
5686.3489
5978.4964
6164.2289
6258.1267
6330.5302
6227.9075
6061.8473
5857.1338
5668.5337
5442.22
5122.2796
4760.3614
4405.7138
4025.5489
3707.1085
3385.7505
3120.2944
2874.7501
2710.7938
2506.9436
2445.9264
2266.947
2229.9205
1972.4601
1909.6602
1581.6104
1382.757
1071.2703
645.8364
316.41712
-13818.998
-15541.849
-13588.206
-14031.803
-13929.445
-15107.55
-14102.952
-15559.264
-14799.023
-15199.053
-15159.06
-15043.017
-14657.319
-14816.939
-14503.732
-14141.457
-14269.798
-13954.796
-13851.442
-13837.736
-13862.402
-13969.855
-14247.92
-14027.564
-14456.355
-14331.955
-14843.12
-14518.997
-15156.373
-14722.486
-15250.12
-14745.481
-15194.916
-14562.275
-14922.395
-14251.171
-14449.574
-13813.263
-13886.094
-13236.843
-13197.194
-12706.951
-12639.464
-12249.743
-12195.978
-11896.114
-11844.288
-11638.587
-11588.282
-11389.163
-11323.553
-11105.871
-10947.948
-10671.999
-10402.988
-10015.403
-9620.0492
-9122.7713
-8590.066
-7997.6821
-7380.427
-6701.8319
-6054.4167
-5361.1299
-4741.9446
-4089.894
-3531.3817
-3004.465
-2537.4853
-2135.4858
-1840.2628
-1503.5836
-1346.008
-1166.6769
-1210.4647
-1274.9614
-1211.3662
-1204.8007
-1114.4589
-1068.2592
-983.40124
-860.73361
-744.01797
-556.06833
-419.94904
-162.49587
-72.726255
260.4637
233.19438
637.55694
504.16797
764.26904
654.46835
585.50563
565.09921
-27282.307
-29588.054
-24091.553
-26950.184
-26371.047
-27613.516
-27823.616
-28633.733
-28844.893
-29397.631
-29453.872
-29569.447
-29624.647
-29821.32
-29391.66
-29664.543
-29454.975
-29559.576
-29366.341
-29697.405
-29444.86
-29346.77
-29038.505
-29425.015
-29514.621
-29803.45
-29874.249
-30103.847
-30265.91
-30216.537
-30467.595
-30216.587
-30390.506
-30031.228
-30079.595
-29591.765
-29552.547
-29030.292
-28865.33
-28416.538
-28185.875
-27776.611
-27550.431
-27186.982
-26985.543
-26711.514
-26517.046
-26298.3
-26119.97
-25887.37
-25695.569
-25417.475
-25134.566
-24768.25
-24361.899
-23851.302
-23292.944
-22624.612
-21902.085
-21086.376
-20213.846
-19280.273
-18302.094
-17296.81
-16263.113
-15253.854
-14252.878
-13288.113
-12356.147
-11502.969
-10627.213
-9893.9429
-9110.4388
-8264.1
-6860.6556
-6271.3244
-5884.6779
-5296.9874
-4907.3044
-4411.7614
-3993.982
-3490.3308
-3056.9931
-2540.3874
-2093.5787
-1592.7408
-1178.9175
-687.70277
-419.0347
115.29063
135.41878
618.02478
641.85405
703.66903
680.70335
-41741.215
-33975.162
-32408.458
-33838.863
-34483.566
-36024.992
-36570.777
-37717.015
-38628.693
-38957.433
-39439.826
-39847.187
-40063.094
-40055.866
-40312.131
-40297.025
-40447.923
-40436.153
-40550.756
-40803.054
-41395.448
-42011.292
-42482.786
-43093.318
-43579.031
-43589.117
-44167.631
-44011.291
-44510.058
-44261.583
-44720.982
-44227.364
-44636.469
-44003.817
-44230.695
-43540.372
-43645.126
-42888.897
-42867.159
-42163.921
-42022.678
-41418.521
-41238.859
-40698.785
-40529.073
-40085.854
-39889.957
-39527.67
-39319.817
-38955.699
-38704.816
-38296.406
-37928.463
-37421.343
-36903.979
-36232.906
-35530.092
-34686.887
-33780.664
-32753.557
-31679.603
-30494.562
-29282.207
-27987.245
-26708.661
-25383.209
-24061.267
-22739.676
-21476.334
-20191.377
-18995.85
-17868.37
-16717.672
-15552.177
-14552.784
-13300.647
-11927.186
-10956.361
-9978.2704
-9093.5143
-8194.2452
-7299.4391
-6421.7358
-5530.8951
-4695.2367
-3836.5203
-3081.2751
-2310.0495
-1682.3897
-1034.805
-576.24694
-92.230975
268.95354
574.46632
1187.346
-47294.368
-47853.392
-43882.091
-44964.319
-46190.369
-47417.285
-49125.928
-50205.654
-51060.243
-52158.319
-52571.514
-53126.088
-53373.626
-53852.066
-53882.157
-54275.54
-54333.295
-54591.473
-54762.767
-55121.251
-55490.857
-56050.711
-57402.366
-58320.063
-58464.489
-59223.305
-59278.523
-59614.169
-59788.445
-59853.992
-59998.749
-59793.874
-59886.038
-59485.149
-59424.949
-58944.711
-58707.012
-58159.337
-57817.87
-57269.932
-56864.234
-56336.518
-55932.99
-55460.899
-55092.242
-54685.378
-54339.193
-53977.178
-53645.015
-53259.615
-52895.17
-52444.941
-51965.606
-51392.056
-50749.366
-49979.01
-49132.449
-48144.148
-47047.45
-45841.736
-44515.919
-43094.426
-41565.709
-39976.553
-38305.817
-36589.092
-34836.086
-33123.097
-31355.402
-29618.341
-27919.1
-26193.495
-24502.698
-22932.325
-21333.611
-20050.084
-18445.265
-16927.226
-15437.146
-14005.546
-12566.96
-11178.413
-9801.3886
-8471.0554
-7177.8181
-5945.9107
-4766.7685
-3699.0175
-2680.9981
-1819.7326
-1063.3415
-372.88815
78.103132
561.66129
1170.3242
-67489.767
-63070.653
-53959.879
-58519.322
-57678.67
-61616.457
-62106.097
-64334.156
-65191.09
-66664.995
-67309.201
-67950.125
-68646.263
-69062.173
-69485.236
-69731.092
-70289.14
-70251.927
-70923.567
-71005.004
-71406.993
-72053.159
-72058.702
-72181.639
-72656.447
-72928.421
-73408.972
-73373.074
-73901.175
-73706.375
-74099.254
-73684.852
-73995.954
-73396.635
-73525.667
-72767.275
-72728.317
-71908.156
-71740.796
-70939.611
-70646.534
-69923.35
-69594.933
-68948.697
-68602.593
-68055.403
-67692.467
-67206.366
-66833.597
-66332.415
-65907.318
-65341.486
-64781.882
-64083.254
-63335.223
-62429.545
-61445.698
-60289.748
-59036.075
-57622.327
-56095.172
-54433.625
-52663.796
-50809.001
-48838.46
-46827.288
-44764.835
-42659.432
-40533.598
-38379.896
-36231.108
-34129.569
-32071.727
-29961.089
-27922.684
-25958.825
-23987.668
-22032.255
-20128.245
-18238.333
-16409.261
-14616.388
-12874.869
-11178.265
-9568.6455
-8002.0658
-6572.9546
-5193.0543
-3984.8055
-2859.3634
-1910.5462
-1051.3373
-398.52465
317.22921
969.30599
-72868.131
-72186.764
-62602.734
-68694.566
-70454.853
-73045.563
-74808.157
-77064.923
-78523.065
-79574.466
-80668.98
-81420.984
-81934.506
-82753.573
-82975.913
-83791.223
-84049.045
-84597.57
-85034.069
-85464.976
-85944.108
-86572.68
-86721.992
-87623.484
-87696.838
-88412.526
-88647.978
-88901.177
-89321.056
-89301.831
-89510.567
-89271.719
-89290.646
-88904.907
-88600.205
-88231.515
-87779.065
-87277.193
-86678.761
-86090.983
-85508.222
-84888.283
-84327.003
-83740.421
-83228.619
-82697.851
-82223.021
-81733.379
-81267.01
-80758.032
-80246.643
-79652.369
-79006.905
-78252.424
-77402.169
-76405.518
-75281.718
-73998.177
-72557.371
-70953.587
-69192.408
-67276.357
-65211.06
-63031.503
-60681.577
-58280.611
-55740.912
-53238.599
-50657.827
-47955.111
-45399.52
-42717.864
-40047.287
-37447.557
-34812.858
-32241.44
-29698.122
-27200.179
-24783.222
-22394.917
-20081.963
-17819.62
-15630.52
-13520.851
-11495.117
-9582.621
-7769.723
-6109.9491
-4577.8073
-3220.9099
-2061.8508
-1040.3575
-291.77985
312.72312
816.208
-97727.899
-71084.764
-74668.432
-78910.278
-81424.752
-83307.382
-86354.157
-88682.608
-89649.099
-91374.095
-92448.05
-93170.867
-93893.223
-94424.301
-95184.571
-95680.396
-96667.111
-96782.136
-97589.082
-97915.611
-98452.355
-98896.277
-99642.671
-100151.09
-100955.9
-101284.98
-101916.2
-101868.16
-102872.73
-102320.54
-102931.59
-102410.55
-102685.77
-101868.27
-101681.12
-101045.08
-101163.43
-100203.35
-99768.753
-99016.907
-98423.011
-97679.717
-97092.782
-96421.209
-95852.323
-95255.647
-94726.202
-94168.653
-93651.505
-93082.443
-92511.32
-91852.994
-91139.255
-90310.326
-89364.865
-88267.276
-87028.368
-85599.227
-83997.48
-82214.33
-80240.152
-78088.186
-75765.178
-73289.491
-70639.635
-67850.952
-64902.725
-61880.052
-58970.39
-56023.732
-52955.275
-49800.875
-46770.64
-43679.642
-40608.723
-37612.638
-34661.351
-31734.13
-28902.002
-26093.545
-23365.712
-20728.384
-18163.995
-15704.646
-13361.813
-11128.588
-9052.6562
-7119.8062
-5364.6737
-3823.2913
-2489.0568
-1357.8731
-628.83883
46.580975
511.87502
163842.66
172739.82
166758.39
172474.97
174830.72
176579.27
185008.98
180554.85
182174.68
181171.03
181832.74
177146.9
175279.61
189053.89
158160.37
161416.64
163804.1
155222.14
160791.87
165540.07
168535.38
166178.79
172778.63
173011.19
175483.55
172645.96
173873.13
175903.44
179794.91
155712.17
120370.98
139996.9
124669.14
132111
131700.35
132925.02
135435.96
135208.32
137279.35
136869.09
136874.15
140711.47
132139.68
149689.4
139105.62
107881.35
108260.39
108810.66
108856.53
113279.04
113486.68
116688.41
118443.68
117923.9
120758.29
121965.99
120024.29
120141.44
135087.9
96640.695
76598.825
87590.265
77513.668
84522.379
85140.596
87000.892
88847.914
88923.229
91625.727
92738.572
92390.102
93769.109
94164.998
98448.073
88936.567
54036.169
55557.423
54244.702
56500.768
57973.735
59631.87
61300.645
62951.546
64283.638
66065.1
66087.596
70365.848
67305.343
75417.692
70277.063
28234.931
29088.366
30415.958
30758.567
34324.647
34843.416
36855.724
38413.617
38837.87
40289.329
42325.521
39974.17
44134.258
46449.571
40321.801
1486.6799
-1039.3772
761.5084
2126.3405
4162.915
4519.1162
7518.698
7759.5123
9562.0677
12171.936
11831.468
14690.721
17704.622
15956.758
24607.442
-26103.935
-28168.783
-24002.513
-23731.093
-21999.815
-20645.24
-19077.631
-17010.668
-16662.429
-12750.384
-13063.948
-10874.893
-7823.5177
-10721.917
4597.2024
-46608.672
-58051.975
-48992.792
-51108.073
-47995.877
-48663.19
-46016.213
-45667.202
-44573.163
-41533.43
-43662.146
-38175.132
-35390.312
-40886.707
-22650.861
-76038.263
-87671.492
-74260.723
-79217.308
-74989.292
-73949.388
-72571.139
-70515.991
-70519.158
-65426.398
-65220.829
-65731.882
-56916.947
-64891.831
-40958.906
-107130.61
-104995.83
-100830.05
-101055.31
-100664.4
-101124.86
-99130.517
-99475.087
-98149.497
-95154.241
-97336.756
-85072.132
-88205.32
-92386.817
-69310.204
-122668.45
-131356.85
-118673.32
-119532.98
-114603.85
-115598.94
-113738.73
-112776
-110022.89
-107018.1
-107006.74
-109319.09
-96739.517
-116826.61
-61889.092
-140994.9
-169670.69
-142142.03
-155561.85
-155485.47
-153371.99
-153207.58
-157098.4
-152489.51
-157076.11
-146609.53
-140789.96
-144552.15
-136355.24
-133914.15
-163846.2
-138458.44
-129476.86
-129240.31
-133244.42
-140059.24
-132776.69
-125081.4
-121907.07
-119543.51
-122873.96
-122952.04
-120271.79
-133501.16
-120476.04
-124834.12
-114237.48
-134009.3
-136648.25
-142485.06
-151977.24
-145966.16
-136230.93
-152970.87
-148445.06
-141916.82
-132050.12
-124521.07
-119196.35
-95721.624
-100477.37
-99172.456
-109425.93
-111197.13
-115827.48
-118641.83
-121234.11
-122007.87
-124027.59
-118789.92
-115842.17
-108645.14
-107824.61
-107151.2
-105964.98
-81617.57
-89952.541
-86918.023
-93548.389
-97377.208
-93847.531
-97815.361
-95774.159
-93325.079
-96203.277
-92360.229
-93376.534
-90605.921
-80810.837
-84564.53
-90007.898
-100562.78
-100120.55
-102196.91
-103061.78
-105479.14
-105397.02
-105895.25
-105313.09
-102998.46
-101881.75
-98633.572
-95763.717
-93439.592
-88153.888
-95115.015
-99570.192
-95491.949
-101966.12
-101430.15
-102644.81
-104608.04
-103540.98
-103853.93
-103534.24
-100669.09
-98384.929
-94560.83
-90235.186
-89267.539
-94477.605
-97983.234
-99560.354
-102310.94
-102417.04
-104650.47
-103804.11
-103761.04
-103054.17
-101111.85
-100372.44
-97889.147
-95995.726
-92897.329
-87972.298
-96426.708
-100007.02
-99666.775
-102157.99
-101230.01
-102403.18
-102707.09
-102495.08
-101819.71
-100834.56
-98505.815
-97188.957
-94624.705
-90748.504
-90674.155
-98116.778
-99564.104
-100668.64
-102328.65
-103584.52
-104043.31
-104143.7
-104081.71
-103210.57
-102431.91
-101055.87
-99084.046
-96917.261
-93690.495
-91134.198
-98889.683
-100262.07
-100496.09
-101485.01
-100753.89
-101754.43
-100878.63
-101192.44
-99768.978
-99399.349
-97910.077
-96139.701
-95298.412
-92672.19
-92783.58
-99694.513
-100364.34
-101257.5
-101943.05
-102568.46
-102743.6
-102807.09
-102397.89
-102363.42
-101164.44
-99912.067
-98853.411
-97373.161
-95200.357
-94399.685
-100608.48
-101188.13
-101576.65
-101809.34
-101523.07
-102008.79
-101445.11
-101517.22
-100927.16
-100347.07
-99399.962
-98454.344
-97090.69
-95839.703
-94948.529
-101109.43
-101309.69
-101970.22
-101884.51
-101975.65
-102133.23
-101905.79
-101632.72
-101273.89
-100613.57
-99769.206
-98676.886
-98037.651
-96543.657
-96315.225
-102316.79
-102040.11
-101945.72
-102387.44
-102184.17
-102289.97
-101810.83
-101824.1
-101443.45
-100840.96
-99975.931
-99525.004
-98587.551
-97945.916
-97131.774
-102136.71
-102686.85
-102916.82
-102597.2
-102649.94
-102679.25
-102056.5
-102686.46
-101913.93
-101471.35
-100820.82
-100353.74
-99491.119
-98525.715
-98520.159
-103528.18
-103018.35
-102806.38
-103385.9
-102810.56
-102793.16
-103387.13
-101420.21
-102132.43
-101604.93
-101037.77
-100503.5
-99811.277
-99458.939
-99291.779
-103409.21
-104008.48
-103919.57
-103948.45
-103535.92
-103975.04
-103422.36
-103430.25
-102563.13
-102699.68
-101890.88
-101718.55
-100647.31
-100703.78
-100450.67
-104750.28
-104249.09
-104539.11
-104034.28
-104429.96
-104381.9
-104127.95
-103506.47
-103854.91
-103155.25
-102738.04
-102415.73
-102390.45
-100579.43
-102293.88
-105331.17
-105167.38
-105280.53
-104921.89
-104715.15
-104884.12
-104856.05
-104415.35
-104033.02
-103944.45
-103231.07
-103216.3
-102991.17
-102153.72
-102301.41
-105702.76
-105782.36
-105942.92
-106278.81
-105747.29
-105977.99
-105256.91
-105491.76
-105245.45
-104949.92
-103816.58
-104247.17
-103876.33
-103900.64
-103655.18
-106610.04
-106392.01
-106635.83
-106349.72
-106551.78
-106607.79
-106213.87
-105807.08
-105935.24
-105484.24
-105279.51
-105142.62
-105179.86
-104608.98
-104343.33
-107510.83
-107287.62
-107576.13
-107649.39
-107200.92
-107065.53
-107040.99
-107155.61
-106839.14
-106540.91
-106667.88
-106099.42
-105971.68
-105229.22
-105171.95
-107623.71
-107963.78
-108111.72
-108124.51
-108145.54
-107992.17
-107991.75
-107679.73
-107979.01
-106822.18
-106855.7
-107057.58
-106758.22
-106125.1
-106815.4
-108919.05
-108517.73
-108937.37
-109059.21
-108884.28
-109084.9
-109018.99
-108861.42
-107951.09
-109245.98
-107633.89
-107915.38
-106455.01
-107334.41
-107024
-109255.27
-109303.84
-109562
-109793.73
-109512.65
-109821.39
-109185.43
-109155.24
-109155.38
-108579.94
-109197.51
-108238.89
-108245.64
-107423.01
-108045.69
-109811.76
-110304.4
-110032.17
-110461.11
-110078.6
-110010.32
-110138.64
-110129.5
-109735.61
-110197.23
-109109.53
-109540.93
-108608.03
-108889.11
-108342.69
-110954.5
-110401.82
-110847.38
-110782.9
-110763.94
-110957.07
-110935.42
-110558.91
-110695.01
-110149.85
-109954.24
-109017.05
-109529.07
-108682.39
-108710.04
-110867.16
-111282.69
-110760.42
-111738.8
-110959.22
-111745.12
-111136.53
-111311.67
-110917.04
-110930.41
-110251.5
-111016.11
-109637.38
-109698.68
-109940.13
-111904.5
-111182.91
-111442.16
-111812.88
-111706.06
-111849.76
-111342.82
-111464.78
-111234.29
-110984.78
-110649.28
-110443.41
-110162.77
-109932.07
-109285.63
-111571.94
-112035.39
-111967.99
-112181.29
-111749.24
-112140.21
-111907.37
-111980.85
-111739.84
-111591.69
-111106.3
-111255.44
-110252.55
-109836.37
-110437.72
-112556.61
-111494.44
-111978.01
-112212.37
-112199.79
-111945
-111950.73
-112025.74
-111790.23
-111338.93
-111002.67
-110874.82
-110728.16
-109993.37
-110165.97
-112161.99
-112154.99
-111930.18
-112567.51
-111833.18
-112912.95
-111729.66
-112173.17
-111116.99
-111797.15
-111100.75
-111157.63
-110560.53
-110065.24
-110061.87
-112340.15
-111626.56
-111979.1
-112144.08
-112052.91
-112087.29
-111962.86
-111719.52
-111639.91
-111427.51
-111020.16
-110790.9
-110471.56
-109588.39
-110071.34
-112253.98
-111689.68
-111731.56
-112242.94
-111657.79
-112300.91
-111497.59
-111918.88
-111259.34
-111458.99
-110706.71
-110806.75
-110082.79
-109753.42
-109651.86
-111622.8
-111235.99
-111353.35
-111584.54
-111357.29
-111521.34
-111267.02
-111215.35
-110854.75
-110721.31
-110333.28
-110044.33
-109813.81
-108967.81
-109394.32
-111434.12
-110948
-111102.74
-111425.26
-110990.85
-111390.8
-110831.61
-110970.43
-110497.3
-110659.51
-109876
-110049.77
-109110.29
-109209.21
-108524.66
-110346.63
-110592.48
-110159.41
-110871.82
-110122.51
-110470.33
-110161.67
-110070.34
-109809.72
-109794.13
-109176.93
-108969.39
-108718.88
-107859.17
-108557.91
-110630.08
-109651.47
-109955.83
-110066.63
-109958.42
-109993.32
-109675.31
-109704.58
-109243.59
-108851.55
-108691.87
-108662.51
-108059.36
-107745.26
-107557.34
-109506.23
-109137.33
-109056.31
-109503.07
-108848.47
-109260.54
-108742.13
-108845.89
-108336.13
-108404.34
-107836.72
-107756.12
-107368.62
-106679.12
-107100.16
-109258.28
-108311.34
-108548.7
-108776.71
-108351.44
-108699.42
-108185.84
-108294.54
-107841.54
-107855.23
-107251.61
-107334.46
-106608.67
-106390.02
-106328.76
-108151.7
-107622.98
-107678.53
-107913.08
-107471.32
-107739.22
-107255.22
-107324.77
-106895.11
-106831.16
-106301.2
-106196.22
-105858.38
-105389.5
-105596.66
-107736.97
-106823.25
-107039.97
-107235.1
-106830.92
-107100.43
-106655.51
-106731.52
-106266.8
-106305.88
-105660.13
-105775.93
-105154.01
-104879.3
-104869.15
-106721.7
-106114.03
-106208.54
-106402.74
-105957.64
-106225.1
-105768.96
-105793.83
-105416.58
-105336.38
-104854.92
-104804.71
-104356.85
-104001.86
-104175.53
-106204.95
-105372.22
-105558.14
-105708.48
-105314.63
-105584.56
-105141.37