/*--------------------------------*- C++ -*----------------------------------*\
  =========                 |
  \\      /  F ield         | OpenFOAM: The Open Source CFD Toolbox
   \\    /   O peration     | Website:  https://openfoam.org
    \\  /    A nd           | Version:  6
     \\/     M anipulation  |
\*---------------------------------------------------------------------------*/
FoamFile
{
    version     2.0;
    format      ascii;
    class       pointVectorField;
    location    "0.2";
    object      u;
}
// * * * * * * * * * * * * * * * * * * * * * * * * * * * * * * * * * * * * * //

dimensions      [0 1 0 0 0 0 0];

internalField   nonuniform List<vector> 
625
(
(0 0 0)
(0 0 0)
(0.44229005 0.054671166 0.0070567963)
(0.42977351 -0.10370196 0.001721449)
(0 0 0)
(0 0 0)
(0.4347554 -0.10692815 0.0009530159)
(0.44729488 0.050908681 0.0069406589)
(0 0 0)
(0 0 0)
(0 0 0)
(0.43868548 0.014092722 0.0047757619)
(0.43503861 -0.02434054 0.004204415)
(0.43252591 -0.062974145 0.0029038629)
(-0.00074088991 -0.00021306599 0.00026951573)
(-0.0018037511 0.00045632946 0.00078792673)
(-0.0021908675 0.0015626078 0.0012283946)
(-0.0017614914 0.0032321822 0.0015172946)
(-0.00033841394 0.0053724876 0.0018126138)
(0.0022741552 0.0080227812 0.0019906077)
(0.0064705888 0.011219336 0.0022819066)
(0.012355347 0.014786771 0.0025344155)
(0.020263404 0.018820831 0.002867382)
(0.030358517 0.023185739 0.0030983466)
(0.042908596 0.027864586 0.0035183891)
(0.058046386 0.032686626 0.0039351887)
(0.075974016 0.037589333 0.0043919824)
(0.096780182 0.042428424 0.0048903118)
(0.12055175 0.047040297 0.0053991607)
(0.14728101 0.05123462 0.005916597)
(0.17691039 0.054972479 0.0062994176)
(0.2093099 0.057784794 0.006762566)
(0.24422986 0.059942322 0.0068879351)
(0.28117523 0.060996886 0.0070905485)
(0.32009281 0.060976154 0.0072406699)
(0.36007389 0.060186341 0.0071878037)
(0.40052922 0.057949572 0.0075778988)
(-0.00054634087 -0.00021125429 -0.00017322883)
(-0.0018339374 -0.00095746346 -0.0014257085)
(-0.0021835579 -0.002121687 -0.0020388045)
(-0.0018252537 -0.00391485 -0.002921765)
(-0.00057182954 -0.0061293622 -0.0037704216)
(0.0019219073 -0.0086806417 -0.0045459897)
(0.0059225431 -0.011850477 -0.0053446282)
(0.011531973 -0.015331113 -0.0060306473)
(0.019170429 -0.019362209 -0.0067107459)
(0.028811362 -0.023723173 -0.0072968368)
(0.040816993 -0.028572756 -0.0077452189)
(0.055349302 -0.033822561 -0.0080687362)
(0.072484164 -0.039443054 -0.0082434652)
(0.092416948 -0.045430369 -0.0082238206)
(0.11520029 -0.051715415 -0.0080190323)
(0.1408563 -0.05823515 -0.0076215122)
(0.16936743 -0.064887125 -0.0069951139)
(0.20061597 -0.071561383 -0.0062046732)
(0.23442224 -0.07810052 -0.0051811355)
(0.27049389 -0.084369296 -0.0040625607)
(0.30854065 -0.090203849 -0.002732143)
(0.34796781 -0.095424011 -0.0014070452)
(0.38834695 -0.099926078 -3.7130866e-05)
(0 0 0)
(0 0 0)
(0 0 0)
(-0.00048677509 0.00012472441 1.407974e-05)
(-0.0014134472 -0.00015102444 0.00039012288)
(-0.0014294966 -0.0018532865 0.00051745034)
(-0.00081018899 -0.003127383 0.00065575025)
(0.00069088195 -0.0053771015 0.00056654939)
(0.0036089867 -0.0080981819 0.00068218539)
(0.0075738659 -0.011135014 0.0007267989)
(0.01372031 -0.014947007 0.00070170632)
(0.021435261 -0.019142701 0.00085267154)
(0.031390891 -0.023795433 0.00089609999)
(0.043638858 -0.028987874 0.0010291518)
(0.058380006 -0.034612743 0.0011801283)
(0.075765389 -0.040644216 0.0013472991)
(0.09593675 -0.047048847 0.0015197918)
(0.11894106 -0.053733029 0.0016952988)
(0.14482286 -0.060624414 0.0018444026)
(0.17354313 -0.067597396 0.0019425435)
(0.20498855 -0.074530073 0.0019919731)
(0.23894873 -0.081272248 0.0019526007)
(0.2752036 -0.087659954 0.0018580981)
(0.31323858 -0.093558353 0.001708449)
(0.35287854 -0.098822019 0.0015509994)
(0.39321873 -0.1033481 0.0014619896)
(0.4376972 -0.065922743 0.0024132758)
(0.43957896 -0.027928388 0.0040857321)
(0.44373138 0.01008693 0.0061525485)
(0.40584047 0.054223012 0.0052071994)
(0.36484082 0.056227213 0.0038835414)
(0.3246822 0.05734318 0.0024748344)
(0.28568122 0.057478476 0.0010423232)
(0.248375 0.056569664 -0.00029787355)
(0.21320375 0.054758303 -0.0015456626)
(0.18051525 0.052147021 -0.0026269902)
(0.15058964 0.048847221 -0.0035461033)
(0.12355523 0.045066681 -0.0042555069)
(0.099525107 0.040905168 -0.0047722909)
(0.078467589 0.036534672 -0.0050641347)
(0.060338334 0.032092116 -0.0051842344)
(0.044993529 0.027657418 -0.0051116287)
(0.032274189 0.02341192 -0.0049086565)
(0.021965095 0.0193279 -0.0044897878)
(0.014029358 0.015441979 -0.004131733)
(0.007920017 0.012086921 -0.0035444528)
(0.0035577525 0.0090660826 -0.0030796048)
(0.00085165324 0.0062539508 -0.0023884297)
(-0.00077765589 0.0041938013 -0.0018635556)
(-0.0012779469 0.0022404191 -0.0012833536)
(-0.0011836509 0.0010903702 -0.00075000918)
(-0.00035796909 -6.5312755e-05 -0.00010404357)
(0 0 0)
(0 0 0)
(0 0 0)
(0 0 0)
(0 0 0)
(0 0 0)
(0.43089347 -0.10507935 0.001269342)
(0.43237762 -0.10592968 0.0014411787)
(0.43339654 -0.10687877 0.0012199597)
(0.44394348 0.054422478 0.0071038299)
(0.44529148 0.053267478 0.0069426686)
(0.44645011 0.052532286 0.0068936725)
(-0.00085224204 0.00029700799 6.7908877e-05)
(-0.0023060002 0.00072284631 0.00059446464)
(-0.0027103654 0.0012535437 0.00059243147)
(-0.0025855168 0.0021246391 0.00066706139)
(-0.0013813757 0.0032146039 0.00065840982)
(0.0010759631 0.0046500035 0.00070324438)
(0.0050618697 0.0062355353 0.00070181624)
(0.010725571 0.0081348128 0.00072072131)
(0.018368393 0.01013472 0.00077906507)
(0.028342043 0.012317336 0.00085283732)
(0.040621272 0.014577775 0.0010231756)
(0.055543087 0.016828005 0.0012065091)
(0.07322189 0.019022686 0.0014778965)
(0.093794805 0.021054188 0.0018091656)
(0.11733218 0.022784685 0.0021951218)
(0.14382809 0.024209213 0.0025965118)
(0.17329287 0.025076072 0.0030492033)
(0.20548585 0.025434004 0.0034944456)
(0.24030366 0.025239511 0.0038443194)
(0.27729606 0.024208866 0.004345791)
(0.31623709 0.0225871 0.0045135627)
(0.35632218 0.020530838 0.0049088749)
(0.39745327 0.017227493 0.0051415549)
(-0.0011149882 -1.3358788e-05 -1.196435e-06)
(-0.0023335942 -9.2214106e-05 -0.00023899855)
(-0.0028109707 -0.00019840893 -0.00052220177)
(-0.0026366379 -0.0002667518 -0.00074795332)
(-0.0014746083 -0.00027452319 -0.0010087185)
(0.00091591858 -0.00026649105 -0.0013099297)
(0.0047781551 -0.00022747663 -0.0015830595)
(0.010394386 -0.0001877957 -0.0017974212)
(0.017975079 -0.00019106362 -0.0019906022)
(0.027711952 -0.00018420347 -0.002101725)
(0.039843086 -0.00027845072 -0.0021452357)
(0.054570403 -0.00047058066 -0.0020880168)
(0.072024623 -0.00082025585 -0.0019170115)
(0.092359639 -0.0013867398 -0.0016545029)
(0.11561711 -0.0021983531 -0.0012966376)
(0.1418802 -0.0033281915 -0.00083371493)
(0.17104283 -0.0048350138 -0.0002965676)
(0.20301784 -0.0066476884 0.00026025165)
(0.23761778 -0.0089655192 0.00093400725)
(0.27437576 -0.011547998 0.0015280316)
(0.31317425 -0.014465832 0.0022176219)
(0.35322477 -0.01773011 0.0029426856)
(0.39452003 -0.021000867 0.0035959794)
(-0.00085975511 -0.00066273997 -0.0003586919)
(-0.0023269247 -0.0012844515 -0.00078052208)
(-0.0026457437 -0.0019967974 -0.001171113)
(-0.0026509873 -0.0028550016 -0.0016520016)
(-0.00145604 -0.0039103336 -0.0021760042)
(0.00087512795 -0.0051867289 -0.0027215502)
(0.0047430833 -0.0065916918 -0.0031909155)
(0.01031314 -0.0082929907 -0.0036490093)
(0.01776016 -0.010155842 -0.0040627379)
(0.027427142 -0.012248074 -0.004396292)
(0.039436935 -0.014587502 -0.0046460054)
(0.054004369 -0.017151333 -0.0047707627)
(0.07128307 -0.019998459 -0.0047906841)
(0.091398132 -0.023089896 -0.0046761386)
(0.11444653 -0.026477947 -0.0044088678)
(0.14046257 -0.030127106 -0.0040092756)
(0.16936032 -0.034023039 -0.0034852548)
(0.20113814 -0.038159681 -0.002799354)
(0.23540385 -0.042425029 -0.0020635)
(0.27209641 -0.046787541 -0.0011461181)
(0.31059068 -0.051182859 -0.00028654564)
(0.35058692 -0.055348708 0.00071146747)
(0.39149499 -0.05928406 0.0017355581)
(0 0 0)
(0 0 0)
(0 0 0)
(0 0 0)
(0 0 0)
(0 0 0)
(0 0 0)
(0 0 0)
(0 0 0)
(-0.000505051 1.6128302e-05 -0.00010052573)
(-0.00045399444 5.6245379e-05 -5.9893706e-05)
(-0.00049927622 -2.2888282e-07 5.1479162e-06)
(-0.0014354777 -0.00011794481 -0.0010301752)
(-0.0011286451 -0.00020446425 -0.0004359107)
(-0.0012232404 -0.00021169294 -4.3581845e-05)
(-0.0013298085 -0.0018734263 -0.0013716552)
(-0.001150928 -0.0020378032 -0.00073455133)
(-0.0010888754 -0.0016340774 -0.00010353677)
(-0.00093051449 -0.0034333149 -0.0020404517)
(-0.00046688245 -0.0032102408 -0.0011977542)
(-0.00035314359 -0.003260031 -0.00020679922)
(0.00065148197 -0.0056017092 -0.0026294902)
(0.0011944937 -0.0056520144 -0.0015567702)
(0.0012545799 -0.0053740535 -0.00041015877)
(0.0034057341 -0.0083180067 -0.0032282749)
(0.0040602931 -0.0082264593 -0.0019158671)
(0.0041574189 -0.0081150593 -0.00055799123)
(0.0075824204 -0.011436711 -0.0037672107)
(0.0084103237 -0.01150731 -0.0023598759)
(0.0085245182 -0.011236383 -0.00060480157)
(0.013590955 -0.015160125 -0.0042869577)
(0.014274954 -0.014915302 -0.0026709619)
(0.014510158 -0.014900964 -0.00089793887)
(0.021287351 -0.019083034 -0.0047635264)
(0.022185599 -0.019189228 -0.0030682469)
(0.022479865 -0.019147004 -0.00090587193)
(0.031179691 -0.023688942 -0.005202536)
(0.032200435 -0.023771337 -0.0032563775)
(0.032460992 -0.023772278 -0.0010100749)
(0.043392573 -0.028635562 -0.0054650104)
(0.044447381 -0.028802419 -0.0034626752)
(0.04476619 -0.02889347 -0.0010114634)
(0.058042763 -0.034051713 -0.0056866038)
(0.059192859 -0.034298218 -0.0035476746)
(0.059562976 -0.034488373 -0.00096553396)
(0.075317359 -0.039843958 -0.0057465166)
(0.076553417 -0.040180163 -0.0035324973)
(0.076953402 -0.040474084 -0.00087034697)
(0.095339802 -0.046012652 -0.0056844238)
(0.096638193 -0.046445056 -0.0034315773)
(0.097084124 -0.046840054 -0.00073090967)
(0.11815593 -0.052478068 -0.0054739816)
(0.11951606 -0.052991684 -0.0032177163)
(0.12002155 -0.053483496 -0.0005408831)
(0.14380764 -0.059161338 -0.0051206573)
(0.14522875 -0.059757992 -0.0029215777)
(0.1457776 -0.060348937 -0.00032137406)
(0.17225087 -0.065962835 -0.0046248548)
(0.17369192 -0.066634442 -0.0025348129)
(0.17432508 -0.067299116 -9.8350367e-05)
(0.20337852 -0.07276478 -0.0040063531)
(0.20486788 -0.073482943 -0.0020942762)
(0.2055586 -0.074211184 0.0001438122)
(0.23700773 -0.079391485 -0.0032627134)
(0.23846842 -0.080146588 -0.0015714092)
(0.23924389 -0.080942175 0.0003523931)
(0.27285992 -0.085701802 -0.0024323421)
(0.27433012 -0.086497768 -0.0010408634)
(0.27519876 -0.087316909 0.00055691181)
(0.31057364 -0.091574308 -0.001508214)
(0.31197072 -0.092339468 -0.00045277366)
(0.31293192 -0.093186917 0.00075083883)
(0.34977314 -0.096761281 -0.00056288803)
(0.35116271 -0.097565508 0.00017039715)
(0.35223408 -0.098477067 0.00092739067)
(0.38991409 -0.10137103 0.00038669149)
(0.39116578 -0.10212365 0.00069154148)
(0.39240269 -0.10288423 0.0011095068)
(0.44047349 0.013671332 0.0055001361)
(0.44184149 0.012756188 0.0055827052)
(0.44287812 0.011784168 0.0058133921)
(0.43639366 -0.025112224 0.0043825247)
(0.43782212 -0.026206133 0.0042258418)
(0.43870622 -0.026973224 0.0041477044)
(0.43390088 -0.064154849 0.0026697044)
(0.43537167 -0.06497705 0.0027088591)
(0.43637634 -0.065691193 0.0026175993)
(-0.0007302182 -0.0004451637 0.00015521927)
(-0.00047482593 -0.0002518818 0.00015676193)
(-0.00053439228 -0.00015128185 4.638044e-05)
(-0.0014363503 0.00032616088 0.00055908391)
(-0.0011397554 0.0005783026 0.0002135074)
(-0.0010054458 0.00071428249 -0.00028302682)
(-0.0014805125 0.0014492892 0.00068944027)
(-0.001138618 0.0016828259 5.0420005e-05)
(-0.00096307617 0.0019431404 -0.00062400294)
(-0.00083521471 0.0031613438 0.00077975318)
(-0.00048001016 0.0035399696 4.6632222e-05)
(-0.00024842547 0.003746791 -0.0010002566)
(0.00067985261 0.0053917504 0.00086861716)
(0.0012652125 0.0056343362 -0.0003322087)
(0.0014260453 0.0058986641 -0.0013843057)
(0.0037114886 0.0080626762 0.00076984826)
(0.0041383211 0.0083590709 -0.00028165712)
(0.0044243387 0.0086283256 -0.0019341039)
(0.0080196415 0.011188073 0.00086692347)
(0.0086059025 0.011371945 -0.00052469985)
(0.0088888986 0.011695635 -0.0021842996)
(0.014187574 0.014666996 0.00087081764)
(0.014768582 0.015055225 -0.00063015353)
(0.01498841 0.015290013 -0.002594413)
(0.022148836 0.01884304 0.0010600863)
(0.022942849 0.018782979 -0.00079950211)
(0.023269091 0.019040295 -0.0028658528)
(0.032646546 0.022972526 0.0010096103)
(0.033273047 0.023107286 -0.00071123654)
(0.033630813 0.023201935 -0.003080095)
(0.045281903 0.027521346 0.0013228061)
(0.04603695 0.027548245 -0.00073046965)
(0.046410858 0.027629853 -0.0031862657)
(0.060601577 0.032249831 0.0015582541)
(0.061443249 0.032185098 -0.00058611266)
(0.061828333 0.032177056 -0.00314996)
(0.078656128 0.037031788 0.0019105879)
(0.079567536 0.036851558 -0.00031576075)
(0.079980531 0.036762848 -0.0029678742)
(0.099573984 0.041745567 0.0023348412)
(0.10056541 0.041461307 5.9995002e-05)
(0.10101016 0.041278169 -0.0026408201)
(0.12341634 0.046253737 0.0028352061)
(0.12447579 0.045857257 0.00053822033)
(0.124982 0.045583572 -0.002123037)
(0.15016787 0.050391597 0.0033504576)
(0.15132331 0.049892434 0.0011405555)
(0.15186935 0.049517551 -0.001475688)
(0.17979115 0.054036226 0.0039440059)
(0.18099012 0.053399724 0.0017958159)
(0.1816354 0.052921895 -0.00065391257)
(0.21209955 0.056884552 0.0044682746)
(0.2133749 0.056206764 0.0025080949)
(0.21405949 0.055665904 0.00025555135)
(0.24683181 0.059049576 0.0049751042)
(0.24814412 0.058228519 0.0033005881)
(0.24894727 0.057578332 0.001282265)
(0.28368129 0.060115324 0.005600043)
(0.28505779 0.059309517 0.0039493985)
(0.28594124 0.058543338 0.0023599571)
(0.32233459 0.060213849 0.0059026281)
(0.32371168 0.059262461 0.0047113286)
(0.32460125 0.058504878 0.0034910896)
(0.36208649 0.059176262 0.0061539829)
(0.36331334 0.058501933 0.0054733138)
(0.36440149 0.057532497 0.0045954195)
(0.40277401 0.057574286 0.0069334044)
(0.40397967 0.056565936 0.0062697631)
(0.4051901 0.055499596 0.0059183986)
(-0.00046614438 0.00036495777 -0.00023360263)
(-0.0016244912 0.0013738123 -0.00066397776)
(-0.0017703774 0.0021450554 -0.00094942579)
(-0.0015316593 0.0030818116 -0.0012856587)
(-1.5987568e-05 0.0044052847 -0.001777698)
(0.0025513762 0.005680649 -0.0021287783)
(0.0066793239 0.0071806036 -0.0025634076)
(0.012562458 0.0089511128 -0.0029165257)
(0.020418112 0.010639814 -0.0031763678)
(0.030431308 0.012567099 -0.0034008185)
(0.042916048 0.014427475 -0.0035193205)
(0.058019466 0.016255989 -0.0034811769)
(0.075893716 0.017989098 -0.00332867)
(0.096681476 0.019546944 -0.0030341527)
(0.1204513 0.020829294 -0.0025750042)
(0.14721838 0.021775517 -0.001995744)
(0.17691263 0.022305635 -0.0012663824)
(0.20940991 0.022321044 -0.00045474217)
(0.24442043 0.021776166 0.00047302928)
(0.28169295 0.020653425 0.0014291175)
(0.32073612 0.018865151 0.0024765429)
(0.36098694 0.016530528 0.0035060732)
(0.4023637 0.013381586 0.0048082932)
(-0.00096705546 -1.0699618e-05 -6.2483705e-05)
(-0.0019529401 0.00039411855 -0.0001225578)
(-0.0021131088 0.00026425188 -0.00031492462)
(-0.0018153235 0.00050222491 -0.00066193304)
(-0.0003121797 0.00035320715 -0.00082488447)
(0.0022144321 0.0003713905 -0.0011585409)
(0.0063300888 0.00033436987 -0.0013848819)
(0.012159046 0.0001951292 -0.0016108638)
(0.01991053 -3.6803652e-05 -0.001798287)
(0.029891658 -0.00027080645 -0.0019266828)
(0.042266253 -0.00069799657 -0.0019713128)
(0.057227252 -0.0012582537 -0.0019389154)
(0.074946565 -0.0019797502 -0.0018110408)
(0.095548015 -0.0029290978 -0.0015747688)
(0.11910521 -0.0041219566 -0.0012461289)
(0.14563651 -0.0056019779 -0.00083589922)
(0.17510524 -0.0073822787 -0.00032809564)
(0.20734533 -0.0095304569 0.00020075427)
(0.24216773 -0.011971602 0.00083065986)
(0.2792057 -0.014763741 0.0014236087)
(0.31813779 -0.017806837 0.0020633645)
(0.35825581 -0.02117239 0.0027083346)
(0.39999313 -0.024505085 0.0033622585)
(-0.00063447658 -0.0002457552 2.9958251e-05)
(-0.0018823472 -0.00079574844 3.0014988e-05)
(-0.0018758882 -0.00090601106 -0.00012688247)
(-0.0015879069 -0.002070667 -9.2524263e-06)
(-0.00014528528 -0.0027991434 -0.00015399448)
(0.0024073132 -0.0040723296 -0.00026114587)
(0.0065061412 -0.0056474179 -0.00028377248)
(0.012223201 -0.0073909762 -0.00038130707)
(0.019962326 -0.0094477596 -0.00040482941)
(0.029846667 -0.011836815 -0.00037775639)
(0.042074472 -0.014470443 -0.00031681617)
(0.056889413 -0.017409795 -0.00020086207)
(0.07441926 -0.02065141 -1.0149328e-05)
(0.094807594 -0.024176389 0.00021617188)
(0.11812266 -0.027982678 0.00048864991)
(0.14439064 -0.032031392 0.00079446341)
(0.17357998 -0.036314147 0.0010980304)
(0.2055377 -0.040745433 0.0013995563)
(0.24007013 -0.045287182 0.0016906354)
(0.27687784 -0.04984728 0.0019046103)
(0.31544958 -0.054305972 0.0021712913)
(0.35560649 -0.058627434 0.002255778)
(0.39635164 -0.062516485 0.0026123033)
(-0.00064451119 0.00027150328 6.4144578e-05)
(-0.0005099365 0.00022112388 1.8130158e-06)
(-0.00060104821 0.00034578902 1.6936102e-05)
(-0.0018620422 0.00059764494 0.00039997972)
(-0.0016232505 0.00078656257 0.00010470289)
(-0.001419213 0.00077239482 -0.00028985128)
(-0.0019989879 0.0013257292 0.00027801635)
(-0.0015355688 0.0015200852 -0.00019768028)
(-0.0014640508 0.0017429133 -0.00062980849)
(-0.0016036773 0.0021769476 0.00016158386)
(-0.0012133054 0.0024012393 -0.00038043532)
(-0.0010240233 0.0025239785 -0.00088122951)
(-0.00012298465 0.0033014205 6.2330904e-05)
(0.00036621067 0.003604136 -0.00059329567)
(0.00056818695 0.0038241181 -0.0012618331)
(0.0025416675 0.0046864043 -7.3772707e-05)
(0.0030987843 0.0049868882 -0.00085980472)
(0.0033671081 0.0051284713 -0.0015868455)
(0.0067358359 0.0062951911 -0.000179764)
(0.0073319878 0.0065933278 -0.0011223408)
(0.0075847407 0.0067279908 -0.001885669)
(0.012604181 0.0081265331 -0.0003096231)
(0.013283044 0.0083282679 -0.0012505051)
(0.013614387 0.0083815035 -0.0022458165)
(0.02049532 0.010018199 -0.00037016982)
(0.021270582 0.010276932 -0.0014864972)
(0.021557145 0.010336994 -0.0023903931)
(0.03058633 0.012149928 -0.00040137068)
(0.031406027 0.012274272 -0.0015346213)
(0.03170913 0.012190105 -0.0025738571)
(0.043029013 0.014316526 -0.00033286981)
(0.043909072 0.014339303 -0.0015212699)
(0.04425459 0.014229541 -0.0026547929)
(0.058088359 0.016443789 -0.00023025155)
(0.059066904 0.016414206 -0.001442542)
(0.059415382 0.016166553 -0.0025852866)
(0.075883059 0.018533468 -7.7000203e-06)
(0.076929893 0.018371331 -0.00123238)
(0.077298697 0.018031804 -0.0024015789)
(0.096540436 0.020428924 0.00029824351)
(0.097660266 0.020177963 -0.00091873145)
(0.098062184 0.01972988 -0.0020984313)
(0.12011749 0.022089485 0.0006854775)
(0.12131173 0.021714025 -0.00049779854)
(0.12175677 0.021167783 -0.0016486884)
(0.14664644 0.023396987 0.0011483367)
(0.14789792 0.022905488 3.0066607e-05)
(0.14839684 0.022260731 -0.001099947)
(0.17603926 0.024235654 0.0016739122)
(0.17734828 0.023651133 0.00060940802)
(0.17793095 0.022925296 -0.00041651393)
(0.20819129 0.024561107 0.0022144376)
(0.2095486 0.023875765 0.0012908112)
(0.21016884 0.023095072 0.00031243591)
(0.24284388 0.024361496 0.0027793141)
(0.24416924 0.023573841 0.0019352585)
(0.24496997 0.022677288 0.0011551841)
(0.27959465 0.023345783 0.0033953514)
(0.28109638 0.022521544 0.0027252776)
(0.28186182 0.021624278 0.0019574963)
(0.31822204 0.021777022 0.0037393522)
(0.31981826 0.021035202 0.003454325)
(0.32059072 0.020063594 0.002874387)
(0.35822051 0.019652542 0.0044282414)
(0.35950379 0.018871448 0.0041851265)
(0.360484 0.01775053 0.0037166355)
(0.39909242 0.016775543 0.0049718871)
(0.40031045 0.01572667 0.0048253965)
(0.40145703 0.014767508 0.0047360614)
(-0.00098947025 -5.0125167e-05 -1.4185675e-05)
(-0.00086946453 -2.6525461e-05 5.3470115e-05)
(-0.00087080039 5.1797442e-05 -1.1613094e-05)
(-0.0019388771 -8.3253574e-06 -0.00017574862)
(-0.0017590945 0.00014697993 -0.00017076027)
(-0.0015157428 0.00027753529 -0.00015888567)
(-0.0021893386 -0.00013652972 -0.0005653811)
(-0.0016695655 -3.2576795e-05 -0.00057822738)
(-0.0017900291 0.00019586486 -0.00044105391)
(-0.0017225691 -0.00012585207 -0.00077536389)
(-0.0013689607 0.00016645896 -0.00071351747)
(-0.0012211104 0.00042721827 -0.00068455303)
(-0.00049123426 -0.00011062344 -0.001129105)
(0.00026767345 3.6720036e-05 -0.0010606097)
(0.00028721916 0.00026257669 -0.00099552894)
(0.0022397514 -0.00013732525 -0.0014697028)
(0.0029018474 9.32679e-05 -0.0013132553)
(0.0029529325 0.00033325221 -0.001283573)
(0.0062610833 -0.00010138619 -0.0017517262)
(0.0071010382 5.2709157e-06 -0.0015527984)
(0.0071974813 0.00021125964 -0.0015705711)
(0.012091016 -0.00015364408 -0.0020488856)
(0.013035241 -2.7878563e-05 -0.0018100464)
(0.013050748 0.00019567239 -0.001827775)
(0.019834977 -0.00014553408 -0.0022452524)
(0.020863598 -0.00014937015 -0.0019681033)
(0.020929455 -5.1165348e-05 -0.0020429353)
(0.029770072 -0.00026843273 -0.0024031694)
(0.030895167 -0.00033467555 -0.002091395)
(0.030924172 -0.00025080089 -0.0021599822)
(0.042079296 -0.00046298832 -0.002457326)
(0.04327131 -0.00058257044 -0.0021061729)
(0.043334892 -0.00062586671 -0.0022379024)
(0.056947571 -0.00075803709 -0.0024208648)
(0.058240059 -0.0010187384 -0.0020644233)
(0.058304212 -0.0011321272 -0.0022026964)
(0.074536687 -0.001229672 -0.0022575802)
(0.07590133 -0.0015867857 -0.0018898135)
(0.075985472 -0.0018001191 -0.0020613229)
(0.094968784 -0.0019133266 -0.0020033626)
(0.096396962 -0.0023795848 -0.0016298164)
(0.096522347 -0.002692803 -0.0018156215)
(0.11831273 -0.0028333383 -0.0016256319)
(0.11978837 -0.0034200483 -0.0012590668)
(0.11997747 -0.003833976 -0.0014609128)
(0.14459495 -0.0040814289 -0.0011590936)
(0.14611243 -0.0047587722 -0.00080542628)
(0.14637517 -0.0052624474 -0.0010211288)
(0.17375364 -0.0056385077 -0.00059923855)
(0.17529375 -0.0064204213 -0.00027017323)
(0.17564086 -0.0070096295 -0.00048221736)
(0.20567706 -0.0075531935 -8.8089869e-07)
(0.20720741 -0.0084375256 0.00031685217)
(0.20768463 -0.0090785243 8.216061e-05)
(0.24011147 -0.0098553049 0.00068557716)
(0.24166812 -0.010774584 0.00092396899)
(0.24222874 -0.011532207 0.00075448332)
(0.27680804 -0.012451985 0.001293699)
(0.2782688 -0.01361423 0.0016098708)
(0.27897473 -0.014262357 0.0013611063)
(0.31546015 -0.015337979 0.0022131898)
(0.31663485 -0.016465912 0.0021200216)
(0.31765134 -0.017214063 0.0020631846)
(0.35511864 -0.018717453 0.00276868)
(0.35647903 -0.01956987 0.0029431026)
(0.35735527 -0.020535388 0.0026751362)
(0.39611749 -0.021835613 0.0034883013)
(0.39766115 -0.022927303 0.0034908142)
(0.39872742 -0.02363217 0.0034392844)
(-0.00079413391 -0.00030662168 -0.00011181738)
(-0.00053626048 -0.00031287316 -7.0106357e-05)
(-0.00068184849 -0.00026293368 1.0485267e-05)
(-0.0018621567 -0.00089531068 -0.00045863652)
(-0.0016654349 -0.00092251931 -0.0002449993)
(-0.0016915919 -0.00077097313 -6.3064395e-05)
(-0.001933545 -0.0015341763 -0.00082702323)
(-0.0014946514 -0.0011554414 -0.00051038273)
(-0.0016695538 -0.0010399631 -0.00025700524)
(-0.0016640612 -0.0023169198 -0.0011584346)
(-0.0012342864 -0.0022126836 -0.00074412745)
(-0.001209258 -0.0020997923 -0.00035437326)
(-0.00019473294 -0.0034305684 -0.0016223572)
(0.00032112563 -0.0031239589 -0.0011453883)
(0.00036166606 -0.0029991211 -0.00054531539)
(0.0023608818 -0.0046519104 -0.0020421534)
(0.0029938805 -0.0044234608 -0.0013471649)
(0.0030703572 -0.0043098259 -0.00080211766)
(0.0064520031 -0.0061655043 -0.0024406212)
(0.007183416 -0.0059058045 -0.0016866925)
(0.0072856972 -0.0058014563 -0.0010293314)
(0.012270376 -0.0078759909 -0.0028072682)
(0.012979041 -0.0076641192 -0.0019891785)
(0.013190862 -0.0076683586 -0.0011642882)
(0.019939815 -0.0098327314 -0.0031528309)
(0.020769873 -0.0096896119 -0.0021811775)
(0.021000521 -0.0096208929 -0.0013189633)
(0.029836447 -0.012054273 -0.0034121717)
(0.030699516 -0.011925264 -0.0023809775)
(0.030989721 -0.011997362 -0.0014231909)
(0.042023054 -0.014489285 -0.0036059935)
(0.042946236 -0.014497588 -0.00247435)
(0.043315999 -0.0146111 -0.0014561588)
(0.056777414 -0.017230891 -0.003690013)
(0.057762158 -0.017314876 -0.0025046577)
(0.058179063 -0.017507637 -0.001433314)
(0.07419765 -0.020239383 -0.0036793577)
(0.075228293 -0.020425954 -0.0024381119)
(0.075714048 -0.02069718 -0.0013167738)
(0.094425608 -0.023523677 -0.0035492986)
(0.095519564 -0.023817407 -0.0022781139)
(0.096067129 -0.024181019 -0.00113774)
(0.11753807 -0.02709482 -0.0032919744)
(0.11867369 -0.02749707 -0.0020269743)
(0.11929787 -0.027936322 -0.0008813374)
(0.14355063 -0.030923142 -0.0029302487)
(0.14474779 -0.031435452 -0.0016805351)
(0.14543866 -0.031947604 -0.00056989724)
(0.17242392 -0.034994659 -0.002447467)
(0.17364019 -0.035601116 -0.0012733685)
(0.17442224 -0.036170062 -0.00020582255)
(0.20404406 -0.039245432 -0.0018740051)
(0.20532152 -0.039939701 -0.00078442034)
(0.2061917 -0.040578582 0.0001729361)
(0.23817856 -0.043647002 -0.001226432)
(0.23945297 -0.044428482 -0.00028023569)
(0.24037895 -0.045060973 0.00058445784)
(0.27458497 -0.048046601 -0.00046525479)
(0.27589269 -0.048860209 0.0002971927)
(0.27695989 -0.049561321 0.00098465186)
(0.31278436 -0.052440447 0.00020368054)
(0.31403811 -0.053287308 0.00084148208)
(0.31514802 -0.053969948 0.001384301)
(0.3525086 -0.05663288 0.0010541838)
(0.3537807 -0.057510836 0.001540827)
(0.3550368 -0.058213826 0.0018336039)
(0.39301377 -0.060645551 0.0018532379)
(0.39421569 -0.061311303 0.0020573488)
(0.39548208 -0.062216172 0.0021406503)
)
;

boundaryField
{
    free
    {
        type            calculated;
    }
    fixed
    {
        type            calculated;
    }
    traction
    {
        type            calculated;
    }
}


// ************************************************************************* //
