/*--------------------------------*- C++ -*----------------------------------*\
  =========                 |
  \\      /  F ield         | OpenFOAM: The Open Source CFD Toolbox
   \\    /   O peration     | Website:  https://openfoam.org
    \\  /    A nd           | Version:  6
     \\/     M anipulation  |
\*---------------------------------------------------------------------------*/
FoamFile
{
    version     2.0;
    format      ascii;
    class       pointVectorField;
    location    "0.15";
    object      u;
}
// * * * * * * * * * * * * * * * * * * * * * * * * * * * * * * * * * * * * * //

dimensions      [0 1 0 0 0 0 0];

internalField   nonuniform List<vector> 
625
(
(0 0 0)
(0 0 0)
(0.28784214 0.047086675 0.0043051218)
(0.28108298 -0.069801303 0.00093739583)
(0 0 0)
(0 0 0)
(0.2843884 -0.07176404 0.00025663527)
(0.29119841 0.044746448 0.0042370727)
(0 0 0)
(0 0 0)
(0 0 0)
(0.28576459 0.016954511 0.0025692476)
(0.28357861 -0.011236634 0.0024834882)
(0.28235948 -0.039563427 0.0016283015)
(-0.0018482222 -0.0028973964 -0.0017547983)
(-0.0052427514 -0.0044222947 -0.0012497736)
(-0.0093992696 -0.0050541078 -0.00032535018)
(-0.013668165 -0.0047871972 0.00043472399)
(-0.017547147 -0.0034780072 0.0012336067)
(-0.020539615 -0.0012357957 0.0019386413)
(-0.022075338 0.0018608031 0.0026506389)
(-0.021746631 0.0056313698 0.0032588508)
(-0.019172291 0.0099433788 0.0037545883)
(-0.014132892 0.014568296 0.0040427772)
(-0.0064096312 0.019356269 0.0043126047)
(0.0039793265 0.024064982 0.0044229962)
(0.017013412 0.028597729 0.0044595492)
(0.032548837 0.032833408 0.0044512219)
(0.050449734 0.036685882 0.0044285692)
(0.070532766 0.040095758 0.0044388218)
(0.092624982 0.043108707 0.0043922627)
(0.11657791 0.045478135 0.0045094986)
(0.14221289 0.047464903 0.0044423811)
(0.16918002 0.048800254 0.0045199633)
(0.19760229 0.049448583 0.0046499515)
(0.22684899 0.049705612 0.0046003072)
(0.25656033 0.048856263 0.0049423508)
(-0.0011157489 0.0023093284 0.002828465)
(-0.0053356696 0.0038821491 0.00098587366)
(-0.0098240123 0.004936658 -4.421099e-05)
(-0.013987486 0.0046958914 -0.0013096812)
(-0.017949749 0.0036832868 -0.0024919497)
(-0.020976081 0.0018343484 -0.0035469456)
(-0.022490162 -0.00090479373 -0.0045264975)
(-0.022270394 -0.0042262616 -0.0052688885)
(-0.019734015 -0.0081883703 -0.0059115152)
(-0.014926347 -0.012489179 -0.0063225224)
(-0.0074989076 -0.017113265 -0.0065386543)
(0.0025132721 -0.021883853 -0.0065830687)
(0.015052679 -0.026706152 -0.0064775463)
(0.030053974 -0.031515157 -0.0062406978)
(0.047369713 -0.036253811 -0.0059072451)
(0.06684945 -0.040893994 -0.0054956082)
(0.088342986 -0.045400347 -0.004996397)
(0.11169899 -0.049768525 -0.004443404)
(0.13675432 -0.053928851 -0.0037844031)
(0.16333863 -0.057880977 -0.003087476)
(0.19130822 -0.061526189 -0.0022402682)
(0.22031766 -0.064778387 -0.0013858693)
(0.25011716 -0.067575604 -0.0004518586)
(0 0 0)
(0 0 0)
(0 0 0)
(-0.0016573386 0.0017099252 -0.002178601)
(-0.0053005147 0.0054396859 -0.0018724099)
(-0.0090681286 0.0048499524 -0.00083862216)
(-0.01329029 0.0053418678 -0.00028855562)
(-0.016981066 0.0041901949 0.00013131558)
(-0.019526192 0.0021418829 0.00070775207)
(-0.021125653 -0.00055810965 0.0011098158)
(-0.020273695 -0.004181455 0.0013778362)
(-0.017688746 -0.0082386232 0.0016830108)
(-0.012578067 -0.012718148 0.0017781567)
(-0.0049634986 -0.017499986 0.0018110917)
(0.0051789062 -0.022448311 0.0017806448)
(0.017837616 -0.027442287 0.0016852185)
(0.032920209 -0.032435259 0.0015713807)
(0.05028874 -0.037358196 0.0014577015)
(0.069812591 -0.042184491 0.0013577026)
(0.09134724 -0.046875197 0.0012721179)
(0.11474018 -0.051406897 0.0012146181)
(0.13982701 -0.055731976 0.0011496675)
(0.16648045 -0.059788143 0.0010937156)
(0.19439552 -0.063531189 0.0010138065)
(0.22355136 -0.066842545 0.00092099073)
(0.25333303 -0.069693755 0.00082512798)
(0.28587031 -0.041249332 0.0012354908)
(0.28652422 -0.013500465 0.0023585165)
(0.28915626 0.014371564 0.0038810628)
(0.2601931 0.046542766 0.0028366257)
(0.22994733 0.047179221 0.0019153809)
(0.2005517 0.047283294 0.00098695448)
(0.17212229 0.046763335 9.8970498e-05)
(0.14494789 0.045604791 -0.00069731961)
(0.11925445 0.043889129 -0.0014178553)
(0.095239033 0.041633987 -0.002040284)
(0.073086845 0.038857016 -0.0025951393)
(0.052939951 0.035620675 -0.0030648307)
(0.034985165 0.031930675 -0.0034737638)
(0.019363086 0.027863163 -0.0037955919)
(0.0062249665 0.023499528 -0.0040430172)
(-0.0043221632 0.018945227 -0.0041766595)
(-0.012239576 0.014392133 -0.0042005828)
(-0.017595492 0.0099915309 -0.0039874822)
(-0.02023713 0.0057172544 -0.0037141113)
(-0.020912135 0.0022768403 -0.0032115001)
(-0.019621698 -0.00057661146 -0.0026015909)
(-0.016782751 -0.0028655361 -0.0017477163)
(-0.013028543 -0.0039395812 -0.00082312213)
(-0.0088143751 -0.0043960371 0.00013079478)
(-0.0048267027 -0.0036457585 0.00091981329)
(-0.0019500916 -0.0025340231 0.0016224502)
(0 0 0)
(0 0 0)
(0 0 0)
(0 0 0)
(0 0 0)
(0 0 0)
(0.2818026 -0.070766786 0.00053131173)
(0.28283142 -0.071255445 0.00069807373)
(0.283477 -0.071908 0.00048090057)
(0.28899679 0.047124964 0.0043431694)
(0.28991268 0.046324009 0.0042084754)
(0.29068503 0.045958485 0.0041887936)
(-0.0010747949 -0.00077477155 -0.0012138962)
(-0.0050511063 -0.0011860691 -0.00024012971)
(-0.009400026 -0.0014604695 -8.0888811e-05)
(-0.014079969 -0.0012318182 0.00025952297)
(-0.018281451 -0.00058899448 0.00053557204)
(-0.021533475 0.00057659264 0.00083474918)
(-0.02332363 0.0020645006 0.0010981273)
(-0.0232459 0.0039633954 0.0013246024)
(-0.020897598 0.0060320895 0.0015329046)
(-0.015928639 0.0083015237 0.0016803412)
(-0.0083690965 0.010599667 0.0018073282)
(0.0019137649 0.012842984 0.0018712677)
(0.014845957 0.014966432 0.001926136)
(0.030311021 0.016887386 0.001965707)
(0.048151258 0.018539052 0.0020202383)
(0.068171112 0.019937627 0.0020717355)
(0.09025903 0.020948533 0.0021795344)
(0.11414892 0.021644892 0.0023199994)
(0.13978094 0.022009147 0.0024128191)
(0.16686245 0.021846727 0.0026984764)
(0.19535259 0.021302758 0.0027306008)
(0.22469052 0.020511301 0.0029629381)
(0.25503422 0.018643804 0.0030744639)
(-0.0010364273 -1.0855029e-05 7.8753005e-05)
(-0.0048621153 3.373694e-05 -2.9277704e-05)
(-0.0093717008 -4.7256271e-05 -0.00028719116)
(-0.014011801 -1.0382374e-05 -0.00047761712)
(-0.018305185 0.00013873172 -0.00064547072)
(-0.021641016 0.00029384866 -0.00081958375)
(-0.023528412 0.0005034618 -0.00095790099)
(-0.023489397 0.00072295667 -0.0010358363)
(-0.021186494 0.00091528031 -0.0011029929)
(-0.016389605 0.0010980301 -0.0011228601)
(-0.0089168908 0.0011867892 -0.0011243684)
(0.0012568794 0.0011811389 -0.0010797814)
(0.014070966 0.0010408544 -0.00099979876)
(0.02941481 0.00075034539 -0.00088514715)
(0.047107923 0.00031130856 -0.00073666061)
(0.067025809 -0.00030228597 -0.00052957578)
(0.088950041 -0.001107101 -0.00027519211)
(0.11274473 -0.0020281361 -6.045588e-06)
(0.13828004 -0.003231982 0.00037853958)
(0.16522148 -0.0045204964 0.0007152283)
(0.19363482 -0.0059907852 0.001145655)
(0.22300031 -0.0077147076 0.0016542143)
(0.25349258 -0.0093983571 0.0020695679)
(-0.00066984878 0.00033044163 0.00077520571)
(-0.0049828698 0.00058884993 0.00050321926)
(-0.009406848 0.00093665842 -0.00010379151)
(-0.014201519 0.0010289711 -0.00070499907)
(-0.018465934 0.00070451412 -0.0013517413)
(-0.021795137 -1.3266574e-05 -0.0019740785)
(-0.023640094 -0.0010129053 -0.0024720092)
(-0.023583184 -0.0023926026 -0.0029039722)
(-0.021317568 -0.0040105724 -0.0032340653)
(-0.016505029 -0.0058693574 -0.0034614189)
(-0.0090673413 -0.0079401689 -0.0035737023)
(0.0010387046 -0.010156775 -0.0035837638)
(0.013758787 -0.012511987 -0.0035116941)
(0.028970318 -0.014946478 -0.0033605958)
(0.046536401 -0.017456898 -0.0031323808)
(0.066296846 -0.020012163 -0.0028429304)
(0.088053204 -0.022585008 -0.0025077195)
(0.11174367 -0.025195631 -0.0020786087)
(0.13704836 -0.027782119 -0.0016418006)
(0.16400473 -0.030341507 -0.0010755247)
(0.19222097 -0.032912403 -0.00054387516)
(0.22159522 -0.035250923 9.2515775e-05)
(0.25181175 -0.037459078 0.00079255428)
(0 0 0)
(0 0 0)
(0 0 0)
(0 0 0)
(0 0 0)
(0 0 0)
(0 0 0)
(0 0 0)
(0 0 0)
(-0.0021495372 0.0011684056 0.0011028553)
(-0.002404364 0.0015292045 0.00014158942)
(-0.0022278903 0.0011213837 -0.00075720916)
(-0.0062378212 0.0051422095 0.0002952828)
(-0.0059804708 0.0050283769 -0.00034384881)
(-0.0058985727 0.0048651956 -0.0011613118)
(-0.0095608328 0.0053085666 -0.00039183314)
(-0.0095120421 0.004998108 -0.00059338565)
(-0.0094234929 0.0054905724 -0.00080125281)
(-0.013577305 0.0053498134 -0.0011320278)
(-0.013437777 0.0053888291 -0.00093687374)
(-0.013116281 0.005395421 -0.00059542311)
(-0.017176437 0.0043253992 -0.0018490073)
(-0.016693416 0.0042462603 -0.0011754151)
(-0.01666459 0.0044443058 -0.00048920533)
(-0.019679828 0.002335923 -0.0025126621)
(-0.019187188 0.0022486117 -0.001442773)
(-0.019076932 0.0023512063 -0.00034272131)
(-0.020968759 -0.00044584884 -0.0030524468)
(-0.020173416 -0.00058514637 -0.0017322059)
(-0.020142104 -0.00040220465 -0.00011677439)
(-0.020228584 -0.0040218252 -0.0035614273)
(-0.019627362 -0.0039310491 -0.0018847134)
(-0.019436442 -0.0039496054 -0.00022105732)
(-0.017652473 -0.0079616376 -0.0039250286)
(-0.016761688 -0.008107206 -0.0021561659)
(-0.016563639 -0.0080958204 -8.4055171e-05)
(-0.012607258 -0.012490708 -0.0042097863)
(-0.01162005 -0.012588303 -0.0022332626)
(-0.011479139 -0.012615621 -0.00010005274)
(-0.005081184 -0.017223722 -0.0043255992)
(-0.0040786137 -0.017349906 -0.0023439365)
(-0.0038738859 -0.017411422 -0.00011032848)
(0.0049400272 -0.022126965 -0.0043745041)
(0.0059997824 -0.022271109 -0.0023840836)
(0.0062455604 -0.022379094 -0.0001400889)
(0.01747344 -0.027059407 -0.0043073997)
(0.018550452 -0.027233928 -0.00237676)
(0.018829771 -0.027382714 -0.00017846358)
(0.032418782 -0.031965963 -0.0041671316)
(0.033495831 -0.032177584 -0.0023271033)
(0.033818339 -0.032369596 -0.00020953152)
(0.049651 -0.036789406 -0.0039496343)
(0.050717175 -0.037035847 -0.0022212301)
(0.051088937 -0.037273662 -0.00021656266)
(0.069032445 -0.04149733 -0.0036674587)
(0.070091386 -0.041784504 -0.0020714109)
(0.070496412 -0.042079909 -0.00019290578)
(0.090414876 -0.046068094 -0.0033242504)
(0.091443971 -0.046404082 -0.0018663197)
(0.091905078 -0.046745181 -0.00014575646)
(0.11364369 -0.050494318 -0.0029239173)
(0.11467463 -0.050856052 -0.0016203573)
(0.11516689 -0.051246953 -5.2278595e-05)
(0.13856664 -0.054703986 -0.0024577845)
(0.1395537 -0.05510443 -0.0013082451)
(0.14009026 -0.055556 4.6859016e-05)
(0.16499752 -0.058682489 -0.0019372102)
(0.16598 -0.059117127 -0.00097971148)
(0.16657068 -0.059596037 0.00017503347)
(0.19274143 -0.062387336 -0.0013469859)
(0.19366793 -0.062814222 -0.00059727399)
(0.19430767 -0.063325469 0.00030508453)
(0.22160311 -0.06563268 -0.00072308595)
(0.22252978 -0.066091756 -0.00017218293)
(0.22324353 -0.06667906 0.00042250408)
(0.25125435 -0.068569199 -7.5291109e-05)
(0.2520672 -0.068991792 0.00016140351)
(0.25289985 -0.069442411 0.00050226496)
(0.28705217 0.016843556 0.0032563735)
(0.28796541 0.016281005 0.0033314226)
(0.28863558 0.015666052 0.0035625996)
(0.28447434 -0.011679782 0.002638409)
(0.28546197 -0.012406214 0.0024850353)
(0.28597775 -0.012873598 0.0024172616)
(0.28333077 -0.040347459 0.0014168634)
(0.28434209 -0.040807203 0.0014713145)
(0.28495794 -0.041231 0.0014018228)
(-0.0029025628 -0.0028217557 -0.00070889849)
(-0.0027276186 -0.0027441397 -3.8176885e-05)
(-0.0027195691 -0.0026751788 0.00068307323)
(-0.0057477935 -0.0045034409 -0.00047976235)
(-0.0056889454 -0.0042811613 4.563392e-05)
(-0.005622883 -0.0041412617 0.0005611263)
(-0.0095227232 -0.0053172834 -0.00012025403)
(-0.0093328959 -0.0050565271 -7.8573818e-05)
(-0.0090880149 -0.0048384415 0.00010880858)
(-0.013321513 -0.0050330595 0.00023263169)
(-0.013129281 -0.0046928394 -7.0783098e-06)
(-0.012887309 -0.0045309439 -0.00044390395)
(-0.016862835 -0.0036813265 0.00057698857)
(-0.016474438 -0.0034499715 -0.00027606826)
(-0.016343688 -0.003245911 -0.0010237635)
(-0.019336379 -0.0015133034 0.0008228829)
(-0.019020125 -0.0012413517 -0.00016940289)
(-0.018787518 -0.0010123169 -0.0015742174)
(-0.020586547 0.0015759584 0.0012110583)
(-0.020052252 0.0017793734 -0.00019013002)
(-0.019851391 0.0020181975 -0.0018390863)
(-0.019909095 0.0052984923 0.001479378)
(-0.019349356 0.0056037409 -0.00016385391)
(-0.019228316 0.0057820438 -0.0020910256)
(-0.017258936 0.0097812003 0.0018134021)
(-0.01641434 0.0096966589 -9.7005304e-05)
(-0.01617406 0.0098837179 -0.0022579501)
(-0.011827546 0.014271096 0.0019145638)
(-0.011184928 0.014402119 3.4384782e-05)
(-0.01086826 0.014392747 -0.0022930783)
(-0.0040945268 0.019051834 0.002149819)
(-0.0033068063 0.019067539 0.00011361827)
(-0.0029765848 0.019073084 -0.0022386782)
(0.0063379348 0.023794065 0.002251381)
(0.0071832143 0.02372644 0.00023088455)
(0.0075239768 0.023676483 -0.0021146134)
(0.019347717 0.028325098 0.0023382297)
(0.020211815 0.028183586 0.00037600998)
(0.020584172 0.028087121 -0.0019224958)
(0.034839157 0.032544287 0.0024102193)
(0.035714574 0.032344708 0.00053412973)
(0.036108161 0.032198731 -0.0016870415)
(0.052673063 0.036374693 0.0024959547)
(0.053534301 0.03612208 0.00071047787)
(0.053963332 0.035935551 -0.0013787681)
(0.072664525 0.039771583 0.0025822423)
(0.073536797 0.039473218 0.00094462635)
(0.073979532 0.039234858 -0.0010357198)
(0.094681748 0.042720408 0.0027438721)
(0.095531308 0.042341639 0.0011993542)
(0.096019702 0.042062161 -0.00060462322)
(0.1185246 0.04508448 0.0028964581)
(0.11938143 0.044710461 0.0015107382)
(0.11987174 0.044400592 -0.00013275303)
(0.14399271 0.047054999 0.003086925)
(0.14485529 0.046572075 0.0019118328)
(0.14540198 0.046204298 0.00042910391)
(0.17092435 0.048321892 0.003443603)
(0.17181333 0.047867578 0.00222838)
(0.17240298 0.047420111 0.0010568608)
(0.19917831 0.049046277 0.0036066117)
(0.20008236 0.048465414 0.0026995951)
(0.20063518 0.048045285 0.0017609405)
(0.22829765 0.049020301 0.0037135138)
(0.22907156 0.048705487 0.0031955791)
(0.22978304 0.048101674 0.0024914643)
(0.25829421 0.048785825 0.0043551979)
(0.25906329 0.048127802 0.0037691085)
(0.25988889 0.04743957 0.003494263)
(-0.00067254747 -0.00020977514 0.0007899624)
(-0.0047045014 -0.00067114372 8.2537783e-06)
(-0.008676935 -0.00058998494 -0.00030978157)
(-0.013323555 -0.00038673837 -0.00081496327)
(-0.0173087 0.00039964599 -0.001360269)
(-0.020415015 0.0013393255 -0.0017456851)
(-0.022014194 0.0026558954 -0.0021312912)
(-0.021644148 0.0044120146 -0.0023671567)
(-0.019034714 0.0062433648 -0.0025212917)
(-0.013950417 0.0083269562 -0.002594568)
(-0.0061833625 0.010415447 -0.0025835443)
(0.0042465874 0.012460618 -0.00248502)
(0.017287738 0.014376648 -0.002329127)
(0.03282661 0.016094164 -0.0021129783)
(0.050718122 0.017542234 -0.0018312624)
(0.070799533 0.018687865 -0.0014993545)
(0.092905172 0.019508616 -0.0010905434)
(0.11688817 0.019963664 -0.0006383018)
(0.1425421 0.020042991 -9.5584241e-05)
(0.16975122 0.019762803 0.00048282171)
(0.19824395 0.01903943 0.0011649374)
(0.2277111 0.017950026 0.0018671798)
(0.25826836 0.016191623 0.0028423049)
(-0.00091198526 -0.00026032816 -0.00022875829)
(-0.0048703611 0.00010038073 -9.0651272e-05)
(-0.0089836888 0.00023259059 -0.00031886746)
(-0.013583314 0.00041983612 -0.00055755037)
(-0.01752208 0.00049538486 -0.00067180938)
(-0.020639542 0.00058019532 -0.00088818503)
(-0.022230869 0.00072349098 -0.00099577472)
(-0.021879517 0.00080630946 -0.0010810924)
(-0.019338795 0.00085684967 -0.0011576881)
(-0.014273045 0.00091110076 -0.0011697779)
(-0.0065820702 0.00084187405 -0.0011634807)
(0.0037526603 0.00066770331 -0.0011275348)
(0.016692022 0.00036402716 -0.0010511865)
(0.032118957 -8.9135236e-05 -0.00094333833)
(0.049894684 -0.00071066565 -0.00079822555)
(0.069856158 -0.0015032653 -0.00061353075)
(0.091860802 -0.0024610237 -0.00037243769)
(0.1157247 -0.0036205883 -0.0001090827)
(0.14131783 -0.0049108575 0.00024327453)
(0.16841899 -0.0063922126 0.00058589069)
(0.19690338 -0.0079846367 0.0009917045)
(0.2263325 -0.0098182486 0.0014000176)
(0.25725078 -0.011545012 0.0018590155)
(-0.00044736656 0.00051305335 -0.00094671943)
(-0.0050005463 0.00085688426 -0.0010005883)
(-0.0090026196 0.0019471804 -0.0011202669)
(-0.013505505 0.0015849973 -0.0005345832)
(-0.017542799 0.0014724036 -0.00043201933)
(-0.020559227 0.00073429834 -0.00019531759)
(-0.022152871 -0.00044886169 6.1996569e-05)
(-0.021828834 -0.0018899147 0.00019025628)
(-0.019245838 -0.0036623811 0.00033207826)
(-0.014193308 -0.0057110372 0.00044779368)
(-0.0065653963 -0.0079365976 0.00048972431)
(0.0037023904 -0.010341469 0.00051396754)
(0.016533268 -0.012879405 0.00052505038)
(0.031828713 -0.015511425 0.00052615889)
(0.049448492 -0.018218683 0.000544053)
(0.069241671 -0.020970452 0.00059210123)
(0.091069943 -0.023763491 0.00065981588)
(0.11475993 -0.026552784 0.00076783157)
(0.14017371 -0.02933632 0.00090347899)
(0.16714458 -0.032065728 0.0010237338)
(0.19537991 -0.034692769 0.0012046872)
(0.22489114 -0.03719856 0.0012450779)
(0.25496786 -0.039370388 0.0015157282)
(-0.0013447493 -0.00021170133 -0.00044583478)
(-0.0013550581 -0.00035316912 -0.00015267658)
(-0.0015339178 -0.00018258336 0.00042938861)
(-0.0054686218 -0.0013764391 -5.0260674e-05)
(-0.0054155854 -0.0012497141 4.4660098e-05)
(-0.0051431112 -0.0012117777 0.0001928332)
(-0.0093978003 -0.001553316 -2.6843763e-05)
(-0.009165705 -0.0013375756 -0.00013349156)
(-0.0089696396 -0.0011630827 -0.00025139709)
(-0.013659861 -0.0013846531 2.4939472e-05)
(-0.013424233 -0.0011621606 -0.00031032452)
(-0.013214574 -0.0010530326 -0.00058791266)
(-0.01746583 -0.00071337806 7.8367755e-05)
(-0.017129013 -0.0004573498 -0.00044256954)
(-0.01693875 -0.00028359759 -0.00094828245)
(-0.020363749 0.00042770164 0.00012220317)
(-0.01989795 0.00066732065 -0.00057818251)
(-0.019704315 0.00077565792 -0.001262291)
(-0.021827073 0.0019669283 0.00019645661)
(-0.021261229 0.0021858422 -0.00068322456)
(-0.021102048 0.0022600848 -0.0014683849)
(-0.021452861 0.0038402054 0.00025800523)
(-0.020773594 0.0039606051 -0.00067408874)
(-0.020569785 0.0039641879 -0.0016788365)
(-0.018839923 0.0058796759 0.00034573949)
(-0.018045351 0.0060450343 -0.00074397162)
(-0.017856721 0.0060394034 -0.0017031051)
(-0.01375259 0.0081678608 0.00042553011)
(-0.012900312 0.0082111316 -0.00068036676)
(-0.012698475 0.0081217865 -0.0017562919)
(-0.0060985062 0.01045713 0.00050746203)
(-0.0051946116 0.010438872 -0.00061083648)
(-0.0049331609 0.010325799 -0.0017222653)
(0.0042315126 0.012671635 0.00057180671)
(0.0051803628 0.012623083 -0.00054333883)
(0.0054680496 0.012447942 -0.0016266641)
(0.01715878 0.014766863 0.00065315298)
(0.018120496 0.01465913 -0.0004323191)
(0.018442002 0.014434586 -0.0014843732)
(0.032581255 0.016639232 0.00074017735)
(0.033543227 0.016493177 -0.00029865445)
(0.033897089 0.016218204 -0.0013039866)
(0.050344781 0.018265132 0.00084686158)
(0.051299821 0.018063999 -0.00012898401)
(0.05168673 0.01774237 -0.0010667505)
(0.070296294 0.019593636 0.00098509182)
(0.071235657 0.019339927 8.8956349e-05)
(0.071652277 0.018963251 -0.00079376466)
(0.09225597 0.020579815 0.0011656498)
(0.093183708 0.020279359 0.00033105699)
(0.093641224 0.019861182 -0.00044173338)
(0.11606888 0.021228259 0.0013760316)
(0.11699365 0.020878877 0.00066346188)
(0.11745188 0.02041724 -6.7228341e-05)
(0.14155771 0.021568614 0.0016318992)
(0.14242278 0.021139873 0.00097888556)
(0.14299632 0.020594273 0.00041156656)
(0.16845587 0.021369812 0.0019725196)
(0.16944878 0.020916352 0.0014506258)
(0.16995489 0.020367413 0.00087508527)
(0.1967049 0.020844853 0.0021166047)
(0.19777748 0.020455607 0.0019108243)
(0.19825139 0.019842352 0.0014685522)
(0.22602217 0.019963471 0.0025766968)
(0.22684507 0.019538472 0.0024035359)
(0.22747588 0.018779218 0.0020169745)
(0.2561612 0.018474086 0.002940672)
(0.25693387 0.017785609 0.0028261367)
(0.25769811 0.017183856 0.0027657785)
(-0.0014728288 -0.0001259315 2.6895694e-05)
(-0.0015268661 -0.00018203362 0.00013019982)
(-0.0015599007 -7.9215373e-05 -6.9731546e-05)
(-0.0053150172 -2.4672707e-05 -1.0410948e-05)
(-0.0052988212 3.2398195e-05 -5.4036731e-05)
(-0.0049757014 0.00018144952 -9.1594055e-05)
(-0.0094660162 -7.0546302e-05 -0.00030196292)
(-0.0091784899 7.8613075e-05 -0.00043852544)
(-0.0091503478 0.00026096008 -0.00036611614)
(-0.013726711 6.839465e-05 -0.00050932303)
(-0.013503395 0.00029694685 -0.00058563478)
(-0.013321884 0.00051990919 -0.00056069325)
(-0.017708191 0.00019687734 -0.00076894387)
(-0.017164141 0.00038101784 -0.00081339618)
(-0.017104123 0.00052893042 -0.00075641698)
(-0.020608623 0.00032521759 -0.00098088669)
(-0.020016511 0.00054053166 -0.00095392829)
(-0.019987473 0.00067924848 -0.00095321137)
(-0.022163145 0.00052809014 -0.0011317041)
(-0.021418787 0.00065864498 -0.001064034)
(-0.021371341 0.00075162849 -0.0010769557)
(-0.02182712 0.00068747692 -0.001276814)
(-0.020946328 0.00080079188 -0.001157559)
(-0.02097844 0.00088959993 -0.0011850012)
(-0.019310152 0.00089282946 -0.001343944)
(-0.018323047 0.00090775678 -0.0011788358)
(-0.018304224 0.00092180692 -0.0012598765)
(-0.01431012 0.00099856667 -0.0013885004)
(-0.013253949 0.00095920782 -0.001196905)
(-0.013244255 0.00096168363 -0.0012699474)
(-0.0067303861 0.00103853 -0.0013914816)
(-0.005619715 0.00095654974 -0.0011565856)
(-0.0055736416 0.00089637142 -0.0012778833)
(0.0034887179 0.00098822281 -0.0013518633)
(0.004646073 0.0008168513 -0.0011112181)
(0.0047135601 0.00073610002 -0.0012477427)
(0.016298932 0.00079918414 -0.0012720414)
(0.017471918 0.00057307864 -0.0010218553)
(0.017571521 0.0004504489 -0.0011727321)
(0.031595079 0.00046806583 -0.0011596712)
(0.032769473 0.00017984917 -0.00090401507)
(0.032902937 1.2410466e-05 -0.0010668701)
(0.049232594 -1.5047197e-05 -0.00099564769)
(0.050391973 -0.0003677705 -0.00074331609)
(0.050567579 -0.00057899684 -0.00091831738)
(0.069056289 -0.00067990334 -0.00078852915)
(0.070199018 -0.0010773243 -0.00054299011)
(0.070413463 -0.0013404886 -0.00072649729)
(0.090895282 -0.001499609 -0.00052381158)
(0.092015154 -0.0019617946 -0.00029197225)
(0.092267818 -0.0022729708 -0.00047334049)
(0.11460074 -0.0024934658 -0.00022363852)
(0.1156815 -0.0030180162 8.1498966e-06)
(0.11600357 -0.0033693042 -0.00019304716)
(0.13998318 -0.0036830258 0.00016021923)
(0.14106717 -0.0042323587 0.00033448255)
(0.14141639 -0.0046741044 0.00018725204)
(0.16689181 -0.0050031 0.00050539855)
(0.16789729 -0.0057554601 0.00075804799)
(0.16832459 -0.0061034091 0.00053938401)
(0.1952253 -0.0064698104 0.0011374694)
(0.1959967 -0.0072019211 0.0010438588)
(0.19665198 -0.0076325547 0.0009998824)
(0.22432283 -0.008314733 0.0014892446)
(0.22522545 -0.0088170017 0.001626537)
(0.22575471 -0.009448876 0.0013896421)
(0.25459301 -0.0098872463 0.0019853034)
(0.25568688 -0.010594818 0.0019874376)
(0.25636367 -0.010994682 0.0019392581)
(-0.0013536501 0.00029718752 0.00037197464)
(-0.001095356 0.00024225019 -5.8510784e-05)
(-0.0011441598 0.00024367063 -0.00042288848)
(-0.0055975603 0.00096531867 0.0002913862)
(-0.0055289316 0.00077846794 -0.00016735322)
(-0.0053931095 0.00094240003 -0.0005099251)
(-0.0094874596 0.0015530816 -0.00016853768)
(-0.0092919828 0.0018945724 -0.00033351166)
(-0.0093241241 0.0019704068 -0.00058445472)
(-0.013854103 0.0016882713 -0.00060115395)
(-0.013539138 0.0017608737 -0.00059043853)
(-0.013489119 0.0017918414 -0.00055937343)
(-0.017640498 0.0012830588 -0.0010566761)
(-0.017276605 0.0015199829 -0.00082834258)
(-0.01722777 0.0015659605 -0.00048542351)
(-0.020567382 0.00057830102 -0.001476923)
(-0.020042751 0.0007525025 -0.00097226705)
(-0.020019059 0.00076910546 -0.00056629216)
(-0.022041853 -0.00057224867 -0.0018409506)
(-0.021406501 -0.00037619307 -0.0011658113)
(-0.021363888 -0.00038886413 -0.00057833467)
(-0.021646136 -0.0020152128 -0.0021253961)
(-0.020972681 -0.0018766562 -0.0013409328)
(-0.020867488 -0.0019590706 -0.0005594605)
(-0.019117605 -0.0037659119 -0.0023694536)
(-0.018329958 -0.0036836062 -0.0014197127)
(-0.018205567 -0.0037038277 -0.00056272658)
(-0.014113721 -0.0057660208 -0.0025182381)
(-0.013274776 -0.0057039004 -0.0015103175)
(-0.01309905 -0.0057980456 -0.00057625979)
(-0.0065809403 -0.0079391916 -0.0026003507)
(-0.0056922583 -0.0079582718 -0.0015409722)
(-0.0054508194 -0.0080584943 -0.00058048745)
(0.0035757859 -0.010283628 -0.0026068641)
(0.0044935452 -0.010348077 -0.0015507684)
(0.0047857629 -0.010473209 -0.00058865294)
(0.016278889 -0.01273642 -0.0025537184)
(0.017206827 -0.012850269 -0.0015162603)
(0.017556999 -0.013003347 -0.0005726393)
(0.031441079 -0.015265455 -0.0024388903)
(0.032373214 -0.015433619 -0.0014426995)
(0.032775216 -0.015622432 -0.00054225541)
(0.048926328 -0.017856709 -0.0022642759)
(0.049843238 -0.018075894 -0.0013291818)
(0.050301827 -0.018297481 -0.00047851744)
(0.068577986 -0.020482307 -0.0020444547)
(0.069488149 -0.02075584 -0.0011648205)
(0.069994149 -0.021017113 -0.00038038291)
(0.090243048 -0.023136434 -0.0017650047)
(0.091122596 -0.023462925 -0.00096522903)
(0.091687181 -0.023756464 -0.000239714)
(0.11377177 -0.025796161 -0.0014378799)
(0.1146545 -0.026167729 -0.00070536065)
(0.11527511 -0.02651638 -6.8894415e-05)
(0.13897796 -0.028469664 -0.001063691)
(0.13983283 -0.028910673 -0.00042766913)
(0.14047402 -0.029247751 0.00014842346)
(0.16573453 -0.031068269 -0.0006027852)
(0.1665854 -0.031518052 -7.7234759e-05)
(0.16732842 -0.031923625 0.00038457489)
(0.19374659 -0.033650302 -0.00020920081)
(0.19456034 -0.034142279 0.00024856516)
(0.19531391 -0.034525729 0.00063486651)
(0.22296309 -0.03605381 0.00034623884)
(0.22377565 -0.036573979 0.00072716547)
(0.2246441 -0.036986239 0.00093616716)
(0.25287006 -0.038380429 0.00087842203)
(0.25362256 -0.038701833 0.0010519443)
(0.25449479 -0.039300999 0.001104946)
)
;

boundaryField
{
    free
    {
        type            calculated;
    }
    fixed
    {
        type            calculated;
    }
    traction
    {
        type            calculated;
    }
}


// ************************************************************************* //
