/*--------------------------------*- C++ -*----------------------------------*\
  =========                 |
  \\      /  F ield         | OpenFOAM: The Open Source CFD Toolbox
   \\    /   O peration     | Website:  https://openfoam.org
    \\  /    A nd           | Version:  6
     \\/     M anipulation  |
\*---------------------------------------------------------------------------*/
FoamFile
{
    version     2.0;
    format      ascii;
    class       pointVectorField;
    location    "1.85";
    object      lm;
}
// * * * * * * * * * * * * * * * * * * * * * * * * * * * * * * * * * * * * * //

dimensions      [1 -2 -1 0 0 0 0];

internalField   nonuniform List<vector> 
3969
(
(0 0 0)
(0 0 0)
(1671.5232 19.78172 -71.191521)
(1650.9861 -218.70204 -109.89447)
(0 0 0)
(0 0 0)
(1692.0996 -185.04469 -109.03187)
(1713.4318 54.710901 -71.51894)
(0 0 0)
(0 0 0)
(0 0 0)
(0 0 0)
(0 0 0)
(0 0 0)
(0 0 0)
(1668.6985 -9.6333794 -75.657559)
(1666.7945 -39.713978 -80.545959)
(1664.709 -70.114461 -85.888916)
(1662.4614 -100.6891 -91.21856)
(1660.0124 -131.26869 -96.527411)
(1657.0215 -161.10428 -101.48483)
(1653.8363 -190.11198 -105.84104)
(-0.15031555 4.2736864 6.9850778)
(-0.47981655 9.9797295 9.432375)
(3.1027321 14.712239 9.1307811)
(9.840298 21.197713 7.1540113)
(19.572225 27.119197 3.7623459)
(31.64083 34.062285 -0.31447035)
(46.827368 40.9294 -5.3599013)
(64.100596 48.504333 -10.978854)
(84.541417 56.214875 -17.531729)
(107.31754 64.589838 -24.43669)
(133.07068 73.111002 -32.075432)
(161.57932 82.317679 -40.087375)
(192.93537 91.555049 -48.729981)
(227.13152 101.60596 -57.487387)
(264.28184 111.53234 -66.448805)
(304.09827 121.76165 -75.419495)
(346.62738 132.03261 -84.105669)
(391.76756 142.25193 -92.476862)
(439.31448 152.14392 -100.22606)
(489.02302 161.64584 -107.16781)
(540.65687 170.46351 -113.1325)
(593.85289 178.43854 -117.84079)
(648.36688 185.28942 -121.27307)
(703.66762 190.92257 -123.21743)
(759.50186 194.85936 -123.61961)
(815.2711 197.43101 -122.48973)
(870.6887 198.1353 -119.74692)
(925.36682 196.88382 -115.6347)
(978.85125 193.7792 -110.20923)
(1030.8159 188.77387 -103.71831)
(1081.0035 181.91173 -96.418971)
(1129.1953 173.32778 -88.600657)
(1175.1609 163.23688 -80.657017)
(1218.926 151.79685 -72.79944)
(1260.3663 139.39133 -65.550349)
(1299.4462 126.22548 -59.002318)
(1336.6368 112.87391 -53.583677)
(1371.6469 99.270837 -49.421269)
(1405.1334 86.288888 -46.754535)
(1436.8713 73.877388 -45.366013)
(1467.6268 62.375651 -45.544449)
(1497.2328 52.375927 -46.888584)
(1526.2968 43.333671 -49.561328)
(1555.3386 36.066558 -53.021459)
(1583.4394 30.552764 -57.212872)
(1613.0673 25.392532 -61.880937)
(1642.1439 22.440893 -66.866681)
(5.5110164 -12.137379 -13.620502)
(8.9660198 -22.426684 -17.925435)
(16.117756 -34.366318 -18.190453)
(22.650516 -46.342388 -22.704951)
(32.830298 -58.998113 -24.825811)
(45.162744 -71.58602 -28.880181)
(59.624886 -84.57183 -33.150036)
(76.951651 -96.990741 -38.132638)
(96.38408 -109.80483 -44.039201)
(118.23269 -121.58285 -50.485796)
(142.9299 -134.03779 -57.449216)
(169.69416 -145.18653 -65.250067)
(199.20098 -156.28536 -73.223068)
(231.15236 -166.56644 -81.277097)
(265.71891 -176.24887 -89.570025)
(302.76742 -185.03546 -97.551459)
(342.41047 -192.94122 -105.24659)
(384.42789 -199.85356 -112.30522)
(428.88971 -205.74183 -118.6097)
(475.47946 -210.4741 -123.84396)
(524.30416 -214.25925 -127.91736)
(574.77954 -216.73638 -130.63045)
(627.08849 -218.42634 -131.82246)
(680.5198 -218.91601 -131.49184)
(735.07426 -218.6624 -129.67178)
(790.12344 -217.53887 -126.15241)
(845.45827 -215.88472 -121.47266)
(900.65897 -213.83077 -115.48685)
(955.26603 -211.40496 -108.51531)
(1008.7608 -208.86222 -100.88035)
(1060.9524 -206.38196 -92.903656)
(1111.3721 -204.02431 -84.935604)
(1159.7412 -201.94828 -77.361534)
(1205.8184 -200.27832 -70.536584)
(1249.4868 -198.97084 -64.773426)
(1290.4904 -198.25254 -60.393734)
(1328.9788 -197.91999 -57.608952)
(1364.9241 -198.22183 -56.514515)
(1398.4599 -198.76834 -57.27993)
(1429.8635 -199.92443 -59.721315)
(1459.5251 -201.38413 -63.684914)
(1487.6138 -203.13873 -69.155085)
(1514.8001 -205.21653 -75.609855)
(1541.3586 -207.44515 -82.772751)
(1567.7997 -209.91311 -90.128784)
(1594.6416 -212.44076 -97.422505)
(1622.195 -215.51832 -103.93562)
(0 0 0)
(0 0 0)
(0 0 0)
(0 0 0)
(0 0 0)
(0 0 0)
(0 0 0)
(2.4404845 -4.5757027 9.4195394)
(-0.01754099 -12.817867 14.506494)
(3.2057712 -20.826038 14.869343)
(9.2109191 -26.541623 15.339146)
(17.284067 -34.763447 12.7115)
(29.142482 -42.51744 10.056814)
(42.533271 -50.197548 5.9811087)
(60.019905 -59.057734 1.1104798)
(78.761517 -66.460964 -4.4766097)
(101.65478 -76.186598 -10.885003)
(126.5559 -84.523926 -17.896202)
(154.13878 -93.791435 -25.433475)
(185.69403 -103.32452 -34.208173)
(219.31422 -112.87232 -43.013538)
(256.41397 -123.27875 -52.242679)
(295.89459 -133.27432 -61.789894)
(338.49037 -144.22366 -71.123604)
(383.40415 -154.72818 -80.456456)
(430.96694 -165.73201 -89.291227)
(480.58315 -176.40523 -97.592627)
(532.26111 -187.05604 -105.04864)
(585.47844 -197.226 -111.53696)
(640.07653 -206.91942 -116.83656)
(695.44767 -215.79397 -120.82897)
(751.58678 -223.90676 -123.47404)
(807.54606 -230.72252 -124.55561)
(862.9961 -236.82181 -123.79534)
(918.18874 -240.82974 -122.24814)
(972.4346 -243.61077 -119.20444)
(1025.3527 -244.71677 -115.17964)
(1076.7248 -244.20092 -110.3558)
(1126.277 -242.18544 -104.95498)
(1173.8967 -238.72601 -99.369214)
(1219.4294 -233.97545 -93.808364)
(1262.7904 -228.13331 -88.799244)
(1304.0841 -221.58591 -84.174777)
(1343.4841 -214.84633 -81.010388)
(1380.6103 -207.37104 -78.38041)
(1416.0761 -200.53315 -77.420478)
(1449.9298 -194.05275 -77.539529)
(1482.3607 -188.47019 -79.013107)
(1513.6764 -183.87521 -81.696783)
(1544.0683 -180.68252 -85.303287)
(1573.8633 -178.82535 -89.740187)
(1603.3009 -178.46835 -94.634358)
(1632.7008 -179.57125 -99.72126)
(1662.1604 -181.94933 -104.64028)
(1695.1332 -155.12564 -104.4468)
(1697.9774 -124.71789 -99.800701)
(1701.0852 -94.550959 -95.431683)
(1704.075 -63.7589 -91.199169)
(1706.4258 -33.035653 -86.73027)
(1709.0607 -3.3512264 -82.02175)
(1710.7014 26.32995 -77.001309)
(1684.6937 57.368729 -65.376592)
(1656.9371 59.736231 -58.972772)
(1629.3598 62.245564 -51.897258)
(1601.8758 64.780927 -44.978395)
(1574.2468 67.407079 -38.304697)
(1545.719 70.439801 -32.55723)
(1515.9616 73.85526 -28.091383)
(1484.5692 77.875113 -25.153882)
(1451.1838 82.434002 -24.037154)
(1415.2667 87.777719 -24.948645)
(1377.3874 93.925791 -27.908382)
(1335.95 101.28064 -32.677441)
(1292.6288 108.17519 -39.021051)
(1246.1805 116.60746 -47.089954)
(1197.2572 125.29963 -56.245656)
(1145.941 134.37281 -66.270891)
(1092.4593 143.57014 -76.675032)
(1037.1616 152.80401 -87.1786)
(980.38112 161.53762 -97.136882)
(922.53984 170.00218 -106.60166)
(864.04326 177.43784 -114.78904)
(805.34125 184.10765 -121.76942)
(746.78046 189.46244 -127.20134)
(688.85819 193.5776 -131.07875)
(632.04133 196.18137 -133.12026)
(576.55588 197.34903 -133.56155)
(522.86812 196.87525 -132.29612)
(471.1944 194.94127 -129.52123)
(421.87287 191.41613 -125.31455)
(375.00905 186.55602 -119.94964)
(330.84895 180.29721 -113.56193)
(289.46633 173.00532 -106.39524)
(250.89036 164.42428 -98.587395)
(215.39806 154.9413 -90.461383)
(182.85809 144.95807 -82.350747)
(152.93135 134.41909 -74.062389)
(126.11383 123.05976 -65.995506)
(101.99101 111.77494 -58.448437)
(80.59286 99.85845 -51.118562)
(61.903632 88.353327 -44.526049)
(46.224232 75.985023 -38.283232)
(32.408774 64.759551 -33.165966)
(22.048535 52.529153 -27.960229)
(13.577455 41.513431 -23.839486)
(8.2440371 30.063988 -19.574969)
(5.5127288 19.900441 -14.649032)
(7.9146204 10.026565 -8.4537662)
(0 0 0)
(0 0 0)
(0 0 0)
(0 0 0)
(0 0 0)
(0 0 0)
(0 0 0)
(0 0 0)
(0 0 0)
(0 0 0)
(0 0 0)
(0 0 0)
(0 0 0)
(0 0 0)
(1655.619 -213.11039 -109.50298)
(1660.4217 -208.19616 -108.93413)
(1665.5816 -204.10398 -108.73305)
(1671.0023 -200.4201 -108.57355)
(1676.3659 -196.811 -108.76786)
(1681.9258 -193.26254 -109.24484)
(1687.1362 -189.14771 -109.13039)
(1676.8018 23.794686 -71.22755)
(1681.9605 28.093547 -70.957757)
(1686.8946 31.908683 -70.607751)
(1691.737 35.674324 -70.505432)
(1696.7294 39.651789 -70.537047)
(1701.8476 43.948614 -70.797158)
(1707.5073 48.937127 -71.475789)
(-2.0898564 4.2841456 4.982855)
(-2.8461231 7.3342846 5.8188227)
(1.0478279 9.8781465 4.8219594)
(7.2486208 13.202324 2.9464333)
(17.239803 17.101134 -0.48277206)
(29.025969 21.045323 -4.2357781)
(44.272063 25.804977 -9.3602102)
(61.45067 30.418097 -14.827235)
(81.766102 35.825023 -21.105821)
(104.54335 41.249453 -27.982815)
(130.20944 47.342686 -35.471085)
(158.46886 53.595992 -43.337965)
(189.80488 60.392073 -51.733635)
(223.71034 67.453248 -60.161534)
(260.69453 74.707448 -68.928406)
(300.40199 82.398923 -77.529558)
(342.80193 90.118033 -85.967006)
(387.81954 97.918715 -93.987639)
(435.26322 105.58954 -101.39476)
(484.92714 113.06508 -108.04896)
(536.55669 120.12369 -113.65299)
(589.85884 126.56681 -118.13816)
(644.45273 132.2998 -121.27467)
(699.97808 137.07883 -123.02514)
(756.03716 140.7269 -123.15874)
(812.22816 143.16728 -121.96473)
(868.01402 144.08021 -119.11448)
(923.19241 143.54302 -114.98378)
(977.16882 141.36563 -109.60689)
(1029.6586 137.67032 -103.2721)
(1080.4096 132.32611 -96.149056)
(1129.1119 125.5466 -88.651708)
(1175.6077 117.37388 -80.974363)
(1219.7714 107.97914 -73.532996)
(1261.56 97.739023 -66.667221)
(1300.9865 86.650067 -60.510996)
(1338.2668 75.28385 -55.497558)
(1373.2593 63.69665 -51.758753)
(1406.5168 52.422448 -49.435988)
(1438.0147 41.53723 -48.448546)
(1468.38 31.461399 -48.91525)
(1497.4659 22.241584 -50.679118)
(1526.1573 14.145655 -53.546783)
(1554.3698 7.3108073 -57.423617)
(1582.1491 1.6759517 -61.817093)
(1611.1808 -3.2623496 -66.559346)
(1639.2492 -6.4944531 -71.417935)
(-3.4248023 1.441728 1.891353)
(-3.7358031 2.8777012 1.530879)
(0.2626755 2.5618525 0.29921388)
(7.1960605 4.9482355 -2.3045004)
(16.186366 5.514363 -5.1849329)
(28.662352 7.4634329 -9.2133532)
(43.283715 9.0184535 -13.979919)
(60.549475 11.494412 -19.178084)
(80.666755 13.985708 -25.475383)
(103.26524 17.138242 -32.077522)
(128.68494 20.381037 -39.275116)
(156.94627 24.257147 -47.029134)
(187.89865 28.366409 -55.080179)
(221.88424 33.046155 -63.388804)
(258.64017 37.958564 -71.806215)
(298.0342 43.3455 -80.117344)
(340.15958 48.884692 -88.229612)
(384.87478 54.722751 -95.843399)
(432.05538 60.534657 -102.88815)
(481.51862 66.441264 -109.07517)
(533.00697 72.047314 -114.28407)
(586.18192 77.376987 -118.3077)
(640.67007 82.224901 -121.09853)
(696.2298 86.387828 -122.38475)
(752.31125 89.670738 -122.3356)
(808.60574 91.988531 -120.72862)
(864.68981 93.121713 -117.7973)
(920.11828 93.017782 -113.51296)
(974.45568 91.599486 -108.17348)
(1027.3868 88.785331 -101.93172)
(1078.6258 84.612836 -95.038291)
(1127.7828 79.10013 -87.790515)
(1174.776 72.286358 -80.470868)
(1219.3435 64.476892 -73.516428)
(1261.5411 55.678598 -67.048787)
(1301.2422 46.210987 -61.492443)
(1338.664 36.383677 -57.037001)
(1373.8138 26.262438 -53.813511)
(1407.1654 16.403711 -52.034131)
(1438.4862 6.8039279 -51.561719)
(1468.6305 -2.2025331 -52.470336)
(1497.4134 -10.309084 -54.651217)
(1525.5655 -17.685285 -57.826487)
(1553.3965 -23.825811 -61.876444)
(1580.6053 -29.011837 -66.435618)
(1609.2188 -33.672094 -71.183404)
(1636.6759 -36.753203 -76.234385)
(-4.3996148 -0.87024777 -0.77624102)
(-4.9527567 -2.2728387 -1.3767107)
(0.11875933 -3.277288 -3.2936636)
(5.8502711 -4.2817584 -5.304406)
(16.085237 -5.3426392 -8.6150249)
(27.78848 -6.2693416 -12.453206)
(42.659107 -6.454299 -17.078239)
(59.962915 -6.9152463 -22.625701)
(80.14349 -6.532258 -28.689976)
(102.71863 -6.229201 -35.193914)
(128.27605 -5.175625 -42.552734)
(156.11595 -3.961522 -50.036689)
(187.10732 -2.098825 -58.106897)
(220.63279 0.055204121 -66.172878)
(256.97198 2.6123419 -74.378042)
(296.14174 5.7604066 -82.550981)
(338.02122 9.1934309 -90.46648)
(382.54687 13.009162 -97.929978)
(429.53133 17.039403 -104.76502)
(478.80936 21.231898 -110.75858)
(530.03629 25.372563 -115.70571)
(583.03912 29.474258 -119.55846)
(637.61129 33.308611 -122.04207)
(693.13989 36.605032 -123.21777)
(749.41384 39.500054 -122.90656)
(805.90949 41.555305 -121.22461)
(862.26552 42.843027 -118.18609)
(917.91492 43.080936 -113.76757)
(972.64203 42.196902 -108.37737)
(1025.9861 40.222327 -102.13199)
(1077.5426 37.060227 -95.245631)
(1127.0939 32.699911 -88.05012)
(1174.3929 27.285736 -80.915891)
(1219.2921 20.856658 -74.056007)
(1261.699 13.586844 -67.858832)
(1301.5772 5.6786834 -62.550103)
(1339.0366 -2.6932577 -58.385753)
(1374.1522 -11.258221 -55.467312)
(1407.1749 -19.818947 -53.982923)
(1438.3873 -28.183835 -53.830961)
(1468.1627 -35.97338 -55.172325)
(1496.6589 -43.236958 -57.670548)
(1524.5004 -49.703096 -61.209711)
(1551.9492 -55.238242 -65.734991)
(1578.9621 -60.04354 -70.544511)
(1607.1578 -64.095833 -75.84525)
(1634.3385 -67.074343 -81.0039)
(-3.9248755 -2.5200529 -3.8826568)
(-3.7767954 -5.1372183 -5.5493496)
(0.74275381 -8.7854034 -7.2712594)
(8.0024188 -11.830466 -10.13488)
(17.481012 -15.499759 -13.136663)
(29.75904 -18.627157 -16.910151)
(44.489034 -21.692833 -21.771321)
(61.865128 -24.518732 -26.780609)
(81.521825 -26.959367 -32.518781)
(103.92924 -29.185339 -38.976685)
(128.82594 -30.888982 -45.848849)
(156.71297 -32.269665 -53.274966)
(187.3266 -33.04544 -61.216141)
(220.54891 -33.370249 -69.054599)
(256.80255 -33.171106 -77.263212)
(295.6121 -32.25862 -85.260769)
(337.19531 -31.06105 -93.011044)
(381.32974 -29.22031 -100.22882)
(427.93103 -27.075539 -106.82323)
(476.84944 -24.619619 -112.46312)
(527.79149 -21.797096 -117.20871)
(580.77467 -18.884484 -120.70051)
(634.8539 -16.070287 -122.92377)
(690.22192 -13.273475 -123.66743)
(746.2065 -10.878587 -123.07135)
(802.57535 -8.9550644 -120.97881)
(858.79984 -7.642218 -117.55589)
(914.5182 -7.0609108 -112.96806)
(969.297 -7.3584518 -107.37071)
(1022.7658 -8.5267142 -100.96878)
(1074.5538 -10.783081 -94.014681)
(1124.3582 -13.923883 -86.926275)
(1171.9826 -18.143161 -79.850487)
(1217.1528 -23.164342 -73.25912)
(1259.8575 -29.00015 -67.336355)
(1300.0118 -35.462694 -62.419666)
(1337.7162 -42.365694 -58.670243)
(1373.0395 -49.446834 -56.324939)
(1406.3838 -56.655429 -55.351324)
(1437.6324 -63.651633 -55.922191)
(1467.3778 -70.365913 -57.700576)
(1495.8043 -76.520283 -60.856849)
(1523.422 -82.156414 -64.864123)
(1550.6078 -86.929003 -69.829119)
(1577.2978 -91.14754 -74.945997)
(1605.0765 -94.737935 -80.519618)
(1632.0093 -97.708037 -85.871996)
(-2.9427568 -5.2607849 -6.7638552)
(-2.9158541 -10.32538 -8.1801309)
(3.2961574 -15.803602 -10.823644)
(9.2634022 -21.577121 -12.779123)
(19.512205 -27.272127 -15.927485)
(31.198854 -33.023558 -19.61463)
(46.224377 -38.28533 -24.164026)
(62.927441 -43.698546 -29.035191)
(82.881517 -48.425014 -35.110796)
(105.09842 -53.220495 -41.544839)
(130.31721 -57.076461 -48.726036)
(157.78508 -60.816319 -56.340712)
(188.09176 -63.78751 -64.008317)
(221.15163 -66.437149 -72.090758)
(256.87854 -68.346882 -80.134311)
(295.34448 -69.711595 -88.026615)
(336.51976 -70.448943 -95.689451)
(380.25082 -70.528442 -102.78133)
(426.49023 -70.087394 -109.26201)
(474.98467 -69.110125 -114.72745)
(525.66228 -67.500204 -119.37997)
(578.08649 -65.867395 -122.46419)
(632.18565 -63.976796 -124.49124)
(687.21154 -61.978204 -125.08925)
(743.2441 -60.047408 -124.24642)
(799.54821 -58.275715 -121.98095)
(855.8687 -56.901464 -118.43819)
(911.74745 -56.053448 -113.66298)
(966.73852 -55.827073 -107.91591)
(1020.4938 -56.339456 -101.38663)
(1072.5392 -57.676181 -94.400591)
(1122.71 -59.814181 -87.234314)
(1170.5945 -62.877543 -80.187435)
(1216.075 -66.606755 -73.671875)
(1259.0237 -71.173098 -67.854706)
(1299.406 -76.243193 -63.124517)
(1337.1406 -81.84887 -59.620696)
(1372.6474 -87.509562 -57.538118)
(1405.6862 -93.623765 -56.872791)
(1436.714 -99.466192 -57.652238)
(1466.1928 -105.09396 -59.928987)
(1494.3565 -110.24991 -63.35747)
(1521.6096 -114.88613 -67.833961)
(1548.4431 -118.90311 -73.123742)
(1575.0763 -122.47121 -78.705905)
(1602.5749 -125.58082 -84.764103)
(1629.7364 -128.46755 -90.536875)
(-1.3886644 -6.9555554 -8.9179503)
(0.27884101 -13.229682 -12.063974)
(6.3229338 -21.306001 -13.695858)
(13.04365 -28.984776 -16.682296)
(23.15487 -37.245835 -19.621627)
(35.281434 -45.138651 -23.510007)
(49.859315 -53.149411 -27.777773)
(67.087614 -60.893024 -33.038253)
(86.674817 -68.272289 -38.85745)
(108.97347 -75.532222 -45.099885)
(133.56889 -82.111296 -52.167741)
(160.9597 -88.518576 -59.435085)
(191.02716 -94.222738 -67.302912)
(223.68328 -99.39451 -75.263436)
(259.10677 -103.89205 -83.264448)
(297.11094 -107.6602 -91.193162)
(337.84371 -110.71797 -98.772265)
(381.04495 -112.97592 -105.81429)
(426.78292 -114.55827 -112.14458)
(474.71666 -115.34996 -117.51386)
(524.83033 -115.64347 -121.87611)
(576.78904 -115.11666 -124.77094)
(630.0858 -114.47562 -126.62313)
(685.01907 -113.2869 -126.68658)
(740.56606 -111.79432 -125.54271)
(796.48603 -110.41416 -122.88414)
(852.53728 -108.98192 -118.91691)
(908.23743 -107.71837 -113.75781)
(963.14787 -106.83041 -107.64357)
(1016.8835 -106.43944 -100.80454)
(1069.0115 -106.61053 -93.545417)
(1119.2927 -107.4104 -86.178549)
(1167.3297 -108.90694 -79.051246)
(1213.0288 -111.02758 -72.496349)
(1256.1977 -113.8494 -66.788252)
(1296.7379 -117.18718 -62.236998)
(1334.7388 -120.98297 -59.022665)
(1370.2577 -125.08614 -57.397466)
(1403.4759 -129.40533 -57.045282)
(1434.8443 -133.67145 -58.685437)
(1464.3722 -138.25451 -61.397536)
(1492.502 -142.3455 -65.637991)
(1519.7336 -146.28381 -70.733796)
(1546.4945 -149.6972 -76.703108)
(1573.1536 -152.90601 -82.880744)
(1600.2801 -155.70149 -89.226416)
(1627.4938 -158.37276 -95.200291)
(1.3264434 -10.285613 -11.17305)
(3.7855388 -18.126534 -14.317911)
(10.468917 -28.441225 -16.491673)
(16.756154 -38.355877 -19.217811)
(27.46953 -48.757264 -22.141366)
(38.977414 -59.141377 -25.825369)
(54.037376 -69.372452 -30.179971)
(70.874632 -79.680294 -35.335277)
(90.561839 -89.397834 -41.017395)
(112.54832 -99.313309 -47.479483)
(137.08043 -108.16256 -54.598922)
(164.34176 -117.34919 -62.034166)
(193.96171 -125.34171 -70.027572)
(226.41882 -133.0859 -77.985287)
(261.33783 -139.8792 -86.155713)
(298.97104 -145.99036 -94.116752)
(339.16946 -151.20166 -101.72012)
(381.86252 -155.53772 -108.79285)
(427.04534 -158.98929 -115.05481)
(474.40303 -161.50371 -120.42075)
(524.0184 -163.17139 -124.55998)
(575.26626 -163.9416 -127.49767)
(628.32492 -164.00437 -128.88655)
(682.56644 -163.53393 -128.85555)
(737.65321 -162.35423 -127.46167)
(793.4065 -160.99391 -124.44607)
(849.26795 -159.32763 -120.25616)
(904.86844 -157.68437 -114.75858)
(959.77258 -156.22517 -108.29793)
(1013.5407 -155.00374 -101.11596)
(1065.8045 -154.15457 -93.574803)
(1116.2462 -153.81625 -85.95872)
(1164.5143 -153.99671 -78.674235)
(1210.4539 -154.7606 -72.002123)
(1253.8343 -156.12684 -66.313229)
(1294.6078 -157.98199 -61.834773)
(1332.7973 -160.33291 -58.881284)
(1368.46 -163.05198 -57.443866)
(1401.696 -166.00838 -57.672403)
(1432.9298 -169.18909 -59.525248)
(1462.3203 -172.30398 -62.890085)
(1490.37 -175.37911 -67.600544)
(1517.4094 -178.20615 -73.310158)
(1543.9785 -180.81739 -79.74649)
(1570.4401 -183.23272 -86.378826)
(1597.2212 -185.30175 -93.109255)
(1624.9521 -187.39788 -99.463593)
(0 0 0)
(0 0 0)
(0 0 0)
(0 0 0)
(0 0 0)
(0 0 0)
(0 0 0)
(0 0 0)
(0 0 0)
(0 0 0)
(0 0 0)
(0 0 0)
(0 0 0)
(0 0 0)
(0 0 0)
(0 0 0)
(0 0 0)
(0 0 0)
(0 0 0)
(0 0 0)
(0 0 0)
(0 0 0)
(0 0 0)
(0 0 0)
(0 0 0)
(0 0 0)
(0 0 0)
(0 0 0)
(0 0 0)
(0 0 0)
(0 0 0)
(0 0 0)
(0 0 0)
(0 0 0)
(0 0 0)
(0 0 0)
(0 0 0)
(0 0 0)
(0 0 0)
(0 0 0)
(0 0 0)
(0 0 0)
(0 0 0)
(0 0 0)
(0 0 0)
(0 0 0)
(0 0 0)
(0 0 0)
(0 0 0)
(8.3611779 -4.905564 -6.4619099)
(8.5233977 -4.9096209 -2.8868297)
(8.3875647 -4.7827815 -0.41885741)
(8.0163698 -4.6945369 1.4536801)
(6.9527948 -3.8474008 3.4652162)
(5.6553199 -3.2695526 5.1899244)
(3.6538688 -2.1712424 6.3193319)
(11.570716 -19.120918 -12.688268)
(13.164086 -17.135199 -6.7698972)
(12.821289 -15.541195 -1.708688)
(11.579449 -14.191331 1.0595428)
(10.084233 -12.583436 4.2276043)
(7.6318023 -11.225757 7.1952463)
(4.7807199 -9.9868759 10.541562)
(17.636219 -32.355066 -12.754696)
(17.951365 -30.341587 -7.6440701)
(17.797281 -27.242265 -3.8917895)
(16.932308 -25.391136 0.92449691)
(14.967631 -23.839241 4.7181504)
(11.692812 -22.700681 8.5294178)
(8.3713538 -19.442335 11.883078)
(24.35608 -42.77395 -17.039835)
(26.203378 -39.761283 -11.631145)
(25.730469 -37.060339 -6.3669952)
(24.862458 -34.6649 -1.3824881)
(22.048085 -32.178107 2.9587482)
(19.362451 -28.906371 6.7557622)
(14.696905 -27.961398 11.350488)
(35.320998 -56.029934 -18.833917)
(35.530596 -52.460426 -13.198281)
(35.033887 -48.866705 -8.6774756)
(33.896992 -45.800177 -3.9502822)
(31.413945 -42.692872 1.1199369)
(27.788274 -40.204615 5.072538)
(23.411764 -36.482622 9.3280164)
(46.890415 -67.29787 -23.143996)
(47.879126 -63.630649 -17.557685)
(47.318357 -59.750937 -12.292299)
(45.974517 -55.793237 -7.3163225)
(43.280631 -52.448597 -2.5786687)
(39.707169 -48.108425 1.8361737)
(34.85782 -45.323387 6.1649848)
(61.929065 -79.821832 -27.169151)
(62.608098 -75.856422 -21.713596)
(62.111052 -71.005898 -16.70213)
(60.609464 -67.217393 -11.644327)
(57.895143 -62.84936 -6.9350821)
(54.131101 -59.071537 -2.5130242)
(49.103571 -53.973051 2.3532183)
(78.925511 -91.692825 -32.42663)
(79.367224 -86.54237 -26.775761)
(78.818238 -81.643893 -21.731654)
(77.446358 -77.041069 -16.677196)
(74.595723 -72.610335 -11.83416)
(70.981134 -67.907192 -7.1840121)
(65.825851 -63.365332 -2.8834657)
(98.324944 -103.40525 -38.216334)
(99.178185 -98.502361 -32.896043)
(98.950987 -93.700706 -27.953976)
(97.306728 -88.207293 -22.645211)
(94.529832 -82.963988 -17.839861)
(90.623513 -77.834962 -13.321525)
(85.597374 -72.096971 -8.305063)
(120.65778 -115.41947 -44.850897)
(121.07314 -109.20968 -39.455708)
(120.73387 -103.47519 -34.324707)
(119.27314 -98.324253 -29.421582)
(116.48629 -93.239571 -24.564932)
(112.80793 -87.722306 -19.690766)
(107.54208 -82.040234 -15.126937)
(144.8567 -126.50066 -52.004152)
(145.78487 -120.77577 -47.00141)
(145.69512 -115.05181 -42.079784)
(144.30156 -109.51185 -36.939797)
(141.84419 -103.79444 -31.820217)
(137.92709 -97.70722 -27.462581)
(133.31835 -91.665674 -22.02575)
(172.29259 -137.85098 -59.966314)
(173.15974 -131.59902 -54.820483)
(172.98728 -125.37024 -49.749867)
(171.70789 -119.46895 -44.781017)
(169.17738 -113.69143 -39.958387)
(165.62906 -107.75065 -35.353219)
(160.86734 -101.25575 -29.754538)
(201.74607 -148.31981 -68.188237)
(202.87027 -142.01761 -63.197593)
(203.03097 -136.06509 -58.542601)
(202.00532 -130.25036 -53.634501)
(199.83045 -124.5996 -48.489405)
(196.22451 -118.01406 -43.96834)
(191.86483 -111.6393 -38.591997)
(234.07667 -158.78384 -76.538808)
(235.14433 -152.33803 -71.80643)
(235.59063 -146.19969 -67.17107)
(234.614 -140.27954 -62.330714)
(232.67811 -134.44144 -57.477245)
(229.44145 -128.15094 -53.067766)
(225.37927 -121.55149 -47.494588)
(268.74323 -168.3312 -85.205065)
(270.13641 -162.08986 -80.699249)
(270.87329 -156.26559 -76.34875)
(270.26928 -150.5811 -71.668082)
(268.60724 -145.11068 -66.853742)
(265.75786 -138.68551 -62.326659)
(261.94035 -132.18336 -56.843667)
(306.06734 -177.48341 -93.57507)
(307.57711 -171.49778 -89.368066)
(308.59174 -165.77722 -85.240116)
(308.12921 -160.29096 -80.730347)
(306.87778 -154.92791 -76.070893)
(304.32731 -148.70061 -71.751068)
(300.97526 -142.46234 -66.339844)
(345.83884 -185.82382 -101.72645)
(347.59689 -180.22087 -97.914401)
(348.894 -174.95952 -94.027943)
(348.84805 -169.96339 -89.802285)
(347.8925 -165.03065 -85.357796)
(345.87388 -159.21476 -81.095556)
(342.91632 -153.21102 -75.764246)
(388.04029 -193.45537 -109.30623)
(389.91747 -188.33871 -105.83248)
(391.59624 -183.63996 -102.31591)
(391.70309 -179.00395 -98.317519)
(391.24977 -174.57374 -94.138568)
(389.5837 -169.05514 -90.074404)
(387.24454 -163.65403 -84.980401)
(432.55442 -200.19211 -116.09688)
(434.71384 -195.80474 -113.10786)
(436.52318 -191.63967 -109.92204)
(437.07184 -187.71826 -106.28999)
(436.94088 -183.83414 -102.45665)
(435.86398 -179.03582 -98.587675)
(434.01705 -174.11608 -93.760797)
(479.2849 -206.10084 -121.93155)
(481.43927 -202.35611 -119.35524)
(483.6179 -199.05612 -116.60874)
(484.33705 -195.72123 -113.36701)
(484.72472 -192.5896 -109.8839)
(484.06972 -188.34565 -106.31107)
(482.89724 -184.21632 -101.87031)
(527.94323 -210.99433 -126.54703)
(530.32657 -208.21454 -124.49276)
(532.5745 -205.65671 -122.20301)
(533.68432 -203.149 -119.38238)
(534.41089 -200.72529 -116.35921)
(534.33087 -197.3296 -113.1146)
(533.71595 -193.97732 -109.10062)
(578.457 -214.9797 -129.83026)
(580.76362 -213.07656 -128.27993)
(583.26127 -211.47685 -126.44087)
(584.51862 -209.72694 -124.14021)
(585.68818 -208.13296 -121.56658)
(586.03369 -205.55906 -118.73294)
(586.11231 -203.14791 -115.26449)
(630.41737 -217.9955 -131.58838)
(632.78563 -217.10448 -130.57235)
(635.2745 -216.36485 -129.30648)
(636.83331 -215.49337 -127.48199)
(638.30104 -214.75957 -125.45578)
(639.23204 -213.12478 -123.09634)
(639.86309 -211.64402 -120.17189)
(683.62811 -219.96448 -131.74792)
(685.89485 -220.16311 -131.3446)
(688.47484 -220.30861 -130.58724)
(690.12539 -220.361 -129.22473)
(691.95001 -220.41219 -127.83624)
(693.2126 -219.64169 -125.89531)
(694.425 -219.23095 -123.67248)
(737.66121 -221.15462 -130.46836)
(739.96832 -222.26924 -130.43456)
(742.2319 -223.30352 -130.29451)
(744.17034 -224.28906 -129.37702)
(746.1119 -224.98852 -128.71511)
(747.89735 -225.33388 -127.22454)
(749.73437 -225.93052 -125.83668)
(792.20269 -221.3795 -127.45279)
(794.34378 -223.43383 -128.05461)
(796.53543 -225.51422 -128.39455)
(798.67671 -227.07138 -128.01914)
(800.67184 -228.60563 -127.92104)
(802.81494 -229.72156 -127.06049)
(805.06407 -231.27977 -126.32805)
(846.95893 -220.88102 -123.11299)
(848.96879 -223.83255 -124.33497)
(850.95261 -226.59888 -124.72667)
(852.99991 -228.90095 -125.37704)
(855.48711 -231.15178 -125.39889)
(857.71948 -233.34824 -125.23042)
(860.28834 -235.6903 -124.84416)
(901.70794 -219.83496 -117.41536)
(903.20253 -223.51457 -119.05778)
(905.13318 -227.03703 -119.87855)
(907.06848 -229.77122 -121.09857)
(909.41798 -232.79399 -121.58018)
(911.94271 -235.28958 -122.17727)
(914.9249 -238.79244 -122.48588)
(955.58457 -218.1298 -110.70532)
(956.9054 -222.42722 -112.64024)
(958.42685 -226.37142 -113.99954)
(960.38372 -229.64648 -115.57723)
(962.75253 -233.1358 -116.71771)
(965.56345 -236.36454 -117.818)
(968.72866 -240.39014 -118.75492)
(1008.6403 -216.07948 -103.17821)
(1009.5024 -220.76222 -105.52234)
(1010.9069 -225.09388 -107.10812)
(1012.6719 -228.67885 -109.23412)
(1015.095 -232.54746 -110.76302)
(1017.9475 -236.08078 -112.45178)
(1021.3581 -240.62781 -114.00671)
(1060.2597 -213.73227 -95.332449)
(1060.8713 -218.62513 -97.797683)
(1061.9537 -223.0632 -99.78767)
(1063.6263 -226.85086 -102.21755)
(1066.0174 -230.84382 -104.20548)
(1068.9177 -234.6548 -106.37261)
(1072.4897 -239.45993 -108.51173)
(1110.2724 -211.2006 -87.339955)
(1110.5508 -216.04426 -89.995561)
(1111.4321 -220.4686 -92.177903)
(1112.9617 -224.27504 -94.945374)
(1115.3172 -228.25746 -97.258595)
(1118.22 -232.19789 -99.871933)
(1121.9198 -237.03615 -102.50566)
(1158.2861 -208.60325 -79.723991)
(1158.3668 -213.23893 -82.400061)
(1159.0369 -217.47408 -84.799912)
(1160.4651 -221.14117 -87.765645)
(1162.7752 -224.99369 -90.387797)
(1165.6832 -228.8263 -93.340794)
(1169.4626 -233.48581 -96.383393)
(1204.1868 -206.11639 -72.770884)
(1204.0892 -210.33627 -75.444409)
(1204.6283 -214.1662 -77.937642)
(1205.991 -217.54292 -81.053588)
(1208.2917 -221.03046 -83.849563)
(1211.1834 -224.66205 -87.022171)
(1214.9775 -228.94031 -90.381022)
(1247.7521 -203.76669 -66.839824)
(1247.6001 -207.35427 -69.410949)
(1248.0739 -210.69719 -71.946982)
(1249.4055 -213.64046 -75.124267)
(1251.6543 -216.75823 -77.959929)
(1254.5017 -219.934 -81.417418)
(1258.3401 -223.57777 -85.010778)
(1288.8319 -201.70476 -62.232466)
(1288.7098 -204.58686 -64.697285)
(1289.207 -207.25776 -67.18484)
(1290.5567 -209.67914 -70.369374)
(1292.9291 -212.12649 -73.225086)
(1295.7743 -214.76943 -76.901436)
(1299.7147 -217.8198 -80.37744)
(1327.5533 -199.97305 -59.296925)
(1327.7153 -201.93451 -61.471712)
(1328.251 -203.90111 -63.926012)
(1329.8046 -205.62324 -66.920297)
(1332.1368 -207.61844 -69.729988)
(1335.0528 -209.23719 -73.05758)
(1338.9585 -211.69259 -76.863822)
(1363.9639 -198.3966 -57.826994)
(1364.2338 -199.71196 -59.833476)
(1365.1626 -200.799 -61.978151)
(1366.7054 -201.91452 -64.857703)
(1369.309 -203.03916 -67.611046)
(1372.1957 -204.69569 -71.031791)
(1376.2484 -205.71042 -74.474342)
(1398.047 -197.97484 -58.438649)
(1398.7694 -198.06908 -60.088659)
(1399.9107 -198.3313 -62.123942)
(1401.8 -198.72717 -64.716628)
(1404.5123 -199.11031 -67.189781)
(1407.6316 -199.46883 -70.214056)
(1411.6513 -199.68376 -73.621195)
(1430.2184 -197.50646 -60.56363)
(1431.337 -196.74285 -61.985033)
(1432.8644 -196.2227 -63.723233)
(1435.0843 -195.90875 -66.051847)
(1438.0381 -195.46566 -68.167302)
(1441.252 -195.22997 -71.187562)
(1445.4297 -194.54046 -74.104957)
(1460.6077 -197.75017 -64.448432)
(1462.241 -196.07189 -65.459212)
(1464.2913 -194.79348 -66.99728)
(1466.8792 -193.75987 -68.926365)
(1470.0407 -192.63909 -70.869173)
(1473.5546 -191.63581 -73.370049)
(1477.8546 -190.03555 -75.969599)
(1489.5666 -198.43042 -69.740785)
(1491.8005 -196.02446 -70.347922)
(1494.3985 -194.09924 -71.667017)
(1497.3137 -192.34785 -73.167296)
(1500.8824 -190.60592 -74.741728)
(1504.6085 -188.87003 -76.948683)
(1509.0164 -186.47689 -79.137953)
(1517.5742 -199.77484 -75.995022)
(1520.3845 -196.68024 -76.307346)
(1523.4888 -194.06796 -77.37624)
(1526.8817 -191.7726 -78.460494)
(1530.7631 -189.45351 -79.820269)
(1534.709 -187.0927 -81.559297)
(1539.3381 -184.05239 -83.295441)
(1544.8865 -201.5743 -82.979952)
(1548.2681 -197.93458 -83.067056)
(1551.945 -194.84481 -83.849167)
(1555.753 -192.05582 -84.620328)
(1559.9489 -189.22476 -85.60911)
(1564.2273 -186.35857 -86.968619)
(1568.9991 -182.86401 -88.290121)