/*--------------------------------*- C++ -*----------------------------------*\
  =========                 |
  \\      /  F ield         | OpenFOAM: The Open Source CFD Toolbox
   \\    /   O peration     | Website:  https://openfoam.org
    \\  /    A nd           | Version:  6
     \\/     M anipulation  |
\*---------------------------------------------------------------------------*/
FoamFile
{
    version     2.0;
    format      ascii;
    class       pointScalarField;
    location    "0.44";
    object      E;
}
// * * * * * * * * * * * * * * * * * * * * * * * * * * * * * * * * * * * * * //

dimensions      [1 -1 -2 0 0 0 0];

internalField   nonuniform List<scalar> 
28033
(
133492.08
131893.54
-464.41316
-543.12391
142641.66
156477.92
-89.311264
-103.135
76946.301
53686.395
35559.151
23781.734
13568.33
7610.132
4393.4481
3617.516
6533.4369
11039.175
20285.047
32917.092
49962.407
70403.602
113730
294.4191
45.79999
31.35008
-16.210037
-201.31003
-123.80549
-468.99618
-294.24669
-326.08517
-428.33906
-248.42177
-331.37384
-263.139
-160.67729
36.344665
102511.8
64951.202
60759.582
58820.6
58755.79
58005.023
57339.033
56332.25
55085.703
53742.79
52237.204
50651.872
48947.954
47190.156
45303.675
43326.032
41425.785
39324.699
37344.057
35154.83
33154.946
31023.058
28973.338
26891.318
24833.258
23008.866
20974.903
19259.606
17505.134
15938.615
14557.686
13239.596
12051.818
10939.663
9990.6464
9329.4878
8476.7679
7889.0881
7270.4339
6643.7211
6087.3572
5515.4576
4999.3175
4501.2529
4044.2794
3635.3174
3229.3494
2891.0376
2532.2332
2225.683
1889.858
1584.8166
1263.8587
962.48151
672.91933
407.41305
174.24237
-25.141187
-189.73246
-317.10036
-425.39992
-493.2033
-575.21521
-580.37849
-647.92503
-660.72203
-650.11476
-724.48885
-693.66425
-649.61943
-674.23919
-631.22015
-636.11257
-598.10582
-576.95874
-553.40099
-537.94407
-499.46112
-507.08522
-493.14923
-450.44866
-469.12146
-407.43481
-504.48161
-437.63585
-476.43245
-389.03032
-420.47929
-276.4069
-326.38776
-84.153674
-237.6313
196.42936
42.762304
175.92769
95049.427
53314.543
59748.167
55906.321
55039.161
54854.579
53384.807
52878.535
51533.89
50269.58
49031.919
47395.179
45975.388
44390.769
42694.566
41024.073
39061.228
37090.319
35136.457
33192.47
31018.966
29153.618
27014.07
25268.508
23166.118
21513.439
19641.045
17965.835
16273.392
14713.571
13154.123
11857.26
10742.347
9703.1973
8870.7804
8110.3589
7493.4491
6830.5857
6367.6654
5993.714
5556.5042
5184.3454
4801.1738
4421.0478
4035.866
3667.6114
3297.9518
2947.923
2612.9003
2282.8755
1972.9273
1657.5528
1348.8437
1036.3723
726.41948
419.11279
135.22555
-127.12971
-343.97071
-513.7761
-624.65547
-685.98177
-691.75261
-661.00017
-600.14393
-523.8485
-426.72995
-332.46483
-229.45896
-239.12151
-164.43869
-178.20224
-80.86758
-102.66402
-51.450225
-54.493971
-54.042712
-37.963071
-71.688186
-76.098768
-94.858502
-134.20613
-127.53098
-159.22264
-136.60327
-135.36023
-83.782465
-53.552082
20.805509
81.035507
151.2179
197.84424
252.23684
250.8831
186.12635
91186.161
60393.421
41438.693
30990.516
16476.455
9355.5359
5964.6703
5117.4022
8150.8732
15864
23727.378
38877.36
57431.613
84414.621
113127.69
195434.72
75586.176
49037.33
64986.748
56122.352
58689.578
56169.549
55700.917
53976.881
53101.531
51306.144
49649.515
48134.206
46125.423
44595.761
42307.448
40977.258
36916.663
36638.926
32719.875
31338.808
29917.713
27710.592
25587.481
23359.549
20975.737
20214.518
16868.492
16874.405
13589.408
12397.368
11065.238
9915.0098
9110.099
7707.8012
9007.0051
6822.7399
6845.0343
6243.4398
5751.2411
5248.8134
4741.8985
4241.1297
3788.3146
3365.0992
2994.9266
2648.2338
2327.1717
1990.3675
1639.5664
1244.2178
815.15043
357.72552
-106.83012
-540.88927
-923.89136
-1214.7716
-1409.1015
-1494.1704
-1484.9773
-1403.0454
-1275.9669
-1131.5212
-1001.4177
-894.41808
-823.69385
-755.67635
-1135.5109
-361.24297
-724.63966
-781.40169
-826.38862
-814.0943
-823.04136
-840.91565
-866.80919
-901.00721
-933.74084
-973.5182
-986.57407
-994.64818
-959.5182
-914.20654
-821.2919
-728.18154
-600.8483
-490.6586
-369.8646
-279.1229
-198.39448
-142.9315
-111.2144
-66.954114
-133.87653
65.021967
123.34749
249.13886
-128.84115
-142.12473
-134.25615
-273.46139
-291.39102
-351.79571
49.043195
-606.58021
-143.69703
-621.76965
363.33411
-650.27103
320.45342
527.93138
-58.711233
380.17448
192.89937
139.52522
48.084853
-46.011115
-126.80629
-233.51545
-300.52682
-372.50369
-417.03481
-438.19985
-485.86875
-483.56814
-482.25505
-453.08808
-425.77875
-388.42475
-347.43486
-312.78818
-280.80843
-248.70704
-255.06693
-183.8503
-177.10954
-12.572078
-1075.702
-213.23539
-512.4023
-501.49893
-586.5056
-647.68506
-682.74851
-677.67328
-631.47188
-525.43399
-367.73787
-147.96649
117.49005
433.82195
779.90878
1159.5047
1553.3391
1966.1258
2385.4559
2818.3557
3246.7028
3700.0839
4136.4448
4582.6093
5026.5682
5474.5115
5920.0314
6337.5692
6845.2337
7323.4665
8317.5834
7972.8951
9127.5902
10540.478
10186.939
11897.22
13256.805
14916.736
16076.684
17844.264
19206.995
21367.324
23618.572
25962.598
27829.541
29379.387
32503.965
34119.961
36188.919
38553.226
40613.582
42717.555
44527.575
47057.964
48792.042
50455.994
52171.145
54409.634
54980.71
56889.45
58285.601
59111.329
58333.103
59861.49
61919.382
62909.49
59251.467
107440
88547.444
87190.53
84929.533
85332.984
87259.852
88421.033
88377.107
89043.713
89150.882
88622.78
86086.646
84474.47
85674.363
87208.565
95797.685
92316.617
96342.741
94084.344
99173.763
99003.383
98667.254
104743.79
111383.35
108230.79
106933.02
101865.65
97956.041
96123.315
93617.795
104375.34
-102.15008
-80.966802
-57.075173
-54.897737
-60.232462
-75.190587
-66.466515
-71.901931
-52.279046
-47.648191
-25.503184
-45.625878
-23.801108
-153.65926
191.53599
-54.483629
-172.42793
-27.196935
-127.68421
-36.005316
-43.691582
-34.582137
-30.432814
-13.673929
-19.168996
13.617056
-29.76682
-25.963647
-82.011857
138.47597
73744.299
56111.6
51474.114
49468.389
48994.286
48325.727
48004.695
47230.529
46393.542
45356.881
44080.276
42733.627
41238.608
39790.998
38196.066
36730.833
35154.757
33621.967
31982.777
30425.957
28727.617
26988.679
25305.682
23480.394
21825.046
20126.782
18511.699
17077.266
15764.147
14565.959
13440.736
12592.937
11745.767
11060.756
10431.375
9741.7727
9197.5042
8563.1926
8121.4707
7579.5673
7134.0409
6685.9854
6318.8751
5895.3102
5492.8856
5040.6885
4579.8282
4090.854
3578.1621
3080.3992
2601.081
2178.4201
1831.1357
1574.0192
1415.1633
1342.7491
1346.7115
1395.6267
1467.9458
1537.6766
1578.8035
1596.5656
1550.2381
1509.1179
1351.9668
1242.4069
1172.3019
1066.0338
972.24909
721.75929
618.96677
449.55948
314.2151
168.47871
35.812073
-75.941362
-153.08516
-220.35609
-213.14127
-217.11466
-126.4012
-85.491598
56.987356
97.897339
228.24627
288.762
363.88763
353.68017
389.34411
292.78762
342.18919
181.53183
311.47363
123.37716
312.14191
47110.969
40336.562
40011.909
38317.341
37993.629
37258.073
36759.903
36190.097
35474.421
34663.253
33607.656
32682.403
31496.621
30374.299
29098.39
28009.072
26738.902
25549.377
24316.803
23111.754
21863.363
20641.97
19420.019
18155.886
16962.61
15788.231
14664.363
13579.527
12583.972
11667.466
10837.43
10085.108
9364.2345
8688.4311
8102.74
7494.5887
7044.5926
6549.7897
6091.5988
5644.3486
5281.8821
4890.2468
4552.0259
4214.4299
3905.3423
3613.363
3313.5007
3028.7806
2735.6278
2458.2998
2181.056
1934.4427
1709.4688
1522.853
1376.0687
1267.0305
1193.1681
1144.4496
1109.6472
1079.5406
1041.5137
994.96754
931.54185
856.50792
755.3593
724.38435
549.04621
676.01133
541.42437
472.38829
453.14257
348.22929
263.38971
196.45924
142.80793
99.746544
71.031907
61.235598
85.979651
73.019312
165.4863
117.0228
273.52636
177.30838
344.50559
353.52233
430.54293
343.21614
449.19672
330.12994
414.19519
264.67504
456.33495
0.15935583
615.45773
29545.439
25974.478
28390.608
27851.698
28074.01
27240.575
27002.689
26403.846
25841.448
25149.097
24444.338
23658.82
22760.958
21910.325
21054.235
20159.636
19288.528
18440.298
17608.657
16775.225
15961.338
15067.395
14268.291
13343.873
12552.287
11673.184
10875.323
10084.833
9393.9224
8691.7858
8070.1879
7494.6222
6975.8331
6489.7744
6053.7943
5581.096
5163.9993
4691.8829
4387.1919
4061.879
3712.3681
3480.2697
3204.8949
2994.6702
2805.3677
2596.7798
2399.6875
2207.4939
1995.8041
1791.4574
1590.1229
1402.3027
1240.4754
1107.5944
1014.1553
949.53707
919.82436
905.05617
900.20424
894.1647
876.54342
844.52558
794.23449
726.94101
670.47116
566.56081
538.78728
364.13056
270.70247
163.91185
132.02662
53.72927
51.492849
34.134482
24.607644
-0.86809903
3.4337248
-3.4762354
1.15436
0.10662767
30.189281
32.082867
35.148771
153.81805
269.36754
187.93699
213.27478
191.26757
244.02901
119.09236
245.19938
39.185736
273.55758
-147.16729
833.79703
18266.638
15748.584
17827.173
18671.024
18971.62
18871.694
18660.465
18380.724
17868.482
17522.362
16875.564
16432.492
15733.394
15272.255
14535.187
14067.354
13429.472
12910.806
12334.434
11809.723
11259.993
10734.282
10205.739
9650.3862
9119.5558
8546.7058
8025.5971
7464.7862
6942.127
6441.7036
5972.9743
5523.778
5113.6843
4702.2139
4384.8094
3938.0785
3753.1066
3529.0154
3344.3015
3067.1874
2854.258
2641.9796
2449.3282
2286.0221
2143.0017
1997.6328
1882.4694
1765.0804
1648.4839
1542.3202
1426.5775
1316.2431
1204.8247
1097.8033
999.16948
909.2332
833.1947
766.74965
712.26293
666.72755
622.6509
581.95678
535.51614
502.80928
429.72208
413.79088
326.95038
350.12201
315.95
247.65112
318.00869
312.03062
213.59362
141.81091
144.79246
132.04392
134.92594
105.3325
124.27477
94.740696
128.00788
78.747376
166.32249
62.658005
132.97562
71.531698
249.03576
145.62254
288.73502
152.78354
335.2291
96.466242
471.52285
-195.4021
1058.7258
10767.948
8298.8423
10530.342
11074.581
11898.513
11835.989
11895.369
11563.696
11356.21
11016.15
10672.925
10310.272
9921.6291
9542.5062
9169.7454
8855.322
8483.5665
8232.0774
7941.0008
7673.9941
7426.7039
7122.1554
6852.4045
6497.9881
6180.7298
5798.3194
5453.7563
5053.83
4735.5776
4353.2241
4035.7166
3712.2229
3408.1578
3141.2003
2855.5433
2547.1177
2515.0429
1957.3604
1911.9447
1751.3002
1605.3602
1454.0875
1361.7236
1270.2898
1197.4158
1119.0943
1057.6104
979.70923
904.9936
824.73443
740.29525
659.33596
583.0284
513.44773
458.04893
408.21272
372.33447
340.54817
311.7051
284.7117
254.22782
216.74556
176.09565
154.95755
72.385007
76.456914
60.101532
-41.316338
-33.129225
-88.877028
-16.639294
-90.378701
29.816096
252.29701
244.12512
261.63409
262.22046
271.8466
281.23196
275.33374
286.08105
291.96643
284.5689
308.45523
302.02655
315.55168
279.20831
243.20073
254.44028
172.53726
247.31425
117.24364
388.22167
-206.37587
1270.6339
5760.0484
3785.5661
5039.8426
5594.2443
6289.2502
6589.6159
6599.7368
6677.7122
6492.8424
6449.7525
6152.7234
6098.6005
5776.4128
5717.6807
5445.82
5382.0782
5187.6239
5147.2788
4988.5079
4957.4699
4840.4436
4758.7733
4639.0949
4498.6078
4350.0738
4151.8226
3936.5413
3694.6395
3435.1436
3161.725
2915.9963
2642.9464
2419.54
2184.3296
1964.4292
1825.9792
1614.365
1708.6543
1563.7391
1312.8335
1213.8403
1117.9372
1054.1498
1012.3023
963.66268
927.07133
889.26739
858.09166
818.97786
779.12048
731.73574
683.94189
631.66983
579.6878
529.17634
478.92678
434.97838
388.07847
350.82637
309.14047
265.88119
241.35201
195.83364
148.02267
153.24139
93.349744
76.866198
61.517512
75.409736
66.741815
37.423394
69.171195
-8.5572926
-74.07908
-62.566077
-67.738802
-40.096292
-46.545635
-35.832415
-55.304284
-30.070368
-86.033195
-18.874686
-111.49374
-10.091173
-95.692066
44.61152
-40.554499
146.17833
11.077092
268.76216
28.895923
448.79979
-131.19591
1349.175
3239.309
826.42078
1860.9388
2040.4544
2701.3147
2900.6631
3176.4254
3182.7337
3231.9379
3175.6574
3113.8607
3046.4014
2939.8998
2885.4728
2783.8512
2800.7113
2730.7942
2798.3382
2792.3175
2862.6725
2881.5493
2914.0094
2897.7241
2853.0288
2785.0946
2639.3692
2518.2238
2325.4711
2162.5799
1960.0661
1774.6459
1580.7138
1409.4796
1217.4532
1087.0179
901.48073
799.77884
612.68705
573.44549
399.28814
422.02635
365.37641
363.49101
367.82934
380.85479
401.47344
436.61446
446.84818
457.47834
444.34662
423.2458
381.83722
340.23925
288.52254
246.46158
202.81953
174.97682
148.00058
132.54025
111.92925
107.82056
82.31188
62.201976
63.793775
18.620632
22.289682
5.5928837
9.9564788
20.480616
8.3169461
96.5333
54.365098
143.71596
167.27223
249.77849
269.44483
297.4648
294.87636
316.02896
309.26093
314.97631
322.51229
313.04351
326.57811
323.78285
318.21015
307.55965
288.09633
283.07594
204.16741
256.52833
111.02946
459.30951
-164.03816
1469.135
2388.5337
85.948695
531.79283
686.07567
1075.3175
1474.4721
1611.0071
1790.4139
1834.349
1944.2004
1875.3089
1984.62
1905.0248
1997.4368
1976.1762
2079.4432
2086.577
2241.717
2263.1036
2421.0095
2451.6141
2545.6681
2588.5049
2638.5413
2604.8002
2561.0561
2463.0788
2323.5721
2164.7864
1971.1461
1787.2659
1596.6459
1405.3308
1248.6711
1095.0146
951.6872
842.56006
776.512
663.59396
600.41526
543.99109
496.4893
475.74577
480.37254
475.59273
503.71239
508.05907
523.32461
519.3242
513.05689
483.711
451.32995
400.45008
348.55716
292.19046
235.40408
190.67527
144.02125
110.86741
86.805676
60.078873
38.096476
31.87441
-3.3934652
-10.727289
-34.751908
-42.324011
-57.933149
-70.911925
-49.760121
-83.107351
-46.287813
-33.760823
-64.977394
-93.999217
-92.056123
-92.837631
-98.284969
-98.514753
-137.32395
-122.49753
-193.87602
-152.49521
-238.02194
-169.21292
-241.72355
-140.91241
-193.84167
-63.656553
-101.49714
112.32272
35.260891
396.56681
-73.779972
1378.3326
3454.1645
657.83262
860.23422
844.93713
1180.5712
1492.7116
1694.5012
1835.831
1943.0709
1978.1882
1980.7963
1961.5026
1908.7276
1883.6007
1826.4786
1861.1897
1847.0863
1956.4804
2011.1319
2170.9933
2311.1371
2487.8504
2484.5557
2474.4771
2420.7487
2333.373
2205.9827
2039.3312
1883.2679
1678.781
1514.3285
1310.9193
1146.845
988.92812
807.33902
696.86479
545.04984
450.04775
326.3508
248.8937
181.17997
150.62824
141.0083
142.9353
176.30936
198.90612
242.09385
264.86207
285.63434
279.42474
263.12861
222.7259
175.76203
121.1873
67.792223
20.350826
-13.517831
-47.394288
-56.163629
-75.965994
-84.591325
-88.656393
-110.08159
-115.29392
-134.17451
-134.94353
-150.15209
-149.5319
-121.34654
-116.70726
-65.169838
-30.905646
4.8899768
41.503106
142.70673
143.59868
176.34538
189.38082
190.02906
200.15986
188.13361
202.59758
192.30543
209.29424
213.00418
227.42404
228.73625
250.29808
232.18566
254.01829
241.62014
175.06391
410.74553
-55.581173
1338.3682
6952.5946
3610.2548
3735.5916
3772.6722
4124.4564
4373.2302
4536.0783
4585.5541
4672.1885
4728.0935
4648.0386
4689.0952
4605.1385
4563.6686
4509.1768
4465.6108
4390.2991
4417.6821
4303.7717
4325.9461
4319.5408
4247.9201
4130.8393
4074.3394
3987.4209
3855.3004
3662.6386
3478.6215
3229.863
2985.6999
2729.182
2477.8854
2252.7013
2009.6675
1853.4882
1650.4733
1504.3072
1371.882
1246.4678
1169.5163
1081.6618
1037.1137
969.79158
955.20151
917.30291
911.08655
889.01736
874.51145
840.92992
807.2463
752.42705
693.01554
622.50846
549.48126
475.04927
408.19706
346.29228
295.91413
258.88306
221.13643
207.4435
180.3343
166.79843
148.8729
133.08216
105.55593
93.500414
86.127116
68.505604
62.87047
58.804056
54.668037
51.740535
57.190625
90.616517
-18.942242
19.29077
-19.741265
13.723034
-38.537538
-1.4768724
-61.6805
-17.66984
-83.037533
-25.947957
-95.273926
-15.298084
-81.639728
13.122575
-22.011254
79.46426
84.010973
297.40593
92.825328
1296.8079
7968.6047
6322.2419
6115.5117
6689.7276
6909.0714
7308.9012
7286.0439
7363.8033
7380.5018
7316.0638
7108.481
7021.546
6732.923
6558.5242
6300.5893
6134.4353
5941.1855
5838.3995
5678.4555
5627.8146
5551.9879
5918.0543
5564.9685
5407.4803
5178.9831
4853.7546
4563.0128
4168.8053
3830.1263
3449.468
3122.9542
2814.5085
2478.5626
2258.5484
1961.4508
1756.64
1548.4871
1366.3125
1204.7391
1049.7802
937.42893
819.2772
764.32836
696.3806
673.58355
638.32698
620.50455
582.43046
540.35251
471.63978
387.7103
284.087
171.71683
56.153481
-51.931225
-144.16042
-217.77541
-266.65286
-297.91384
-308.60244
-309.53161
-305.07411
-298.59518
-281.89424
-286.7363
-264.48338
-254.91866
-249.63436
-232.87831
-210.62518
-180.19137
-160.55826
-124.95454
-80.821499
25.285251
70.864833
23.659524
36.700836
11.979985
20.475275
7.7460629
17.844568
23.460565
45.793697
69.000054
110.2873
138.65391
200.98378
220.62275
289.77783
319.52775
336.71625
458.55529
272.05388
989.38953
20929.921
12761.402
13897.041
13880.559
14261.491
14028.588
14176.774
14052.857
13917.602
13711.751
13481.682
13132.466
12772.273
12333.674
11990.126
11483.659
11152.951
10710.704
10357.077
10006.469
9578.8272
9232.5677
9412.7907
9164.7438
8701.6546
8303.7677
7799.9437
7338.586
6853.6223
6375.6533
5957.5817
5495.4217
5131.4218
4762.0282
4447.0081
4151.6937
3854.3952
3603.3094
3331.1679
3122.8894
2875.596
2704.0771
2502.9722
2359.4872
2209.8317
2094.4291
1978.3902
1879.6529
1774.1645
1673.8342
1565.7598
1457.68
1349.098
1244.1207
1148.6105
1064.8828
995.10714
938.70673
895.55397
857.09945
823.44589
785.61837
745.15412
693.00426
630.98862
571.71682
499.14518
436.71567
390.32963
345.34254
301.79152
265.78101
269.86921
198.57296
196.0182
138.35536
111.94574
99.70444
96.810026
82.389647
80.636402
57.213306
51.955711
23.689341
17.552396
-24.117812
-27.354345
-75.276825
-85.447005
-88.990548
-101.62355
-40.298837
140.30114
86.220813
1027.264
33073.133
25960.965
25225.73
24741.923
24112.332
23786.766
23679.324
23078.15
23011.178
22441.217
21939.229
21332.213
20568.32
19804.229
19022.01
18088.872
17380.682
16470.068
15775.454
14976.492
14267.378
13552.026
12755.351
11985.838
11208.231
10311.539
9573.834
8720.3801
7932.7845
7246.7349
6543.9492
6005.8541
5432.4468
5032.5711
4569.2056
4188.8588
3871.907
3544.2021
3290.6083
2999.2099
2795.1963
2556.0375
2376.3205
2185.3046
2018.9711
1843.8928
1669.8355
1476.8623
1271.3917
1046.0226
808.5639
566.5029
330.41066
115.07624
-69.05029
-210.62137
-309.52745
-358.91696
-374.52515
-355.57082
-322.4049
-274.90812
-238.3505
-194.33069
-174.22744
-141.74281
-151.34611
-138.47578
-153.36829
-178.02069
-209.9695
-208.58544
-297.56741
-297.78864
-371.31073
-405.8304
-458.62348
-503.34022
-542.56642
-542.45742
-542.93554
-501.3519
-447.99115
-363.45234
-276.74309
-162.3775
-58.6077
60.153276
169.71889
272.38943
361.60459
442.65293
513.9161
429.52313
837.86003
50761.592
39549.322
37471.953
35372.276
35609.818
34939.346
34590.766
34398.707
34132.035
33434.111
32846.868
31911.128
30957.573
29830.906
28664.587
27429.06
26250.879
24995.217
23809.562
22656.423
21454.11
20319.659
19127.624
18083.322
16867.432
15771.45
14660.705
13533.044
12505.714
11486.228
10602.512
9745.8621
9005.9456
8406.412
7763.2776
7287.6632
6821.835
6381.7573
5949.0599
5578.3888
5182.748
4841.7706
4505.7806
4208.3511
3925.8944
3674.4263
3428.9183
3198.1547
2962.7597
2723.2938
2475.9469
2219.2505
1964.1785
1713.5076
1483.6085
1277.4476
1109.3374
974.6665
878.82243
810.25555
766.73132
732.54037
706.89232
675.15325
643.30436
598.30961
564.47579
536.54952
486.46734
441.12425
436.04336
370.56562
373.19058
317.998
293.73813
236.45973
205.86637
147.15162
107.01969
66.532045
30.576299
5.8411903
-2.5948139
-16.974777
-0.034812882
-3.8546177
24.899741
22.852048
48.741808
43.475194
55.431816
67.004288
91.882667
197.98083
541.92982
62570.412
50057.51
46301.48
44952.379
46203.588
44729.262
44991.516
44554.08
43876.602
43056.309
41835.65
40717.445
39326.561
37835.015
36506.894
34912.607
33646.049
32037.239
30477.873
28824.093
27218.868
25266.758
23776.241
21802.24
20152.09
18592.93
16992.181
15899.607
14627.117
13871.653
12870.977
12181.595
11422.419
10770.475
10100.902
9549.4547
9040.2528
8444.8521
8001.2315
7472.4339
7070.5363
6634.0216
6228.6076
5799.8385
5350.7073
4867.3251
4352.7343
3824.138
3294.9309
2804.6214
2368.6948
2025.8665
1782.1564
1648.9444
1611.0985
1654.1741
1739.25
1844.5831
1930.725
1982.921
1980.6593
1930.3845
1826.3989
1687.0977
1518.3967
1329.4103
1113.9587
929.0828
685.26374
587.0458
314.7266
175.59447
-53.24467
-183.16159
-332.84674
-399.39998
-443.72986
-418.19957
-345.90258
-231.98103
-101.82813
66.070726
192.26592
339.17277
415.84715
492.74393
497.09432
504.3522
466.6563
427.02083
407.8994
396.97693
387.88741
497.70972
515.19091
49517.35
47051.577
40430.461
39534.938
38850.947
39191.88
38452.122
39088.237
39271.639
39257.38
39028.434
38742.252
41399.958
43876.792
54034.991
33782.238
28067.138
24688.785
24700.982
23215.066
23211.927
22530.025
22974.855
23261.165
23035.979
23282.01
23798.554
25368.072
28644.011
35495.997
21535.4
16849.21
12826.731
12280.757
11277.122
11072.42
10981.066
10768.52
10876.873
10953.663
11376.152
11783.434
13278.724
16691.673
21987.163
13439.089
10594.148
8379.3538
7414.5732
7126.5288
6808.5359
6754.6131
6553.029
6777.2947
6857.7433
7152.3987
7435.3062
9066.7776
11077.472
14060.29
7584.3424
5791.842
3998.2229
3604.183
3172.9804
3068.2599
2981.2027
2900.7216
2947.3248
3074.0451
3183.8089
3665.8101
4518.5906
5764.6657
8489.7776
4979.6922
3206.2129
2176.8792
1924.0154
1691.7958
1640.4228
1572.0753
1579.1663
1608.5068
1610.8163
1794.0904
1901.5211
2384.7444
3334.9328
5187.5379
2341.123
1373.0968
878.202
580.2396
516.28591
399.80829
387.30299
349.81961
366.43827
387.24944
475.95211
634.86784
940.43391
1611.2138
3071.9938
2114.7173
1134.6074
611.62462
463.56643
340.656
295.16205
272.33726
272.46666
294.86033
318.85139
416.80692
515.72942
796.38001
1374.7927
2822.8903
2895.0974
1692.2027
1036.6631
731.17766
551.68713
446.60753
401.78958
394.65124
406.02373
464.14482
591.04702
765.67405
1201.3804
2105.7868
3293.865
5555.6219
4071.6362
2499.3269
2105.4304
1685.7247
1576.2091
1459.2544
1455.2384
1487.2181
1525.4168
1916.9765
1951.1369
2967.2139
4442.0668
6734.7793
8607.3792
6776.5191
4340.961
3930.2192
3150.7747
2999.441
2796.3425
2835.8601
2868.8945
2931.2538
3385.125
3978.7856
5214.332
7295.2699
9917.3114
15738.11
10984.672
8362.3214
7272.1396
6327.7518
5938.1839
5753.1103
5675.972
5831.8124
5955.5216
6724.5236
6570.1401
9147.6592
12053.789
16390.061
22321.843
18413.42
14065.71
12619.181
11160.429
11007.338
10433.037
10795.654
10764.834
10547.555
11623.081
12164.042
14517.964
19140.478
21871.668
36607.888
30692.132
24589.044
23228.406
21384.776
20710.277
21075.533
21450.507
21059.585
21199.791
21448.105
22519.127
25196.28
28813.137
39529.716
50421.645
54255.033
41825.97
40969.556
38366.281
35719.452
38356.188
40402.348
37309.037
39789.235
38598.399
39937.261
42762.847
48398.235
59040.937
127218.69
106587.6
107150.3
109945.79
111701.13
110575.28
116564.76
123388.99
125371.63
123406.87
119377.85
113314.54
111948.22
114114.17
110881.05
89195.74
79859.433
75786.628
73871.279
70188.1
72973.7
71746.501
72152.533
77253.163
72989.796
74160.304
72645.037
77638.51
82033.542
93949.273
69021.394
71774.471
67528.815
65231.026
65653.855
59903.09
59625.12
60344.742
57308.467
62437.519
62399.364
68437.546
70393.101
71036.599
73012.565
64160.823
71653.689
70813.627
68356.447
67051.285
66045.085
65545.008
65930.77
66019.927
66462.659
68430.594
70508.597
71778.223
72580.283
67263.989
62484.229
66976.762
67838.265
69592.538
67673.167
67019.429
66997.831
66422.389
67103.922
68642.674
68790.406
70431.456
69743.764
67447.706
62725.999
59308.916
65655.623
66765.182
67483.073
67732.151
67377.679
67013.285
66938.149
67195.109
67229.493
68154.067
68367.38
67508.394
65492.88
60503.885
58168.379
62179.272
64068.186
65638.96
65895.17
66129.54
66380.546
66338.799
66663.968
66909.872
66512.53
66250.375
64732.219
61541.996
58750.807
56651.181
59789.096
62138.078
63614.19
64754.313
64756.669
64981.516
65227.863
65014.621
65158.595
64720.769
63769.784
62333.319
58992.101
55910.278
54573.121
57202.223
59226.151
60656.541
61105.871
61970.096
62158.013
62198.082
62295.561
61813.855
61326.535
60307.553
58747.984
56591.493
54553.386
53482.426
55175.712
57262.252
58381.348
59565.124
59904.315
60307.462
60355.929
59992.367
60094.59
59275.49
58579.208
56968.725
55048.386
53545.91
51544.666
52995.723
54625.936
55774.583
56532.332
57256.371
57560.613
57685.581
57898.158
57187.759
57076.473
55802.714
54860.935
53109.47
51634.211
50567.855
51023.249
52519.52
53450.464
54331.756
54682.1
55031.125
55046.025
54868.325
54626.296
53869.366
53239.012
51960.676
50707.275
50272.824
48592.364
49211.302
50284.514
51074.036
51769.567
52263.876
52621.02
52711.624
52924.519
52514.463
52176.85
51498.575
50493.058
49550.742
48473.977
46921.906
47030.589
48448.201
48806.796
49615.502
49864.474
50205.484
49976.884
49970.289
49615.439
49112.283
48557.958
47600.729
46700.621
46724.298
44980.776
45044.696
46083.986
46622.907
47268.858
47377.156
47958.549
47524.423
47892.912
47633.124
47418.568
46958.836
46059.788
45545.221
44785.565
42961.039
43044.868
44176.019
44246.972
44808.979
45168.996
45475.221
45204.265
45108.892
44712.314
44324.678
43908.099
43333.765
42624.733
42480.012
41027.194
40838.759
41719.118
41865.489
42667.288
42616.778
42921.73
42780.397
43091.293
42826.624
42798.648
42366.939
41723.041
40797.674
41039.41
38767.694
39035.187
39899.061
40077.095
40162.529
40477.209
40383.349
40527.686
40402.657
40111.57
39718.283
39297.898
39040.208
38401.789
37856.798
36949.026
36736.906
37654.449
37662.637
38233.586
38105.684
38638.225
38120.93
38351.348
38118.838
37646.051
37758.386
37272.393
36876.095
36765.565
34768.253
34824.093
35337.459
35521.101
35726.193
35748.721
36132.593
35966.851
35961.988
35663.57
35942.059
35257.878
34882.794
34274.123
33904.65
32699.649
32860.149
33560.961
33467.238
33689.75
33541.011
33826.762
33638.224
33773.412
33432.554
33412.853
33198.311
33375.838
32459.726
32466.245
30845.886
30724.714
31154.123
31290.82
31447.873
31580.093
31579.276
31504.416
31271.026
31765.513
31258.743
31130.671
30295.985
29935.668
30601.06
28999.145
28660.144
29329.64
29107.087
29359.724
29467.858
29400.492
29186.873
29335.243
29065.468
28638.299
28677.928
28557.744
28163.064
28746.82
26812.814
26886.908
26986.281
27059.783
27053.032
26826.593
27089.17
26913.294
26990.004
26770.7
26799.485
26689.025
26696.597
25936.811
27071.643
25487.954
24645.433
24862.684
24532.125
24958.898
24707.072
25037.991
24683.64
24850.213
24630.411
24936.006
24548.694
24008.322
23870.925
25025.55
22943.357
22291.695
22872.295
22575.429
22724.716
22719.516
22724.65
22442.723
22641.576
22342.947
22330.673
22573.185
22521.551
22184.152
22798.558
21384.387
20371.244
20685.181
20247.512
21020.291
20410.56
20591.865
20413.878
20499.834
20350.2
20352.666
19650.485
20014.098
19541.493
21125.301
18958.192
18175.522
18731.938
18486.623
18226.238
18284.92
18397.091
18234.771
18360.313
18195.399
18272.743
18434.217
18117.782
18081.119
18683.508
17429.48
16426.89
16417.618
16309.527
16507.027
16427.768
16465.055
16336.119
16361.863
16273.614
16217.041
16303.826
15840.71
15672.922
17229.674
15087.541
14334.365
14821.466
14583.864
14786.43
14829.718
14648.881
14571.853
14325.691
14401.25
14351.856
14185.235
14775.991
14021.262
14938
13787.391
13031.365
13457.639
12991.659
13301.812
12740.76
13168.771
12879.406
13452.479
12818.096
12947.062
12714.189
12731.41
12386.986
13280.025
12417.282
11409.633
11849.326
11529.517
11797.456
11627.143
11816.406
11604.566
11668.628
11460.493
11560.404
11395.968
11463.162
11223.345
11837.048
10958.816
10224.455
10698.074
10402.083
10658.927
10467.046
10695.418
10370.639
10600.17
10321.219
10525.255
10213.428
10401.049
10081.141
10536.018
9933.9783
9291.6833
9738.4839
9426.6918
9747.5801
9511.4037
9738.8695
9513.5129
9693.2404
9483.626
9548.9891
9386.0139
9479.8382
9200.8711
9564.8842
9011.8107
8539.532
8983.8186
9033.4903
8925.2162
8807.7595
8987.8731
8800.7959
8952.3454
8788.7226
8898.6527
8695.9554
8792.8929
8631.8188
8754.7505
8568.7532
8029.9855
8364.7688
7936.9951
8353.6434
8223.5504
8350.9874
8212.1056
8349.8929
7885.0539
8261.6952
8042.5853
8164.8903
7887.2577
8227.7763
7560.2751
7522.4674
7872.3464
7715.1525
7879.4763
7694.5951
7882.8743
7673.2163
7777.4464
7909.6076
7730.9905
7590.1178
7615.3167
7439.8414
7614.4194
7474.2205
7197.0626
7522.3651
7344.4734
7456.3429
7339.5687
7468.7406
7276.3937
7454.3168
7160.8158
7357.311
7084.2894
7306.442
6992.8892
7066.9552
7201.4603
6714.5047
7143.045
6828.4815
7138.7375
6857.0622
7102.7229
6832.0012
6998.0258
6812.005
6879.7518
6757.0256
6804.5583
6525.0051
6716.7438
6727.4113
6373.3321
6738.8013
6525.1643
6690.8123
6495.4656
6683.3288
6424.9909
6635.5711
6359.249
6547.6317
6266.648
6393.0006
6119.7591
6246.8292
6388.9092
5998.4789
6373.12
6080.8981
6331.2987
6071.0572
6281.5183
6034.2549
6179.2607
5997.9704
6074.1711
5886.5107
5960.4622
5658.7153
5822.3794
5953.6764
5614.5654
5924.5545
5704.604
5900.8777
5663.2017
5887.2883
5588.9922
5807.9561
5546.7957
5670.3059
5466.7487
5503.4475
5234.5008
5404.7914
5564.3929
5196.8272
5527.5074
5276.2226
5483.0151
5259.0864
5439.9206
5204.6155
5358.9675
5146.3383
5245.5007
5045.3361
5069.7959
4800.3685
5008.0425
5145.0418
4808.3995
5102.2083
4866.6023
5083.5226
4837.7445
5059.1073
4784.0577
4961.207
4749.043
4828.4959
4658.0847
4661.9013
4396.5364
4681.6552
4789.533
4412.6176
4708.1587
4481.9276
4670.0625
4462.4464
4649.2036
4400.4871
4567.213
4359.3802
4439.8019
4281.0378
4277.4138
4008.862
4418.9798
4458.1638
4048.584
4346.3979
4093.8784
4298.7419
4076.7303
4274.3815
4026.2237
4184.8546
3997.5528
4066.1286
3928.5136
3932.9159
3651.7862
4229.6033
4180.0842
3711.8396
3986.9964
3747.981
3931.1333
3725.4641
3914.5995
3665.0583
3826.5649
3642.6976
3707.4911
3587.776
3606.567
3303.6861
4087.4878
3942.0719
3375.7887
3662.7942
3399.705
3571.903
3366.4128
3543.7768
3302.3495
3459.21
3284.6521
3352.76
3245.2494
3294.8339
2963.3218
3967.9534
3703.1084
3054.286
3320.3153
3044.7527
3209.001
3008.7952
3181.7969
2941.1573
3093.4219
2924.5249
2989.2042
2890.3421
2968.8335
2600.8992
3819.2439
3462.6512
2704.6974
2963.5408
2680.9161
2827.019
2620.8386
2778.097
2537.9919
2688.6638
2522.612
2593.5797
2497.62
2612.6289
2212.9227
3607.5396
3161.4178
2320.8721
2574.6326
2273.8325
2405.06
2207.1638
2362.0067
2130.2398
2274.7939
2111.1286
2177.6498
2080.6689
2216.9309
1788.4122
3292.5156
2795.2204
1899.9542
2141.1103
1833.6728
1963.76
1764.283
1904.1161
1668.4599