/*--------------------------------*- C++ -*----------------------------------*\
  =========                 |
  \\      /  F ield         | OpenFOAM: The Open Source CFD Toolbox
   \\    /   O peration     | Website:  https://openfoam.org
    \\  /    A nd           | Version:  6
     \\/     M anipulation  |
\*---------------------------------------------------------------------------*/
FoamFile
{
    version     2.0;
    format      ascii;
    class       pointScalarField;
    location    "1.3";
    object      p;
}
// * * * * * * * * * * * * * * * * * * * * * * * * * * * * * * * * * * * * * //

dimensions      [1 -1 -2 0 0 0 0];

internalField   nonuniform List<scalar> 
625
(
-934034.39
1488990.9
-1867.7378
-2661.1485
-1685940.3
2573114.7
-1166.775
75.356962
-589735.46
-27395.572
231353
1731.5685
1103.6987
-518.31903
-354890.65
-376788.96
-351450.11
-325139.92
-276684.5
-251254.23
-213977.67
-182629.73
-166244.95
-133145.43
-116346.91
-94551.327
-78230.849
-60757.067
-46728.361
-33681.536
-22661.512
-13806.492
-6713.7151
-995.50654
1811.5067
2722.8198
1163.4102
445376.13
323304.63
384235.51
299933.37
279220.92
259513.9
223154.72
204550.29
184649.68
164050.54
146488.33
126849.45
111643.08
94126.572
78528.639
64040.867
50268.362
39264.269
27696.565
20720.586
12039.693
6499.4701
2386.0597
-865944.04
3894.4035
395969.94
436798.8
576295.08
390093.53
369444.15
378552.55
300295.39
276341.5
255691.3
222335.88
197146.05
163944.84
136479.67
109007.8
84885.495
64290.859
45402.736
31673.653
19892.406
11337.126
5279.6738
1013.8743
-1594.7967
-2390.9025
-940.0146
1719.2785
1485.7407
86.936676
-2096.7689
-6304.6109
-11634.675
-18723.919
-29110.118
-40372.154
-54859.839
-70951.133
-89128.751
-109529.95
-132029.5
-152809.38
-169785.81
-217673.98
-229187.38
-262209.65
-274133.74
-339054.01
-326471.47
-370008.02
-429517.17
-369999.83
-958308.13
-968507.82
-880435.75
1574663.3
1580294.8
1530028.5
-3492.1504
-1801.1006
-3028.5549
-1033.9968
-732.14937
-718.50744
-162279.32
-191133.63
-193995.15
-170406.18
-161283.09
-152472.37
-128598.2
-116827.3
-97355.325
-80604.871
-66565.71
-51456.45
-36682.063
-24573.222
-14646.397
-6148.0184
-604.44784
2947.4612
4941.4729
4482.5984
3806.0571
2058.3752
631.8477
45055.775
14161.932
36381.497
14120.471
26410.406
23102.265
27791.526
25217.644
27290.374
29521.658
28112.554
28699.175
26749.767
23667.967
20526.74
17141.832
13285.125
9803.0188
7210.632
4122.4832
3338.004
714.11171
1090.371
287676.09
248908.76
236021.79
209528.2
217101.5
181547.6
173259.74
150522.19
136852.86
118067.74
102639.27
87642.291
74136.013
61940.936
51443.313
41780.65
33192.578
25342.696
19145.261
11995.943
7106.6492
4270.9295
1749.1101
-466129.32
-446446.21
-484198.18
5524.6249
-35692.065
7280.573
223705.36
289437.68
364265.46
591466.89
571566.8
596151.49
507897.99
477613.93
444743.31
395077.98
375317.56
391529.31
340619.6
330197.51
322219.33
324832.77
312588.98
332304.39
290324.34
271082.53
270415.88
267076.18
249019.68
262467.47
241046.09
218241.17
230980.19
213395.58
196418.01
204277.17
187331.01
171471.38
179572.1
160990.95
148667.06
153232.87
137803.18
125769.7
128609.01
113886.65
103767.65
104229.32
93099.193
83275.671
82946.898
74061.3
65617.146
64522.956
57991.328
50324.932
48098.293
44172.03
36988.618
34928.644
32551.513
26793.708
24645.841
23171.261
18152.167
16104.11
15506.798
11637.875
10024.135
8876.6566
6510.6094
5351.3904
3658.1101
3664.5406
2035.7125
2385.0796
531.75222
965.82041
1177.8655
1483.1258
1780.1931
533.83105
923.96971
1917.4203
1048.397
310.51173
514.01064
-462025.9
-446238.17
-454884.28
-447557.67
-414615.04
-413533.93
-408260.82
-377312.12
-395669.09
-339097.88
-319203.1
-336220.32
-310798.99
-303567.43
-289199.83
-279580.71
-239068.1
-270765.79
-237622.43
-228251.61
-241951.72
-216727.51
-196674.14
-211214.68
-180330.89
-173258.73
-182357.37
-160782.29
-147317.3
-168051.96
-135181.67
-128876.77
-141346.51
-114256.77
-105823.77
-121391.33
-90329.107
-88870.159
-100612.87
-71873.551
-71904.993
-81334.387
-53962.505
-56704.719
-63041.67
-38798.985
-42907.101
-47229.93
-26063.693
-31162.248
-33163.75
-16016.757
-20869.812
-21633.21
-7817.7208
-12373.194
-12374.759
-2492.8491
-5495.6361
-5514.3044
893.88255
-926.51359
-561.80815
2104.9395
1636.105
1252.2553
670.99918
324.76876
982.74202
-249762.28
-247437.14
-217107.16
-226180.87
-224776.49
-194148.89
-177858.22
-158716.87
-134847.53
-115056.51
-100246.59
-81285.622
-65153.331
-53065.569
-41999.834
-32856.966
-25386.463
-19041.912
-13676.247
-9426.1909
-4950.6925
-2592.5259
-544.05523
34162.309
-23328.486
1578.3533
-24212.685
-25584.563
2150.588
-12259.435
-3509.8222
-3776.3155
-6591.9076
-12232.562
-13674.6
-16591.279
-19426.08
-19455.675
-19059.13
-16916.062
-14183.77
-10864.965
-7208.8799
-4345.3378
-1322.0379
35.489499
222002.97
227671.84
264489.92
208895.81
203981.23
178158.85
138961.59
124679.16
99731.116
83022.759
70296.019
59066.026
50639.297
42015.367
36394.094
29961.934
24458.859
19489.373
15024.256
11029.89
7988.3125
5059.2014
3221.5416
-331565.56
-320059.06
-289609.16
-268752.97
-267386.59
-262842.04
-217793.77
-215189.42
-262239.71
-202414.87
-227900.77
-202432.3
-212178.81
-176739.47
-208541.03
-161687.19
-179954.22
-197404.75
-158109.41
-165293.04
-169599
-136694.83
-135624.98
-150565.37
-113340.58
-117974.83
-137150.5
-90794.889
-103811.63
-109121.62
-71962.946
-80625.49
-90017.943
-51237.968
-64530.383
-73270.151
-37727.951
-48925.104
-56956.759
-26106.17
-34964.83
-42650.725
-16576.472
-23243.551
-32045.436
-10372.72
-15191.949
-22971.464
-6421.3306
-8238.2405
-16149.492
-3556.7376
-3899.326
-11069.326
-2338.6154
-1100.7341
-7374.9466
-2278.1253
-223.81121
-4626.0032
-1676.0194
1611.8669
-3813.5014
-982.40989
-530.0685
-2073.6017
166.79157
827.88989
-216.6415
24389.846
52030.281
12581.188
11307.84
-40296.823
-35736.634
-25030.721
-26745.316
-26473.258
-4805.0174
-14410.352
-11583.06
5702.7354
-12459.364
-31945.354
11444.34
-15988.248
-12485.938
9935.9079
-1670.7243
-2083.6317
19211.745
2613.3189
-6618.6847
20099.179
-913.38465
1190.5965
14685.31
3928.8229
1614.5565
15163.938
3224.9764
2260.9317
11694.051
-524.46129
-603.43397
7617.5541
-2748.1979
188.84081
5162.6755
-3495.6913
-2894.2718
3283.3721
-6070.2115
-5072.9494
940.58573
-6987.2536
-6438.9411
-351.52486
-6685.7613
-7920.3183
-389.55025
-6772.2205
-8308.8348
-2060.0249
-5805.3226
-8050.57
-609.98419
-3539.4686
-7176.8855
-2776.2731
-2608.8275
-4912.6897
-301.10575
-677.90314
-3542.5052
106.50252
-30.894868
-1110.3238
327083.92
357183.23
394012.77
227510.81
207090.34
273716.58
219160.73
283238.34
272217.52
246233.54
203701.42
225023.84
189295.08
196962.33
207151.98
181678.97
171914.32
194619.93
157957.1
152711.44
162087.68
139414.48
128260.63
142754.41
116908.93
111686.42
120483.51
102831.75
96662.674
100631.67
86880.913
82437.856
81725.573
73227.243
71202.861
68500.417
60339.402
63483.032
55764.366
50788.513
54644.425
44750.803
41035.06
46687.562
35574.378
33079.61
38993.029
28566.472
26020.249
31921.349
21673.886
19793.722
24336.975
16143.991
14618.55
18299.469
12096.13
9133.3816
12544.731
7558.2286
8307.8075
7510.3873
4974.7667
2842.2678
3536.8222
1200.5765
1619.9753
1469.1149
1926.3829
)
;

boundaryField
{
    free
    {
        type            calculated;
    }
    fixed
    {
        type            calculated;
    }
    freeTop
    {
        type            calculated;
    }
}


// ************************************************************************* //
