/*--------------------------------*- C++ -*----------------------------------*\
  =========                 |
  \\      /  F ield         | OpenFOAM: The Open Source CFD Toolbox
   \\    /   O peration     | Website:  https://openfoam.org
    \\  /    A nd           | Version:  6
     \\/     M anipulation  |
\*---------------------------------------------------------------------------*/
FoamFile
{
    version     2.0;
    format      ascii;
    class       pointVectorField;
    location    "1.11";
    object      u;
}
// * * * * * * * * * * * * * * * * * * * * * * * * * * * * * * * * * * * * * //

dimensions      [0 1 0 0 0 0 0];

internalField   nonuniform List<vector> 
625
(
(0 2.1869936e-19 0)
(0 1.9184209e-19 0)
(-1.064079 -0.24304433 0.053090348)
(-1.0988684 0.018550121 0.048510626)
(0 2.8473618e-19 0)
(0 1.500211e-18 0)
(-1.0926789 0.012636628 0.048748246)
(-1.057874 -0.24886793 0.052994262)
(0 -3.3343866e-20 0)
(1.4576835e-19 -3.3859407e-19 0)
(0 6.8876635e-19 0)
(-1.072812 -0.17748479 0.052062729)
(-1.0813525 -0.11211188 0.050900743)
(-1.0900309 -0.046943366 0.049664217)
(-0.00046936033 -0.0078969373 -0.0080489773)
(-0.0063948244 -0.016206113 -0.0076970517)
(-0.018020287 -0.025247471 -0.0064235443)
(-0.034807634 -0.034759682 -0.0042994577)
(-0.055972594 -0.043852548 -0.0019856509)
(-0.082010946 -0.053996392 0.00093660432)
(-0.11222057 -0.063740311 0.0037337095)
(-0.14665753 -0.074232076 0.0069553496)
(-0.18531556 -0.084785441 0.01014903)
(-0.22752382 -0.095657973 0.013708785)
(-0.27348542 -0.10682265 0.017082459)
(-0.32270913 -0.11815454 0.020569248)
(-0.37509627 -0.12960357 0.024001054)
(-0.43021252 -0.14109499 0.027359221)
(-0.48784444 -0.1525488 0.030619999)
(-0.54760823 -0.16386585 0.033738969)
(-0.60919927 -0.1749652 0.036733392)
(-0.67225605 -0.18580233 0.039541834)
(-0.73648937 -0.19624188 0.042224283)
(-0.80143841 -0.20635476 0.044719177)
(-0.86706736 -0.21598699 0.047049465)
(-0.93269178 -0.22539664 0.049227294)
(-0.99853124 -0.23428193 0.05117945)
(-9.0332545e-05 0.0087294146 0.011317231)
(-0.0092431631 0.019351151 0.0096382377)
(-0.022051088 0.030316099 0.011375107)
(-0.039444359 0.040329951 0.012386593)
(-0.062226567 0.049466457 0.013779212)
(-0.090092049 0.058184206 0.015554665)
(-0.12194341 0.065449704 0.017658507)
(-0.1586072 0.071720528 0.01970844)
(-0.19940007 0.076981081 0.022116743)
(-0.24400895 0.080755438 0.024387739)
(-0.2922769 0.083421106 0.026764078)
(-0.34396391 0.084736517 0.029008247)
(-0.39853964 0.084728578 0.031226142)
(-0.45586293 0.083416783 0.033245544)
(-0.51545114 0.080878011 0.035160365)
(-0.57700467 0.077123632 0.036886407)
(-0.64012477 0.072299133 0.0384885)
(-0.70447081 0.06645967 0.03995808)
(-0.76968474 0.059803348 0.041336597)
(-0.83547239 0.052362203 0.042672995)
(-0.90149308 0.044409917 0.044022371)
(-0.96753825 0.03602936 0.045393875)
(-1.0333703 0.02728977 0.046936094)
(0 2.0025747e-19 0)
(-2.6065656e-18 -5.6084515e-19 0)
(0 1.4097712e-18 0)
(-0.0010870498 0.0043737842 -0.0074457031)
(-0.0077204809 0.019258823 -0.0088012782)
(-0.01975058 0.024491774 -0.0064381651)
(-0.036936651 0.034504834 -0.004766997)
(-0.05975617 0.042811532 -0.0030577915)
(-0.086677723 0.049905143 -0.00018989063)
(-0.11838105 0.056486472 0.002164649)
(-0.1548431 0.062524754 0.0051740985)
(-0.19533732 0.067216159 0.0081600462)
(-0.23969674 0.070927496 0.011357582)
(-0.28790211 0.073644199 0.014528577)
(-0.33925509 0.075009194 0.017811199)
(-0.39384033 0.075422956 0.020980332)
(-0.45093825 0.074412194 0.024170273)
(-0.51047494 0.072395644 0.027206187)
(-0.57186904 0.069102073 0.030152184)
(-0.63487273 0.06477954 0.032945478)
(-0.69906266 0.059409898 0.03558705)
(-0.76411812 0.053131025 0.038090921)
(-0.82971475 0.046045491 0.040433703)
(-0.895578 0.038321437 0.042649924)
(-0.96145803 0.030046777 0.044743673)
(-1.0271788 0.021409827 0.046716984)
(-1.0838223 -0.052851962 0.049777698)
(-1.0751164 -0.1179088 0.05077534)
(-1.0666267 -0.18329142 0.051826783)
(-0.99232708 -0.24012647 0.051270905)
(-0.92650003 -0.23127376 0.049586654)
(-0.86073433 -0.22212911 0.048026167)
(-0.79521408 -0.21267567 0.046483364)
(-0.73018409 -0.20290891 0.044964834)
(-0.66601789 -0.1928261 0.043365148)
(-0.60301596 -0.18244338 0.041694488)
(-0.54153336 -0.17183107 0.039910508)
(-0.4819135 -0.16098504 0.037986409)
(-0.42451018 -0.15002928 0.035931606)
(-0.36965055 -0.13891597 0.033711654)
(-0.31762058 -0.12784418 0.031422663)
(-0.26878691 -0.1167292 0.028979271)
(-0.22314109 -0.10564975 0.026501312)
(-0.18186772 -0.09447729 0.023824952)
(-0.14353159 -0.083765824 0.02152052)
(-0.10988098 -0.072940133 0.019058476)
(-0.080027393 -0.06215648 0.016809777)
(-0.055265331 -0.051389927 0.014710975)
(-0.034375621 -0.040660751 0.012788668)
(-0.018072682 -0.030493048 0.011609745)
(-0.0076810299 -0.018818821 0.0098712272)
(-0.004372464 -0.0093897628 0.0064272985)
(0 -3.5672253e-19 0)
(0 -3.711701e-19 -7.6557542e-19)
(0 -1.094052e-18 0)
(0 6.2450168e-19 0)
(0 -6.9099912e-20 2.203274e-19)
(0 4.7565665e-19 0)
(-1.0973554 0.017265695 0.04864447)
(-1.0958272 0.015750435 0.048640423)
(-1.094209 0.014283992 0.048690882)
(-1.0625333 -0.24460811 0.053047483)
(-1.0610193 -0.2460597 0.053055678)
(-1.0594394 -0.24750545 0.053013864)
(-0.0023383045 -0.0069367148 -0.0047170856)
(-0.013278676 -0.013372956 -0.0029604787)
(-0.028679892 -0.019967443 -0.0021432666)
(-0.048598449 -0.026533171 -0.00021377319)
(-0.071764544 -0.032711355 0.0018527776)
(-0.098825663 -0.038786542 0.0042771528)
(-0.12881315 -0.04398127 0.0069782864)
(-0.16192421 -0.049120534 0.00989407)
(-0.19818096 -0.053540652 0.012991676)
(-0.2376255 -0.057935049 0.016183862)
(-0.28018437 -0.062109737 0.019389767)
(-0.32588489 -0.066401532 0.022640445)
(-0.37477329 -0.071025655 0.025804518)
(-0.42679248 -0.076226706 0.028888433)
(-0.48188445 -0.082181002 0.031833378)
(-0.53987611 -0.089069712 0.034625338)
(-0.60059471 -0.097014322 0.037259173)
(-0.66372725 -0.1060476 0.039722197)
(-0.72899929 -0.1161517 0.042032102)
(-0.79596799 -0.12724826 0.044208456)
(-0.86432374 -0.139132 0.046268799)
(-0.93342275 -0.15165664 0.048217228)
(-1.0031977 -0.16448413 0.050112524)
(0.003871687 0.00035246102 0.00082306872)
(-0.0037737117 0.001671614 0.0018953076)
(-0.01551012 0.0023098287 0.0030284787)
(-0.032702305 0.0027027777 0.0043909035)
(-0.055009126 0.0029185337 0.0063616303)
(-0.081816569 0.0022157698 0.0085580263)
(-0.1131736 0.0011054603 0.011003904)
(-0.14895342 -0.0009193196 0.01363324)
(-0.18886391 -0.0034521843 0.016330973)
(-0.23258721 -0.006963711 0.019176031)
(-0.27997619 -0.011113186 0.022027157)
(-0.33067776 -0.016140112 0.024830856)
(-0.38445555 -0.021853034 0.027577743)
(-0.44095763 -0.028281407 0.030217598)
(-0.49983758 -0.035323036 0.032750119)
(-0.56076118 -0.04291881 0.035140686)
(-0.62337247 -0.050961745 0.037413507)
(-0.6873047 -0.059357559 0.039546475)
(-0.75225509 -0.068010259 0.041579739)
(-0.81783 -0.07681202 0.043551235)
(-0.88380715 -0.085691789 0.045390087)
(-0.94986172 -0.094554347 0.047256573)
(-1.015952 -0.10340665 0.04908105)
(0.0083790773 0.0078711266 0.0049247794)
(0.0041623237 0.016152494 0.0060256556)
(-0.003773778 0.024541039 0.0071291361)
(-0.018956749 0.032134961 0.0085880361)
(-0.039757014 0.038656097 0.010406817)
(-0.066570653 0.043091555 0.012365767)
(-0.099342063 0.046157031 0.01458843)
(-0.13741957 0.047106295 0.016865847)
(-0.18064986 0.046266233 0.019344624)
(-0.22849956 0.043537547 0.02183119)
(-0.28056028 0.039235724 0.024291347)
(-0.33607177 0.033457575 0.026762903)
(-0.39461935 0.026636771 0.0291513)
(-0.4554489 0.018977303 0.031478704)
(-0.51807346 0.010880429 0.033689769)
(-0.58188336 0.002652763 0.035792338)
(-0.64637926 -0.0054264007 0.03777982)
(-0.71113463 -0.01309148 0.039641495)
(-0.77573256 -0.020241049 0.041441722)
(-0.83997296 -0.026652963 0.043087377)
(-0.90355885 -0.032517126 0.044784698)
(-0.9664872 -0.037652704 0.046383807)
(-1.0286676 -0.042442647 0.048050281)
(0 -2.2412207e-19 0)
(0 3.7311342e-19 7.82621e-19)
(0 8.112659e-19 0)
(-3.8737516e-19 7.7347613e-21 0)
(1.6179775e-19 -2.3973482e-19 -1.1940455e-20)
(-1.0196493e-18 -9.170081e-19 0)
(0 3.46351e-19 0)
(0 9.3082697e-19 -2.47559e-20)
(0 1.0231351e-18 0)
(-0.0039347879 0.0038054007 0.0045513682)
(-0.0045589595 0.0045679254 0.00040959293)
(-0.0035571925 0.0029223613 -0.0028330644)
(-0.013764289 0.020449807 0.004745141)
(-0.0129741 0.019427122 0.00056845252)
(-0.011812056 0.017597693 -0.0044232707)
(-0.024431313 0.028284016 0.0063579792)
(-0.024731189 0.026338137 0.0020474244)
(-0.023882379 0.026449601 -0.002817256)
(-0.042447746 0.038724111 0.0074085557)
(-0.04273263 0.037682605 0.0031812976)
(-0.040924418 0.035393069 -0.0011149238)
(-0.065150953 0.047836792 0.0091661476)
(-0.064836395 0.045550632 0.0053107659)
(-0.063657189 0.044192328 0.00078962154)
(-0.092191355 0.05580803 0.011236457)
(-0.092254656 0.053667823 0.0070567009)
(-0.090543025 0.051568154 0.0032256711)
(-0.12420843 0.062968735 0.013343367)
(-0.12406838 0.060839221 0.0099028106)
(-0.12255341 0.058520317 0.0055192553)
(-0.16069758 0.069263144 0.015795407)
(-0.16017542 0.066478151 0.012244522)
(-0.15862192 0.064343369 0.008450852)
(-0.20113699 0.07416077 0.018285516)
(-0.20070462 0.071739111 0.015044496)
(-0.19910645 0.069334816 0.011283544)
(-0.24552637 0.078079942 0.020918599)
(-0.24501719 0.075432988 0.017781586)
(-0.24337662 0.073014787 0.01432202)
(-0.29368868 0.080772638 0.023474229)
(-0.29305373 0.078140017 0.020595917)
(-0.29138574 0.075727361 0.01733198)
(-0.34500347 0.08209343 0.026013705)
(-0.34428268 0.079465711 0.023384895)
(-0.34265387 0.077116222 0.020372758)
(-0.3994444 0.082262518 0.028480638)
(-0.39867473 0.079742235 0.026081267)
(-0.39700954 0.077417418 0.023345811)
(-0.45647574 0.081100832 0.030813084)
(-0.45558716 0.07859696 0.0286879)
(-0.45395969 0.07641629 0.026249767)
(-0.51583563 0.078747289 0.033022809)
(-0.51489289 0.076395157 0.031155938)
(-0.51325073 0.074276608 0.029043506)
(-0.57712036 0.075197743 0.035067516)
(-0.57607379 0.072913225 0.033492663)
(-0.57446228 0.070950305 0.031692653)
(-0.63997709 0.070544148 0.036989123)
(-0.63885224 0.068419953 0.035680066)
(-0.63724142 0.066536108 0.034216565)
(-0.70404699 0.064902607 0.038754195)
(-0.70283918 0.062860774 0.037735519)
(-0.70124393 0.061109668 0.036576211)
(-0.76901024 0.058343091 0.040448406)
(-0.76770459 0.056451001 0.039674013)
(-0.76611576 0.054782577 0.038819125)
(-0.83451068 0.051044927 0.042027694)
(-0.83313229 0.04924312 0.041513192)
(-0.83156074 0.047648233 0.040929655)
(-0.90031664 0.043121221 0.043621634)
(-0.8988845 0.041430182 0.043320645)
(-0.89730528 0.039892182 0.042931156)
(-0.96617436 0.034742738 0.045218843)
(-0.96466656 0.03311624 0.045054652)
(-0.96310246 0.031625182 0.044865557)
(-1.0319005 0.025997591 0.046878866)
(-1.0303492 0.024469904 0.046827178)
(-1.0287984 0.022952675 0.046758397)
(-1.0712898 -0.17901957 0.051966972)
(-1.0697781 -0.18048173 0.051930249)
(-1.0681853 -0.18192742 0.051874608)
(-1.0798205 -0.11358195 0.050835965)
(-1.0782975 -0.11503541 0.05084958)
(-1.0767049 -0.11650544 0.050815068)
(-1.0885063 -0.048292734 0.04971449)
(-1.0870271 -0.049771333 0.049751673)
(-1.0853951 -0.051261498 0.049760208)
(-0.0050750036 -0.006845978 -0.0040901391)
(-0.0056347417 -0.0080260094 -0.0012769322)
(-0.0067115883 -0.0077884756 0.0020758971)
(-0.010925139 -0.016497883 -0.0033788153)
(-0.011687841 -0.017861715 0.00094164413)
(-0.01121629 -0.017715626 0.005637185)
(-0.022266961 -0.027466596 -0.0022220257)
(-0.02278027 -0.028000352 0.0016444649)
(-0.022622735 -0.029291261 0.0072945767)
(-0.038552706 -0.036222986 -4.591699e-05)
(-0.03902769 -0.038178948 0.0037820887)
(-0.038382422 -0.039129672 0.0088155944)
(-0.05932357 -0.046838449 0.001912527)
(-0.059923494 -0.048418358 0.0061740452)
(-0.058956136 -0.050001292 0.010655172)
(-0.085153197 -0.056625155 0.00486031)
(-0.085065547 -0.05860661 0.0082078447)
(-0.084284007 -0.060361037 0.013144936)
(-0.1149908 -0.066744428 0.0074857119)
(-0.11502403 -0.069025987 0.011088618)
(-0.11390508 -0.071030099 0.015478788)
(-0.14922565 -0.077310245 0.010565407)
(-0.14883403 -0.079794835 0.013909175)
(-0.14767217 -0.081796245 0.018242398)
(-0.18704612 -0.088181182 0.013481627)
(-0.18703992 -0.090471434 0.017079774)
(-0.18545797 -0.092737076 0.020614537)
(-0.22935132 -0.099071588 0.016960244)
(-0.22864084 -0.10151807 0.019640201)
(-0.22734172 -0.10368475 0.023699861)
(-0.27489203 -0.11012727 0.020083816)
(-0.27418134 -0.11258332 0.022966985)
(-0.27259828 -0.11483114 0.026348198)
(-0.32382539 -0.12145584 0.023374476)
(-0.32290797 -0.12384693 0.025902402)
(-0.32135958 -0.12606537 0.029053056)
(-0.37582629 -0.132793 0.026532544)
(-0.37482632 -0.13510988 0.028859423)
(-0.3731869 -0.1372544 0.031624886)
(-0.4306316 -0.14415804 0.029630658)
(-0.42952902 -0.14636346 0.031660727)
(-0.42786019 -0.14842024 0.034108372)
(-0.48793144 -0.15544645 0.032609422)
(-0.48673242 -0.15751316 0.034368137)
(-0.48503352 -0.15949418 0.036451045)
(-0.54737911 -0.16657382 0.035430944)
(-0.54612584 -0.16852672 0.036902397)
(-0.54441206 -0.17040355 0.038640613)
(-0.60868139 -0.17750051 0.038122712)
(-0.60736185 -0.17929949 0.039314937)
(-0.60564012 -0.18109247 0.04069707)
(-0.67146711 -0.18810822 0.040636441)
(-0.67010466 -0.18980995 0.041546825)
(-0.66839553 -0.19150173 0.042612163)
(-0.73542554 -0.19840464 0.043007605)
(-0.73403913 -0.19997974 0.043682449)
(-0.73232111 -0.20162123 0.044441231)
(-0.80022838 -0.20828447 0.045191021)
(-0.79880815 -0.20982283 0.045684058)
(-0.79712857 -0.21137509 0.046150097)
(-0.8656026 -0.21781282 0.047334601)
(-0.86417097 -0.21927044 0.047600397)
(-0.86249175 -0.22079365 0.047859346)
(-0.93120979 -0.22701023 0.049330711)
(-0.92969253 -0.22845146 0.049441013)
(-0.92808788 -0.22992301 0.049528046)
(-0.99698306 -0.23585688 0.051199703)
(-0.99546121 -0.23730995 0.051234614)
(-0.99388464 -0.2387578 0.051263776)
(-0.0038538472 -0.0062530825 0.0046302435)
(-0.013905363 -0.018875433 0.0063287255)
(-0.027911229 -0.024745343 0.0069452295)
(-0.047715645 -0.033290884 0.0088282926)
(-0.070245468 -0.04074484 0.010809119)
(-0.096553038 -0.047435348 0.012822867)
(-0.12601048 -0.053620495 0.01512654)
(-0.15853423 -0.059062386 0.017604093)
(-0.19442711 -0.06396267 0.020110559)
(-0.23324158 -0.068335186 0.02262915)
(-0.27533948 -0.072476655 0.025316052)
(-0.32071216 -0.076487216 0.027760341)
(-0.36929467 -0.080743542 0.030258035)
(-0.42109827 -0.085463042 0.032629423)
(-0.47600187 -0.090873048 0.034916484)
(-0.53389057 -0.09718325 0.037079532)
(-0.59451143 -0.10456755 0.039146357)
(-0.65761663 -0.1130797 0.041109081)
(-0.72283898 -0.12273046 0.042987427)
(-0.78984517 -0.13345892 0.044792231)
(-0.85814102 -0.14511858 0.046573706)
(-0.92732659 -0.15745141 0.048351869)
(-0.99702475 -0.17031191 0.050065733)
(0.0038847053 -0.001518424 6.0064767e-05)
(-0.0026171093 -0.0029261853 0.0015281854)
(-0.014506638 -0.0021579799 0.0021292834)
(-0.031451962 -0.003862661 0.0042660509)
(-0.052714356 -0.0048884864 0.0061389393)
(-0.079299325 -0.0061276072 0.0081272385)
(-0.11003805 -0.0082844653 0.010631372)
(-0.14537019 -0.010787103 0.013289246)
(-0.18489998 -0.013597322 0.01586691)
(-0.22816951 -0.017342968 0.018832651)
(-0.27535075 -0.02139481 0.021581385)
(-0.32581908 -0.026237983 0.02448248)
(-0.37946511 -0.031534209 0.027262824)
(-0.4358157 -0.037578883 0.029986054)
(-0.49460618 -0.044040567 0.032560027)
(-0.55543258 -0.05111993 0.035025177)
(-0.61795332 -0.058608021 0.0373363)
(-0.68179463 -0.066491264 0.039515706)
(-0.74662308 -0.074723425 0.041557637)
(-0.81210067 -0.083154711 0.043511895)
(-0.87793774 -0.091788715 0.045384727)
(-0.94384398 -0.10049191 0.047169663)
(-1.0098369 -0.10925561 0.048993049)
(0.0091936524 0.0063903759 -0.0033357498)
(0.0047984158 0.01204168 -0.0029550228)
(-0.0029171936 0.02099924 -0.0029635096)
(-0.017071969 0.025217766 -0.00037710753)
(-0.037541594 0.031517476 0.00090850031)
(-0.064168242 0.034819179 0.0034642439)
(-0.09622462 0.037104791 0.0060839343)
(-0.13405611 0.037572853 0.008743242)
(-0.17692813 0.036367273 0.011752367)
(-0.22451072 0.033499742 0.014765653)
(-0.27626038 0.02923324 0.017815149)
(-0.33152514 0.02364432 0.020904887)
(-0.38984383 0.017086134 0.023886449)
(-0.45048925 0.0098457569 0.026812789)
(-0.51293628 0.0021964168 0.029623176)
(-0.57659719 -0.005524202 0.03230538)
(-0.64095254 -0.013092206 0.034857475)
(-0.70556185 -0.020283022 0.037268748)
(-0.7700525 -0.026973781 0.039558037)
(-0.83412708 -0.033064109 0.041752574)
(-0.89759991 -0.038628326 0.043809157)
(-0.9603813 -0.043616558 0.045879222)
(-1.0224875 -0.04832504 0.047776672)
(-0.0052889801 -0.005134242 -0.0022211488)
(-0.0055187351 -0.0055519854 -0.00049555054)
(-0.0065002374 -0.0056285636 0.0016059812)
(-0.01705988 -0.014634981 -0.00093191123)
(-0.018134546 -0.015377448 0.0011407919)
(-0.017262618 -0.015960962 0.004234231)
(-0.032562078 -0.021323025 5.0872512e-05)
(-0.032541466 -0.022299698 0.0025013131)
(-0.032237487 -0.023855962 0.0048246578)
(-0.051870956 -0.028767012 0.0019697816)
(-0.052594486 -0.030401721 0.0043333714)
(-0.051647025 -0.031457259 0.0066989124)
(-0.075177059 -0.035397167 0.0041550136)
(-0.075360139 -0.036994579 0.0061787255)
(-0.074471143 -0.038780156 0.0087510973)
(-0.10166236 -0.041482508 0.0064601287)
(-0.10181063 -0.043719222 0.0086017206)
(-0.10064234 -0.045537681 0.010885071)
(-0.13138997 -0.047215086 0.009106405)
(-0.13137032 -0.049477766 0.011196556)
(-0.13013626 -0.051479623 0.013316989)
(-0.16415595 -0.052428939 0.012017362)
(-0.16400739 -0.054751569 0.013860869)
(-0.1626261 -0.056950764 0.015906008)
(-0.20023159 -0.05694069 0.014961)
(-0.19986453 -0.059496548 0.01670375)
(-0.19839311 -0.061798911 0.018666644)
(-0.23928269 -0.061352912 0.018049859)
(-0.23870978 -0.064003812 0.019672053)
(-0.2372274 -0.066131609 0.021336469)
(-0.28147035 -0.065554205 0.021114711)
(-0.28081141 -0.068027565 0.02264457)
(-0.27917749 -0.070388479 0.024099168)
(-0.32682358 -0.069760613 0.024239391)
(-0.3260235 -0.072284511 0.025519142)
(-0.32438342 -0.074542405 0.026832197)
(-0.37539892 -0.074293379 0.027217967)
(-0.37448222 -0.07666985 0.028368158)
(-0.37278757 -0.07889136 0.029437208)
(-0.42709302 -0.079321241 0.030151491)
(-0.42608482 -0.081595367 0.031092012)
(-0.42437325 -0.083720153 0.031990582)
(-0.48188991 -0.08508275 0.032901991)
(-0.48077403 -0.087223054 0.033675018)
(-0.47904954 -0.089275205 0.034397499)
(-0.53958645 -0.091762788 0.035525682)
(-0.53840938 -0.093765119 0.036136138)
(-0.53668264 -0.095693765 0.036697155)
(-0.600039 -0.099486868 0.037981024)
(-0.59878064 -0.1013381 0.038435229)
(-0.59706611 -0.10318485 0.038850971)
(-0.66292821 -0.10828464 0.040285631)
(-0.66163138 -0.11003506 0.040603822)
(-0.65991598 -0.11177101 0.040909472)
(-0.7279871 -0.11821895 0.042442392)
(-0.72661273 -0.11980677 0.04266266)
(-0.7249359 -0.12148596 0.042843931)
(-0.79475604 -0.12906679 0.044495678)
(-0.79341431 -0.13065222 0.044592501)
(-0.79170558 -0.13221936 0.044715618)
(-0.86292176 -0.14081912 0.046454019)
(-0.86152792 -0.14235697 0.046464826)
(-0.85986502 -0.14386965 0.046537558)
(-0.93201956 -0.15320319 0.048311163)
(-0.93051131 -0.15469275 0.048315529)
(-0.92890267 -0.15617532 0.048335721)
(-1.0016718 -0.16603914 0.050120163)
(-1.0001588 -0.16747108 0.050115598)
(-0.99857607 -0.16895123 0.05007932)
(0.0016103199 -0.00014680267 0.00055698529)
(0.00091177633 -0.00068790804 0.00032171512)
(0.00039367533 -0.0010348284 0.0001760592)
(-0.0068474584 0.00056090857 0.0019898834)
(-0.0073427141 -0.00070108622 0.0016587969)
(-0.0060516457 -0.0014532166 0.0017599696)
(-0.01871834 0.00057661859 0.0030188087)
(-0.019010286 -0.00038012535 0.0023404571)
(-0.018255761 -0.0018137258 0.0025514363)
(-0.035716806 0.001047083 0.0047188771)
(-0.036553351 -0.00061691923 0.0041742497)
(-0.0351085 -0.0018712054 0.0043216056)
(-0.057732326 0.00042230915 0.0065068699)
(-0.058049077 -0.0012425335 0.0058219691)
(-0.05657164 -0.0033552348 0.0063787276)
(-0.084284178 -0.0003382775 0.0087907062)
(-0.084580373 -0.0023804217 0.0083700768)
(-0.082988043 -0.0044171611 0.0085024386)
(-0.11543027 -0.0018490442 0.011272256)
(-0.11554117 -0.0039272625 0.010607787)
(-0.11387517 -0.0061805518 0.010889289)
(-0.15093863 -0.0038649571 0.013878196)
(-0.15082807 -0.0062992159 0.013330601)
(-0.14907366 -0.0086705401 0.013648496)
(-0.19047633 -0.0066776276 0.016579682)
(-0.19036482 -0.0090381752 0.01611292)
(-0.18854086 -0.0114544 0.016236225)
(-0.23398539 -0.010188158 0.0194338)
(-0.2336477 -0.012628552 0.018950578)
(-0.23175574 -0.015114473 0.019082952)
(-0.28111776 -0.014340171 0.022277334)
(-0.28070016 -0.016773638 0.021741333)
(-0.27878039 -0.019199958 0.021935563)
(-0.33159255 -0.019256641 0.02506419)
(-0.33102521 -0.021716545 0.024583511)
(-0.3290926 -0.024056962 0.024748376)
(-0.38510306 -0.024871936 0.027806094)
(-0.38447467 -0.027183774 0.027361237)
(-0.38252122 -0.029463315 0.0275218)
(-0.4413652 -0.031114661 0.030426876)
(-0.44061062 -0.033381524 0.03000591)
(-0.4386677 -0.035555672 0.030180986)
(-0.49999093 -0.037984309 0.032946156)
(-0.49914952 -0.04009174 0.032583653)
(-0.49722858 -0.042162232 0.032751572)
(-0.56067274 -0.045370967 0.035315288)
(-0.55972618 -0.047364692 0.034989768)
(-0.55784158 -0.049311818 0.035160269)
(-0.62304303 -0.053205871 0.037565767)
(-0.62199249 -0.055056595 0.037298903)
(-0.62015235 -0.056907297 0.037458195)
(-0.68673321 -0.061412756 0.039673978)
(-0.68559508 -0.063133528 0.039447087)
(-0.68380368 -0.064886133 0.039607387)
(-0.75147539 -0.069879445 0.041677972)
(-0.75022329 -0.071513568 0.041521168)
(-0.74848012 -0.073153352 0.041629169)
(-0.81681951 -0.078580038 0.043616006)
(-0.81549378 -0.080016664 0.043442803)
(-0.81380888 -0.081672051 0.043574342)
(-0.88270978 -0.087274677 0.045402048)
(-0.88109681 -0.088806722 0.045395143)
(-0.87959138 -0.090293365 0.045426353)
(-0.94852368 -0.096095397 0.047256408)
(-0.94703621 -0.097552161 0.047189306)
(-0.94542436 -0.099039019 0.047212348)
(-1.014468 -0.10486374 0.049076295)
(-1.0129482 -0.10631467 0.049025858)
(-1.0113629 -0.10781202 0.049032678)
(0.0055580088 0.0061399705 0.0019968523)
(0.0059071585 0.0054775531 0.00021207355)
(0.0062087214 0.0052489203 -0.0016139634)
(0.00028720353 0.014802258 0.0034634407)
(-0.00011351968 0.012894296 0.00087645372)
(0.0014510019 0.012819963 -0.0012474623)
(-0.0073212911 0.023171072 0.0044093465)
(-0.007483569 0.022612466 0.0019586744)
(-0.006546321 0.021531993 -0.00055764147)
(-0.022495929 0.030650181 0.006012505)
(-0.022353458 0.028345432 0.0035147796)
(-0.021251364 0.027188589 0.0014184347)
(-0.042854933 0.036308429 0.0077952045)
(-0.042774646 0.034664872 0.0055056635)
(-0.041519549 0.033019431 0.0033401929)
(-0.069565999 0.040882634 0.010011992)
(-0.069391299 0.038683004 0.0076677953)
(-0.067978786 0.03685754 0.0055872066)
(-0.10198852 0.043595544 0.012308832)
(-0.1015728 0.041181132 0.0099637569)
(-0.10019378 0.039070437 0.0081624003)
(-0.13979888 0.044323179 0.014738645)
(-0.13932331 0.04192989 0.012768025)
(-0.1379325 0.039820539 0.01081551)
(-0.18279964 0.043414001 0.017395906)
(-0.18225824 0.040939424 0.015360419)
(-0.18069411 0.038539225 0.013632082)
(-0.23041952 0.040680422 0.02003679)
(-0.22966275 0.03808312 0.018206973)
(-0.22818962 0.035793393 0.016616102)
(-0.28214103 0.036352268 0.022672247)
(-0.28139772 0.033856393 0.021020092)
(-0.27984141 0.031473977 0.019540616)
(-0.33741824 0.030659415 0.025343588)
(-0.33649525 0.028214179 0.023864144)
(-0.33499017 0.025870302 0.022516919)
(-0.39566736 0.023937072 0.027905751)
(-0.39468914 0.021550888 0.026584817)
(-0.39316109 0.019249528 0.025406108)
(-0.45623128 0.016424163 0.030416352)
(-0.45513553 0.014154972 0.029277925)
(-0.45365125 0.011941859 0.028216997)
(-0.51857137 0.0085075508 0.032793376)
(-0.51740881 0.0063305394 0.031810589)
(-0.51591042 0.0042188537 0.030900482)
(-0.58209956 0.00046452582 0.035059946)
(-0.58084343 -0.001576704 0.034234213)
(-0.57938345 -0.0035901856 0.033453483)
(-0.64631656 -0.0074092171 0.037188472)
(-0.64500342 -0.0093451433 0.036509614)
(-0.64352707 -0.011242078 0.03586213)
(-0.71078276 -0.014906391 0.039194323)
(-0.70939587 -0.016718573 0.038652054)
(-0.70794766 -0.018519652 0.038125284)
(-0.77513278 -0.021854808 0.041092117)
(-0.77371027 -0.023567336 0.040665547)
(-0.77221887 -0.025272334 0.040258575)
(-0.83908999 -0.028166153 0.042869727)
(-0.83757948 -0.029813127 0.042582157)
(-0.83612191 -0.031450878 0.042282001)
(-0.90245336 -0.033903368 0.044626467)
(-0.90094561 -0.03546302 0.044385603)
(-0.89945557 -0.037044338 0.044208821)
(-0.96514303 -0.039027601 0.046301243)
(-0.96363423 -0.040550526 0.046196196)
(-0.96210186 -0.042069832 0.046073635)
(-1.0272105 -0.043766402 0.048020446)
(-1.0256477 -0.045262619 0.047953755)
(-1.0241091 -0.04675885 0.047895236)
)
;

boundaryField
{
    free
    {
        type            calculated;
    }
    fixed
    {
        type            calculated;
    }
    freeTop
    {
        type            calculated;
    }
}


// ************************************************************************* //
