/*--------------------------------*- C++ -*----------------------------------*\
  =========                 |
  \\      /  F ield         | OpenFOAM: The Open Source CFD Toolbox
   \\    /   O peration     | Website:  https://openfoam.org
    \\  /    A nd           | Version:  6
     \\/     M anipulation  |
\*---------------------------------------------------------------------------*/
FoamFile
{
    version     2.0;
    format      ascii;
    class       pointVectorField;
    location    "1.84";
    object      lm;
}
// * * * * * * * * * * * * * * * * * * * * * * * * * * * * * * * * * * * * * //

dimensions      [1 -2 -1 0 0 0 0];

internalField   nonuniform List<vector> 
625
(
(0 0 0)
(0 0 0)
(1359.0685 228.83016 -279.19833)
(1321.2233 -370.3139 -221.02276)
(0 0 0)
(0 0 0)
(1266.8503 -419.19142 -223.58817)
(1304.4867 177.88238 -278.44473)
(0 0 0)
(0 0 0)
(0 0 0)
(1348.7804 78.180983 -265.46777)
(1338.4972 -69.823003 -250.59351)
(1330.8118 -219.0124 -235.71996)
(-23.352022 -40.116384 -26.676456)
(-43.896425 -67.28503 -38.718333)
(-70.415083 -90.09897 -56.099831)
(-101.4308 -105.04196 -78.437137)
(-130.88741 -111.36395 -104.8583)
(-159.90096 -109.39597 -133.97043)
(-181.81814 -99.757102 -164.06348)
(-196.10523 -82.274681 -194.39234)
(-198.98155 -59.187049 -224.01969)
(-189.52886 -29.856031 -252.19384)
(-164.69648 3.3203021 -276.88405)
(-124.1054 39.279777 -298.60928)
(-66.443715 76.518435 -316.38552)
(8.0232495 113.34405 -329.87526)
(99.011329 148.15438 -339.02865)
(205.41782 179.60252 -343.82698)
(325.55381 206.16054 -344.66591)
(457.72364 226.98544 -341.60148)
(599.07971 241.75648 -335.85946)
(746.9449 249.43544 -327.21719)
(900.26974 251.08004 -316.77167)
(1053.593 248.33512 -305.19467)
(1207.8543 239.25604 -291.88875)
(5.4284852 2.0646925 12.296016)
(-20.283575 3.2144266 -6.1073393)
(-51.330511 2.2474483 -27.008493)
(-86.793596 -4.363423 -56.953569)
(-120.6307 -15.37432 -88.986334)
(-154.57504 -26.816209 -123.89523)
(-179.71588 -44.10491 -158.90361)
(-198.25322 -61.919416 -193.42991)
(-203.85455 -82.945136 -226.16575)
(-197.45448 -105.08414 -256.09705)
(-175.68536 -128.35416 -281.91636)
(-137.44501 -152.71103 -303.07197)
(-82.997743 -176.90482 -319.11178)
(-11.147533 -201.11227 -329.30935)
(76.870994 -224.79832 -334.12113)
(180.47631 -247.47728 -333.3185)
(297.91112 -268.9182 -327.68542)
(427.45254 -288.91986 -317.64792)
(566.57557 -307.12125 -304.16666)
(713.15338 -323.40116 -288.30315)
(864.32076 -337.87981 -270.89404)
(1017.3221 -350.53013 -253.35936)
(1170.8716 -360.74048 -236.49187)
(0 0 0)
(0 0 0)
(0 0 0)
(-21.300101 19.34512 -17.150091)
(-52.438693 67.782334 -28.075373)
(-81.487873 69.91896 -36.60665)
(-117.61466 87.754532 -55.624786)
(-154.53315 90.436346 -79.496944)
(-185.17734 82.620141 -102.03276)
(-214.70541 71.221412 -128.98282)
(-230.23496 50.243791 -155.6362)
(-237.86471 24.184067 -181.185)
(-231.45292 -6.7369992 -205.90334)
(-209.71922 -42.790563 -227.63093)
(-172.93965 -80.651546 -246.84639)
(-118.7872 -121.44698 -262.25603)
(-48.575263 -161.98159 -274.13583)
(38.122134 -202.61672 -282.01686)
(139.83302 -241.33517 -286.00598)
(255.2456 -277.5054 -286.44215)
(382.53278 -310.3424 -283.41436)
(519.43687 -338.97586 -277.60473)
(663.63061 -363.23644 -269.29682)
(812.68854 -382.97269 -259.19108)
(964.19265 -398.25069 -247.70348)
(1116.0875 -409.58858 -235.2219)
(1276.4309 -268.18432 -237.29549)
(1282.8428 -120.12956 -250.52647)
(1294.0433 26.591749 -263.85289)
(1153.3633 188.17344 -293.50625)
(997.72766 197.90662 -310.14835)
(841.68653 204.51525 -327.64997)
(687.12303 208.15655 -344.96152)
(536.53181 208.11669 -360.83462)
(393.04504 204.04534 -374.01472)
(259.40613 195.92122 -383.50797)
(138.15485 184.03603 -388.40794)
(31.48381 168.78158 -387.91579)
(-58.817975 150.82343 -381.59848)
(-131.66433 130.88195 -369.18511)
(-186.55695 109.84049 -350.82481)
(-223.51205 88.545945 -326.75196)
(-243.25945 67.95739 -297.61124)
(-247.67496 48.412042 -263.5372)
(-237.10172 30.018923 -227.51891)
(-215.08436 15.745385 -188.13185)
(-184.75582 3.9195228 -149.20453)
(-147.21802 -5.822647 -108.73075)
(-106.89301 -10.429712 -72.547033)
(-65.695398 -15.171735 -37.004525)
(-30.291685 -10.03422 -11.69053)
(-5.2647467 -10.408344 11.46445)
(0 0 0)
(0 0 0)
(0 0 0)
(0 0 0)
(0 0 0)
(0 0 0)
(1307.1997 -384.06231 -222.21923)
(1293.8295 -396.37412 -222.43892)
(1279.4204 -408.20071 -222.93545)
(1345.9664 216.67429 -278.84447)
(1332.7651 204.16831 -279.45103)
(1318.8517 191.66234 -278.61254)
(-9.1821611 -23.892063 -25.981791)
(-34.556583 -45.036655 -31.840933)
(-63.32588 -63.272619 -51.608482)
(-97.266558 -75.71302 -74.076969)
(-130.90388 -83.334014 -101.13335)
(-162.27765 -84.857141 -130.52831)
(-187.03549 -82.004676 -161.01086)
(-204.1703 -73.71062 -192.00419)
(-209.44459 -61.785433 -221.78043)
(-201.05665 -45.640248 -249.58602)
(-177.86793 -27.17348 -274.4524)
(-138.18035 -6.7390345 -296.0422)
(-81.354912 14.503654 -313.35984)
(-7.1925993 35.401456 -326.39253)
(83.67447 54.970967 -334.85528)
(190.27886 72.093641 -338.86061)
(310.99642 86.055057 -338.64997)
(443.53139 96.246758 -334.60789)
(585.82794 102.19963 -327.38102)
(734.86737 103.84338 -317.25614)
(888.48465 101.49549 -305.71406)
(1042.6427 96.124058 -292.1608)
(1197.9476 87.374048 -278.50094)
(-1.6609904 -16.197443 -15.083336)
(-26.616568 -29.173487 -26.493349)
(-57.148771 -43.751544 -46.994357)
(-92.14244 -54.718286 -71.329542)
(-127.64565 -62.595003 -99.798862)
(-160.34663 -68.372627 -130.33468)
(-187.03531 -71.759807 -162.0959)
(-205.01429 -72.163033 -193.80196)
(-211.16975 -71.178049 -223.92417)
(-204.59202 -67.494025 -252.09164)
(-182.2016 -62.721 -277.03314)
(-143.55394 -56.611391 -297.93252)
(-87.546023 -50.020333 -314.4923)
(-14.220131 -43.645107 -326.25373)
(75.88172 -37.814204 -333.2307)
(181.85799 -33.349476 -335.40975)
(301.87156 -30.577277 -333.29634)
(434.07004 -29.979241 -327.1709)
(576.00003 -31.731355 -317.86964)
(724.58013 -35.811914 -306.30826)
(878.13201 -42.219005 -292.51956)
(1032.7241 -50.264953 -278.69156)
(1188.7794 -60.166392 -264.19825)
(5.2550764 -9.624004 -5.5874348)
(-22.671513 -19.19707 -17.939267)
(-51.712413 -29.187494 -38.033211)
(-89.184911 -37.360209 -64.183222)
(-125.15455 -45.803016 -93.71834)
(-158.60775 -55.703638 -125.90176)
(-186.26894 -63.586069 -159.12106)
(-204.49093 -72.969071 -191.55078)
(-212.07004 -81.331119 -222.94961)
(-205.77034 -89.311381 -251.72397)
(-184.02948 -97.359866 -276.85673)
(-146.14635 -104.60955 -297.96723)
(-90.700997 -112.13075 -314.26278)
(-18.169365 -119.4326 -325.55056)
(71.37104 -126.9284 -331.68442)
(176.64958 -134.95946 -332.80542)
(296.13998 -143.4186 -329.33595)
(427.85823 -152.68846 -321.71141)
(569.15648 -162.5224 -310.95579)
(717.96157 -173.47542 -297.21108)
(870.80168 -184.50932 -282.6266)
(1025.8073 -196.55432 -266.65515)
(1180.3185 -208.50732 -251.12403)
(0 0 0)
(0 0 0)
(0 0 0)
(0 0 0)
(0 0 0)
(0 0 0)
(0 0 0)
(0 0 0)
(0 0 0)
(-5.4047306 2.8732397 8.4883848)
(-13.834331 9.3828927 4.6041709)
(-19.185955 10.236421 -1.6345468)
(-34.561886 25.597043 -7.2799136)
(-42.51436 38.8127 -11.670753)
(-48.801463 48.099051 -17.328322)
(-61.120821 22.400671 -27.363453)
(-69.734262 36.748915 -27.661426)
(-77.772042 56.802526 -33.213756)
(-93.905065 21.891889 -54.838121)
(-102.80879 44.045198 -54.127633)
(-109.23997 63.131666 -53.854603)
(-128.06903 15.882113 -84.934778)
(-135.79421 39.030838 -80.902388)
(-145.13877 65.24932 -80.111544)
(-157.9105 3.9959553 -117.76352)
(-165.7093 30.054116 -112.20682)
(-174.39928 55.921925 -107.14153)
(-183.13595 -11.279008 -151.20874)
(-189.46054 15.042257 -143.5294)
(-199.66884 43.474858 -135.45959)
(-198.0471 -31.528723 -184.21826)
(-205.88477 -4.2293371 -174.88945)
(-215.68319 23.001758 -165.67603)
(-203.72151 -53.285262 -215.75686)
(-210.34384 -28.038149 -205.6506)
(-220.15109 -1.9950752 -193.13548)
(-196.00853 -78.698191 -244.79601)
(-201.95586 -55.446428 -232.98882)
(-213.19381 -30.954102 -219.42294)
(-172.99857 -106.10426 -269.76121)
(-179.50017 -85.293305 -257.66747)
(-190.52654 -63.827962 -242.50489)
(-135.23383 -134.35844 -290.70252)
(-141.36755 -116.87356 -278.10034)
(-152.83127 -98.779287 -262.22195)
(-80.39573 -163.80829 -306.57144)
(-86.800777 -150.02332 -294.00797)
(-98.599504 -135.52811 -277.92786)
(-9.4796978 -192.95109 -317.23843)
(-16.223803 -182.81971 -305.13693)
(-28.22295 -172.46444 -289.30998)
(77.557098 -221.63359 -322.68287)
(70.397403 -215.4896 -311.2915)
(58.06125 -209.00407 -296.36217)
(179.61734 -249.04611 -322.92208)
(171.79463 -246.51418 -312.68173)
(159.27023 -244.02888 -298.99127)
(295.23428 -274.64211 -318.57085)
(286.69503 -275.64216 -309.65284)
(273.90111 -276.67477 -297.70165)
(422.60229 -298.18797 -309.98182)
(413.28503 -302.10399 -302.69459)
(400.24204 -306.34624 -292.69005)
(559.67326 -318.95488 -298.23872)
(549.40341 -325.52191 -292.54035)
(536.12556 -332.41448 -284.7061)
(703.84749 -337.08508 -283.87363)
(692.7244 -345.54204 -279.88059)
(679.30698 -354.50506 -274.28416)
(852.94009 -352.31354 -268.14961)
(841.06073 -362.43847 -265.84891)
(827.41263 -372.84507 -262.11746)
(1004.5538 -364.9001 -252.06966)
(991.87213 -375.88166 -250.89786)
(978.25904 -387.32998 -248.95725)
(1156.8498 -374.87459 -236.42246)
(1143.5944 -386.80889 -236.21567)
(1129.9596 -398.36335 -235.42692)
(1335.8223 65.611297 -264.86978)
(1322.57 52.916246 -264.83822)
(1308.3382 40.287954 -264.16922)
(1324.9106 -82.633328 -250.30768)
(1311.4673 -95.330535 -250.75436)
(1297.0303 -107.29264 -250.60878)
(1317.232 -232.89015 -236.25928)
(1304.0806 -245.25622 -236.94795)
(1289.7742 -257.11425 -236.94958)
(-29.953188 -28.126319 -10.691159)
(-22.101036 -24.552111 -3.5843466)
(-18.796034 -19.631381 5.6921791)
(-44.915708 -50.618676 -27.035906)
(-43.815161 -39.172425 -17.748245)
(-41.048729 -31.2703 -11.666181)
(-74.218072 -70.745391 -47.003367)
(-72.392699 -53.286458 -42.669171)
(-69.582005 -41.411411 -38.14563)
(-102.45745 -80.187065 -73.143593)
(-104.916 -59.401563 -70.166406)
(-105.04191 -43.090855 -70.258059)
(-134.3751 -83.591987 -103.07475)
(-138.11958 -60.852922 -104.17063)
(-141.05083 -39.049917 -106.11879)
(-162.04516 -79.935887 -136.03248)
(-168.13877 -53.59272 -138.33953)
(-173.64097 -31.784262 -144.40293)
(-184.50348 -69.634832 -169.12201)
(-192.10009 -44.102518 -174.26002)
(-199.79396 -19.073378 -182.34567)
(-198.70863 -53.511185 -202.76702)
(-208.32296 -26.244763 -209.93774)
(-218.94387 -2.1219169 -220.00874)
(-203.20399 -30.464718 -234.41492)
(-212.76646 -6.9918708 -244.21034)
(-224.88705 17.094023 -255.99649)
(-192.19934 -4.7231314 -265.45207)
(-205.22339 18.440744 -275.14688)
(-218.40664 40.140341 -288.70699)
(-168.19667 25.213121 -291.25574)
(-181.51386 45.295312 -303.15975)
(-196.39615 65.09262 -317.5569)
(-127.83696 57.450282 -314.28489)
(-142.0018 74.285519 -326.72137)
(-158.28246 91.128664 -341.47462)
(-70.764567 90.417113 -332.52057)
(-85.59761 103.46268 -345.2255)
(-102.62022 117.03714 -359.97972)
(3.0730132 122.73796 -345.97554)
(-12.047771 131.95066 -358.4926)
(-29.743255 142.0019 -372.76862)
(93.37661 153.17029 -354.55137)
(77.921938 158.49494 -366.46506)
(59.976301 164.92835 -379.75827)
(198.80913 180.31302 -358.22127)
(183.49977 181.91265 -369.13937)
(165.48101 184.80029 -381.12812)
(318.21887 203.16358 -357.39647)
(302.88713 201.28249 -367.11964)
(285.09477 200.81424 -377.28111)
(449.07426 220.72204 -352.63724)
(434.12488 215.80116 -360.60007)
(416.72222 212.3747 -368.98602)
(589.33123 232.88331 -344.24851)
(574.86544 225.33782 -350.78236)
(557.93561 219.2612 -357.03138)
(736.55899 238.54778 -333.03886)
(722.59323 229.22059 -338.28942)
(706.20218 221.02697 -342.3407)
(888.11462 239.14366 -320.80822)
(874.39187 228.19692 -323.90243)
(858.56524 218.46669 -326.16827)
(1041.1193 235.20479 -307.2018)
(1027.3392 223.63978 -308.68323)
(1012.5904 212.28732 -309.42056)
(1195.3014 226.46088 -292.28432)
(1181.5664 214.06735 -292.94454)
(1167.4551 201.85351 -293.28693)
(-0.33028367 2.4069515 -1.4763025)
(-31.572111 12.795417 -21.126154)
(-65.256148 18.972359 -43.916835)
(-109.41892 23.96852 -71.854734)
(-149.26303 29.615352 -105.4231)
(-188.04887 34.739244 -138.45932)
(-220.33815 39.681712 -174.58548)
(-242.52284 46.108593 -209.18464)
(-253.24724 51.149267 -241.93122)
(-250.15427 57.45202 -272.75376)
(-230.74207 62.703537 -299.19201)
(-194.25433 67.732018 -321.48968)
(-139.79505 71.86909 -338.73842)
(-67.300387 75.072845 -350.69441)
(22.571075 76.859346 -357.34804)
(128.83643 77.032406 -358.78632)
(249.67705 75.586212 -355.47377)
(382.98034 72.30629 -348.05373)
(526.10889 67.314599 -337.2473)
(676.57552 60.882105 -323.93925)
(831.13883 53.345745 -309.20157)
(987.00151 44.514836 -294.03479)
(1143.2295 35.939975 -278.29466)
(-5.2914172 3.1127653 -8.501968)
(-37.485587 23.218939 -22.344267)
(-72.476466 30.661366 -41.991408)
(-114.11294 38.412148 -67.243129)
(-152.57689 42.726394 -94.670059)
(-190.94309 43.755119 -126.32127)
(-221.21839 43.541784 -157.89565)
(-242.7398 41.082264 -189.90821)
(-252.57813 35.917896 -220.50699)
(-248.48788 30.64971 -248.89363)
(-228.35168 22.808816 -273.99885)
(-191.77503 14.522857 -295.44949)
(-137.08432 4.7721383 -312.22243)
(-65.116102 -5.390258 -324.37075)
(24.19638 -16.629391 -331.67586)
(129.47895 -28.116119 -334.22851)
(249.12885 -40.140201 -332.3952)
(381.00627 -52.392319 -326.67172)
(522.71041 -64.525864 -317.60249)
(671.42373 -76.714904 -306.07622)
(824.58547 -88.377061 -292.97701)
(978.89818 -99.564861 -278.55236)
(1135.1077 -110.56996 -264.30162)
(-6.847911 11.586914 -15.742558)
(-44.381251 28.241702 -26.6974)
(-76.270238 48.73077 -46.22509)
(-114.6852 50.715489 -62.900998)
(-153.72635 58.591996 -89.862863)
(-189.79234 56.55046 -116.48472)
(-218.91161 50.305096 -144.23135)
(-240.48719 41.130077 -173.40961)
(-248.75106 26.558936 -200.6722)
(-244.56804 9.9651681 -226.5415)
(-224.26144 -10.065322 -249.51671)
(-187.75568 -31.679828 -269.211)
(-133.57779 -54.992403 -284.9813)
(-62.27377 -79.214957 -296.59328)
(26.072333 -103.58469 -304.04261)
(130.15885 -127.94842 -307.16926)
(248.43493 -151.45613 -306.50036)
(378.91664 -173.86321 -302.23467)
(519.13726 -194.67759 -295.00975)
(666.59527 -213.74511 -285.5724)
(818.48708 -230.43729 -274.04573)
(972.4142 -245.68458 -262.3244)
(1126.0933 -258.1975 -248.80055)
(-11.542147 -6.2183961 -10.37045)
(-10.187406 -5.7852619 -6.3156919)
(-9.8557862 -0.48420073 1.3929891)
(-38.081365 -30.966764 -24.456903)
(-40.319689 -19.696376 -19.15287)
(-36.274371 -10.844316 -18.051944)
(-66.997552 -41.082922 -44.525535)
(-67.134714 -25.142016 -42.909927)
(-67.378875 -7.0002559 -42.119935)
(-100.08528 -50.345455 -70.535621)
(-103.63349 -29.955812 -70.100679)
(-106.09125 -8.7192084 -69.839087)
(-133.76143 -54.241495 -99.225133)
(-138.42134 -30.514417 -100.35449)
(-142.87064 -5.2305288 -102.59091)
(-164.7583 -54.287298 -131.42676)
(-170.66549 -28.492474 -134.21802)
(-176.59029 -1.4798229 -136.69528)
(-189.61445 -50.330143 -164.0249)
(-196.68034 -23.85042 -168.22431)
(-205.50273 3.8975243 -171.78285)
(-206.37179 -42.85845 -197.01563)
(-214.86782 -16.442065 -201.87635)
(-224.73393 10.888481 -206.89873)
(-211.5286 -32.426325 -228.57621)
(-220.56057 -6.9191699 -234.80943)
(-232.46564 19.190921 -239.55291)
(-203.45093 -19.128634 -257.81822)
(-213.68547 4.2240848 -264.45378)
(-227.09895 27.964773 -270.08234)
(-180.56339 -3.8077719 -283.8306)
(-191.41233 16.743819 -290.96743)
(-205.83885 37.63913 -296.99633)
(-141.20351 12.565229 -306.21612)
(-152.72603 29.929566 -313.33202)
(-168.25103 47.319958 -319.30983)
(-84.855283 29.316834 -323.83357)
(-96.933708 42.974856 -330.89058)
(-113.11268 56.498921 -336.73516)
(-11.437796 45.621072 -336.84029)
(-23.875979 55.369499 -343.44133)
(-40.644254 64.849567 -348.95686)
(78.66156 60.512665 -344.78444)
(65.761823 66.314059 -350.76621)
(48.793788 71.825944 -355.82211)
(184.18845 73.289988 -348.00447)
(171.17063 75.273874 -353.18634)
(154.09192 76.837855 -357.59452)
(303.82163 83.320706 -346.66695)
(290.52689 81.635724 -350.90346)
(273.56848 79.765058 -354.49131)
(435.16203 90.014559 -341.35493)
(421.87471 85.245482 -344.4664)
(405.21791 80.246429 -347.37603)
(576.28702 93.405279 -332.52048)
(562.82042 85.640213 -334.81075)
(546.59626 78.228387 -336.73562)
(723.89826 92.77564 -321.19094)
(711.12113 83.311638 -322.33643)
(694.87467 73.85061 -323.68379)
(876.05191 89.223805 -308.17599)
(863.50565 78.824519 -308.19366)
(847.85284 67.565523 -309.10467)
(1030.2238 82.844306 -293.50267)
(1016.7127 71.167843 -293.65485)
(1001.8727 59.002562 -293.94115)
(1184.8741 74.856454 -278.65348)
(1171.2956 62.336543 -278.78401)
(1157.2604 49.911368 -278.56333)
(-6.3237322 -5.3986722 -5.5300443)
(-8.2745483 -3.9725737 -1.7755034)
(-9.5743175 0.55188152 -2.1655387)
(-32.761313 -15.723126 -20.090713)
(-36.015921 -5.5934566 -17.85319)
(-35.242459 5.4459714 -18.408363)
(-63.779533 -23.312786 -41.804072)
(-66.21413 -7.8536699 -41.298667)
(-69.950996 10.95898 -39.992583)
(-96.947772 -29.406702 -66.890212)
(-103.58455 -8.2168494 -65.965763)
(-106.96299 14.521534 -65.145038)
(-133.10875 -34.504301 -97.185739)
(-138.03788 -10.691106 -96.558796)
(-143.62732 14.708187 -94.788723)
(-164.18611 -38.434626 -128.96346)
(-170.57818 -12.250484 -127.87185)
(-178.48872 15.574958 -126.7526)
(-190.36542 -41.098132 -161.48564)
(-196.99907 -14.386388 -160.54636)
(-206.21697 14.048485 -159.07536)
(-207.77353 -42.257863 -194.79786)
(-214.72151 -15.549781 -193.41761)
(-225.75454 12.402198 -192.36429)
(-213.68247 -42.547039 -225.53626)
(-220.82438 -17.642655 -224.14333)
(-233.45209 9.2307047 -223.21372)
(-206.53188 -41.685199 -254.71054)
(-214.26048 -18.588127 -253.22059)
(-228.03159 5.8410055 -252.32369)
(-183.96681 -40.216581 -280.22453)
(-192.05152 -19.992603 -278.34408)
(-206.86371 1.4923764 -277.84265)
(-145.3719 -38.160182 -301.59126)
(-153.79235 -21.377502 -299.80044)
(-169.54024 -3.4337613 -299.46644)
(-89.668266 -35.989916 -318.49352)
(-98.456843 -23.059678 -316.61075)
(-114.77393 -8.9614118 -316.42213)
(-16.853655 -34.192079 -330.29034)
(-26.126354 -25.153545 -328.35246)
(-42.889403 -15.215136 -328.40381)
(72.48132 -32.980104 -337.21692)
(62.719915 -28.014777 -335.37868)
(45.832673 -22.156304 -335.59301)
(177.45493 -32.845833 -339.13637)
(167.1956 -31.671359 -337.33735)
(150.27043 -29.831252 -337.72769)
(296.36462 -34.054139 -336.58043)
(285.48738 -36.47819 -334.97434)
(268.80919 -38.143946 -335.455)
(427.16894 -36.844401 -329.99088)
(415.8114 -42.321432 -328.50485)
(399.46504 -47.218984 -329.18898)
(567.81363 -41.181693 -320.0868)
(555.85508 -49.286243 -318.9838)
(539.87296 -56.791204 -319.50495)
(715.21536 -47.155035 -307.87184)
(702.44452 -57.818904 -306.7511)
(687.26993 -66.767022 -307.43041)
(867.93494 -54.831809 -293.26737)
(853.4268 -66.654758 -293.59702)
(839.64934 -77.248518 -293.67873)
(1020.7905 -63.589969 -279.22154)
(1007.4669 -75.325136 -278.65979)
(993.00952 -87.358244 -279.09543)
(1175.7654 -73.25818 -264.35952)
(1162.3372 -85.999879 -264.21871)
(1148.4673 -97.949006 -264.29273)
(-3.535947 -0.1924121 -1.5509902)
(-5.176833 1.6830018 -2.8834725)
(-7.8530386 4.4548687 -5.4656785)
(-33.436076 -4.9942063 -15.090168)
(-38.251479 1.3792412 -16.586313)
(-42.519738 13.98085 -19.412014)
(-61.055017 -6.7015183 -34.674275)
(-66.748362 12.656897 -36.021874)
(-74.515272 29.619486 -38.434661)
(-97.170621 -9.7877013 -60.611631)
(-102.78324 8.7525963 -60.506294)
(-110.0599 29.772548 -60.570541)
(-130.98708 -16.27475 -90.151304)
(-137.5517 8.3992546 -89.230109)
(-145.97349 32.267517 -87.328117)
(-163.12154 -22.903573 -121.61575)
(-169.47545 2.5357421 -118.81284)
(-179.05014 29.142432 -116.55173)
(-189.12071 -31.177266 -154.88121)
(-195.84361 -4.1869874 -151.14167)
(-205.96069 22.205871 -147.47831)
(-205.94766 -40.795127 -187.01227)
(-213.45964 -14.136277 -182.45706)
(-224.23646 12.394247 -177.42656)
(-212.30634 -50.97282 -218.37188)
(-219.78745 -25.746217 -212.77376)
(-231.33037 0.0068065342 -207.11567)
(-204.8381 -62.073216 -247.14717)
(-213.17174 -38.246215 -240.84387)
(-224.88568 -15.141084 -234.29221)
(-182.72492 -73.519134 -272.33555)
(-191.12459 -52.981864 -265.50012)
(-203.32457 -32.187877 -258.57924)
(-144.36075 -85.402649 -293.67382)
(-153.43382 -68.008651 -286.54418)
(-165.67857 -50.660774 -279.23884)
(-89.053759 -97.767021 -310.17103)
(-98.513203 -83.989814 -302.84374)
(-111.04032 -70.204564 -295.54496)
(-17.016703 -110.16486 -321.77798)
(-26.990528 -100.42447 -314.62312)
(-39.525315 -90.565967 -307.40381)
(71.634856 -122.85955 -328.27543)
(61.185691 -117.0079 -321.39906)
(48.487565 -110.98261 -314.62774)
(175.64235 -135.71387 -329.81451)
(164.61476 -133.71862 -323.48852)
(151.99147 -131.4204 -317.24413)
(293.51768 -148.59637 -326.76924)
(282.05697 -150.13119 -321.14674)
(269.29674 -151.31216 -315.69158)
(423.36942 -161.52375 -319.68394)
(411.34325 -166.17043 -314.88743)
(398.65021 -170.3816 -310.30065)
(562.78132 -174.43494 -309.20455)
(550.39459 -181.69405 -305.39058)
(537.4799 -188.41713 -301.72036)
(709.35126 -187.13284 -296.19095)
(696.50509 -196.27675 -293.3775)
(683.57981 -205.05244 -290.71889)
(860.46081 -199.35836 -281.75258)
(847.21153 -210.09266 -279.62251)
(834.28568 -220.08555 -277.85004)
(1013.6434 -211.44426 -266.22755)
(1000.4413 -222.99603 -265.05268)
(987.15054 -234.12463 -264.1293)
(1166.903 -222.88422 -250.94484)
(1153.3051 -234.96618 -250.51499)
(1139.7845 -246.66997 -250.08534)
)
;

boundaryField
{
    free
    {
        type            zeroGradient;
    }
    fixed
    {
        type            fixedValue;
        value           uniform (0 0 0);
    }
    traction
    {
        type            zeroGradient;
    }
}


// ************************************************************************* //
