/*--------------------------------*- C++ -*----------------------------------*\
  =========                 |
  \\      /  F ield         | OpenFOAM: The Open Source CFD Toolbox
   \\    /   O peration     | Website:  https://openfoam.org
    \\  /    A nd           | Version:  6
     \\/     M anipulation  |
\*---------------------------------------------------------------------------*/
FoamFile
{
    version     2.0;
    format      ascii;
    class       pointVectorField;
    location    "1.39";
    object      u;
}
// * * * * * * * * * * * * * * * * * * * * * * * * * * * * * * * * * * * * * //

dimensions      [0 1 0 0 0 0 0];

internalField   nonuniform List<vector> 
28033
(
(0 0 0)
(0 0 0)
(1.0016869 0.031843377 0.0092803501)
(0.97081901 -0.21403173 0.0094489064)
(0 0 0)
(0 0 0)
(0.97017703 -0.21515719 0.0093737115)
(1.0010913 0.030648989 0.0089619982)
(0 0 0)
(0 0 0)
(0 0 0)
(0 0 0)
(0 0 0)
(0 0 0)
(0 0 0)
(0 0 0)
(0 0 0)
(0 0 0)
(0 0 0)
(0 0 0)
(0 0 0)
(0 0 0)
(0 0 0)
(0.99955525 0.015928998 0.009037033)
(0.99740603 0.00043399179 0.0090402647)
(0.99528624 -0.014930281 0.0090032381)
(0.99325466 -0.030224378 0.0090439601)
(0.99125575 -0.04544335 0.0090896662)
(0.98928995 -0.060613775 0.0091604234)
(0.98737202 -0.075756386 0.0092440852)
(0.98548479 -0.090890025 0.0093410066)
(0.98362922 -0.10602756 0.0094296334)
(0.98179484 -0.12120037 0.0095256616)
(0.9799859 -0.13640172 0.0095964949)
(0.97817809 -0.15168213 0.0096424024)
(0.9763997 -0.16702623 0.0096739482)
(0.97457082 -0.18249192 0.0096793201)
(0.97278907 -0.19809643 0.0096044731)
(0.0024829873 0.0041558003 0.004309947)
(0.0030196487 0.0061858348 0.0059399285)
(0.0038386935 0.008493868 0.0071456812)
(0.00512352 0.010796528 0.0078858137)
(0.0065793738 0.01322476 0.0083647575)
(0.0085250951 0.015624157 0.008673421)
(0.010771819 0.01813881 0.0088580559)
(0.013407552 0.020512485 0.0089413462)
(0.01637506 0.023024431 0.0089805687)
(0.019713333 0.025369703 0.0089684427)
(0.02332874 0.027777198 0.0089460365)
(0.027311349 0.030071643 0.0088651254)
(0.031554715 0.0323732 0.0088447888)
(0.036177722 0.034579926 0.008735536)
(0.040988096 0.036743267 0.0087197439)
(0.046180311 0.038837884 0.0086025618)
(0.051582641 0.04089065 0.0085908556)
(0.057318092 0.042850118 0.0084990928)
(0.063254927 0.044763232 0.0084807822)
(0.069509483 0.046599947 0.0084054111)
(0.07596981 0.048376741 0.0083967914)
(0.082714392 0.050072912 0.0083355766)
(0.089676377 0.05171454 0.0083289289)
(0.096893654 0.053276319 0.0082933473)
(0.10432131 0.054769303 0.0082834585)
(0.11199477 0.056201187 0.0082609975)
(0.11986746 0.057551321 0.0082578348)
(0.12796978 0.058845035 0.0082487365)
(0.13627178 0.06005627 0.008243732)
(0.14478047 0.061210189 0.0082435079)
(0.15348446 0.062286888 0.00824546)
(0.16237772 0.063299253 0.0082467261)
(0.17145988 0.064246818 0.0082550577)
(0.18072202 0.065121757 0.0082618912)
(0.1901538 0.065938108 0.008272304)
(0.19976375 0.066687139 0.0082800812)
(0.2095291 0.067374553 0.0082973202)
(0.21946176 0.068001999 0.0083150284)
(0.22953715 0.068565012 0.0083280099)
(0.2397727 0.069080537 0.0083496971)
(0.2501429 0.06952988 0.0083718289)
(0.26065859 0.069939058 0.0083986992)
(0.2713104 0.0702877 0.0084242584)
(0.28209852 0.070596515 0.0084574573)
(0.29301215 0.07085202 0.0084910113)
(0.30405907 0.071070282 0.0085296081)
(0.31522568 0.071244013 0.0085720432)
(0.32652189 0.071380436 0.0086178967)
(0.3379342 0.071479738 0.0086688018)
(0.34947313 0.071544145 0.0087238316)
(0.36112745 0.07157609 0.0087832469)
(0.37290551 0.071575143 0.0088477205)
(0.38480039 0.071546268 0.0089162558)
(0.39681744 0.071485047 0.0089895915)
(0.40895376 0.071398876 0.0090664923)
(0.42121208 0.071281386 0.0091478502)
(0.43359255 0.071138656 0.0092315431)
(0.44609669 0.070966111 0.0093185032)
(0.45872541 0.070766681 0.0094065963)
(0.47148033 0.070536004 0.0094964354)
(0.48436261 0.070277895 0.009584926)
(0.49737391 0.069985158 0.009673824)
(0.51051279 0.069663405 0.0097595399)
(0.5237865 0.069301052 0.0098415389)
(0.53718523 0.068910083 0.0099226197)
(0.55071795 0.068475444 0.0099941398)
(0.56438277 0.067998898 0.010060878)
(0.57817458 0.067481578 0.010122591)
(0.59209714 0.06691938 0.010173651)
(0.60614158 0.066311411 0.010217682)
(0.62031686 0.065653749 0.010254147)
(0.63460478 0.064942947 0.010284734)
(0.64902203 0.06418696 0.010298761)
(0.66354156 0.063363584 0.010313844)
(0.67818229 0.062508619 0.010308008)
(0.69291978 0.061562344 0.01030979)
(0.70776188 0.06060605 0.010283788)
(0.72269962 0.059535567 0.010273429)
(0.7377203 0.058470411 0.010231656)
(0.75283402 0.057284177 0.0102093)
(0.76801512 0.056099303 0.010154518)
(0.78327338 0.054807539 0.010124)
(0.79859659 0.053500111 0.010059687)
(0.81397251 0.05210474 0.01001952)
(0.82940901 0.050681345 0.0099569257)
(0.84488324 0.049195333 0.0099045226)
(0.86041243 0.04764607 0.0098441777)
(0.87595795 0.046068571 0.0097928938)
(0.89155543 0.044425241 0.0097242389)
(0.90715239 0.042758462 0.0096781509)
(0.92279243 0.041002439 0.0096328178)
(0.93843494 0.039319309 0.0095576543)
(0.95409737 0.037460729 0.0095680366)
(0.96981845 0.035703407 0.0094985108)
(0.98552145 0.033897582 0.0095148173)
(0.0010790075 -0.0041096731 -0.0049660694)
(0.0021389865 -0.0057063353 -0.0055910411)
(0.0027385382 -0.0079118627 -0.007314543)
(0.0035887357 -0.0098673918 -0.0077592697)
(0.0050423503 -0.012081891 -0.0083578696)
(0.0067428543 -0.014489863 -0.0085295864)
(0.0088199064 -0.016622577 -0.0087103891)
(0.011249149 -0.019064148 -0.0086491897)
(0.014063033 -0.021343474 -0.0086153887)
(0.017132436 -0.023702422 -0.0084629619)
(0.020592856 -0.026028235 -0.0083061444)
(0.024287206 -0.028356808 -0.0081034537)
(0.02833354 -0.030671832 -0.0078840847)
(0.032624561 -0.032987633 -0.0076624488)
(0.03722481 -0.03526068 -0.0074142095)
(0.042074086 -0.037565552 -0.007176013)
(0.047204877 -0.039792707 -0.0069182304)
(0.052583601 -0.042068485 -0.0066620886)
(0.05822084 -0.044277913 -0.0064061945)
(0.064122869 -0.046518848 -0.0061393594)
(0.070246107 -0.048698965 -0.0058735477)
(0.076634914 -0.050921137 -0.0056083132)
(0.08322416 -0.05306185 -0.0053378929)
(0.090078943 -0.055259991 -0.0050619881)
(0.097117098 -0.057379188 -0.004792618)
(0.10442878 -0.059552152 -0.0045020013)
(0.11190449 -0.061661246 -0.0042402761)
(0.11964018 -0.063800746 -0.0039439505)
(0.12754042 -0.065901607 -0.0036772764)
(0.13567758 -0.068008162 -0.0033823441)
(0.14397954 -0.070102717 -0.0031098569)
(0.15250056 -0.072184483 -0.0028235533)
(0.16118265 -0.074265263 -0.0025487247)
(0.17006613 -0.076329031 -0.002269172)
(0.17910994 -0.078397073 -0.001997679)
(0.1883333 -0.080443355 -0.0017313088)
(0.19771437 -0.082492564 -0.0014626078)
(0.20725854 -0.084532056 -0.0012086797)
(0.21695433 -0.086567932 -0.00095688706)
(0.2268024 -0.088596855 -0.00071554918)
(0.23679432 -0.090624513 -0.00048116159)
(0.24692654 -0.092646336 -0.00025742758)
(0.25719671 -0.094669022 -4.1611424e-05)
(0.26759924 -0.096689261 0.00016274562)
(0.27813154 -0.098711122 0.00035821936)
(0.28879244 -0.10073524 0.00054353963)
(0.29957572 -0.10276221 0.00071861953)
(0.31048428 -0.10479542 0.00088523262)
(0.32151164 -0.10683492 0.0010420753)
(0.33266051 -0.10888296 0.0011913414)
(0.34392715 -0.11094175 0.0013326444)
(0.35531327 -0.11301228 0.0014674396)
(0.3668166 -0.11509623 0.001596267)
(0.37843992 -0.11719623 0.0017204507)
(0.39018077 -0.11931253 0.0018404633)
(0.40204248 -0.12144701 0.0019579234)
(0.41402456 -0.12360195 0.0020735303)
(0.42612862 -0.12577658 0.0021884037)
(0.43835567 -0.12797334 0.0023035494)
(0.45070811 -0.13019259 0.0024203056)
(0.46318564 -0.13243412 0.0025390308)
(0.4757913 -0.13469878 0.002661283)
(0.48852556 -0.13698651 0.0027875161)
(0.50138982 -0.13929639 0.0029187664)
(0.51438484 -0.14162797 0.0030553647)
(0.5275124 -0.14398132 0.0031988341)
(0.54077123 -0.146353 0.0033479921)
(0.55416273 -0.14874347 0.0035054744)
(0.56768316 -0.15114851 0.0036653815)
(0.58133472 -0.15356455 0.003842887)
(0.59512253 -0.15600581 0.0040200989)
(0.60902794 -0.15843951 0.0042066941)
(0.62306743 -0.16089503 0.0044010618)
(0.63722319 -0.16334432 0.0046004955)
(0.65150424 -0.16580393 0.0048093228)
(0.66589519 -0.1682559 0.0050190917)
(0.6804023 -0.17070971 0.0052389884)
(0.695014 -0.17315286 0.0054580617)
(0.70972921 -0.17559103 0.0056848312)
(0.72454055 -0.17801372 0.0059101678)
(0.73944513 -0.18042675 0.006140246)
(0.7544352 -0.18281918 0.0063683809)
(0.76950628 -0.18519684 0.0065986537)
(0.78465379 -0.18755083 0.0068264816)
(0.79986836 -0.18988365 0.007052872)
(0.81514975 -0.19219233 0.0072778842)
(0.83048631 -0.19447337 0.0074989109)
(0.8458775 -0.19672767 0.0077157962)
(0.86131332 -0.19895574 0.0079316364)
(0.87679454 -0.2011519 0.0081399855)
(0.89230623 -0.20332046 0.0083448145)
(0.90786244 -0.20546814 0.0085444808)
(0.92344015 -0.20759798 0.0087513249)
(0.93908921 -0.20969871 0.0089311986)
(0.9547865 -0.21186615 0.009164324)
(0 0 0)
(0 0 0)
(0 0 0)
(0 0 0)
(0 0 0)
(0 0 0)
(0 0 0)
(0 0 0)
(0 0 0)
(0 0 0)
(0 0 0)
(0 0 0)
(0 0 0)
(0 0 0)
(0 0 0)
(0.0024036423 -0.0017971411 0.0036881125)
(0.0027926575 -0.0068800543 0.0057028155)
(0.0028398612 -0.0072005585 0.006821429)
(0.0040355856 -0.010747288 0.0079240188)
(0.0052116606 -0.012291221 0.008422232)
(0.0070338015 -0.015036304 0.0086695193)
(0.0090530798 -0.017125858 0.0088875094)
(0.011535482 -0.01977432 0.0089425214)
(0.014319446 -0.02199384 0.0089773221)
(0.017375599 -0.024560101 0.0089235749)
(0.020870699 -0.0268882 0.0089131223)
(0.024500817 -0.02929911 0.0087958744)
(0.028586839 -0.031755536 0.0087714833)
(0.032803059 -0.034030304 0.0086362301)
(0.037444926 -0.036556436 0.0086104762)
(0.042225011 -0.038720211 0.0085015397)
(0.047365853 -0.041234503 0.008469384)
(0.052703977 -0.043362405 0.0083490343)
(0.058326724 -0.045834636 0.0083366646)
(0.064196866 -0.047967242 0.0082442001)
(0.070288059 -0.050323106 0.0082233461)
(0.076654366 -0.052531933 0.0081640667)
(0.083220068 -0.054771741 0.0081519163)
(0.090042914 -0.056985794 0.0081124965)
(0.097068019 -0.05915522 0.0080902232)
(0.10433728 -0.061375439 0.0080735065)
(0.11180168 -0.063495719 0.0080555322)
(0.11948852 -0.065692635 0.0080479688)
(0.12738204 -0.067787167 0.008035803)
(0.13546444 -0.069944713 0.0080386725)
(0.14376257 -0.072024022 0.0080298508)
(0.15223693 -0.07413982 0.0080363649)
(0.16090886 -0.076205045 0.0080362452)
(0.16975329 -0.078285949 0.0080434634)
(0.17878403 -0.080336268 0.0080524148)
(0.18797599 -0.08238013 0.0080607258)
(0.1973375 -0.084424364 0.0080770249)
(0.20686238 -0.086446563 0.00809306)
(0.21654023 -0.088465914 0.0081144431)
(0.22637138 -0.090475645 0.0081361784)
(0.23634939 -0.092482777 0.0081632485)
(0.2464689 -0.09448275 0.0081934815)
(0.25672854 -0.096483113 0.0082269454)
(0.26712242 -0.098480181 0.0082655955)
(0.27764795 -0.10047982 0.0083070547)
(0.2883027 -0.10248189 0.0083544716)
(0.29908284 -0.10448836 0.0084049041)
(0.30998721 -0.10650213 0.0084613267)
(0.32101311 -0.10852409 0.0085215606)
(0.33215936 -0.11055669 0.0085875759)
(0.34342426 -0.11260157 0.0086582721)
(0.35480815 -0.11466049 0.0087332863)
(0.36630946 -0.11673547 0.0088141071)
(0.37792894 -0.11882664 0.0088978516)
(0.38966674 -0.12093839 0.0089871192)
(0.40152357 -0.12306746 0.0090781636)
(0.41349981 -0.12521979 0.0091737898)
(0.42559792 -0.12739212 0.0092698878)
(0.43781737 -0.12958751 0.0093684463)
(0.45016166 -0.13180534 0.0094665895)
(0.46263046 -0.13404594 0.0095644057)
(0.47522693 -0.13630893 0.0096602066)
(0.48795111 -0.13859458 0.0097535998)
(0.50080553 -0.1409012 0.0098426526)
(0.51379046 -0.14322864 0.0099270129)
(0.52690727 -0.14557621 0.010005594)
(0.54015705 -0.1479419 0.010075926)
(0.55354461 -0.15032793 0.010141531)
(0.56703907 -0.15270216 0.010195987)
(0.58070118 -0.15513632 0.010242079)
(0.5944708 -0.1575453 0.010283421)
(0.60837411 -0.15997368 0.010310986)
(0.62240498 -0.16240693 0.010330056)
(0.63655721 -0.16484346 0.010341904)
(0.65083006 -0.16727993 0.010342673)
(0.66522014 -0.16971538 0.010336626)
(0.6797214 -0.17214573 0.010321695)
(0.69433159 -0.17456942 0.01030038)
(0.70904395 -0.17698385 0.010272073)
(0.72385453 -0.17938564 0.010238546)
(0.73875769 -0.18177429 0.010199042)
(0.75374833 -0.18414635 0.010156676)
(0.76881982 -0.18649982 0.010109276)
(0.78396851 -0.18883428 0.010060303)
(0.79918646 -0.19114561 0.01000817)
(0.81446958 -0.19343559 0.0099563499)
(0.82981112 -0.19569812 0.0099013178)
(0.8452067 -0.19793936 0.0098500136)
(0.86064772 -0.2001486 0.0097958422)
(0.87613448 -0.20233876 0.0097477818)
(0.8916528 -0.20449398 0.0096971159)
(0.90721471 -0.20663979 0.0096572186)
(0.92279643 -0.20875345 0.0096079654)
(0.93845807 -0.21087487 0.0095736347)
(0.95411873 -0.21303634 0.0095064413)
(0.97219233 -0.19922286 0.0091969729)
(0.97397437 -0.18366723 0.009075458)
(0.97577172 -0.16815327 0.009038811)
(0.97757282 -0.15283348 0.0090012149)
(0.97937375 -0.13754102 0.009032282)
(0.98118449 -0.12234604 0.0090473733)
(0.98302145 -0.1071761 0.009109633)
(0.98487428 -0.092032355 0.0091569891)
(0.98677855 -0.076912119 0.0092094142)
(0.98868407 -0.06176245 0.0092616255)
(0.9906608 -0.046597738 0.0092882495)
(0.99265001 -0.031383385 0.009301627)
(0.99470283 -0.016109013 0.0093011084)
(0.9967437 -0.00072189162 0.0092505962)
(0.99896498 0.014708966 0.0091769819)
(0.98498618 0.032702407 0.0085926601)
(0.96919811 0.034460874 0.0084113777)
(0.9535216 0.03628531 0.0082091684)
(0.93785521 0.038064495 0.0080266968)
(0.92221584 0.039811697 0.0078198105)
(0.9065926 0.041518888 0.0076169101)
(0.89099029 0.043182222 0.0074091945)
(0.8754092 0.044802621 0.0071936426)
(0.85985997 0.046368765 0.0069803903)
(0.8443428 0.047891464 0.0067583047)
(0.82886666 0.049355768 0.006539046)
(0.81343583 0.05077224 0.0063137294)
(0.79805513 0.052130606 0.0060896881)
(0.78273434 0.053436212 0.0058616575)
(0.767477 0.054684688 0.0056361421)
(0.75229073 0.055878018 0.005409605)
(0.73718187 0.05701355 0.005187424)
(0.72215477 0.058092186 0.0049654156)
(0.70721666 0.059115484 0.0047478938)
(0.69237344 0.06008 0.0045339001)
(0.67762902 0.06099188 0.0043245705)
(0.66299074 0.06184559 0.0041206211)
(0.64846045 0.062649855 0.0039217606)
(0.63404619 0.063397043 0.0037296751)
(0.61974615 0.064099319 0.0035437753)
(0.60557299 0.064749653 0.0033642446)
(0.59150381 0.065362287 0.0031917888)
(0.57762456 0.065882137 0.0030452942)
(0.5637992 0.066428123 0.0028752617)
(0.5501474 0.066887539 0.0027317585)
(0.53661197 0.067323655 0.002585803)
(0.52321315 0.067718774 0.0024514151)
(0.50994533 0.068077556 0.0023214959)
(0.4968098 0.068402249 0.0021969296)
(0.48380535 0.068693757 0.0020772338)
(0.47093108 0.068953499 0.0019612279)
(0.45818596 0.069182161 0.0018477953)
(0.44556871 0.069380608 0.0017366321)
(0.43307787 0.069549253 0.0016260993)
(0.42071209 0.069688096 0.0015154722)
(0.40846996 0.069797347 0.0014034274)
(0.3963504 0.069876376 0.0012893578)
(0.38435198 0.06992488 0.0011713341)
(0.37247421 0.069941844 0.0010493014)
(0.3607161 0.069926583 0.00092136053)
(0.34907769 0.069877499 0.0007872362)
(0.33755861 0.069793877 0.00064557547)
(0.32615968 0.069673492 0.00049605474)
(0.31488125 0.069515522 0.0003375553)
(0.30372509 0.069317824 0.00017008619)
(0.29269245 0.069078347 -6.9040501e-06)
(0.28178521 0.068796822 -0.00019422681)
(0.27100745 0.068468048 -0.00038998664)
(0.26035967 0.068095106 -0.00059769465)
(0.24984748 0.067670947 -0.00081280668)
(0.23947559 0.067197147 -0.0010371995)
(0.22924172 0.066675172 -0.0012711713)
(0.21915727 0.06608845 -0.0015131687)
(0.20923625 0.065454257 -0.0017563486)
(0.19945475 0.064765931 -0.0020136282)
(0.18984344 0.064006961 -0.0022739399)
(0.18041192 0.063198064 -0.002535743)
(0.17114015 0.062324725 -0.0027986035)
(0.16205159 0.061396426 -0.003072975)
(0.15314583 0.060386737 -0.0033409216)
(0.14444657 0.059336719 -0.0036173524)
(0.13592463 0.058199175 -0.0038799261)
(0.12762851 0.057022938 -0.004157393)
(0.11951694 0.055750078 -0.0044200278)
(0.11164071 0.054454064 -0.0046987935)
(0.10396744 0.05304766 -0.004954394)
(0.096530381 0.051608314 -0.0052271931)
(0.08932832 0.05007099 -0.0054789504)
(0.08235392 0.048517724 -0.0057446786)
(0.075620899 0.046841071 -0.0059996919)
(0.069152147 0.045143424 -0.0062414843)
(0.062911915 0.043354864 -0.006509855)
(0.056960668 0.041506284 -0.0067241395)
(0.051246199 0.03961848 -0.0070003774)
(0.045835618 0.037610588 -0.0071984738)
(0.040696463 0.035625476 -0.0074548403)
(0.035817046 0.033469987 -0.0076287383)
(0.031255378 0.031397376 -0.0078889431)
(0.026997422 0.029093145 -0.0080233954)
(0.023044779 0.026972392 -0.0082552731)
(0.019404419 0.02456598 -0.0083475362)
(0.016112325 0.022315559 -0.0084812408)
(0.013150811 0.019878754 -0.0084969042)
(0.010520482 0.017580474 -0.0085093286)
(0.0082788941 0.015153016 -0.0083670043)
(0.0063984958 0.012781795 -0.0080814869)
(0.0049395576 0.010337064 -0.0076144151)
(0.0038580683 0.0082807115 -0.0069200529)
(0.0029576384 0.005794471 -0.0055021551)
(0.003527504 0.0037552076 -0.0032271725)
(0 0 0)
(0 0 0)
(0 0 0)
(0 0 0)
(0 0 0)
(0 0 0)
(0 0 0)
(0 0 0)
(0 0 0)
(0 0 0)
(0 0 0)
(0 0 0)
(0 0 0)
(0 0 0)
(0 0 0)
(0 0 0)
(0 0 0)
(0 0 0)
(0 0 0)
(0 0 0)
(0 0 0)
(0 0 0)
(0 0 0)
(0 0 0)
(0 0 0)
(0 0 0)
(0 0 0)
(0 0 0)
(0 0 0)
(0 0 0)
(0.97083851 -0.21426287 0.0094309463)
(0.97082028 -0.21442226 0.0094125213)
(0.9707896 -0.21454044 0.0093937004)
(0.9707672 -0.21465629 0.0093869216)
(0.97074216 -0.2147597 0.0093834813)
(0.97071624 -0.21485315 0.0093932213)
(0.97068421 -0.21493794 0.0094005616)
(0.97064873 -0.21501397 0.0094182874)
(0.97060822 -0.21508538 0.0094284538)
(0.97055957 -0.21514564 0.0094399575)
(0.97051796 -0.21520975 0.0094472572)
(0.97045796 -0.2152419 0.009444123)
(0.97040798 -0.21528331 0.0094354555)
(0.97035184 -0.21529393 0.0094196631)
(0.97030409 -0.21530863 0.0093923225)
(1.0018267 0.031932481 0.0092630605)
(1.0018313 0.031899093 0.0092779647)
(1.0018278 0.03187154 0.009257044)
(1.0018312 0.031830208 0.0092404655)
(1.0018092 0.031771571 0.00922063)
(1.0017906 0.031707763 0.0091855531)
(1.0017628 0.031642397 0.0091538306)
(1.001727 0.031567782 0.0091142593)
(1.0016841 0.031491969 0.0090769013)
(1.0016327 0.031411377 0.0090428245)
(1.0015757 0.031322269 0.0090110551)
(1.0015103 0.031229605 0.0089856595)
(1.001447 0.031132998 0.0089818707)
(1.0013669 0.030994735 0.0089486378)
(1.0013154 0.030913883 0.0089607802)
(0.00099784493 0.00088156021 0.0043406098)
(0.0013862216 0.00062911604 0.0050162502)
(0.0017552583 0.00058517047 0.0062575938)
(0.0026863055 0.0004750376 0.0067276696)
(0.0036104305 0.00035866526 0.0073047491)
(0.0051620129 0.0003576702 0.0075552059)
(0.0068650255 0.00037065134 0.0077640307)
(0.0091130575 0.00053842363 0.0078668916)
(0.011512546 0.00067791486 0.0079338355)
(0.014419344 0.00099584279 0.0079570071)
(0.017534032 0.0012646425 0.0079288178)
(0.021079842 0.0017304979 0.0079363195)
(0.024859059 0.0021241005 0.0078668006)
(0.02902431 0.0027294507 0.0078517776)
(0.033420444 0.0032730908 0.0077889411)
(0.038214673 0.0040115548 0.0077684742)
(0.043247324 0.0047189128 0.0076998621)
(0.048584692 0.0055823243 0.0076909767)
(0.054233282 0.0064749761 0.0076377091)
(0.060169605 0.0074783623 0.0076207886)
(0.066379182 0.0085417811 0.0075922387)
(0.072882435 0.0096945359 0.0075827632)
(0.07966981 0.010933379 0.0075561543)
(0.086709065 0.012246295 0.00755845)
(0.094045801 0.013648352 0.0075455171)
(0.10163321 0.015122752 0.0075496972)
(0.10949436 0.016682978 0.0075486969)
(0.1176021 0.018312206 0.0075576813)
(0.12597564 0.020019864 0.007564828)
(0.1345904 0.021795768 0.0075778499)
(0.14344987 0.023637986 0.0075902728)
(0.15254941 0.025544833 0.0076065522)
(0.16188004 0.027509935 0.0076257526)
(0.17142963 0.029525731 0.0076459506)
(0.18120734 0.031598501 0.0076658006)
(0.19118851 0.033703693 0.0076923313)
(0.2013809 0.035858705 0.007716902)
(0.21176457 0.038040817 0.007741322)
(0.22234589 0.040253351 0.0077723056)
(0.2331085 0.042486983 0.0078029164)
(0.24404999 0.044735753 0.0078375679)
(0.25515766 0.046987419 0.007871099)
(0.26643306 0.049253616 0.0079106815)
(0.27786609 0.05150335 0.0079498077)
(0.28944622 0.053751099 0.0079933628)
(0.30117535 0.05597817 0.008040642)
(0.31304221 0.058180464 0.0080889383)
(0.32504457 0.060351966 0.0081440409)
(0.33717628 0.062484102 0.0082001999)
(0.34943436 0.064569062 0.0082622403)
(0.36181288 0.066601234 0.0083267955)
(0.37431006 0.06856972 0.0083971638)
(0.38692101 0.070470284 0.0084695365)
(0.39964423 0.07229116 0.0085476325)
(0.41247568 0.074028303 0.0086277045)
(0.42541421 0.075669132 0.008712163)
(0.43845706 0.077210537 0.0087980796)
(0.4516027 0.078639641 0.0088869049)
(0.464849 0.079952165 0.0089763365)
(0.47819494 0.081138094 0.0090664721)
(0.49163873 0.08219132 0.0091556742)
(0.50517783 0.083102913 0.0092441745)
(0.51881228 0.083867759 0.0093292369)
(0.53253926 0.084475608 0.0094129202)
(0.54635372 0.084929001 0.0094889984)
(0.56026272 0.085206507 0.0095626179)
(0.57425748 0.085320448 0.0096313322)
(0.58832662 0.085256674 0.0096935965)
(0.60247757 0.085011035 0.0097508824)
(0.61670464 0.084581841 0.0097976218)
(0.63100409 0.083970778 0.0098380008)
(0.64536769 0.083168305 0.0098704556)
(0.6597991 0.082183766 0.0098942863)
(0.67428207 0.081003416 0.0099136239)
(0.68882593 0.079646667 0.0099225802)
(0.70341129 0.078087003 0.0099291219)
(0.71804526 0.076367683 0.0099233052)
(0.73271552 0.074434969 0.0099207898)
(0.74741824 0.07236523 0.0099003228)
(0.76215457 0.070079562 0.0098899957)
(0.77690803 0.067664412 0.009860884)
(0.79169035 0.065060749 0.0098395792)
(0.80648215 0.062316059 0.0098059026)
(0.82128716 0.059414125 0.0097797572)
(0.83609901 0.056383022 0.0097378733)
(0.85092363 0.053203165 0.0097070261)
(0.86574982 0.049907726 0.0096700002)
(0.88057275 0.046500261 0.0096271857)
(0.8954011 0.042984115 0.0095921564)
(0.91021448 0.039353016 0.0095642803)
(0.9250379 0.035684408 0.0095035684)
(0.93984148 0.031887944 0.009488573)
(0.95466346 0.028005049 0.0094350855)
(0.96950043 0.024147464 0.0093614707)
(0.98438213 0.020032264 0.0092737169)
(-0.00035777884 -0.0013120836 0.0038176504)
(-0.00041027178 -0.0044383745 0.0045203352)
(8.0347128e-05 -0.006220495 0.0053577733)
(0.00034763494 -0.0087817866 0.0059561577)
(0.0011470068 -0.010772979 0.0063211037)
(0.0021690089 -0.012947306 0.0065527588)
(0.003620974 -0.014808909 0.0067339447)
(0.0053035919 -0.016707074 0.0068421493)
(0.0074441521 -0.018350594 0.0069282754)
(0.009872057 -0.019966622 0.0069190928)
(0.012631243 -0.021339933 0.0069885318)
(0.015753509 -0.022631292 0.0069127197)
(0.019173187 -0.023695802 0.0069619635)
(0.022944497 -0.024644963 0.006885361)
(0.027014563 -0.025376135 0.0069204048)
(0.031460661 -0.025942081 0.0068217872)
(0.036127098 -0.026314029 0.0068735125)
(0.041227475 -0.026484502 0.0067974702)
(0.046557226 -0.026460743 0.0068156606)
(0.052250055 -0.026236148 0.006779909)
(0.058222961 -0.025794217 0.006792722)
(0.064546048 -0.025151848 0.0067625783)
(0.071137182 -0.024292464 0.0067846658)
(0.078074497 -0.02323044 0.0067775863)
(0.085292415 -0.02195733 0.0067929091)
(0.092829476 -0.020475309 0.0067983558)
(0.1006519 -0.018791457 0.0068205722)
(0.10878197 -0.01690987 0.0068377298)
(0.11719827 -0.01482983 0.0068595176)
(0.12590291 -0.012564711 0.0068844994)
(0.13489048 -0.010115749 0.0069134495)
(0.14415552 -0.0074941127 0.0069415967)
(0.15368484 -0.0047062688 0.006973966)
(0.16348574 -0.0017605318 0.007006402)
(0.17353533 0.0013280402 0.0070425547)
(0.18383726 0.0045562384 0.0070789357)
(0.19438195 0.0079066132 0.0071138419)
(0.20515509 0.011370623 0.0071578716)
(0.21614645 0.014932753 0.007197633)
(0.22735767 0.018589992 0.0072403921)
(0.23876547 0.022312822 0.0072840662)
(0.25037485 0.026108282 0.0073341605)
(0.26217373 0.029940027 0.0073744797)
(0.27414128 0.033813387 0.0074312371)
(0.28628472 0.037705609 0.0074800732)
(0.2985872 0.041599321 0.0075366541)
(0.31103985 0.045485674 0.0075945694)
(0.32363926 0.049345378 0.0076564594)
(0.33637388 0.053165211 0.0077198079)
(0.34923873 0.056928272 0.0077889681)
(0.3622255 0.060621703 0.0078595961)
(0.37532961 0.064225233 0.0079354148)
(0.38854283 0.06772977 0.0080133038)
(0.40186177 0.071112476 0.0080961158)
(0.41527897 0.074364853 0.008180587)
(0.42879167 0.077465525 0.0082690922)
(0.44239322 0.080405267 0.0083585969)
(0.45608063 0.083163149 0.008451267)
(0.46984866 0.08573194 0.0085433326)
(0.48369453 0.088091136 0.0086368659)
(0.49761184 0.090233313 0.0087292024)
(0.51159943 0.092141733 0.0088203592)
(0.52565124 0.093807732 0.0089095316)
(0.53976228 0.095219318 0.0089948286)
(0.55393219 0.096369518 0.0090761794)
(0.56815348 0.097241608 0.0091573166)
(0.58241178 0.097844121 0.0092280373)
(0.59671723 0.09814639 0.0092990261)
(0.61106553 0.098158508 0.0093544882)
(0.62544356 0.097875401 0.009409104)
(0.63984959 0.097296854 0.0094547737)
(0.65427296 0.096408803 0.0094989857)
(0.66871601 0.095231561 0.0095307095)
(0.68316582 0.093735406 0.0095649914)
(0.69762512 0.091965461 0.0095799373)
(0.71207947 0.08986823 0.0096069719)
(0.72653428 0.087520063 0.0096060614)
(0.74097542 0.084839454 0.0096268284)
(0.75540646 0.081937234 0.0096111342)
(0.76981853 0.078700559 0.0096288936)
(0.78421247 0.075270999 0.0096007089)
(0.79858143 0.071530835 0.0096093754)
(0.81292805 0.067591393 0.0095862403)
(0.82724507 0.063394399 0.0095704449)
(0.84154407 0.059013056 0.0095430553)
(0.85580039 0.054399906 0.0095356346)
(0.87003869 0.049622724 0.0095035794)
(0.88423333 0.044658093 0.0094889899)
(0.8984224 0.039517968 0.0094684496)
(0.91255807 0.034278666 0.0094255961)
(0.92670241 0.028861343 0.0094076565)
(0.94079221 0.02334018 0.0093677296)
(0.95491344 0.017742123 0.0093081467)
(0.96901166 0.012016652 0.0092492724)
(0.98318249 0.0062152763 0.0091632517)
(-0.0011468917 -0.0032403349 0.0032745617)
(-0.0013719974 -0.0075616852 0.0037739885)
(-0.0016924144 -0.011331096 0.0047394457)
(-0.0013871358 -0.015093896 0.0050766961)
(-0.00092034572 -0.018738758 0.0053780808)
(-2.7856232e-06 -0.022203436 0.0055670183)
(0.001045789 -0.025626419 0.0057365658)
(0.0026600994 -0.028781878 0.0058299002)
(0.0044290447 -0.031922094 0.0058593623)
(0.0066272088 -0.034691537 0.0059523066)
(0.0091166334 -0.0374462 0.0059101262)
(0.011996138 -0.039809727 0.0059756827)
(0.015136 -0.042122222 0.0059272052)
(0.018673797 -0.044028299 0.0059688484)
(0.022515834 -0.045820169 0.005903246)
(0.026670794 -0.047260523 0.0059637904)
(0.031201127 -0.048496056 0.005906628)
(0.036036473 -0.049407086 0.0059294283)
(0.041199603 -0.050073642 0.0059178544)
(0.046709362 -0.050427679 0.0059357552)
(0.052553067 -0.050497742 0.0059232092)
(0.058710018 -0.050283353 0.005957509)
(0.06521861 -0.049754241 0.0059590446)
(0.07204019 -0.048951104 0.0059868688)
(0.079199712 -0.047826989 0.0060030813)
(0.086676035 -0.046436708 0.0060396759)
(0.094487495 -0.044736661 0.0060650197)
(0.1026102 -0.0427683 0.0061008105)
(0.11105503 -0.040511211 0.0061383905)
(0.11981059 -0.037997816 0.0061809059)
(0.12887774 -0.03521277 0.0062197305)
(0.13823884 -0.032187888 0.0062679989)
(0.14790778 -0.028916958 0.0063129452)
(0.15785332 -0.025427028 0.0063628144)
(0.16808705 -0.021719583 0.0064125717)
(0.17859004 -0.01781346 0.0064633243)
(0.18935264 -0.013727413 0.0065211249)
(0.20036338 -0.0094696364 0.0065758223)
(0.21163658 -0.0050628973 0.0066309018)
(0.22313183 -0.00052744597 0.0066853303)
(0.23485547 0.0041339271 0.0067460906)
(0.24679034 0.008886526 0.0067973117)
(0.25892422 0.013720464 0.006865931)
(0.27125309 0.018615949 0.0069249172)
(0.28376369 0.023548348 0.0069864527)
(0.29644039 0.028503131 0.0070543129)
(0.3092808 0.033458867 0.0071188694)
(0.32227062 0.038393029 0.0071888486)
(0.33540184 0.043287614 0.0072595891)
(0.3486648 0.048119628 0.0073347918)
(0.36205241 0.052870129 0.0074098839)
(0.37555415 0.057515855 0.0074912726)
(0.38916443 0.062039558 0.0075719287)
(0.40287412 0.066415643 0.0076585434)
(0.41667746 0.070629741 0.00774486)
(0.43056693 0.074655669 0.0078356322)
(0.4445364 0.078479228 0.0079265583)
(0.45857992 0.082077012 0.0080202476)
(0.47269162 0.085434831 0.0081129452)
(0.4868648 0.088530453 0.0082078999)
(0.50109532 0.091352184 0.0083000963)
(0.51537639 0.093879787 0.0083925629)
(0.5297021 0.096102422 0.0084821234)
(0.54406743 0.098004811 0.0085681551)
(0.5584687 0.099573681 0.0086538545)
(0.5728875 0.10080071 0.0087305032)
(0.58734802 0.10168674 0.0088105767)
(0.60181013 0.1021982 0.008872437)
(0.61627927 0.10234049 0.0089456203)
(0.63075396 0.1021184 0.0090061398)
(0.6452216 0.10151977 0.0090620227)
(0.65968086 0.10054785 0.0091138902)
(0.67412867 0.099199207 0.0091557384)
(0.68854633 0.097478707 0.0091968221)
(0.70294576 0.095386172 0.0092295729)
(0.71730337 0.092924478 0.0092619915)
(0.73163506 0.090109249 0.0092832979)
(0.74591352 0.086931014 0.0093098165)
(0.76016077 0.083421407 0.0093216922)
(0.77434735 0.079563846 0.0093419744)
(0.78849631 0.075405467 0.0093439096)
(0.8025855 0.070904677 0.0093656551)
(0.81662372 0.066152172 0.0093550458)
(0.83061859 0.061073629 0.0093703689)
(0.84454975 0.055767509 0.0093675776)
(0.85843781 0.05018795 0.0093712117)
(0.87226711 0.044403895 0.0093573553)
(0.88606156 0.038369375 0.0093651952)
(0.89980377 0.032192903 0.0093346889)
(0.91350376 0.025794831 0.009338283)
(0.92717963 0.019255306 0.0093126022)
(0.94081172 0.012600507 0.0092819211)
(0.95445168 0.0057843095 0.0092433691)
(0.96806581 -0.0010749205 0.0091876179)
(0.98170542 -0.0080373619 0.0091162536)
(-0.001546289 -0.0038848726 0.0027088814)
(-0.0022283475 -0.0091523772 0.0032853373)
(-0.002483976 -0.013548356 0.0038395142)
(-0.0023937546 -0.018124455 0.0041128817)
(-0.0019519259 -0.022411418 0.0043996974)
(-0.0013134025 -0.02666258 0.0045639766)
(-0.00013893819 -0.030620786 0.0046858117)
(0.0012125118 -0.034570716 0.0047278172)
(0.0029482475 -0.038195134 0.0048656818)
(0.0050468188 -0.041723137 0.0048153678)
(0.007464078 -0.044970414 0.0049260966)
(0.010192964 -0.048026372 0.0048718174)
(0.013282785 -0.050809247 0.0049575272)
(0.016725042 -0.053319747 0.0048830077)
(0.020434962 -0.055608755 0.004986555)
(0.024567953 -0.057538597 0.0049164483)
(0.028969595 -0.059234363 0.0049766366)
(0.033741473 -0.060583783 0.0049661061)
(0.038830807 -0.061650419 0.0050063759)
(0.044286246 -0.062374039 0.0049994687)