/*--------------------------------*- C++ -*----------------------------------*\
  =========                 |
  \\      /  F ield         | OpenFOAM: The Open Source CFD Toolbox
   \\    /   O peration     | Website:  https://openfoam.org
    \\  /    A nd           | Version:  6
     \\/     M anipulation  |
\*---------------------------------------------------------------------------*/
FoamFile
{
    version     2.0;
    format      ascii;
    class       pointScalarField;
    location    "0.94";
    object      E;
}
// * * * * * * * * * * * * * * * * * * * * * * * * * * * * * * * * * * * * * //

dimensions      [1 -1 -2 0 0 0 0];

internalField   nonuniform List<scalar> 
3969
(
101218.61
102474.01
-1806941.4
-833371.74
113600.39
112372.97
-1248506.8
-2703757.1
55460.076
23581.838
8694.956
6274.8808
15890.845
39792.137
87147.348
-998964.79
-986218.55
-975915.41
-965792.14
-957699.87
-949151.53
-716111.1
107803.87
90544.763
91164.994
91153.7
89094.32
86620.557
82192.154
78108.082
73057.398
68234.362
63690.362
59026.634
54474.366
50049.497
45793.977
41566.613
37726.655
33739.378
30116.783
26529.242
23279.679
20163.061
17367.072
14750.976
12625.639
10626.669
8616.7483
7161.3893
5727.5143
4454.391
3402.123
2475.67
1628.2793
942.76652
607.63954
-237.8777
-11.030774
-1015.9575
-399.41767
-1458.0127
-775.69438
-1088.3232
-1325.682
-444.5237
-678.50636
-2418.2534
-1423.0781
95208.438
69681.743
80158.471
77224.316
76241.17
72299.332
69382.119
64823.242
61003.916
56562.324
52061.395
48049.929
43855.363
40145.425
35790.351
32334.924
28703.259
25294.89
22434.22
19241.778
16645.633
14631.848
11478.599
9693.987
7657.4858
6362.8145
3964.4014
2848.2849
1486.4376
728.55744
16.730947
-743.58679
-1207.1592
-1719.0065
-1930.0949
-2256.2841
-2197.1957
-2694.8777
-2485.779
-2714.7547
-2409.998
-2354.2178
-2395.8258
-2222.6066
-1774.0038
-1610.4291
-1070.7764
58552.255
26207.969
8898.3299
9915.3244
14812.425
36378.192
74635.188
151004.78
98891.153
81846.427
101003.85
85981.091
88192.633
81784.1
75196.009
71357.08
64070.337
63835.02
59537.572
57211.071
52215.464
47829.033
44225.883
38942.154
35540.349
31090.635
27336.274
23814.174
20714.745
17875.636
15336.322
12685.832
10937.522
6171.098
3987.6922
2617.6145
1005.8711
-257.8797
-1277.0508
-2239.9032
-2924.8222
-3706.5096
-5422.0131
-1959.6804
-5238.9094
-5381.5156
-5749.1716
-6142.7403
-6091.1761
-6561.3217
-6510.2765
-6482.8893
-5592.5822
-8760.3039
-2005495.8
-1687552.8
-2041808.9
-1936492
-1957278.9
-1760337.2
-2141366
-9957.31
-5021.6425
-2069.6388
-2327.7663
-2548.6072
-2989.3376
-2970.4822
-3217.806
-3147.3311
-2338.3768
-945.29058
-4515.7012
-1986.901
-1670.5091
-995.376
-125.98441
634.70944
1845.2388
2943.1025
4435.4318
5888.9012
7730.5698
9808.8886
12015.759
14480.919
17076.706
20112.103
23255.273
26871.983
30573.957
34627.303
39341.315
43615.867
47406.581
53164.481
57604.916
63998.817
68383.957
73216.478
78371.5
84938.374
86723.221
94027.428
92414.312
91227.316
95141.756
118510.15
81830.231
79851.118
79209.409
78966.754
78892.358
78434.3
84044.257
65539.952
70512.173
77709.521
80731.035
80534.175
83747.503
69904.664
-936853.37
-937474.91
-937108.48
-937553.6
-937508.91
-937509.35
-938359.69
-2031095.4
-2031622.1
-2031908.8
-2032003
-2032100.9
-2033047.4
-2033649.9
68830.268
60751.116
61781.744
60601.37
60760.794
58522.348
56413.677
53394.352
50272.477
47346.696
44276.109
40928.603
37998.272
34842.184
31975.661
29292.86
26662.712
24141.817
21878.752
19709.552
17712.075
15742.743
14013.61
12363.349
10783.027
9490.0916
7999.8833
7204.8639
5975.6937
5212.5995
4444.8104
3758.4097
3153.3839
2641.8102
2177.5202
1646.8457
1566.0305
1163.203
966.11003
807.61502
907.47956
149.00097
1257.9079
-0.80334388
1224.2582
2077.1369
2451.2883
31405.299
29498.942
31623.275
31513.743
31122.075
30289.57
28456.095
27489.5
25640.212
24312.639
22568.165
21012.615
19906.347
18767.405
17635.899
16160.139
14902.089
13560.512
12291.571
11124.512
10088.676
9066.977
8087.9703
7233.1448
6541.6895
5859.3454
5001.1202
4628.2368
3957.9401
3604.0752
3179.0331
2824.6934
2512.5263
2294.3373
2122.1721
1815.1859
2016.2079
986.40773
1973.8553
874.93553
1683.0294
1170.6476
1689.0767
850.79469
3055.0885
856.81311
3162.5625
11697.373
8280.8329
11270.573
10228.725
11092.068
10587.018
10640.395
10128.387
9554.0161
9326.2071
8820.6549
8058.2789
7612.7059
6811.722
6483.0271
5919.5708
5613.0461
5017.9829
4699.8715
4104.0939
3444.2196
2809.5768
2248.0143
1955.5118
1448.0877
1077.4836
1178.027
861.44067
687.42912
607.73536
400.38982
421.94606
259.10469
310.62691
159.36354
355.0472
142.49702
811.61674
818.45164
672.41489
1283.606
611.83829
1405.2771
1084.1323
2356.6199
950.61348
3693.2848
5295.8334
1150.3543
2559.492
2806.2255
3331.3446
3613.569
3480.7018
4090.2711
3689.3738
3757.8806
3578.3125
3491.211
3570.7829
3331.9275
3178.1931
2818.7919
2728.7767
2605.9736
2445.586
2311.0204
2503.5043
2714.1895
3095.6298
3194.7256
3070.9959
2981.7181
2600.0078
2504.8171
2412.6762
2318.8659
2162.9183
2155.7001
1951.3538
1899.0462
1935.243
1541.3597
1837.9351
1350.7084
1214.165
993.94563
1222.3366
844.87556
1550.4425
809.80569
2171.7565
576.6753
3815.986
13575.042
6923.2485
7317.5819
6259.033
6396.4902
6603.3201
6116.9503
6131.1305
5811.4463
5727.7468
5636.1197
5115.4959
4741.5769
4302.9613
4188.9098
3713.5289
3528.4312
3095.413
2827.0297
2365.9525
2951.6778
1506.6619
1202.7635
1218.504
941.66021
509.90754
542.27564
457.88029
260.53631
158.29752
55.66981
40.44267
-28.080462
-4.0833665
-135.27589
173.33677
-226.59765
337.98524
153.7263
408.94882
87.708999
583.57034
629.2348
1055.2016
1155.776
1412.4691
4393.6425
34461.017
27217.091
27089.849
26314.832
27210.915
26703.606
26097.456
25256.099
23879.122
22879.741
21269.937
20510.611
18390.405
17492.668
15907.827
14813.577
13449.21
12393.002
11316.769
10260.22
9068.884
9028.5971
6921.2321
5423.7382
4737.244
4164.8305
3485.9557
3224.544
2734.5383
2451.611
2099.1321
1908.303
1645.5441
1460.8768
1399.7746
1092.8542
1338.3198
804.36774
1010.6569
1191.4713
1316.8649
1629.5713
1235.1637
1570.646
1330.9569
844.29469
3311.4571
55460.444
49449.615
48392.965
50073.729
50387.29
49641.029
47765.903
45705.139
43641.475
40654.454
38831.961
36267.23
33590.477
30656.386
28350.402
25792.684
23499.519
21255.476
19162.127
17159.151
15774.584
13077.274
12977.508
10366.965
9989.7729
8631.9543
7633.3421
6832.7076
5972.508
5164.2702
4336.911
3872.7634
3168.5656
2832.0833
2230.2532
2032.7906
1592.3336
1772.0275
1381.55
1353.1566
1214.0721
1203.3215
1215.2373
1869.3449
1096.5514
2819.1435
2893.945
34780.336
35789.243
30752.637
30754.911
31170.786
32107.115
39864.229
15130.287
13298.174
12149.522
11961.463
12413.598
13221.027
17334.444
4943.6592
3414.8139
2131.7057
2528.9809
2217.5682
2843.1441
5045.0765
2860.647
1307.6046
805.30829
715.87378
1159.508
2349.5062
5121.7363
6112.2874
3852.9269
2763.8578
2549.6023
3062.0723
4362.1659
7468.0581
20744.93
15049.732
12979.807
12318.421
12981.561
15514.252
23031.929
38968.005
40143.037
32904.991
34191.599
33522.509
36659.739
48660.583
111561.37
98087.364
106098.96
113641.24
114000.63
121824.46
119160.47
98727.067
101487.33
95656.48
93748.175
102081.75
104752.07
106908.31
90795.458
94380.387
95737.169
96213.248
96294.812
97295.061
98630.069
90402.521
100470.3
100273.79
102537.41
103382.42
102989.14
96302.872
86405.625
89416.442
94343.178
95148.671
94825.117
91514.826
89952.927
82900.525
85617.932
88839.331
90809.647
90518.288
87485.287
84998.346
76998.16
79452.071
83597.875
84194.836
84107.883
84217.439
81364.668
73908.459
74345.991
76260.023
76984.146
77054.41
75172.173
73843.289
68309.792
68660.989
71719.702
72275.657
72466.674
71693.382
71053.424
64649.524
64223.535
64977.589
66002.753
65278.824
64140.548
64683.172
59626.32
59525.058
61354.489
60718.265
61219.944
61123.827
60786.569
55362.244
54327.237
55149.201
56004.898
56197.831
53372.686
56447.956
51011.118
49840.263
51567.822
50642.734
50682.494
50461.257
52422.48
45732.694
45284.832
46597.089
46132.273
47734.834
44781.646
47963.2
42498.418
40991.169
42569.146
42054.659
41936.083
41229.947
43618.62
37900.487
36236.3
38927.509
37282.133
39031.402
37303.2
39798.959
34185.739
33254.586
34796.202
33661.591
34666.457
32957.309
35315.019
30609.957
29061.508
31479.763
29869.406
31256.564
29770.373
31895.043
27055.974
25994.985
28188.516
26161.699
27690.269
25900.702
28184.818
23935.76
22742.69
24929.841
23013.83
24544.289
22929.999
25136.353
21065.83
19714.596
21986.927
19798.097
21448.836
19694.304
21981.414
18280.476
17046.633
19137.657
17086.771
18621.173
16926.416
19276.959
15658.05
14535.829
16359.741
14487.679
15892.242
14471.916
16810.978
13216.332
12371.122
13979.538
12199.314
13427.608
12170.191
14282.022
11012.668
10385.16
11521.467
10578.211
11293.235
9882.3906
11870.115
9039.6437
8758.0882
9311.4711
8638.3269
9362.0372
8186.0981
10314.013
7907.6175
7194.0842
7859.7965
7045.7418
8968.5643
6463.187
7820.245
6999.0931
5635.9874
6581.0863
5336.4675
6260.1745
4787.413
5920.2986
5367.8696
4451.5389
5133.9084
4100.7254
4807.2411
3864.2132
4476.2046
4504.1333
3103.0642
4288.9161
2711.8258
3789.3398
2360.4598
3173.9864
3209.0823
2283.5014
3079.0294
1705.6773
2597.2946
1308.3852
2123.8994
2444.5506
1357.2505
2211.8636
822.57847
1790.9275
449.35311
1250.6569
1608.7451
655.15104
1432.811
126.39721
948.67371
-393.49943
384.46259
865.05613
-22.081768
713.58361
-575.35933
253.81763
-1001.5871
-265.83507
295.5361
-422.61805
159.37253
-995.92003
-384.06082
-1575.3954
-899.25082
-198.69112
-1023.1474
-279.36878
-1603.8544
-713.10439
-1009.1825
-1461.1013
-385.99871
-1143.6366
-884.96635
-1651.2607
-1100.8528
-3383.3739
-1841.1749
-1791.3681
-1695.2812
-1509.9663
-2088.1352
-1996.625
-1889.8376
-2310.0847
-1352.0623
-1849.8704
-1350.6231
-2461.7212
-1780.7601
-2970.6114
-2525.3649
-1371.5972
-2143.4936
-1580.3609
-2600.2191
-2088.638
-3219.8213
-2812.2445
-1841.4905
-2419.4913
-1866.5427
-2930.2774
-2366.5769
-3381.354
-3097.9352
-1824.1702
-2382.5134
-1817.6158
-2712.867
-2309.3032
-3331.5123
-3274.6863
-2258.2859
-2873.7421
-2287.4071
-3184.4665
-2764.2038
-3648.4608
-3483.3339
-2234.0149
-2727.5167
-2198.9141
-2910.851
-2671.4636
-3456.4308
-3646.0359
-2111.8985
-2442.2682
-1997.1677
-2682.3387
-2338.2905
-3088.488
-3357.8888
-1626.4395
-2101.4641
-1537.6658
-2129.8078
-1877.4726
-2510.0216
-2638.0814
-3775.4286
-3428.9354
-3287.0641
-3504.2094
-3436.9838
-3871.8857
-4052.5807
-1216750.4
-1337296.7
-1337194.8
-1337391
-1337529.6
-1337405.3
-1337130
-1321567.3
-1320159.4
-1319931.1
-1320232.3
-1320109.6
-1420804.1
-1320149.2
-1405165.7
-1302687.5
-1302858
-1302764.9
-1302633.6
-1182519.3
-1302615.4
-1291260.9
-1290170.8
-1291191.1
-1290913.7
-1291328.9
-1290640.8
-1290865.5
-1278379.8
-1161551.5
-1277644.3
-1277546.2
-1277094.8
-1277030.3
-1277181.6
-1151943.8
-1363800.8
-1266798.6
-1266487.8
-1364134
-1266186.8
-1266163.9
-1350773.4
-1253455
-1254268.3
-1253876.1
-1139305.8
-1253915.6
-1254008.8
104474.85
94603.273
89193.512
86511.896
88269.268
90537.43
93584.76
100404.28
93886.266
93250.767
91945.825
93061.668
94930.052
96973.984
98351.818
98141.79
97034.701
95998.833
96871.801
96224.467
95440.461
95228.05
96054.613
96081.902
95994.314
95306.457
93861.946
94335.185
92964.9
92382.744
92792.369
92269.176
91682.539
90204.648
89624.023
87662.828
87664.656
87183.266
86996.737
86667.309
85661.26
85878.545
84311.154
83032.743
82382.634
81158.609
81757.872
81369.882
81816.742
78496.938
77521.609
76936.791
76746.233
75912.661
75707.325
76228.174
74525.924
73112.374
72516.591
71858.65
71984.943
71035.589
72505.913
69044.453
67604.341
67006.58
66194.772
66149.914
65584.982
66642.252
64397.736
63235.982
63125.624
61883.388
62333.019
61232.202
62144.344
59712.797
58490.939
57562.158
57363.925
56663.2
56594.294
57019.323
54991.889
53828.644
53505.077
52630.326
52175.255
51688.68
52583.021
50432.162
49326.283
48899.165
48056.531
48228.19
48224.025
48146.22
46325.988
44956.079
44605.816
44008.37
43962.556
42500.917
43235.923
41727.249
40987.297
40706.272
39766.252
39499.632
38959.681
39172.924
37633.88
36992.875
36504.617
36054.658
35748.519
35104.951
35035.618
33918.688
33144.228
32936.613
32221.686
31965.852
31314.118
31147.355
30140.599
29650.735
29291.118
28759.774
28484.283
27736.053
27619.738
26738.486
26273.856
25922.454
25484.889
25136.927
24481.264
24301.723
23526.869
23117.013
22816.475
22338.31
22037.852
21396.557
21238.391
20514.822
20084.991
19846.537
19482.182
19263.792
18593.891
18337.139
17800.705
17297.552
17179.532
16826.93
16650.162
15936.004
15800.926
15276.718
14863.987
14791.233
14439.29
14389.224
13549.662
13399.934
13153.987
12605.204
12571.502
12311.806
12160.919
11414.065
11284.891
11131.42
10571.113
10650.834
10336.573
10282.291
9500.8396
9515.9313
9129.8153
8755.1649
8913.3878
8506.9244
8532.5796
7743.3017
7631.5094
7765.4877
7142.9003
7284.4954
6971.724
7010.756
6201.6253
6168.5356
6185.6713
5593.8248
5907.4444
5598.451
5532.7106
4799.5708
4784.2564
4890.4783
4549.9789
4656.6883
4309.4762
4381.6041
3668.6192
3620.3374
3870.0365
3304.3764
3525.4245
3327.5035
3282.4781
2538.1585
2544.7675
2800.4087
2411.3299
2609.2974
2325.0712
2290.4315
1693.3588
1663.8947
1983.7056
1608.6715
1751.4479
1592.8442
1567.5293
881.87082
901.94803
1273.6582
835.71875
1047.3439
908.7872
820.02998
307.7556
302.09155
677.32249
342.39001
506.72585
345.44382
194.93844
-428.1292
-181.82746
89.774087
-296.33902
-18.145309
-204.42038
-189.5046
317.30852
-543.06585
436.2684
-604.64058
-275.95228
-620.83492
-368.89323
-2431.9659
-903.06962
-1112.5319
-960.93004
-811.32083
-985.22497
-1019.7732
-892.94943
-1150.1945
-786.01907
-729.61578
-816.24198
-772.20201
-1047.3527
-1331.4361
-1251.7256
-879.77403
-1428.6617
-1197.9616
-1179.8946
-1374.0335
-1554.571
-1394.1096
-970.02053
-1070.6698
-926.17022
-1048.2278
-1193.503
-1541.5538
-1288.4696
-776.10847
-1036.9816
-1106.6503
-843.53258
-1180.0792
-1359.1841
-1202.0233
-1079.3518
-1719.9625
-1269.2415
-1321.0094
-1435.8058
-1372.6173
-980.46196
-634.76036
-453.19219
-581.26728
-432.73223
-747.57518
-649.67493
-898.80415
-279.84168
-1294.7999
-905.69124
-1097.5788
-1153.5778
-1109.3149
-1059.917
-3856.691
-3218.0855
-3295.331
-3129.3243
-3444.4333
-3599.7757
-3486.4165
-4333.5363
-5962.6367
-6070.9852
-6181.1184
-6407.7034
-6108.0268
-6275.8367
109835.4
80898.495
75329.407
74224.206
75486.724
71312.694
70012.518
65216.045
62420.231
58604.02
54609.259
50847.363
46807.887
43577.462
39386.961
37282.689
33325.703
30192.463
27359.592
24543.358
21937.059
19530.031
17214.98
15105.553
13253.664
11342.147
10054.462
8350.6542
7179.2957
6038.5452
4998.5103
4132.4896
3294.5102
2625.8329
2021.4141
1605.9377
36.041337
1104.8562
92.77484
-229.32735
-357.52841
-684.56416
-745.80288
-838.00644
-11.669724
1626.4585
4039.2955
48689.277
49440.24
40321.687
41989.323
41192.716
38382.224
37650.968
35297.724
34203.573
31042.912
29933.422
26969.647
25405.561
23184.621
20909.025
19737.327
17562.536
15973.304
14611.805
13016.998
11683.75
10511.72
9288.8814
8372.8456
7317.9269
6419.473
5883.7081
5131.0121
4595.3788
4030.4187
3596.9351
3264.2235
2925.7417
2705.7103
2511.5175
2266.5765
2268.664
2168.9499
2205.2452
2162.3314
2583.1517
2391.961
2853.9104
2606.6518
3554.8637
912.10104
5012.037
17140.669
18710.325
16376.281
17928.436
16583.285
12774.22
15300.802
12175.15
12889.447
11592.861
11099.049
10854.31
9480.4927
10457.978
9512.7147
8923.6698
8166.3752
7400.5279
7034.4114
6137.3073
5707.6649
5103.3088
4604.5961
4045.329
3612.9445
3007.1339
2900.1899
2256.6374
2034.515
1742.8339
1499.7741
1249.1112
1054.1164
865.62792
679.64277
553.50204
321.24784
404.79062
155.8747
274.7828
127.72365
286.94396
153.69034
701.86918
162.91696
822.36115
3418.5628
5473.743
5654.7889
2412.8027
8064.5691
3002.5569
5919.1726
2200.1183
2840.111
4081.488
1978.4394
4020.6067
1826.1321
3183.3128
2796.4232
3020.5778
3234.4113
2735.5958
2762.3899
2572.9344
2374.67
2166.0647
2102.6439
1759.507
1820.4605
1545.7973
1651.2338
1487.2137
1499.7449
1439.4792
1410.2299
1311.0461
1316.1264
1344.864
1214.9966
1353.5482
1251.7252
1415.2696
1377.3949
1583.9586
1383.2093
1956.5094
1517.3663
2348.4842
1572.6777
2904.5795
607.76203
4091.0101
12416.633
2711.9564
5168.8952
3990.7189
4487.3816
5123.8983
5134.2689
5540.7441
3923.9074
5238.1016
3634.7084
4619.0961
4051.0456
3798.1478
4255.1623
3740.322
3885.2535
3472.2323
3453.9523
3034.4698
2936.7635
2589.8954
2609.0228
2231.0135
2051.7239
1892.8519
1453.0027
1423.0828
1158.3126
1044.5652
906.71412
871.19277
711.55324
643.78577
673.00948
492.47184
591.61711
594.19261
376.23574
791.7119
540.60651
929.09953
798.62068
1334.1925
950.03501
1213.0004
2566.8821
28933.121
22989.8
16717.301
22840.812
17474.187
22082.322
19532.431
18697.424
20691.47
19119.999
21848.676
19078.262
19101.169
17518.395
16288.712
15161.777
13548.106
12487.662
11125.172
10195.034
9045.6004
8214.3167
7345.4264
6218.8234
5309.0456
4638.3097
4295.3262
3750.683
3412.6089
3086.8797
2826.7141
2535.2759
2382.3231
2172.8998
2105.2081
1770.5841
1957.7274
1425.2476
1918.6849
1421.4096
1730.185
1444.4108
1809.0086
1493.8327
2119.5416
1635.528
2569.7644
84379.368
48970.695
56403.007
49252.941
53116.297
52110.285
49158.976
50827.78
44877.058
45111.558
39675.641
39759.054
35242.768
32196.571
29693.196
26267.301
24408.416
21653.801
19602.593
17369.647
15341.416
13193.031
11533.642
9228.6712
9724.8703
6968.0028
6058.7472
5292.9319
4416.1966
3753.7773
3108.8276
2613.4513
2132.1924
1782.2108
1343.4762
947.89378
1206.5513
1089.1077
849.76024
954.82024
1057.4827
1206.3434
1454.0539
1940.723
1908.8795
3181.7595
1126.7235
86033.483
72960.763
71133.373
69974.28
70625.131
70675.811
72940.274
77099.29
78911.325
74031.42
73647.273
72836.278
74424.937
75202.929
71958.893
75711.157
75326.176
74501.542
74293.177
74085.127
73182.024
70363.025
72051.947
72055.637
72258.244
71377.685
71027.642
69172.441
67926.834
69986.384
70385.851
70331.578
69869.062
69743.931
68468.921
65003.163
65279.485
64932.73
65107.727
64422.803
64228.038
64271.29
62695.15
63003.452
62728.005
62317.614
61948.524
62387.103
62491.648
58670.608
58343.896
57804.248
57708.851
57323.928
57344.988
57936.402
55917.777
55968.098
54850.415
54783.521
54204.979
54896.585
55665.987
52080.137
51598.039
51008.461
50663.59
50196.119
50868.046
51511.715
48866.765
48732.156
47853.982
47378.05
47446.2
47547.76
48684.797
45507.528
44806.25
44405.895
44106.713
43784.16
44239.079
45147.676
42359.104
41920.289
41175.019
40644.368
40884.499
40762.202
41420.508
38869.692
38535.488
38129.098
37739.233
37758.547
37866.444
38885.884
35816.78
35689.941
34724.815
34601.284
34439.989
35066.165
35145.48
32813.056
32684.426
32030.88
31859.39
31738.462
31717.421
32341.421
29846.662
29766.951
29207.23
28768.627
28946.654
29218.044
29748.3
27012.13
26980.062
26505.404
26128.978
26305.17
26451.077
26718.23
24382.487
24317.841
23950.109
23640.331
23837.334
23903.75
24322.852
21935.877
21828.378
21540.511
21285.052
21360.457
21518.378
21883.253
19661.969
19436.226
19308.188
19035.82
19187.933
19326.714
19616.496
17614.212
17308.143
17232.265
16995.827
17128.185
17228.109
17482.769
15703.735
15269.379
15367.146
15127.205
15166.738
15224.697
15563.733
13987.381
13462.128
13736.149
13353.115
13366.252
13527.681
13729.995
12270.592
11757.96
11879.07
11789.073
11649.169
11780.061
12104.851
10632.148
10236.03
10546.462
10293.658
10126.579
10411.728
10342.979
9350.8182
8856.0713
9001.99
8952.6829
8740.172
9032.2693
9095.5296
8172.1131
7683.7078
7818.9307
7774.6087
7601.365
7783.2988
7830.4528
6944.8735
6480.1971
6837.9935
6610.7543
6528.9931
6693.3671
6702.7176
5984.0508
5535.9843
5821.9261
5677.6196
5564.9274
5742.5349
5698.577
5103.5773
4672.8699
4946.8788
4848.3167
4709.3376
4890.7608
4806.6356
4313.3716
3880.9848
4224.1792
4086.5073
3958.9812
4150.4427
3990.7128
3625.8018
3294.8566
3506.0418
3452.0389
3300.6268
3458.3703
3355.3396
3050.6407
2618.8783
2960.359
2860.4275
2740.8958
2962.2845
2726.1113
2441.7576
2275.9252
2432.0418
2404.2873
2325.0764
2330.5448
2156.8099
2164.6473
1750.0553
1985.2159
1973.7825
1759.8555
1762.0296
1699.3396
1360.7297
1293.6666
1652.944
1437.175
1590.7335
1648.9196
1743.1947
1638.3472
1060.2085
1401.4436
1514.7734
1116.6512
1309.7818
890.08882
597.45266
813.54179
860.80849
969.8177
1037.8208
1009.9883
957.67886
1086.9506
729.25599
890.35487
947.85808
667.69598
873.31529
350.8354
306.54229
372.21443
473.27899
628.60663
623.90061
683.24007
310.83317
400.23069
310.78788
344.11005
556.6199
172.73532
478.57567
65.235908
835.32384
553.77363
753.52557
779.66117
802.11028
829.76785
93.990042
-172.13194
29.143733
-98.69006
388.51746
-131.13265
8.3870241
-363.7011
1105.122
538.08404
1245.5943
1150.8259
1139.6264
1345.9034
638.94512
1744.6596
2627.7726
2395
2703.0116
2480.5342
2600.6466
2274.8157
3453.1504
2393.7681
3438.8551
3145.1625
3356.5855
3132.8852
3406.4833
38956.151
30887.027
28323.908
27347.786
27233.708
27610.984
30125.915
41424.104
43943.002
41842.892
41671.162
41725.278
41904.66
42980.039
38950.11
39748.145
40245.766
39515.658
39578.026
38323.621
37935.991
38776.074
40206.983
41002.799
40807.715
40262.394
39480.303
38044.689
36644.029
37007.765
37467.652
36998.056
37041.965
36198.593
35729.427
35669.02
35802.915
34996.292
34812.328
34454.926
34006.293
33983.656
33119.603
33400.373
33246.969
32877.478
32762.513
32593.581
32417.593
31921.824
31774.314
30762.686
30366.56
30319.428
29963.587
30399.575
29996.656
29984.363
29381.922
28947.774
28787.127
28877.458
29121.407
28433.315
27895.572
27204.946
26553.009
26876.25
26589.334
26747.799
26531.205
26433.368
25637.034
25308.464
25270.537
25306.259
25346.088
24904.453
24491.271
23781.016
23226.58
23200.75
23016.991
23056.959
23177.487
22825.953
22247.225
21956.419
21674.468
21774.083
21614.769
21657.718
21084.38
20578.78
19987.232
20004.537
19692.76
19983.864
20241.113
19640.528
19011.938
18567.84
18627.011
17962.121
18219.251
18625.961
17872.667
17419.223
17128.974
17010.052
16602.135
16707.685
17096.125
16546.465
15857.595
15635.212
15487.816
15186.123
15356.123
15647.778
15050.282
14370.462
14429.776
14117.167
13819.956
13709.371
14272.906
13712.302
13132.488
13008.096
12821.191
12455.758
12589.86
12906.24
12455.403
11813.061
11808.475
11524.973
11269.108
11321.579
11585.726
11195.246
10703.374
10592.29
10377.159
10155.675
10092.287
10341.821
10118.336
9616.9749
9548.3907
9342.1017
9042.9191
9065.2551
9280.4744
8932.7835
8558.0346
8480.4711
8191.5255
8092.4819
8043.9213
8237.469
7904.1044
7668.5323
7384.2542
7381.3696
7361.6448
7199.6818
7338.6678
7009.6864
6786.2866
6435.5789
6571.565
6352.46
6220.4297
6583.8486
6165.756
5940.3608
5932.3306
5533.7985
5862.6428
5661.796
5534.0976
5797.8686
5446.6735
4996.3368
5322.8154
5219.7059
5074.5927
5291.4869
4858.0622
4532.6188
4465.488
4534.434
4597.0743
4412.9837
4617.9143
4182.7068
4356.4597
3870.2725
3999.2682
4118.7916
3797.5911
4188.7486
3866.8943
3756.4622
3425.0641
3572.2435
3637.4349
3364.154
3722.8484
3289.702
3392.1895
3042.323
3138.4921
3259.2775
2942.9112
3352.0808
3014.8016
3055.9193
2705.916
2767.0948
2941.7087
2614.8912
3040.8122
2651.3862
2724.1536
2378.024
2508.6065
2684.6453
2331.0862
2761.3679
2418.5256
2477.3919
2207.5247
2261.3288
2398.6141
2060.2395
2610.1545
2205.7345
2251.3327
2010.9573
1966.0275
2206.1667
1972.4441
2252.3905
1872.916
2062.1509
1803.4782
1853.8145
2182.5299
1877.1049
2431.8106
2214.1492
2017.7669
1887.4337
1713.5354
2033.1792
1557.2587
2121.1598
1255.7406
1862.9366
1403.1261
1700.159
1879.0541
1677.5963
2457.8225
2129.8531
2110.0467
1855.5953
1701.4864
2026.1563
1702.4523
2095.9926
1159.4106
1767.3051
1365.2228
1546.008
1858.2373
1533.6068
2213.3115
2026.9076
2136.3547
1927.0391
1846.4204
2054.3323
1854.2005
2407.4588
1494.6297
2002.0612
1581.7276
1610.0334
1948.5964
1699.3018
2126.3602
1911.4303
2164.9822
1985.5055
2124.8326
2337.5515
2057.0017
1911.5779
1388.2927
1812.642
1534.4874
1336.6496
1579.0815
1524.1584
3292.4517
3022.2929
3149.7637
2790.4391
2952.9085
3538.5895
3385.3896
888.29949
526.04728
877.52115
574.16143
463.04204
604.49881
-162.27527
4923.3957
3883.9311
3934.338
3525.6002
3703.7986
3455.4712
4127.6465
14858.196
11566.613
9999.7231
9622.7162
9076.0289
9612.7692
9856.523
13802.754
15339.916
14574.853
14678.535
14516.726
14217.528
14619.246
15591.66
15755.936
15421.028
15735.194
15224.531
15019.302
14545.368
14128.962
15443.972
16479.118
16843.928
16170.398
16234.229
14938.141
14832.561
15216.901
14891.971
14824.369
14447.048
13961.867
14542.519
13586.12
12390.358
12369.262
13468.259
12590.445
12360.255
12532.661
14683.908
12895.872
13309.536
13326.598
12963.082
13869.361
13318.091
13683.284
11751.015
11157.024
10853.914
10808.095
11045.688
10917.821
12990.149
11094.547
11277.552
11271.165
11097.478
11781.392
11558.359
12235.786
10307.228
9979.3024
9800.95
9675.9646
10233.559
10299.652
11596.079
9711.3037
9673.5425
9431.3865
9257.1816
9585.6113
9565.3617
10907.977
8664.6536
8663.2607
8630.8494
8823.6866
9147.1948
9698.9417
9971.8385
8068.4937
8339.8476
8033.1683
8148.8491
8225.444
8693.4337
8982.301
7913.9496
7513.4825
7363.3533
7641.7031
7730.5737
8109.2816
7501.1801
7213.7319
7199.6189
6981.9889
6743.9227
7288.2726
7751.6644
6837.8923
6507.6082
6586.3715
6302.1329
6401.0011
6575.727
7186.9748
6360.6394
5994.3705
6152.462
5838.2962
5751.8996
6133.0832
6771.1198
5739.5954
5391.6024
5621.2804
5283.0803
5319.4219
5606.7256
6026.6582
5308.0058
4954.1686
5163.2035
4852.5957
4835.5094
5114.9936
5800.1898
4760.4974
4371.0124
4618.777
4360.2805
4343.6629
4669.9582
5164.9305
4382.9349
4009.3335
4215.1368
3984.3376
4064.1864
4250.5468
4827.7164
3944.7731
3582.73
3741.938
3533.4185
3523.591
3793.9804
4349.2497
3572.5198
3240.9206
3444.4255
3065.952
3314.8116
3486.4734
4058.9092
3399.3869
2946.8075
3130.6942
2879.3607
3053.4808
2997.6305
3451.9199
3097.7426
2528.7053
2878.898
2616.3729
2816.9875
2597.8011
3348.1504
2790.2033
2346.628
2690.1174
2219.7013
2644.001
2280.5502
2806.1434
2651.8169
2024.7831
2225.0266
1965.2085
2415.2909
1862.822
2552.3708
2212.5358
1798.9172
2144.7845
1840.7498
2073.079
1711.1839
2221.5623
2152.5531
1588.4243
1921.3942
1510.978
2008.774
1475.0172
1957.5415
1935.2223
1431.8566
1570.3957
1407.1326
1726.5382
1204.7726
1748.676
1719.178
1141.1766
1534.5135
1246.2461
1579.7026
1121.3963
1548.0369
1616.9885
1079.1849
1378.3454
1018.5089
1437.4139
911.24331
1343.6184
1443.3517
908.2463
1205.447
949.94889
1323.8309
779.82103
1169.9837
1419.9593
817.45623
1146.3986
839.07049
1164.7267
644.44411
1121.7973
1208.9305
626.12624
1041.1212
711.03496
1087.269
692.39802
901.83651
1308.4239
806.77539
1110.5364
677.21883
1147.2988
470.96811
858.74435
1024.6281
406.58733
768.84418
595.42374
934.83246
462.19502
754.7822
1179.545
688.19439
1142.9026
652.91758
1086.1252
450.29499
741.80756
730.67545
672.10463
629.83656
596.7318
828.90262
399.84854
694.93883
1081.7279
486.11311
923.92927
620.44359
1028.0076
563.5463
697.32406
857.57736
1004.1251
816.18352
822.92948
860.14073
461.56348
574.82677
917.23101
416.05811
690.33391
559.93744
793.48573
656.32718
780.35362
923.59543
1083.6309
896.49273
948.78361
947.89802
734.73445
490.41455
1235.1947
1033.4963
1020.0539
1070.0038
1003.5484
901.9198
1014.1382
1460.0836
1275.9898
1114.0935
1270.7246
1144.8031
1477.293
884.77688
1070.5789
1127.6509
1471.9787
1514.5873
1589.3639
1561.4113
691.08605
3696.9317
2751.7863
2772.6018
2330.1217
2766.4417
2218.3296
2552.78
4968.2384
3963.3205
3252.6587
3097.8843
2770.7785
2635.2592
1761.3327
3652.0808
5857.2388
6162.1003
6615.6091
6459.6791
5726.6098
5173.8358
3822.8891
3959.856
3643.7766
3837.2264
3671.3612
3277.3792
2238.6789
4382.3371
6937.4552
8582.5433
9317.6557
9270.7795
8429.7444
7119.4793
3993.1495
3990.925
2712.6804
2316.93
2064.4901
1987.4667
2230.6002
4324.4691
5338.3486
5470.4149
6132.939
6337.2708
6610.615
5495.8597
4008.3674
3720.874
3443.5943
3562.1318
3325.4924
2736.1936
3759.1473
4808.3317
4119.0556
3550.1893
3781.5864
3367.9852
3650.2745
3698.045
4209.768
4026.4669
3825.2222
3879.373
4317.4944
3798.401
4766.3557
4523.0211
4258.9893
2798.4572
3076.4667
2533.4868
2363.3564
2676.5658
3917.4282
3749.3094
3667.9119
3586.8988
4264.9342
3945.9654
4716.6601
4060.0866
4162.5183
2862.426
2821.5485
2933.3733
2568.3492
2896.9627
3898.4844
3805.7032
2831.0465
3319.22
3517.3055
2956.7569
3448.7834
3925.9388
4318.4151
2527.1119
2962.6118
2959.6645
3052.5069
2914.5044
3411.9967
3824.5727
3306.9676
2716.8552
3085.4765
2687.6585
2847.5898
3327.5197
3579.7767
2884.6021
2537.5295
2849.9988
2823.4848
2786.8169
2987.5671
3370.7395
2912.9669
2427.5907
2852.6004
2490.4907
2674.5314
2890.2352
3224.4713
2641.7089
2287.4788
2640.3146
2529.7785
2592.4268
2621.3461
2945.5909
2565.9508
2110.8294
2580.8131
2272.0487
2436.9154
2582.6003
2894.2861
2324.1572
2002.2955
2388.7332
2168.8894
2356.5992
2587.3045
2525.3721
2263.8645
1907.1349
2206.1713
2022.1262
2148.5257
2570.3956
2454.3865
2089.221
1703.4644
2063.6876
1880.0473
2085.3267
2698.3588
2247.3223
1760.7417
1786.995
1951.5352
1752.39
1806.0801
2561.0177
1822.6902
1717.4726
1541.5706
1723.2704
1622.2598
1924.4143
2468.1839
1696.2706
1683.6928
1210.1084
1503.2123
1541.8088
1673.2891
2478.0609
1434.0265
1373.0085
1167.1609
1268.2327
1397.8443
1604.8172
2254.1983
1219.2754
1305.5434
1130.7913
1054.1564
1318.2922
1431.5647
2178.0939
1137.3689
1362.7778
932.76354
1149.9546
1198.3009
1464.9594
2031.5444
1049.4027
1017.4291
962.67638
811.54877
1093.1019
1307.6398
1863.587
946.76986
1116.6756
874.66667
849.7629
1106.3605
1247.4833
1781.0359
914.14513
952.4432
832.15863
739.8053
1014.597
1182.3589
1707.931
890.66729
969.51149
812.62798
663.00916
985.3538
1044.1744
1592.2927
797.45602
867.66737
727.92719
675.6058
977.38685
1135.0503
1523.1554
780.79707
876.8463
797.58141
629.469
963.95297
998.92802
1511.6314
822.55068
905.8897
736.14769
647.85346
944.37683
1035.7732
1293.2808
693.10978
691.65274
726.15105
605.69101
864.0826
1020.5522
1562.7812
868.0958
950.39699
919.9337
570.92305
1044.5985
1022.3168
1087.4697
638.38091
805.79867
590.51433
610.18417
847.11825
1041.5614
1475.0485
985.44583
964.37615
1021.2747
732.39926
1185.1704
1199.9306
1219.5634
609.71506
995.57722
695.88885
677.25053