/*--------------------------------*- C++ -*----------------------------------*\
  =========                 |
  \\      /  F ield         | OpenFOAM: The Open Source CFD Toolbox
   \\    /   O peration     | Website:  https://openfoam.org
    \\  /    A nd           | Version:  6
     \\/     M anipulation  |
\*---------------------------------------------------------------------------*/
FoamFile
{
    version     2.0;
    format      ascii;
    class       pointScalarField;
    location    "1.49";
    object      E;
}
// * * * * * * * * * * * * * * * * * * * * * * * * * * * * * * * * * * * * * //

dimensions      [1 -1 -2 0 0 0 0];

internalField   nonuniform List<scalar> 
3969
(
42893.64
37941.667
7132.0507
6389.8846
48524.718
39631.942
6700.1873
6888.2417
20500.541
8185.4688
2528.1683
1904.4715
5568.1934
14299.326
30782.4
8902.243
6822.9104
6267.0089
5704.7833
5059.8977
5575.3533
7421.5874
40145.757
32742.342
32581.304
32945.633
32284.187
31845.454
30058.961
29254.377
26771.014
25405.058
23891.974
21880.405
20497.203
18348.313
17070.961
14738.389
13602.318
11584.081
10342.39
8551.517
7200.773
5857.5722
4660.2096
3809.4385
2783.6114
2348.6287
1549.561
1005.9688
762.24045
349.52254
100.842
34.787565
-97.286719
-34.303304
188.34968
569.38367
1014.9542
1572.8281
2143.3603
2504.8953
3579.0399
3732.6868
5200.4149
5101.1066
6893.1723
6274.2542
7647.4124
43181.812
28058.173
38822.932
33229.107
37045.488
33039.038
34048.872
31374.819
30128.064
28713.388
25832.289
25223.466
22881.375
21412.832
19388.317
17697.063
16446.148
13973.866
13209.196
11183.482
9988.8224
8876.7256
7419.0673
6941.6891
5862.6625
5810.3378
4253.0114
4469.4347
3932.1804
3206.9777
3487.98
2894.4612
3207.3902
3099.8425
3499.1908
4036.2513
4514.0784
4728.0517
5504.9384
5861.6342
6722.5205
6727.0951
7440.6638
7428.5251
8141.1662
8221.6678
8274.8867
25547.328
10797.727
3509.4278
3849.8709
4883.3805
12047.497
26690.885
59107.666
47719.297
26697.752
45174.067
37317.3
38283.66
38554.284
33200.877
37178.726
28167.995
33451.622
27343.116
27217.12
25636.598
21840.985
22173.568
18063.536
17616.789
15164.178
13647.513
12184.861
10648.052
9594.7505
8123.9997
7706.9379
6543.3392
5631.4266
4575.8934
4347.2361
3794.467
3430.2072
3423.4468
3299.729
3441.3627
3192.5718
3228.2898
4392.9833
4086.7585
4241.4168
4573.9493
4560.2086
5171.2134
5146.8447
5622.8981
5830.2843
5851.9604
7096.4551
8398.1242
4643.1481
7460.7502
3796.4968
6826.7819
5328.2287
9087.4944
8524.9148
6087.4885
6590.619
5550.3333
4836.4346
4173.0473
3521.1496
2865.633
2462.2313
1965.7894
1792.9451
232.68616
341.53519
-38.927912
-253.84954
-399.65576
-396.6954
-152.3855
77.779883
707.60728
1152.5135
2042.0059
2654.3575
3524.5233
4473.2296
5567.4994
6824.0507
8078.3075
9793.8259
11029.794
13209.338
14588.088
16988.45
17424.294
20091.056
21691.992
24398.109
25394.289
27578.64
29110.322
31543.438
31457.466
35635.759
32258.663
34704.808
32005.291
51601.313
26895.719
28714.015
27767.581
28582.826
28099.963
28155.178
28707.597
25345.69
26565.433
28089.828
28969.85
28925.782
30475.631
25627.06
6437.3391
6852.3938
6771.3691
6875.4741
6872.1109
6881.0082
6808.3695
7482.9961
7414.9788
7419.7773
7461.6136
7427.1797
7468.6115
7466.7155
26026.903
18268.68
20122.054
19235.387
19338.242
19497.051
18156.96
18106.776
16766.501
16432.161
15309.424
14235.739
13520.185
12369.915
11463.299
10604.361
9975.2305
8973.3874
8341.5562
7482.0961
6795.9522
6033.6064
5472.6609
4557.6601
3942.9346
3323.9847
2634.4147
2321.2733
2102.6959
1841.1497
1843.6429
1755.4456
1577.2036
1600.4822
1503.4687
1509.0469
1675.6418
1612.9381
2029.4495
2255.8151
2884.6906
3367.7105
4222.3065
4355.087
5911.7216
5398.3417
8591.3852
10855.407
7202.129
8402.6311
7615.2902
8017.1255
8193.1963
7377.3451
7756.0457
6806.534
6628.8165
6105.7002
5692.4272
5315.449
4598.3637
4416.3128
3911.0031
3652.1128
3120.3645
2892.7456
2570.7496
2314.3812
2245.4365
1787.634
1762.1295
1532.8522
1266.2608
1023.3024
948.08768
586.24999
592.29602
559.51137
414.27076
447.09319
407.6618
427.10601
518.38583
735.62719
722.41216
1366.8075
1386.8838
2573.4136
2474.1601
4246.8615
3945.8525
6574.8347
5040.149
9720.7354
4403.1239
413.18003
2620.1257
1133.8121
1913.833
1808.515
2168.2322
2314.482
2161.7194
2859.6268
2434.6072
2742.8975
2359.4668
2520.372
2086.336
2051.0782
1998.8883
1848.4142
1999.7846
1584.7752
1445.8701
807.84286
803.1715
595.32761
405.10885
219.52146
460.3575
171.7626
440.78038
566.16018
525.49895
707.95122
717.16422
853.89495
1014.0025
1311.1414
1651.3698
2321.4346
3094.1354
3627.491
4118.3766
4726.2617
5411.099
5395.8329
6595.8648
4977.741
10245.23
3040.8036
187.80431
1365.4753
1063.7122
1111.4839
1482.8863
970.12981
1144.6976
998.85044
511.48395
494.51156
671.60244
206.05958
662.11564
66.843822
754.14517
139.38147
696.06287
179.98909
385.57217
504.24654
1001.0975
1303.2294
1304.6772
1284.7842
1587.9762
1305.7877
1345.8004
1352.2505
1258.14
1274.7495
1308.9096
1259.6402
1364.1549
1374.715
1462.308
1693.4993
1552.5684
1458.7172
1182.3965
2213.0858
2049.5792
3354.8728
3153.906
5411.9643
4777.8111
10409.23
7530.5669
3966.7927
5837.7847
4259.9693
4611.4468
4354.7865
3701.7359
3921.8489
3468.3992
3126.388
3567.6088
2708.7582
2747.141
2141.4131
1998.2013
1501.8307
1245.0807
975.65239
676.89798
554.33285
520.85884
-10.827801
-503.63384
-748.79435
-691.51501
-1125.9687
-1303.2095
-1255.0437
-1331.9739
-1275.7081
-1268.5213
-1073.171
-1047.6616
-763.11022
-637.12537
-226.23549
93.208922
715.57636
991.48723
2571.5145
2897.167
3921.39
4599.0931
5549.9648
6682.2582
6191.4727
10250.968
16961.247
13447.403
15290.825
14750.212
15173.587
14805.167
14420.477
13588.831
13336.12
11887.37
11791.008
10745.886
10244.122
9500.9288
8589.3574
8210.6482
7206.7011
6801.3555
6054.6627
5336.5843
4997.9982
4456.5952
3834.8747
3699.7339
3320.1365
3126.9472
2970.0261
2796.3829
2541.4517
2498.6344
2424.9601
2265.4295
2319.5866
2392.9621
2358.8303
2704.8356
2821.3224
2866.4521
3653.6661
3099.7791
3409.8762
3487.5747
4074.2236
4293.6646
4876.3177
5513.0683
8814.9238
25212.976
21438.4
23445.021
22730.522
22727.983
21941.883
21038.963
19411.063
19741.409
16626.61
18061.599
14683.778
14765.947
12501.635
12039.008
10445.884
9716.6129
8631.2965
7593.5359
6820.5208
5698.8293
4718.547
4045.2362
2756.3929
1472.2918
746.31845
161.89948
-336.52112
-586.88997
-691.89606
-880.79493
-833.8457
-1000.5632
-948.07548
-1172.9206
-995.81362
-1095.1611
-346.99374
-357.85155
463.03354
1212.0371
2503.2222
3423.7082
4744.9405
5755.6272
7457.7164
8590.0086
10676.892
11496.815
9064.2886
8951.4887
9431.1452
10247.207
13745.107
4436.3165
4535.8706
3160.0041
3566.5454
3673.0613
4407.9424
5886.9065
1110.5612
308.9369
-454.67313
-135.89373
-301.84248
199.02692
1228.992
620.58526
-46.992689
-178.34961
-217.28281
24.553131
720.1975
1873.902
1952.8639
983.05241
705.31093
588.81575
806.16188
1450.3289
2721.9166
7830.8028
5229.6133
4813.82
4240.7359
4631.5282
5429.4817
8130.9143
15348.935
15060.453
12604.921
12687.512
12547.588
13395.303
17748.652
48844.699
44954.61
47994.187
51153.03
50975.286
53119.526
51177.019
42046.41
43089.401
37881.09
36013.418
41960.452
41633.573
45432.528
34812.651
35893.223
38917.284
37452.021
36586.747
36474.023
40625.045
39334.626
42067.616
39164.777
40294.801
40699.188
42546.925
38773.828
36602.394
37123.707
39554.957
38604.336
38522.229
38133.403
40364.057
38396.3
36495.822
35910.924
36938.386
36114.81
36615.722
36451.339
34979.564
34808.963
36818.459
36112.117
36823.138
37524.622
38687.185
35083.734
33554.571
33457.441
33151.998
31810.255
32241.292
32947.39
32895.528
31488.262
31943.254
31980.416
33744.867
33843.832
36400.857
30525.841
29658.814
29002.65
31108.949
28832.817
28976.544
30130.019
30300.177
28498.394
29785.016
27190.56
29259.035
28725.94
30788.212
26749.969
26858.265
25406.14
27564.595
27186.411
24828.028
28468.347
27179.841
24084.87
25735.925
23565.329
24150.187
25287.424
26069.404
23355.545
22720.678
23684.146
22342.668
25034.991
22283.294
25996.644
22955.461
21595.684
21153.875
21052.309
20640.583
20358.628
22056.729
20646.31
18264.782
20451.168
18423.692
20636.935
19287.716
21938.907
18273.424
17784.09
17993.123
16750.983
18097.723
16616.276
18807.059
17163.446
15089.049
16701.936
15273.206
16749.675
15566.237
17431.12
15009.649
13679.029
15176.633
13152.785
15027.273
13378.514
15764.583
13465.763
12233.734
13395.927
12176.281
13541.826
12327.948
14095.667
12145.096
10573.878
12269.187
10368.755
12017.589
10476.087
12653.194
10465.969
9524.0225
10652.039
9253.7448
10612.639
9305.9355
11388.718
9526.806
8281.6662
9499.6132
8131.9061
9498.5629
8312.1167
10491.158
8223.7716
7624.0314
8340.8079
7412.7143
8314.9209
7077.8659
9225.1028
7434.8762
7192.7753
6917.6561
6947.2501
7249.9814
6667.204
9043.3953
6791.7657
6487.7684
6169.8594
6474.9535
6213.3779
5964.4834
8184.2888
6509.3551
5736.3091
6128.8103
5269.9278
6994.6475
5503.8709
7886.8142
6466.7572
5073.3863
5841.9795
4823.0381
5594.8224
3892.1714
6963.201
5010.1483
4953.7385
4482.9025
4612.4483
4787.2565
4354.5456
5997.5799
5276.005
3752.5612
4724.2914
3928.207
4654.6307
3553.8651
5465.0225
4168.7224
3994.8502
4003.5761
3773.4153
4037.2745
3425.4276
4883.485
4422.8762
3578.0466
3978.9075
3562.3283
3972.4032
3313.5944
4712.5376
4052.0443
3611.5338
3837.3095
3611.2292
3830.9344
3294.679
4701.5151
4289.7735
3792.1242
4013.5987
3653.8917
3785.3085
3396.2266
4806.2384
4399.2645
3956.5066
3923.723
3812.2268
3855.1325
3627.0243
4812.5076
4911.3692
4344.5891
4390.3609
4097.3614
4000.1998
4560.6673
5357.9508
5030.1105
4478.5178
4401.4004
4302.9475
4753.9116
3271.7337
5542.7086
5315.3009
4133.1714
4303.7441
4053.8616
4031.9536
4407.8871
5591.5084
5784.831
5289.3394
5257.4561
4784.932
4947.1074
4338.7983
6264.425
6430.2423
5497.4195
5268.4634
5249.6022
4977.6426
4798.4485
6559.843
6475.5573
5631.1064
5662.3078
5282.5986
5317.8602
5041.7028
6447.9672
6841.1852
5860.8022
5755.4545
5716.1027
5546.5777
5387.1269
6695.1891
6797.7823
6032.4008
6152.3443
5900.1301
5754.1241
5732.262
6764.4469
6791.837
6398.3245
6179.5531
6193.828
5950.4639
6196.8307
6790.2246
6990.9063
6563.1068
6506.1377
6460.15
6346.6751
6545.3477
6903.8047
6875.1852
6922.5576
6600.5779
6777.7424
6515.779
6840.9236
6890.1111
7116.1485
7187.3271
7100.2258
7086.8122
7235.5346
7199.9143
7493.7767
9569.0422
9493.9584
9404.3826
9506.0335
9376.5058
9332.7081
9224.4492
4202.8224
5869.0413
5548.6345
5623.397
5392.762
5653.2235
4478.1893
6480.3825
7012.2335
7408.8616
7437.3345
7366.0518
7270.6274
5864.199
3816.7966
4500.4202
4390.8369
4565.9806
4085.001
4700.1364
2851.7515
4984.5894
6992.6979
7178.8672
6857.8987
7440.1394
6986.2761
5487.9826
6035.3821
6399.4319
5919.7838
6250.328
5522.3084
6084.2474
4552.4524
7959.2594
8377.4121
8360.2861
8364.9405
8261.0675
8286.7152
8016.2927
39103.249
35715.912
33982.102
33008.349
33801.68
35255.068
34628.837
37347.63
34518.941
35141.899
35310.569
35106.561
35313.503
36828.983
38445.053
39888.284
38905.097
38220.523
40055.918
38463.82
38981.498
36276.699
37270.974
37442.813
38517.967
37289.563
35610.335
35995.813
37119.878
37465.462
38660.381
38106.46
38474.959
36811.856
35923.974
33212.139
34239.79
34190.379
34195.571
33814.562
32057.259
32398.511
33991.753
33614.383
34298.418
34065.54
33881.064
33076.19
32487.795
30093.42
30241.405
30219.26
30017.117
29556.131
28690.26
29134.82
29764.489
29438.257
29993.54
29014.209
29691.712
27588.875
28953.03
27416.597
26576.987
26754.139
26262.273
26124.085
25238.677
25857.645
25523.152
25206.346
25631.577
24976.402
25080.205
23642.622
24390.348
24052.319
23146.855
22943.872
23093.588
22669.442
22132.022
22655.035
22056.732
21483.316
21847.384
20944.959
21252.357
19717.855
21084.148
20476.677
19541.64
19352.495
19191.74
19114.641
19362.101
19507.539
18802.885
17832.716
17913.63
17802.75
18124.677
15957.83
17985.816
16695.803
15920.866
16215.064
15097.296
15762.09
14948.499
15525.997
15087.588
14616.68
14433.718
14254.794
14304.855
13081.66
14384.925
13462.986
12486.135
12930.487
12153.135
12266.022
11390.977
12209.178
11623.349
11188.109
11248.27
10553.523
11029.532
9887.2469
10883.148
10145.746
9504.4591
9575.4645
9172.8056
9217.8708
8252.7881
9158.7142
8527.5543
7927.8317
8226.3626
7481.4095
7827.695
6938.5301
7814.1264
7172.7681
6688.6665
6690.6991
6206.4157
6464.978
5464.2427
6443.1626
5920.1135
5149.1664
5390.6274
4871.1857
5093.6016
4279.4548
5438.9864
5007.1592
4285.0553
4397.5448
3888.7979
4123.1854
3403.5833
4610.7353
4202.7437
3384.5809
3492.4762
3073.3129
3284.3895
2556.5294
3917.1527
3883.1757
2666.8873
2977.0485
2422.9848
2731.5785
2017.2832
3534.4471
3194.9759
2104.4403
2312.984
1837.6781
2125.5097
1385.6226
2948.6927
2826.2279
1614.253
1839.4836
1447.7972
1849.2525
1045.6456
2642.5451
2282.3187
1007.9197
1526.1622
899.26716
1325.17
519.64078
1972.9392
1736.6671
881.14022
979.1375
554.97812
1058.9982
250.1185
1607.6544
1535.3022
401.5009
742.57718
343.38358
842.24562
-17.598784
1272.2624
1245.4712
376.63389
626.35883
227.41806
633.58681
-76.210701
1082.8782
1215.0825
350.69644
568.91475
184.43918
667.78563
-55.679372
1051.4698
1322.5233
495.56347
625.30536
407.26881
685.46414
203.56681
1252.3885
1570.8984
682.95515
901.32097
612.48245
835.35309
503.57045
1351.3965
1879.9726
1167.4576
1266.7962
913.15717
1282.1074
1138.5993
1803.3569
2478.2866
1458.2752
1293.8981
1352.9452
1793.6536
650.34152
2878.875
2655.1538
1974.8382
2117.036
1842.3803
2169.5309
2367.132
2839.3297
3614.7458
2979.952
2834.6358
2739.2697
2938.4918
2438.0516
3794.9253
4248.0821
3299.0807
3231.5756
3422.018
3263.5123
3310.1433
4250.1493
4869.9607
4085.6508
4191.5299
4066.8146
4116.9151
3934.5126
4588.2756
5018.9058
4382.7478
4268.2904
4299.4942
4308.5524
4305.0465
5057.3077
6007.1383
5501.9975
5369.8081
5530.7093
5390.7108
5426.6978
5493.1169
5731.5633
5145.315
5166.444
5110.3057
5001.9924
5129.7692
5576.0602
6998.325
6902.2871
6701.162
6795.1476
6672.106
7094.5308
6864.8981
6079.5053
5853.8023
5822.3794
5720.9533
5806.632
5813.8174
5750.6384
7968.6343
8066.2446
7925.9393
8011.2123
8000.0862
8014.5946
8009.4354
44640.659
28509.348
25105.134
24315.729
25236.79
24289.024
23242.733
22377.311
21172.461
20541.136
19469.886
17358.687
16589.426
14603.403
13359.921
13109.791
11242.497
10750.63
9328.582
8828.7915
7652.7581
6996.7417
5921.8745
4924.3814
3686.8498
2767.3129
1812.7042
1262.7593
843.96721
638.93238
613.67681
657.23772
681.26723
688.57036
907.81979
189.11493
906.76293
708.57018
1180.6684
1314.1031
2216.7807
2963.0458
4026.6745
5098.8136
6373.6745
6665.4789
9478.8379
18921.027
17719.859
11426.56
11624.124
13711.272
10408.333
12408.745
11332.464
11208.925
10813.548
9956.0772
9518.8889
9173.5656
8487.8361
8119.8018
7483.7513
7048.3713
6225.0312
6010.9144
5334.0278
4900.641
4385.0851
3808.841
3401.4756
2905.1554
2553.8184
2564.1164
2607.6029
2574.9155
2545.2854
2496.7112
2489.3531
2439.2103
2609.1565
2596.75
2646.7449
2972.3344
3345.1728
3962.5605
4184.3293
4878.0557
5174.8598
5911.0386
5732.2867
7206.3892
4684.475
11136.212
6194.9269
4916.4593
2794.8806
3368.3638
3133.0434
2287.3279
3638.7878
2158.7111
3442.3118
2480.8149
2628.1373
3166.3595
2117.3783
2198.242
1990.7732
1709.0525
1688.3065
1543.8271
1264.9187
1173.7222
912.46637
738.29798
571.15942
232.85242
222.1821
-203.39491
135.34026
-344.73101
-139.05553
-273.66138
-184.16219
-290.40148
-91.114925
-68.507095
128.61969
457.21828
713.02859
1197.6144
1718.5191
2346.4773
2893.726
3896.4684
4351.5433
5628.4385
6480.5634
6744.2874
12080.259
2223.1696
2511.4263
-888.27796
3235.1124
-504.75927
3032.4557
-1201.9017
2247.2561
105.40666
667.79041
1402.4984
-43.563165
794.47659
2322.9659
1474.0483
1991.8073
1751.3398
1612.4351
1708.5616
1660.8062
1645.1249
1623.9191
1529.5914
1791.803
1881.0421
2192.0813
2024.5426
2246.3196
2229.7136
2252.7397
2262.6572
2330.8098
2445.3172
2470.8537
2760.6877
2907.7753
3173.6922
3450.441
3946.7615
4074.907
4811.4833
4867.0669
5816.6795
5497.3127
7336.5764
4816.776
12139.107
6007.525
2399.5167
3903.9938
3169.9243
3567.3379
2945.9803
3160.8014
4220.0686
1597.1012
4633.0103
1421.5839
3620.4748
2503.8472
2504.1842
2268.568
2269.6039
2095.0633
2181.497
2017.6475
1986.9374
1863.2274
1666.0066
1774.5006
1321.643
849.46661
388.67825
248.15652
162.64666
185.08369
123.78494
185.19171
158.79481
199.66867
368.4631
614.04655
702.25448
1112.3302
1542.2663
1729.6169
2688.8656
2850.7672
4042.8696
4292.9178
5701.4455
6214.8379
7073.0747
10775
12973.501
12971.989
9041.8205
14250.131
9466.1173
12966.56
12233.057
10164.663
13119.173
10747.138
11060.431
11825.213
8773.4191
10444.548
8444.2471
8520.5212
7563.8496
7099.2256
6460.7173
5849.7415
5283.8005
4723.7159
4466.8602
3721.3892
4528.4375
4438.4406
4762.4903
4486.8402
4421.0695
4178.9118
4125.732
3838.1862
3692.3915
3724.3102
3663.8319
3689.5309
4091.9205
3879.9111
4751.0063
4560.4915
5213.3809
5249.1034
5935.7222
5661.4109
7022.9659
5661.5852
9968.7909
33672.857
19967.196
26210.125
20439.304
25323.072
22045.086
22686.958
20768.382
21457.744
18776.68
18000.4
18686.222
15090.636
16094.007
12897.769
13446.704
11610.863
11008.331
9836.5197
8850.9504
7687.9164
6501.6077
5351.4966
3907.8435
3256.7275
2042.7802
826.71666
687.55348
204.02387
266.85576
3.5840018
-278.18754
-449.85583
-599.53434
-966.6643
-937.40848
-763.04916
-212.63172
-147.64919
1044.7888
1814.6652
3043.5241
4049.5702
5422.1272
6511.5843
7714.606
8611.3339
31213.239
26622.555
25977.982
25363.56
25746.128
25205.519
26288.547
26708.867
28452.271
25853.185
25772.009
25155.798
25770.373
26644.284
25248.513
27473.056
28009.373
27434.209
27449.065
27129.807
27199.375
24741.162
25763.282
26096.769
26393.685
25772.265
25521.971
23668.289
23873.098
25498.162
27162.169
26254.256
26782.415
25427.519
24429.091
23100.44
23878.169
23850.475
24831.55
23909.421
23604.171
23170.82
22303.554
22669.857
24243.99
23117.514
23259.757
22777.793
21750.744
21122.418
21812.885
21665.966
22091.802
21964.297
20785.619
20893.594
20289.84
20709.132
20971.16
21300.489
20475.529
20580.45
19755.29
19064.231
19353.617
19532.573
19070.233
19064.628
18568.918
18302.889
17842.703
18692.549
18406.255
18786.792
18447.986
18189.457
17997.014
17139.917
16984.278
17364.561
16722.312
16620.214
16265.003
15989.577
15808.14
16296.936
15855.722
15999.069
16033.817
15359.062
15423.302
14864.575
14836.101
15181.38
14678.672
14861.922
13658.326
14352.262
13542.295
14014.127
13160.56
13606.16
12911.373
13392.32
12643.538
12901.904
12940.732
12703.945
12845.834
12434.872
11923.55
11751.075
11414.847
11561.757
11264.59
11477.446
10934.812
10845.928
10705.251
10559.633
10695.853
10470.735
10509.683
10174.529
10258.114
9852.3705
9595.319
9595.4895
9316.9604
9414.2604
9212.6988
8907.1019
8614.3634
8647.7806
8774.777
8456.2541
8687.0447
8203.7878
8226.4486
7996.0454
7943.999
7861.7144
7693.7784
7673.3304
7406.2921
7321.6975
6960.7708
7096.6323
7027.4831
6884.4459
6963.8726
6651.3508
6637.3917
6302.8615
6509.8182
6326.083
6338.1716
6209.6044
5932.5883
5709.6019
5539.1843
5686.0441
5346.9453
5565.4655
5465.9827
5181.8111
5138.2282
4930.8835
5150.3487
4607.7253
4854.7466
4744.4539
4432.0945
4185.7488
4091.6844
4240.4612
3708.2528
4167.362
3859.7268
3710.035
3443.7648
3512.7391
3707.0232
3035.196
3448.2858
3220.9171
2961.1085
2894.7325
2736.2247
3214.7631
2537.769
2692.1955
2627.6608
2477.2284
2070.4425
2203.5077
2650.0831
1679.4939
2588.2584
2197.7533
1985.2755
1763.6409
1845.0137
2328.9122
1888.1302
2096.2966
1803.501
1774.8985
1456.2649
1529.2262
2203.7632
1351.0686
1856.4304
1761.9952
1593.3669
1225.0386
1347.8461
1850.7092
1350.2451
1821.2851
1583.4988
1372.7197
1153.3081
1267.3451
1840.8457
1349.0286
1700.9082
1578.8384
1443.6705
1199.0202
1288.4278
1786.6912
1279.312
1659.2057
1577.1592
1371.9456
1248.7522
1232.4813
1721.5504
1389.6039
1729.6234
1691.8139
1601.4015
1274.1287
1333.6735
1964.0153
1475.4982
1685.3957
1767.5995
1445.8764
1423.3862
1561.9689
1911.5426
1269.4849
1774.3927
1689.9208
1829.6665
1363.9172
2167.2616
2178.6189
1729.5577
1906.9343
2382.4261
1664.4897
2157.5563
1335.1598
2235.3245
2091.5467
2101.1325
2391.9441
2066.7136
1739.6504
2183.2546
2666
2170.0909
2055.6005
2679.9097
2004.248
2463.1164
2217.3299
3056.3722
2700.6752
2689.0437
3141.6066
2665.8573
2820.321
2669.3249
3719.8961
3305.3455
3156.7033
3675.4123
3102.0712
3467.4297
3266.6866
4410.4108
4189.5398
4011.0241
4594.6568
4062.2395
4416.4098
3913.6812
4964.1404
4601.8491
4581.0279
5000.0049
4436.6192
4811.4046
4654.9841
6498.2215
6450.8587
6327.9674
6711.3327
6268.2414
7032.7713
6138.1665
6484.8167
6308.1417
6361.1267
6603.0463
6368.4923
6446.3734
5765.2311
9208.7347
9070.6567
8978.4312
9055.2868
8894.5927
8914.4068
8986.5658
12997.87
10230.754
9281.1066
8980.2223
8600.9951
9015.8145
9603.486
12544.181
14559.03
13320.965
13957.841
13880.394
14238.161
14484.385
11654.568
12232.483
12428.345
11973.441
12368.989
11417.86
12030.279
11066.951
12516.99
13270.236
13695.961
12996.088
13063.605
10827.229
11497.207
11894.335
13197.4
12410.595
13261.014
11783.506
11779.61
10912.027
11475.413
10814.866
11405.995
10415.172
10591.706
9882.6564
10867.706
10747.939
11925.239
11485.052
11697.696
11410.076
10058.155
10513.12
10812.285
10044.475
10359.461
9993.8225
9664.6022
9449.3515
10297.739
9730.8368
10200.61
10206.963
9503.9734
9942.4971
8866.7253
9903.3627
9520.5308
9587.7454
9235.5095
9559.6166
9148.1893
8895.4031
9608.1918
8986.6006
8989.6675
9233.2232
8437.4449
8766.5743
7773.3394
9046.3163
8389.1317
8354.2959
8179.5694
8162.1787
8042.3783
7809.5701
8683.9563
7922.5882
7901.535
8556.1036
7631.9494
8263.8774
7009.1464
7970.0639
7023.1812
7469.9441
7123.2161
6804.4172
7086.5335
6781.3584
7563.4058
6973.4712
7115.0706
7028.5845
7072.3284
6809.9964
6588.7701
7104.791
5841.3723
6588.6136
6081.6782
6174.2132
5968.7788
5800.418
6387.2933
5976.8016
6041.5351
5861.2149
5929.9024
5733.886
5756.9279
6171.0548
5248.3967
5503.7844
5363.8664
5269.5972
5214.2627
4956.757
5475.4932
4877.9778
5092.2926
4863.0309
4954.381
4728.8477
4687.3441
5189.0626
4503.2707
4577.7564
4552.1702
4394.8941
4282.8797
4299.8255
4485.6945
3918.1932
4158.982
3958.5796
3971.1255
4004.8932
3843.7031
4107.2476
3875.5116
3774.3169
3684.3015
3723.1756
3455.808
3536.5703
3593.8441
3210.3567
3183.1324
3249.2076
2979.5432
3263.6909
3210.3373
3353.6352
3018.349
3016.3759
2751.9049
2815.4722
3209.6444
3016.4252
2954.5308
2648.6295
2705.2574
2292.2471
2506.0999
2584.74
2380.016
2922.9703
2475.131
2281.138
2394.2033
1921.9377
2623.5792
2541.7599
2474.1445
2282.2051
2307.6069
1672.6847
2375.8113
2325.8547
2401.365
2683.1697
1461.5836
2064.0303
1948.3741
1862.6966
2268.6947
2084.0777
2212.0704
2031.4385
2237.5425
1526.4868
1713.9363
2238.5858
1822.4904
2283.0485
1861.7328
1822.9278
1466.9428
1798.3893
2092.4946
1706.192
2068.9123
1543.72
1766.0004
1549.4956
1555.749
1971.0939
1686.0239
1930.9749
1742.9043
1936.2011
1561.4301
1599.7586
2171.7356
1719.8451
2035.5528
1685.2006
1782.2784
1463.6277
1657.7583
2103.637
1650.3616
1989.4661
1762.9314
1923.4154
1783.7277
1758.0465
2167.3934
1794.2827
2197.4298
1871.0626
2056.0118
1790.6128
1730.1317
2374.3984
2095.3072
2306.6796
1989.2737
2176.3431
2083.7637
2020.5085
2641.4565
2031.5649
2785.2724
2419.4795
2450.9077
2460.7378
1963.9503
3062.8141
2237.5026
3162.7466
2256.2459
2739.1934
2544.7404
2605.7949
3129.7969
2655.5606
3742.1025
2997.6867
3362.8901
3131.7097
2905.2985
3501.7661
3015.8633
4047.1833
2771.0213
3629.4652
3183.2586
3327.4306
3939.3516
3516.9788
4779.3948
3873.969
4558.3359
4195.4179
4107.131
4518.5627
3863.4621
4904.5989
3675.583
4521.4145
3980.7189
4071.7013
4509.1642
4320.0545
5910.0907
5138.3219
5746.1805
5498.2796
5507.0937
5806.6681
5174.5502
5681.9896
4725.3004
5345.3153
4947.0499
4797.74
4916.6744
4948.1432
7494.8485
7068.8605
7380.6791
7175.3191
7184.0511
7659.6656
7138.4081
5678.899
4921.0457
5270.5236
4915.4841
5004.9321
4567.1681
4033.2861
9914.4538
10240.606
9641.1972
9625.5911
9560.6932
9720.0879
10044.788
4967.4361
4252.76
3557.7015
3432.234
3126.4093
3343.6469
3175.4793
2546.6813
3381.0411
2894.4958
3150.153
3169.3871
2927.2733
3417.3677
4200.3515
4022.257
4019.7425
3885.9679
3618.5444
3365.525
3486.6523
2486.3868
3149.4948
4240.5333
4709.5824
4493.0905
4593.7117
3395.7676
4232.6505
4387.2729
4707.9735
3609.0116
3889.9976
2625.2969
3585.1487
3028.7749
1964.2714
2408.7161
2889.4959
2780.5482
2874.2081
2523.7256
3646.7486
3350.3904
4546.6397
4296.4403
4530.5635
3906.3202
3868.7428
3336.0711
2399.9946
2315.2934
1906.754
1987.9389
1909.5225
1933.1917
2913.4109
2619.8819
3368.5426
3645.9831
4127.1304
3577.3196
3503.7094
3316.4492
2603.2426
2524.7922
2262.0568
2092.2703
1964.5327
2042.5657
2622.7565
2229.0963
2639.3347
2502.607
3041.1249
2436.8804
2677.5455
3073.6575
2303.5195
2374.613
2375.2896
2542.0789
2358.8171
2472.7872
2640.4078
1679.316
2723.4057
1866.6119
2604.0389
1671.4813
2534.9078
2695.8176
2168.0132
2687.1354
1944.0236
2572.048
1791.9038
2311.0693
2938.6692
2062.5326
2183.2788
2080.8171
1832.1157
1791.1854
2011.3576
2696.1657
2112.3402
2206.3357
2058.8664
2007.922
1602.0676
2213.7973
2864.2991
1803.6265
2022.0919
2072.0169
1567.3472
1589.5427
1897.1659
2563.0172
1498.5119
2035.4386
1688.9659
1539.5569
1457.8763
1898.816
2619.5829
1606.8041
1805.944
1675.2067
1393.4666
1301.7468
1661.0708
2351.122
1157.9303
1642.9847
1436.2512
1167.0476
1256.2719
1588.3951
2408.0846
1329.9229
1626.2248
1366.5996
1206.8496
1050.4335
1411.1082
2330.927
947.36305
1369.4298
1254.5944
833.82955
983.69096
1326.0369
2299.7418
963.42258
1565.7118
845.31854
1064.8613
866.45875
1234.0955
2273.4076
854.99827
1311.6483
1007.0517
1145.259
491.17151
805.95142
2234.4781
611.44214
1341.913
1032.2582
1030.9228
392.09113
1093.148
2099.2888
542.45123
1495.1954
515.37913
1071.7952
303.66845
451.96465
2418.1005
456.71718
1264.1502
464.63777
1357.9457
44.634262
837.39646
2039.5562
396.31871
1122.9602
853.67558
853.44529
118.68776
568.98631
2213.9525
742.78443
1464.4944
394.44362
1291.4814
129.96986
727.48403
2227.8677
386.7599
886.60275
539.08007
1095.8082
-98.839994
630.06659
2098.2638
455.4734
1310.0906
767.71219
1249.7904
186.4149
813.69989
2235.6884
557.1595
1224.9599
535.82179
1112.6854
109.99529
649.51634
2228.1778
627.27558
1193.3287
819.69227
1299.6567
233.37855
831.54424
2379.8258
690.21778
1396.5403
888.58303
1212.9505
432.5323
973.82837
2471.0483
941.97921
1545.944
1040.35
1477.6911
687.82465
909.94027
2793.8385
1228.5486
1834.7951
1262.4973
1664.9035
870.11275
1278.284
2962.013
1406.6824
2010.0958
1542.4662
2033.2133
1169.542
1533.9896
3232.5265
1795.8079
2488.1696
1958.1164
2203.0952
1616.9202
1609.5577
3311.8258
2455.9363
2704.7936
2455.4882
2535.5906
2017.6369
2188.5783
3798.4446
3017.7556
3019.6187
3113.3168
2970.4638
2878.726
2524.3598
4005.8382
3738.7965
3463.4186
3678.335
3343.9391
3121.4408
2833.3639
4693.785
4219.6383
3956.2084
4291.0023
3801.8522
4208.5777
3662.5367
4980.1066
5104.1789
4668.0678
5079.0766
4596.9191
4902.3007
3906.6571
5511.1282
5388.5918
4951.1879
5498.1543
4684.892
5325.2159
4705.0952
6443.9782
6612.9948
6223.6281
6740.313
5988.4498
7371.2359
5839.5363
5929.2961
5962.834
5824.5719
6218.73
5657.1392
6253.5569
4522.4239
9851.6838
10108.39
9650.4698
9861.1001
9624.5356
10175.299
9936.1454
2290.2468
2102.3701
1619.4146
1617.1387
1391.5854
1405.6308
765.3544
815.88897
1894.6274
2113.6041
2620.5998
2568.0862
2581.7008
2570.1453
1130.1151
668.08784
301.13619
300.64427
191.34535
160.69835
-376.21553
1290.567
2619.1675
3655.3531
4108.4041
4295.0917
4030.4279
3400.3863
1128.1522
734.5944
74.519148
-661.56819
-847.20881
-812.7949
-310.39948
1785.2413
2106.3215
2367.3644
2947.6796
3315.1637
3307.1821
2763.9785
1114.3085
832.11253
287.82509
325.33228
-64.286426
-435.41096
402.1278
1720.3384
1797.0387
1596.4764
1847.3721
1670.2875
2356.8048
1913.0141
1593.2011
1235.9643
1419.0634
552.58559
1621.229
457.33993
1414.6252
1316.0635
1742.2164
895.79008
1147.4933
814.87153
1324.9193
1293.3152
1560.7317
848.93601
2154.8193
832.5988
2216.8878
1573.6853
1521.7826
1174.6542
1692.017
1270.527
367.84464
1295.5411
771.74875
1656.2547
1383.6111
906.19186
1540.8857
947.489
1981.7333
1302.8319
859.56268
1097.5058
1488.9061
831.49158
881.08862
807.85281
1541.2986
1232.0373
926.47167
591.85235
1616.9778
530.75588
1471.0682
1244.1895
913.90846
905.77067
648.28129
1275.5004
804.35896
858.11947
1427.4896
932.52286
744.84379
361.90691
1388.7838
600.19847
1031.8111
1424.0087
911.37186
894.33186
732.56696
1387.3865
687.36409
901.29401
1370.4108
933.80446
601.7428
396.25795
1296.2735
523.86806
1000.9855
1453.4557
892.17289
831.35693
677.46566
1311.8243
635.07122
1040.796
1191.7578
924.13964
688.00587
312.63254
1224.2241
592.38956
826.74248
1323.6171
917.05397
855.83184
553.47132
1328.0322
392.6952
983.74284
1247.4219
886.42115
873.51312
549.50972
780.78134
769.35344
876.13728
1183.0782
735.50834
954.35642
308.30464
932.06234
843.2171
504.04102
1232.2845
1164.3876
988.44503
240.36636
1273.5215
269.54989
265.17053
1399.3122
722.43227
1202.756
479.52239
819.37624
572.22223
496.43095
1241.5813
1226.1377
882.86395
216.58847
969.02142
752.27712
238.13202
1263.22
884.46956
1034.7186
340.22465
1275.5536
438.50264
723.84743
1245.9291
1154.0385
1185.1253
317.08933
921.95671
700.51898
208.12681
1178.3116
993.26467
961.88382
197.57634
1096.7208
692.41848
627.22079
1428.8194
1134.3019
1053.0488
435.20569
1158.5734
767.19528
518.99343
1211.1082
1108.4838
1115.1806
455.19978
1174.3533
831.9773
565.87577
1379.3383
1187.8743
1136.2693
442.48935
1289.4564
855.29074
757.01346
1529.4242
1326.1684
1234.8813
650.25674
1445.0278
1103.8857
874.33626
1609.1222
1252.4869
1361.0173
779.44805
1585.3285
1131.2141
1020.9816
1719.7556
1552.0509
1458.5879
961.8909
1611.7622
1417.8307
1305.744
1896.4668
1668.4365
1729.4317
1223.0998
1929.9649
1749.1946
1309.7179
2172.9587
1820.2168
1870.1214
1471.493
2231.51
1820.3808
1781.2778
2362.4974
2231.0417
2426.7491
2006.883
2597.3782
2296.1561
2215.1834
2805.1753
2595.2553
2694.5138
1925.0715
2838.2547
2390.6714
2410.4553
2911.4134
2779.4362
3533.7647
2702.9228
3682.1501
3215.5746
3171.5433
3670.2495
3502.6035
3772.425
2699.4947
3740.7298
3042.3507
3266.0282
3699.8049
3619.3762
4742.1934
3926.8841
4857.4568
4367.0514
4655.3288
4760.6862
4614.9829
4982.6199