/*--------------------------------*- C++ -*----------------------------------*\
  =========                 |
  \\      /  F ield         | OpenFOAM: The Open Source CFD Toolbox
   \\    /   O peration     | Website:  https://openfoam.org
    \\  /    A nd           | Version:  6
     \\/     M anipulation  |
\*---------------------------------------------------------------------------*/
FoamFile
{
    version     2.0;
    format      ascii;
    class       pointVectorField;
    location    "1.49";
    object      u;
}
// * * * * * * * * * * * * * * * * * * * * * * * * * * * * * * * * * * * * * //

dimensions      [0 1 0 0 0 0 0];

internalField   nonuniform List<vector> 
3969
(
(0 -6.4615372e-20 0)
(0 -3.5338268e-19 0)
(-1.7088951 -0.50707817 -0.037009274)
(-1.7901006 -0.11226638 -0.038468622)
(0 3.5244047e-18 0)
(0 2.9111503e-18 0)
(-1.7940049 -0.099578753 -0.03851143)
(-1.7128113 -0.49435777 -0.037152947)
(0 1.4722413e-19 0)
(0 8.8491511e-19 0)
(0 3.9632483e-19 0)
(-2.369998e-18 -2.1340043e-19 0)
(0 1.1677971e-18 0)
(0 -6.7327009e-19 0)
(0 -6.4291931e-19 0)
(-1.7190634 -0.45769015 -0.037176788)
(-1.7291736 -0.40832839 -0.037353353)
(-1.7393054 -0.35897982 -0.037552335)
(-1.7494204 -0.30966203 -0.037749594)
(-1.7595574 -0.26035225 -0.037959834)
(-1.7697313 -0.2110261 -0.0381501)
(-1.7799247 -0.1616598 -0.038317927)
(-0.0032199069 -0.010571389 -0.011558947)
(-0.0046131023 -0.017573749 -0.014776848)
(-0.0091963027 -0.026402121 -0.016180833)
(-0.016812142 -0.034982243 -0.016715863)
(-0.026349958 -0.044131437 -0.016566276)
(-0.038610833 -0.053402112 -0.016296671)
(-0.052536265 -0.062758138 -0.015959357)
(-0.068965935 -0.072390394 -0.015526713)
(-0.087082579 -0.082006434 -0.015226212)
(-0.10742362 -0.09174633 -0.014763205)
(-0.12948907 -0.10174388 -0.014555668)
(-0.15352051 -0.11170853 -0.014207732)
(-0.17934214 -0.1219292 -0.013932183)
(-0.20685329 -0.13227587 -0.013710962)
(-0.23618184 -0.14275612 -0.013458164)
(-0.26699949 -0.15334715 -0.013245506)
(-0.29943701 -0.16414891 -0.013084717)
(-0.3333454 -0.17503058 -0.012916668)
(-0.36870719 -0.18609906 -0.012789278)
(-0.40539597 -0.1972417 -0.01267923)
(-0.44339789 -0.20852329 -0.012611595)
(-0.48258226 -0.21988706 -0.01257571)
(-0.5229232 -0.23133503 -0.012581104)
(-0.56431573 -0.24285755 -0.012632152)
(-0.60670446 -0.25439352 -0.012734935)
(-0.64997273 -0.26602072 -0.01290213)
(-0.69408507 -0.27763261 -0.013138603)
(-0.73896091 -0.28925743 -0.013441868)
(-0.78453078 -0.30087553 -0.013832044)
(-0.83070637 -0.31244721 -0.014307864)
(-0.87743719 -0.32399239 -0.014875084)
(-0.92465916 -0.33547288 -0.015539831)
(-0.9723031 -0.34688798 -0.016300895)
(-1.0203214 -0.35822719 -0.017156798)
(-1.068661 -0.36947292 -0.018123131)
(-1.1172712 -0.38062886 -0.01916763)
(-1.1660912 -0.39169275 -0.020312411)
(-1.2151167 -0.40262816 -0.021565411)
(-1.2642701 -0.41349248 -0.022863845)
(-1.3135434 -0.42421035 -0.024274425)
(-1.3629035 -0.43486963 -0.025714065)
(-1.4122888 -0.44540396 -0.027247244)
(-1.4617754 -0.45583757 -0.028799848)
(-1.5111639 -0.46623483 -0.030406957)
(-1.5606874 -0.4764849 -0.032043755)
(-1.6100722 -0.48673996 -0.033687181)
(-1.6594998 -0.49690615 -0.035363995)
(-0.0016636921 0.0098333105 0.013553005)
(-0.0075822362 0.017766993 0.013173738)
(-0.012522922 0.026171389 0.016186223)
(-0.021115609 0.034757484 0.015804461)
(-0.032539257 0.043372822 0.016134481)
(-0.04584843 0.05158927 0.015682187)
(-0.06214174 0.059510379 0.015370428)
(-0.08031555 0.066863199 0.014818433)
(-0.10097998 0.07372389 0.014330247)
(-0.12373259 0.07996904 0.013672839)
(-0.14855162 0.085602091 0.013044091)
(-0.1754708 0.090619123 0.01236884)
(-0.20422185 0.094888304 0.011592573)
(-0.23485468 0.09849417 0.010795748)
(-0.26722497 0.10137822 0.0099564138)
(-0.30127961 0.10351121 0.0090687225)
(-0.33691104 0.1048904 0.0081367042)
(-0.37401993 0.10552427 0.0071694429)
(-0.41251303 0.10539698 0.0061455064)
(-0.4523401 0.10452503 0.0050947455)
(-0.49330348 0.10294655 0.0039892319)
(-0.53544532 0.10058952 0.0028700216)
(-0.57855233 0.097595673 0.0016746079)
(-0.62264682 0.093889504 0.00047394815)
(-0.66749262 0.089523807 -0.00076486659)
(-0.71315925 0.08453897 -0.0020564686)
(-0.75939406 0.078960643 -0.0033840289)
(-0.80634706 0.07283588 -0.004750185)
(-0.85377291 0.066153084 -0.0061440876)
(-0.90164423 0.059000302 -0.0076005388)
(-0.94993472 0.051401711 -0.0090915297)
(-0.9985298 0.043395084 -0.010631479)
(-1.0474219 0.03501986 -0.012214063)
(-1.0965274 0.026313568 -0.01383823)
(-1.1458211 0.017312206 -0.015503005)
(-1.1952568 0.0080600397 -0.017202082)
(-1.2448011 -0.0014270904 -0.018944876)
(-1.2944045 -0.011093601 -0.020700268)
(-1.3440668 -0.020910901 -0.022496374)
(-1.3937401 -0.030871445 -0.024293104)
(-1.4434301 -0.040910974 -0.026120138)
(-1.4930789 -0.051038862 -0.027924285)
(-1.5427208 -0.061207869 -0.029749735)
(-1.5922958 -0.071418578 -0.031534697)
(-1.6418414 -0.081633472 -0.03332081)
(-1.6913135 -0.091854699 -0.035063751)
(-1.7407376 -0.10207618 -0.036781912)
(0 -3.8445416e-20 0)
(0 4.5043532e-19 0)
(0 -5.5044273e-19 0)
(1.1654825e-18 -1.1863504e-19 0)
(0 -1.0073971e-18 0)
(0 -4.6957947e-19 0)
(0 -3.839601e-19 0)
(-0.0048292533 0.0063725455 -0.010384812)
(-0.0082359278 0.021017297 -0.01407128)
(-0.012258385 0.024191057 -0.014411255)
(-0.022112933 0.036491536 -0.015412111)
(-0.032366066 0.043464976 -0.015516118)
(-0.046556279 0.052708869 -0.015044955)
(-0.062215496 0.060425466 -0.015213916)
(-0.080851334 0.068169449 -0.014560955)
(-0.10125741 0.075254319 -0.014711328)
(-0.1241378 0.081687229 -0.014202018)
(-0.1488953 0.087735165 -0.014382344)
(-0.17578702 0.092751452 -0.014041894)
(-0.2045285 0.097271613 -0.013974875)
(-0.2353662 0.10122817 -0.013875834)
(-0.2675849 0.10409086 -0.013706252)
(-0.30187662 0.10670264 -0.013706512)
(-0.33741076 0.10813302 -0.013579732)
(-0.37469674 0.1091497 -0.013566563)
(-0.41321027 0.10921656 -0.013524947)
(-0.45314567 0.10866983 -0.013520838)
(-0.49422924 0.10732558 -0.013541991)
(-0.53647121 0.10531619 -0.013595517)
(-0.57973233 0.10259007 -0.013680039)
(-0.62391181 0.099196859 -0.013806737)
(-0.6690116 0.095197731 -0.013958295)
(-0.7148488 0.090517603 -0.014140991)
(-0.76134205 0.085455995 -0.014504727)
(-0.80840836 0.079676353 -0.014845573)
(-0.8560469 0.073454078 -0.015306607)
(-0.90412723 0.066722752 -0.015825062)
(-0.95259676 0.059558186 -0.016423528)
(-1.0013984 0.051990524 -0.017120353)
(-1.050468 0.04405675 -0.017903837)
(-1.0997542 0.035779524 -0.018781014)
(-1.1492033 0.027198708 -0.01974785)
(-1.1987911 0.018370988 -0.020813954)
(-1.248478 0.0092539914 -0.021949672)
(-1.2981686 -2.6021545e-05 -0.023201743)
(-1.3479211 -0.0095221844 -0.024498899)
(-1.3976669 -0.019170614 -0.025894059)
(-1.4473809 -0.028952845 -0.027339416)
(-1.4970736 -0.038858655 -0.028844997)
(-1.546705 -0.048846444 -0.03039815)
(-1.5962857 -0.058921903 -0.031985614)
(-1.6458045 -0.069038179 -0.033603837)
(-1.6952516 -0.079211963 -0.035238181)
(-1.7446558 -0.089385567 -0.036877605)
(-1.7838638 -0.14893348 -0.038325628)
(-1.7736397 -0.19828923 -0.038155385)
(-1.7635437 -0.24758883 -0.038001512)
(-1.753308 -0.29691475 -0.037851467)
(-1.7432663 -0.34619474 -0.037701046)
(-1.7330896 -0.39557613 -0.037530762)
(-1.7229925 -0.44494427 -0.037352864)
(-1.6634104 -0.48417419 -0.035453916)
(-1.6139263 -0.4739885 -0.033750561)
(-1.5644516 -0.46376358 -0.032012678)
(-1.5148924 -0.45352023 -0.030243265)
(-1.4653239 -0.44321891 -0.028448412)
(-1.415735 -0.43288114 -0.026636389)
(-1.3661648 -0.42248628 -0.024821879)
(-1.3166256 -0.41203493 -0.023008205)
(-1.267159 -0.40152161 -0.021200736)
(-1.2177802 -0.39095251 -0.019415739)
(-1.1685636 -0.38028934 -0.017659622)
(-1.1195421 -0.36957506 -0.015930211)
(-1.0706858 -0.35878831 -0.014233974)
(-1.0221315 -0.3479271 -0.012577068)
(-0.97390461 -0.33699814 -0.010957041)
(-0.9260555 -0.32600289 -0.0093887605)
(-0.87864197 -0.31494633 -0.0078605811)
(-0.8317313 -0.30383795 -0.0063739175)
(-0.78538313 -0.29267864 -0.0049412462)
(-0.73967381 -0.28148897 -0.0035424652)
(-0.69465086 -0.27027755 -0.0021866067)
(-0.65041782 -0.25904782 -0.00088023744)
(-0.60700634 -0.24783465 0.00039998247)
(-0.56451758 -0.23661856 0.0016402098)
(-0.52302295 -0.22546391 0.0028465028)
(-0.48258799 -0.21433977 0.0040102176)
(-0.44329009 -0.20330598 0.0051547751)
(-0.40520818 -0.19233267 0.0062406924)
(-0.36841747 -0.18149393 0.0073121)
(-0.3329781 -0.17072405 0.0083171714)
(-0.29896671 -0.16013713 0.0093283126)
(-0.26645467 -0.14965732 0.01023535)
(-0.23547329 -0.13936489 0.011117751)
(-0.20637028 -0.12900083 0.011879886)
(-0.17880862 -0.11909492 0.012824019)
(-0.15288241 -0.10914836 0.013338115)
(-0.12890622 -0.099497665 0.014178574)
(-0.10676481 -0.08977372 0.014694842)
(-0.086389619 -0.080402502 0.015400553)
(-0.068444292 -0.070693246 0.015854107)
(-0.052136323 -0.061795894 0.016383701)
(-0.037809898 -0.052339564 0.01675762)
(-0.026053701 -0.043333417 0.017157027)
(-0.016349741 -0.034439473 0.016886047)
(-0.0092218596 -0.026009126 0.016252744)
(-0.0049892093 -0.016620435 0.014335771)
(-0.0071144914 -0.010317316 0.0085392277)
(0 4.7566058e-19 0)
(0 3.7255462e-19 0)
(0 -1.9305706e-19 0)
(0 -1.2685486e-18 6.3484258e-19)
(0 -1.1137968e-18 0)
(0 -2.4488493e-19 0)
(0 1.1710509e-18 0)
(0 1.6617102e-18 0)
(0 1.5840301e-18 0)
(0 1.5050985e-18 0)
(0 1.2998905e-18 -1.5968608e-19)
(0 3.5115606e-18 0)
(0 1.5394196e-18 0)
(0 -2.8364134e-19 0)
(-1.7906252 -0.11064961 -0.038470628)
(-1.7911407 -0.10903456 -0.038467933)
(-1.7916263 -0.10744214 -0.038466286)
(-1.7921105 -0.10586141 -0.038465038)
(-1.7925735 -0.10428899 -0.038480008)
(-1.7930422 -0.10272275 -0.038491365)
(-1.7935208 -0.10114794 -0.038502771)
(-1.7093808 -0.50549164 -0.037024162)
(-1.7098755 -0.50391093 -0.037021933)
(-1.7103629 -0.50234736 -0.037035473)
(-1.7108565 -0.50078444 -0.037045331)
(-1.7113467 -0.49920944 -0.037066753)
(-1.7118355 -0.49762013 -0.037095234)
(-1.712323 -0.49600034 -0.037136575)
(0.00016693787 -0.0086842669 -0.010288329)
(-0.0016596597 -0.013176841 -0.010661887)
(-0.0059421852 -0.019879181 -0.012072366)
(-0.013530976 -0.025901713 -0.012361504)
(-0.023178734 -0.032450748 -0.012333556)
(-0.035725748 -0.039475168 -0.012195883)
(-0.049992307 -0.046356955 -0.01191475)
(-0.066745973 -0.053910986 -0.011715299)
(-0.085426267 -0.061186169 -0.011386225)
(-0.10617551 -0.069040823 -0.011234171)
(-0.12874497 -0.07687858 -0.011024545)
(-0.15328679 -0.084934054 -0.010832758)
(-0.17961158 -0.093377994 -0.010691731)
(-0.20768435 -0.1018731 -0.010556267)
(-0.23750031 -0.11066968 -0.010479966)
(-0.2688948 -0.119677 -0.010399962)
(-0.30187697 -0.12894831 -0.01037414)
(-0.33634439 -0.13836746 -0.010368253)
(-0.37223395 -0.14806927 -0.010385199)
(-0.40947773 -0.15793844 -0.010430384)
(-0.44798986 -0.16802689 -0.010518922)
(-0.48769257 -0.17827788 -0.0106298)
(-0.52851863 -0.18871715 -0.010795489)
(-0.57036565 -0.19928256 -0.010997799)
(-0.61318817 -0.21001395 -0.011270123)
(-0.65690359 -0.22083672 -0.011564284)
(-0.70139989 -0.23175526 -0.011947021)
(-0.74664055 -0.24277066 -0.012395494)
(-0.79254888 -0.2538213 -0.012919765)
(-0.83902711 -0.26491943 -0.013521593)
(-0.88603966 -0.27604395 -0.01421003)
(-0.93351326 -0.2871607 -0.014984088)
(-0.98137983 -0.29827519 -0.01584644)
(-1.0296058 -0.309353 -0.016804086)
(-1.0781169 -0.32040031 -0.017842529)
(-1.1268755 -0.33138614 -0.018975007)
(-1.1758442 -0.34231942 -0.020186078)
(-1.2249675 -0.35316738 -0.021489634)
(-1.2742225 -0.36396065 -0.022848937)
(-1.3235682 -0.3746509 -0.024299744)
(-1.3729804 -0.38529767 -0.025778714)
(-1.4224297 -0.39581572 -0.027346966)
(-1.4719137 -0.40631065 -0.028919223)
(-1.5213558 -0.41668344 -0.030562832)
(-1.5708659 -0.42701398 -0.032201269)
(-1.6202524 -0.43728774 -0.033862531)
(-1.6696941 -0.4475034 -0.035527706)
(0.0031690724 -0.0054858837 -0.0067012577)
(0.00085857286 -0.0075201479 -0.0070787543)
(-0.0040695718 -0.013116416 -0.0078534352)
(-0.011608274 -0.016467704 -0.0082197864)
(-0.021864574 -0.021285016 -0.0081601196)
(-0.03414916 -0.025790328 -0.008029417)
(-0.048883524 -0.030814906 -0.0080202724)
(-0.065889895 -0.035944048 -0.0076668747)
(-0.084834914 -0.041323972 -0.0078058993)
(-0.10588038 -0.047044833 -0.0075535842)
(-0.12893973 -0.052895528 -0.0075863244)
(-0.15384743 -0.059176722 -0.0074957452)
(-0.1806347 -0.065665531 -0.0075497901)
(-0.20922627 -0.07244099 -0.0075966571)
(-0.23953181 -0.079544841 -0.0076882277)
(-0.27142575 -0.086973964 -0.0077320167)
(-0.30488944 -0.094705119 -0.0078550353)
(-0.33982608 -0.10271878 -0.0079836892)
(-0.37620677 -0.11106566 -0.0081417013)
(-0.41392428 -0.1196722 -0.0083423489)
(-0.45291747 -0.12856553 -0.0085655629)
(-0.4930887 -0.13772714 -0.0088244155)
(-0.53433624 -0.14711407 -0.0091254126)
(-0.5766228 -0.15677145 -0.0094756489)
(-0.61984495 -0.16659478 -0.0098578433)
(-0.66389905 -0.17663413 -0.010333222)
(-0.70875654 -0.18683068 -0.010849371)
(-0.75432762 -0.19716837 -0.011425832)
(-0.8005053 -0.20764105 -0.012090703)
(-0.84727316 -0.2182142 -0.012811987)
(-0.89453512 -0.22887165 -0.013615031)
(-0.94223142 -0.23958672 -0.014503072)
(-0.99031457 -0.25034482 -0.015467719)
(-1.0387178 -0.2611263 -0.016515307)
(-1.0873951 -0.27191526 -0.017643197)
(-1.1363027 -0.282685 -0.018856297)
(-1.1853941 -0.29345229 -0.020131612)
(-1.2346218 -0.30415154 -0.021498459)
(-1.2839749 -0.31484848 -0.022909433)
(-1.3333946 -0.32544606 -0.024395955)
(-1.3828888 -0.33604115 -0.025915964)
(-1.4323813 -0.34651581 -0.027500544)
(-1.4819318 -0.35698508 -0.029098955)
(-1.5314108 -0.36734434 -0.030735088)
(-1.5809596 -0.37767959 -0.032387077)
(-1.6303666 -0.38794428 -0.034035688)
(-1.6798335 -0.39816267 -0.035711919)
(0.0049499131 -0.0027087309 -0.0039807501)
(0.0021804375 -0.003897943 -0.0038428258)
(-0.002411285 -0.0062643903 -0.004078557)
(-0.010676444 -0.0082264335 -0.0042600419)
(-0.020631255 -0.01041972 -0.0040757249)
(-0.033740344 -0.013213677 -0.0041684081)
(-0.048742026 -0.015636833 -0.0038254339)
(-0.066065199 -0.018922745 -0.004033547)
(-0.085430133 -0.022056199 -0.0039165455)
(-0.10702547 -0.02575906 -0.0039171148)
(-0.13030964 -0.029754603 -0.0040295344)
(-0.15569092 -0.034028561 -0.0040888798)
(-0.18281566 -0.03876218 -0.0042394888)
(-0.2117747 -0.043761363 -0.0043998796)
(-0.24239669 -0.049277909 -0.00461363)
(-0.27471463 -0.055092689 -0.004796826)
(-0.30858312 -0.061332909 -0.0050769968)
(-0.34397439 -0.067923574 -0.0053249294)
(-0.38078437 -0.074906106 -0.0056622597)
(-0.41890341 -0.08222358 -0.0059990599)
(-0.45827226 -0.089910669 -0.0063996044)
(-0.49878958 -0.097904195 -0.0068222962)
(-0.5404328 -0.10628103 -0.0072984754)
(-0.5830742 -0.11489793 -0.0077955936)
(-0.62662059 -0.12383772 -0.0083792375)
(-0.67102984 -0.13303314 -0.0089680647)
(-0.71622573 -0.14248059 -0.0096132783)
(-0.76208218 -0.15213275 -0.010342666)
(-0.80857141 -0.16199004 -0.011114725)
(-0.85560687 -0.17200065 -0.011955717)
(-0.9031062 -0.18216319 -0.012878617)
(-0.95103597 -0.19243623 -0.013866896)
(-0.99931804 -0.20280744 -0.014931159)
(-1.047904 -0.21325428 -0.016070174)
(-1.0967522 -0.22374437 -0.017286304)
(-1.1458012 -0.23428071 -0.018566451)
(-1.195024 -0.24481953 -0.019921319)
(-1.2443754 -0.25537375 -0.021340272)
(-1.2938251 -0.26590952 -0.022807053)
(-1.3433338 -0.27640902 -0.024351955)
(-1.3928755 -0.28690017 -0.025909315)
(-1.4424451 -0.29730683 -0.027549774)
(-1.492006 -0.30773005 -0.029161555)
(-1.5415368 -0.31803647 -0.030864309)
(-1.5910723 -0.32835774 -0.032514789)
(-1.6405044 -0.33858777 -0.034218027)
(-1.6899866 -0.34881067 -0.035882546)
(0.0051177756 -0.00021309966 -0.00029237351)
(0.0019521954 0.00050685533 0.00045677887)
(-0.0030072412 2.3632686e-05 0.00037728395)
(-0.010898388 0.00048018018 0.00011199526)
(-0.021645838 0.00019807856 0.00012388327)
(-0.034485789 -0.00013071326 0.00012161228)
(-0.049707228 -0.00060750338 -0.00020345868)
(-0.067105615 -0.0016882554 -0.00015225097)
(-0.086774184 -0.0027786081 -0.00042083953)
(-0.10835651 -0.0045644832 -0.00063665838)
(-0.13208097 -0.0064593375 -0.00083949624)
(-0.15780715 -0.0089963515 -0.0010377185)
(-0.18531464 -0.011852609 -0.001273816)
(-0.21473332 -0.015156655 -0.0015794877)
(-0.24580132 -0.018988877 -0.0018499722)
(-0.27858068 -0.023224808 -0.0022148779)
(-0.31286137 -0.027967962 -0.0025688377)
(-0.34867597 -0.033123304 -0.0029930621)
(-0.38586622 -0.038730272 -0.0034497045)
(-0.42439546 -0.044780481 -0.0039255982)
(-0.46420188 -0.051260406 -0.0044450557)
(-0.5051959 -0.058210043 -0.0049813098)
(-0.54719918 -0.065484067 -0.0055643899)
(-0.59019118 -0.073165389 -0.0062124145)
(-0.63408455 -0.081205676 -0.0068668186)
(-0.67881161 -0.089586766 -0.0075861642)
(-0.72425184 -0.098266719 -0.0083961229)
(-0.77037607 -0.10722549 -0.0092449682)
(-0.81709009 -0.11644371 -0.010147974)
(-0.86432761 -0.12588861 -0.011134526)
(-0.91202747 -0.13553933 -0.01216838)
(-0.96012874 -0.14536054 -0.013278469)
(-1.0085671 -0.15533419 -0.014450294)
(-1.0572958 -0.16543078 -0.015694073)
(-1.1062631 -0.17562748 -0.01699894)
(-1.1554199 -0.18589715 -0.018372682)
(-1.2047362 -0.19623355 -0.019803241)
(-1.2541541 -0.20658915 -0.021293219)
(-1.3036657 -0.21696576 -0.022840953)
(-1.3532114 -0.22734779 -0.024415794)
(-1.4028286 -0.23774741 -0.026036104)
(-1.4524141 -0.24809921 -0.02767905)
(-1.5020289 -0.258464 -0.029347969)
(-1.5515793 -0.26874926 -0.031031793)
(-1.6011522 -0.279055 -0.032708624)
(-1.6506204 -0.28928291 -0.034393463)
(-1.7001086 -0.2995127 -0.036075268)
(0.0048755886 0.0022525613 0.0030356895)
(0.0010822555 0.0039507132 0.0037610753)
(-0.0032664682 0.0063282211 0.0037930535)
(-0.011996962 0.0085105664 0.0038874336)
(-0.022425415 0.010645247 0.0040470849)
(-0.035739519 0.012377604 0.0036814535)
(-0.05109964 0.014004833 0.0037593748)
(-0.069030964 0.015005729 0.0035562467)
(-0.088761901 0.015907372 0.0032954096)
(-0.11092745 0.0161537 0.0031088667)
(-0.13494586 0.016110431 0.0028793436)
(-0.16091808 0.01537661 0.0025245431)
(-0.18880283 0.014407555 0.0021042197)
(-0.218491 0.01270487 0.0017128242)
(-0.24990216 0.010625943 0.0012072361)
(-0.2829841 0.0079813853 0.00070394566)
(-0.31765691 0.0047779162 0.00017362371)
(-0.3538161 0.0010866008 -0.00038770405)
(-0.39138319 -0.0031784443 -0.00099119895)
(-0.43027179 -0.0079274839 -0.001613023)
(-0.47040258 -0.013226608 -0.0022939843)
(-0.51161253 -0.018943236 -0.0030220737)
(-0.55391314 -0.025183423 -0.0037884929)
(-0.59721095 -0.031828722 -0.0045725838)
(-0.64141331 -0.038956498 -0.0054055588)
(-0.68639242 -0.046464195 -0.0063066154)
(-0.73213106 -0.054363006 -0.0072365813)
(-0.77851942 -0.062607921 -0.0082050046)
(-0.82547434 -0.07118397 -0.0092395135)
(-0.87293632 -0.080048767 -0.0103191)
(-0.92083945 -0.089176959 -0.01146391)
(-0.9691273 -0.098535952 -0.012668694)
(-1.0177334 -0.10809576 -0.01393521)
(-1.0666131 -0.11783563 -0.015259623)
(-1.1157145 -0.12770947 -0.016649812)
(-1.1649942 -0.1377185 -0.018091782)
(-1.2144098 -0.1478123 -0.019587898)
(-1.2639363 -0.15797822 -0.021144194)
(-1.3135206 -0.16820253 -0.022714817)
(-1.3631769 -0.17848428 -0.02435172)
(-1.4128259 -0.188758 -0.026003222)
(-1.4624848 -0.19902906 -0.027707748)
(-1.5121155 -0.20931106 -0.029391491)
(-1.5617221 -0.21954575 -0.031126506)
(-1.6112875 -0.22980257 -0.032817229)
(-1.6607709 -0.23998718 -0.034556449)
(-1.7102419 -0.25020054 -0.036246826)
(0.003549485 0.0043235736 0.0066838659)
(-0.0010220916 0.0084554183 0.0071725902)
(-0.0058478625 0.012803878 0.0081479609)
(-0.014579775 0.01732642 0.0082389686)
(-0.025269514 0.021418125 0.0081304721)
(-0.038572402 0.025436825 0.0079484487)
(-0.054296573 0.029057713 0.0077397308)
(-0.072159485 0.032202571 0.0073569165)
(-0.092327248 0.035061654 0.0070239317)
(-0.1145643 0.037230996 0.0066122482)
(-0.1388857 0.039076419 0.0061567317)
(-0.16515094 0.040277686 0.0056924599)
(-0.19335743 0.041005486 0.0052174045)
(-0.22338212 0.041121215 0.0046534897)
(-0.25511494 0.040668971 0.0040798355)
(-0.28855642 0.039594681 0.0034555787)
(-0.32354409 0.037923843 0.0028134105)
(-0.36004053 0.035639539 0.0021041474)
(-0.39793545 0.032764335 0.0013721098)
(-0.43713629 0.029289878 0.00060090642)
(-0.4775765 0.025278626 -0.00022019647)
(-0.51913597 0.02055694 -0.0010667179)
(-0.56172453 0.015432786 -0.0019378322)
(-0.60536675 0.0098119393 -0.0028804204)
(-0.64979217 0.0036107659 -0.0038546751)
(-0.69503075 -0.0030133363 -0.0048457804)
(-0.74097856 -0.010157613 -0.0058953331)
(-0.78754473 -0.017698193 -0.0070167806)
(-0.83466326 -0.025638574 -0.0081651926)
(-0.88228874 -0.033924983 -0.0093836806)
(-0.93033176 -0.042533856 -0.010648349)
(-0.97873776 -0.051434626 -0.011974839)
(-1.0274566 -0.060590846 -0.013350561)
(-1.0764315 -0.069969898 -0.014785116)
(-1.1256115 -0.079548274 -0.016269216)
(-1.1749582 -0.089289151 -0.017802913)
(-1.2244351 -0.099168104 -0.019386268)
(-1.2739883 -0.1091591 -0.021005335)
(-1.3236342 -0.1192355 -0.022674228)
(-1.3732706 -0.12937626 -0.024356079)
(-1.4229522 -0.13956573 -0.026082301)
(-1.4726047 -0.14978431 -0.027800311)
(-1.5222602 -0.16000741 -0.029548395)
(-1.5718563 -0.17023386 -0.031281178)
(-1.6214184 -0.18045541 -0.033017701)
(-1.6709173 -0.19065614 -0.034736834)
(-1.7203801 -0.20086353 -0.036436991)
(0.0012895779 0.007272898 0.0093176743)
(-0.0035196563 0.012607632 0.010345711)
(-0.0084021435 0.019424034 0.011759707)
(-0.017443528 0.025686766 0.011837184)
(-0.027857284 0.031972088 0.011989794)
(-0.041700172 0.038095409 0.011622486)
(-0.057268651 0.043750592 0.01146006)
(-0.075545653 0.049037132 0.010945488)
(-0.095841167 0.053874103 0.010617684)
(-0.11833229 0.058033958 0.010065506)
(-0.14300488 0.061857239 0.009526147)
(-0.16948436 0.064851271 0.0090421312)
(-0.19806881 0.067438341 0.0083486748)
(-0.22834863 0.069264576 0.0076936483)
(-0.26045652 0.070476174 0.0069769441)
(-0.29419481 0.07099672 0.0062151837)
(-0.32953057 0.070852995 0.0054150419)
(-0.3663516 0.070024635 0.0045741183)
(-0.40456198 0.068532368 0.0037039597)
(-0.44409183 0.066364625 0.0027856146)
(-0.48481987 0.063520321 0.0018487798)
(-0.52666151 0.060092179 0.00084113945)
(-0.56957401 0.055955091 -0.00017063668)
(-0.61341823 0.051306519 -0.0012507932)
(-0.65808227 0.046023975 -0.0023247977)
(-0.70354257 0.04020955 -0.0034757261)
(-0.74969541 0.033859843 -0.0046847835)
(-0.79645315 0.02702269 -0.0059112223)
(-0.84377007 0.019734297 -0.0071850146)
(-0.8915526 0.012033442 -0.0085164098)
(-0.93973703 0.0039473528 -0.0098894135)
(-0.98827899 -0.0044849739 -0.011316347)
(-1.037105 -0.013226763 -0.012792028)
(-1.0861785 -0.022248572 -0.014315099)
(-1.1354402 -0.031508495 -0.015886478)
(-1.1848589 -0.040987222 -0.017498182)
(-1.2343902 -0.050633555 -0.019154505)
(-1.2840138 -0.06043856 -0.020848931)
(-1.3336711 -0.070355987 -0.022557503)
(-1.383372 -0.080374341 -0.024310232)
(-1.4330655 -0.090462916 -0.026067672)
(-1.4827595 -0.10059761 -0.0278488)
(-1.5324131 -0.11076758 -0.029617166)
(-1.5820307 -0.12094795 -0.031394384)
(-1.6315941 -0.13113958 -0.033140489)
(-1.6811057 -0.1413162 -0.034885715)
(-1.730549 -0.15148674 -0.036599634)
(0 -1.4028432e-19 0)
(0 7.8691812e-19 0)
(0 6.7998515e-19 0)
(0 6.0007498e-19 -2.0569793e-19)
(0 2.3706136e-19 0)
(0 -8.3259323e-21 0)
(0 1.1523726e-19 0)
(0 4.3027609e-20 0)
(0 -2.7957828e-19 0)
(0 -6.8924444e-19 0)
(0 -8.5625125e-19 -1.4217702e-19)
(0 -1.4037464e-19 0)
(0 1.729161e-19 0)
(0 3.3399973e-19 0)
(0 2.7649579e-19 0)
(0 4.3551914e-19 0)
(0 7.9541925e-19 0)
(0 7.9576915e-19 4.0083062e-19)
(0 6.8726654e-19 0)
(0 8.002472e-19 0)
(0 2.7098712e-19 0)
(-4.8216251e-18 2.2714495e-19 0)
(2.0613751e-18 -5.1621157e-19 0)
(-1.1968633e-19 -2.0708427e-19 0)
(3.7109204e-19 -3.643524e-19 -2.7649472e-19)
(-6.9397449e-19 -5.0927842e-19 0)
(-1.7762434e-18 -7.279919e-19 0)
(2.7145963e-19 -6.0110468e-19 0)
(0 4.6005761e-19 0)
(0 1.6467754e-19 0)
(0 -3.1935184e-19 0)
(0 3.1132707e-20 8.1472952e-19)
(0 3.5116163e-19 0)
(0 5.1145045e-19 0)
(0 -1.4209745e-19 0)
(0 -3.7193375e-19 0)
(0 -3.0407275e-19 0)
(0 7.152335e-20 0)
(0 3.568623e-19 -8.1317036e-20)
(0 2.6403744e-19 0)
(0 -9.5697228e-20 0)
(0 2.4707861e-19 0)
(0 4.469593e-20 0)
(0 -2.6313186e-19 0)
(0 3.8523542e-19 0)
(0 2.4531971e-20 2.8198788e-19)
(0 3.8166385e-19 0)
(0 6.0357896e-19 0)
(0 5.4663782e-19 0)
(-0.0053218602 0.0033751021 0.0069223156)
(-0.0064230285 0.0041698247 0.0047141303)
(-0.0075428177 0.0042917249 0.002428281)
(-0.0079241927 0.0045427844 0.00059724961)
(-0.0077384668 0.0041693228 -0.001267043)
(-0.0074150585 0.0043343927 -0.0032527243)
(-0.0059736979 0.0031140706 -0.0054528618)
(-0.011029542 0.017592071 0.010521822)
(-0.013135463 0.018673504 0.0060506567)
(-0.013952891 0.017438692 0.0027840806)
(-0.014109318 0.016850632 0.00013458941)
(-0.014192368 0.017725357 -0.0025231765)
(-0.012862282 0.017668865 -0.0057335911)
(-0.011472182 0.017776175 -0.0097307831)
(-0.015170863 0.024002059 0.01156712)
(-0.017675394 0.022869021 0.008268754)
(-0.019362295 0.023530494 0.003775775)
(-0.01958609 0.023440024 0.00058938912)
(-0.019310749 0.023023383 -0.0033813807)
(-0.018002522 0.023440361 -0.0063220051)
(-0.01625983 0.024633455 -0.011197413)
(-0.025334313 0.034940858 0.011772251)
(-0.027527861 0.035119555 0.0080606567)
(-0.028880312 0.034711234 0.0038807737)
(-0.029321105 0.034505837 0.00042858814)
(-0.028976946 0.034665515 -0.0033670142)
(-0.027704648 0.035342221 -0.007444384)
(-0.02521198 0.034970164 -0.011245521)
(-0.035516425 0.042809617 0.011964526)
(-0.037951603 0.042289122 0.008349294)
(-0.039610475 0.042230144 0.0041781102)
(-0.039945076 0.042144067 0.00031906924)
(-0.039720206 0.042348456 -0.003598708)
(-0.038331106 0.042694967 -0.0072853011)
(-0.036226625 0.043255314 -0.011730285)
(-0.049782627 0.051909182 0.011628189)
(-0.051830035 0.051555411 0.0080554513)
(-0.053440734 0.051374332 0.0039382384)
(-0.053813425 0.051452672 0.00046824735)
(-0.05347751 0.051452817 -0.0036809106)
(-0.051963911 0.051651046 -0.0075294145)
(-0.049717748 0.052044139 -0.011298387)
(-0.065311281 0.059200255 0.011426793)
(-0.067579192 0.05894648 0.0076725981)
(-0.069044297 0.058948682 0.0038900086)
(-0.06947353 0.058880058 0.0002202315)
(-0.069158674 0.059194889 -0.0036723908)
(-0.067916164 0.05975649 -0.0072587502)
(-0.065716099 0.060066113 -0.011501249)
(-0.083842363 0.067007665 0.010941871)
(-0.085967816 0.066841439 0.0075706842)
(-0.08752211 0.066747199 0.0035867458)
(-0.087916332 0.066866685 4.0228296e-05)
(-0.087421746 0.066826307 -0.0035915555)
(-0.086216521 0.067234938 -0.007418931)
(-0.083880695 0.067578567 -0.010995984)
(-0.10422883 0.073609168 0.010614717)
(-0.10635206 0.073375115 0.0069115818)
(-0.10770731 0.073379678 0.0034063924)
(-0.10809435 0.073428201 -4.1556622e-05)
(-0.10779583 0.073886974 -0.0037233316)
(-0.10653818 0.07417953 -0.0072266685)
(-0.10451593 0.074845618 -0.011159009)
(-0.12695926 0.079999561 0.01001762)
(-0.12900105 0.079899337 0.0067393012)
(-0.13038887 0.079750024 0.003120065)
(-0.13091494 0.08014568 -0.00040106229)
(-0.13051955 0.080277779 -0.0038319786)
(-0.12928347 0.080668246 -0.007370892)
(-0.12714837 0.081065006 -0.010898439)
(-0.15173057 0.085598587 0.0094963388)
(-0.15370008 0.085399333 0.0061726187)
(-0.15501609 0.085491177 0.0025881272)
(-0.15532232 0.085484816 -0.00047549384)
(-0.15504495 0.085854948 -0.0040042307)
(-0.15376859 0.086261803 -0.0072553298)
(-0.15189123 0.087119315 -0.010976152)
(-0.17849509 0.090511764 0.0089886626)
(-0.18042295 0.090466323 0.005610325)
(-0.18167641 0.090521353 0.0025057987)
(-0.18222966 0.090850143 -0.00084315042)
(-0.181867 0.091153818 -0.0042406189)
(-0.18062301 0.091707289 -0.0073506404)
(-0.17884226 0.092175545 -0.010906664)
(-0.20726585 0.09494669 0.0082636712)
(-0.2089758 0.094770661 0.005065639)
(-0.21025996 0.094896325 0.0019650418)
(-0.21057952 0.094949601 -0.00119941)
(-0.21025634 0.095361557 -0.0043732436)
(-0.20908447 0.095913344 -0.0073929611)
(-0.20733329 0.096541035 -0.010810212)
(-0.23772119 0.098482602 0.0076522648)
(-0.23942723 0.098423324 0.0045692881)
(-0.24076825 0.098529636 0.0016243555)
(-0.24110869 0.098831467 -0.0014458473)
(-0.24090997 0.099291339 -0.0046015986)
(-0.23978067 0.099892359 -0.007478497)
(-0.23811883 0.10048379 -0.010881465)
(-0.27003052 0.10145524 0.0069340572)
(-0.27170048 0.10136865 0.0038921538)
(-0.27286574 0.10147437 0.00110872)
(-0.27318953 0.10169043 -0.0019434686)
(-0.27294505 0.10212184 -0.0048159492)
(-0.271821 0.1026698 -0.0076715495)
(-0.27025314 0.10337826 -0.010836422)
(-0.30398394 0.10356395 0.0061591658)
(-0.30554527 0.10353631 0.0033250098)
(-0.30674734 0.10367467 0.00060991835)
(-0.30711584 0.10401585 -0.0022033901)
(-0.30688755 0.1044989 -0.0050934552)
(-0.3059123 0.10519002 -0.0077756085)
(-0.30435792 0.10585518 -0.01090711)
(-0.33948483 0.10500132 0.005392356)
(-0.34101011 0.10500001 0.0026072031)
(-0.34217784 0.10516696 6.1157318e-05)
(-0.3424148 0.10546128 -0.0027323941)
(-0.34229321 0.10599569 -0.0054182394)
(-0.34125851 0.10659596 -0.0080083617)
(-0.33985509 0.10738444 -0.010965485)
(-0.3764913 0.10565414 0.0045257828)
(-0.37798638 0.10571064 0.0019478064)
(-0.37905162 0.10587766 -0.00052736301)
(-0.37939869 0.10630474 -0.0031288488)
(-0.37923457 0.10681895 -0.0056925571)
(-0.37833698 0.10756147 -0.0081991522)
(-0.37695095 0.10830203 -0.011028828)
(-0.41490697 0.10558792 0.0036747954)
(-0.41626884 0.10565626 0.001187123)
(-0.41737621 0.10589506 -0.0011659002)
(-0.4176083 0.10629617 -0.0036427402)
(-0.41753683 0.10687239 -0.0060993493)
(-0.41662092 0.10757351 -0.0084758721)
(-0.41539672 0.10841104 -0.011132963)
(-0.45456307 0.10476301 0.0027424917)
(-0.45593765 0.10488901 0.00040654255)
(-0.45693173 0.10514822 -0.0017896055)
(-0.4572489 0.10565048 -0.0041513343)
(-0.45715392 0.10621581 -0.0064468921)
(-0.45636822 0.10702753 -0.0087190057)
(-0.45517349 0.10782579 -0.011238917)
(-0.49548556 0.1032138 0.001795061)
(-0.49673843 0.10338499 -0.00038996751)
(-0.49775028 0.10371577 -0.002498185)
(-0.49800635 0.10420144 -0.0047073958)
(-0.49798075 0.10484012 -0.0068862023)
(-0.49720782 0.10562129 -0.0090323392)
(-0.49613943 0.10648128 -0.011397036)
(-0.53746651 0.10094729 0.0008106185)
(-0.53870039 0.1011826 -0.0012543434)
(-0.53963301 0.10152546 -0.0032086269)
(-0.53993843 0.10210668 -0.0052833032)
(-0.53990462 0.10273877 -0.0073264162)