/*--------------------------------*- C++ -*----------------------------------*\
  =========                 |
  \\      /  F ield         | OpenFOAM: The Open Source CFD Toolbox
   \\    /   O peration     | Website:  https://openfoam.org
    \\  /    A nd           | Version:  6
     \\/     M anipulation  |
\*---------------------------------------------------------------------------*/
FoamFile
{
    version     2.0;
    format      ascii;
    class       pointVectorField;
    location    "1.83";
    object      u;
}
// * * * * * * * * * * * * * * * * * * * * * * * * * * * * * * * * * * * * * //

dimensions      [0 1 0 0 0 0 0];

internalField   nonuniform List<vector> 
625
(
(0 0 0)
(0 0 0)
(0.091152806 0.020687659 -0.032030623)
(0.089667142 -0.036382068 -0.03124907)
(0 0 0)
(0 0 0)
(0.089588371 -0.02594288 -0.031817935)
(0.091136098 0.030818293 -0.032128715)
(0 0 0)
(0 0 0)
(0 0 0)
(0.090455678 0.0054919039 -0.032701531)
(0.089572321 -0.0078174764 -0.031770274)
(0.089578007 -0.021160538 -0.031600917)
(-0.00074998488 -0.0016348107 -0.001184769)
(-0.0024263884 -0.0028936538 -0.0010066809)
(-0.0047369139 -0.0039154692 -0.000564861)
(-0.0075121591 -0.0047756567 -0.00024600219)
(-0.010557634 -0.00512765 1.2043052e-05)
(-0.013567156 -0.0053927385 0.00020582068)
(-0.016514225 -0.005073271 0.00017672753)
(-0.019015862 -0.0046741616 6.469161e-05)
(-0.021094016 -0.0037447224 -0.00029171517)
(-0.022317083 -0.0026682797 -0.00087638129)
(-0.02276493 -0.0011648419 -0.0016655831)
(-0.022056962 0.00047830305 -0.0027176379)
(-0.020226972 0.0024662068 -0.0040293456)
(-0.01700387 0.00453208 -0.0056057366)
(-0.012417233 0.006857069 -0.0074480437)
(-0.0062821635 0.0090981865 -0.0095022968)
(0.0012973975 0.011575632 -0.0118691)
(0.010459146 0.013709335 -0.014289387)
(0.021045668 0.015938489 -0.017072851)
(0.032903467 0.017796768 -0.019845463)
(0.046102098 0.019334878 -0.022673193)
(0.060228413 0.020611666 -0.025705737)
(0.074829971 0.021072768 -0.028400041)
(-0.00038461323 0.001474421 0.001826771)
(-0.0022718449 0.0026659475 0.0014279241)
(-0.0046801615 0.0036936211 0.0012695547)
(-0.0072610548 0.0040976387 0.0010565161)
(-0.01027806 0.0042594193 0.00060774254)
(-0.013212729 0.0038355219 0.00021575279)
(-0.016069189 0.0031651519 -0.00044860701)
(-0.01853224 0.0019313238 -0.0011551761)
(-0.020482347 0.00045129429 -0.0021168948)
(-0.021741711 -0.001454991 -0.0032237592)
(-0.022110734 -0.0036537351 -0.0045318863)
(-0.021481343 -0.0061359741 -0.0060317474)
(-0.019660455 -0.0088488233 -0.0077118436)
(-0.016590802 -0.011774753 -0.009571716)
(-0.01211512 -0.014790552 -0.011571398)
(-0.006225937 -0.017913395 -0.013728966)
(0.0011610402 -0.021013098 -0.015944483)
(0.010008422 -0.024063881 -0.018278262)
(0.020314631 -0.026948462 -0.020588732)
(0.031959095 -0.0296525 -0.022953406)
(0.044913274 -0.032010799 -0.025209892)
(0.058893 -0.03398915 -0.027452201)
(0.073632276 -0.035494171 -0.029607596)
(0 0 0)
(0 0 0)
(0 0 0)
(-0.00074868944 0.00088240616 -0.0011545511)
(-0.0025818751 0.0030908883 -0.00090112018)
(-0.004976655 0.0036125894 -0.00022490681)
(-0.0079426925 0.0045512322 0.00020881525)
(-0.010996524 0.0049542676 0.00048770765)
(-0.014086576 0.0051211718 0.00071410782)
(-0.017128409 0.0048811737 0.00075836436)
(-0.019583168 0.0043513185 0.00063060067)
(-0.021694109 0.003556069 0.00030909604)
(-0.022931721 0.0023751174 -0.00022071613)
(-0.023405218 0.001068884 -0.0010574974)
(-0.022692956 -0.00072620245 -0.0020484167)
(-0.020916298 -0.0025186119 -0.0034035271)
(-0.017729505 -0.0047405685 -0.0049462929)
(-0.013213938 -0.0069877714 -0.0067887675)
(-0.0071954264 -0.0094783375 -0.0088620151)
(0.00029443959 -0.011997549 -0.01117093)
(0.0092985532 -0.014601387 -0.013670432)
(0.019694848 -0.01711449 -0.016371953)
(0.03155941 -0.019584663 -0.019198101)
(0.044488239 -0.021741775 -0.022168003)
(0.058718349 -0.02371761 -0.025209215)
(0.073484725 -0.02518519 -0.028307286)
(0.089685272 -0.010416831 -0.031945085)
(0.089188585 0.0023655626 -0.031886386)
(0.090489605 0.015436409 -0.031427163)
(0.07512136 0.031224835 -0.030472476)
(0.060072669 0.030489874 -0.028239121)
(0.045935922 0.029354294 -0.026001761)
(0.032813186 0.027693266 -0.023690325)
(0.020904276 0.025580733 -0.021333334)
(0.010376888 0.023104073 -0.018978691)
(0.0012846981 0.020415994 -0.016635879)
(-0.0062707543 0.017484134 -0.014367291)
(-0.01235506 0.01455202 -0.012202192)
(-0.016927812 0.011556231 -0.010163556)
(-0.020128143 0.0087000537 -0.0082963336)
(-0.021969873 0.0059635464 -0.0065923975)
(-0.02266618 0.0034943464 -0.0050865637)
(-0.022271089 0.001232693 -0.0037554913)
(-0.021058841 -0.00055434502 -0.0026707198)
(-0.018999017 -0.0021883277 -0.0016582049)
(-0.01648387 -0.0033091468 -0.00086842598)
(-0.013619143 -0.0039899372 -0.00029949168)
(-0.010600572 -0.0043559512 0.00026811724)
(-0.0075561037 -0.0042574709 0.00067420265)
(-0.0047978423 -0.0037467037 0.0010134968)
(-0.0024760257 -0.0027975723 0.0011310453)
(-0.0012162641 -0.0016252132 0.0010476606)
(0 0 0)
(0 0 0)
(0 0 0)
(0 0 0)
(0 0 0)
(0 0 0)
(0.089570982 -0.03420981 -0.03160438)
(0.089762859 -0.031594141 -0.031419185)
(0.089599536 -0.029182995 -0.031616922)
(0.091432645 0.023850861 -0.032002653)
(0.091497292 0.026145191 -0.032098322)
(0.091419203 0.028875051 -0.032178593)
(-0.00023616059 -0.00057733702 -0.00070668082)
(-0.0020535902 -0.0010774397 -0.00026490745)
(-0.0044476431 -0.0016262697 -6.8531338e-05)
(-0.0073532632 -0.0020741986 9.9084055e-05)
(-0.010471329 -0.00234672 0.00022453802)
(-0.013642614 -0.0025880729 0.00022450299)
(-0.01669462 -0.0025792779 7.0013671e-05)
(-0.019307557 -0.0025264474 -0.00022597919)
(-0.021493111 -0.002269008 -0.00072525196)
(-0.022813177 -0.001923926 -0.0014354581)
(-0.023357298 -0.0014054111 -0.002363898)
(-0.022755226 -0.00079624817 -0.0035244568)
(-0.020998815 -6.1298997e-05 -0.0049362361)
(-0.017865242 0.00075500616 -0.0065790042)
(-0.013336471 0.0016146232 -0.008450372)
(-0.0072773344 0.002563962 -0.010565727)
(0.00027765046 0.0034401278 -0.01283873)
(0.009397101 0.0042956532 -0.015293648)
(0.019960101 0.0051512335 -0.01794697)
(0.031927329 0.0056846481 -0.020547088)
(0.04521776 0.0061239551 -0.023484869)
(0.059438466 0.0064395576 -0.02627156)
(0.074675478 0.0058591684 -0.029199971)
(-9.4506445e-05 3.4304824e-05 8.5088234e-05)
(-0.001883648 1.6961025e-05 0.00024079792)
(-0.0043080522 -9.3970303e-05 0.0002905723)
(-0.0071598884 -0.00027533304 0.0002965863)
(-0.010324452 -0.00042075748 0.00023011046)
(-0.013486124 -0.00073018098 7.0165411e-05)
(-0.016512596 -0.00093337555 -0.00029537209)
(-0.019159002 -0.0013572023 -0.00070508569)
(-0.021313449 -0.0016194469 -0.0014268675)
(-0.022683095 -0.0020706998 -0.00223095)
(-0.023227068 -0.0023995648 -0.0033230893)
(-0.022648111 -0.0028316955 -0.0045882202)
(-0.020925191 -0.0032070479 -0.0060894084)
(-0.017832722 -0.0036262442 -0.0077914814)
(-0.013358398 -0.0039911788 -0.0097147589)
(-0.0073535354 -0.0044080349 -0.01179541)
(0.00013639965 -0.0047965065 -0.014044781)
(0.0091858703 -0.0051631584 -0.016454201)
(0.019703658 -0.0055981787 -0.018891655)
(0.031586708 -0.0060026821 -0.021479399)
(0.044807768 -0.0063734633 -0.024066096)
(0.05906748 -0.0069337073 -0.026562761)
(0.074404265 -0.007288923 -0.029183619)
(-4.7847252e-06 0.0005488019 0.00069601137)
(-0.0019070269 0.00088649501 0.00085244925)
(-0.0043121736 0.0012985664 0.00076882048)
(-0.0071864103 0.0014580329 0.00069335106)
(-0.010296413 0.001412835 0.00049718908)
(-0.013441487 0.001159352 0.00014143982)
(-0.016408205 0.00062698634 -0.0002617523)
(-0.019055857 -5.0414543e-05 -0.00090729919)
(-0.021166109 -0.00097483865 -0.0016690451)
(-0.022524846 -0.0020694691 -0.0026435382)
(-0.023055632 -0.0032905591 -0.0038356458)
(-0.022469802 -0.0046943301 -0.0051937755)
(-0.020757404 -0.0061753939 -0.0067898101)
(-0.017683235 -0.0077370716 -0.0085670958)
(-0.013234817 -0.0093868619 -0.010513779)
(-0.0072703858 -0.011024336 -0.01263552)
(0.0001547454 -0.012667574 -0.014891526)
(0.0091775396 -0.014287301 -0.017222693)
(0.019567863 -0.01580966 -0.019672478)
(0.031481746 -0.017221748 -0.022094433)
(0.044583564 -0.018570089 -0.024590997)
(0.058851437 -0.019595283 -0.027028517)
(0.073969986 -0.020417292 -0.029388432)
(0 0 0)
(0 0 0)
(0 0 0)
(0 0 0)
(0 0 0)
(0 0 0)
(0 0 0)
(0 0 0)
(0 0 0)
(-0.0010304983 0.00066022152 0.00077774904)
(-0.0011986726 0.00085135619 0.00024973354)
(-0.0011248955 0.00067583271 -0.00033729778)
(-0.0030170812 0.0029662003 0.0009242395)
(-0.0030377155 0.0029506349 0.00038956514)
(-0.0029959848 0.0029559968 -0.00029935924)
(-0.0049689341 0.0036678476 0.00088955691)
(-0.0051346566 0.0036511517 0.00046612717)
(-0.0052152892 0.0039476026 0.00011149463)
(-0.0076170584 0.0042954687 0.0008434595)
(-0.0078802257 0.0044841793 0.00062421227)
(-0.0079058647 0.0046743621 0.00043015802)
(-0.010495297 0.0045111672 0.00065190102)
(-0.010646178 0.0047233447 0.00063301048)
(-0.010846879 0.0050159711 0.0005962317)
(-0.013335965 0.0042706197 0.00040583829)
(-0.013557774 0.0045846491 0.00053355292)
(-0.013796792 0.0050159452 0.00065349236)
(-0.01608304 0.0036484633 -3.4953218e-05)
(-0.016228775 0.0041353977 0.00030097052)
(-0.016569622 0.0047182703 0.00062505903)
(-0.01838485 0.0026621036 -0.00057570297)
(-0.01866682 0.0033118727 -0.00012415585)
(-0.018972697 0.0039797784 0.0003072671)
(-0.020294453 0.001327352 -0.0013623821)
(-0.020471899 0.0020841711 -0.00075910406)
(-0.020863039 0.002979032 -0.00012580303)
(-0.021383981 -0.00042754377 -0.0023166584)
(-0.021568455 0.00056666578 -0.0015443489)
(-0.022012606 0.0016160616 -0.0007856136)
(-0.021714174 -0.0023559086 -0.0034731296)
(-0.021881198 -0.0011874727 -0.0026059756)
(-0.022355088 3.7295109e-05 -0.0017100616)
(-0.020921245 -0.0047220709 -0.0048551122)
(-0.021071376 -0.0033720662 -0.0038489446)
(-0.021566235 -0.0019271602 -0.0028330446)
(-0.019072022 -0.0071866332 -0.0064309562)
(-0.019192956 -0.0056047027 -0.0053583296)
(-0.019692408 -0.004031073 -0.0042410226)
(-0.015877746 -0.0099623466 -0.0082220969)
(-0.015970731 -0.0082464315 -0.007063009)
(-0.016488758 -0.0064300221 -0.0058754186)
(-0.011373499 -0.012813073 -0.010180579)
(-0.011449854 -0.010862964 -0.0089987916)
(-0.0119309 -0.0089451285 -0.0077530389)
(-0.0054197305 -0.015793055 -0.01232233)
(-0.005452483 -0.013736387 -0.011114492)
(-0.0059379509 -0.011625225 -0.0098534143)
(0.0019637807 -0.018786408 -0.014572177)
(0.0019387748 -0.016549209 -0.013404809)
(0.0015105623 -0.014347378 -0.012160545)
(0.0108308 -0.021761432 -0.016966752)
(0.010851501 -0.019441085 -0.015838521)
(0.010448206 -0.017101752 -0.014623972)
(0.021065104 -0.024592211 -0.019383119)
(0.02107839 -0.022133261 -0.018350741)
(0.0207322 -0.01976121 -0.017258485)
(0.032683956 -0.027266381 -0.021878919)
(0.032740762 -0.024803824 -0.020982746)
(0.032452216 -0.02232834 -0.019983829)
(0.045463712 -0.029664127 -0.024342911)
(0.04546993 -0.0270537 -0.023600653)
(0.045248908 -0.024569836 -0.022801441)
(0.059340172 -0.031646873 -0.026783535)
(0.059398054 -0.029081564 -0.026226908)
(0.059249043 -0.026603831 -0.025691814)
(0.0739769 -0.033311364 -0.029204961)
(0.073918509 -0.030637506 -0.028966176)
(0.073905936 -0.028029003 -0.028628402)
(0.090867134 0.0085308793 -0.032020735)
(0.090929735 0.011079649 -0.031935884)
(0.090768393 0.013571285 -0.031743949)
(0.089622689 -0.0051259468 -0.031616266)
(0.089775115 -0.0027534896 -0.031739622)
(0.089476278 -0.00013717293 -0.031833219)
(0.089702337 -0.018779319 -0.031786728)
(0.089850495 -0.016143622 -0.031693267)
(0.089651696 -0.013479897 -0.031776364)
(-0.0014670374 -0.0015380337 -0.00049818519)
(-0.0014870134 -0.0015840572 -5.451848e-05)
(-0.0015041761 -0.0015467214 0.0003922283)
(-0.00293702 -0.0029461151 -0.00035945369)
(-0.003012938 -0.0029495019 0.00015160641)
(-0.0030503723 -0.0027846443 0.00072145913)
(-0.005153977 -0.0040743978 -0.00010664844)
(-0.0051762227 -0.0039774997 0.00020454213)
(-0.0051286423 -0.0038336623 0.00071367727)
(-0.0077734744 -0.0047968424 0.00010067699)
(-0.0077707988 -0.0047021146 0.00033918718)
(-0.007757698 -0.0044656797 0.00056320746)
(-0.010605015 -0.0052187706 0.00020296151)
(-0.01063873 -0.0049020451 0.00023223217)
(-0.010615281 -0.0046418403 0.00028762429)
(-0.013522117 -0.0052466854 0.0002315029)
(-0.013485428 -0.0048860491 0.00011750582)
(-0.01352202 -0.0044254497 -5.4199364e-05)
(-0.016307467 -0.0048724195 8.6132192e-05)
(-0.016255376 -0.0043462417 -0.0001753868)
(-0.016229338 -0.0038436877 -0.00048013019)
(-0.018685998 -0.004275606 -0.00019995176)
(-0.018571924 -0.0035846664 -0.00058403653)
(-0.018646564 -0.0028505605 -0.0011266491)
(-0.020592715 -0.0031535662 -0.00068222365)
(-0.020493108 -0.0023003207 -0.0012630036)
(-0.020512927 -0.0014853463 -0.0019497371)
(-0.021714255 -0.0018802372 -0.0014133322)
(-0.021577299 -0.00080679538 -0.0020727222)
(-0.021622876 0.00018151771 -0.0029147361)
(-0.022017698 -0.00021179402 -0.0023326055)
(-0.021882756 0.0010588266 -0.003127204)
(-0.021927715 0.0022081834 -0.0041126996)
(-0.02124005 0.0016932385 -0.0034974061)
(-0.021072779 0.0031379998 -0.0044023801)
(-0.021127274 0.0044983848 -0.0055247291)
(-0.019302326 0.0038683016 -0.0049194178)
(-0.019122544 0.0055177423 -0.0059131548)
(-0.019189522 0.0070300729 -0.0071403909)
(-0.016023053 0.0061891856 -0.0065910711)
(-0.015851837 0.008008881 -0.0076435899)
(-0.015939 0.0097111163 -0.0089618405)
(-0.011384714 0.0086901128 -0.0084813289)
(-0.011216272 0.010675503 -0.0095940669)
(-0.011289082 0.012517182 -0.010960626)
(-0.0052456044 0.011176901 -0.010630958)
(-0.0050812992 0.013309584 -0.011737681)
(-0.0052070568 0.01533422 -0.013139988)
(0.0023318612 0.013770035 -0.012931381)
(0.0024629904 0.016005795 -0.014040728)
(0.0023893115 0.018108321 -0.015429297)
(0.011453636 0.016101703 -0.015429285)
(0.011591773 0.018452335 -0.016522453)
(0.011426951 0.020748477 -0.017849061)
(0.021925299 0.018423746 -0.018103952)
(0.022002944 0.020846175 -0.019017323)
(0.021903292 0.0231715 -0.020302812)
(0.033743669 0.02039664 -0.020689735)
(0.033847329 0.022871923 -0.021727085)
(0.033739544 0.025258876 -0.022788869)
(0.046841433 0.022015122 -0.023570892)
(0.046930039 0.024470496 -0.024361433)
(0.046747883 0.026964672 -0.02525293)
(0.060821353 0.023095659 -0.026498247)
(0.060764633 0.025818689 -0.026977)
(0.06069919 0.028234512 -0.027678648)
(0.07568121 0.024167059 -0.02898085)
(0.075630908 0.026595777 -0.02955875)
(0.075632689 0.028976902 -0.029817867)
(-0.00033640592 -0.00033318192 0.0007050791)
(-0.0022323854 -0.0012642322 0.00059305033)
(-0.0044814939 -0.0014313249 0.00056084818)
(-0.0074599864 -0.0016253415 0.00042018656)
(-0.010609344 -0.0015141022 0.00015724104)
(-0.013799742 -0.0012357196 -0.00016844759)
(-0.016826639 -0.00074924101 -0.00063852231)
(-0.019479651 3.0721415e-05 -0.0012891369)
(-0.021630904 0.00097622974 -0.0020812515)
(-0.02300641 0.0020689481 -0.0030602581)
(-0.023518598 0.0034164677 -0.0042539218)
(-0.022922935 0.0048274573 -0.0056472418)
(-0.021163254 0.0063615652 -0.0072236072)
(-0.018043029 0.0079428588 -0.0090137516)
(-0.013514192 0.0095312763 -0.010964985)
(-0.0074788899 0.011064425 -0.01308796)
(6.6690768e-05 0.012515552 -0.015322824)
(0.0091685635 0.013784074 -0.017679514)
(0.019702965 0.014862918 -0.02006997)
(0.031701933 0.015689439 -0.022522715)
(0.04492269 0.016171065 -0.024918988)
(0.059192158 0.016371951 -0.027307303)
(0.074563918 0.015909238 -0.029423732)
(-0.00019903479 -0.00021160428 1.1666652e-05)
(-0.0021254128 -0.00032681595 0.00029296015)
(-0.0045587804 -8.4370392e-05 0.00031521908)
(-0.0076050012 -8.6554917e-06 0.00034296759)
(-0.010771223 0.00020327459 0.00030599702)
(-0.014018567 0.00041166721 0.00013516223)
(-0.017085029 0.00074518155 -0.00021399777)
(-0.019781518 0.0010036168 -0.00061758676)
(-0.021967016 0.0014550891 -0.00134268)
(-0.02334752 0.0017613582 -0.0021360008)
(-0.023899296 0.0022758796 -0.0032374061)
(-0.023301483 0.0026372815 -0.0045020336)
(-0.021571197 0.0031039122 -0.0060082187)
(-0.018430301 0.003459364 -0.0077256879)
(-0.013915309 0.0038410751 -0.0096485353)
(-0.0078654604 0.004070482 -0.011756044)
(-0.00030121463 0.0042972138 -0.014018924)
(0.0088085299 0.0043187635 -0.016436771)
(0.019392239 0.0043204937 -0.018915746)
(0.031405538 0.0041131443 -0.021507865)
(0.044706607 0.0038870889 -0.024122452)
(0.059024455 0.0033520719 -0.026742566)
(0.074767129 0.0030398709 -0.029360464)
(-2.7489602e-05 0.0003211883 -0.00039826329)
(-0.0022488101 0.00062878294 -0.00024596203)
(-0.0046972892 0.0014022453 -0.00018969735)
(-0.0077195988 0.0017205379 0.00018460028)
(-0.010892109 0.0021011541 0.00026549481)
(-0.014101903 0.0023355622 0.00026953879)
(-0.017195058 0.0023993046 0.00018603854)
(-0.019868131 0.0023520117 -0.00012709767)
(-0.022051617 0.0022206817 -0.00062308134)
(-0.023406836 0.001860781 -0.0012792209)
(-0.023970328 0.0014962387 -0.0022241487)
(-0.023364939 0.00093403375 -0.003359098)
(-0.021622798 0.00026754539 -0.0047453584)
(-0.018506253 -0.00047855209 -0.0063814315)
(-0.01399363 -0.0013922527 -0.0082265974)
(-0.0079702523 -0.0023514093 -0.010298849)
(-0.00043196471 -0.003441598 -0.012565743)
(0.0086418866 -0.0045750663 -0.014998493)
(0.019168375 -0.0057558361 -0.017564094)
(0.031168636 -0.0069409548 -0.02028044)
(0.044280332 -0.0080807525 -0.023025654)
(0.058755184 -0.0091020138 -0.025946059)
(0.073734445 -0.0098958334 -0.028713832)
(-0.00053947334 -0.00029831359 -0.0002574084)
(-0.00059728241 -0.00035121616 -1.5127785e-05)
(-0.00073455215 -0.00027589067 0.00031464988)
(-0.0025425049 -0.0012228956 2.5866124e-06)
(-0.0026084878 -0.0012266011 0.0002174926)
(-0.0025683852 -0.0011159135 0.0005546718)
(-0.0047679502 -0.0017922378 0.000157072)
(-0.0048243098 -0.0016175334 0.00035179072)
(-0.004813873 -0.0015680198 0.00047032204)
(-0.00753037 -0.0021573717 0.0002797672)
(-0.007636295 -0.0019997383 0.00034220945)
(-0.0075990803 -0.0018175389 0.00042884529)
(-0.010551284 -0.0024200564 0.00030823049)
(-0.010589406 -0.0021002391 0.00027873793)
(-0.010620891 -0.0018685957 0.00028853451)
(-0.013558269 -0.0024474086 0.00023904526)
(-0.013602121 -0.0020558179 0.00014890814)
(-0.013638065 -0.0016991871 1.1777037e-05)
(-0.016470764 -0.002378266 -4.7920961e-07)
(-0.016492572 -0.0017950536 -0.00021075033)
(-0.016546792 -0.0013239628 -0.00038962018)
(-0.018971669 -0.0020922846 -0.00037317716)
(-0.018944619 -0.0013812707 -0.00064263292)
(-0.019052645 -0.00079007862 -0.00091515511)
(-0.020994907 -0.0016974054 -0.00095255664)
(-0.020981402 -0.00077618326 -0.0013030281)
(-0.021075234 1.2490633e-05 -0.0016765016)
(-0.022244626 -0.0010953687 -0.001735474)
(-0.022168373 -1.8009583e-05 -0.0021765472)
(-0.022310497 0.00092265793 -0.0025849671)
(-0.022646488 -0.00038125796 -0.0027387612)
(-0.022587843 0.0008981341 -0.003206812)
(-0.022724844 0.0020108806 -0.0037136431)
(-0.02196651 0.00046931807 -0.0039585432)
(-0.021867955 0.001929876 -0.0045141959)
(-0.022024844 0.0032565765 -0.0050715655)
(-0.020123839 0.0014242268 -0.0054387205)
(-0.020011488 0.0030879864 -0.0060233892)
(-0.020182586 0.0045715043 -0.00661916)
(-0.016928174 0.0024603554 -0.0071162663)
(-0.01681807 0.0042950351 -0.0077464491)
(-0.017001673 0.0059762168 -0.0083813288)
(-0.012374412 0.0035471712 -0.0090523559)
(-0.012245959 0.0055560519 -0.0097002572)
(-0.012423496 0.0073838908 -0.010340441)
(-0.0062863424 0.0046629925 -0.011163817)
(-0.0061680975 0.006794539 -0.011807036)
(-0.0063753867 0.0087970215 -0.012464549)
(0.001231201 0.0057169171 -0.0134687)
(0.0013439011 0.0080103649 -0.014121736)
(0.0011812283 0.010110099 -0.014739691)
(0.010333802 0.0067231738 -0.015926133)
(0.01045733 0.0090750312 -0.016521129)
(0.010218464 0.011344438 -0.017134165)
(0.020807047 0.0076575093 -0.018509256)
(0.02084785 0.010130043 -0.019080609)
(0.020729926 0.012379566 -0.019586351)
(0.032637469 0.0083133188 -0.021099074)
(0.032790321 0.010780175 -0.021602327)
(0.032589323 0.013175332 -0.022133605)
(0.04573717 0.0087862279 -0.024003745)
(0.045930401 0.011387101 -0.024210542)
(0.045663498 0.013803775 -0.02462273)
(0.059909597 0.0090769849 -0.026597025)
(0.05990157 0.011702201 -0.026778509)
(0.059763959 0.014026955 -0.027154223)
(0.074942964 0.0088301388 -0.029331435)
(0.074879686 0.011224846 -0.029436969)
(0.074813986 0.013726178 -0.029501441)
(-0.00042788327 -9.3123569e-05 6.9495159e-05)
(-0.00051279423 -0.00011077171 0.00014482316)
(-0.00061068586 -7.3974709e-05 4.5434334e-05)
(-0.0023430682 -0.00011061583 0.00028204019)
(-0.0024720259 -0.00011897531 0.00030172899)
(-0.0023929135 -6.8564077e-06 0.00032815126)
(-0.0046615275 -0.00023737595 0.00036035997)
(-0.0047427773 -8.49919e-05 0.00034061087)
(-0.0047931511 -5.813052e-05 0.00035009122)
(-0.0074820175 -0.00024544926 0.00038131514)
(-0.0076223143 -0.00013880173 0.00036325792)
(-0.0075970118 8.8088628e-05 0.00038485017)
(-0.010493101 -0.00038869753 0.00031538067)
(-0.010553896 -8.1012388e-05 0.00033366417)
(-0.010660023 0.00015346109 0.0003554285)
(-0.013540589 -0.00053169296 0.0001568245)
(-0.013635421 -0.00013582963 0.00018288582)
(-0.013745637 0.00022890243 0.00019435892)
(-0.01645881 -0.00061952786 -0.00020005016)
(-0.016508288 -6.9629938e-05 -0.00015198445)
(-0.016645433 0.00039761779 -0.00013456381)
(-0.0189789 -0.00085275768 -0.0006147518)
(-0.018993364 -0.00016917246 -0.00054174184)
(-0.019224403 0.00051397877 -0.00054198048)
(-0.021033614 -0.00094728885 -0.0013383857)
(-0.021042943 -4.8056566e-05 -0.0012546256)
(-0.021262601 0.0007090561 -0.0012622745)
(-0.022289684 -0.0011765259 -0.0021487757)
(-0.02224061 -0.00013872216 -0.002036017)
(-0.022543799 0.00088339128 -0.0020415878)
(-0.022734297 -0.0013135033 -0.0032414437)
(-0.022679779 -4.6084467e-05 -0.0031202656)
(-0.022982725 0.001084354 -0.0031439976)
(-0.022071506 -0.0015148161 -0.0045312048)
(-0.021966539 -0.00010127369 -0.0043900878)
(-0.02231707 0.0012913622 -0.0044213773)
(-0.020257681 -0.0016785314 -0.0060288677)
(-0.020146227 -4.4770779e-05 -0.005878623)
(-0.020505827 0.0014875179 -0.0059182541)
(-0.017113441 -0.0018810938 -0.0077730157)
(-0.016959753 -0.00010543847 -0.0076130367)
(-0.017351628 0.0016431506 -0.0076591321)
(-0.01257783 -0.0020485258 -0.0096898197)
(-0.012422389 -9.8840361e-05 -0.0095106843)
(-0.012805585 0.0017988976 -0.0095754256)
(-0.0065573057 -0.002298629 -0.011808755)
(-0.0063692652 -0.00022211885 -0.01164051)
(-0.0067774467 0.0018601458 -0.011710028)
(0.00094334381 -0.0025021911 -0.014079301)
(0.0011238668 -0.00029034277 -0.013894344)
(0.00073268984 0.0018931748 -0.013973294)
(0.0099860483 -0.002772496 -0.016491238)
(0.010172482 -0.00051752808 -0.016306324)
(0.0097898047 0.0018234827 -0.016410498)
(0.0204168 -0.0030811551 -0.018966695)
(0.020606522 -0.000691526 -0.018817591)
(0.020243879 0.0016669518 -0.018883739)
(0.032298688 -0.0034025496 -0.0215917)
(0.032473215 -0.0011426431 -0.021351873)
(0.032120807 0.0013983997 -0.021503989)
(0.045460286 -0.0037248889 -0.024015725)
(0.045468985 -0.0013696533 -0.024056663)
(0.045273584 0.0011719155 -0.024082806)
(0.059523075 -0.0043798833 -0.026681002)
(0.059564671 -0.001820605 -0.026543776)
(0.059289288 0.000615044 -0.026747559)
(0.074647314 -0.0046372933 -0.029256172)
(0.074916063 -0.0022362482 -0.029254433)
(0.074745038 0.00044865639 -0.029284321)
(-0.00045126574 0.0002527678 0.00035123537)
(-0.00041401544 0.00029422709 0.0001189531)
(-0.00044377138 0.00024585497 -0.00014851181)
(-0.0025064576 0.00084282034 0.00063056739)
(-0.0026254255 0.00081498933 0.00031882185)
(-0.0025447952 0.00083027601 6.8522987e-05)
(-0.004758797 0.0013279355 0.00062808432)
(-0.0048624247 0.0015100117 0.00047504986)
(-0.0048895715 0.0015025769 0.00019432876)
(-0.0075225145 0.0015966672 0.00064833724)
(-0.0076623199 0.0018186519 0.00050115166)
(-0.0077491856 0.0018465017 0.00036090417)
(-0.010509171 0.0016323878 0.00054833739)
(-0.010625104 0.0019466883 0.0005136168)
(-0.010794392 0.0021274953 0.00050327724)
(-0.013516744 0.0015082868 0.00030427019)
(-0.013660749 0.0019902765 0.0003782366)
(-0.013850804 0.0021881705 0.00036885784)
(-0.016394855 0.0011370387 -2.5151441e-06)
(-0.016473083 0.0017227064 0.00013208492)
(-0.016770526 0.0021126467 0.00021489879)
(-0.018890888 0.00060541829 -0.00055195692)
(-0.019000852 0.0013503574 -0.00033263062)
(-0.019324379 0.001879967 -0.00013664609)
(-0.020882686 -0.00011521887 -0.0012294878)
(-0.020995624 0.00083064331 -0.0009237849)
(-0.021345975 0.0015366189 -0.00070375261)
(-0.022132253 -0.001007214 -0.0021153873)
(-0.022186407 6.8453079e-05 -0.0017509693)
(-0.022608852 0.00097843392 -0.001442011)
(-0.022534921 -0.0020319862 -0.0032484712)
(-0.0226343 -0.00073925736 -0.0028063349)
(-0.023035845 0.00034992019 -0.0024414788)
(-0.02185457 -0.003225548 -0.0045383325)
(-0.021889273 -0.0017584985 -0.0040469202)
(-0.02235543 -0.00043554126 -0.0036380804)
(-0.020046192 -0.0044946604 -0.0061025834)
(-0.020104887 -0.0028537446 -0.0055660507)
(-0.020533499 -0.0013435115 -0.0050940841)
(-0.016893185 -0.0058880961 -0.0078415555)
(-0.016906335 -0.0040659385 -0.0072545478)
(-0.017367731 -0.0023405095 -0.0067658303)
(-0.012382875 -0.0073465225 -0.0097856086)
(-0.012418017 -0.005372272 -0.0091980049)
(-0.012824365 -0.0034594649 -0.0086704051)
(-0.006392725 -0.0088459353 -0.011918765)
(-0.0063768976 -0.0067340073 -0.011302145)
(-0.0067993142 -0.0046428099 -0.010773003)
(0.0010715737 -0.010374096 -0.014192061)
(0.0010355833 -0.0081330211 -0.013594419)
(0.00069771146 -0.0058891533 -0.013060063)
(0.010038139 -0.01189367 -0.016585175)
(0.01007525 -0.0095673169 -0.016008042)
(0.0097567454 -0.0072003302 -0.015508805)
(0.020427028 -0.013379164 -0.019094687)
(0.020397039 -0.010979756 -0.018556849)
(0.020126044 -0.0084778823 -0.018071229)
(0.032226541 -0.014762624 -0.021587964)
(0.032245881 -0.012301482 -0.021132378)
(0.032092133 -0.0097488522 -0.02073407)
(0.045184458 -0.016083247 -0.024239501)
(0.045143164 -0.013580916 -0.023836667)
(0.044986454 -0.010957333 -0.023476718)
(0.05934726 -0.017174957 -0.026751146)
(0.059316817 -0.014661715 -0.026385688)
(0.059312641 -0.01198945 -0.026194943)
(0.074201508 -0.018157396 -0.029290408)
(0.074108285 -0.015406898 -0.029124665)
(0.074131144 -0.012909134 -0.029082017)
)
;

boundaryField
{
    free
    {
        type            calculated;
    }
    fixed
    {
        type            calculated;
    }
    traction
    {
        type            calculated;
    }
}


// ************************************************************************* //
