/*--------------------------------*- C++ -*----------------------------------*\
  =========                 |
  \\      /  F ield         | OpenFOAM: The Open Source CFD Toolbox
   \\    /   O peration     | Website:  https://openfoam.org
    \\  /    A nd           | Version:  6
     \\/     M anipulation  |
\*---------------------------------------------------------------------------*/
FoamFile
{
    version     2.0;
    format      ascii;
    class       pointScalarField;
    location    "0.16";
    object      E;
}
// * * * * * * * * * * * * * * * * * * * * * * * * * * * * * * * * * * * * * //

dimensions      [1 -1 -2 0 0 0 0];

internalField   nonuniform List<scalar> 
625
(
10925.868
11658.49
25823.076
25374.544
10697.398
9872.4364
25783.588
26369.87
2624.4775
698.592
6354.3076
25120.757
24405.261
25039.11
13333.507
10821.517
8986.8522
7556.8392
5485.4061
4268.1396
2900.3483
2029.1751
1414.4729
833.41963
791.17654
889.77663
1398.9926
2092.7525
3146.3121
4515.234
6172.4356
8303.0572
10375.629
13290.708
16002.02
19111.04
22863.328
13875.63
9311.062
9805.2884
7523.9467
5959.9177
5284.9915
3353.8994
2947.4126
2274.8962
1618.4638
1700.8514
1654.3007
2087.107
2701.8674
3665.7789
4972.6451
6584.6603
8760.7644
10933.932
13873.563
16419.578
19635.575
22472.018
2859.2875
178.59075
5334.629
17986.833
19113.274
9989.3606
11104.545
8572.0322
3941.912
4883.6946
2728.7382
1828.4991
1298.8428
828.04333
1107.9292
1533.2344
2498.584
3812.7164
5419.2391
7461.6212
9755.1363
12281.973
14912.214
17601.186
20284.842
23637.179
24798.595
24272.726
26110.009
23595.873
19724.457
16508.613
13656.554
11073.784
8711.5183
6706.297
5009.0182
3672.7915
2674.8778
1901.3908
1537.9473
1283.9906
1669.1579
1524.4905
2146.6661
3805.0934
4865.491
6387.8089
8109.6583
10668.802
12743.96
15798.325
8023.2182
8804.1892
9047.6481
9051.3194
8519.0765
8433.1214
25247.624
25600.766
25642.343
25890.466
26194.503
26332.492
5548.0135
3788.4001
3913.1047
3064.9175
2315.778
1985.698
1306.8961
917.39114
654.99637
561.544
670.54865
852.78859
1250.8724
1876.1771
2768.1481
4022.275
5498.0572
7404.9555
9526.1872
12271.021
14735.946
18223.718
22349.465
2116.7929
1713.9242
2088.2196
1770.3538
1791.1908
1690.7636
1237.2282
1300.722
947.13911
841.86723
790.27523
875.87076
1219.9638
1764.8762
2633.5696
3827.2718
5320.19
7320.2209
9317.0715
12142.614
14651.138
18145.634
22085.652
4635.6291
3986.1057
3404.9936
2672.2067
2059.5196
1300.4553
875.29456
437.40055
148.78648
134.84184
122.4671
367.64359
712.76695
1300.5019
2161.9493
3304.9433
4882.1494
6556.2947
9061.6105
11476.336
14559.789
18239.899
22122.435
1651.3212
2056.4662
2046.7021
347.39697
297.08916
505.5725
3044.139
3264.2131
3144.858
15679.733
15847.63
16210.309
17429.352
16158.227
15501.316
10429.054
9013.3808
10472.63
9699.4185
10122.795
9506.987
7945.4324
6151.35
7672.1242
5958.1412
5740.3216
5510.9482
5054.8073
3688.0353
4882.849
3588.5824
2424.0197
3194.1459
2676.5198
2262.3883
2639.1926
2387.3174
1404.4579
1961.296
1807.9872
1423.9238
1603.6506
1846.1095
1480.6327
1709.3014
2103.8779
2031.9728
2185.9409
2798.0948
2861.713
2983.5409
3809.1244
3999.5321
4191.7177
5186.3256
5498.3388
5703.803
6961.7048
7313.2271
7581.6335
9123.278
9492.6641
9817.9003
11543.17
11865.634
12255.547
14209.278
14481.157
14826.748
16885.743
17176.047
17497.097
19841.332
19874.731
20097.188
22572.697
22943.874
23077.763
25368.957
25752.021
25697.097
24713.033
24789.352
24757.107
24539.99
25141.316
24892.46
13521.163
12529.342
12911.432
12691.14
11756.581
12373.62
10565.834
10049.508
10740.082
7996.6164
7611.4989
8234.6426
6525.216
6278.0924
6695.8515
4675.7467
4058.7877
5133.1012
3304.6105
3382.7323
4055.4465
2654.4244
2194.0989
2934.2966
1700.3562
1721.3957
2168.9105
1119.4375
1049.5392
2065.6634
1010.5297
1140.4612
1648.0822
1188.569
1184.206
1868.1396
1536.7989
1719.5279
2263.6533
2322.8335
2441.3509
2963.2873
3348.0104
3456.9013
3992.0211
4733.218
4803.4504
5336.6311
6464.2235
6476.6585
7016.913
8574.7229
8541.7467
9049.8035
10938.648
10832.808
11323.674
13690.038
13685.398
13938.299
16309.933
16300.691
16522.151
19410.407
19457.466
19603.685
22931.378
23186.505
23286.728
9165.1428
8191.4327
6647.2579
5531.0651
4870.3557
3151.2644
2741.7819
1805.4694
1245.6466
889.3404
896.92521
1031.7546
1233.9022
1859.5582
2743.1071
3995.0862
5597.6683
7497.8054
9810.9686
12455.886
15451.839
19036.292
23108.397
1268.23
3988.1465
1564.2425
2805.0337
2234.8139
2197.0717
2323.3703
2053.3338
2263.0269
1926.1933
2122.6581
2143.1042
2370.5832
2897.0501
3683.0169
4824.1715
6367.2069
8296.6846
10557.206
13182.758
15808.306
19043.324
22839.463
6241.9334
2614.2773
3668.186
2683.1748
2068.5905
1689.4831
788.18034
839.17549
107.41169
406.78467
384.91026
654.52906
1055.2833
1684.9188
2571.7252
3771.2654
5279.9287
7165.7256
9469.8756
12175.495
15364.723
18914.29
22975.47
7185.6071
6708.7817
6820.1804
6185.2289
6542.8846
6521.7056
5470.4884
5650.6526
5547.8184
4229.8293
4164.4626
4196.7763
3716.3292
3755.5123
3942.3979
2868.7227
2731.9167
2644.8938
2192.3325
2126.6384
2227.777
1665.8762
1624.5582
1654.0065
1351.0769
1125.6816
1230.2708
1069.2997
1085.719
1047.0515
996.83602
993.80356
867.66942
1065.9322
1147.3843
1130.3631
1389.9046
1520.385
1413.3339
1934.9333
2098.2199
2007.2995
2793.9966
2976.9261
2913.9224
3981.8148
4188.7782
4153.9235
5531.6356
5721.7165
5703.3567
7407.546
7561.5714
7656.2817
9658.595
9822.8811
9783.7514
12221.976
12454.257
12487.578
14835.398
15048.777
15272.263
18497.649
18676.581
18699.826
22305.621
22572.214
22665.096
1757.4906
1660.283
1257.303
2746.544
3766.9241
3659.0321
1787.0206
1402.3469
1382.2183
1837.9043
2344.2011
2391.6397
1898.3506
1698.8853
1636.6001
1730.943
1576.7043
1604.7599
1519.572
1514.9793
1505.5519
1639.9806
1326.3826
1137.5214
1333.9437
1249.0266
1206.8523
1434.7356
1247.3884
1037.3985
1437.7589
1211.8039
1111.4019
1575.7304
1423.6579
1330.2256
1934.8003
1789.9819
1694.1088
2487.983
2362.6839
2349.245
3353.8455
3270.2059
3287.8204
4540.6323
4470.5446
4542.5601
6042.7213
6029.2523
6126.0379
7990.1478
7976.7281
8072.1122
10095.334
10090.148
10188.929
12868.446
12656.475
12836.911
15342.986
15341.055
15323.899
18714.7
18752.276
18680.936
22282.635
22499.762
22547.372
5017.5147
5238.6925
5544.4138
3743.3788
3616.292
4279.932
3460.5628
4528.8534
4411.1396
2945.4589
2985.4142
3294.9426
2178.4585
2611.3272
2749.8399
1612.1539
1730.3911
2084.3769
1344.1248
1135.8031
1412.0575
818.9002
787.78663
1413.0858
796.10147
534.25845
948.08687
773.47537
415.52005
923.74988
811.79945
495.54633
943.7495
1107.8864
711.96905
1099.2961
1445.8151
1075.529
1390.7408
2052.883
1690.285
1922.099
2895.0017
2575.9182
2707.9535
4058.5324
3727.3064
3841.026
5513.6805
5277.4217
5325.4991
7372.1519
7022.0843
7133.7823
9567.1111
9351.5156
9493.1617
12109.639
11863.314
12034.076
15332.182
15054.588
15314.265
18552.28
18402.609
18578
22475.392
22506.615
22652.029
)
;

boundaryField
{
    free
    {
        type            zeroGradient;
    }
    fixed
    {
        type            zeroGradient;
    }
    freeTop
    {
        type            zeroGradient;
    }
}


// ************************************************************************* //
