/*--------------------------------*- C++ -*----------------------------------*\
  =========                 |
  \\      /  F ield         | OpenFOAM: The Open Source CFD Toolbox
   \\    /   O peration     | Website:  https://openfoam.org
    \\  /    A nd           | Version:  6
     \\/     M anipulation  |
\*---------------------------------------------------------------------------*/
FoamFile
{
    version     2.0;
    format      ascii;
    class       pointScalarField;
    location    "1.58";
    object      p;
}
// * * * * * * * * * * * * * * * * * * * * * * * * * * * * * * * * * * * * * //

dimensions      [1 -1 -2 0 0 0 0];

internalField   nonuniform List<scalar> 
625
(
90101.069
-76160.317
1909.9668
7756.5352
165200.61
-205010.4
6924.8277
863.66462
60821.929
30353.027
-1475.7728
-12963.534
2700.4776
7544.0977
59040.652
61090.161
74488.65
81992.113
78669.142
85178.801
83625.053
84904.28
88662.469
86537.971
91374.71
93891.883
96109.151
98046.861
98262.064
97049.968
91849.892
87215.313
78258.626
67181.484
54315.174
34989.703
19992.928
-38607.753
-25672.848
-44004.159
-41396.442
-48062.85
-52112.919
-55955.751
-59177.471
-64615
-67767.793
-72182.904
-74993.152
-78366.283
-78469.157
-77755.411
-74970.351
-69108.52
-62473.335
-52250.469
-44081.761
-33288.8
-20989.608
-7631.8181
135453.86
2820.2001
-58490.118
-45098.082
-71135.431
-71648.468
-71544.622
-97210.771
-91259.911
-99755.951
-109951.3
-115136.61
-122618.72
-120905.9
-127373.89
-119969.09
-119360.59
-110667.83
-101729.54
-91589.754
-78318.217
-65978.581
-52649.713
-37664.348
-23649.968
-9130.6137
5091.5187
2071.7019
-7142.5763
24022.472
32150.955
41411.142
55905.752
69286.299
78798.556
87023.399
93842.386
97239.323
98129.264
97787.309
94843.623
91552.583
86953.26
74206.04
84281.599
74574.855
65432.583
71546.092
56712.928
67749.094
44338.597
43803.365
98712.184
73147.857
53795.241
-86369.083
-84940.517
-76762.472
17949.443
17410.106
21145.869
-8127.8026
-1766.0958
-4815.3167
19973.189
28582.931
37046.389
38059.633
45193.023
53608.053
57310.635
64906.794
70382.531
75441.568
80865.744
82805.113
84220.585
82874.709
80334.596
73794.322
66520.114
57995.5
45766.792
37182.44
26045.319
13406.51
7925.5631
5185.0467
14578.225
10273.825
15810.846
14658.674
14847.107
12847.931
12251.163
9174.6584
5110.9719
1850.3062
-2219.847
-5881.0347
-8425.4637
-10737.353
-11662.313
-11109.062
-9927.2781
-8475.8877
-6004.9346
-5631.3663
1390.1705
3222.6358
-25211.876
-25585.984
-30872.073
-27782.322
-39070.914
-36675.473
-42386.917
-42652.417
-44285.127
-44732.328
-43198.436
-42514.33
-39630.974
-37506.987
-34199.875
-31108.239
-28189.855
-24437.539
-22155.193
-17023.583
-13141.749
-10587.721
-2869.7614
64415.046
39448.402
50648.313
10603.757
15055.974
15680.101
-5791.6327
-14166.563
-37271.493
-50873.345
-53791.139
-54342.588
-48160.65
-47907.901
-46740.996
-61085.863
-60904.94
-64060.661
-56461.576
-60011.806
-63936.164
-66888.205
-72625.221
-77536.218
-71523.86
-76182.08
-80142.428
-77607.627
-83330.137
-90890.974
-83591.625
-88059.949
-96194.814
-87411.289
-92154.43
-101333.97
-91632.869
-96542.376
-107377.39
-93051.801
-97462.361
-109430.03
-94112.578
-99438.528
-111292.6
-92099.596
-96777.668
-109268.12
-88520.127
-93465.833
-104972.97
-82944.131
-86971.737
-98723.962
-75181.453
-79402.085
-88859.752
-66683.479
-68932.643
-78592.037
-56273.562
-59586.518
-66632.257
-47552.563
-48126.162
-53758.312
-36911.852
-37183.405
-41899.637
-26445.838
-26385.551
-30145.096
-17919.783
-20159.744
-20648.836
-15943.187
-10699.969
-14457.171
-18642.003
-20078.009
-21738.794
982.98683
783.5385
3515.4163
10056.979
11530.192
9062.2429
53511.858
59601.052
55929.505
63892.227
64237.299
53136.127
76558.8
67454.1
60401.958
75066.554
68768.479
63369.624
80201.324
77350.123
63883.117
89117.581
71249.006
69832.299
89372.696
74285.991
72675.755
96452.974
76067.923
71975.898
99036.468
78091.754
83463.368
106231.33
76293.886
85386.388
110590.78
81247.145
90535.198
114139.6
82717.919
95663.249
116347.98
85815.331
99946.298
117241.11
87291.773
102344.89
115485.33
88126.272
103090.04
110800.12
86796.781
100866.54
103558.21
84244.8
96560.068
94652.809
79035.62
88452.552
80836.443
70947.161
77840.417
68560.505
60331.4
67100.545
53175.876
48387.798
52444.398
34846.622
35795.072
35010.854
26880.787
28129.142
30264.858
31866.556
40217.893
36831.715
39109.201
47976.284
46875.621
51036.171
50269.272
53051.783
51375.813
51389.584
48998.536
45440.082
42346.924
37584.181
33717.045
28855.919
25840.17
22122.267
17665.98
15506.258
9709.1285
2065.3551
-5874.9107
-814.06739
-3741.7409
-2489.9977
-1475.1927
-6721.9446
-7052.5083
-8789.6819
-10525.455
-11597.669
-8837.1009
-8925.9628
-3929.4621
-1316.9004
4283.9496
8162.3823
12047.643
15976.285
15366.568
17503.626
15976.946
13165.167
7027.6572
-32846.916
-38625.095
-45025.612
-52037.965
-53624.654
-60535.895
-58559.951
-60512.847
-59524.789
-59275.888
-58302.162
-57473.737
-58109.911
-56871.024
-57636.528
-56369.489
-53997.358
-51407.886
-46413.622
-38718.905
-32065.358
-22825.584
-13503.346
36809.602
32680.678
27069.485
47902.642
31189.674
26958.691
39508.451
29705.694
36706.675
43742.779
41342.189
30335.573
58731.061
40122.699
39317.475
52201.401
48233.748
45095.243
62914.475
59225.763
48539.357
66557.671
58374.945
53627.662
66535.203
65656.079
58430.033
68580.593
70630.641
59182.217
66621.2
70880.019
60257.077
63657.907
71965.715
60266.095
59685.918
69622.712
57589.658
53168.478
66372.792
54359.899
46043.083
60584.925
48756.082
37885.775
54169.132
43431.012
31197.302
46792.597
36727.044
24078.34
38224.101
29398.777
17230.532
29129.552
24455.637
12494.641
25534.098
18913.944
6809.1144
15357.368
9221.9458
7926.1378
8409.5735
10402.392
906.91853
-1271.7822
-1916.06
11983.414
3135.091
9941.8146
9450.6108
7652.0403
10516.083
12034.027
6233.0848
7900.0586
13938.368
6360.7533
6592.0509
11500.502
5027.3596
7647.6577
10231.523
7091.9374
5671.7553
12816.168
4158.5918
1904.0793
7790.81
1396.6646
-220.25914
7998.7533
1837.9029
-3755.3986
7953.9238
-1793.2
-7472.5463
5814.3139
-1777.9543
-11921.055
6598.0298
-2094.8464
-15041.803
6156.2506
-1027.5507
-18390.869
7450.45
-291.17077
-20761.14
7172.6969
1999.6209
-21088.806
8564.5329
4570.914
-21267.15
9399.3242
6059.7296
-19535.086
8307.9494
7145.1308
-17219.031
9112.9145
8862.7151
-10631.39
9932.732
9791.1136
-12272.144
9354.5239
-4186.3155
-3059.9733
7938.064
9313.6831
1365.437
7939.206
8127.7708
6579.6243
-38409.628
-41811.081
-56894.118
-22980.238
-24794.439
-38492.641
-28987.646
-36813.834
-44836.866
-38914.203
-36845.987
-49027.336
-37795.826
-38786.285
-50832.229
-40794.676
-42609.873
-57345.899
-41849.695
-41969.079
-57697.819
-43285.981
-45099.908
-60688.121
-42185.598
-44875.881
-59633.501
-43019.711
-45845.328
-60268.116
-41188.11
-47513.157
-59361.537
-39735.091
-48689.4
-57273.371
-37744.221
-51968.769
-56644.422
-36499.011
-54200.98
-54500.881
-34812.456
-56511.889
-52699.116
-33757.018
-57493.91
-51695.582
-32637.455
-57877.851
-48881.397
-31325.711
-54248.147
-44747.199
-28509.062
-49368.711
-42287.333
-25134.553
-44848.456
-35155.737
-21714.665
-34512.438
-26133.682
-13514.31
-21261.855
-11967.411
-6017.9276
-12778.073
-10949.215
)
;

boundaryField
{
    free
    {
        type            calculated;
    }
    fixed
    {
        type            calculated;
    }
    traction
    {
        type            calculated;
    }
}


// ************************************************************************* //
