/*--------------------------------*- C++ -*----------------------------------*\
  =========                 |
  \\      /  F ield         | OpenFOAM: The Open Source CFD Toolbox
   \\    /   O peration     | Website:  https://openfoam.org
    \\  /    A nd           | Version:  6
     \\/     M anipulation  |
\*---------------------------------------------------------------------------*/
FoamFile
{
    version     2.0;
    format      ascii;
    class       pointVectorField;
    location    "1.37";
    object      u;
}
// * * * * * * * * * * * * * * * * * * * * * * * * * * * * * * * * * * * * * //

dimensions      [0 1 0 0 0 0 0];

internalField   nonuniform List<vector> 
3969
(
(0 -6.0549897e-20 0)
(0 -3.2492042e-19 0)
(-1.871754 -0.59690301 -0.0082040685)
(-1.9748921 -0.15460937 -0.012697948)
(0 3.3116643e-18 0)
(0 2.6766795e-18 0)
(-1.9712325 -0.15197135 -0.012640923)
(-1.8681114 -0.59423613 -0.008269238)
(0 1.4108997e-19 0)
(0 8.4940508e-19 0)
(0 3.7103272e-19 0)
(-2.1447532e-18 -1.9311883e-19 0)
(0 1.0327894e-18 0)
(0 -5.9506635e-19 0)
(0 -5.7949008e-19 0)
(-1.8846797 -0.54153628 -0.0087348739)
(-1.8975351 -0.4862039 -0.0092661437)
(-1.9103893 -0.43091731 -0.0098398778)
(-1.9232317 -0.3756746 -0.010417008)
(-1.9360944 -0.32045682 -0.011016025)
(-1.9490013 -0.26522564 -0.011602672)
(-1.9619475 -0.20995187 -0.012162546)
(-0.0033737432 -0.011419156 -0.012312704)
(-0.00471632 -0.01877633 -0.015804745)
(-0.0092664759 -0.027972847 -0.017617051)
(-0.016966568 -0.037128658 -0.018353487)
(-0.026653186 -0.046779073 -0.018631177)
(-0.039204234 -0.056671081 -0.018508801)
(-0.053555778 -0.066641515 -0.018550228)
(-0.070590681 -0.076956738 -0.018243351)
(-0.089435578 -0.087247239 -0.018237652)
(-0.11066503 -0.097809901 -0.017874564)
(-0.13384092 -0.10863203 -0.017792118)
(-0.15905553 -0.11951187 -0.017522322)
(-0.18632282 -0.1307433 -0.017246878)
(-0.21542192 -0.14219242 -0.017005544)
(-0.24650398 -0.15381895 -0.01666598)
(-0.27927629 -0.16574029 -0.016314378)
(-0.313856 -0.17792326 -0.015979269)
(-0.35007549 -0.19031273 -0.015593275)
(-0.38795002 -0.20298661 -0.015209504)
(-0.42733794 -0.21584583 -0.014805085)
(-0.46823203 -0.22894134 -0.014401772)
(-0.51050739 -0.2422241 -0.013993163)
(-0.55413354 -0.25568433 -0.013584704)
(-0.59901411 -0.26930757 -0.013180989)
(-0.64508643 -0.28304706 -0.012782785)
(-0.69224732 -0.29693527 -0.012399759)
(-0.74045098 -0.3108865 -0.012033682)
(-0.78960934 -0.32492139 -0.011673775)
(-0.83966178 -0.3390031 -0.011337982)
(-0.89051095 -0.35309694 -0.011016448)
(-0.942099 -0.36720591 -0.010711499)
(-0.99434903 -0.3812935 -0.010424839)
(-1.0471914 -0.39534907 -0.010151996)
(-1.100555 -0.40936085 -0.0098916761)
(-1.1543818 -0.42330742 -0.0096479058)
(-1.2086061 -0.43717842 -0.0094189633)
(-1.263156 -0.45098911 -0.009182876)
(-1.3179916 -0.46467591 -0.0089910221)
(-1.3730396 -0.47830543 -0.0087900267)
(-1.4282686 -0.49181105 -0.008624883)
(-1.4836286 -0.50524783 -0.0084607286)
(-1.5390518 -0.51857631 -0.0083344109)
(-1.5945712 -0.53180931 -0.008225427)
(-1.6500338 -0.54497707 -0.0081519126)
(-1.7055647 -0.55803345 -0.0081165661)
(-1.7609879 -0.5710438 -0.0081137296)
(-1.8163978 -0.5839782 -0.0081594885)
(-0.0014096444 0.0098628091 0.013633304)
(-0.0074348565 0.018202222 0.013038128)
(-0.012465064 0.026659375 0.016042628)
(-0.021269158 0.03579391 0.015256301)
(-0.033279553 0.044805704 0.015370172)
(-0.047135111 0.053529523 0.014603059)
(-0.064248032 0.061914151 0.014043644)
(-0.083418726 0.069851687 0.013230692)
(-0.10521629 0.077194518 0.012527688)
(-0.12933727 0.084004415 0.011695432)
(-0.1556905 0.090122622 0.010951928)
(-0.18433271 0.095592684 0.010152041)
(-0.21505713 0.10033341 0.0093946636)
(-0.24787405 0.10428835 0.0085919984)
(-0.28265338 0.10749766 0.0078181608)
(-0.31932875 0.10984897 0.007025971)
(-0.35781907 0.11138689 0.0062329508)
(-0.39800466 0.11206305 0.0054322404)
(-0.43980892 0.11189643 0.0046188849)
(-0.48314251 0.11086278 0.0038085778)
(-0.52787501 0.10902839 0.0029778606)
(-0.57395696 0.10628494 0.0021636386)
(-0.62125559 0.10279949 0.0013071523)
(-0.66972008 0.09846983 0.00047758654)
(-0.71916241 0.093369975 -0.00035823647)
(-0.76957761 0.087518857 -0.0011924541)
(-0.82078907 0.080968389 -0.0020349004)
(-0.87286097 0.073712916 -0.0028661127)
(-0.9255854 0.065796595 -0.003670701)
(-0.97889734 0.057280167 -0.004487134)
(-1.0327587 0.048199456 -0.005270395)
(-1.0870508 0.038596473 -0.0060407245)
(-1.1417384 0.028511142 -0.0067791125)
(-1.1967289 0.017983876 -0.0074839976)
(-1.2519827 0.0070605753 -0.0081493559)
(-1.3074373 -0.0042189095 -0.0087779837)
(-1.3630262 -0.015824304 -0.0093465237)
(-1.4187252 -0.027705614 -0.0098836234)
(-1.4744948 -0.039822388 -0.010360486)
(-1.5302689 -0.052161012 -0.010784535)
(-1.5860595 -0.064659908 -0.011171161)
(-1.6418073 -0.077307336 -0.01150013)
(-1.6975129 -0.090065181 -0.011795315)
(-1.7531411 -0.10290945 -0.01203689)
(-1.8087045 -0.11580607 -0.012251198)
(-1.8641689 -0.12874172 -0.012420914)
(-1.9195606 -0.14168643 -0.012568728)
(0 -3.6788701e-20 0)
(0 4.3346373e-19 0)
(0 -5.1571767e-19 0)
(1.0565839e-18 -1.075502e-19 0)
(0 -8.9289289e-19 0)
(0 -4.1423699e-19 0)
(0 -3.4725281e-19 0)
(-0.0049421137 0.0066536919 -0.01081133)
(-0.0082736702 0.022192679 -0.015086192)
(-0.012271326 0.025373479 -0.015832865)
(-0.021801319 0.038496793 -0.017345514)
(-0.032713836 0.045873368 -0.017830167)
(-0.046841003 0.055665192 -0.017869789)
(-0.063483953 0.063908869 -0.018360178)
(-0.082462566 0.072045987 -0.018183352)
(-0.10418514 0.079618255 -0.01853893)
(-0.12792494 0.086456953 -0.018411285)
(-0.15432929 0.092800893 -0.018693971)
(-0.18257994 0.098191746 -0.018625959)
(-0.21330371 0.10293085 -0.018622298)
(-0.24598299 0.10703315 -0.018598954)
(-0.28063601 0.1100617 -0.018449065)
(-0.31723863 0.11261803 -0.018411731)
(-0.3555872 0.1140465 -0.018203518)
(-0.39571344 0.11485205 -0.018071987)
(-0.43741544 0.11468822 -0.017858857)
(-0.48067682 0.11373668 -0.017647968)
(-0.52535159 0.11192073 -0.017416782)
(-0.57136151 0.10927388 -0.017171244)
(-0.61861662 0.10580992 -0.016913303)
(-0.66697776 0.10152018 -0.016645009)
(-0.71646404 0.096498693 -0.016344467)
(-0.76691272 0.090628264 -0.015999365)
(-0.81812958 0.084232031 -0.015796184)
(-0.8701106 0.076995885 -0.015507611)
(-0.92279396 0.069153542 -0.015272082)
(-0.97606417 0.060659629 -0.015017875)
(-1.0298516 0.051590146 -0.014768819)
(-1.0840911 0.041984496 -0.014539374)
(-1.1386971 0.031878642 -0.014312716)
(-1.193621 0.021315509 -0.01409599)
(-1.2487864 0.01033415 -0.013884516)
(-1.3041823 -0.00098105905 -0.013692665)
(-1.3596825 -0.012697495 -0.013497119)
(-1.4153165 -0.0246095 -0.013330252)
(-1.4710152 -0.036826299 -0.01315024)
(-1.5267478 -0.049227088 -0.013005883)
(-1.5824786 -0.061802081 -0.01286535)
(-1.6381992 -0.074513179 -0.012750317)
(-1.693872 -0.087321013 -0.012658444)
(-1.749487 -0.10021008 -0.012592796)
(-1.8050356 -0.11313375 -0.012560804)
(-1.860495 -0.12609132 -0.012561529)
(-1.9158846 -0.13902772 -0.012601446)
(-1.9583003 -0.20730755 -0.012062621)
(-1.945331 -0.26260064 -0.011509399)
(-1.9324609 -0.31782712 -0.010975048)
(-1.9195414 -0.37305678 -0.010465033)
(-1.9067526 -0.42827888 -0.0099391588)
(-1.8938763 -0.48357639 -0.0094050656)
(-1.8810302 -0.538893 -0.0088441892)
(-1.8127794 -0.58132525 -0.008136029)
(-1.7573798 -0.56839111 -0.0080174647)
(-1.701971 -0.55538606 -0.0078687125)
(-1.64652 -0.54229853 -0.007692438)
(-1.5910747 -0.52911397 -0.0074757983)
(-1.5356477 -0.51583099 -0.0072194751)
(-1.4802807 -0.50244215 -0.0069199879)
(-1.4249973 -0.48894462 -0.0065742416)
(-1.3698458 -0.4753415 -0.0061712657)
(-1.3148541 -0.46165243 -0.0057275061)
(-1.2600756 -0.4478234 -0.0052292149)
(-1.2056818 -0.43396125 -0.0046984904)
(-1.1514302 -0.41997084 -0.004077253)
(-1.0976783 -0.40594438 -0.0034485924)
(-1.0443362 -0.39185954 -0.0027550091)
(-0.99152012 -0.37774097 -0.002039792)
(-0.9392825 -0.36360356 -0.0012896702)
(-0.88770326 -0.34946859 -0.00051193591)
(-0.83685102 -0.33535247 0.00027808541)
(-0.78681019 -0.32127568 0.001087041)
(-0.73764263 -0.3072662 0.0019055359)
(-0.68944598 -0.293331 0.0027220008)
(-0.64227625 -0.27950784 0.0035438434)
(-0.59621878 -0.26579328 0.0043649839)
(-0.55135978 -0.25223418 0.0051815035)
(-0.50776294 -0.23883442 0.0059848208)
(-0.46551152 -0.22561233 0.0067843212)
(-0.42466772 -0.21258878 0.0075690473)
(-0.38533426 -0.1997801 0.008337231)
(-0.34752524 -0.18717639 0.0090926466)
(-0.31137295 -0.17483882 0.0098525364)
(-0.27687904 -0.16271862 0.01055695)
(-0.24416581 -0.1508598 0.011282261)
(-0.21332405 -0.13910455 0.0119056)
(-0.184381 -0.12785882 0.012713687)
(-0.15721196 -0.11665132 0.013179074)
(-0.13215468 -0.10585184 0.013970583)
(-0.10904295 -0.09503991 0.01446152)
(-0.087919552 -0.084672798 0.015267823)
(-0.069172088 -0.074167787 0.015751785)
(-0.052435524 -0.064550364 0.016406495)
(-0.037680327 -0.054223449 0.016837513)
(-0.025625387 -0.044869384 0.017420735)
(-0.015726976 -0.035297097 0.017240706)
(-0.0086143397 -0.026666794 0.016689753)
(-0.004206916 -0.016783769 0.014853849)
(-0.0070360323 -0.010529894 0.0088938156)
(0 4.4760752e-19 0)
(0 3.5005399e-19 0)
(0 -1.8139812e-19 0)
(0 -1.1919395e-18 5.9650371e-19)
(0 -1.0465334e-18 0)
(0 -2.3009608e-19 0)
(0 1.100347e-18 0)
(0 1.5278722e-18 0)
(0 1.4564486e-18 0)
(0 1.3838744e-18 0)
(0 1.1951943e-18 -1.468246e-19)
(0 3.2287313e-18 0)
(0 1.4154312e-18 0)
(0 -2.6079621e-19 0)
(-1.9744545 -0.15425062 -0.012688223)
(-1.9740302 -0.15389444 -0.01267988)
(-1.973596 -0.15354847 -0.012680138)
(-1.9731556 -0.15320875 -0.012676646)
(-1.9726934 -0.15287932 -0.012675281)
(-1.972219 -0.15256511 -0.01266819)
(-1.9717297 -0.15225446 -0.012647485)
(-1.8712962 -0.59662581 -0.0082152465)
(-1.8708402 -0.59633102 -0.0082251722)
(-1.8703853 -0.59602206 -0.0082423876)
(-1.8699325 -0.59569 -0.0082455054)
(-1.8694754 -0.59534224 -0.0082510333)
(-1.8690189 -0.59497936 -0.00825708)
(-1.8685641 -0.59460988 -0.0082646559)
(-0.001033265 -0.01671088 -0.010725734)
(-0.0040051024 -0.028843204 -0.011148179)
(-0.0087258859 -0.043040016 -0.013170955)
(-0.016675849 -0.056196897 -0.013829238)
(-0.026291932 -0.069246793 -0.014265546)
(-0.038903358 -0.082431132 -0.014487029)
(-0.052996716 -0.094631191 -0.014519461)
(-0.069655508 -0.10694525 -0.014608107)
(-0.088186887 -0.11811397 -0.014480117)
(-0.10887067 -0.12901802 -0.014500045)
(-0.13156692 -0.13901789 -0.014402306)
(-0.15633171 -0.14835494 -0.014268942)
(-0.18321129 -0.15711548 -0.014151844)
(-0.21207848 -0.16507222 -0.013952157)
(-0.24303993 -0.17246702 -0.0137993)
(-0.27599264 -0.17923533 -0.013580903)
(-0.31097341 -0.18551843 -0.013352161)
(-0.34785598 -0.19127903 -0.013118826)
(-0.38666627 -0.19672854 -0.012848239)
(-0.42729093 -0.20185961 -0.012572915)
(-0.46967292 -0.20682627 -0.012293383)
(-0.5137044 -0.21169203 -0.011999616)
(-0.55930298 -0.21659101 -0.011717718)
(-0.60633123 -0.22159825 -0.011433455)
(-0.65469682 -0.22685053 -0.011170861)
(-0.70427306 -0.2324253 -0.010894689)
(-0.75489936 -0.23842655 -0.010649358)
(-0.80646961 -0.24496937 -0.010419663)
(-0.85885461 -0.25210963 -0.010210376)
(-0.91190118 -0.25994885 -0.010014763)
(-0.96550233 -0.26855754 -0.0098424871)
(-1.0195387 -0.27798301 -0.0096842635)
(-1.0738885 -0.28829346 -0.0095417116)
(-1.1284663 -0.29951148 -0.0094128231)
(-1.1831692 -0.3116745 -0.0092963549)
(-1.2379155 -0.32478498 -0.0091853182)
(-1.2926478 -0.33884865 -0.009084572)
(-1.3472992 -0.35382925 -0.0089997285)
(-1.4018237 -0.36973096 -0.0089085123)
(-1.4561977 -0.38646596 -0.0088432836)
(-1.5103804 -0.40401759 -0.0087688795)
(-1.5643796 -0.42226617 -0.0087259399)
(-1.6181784 -0.44117438 -0.0086814782)
(-1.6717701 -0.46060401 -0.0086657099)
(-1.7252197 -0.48047468 -0.008662044)
(-1.7784615 -0.50066972 -0.0086763921)
(-1.8316218 -0.52105678 -0.0087050858)
(0.0015515839 -0.016805161 -0.0071013484)
(-0.0019496066 -0.029452654 -0.0078878361)
(-0.0077023221 -0.045728303 -0.009090293)
(-0.015492257 -0.058978945 -0.0097547594)
(-0.0259441 -0.073149239 -0.010104366)
(-0.038011123 -0.086104611 -0.010165739)
(-0.052448481 -0.0986505 -0.010526844)
(-0.068957243 -0.11020168 -0.010322899)
(-0.087431881 -0.12077497 -0.010711307)
(-0.10805513 -0.13044236 -0.010598186)
(-0.13078473 -0.13889874 -0.010743572)
(-0.15556372 -0.14643188 -0.010726854)
(-0.1825165 -0.15278585 -0.010787316)
(-0.21160235 -0.15813928 -0.010790555)
(-0.24287769 -0.16249564 -0.010793447)
(-0.27624818 -0.16598238 -0.010681026)
(-0.31169481 -0.16862753 -0.010618597)
(-0.34922228 -0.17057639 -0.010502172)
(-0.38878231 -0.1719479 -0.01037897)
(-0.43030088 -0.17287118 -0.010258197)
(-0.47369307 -0.17349502 -0.010119547)
(-0.51885119 -0.17398639 -0.0099838496)
(-0.56562912 -0.17446763 -0.0098541642)
(-0.61393579 -0.17515472 -0.0097342419)
(-0.66360671 -0.1761444 -0.009614186)
(-0.71447709 -0.1776379 -0.0095333849)
(-0.76641738 -0.17975473 -0.0094585474)
(-0.8192669 -0.18264329 -0.0093973503)
(-0.87284406 -0.18644388 -0.0093591983)
(-0.92702619 -0.19127212 -0.0093278181)
(-0.98165328 -0.19723095 -0.0093085573)
(-1.0365896 -0.20441079 -0.0093010311)
(-1.0917119 -0.21288926 -0.0092937608)
(-1.1469075 -0.22271826 -0.009293285)
(-1.2020707 -0.23394128 -0.0092866813)
(-1.2571275 -0.24656056 -0.0092854352)
(-1.3120028 -0.26060033 -0.0092684416)
(-1.366634 -0.27599308 -0.0092655773)
(-1.4209994 -0.29274848 -0.0092408568)
(-1.4750565 -0.31073187 -0.0092304691)
(-1.5288101 -0.32993481 -0.0092040974)
(-1.5822377 -0.35016535 -0.0091992523)
(-1.6353796 -0.37138094 -0.0091830051)
(-1.6882178 -0.39337324 -0.0091853864)
(-1.7408411 -0.41603351 -0.0091989527)
(-1.7932032 -0.43917499 -0.0092110873)
(-1.8454599 -0.46262396 -0.009251611)
(0.0038818246 -0.010734973 -0.0044135631)
(0.00022625294 -0.019830429 -0.0044996567)
(-0.0046361367 -0.029730996 -0.0050471856)
(-0.013237686 -0.039053919 -0.0055182704)
(-0.023248622 -0.047850887 -0.0056359331)
(-0.036271269 -0.056827452 -0.0060411657)
(-0.051148944 -0.06456521 -0.0059598248)
(-0.068266096 -0.072400774 -0.0063851644)
(-0.087554077 -0.079238845 -0.0065017224)
(-0.10906723 -0.085657193 -0.0066458261)
(-0.13251452 -0.09146584 -0.0068911152)
(-0.15825593 -0.096542925 -0.0070034799)
(-0.18602304 -0.10113571 -0.0071675285)
(-0.21594601 -0.10505478 -0.0072877579)
(-0.24795874 -0.10858412 -0.0074270007)
(-0.28202974 -0.11156442 -0.0075052279)
(-0.31815125 -0.11420085 -0.0076026125)
(-0.35624659 -0.11649702 -0.0076417116)
(-0.39627096 -0.11859142 -0.0077239869)
(-0.43809965 -0.12054227 -0.00777316)
(-0.48167429 -0.12248784 -0.0078408801)
(-0.52687119 -0.12449634 -0.0079035005)
(-0.57362736 -0.12675728 -0.0079737413)
(-0.62179045 -0.12928718 -0.0080331012)
(-0.67121548 -0.13225045 -0.0081283582)
(-0.72180875 -0.13573776 -0.0081966108)
(-0.77342536 -0.13984493 -0.0082724276)
(-0.82589879 -0.14465735 -0.008368543)
(-0.87911694 -0.15026572 -0.0084618763)
(-0.93294049 -0.15672587 -0.0085606956)
(-0.98723262 -0.16411724 -0.0086692949)
(-1.0418959 -0.17247856 -0.0087759564)
(-1.0968044 -0.18185735 -0.0088829171)
(-1.1518689 -0.19227962 -0.0089865063)
(-1.207 -0.2037529 -0.0090858785)
(-1.26212 -0.21629177 -0.0091744944)
(-1.3171657 -0.22986634 -0.0092579368)
(-1.3720851 -0.24446368 -0.0093322435)
(-1.42684 -0.2600382 -0.0093858515)
(-1.4813907 -0.27652224 -0.0094560787)
(-1.5357245 -0.29387558 -0.0094929741)
(-1.5898397 -0.31196251 -0.0095604454)
(-1.6437279 -0.33077575 -0.0095834868)
(-1.6974018 -0.35010669 -0.0096559065)
(-1.7508931 -0.36994524 -0.0096851014)
(-1.8041872 -0.39009365 -0.0097486953)
(-1.8573927 -0.4104727 -0.0097951829)
(0.0056605717 -0.00056590527 -0.00075165438)
(0.0026176414 -4.0525539e-05 -0.00026009925)
(-0.0022911844 -0.00076553269 -0.00060113712)
(-0.010238072 -0.00043225442 -0.0010466508)
(-0.021285043 -0.00089312545 -0.0013546609)
(-0.034438396 -0.0013151661 -0.0015286028)
(-0.050298953 -0.0018516989 -0.0021345949)
(-0.068364726 -0.003020822 -0.0022514006)
(-0.088975504 -0.0041585221 -0.0027118722)
(-0.11165076 -0.0060335798 -0.0030438527)
(-0.13670152 -0.0080727708 -0.0033438445)
(-0.16389169 -0.010750701 -0.0035947912)
(-0.19308689 -0.013855213 -0.0038514311)
(-0.22440435 -0.017444806 -0.0041177235)
(-0.25756148 -0.021644036 -0.0043367306)
(-0.29266946 -0.026355493 -0.0045691768)
(-0.32948673 -0.031633922 -0.004770817)
(-0.36804674 -0.037457632 -0.0050008612)
(-0.40820795 -0.043812223 -0.0052242774)
(-0.44991223 -0.050736666 -0.0054331019)
(-0.49309955 -0.058197016 -0.0056457004)
(-0.53768164 -0.066243412 -0.0058540044)
(-0.58347853 -0.074734569 -0.0060588789)
(-0.63046794 -0.083734417 -0.0062961495)
(-0.6785601 -0.093213358 -0.0064990563)
(-0.72767083 -0.1031432 -0.0067258901)
(-0.77769017 -0.11347535 -0.0069823417)
(-0.82856463 -0.12419519 -0.0072350401)
(-0.88020463 -0.13526946 -0.0074841639)
(-0.93253155 -0.1466634 -0.0077484314)
(-0.98547287 -0.15835514 -0.0079963623)
(-1.038961 -0.17029432 -0.0082498687)
(-1.0929109 -0.18247026 -0.0084859577)
(-1.1472781 -0.19483469 -0.0087184721)
(-1.2019802 -0.20737037 -0.0089297589)
(-1.2569679 -0.22004098 -0.0091320079)
(-1.3121891 -0.23283133 -0.0093096445)
(-1.3675767 -0.24570237 -0.0094730578)
(-1.4230991 -0.25864143 -0.0096236222)
(-1.478706 -0.27163062 -0.0097458639)
(-1.5343883 -0.28466902 -0.009855722)
(-1.5900644 -0.2977042 -0.0099537661)
(-1.645751 -0.31077293 -0.010034342)
(-1.7013831 -0.32379243 -0.010123099)
(-1.7569877 -0.33684094 -0.01018487)
(-1.8124931 -0.34982125 -0.01026975)
(-1.8679678 -0.36279357 -0.010344475)
(0.006816274 0.0099435843 0.0029148559)
(0.0036062911 0.019291261 0.0034034305)
(-0.00025378407 0.029411709 0.0032802587)
(-0.0091305144 0.038697766 0.003088554)
(-0.020134614 0.047693808 0.0030115946)
(-0.034343552 0.055531173 0.0023878443)
(-0.051156066 0.062570338 0.0022104282)
(-0.070676688 0.068145249 0.0018034857)
(-0.092510655 0.072646077 0.0013109353)
(-0.11686637 0.075476578 0.0009919036)
(-0.14338036 0.076946033 0.00059593252)
(-0.17195466 0.076651462 0.00017495392)
(-0.20257597 0.074947268 -0.00028136721)
(-0.2350145 0.071466013 -0.00067284072)
(-0.2692141 0.066453736 -0.0011177975)
(-0.30505563 0.059871147 -0.0015227065)
(-0.34241177 0.051740973 -0.0019219452)
(-0.38119075 0.042221461 -0.0023126558)
(-0.42130097 0.031339403 -0.0027044909)
(-0.46264556 0.019253436 -0.0030836154)
(-0.50518062 0.0060451931 -0.0034788545)
(-0.54874693 -0.0080316556 -0.0038904892)
(-0.59337366 -0.022983546 -0.0042831183)
(-0.63904474 -0.038543569 -0.0046675061)
(-0.68566716 -0.05465488 -0.0050551149)
(-0.73319385 -0.071085245 -0.0054535969)
(-0.78161454 -0.087723475 -0.0058339645)
(-0.83088407 -0.10440308 -0.0062002949)
(-0.88095918 -0.12098386 -0.0065680668)
(-0.93181721 -0.13732866 -0.0069250836)
(-0.98343289 -0.15331462 -0.0072769376)
(-1.0357781 -0.16881516 -0.0076263556)
(-1.0888082 -0.18375156 -0.007957211)
(-1.1425099 -0.19801353 -0.0082861344)
(-1.1968141 -0.21155012 -0.0085932618)
(-1.2517099 -0.22430434 -0.0088881949)
(-1.3071267 -0.23623731 -0.0091604572)
(-1.3630316 -0.24732614 -0.0094219988)
(-1.4193594 -0.25758877 -0.0096316205)
(-1.476072 -0.26705973 -0.009852131)
(-1.5330777 -0.27571789 -0.010038137)
(-1.5903465 -0.28364386 -0.010220641)
(-1.6478108 -0.29091837 -0.010363409)
(-1.7054183 -0.29758172 -0.010520471)
(-1.7631085 -0.30379223 -0.010631013)
(-1.8208237 -0.30957225 -0.010777011)
(-1.8785483 -0.31512517 -0.010880694)
(0.0059129038 0.015438722 0.0067806644)
(0.0021890465 0.031031985 0.0070237268)
(-0.0019859333 0.046440275 0.007688682)
(-0.010921274 0.061513427 0.007561064)
(-0.022356462 0.0755008 0.0070823937)
(-0.0369897 0.08840114 0.0066926778)
(-0.054526155 0.099930906 0.0061826496)
(-0.074623025 0.10968905 0.0055743405)
(-0.097381297 0.11783533 0.005051628)
(-0.12245556 0.12384695 0.0044777013)
(-0.14982618 0.12800031 0.0039148208)
(-0.17923523 0.1299386 0.0033595571)
(-0.21062065 0.12981848 0.002844453)
(-0.24377818 0.12749293 0.0022922862)
(-0.27857823 0.12310037 0.0017611911)
(-0.31493489 0.11663018 0.0012331415)
(-0.35267461 0.10820942 0.0007229894)
(-0.39172861 0.097938577 0.00019105515)
(-0.43198309 0.085982262 -0.00032385758)
(-0.47335604 0.072474988 -0.0008428821)
(-0.51578967 0.057654805 -0.0013614024)
(-0.55921427 0.041526241 -0.0018910816)
(-0.60356707 0.024544267 -0.0023549345)
(-0.64891074 0.0068727373 -0.0029072951)
(-0.69508204 -0.011423572 -0.0034065731)
(-0.74210867 -0.030026008 -0.0039026968)
(-0.78999167 -0.04881469 -0.0044107892)
(-0.83870012 -0.067513258 -0.0049293638)
(-0.88821845 -0.085964612 -0.0054250969)
(-0.93857418 -0.10396474 -0.0059299013)
(-0.98972875 -0.1213565 -0.0064197516)
(-1.0416763 -0.13799473 -0.0069089297)
(-1.0944041 -0.15375045 -0.0073757477)
(-1.14789 -0.16850226 -0.0078404746)
(-1.2020836 -0.18219602 -0.0082673975)
(-1.2569898 -0.194733 -0.0086909013)
(-1.3125249 -0.20609863 -0.0090756466)
(-1.3686578 -0.21627229 -0.0094376217)
(-1.4253606 -0.22525667 -0.0097738236)
(-1.4825005 -0.23309448 -0.010072633)
(-1.5400868 -0.23985427 -0.010343099)
(-1.5980108 -0.24559003 -0.010579141)
(-1.656232 -0.25039832 -0.010796191)
(-1.7146473 -0.25440335 -0.010983264)
(-1.7732071 -0.25774451 -0.011146853)
(-1.8318388 -0.26054713 -0.011302528)
(-1.8904727 -0.26300957 -0.011438063)
(0.0028949361 0.01530469 0.0097098443)
(-0.0014106155 0.029170097 0.010283273)
(-0.0057778833 0.044052971 0.01164331)
(-0.015152118 0.058117211 0.011327328)
(-0.026275148 0.071724753 0.011176978)
(-0.041248567 0.084485759 0.010544914)
(-0.058426693 0.096057147 0.010022798)
(-0.078556078 0.10630912 0.0093351872)
(-0.10109443 0.11516996 0.0087198312)
(-0.12602369 0.12230434 0.0080220662)
(-0.15331961 0.12793398 0.0073366762)
(-0.18257747 0.13167191 0.0067491439)
(-0.21400248 0.13375901 0.00602014)
(-0.24718898 0.13401227 0.0053599427)
(-0.2821831 0.13250322 0.0046902409)
(-0.3187798 0.12925594 0.0040239555)
(-0.35691181 0.12433735 0.0033512092)
(-0.3964522 0.11783286 0.002691928)
(-0.43730491 0.10984549 0.0020262618)
(-0.47939657 0.10048992 0.0013625349)
(-0.52262752 0.089869021 0.00070832875)
(-0.56693688 0.078214809 2.8776505e-05)
(-0.61231031 0.065526326 -0.00062016263)
(-0.65863326 0.052132242 -0.0012962451)
(-0.70586019 0.038054946 -0.0019283202)
(-0.75396697 0.023522075 -0.0025998236)
(-0.80293607 0.0086582202 -0.0032677669)
(-0.85271772 -0.006383242 -0.0039107227)
(-0.90329147 -0.021439555 -0.0045446442)
(-0.9546284 -0.036364577 -0.0051821085)
(-1.0066778 -0.051043677 -0.0058000535)
(-1.0594325 -0.065355516 -0.0064100421)
(-1.1128416 -0.07919719 -0.0069989237)
(-1.166876 -0.092481075 -0.0075699013)
(-1.2214865 -0.10514711 -0.008106267)
(-1.2766491 -0.11711635 -0.0086291841)
(-1.3322843 -0.12837422 -0.0091026404)
(-1.388391 -0.13888976 -0.0095589646)
(-1.4448656 -0.14865331 -0.0099580809)
(-1.5016826 -0.15768194 -0.010336716)
(-1.5587872 -0.16601546 -0.010669846)
(-1.6161208 -0.17368098 -0.010972761)
(-1.6736281 -0.18074599 -0.011233181)
(-1.7312491 -0.18728008 -0.011464386)
(-1.7889423 -0.1933705 -0.011658924)
(-1.8466533 -0.19910149 -0.011838798)
(-1.9043255 -0.20459345 -0.011989731)
(0 -1.3466022e-19 0)
(0 7.5366777e-19 0)
(0 6.5165663e-19 0)
(0 5.7507556e-19 -1.9712845e-19)
(0 2.2718527e-19 0)
(0 -7.9790728e-21 0)
(0 1.1043721e-19 0)
(0 4.1336048e-20 0)
(0 -2.6858718e-19 0)
(0 -6.6214807e-19 0)
(0 -8.2258928e-19 -1.3658759e-19)
(0 -1.3485606e-19 0)
(0 1.6611829e-19 0)
(0 3.2087964e-19 0)
(0 2.5933431e-19 0)
(0 4.0848754e-19 0)
(0 7.4604954e-19 0)
(0 7.4776707e-19 3.7665187e-19)
(0 6.4460961e-19 0)
(0 7.50578e-19 0)
(0 2.5417671e-19 0)
(-4.3784313e-18 2.0626625e-19 0)
(1.866069e-18 -4.6730283e-19 0)
(-1.0850121e-19 -1.8773151e-19 0)
(3.3677437e-19 -3.3065799e-19 -2.5092517e-19)
(-6.2912009e-19 -4.6168453e-19 0)
(-1.610247e-18 -6.599584e-19 0)
(2.4609306e-19 -5.4493439e-19 0)
(0 4.0735214e-19 0)
(0 1.4566841e-19 0)
(0 -2.8263862e-19 0)
(0 2.7553639e-20 7.2106686e-19)
(0 3.1079151e-19 0)
(0 4.5265312e-19 0)
(0 -1.2576225e-19 0)
(0 -3.2852154e-19 0)
(0 -2.6858126e-19 0)
(0 6.3175117e-20 0)
(0 3.1520919e-19 -7.182568e-20)
(0 2.3321889e-19 0)
(0 -8.4527388e-20 0)
(0 2.1824496e-19 0)
(0 4.0257145e-20 0)
(0 -2.3733344e-19 0)
(0 3.4746553e-19 0)
(0 2.2126767e-20 2.5434076e-19)
(0 3.4424412e-19 0)
(0 5.4440186e-19 0)
(0 4.9304548e-19 0)
(-0.0051777653 0.003341909 0.0069632214)
(-0.0063208189 0.0042316416 0.0047267784)
(-0.007499564 0.0043568493 0.0023471343)
(-0.0079450379 0.0046230198 0.00046276151)
(-0.0077380653 0.0042459962 -0.001467746)
(-0.0074782031 0.004445727 -0.0034947625)
(-0.0060263322 0.0031383437 -0.0057095264)
(-0.010940658 0.018332927 0.010358661)
(-0.013173414 0.019517543 0.0057673)
(-0.014037596 0.01825944 0.0023848429)
(-0.014225296 0.017671343 -0.0003570824)
(-0.014318367 0.018580865 -0.0030619598)
(-0.013019602 0.018568364 -0.0064214963)
(-0.011551444 0.018697537 -0.010491841)
(-0.015309669 0.024517754 0.011268082)
(-0.018004059 0.02338989 0.0078167373)
(-0.01969564 0.024161952 0.0031525507)
(-0.01993771 0.024151262 -0.00017562723)
(-0.019638706 0.023699184 -0.004275449)
(-0.018250798 0.024153812 -0.0074016525)
(-0.016409463 0.025492514 -0.012541691)
(-0.025589 0.036231972 0.011069307)
(-0.027760274 0.036502903 0.0072198762)
(-0.029181934 0.036201073 0.0028326786)
(-0.02956757 0.035967647 -0.00071450807)
(-0.029213149 0.036168169 -0.0047272696)
(-0.027781036 0.037000675 -0.0089716262)
(-0.025250852 0.036798992 -0.012941408)
(-0.036457436 0.044391574 0.011049205)
(-0.038969866 0.043896217 0.0072009384)
(-0.040663535 0.043861564 0.0028562191)
(-0.040943078 0.04389006 -0.0012067964)
(-0.040596169 0.04414774 -0.0053059231)
(-0.03905941 0.044515054 -0.0091983588)
(-0.03674176 0.045251053 -0.013873689)
(-0.051009779 0.053893394 0.010338961)
(-0.053149028 0.053767891 0.0065782435)
(-0.054730569 0.053662791 0.0022185793)
(-0.055025591 0.053788098 -0.0014894906)
(-0.054597936 0.053885614 -0.0057916819)
(-0.05295431 0.054275623 -0.0099198443)
(-0.050454243 0.054829774 -0.01389731)
(-0.06763706 0.061844942 0.009893049)
(-0.069907797 0.061587667 0.0058700673)
(-0.07136282 0.061604553 0.0018406723)
(-0.071694585 0.061649562 -0.0020117304)
(-0.071208709 0.061963389 -0.006149152)
(-0.069668385 0.062659803 -0.0099654682)
(-0.067284791 0.063162475 -0.014409939)
(-0.086852715 0.06993951 0.0090909681)
(-0.089032331 0.069961641 0.0054939315)
(-0.090507033 0.069968491 0.0012050969)
(-0.090757729 0.07010322 -0.0025347478)
(-0.090133349 0.070274347 -0.0064344739)
(-0.088662409 0.070743148 -0.010527387)
(-0.086034041 0.071270973 -0.014376943)
(-0.10857356 0.07721436 0.0085446751)
(-0.11068645 0.077018138 0.0045721481)
(-0.11196351 0.076969269 0.00077485564)
(-0.11221624 0.077138085 -0.002923168)
(-0.11170785 0.07760425 -0.0068568121)
(-0.1101436 0.078068811 -0.010591391)
(-0.10778637 0.078878762 -0.014744642)
(-0.13250853 0.083954276 0.0077516509)
(-0.1345445 0.083950421 0.0041925878)
(-0.13587508 0.083940505 0.00026111648)
(-0.13615008 0.084289879 -0.0034978717)
(-0.13549923 0.08453226 -0.007213258)
(-0.13393198 0.085030827 -0.011003898)
(-0.13149687 0.085612259 -0.014822907)
(-0.15885549 0.090083031 0.0070772877)
(-0.16081235 0.089940795 0.0034891038)
(-0.16203014 0.089994614 -0.0004249689)
(-0.16215622 0.090050378 -0.0037730621)
(-0.16164419 0.090463778 -0.00759182)
(-0.16004728 0.09095537 -0.011108115)
(-0.15773881 0.091932514 -0.015041538)
(-0.18733568 0.095458298 0.0064519986)
(-0.18923831 0.095376726 0.0028194211)
(-0.19036752 0.095427993 -0.00067638951)
(-0.19063161 0.095783979 -0.00425216)
(-0.19001561 0.096104589 -0.0079336835)
(-0.18836395 0.096740512 -0.011357187)
(-0.18616855 0.097405074 -0.015219689)
(-0.21807773 0.10023405 0.0057599106)
(-0.2197639 0.10006441 0.0022003645)
(-0.22088487 0.10015873 -0.0012176689)
(-0.22101108 0.10020877 -0.0047128864)
(-0.2203943 0.10062808 -0.0081897781)
(-0.21882935 0.10127097 -0.011539087)
(-0.21664301 0.10201228 -0.015204206)
(-0.2507399 0.10413208 0.0050893773)
(-0.25232741 0.10402137 0.0016532516)
(-0.25353491 0.10404691 -0.0016410184)
(-0.25355446 0.10430919 -0.0050361393)
(-0.25303307 0.10477739 -0.0084529716)
(-0.25145161 0.10540291 -0.01167073)
(-0.2493417 0.1061488 -0.01532358)
(-0.28541058 0.10736363 0.0044418427)
(-0.28699235 0.10720027 0.0010342855)
(-0.2880038 0.10720813 -0.0020876325)
(-0.28802852 0.10741672 -0.0054712343)
(-0.28747841 0.10778749 -0.0086568112)
(-0.2859191 0.10841195 -0.011848119)
(-0.2838625 0.10918127 -0.015300253)
(-0.32199425 0.10969059 0.0037474581)
(-0.32343834 0.10952894 0.00051251226)
(-0.32443126 0.10956382 -0.002526882)
(-0.3244855 0.10978892 -0.0057342139)
(-0.32390314 0.11024147 -0.0088823581)
(-0.32242133 0.11090375 -0.011932226)
(-0.32040243 0.11167113 -0.015324429)
(-0.36033735 0.11123869 0.00309686)
(-0.3617267 0.11108498 -5.837178e-05)
(-0.36267829 0.1110964 -0.0029705045)
(-0.36261513 0.11130464 -0.006104322)
(-0.36208859 0.11174348 -0.0091036791)
(-0.36060085 0.11236139 -0.012046495)
(-0.35864715 0.11316814 -0.015293336)
(-0.40041051 0.11192769 0.0024017275)
(-0.40173185 0.11176867 -0.00058785288)
(-0.40257643 0.1117862 -0.0034024606)
(-0.40255429 0.11203527 -0.0063912133)
(-0.40200715 0.11247643 -0.0092574431)
(-0.40057453 0.11313921 -0.012118691)
(-0.39866887 0.11392308 -0.015237663)
(-0.44210709 0.11178428 0.0017335989)
(-0.4433056 0.11163352 -0.0011345243)
(-0.44413883 0.11165584 -0.0038501391)
(-0.44403767 0.11189916 -0.0067025438)
(-0.44351257 0.11233347 -0.0094671227)
(-0.44210089 0.11298184 -0.012198794)
(-0.44028457 0.11379928 -0.01516435)
(-0.48529341 0.11079358 0.0010435446)
(-0.4864354 0.11063468 -0.0016931807)
(-0.48717682 0.11067623 -0.0042555481)
(-0.48708516 0.11094527 -0.0069974566)
(-0.48655696 0.1113767 -0.0096127303)
(-0.48520641 0.11206527 -0.012235734)
(-0.48342996 0.11283833 -0.01506695)
(-0.52992821 0.10895187 0.00035542412)
(-0.53096748 0.10883122 -0.0022267302)
(-0.53166293 0.1088846 -0.0046966787)
(-0.53153028 0.10914003 -0.0072916202)
(-0.53101225 0.10958737 -0.0097877927)
(-0.52969127 0.11024473 -0.012279186)
(-0.52799876 0.11103305 -0.01496829)
(-0.57587561 0.10629379 -0.00033211541)
(-0.57683063 0.10617884 -0.002790216)
(-0.57745303 0.10623107 -0.0051157275)
(-0.57731345 0.10652355 -0.0075702665)
(-0.57679616 0.10695418 -0.0099373084)