/*--------------------------------*- C++ -*----------------------------------*\
  =========                 |
  \\      /  F ield         | OpenFOAM: The Open Source CFD Toolbox
   \\    /   O peration     | Website:  https://openfoam.org
    \\  /    A nd           | Version:  6
     \\/     M anipulation  |
\*---------------------------------------------------------------------------*/
FoamFile
{
    version     2.0;
    format      ascii;
    class       pointVectorField;
    location    "1.11";
    object      lm;
}
// * * * * * * * * * * * * * * * * * * * * * * * * * * * * * * * * * * * * * //

dimensions      [1 -2 -1 0 0 0 0];

internalField   nonuniform List<vector> 
28033
(
(-1.780536e-14 4.8656612e-16 1.3104288e-15)
(-5.4375576e-15 3.3318594e-15 9.9433006e-16)
(-4776.028 -1650.8034 -12.913953)
(-5043.7245 -796.37157 -45.503532)
(-1.338461e-14 3.0090723e-15 -2.870051e-16)
(-1.2587315e-14 4.9008913e-15 -4.4266115e-15)
(-5052.8977 -803.10712 -5.4159543)
(-4778.2798 -1644.8468 -57.1635)
(-5.6329745e-15 1.0535579e-15 6.7193838e-16)
(-2.4534443e-15 3.0423504e-16 5.8836893e-16)
(-5.4923298e-15 2.4302826e-15 8.9528572e-16)
(-2.6209443e-15 -1.1537891e-15 -6.7979696e-16)
(-7.2548563e-15 1.5542294e-15 1.0013199e-15)
(-4.7613589e-15 -9.2108094e-16 -7.3952737e-16)
(-1.132389e-15 -2.2256662e-17 -6.4484848e-16)
(-7.4239857e-16 -2.4218299e-16 -3.6669977e-16)
(-1.1196198e-15 4.5550132e-16 8.383863e-16)
(-2.3465882e-16 2.2667819e-16 1.4996246e-15)
(-4.0583243e-15 -8.7236639e-16 -1.3429605e-15)
(-5.8237189e-15 8.4462789e-16 7.5519031e-16)
(-5.1611762e-15 1.0100276e-15 9.7613867e-16)
(-1.7679952e-15 -8.1010255e-16 4.5192313e-16)
(-4.4158752e-15 1.0299569e-15 -9.452958e-16)
(-4789.5535 -1609.1717 -22.501854)
(-4806.1609 -1566.2331 -31.554921)
(-4824.5324 -1519.3566 -36.876506)
(-4844.3578 -1468.556 -39.694288)
(-4865.081 -1413.757 -40.095173)
(-4885.7716 -1355.9101 -37.658918)
(-4906.9856 -1295.2481 -34.68731)
(-4926.6456 -1233.2403 -30.488675)
(-4945.5524 -1170.2398 -26.115077)
(-4963.2674 -1108.6929 -22.325213)
(-4978.676 -1048.2767 -20.203089)
(-4993.2321 -991.26539 -20.72855)
(-5006.112 -937.01993 -22.822002)
(-5017.8571 -887.27492 -28.016636)
(-5029.9471 -841.07451 -36.109154)
(-50.733106 -71.269783 -63.322051)
(-89.68965 -100.7228 -71.192904)
(-136.82068 -122.69065 -66.444913)
(-185.42252 -142.34381 -58.715439)
(-229.95602 -157.44643 -49.356299)
(-270.38357 -171.69835 -42.12657)
(-304.03843 -184.83918 -38.036183)
(-330.6623 -197.74215 -38.242993)
(-349.52055 -211.54018 -42.770584)
(-361.62446 -226.61942 -52.166564)
(-367.7472 -244.48544 -65.511405)
(-369.73914 -264.97239 -81.845487)
(-369.39006 -289.26938 -100.52505)
(-369.04748 -317.628 -120.14681)
(-371.4106 -350.53253 -139.23215)
(-379.15943 -387.53401 -156.08859)
(-393.57918 -428.41512 -170.58979)
(-417.41626 -473.06745 -181.40799)
(-451.65509 -520.81149 -186.8154)
(-497.29936 -570.52698 -187.75661)
(-554.84785 -621.97127 -183.47329)
(-623.67193 -672.92196 -173.83099)
(-703.53232 -723.98988 -160.27845)
(-792.86731 -772.77236 -142.23857)
(-889.87813 -818.63589 -121.16232)
(-992.5565 -861.41738 -98.530283)
(-1098.9698 -899.50056 -74.677104)
(-1206.8282 -932.78016 -50.799875)
(-1313.5837 -960.76029 -28.213537)
(-1417.3621 -983.65912 -7.4963784)
(-1516.2394 -1001.0125 10.11855)
(-1608.8561 -1013.5649 24.704554)
(-1694.2277 -1021.9308 35.660545)
(-1771.7483 -1026.7848 43.553556)
(-1840.9743 -1028.4543 47.275449)
(-1902.8564 -1028.3817 47.871814)
(-1957.2562 -1026.6646 46.238166)
(-2005.5061 -1024.875 42.115961)
(-2048.7116 -1023.5238 36.553959)
(-2088.1786 -1022.7441 30.415004)
(-2125.3777 -1023.5756 24.126857)
(-2161.5867 -1025.9655 18.328162)
(-2198.0874 -1030.1923 13.610366)
(-2235.9441 -1036.1392 10.361958)
(-2276.0171 -1043.5643 8.8175412)
(-2318.8288 -1052.1408 9.1351984)
(-2364.5888 -1061.3364 11.267016)
(-2413.2437 -1070.6761 15.03783)
(-2464.3463 -1079.5176 20.137648)
(-2517.2993 -1087.3513 26.166921)
(-2571.161 -1093.6278 32.625397)
(-2624.9403 -1097.9646 38.981928)
(-2677.464 -1100.0646 44.676153)
(-2727.6148 -1099.8095 49.174465)
(-2774.2839 -1097.2551 51.985772)
(-2816.5319 -1092.6224 52.694107)
(-2853.5919 -1086.3315 50.995195)
(-2884.9761 -1078.9435 46.68988)
(-2910.4746 -1071.1579 39.734538)
(-2930.2261 -1063.7855 30.202629)
(-2944.7014 -1057.6676 18.359838)
(-2954.6846 -1053.7112 4.5209411)
(-2961.3089 -1052.6815 -10.735945)
(-2966.0069 -1055.4059 -26.833125)
(-2970.1228 -1062.4709 -43.314059)
(-2975.7365 -1074.3789 -58.810479)
(-2984.438 -1091.4191 -73.235722)
(-2997.7695 -1113.4256 -85.691671)
(-3017.6976 -1140.5554 -95.774975)
(-3045.174 -1172.1547 -102.06331)
(-3081.5019 -1207.8318 -105.19059)
(-3127.3575 -1246.5719 -104.53922)
(-3182.9503 -1287.4517 -100.02066)
(-3248.1824 -1329.5332 -91.786157)
(-3322.4913 -1371.6361 -80.168618)
(-3404.8893 -1412.6087 -65.664252)
(-3494.0895 -1451.4327 -48.869118)
(-3588.485 -1487.0874 -30.583094)
(-3686.1706 -1518.8068 -11.517724)
(-3785.463 -1545.9239 7.3283314)
(-3884.049 -1568.2531 25.254749)
(-3980.3142 -1585.4315 41.380295)
(-4072.5868 -1597.7708 55.093382)
(-4159.2072 -1605.6011 65.78177)
(-4239.406 -1609.5561 72.955655)
(-4312.2209 -1610.495 76.572912)
(-4377.5522 -1609.2562 76.396226)
(-4435.6905 -1607.0807 72.969492)
(-4487.157 -1604.8885 66.310301)
(-4533.1619 -1603.8219 57.391687)
(-4575.4453 -1604.6012 46.587307)
(-4614.5447 -1608.473 34.861616)
(-4653.7899 -1615.0522 22.860702)
(-4693.6917 -1624.698 11.394447)
(-4734.2088 -1637.3047 -0.52077973)
(-42.571685 66.818933 81.288846)
(-101.02394 96.006561 71.309315)
(-153.78516 122.51431 73.557206)
(-198.77851 140.35032 67.584498)
(-244.79238 153.74449 63.074332)
(-282.73979 165.56703 60.035253)
(-315.93234 173.95551 58.07366)
(-342.6755 182.8786 59.842645)
(-363.28441 191.36467 63.826193)
(-378.27494 201.66118 71.633032)
(-389.01826 214.00102 81.51334)
(-396.98838 229.54176 93.921248)
(-404.34977 248.18376 107.63334)
(-412.97968 270.42888 121.73841)
(-425.3203 295.79941 135.5732)
(-443.56233 324.04937 147.88407)
(-469.24346 354.3543 157.84765)
(-504.90973 385.48627 164.77282)
(-550.97048 416.7598 168.0343)
(-608.00566 446.61345 167.1121)
(-677.16234 473.79435 161.84079)
(-757.08796 497.66781 152.68948)
(-846.99772 516.30322 139.08347)
(-946.47868 530.05727 122.42275)
(-1052.5269 537.19966 102.99661)
(-1163.8693 538.1541 81.395573)
(-1278.0826 532.53647 59.238321)
(-1392.9552 520.87624 36.650378)
(-1506.2583 503.34147 15.269694)
(-1616.1474 481.08378 -4.3803036)
(-1720.5143 454.73194 -21.333444)
(-1818.7519 425.30627 -35.139414)
(-1909.2766 393.9295 -45.250678)
(-1991.8019 361.51679 -51.45795)
(-2066.267 329.19012 -53.749501)
(-2133.1126 297.56743 -52.585985)
(-2192.8802 267.84213 -47.852441)
(-2246.4308 239.67151 -40.667008)
(-2295.5934 214.11703 -31.528946)
(-2341.0986 190.80785 -21.235641)
(-2384.6091 169.79536 -10.618565)
(-2427.3982 150.74744 -0.51593243)
(-2470.6084 133.27795 8.3367193)
(-2515.1837 116.85622 15.319727)
(-2561.7768 100.94386 19.93906)
(-2610.7469 84.976913 21.893415)
(-2662.0957 68.459664 21.064182)
(-2715.5502 50.966071 17.521015)
(-2770.5038 32.212148 11.53133)
(-2826.1391 12.043978 3.5197523)
(-2881.433 -9.5098708 -5.9393381)
(-2935.2642 -32.269539 -16.171453)
(-2986.4724 -55.884499 -26.437234)
(-3033.9611 -79.871267 -35.98241)
(-3076.7581 -103.63333 -44.085674)
(-3114.1148 -126.50682 -50.104942)
(-3145.5516 -147.79215 -53.523576)
(-3170.9162 -166.82007 -53.981832)
(-3190.4121 -182.97485 -51.307117)
(-3204.6081 -195.76034 -45.528002)
(-3214.4191 -204.8204 -36.876533)
(-3221.08 -209.98332 -25.772848)
(-3226.0846 -211.26859 -12.815485)
(-3231.1106 -208.90622 1.2638708)
(-3237.9513 -203.33533 15.64993)
(-3248.398 -195.1969 29.452034)
(-3264.0944 -185.19543 41.81943)
(-3286.767 -174.524 51.926372)
(-3317.4551 -163.60923 59.050551)
(-3357.1594 -154.31414 62.51445)
(-3406.7786 -147.05792 62.157902)
(-3465.7955 -143.15796 57.582632)
(-3534.4418 -143.31517 48.82622)
(-3611.791 -148.33376 36.137203)
(-3696.7193 -158.6612 19.952505)
(-3787.7713 -174.6604 0.91183681)
(-3883.1949 -196.31372 -20.218211)
(-3981.0392 -223.46457 -42.480848)
(-4079.3029 -255.64517 -64.926277)
(-4175.9506 -292.21623 -86.534354)
(-4269.1583 -332.31372 -106.37557)
(-4357.2455 -374.98458 -123.5642)
(-4438.9535 -419.13008 -137.42364)
(-4513.312 -463.68318 -147.39825)
(-4579.9095 -507.54119 -153.22208)
(-4638.6909 -549.74291 -154.79236)
(-4690.1765 -589.40075 -152.31311)
(-4735.221 -625.86301 -146.13431)
(-4775.1513 -658.62935 -136.87704)
(-4811.4953 -687.49519 -125.20892)
(-4846.0501 -712.4466 -112.01971)
(-4880.5874 -733.78356 -98.029338)
(-4916.7497 -752.02503 -84.079121)
(-4955.8152 -767.93212 -70.667261)
(-4998.3691 -782.38618 -57.863252)
(3.2927448e-15 -1.3239155e-15 2.3845803e-16)
(2.4470133e-15 -9.6672015e-16 3.215493e-17)
(-9.0574249e-15 9.0550918e-16 6.4029168e-16)
(-1.2642219e-16 -5.721845e-16 4.4370095e-16)
(-7.6811722e-15 -4.9270561e-16 4.1193361e-16)
(-7.3893964e-15 2.7533729e-15 -1.0951501e-15)
(-3.2915852e-15 -8.1743692e-16 3.8364228e-16)
(-1.9032499e-15 5.3200654e-16 -8.2319016e-17)
(-4.7409759e-15 -4.8623412e-16 4.3918642e-16)
(-1.2869644e-14 1.1845665e-15 6.4228907e-16)
(-9.6157521e-15 1.4157374e-15 5.9836601e-16)
(-9.4077204e-15 4.9518432e-16 1.1192419e-15)
(-5.982767e-15 2.6210694e-16 3.0473736e-16)
(-1.1478475e-14 -5.3386198e-16 1.6580808e-15)
(-5.257323e-15 3.6289085e-16 2.8600704e-16)
(-52.527478 30.652877 -60.002171)
(-100.84263 98.208999 -63.847938)
(-148.16392 106.89783 -50.969852)
(-200.96521 132.6234 -48.761072)
(-243.02923 140.70417 -38.568951)
(-282.5724 153.28552 -32.713543)
(-315.8888 160.4479 -28.470796)
(-341.83539 168.70986 -27.232905)
(-362.40873 177.64808 -30.603043)
(-376.69166 187.062 -36.553275)
(-386.38149 199.75734 -45.517992)
(-394.1762 216.17852 -56.763274)
(-401.21713 234.15567 -69.664987)
(-409.2428 257.80975 -82.568721)
(-422.84647 283.23505 -95.318919)
(-440.63879 311.62561 -106.00612)
(-467.3273 342.72059 -114.60905)
(-504.81793 374.67888 -120.01579)
(-550.93465 405.94799 -121.55719)
(-611.30637 437.23056 -118.85432)
(-680.47951 463.86935 -113.30932)
(-761.70429 488.14616 -102.78358)
(-853.06958 508.41205 -89.311358)
(-953.18553 521.38216 -72.884634)
(-1059.1397 528.34306 -54.494092)
(-1170.7049 529.66251 -35.002926)
(-1284.0909 522.81144 -15.343819)
(-1397.4047 511.7368 4.2947674)
(-1510.0773 492.92955 22.114301)
(-1616.6727 469.92472 38.19932)
(-1720.0153 442.26241 51.780203)
(-1815.6809 411.97526 61.915182)
(-1904.2409 379.28209 69.153936)
(-1985.0768 345.88154 72.929618)
(-2057.8544 312.57706 73.772056)
(-2124.5743 280.82743 71.775105)
(-2183.0331 248.97013 67.01398)
(-2237.1128 221.2407 60.914647)
(-2286.8289 195.36936 53.134224)
(-2333.5012 172.34977 44.914842)
(-2378.6835 151.93604 36.605722)
(-2423.4235 133.85203 28.829072)
(-2468.7841 117.67175 22.068827)
(-2515.5848 102.82252 16.720068)
(-2564.34 88.71494 13.035907)
(-2615.2735 74.70428 11.165345)
(-2668.3099 60.210997 11.107215)
(-2723.0696 44.725767 12.738196)
(-2778.9219 27.87204 15.813431)
(-2835.0195 9.422386 19.989016)
(-2890.3686 -10.665956 24.833732)
(-2943.8938 -32.262649 29.87409)
(-2994.5202 -55.046304 34.592466)
(-3041.2421 -78.548294 38.493871)
(-3083.211 -102.15139 41.098872)
(-3119.7849 -125.16673 42.008763)
(-3150.6013 -146.83441 40.89581)
(-3175.6027 -166.42053 37.560524)
(-3195.0679 -183.22859 31.915757)
(-3209.6131 -196.67513 24.01951)
(-3220.1695 -206.32157 14.062585)
(-3227.9587 -211.91315 2.3730318)
(-3234.4249 -213.40401 -10.614224)
(-3241.1888 -210.97833 -24.333084)
(-3249.9074 -205.04147 -38.210483)
(-3262.3622 -196.22104 -51.547954)
(-3280.1475 -185.037 -63.741423)
(-3304.5465 -173.86701 -73.836627)
(-3335.7692 -161.78714 -81.627116)
(-3378.2276 -150.37252 -86.655086)
(-3427.9908 -142.06907 -88.334135)
(-3487.764 -136.90751 -86.256551)
(-3556.546 -135.98126 -80.845935)
(-3633.536 -140.27439 -71.892527)
(-3717.8091 -150.20787 -59.820676)
(-3807.8765 -166.1679 -45.08892)
(-3902.0429 -188.17917 -28.308069)
(-3998.476 -216.03791 -10.224594)
(-4095.2234 -249.24306 8.3485491)
(-4190.3755 -287.09701 26.565555)
(-4282.1474 -328.66358 43.590857)
(-4368.9744 -372.90217 58.652014)
(-4449.5976 -418.64681 71.091001)
(-4523.1476 -464.73574 80.38796)
(-4589.1605 -510.01422 86.207948)
(-4647.6457 -553.44689 88.410135)
(-4699.0389 -594.12599 87.058013)
(-4744.212 -631.35946 82.42007)
(-4784.3907 -664.66765 74.935759)
(-4821.0955 -693.84994 65.21269)
(-4856.0227 -718.95933 53.937102)
(-4890.9071 -740.33471 41.861034)
(-4927.3936 -758.57796 29.667412)
(-4966.5315 -774.45141 17.775911)
(-5009.2605 -789.26194 6.7588598)
(-5039.3981 -846.35546 -16.539401)
(-5027.1922 -892.17881 -26.85275)
(-5015.1004 -940.08972 -34.475669)
(-5002.2483 -993.77933 -39.662441)
(-4986.9629 -1048.6141 -41.762139)
(-4971.4726 -1108.4936 -42.690964)
(-4952.8485 -1168.248 -40.542478)
(-4933.9444 -1229.6568 -38.346783)
(-4913.6308 -1290.7356 -35.877554)
(-4891.913 -1350.9343 -33.010149)
(-4869.441 -1408.0368 -31.834089)
(-4849.8457 -1462.5589 -31.516927)
(-4827.1638 -1513.3239 -35.072079)
(-4810.158 -1559.635 -39.273199)
(-4792.0155 -1602.7217 -48.292529)
(-4735.5286 -1631.0908 -69.196314)
(-4694.3669 -1618.5376 -79.819744)
(-4655.1712 -1609.1314 -92.294056)
(-4616.6908 -1602.9242 -104.89965)
(-4578.2049 -1599.8541 -117.92875)
(-4537.7517 -1599.6227 -130.57666)
(-4493.466 -1601.1514 -141.7021)
(-4444.0376 -1603.6059 -150.62548)
(-4388.1697 -1605.8263 -156.57453)
(-4325.023 -1606.8416 -158.81737)
(-4254.285 -1605.4012 -157.13884)
(-4175.9094 -1600.8804 -151.11556)
(-4090.505 -1592.2223 -140.9773)
(-3999.102 -1579.0421 -126.95617)
(-3902.8912 -1560.9196 -109.46305)
(-3803.6518 -1537.823 -89.173386)
(-3703.1913 -1509.9823 -67.021835)
(-3603.519 -1477.8254 -43.916579)
(-3506.7177 -1441.9714 -20.957658)
(-3414.6901 -1403.3352 0.8646984)
(-3329.2313 -1362.8317 20.521171)
(-3251.7961 -1321.6006 37.16709)
(-3183.5771 -1280.691 50.02769)
(-3125.2238 -1241.2369 58.696789)
(-3077.0469 -1204.251 62.591631)
(-3039.1878 -1170.4937 62.037407)
(-3009.6203 -1141.1556 56.523857)
(-2991.4873 -1114.6223 47.245632)
(-2977.3307 -1095.8567 34.096584)
(-2970.0345 -1079.9332 18.887914)
(-2966.1926 -1069.3269 1.3775569)
(-2964.1675 -1063.1256 -16.840966)
(-2962.0179 -1060.8055 -34.863709)
(-2957.967 -1061.7828 -51.716374)
(-2950.4256 -1065.2922 -66.509454)
(-2938.072 -1070.5632 -78.512853)
(-2919.9249 -1076.7908 -87.160157)
(-2895.3658 -1083.2262 -92.109799)
(-2864.178 -1089.1799 -93.235781)
(-2826.5128 -1094.081 -90.642459)
(-2782.899 -1097.4805 -84.650538)
(-2734.1612 -1099.088 -75.775804)
(-2681.3917 -1098.759 -64.690503)
(-2625.8422 -1096.5122 -52.187635)
(-2568.8671 -1092.5004 -39.123653)
(-2511.808 -1087.0042 -26.369538)
(-2455.9231 -1080.3993 -14.752843)
(-2402.2929 -1073.1181 -5.0082127)
(-2351.7315 -1065.634 2.2758093)
(-2304.7913 -1058.4144 6.6942424)
(-2261.5977 -1051.8103 8.0018338)
(-2221.9694 -1046.3237 6.348618)
(-2185.3953 -1041.9483 1.7512011)
(-2150.8099 -1039.0091 -5.0254832)
(-2117.3496 -1037.4539 -13.617834)
(-2083.0339 -1036.9558 -23.026328)
(-2046.9223 -1037.0011 -32.345578)
(-2007.0909 -1038.5803 -40.396395)
(-1961.4004 -1039.0365 -47.261207)
(-1910.5014 -1038.535 -50.95522)
(-1851.9675 -1037.0956 -50.365295)
(-1782.8718 -1034.3056 -46.890647)
(-1707.7753 -1026.0524 -37.776716)
(-1622.0967 -1016.4296 -24.93929)
(-1530.2157 -1001.876 -6.6136507)
(-1429.3398 -984.35694 14.607165)
(-1325.1901 -958.33202 40.115799)
(-1216.3281 -931.73616 67.277554)
(-1106.1704 -897.13071 95.985427)
(-997.63479 -860.10566 124.61782)
(-892.3915 -818.80854 152.18506)
(-793.02014 -772.66498 176.78225)
(-703.17397 -725.35811 199.08375)
(-620.26525 -677.077 216.00763)
(-549.7625 -626.69897 226.73196)
(-493.12848 -576.28438 233.94437)
(-444.42756 -529.52794 233.25275)
(-412.76688 -481.31272 228.15188)
(-387.28731 -440.38385 217.03592)
(-374.28213 -398.66361 201.91371)
(-368.06444 -363.01919 183.36125)
(-366.84584 -331.68795 162.71294)
(-368.06993 -304.8604 141.53766)
(-370.11061 -279.26712 119.45121)
(-370.56334 -259.63305 100.55797)
(-366.29485 -242.41597 84.76303)
(-355.28564 -227.00736 70.977489)
(-339.04902 -212.59655 63.137688)
(-313.21809 -198.94515 59.258119)
(-281.02971 -185.20243 60.508997)
(-241.37645 -170.12284 63.268542)
(-197.48923 -152.17727 68.826093)
(-149.77759 -134.82009 74.552894)
(-100.30102 -105.3075 68.898435)
(-75.827499 -81.611437 52.563805)
(-6.8708141e-15 1.5083581e-15 1.9262289e-16)
(-1.2504183e-14 5.7375616e-16 8.4327435e-16)
(-8.3449101e-15 1.4891922e-15 5.3018253e-16)
(-4.9731758e-15 1.4991158e-15 6.2376313e-16)
(-3.4146159e-15 1.5624416e-15 3.1576894e-17)
(2.0582335e-15 9.3962624e-16 -5.746342e-16)
(2.2101935e-15 3.7457559e-17 -1.1841335e-16)
(2.4553765e-15 -8.5141669e-16 -9.3419562e-16)
(1.2987427e-15 1.0081898e-16 1.7950851e-15)
(-4.5074861e-15 9.063971e-16 1.0710522e-15)
(-5.2682467e-15 2.1856155e-15 1.0652666e-15)
(-7.4917339e-15 1.915055e-15 2.2418828e-16)
(-9.400838e-15 1.3708275e-15 6.2833768e-16)
(-6.2048683e-15 1.3247981e-15 5.4317906e-16)
(-6.971104e-15 1.5128103e-15 7.5678131e-16)
(-1.2693866e-14 6.2923345e-15 -2.1364834e-15)
(-5.2452578e-15 2.6791924e-15 -5.3037742e-16)
(-1.0752404e-15 9.8318743e-16 -1.0111087e-16)
(-2.7353382e-15 1.7746034e-15 7.3085398e-17)
(1.0178949e-15 -1.5450237e-16 -4.119182e-16)
(-1.4303492e-15 4.136346e-16 -3.3264033e-16)
(-1.0059749e-14 4.7133437e-15 -1.6449855e-15)
(2.9801421e-15 -1.9180379e-15 -8.3172098e-16)
(-4.79756e-15 2.8035442e-15 1.1420498e-15)
(-5.4778068e-15 3.5047253e-15 -3.934403e-16)
(-1.8117877e-15 1.1581936e-15 -9.1309836e-16)
(-3.9812639e-16 4.7407236e-16 -2.2932148e-16)
(-1.5272242e-15 1.100363e-15 -2.2557932e-16)
(-4.1024849e-15 1.9838802e-15 2.8069696e-17)
(-5.3424143e-16 2.551799e-16 -1.9455919e-16)
(-5032.1223 -805.64581 -46.024754)
(-5020.6733 -813.7835 -46.777902)
(-5009.4988 -820.69479 -46.506043)
(-4999.1628 -826.20608 -45.027244)
(-4990.0505 -830.36038 -42.114723)
(-4983.1498 -833.4665 -37.831668)
(-4978.9196 -835.33483 -32.676667)
(-4977.724 -836.16801 -26.961056)
(-4979.6626 -835.89592 -21.185512)
(-4984.5624 -834.6055 -15.773136)
(-4992.1162 -832.21623 -11.242142)
(-5002.0146 -828.83225 -7.7918064)
(-5013.3275 -824.2982 -5.7763619)
(-5025.6477 -818.58055 -4.9144209)
(-5038.873 -811.52392 -5.2551772)
(-4771.1203 -1636.5907 -12.90427)
(-4766.6692 -1624.3121 -12.991749)
(-4761.6337 -1613.2408 -13.994092)
(-4756.8938 -1603.6567 -16.560743)
(-4752.1211 -1595.3276 -20.44484)
(-4748.5122 -1588.9092 -25.535841)
(-4746.2148 -1584.5835 -31.355888)
(-4745.5801 -1582.5415 -37.517638)
(-4746.6559 -1582.9335 -43.524028)
(-4749.377 -1585.7711 -48.918643)
(-4753.4556 -1590.8777 -53.25804)
(-4758.4428 -1598.3694 -56.291276)
(-4763.9112 -1607.3633 -57.802887)
(-4769.0011 -1618.615 -58.069266)
(-4773.9115 -1630.7351 -57.377574)
(-32.738236 -40.748983 -58.553718)
(-79.062487 -56.612301 -54.32849)
(-127.32949 -78.439626 -56.350236)
(-177.72929 -97.53889 -49.502964)
(-222.53111 -116.22897 -43.893148)
(-263.85034 -135.02786 -38.159724)
(-297.38287 -153.89663 -35.475064)
(-323.88144 -173.13006 -35.932974)
(-342.18553 -192.73145 -40.190574)
(-353.56627 -213.44255 -47.900487)
(-358.41605 -234.81639 -59.02795)
(-359.20634 -257.73727 -72.614068)
(-357.68449 -282.07808 -87.8552)
(-356.40437 -308.49618 -103.80319)
(-358.10223 -336.27144 -119.40189)
(-365.29289 -366.67117 -133.336)
(-379.96666 -399.11431 -144.96732)
(-403.88999 -433.72213 -153.39917)
(-439.50024 -470.00525 -158.1011)
(-486.89622 -508.64773 -158.45492)
(-546.30641 -547.99995 -154.74957)
(-618.09881 -588.74906 -146.86361)
(-700.60494 -629.89963 -135.13349)
(-792.8309 -670.51407 -120.41567)
(-893.27055 -710.7261 -102.96978)
(-999.08238 -749.43449 -84.148431)
(-1108.4013 -785.7699 -64.350768)
(-1218.6446 -819.79517 -44.746922)
(-1327.566 -850.63828 -25.936856)
(-1433.0135 -878.08393 -9.0602961)
(-1533.0113 -901.85115 6.0017299)
(-1626.2597 -922.02777 18.064804)
(-1711.8119 -938.5267 27.390429)
(-1789.2707 -951.43924 33.828758)
(-1858.1013 -961.6594 37.288427)
(-1918.8119 -968.81375 38.244273)
(-1972.3291 -974.00161 37.179605)
(-2019.5685 -977.84811 34.352757)
(-2061.6736 -980.51462 30.281499)
(-2100.4193 -982.54748 25.688938)
(-2136.9763 -984.89824 21.08998)
(-2173.0378 -987.48658 16.750338)
(-2209.4598 -990.75431 13.343227)
(-2247.7434 -994.93276 11.073672)
(-2288.4899 -1000.047 10.143813)
(-2332.2291 -1006.0135 10.652313)
(-2379.1021 -1012.7177 12.56316)
(-2428.9263 -1019.9005 15.700736)
(-2481.2105 -1027.2325 19.837111)
(-2535.199 -1034.3806 24.610422)
(-2589.8945 -1040.9726 29.635548)
(-2644.1821 -1046.6747 34.46275)
(-2696.8444 -1051.2094 38.658748)
(-2746.6982 -1054.3702 41.782315)
(-2792.6272 -1056.0662 43.455376)
(-2833.692 -1056.3101 43.35037)
(-2869.1744 -1055.2593 41.23755)
(-2898.6458 -1053.1685 36.972374)
(-2921.9974 -1050.432 30.540621)
(-2939.4758 -1047.5283 22.025465)
(-2951.6769 -1045.001 11.648652)
(-2959.5349 -1043.4803 -0.28925324)
(-2964.3045 -1043.5133 -13.324073)
(-2967.5223 -1045.7595 -27.045707)
(-2970.7064 -1050.8079 -40.720969)
(-2976.0026 -1058.882 -53.860535)
(-2985.0262 -1070.5378 -66.183784)
(-2999.3953 -1086.3173 -76.266177)
(-3020.6112 -1105.6832 -84.817052)
(-3050.5248 -1129.1179 -89.813311)
(-3089.4696 -1156.1035 -92.355247)
(-3138.355 -1186.0234 -91.66475)
(-3197.2742 -1218.5349 -87.785826)
(-3265.9543 -1252.9228 -80.834064)
(-3343.6862 -1288.3711 -71.087357)
(-3429.3289 -1324.0288 -58.966852)
(-3521.4513 -1359.0865 -44.965542)
(-3618.2856 -1392.6673 -29.728235)
(-3717.9569 -1424.1186 -13.903711)
(-3818.4051 -1452.6586 1.7641104)
(-3917.6586 -1478.0305 16.663716)
(-4013.8335 -1499.6402 30.031644)
(-4105.4194 -1517.5621 41.342197)
(-4190.7288 -1531.7437 50.06254)
(-4269.0602 -1542.6429 56.082961)
(-4339.7678 -1550.4807 59.1156)
(-4402.6846 -1555.8444 59.156042)
(-4458.4432 -1559.4615 56.374525)
(-4507.5772 -1561.9153 51.038066)
(-4551.5647 -1564.1979 43.511163)
(-4592.0479 -1567.0248 34.537533)
(-4629.8657 -1570.8988 24.208409)
(-4668.2893 -1577.0987 13.474582)
(-4707.2363 -1585.1423 2.1700195)
(-4747.1334 -1596.4981 -9.8336046)
(-25.31148 -30.685648 -43.234612)
(-69.355216 -33.337081 -46.522627)
(-120.60795 -54.853613 -46.287936)
(-168.13593 -69.719914 -42.956475)
(-213.94284 -88.652547 -37.343091)
(-254.21401 -107.29537 -33.054873)
(-287.86011 -127.52656 -30.702017)
(-313.65551 -147.59856 -31.180628)
(-331.97233 -168.51475 -34.556563)
(-343.00911 -189.62336 -40.954499)
(-348.02449 -211.25527 -50.146322)
(-348.89244 -233.25236 -61.235786)
(-347.67787 -255.92192 -73.988675)
(-346.97179 -279.17859 -87.09106)
(-349.22187 -303.53604 -100.02944)
(-357.15985 -328.9713 -111.46855)
(-372.58944 -355.77192 -121.319)
(-398.19802 -384.00185 -128.30059)
(-434.75955 -413.90138 -132.19452)
(-483.44982 -445.24492 -132.64269)
(-544.55036 -478.30384 -129.68173)
(-617.68484 -512.60826 -123.09649)
(-701.87147 -548.00764 -113.71193)
(-795.8713 -584.03136 -101.46132)
(-897.65449 -620.26425 -87.236391)
(-1004.992 -656.30958 -71.526794)
(-1115.656 -691.40825 -55.279308)
(-1227.1817 -725.10632 -39.022949)
(-1337.2724 -756.93487 -23.563068)
(-1443.5726 -786.29393 -9.2480742)
(-1544.5481 -812.89495 3.0158422)
(-1638.5409 -836.44836 13.298158)
(-1724.5641 -856.75357 21.238755)
(-1802.3011 -873.96489 26.801296)
(-1871.3119 -888.18519 30.102632)
(-1932.344 -899.49689 31.25143)
(-1986.102 -908.46736 30.663847)
(-2033.5238 -915.39558 28.65869)
(-2075.932 -920.66699 25.720076)
(-2114.9598 -924.95849 22.232863)
(-2151.8714 -928.6354 18.816535)
(-2188.1519 -932.10242 15.313304)
(-2225.2752 -935.84235 13.019833)
(-2263.9756 -940.06061 11.270801)
(-2305.2938 -944.92437 10.637465)
(-2349.5781 -950.53866 11.083528)
(-2396.967 -956.90463 12.630327)
(-2447.2522 -963.88319 15.104799)
(-2499.9036 -971.27116 18.3355)
(-2554.1203 -978.81658 22.009346)
(-2608.8895 -986.20611 25.836824)
(-2663.0622 -993.13608 29.442915)
(-2715.4117 -999.31748 32.486866)
(-2764.7499 -1004.4954 34.611824)
(-2809.9672 -1008.507 35.521687)
(-2850.1489 -1011.2586 34.952905)
(-2884.607 -1012.7739 32.726844)
(-2912.9591 -1013.1737 28.733599)
(-2935.154 -1012.7035 22.971099)
(-2951.4946 -1011.6828 15.508239)
(-2962.6491 -1010.5455 6.537326)
(-2969.6083 -1009.7624 -3.6868852)
(-2973.7074 -1009.862 -14.801686)
(-2976.4616 -1011.3634 -26.435689)
(-2979.6119 -1014.9454 -37.932951)
(-2985.1637 -1020.4834 -49.335635)
(-2994.5716 -1029.4454 -59.019945)
(-3009.3902 -1041.4174 -68.089489)
(-3031.8526 -1056.5294 -74.987947)
(-3063.0756 -1075.1067 -79.698996)
(-3103.7404 -1097.2394 -81.962284)
(-3154.4547 -1122.2237 -81.679043)
(-3215.3745 -1150.0598 -78.694259)
(-3286.029 -1180.1236 -73.154071)
(-3365.6948 -1211.8451 -65.26899)
(-3453.1293 -1244.5301 -55.357609)
(-3546.8113 -1277.4815 -43.84918)
(-3644.9305 -1309.9134 -31.260833)
(-3745.5189 -1341.162 -18.109106)
(-3846.541 -1370.5254 -5.0388333)
(-3945.9977 -1397.5387 7.4363887)
(-4041.9808 -1421.7058 18.781209)
(-4132.8854 -1442.7169 28.248614)
(-4217.218 -1460.9132 36.086338)
(-4294.6282 -1475.6434 41.062263)
(-4364.1371 -1487.4089 43.795143)
(-4425.7796 -1496.5387 43.959085)
(-4480.1483 -1503.6543 41.767675)
(-4528.0431 -1509.3213 37.2804)
(-4570.6348 -1514.1409 31.010272)
(-4610.0925 -1519.0624 23.141537)
(-4646.6968 -1524.6742 14.096386)
(-4683.9585 -1531.9687 4.3252619)
(-4722.229 -1540.8221 -6.6469545)
(-4760.9202 -1552.8659 -17.866358)
(-23.102726 -20.615898 -34.860119)
(-65.778763 -23.396421 -36.150555)
(-111.73735 -37.904761 -37.664879)
(-159.51172 -51.15751 -34.575052)
(-203.9679 -67.117909 -30.428475)
(-244.21845 -85.167421 -27.066311)
(-277.14263 -103.69365 -25.326224)
(-303.43134 -123.21978 -25.686018)
(-321.70166 -142.82688 -28.366342)
(-333.16918 -163.10893 -33.646111)
(-338.74261 -182.89133 -40.827259)
(-340.39746 -203.23563 -49.95163)
(-340.05384 -223.008 -59.974146)
(-340.34046 -243.52887 -70.594713)
(-343.73808 -263.88756 -80.747068)
(-352.65884 -285.20266 -90.234951)
(-369.58112 -307.13861 -97.879608)
(-396.11061 -330.35694 -103.52694)
(-433.87175 -354.8017 -106.64636)
(-483.74236 -380.92966 -107.10852)
(-545.89968 -408.61797 -104.65054)
(-620.04088 -437.89653 -99.650377)
(-705.24025 -468.77149 -92.008777)
(-800.06531 -500.77489 -82.390222)
(-902.69089 -533.89487 -71.0144)
(-1010.8661 -567.35741 -58.684869)
(-1122.3434 -600.86501 -45.745251)
(-1234.547 -633.83338 -32.871233)
(-1345.2749 -665.65399 -20.496532)
(-1452.3334 -695.85372 -9.2863935)
(-1553.9237 -723.98061 0.67203824)
(-1648.4984 -749.5779 8.9353182)
(-1735.3238 -772.47777 15.340642)
(-1813.6321 -792.44966 19.994073)
(-1883.4672 -809.53113 22.75389)
(-1945.2288 -823.76176 23.991508)
(-1999.5629 -835.43202 23.877429)
(-2047.6765 -844.89446 22.756666)
(-2090.8861 -852.52751 20.814533)
(-2130.5323 -858.57193 18.592686)
(-2168.1352 -863.76981 16.142677)
(-2205.113 -868.39984 14.125476)
(-2242.7794 -872.8083 12.387537)
(-2282.1386 -877.56394 11.427119)
(-2323.9551 -882.72035 11.11339)
(-2368.689 -888.49412 11.620027)
(-2416.4473 -894.99806 12.875155)
(-2466.999 -902.15968 14.769036)
(-2519.8054 -909.86787 17.136797)
(-2574.0475 -917.92281 19.761329)
(-2628.7203 -926.06631 22.411875)
(-2682.6519 -934.01386 24.799955)
(-2734.6398 -941.47171 26.681786)
(-2783.4857 -948.16655 27.783379)
(-2828.1106 -953.88221 27.895425)
(-2867.6105 -958.45183 26.821277)
(-2901.3339 -961.8171 24.441615)
(-2928.9291 -964.00151 20.683119)
(-2950.385 -965.13297 15.554153)
(-2966.0478 -965.44977 9.1205945)
(-2976.6271 -965.26352 1.542895)
(-2983.1508 -964.98899 -6.9768187)
(-2987.0116 -965.06401 -16.177852)
(-2989.6493 -966.02468 -25.629094)
(-2993.1623 -968.34975 -35.255457)
(-2998.6825 -972.34102 -44.137921)
(-3008.9187 -979.16596 -52.724333)
(-3025.3908 -988.60901 -59.956784)
(-3048.5942 -1000.2394 -65.207904)
(-3080.9641 -1015.638 -69.054767)
(-3122.949 -1034.0526 -70.90474)
(-3174.9784 -1055.6758 -70.695015)
(-3237.1826 -1080.2278 -68.385267)
(-3309.0414 -1107.3479 -64.087188)
(-3389.7736 -1136.5282 -57.914548)
(-3478.0868 -1167.243 -50.211074)
(-3572.4628 -1198.8053 -41.199859)
(-3671.0382 -1230.5643 -31.347906)
(-3771.867 -1261.8276 -21.035639)
(-3872.8612 -1291.9238 -10.751263)
(-3972.0877 -1320.2755 -0.90290846)
(-4067.5976 -1346.3398 7.9971961)
(-4157.9973 -1369.7937 15.727762)
(-4241.6722 -1390.5815 21.970272)
(-4317.8089 -1408.1241 25.902316)
(-4386.4779 -1422.6267 28.251321)
(-4447.1249 -1434.7649 28.571795)
(-4500.5932 -1444.8346 26.978246)
(-4547.5022 -1453.0247 23.571031)
(-4589.2949 -1460.2824 18.485175)
(-4627.8385 -1467.2015 12.190337)
(-4663.4884 -1474.312 4.4228398)
(-4700.0787 -1482.9793 -3.9597384)
(-4737.5606 -1492.6576 -13.798174)
(-4775.9281 -1505.161 -24.301906)
(-23.253077 -15.573654 -24.910683)
(-62.973337 -15.216769 -27.249305)
(-108.00614 -26.612814 -27.17345)
(-153.10118 -36.302768 -25.966678)
(-196.65936 -49.720683 -22.609805)
(-235.30729 -64.723937 -20.34951)
(-268.36486 -81.171701 -18.904368)
(-294.00274 -98.075679 -19.170166)
(-312.55722 -115.78546 -21.507516)
(-324.51938 -133.36524 -25.380832)
(-330.96478 -150.93994 -31.30529)
(-333.50471 -168.22958 -38.171323)
(-334.42477 -185.33582 -46.287273)
(-336.08106 -202.36828 -54.313486)
(-340.74942 -219.30934 -62.657758)
(-351.24095 -236.77666 -69.725548)
(-369.31242 -254.73098 -75.949755)
(-397.20164 -273.73907 -80.313654)
(-436.07996 -293.97823 -82.930146)
(-486.96082 -315.77828 -83.227009)
(-549.90042 -339.27954 -81.571357)
(-624.79123 -364.64382 -77.635065)
(-710.54422 -391.76062 -71.956161)
(-805.87853 -420.56989 -64.544732)
(-908.86517 -450.70083 -55.982613)
(-1017.4368 -481.86326 -46.492185)
(-1129.156 -513.62086 -36.621694)
(-1241.7555 -545.30629 -26.768256)
(-1352.8619 -576.54007 -17.375418)
(-1460.3822 -606.65591 -8.6609116)
(-1562.4758 -635.19733 -1.048342)
(-1657.8204 -661.68169 5.339005)
(-1745.2749 -685.80638 10.428019)
(-1824.427 -707.32084 14.128903)
(-1895.1664 -726.11462 16.566951)
(-1957.8297 -742.21434 17.840155)
(-2013.1352 -755.73773 18.125831)
(-2062.2538 -766.95833 17.606828)
(-2106.4171 -776.1297 16.57413)
(-2147.0765 -783.89881 15.25508)
(-2185.619 -790.493 13.963329)
(-2223.5239 -796.35683 12.711634)
(-2261.9627 -801.99185 11.886069)
(-2302.0046 -807.66222 11.426064)
(-2344.353 -813.6778 11.439908)