/*--------------------------------*- C++ -*----------------------------------*\
  =========                 |
  \\      /  F ield         | OpenFOAM: The Open Source CFD Toolbox
   \\    /   O peration     | Website:  https://openfoam.org
    \\  /    A nd           | Version:  6
     \\/     M anipulation  |
\*---------------------------------------------------------------------------*/
FoamFile
{
    version     2.0;
    format      ascii;
    class       pointScalarField;
    location    "0.59";
    object      p;
}
// * * * * * * * * * * * * * * * * * * * * * * * * * * * * * * * * * * * * * //

dimensions      [1 -1 -2 0 0 0 0];

internalField   nonuniform List<scalar> 
625
(
640268.09
-1064759
-618.80417
4574.964
1293533.8
-2127919.7
4370.8223
-1283.3581
537084.28
-48922.79
-119380.49
-3204.2511
-31.204896
1644.1351
290178.18
313755.95
318196.53
319583.66
290774.07
290155.01
270244.54
251608.86
248741.47
220979.1
209950.46
192472.43
175931.96
157401.79
139276.6
120145.48
99403.676
81315.669
60077.022
42301.722
26172.624
9883.0142
2854.1018
-376407.96
-255255.59
-348500.65
-279037.87
-270525.71
-271395.52
-243585.81
-231511.49
-223037.96
-205190.71
-192675.95
-175931.81
-162548.77
-144321.01
-127232.01
-108791.93
-89810.472
-71800.985
-52797.046
-37825.338
-21650.685
-10389.23
-1737.0684
723643.57
-95775.625
-262791.53
-393076.32
-510663.71
-385626.58
-342747.48
-407740.56
-314353.21
-301288.57
-297904.67
-276391.92
-265548.74
-239340.92
-225802.6
-202038.86
-181037.08
-160380.74
-135458.39
-113378.77
-90175.517
-67536.306
-46719.21
-28148.71
-12691.012
-648.78224
2396.1995
-1720.6752
-2514.9127
2892.5475
11385.444
22507.147
39435.636
58755.077
78975.993
100987.09
122663.59
144666.94
165811.09
184914.98
206548.05
220317.44
228267.19
271666.02
267979.37
289048.36
293816.3
341968.55
301106.7
355438.61
365132.56
309809.11
740379.37
695112.75
660912.71
-1173516
-1194804.3
-1173599.7
4756.8669
5701.9992
7542.3576
-3103.9601
-2548.1448
-2108.3221
179253.92
199547.74
204593.48
185587.4
173974.86
178860.77
155395.45
155109.8
138363.45
131297.65
123561.72
113320.71
101673.01
90642.73
79450.738
66779.142
55049.377
43112.264
30947.944
22336.651
12383.683
6221.0278
2375.1898
-50542.88
-32290.003
-50918.897
-25176.994
-39025.026
-30420.698
-31527.069
-25400.721
-24631.178
-23595.444
-21913.752
-20714.765
-18483.626
-15362.667
-12828.495
-10243.792
-7257.6895
-4804.69
-2972.1812
-1033.3522
-339.46152
1508.47
1419.4765
-242067.78
-205844.27
-197215.76
-170404.44
-199353.88
-161913.45
-165462.15
-152775.17
-145113.68
-134288.94
-124337.91
-112407.99
-101245.93
-89194.374
-77330.756
-64854.457
-52588.026
-40409.274
-30018.855
-18344.259
-11905.569
-5854.1716
-1177.0031
430308.75
416774.24
442573.97
-63751.711
-48354.392
-97908.969
-85723.079
-125355.28
-216009.7
-554996.82
-548127.76
-577820.65
-449466.55
-421663.69
-414705.58
-377039.83
-358485.15
-379396.57
-310529.24
-311040.03
-321585.21
-310867.68
-313299.44
-330760.21
-288562.29
-276809.45
-288129.23
-276667.25
-276290.02
-291571.38
-263125.78
-249354.81
-269024.25
-247259.02
-238238.76
-252595.71
-230421.19
-221348.85
-238908.87
-213214.9
-205852.29
-219483.93
-197675.85
-189340.86
-203155.21
-177684.84
-171365.77
-183318.83
-158737.96
-152384.76
-163140.87
-138384.62
-133196.91
-143228.95
-117432.65
-113416.44
-121285.95
-96549.14
-92605.244
-99236.384
-75382.458
-72802.68
-77980.906
-55387.812
-52935.124
-56536.599
-37345.967
-35843.816
-37963.321
-19934.807
-19121.074
-20150.576
-7846.3422
-8757.1801
-8663.7302
-1246.1037
1190.2835
-38.784409
-3602.6901
-3371.2791
-3918.0391
-1527.9034
-2004.5836
-992.63617
3597.6769
4379.815
5582.6832
395357.61
342951.31
388996.92
375533.6
324196.09
353679.1
388163.3
333429.73
363338.04
334162.25
303737.9
328191.91
330147.02
305750.75
309561.18
316629.18
269951.83
293165.29
290649.37
267741.16
285214.46
282702.38
249182.7
262710.04
258062.3
238450.74
244848.79
244011.54
220069.44
233620.17
228700.49
205307.12
213533.73
211853.85
185572.67
199729.03
189546.28
169852.72
180461.4
171314.83
151929.07
161487.39
149438.22
133480.54
141176.34
127525.38
114208.26
120231.94
105353.6
95022.827
99055.759
82995.7
75543.082
77868.346
60385.504
56675.979
57111.527
41152.859
38278.339
38976.208
23074.713
20820.141
21424.335
8827.0369
8747.1986
9184.2673
1842.1438
1311.0007
2085.4614
187323.13
216990.82
170252.73
195656.24
185899.7
173928.36
167648.02
158428.53
142200.97
135069.87
131232.88
114343.18
102717.87
91800.894
79140.365
67685.908
55422.811
44206.846
33572.33
23325.645
15123.171
8184.2198
45.224186
-50061.895
703.84923
-12602.039
13164.776
21438.087
10376.592
18802.33
18491.693
12874.879
16301.609
16416.43
14936.992
14458.507
13445.254
12671.995
11457.242
9880.745
9072.0011
6930.8471
5567.1377
4402.4819
1644.1933
326.00447
-144641.69
-147171.5
-204745.21
-188051.8
-188563.01
-193397.96
-171439.16
-166320.88
-152958.37
-143898.05
-134985.19
-122642.14
-114582.75
-101913.95
-91955.655
-80297.859
-68558.975
-56405.552
-45131.857
-33134.172
-23088.108
-12374.148
-7413.0719
238426.67
281315.58
226721.16
224785.34
244366.02
216853.11
168619.75
178662.42
210666.65
149637.79
210573.38
160424.8
185246.8
155447.59
165382.25
131389.72
170880.01
168984.38
143962.41
161219.29
143863.41
137468.78
144679.22
141709.14
126491.12
132262.28
140899.11
116640.88
132504.13
123164.3
108547.27
116512.17
115925.52
94576.675
108858.48
107006.45
88064.252
98205.747
96640.398
77667.094
86425.243
85864.456
67054.537
74176.334
74622.651
56704.335
62854.059
62861.093
46726.562
50152.063
51308.344
36304.792
38571.827
39297.102
26762.069
26629.267
28783.615
19209.595
18010.598
19223
9666.9166
9655.4485
9599.1184
6393.1417
4926.4688
6497.9666
-179.93575
-1229.9484
-1475.5319
-61734.514
-82429.817
-58512.507
-28522.574
-10941.353
-30410.543
-1821.1119
-11855.894
-25631.072
-469.42344
-13067.808
-38122.643
-6214.7084
-4906.1745
-6555.9788
-5419.6503
6586.4205
-24713.055
6898.9036
1071.3334
-20836.061
-5916.1498
1853.5602
-14278.414
-1566.7894
7854.1199
-17734.368
2001.4462
4838.3459
-12811.74
-1098.9895
4603.2145
-13178.451
1549.7388
8040.1367
-9773.9205
2440.8296
8031.0227
-9884.7076
2819.3048
7514.1422
-7420.0546
2878.0013
9093.3213
-5695.5564
3997.727
8987.2752
-3950.2469
4062.554
8913.4738
-2171.2484
4201.9177
8984.0643
-1073.9622
4738.4511
7066.7285
1353.7782
4668.3685
7020.1038
536.55045
4013.7037
2405.2642
2236.1777
1563.7755
3618.971
1561.143
1613.0982
1990.8639
2383.5105
-241232.69
-269172.9
-312015.61
-169373.39
-146936.23
-217104.04
-166642.6
-246221.57
-226764.75
-217471.36
-186949.15
-208066.44
-167722.57
-199397.99
-200689.6
-163492.13
-189196.27
-196066.57
-162172.82
-181556.96
-180188.74
-148434.88
-169321.19
-179771.07
-135047.81
-163020.99
-162853.57
-132504.5
-151243.06
-153773.22
-120008.71
-140300.35
-142078.86
-111155.57
-128323.32
-131400.83
-100209.72
-119145.46
-119823.68
-90373.384
-106083.69
-107688.21
-78627.862
-94229.149
-94481.446
-67954.522
-81053.791
-82684.766
-56094.541
-68433.421
-69246.945
-45794.883
-55050.369
-56806.945
-34518.571
-42774.21
-44055.89
-25336.269
-29909.084
-31738.53
-17925.762
-20190.699
-21829.278
-7652.2673
-8451.5377
-7721.3588
-4358.1959
-5399.5258
-8126.9471
)
;

boundaryField
{
    free
    {
        type            calculated;
    }
    fixed
    {
        type            calculated;
    }
    freeTop
    {
        type            calculated;
    }
}


// ************************************************************************* //
