/*--------------------------------*- C++ -*----------------------------------*\
  =========                 |
  \\      /  F ield         | OpenFOAM: The Open Source CFD Toolbox
   \\    /   O peration     | Website:  https://openfoam.org
    \\  /    A nd           | Version:  6
     \\/     M anipulation  |
\*---------------------------------------------------------------------------*/
FoamFile
{
    version     2.0;
    format      ascii;
    class       pointVectorField;
    location    "0.4";
    object      lm;
}
// * * * * * * * * * * * * * * * * * * * * * * * * * * * * * * * * * * * * * //

dimensions      [1 -2 -1 0 0 0 0];

internalField   nonuniform List<vector> 
28033
(
(-1.780536e-14 4.8656612e-16 1.3104288e-15)
(-5.4375576e-15 3.3318594e-15 9.9433006e-16)
(1306.482 -479.84667 -21.642344)
(1333.6776 -455.4113 52.469833)
(-1.338461e-14 3.0090723e-15 -2.870051e-16)
(-1.2587315e-14 4.9008913e-15 -4.4266115e-15)
(1321.676 -500.43355 1.0237337)
(1302.3409 -479.55956 22.481575)
(-5.6329745e-15 1.0535579e-15 6.7193838e-16)
(-2.4534443e-15 3.0423504e-16 5.8836893e-16)
(-5.4923298e-15 2.4302826e-15 8.9528572e-16)
(-2.6209443e-15 -1.1537891e-15 -6.7979696e-16)
(-7.2548563e-15 1.5542294e-15 1.0013199e-15)
(-4.7613589e-15 -9.2108094e-16 -7.3952737e-16)
(-1.132389e-15 -2.2256662e-17 -6.4484848e-16)
(-7.4239857e-16 -2.4218299e-16 -3.6669977e-16)
(-1.1196198e-15 4.5550132e-16 8.383863e-16)
(-2.3465882e-16 2.2667819e-16 1.4996246e-15)
(-4.0583243e-15 -8.7236639e-16 -1.3429605e-15)
(-5.8237189e-15 8.4462789e-16 7.5519031e-16)
(-5.1611762e-15 1.0100276e-15 9.7613867e-16)
(-1.7679952e-15 -8.1010255e-16 4.5192313e-16)
(-4.4158752e-15 1.0299569e-15 -9.452958e-16)
(1267.8482 -478.05991 -22.698153)
(1219.0916 -468.8072 -24.314196)
(1182.8607 -459.14956 -22.005385)
(1163.5882 -450.71319 -17.532644)
(1164.5017 -444.26141 -10.767614)
(1185.1151 -440.8118 -0.77603925)
(1221.9737 -438.36858 10.256576)
(1270.9169 -438.08334 24.099023)
(1323.8955 -437.69445 38.040515)
(1372.6581 -438.46169 51.839501)
(1411.7639 -440.12236 62.726593)
(1432.1143 -442.44966 68.091048)
(1433.0916 -446.3513 71.105211)
(1412.0797 -450.58915 67.631116)
(1373.7315 -454.03349 60.232899)
(21.806636 15.204001 10.881722)
(38.232692 25.173232 4.7185512)
(58.191238 35.359389 -1.5210716)
(81.069469 44.73877 -10.491822)
(104.77068 53.64352 -18.659436)
(130.62756 61.256714 -25.620055)
(157.55075 67.8953 -31.486816)
(185.76234 72.349416 -35.742569)
(215.37296 75.41808 -38.795441)
(246.10197 75.736367 -40.71032)
(277.57382 73.81023 -41.175306)
(309.75859 69.111699 -41.265378)
(342.34978 61.816183 -40.48779)
(375.42665 51.500195 -40.048506)
(407.64575 38.392284 -38.836284)
(439.78204 22.715428 -38.305466)
(471.18134 4.838621 -38.080857)
(501.59311 -15.222039 -38.828094)
(530.16262 -37.291383 -39.547929)
(557.69367 -60.587538 -41.726939)
(583.14177 -85.15846 -44.268368)
(606.70265 -110.36676 -47.836564)
(628.05929 -136.06662 -52.002675)
(646.85515 -161.85727 -56.487912)
(663.06039 -187.4648 -61.574557)
(676.41803 -212.56214 -66.619124)
(686.12086 -236.84602 -71.346414)
(692.3696 -260.0734 -75.313435)
(694.59114 -281.89325 -78.574546)
(692.33753 -301.96661 -80.138515)
(685.46625 -320.07604 -80.179032)
(674.019 -335.78917 -78.024989)
(657.45381 -348.81506 -73.771368)
(635.97712 -358.9703 -67.144623)
(610.13921 -365.92922 -58.316416)
(580.23769 -369.43024 -47.126737)
(547.10703 -369.49033 -34.311139)
(511.028 -366.13264 -19.994896)
(473.74605 -359.10529 -4.3041801)
(435.8565 -348.97088 11.618466)
(398.67525 -335.87022 27.662559)
(363.44135 -320.10645 43.053729)
(331.15088 -302.29956 57.27246)
(303.06735 -282.86474 69.854259)
(280.16643 -262.5857 80.194462)
(263.20139 -242.03412 88.070596)
(252.83574 -221.8978 93.125867)
(249.43386 -202.81812 95.252643)
(253.18925 -185.41714 94.409633)
(264.03949 -170.26411 90.67828)
(281.72786 -157.86417 84.236497)
(305.78687 -148.65262 75.359837)
(335.57781 -142.96197 64.387881)
(370.30602 -141.04691 51.730744)
(409.04454 -143.03764 37.844052)
(450.76574 -148.96521 23.213266)
(494.3653 -158.72883 8.3508396)
(538.69244 -172.12185 -6.2216369)
(582.59186 -188.7908 -19.994124)
(624.92236 -208.29032 -32.469203)
(664.62204 -230.03244 -43.178632)
(700.72605 -253.41426 -51.727925)
(732.41273 -277.60016 -57.73567)
(759.04603 -301.92627 -60.946246)
(780.24635 -325.5291 -61.283133)
(795.70436 -347.62051 -58.349538)
(805.74162 -367.48454 -52.494177)
(810.60203 -384.41145 -43.987733)
(810.66727 -398.16292 -32.699063)
(807.22076 -408.08134 -19.13171)
(801.18904 -414.24191 -4.2174916)
(793.51116 -416.43102 11.989227)
(785.74079 -414.88731 28.69206)
(779.15111 -410.03453 45.178379)
(775.08961 -402.41082 60.734983)
(774.7652 -392.63946 74.689156)
(779.22683 -381.57727 86.445087)
(789.18875 -369.98805 95.456059)
(805.30737 -358.88362 101.44117)
(827.5084 -348.85661 104.00997)
(855.7628 -341.059 103.30133)
(889.62802 -335.90563 99.157564)
(927.89785 -333.82319 92.234515)
(969.81373 -335.07981 82.572627)
(1013.8173 -339.87145 71.034418)
(1058.392 -348.27119 58.149775)
(1102.1601 -359.52969 44.666424)
(1143.0531 -373.55827 31.443783)
(1180.1905 -388.95685 19.11857)
(1211.8109 -405.72932 8.0704415)
(1237.5603 -421.8917 -0.2384442)
(1256.1392 -437.3313 -7.460879)
(1269.3253 -451.35789 -10.984255)
(1275.8764 -461.07334 -14.484585)
(1279.9091 -468.09101 -15.539581)
(16.312216 -33.929004 -29.382902)
(24.815403 -43.335678 -43.772212)
(36.601972 -51.789737 -49.392058)
(55.249211 -61.652558 -49.158529)
(77.912627 -73.487642 -45.403903)
(103.97104 -84.482862 -38.430069)
(132.42044 -93.881486 -30.270756)
(163.99613 -104.48456 -19.471217)
(198.56059 -114.46949 -7.5273841)
(234.35026 -123.35378 5.2857824)
(272.51124 -132.40755 19.14311)
(310.99036 -139.6945 32.874498)
(349.64464 -146.5578 45.905979)
(388.06504 -151.65874 58.392261)
(425.74347 -155.81302 69.505429)
(462.00642 -158.00877 79.314957)
(496.64381 -158.49992 87.151439)
(529.61601 -157.63643 93.61031)
(560.68914 -154.61106 98.283804)
(589.73469 -150.22786 101.24859)
(617.10256 -143.99065 103.30176)
(642.34672 -136.0089 103.69563)
(666.08506 -126.85872 103.66462)
(687.85462 -115.69078 102.81734)
(707.52604 -103.29347 101.12188)
(725.64399 -89.557454 99.775691)
(741.40876 -74.305761 97.745644)
(754.82381 -57.897359 95.863261)
(765.39267 -40.314366 93.457068)
(772.95139 -21.630716 90.932831)
(776.83234 -2.163183 87.908216)
(776.69628 18.166414 84.140574)
(772.23642 38.82341 79.566399)
(763.19862 59.573364 73.94586)
(749.37452 80.065959 67.069534)
(730.94935 99.825829 59.154768)
(708.06813 118.37643 49.504388)
(681.26484 135.19361 39.003696)
(651.22452 149.81836 27.43213)
(618.70988 161.59986 15.107344)
(584.64104 170.26238 2.2794678)
(550.09229 175.35786 -10.695413)
(516.14818 176.62783 -23.452903)
(483.87534 173.91426 -35.661257)
(454.31011 167.17945 -46.986434)
(428.40409 156.51419 -57.125734)
(407.00462 142.11756 -65.80582)
(390.83663 124.29822 -72.775665)
(380.47813 103.4489 -77.821372)
(376.35917 80.037818 -80.751186)
(378.74237 54.58065 -81.414228)
(387.72123 27.63658 -79.696837)
(403.20909 -0.21737936 -75.540413)
(424.94188 -28.398193 -68.948205)
(452.46583 -56.321615 -60.004842)
(485.15564 -83.428635 -48.877986)
(522.21292 -109.1854 -35.837345)
(562.6862 -133.09927 -21.25024)
(605.49753 -154.73745 -5.5774705)
(649.47126 -173.73051 10.627761)
(693.3718 -189.79044 26.747526)
(735.94772 -202.72702 42.116703)
(775.99073 -212.45162 56.054313)
(812.37045 -218.98123 67.885619)
(844.09318 -222.4872 77.021775)
(870.3644 -223.18236 82.910708)
(890.70514 -221.5022 85.134589)
(904.57298 -218.03667 83.601068)
(912.37796 -213.22489 78.107564)
(914.23865 -207.94835 68.441142)
(910.6582 -202.27804 55.794727)
(903.08208 -198.12079 40.031678)
(892.03165 -195.13077 22.012755)
(879.23423 -194.38217 2.4516631)
(866.19821 -196.36014 -17.554752)
(854.37679 -201.48746 -37.174556)
(845.3542 -210.02117 -55.387643)
(840.51127 -222.02515 -71.298194)
(841.04393 -237.39728 -84.119763)
(847.83921 -255.81829 -93.248204)
(861.43429 -276.78561 -98.28886)
(882.00853 -299.65689 -99.054045)
(909.30759 -323.63729 -95.62853)
(942.68004 -347.85324 -88.314277)
(981.11362 -371.38948 -77.658486)
(1023.2613 -393.34333 -64.370117)
(1067.5597 -412.87384 -49.324324)
(1112.2667 -429.29309 -33.418853)
(1155.6527 -442.0638 -17.617686)
(1196.0161 -450.91479 -2.7303462)
(1231.8912 -455.93521 10.569076)
(1262.2107 -457.39116 21.781908)
(1286.2437 -456.2084 30.961643)
(1304.1063 -453.89286 38.345085)
(1319.986 -452.73807 44.629302)
(3.2927448e-15 -1.3239155e-15 2.3845803e-16)
(2.4470133e-15 -9.6672015e-16 3.215493e-17)
(-9.0574249e-15 9.0550918e-16 6.4029168e-16)
(-1.2642219e-16 -5.721845e-16 4.4370095e-16)
(-7.6811722e-15 -4.9270561e-16 4.1193361e-16)
(-7.3893964e-15 2.7533729e-15 -1.0951501e-15)
(-3.2915852e-15 -8.1743692e-16 3.8364228e-16)
(-1.9032499e-15 5.3200654e-16 -8.2319016e-17)
(-4.7409759e-15 -4.8623412e-16 4.3918642e-16)
(-1.2869644e-14 1.1845665e-15 6.4228907e-16)
(-9.6157521e-15 1.4157374e-15 5.9836601e-16)
(-9.4077204e-15 4.9518432e-16 1.1192419e-15)
(-5.982767e-15 2.6210694e-16 3.0473736e-16)
(-1.1478475e-14 -5.3386198e-16 1.6580808e-15)
(-5.257323e-15 3.6289085e-16 2.8600704e-16)
(25.170945 -14.118384 19.676117)
(28.263575 -46.136812 32.138617)
(34.940115 -47.71771 36.322712)
(51.593561 -72.76724 35.338305)
(74.790452 -77.837826 29.862887)
(98.314437 -94.619586 22.332097)
(127.55406 -106.2279 15.297735)
(157.02691 -120.04001 7.1830766)
(192.73155 -131.62848 -1.5249691)
(225.5996 -142.14535 -9.9198454)
(263.60271 -149.87662 -17.539708)
(301.31516 -158.36418 -25.547623)
(338.60698 -162.50691 -32.553087)
(377.57086 -166.35587 -39.411824)
(413.53197 -166.02567 -45.207502)
(450.86573 -165.5902 -50.607108)
(485.8849 -162.99207 -55.544703)
(519.40248 -156.35866 -59.552174)
(551.49714 -150.16459 -63.460044)
(581.42407 -140.90603 -66.44162)
(609.52592 -132.36611 -69.946797)
(636.91899 -119.30503 -72.53754)
(661.255 -107.43748 -75.018355)
(682.92171 -94.329109 -77.016908)
(703.38865 -80.331192 -78.658457)
(720.47259 -65.947166 -79.887062)
(736.8933 -48.254288 -80.90213)
(748.98483 -32.773233 -80.987087)
(758.37359 -13.908161 -79.880938)
(764.45014 3.7424796 -77.829231)
(766.35452 23.267482 -74.034754)
(764.35961 43.267362 -68.831631)
(757.70548 63.707992 -61.495738)
(746.56787 84.617035 -52.353347)
(731.65689 106.48735 -41.530065)
(708.49767 124.23566 -27.815741)
(685.377 145.22813 -13.385155)
(657.71588 163.05436 2.4546488)
(627.07913 178.94625 18.836437)
(594.79363 192.28998 35.440811)
(561.79798 202.5446 51.57476)
(529.19395 209.3087 66.6934)
(498.08095 212.21002 80.265605)
(469.47834 211.02907 91.854983)
(444.33471 205.64976 101.10646)
(423.47466 196.08806 107.78213)
(407.57572 182.48167 111.74832)
(397.16983 165.08553 112.96928)
(392.62313 144.25747 111.50625)
(394.14424 120.44995 107.49234)
(401.77244 94.188295 101.13913)
(415.39506 66.066056 92.703038)
(434.72998 36.716721 82.510778)
(459.35081 6.8174449 70.91037)
(488.6753 -22.956459 58.312255)
(521.99397 -51.909866 45.134343)
(558.46502 -79.393596 31.840393)
(597.15983 -104.78213 18.884788)
(637.06071 -127.52747 6.7390995)
(677.11925 -147.16872 -4.1544883)
(716.26952 -163.35118 -13.38025)
(753.48155 -175.86062 -20.572617)
(787.79529 -184.62109 -25.445382)
(818.35379 -189.72718 -27.759406)
(844.48104 -191.43474 -27.435736)
(865.61485 -190.15799 -24.40037)
(881.53158 -186.28613 -18.787883)
(892.40957 -180.70466 -10.761339)
(897.09497 -176.13115 -1.2698202)
(898.35294 -167.19481 11.35586)
(894.90242 -162.41252 23.757782)
(888.72485 -158.05836 37.654283)
(880.01549 -156.26566 51.341156)
(870.79222 -157.60693 64.458339)
(861.87556 -162.55101 76.583778)
(854.66483 -171.43548 86.987413)
(850.45351 -184.449 95.248452)
(850.29145 -201.51541 100.96666)
(855.1072 -222.35866 103.8469)
(865.56117 -246.50754 103.75406)
(882.00016 -273.29719 100.69625)
(904.43584 -301.91769 94.845653)
(932.53786 -331.43975 86.537248)
(965.61912 -360.87411 76.25131)
(1002.6936 -389.2112 64.603463)
(1042.4961 -415.48779 52.294231)
(1083.5906 -438.83319 40.07181)
(1124.4168 -458.54633 28.684138)
(1163.4304 -474.12004 18.787656)
(1199.1847 -485.33995 10.926189)
(1230.444 -492.27775 5.4089049)
(1256.3563 -495.4276 2.2974771)
(1276.456 -495.62926 1.2911497)
(1291.1795 -494.45363 1.6545187)
(1299.0793 -492.22854 1.8416047)
(1365.4722 -503.03087 -4.3668864)
(1406.2565 -502.59462 -9.9751759)
(1420.7062 -495.50531 -12.663594)
(1418.211 -491.15475 -12.63588)
(1396.2367 -484.1193 -8.6371966)
(1354.5489 -478.10062 -3.2870207)
(1307.2404 -472.31226 4.6927877)
(1259.3715 -467.90131 12.468331)
(1205.8633 -461.00581 18.831436)
(1168.5955 -457.29604 24.54765)
(1154.4532 -458.73312 28.276669)
(1156.3576 -461.02103 31.125762)
(1178.5838 -467.96502 30.120044)
(1218.3351 -473.13412 29.915628)
(1274.4042 -483.40404 25.801809)
(1278.8596 -470.12819 15.37018)
(1274.1264 -461.35221 12.569475)
(1264.4728 -450.30389 6.7985873)
(1249.949 -435.48185 1.2072549)
(1229.0601 -418.03663 -7.6273779)
(1202.2362 -399.05647 -18.183492)
(1169.7191 -379.46935 -30.282617)
(1132.3001 -360.29742 -43.5913)
(1091.2261 -342.58095 -57.033577)
(1047.9404 -327.14083 -70.056808)
(1003.8299 -314.80782 -81.632282)
(960.65154 -305.96069 -91.1643)
(919.5302 -301.03946 -97.944306)
(881.96003 -299.88369 -101.73805)
(848.8007 -302.37531 -101.80669)
(821.19841 -308.41419 -98.172768)
(799.62257 -317.24416 -90.685207)
(784.19971 -328.16072 -79.69445)
(774.73225 -340.27785 -65.67124)
(770.71908 -352.67039 -49.187)
(771.33896 -364.37192 -30.982673)
(775.54384 -374.43492 -11.9013)
(782.10432 -382.01664 7.22328)
(789.78875 -386.39435 25.65766)
(797.18025 -387.22059 42.537199)
(802.89877 -383.59572 57.15703)
(807.32719 -376.19522 69.04529)
(804.17083 -361.90581 77.987821)
(800.85198 -348.5749 83.91501)
(790.37856 -328.37224 86.326126)
(775.36668 -306.29081 85.782736)
(754.95307 -282.0855 82.175157)
(729.5932 -256.51812 76.12547)
(699.64917 -230.61865 67.88419)
(665.77821 -205.24205 57.975876)
(628.74119 -181.2571 46.847333)
(589.43711 -159.46348 34.988918)
(548.83891 -140.58157 22.846769)
(507.96767 -125.20398 10.850185)
(467.85957 -113.8024 -0.61370127)
(429.53186 -106.70124 -11.206582)
(393.96025 -104.08105 -20.634392)
(362.04644 -105.96557 -28.659054)
(334.5984 -112.23676 -35.093268)
(312.30385 -122.62623 -39.810443)
(295.70636 -136.73679 -42.740397)
(285.19141 -154.04196 -43.879142)
(280.95848 -173.91928 -43.284019)
(283.01689 -195.64051 -41.076065)
(291.20565 -218.44528 -37.44111)
(305.07489 -241.51993 -32.574718)
(324.22614 -263.97894 -26.841608)
(347.69713 -285.22378 -20.329966)
(374.95633 -304.22474 -13.590413)
(404.78594 -320.62694 -6.6669234)
(436.39504 -333.77532 0.062079628)
(468.85134 -343.27609 6.5532364)
(502.98841 -349.29947 12.966725)
(531.72341 -350.83051 18.657858)
(562.29434 -348.65489 23.862098)
(591.21741 -343.53949 28.968462)
(612.95852 -333.85739 33.517181)
(635.24995 -321.60266 38.303616)
(652.99197 -306.65569 42.778727)
(668.05047 -290.96273 47.94115)
(677.01179 -271.24984 52.715835)
(685.31247 -252.6854 58.525271)
(687.29368 -230.73476 63.871321)
(687.64632 -210.1417 70.16931)
(683.81347 -188.97741 76.305649)
(677.07386 -168.19757 82.537155)
(666.22511 -147.71626 88.02262)
(652.51054 -125.98443 92.907139)
(634.99056 -107.23581 96.69946)
(613.60714 -87.685695 98.790867)
(590.02576 -68.601985 99.615148)
(561.27932 -51.319872 97.561925)
(531.41298 -34.206681 94.473245)
(496.42968 -18.565721 87.947784)
(461.21198 -3.5719536 80.445578)
(423.10633 8.8787123 70.454881)
(382.88928 20.761848 59.103448)
(342.75455 31.797697 46.495991)
(303.54409 39.292263 33.85509)
(263.74738 47.302556 20.412597)
(225.97489 51.847845 8.4942024)
(190.91771 54.867529 -3.3548814)
(157.67521 56.784115 -13.268898)
(127.53908 57.079589 -21.524399)
(100.52243 53.916992 -27.298199)
(77.334266 50.19162 -31.515262)
(57.172096 44.525828 -32.845444)
(40.866182 39.860319 -32.975506)
(25.086662 28.125739 -27.487296)
(24.126352 17.386086 -15.874346)
(-6.8708141e-15 1.5083581e-15 1.9262289e-16)
(-1.2504183e-14 5.7375616e-16 8.4327435e-16)
(-8.3449101e-15 1.4891922e-15 5.3018253e-16)
(-4.9731758e-15 1.4991158e-15 6.2376313e-16)
(-3.4146159e-15 1.5624416e-15 3.1576894e-17)
(2.0582335e-15 9.3962624e-16 -5.746342e-16)
(2.2101935e-15 3.7457559e-17 -1.1841335e-16)
(2.4553765e-15 -8.5141669e-16 -9.3419562e-16)
(1.2987427e-15 1.0081898e-16 1.7950851e-15)
(-4.5074861e-15 9.063971e-16 1.0710522e-15)
(-5.2682467e-15 2.1856155e-15 1.0652666e-15)
(-7.4917339e-15 1.915055e-15 2.2418828e-16)
(-9.400838e-15 1.3708275e-15 6.2833768e-16)
(-6.2048683e-15 1.3247981e-15 5.4317906e-16)
(-6.971104e-15 1.5128103e-15 7.5678131e-16)
(-1.2693866e-14 6.2923345e-15 -2.1364834e-15)
(-5.2452578e-15 2.6791924e-15 -5.3037742e-16)
(-1.0752404e-15 9.8318743e-16 -1.0111087e-16)
(-2.7353382e-15 1.7746034e-15 7.3085398e-17)
(1.0178949e-15 -1.5450237e-16 -4.119182e-16)
(-1.4303492e-15 4.136346e-16 -3.3264033e-16)
(-1.0059749e-14 4.7133437e-15 -1.6449855e-15)
(2.9801421e-15 -1.9180379e-15 -8.3172098e-16)
(-4.79756e-15 2.8035442e-15 1.1420498e-15)
(-5.4778068e-15 3.5047253e-15 -3.934403e-16)
(-1.8117877e-15 1.1581936e-15 -9.1309836e-16)
(-3.9812639e-16 4.7407236e-16 -2.2932148e-16)
(-1.5272242e-15 1.100363e-15 -2.2557932e-16)
(-4.1024849e-15 1.9838802e-15 2.8069696e-17)
(-5.3424143e-16 2.551799e-16 -1.9455919e-16)
(1334.8338 -466.1417 52.808256)
(1334.1902 -477.32796 50.190532)
(1334.39 -489.30606 45.789386)
(1334.815 -500.71295 41.035939)
(1335.9443 -511.28887 36.093836)
(1336.8163 -520.17658 31.566601)
(1337.435 -526.62577 27.190512)
(1337.363 -530.47735 23.112209)
(1336.5931 -531.50447 19.209649)
(1335.1202 -529.97026 15.380613)
(1333.3026 -526.19674 11.690338)
(1330.8372 -520.57938 8.0403725)
(1328.7749 -514.3063 4.6782415)
(1326.6178 -508.42866 2.1359159)
(1325.2631 -503.27683 0.8512462)
(1309.2659 -475.37564 -21.337493)
(1311.6005 -470.15689 -19.596421)
(1315.1909 -464.82551 -16.427756)
(1319.205 -459.71365 -12.797305)
(1324.0509 -455.47574 -9.106652)
(1328.3208 -452.18504 -5.6112052)
(1331.6531 -450.03699 -2.2159028)
(1333.5737 -449.09594 1.0125631)
(1333.8626 -449.43651 4.1956417)
(1332.4014 -451.03904 7.4827225)
(1329.4209 -453.91147 10.839823)
(1325.0284 -458.02139 14.312701)
(1319.7722 -463.03048 17.864122)
(1314.2586 -469.00041 20.388459)
(1308.5275 -474.6334 22.259159)
(16.037343 6.1653709 8.3022137)
(31.570099 13.611243 2.0342702)
(49.736048 20.48442 -2.3657051)
(71.49939 27.604345 -10.793139)
(93.108756 33.732618 -16.78578)
(117.67091 39.453756 -23.253799)
(142.44694 43.726865 -28.159426)
(169.7589 47.003882 -32.136008)
(197.3378 48.245781 -34.686478)
(226.90563 47.963439 -36.13015)
(257.00144 45.323115 -36.82081)
(288.48585 40.876754 -36.270643)
(320.21748 33.466094 -35.539623)
(352.87579 24.312165 -34.19257)
(385.40582 12.575099 -33.058215)
(418.14434 -1.2002303 -31.7585)
(450.28922 -17.452049 -31.171194)
(482.00544 -35.277012 -30.852)
(512.73367 -54.709775 -31.456013)
(542.18773 -75.815227 -32.564081)
(570.35356 -97.844585 -34.762492)
(596.68312 -120.81989 -37.539364)
(621.20959 -144.38635 -41.175509)
(643.47824 -168.10707 -45.42437)
(663.19542 -191.91871 -49.999918)
(680.21173 -215.28394 -54.904818)
(694.14778 -237.92017 -59.606845)
(704.43735 -259.60836 -63.965173)
(710.79328 -279.89435 -67.434298)
(712.88014 -298.34963 -69.842304)
(710.17653 -314.88401 -70.631955)
(702.29135 -328.91284 -69.79155)
(689.1651 -340.18815 -66.836178)
(670.71375 -348.5772 -61.735806)
(647.16992 -353.73246 -54.421847)
(618.62688 -355.43235 -45.056978)
(585.73708 -353.90993 -33.831039)
(549.48779 -348.98321 -21.073027)
(510.59168 -340.77784 -7.120157)
(470.19773 -329.8131 7.3963041)
(429.89913 -316.23881 22.015367)
(390.85928 -300.54665 36.201385)
(354.32695 -283.52983 49.289208)
(321.76083 -265.5833 60.802837)
(294.39469 -247.46395 70.318727)
(273.253 -229.82456 77.416976)
(259.123 -213.29742 81.856941)
(252.56526 -198.49437 83.495134)
(253.87665 -185.95255 82.306137)
(263.06264 -176.14723 78.386021)
(279.87994 -169.45968 71.932033)
(303.82886 -166.18053 63.24303)
(334.19755 -166.48513 52.680692)
(370.08035 -170.45221 40.689925)
(410.41425 -178.02583 27.736239)
(454.01922 -189.04679 14.328184)
(499.62557 -203.22512 0.97932249)
(545.92194 -220.1622 -11.804659)
(591.59439 -239.34889 -23.537507)
(635.37224 -260.18857 -33.772433)
(676.08106 -282.00989 -42.100412)
(712.66619 -304.1102 -48.214427)
(744.28453 -325.72123 -51.808378)
(770.28424 -346.13653 -52.817732)
(790.25238 -364.81569 -50.980784)
(804.11314 -380.8979 -46.49861)
(811.9845 -394.26368 -39.69267)
(814.28366 -404.75007 -30.249488)
(812.19383 -411.42089 -18.98977)
(806.14241 -414.92574 -6.0364309)
(797.62883 -415.21866 7.7253686)
(787.83185 -412.48871 22.129199)
(778.15578 -407.34775 36.412116)
(769.948 -400.37999 50.009056)
(764.55552 -392.15884 62.368251)
(763.10654 -383.40374 72.94665)
(766.55127 -374.81616 81.360986)
(775.59854 -367.04398 87.263357)
(790.56342 -360.74681 90.477139)
(811.59942 -356.33616 90.871145)
(838.32842 -354.36518 88.649229)
(870.36995 -354.87488 83.802437)
(906.50769 -357.95479 76.824705)
(945.85684 -363.57176 68.045437)
(987.18835 -371.70414 58.099436)
(1029.0874 -381.55082 47.520707)
(1070.1727 -392.9879 36.632944)
(1108.813 -405.13766 26.165377)
(1143.8282 -417.47771 16.454153)
(1174.3517 -429.44086 7.9382276)
(1198.8029 -440.26674 0.94692579)
(1217.9491 -449.55184 -4.9410375)
(1230.8506 -457.56272 -9.0824175)
(1238.0494 -462.52544 -13.520811)
(1245.4504 -468.18523 -17.222275)
(11.663628 4.7389933 5.9495642)
(25.417188 5.0953107 0.74499335)
(44.137894 11.003825 -3.8108652)
(62.513946 14.248299 -9.6900151)
(83.968594 19.881704 -15.176759)
(106.14655 23.879747 -20.572878)
(130.64083 28.016801 -24.907287)
(155.88671 30.515568 -28.244192)
(183.12356 32.047939 -30.484644)
(211.50944 31.612122 -32.041301)
(241.16695 29.623555 -32.106977)
(272.01281 25.34019 -32.029602)
(303.70029 19.196664 -30.7957)
(336.31872 10.594179 -29.744446)
(369.27852 -0.14126327 -27.99676)
(402.73976 -13.077513 -26.868018)
(435.80646 -27.996567 -25.444179)
(469.03334 -44.858217 -24.921576)
(501.3461 -63.459854 -24.648343)
(532.96583 -83.428087 -25.335252)
(563.30673 -104.62691 -26.599731)
(592.40131 -126.65872 -28.787052)
(619.64144 -149.28284 -31.645677)
(645.05187 -172.14567 -35.210585)
(668.08998 -194.83678 -39.292243)
(688.56899 -217.22004 -43.656339)
(706.00517 -238.73591 -48.166147)
(720.03562 -259.06238 -52.413813)
(730.1252 -277.88094 -56.107872)
(735.86464 -294.8682 -58.848932)
(736.69054 -309.57834 -60.465431)
(732.32667 -321.76205 -60.441888)
(722.36121 -331.19226 -58.579492)
(706.52685 -337.55332 -54.835366)
(684.84515 -340.74548 -49.048445)
(657.5946 -340.63974 -41.238475)
(625.23597 -337.31212 -31.698751)
(588.45503 -330.85696 -20.628761)
(548.2742 -321.50667 -8.4107174)
(505.85681 -309.65556 4.4882318)
(462.63247 -295.7486 17.573598)
(420.17489 -280.2356 30.244179)
(379.88626 -263.84734 42.037631)
(343.43455 -247.15461 52.320019)
(312.1909 -230.84157 60.731747)
(287.42834 -215.57791 66.939688)
(270.11881 -201.93519 70.653897)
(260.99106 -190.47055 71.748564)
(260.42638 -181.63004 70.226608)
(268.49053 -175.80346 66.188962)
(284.93414 -173.24815 59.860026)
(309.2094 -174.13971 51.548002)
(340.50466 -178.51736 41.640961)
(377.78287 -186.32763 30.587468)
(419.82219 -197.3735 18.857357)
(465.2668 -211.3694 6.95873)
(512.66444 -227.89118 -4.6276682)
(560.53248 -246.43914 -15.424558)
(607.39989 -266.40813 -25.004917)
(651.86886 -287.14992 -32.983057)
(692.66021 -307.96307 -39.051786)
(728.69013 -328.16303 -42.963639)
(759.07546 -347.05361 -44.574642)
(783.23962 -364.07028 -43.830335)
(800.8348 -378.77973 -40.614861)
(811.91706 -390.39045 -35.570058)
(817.32369 -399.49037 -27.94389)
(817.51527 -405.15969 -19.032566)
(812.31937 -407.89139 -8.5818296)
(803.55836 -407.7419 2.8007151)
(792.59904 -405.16989 14.692262)
(780.708 -400.44721 26.690362)
(769.3165 -394.43587 38.278466)
(759.86231 -387.54498 49.018027)
(753.5648 -380.43219 58.446707)
(751.51623 -373.6877 66.2335)
(754.57108 -367.85576 72.109929)
(763.26271 -363.39255 75.850495)
(777.85481 -360.70009 77.451421)
(798.33367 -359.93527 76.802261)
(824.15237 -361.34961 74.202319)
(854.96393 -364.75321 69.63484)
(889.5299 -370.31442 63.62299)
(924.26557 -376.589 55.791291)
(961.58741 -383.96882 47.492147)
(1000.5874 -393.53317 38.685338)
(1038.7883 -403.68256 30.063501)
(1074.7489 -414.02044 21.75682)
(1107.2601 -423.93203 14.040174)
(1135.7195 -433.46123 7.1679239)
(1158.7826 -441.42465 1.3375081)
(1176.7102 -448.6052 -4.093424)
(1189.57 -454.76058 -8.0315136)
(1196.4297 -458.01179 -13.354572)
(1203.8673 -463.22983 -17.008159)
(9.6719034 1.4785434 3.2545451)
(23.816091 1.7174139 -2.0479244)
(38.685563 4.3551739 -4.4103325)
(57.326593 7.2564806 -10.413255)
(77.061059 10.603706 -15.124136)
(99.138888 13.997637 -19.908636)
(122.1 16.532146 -23.414795)
(147.5314 18.579194 -26.285361)
(173.89583 19.010927 -28.333514)
(202.15375 18.634211 -28.921266)
(231.60236 15.977869 -29.257741)
(262.61455 12.156861 -28.271465)
(294.51334 5.7655067 -27.188611)
(327.60049 -2.1513473 -25.198896)
(361.37806 -12.460706 -23.543988)
(395.55222 -24.56033 -21.373441)
(430.11378 -38.75937 -19.863269)
(464.48446 -54.664313 -18.463598)
(498.52072 -72.152075 -17.789551)
(531.9104 -91.060762 -17.681931)
(564.38376 -111.02741 -18.44574)
(595.52492 -131.87707 -19.934125)
(625.18803 -153.18284 -22.26109)
(652.93507 -174.70912 -25.313835)
(678.49072 -196.06357 -28.929596)
(701.45612 -216.92458 -33.023656)
(721.46418 -236.86871 -37.274942)
(738.04278 -255.63774 -41.4572)
(750.68763 -272.76234 -45.194002)
(758.85759 -287.95772 -48.271533)
(762.08855 -300.87183 -50.217844)
(759.85643 -311.23833 -50.827384)
(751.68578 -318.7032 -49.872037)
(737.39061 -323.17821 -47.139396)
(716.92625 -324.50267 -42.526111)
(690.3157 -322.59103 -36.169044)
(658.07628 -317.67627 -28.130121)
(620.8788 -309.77668 -18.676405)
(579.68334 -299.20136 -8.1251214)
(535.72968 -286.39125 3.0343199)
(490.48949 -271.87563 14.369025)
(445.59068 -256.24282 25.395826)
(402.64707 -240.09239 35.538552)
(363.35056 -224.18053 44.300108)
(329.3422 -209.06844 51.370244)
(301.92493 -195.49429 56.441968)
(282.25051 -184.00057 59.230869)
(271.12557 -175.07055 59.679502)
(269.00322 -169.1029 57.782737)
(275.98927 -166.38545 53.678685)
(291.83133 -167.07801 47.593192)
(315.94596 -171.23765 39.852721)
(347.45727 -178.78543 30.837175)
(385.23611 -189.53867 20.987577)
(427.95264 -203.18827 10.756903)
(474.12621 -219.33062 0.61470789)
(522.18793 -237.45182 -9.0042266)
(570.53644 -256.97337 -17.680968)
(617.60438 -277.2446 -25.061875)
(661.9074 -297.59429 -30.849229)
(702.13385 -317.3348 -34.813924)
(737.16558 -335.82817 -36.813288)
(766.14323 -352.46782 -36.791824)
(788.57272 -366.82714 -34.68309)
(804.05633 -378.40123 -30.794482)
(813.1339 -387.10428 -24.963999)
(815.24366 -392.63466 -17.669116)
(814.49509 -397.00569 -9.1457382)
(807.41079 -396.72352 0.49084306)
(796.76561 -394.46878 10.405789)
(784.3534 -390.30745 20.438628)
(771.31086 -384.81119 30.249053)
(759.18301 -378.55683 39.416074)
(749.21832 -372.11836 47.509634)
(742.67856 -365.97628 54.385606)
(740.51406 -360.71981 59.656528)
(743.47867 -356.73151 63.313474)
(751.99031 -354.34774 65.183745)
(766.20168 -353.79714 65.335177)
(785.99783 -355.16333 63.784897)
(810.89014 -358.45946 60.788044)
(840.3085 -363.50126 56.330387)
(873.2517 -370.23683 51.10757)
(908.93569 -378.48325 44.70745)
(942.39152 -386.10314 38.043982)
(979.28611 -395.26854 31.049313)
(1015.6879 -405.0793 24.590708)
(1049.7896 -414.51801 18.086085)
(1080.9388 -423.61819 12.376536)
(1108.2478 -431.85928 6.8924459)
(1130.5615 -439.08091 2.4289057)
(1148.5548 -445.30394 -2.2458335)
(1161.5435 -450.87338 -5.8413345)
(1168.8829 -453.48456 -10.875906)
(1176.5225 -458.05355 -15.129851)
(9.2115396 1.4773228 1.216083)
(22.117809 -0.35003872 -3.0212313)
(37.235936 1.4303034 -6.4123987)
(54.803604 2.807365 -11.86848)
(74.615159 5.4050199 -15.686708)
(95.602159 7.4188164 -19.643943)
(119.3959 9.5428589 -22.611499)
(144.36009 10.488763 -25.079026)
(171.29748 10.855597 -26.007945)
(199.93338 9.5390994 -26.737602)
(230.11941 6.9958798 -25.986682)
(261.70337 2.5643609 -25.054168)
(294.57058 -3.6356075 -22.99603)
(328.68783 -11.681759 -21.147435)
(363.32288 -21.851818 -18.496476)
(398.92532 -33.683499 -16.370536)
(434.53443 -47.534297 -14.093145)
(470.35021 -62.852453 -12.407214)
(505.73052 -79.789297 -11.141234)
(540.60393 -97.844816 -10.661507)
(574.41103 -116.92059 -10.842642)
(607.08614 -136.61444 -11.904616)
(638.10017 -156.65165 -13.729192)
(667.27411 -176.7155 -16.289038)
(694.14787 -196.39866 -19.477683)
(718.41763 -215.43442 -23.110769)
(739.61322 -233.40855 -26.975695)
(757.30538 -249.99339 -30.81849)
(770.93076 -264.82928 -34.367849)
(780.02703 -277.61501 -37.283365)
(783.99787 -288.05897 -39.296767)
(782.37187 -295.84293 -40.177701)
(774.72594 -300.86208 -39.626331)
(760.78141 -302.89393 -37.566718)
(740.41184 -301.91123 -33.906579)
(713.71345 -297.93193 -28.740979)
(681.22071 -291.12099 -22.094061)
(643.42012 -281.69189 -14.24537)
(601.30787 -270.05676 -5.6893935)
(556.36543 -256.48672 3.5260358)
(509.94091 -241.677 12.734814)
(463.65616 -226.11827 21.609675)
(419.26772 -210.53864 29.678158)
(378.52616 -195.57691 36.581225)
(343.01318 -181.85747 41.96636)
(314.1453 -169.99094 45.588616)
(293.10108 -160.49512 47.274814)
(280.72315 -153.78368 46.98009)
(277.49167 -150.18348 44.736536)
(283.52446 -149.88799 40.693867)
(298.56085 -152.9752 35.085753)
(322.01166 -159.40735 28.215926)
(352.96973 -169.02014 20.442571)
(390.27933 -181.55456 12.164373)
(432.56398 -196.63376 3.7800048)
(478.30995 -213.80322 -4.3104354)
(525.90363 -232.51857 -11.744931)
(573.71259 -252.18888 -18.191935)
(620.13629 -272.17254 -23.39156)
(663.68679 -291.82873 -27.132388)
(703.03534 -310.52141 -29.279498)
(737.07657 -327.6854 -29.778231)
(764.9997 -342.8052 -28.590084)
(786.23018 -355.49942 -25.876292)
(800.70284 -365.47196 -21.639437)
(808.35412 -372.7022 -16.187096)
(809.98466 -377.10682 -9.6937184)
(805.85844 -378.67966 -2.4472051)
(797.73065 -377.94756 5.4059317)
(786.345 -375.21668 13.121293)
(773.04484 -371.17506 21.084449)