/*--------------------------------*- C++ -*----------------------------------*\
  =========                 |
  \\      /  F ield         | OpenFOAM: The Open Source CFD Toolbox
   \\    /   O peration     | Website:  https://openfoam.org
    \\  /    A nd           | Version:  6
     \\/     M anipulation  |
\*---------------------------------------------------------------------------*/
FoamFile
{
    version     2.0;
    format      ascii;
    class       pointVectorField;
    location    "1.55";
    object      u;
}
// * * * * * * * * * * * * * * * * * * * * * * * * * * * * * * * * * * * * * //

dimensions      [0 1 0 0 0 0 0];

internalField   nonuniform List<vector> 
3969
(
(0 0 0)
(0 0 0)
(0.44443724 0.05591497 0.026408065)
(0.43313864 -0.093299086 0.025744236)
(0 0 0)
(0 0 0)
(0.4324056 -0.1016231 0.025611769)
(0.44371498 0.047375151 0.026169042)
(0 0 0)
(0 0 0)
(0 0 0)
(0 0 0)
(0 0 0)
(0 0 0)
(0 0 0)
(0.44277048 0.036409214 0.02585095)
(0.44099165 0.017875751 0.025899442)
(0.43937343 -0.00040240883 0.025873257)
(0.43794808 -0.018535771 0.026048691)
(0.43667072 -0.036713512 0.026120484)
(0.43545891 -0.055064591 0.02622693)
(0.43444739 -0.073769905 0.026080279)
(-0.00024573003 0.00018891979 0.00045504851)
(-0.00068928893 0.0004279752 0.00073690505)
(-0.0011224406 0.0010757436 0.001079575)
(-0.0012806472 0.0015496897 0.0013827609)
(-0.0014272981 0.0024434275 0.0016471434)
(-0.0012212307 0.0031981448 0.0019352128)
(-0.00097274911 0.0042963396 0.0022018228)
(-0.0002901274 0.005331617 0.0024776056)
(0.00053091018 0.0066848466 0.0027460602)
(0.0017966361 0.0079490733 0.0029994207)
(0.003321915 0.0095517663 0.0032861062)
(0.0053049415 0.011085906 0.0035596889)
(0.0076625017 0.012893056 0.0038138011)
(0.010493876 0.014708732 0.0041258543)
(0.013828494 0.016718573 0.0043985558)
(0.017633037 0.018741037 0.0047192584)
(0.022002422 0.020935129 0.0050537011)
(0.026914805 0.023142338 0.0054100353)
(0.03242802 0.02546724 0.005799571)
(0.038531034 0.027810324 0.0062089324)
(0.045272894 0.030209609 0.0066656726)
(0.052642691 0.032622812 0.0071400145)
(0.060673843 0.035043583 0.0076629107)
(0.06936041 0.037448718 0.0082122709)
(0.078715355 0.039803155 0.0087997527)
(0.088732434 0.042147532 0.0094221615)
(0.099417481 0.044405825 0.010079915)
(0.11077285 0.046578819 0.010758104)
(0.12278889 0.04866881 0.011472163)
(0.13543621 0.050625027 0.012208069)
(0.1487235 0.052470502 0.012964939)
(0.16262452 0.054162924 0.013740587)
(0.17711549 0.055706732 0.014529824)
(0.19217744 0.057080505 0.015328358)
(0.20779224 0.058290519 0.016134249)
(0.22391099 0.059277948 0.016952145)
(0.24052206 0.060159007 0.017748514)
(0.25757555 0.060694394 0.018583679)
(0.27504061 0.061233393 0.019349749)
(0.29288634 0.061315884 0.020208085)
(0.31105964 0.061456655 0.020942187)
(0.3295106 0.061192796 0.021788473)
(0.34824434 0.060752766 0.022568435)
(0.36710315 0.060316071 0.023321494)
(0.38619867 0.059289488 0.024202557)
(0.40532004 0.058517439 0.024960641)
(0.42443418 0.057417412 0.025932544)
(-0.00039173619 -3.8802799e-05 -0.00020131992)
(-0.0008075566 -0.00026138065 -0.00038142533)
(-0.0013660507 -0.00050012654 -0.0008233537)
(-0.0015549632 -0.0011265343 -0.00090850284)
(-0.0016678702 -0.0016327255 -0.0012241283)
(-0.0015825074 -0.0024440982 -0.0013488447)
(-0.0012477673 -0.0032141218 -0.0015937566)
(-0.00070284681 -0.0042465931 -0.0017483936)
(0.00010858378 -0.0052353221 -0.001959264)
(0.0013004078 -0.0065231539 -0.0021175681)
(0.0027118436 -0.0077095068 -0.0022903957)
(0.0046167053 -0.0092194837 -0.0024629914)
(0.0068300099 -0.010665546 -0.0025784132)
(0.0095153209 -0.012307519 -0.0027073909)
(0.012645958 -0.014018842 -0.0027671497)
(0.016275153 -0.015838145 -0.0028189065)
(0.020426745 -0.017747357 -0.0027944119)
(0.025111708 -0.019746481 -0.0027444947)
(0.03036642 -0.021832532 -0.0026136421)
(0.036229425 -0.024009743 -0.0024374258)
(0.042649422 -0.026254965 -0.0021773422)
(0.049758824 -0.028588664 -0.0018650449)
(0.057439431 -0.030989199 -0.0014499637)
(0.065825724 -0.033480652 -0.00098310573)
(0.074789871 -0.035993448 -0.00044455306)
(0.084477371 -0.038605179 0.00017861754)
(0.094714538 -0.041206072 0.00087578246)
(0.10569656 -0.043933321 0.0016481582)
(0.11729646 -0.046643055 0.0024691503)
(0.12952643 -0.049399118 0.0033665847)
(0.14239525 -0.052178616 0.0043205876)
(0.15585809 -0.054976795 0.0053322065)
(0.16992679 -0.057776126 0.0063982878)
(0.18455814 -0.060580948 0.0075084725)
(0.19974786 -0.063360001 0.0086684366)
(0.21545397 -0.066127784 0.0098560098)
(0.23167084 -0.068847283 0.011088517)
(0.24833505 -0.071510929 0.012347502)
(0.26545563 -0.074144433 0.01363418)
(0.282964 -0.076663307 0.014934694)
(0.30083893 -0.07913536 0.016264426)
(0.31903786 -0.081493706 0.017593811)
(0.33750815 -0.083732703 0.018935761)
(0.35623654 -0.085882945 0.020287344)
(0.37511853 -0.087881042 0.021628355)
(0.39421386 -0.089748178 0.022945271)
(0.41338165 -0.091589696 0.024296812)
(0 0 0)
(0 0 0)
(0 0 0)
(0 0 0)
(0 0 0)
(0 0 0)
(0 0 0)
(-0.00021703786 -2.5980561e-05 0.00014018801)
(-0.00066992282 -0.00045677098 0.0005037299)
(-0.001128905 -0.00063731915 0.00079906366)
(-0.0013018869 -0.0014183892 0.001041114)
(-0.0014268919 -0.00193563 0.0013526208)
(-0.0012469627 -0.0028037624 0.0015192579)
(-0.00090734896 -0.0037224482 0.0018580565)
(-0.00032621924 -0.004655855 0.0019783294)
(0.00058323049 -0.0059819028 0.0023608583)
(0.0017385991 -0.0070529856 0.0024370273)
(0.0032772656 -0.0087203753 0.0028757421)
(0.0051573173 -0.010084511 0.0030305927)
(0.0073912468 -0.011802621 0.0033589357)
(0.010226326 -0.013684385 0.0036246431)
(0.013287598 -0.01543819 0.0038973281)
(0.017065297 -0.017698629 0.0042514557)
(0.021157488 -0.019676765 0.0045480177)
(0.025933585 -0.022124713 0.0049378298)
(0.031160783 -0.02440835 0.005304416)
(0.037038798 -0.026997941 0.0057339853)
(0.043459161 -0.029533955 0.0061735125)
(0.050522498 -0.032271475 0.0066669822)
(0.058188329 -0.034996852 0.0071736583)
(0.066485909 -0.037849935 0.007734943)
(0.075439489 -0.040743867 0.0083006379)
(0.085082462 -0.043688227 0.008876101)
(0.095303616 -0.046727108 0.0095349534)
(0.10616986 -0.049748278 0.010203223)
(0.11767842 -0.052813015 0.010913948)
(0.12982488 -0.055880445 0.011638613)
(0.14259005 -0.058945084 0.012377748)
(0.15596766 -0.062004265 0.013139572)
(0.16993723 -0.065049019 0.013914203)
(0.18448502 -0.068053696 0.014696023)
(0.19958042 -0.07102735 0.015487612)
(0.21522329 -0.073955554 0.016284718)
(0.231345 -0.07677985 0.017067997)
(0.24794972 -0.079617251 0.017883232)
(0.26499377 -0.082302673 0.018668868)
(0.28245518 -0.084926957 0.0194672)
(0.30026819 -0.087439794 0.020250046)
(0.31843786 -0.089848812 0.021040352)
(0.33686418 -0.092122221 0.021821003)
(0.35556771 -0.094282473 0.022607181)
(0.37443456 -0.096286228 0.023387835)
(0.39350883 -0.098159468 0.024195301)
(0.41261347 -0.10002402 0.024960524)
(0.43381985 -0.082134004 0.02545544)
(0.43476335 -0.063504962 0.025481237)
(0.43597886 -0.045138284 0.025686316)
(0.43725916 -0.027048508 0.025878556)
(0.43861827 -0.0089025658 0.026212961)
(0.44020937 0.0093413305 0.026331101)
(0.44210689 0.027843447 0.02647586)
(0.42390538 0.048896717 0.02457063)
(0.40453405 0.04989214 0.023310146)
(0.38541364 0.050888432 0.021949967)
(0.36635987 0.051721426 0.020642632)
(0.34744437 0.05236405 0.019278085)
(0.32873144 0.052821914 0.017926396)
(0.31026586 0.053084511 0.016589021)
(0.29208079 0.053155958 0.015257654)
(0.27423368 0.053036856 0.01394209)
(0.25675791 0.0527441 0.012649879)
(0.23967643 0.052250144 0.011385673)
(0.22313499 0.051539633 0.010170051)
(0.20696267 0.050750833 0.0089573733)
(0.19136331 0.049736115 0.0078003116)
(0.17629992 0.04859574 0.0066774554)
(0.1618152 0.047297471 0.0056122005)
(0.14792015 0.045881079 0.0045950664)
(0.13464996 0.04433067 0.0036357327)
(0.12200817 0.042684903 0.0027379751)
(0.11002407 0.040926882 0.0019084048)
(0.09869456 0.039106459 0.0011383679)
(0.088034193 0.037194538 0.00044974726)
(0.078053692 0.035245311 -0.00017169865)
(0.068736025 0.03322978 -0.0007148591)
(0.060096974 0.03121223 -0.0011935631)
(0.052119621 0.029143582 -0.0015812802)
(0.044795715 0.027110609 -0.001921478)
(0.038119465 0.025041292 -0.0021583666)
(0.032065443 0.023037164 -0.0023640062)
(0.026624732 0.021023766 -0.0024748716)
(0.021761519 0.019086717 -0.0025524469)
(0.017470387 0.017182173 -0.0025705777)
(0.013688723 0.015367138 -0.0025367893)
(0.010463725 0.013555743 -0.0024575645)
(0.0077002996 0.011903364 -0.0023826051)
(0.0053634412 0.01030008 -0.0022229675)
(0.003425473 0.0088367762 -0.0021276442)
(0.001904842 0.007387124 -0.0019434872)
(0.00065268212 0.0061654075 -0.0018266345)
(-0.00017960519 0.0048830721 -0.0016457736)
(-0.00083062191 0.0039602873 -0.0014955211)
(-0.0011644153 0.0028880235 -0.0013118421)
(-0.0013397061 0.0021724439 -0.0011871849)
(-0.0012933132 0.0013632313 -0.00096213151)
(-0.0010434429 0.00086685778 -0.00081710712)
(-0.00077676531 0.00034885395 -0.00059135345)
(-7.8251625e-05 6.5128919e-05 -0.00017488164)
(0 0 0)
(0 0 0)
(0 0 0)
(0 0 0)
(0 0 0)
(0 0 0)
(0 0 0)
(0 0 0)
(0 0 0)
(0 0 0)
(0 0 0)
(0 0 0)
(0 0 0)
(0 0 0)
(0.43311766 -0.094610589 0.025653678)
(0.43309845 -0.095774915 0.025638873)
(0.43302974 -0.096854878 0.025644558)
(0.43295796 -0.097938274 0.025675936)
(0.43286632 -0.098979813 0.025709634)
(0.43274157 -0.099950479 0.025743064)
(0.43262538 -0.10096486 0.025653148)
(0.44459382 0.05518385 0.026403069)
(0.44454915 0.054132583 0.026420468)
(0.44448417 0.053111805 0.02633583)
(0.44441755 0.052066262 0.026276368)
(0.44432048 0.051001699 0.026207921)
(0.44418902 0.049873661 0.026156736)
(0.4441104 0.048822056 0.026171406)
(-0.00034507169 0.0004387938 0.0004850832)
(-0.00090481544 0.00081125989 0.00062917877)
(-0.001362899 0.0012390854 0.00090345443)
(-0.0016259745 0.0017286299 0.0011145485)
(-0.0017745012 0.0023168176 0.0013209163)
(-0.001640937 0.0030080684 0.0015450868)
(-0.0014280607 0.0037438237 0.0017649302)
(-0.00080068133 0.0046579739 0.001978477)
(-1.1646818e-05 0.0055781971 0.0021751148)
(0.0012021543 0.0066326464 0.0024157119)
(0.0026694205 0.0077993467 0.0026313828)
(0.0046112634 0.008996017 0.002833679)
(0.0068948462 0.010376552 0.0030863829)
(0.0096873805 0.011755928 0.003319743)
(0.012927949 0.013263965 0.0035760689)
(0.016696006 0.014819152 0.0038566769)
(0.020991909 0.016472316 0.0041521354)
(0.025856233 0.018141665 0.0044810855)
(0.031299098 0.019890741 0.0048339414)
(0.037359789 0.021651598 0.0052235103)
(0.044037714 0.023442522 0.0056495627)
(0.051356078 0.025239309 0.0061104796)
(0.059334479 0.027031085 0.0066144501)
(0.067952875 0.028787823 0.0071574312)
(0.07727085 0.030535343 0.0077408879)
(0.087247391 0.032200742 0.0083463919)
(0.097888977 0.033816049 0.0090011016)
(0.10920129 0.035360757 0.0096922621)
(0.12117628 0.03679585 0.010407371)
(0.13378505 0.038136991 0.011156629)
(0.14703987 0.039365989 0.011928946)
(0.16090786 0.040456798 0.01272526)
(0.17536806 0.041420724 0.013538754)
(0.19041315 0.042239483 0.014368015)
(0.20600315 0.042895045 0.015210678)
(0.22209753 0.04340683 0.016058845)
(0.23871317 0.043756517 0.016905646)
(0.25574491 0.043908287 0.017782546)
(0.27323195 0.043950525 0.018624381)
(0.29108058 0.04374334 0.019510023)
(0.3092546 0.04348763 0.020336694)
(0.32775013 0.042879131 0.021252995)
(0.34649364 0.042339561 0.022031781)
(0.36539899 0.041461656 0.022956086)
(0.3845537 0.040430471 0.02378616)
(0.40364918 0.039465323 0.02461078)
(0.42300066 0.037895941 0.025407145)
(-0.0005349091 0.00032787068 0.00038193354)
(-0.001021355 0.00057538891 0.00040351359)
(-0.0014833344 0.00099733344 0.00063459898)
(-0.0017521243 0.0012863492 0.00075966213)
(-0.0019115357 0.0017635132 0.00094710632)
(-0.0019250177 0.0021825109 0.0011084114)
(-0.0016675092 0.0027856113 0.0012765818)
(-0.0011419442 0.0033444007 0.0013987853)
(-0.00038559339 0.0040317529 0.0016188784)
(0.00072629247 0.004739666 0.0017597929)
(0.0022101306 0.0055650608 0.001908261)
(0.0040446725 0.0063732523 0.0021149835)
(0.0063244783 0.0073447219 0.0022803739)
(0.0090691287 0.0082606829 0.0024856198)
(0.012279073 0.0093304603 0.0027093512)
(0.015991844 0.01038417 0.0029403382)
(0.020246752 0.011538327 0.0032013547)
(0.025045511 0.01267789 0.0035001725)
(0.030452532 0.01389122 0.0038215718)
(0.036455209 0.015081961 0.0041894083)
(0.043094286 0.016299814 0.0045919869)
(0.050379215 0.017510028 0.0050269548)
(0.058293884 0.018687676 0.0055206599)
(0.066903578 0.019875262 0.0060406209)
(0.076167142 0.020982264 0.0066047999)
(0.086081346 0.022070779 0.0072361473)
(0.096682688 0.023077471 0.0078990645)
(0.10795438 0.024007804 0.0085833709)
(0.11986323 0.024869474 0.009332471)
(0.13244223 0.025622977 0.01009634)
(0.14565024 0.026283671 0.010894584)
(0.15947612 0.026820305 0.011728021)
(0.17390673 0.027254112 0.012571109)
(0.18891694 0.027549777 0.013446569)
(0.20446747 0.027726012 0.014330908)
(0.22055835 0.027763663 0.01523213)
(0.23714075 0.027683843 0.016138238)
(0.2541451 0.027401342 0.017076621)
(0.27164673 0.027121615 0.017952704)
(0.28943181 0.026511614 0.018928335)
(0.30768243 0.025975724 0.019801552)
(0.32612776 0.025125392 0.020761415)
(0.34492907 0.024309797 0.021645108)
(0.36383123 0.023216948 0.022608129)
(0.3830106 0.022081207 0.023481018)
(0.40220734 0.020784762 0.024352361)
(0.42170256 0.019272289 0.025169192)
(-0.00081844447 0.00021305675 0.00033648062)
(-0.0012327484 0.00042075126 0.00035893589)
(-0.0017372962 0.00061542995 0.00048869663)
(-0.001988299 0.0008624824 0.00054934251)
(-0.0022541323 0.0010821482 0.00067788539)
(-0.0021286888 0.0014330144 0.00073508949)
(-0.0019423915 0.0016686903 0.00081743448)
(-0.0013934767 0.0020820745 0.00094444083)
(-0.00067232024 0.0023889108 0.0010419994)
(0.00053564043 0.0028503632 0.0010936932)
(0.0018900331 0.003273678 0.0012629929)
(0.0037669744 0.0037458772 0.001365501)
(0.0059810533 0.0042927842 0.0014855064)
(0.0086705755 0.0048095266 0.0016663144)
(0.011808646 0.0054247652 0.0018401301)
(0.015492652 0.0060212647 0.0020235351)
(0.019687068 0.0066681504 0.0022683648)
(0.024463917 0.0073140532 0.0025071563)
(0.029822556 0.0079756711 0.0028172989)
(0.035774975 0.0086319108 0.0031483187)
(0.042356445 0.0092939265 0.0035357729)
(0.049551123 0.0099191064 0.0039715819)
(0.057444687 0.010555846 0.004452067)
(0.065969014 0.011107017 0.0049714945)
(0.075159287 0.011646316 0.0055717564)
(0.085034204 0.012117569 0.0061808677)
(0.095605431 0.012531301 0.0068286815)
(0.10682033 0.012873757 0.0075472134)
(0.11871239 0.013144194 0.0082847962)
(0.13125294 0.013319685 0.0090606688)
(0.14442128 0.013413327 0.0098843908)
(0.15822319 0.013404848 0.010726226)
(0.17262029 0.013297514 0.011601968)
(0.18759674 0.013088173 0.012502472)
(0.20313275 0.01276019 0.013423081)
(0.21919619 0.012353493 0.014352385)
(0.23573904 0.011778454 0.015317637)
(0.25278394 0.011190598 0.016256482)
(0.27023109 0.010410841 0.01723402)
(0.28806474 0.0095459952 0.018238834)
(0.30626296 0.008682427 0.01915835)
(0.32472613 0.0075116391 0.020241971)
(0.3435141 0.0065026239 0.021126557)
(0.36245205 0.0051656031 0.022207763)
(0.38170545 0.0038808588 0.023091239)
(0.4009344 0.0024959109 0.024088198)
(0.42036834 0.00096318974 0.02502162)
(-0.00081910285 0.0001114312 0.00011204479)
(-0.0011372408 0.00012804913 7.6153277e-05)
(-0.001722859 0.00024148188 0.00013650613)
(-0.0019835944 0.0002926375 0.00019013896)
(-0.002158674 0.00037683202 0.0002171119)
(-0.0021691872 0.00045868089 0.00025976847)
(-0.0019350428 0.00051403056 0.00033731877)
(-0.001511057 0.00062527106 0.00037124732)
(-0.00070885169 0.00069571341 0.00041016109)
(0.0002926036 0.00081271218 0.000533975)
(0.0017183795 0.00086915003 0.00059141133)
(0.0035355295 0.0010035901 0.00063579966)
(0.0057291462 0.0011289432 0.0007441142)
(0.0084158289 0.0011985399 0.00085782208)
(0.011542212 0.0013930409 0.00094925175)
(0.01521527 0.001467762 0.0011285928)
(0.019376321 0.0016623573 0.0012865024)
(0.024132423 0.0017541296 0.0015227129)
(0.029439551 0.0018967608 0.0017844783)
(0.03537416 0.0019945741 0.0020853819)
(0.041931002 0.0020675632 0.002448055)
(0.049162555 0.0021399687 0.0028312307)
(0.056998903 0.0021267092 0.0032861584)
(0.065504812 0.0021153702 0.003795909)
(0.074689659 0.0020492543 0.0043348179)
(0.084547199 0.0019367682 0.0049266179)
(0.095050982 0.0017633461 0.0056096455)
(0.10622371 0.0015138738 0.0063221298)
(0.11805787 0.001209445 0.0070743053)
(0.13053703 0.00081246712 0.0078961888)
(0.14365661 0.00035595952 0.0087337678)
(0.15740026 -0.00019817139 0.0096249579)
(0.17173885 -0.00082527785 0.010539569)
(0.18666757 -0.0015396202 0.01149099)
(0.20214479 -0.0023270485 0.012456739)
(0.21814905 -0.0032254365 0.013465273)
(0.23466311 -0.004152722 0.014465901)
(0.25161851 -0.005208042 0.015504573)
(0.26900904 -0.0063373226 0.016565966)
(0.28677451 -0.0074771184 0.017581792)
(0.30495709 -0.0087504545 0.018663691)
(0.32337931 -0.010063367 0.019722022)
(0.3421705 -0.011341524 0.02074181)
(0.36110271 -0.012832775 0.021868337)
(0.38030466 -0.01416686 0.022861046)
(0.39952649 -0.015674202 0.023992861)
(0.41899361 -0.017153476 0.024989582)
(-0.00080472987 -3.0713826e-05 -2.8736184e-05)
(-0.0012116405 -0.00016491392 1.2659502e-05)
(-0.0018184515 -0.00018186188 3.1689966e-06)
(-0.0019959508 -0.00029435554 -5.273242e-05)
(-0.0023253235 -0.00041777736 -4.0720599e-05)
(-0.002192197 -0.00047221096 -9.0705619e-05)
(-0.0020813071 -0.0007284752 -6.344806e-05)
(-0.001477067 -0.00077667966 -0.00015899774)
(-0.00082781929 -0.0010974717 -8.4724381e-05)
(0.00031723474 -0.0012474024 -0.00013853807)
(0.0016988301 -0.0015448192 -0.00016898676)
(0.0035045749 -0.0017212906 -0.00013105848)
(0.0056940799 -0.0020864702 -8.3210504e-05)
(0.0083421973 -0.0023135622 -5.3152489e-05)
(0.011453179 -0.0026632427 5.1873564e-05)
(0.01507183 -0.0029896907 0.00016139577)
(0.019224664 -0.0033365041 0.00030955848)
(0.02393471 -0.0037359596 0.00049939468)
(0.029225821 -0.0041136031 0.00072565607)
(0.035122263 -0.0045740795 0.0010115851)
(0.041641999 -0.0050059485 0.0013390432)
(0.048764977 -0.0055313824 0.0017402167)
(0.056568449 -0.0060655096 0.002205029)
(0.065016268 -0.0066747051 0.0026980755)
(0.07415285 -0.007327096 0.0032683428)
(0.083927434 -0.0080321679 0.0039043122)
(0.094396788 -0.0088109247 0.0045881179)
(0.10552482 -0.0096354479 0.0052994626)
(0.11731416 -0.01052616 0.0060861809)
(0.12974802 -0.011479129 0.0069013313)
(0.14282266 -0.012495805 0.0077688065)
(0.15651699 -0.013584216 0.0086774563)
(0.17081532 -0.01473878 0.0096232458)
(0.18569291 -0.015940456 0.010594431)
(0.20112502 -0.017239672 0.011614147)
(0.2170965 -0.018550067 0.012634644)
(0.23354479 -0.019946185 0.013693208)
(0.25049632 -0.021404088 0.014780772)
(0.26783041 -0.02285485 0.015827899)
(0.28565147 -0.024359635 0.016953078)
(0.30374172 -0.025916149 0.018055879)
(0.32219224 -0.027447921 0.019178473)
(0.34090739 -0.029037476 0.020296085)
(0.35983148 -0.030640981 0.021467063)
(0.37900584 -0.032157597 0.022548886)
(0.39829182 -0.033754696 0.023742812)
(0.41769978 -0.035243481 0.024875641)
(-0.00072141149 -9.9364695e-05 -0.0001592618)
(-0.0010683894 -0.00037962344 -0.00014603496)
(-0.001645884 -0.00045434603 -0.00037418552)
(-0.001906667 -0.00082190812 -0.00033741945)
(-0.0021130517 -0.00095376228 -0.00052184547)
(-0.002070908 -0.0013846721 -0.00051672254)
(-0.0018225292 -0.0017168391 -0.00065061857)
(-0.0013449462 -0.0021471414 -0.00068724146)
(-0.00056614395 -0.0026779123 -0.00073834275)
(0.00051270057 -0.0031525196 -0.00083474906)
(0.0019375177 -0.00378264 -0.00084528812)
(0.0037267462 -0.0044091177 -0.00088458723)
(0.0059337875 -0.0050949462 -0.00092205421)
(0.0085913467 -0.0058394352 -0.00090244013)
(0.011688623 -0.0066012918 -0.00088636889)
(0.015318944 -0.0074338193 -0.00081094507)
(0.019449592 -0.0082860565 -0.00072707233)
(0.024156927 -0.0091947482 -0.00057276117)
(0.029426355 -0.010149015 -0.00038024086)
(0.035304542 -0.011142904 -0.00013521926)
(0.041783069 -0.012211288 0.00017059598)
(0.048940887 -0.013248368 0.00054798476)
(0.056673209 -0.014425141 0.00096366416)
(0.065126909 -0.015686268 0.0014527939)
(0.07419263 -0.016933502 0.0020175773)
(0.083945781 -0.018284167 0.0026186287)
(0.094369425 -0.019639762 0.0032896377)
(0.10543757 -0.021073525 0.0040293688)
(0.11716067 -0.022542514 0.0048147483)
(0.12953861 -0.024083448 0.0056631144)
(0.14254506 -0.025673233 0.0065601324)
(0.15617043 -0.027312905 0.0075079209)
(0.17039746 -0.028994784 0.0084927618)
(0.18520311 -0.030735016 0.0095253841)
(0.200565 -0.032484161 0.010580644)
(0.216449 -0.034290776 0.011676496)
(0.23284719 -0.036108844 0.012798143)
(0.24968507 -0.037928378 0.013929806)
(0.26699796 -0.0398043 0.015105671)
(0.28466427 -0.041642826 0.016272533)
(0.30270317 -0.043458682 0.017465634)
(0.32108832 -0.045250049 0.018648295)
(0.33970736 -0.047082601 0.019880812)
(0.35861387 -0.048775826 0.021065765)
(0.37767411 -0.050470318 0.022296429)
(0.39691753 -0.052096819 0.023567081)
(0.4162766 -0.05355319 0.024836544)
(-0.00050083994 -0.00028574033 -0.00021199545)
(-0.00095932691 -0.00053203107 -0.00032550908)
(-0.0015394995 -0.00080887443 -0.0004981082)
(-0.0017439154 -0.0011547157 -0.00065206129)
(-0.0020214594 -0.0015777691 -0.0008221599)
(-0.0018497304 -0.002124389 -0.0009117589)
(-0.0016904407 -0.0027309988 -0.0011023376)
(-0.0011074492 -0.0033996982 -0.0011757012)
(-0.0003622093 -0.0042367059 -0.0013367616)
(0.00073684163 -0.0049897624 -0.0014427199)
(0.0022021859 -0.0060599819 -0.0015141063)
(0.0039566029 -0.0069409261 -0.0016836292)
(0.0062312075 -0.0081340911 -0.0016847419)
(0.0088355476 -0.0092380219 -0.0017754332)
(0.011975187 -0.010501042 -0.0017730549)
(0.015573562 -0.011785814 -0.001765371)
(0.01971298 -0.013155507 -0.0017035442)
(0.024404856 -0.014591588 -0.0015861757)
(0.029653808 -0.016086079 -0.0014368293)
(0.035514862 -0.017648259 -0.0012080624)
(0.041983581 -0.019268185 -0.00093416248)
(0.04905427 -0.020955036 -0.00058079929)
(0.056820783 -0.022693001 -0.00017077598)
(0.065202931 -0.024526666 0.00032257202)
(0.0742383 -0.026385806 0.00085403693)
(0.083942125 -0.02831381 0.0014660039)
(0.094296499 -0.030296938 0.002169452)
(0.10531157 -0.032312588 0.0029058075)
(0.11699159 -0.034386196 0.0037157546)
(0.12930704 -0.036507859 0.0045868483)
(0.14224911 -0.038665071 0.0055088813)
(0.15581247 -0.040856063 0.0064850314)
(0.16996704 -0.043083948 0.0075095168)
(0.18470371 -0.04531687 0.0085718245)
(0.19998754 -0.047581615 0.0096803222)
(0.21580703 -0.049838529 0.010816997)
(0.23211197 -0.052090368 0.011979246)
(0.24891371 -0.054345689 0.013188802)
(0.26611735 -0.056557408 0.014384188)
(0.2837381 -0.058754152 0.015626222)
(0.30171067 -0.060881532 0.016867526)
(0.32002324 -0.062986229 0.018140188)
(0.33858365 -0.065014665 0.019408613)
(0.35741947 -0.066929876 0.020664734)
(0.37638503 -0.068833954 0.021985568)
(0.39557423 -0.070550437 0.023244287)
(0.41480726 -0.072128095 0.024599909)
(0 0 0)
(0 0 0)
(0 0 0)
(0 0 0)
(0 0 0)
(0 0 0)
(0 0 0)
(0 0 0)
(0 0 0)
(0 0 0)
(0 0 0)
(0 0 0)
(0 0 0)
(0 0 0)
(0 0 0)
(0 0 0)
(0 0 0)
(0 0 0)
(0 0 0)
(0 0 0)
(0 0 0)
(0 0 0)
(0 0 0)
(0 0 0)
(0 0 0)
(0 0 0)
(0 0 0)
(0 0 0)
(0 0 0)
(0 0 0)
(0 0 0)
(0 0 0)
(0 0 0)
(0 0 0)
(0 0 0)
(0 0 0)
(0 0 0)
(0 0 0)
(0 0 0)
(0 0 0)
(0 0 0)
(0 0 0)
(0 0 0)
(0 0 0)
(0 0 0)
(0 0 0)
(0 0 0)
(0 0 0)
(0 0 0)
(-0.00033927949 8.0752437e-05 -0.00013836708)
(-0.00028811453 6.8968564e-05 -0.00015794089)
(-0.00025737962 6.4653452e-05 -8.1618909e-05)
(-0.00024067307 6.4846294e-05 -4.7021473e-05)
(-0.00022740325 5.8849432e-05 1.2054376e-05)
(-0.00023287361 3.8491635e-05 6.3245491e-05)
(-0.0002488394 8.943526e-05 8.5907862e-05)
(-0.00069458866 -0.00013398123 -0.00035228749)
(-0.00062039331 -0.00022649749 -0.00020635051)
(-0.00056588121 -0.00021983927 -0.00011250845)
(-0.00051188276 -0.00022965104 1.3729404e-05)
(-0.00053141945 -0.00027757485 0.00010730264)
(-0.00054324616 -0.00027333221 0.00023534059)
(-0.00059893598 -0.00024691603 0.00035875566)
(-0.0011628859 -0.00029908635 -0.0005723926)
(-0.0009812038 -0.00025075287 -0.00044836587)
(-0.00086764406 -0.00035270401 -0.00015021114)
(-0.00083199121 -0.00037451879 -6.7154076e-05)
(-0.00079740725 -0.00038439568 0.0002100363)
(-0.00086725951 -0.00040588138 0.0003479576)
(-0.00096767565 -0.00051598917 0.00061169355)
(-0.0012191981 -0.0010119857 -0.00067354014)
(-0.0010946224 -0.001088458 -0.0004502174)
(-0.0009487663 -0.0011063506 -0.00022232722)
(-0.00088562431 -0.001135006 3.9683175e-06)
(-0.00088791383 -0.0011394904 0.00027357586)
(-0.00098765954 -0.0012348722 0.00049530613)
(-0.001086515 -0.001194326 0.00078077979)
(-0.0014040707 -0.0014449412 -0.0008998981)
(-0.0011325866 -0.0014750553 -0.00062452079)
(-0.00094489571 -0.0014930429 -0.00026852734)
(-0.00088742572 -0.0015203595 4.906333e-05)
(-0.00087633204 -0.0016384307 0.00036278407)
(-0.00095285083 -0.0016536753 0.00066813575)
(-0.001139656 -0.0017527471 0.0010363886)
(-0.0011317785 -0.0023978083 -0.00098511839)
(-0.00089515615 -0.0024030787 -0.00070059058)
(-0.00069374455 -0.0024168872 -0.0002666788)
(-0.00063930394 -0.0025032957 -2.2947347e-05)
(-0.00060983575 -0.0024727318 0.00045190236)
(-0.00080574773 -0.0025519064 0.00076901597)
(-0.00095148824 -0.0026120202 0.0011575848)
(-0.00085131448 -0.0030663439 -0.0011883393)
(-0.00054643684 -0.0030534514 -0.0007402934)
(-0.00032884733 -0.0031719218 -0.00037377153)
(-0.00020066326 -0.0031759169 9.9184053e-05)
(-0.0002202164 -0.0033206105 0.00051643684)
(-0.00030077149 -0.0034347713 0.00093365304)
(-0.00054510408 -0.0035040417 0.0014388935)
(-0.00019917073 -0.004167416 -0.0012692543)
(0.00017589756 -0.0042623157 -0.00091215999)
(0.0004357122 -0.0042639462 -0.00032527951)
(0.00049057745 -0.0043320665 9.1456852e-05)
(0.00047834136 -0.0043466522 0.00056139065)
(0.0003388968 -0.0044175418 0.0010560341)
(3.5120646e-05 -0.004471587 0.0015250029)
(0.0007058677 -0.0052065311 -0.0014676645)
(0.0010554156 -0.0051564823 -0.00088264485)
(0.0013090292 -0.0052503101 -0.00038524807)
(0.0014465983 -0.0053842718 0.00011557702)
(0.0014424612 -0.0055244658 0.00069452788)
(0.0013135497 -0.0056355919 0.0012208289)
(0.0010396881 -0.0057839611 0.0018211607)
(0.0018529819 -0.0063748241 -0.0015474419)
(0.0023173883 -0.0065328108 -0.001032569)
(0.0026102014 -0.0065637181 -0.00047678778)
(0.0027787652 -0.0067255772 0.00016812751)
(0.0027334086 -0.0067297518 0.00071887412)
(0.0025481432 -0.006837815 0.0013136466)
(0.0022264194 -0.0068847458 0.0019009699)
(0.003436916 -0.0077419736 -0.0016744389)
(0.0038723691 -0.0077761935 -0.0010760866)
(0.004189656 -0.0078686397 -0.00036911174)
(0.0042974387 -0.0079237623 0.00019938207)
(0.0042818303 -0.0081012492 0.00085492225)
(0.0041206539 -0.0082356289 0.0014909191)
(0.0037900832 -0.0084226633 0.0021908043)
(0.0052725775 -0.0090704705 -0.0018302209)
(0.0058287394 -0.0092390233 -0.0011237933)
(0.0061652078 -0.0093604915 -0.00050256513)
(0.0063733609 -0.0096095642 0.000210879)
(0.006363877 -0.009702895 0.0009466412)
(0.0061309641 -0.0098028203 0.0015843038)
(0.0057965958 -0.0099341337 0.0023779393)
(0.0076508695 -0.010710727 -0.0018465222)
(0.0081370116 -0.010806878 -0.0011314517)
(0.0085043167 -0.010944835 -0.00041149912)
(0.0086512021 -0.011021995 0.00033700168)
(0.0086216055 -0.011145056 0.0010686743)
(0.0083932389 -0.011369519 0.0017948555)
(0.0080197413 -0.011502678 0.0026014236)
(0.010326881 -0.012269848 -0.0019668011)
(0.010909191 -0.012473337 -0.0011908466)
(0.011337849 -0.012657751 -0.0004485178)
(0.011536384 -0.012890594 0.00034870464)
(0.011523396 -0.013119112 0.0011839954)
(0.011300594 -0.013277129 0.0019186227)
(0.010907191 -0.013435739 0.0028363736)
(0.013540927 -0.014104579 -0.0019754297)
(0.014133096 -0.014282959 -0.0011326093)
(0.01454447 -0.014442394 -0.00035766814)
(0.014708825 -0.014626795 0.00052508406)
(0.014702276 -0.014779478 0.0013282623)
(0.014431405 -0.014975299 0.0021615013)
(0.014021969 -0.01518769 0.0030707733)
(0.017215445 -0.015920247 -0.001985142)
(0.017847018 -0.016152634 -0.0011214925)
(0.018297773 -0.016399358 -0.00029010936)
(0.018529401 -0.016674768 0.00057927014)
(0.018497739 -0.016915731 0.0015073129)
(0.018259687 -0.017193608 0.0023371233)
(0.017803857 -0.017355612 0.0033529727)
(0.021395165 -0.017897404 -0.0019379338)
(0.022042991 -0.018160857 -0.0010067003)
(0.022529009 -0.018417874 -0.00017259081)
(0.022698229 -0.018641633 0.00080968076)
(0.022708068 -0.018915797 0.0017108462)
(0.022409201 -0.019116167 0.0026125708)
(0.021966635 -0.019407284 0.0036411579)
(0.02613266 -0.01995057 -0.0018328985)
(0.026830983 -0.020279128 -0.00091448985)
(0.027308596 -0.020554667 8.3975417e-06)
(0.027545217 -0.020912595 0.00096721101)
(0.027512756 -0.021178888 0.0019375328)
(0.02724523 -0.021526536 0.0028761069)
(0.026744972 -0.021743409 0.0039646243)
(0.031426726 -0.02210938 -0.0017013454)
(0.032102737 -0.02243092 -0.0007064978)
(0.032643428 -0.022795084 0.00021589356)
(0.032812909 -0.023089001 0.001236032)
(0.032831412 -0.023448154 0.0022360919)
(0.032503271 -0.023720265 0.0032050905)
(0.032026503 -0.02406829 0.0043135562)
(0.037288029 -0.024336528 -0.0014717382)
(0.03803538 -0.024763124 -0.00048087681)
(0.038535475 -0.025114894 0.00047997523)
(0.038769717 -0.025543484 0.0015267022)
(0.03874223 -0.025874081 0.0025436579)
(0.038441937 -0.026284192 0.0035516558)
(0.037917211 -0.026580133 0.0047018226)
(0.043780735 -0.026676645 -0.0012102437)
(0.044481127 -0.027086775 -0.00018460897)
(0.045045275 -0.027546271 0.00080848484)
(0.045225748 -0.027927627 0.001869477)
(0.045236269 -0.028363308 0.002923268)
(0.044889698 -0.02872352 0.0039550238)
(0.044372395 -0.029116484 0.0051233424)
(0.050850632 -0.029062694 -0.00086232428)
(0.05161061 -0.029585459 0.00018141005)
(0.052138782 -0.030033582 0.0011854156)
(0.052357858 -0.030529378 0.0022717983)
(0.052333281 -0.030941107 0.0033436774)
(0.051996436 -0.03140825 0.0043953629)
(0.051451843 -0.031795366 0.0055918651)
(0.058587315 -0.031569172 -0.00044285304)
(0.05930734 -0.032076776 0.00060913535)
(0.059871722 -0.032616901 0.0016282877)
(0.060053649 -0.03309587 0.0027236504)
(0.060049299 -0.033613021 0.0038140229)
(0.059688255 -0.03407337 0.0048750017)
(0.059140946 -0.034516834 0.0060899521)