/*--------------------------------*- C++ -*----------------------------------*\
  =========                 |
  \\      /  F ield         | OpenFOAM: The Open Source CFD Toolbox
   \\    /   O peration     | Website:  https://openfoam.org
    \\  /    A nd           | Version:  6
     \\/     M anipulation  |
\*---------------------------------------------------------------------------*/
FoamFile
{
    version     2.0;
    format      ascii;
    class       pointVectorField;
    location    "1.51";
    object      u;
}
// * * * * * * * * * * * * * * * * * * * * * * * * * * * * * * * * * * * * * //

dimensions      [0 1 0 0 0 0 0];

internalField   nonuniform List<vector> 
28033
(
(0 6.7528336e-19 0)
(0 4.5734314e-18 0)
(-1.584729 -0.4232342 -0.012023057)
(-1.648164 -0.072750332 -0.012109559)
(0 4.1828503e-18 0)
(0 6.7271417e-18 0)
(-1.6488909 -0.070295458 -0.012179032)
(-1.5855003 -0.42075013 -0.011966897)
(0 1.4872054e-18 0)
(0 4.3659138e-19 0)
(0 3.5183263e-18 0)
(0 -1.6708539e-18 0)
(0 2.2322826e-18 0)
(0 -1.3030271e-18 0)
(0 -3.0884178e-20 0)
(-1.0095986e-18 -3.2934817e-19 0)
(0 6.0836497e-19 0)
(0 2.9869229e-19 0)
(0 -1.1411527e-18 0)
(0 1.104579e-18 0)
(0 1.3298964e-18 0)
(0 -1.0807231e-18 0)
(0 1.3966274e-18 0)
(-1.5886889 -0.40134252 -0.012040668)
(-1.5926526 -0.37945161 -0.012058536)
(-1.596624 -0.35755652 -0.012071782)
(-1.6005988 -0.33565427 -0.012080085)
(-1.604575 -0.31374575 -0.012086269)
(-1.6085529 -0.29182893 -0.012085018)
(-1.6125308 -0.26990819 -0.012085482)
(-1.6165052 -0.24798148 -0.012078919)
(-1.6204771 -0.22605586 -0.012075055)
(-1.6244445 -0.20413203 -0.012069119)
(-1.6284059 -0.1822134 -0.012067119)
(-1.6323645 -0.16030267 -0.012069016)
(-1.6363168 -0.13840094 -0.012074148)
(-1.6402677 -0.11650893 -0.012083364)
(-1.6442147 -0.094626152 -0.012097024)
(-0.0037517466 -0.0077933455 -0.0078829548)
(-0.0040579883 -0.011274809 -0.011438001)
(-0.0049794119 -0.015236673 -0.013613947)
(-0.006908838 -0.019207621 -0.015167234)
(-0.0091346341 -0.023404427 -0.016001349)
(-0.012300463 -0.027650885 -0.016567593)
(-0.01599795 -0.032109865 -0.016808783)
(-0.02039366 -0.036451281 -0.016900347)
(-0.025360752 -0.041046823 -0.016845853)
(-0.030951931 -0.045489189 -0.016735074)
(-0.037050324 -0.050081116 -0.016536273)
(-0.043734266 -0.054597997 -0.01629354)
(-0.050897119 -0.059211319 -0.01607563)
(-0.058643905 -0.063746103 -0.015775198)
(-0.06681334 -0.068356556 -0.015529831)
(-0.075549606 -0.07289648 -0.015190284)
(-0.08472605 -0.077547057 -0.014936835)
(-0.094408604 -0.082067244 -0.014607961)
(-0.1045549 -0.086721273 -0.014297448)
(-0.11516652 -0.091279577 -0.013958414)
(-0.1262429 -0.095935832 -0.013645755)
(-0.1377449 -0.10049922 -0.013282666)
(-0.14970549 -0.10516716 -0.012951453)
(-0.16206005 -0.10976307 -0.012601868)
(-0.17486333 -0.1144189 -0.012242622)
(-0.18803569 -0.11905937 -0.011901168)
(-0.20161127 -0.12370333 -0.01156302)
(-0.21554038 -0.12835836 -0.011237466)
(-0.22985909 -0.13301732 -0.010910296)
(-0.24449407 -0.13767439 -0.010620583)
(-0.25949132 -0.1423371 -0.010334983)
(-0.27478271 -0.14698848 -0.01007619)
(-0.29041126 -0.15166597 -0.0098401544)
(-0.30632838 -0.15630548 -0.0096247496)
(-0.32254714 -0.1609813 -0.0094249955)
(-0.33905336 -0.16562699 -0.0092504521)
(-0.3558321 -0.17029237 -0.0090963309)
(-0.37289326 -0.17493941 -0.0089569723)
(-0.39021183 -0.17958771 -0.008816787)
(-0.40779351 -0.18424583 -0.0086988282)
(-0.42562898 -0.18887911 -0.0085791712)
(-0.44370497 -0.19353672 -0.0084672148)
(-0.46203223 -0.19817348 -0.0083480776)
(-0.48058746 -0.20281927 -0.0082341689)
(-0.49936882 -0.20745103 -0.0081130892)
(-0.51836764 -0.2120875 -0.0079906292)
(-0.53756983 -0.21670956 -0.0078658403)
(-0.55697344 -0.22133184 -0.0077387653)
(-0.57655705 -0.22593847 -0.0076138152)
(-0.59632046 -0.23054002 -0.0074919742)
(-0.61624192 -0.23512505 -0.0073772749)
(-0.63631856 -0.23969887 -0.0072731465)
(-0.65653204 -0.24425565 -0.0071828991)
(-0.67687708 -0.24879592 -0.0071102441)
(-0.69733934 -0.25331844 -0.0070575362)
(-0.71791275 -0.2578212 -0.0070281381)
(-0.73858711 -0.26230484 -0.00702264)
(-0.7593569 -0.26676848 -0.0070421548)
(-0.78021568 -0.27121162 -0.0070867187)
(-0.80116035 -0.27563475 -0.0071546692)
(-0.82218559 -0.28003844 -0.0072437254)
(-0.84329261 -0.28442286 -0.0073509407)
(-0.8644747 -0.2887874 -0.0074740469)
(-0.88574136 -0.29313442 -0.0076045078)
(-0.90707374 -0.29746413 -0.0077466246)
(-0.92849144 -0.30177374 -0.0078850282)
(-0.9499834 -0.30606427 -0.0080261984)
(-0.97154452 -0.31033928 -0.0081599662)
(-0.99318202 -0.31459451 -0.0082827499)
(-1.0148797 -0.31883108 -0.0083968571)
(-1.0366451 -0.32304784 -0.0085017784)
(-1.0584636 -0.32724407 -0.0085949559)
(-1.0803344 -0.33142129 -0.0086788643)
(-1.1022463 -0.33557218 -0.008756561)
(-1.1241935 -0.33970622 -0.0088265269)
(-1.1461676 -0.34380994 -0.0088974055)
(-1.1681578 -0.3478987 -0.0089664143)
(-1.1901616 -0.35195561 -0.0090435326)
(-1.2121636 -0.35600001 -0.0091237564)
(-1.234166 -0.36001283 -0.0092210433)
(-1.2561574 -0.36401542 -0.0093234162)
(-1.278133 -0.36799367 -0.0094477997)
(-1.3000991 -0.37196115 -0.0095810575)
(-1.3220375 -0.37591276 -0.0097350631)
(-1.3439706 -0.37985578 -0.0098989555)
(-1.3658734 -0.38379383 -0.010078389)
(-1.3877784 -0.38772227 -0.010266232)
(-1.409655 -0.39165805 -0.010462324)
(-1.4315414 -0.39558443 -0.010662913)
(-1.4534098 -0.39952517 -0.010865031)
(-1.4752899 -0.40345998 -0.011066142)
(-1.4971652 -0.40740971 -0.011264156)
(-1.5190513 -0.41135738 -0.011457422)
(-1.5409401 -0.41531492 -0.011647371)
(-1.5628372 -0.41927374 -0.011831301)
(-0.0028365167 0.007143966 0.0095245343)
(-0.0056628975 0.010861082 0.01008549)
(-0.007357767 0.015253012 0.013134522)
(-0.0094598418 0.01925881 0.014005207)
(-0.012688566 0.023638594 0.014999592)
(-0.016292625 0.028186818 0.015437964)
(-0.020660825 0.032413008 0.015760039)
(-0.025661654 0.036901207 0.015806376)
(-0.031381913 0.041158325 0.01580908)
(-0.037636234 0.045405216 0.015683546)
(-0.044608301 0.049541038 0.015518286)
(-0.052088738 0.05355937 0.015304927)
(-0.060219728 0.057469653 0.015059883)
(-0.06887208 0.061243762 0.014814598)
(-0.078117545 0.064876889 0.014532921)
(-0.087869304 0.068370704 0.014271998)
(-0.098185538 0.071702335 0.0139778)
(-0.10898264 0.074873864 0.013701791)
(-0.12031076 0.07789592 0.013416296)
(-0.13210659 0.080718237 0.013132466)
(-0.14439015 0.083391411 0.012837058)
(-0.15713298 0.085875383 0.012558163)
(-0.17032025 0.08817174 0.012255578)
(-0.18394405 0.090293698 0.011966149)
(-0.19798925 0.092219434 0.011662564)
(-0.21243627 0.093961147 0.011352936)
(-0.22727806 0.095519023 0.011046547)
(-0.24248644 0.09688033 0.010720339)
(-0.25807227 0.098069837 0.010394038)
(-0.27398527 0.099056965 0.010050493)
(-0.29025146 0.099887363 0.0097005225)
(-0.30682448 0.10052141 0.0093437647)
(-0.3237234 0.10099852 0.0089723819)
(-0.34090441 0.10129211 0.0085964014)
(-0.35838892 0.10143475 0.0082063461)
(-0.37613475 0.1014015 0.0078164568)
(-0.39415444 0.10121718 0.0074020556)
(-0.41242426 0.10088151 0.0069998358)
(-0.43094283 0.10039089 0.0065804466)
(-0.44969682 0.099753505 0.0061640019)
(-0.46867928 0.098970507 0.0057403137)
(-0.48787514 0.098043376 0.0053194038)
(-0.50728196 0.096975384 0.0048947964)
(-0.52688268 0.095767885 0.0044746771)
(-0.5466726 0.09442288 0.0040541268)
(-0.56663819 0.092942628 0.0036382026)
(-0.58677052 0.091329438 0.0032250708)
(-0.60705852 0.089585717 0.0028164696)
(-0.62749251 0.087714975 0.0024119395)
(-0.64806094 0.08572022 0.0020121806)
(-0.6687559 0.083605913 0.0016162651)
(-0.68956595 0.081376374 0.0012248254)
(-0.71048371 0.079036316 0.00083636961)
(-0.73150052 0.076591527 0.0004511783)
(-0.75260896 0.074047105 6.7770777e-05)
(-0.77380257 0.071408872 -0.00031395958)
(-0.79507629 0.068682899 -0.00069556961)
(-0.81642409 0.065874241 -0.0010770164)
(-0.83784313 0.062988854 -0.0014597754)
(-0.85932914 0.060031276 -0.0018437427)
(-0.88087955 0.057006625 -0.0022300601)
(-0.90249123 0.053918194 -0.0026179084)
(-0.92416275 0.050770546 -0.0030085879)
(-0.94589015 0.047565181 -0.0034004601)
(-0.96767234 0.044306222 -0.0037942288)
(-0.98950529 0.040993685 -0.0041884523)
(-1.0113859 0.037630403 -0.004581574)
(-1.0333116 0.034217538 -0.0049753127)
(-1.0552739 0.030754625 -0.0053634146)
(-1.0772692 0.027243997 -0.005749371)
(-1.0992965 0.023688629 -0.006127919)
(-1.1213446 0.020085409 -0.0065013064)
(-1.1434111 0.016441756 -0.0068639699)
(-1.1654837 0.012753701 -0.0072163157)
(-1.1875636 0.0090289781 -0.0075577168)
(-1.2096386 0.0052672198 -0.0078848893)
(-1.2317061 0.0014737634 -0.0081986267)
(-1.2537603 -0.0023492104 -0.0084972869)
(-1.2757982 -0.0061960297 -0.0087814103)
(-1.2978141 -0.010064398 -0.0090489064)
(-1.3198103 -0.013948157 -0.0093030951)
(-1.3417806 -0.017845947 -0.0095404716)
(-1.363731 -0.021751474 -0.009766966)
(-1.3856567 -0.025664357 -0.0099779237)
(-1.4075665 -0.029579057 -0.010181061)
(-1.4294564 -0.03349682 -0.010371667)
(-1.4513367 -0.03741291 -0.010557489)
(-1.4732051 -0.041330195 -0.010735017)
(-1.4950703 -0.045245437 -0.010910145)
(-1.5169323 -0.049162278 -0.011081636)
(-1.5387964 -0.053079418 -0.01125235)
(-1.5606635 -0.057000537 -0.011422955)
(-1.5825355 -0.060926028 -0.011593655)
(-1.604412 -0.064858964 -0.011766231)
(-1.6262888 -0.068800189 -0.011937731)
(0 -1.8653918e-18 0)
(0 -1.387068e-18 0)
(0 1.3106204e-18 0)
(0 -8.2919772e-19 0)
(0 -7.0778676e-19 0)
(0 3.8988018e-18 0)
(0 -1.1347048e-18 0)
(-2.5909232e-18 7.2422864e-19 0)
(0 -6.4963166e-19 0)
(0 1.5617377e-18 0)
(0 1.8530734e-18 0)
(0 6.4724054e-19 0)
(0 3.4504511e-19 0)
(0 -7.1164586e-19 0)
(0 4.9264351e-19 0)
(-0.0048660293 0.0032083851 -0.0069305302)
(-0.0063122387 0.012443607 -0.010449045)
(-0.0070992417 0.013672949 -0.011963735)
(-0.010043835 0.020138927 -0.013952847)
(-0.012599921 0.023296587 -0.014597655)
(-0.016540088 0.028405795 -0.015107486)
(-0.020717495 0.032366091 -0.015379938)
(-0.025864777 0.037109024 -0.015505718)
(-0.031473163 0.041165821 -0.015491369)
(-0.037797289 0.045662555 -0.015444239)
(-0.0447322 0.049628934 -0.015336874)
(-0.052187872 0.053778046 -0.015177256)
(-0.060325559 0.057655309 -0.015026652)
(-0.068935567 0.061460527 -0.01481479)
(-0.0781935 0.065107166 -0.014636087)
(-0.087925186 0.068592469 -0.014391204)
(-0.098224402 0.071950267 -0.014202428)
(-0.10903574 0.07512508 -0.013928659)
(-0.12036089 0.078118323 -0.013697874)
(-0.13219567 0.081008507 -0.01342082)
(-0.14448518 0.083607484 -0.013160693)
(-0.15727952 0.086180993 -0.012868785)
(-0.17049577 0.088439943 -0.012570354)
(-0.18418772 0.090650169 -0.012294711)
(-0.19826665 0.092535409 -0.01196977)
(-0.21279967 0.09439047 -0.011690126)
(-0.22767876 0.09593127 -0.011379317)
(-0.24296698 0.097420623 -0.011103347)
(-0.25859664 0.09861985 -0.010813092)
(-0.27456941 0.099744511 -0.010562853)
(-0.2908815 0.10061381 -0.01030319)
(-0.3075048 0.10136918 -0.010082926)
(-0.32442643 0.10191557 -0.0098645841)
(-0.34164337 0.10232618 -0.0096789645)
(-0.35913609 0.10254934 -0.0095019914)
(-0.37689627 0.10261746 -0.0093485461)
(-0.394907 0.10253842 -0.0092116535)
(-0.41318249 0.1022851 -0.0090879746)
(-0.4316842 0.10187902 -0.0089761609)
(-0.45042853 0.10132072 -0.0088712027)
(-0.4693939 0.10060747 -0.0087720384)
(-0.48857861 0.099746569 -0.008676908)
(-0.50797196 0.098735769 -0.0085806042)
(-0.5275677 0.097580787 -0.0084842105)
(-0.54735487 0.096283022 -0.0083848598)
(-0.5673263 0.094846465 -0.0082828382)
(-0.58747068 0.093274655 -0.0081783085)
(-0.60777874 0.091571548 -0.0080721813)
(-0.62823902 0.089742527 -0.0079673884)
(-0.64884101 0.087791318 -0.0078647914)
(-0.66957365 0.085724882 -0.0077696377)
(-0.69042596 0.083546426 -0.0076817573)
(-0.71138832 0.081264092 -0.0076082075)
(-0.73244932 0.078880325 -0.00754794)
(-0.75360192 0.076404051 -0.0075074987)
(-0.77483569 0.073836255 -0.0074852239)
(-0.79614509 0.071185795 -0.007486189)
(-0.81752296 0.068453273 -0.0075078636)
(-0.83896411 0.065644974 -0.0075523625)
(-0.86046507 0.062762548 -0.0076174476)
(-0.88202126 0.059809463 -0.0077018162)
(-0.90363124 0.056787087 -0.0078025938)
(-0.92529228 0.053698147 -0.007917457)
(-0.9470022 0.050542693 -0.008041961)
(-0.96876038 0.047322741 -0.008173379)
(-0.99056435 0.044040057 -0.0083080166)
(-1.0124117 0.040691144 -0.0084391906)
(-1.034302 0.037286548 -0.0085744613)
(-1.0562304 0.033818276 -0.0086928252)
(-1.0781897 0.030295612 -0.0088152381)
(-1.1001828 0.026713202 -0.0089210828)
(-1.1221999 0.023081185 -0.0090231544)
(-1.1442362 0.019398437 -0.0091149562)
(-1.1662869 0.015671092 -0.0092008526)
(-1.1883453 0.011903152 -0.0092822627)
(-1.2104053 0.0080985191 -0.0093618425)
(-1.2324607 0.0042627581 -0.0094415018)
(-1.2545074 0.00040045072 -0.009525274)
(-1.2765389 -0.0034829742 -0.0096147398)
(-1.2985532 -0.0073839987 -0.0097126112)
(-1.3205461 -0.011296605 -0.0098203564)
(-1.3425181 -0.015218765 -0.0099396802)
(-1.3644661 -0.019145598 -0.010070019)
(-1.3863944 -0.023075951 -0.010212299)
(-1.4083014 -0.027006283 -0.010364415)
(-1.430193 -0.030937381 -0.010525556)
(-1.4520701 -0.034866102 -0.01069315)
(-1.4739385 -0.038795551 -0.010864995)
(-1.495801 -0.042722484 -0.011038868)
(-1.5176617 -0.046652411 -0.011211485)
(-1.5395248 -0.050580974 -0.011382433)
(-1.5613899 -0.054515908 -0.011548164)
(-1.5832627 -0.058451256 -0.011710224)
(-1.6051367 -0.062396001 -0.011866969)
(-1.6270176 -0.066341314 -0.012021717)
(-1.644941 -0.092169253 -0.012174701)
(-1.6409873 -0.11405034 -0.012170297)
(-1.6370478 -0.13593211 -0.012164358)
(-1.6330898 -0.15783143 -0.012153429)
(-1.6291484 -0.17972945 -0.012140774)
(-1.625181 -0.20164623 -0.012122914)
(-1.6212288 -0.22355781 -0.012103192)
(-1.6172545 -0.24548214 -0.012080658)
(-1.6132956 -0.26740095 -0.012059858)
(-1.6093104 -0.28932403 -0.012038657)
(-1.6053455 -0.31123696 -0.012019354)
(-1.6013676 -0.3331513 -0.012002065)
(-1.5973977 -0.35505563 -0.011990935)
(-1.5934289 -0.3769566 -0.011980159)
(-1.5894617 -0.398853 -0.011974843)
(-1.5636026 -0.41678809 -0.011817586)
(-1.5417076 -0.41282294 -0.011664374)
(-1.5198174 -0.40885705 -0.011513125)
(-1.4979305 -0.40489525 -0.01135829)
(-1.4760507 -0.40093759 -0.011204654)
(-1.4541698 -0.39698491 -0.011048311)
(-1.4322925 -0.39303719 -0.010890658)
(-1.4104102 -0.38909305 -0.010730018)
(-1.3885249 -0.38515102 -0.010565137)
(-1.3666319 -0.38120837 -0.010395268)
(-1.3447295 -0.3772627 -0.01021834)
(-1.3228175 -0.37330961 -0.01003401)
(-1.3008944 -0.36934732 -0.0098396607)
(-1.2789592 -0.36536984 -0.0096336193)
(-1.2570174 -0.36137633 -0.0094164206)
(-1.2350656 -0.35736208 -0.0091850335)
(-1.2131096 -0.35332485 -0.0089390534)
(-1.1911533 -0.34926176 -0.0086782322)
(-1.1691989 -0.34517309 -0.0084005842)
(-1.1472543 -0.34105586 -0.0081076672)
(-1.1253224 -0.3369123 -0.0077983206)
(-1.1034115 -0.33274128 -0.0074735911)
(-1.0815247 -0.32854583 -0.0071338338)
(-1.0596717 -0.32432604 -0.0067808062)
(-1.0378543 -0.3200868 -0.0064151972)
(-1.0160811 -0.31582843 -0.0060406646)
(-0.99435264 -0.31155378 -0.0056523055)
(-0.97270802 -0.30726351 -0.0052686427)
(-0.95108193 -0.30296449 -0.0048710647)
(-0.92953963 -0.29865726 -0.0044713335)
(-0.90806049 -0.29434096 -0.0040700368)
(-0.88665249 -0.2900191 -0.0036686852)
(-0.86531909 -0.2856897 -0.0032693849)
(-0.84406334 -0.2813539 -0.0028713794)
(-0.8228898 -0.27700989 -0.0024764767)
(-0.80180059 -0.27265727 -0.0020846147)
(-0.78080169 -0.26829317 -0.0016952428)
(-0.75989606 -0.26391709 -0.0013089125)
(-0.73909068 -0.25952571 -0.00092466007)
(-0.71838957 -0.2551183 -0.00054182678)
(-0.69780117 -0.2506922 -0.00015973884)
(-0.6773309 -0.2462471 0.00022229462)
(-0.65698822 -0.24178119 0.00060559675)
(-0.6367799 -0.23729508 0.00099044702)
(-0.61671622 -0.2327883 0.0013780041)
(-0.59680479 -0.22826237 0.0017686942)
(-0.57705645 -0.2237182 0.0021630266)
(-0.55747875 -0.21915828 0.0025613529)
(-0.53808323 -0.21458431 0.0029638248)
(-0.51887652 -0.20999993 0.0033701375)
(-0.49987086 -0.20540663 0.0037804393)
(-0.48107058 -0.20080923 0.0041937483)
(-0.46249149 -0.19620672 0.0046094897)
(-0.44413072 -0.19160879 0.0050301787)
(-0.4260139 -0.18700652 0.0054448067)
(-0.40812885 -0.18241669 0.0058676947)
(-0.39048945 -0.17783108 0.0062858703)
(-0.37311759 -0.17323448 0.0067027686)
(-0.35602769 -0.16866219 0.0071131697)
(-0.33916638 -0.16410271 0.007528841)
(-0.32262494 -0.15951486 0.0079372647)
(-0.30637262 -0.15496728 0.0083404409)
(-0.2904113 -0.15041137 0.0087313628)
(-0.27475128 -0.14585779 0.0091252416)
(-0.25942877 -0.1412738 0.0095185467)
(-0.24444368 -0.13674284 0.0099021148)
(-0.22978489 -0.13216071 0.010272278)
(-0.21550461 -0.12761025 0.010642613)
(-0.20156249 -0.12304449 0.011018284)
(-0.18801595 -0.11846728 0.011374973)
(-0.17485168 -0.11390524 0.011737905)
(-0.16208622 -0.10928883 0.012091324)
(-0.14976135 -0.10472737 0.012444595)
(-0.13780955 -0.10014922 0.012792937)
(-0.12631493 -0.095524206 0.013152544)
(-0.11528104 -0.090962802 0.01348321)
(-0.10464399 -0.08635489 0.013862128)
(-0.094537869 -0.081764185 0.014171945)
(-0.084817849 -0.077203489 0.014559815)
(-0.075655341 -0.072563825 0.014877873)
(-0.066933443 -0.068072641 0.015241603)
(-0.058699734 -0.06341044 0.015526709)
(-0.050943589 -0.058926193 0.015912741)
(-0.043798256 -0.054240651 0.016160168)
(-0.03706081 -0.049894481 0.016500917)
(-0.030944791 -0.045215168 0.016678607)
(-0.025359107 -0.040827538 0.016876122)
(-0.020410986 -0.036269597 0.016889978)
(-0.015957625 -0.031956561 0.016868678)
(-0.012266437 -0.027551306 0.016577729)
(-0.0091796343 -0.023204069 0.015956106)
(-0.0070351773 -0.018886474 0.015008031)
(-0.0053343736 -0.015357523 0.013607719)
(-0.0046096834 -0.010838672 0.010411814)
(-0.0062532115 -0.0074730708 0.0057322813)
(0 2.0986031e-18 0)
(0 7.9756473e-19 0)
(0 2.0700912e-18 0)
(0 2.0838857e-18 0)
(0 2.1719135e-18 0)
(0 1.3061524e-18 0)
(0 5.2068875e-20 0)
(0 -1.1835344e-18 -1.2986034e-18)
(0 1.401461e-19 0)
(0 1.2599614e-18 0)
(0 3.0381729e-18 0)
(0 2.6620732e-18 0)
(0 1.9055551e-18 0)
(0 1.8415708e-18 0)
(0 2.1029245e-18 0)
(0 8.6370871e-18 0)
(0 3.6775569e-18 0)
(0 1.3495588e-18 0)
(0 2.4358851e-18 0)
(0 -2.1207558e-19 0)
(0 5.677699e-19 0)
(0 6.469707e-18 0)
(0 -2.6327686e-18 -1.1416505e-18)
(0 3.8482467e-18 0)
(0 4.8107134e-18 0)
(0 1.5897787e-18 0)
(0 6.5072895e-19 0)
(0 1.5103982e-18 0)
(0 2.7231461e-18 0)
(0 3.5026921e-19 0)
(-1.6482137 -0.072588314 -0.012110663)
(-1.6482625 -0.0724273 -0.012113792)
(-1.64831 -0.072268112 -0.012116722)
(-1.6483541 -0.072112582 -0.012121241)
(-1.6483968 -0.071957415 -0.012123359)
(-1.6484375 -0.071806404 -0.012127995)
(-1.6484772 -0.071654638 -0.012131128)
(-1.6485173 -0.071505632 -0.012136657)
(-1.6485583 -0.07135567 -0.012140542)
(-1.6486005 -0.071206484 -0.012148476)
(-1.6486442 -0.071055235 -0.012153655)
(-1.6486912 -0.070904828 -0.01216175)
(-1.6487386 -0.070751847 -0.01216836)
(-1.6487889 -0.070598564 -0.012173261)
(-1.6488397 -0.070445196 -0.012178486)
(-1.5847799 -0.42305026 -0.012021744)
(-1.584831 -0.42286996 -0.012018265)
(-1.5848822 -0.42269344 -0.012011808)
(-1.5849329 -0.42252241 -0.01200458)
(-1.5849823 -0.42235688 -0.01199745)
(-1.5850319 -0.42219733 -0.011990625)
(-1.5850811 -0.42204369 -0.011985389)
(-1.5851302 -0.42189419 -0.011980486)
(-1.5851792 -0.42174886 -0.011977324)
(-1.5852276 -0.4216056 -0.011974422)
(-1.5852755 -0.42146414 -0.011972658)
(-1.5853223 -0.42132212 -0.011970718)
(-1.5853681 -0.42118075 -0.011968963)
(-1.5854123 -0.42103694 -0.011968445)
(-1.5854557 -0.42089267 -0.011966948)
(-0.0018913814 -0.0089741415 -0.0078684069)
(-0.0029228228 -0.014264946 -0.0094751921)
(-0.0038713456 -0.020476993 -0.011740059)
(-0.0060040706 -0.026215176 -0.012756876)
(-0.0080771697 -0.031991567 -0.013770351)
(-0.01134332 -0.037803635 -0.014233608)
(-0.014862484 -0.043604405 -0.01457429)
(-0.019326117 -0.04953012 -0.014683525)
(-0.024065535 -0.055302432 -0.01473772)
(-0.029603782 -0.061205728 -0.014663312)
(-0.035520262 -0.066898413 -0.01453713)
(-0.042096373 -0.072707696 -0.01438675)
(-0.049061629 -0.078250801 -0.014185142)
(-0.056622906 -0.083875894 -0.013980966)
(-0.064588404 -0.089243802 -0.013749338)
(-0.073138072 -0.094634133 -0.013521277)
(-0.082099993 -0.099809402 -0.013257151)
(-0.09154949 -0.10491203 -0.013018807)
(-0.1014985 -0.1098718 -0.012743137)
(-0.11190504 -0.11470499 -0.012469048)
(-0.12276817 -0.11940984 -0.012187578)
(-0.13409662 -0.12395509 -0.011900912)
(-0.14589117 -0.12841892 -0.011591296)
(-0.15809704 -0.13268783 -0.011302025)
(-0.17077775 -0.13686351 -0.010988228)
(-0.1838538 -0.14087979 -0.010685815)
(-0.19736496 -0.14478098 -0.010382816)
(-0.21126324 -0.1485293 -0.010091138)
(-0.22557818 -0.15215362 -0.0098069939)
(-0.24025821 -0.15564783 -0.0095336968)
(-0.25531778 -0.1590054 -0.0092795242)
(-0.27074067 -0.16224417 -0.0090409425)
(-0.2865153 -0.16535425 -0.0088282408)
(-0.30262718 -0.16833589 -0.0086310721)
(-0.31907904 -0.17121863 -0.0084531368)
(-0.33585174 -0.17396796 -0.0083002013)
(-0.35294368 -0.17663389 -0.00815924)
(-0.37033979 -0.179183 -0.0080345388)
(-0.38804999 -0.1816617 -0.0079229358)
(-0.40604547 -0.18404352 -0.0078239066)
(-0.42433818 -0.18635948 -0.0077322481)
(-0.44290478 -0.18859578 -0.0076370835)
(-0.46174355 -0.19079679 -0.007550495)
(-0.48085084 -0.19293491 -0.0074590985)
(-0.50019943 -0.19504605 -0.0073656621)
(-0.51979209 -0.19712705 -0.0072725473)
(-0.53960903 -0.19918961 -0.0071741685)
(-0.55963833 -0.20124593 -0.0070787068)
(-0.57986427 -0.20330049 -0.0069825691)
(-0.60027337 -0.20536596 -0.0068926177)
(-0.62084718 -0.20744811 -0.0068089372)
(-0.64157319 -0.20955606 -0.0067379765)
(-0.66243342 -0.21169789 -0.0066799798)
(-0.68341586 -0.21388069 -0.0066410004)
(-0.70450485 -0.21611278 -0.0066214497)
(-0.72569021 -0.21840059 -0.0066251008)
(-0.74695929 -0.22075317 -0.0066512813)
(-0.76830461 -0.22317615 -0.0067019072)
(-0.78971703 -0.2256779 -0.006775212)
(-0.81119126 -0.2282658 -0.006869594)
(-0.83272154 -0.23094637 -0.0069824142)
(-0.85430452 -0.23372757 -0.0071114574)
(-0.87593643 -0.23661486 -0.0072513045)
(-0.89761584 -0.23961623 -0.0074003046)
(-0.91933264 -0.24273781 -0.0075504121)
(-0.9411032 -0.24598091 -0.0077039312)
(-0.96290033 -0.24936414 -0.0078501109)
(-0.98472983 -0.2528722 -0.0079938816)
(-1.0065887 -0.25651986 -0.0081291733)
(-1.0284663 -0.26030658 -0.0082563815)
(-1.0503601 -0.26423744 -0.0083732314)
(-1.0722608 -0.26831018 -0.0084822584)
(-1.0941618 -0.27252722 -0.0085826609)
(-1.1160533 -0.27688537 -0.008677802)
(-1.1379283 -0.28138729 -0.0087686288)
(-1.1597789 -0.28602445 -0.0088605438)
(-1.1815964 -0.29080275 -0.0089520272)
(-1.203378 -0.29570919 -0.0090502675)
(-1.2251127 -0.30075168 -0.0091531513)
(-1.246804 -0.30591303 -0.0092679907)
(-1.268441 -0.31120392 -0.0093890743)
(-1.2900281 -0.31660617 -0.0095261679)
(-1.3115651 -0.32212485 -0.0096712023)
(-1.3330496 -0.32774844 -0.0098301221)
(-1.3544926 -0.33347753 -0.0099959597)
(-1.3758886 -0.33930019 -0.010172708)
(-1.3972522 -0.34521763 -0.010355102)
(-1.4185782 -0.35121545 -0.010542982)
(-1.4398844 -0.35729541 -0.010733926)
(-1.4611644 -0.36344306 -0.010925048)
(-1.4824354 -0.36965499 -0.011116128)
(-1.5036923 -0.37592178 -0.011304325)
(-1.5249467 -0.38223402 -0.011490413)
(-1.5461966 -0.38858114 -0.011674153)
(-1.5674452 -0.39495614 -0.011856033)
(-0.00021592176 -0.010286863 -0.006544059)
(-0.0011122454 -0.01579674 -0.0085575002)
(-0.0031084201 -0.024447515 -0.0098422699)
(-0.0047920503 -0.031090608 -0.011182844)
(-0.0073833554 -0.038731591 -0.011735054)
(-0.010387323 -0.045762172 -0.012244419)
(-0.014129887 -0.053130049 -0.012454044)
(-0.018267499 -0.060158638 -0.012644314)
(-0.023133863 -0.067269353 -0.012685574)
(-0.028450381 -0.074147954 -0.012634055)
(-0.03432991 -0.080995865 -0.012601087)
(-0.040700583 -0.087615092 -0.012426853)
(-0.047583748 -0.094155279 -0.012337736)
(-0.054941745 -0.10041054 -0.012123569)
(-0.062796967 -0.10656953 -0.012000457)
(-0.071148062 -0.11242837 -0.011736426)
(-0.079922232 -0.11814087 -0.011602948)
(-0.089242369 -0.12354822 -0.011342154)
(-0.09898714 -0.12878964 -0.011152536)
(-0.10922695 -0.13370191 -0.010900534)
(-0.1199337 -0.13844382 -0.010683314)
(-0.13111548 -0.14286768 -0.010412006)
(-0.14275436 -0.14708323 -0.01017955)
(-0.15485892 -0.15099897 -0.0099094982)
(-0.16742353 -0.15469005 -0.0096543504)
(-0.1804334 -0.15810629 -0.0093813924)
(-0.19389137 -0.16127767 -0.0091282638)
(-0.20777413 -0.16418327 -0.008865834)
(-0.22209087 -0.1668565 -0.0086169591)
(-0.23681498 -0.16927031 -0.0083756157)
(-0.25195355 -0.17145298 -0.0081560112)
(-0.26747882 -0.17339198 -0.0079429893)
(-0.28339301 -0.17511074 -0.0077541604)
(-0.29968201 -0.17660396 -0.0075802121)
(-0.31634142 -0.17789003 -0.0074292004)
(-0.33335624 -0.17897319 -0.0072951737)
(-0.35073164 -0.17987012 -0.0071808666)
(-0.36844505 -0.18058569 -0.0070841101)
(-0.38648746 -0.18113364 -0.0069987136)
(-0.404857 -0.18154332 -0.0069250089)
(-0.42354655 -0.18180675 -0.0068544189)
(-0.44253719 -0.1819692 -0.0067981685)
(-0.46184146 -0.18202251 -0.0067277991)
(-0.48141327 -0.18199913 -0.0066758661)
(-0.50126692 -0.18191611 -0.0066097685)
(-0.52137729 -0.18178719 -0.006549664)
(-0.54172814 -0.18163246 -0.0064846092)
(-0.56230445 -0.18147189 -0.0064226784)
(-0.58308753 -0.18131973 -0.0063599269)
(-0.60405812 -0.18119672 -0.006305111)
(-0.62519705 -0.18111705 -0.0062558901)
(-0.64648689 -0.18109854 -0.0062199016)
(-0.66790675 -0.18115705 -0.0061969587)
(-0.68944193 -0.18130686 -0.0061930518)
(-0.71107369 -0.18156459 -0.0062080139)
(-0.73278947 -0.18194377 -0.0062454028)
(-0.75457443 -0.18245979 -0.0063045994)
(-0.77641911 -0.18312551 -0.0063871197)
(-0.79831175 -0.18395673 -0.0064898471)
(-0.82024668 -0.18496531 -0.0066123383)
(-0.84221444 -0.18616548 -0.0067515559)
(-0.86421183 -0.18757049 -0.0069034647)
(-0.8862318 -0.18919009 -0.007065764)
(-0.90826825 -0.19104128 -0.0072320427)
(-0.93032129 -0.19312905 -0.0074015397)
(-0.95238137 -0.19546803 -0.0075715362)
(-0.97443627 -0.19806321 -0.0077337183)
(-0.99649805 -0.20092057 -0.0078936841)
(-1.0185456 -0.20405265 -0.0080395987)
(-1.0405752 -0.20745883 -0.0081796373)
(-1.0625776 -0.21114899 -0.0083073027)
(-1.0845441 -0.21511645 -0.0084302304)
(-1.1064653 -0.2193695 -0.0085440148)
(-1.1283342 -0.22389987 -0.0086553501)
(-1.1501427 -0.22871284 -0.0087620312)
(-1.1718852 -0.23379556 -0.008870125)
(-1.1935529 -0.23915554 -0.0089763422)
(-1.2151447 -0.24477233 -0.0090908828)
(-1.2366528 -0.25065521 -0.0092060771)
(-1.2580804 -0.25677841 -0.0093336592)
(-1.2794217 -0.26315325 -0.0094632966)
(-1.300682 -0.26974921 -0.0096076116)
(-1.321864 -0.27657445 -0.0097562404)
(-1.3429666 -0.2836054 -0.009913973)
(-1.3640036 -0.29083828 -0.010080951)
(-1.3849703 -0.29825536 -0.010254567)
(-1.405886 -0.30584458 -0.010432731)
(-1.4267418 -0.31359661 -0.010613872)
(-1.4475648 -0.3214896 -0.010797468)
(-1.4683424 -0.32951614 -0.010980702)
(-1.4891006 -0.33765348 -0.011164042)
(-1.5098302 -0.34589165 -0.011344585)
(-1.5305499 -0.35420736 -0.011524648)
(-1.5512564 -0.36258566 -0.011702386)
(-1.5719573 -0.37100932 -0.011877633)
(0.00061769571 -0.010182921 -0.0057755037)
(-0.00048949316 -0.017391748 -0.0069962334)
(-0.0016159253 -0.026090202 -0.008465266)
(-0.0038471334 -0.034100596 -0.009326679)
(-0.0063121949 -0.042281586 -0.0097981377)
(-0.0096336194 -0.050391279 -0.010148156)
(-0.013144459 -0.058299443 -0.010411641)
(-0.017557692 -0.066202261 -0.010532969)
(-0.022237647 -0.073771647 -0.010562674)
(-0.027594161 -0.081423034 -0.010587209)
(-0.033358472 -0.088634642 -0.010510296)
(-0.039722982 -0.095883277 -0.010457724)
(-0.046472825 -0.10267485 -0.010325999)
(-0.053792871 -0.10942907 -0.010235224)
(-0.061543072 -0.11576945 -0.010047935)
(-0.069777098 -0.12191252 -0.0099585682)
(-0.078508062 -0.12772923 -0.0097528579)
(-0.087697519 -0.13324773 -0.0096088505)
(-0.097361016 -0.13846154 -0.0094169586)
(-0.10751356 -0.14332567 -0.0092473294)
(-0.11814188 -0.14790438 -0.0090353832)
(-0.12923997 -0.15209064 -0.0088517941)
(-0.14082541 -0.15600088 -0.0086320857)
(-0.15287323 -0.15951791 -0.0084231357)
(-0.16540267 -0.1627487 -0.0081986245)
(-0.17838609 -0.16559685 -0.0079826056)
(-0.19184036 -0.16814838 -0.0077613264)
(-0.20573718 -0.17034625 -0.0075407705)
(-0.22008867 -0.17223654 -0.0073345091)
(-0.23486981 -0.17379107 -0.0071319838)
(-0.25008297 -0.17504932 -0.0069426783)
(-0.26570937 -0.17599396 -0.0067668839)
(-0.2817532 -0.17665259 -0.0066119395)
(-0.29818906 -0.17701958 -0.006471316)
(-0.31502315 -0.17712252 -0.0063517993)
(-0.33223104 -0.1769643 -0.0062498825)
(-0.34980999 -0.17656043 -0.0061695888)
(-0.36774387 -0.17592862 -0.0061021311)
(-0.38605963 -0.17510222 -0.0060490458)
(-0.40471518 -0.17407058 -0.0059987881)
(-0.42370309 -0.17288994 -0.0059697072)
(-0.44302244 -0.17155194 -0.0059283037)
(-0.46265119 -0.17009461 -0.0059123091)
(-0.48258316 -0.16853914 -0.0058819263)
(-0.50280516 -0.16690739 -0.00585375)
(-0.52329011 -0.16522434 -0.005827498)
(-0.54403035 -0.16351495 -0.0057970458)
(-0.56500103 -0.16180311 -0.0057685986)
(-0.58618456 -0.16011111 -0.0057417641)
(-0.60755754 -0.15846317 -0.0057208322)
(-0.6291016 -0.15688115 -0.0057055607)
(-0.65079272 -0.15538667 -0.0057036425)
(-0.67261254 -0.15400132 -0.0057131841)
(-0.69454071 -0.1527446 -0.0057415033)
(-0.7165593 -0.1516381 -0.0057867988)
(-0.73865235 -0.15069936 -0.0058537383)
(-0.76080496 -0.14994891 -0.0059408296)
(-0.78300461 -0.1494046 -0.0060490544)
(-0.80524017 -0.14908513 -0.0061757982)
(-0.8275025 -0.14900755 -0.006321378)
(-0.84978303 -0.14919028 -0.0064800241)
(-0.87207521 -0.14964856 -0.0066516334)
(-0.89437054 -0.15039922 -0.0068299445)
(-0.91666516 -0.15145906 -0.00701294)
(-0.93895244 -0.15283605 -0.0071982127)
(-0.96121737 -0.15454914 -0.0073805813)
(-0.98347063 -0.15661522 -0.0075580512)
(-1.005683 -0.15901459 -0.0077293266)
(-1.0278667 -0.16178637 -0.0078955204)
(-1.0499941 -0.16493108 -0.0080497179)
(-1.0720698 -0.16844528 -0.0081974758)
(-1.094073 -0.17233516 -0.0083390815)
(-1.1160073 -0.17660323 -0.0084720673)
(-1.1378588 -0.18124388 -0.0086016921)
(-1.1596239 -0.18625824 -0.0087250297)
(-1.181291 -0.19163801 -0.0088500614)
(-1.2028588 -0.19738029 -0.0089736195)
(-1.2243226 -0.20347162 -0.009102374)
(-1.2456793 -0.20991067 -0.0092321902)