/*--------------------------------*- C++ -*----------------------------------*\
  =========                 |
  \\      /  F ield         | OpenFOAM: The Open Source CFD Toolbox
   \\    /   O peration     | Website:  https://openfoam.org
    \\  /    A nd           | Version:  6
     \\/     M anipulation  |
\*---------------------------------------------------------------------------*/
FoamFile
{
    version     2.0;
    format      ascii;
    class       pointVectorField;
    location    "1.02";
    object      lm;
}
// * * * * * * * * * * * * * * * * * * * * * * * * * * * * * * * * * * * * * //

dimensions      [1 -2 -1 0 0 0 0];

internalField   nonuniform List<vector> 
28033
(
(-1.780536e-14 4.8656612e-16 1.3104288e-15)
(-5.4375576e-15 3.3318594e-15 9.9433006e-16)
(-7702.6515 -2559.5271 -40.926189)
(-8143.111 -321.82919 -102.85624)
(-1.338461e-14 3.0090723e-15 -2.870051e-16)
(-1.2587315e-14 4.9008913e-15 -4.4266115e-15)
(-8146.7809 -251.82088 -55.108082)
(-7691.7107 -2487.0698 -84.67307)
(-5.6329745e-15 1.0535579e-15 6.7193838e-16)
(-2.4534443e-15 3.0423504e-16 5.8836893e-16)
(-5.4923298e-15 2.4302826e-15 8.9528572e-16)
(-2.6209443e-15 -1.1537891e-15 -6.7979696e-16)
(-7.2548563e-15 1.5542294e-15 1.0013199e-15)
(-4.7613589e-15 -9.2108094e-16 -7.3952737e-16)
(-1.132389e-15 -2.2256662e-17 -6.4484848e-16)
(-7.4239857e-16 -2.4218299e-16 -3.6669977e-16)
(-1.1196198e-15 4.5550132e-16 8.383863e-16)
(-2.3465882e-16 2.2667819e-16 1.4996246e-15)
(-4.0583243e-15 -8.7236639e-16 -1.3429605e-15)
(-5.8237189e-15 8.4462789e-16 7.5519031e-16)
(-5.1611762e-15 1.0100276e-15 9.7613867e-16)
(-1.7679952e-15 -8.1010255e-16 4.5192313e-16)
(-4.4158752e-15 1.0299569e-15 -9.452958e-16)
(-7732.7874 -2411.3999 -41.975562)
(-7758.9254 -2264.0346 -42.303056)
(-7783.3186 -2119.4431 -45.409073)
(-7805.4449 -1978.098 -49.575339)
(-7826.7464 -1840.9482 -55.697728)
(-7848.2786 -1706.9307 -63.599224)
(-7869.7529 -1576.0424 -71.840438)
(-7893.8384 -1446.2695 -81.071668)
(-7919.303 -1316.8654 -89.388395)
(-7947.1524 -1185.3464 -97.030661)
(-7977.9737 -1051.2283 -102.65421)
(-8009.9051 -913.11218 -105.33303)
(-8044.3354 -770.74816 -107.71261)
(-8078.8722 -623.68419 -107.04105)
(-8112.2934 -472.84577 -104.90936)
(1.5021067 11.791316 15.80356)
(-2.7152393 17.005489 27.968856)
(-7.3476153 17.74356 38.331235)
(-12.614024 18.11517 47.56704)
(-15.784841 17.61132 52.908072)
(-18.083469 16.09205 55.125756)
(-18.242173 13.976726 53.840304)
(-17.120084 11.654971 49.320554)
(-14.242762 8.487384 41.710189)
(-10.517079 5.2891884 31.271606)
(-5.9539276 1.4032905 18.601207)
(-1.1396831 -2.6957105 4.1747423)
(3.5966952 -7.3596933 -11.633397)
(7.2649501 -12.510137 -27.695925)
(9.8418419 -18.304642 -43.980083)
(10.427572 -24.952031 -59.481041)
(8.662901 -32.729896 -74.006044)
(3.9136946 -41.576119 -86.586756)
(-3.756863 -51.930731 -97.537375)
(-15.410521 -63.870949 -106.03218)
(-30.848944 -77.49885 -112.31573)
(-50.525892 -93.054559 -116.01228)
(-74.61074 -110.44642 -117.49434)
(-103.01639 -129.85458 -116.76434)
(-136.02504 -150.97493 -113.94388)
(-173.6795 -173.90831 -109.38974)
(-215.66857 -198.25158 -103.50325)
(-261.88549 -224.04348 -96.577147)
(-312.46098 -250.55275 -88.614468)
(-366.85727 -277.95772 -80.630265)
(-424.80707 -305.45214 -72.132975)
(-486.17854 -332.8518 -63.922043)
(-550.3653 -360.32826 -56.114802)
(-617.0717 -386.44063 -49.042677)
(-686.08298 -412.06118 -42.381718)
(-756.65767 -436.32024 -36.625414)
(-828.64062 -459.64101 -32.003111)
(-901.55826 -481.33942 -27.936993)
(-975.15531 -502.03751 -24.75553)
(-1049.1393 -521.72378 -22.526432)
(-1123.3612 -540.3709 -20.86906)
(-1197.6605 -558.64941 -19.881175)
(-1272.0532 -576.43294 -19.325409)
(-1346.53 -594.41963 -19.237646)
(-1421.2541 -612.70051 -19.332609)
(-1496.3547 -631.78515 -19.721232)
(-1572.0691 -651.87944 -20.211506)
(-1648.723 -673.31282 -20.788486)
(-1726.5656 -696.24253 -21.412779)
(-1805.996 -720.85129 -22.045682)
(-1887.2962 -747.16574 -22.677832)
(-1970.8217 -775.20053 -23.297148)
(-2056.817 -804.84967 -23.910235)
(-2145.5144 -835.97197 -24.534376)
(-2237.0371 -868.35215 -25.200551)
(-2331.4315 -901.74298 -25.959494)
(-2428.6423 -935.86829 -26.878132)
(-2528.5067 -970.44813 -28.037266)
(-2630.7786 -1005.2238 -29.537283)
(-2735.1275 -1039.9475 -31.479932)
(-2841.1609 -1074.4662 -33.980228)
(-2948.4837 -1108.6328 -37.114668)
(-3056.6276 -1142.4622 -40.997864)
(-3165.314 -1175.9522 -45.664265)
(-3274.0931 -1209.3057 -51.09359)
(-3382.8836 -1242.7058 -57.358266)
(-3491.3976 -1276.3304 -64.385636)
(-3599.8759 -1310.9142 -71.936802)
(-3708.4342 -1346.4331 -79.771259)
(-3817.5165 -1383.5089 -87.939881)
(-3927.6347 -1422.3608 -95.758782)
(-4039.2305 -1463.4911 -103.30063)
(-4153.1615 -1507.1055 -110.08828)
(-4270.1889 -1553.3414 -115.85312)
(-4391.0776 -1602.3141 -120.24721)
(-4516.6345 -1653.9065 -123.04073)
(-4647.4743 -1707.9944 -123.98808)
(-4784.1804 -1764.1589 -122.96257)
(-4927.0911 -1822.0357 -119.92606)
(-5076.2675 -1881.0262 -114.8972)
(-5231.6965 -1940.4316 -108.02743)
(-5392.9013 -1999.5425 -99.631768)
(-5559.224 -2057.6932 -90.063661)
(-5729.6627 -2114.1969 -79.693442)
(-5903.4654 -2168.4579 -69.084472)
(-6079.1105 -2219.4372 -58.746072)
(-6255.4282 -2267.1246 -49.301374)
(-6430.6308 -2310.9002 -41.193652)
(-6603.9613 -2350.8846 -34.935262)
(-6773.6378 -2386.8819 -30.529356)
(-6939.4595 -2419.6031 -28.921694)
(-7099.6323 -2449.1239 -28.649303)
(-7256.2748 -2476.2112 -31.530937)
(-7406.2089 -2503.4063 -34.310478)
(-7554.259 -2530.2972 -39.400354)
(-9.8490982 6.70473 6.0124053)
(-10.209496 8.9796278 14.28615)
(-10.666318 7.2823014 19.419348)
(-14.394847 8.6035564 23.058923)
(-15.232617 7.2923519 25.879528)
(-15.982339 6.7505882 27.765129)
(-16.543336 5.8113214 28.44318)
(-16.600182 5.8870556 28.112388)
(-17.02423 6.8988825 26.470747)
(-17.274703 8.9062524 24.166589)
(-18.301879 12.79689 20.784136)
(-19.375344 17.987794 17.234107)
(-21.498598 25.365077 13.563529)
(-24.211731 34.409307 10.089458)
(-28.138444 45.518175 7.2835128)
(-33.069248 58.531164 5.4195771)
(-39.520537 73.212838 4.832032)
(-47.816947 89.657247 5.5301793)
(-58.033898 107.42509 7.8262499)
(-70.815299 126.54617 11.634327)
(-86.474041 146.33161 16.499018)
(-105.38685 166.98214 22.964454)
(-128.01135 187.72668 29.826887)
(-154.87936 208.50688 37.484546)
(-185.8435 228.99632 45.396872)
(-222.01346 248.67905 52.46702)
(-262.96355 267.64585 59.495709)
(-309.07714 285.17027 64.929406)
(-360.32722 301.62648 69.708406)
(-416.55253 316.13488 72.463739)
(-477.73881 329.45786 74.043928)
(-543.12888 340.65248 73.914654)
(-612.7379 350.32657 72.376017)
(-685.97206 358.20744 69.450357)
(-762.06094 364.52934 65.561372)
(-840.52034 369.20413 61.075066)
(-920.69016 372.47725 56.199963)
(-1002.0896 374.84915 51.507668)
(-1083.9187 375.96295 47.28232)
(-1166.0229 376.47683 43.903172)
(-1247.7327 376.38094 41.701729)
(-1328.9074 375.92336 40.914327)
(-1409.3644 375.28272 41.642343)
(-1489.1443 374.60125 43.925681)
(-1568.3527 373.99775 47.670427)
(-1647.2958 373.53942 52.685211)
(-1726.3158 373.2633 58.695416)
(-1805.9055 373.14869 65.333199)
(-1886.5568 373.14856 72.201063)
(-1968.8242 373.16065 78.856454)
(-2053.2209 373.0675 84.871008)
(-2140.2357 372.71266 89.837062)
(-2230.2653 371.93611 93.402543)
(-2323.6216 370.56904 95.288576)
(-2420.4819 368.45468 95.308074)
(-2520.9042 365.45467 93.379589)
(-2624.8007 361.47174 89.529313)
(-2731.9562 356.43947 83.90209)
(-2842.031 350.36073 76.743239)
(-2954.5882 343.27757 68.402199)
(-3069.1129 335.30851 59.301481)
(-3185.0543 326.60969 49.930306)
(-3301.8581 317.40578 40.798546)
(-3419.0108 307.93191 32.43482)
(-3536.0777 298.48506 25.31056)
(-3652.7345 289.30624 19.872387)
(-3768.8718 280.66505 16.445017)
(-3884.3958 272.82656 15.224151)
(-3999.4858 265.86424 16.434648)
(-4114.7668 259.90393 19.756267)
(-4230.7132 254.92926 25.140022)
(-4347.9022 250.833 32.20052)
(-4467.341 247.42361 40.486164)
(-4589.8218 244.32029 49.383453)
(-4716.3559 241.18137 58.235433)
(-4847.7338 237.50039 66.392447)
(-4984.7164 232.74122 73.19274)
(-5127.8945 226.35691 78.022877)
(-5277.5691 217.77499 80.369301)
(-5433.8829 206.48503 79.85943)
(-5596.5695 192.03234 76.264339)
(-5765.1727 174.04409 69.538726)
(-5938.9167 152.31183 59.792943)
(-6116.7639 126.71352 47.345312)
(-6297.5059 97.353204 32.631166)
(-6479.7622 64.432207 16.264874)
(-6662.0871 28.377763 -1.0740558)
(-6843.0357 -10.292717 -18.628486)
(-7021.2491 -50.884622 -35.623071)
(-7195.5389 -92.655491 -51.349553)
(-7365.0037 -134.70623 -65.205414)
(-7529.1151 -176.28796 -76.692088)
(-7687.8024 -216.44289 -85.751306)
(-7841.8037 -254.29824 -92.489425)
(-7993.0081 -289.7715 -97.45777)
(3.2927448e-15 -1.3239155e-15 2.3845803e-16)
(2.4470133e-15 -9.6672015e-16 3.215493e-17)
(-9.0574249e-15 9.0550918e-16 6.4029168e-16)
(-1.2642219e-16 -5.721845e-16 4.4370095e-16)
(-7.6811722e-15 -4.9270561e-16 4.1193361e-16)
(-7.3893964e-15 2.7533729e-15 -1.0951501e-15)
(-3.2915852e-15 -8.1743692e-16 3.8364228e-16)
(-1.9032499e-15 5.3200654e-16 -8.2319016e-17)
(-4.7409759e-15 -4.8623412e-16 4.3918642e-16)
(-1.2869644e-14 1.1845665e-15 6.4228907e-16)
(-9.6157521e-15 1.4157374e-15 5.9836601e-16)
(-9.4077204e-15 4.9518432e-16 1.1192419e-15)
(-5.982767e-15 2.6210694e-16 3.0473736e-16)
(-1.1478475e-14 -5.3386198e-16 1.6580808e-15)
(-5.257323e-15 3.6289085e-16 2.8600704e-16)
(-7.7499536 1.5006707 2.2533507)
(-11.39629 2.0998522 5.8425149)
(-16.509647 4.2059324 11.812735)
(-22.199778 9.9558932 16.282791)
(-25.752776 8.8531779 20.584303)
(-28.085834 15.385251 21.919547)
(-28.546416 17.434829 21.402577)
(-27.780595 23.13224 18.949315)
(-25.886781 27.929028 13.711207)
(-22.908791 33.877517 7.2514054)
(-19.254151 38.401745 -1.4260189)
(-15.578457 46.425731 -10.671957)
(-12.278652 51.397174 -21.57623)
(-9.2932874 59.805618 -31.859232)
(-8.1587475 65.748722 -43.319731)
(-8.3405528 74.0194 -52.945625)
(-10.735359 83.108317 -62.494999)
(-16.263546 90.28617 -71.040716)
(-24.022246 101.13846 -77.50092)
(-36.914755 110.32139 -82.835713)
(-52.579394 122.00748 -85.769741)
(-72.884933 133.01654 -87.205446)
(-98.397809 146.14095 -87.033194)
(-128.26781 159.73459 -85.020677)
(-163.38328 173.77632 -81.454974)
(-203.65575 189.07711 -76.80266)
(-248.10738 202.20742 -71.198448)
(-298.80312 219.10029 -64.597359)
(-352.55578 231.84374 -58.37539)
(-412.15711 247.64832 -51.178622)
(-474.81121 260.50434 -44.974184)
(-541.40711 272.93923 -38.597335)
(-611.14341 283.93167 -33.174786)
(-683.53119 293.24082 -28.240923)
(-758.19203 301.10475 -24.154162)
(-834.69783 307.21704 -21.122745)
(-912.27889 311.92337 -18.493314)
(-991.24701 314.31167 -16.901975)
(-1070.5851 315.69564 -15.830602)
(-1150.4216 315.63259 -15.378679)
(-1230.4149 314.63357 -15.430691)
(-1310.4673 312.8651 -15.830423)
(-1390.6159 310.69819 -16.502099)
(-1470.8789 308.40822 -17.335347)
(-1551.4453 306.29651 -18.23844)
(-1632.5226 304.60031 -19.128337)
(-1714.4078 303.52413 -19.949556)
(-1797.4104 303.19192 -20.654226)
(-1881.8783 303.67032 -21.230041)
(-1968.1394 304.93483 -21.669493)
(-2056.5075 306.90046 -22.00314)
(-2147.2439 309.39841 -22.260466)
(-2240.5523 312.2154 -22.506594)
(-2336.5558 315.07722 -22.798925)
(-2435.2963 317.70129 -23.221699)
(-2536.7231 319.7754 -23.847663)
(-2640.6961 321.02349 -24.766388)
(-2746.9989 321.18272 -26.054253)
(-2855.335 320.05773 -27.793407)
(-2965.3697 317.51232 -30.056179)
(-3076.722 313.49439 -32.904563)
(-3189.0278 308.03259 -36.392515)
(-3301.9304 301.24961 -40.549134)
(-3415.1419 293.33191 -45.389912)
(-3528.473 284.55456 -50.88065)
(-3641.8142 275.21728 -56.982187)
(-3755.2062 265.63226 -63.519666)
(-3868.9934 256.10647 -70.507543)
(-3983.1872 247.80555 -77.433592)
(-4098.7331 238.79671 -84.683281)
(-4215.8018 231.69144 -91.265112)
(-4335.5618 225.23255 -97.290825)
(-4458.4596 219.89462 -102.28198)
(-4585.5036 215.42921 -106.02648)
(-4717.3488 211.6322 -108.2348)
(-4854.6653 208.16359 -108.6926)
(-4997.9732 204.59849 -107.26023)
(-5147.5612 200.44942 -103.90434)
(-5303.4963 195.16701 -98.669524)
(-5465.5953 188.21438 -91.732656)
(-5633.3895 179.05717 -83.363012)
(-5806.1713 167.22847 -73.936639)
(-5982.9813 152.34164 -63.906061)
(-6162.6757 134.12726 -53.791008)
(-6343.9577 112.45373 -44.130476)
(-6525.462 87.329808 -35.477925)
(-6705.7979 58.940334 -28.335747)
(-6883.6633 27.591754 -23.151442)
(-7057.875 -6.2194051 -20.251933)
(-7227.5046 -41.925776 -19.83831)
(-7391.8914 -78.783771 -21.938571)
(-7550.8024 -116.03494 -26.371091)
(-7704.4335 -152.78704 -32.755547)
(-7853.7705 -188.15019 -40.430487)
(-8000.1574 -221.67439 -48.217783)
(-8117.469 -398.41695 -54.797778)
(-8085.8075 -545.79165 -53.919086)
(-8051.1387 -690.36295 -54.499693)
(-8018.1735 -829.79096 -56.713131)
(-7984.2828 -966.63778 -60.542283)
(-7953.1434 -1098.8932 -65.434215)
(-7922.6752 -1229.639 -71.589583)
(-7895.0569 -1359.6222 -77.947564)
(-7869.1712 -1489.6165 -83.452467)
(-7844.3208 -1621.6965 -88.498186)
(-7821.0805 -1756.8176 -91.382995)
(-7797.0539 -1896.5429 -93.650868)
(-7774.8659 -2039.1773 -91.948016)
(-7747.7526 -2187.9842 -90.830346)
(-7721.87 -2337.0715 -86.895281)
(-7541.9051 -2456.8106 -75.556275)
(-7390.6042 -2430.4993 -68.839152)
(-7237.2085 -2404.121 -59.567339)
(-7078.7016 -2378.1171 -50.063343)
(-6914.801 -2351.0842 -37.539346)
(-6746.1774 -2322.3189 -23.569138)
(-6573.4944 -2291.3519 -8.1259996)
(-6397.7265 -2257.7123 8.3049016)
(-6220.2432 -2221.1616 24.89178)
(-6042.5249 -2181.6849 41.137863)
(-5865.9095 -2139.193 56.155857)
(-5692.0312 -2094.1051 69.506731)
(-5521.9479 -2046.4307 80.533471)
(-5356.7745 -1996.891 89.139798)
(-5197.2698 -1945.7438 94.802537)
(-5044.3392 -1893.5442 97.467053)
(-4898.2022 -1840.8614 97.089667)
(-4758.8226 -1788.1747 94.045487)
(-4625.9327 -1735.9754 88.668211)
(-4499.0305 -1684.6461 81.459485)
(-4377.3859 -1634.5725 72.993628)
(-4260.1789 -1585.9917 63.882902)
(-4146.449 -1539.1153 54.764369)
(-4035.3085 -1494.0598 46.18603)
(-3925.851 -1450.6761 38.663737)
(-3817.0634 -1409.2553 32.849773)
(-3708.6225 -1369.6042 28.925005)
(-3599.3446 -1331.5432 26.570616)
(-3490.2276 -1294.0968 26.913731)
(-3379.6843 -1258.506 29.00462)
(-3268.506 -1223.7251 33.091779)
(-3156.753 -1189.8579 38.732749)
(-3044.8482 -1156.7405 45.511843)
(-2933.2889 -1124.2738 52.990471)
(-2822.6676 -1092.4088 60.640242)
(-2713.6012 -1061.1163 67.959584)
(-2606.712 -1030.3979 74.462015)
(-2502.5544 -1000.2866 79.723237)
(-2401.6041 -970.81713 83.407934)
(-2304.2029 -942.04588 85.285884)
(-2210.5591 -914.01622 85.249344)
(-2120.7141 -886.77774 83.31807)
(-2034.5638 -860.3554 79.635133)
(-1951.8469 -834.77185 74.456931)
(-1872.1873 -810.01752 68.135881)
(-1795.0927 -786.07746 61.09218)
(-1720.0284 -762.902 53.794025)
(-1646.3828 -740.44602 46.726026)
(-1573.617 -718.60782 40.336096)
(-1501.148 -697.33041 35.07161)
(-1428.5121 -676.47813 31.268582)
(-1355.3884 -655.981 29.193305)
(-1281.4017 -635.62745 29.003839)
(-1206.6336 -615.47015 30.770844)
(-1130.7515 -595.21152 34.413725)
(-1054.4551 -574.76889 39.774566)
(-977.38686 -554.45297 46.347293)
(-900.9285 -533.13112 53.872304)
(-824.84905 -511.66909 62.12014)
(-749.71312 -489.71293 70.146081)
(-676.59634 -466.83949 77.773412)
(-606.6885 -443.12664 84.519151)
(-539.01056 -419.77759 89.499297)
(-476.04646 -394.98085 92.954731)
(-416.73549 -368.67054 93.723483)
(-363.07387 -342.92063 93.624312)
(-313.05212 -316.11996 89.581087)
(-269.42704 -289.01452 85.061679)
(-229.81174 -261.91117 77.969141)
(-195.56893 -233.96536 69.328476)
(-165.97191 -206.15597 59.993486)
(-139.6861 -178.73576 50.009496)
(-118.03567 -152.51869 40.1993)
(-99.285264 -125.99254 30.661784)
(-83.022288 -101.58595 22.48155)
(-69.457182 -78.345086 14.855277)
(-57.56204 -56.84521 9.482232)
(-47.380538 -37.006936 4.9725383)
(-38.208296 -19.975503 2.7593235)
(-30.178286 -4.9425607 1.8596334)
(-22.93351 8.2993307 2.2634637)
(-16.156473 18.185824 3.8168627)
(-10.28368 24.51765 6.5738816)
(-5.2104351 31.133037 8.8275963)
(-0.28717637 32.447242 11.867056)
(3.1098796 33.072969 13.739778)
(6.2660202 32.820842 15.247775)
(8.3870906 29.143211 15.757456)
(9.8896775 25.436175 15.098371)
(10.104602 21.782516 13.118176)
(10.386578 17.478811 10.550142)
(9.0911701 12.964264 6.7397588)
(8.6977456 7.7899751 4.1667591)
(6.8299749 6.6825236 0.18694758)
(0.7695037 5.9042669 -5.1510891)
(-6.8708141e-15 1.5083581e-15 1.9262289e-16)
(-1.2504183e-14 5.7375616e-16 8.4327435e-16)
(-8.3449101e-15 1.4891922e-15 5.3018253e-16)
(-4.9731758e-15 1.4991158e-15 6.2376313e-16)
(-3.4146159e-15 1.5624416e-15 3.1576894e-17)
(2.0582335e-15 9.3962624e-16 -5.746342e-16)
(2.2101935e-15 3.7457559e-17 -1.1841335e-16)
(2.4553765e-15 -8.5141669e-16 -9.3419562e-16)
(1.2987427e-15 1.0081898e-16 1.7950851e-15)
(-4.5074861e-15 9.063971e-16 1.0710522e-15)
(-5.2682467e-15 2.1856155e-15 1.0652666e-15)
(-7.4917339e-15 1.915055e-15 2.2418828e-16)
(-9.400838e-15 1.3708275e-15 6.2833768e-16)
(-6.2048683e-15 1.3247981e-15 5.4317906e-16)
(-6.971104e-15 1.5128103e-15 7.5678131e-16)
(-1.2693866e-14 6.2923345e-15 -2.1364834e-15)
(-5.2452578e-15 2.6791924e-15 -5.3037742e-16)
(-1.0752404e-15 9.8318743e-16 -1.0111087e-16)
(-2.7353382e-15 1.7746034e-15 7.3085398e-17)
(1.0178949e-15 -1.5450237e-16 -4.119182e-16)
(-1.4303492e-15 4.136346e-16 -3.3264033e-16)
(-1.0059749e-14 4.7133437e-15 -1.6449855e-15)
(2.9801421e-15 -1.9180379e-15 -8.3172098e-16)
(-4.79756e-15 2.8035442e-15 1.1420498e-15)
(-5.4778068e-15 3.5047253e-15 -3.934403e-16)
(-1.8117877e-15 1.1581936e-15 -9.1309836e-16)
(-3.9812639e-16 4.7407236e-16 -2.2932148e-16)
(-1.5272242e-15 1.100363e-15 -2.2557932e-16)
(-4.1024849e-15 1.9838802e-15 2.8069696e-17)
(-5.3424143e-16 2.551799e-16 -1.9455919e-16)
(-8145.572 -315.64357 -103.25604)
(-8146.5506 -308.42901 -101.05715)
(-8147.4859 -301.64911 -97.264659)
(-8147.7919 -295.5929 -92.943697)
(-8148.1273 -290.35621 -88.170256)
(-8147.9351 -285.89751 -83.546572)
(-8147.451 -282.28286 -78.929785)
(-8146.6786 -279.21106 -74.591609)
(-8145.7232 -276.61687 -70.490886)
(-8144.7095 -274.26431 -66.658566)
(-8144.0039 -272.02047 -63.261833)
(-8143.2939 -269.58976 -60.100844)
(-8143.4454 -266.88726 -57.552167)
(-8144.0763 -263.08785 -55.758319)
(-8145.8302 -258.79374 -54.96102)
(-7700.6722 -2557.0724 -40.66449)
(-7697.4086 -2554.8975 -41.438477)
(-7694.7212 -2553.5492 -43.614041)
(-7692.4142 -2552.4564 -46.29335)
(-7691.177 -2551.5712 -49.451317)
(-7690.2934 -2550.2833 -52.796725)
(-7689.9066 -2548.4404 -56.463848)
(-7689.8161 -2545.816 -60.248261)
(-7689.9861 -2542.2243 -64.189515)
(-7690.2692 -2537.5017 -68.266126)
(-7690.7154 -2531.5857 -72.333426)
(-7691.185 -2524.3365 -76.302791)
(-7691.6308 -2515.9215 -80.084713)
(-7692.2521 -2506.4926 -82.711401)
(-7692.4163 -2496.7131 -84.508147)
(-1.8555788 11.108973 18.349951)
(-3.0385773 15.681411 25.165447)
(-7.0155618 17.319309 35.844749)
(-12.031881 17.866211 43.762589)
(-14.737559 17.003182 48.15826)
(-16.941523 15.110874 50.38189)
(-16.806062 12.992461 49.31305)
(-15.820758 9.8983088 45.358042)
(-12.752805 7.0237971 38.544035)
(-9.0614133 3.5758479 29.265556)
(-4.4637711 0.37827829 17.946882)
(0.32888695 -3.4347139 4.7751612)
(4.9841757 -6.7322194 -9.2949758)
(8.7887189 -10.838162 -24.117017)
(11.383063 -14.797613 -38.810704)
(12.148659 -19.827599 -53.061981)
(10.668152 -24.922784 -66.09068)
(6.3454776 -31.380385 -77.913069)
(-1.2255847 -38.81008 -87.776396)
(-12.279718 -47.48764 -95.631029)
(-27.328647 -57.723503 -101.26541)
(-46.498253 -69.547924 -104.75598)
(-70.139627 -83.033345 -105.91758)
(-98.219755 -98.297213 -105.1963)
(-131.0361 -115.1417 -102.48103)
(-168.44615 -133.62548 -98.223684)
(-210.45808 -153.75572 -92.559426)
(-256.87915 -174.93198 -86.033038)
(-307.87461 -197.20669 -78.72112)
(-362.63717 -220.52819 -70.99288)
(-421.43776 -244.03222 -63.260942)
(-483.68172 -268.05016 -55.666511)
(-548.877 -291.93609 -48.482678)
(-616.64998 -315.463 -41.896189)
(-686.71157 -338.64785 -35.809737)
(-758.40184 -361.15244 -30.752711)
(-831.41348 -382.89446 -26.476451)
(-905.31704 -403.70315 -22.826172)
(-979.86491 -423.87031 -20.131969)
(-1054.5037 -443.22013 -18.084553)
(-1129.4137 -461.86423 -16.675243)
(-1204.1434 -480.05414 -15.707677)
(-1278.9008 -498.00396 -15.174583)
(-1353.5705 -515.88222 -14.904037)
(-1428.3098 -534.03099 -14.863389)
(-1503.3993 -552.6984 -14.965242)
(-1579.0448 -572.06082 -15.117229)
(-1655.6006 -592.40009 -15.33197)
(-1733.3945 -613.84972 -15.547862)
(-1812.8198 -636.57166 -15.780923)
(-1894.2253 -660.62773 -16.023634)
(-1977.9634 -686.06023 -16.29986)
(-2064.3154 -712.8419 -16.629396)
(-2153.5033 -740.90804 -17.053942)
(-2245.6541 -770.14898 -17.613357)
(-2340.7944 -800.42259 -18.369261)
(-2438.8413 -831.56598 -19.382279)
(-2539.6017 -863.40044 -20.726541)
(-2642.7889 -895.75313 -22.483673)
(-2748.0278 -928.45384 -24.727553)
(-2854.8911 -961.3696 -27.537427)
(-2962.9262 -994.39319 -30.96811)
(-3071.6777 -1027.4696 -35.07596)
(-3180.7701 -1060.6026 -39.872781)
(-3289.805 -1093.7961 -45.311497)
(-3398.7297 -1127.2114 -51.438549)
(-3507.2809 -1161.1034 -58.018778)
(-3615.4554 -1195.12 -65.108412)
(-3723.8788 -1230.4201 -72.423835)
(-3832.5963 -1266.5249 -79.788609)
(-3942.3121 -1304.0092 -86.778218)
(-4053.6453 -1343.1521 -93.398697)
(-4167.4271 -1384.0511 -99.266988)
(-4284.43 -1426.8607 -104.16758)
(-4405.5215 -1471.7159 -107.83948)
(-4531.4996 -1518.6069 -110.06264)
(-4663.0241 -1567.4572 -110.70686)
(-4800.6879 -1618.0872 -109.66733)
(-4944.7631 -1670.257 -106.92745)
(-5095.4212 -1723.6121 -102.531)
(-5252.453 -1777.6795 -96.711149)
(-5415.4723 -1832.119 -89.57933)
(-5583.6368 -1886.212 -81.513571)
(-5755.8193 -1939.7138 -72.999891)
(-5931.3703 -1991.7134 -64.409719)
(-6108.559 -2042.2246 -56.34114)
(-6286.2059 -2090.4528 -48.906672)
(-6462.484 -2136.1547 -42.719419)
(-6636.3935 -2179.1393 -37.996196)
(-6806.6094 -2219.1674 -34.965131)
(-6972.0804 -2256.2623 -33.744144)
(-7132.5183 -2290.8763 -33.966547)
(-7287.9911 -2322.5036 -35.836006)
(-7437.5202 -2353.3272 -37.639999)
(-7585.3928 -2381.8899 -40.481724)
(-3.3455673 10.123305 17.401199)
(-4.2726038 16.739795 24.347016)
(-8.4294937 17.596415 35.142133)
(-11.51747 19.944271 40.48431)
(-14.262384 18.141309 44.938945)
(-15.504702 16.832183 46.655089)
(-15.648096 13.617847 45.623417)
(-13.86366 10.707551 41.872352)
(-11.214383 7.1873149 35.573463)
(-7.4834372 3.8692021 27.243951)
(-3.0173289 0.47806804 16.63009)
(1.6526985 -2.5909026 4.9817193)
(6.1420793 -5.6307928 -8.1315234)
(9.8288276 -8.4173331 -21.283019)
(12.369512 -11.283343 -34.849307)
(13.009592 -14.187068 -47.384189)
(11.657243 -17.502085 -59.570944)
(7.3026821 -21.369742 -69.874777)
(0.10211846 -25.968682 -78.865061)
(-10.896938 -31.633994 -85.733532)
(-25.607382 -38.540253 -90.81235)
(-44.614249 -46.852713 -93.616102)
(-67.89388 -56.710182 -94.62233)
(-95.819338 -68.259095 -93.607817)
(-128.36899 -81.413083 -91.015055)
(-165.7211 -96.317286 -86.840284)
(-207.69274 -112.69521 -81.610299)
(-254.29619 -130.52633 -75.464409)
(-305.28266 -149.66027 -68.634168)
(-360.56132 -169.74768 -61.639069)
(-419.68557 -190.60254 -54.534611)
(-482.34782 -212.04548 -47.559972)
(-548.10903 -233.71358 -41.097814)
(-616.61201 -255.38006 -35.034356)
(-687.32321 -276.7779 -29.759658)
(-759.78213 -297.91089 -25.123333)
(-833.53369 -318.29167 -21.255202)
(-908.2385 -338.10196 -18.05821)
(-983.36173 -357.21272 -15.57112)
(-1058.6862 -375.64289 -13.625005)
(-1134.0865 -393.3672 -12.263471)
(-1209.35 -410.75025 -11.190864)
(-1284.4425 -427.68983 -10.596088)
(-1359.463 -444.56546 -10.11703)
(-1434.4861 -461.6061 -9.7514596)
(-1509.8029 -478.97851 -9.5325934)
(-1585.6398 -496.91637 -9.3480634)
(-1662.3649 -515.66941 -9.211051)
(-1740.3393 -535.38516 -9.0879423)
(-1819.9537 -556.23648 -9.020341)
(-1901.5895 -578.30522 -9.0040877)
(-1985.5975 -601.66758 -9.0904348)
(-2072.2719 -626.32631 -9.3044043)
(-2161.8316 -652.25882 -9.6974979)
(-2254.4044 -679.39451 -10.313078)
(-2350.0039 -707.63208 -11.20743)
(-2448.5391 -736.84522 -12.429812)
(-2549.8048 -766.88288 -14.044316)
(-2653.4921 -797.59694 -16.098344)
(-2759.2203 -828.82081 -18.649382)
(-2866.541 -860.42508 -21.739285)
(-2974.9929 -892.28681 -25.390986)
(-3084.12 -924.28814 -29.64402)
(-3193.4973 -956.46021 -34.436249)
(-3302.8116 -988.66152 -39.79854)
(-3411.8689 -1021.2676 -45.610279)
(-3520.2566 -1053.9918 -51.835195)
(-3628.7947 -1087.231 -58.287312)
(-3737.2838 -1120.7555 -64.708848)
(-3846.1291 -1154.969 -71.179719)
(-3956.0168 -1190.2317 -77.291361)
(-4067.5775 -1226.7488 -82.990973)
(-4181.6015 -1264.6063 -88.001554)
(-4298.9995 -1304.0514 -92.156763)
(-4420.5737 -1345.227 -95.19677)
(-4547.1406 -1388.1718 -97.055102)
(-4679.4108 -1432.9437 -97.560183)
(-4817.9077 -1479.4472 -96.690633)
(-4962.9511 -1527.5875 -94.439857)
(-5114.668 -1577.1136 -90.89609)
(-5272.7468 -1627.7785 -86.191132)
(-5436.837 -1679.2744 -80.540132)
(-5606.2019 -1730.9188 -74.312052)
(-5779.5894 -1782.446 -67.085373)
(-5956.0432 -1834.1141 -60.312635)
(-6134.0234 -1884.0187 -53.883436)
(-6312.3551 -1932.5314 -48.278496)
(-6489.3415 -1979.1388 -43.622847)
(-6663.7708 -2023.3553 -40.225312)
(-6834.5289 -2064.9875 -38.076698)
(-7000.4225 -2103.9978 -37.466856)
(-7161.1123 -2140.0669 -37.588629)
(-7317.2004 -2173.2402 -39.354447)
(-7466.3151 -2205.1199 -40.09347)
(-7614.689 -2234.1152 -42.719503)
(-3.7692547 10.326749 16.673353)
(-6.0784116 15.504147 23.481729)
(-8.5548738 16.770658 32.938717)
(-11.89722 18.177146 38.300292)
(-13.674099 17.301939 42.641734)
(-15.001576 15.529844 44.192047)
(-14.244159 13.345419 43.172143)
(-13.015277 10.349907 39.733104)
(-10.10892 7.7263865 34.234934)
(-6.4458235 4.4814347 26.190958)
(-2.1097558 2.1764962 16.861474)
(2.2889291 -0.61265222 5.7253315)
(6.6245698 -2.2744046 -5.9557982)
(10.130172 -4.3486846 -18.462989)
(12.425256 -5.6598533 -30.496202)
(13.16968 -7.3269679 -42.57008)
(11.553081 -8.8077821 -53.221039)
(7.4262218 -10.849565 -62.905456)
(0.15424942 -13.372998 -70.856231)
(-10.565069 -16.766988 -77.163079)
(-25.14382 -21.240147 -81.398824)
(-43.808466 -26.911011 -83.883461)
(-66.932391 -34.101983 -84.355183)
(-94.568736 -42.720013 -83.172923)
(-126.94789 -53.050777 -80.342235)
(-164.06552 -64.877814 -76.265891)
(-205.97753 -78.353635 -71.078227)
(-252.49648 -93.261452 -65.105961)
(-303.65805 -109.4379 -58.700681)
(-358.98868 -126.77002 -52.050819)
(-418.40886 -144.99089 -45.399437)
(-481.43387 -163.90657 -39.078854)
(-547.66056 -183.17428 -33.136086)
(-616.6585 -202.663 -27.79306)
(-687.9092 -222.17451 -23.066359)
(-760.95341 -241.35787 -19.013431)
(-835.25572 -260.19254 -15.733027)
(-910.41591 -278.45796 -13.039483)
(-986.22477 -296.29834 -10.930859)
(-1062.2156 -313.45326 -9.2855864)
(-1138.1689 -330.17753 -8.0671039)
(-1213.985 -346.40052 -7.109491)
(-1289.5621 -362.4121 -6.424718)
(-1364.9954 -378.16719 -5.8017296)
(-1440.4468 -394.07884 -5.1807028)
(-1516.0756 -410.24909 -4.6415677)
(-1592.2244 -426.87021 -4.0544378)
(-1669.2188 -444.19155 -3.4761608)
(-1747.4587 -462.34512 -2.9040197)
(-1827.3341 -481.5058 -2.3875583)
(-1909.2477 -501.76835 -1.9620068)
(-1993.5461 -523.22373 -1.6969745)
(-2080.5387 -545.8966 -1.6362136)
(-2170.439 -569.79623 -1.8510945)
(-2263.3765 -594.87833 -2.3925031)
(-2359.3584 -621.07753 -3.3171559)
(-2458.2933 -648.29416 -4.6759138)
(-2559.9597 -676.40636 -6.5102032)
(-2664.053 -705.28458 -8.8544966)
(-2770.1761 -734.78042 -11.736536)
(-2877.8798 -764.76703 -15.160088)
(-2986.7011 -795.09833 -19.135476)
(-3096.1582 -825.69566 -23.618033)
(-3205.8817 -856.4655 -28.597178)
(-3315.4897 -887.39721 -33.955041)
(-3424.8043 -918.44822 -39.710019)
(-3533.7996 -950.05503 -45.632122)
(-3642.6198 -980.9703 -51.677038)
(-3751.6462 -1013.029 -58.001689)
(-3860.7059 -1045.6662 -63.779017)
(-3970.9814 -1079.0534 -69.196181)
(-4082.8699 -1113.4334 -74.086968)
(-4197.3738 -1148.975 -78.235677)
(-4315.2204 -1185.8271 -81.493914)
(-4437.3009 -1224.2084 -83.82449)
(-4564.465 -1264.1834 -85.013504)
(-4697.337 -1305.8453 -85.114185)
(-4836.495 -1349.1594 -84.060229)
(-4982.2124 -1394.0996 -81.942788)
(-5134.573 -1440.514 -78.804286)
(-5293.368 -1488.2216 -74.885426)
(-5458.1011 -1536.9349 -70.246358)
(-5627.9419 -1586.3091 -65.391551)
(-5802.319 -1635.8288 -60.10482)
(-5979.7439 -1685.5036 -55.495038)
(-6157.9937 -1734.5855 -50.838346)
(-6336.8771 -1782.6587 -47.125055)
(-6514.2445 -1829.0862 -44.058054)
(-6689.1936 -1873.6448 -42.228856)
(-6860.3084 -1915.9432 -41.17447)
(-7026.6389 -1955.5922 -41.455388)
(-7187.9442 -1992.7176 -42.038836)
(-7344.3211 -2026.6808 -43.705703)
(-7493.651 -2059.4224 -44.399111)
(-7642.3633 -2089.2419 -45.905644)
(-4.3455752 9.1483558 16.230417)
(-6.922344 14.537638 22.726795)
(-10.249085 15.312354 32.159557)
(-12.800273 16.873153 36.918381)
(-14.509616 15.859213 40.730021)
(-14.646163 14.895947 41.83079)
(-14.40885 12.566206 40.833989)
(-12.472249 10.452148 37.831915)
(-9.6064641 7.8258771 32.180933)
(-6.0293597 5.6050647 25.275123)
(-1.9485357 3.5096632 16.168485)
(2.4315778 1.9441574 6.4024649)
(6.4567611 0.78532172 -4.7815278)
(9.6678252 -0.010881379 -15.637916)
(11.969625 -0.2415864 -27.200258)
(12.289758 -0.50199334 -37.515497)
(10.75712 -0.5138297 -47.498366)
(6.4365524 -0.87059716 -55.910799)
(-0.73871674 -1.5189021 -63.083773)
(-11.500984 -2.9421176 -68.314796)
(-25.862122 -5.1875913 -72.026995)
(-44.497581 -8.657168 -73.740383)
(-67.331525 -13.356749 -73.857889)
(-94.853674 -19.583606 -72.270069)
(-127.01538 -27.28675 -69.365296)
(-164.05233 -36.58758 -65.203046)
(-205.80878 -47.452501 -60.157215)
(-252.38601 -59.738756 -54.479449)
(-303.46387 -73.398142 -48.412571)
(-358.97911 -88.245477 -42.212063)
(-418.5047 -104.05974 -36.177289)
(-481.74516 -120.63364 -30.409384)
(-548.26871 -137.76918 -25.124595)
(-617.58432 -155.2481 -20.378271)
(-689.26851 -172.72222 -16.295873)
(-762.75416 -190.20169 -12.824108)
(-837.7183 -207.35955 -9.9794112)
(-913.65939 -224.28409 -7.6459874)
(-989.82166 -240.50051 -5.8797979)
(-1066.2942 -256.35688 -4.5838898)
(-1142.7425 -271.6641 -3.4797664)
(-1219.0175 -286.57533 -2.6366468)
(-1295.0112 -301.20957 -1.822786)
(-1370.8519 -315.68812 -1.0362867)
(-1446.6616 -330.25673 -0.22139791)
(-1522.6477 -345.05635 0.63814215)
(-1599.1266 -360.27797 1.565456)