/*--------------------------------*- C++ -*----------------------------------*\
  =========                 |
  \\      /  F ield         | OpenFOAM: The Open Source CFD Toolbox
   \\    /   O peration     | Website:  https://openfoam.org
    \\  /    A nd           | Version:  6
     \\/     M anipulation  |
\*---------------------------------------------------------------------------*/
FoamFile
{
    version     2.0;
    format      ascii;
    class       pointScalarField;
    location    "1.02";
    object      p;
}
// * * * * * * * * * * * * * * * * * * * * * * * * * * * * * * * * * * * * * //

dimensions      [1 -1 -2 0 0 0 0];

internalField   nonuniform List<scalar> 
28033
(
-557519.85
850875.02
-70.630371
-251.03331
-1089248.1
1174356.2
-334.59716
322.56716
-498188.66
-429990.9
-362420.38
-291476.89
-206773.06
-132565.22
-58531.351
22588.945
102181.2
172411.93
255443.52
298141.27
383374.88
469829.49
448161.9
990.02842
2532.056
3466.2082
3469.6419
3468.0201
2689.8183
2060.519
971.85247
79.373584
-1119.8412
-1813.4808
-2456.9577
-2552.6993
-2288.5938
-1396.5499
-137980.79
-151787.13
-136583.39
-148994.72
-146075.82
-149427.08
-148961.1
-148032.82
-146474.17
-144304.73
-141408.91
-137824.82
-134774.41
-130827.64
-127667.54
-123643.81
-120545.92
-117502.16
-114767.68
-112347.84
-110874.54
-109275.64
-108136.13
-107683.15
-107222.46
-107266.29
-107544.76
-107779.53
-108117.39
-108771.18
-109005.54
-109380.95
-109739.04
-110196.15
-109638.87
-109953.78
-109480.13
-109387.32
-108846.55
-108407.49
-107802.94
-107352.7
-106694.4
-106180.98
-105562.03
-104957.5
-104324.9
-103624.13
-102836.62
-101914.88
-100859.92
-99587.212
-98113.629
-96386.084
-94386.853
-92123.696
-89563.946
-86749.212
-83662.632
-80361.675
-76850.279
-73224.092
-69412.887
-65632.126
-61828.673
-58230.32
-54841.795
-51290.812
-47851.083
-44705.714
-41850.245
-39349.545
-37070.439
-35016.818
-33193.55
-31532.854
-30058.727
-28663.918
-27361.413
-26026.731
-24775.609
-23380.911
-21806.516
-19941.428
-18129.745
-16059.163
-13986.113
-11769.141
-9578.4815
-7277.3144
-5258.1038
-3179.3156
-1894.4891
-561.58169
-0.76088828
165270.6
140794.54
155883.1
142618.8
157949.02
156141.67
158133.75
156519.71
157357.32
154105.58
152633.22
149441.56
146087.48
143393.52
139293.6
136760.27
132903.47
130462.02
127849.57
125689.12
123817.22
122964.84
121633.17
121526.46
121476.92
121093.01
122188.98
121718.78
122921.49
122327.7
123413.99
122846.31
123163.21
122799.21
122410.4
121990.91
120726.08
120295.3
118885.36
118169.77
116902.51
116075.06
114963.66
114176.88
113269.21
112558.43
111788.83
111118.82
110356.41
109570.52
108642.89
107568.91
106270.43
104726.75
102905.51
100775.94
98332.315
95586.553
92545.233
89240.407
85723.977
82032.17
78235.959
74395.519
70573.039
66855.221
63266.239
59902.264
56838.295
53754.252
51289.91
48850.016
46846.211
44990.462
43370.122
41885.435
40496.339
39091.313
37677.991
36172.969
34528.924
32667.072
30619.413
28302.881
25783.968
23032.594
20123.216
17070.371
13989.62
10918.281
7962.0746
5294.1371
2961.5915
1077.6947
150.48037
-886527.81
-840210.06
-590836.95
-587538.75
-393272.55
-218423.72
-114745.76
47116.764
182050.66
332729.26
451140.56
593324.54
739748.88
834464.39
886426.42
244396.03
196241.51
100099.85
184964.51
152812.78
165324.21
157378.01
166422.94
154509.07
161217.13
157495.9
152633.39
151502.23
145966.46
143767.45
139100.19
135009.9
132748.72
128798.49
128527.1
124768.47
123561.26
123294.32
121931.38
123216.86
122322.75
120564.14
122970.64
120297.15
122747.64
123969.33
123150.85
124206.71
123662.9
124440.33
120893.79
123452.14
122317.37
121867.18
121020.44
120460.22
119553.16
118841.83
117960.08
117239.74
116288.16
115500.41
114479.38
113502.56
112308.86
111051.44
109550.27
107886.74
105948.51
103780.66
101345.77
98610.008
95655.668
92414.431
88974.73
85333.842
81558.865
77667.5
73754.945
69804.815
65945.667
62369.587
58470.539
54975.868
51948.979
49199.5
46475.536
44075.573
41906.56
39967.416
38161.99
36536.05
34968.89
33479.851
31958.638
30410.385
28726.561
26970.881
24988.702
22902.897
20599.418
18187.398
15613.611
12999.603
10354.577
7765.7661
5356.2732
3156.6976
1375.3155
18.603603
-1682.347
-2984.2306
-2967.9012
-3785.8898
-2445.5607
-2528.0358
-456.06827
-7.9972402
1299.7947
2602.7076
1974.0555
3936.9532
2418.436
3110.4503
998.56665
-133.72012
141.76102
-791.1008
-2465.1959
-4589.2291
-7155.5402
-9888.6586
-12790.538
-15680.41
-18520.754
-21231.628
-23717.229
-25981.495
-28096.67
-29991.228
-31665.82
-33205.082
-34603.911
-35989.106
-37329.212
-38805.629
-40364.519
-42159.871
-44130.491
-46392.77
-48973.403
-51399.041
-55580.26
-58509.729
-62255.268
-66058.071
-70073.098
-74054.499
-78035.062
-81909.657
-85634.812
-89100.112
-92336.01
-95204.179
-97777.863
-99951.491
-101829.81
-103308.76
-104560.92
-105471.3
-106259.05
-106782.44
-107311.59
-107691.38
-108145.52
-108554.79
-109131.64
-109667.57
-110320.37
-110919.02
-112016.71
-112559.09
-111944.09
-115673.76
-114807.83
-113939.09
-117669.39
-115788.28
-116326.19
-114503.94
-117256.78
-113291.83
-116181.11
-114471.94
-114522.24
-113750.41
-113601.63
-115157.93
-114582.55
-115673.41
-118171.3
-118579.82
-122929.79
-123447.47
-128418.76
-133242.51
-135663.69
-137465.23
-144801.51
-145189.99
-146041.36
-153685.79
-153343.15
-153544.24
-148801.51
-149413.46
-157680.76
-151590.2
-133434.53
-171848.83
-386467.76
-427574.24
-451830.5
-479891.14
-490391.62
-508473.19
-507715.25
-516333.34
-508784.47
-493094.65
-503975.34
-465925.94
-444388.15
-465413.49
-349657.86
720470.84
895167.01
877367.49
942550.3
908549.87
869538.13
995677.83
1051825.8
989364.28
990977.64
955294.4
926387.43
873567.11
868354.6
813608.89
-272.10491
-474.46584
-923.54681
-1528.6688
-1882.0578
-2251.2024
-2299.1069
-2215.8638
-1906.6671
-1457.7046
-809.30562
-359.46599
181.59794
386.82332
67.382989
-375.35265
-480.31117
-371.90057
159.40003
691.01157
1286.549
1731.61
2043.9897
2172.2033
2087.7758
1807.6874
1331.2062
864.88604
211.4529
227.36262
-132675.24
-135416.91
-122123.63
-125061.87
-127352.51
-128154.95
-129358.83
-129169.78
-128620.52
-126872.36
-124585.55
-122812.58
-119729.26
-116831.51
-113593.57
-111071.22
-108291.08
-105769.35
-103243.21
-101419.87
-99735.589
-98294.196
-97316.793
-96566.038
-95877.147
-95945.704
-95650.633
-95708.281
-96023.75
-96343.865
-96273.785
-96726.128
-97155.318
-97148.071
-97355.873
-97178.86
-97160.109
-96928.341
-96606.607
-96504.924
-96185.105
-95700.262
-95256.659
-94750.241
-94182.793
-93558.589
-92903.074
-92109.746
-91262.931
-90273.551
-89165.66
-87877.757
-86443.71
-84799.813
-82967.757
-80928.284
-78684.851
-76242.047
-73611.92
-70817.162
-67886.768
-64819.424
-61694.102
-58567.203
-55405.548
-52144.235
-48671.97
-45720.968
-42979.373
-40249.684
-37808.23
-35372.357
-33220.39
-31228.004
-29378.359
-27673.208
-26153.62
-24678.789
-23321.739
-21988.62
-20737.886
-19449.951
-18191.524
-17072.559
-15639.586
-14100.727
-12490.369
-10848.643
-9158.4047
-7470.2536
-5836.5745
-4162.4077
-2796.4958
-899.33767
414.30514
-122621.16
-111997.97
-98626.033
-104455.44
-104515.62
-105809.29
-106696.03
-107208.07
-106617.04
-105746.14
-104591.99
-102828.91
-100661.82
-98622.346
-96372.131
-94054.02
-91816.623
-89750.046
-87818.955
-86157.631
-84569.128
-83252.349
-82338.727
-81484.224
-80954.24
-80534.96
-80340.227
-80429.076
-80302.488
-80546.649
-80721.597
-81070.4
-81042.081
-81328.7
-81465.328
-81654.73
-81690.735
-81739.843
-81706.668
-81608.669
-81331.16
-81149.211
-80724.521
-80344.912
-79810.225
-79287.206
-78618.588
-77876.702
-77044.885
-76107.428
-75045.698
-73864.209
-72562.63
-71101.5
-69512.685
-67775.31
-65888.867
-63867.684
-61713.873
-59440.501
-57066.466
-54578.335
-52094.628
-49519.682
-47028.993
-44640.077
-42631.535
-39848.884
-37672.361
-35467.013
-33235.503
-31173.783
-29265.92
-27345.579
-25615.626
-24050.518
-22587.255
-21211.297
-19970.526
-18759.233
-17641.893
-16472.615
-15392.793
-14034.463
-13171.016
-11668.712
-10459.077
-9183.8261
-7910.4401
-6593.0996
-5264.9195
-3792.7057
-2713.0006
-506.486
710.81312
-99063.183
-95615.576
-80435.638
-86057.838
-83493.713
-85594.373
-87216.538
-87437.729
-86664.83
-86829.837
-85550.833
-84315.613
-82709.568
-81265.299
-79186.562
-77584.705
-75615.798
-74016.674
-72287.152
-70848.117
-69437.169
-68612.969
-67378.056
-66938.143
-66091.638
-65968.951
-65564.584
-65583.771
-65469.704
-65781.616
-65772.91
-66038.277
-66239.249
-66621.896
-66823.815
-67025.454
-67287.233
-67532.022
-67464.396
-67406.378
-67317.046
-67090.984
-66905.712
-66519.493
-66106.345
-65638.552
-65041.091
-64397.373
-63649.603
-62830.208
-61894.856
-60885.955
-59764.855
-58536.455
-57209.307
-55772.791
-54222.464
-52576.96
-50827.043
-48984.361
-47058.532
-45054.12
-43028.855
-40875.223
-38809.654
-36908.498
-35249.143
-32702.745
-30974.98
-29103.856
-27394.044
-25540.239
-23748.951
-22164.762
-20680.212
-19239.303
-17987.629
-16764.549
-15658.57
-14616.575
-13641.826
-12726.66
-11766.987
-11182.859
-10838.065
-9653.5655
-8830.4478
-7858.9342
-6935.362
-5879.9729
-4809.2588
-3508.0752
-2408.9927
-80.267659
1099.5286
-76049.694
-75278.556
-61328.113
-67543.416
-63000.747
-66649.757
-66905.601
-66700.165
-66967.384
-67040.789
-65970.664
-65289.273
-64147.017
-62965.364
-61496.795
-60158.187
-58742.658
-57432.216
-56128.56
-54936.965
-54027.569
-52929.506
-52201.099
-51591.83
-51018.561
-50740.127
-50417.247
-50385.802
-50270.825
-50431.86
-50402.38
-50757.739
-50880.506
-51144.807
-51378.308
-51627.569
-51688.154
-51515.355
-51437.998
-51640.412
-51619.436
-51616.83
-51435.634
-51219.492
-50931.031
-50521.471
-50062.723
-49498.255
-48854.627
-48137.473
-47342.914
-46461.692
-45531.3
-44501.156
-43431.816
-42275.644
-41070.369
-39793.645
-38474.514
-37077.273
-35662.658
-34177.496
-32659.873
-31103.515
-29602.584
-27927.519
-26574.377
-24931.113
-23018.308
-21431.141
-20069.731
-18551.655
-17504.243
-16349.353
-15035.142
-13948.388
-12906.674
-11979.781
-11130.494
-10362.392
-9670.7677
-9034.4846
-8451.3756
-7714.0812
-7060.9392
-6684.2852
-6205.9829
-5604.7485
-5023.0841
-4320.0649
-3590.3356
-2563.7314
-1698.8251
312.49064
1217.318
-62079.84
-54134.301
-43121.811
-47941.051
-45865.73
-47510.257
-47921.224
-48266.617
-48011.744
-48103.485
-47380.311
-46918.432
-46007.442
-45333.857
-44016.893
-43301.594
-42169.692
-41191.731
-40138.059
-39470.709
-38373.204
-37837.622
-37060.482
-36661.994
-36060.151
-35929.639
-35487.236
-35572.208
-35364.236
-35580.758
-35570.913
-35940.136
-35955.071
-36404.754
-36662.932
-36974.146
-37759.565
-38903.45
-39162.738
-39715.981
-39936.553
-39936.561
-39865.639
-39752.113
-39479.86
-39157.834
-38780.525
-38292.607
-37742.643
-37163.061
-36482.38
-35772.793
-35015.416
-34200.037
-33356.28
-32468.984
-31537.772
-30580.216
-29574.896
-28534.648
-27476.095
-26337.766
-25186.498
-24069.224
-22733.617
-21611.247
-20390.709
-18979.127
-17696.338
-16364.213
-15114.054
-13584.43
-12241.575
-11272.265
-10211.566
-9268.8283
-8488.4197
-7757.814
-7125.8403
-6568.4944
-6093.6042
-5689.178
-5337.8041
-5007.0512
-4820.7613
-4532.9292
-4282.0684
-3914.9234
-3617.3331
-3137.9796
-2683.8826
-1826.8975
-1297.0459
506.98927
1010.2327
-36524.133
-35534.232
-26345.933
-31178.57
-27621.638
-28150.136
-29741.601
-28990.319
-28892.354
-29451.094
-28615.037
-28470.462
-27973.682
-27366.979
-26633.718
-26205.429
-25276.305
-24541.031
-24062.826
-23140.389
-22600.633
-22032.074
-21494.933
-21072.943
-20719.813
-20422.26
-20218.171
-20183.274
-20002.269
-20190.367
-20163.745
-20430.515
-20512.363
-20983.858
-21019.152
-21541.199
-22104.592
-22910.993
-23346.126
-24218.851
-24713.759
-24954.027
-24990.418
-24966.858
-24855.775
-24674.013
-24406.528
-24079.274
-23679.719
-23233.624
-22726.287
-22190.278
-21622.339
-21028.164
-20416.232
-19801.942
-19166.246
-18530.972
-17890.724
-17236.726
-16563.389
-15901.566
-15201.398
-14437.159
-13794.867
-12886.259
-12220.98
-11326.591
-10482.221
-9681.1341
-8638.0322
-7764.6114
-7095.336
-5867.4674
-5012.1641
-4329.0662
-3731.1561
-3228.9616
-2827.3683
-2491.5004
-2250.7199
-2067.2313
-1995.4557
-1921.9634
-1929.6031
-1899.5135
-1981.9987
-1926.6725
-1961.0564
-1748.912
-1637.5985
-1043.015
-848.12769
584.31608
1076.2065
-16719.881
-13014.514
-9701.2912
-12586.034
-9282.7422
-10837.679
-11196.062
-10311.233
-10683.621
-10646.025
-10247.043
-10150.017
-9857.5686
-9607.3455
-9250.6941
-8979.177
-8435.8312
-8368.999
-7760.0339
-7491.9251
-7138.0704
-6809.4641
-6461.2957
-6240.4512
-5852.1305
-5784.4057
-5529.2631
-5512.6013
-5390.0584
-5618.5749
-5540.3241
-5902.326
-6038.5872
-6411.899
-6637.4433
-7195.404
-7326.2482
-8047.8856
-7893.3484
-8189.2991
-8394.3102
-8705.9271
-8741.3457
-8847.65
-8820.2897
-8736.345
-8616.9171
-8413.2119
-8179.9468
-7908.09
-7606.0792
-7293.841
-6985.5453
-6657.7614
-6368.1565
-6075.5052
-5808.4905
-5550.9886
-5322.5564
-5078.1411
-4867.4452
-4633.8659
-4372.817
-4145.5159
-3811.7828
-3531.1663
-3147.4135
-2752.8746
-2342.4623
-1861.4143
-1408.9475
-937.66595
-201.50466
37.135322
445.23029
827.94168
1200.0474
1461.6804
1633.7803
1752.6152
1745.7056
1681.113
1522.5106
1334.6846
1048.0516
792.04034
441.10287
201.66776
-109.7662
-228.26464
-420.63913
-185.6188
-321.05484
666.18347
430.1078
7820.5581
7390.2099
8199.7508
7628.2965
7768.8873
8341.3247
7829.7176
8252.7415
8602.9436
8085.7008
8583.2307
8476.4364
8379.5361
8329.8448
8531.583
8399.672
8421.305
8663.8018
8674.7191
8822.8207
8958.976
9130.7424
9313.5081
9663.3822
9678.4485
9905.1272
10031.679
10083.581
10102.469
10041.058
10040.854
9694.5911
9683.1143
9210.657
9014.1962
8560.4218
8246.904
7625.3638
7562.4194
7206.7108
6942.5972
6587.881
6428.1504
6195.8841
6150.843
6079.4841
6079.3058
6141.6658
6217.1439
6306.1396
6414.4952
6506.0832
6574.0121
6626.0056
6621.4256
6588.7976
6504.5306
6381.9425
6215.5601
6026.3291
5806.961
5595.534
5358.782
5180.2258
4981.1086
4880.6681
4779.0897
4755.3013
4787.8127
4846.7741
4989.9337
5175.4198
5283.9876
5321.7116
5376.9656
5543.279
5656.4497
5673.3063
5648.3866
5510.1281
5297.4889
4990.3026
4598.7272
4133.3545
3585.7484
3046.9482
2400.906
1914.3855
1285.1056
963.64335
460.88662
443.43879
55.168151
465.79558
-53.004221
26885.714
28082.347
24419.757
23923.741
24682.621
25893.627
24774.203
26623.272
25858.554
26276.709
26150.186
26159.385
25535.678
25689.661
25323.487
24792.665
24902.355
24498.983
24351.723
24363.633
24307.93
24421.268
24463.485
24426.688
24462.753
24633.735
24664.038
24652.194
24726.177
24609.132
24514.868
24275.328
24127.565
23652.171
23474.362
22888.387
22594.516
22007.459
21680.704
21070.909
20710.569
20282.924
19985.879
19696.367
19512.103
19327.479
19218.796
19144.667
19083.248
19021.529
18971.371
18886.491
18756.012
18591.882
18353.904
18060.762
17691.789
17272.106
16773.317
16246.852
15676.799
15071.772
14494.721
13893.781
13354.071
12836.478
12379.824
11981.622
11660.243
11391.807
11210.771
10996.156
10972.387
10819.207
10964.52
11059.494
10845.909
10691.955
10356.539
10003.522
9533.8713
8979.4698
8325.5901
7609.9457
6793.9446
5995.543
5070.6157
4291.4605
3318.7084
2683.9199
1748.5766
1323.4552
546.92128
303.65461
-387.77044
50837.086
51978.146
42199.566
44977.925
44785.157
45685.825
45920.178
46283.244
46719.798
46439.636
46294.304
45792.678
45321
44773.806
43952.498
43382.441
42823.843
42159.858
41701.993
41403.837
40985.276
40436.978
39965.444
40088.402
40011.945
40198.602
40053.039
40255.923
40192.272
40126.592
40110.241
39860.426
39727.885
39325.578
39098.511
38498.902
38226.072
37574.129
37204.597
36637.783
36248.018
35752.947
35420.962
35016.369
34740.768
34461.855
34230.741
34022.769
33809.089
33580.368
33337.998
33029.924
32655.067
32216.338
31677.933
31043.749
30319.459
29504.113
28592.771
27634.911
26596.676
25544.154
24470.383
23402.56
22368.654
21394.429
20474.324
19662.856
18917.495
18276.152
17685.452
17215.565
16781.938
16155.211
15451.369
15042.508
14802.746
14257.144
13808.689
13217.612
12572.088
11779.693
10936.462
9975.6172
8942.8445
7890.5812
6738.164
5692.485
4520.1669
3619.0692
2479.1502
1786.1989
835.26485
190.06807
-328.81346
75904.347
61847.944
56337.277
57753.996
59235.63
59882.865
60435.368
61128.215
61749.242
61135.059
60831.254
60538.075
59570.393
58630.616
57928.081
56887.938
56122.653
55277.59
54648.116
54215.83
54114.057
54663.947
54611.513
55000.875
54838.926
54881.3
54836.425
54903.643
54757.228
54810.608
54654.713
54449.909
54275.032
53873.162
53531.429
53004.583
52598.006
51925.48
51474.455
50812.237
50315.299
49741.153
49285.551
48766.316
48391.214
47973.946
47614.099
47257.459
46897.856
46509.232
46085.341
45587.669
45007.673
44341.647
43553.743
42652.232
41638.542
40510.291
39273.898
37955.511
36570.594
35127.876
33687.685
32221.041
30824.229
29448.197
28173.121
26959.918
25867.505
24856.955
23983.045
23199.588
22477.697
21807.117
21228.393
20492.482
19573.135
18964.747
18190.979
17438.507
16572.78
15615.543
14553.107
13381.109
12151.35
10815.056
9478.7327
8091.3232
6725.0697
5410.4299
4089.6206
2933.1816
1623.911
461.44319
-1280.4361
88031.046
86413.924
78155.653
77748.396
79081.483
79293.608
80964.293
81399.952
80962.986
81476.894
80246.344
79629.687
78172.728
77255.929
75546.428
74534.061
72917.62
72014.498
70690.964
70081.483
69433.548
69022.997
69837.52
70214.051
69955.44
70358.797
70226.624
70374.541
70391.581
70431.228
70374.895
70195.287
70092.961
69649.891
69411.65
68801.308
68370.215
67672.386
67133.493
66419.022
65839.464
65175.749
64620.696
64048.1
63566.66
63077.432
62620.658
62170.243
61701.597
61177.014
60599.396
59923.004
59132.339
58212.844
57144.821
55917.45
54545.517
53018.809
51345.186
49574.542
47693.883
45751.02
43791.964
41795.919
39869.602
37981.591
36194.736
34537.852
33001.247
31606.428
30337.667
29183.185
28142.062
27207.366
26429.289
25723.195
24689.103
23917.694
22928.402
21929.314
20822.837
19585.414
18229.468
16752.639
15162.881
13489.343
11740.432
9996.1161
8178.0023
6588.2977
4766.5929
3531.6643
1850.1849
628.68516
-1212.9437
124432.7
114022.18
97211.574
102371.13
99837.391
103768.73
102958.39
104274.36
103588.54
103737.99
102330.28
101181.3
99599.941
98000.345
96098.925
94373.537
92786.157
91004.786
89732.848
88470.006
87315.156
86862.557
85743.688
85386.725
85006.772
85193.639
84929.061
85083.161
84995.164
85091.012
84952.902
84865.195
84645.523
84344.295
83974.2
83380.713
82873.087
82117.483
81524.228
80717.154
80072.92
79295.197
78669.025
77966.382
77363.714
76736.452
76134.637
75531.898
74886.682
74184.187
73410.859
72526.026
71500.745
70336.414
68997.68
67483.929
65800.706
63937.271
61922.922
59776.845
57515.119
55180.701
52820.856
50414.148
48120.304
45800.497
43654.112
41597.829
39697.309
37918.687
36316.557
34864.545
33563.127
32334.845
31183.521
30181.599
29109.15
28034.817
26870.611
25636.478
24322.706
22868.017
21306.891
19605.179
17813.179
15909.651
13970.57
11974.83
10031.659
8119.6268
6223.796
4644.6964
2740.4101
1040.5129
-864.47093
138124.05
133704.7
114290.53
120704.46
121991.6
123569.85
123860.53
125164.26
124570.46
123579.51
122196.83
120305.56
117977.3
115901.33
113134.38
111208.73
108626
106890.25
104925.21
103470.4
102316.05
101491.65
100635.01
100629.59
100111.62
100325.16
100415.32
100505.73
100851.79
100892.63
101087.71
100846.54
100818.66
100400.36
100042.2
99446.344
98792.359
98044.098
97217.889
96381.032
95560.383
94711.102
93956.84
93190.286
92515.108
91842.86
91217.176
90569.863
89897.713
89150.479
88313.636
87324.192
86171.318
84818.439
83250.05
81443.124
79407.651
77142.258
74665.969
72005.296
69195.328
66275.171
63295.482
60292.914
57362.885
54425.458
51709.716
49113.748
46705.722
44472.146
42512.889
40704.955
39079.892
37613.485
36288.51
35045.427
33810.905
32605.21
31353.308
29983.547
28520.359
26877.925
25080.965
23104.653
20969.712
18690.468
16295.241
13849.826
11373.494
8949.9601
6630.7429
4532.1903
2477.81
890.59024
-562.94317
185995.6
135449.16
138273.34
139282.44
143160.32
141319.99
144122.35
144484.27
142850.13
142067.69
139925.59
137864.63
134771.32
132285.65
129101.73
126506.29
123908.47
121550.74
119251.01
118005.94
116164.35
115464.12
114323.56
114317.98
113687.75
114140.17
114065.88
114476.48
114835.46
115050.63
115168.99
115041.75
114989.59
114370.25
114011.35
113371.96
112923.82
111866.7
111056.71
110098.34
109161.11
108225.23
107352.83
106518.71
105727.12
104997.62
104262.01
103535.64
102758.6
101910.22
100928.75
99794.287
98452.71
96889.718
95062.865
92969.193
90607.871
87977.529
85101.307
82017.505
78752.514
75361.359
71902.826
68426.064
64982.006
61603.783
58386.26
55300.222
52561.892
50064.828
47762.477
45667.32
43826.016
42152.224
40626.937
39227.865
37852.497
36487.095
35067.039
33530.061
31868.103
30026.126
27988.474
25759.548
23340.671
20756.797
18053.358
15285.989
12497.419
9802.2711
7252.0354
4910.4355
2896.9646
1179.0886
-516.76467
-277385.38
-304353.05
-289870.64
-301232.99
-303221.76
-306117.81
-319104.18
-309491.5
-308162.92
-307520.43
-303259.67
-291287.49
-287116.11
-302364.04
-245100.32
-278043.89
-292667.33
-271646.74
-287107.84
-287525.35
-296521.05
-286621.31
-298660.49
-295514.45
-296805.01
-288814.38
-287629.8
-285551.05
-289243.55
-246459.13
-202365.18
-239201.43
-204762.95
-216994.73
-217202.12
-214537.17
-219008
-215927
-217705.27
-214553.99
-212955.31
-215585.83
-199755.68
-223359.3
-205252.42
-179461.29
-183965.84
-181708.15
-179228
-186890.64
-183903.15
-188131.34
-188063.44
-185755.16
-186284.8
-186859.5
-178620.23
-179627.65
-193903.22
-138590.68
-122183.12
-141092.09
-118437.34
-131790.02
-126584.86
-131952.4
-129963.2
-130238.66
-130782.56
-130725.74
-128809.56
-128272.21
-127576.1
-131908.49
-120589.08
-86968.057
-89261.37
-82707.614
-85322.783
-85891.173
-86585.755
-86761.793
-86999.777
-87927.253
-87588.185
-85191.454
-89106.364
-83046.787
-90240.515
-85843.407
-39760.008
-38484.473
-38869.501
-36485.881
-39162.191
-38096.652
-39173.243
-38803.758
-37700.206
-38453.158
-38321.249
-34796.391
-40630.131
-34345.342
-43401.303
5546.8114
9982.8918
11728.889
9925.023
10853.844
11055.979
10452.955
10750.265
11331.415
8016.8537
13711.372
7652.9573
4987.8762
15091.628
-10610.59
51724.078
59013.905
53844.634
57644.784
56869.044
57764.425
57317.313
56925.261
58011.098
53030.622
57687.75
53140.883
49914.99
62229.828
18332.59
88101.098
109462.25
97990.03
103129.98
102300.72
104924.14
104412.76
104648.3
106720.12
101789.12
111142.92
98972.361
97392.133
113917.26
67419.773
137941.12
164403.8
143025
156536.81
151130.45
153768.31
152867.63
153125.81
153990.37
148230.46
149921.4
150544.25
137412.6
156003.3
98993.906
196517.22
191991.75
192013.38
191444.16
197311.37
198558.34
199350.34
201181.88
201731.21
198672.81
206249.22
182672.38
193001.85
205130.45
149368.33
224034.52
242902.09
222556.42
229445.68
222064.18
228143.36
226922.09
226566.17
224419.63
221957.61
222985.56
228199.28
206215.21
244398.19
135849.11
269804.27
320125
282724.69
304032.15
311537.86
308251.12
310455.38
321988.78
316220.1
325619.9
308306.82
300851.69
309548.28
296903.95
279504.67
308665.32
258551.89
241042.3
244313.67
254231.53
269538.43
260086.71
248558.36
239381.92
238545.38
245030.16
246216.28
245330.16
267975.4
241995.19
256201.39
237329.67
281398.91
288900.5
298738.21
323038.98
309600.94
288693.19
328826.15
322528.98
311958.7
296881.2
285937.44
274376.81
233049.95
192997.35
193300.74
213063.95
216924.52
225698.13
232164.08
237811.3
243205.11
248691.09
239171.43
235114.64
221975.6
223878.32
222689.68
221884.14
155645.1
174384.8
172667.22
185199.41
195579.39
189350.09
197973.56
195297.16
190291.69
197676.5
190593.33
193970.97
187489.26
169792.4
174630.84
162323.13
181566.76
184099.52
187516.37
190873.72
195640.61
196195.58
197404.07
197076.13
193210.05
192847.79
187841.1
182571.88
179050.09
169827.03
168588.45
180782.73
176560.82
189126.72
189702.12
193014.19
197235.65
196402.16
197515.79
197912.19
192456.46
189469.17
181760.66
175887.59
172633.68
165356.45
171911.77
175876.28
182256.24
183736.93
188641.3
187734.02
188601.86
188364.96
185254.73
184840.5
180670.75
177135.99
172410.72
164049.06
163993.22
172868.61
174111.65
179581.05
179454.98
182935.84
183971.29
184604.26
184009.92
182855.4
179247.16
177492.2
173439.72
167120.65
167426.57
164373.08
167963.51
171631.44
175050.97
178629.31
180007.96
181101
181872.49
180766.07
180187.01
178108.89
175377.79
171860.9
167195.76
163158.98
161071.77
165826.21
167354.75
170667.74
170317.57
173543.57
172461.92
173775.41
172354.11
171700.49
169816.61
167314.39
165778.86
162073.88
161008.34
159243.25
161323.5
163761.56
165512.82
167536.85
168474.87
169429.64
169449.47
169003.05
168666.13
166555.2
165714
163196.23
160503.11
158862.23
155472.32
158198.24
159523.68
161594.41
162038.59
163896.67
163472.66
164376.34
164069.69
163315.2
162602.96
161244.38
159483.77
157381.22
156599.16
152822.33
153613.21
155077.02
155817.69
156628.81
157342.79
157920.47
157944.83
157785.29
157532.49
156525.09
155274.12
154438.5
152860.61
152149.24
149162.6
149887.29
150090.75
151429.16
151967.1
153031.2
152730.31
153345.69
153209.99
152784.72
151876.49
151605.91
150513.79
149635.88
148774.3
144974.18
145485.58
146646.61
146374.86
147196.49
147477.74
147383.89
148009.6
147662.82
147347.48
146915.26
146575.94
145687.1
144989.66
145030.58
141676.67
141382.12
141289.99
142250.75
142040.04
142666.16
143372.64
142139.37
142706.64
142563.48
142256.33
141887.07
141095.06
141456.8
140944.58
137598.43
137765.58
138313.24
137617.53
137957.44
138406.56
138420.16
138258.49
137671.95
137778.6
137082.57
137266.69
136633.55
136660.61
136762.93
134785.54
133980.81
134150.2
133561
134215.03
134326.46
134047.94
133990.24
134450.76
134003.96
133961.87
133931.11
134064.41
133429.06
134457.47
131681.36
130970.1
130900.03
130415.49
130457.2
130505.89
130334.56
130258.91
129861.03
129973.36
129464.66
129654.15
129115.57
129927.55
129838.84
128771.16
128140.29
128211.44
127844.46
127329.78
127804.57
126960.18
127491.87
127331.96
127238.76
126684.99
127273.76
127201.77
127966.98
127883.46
127102.96
125836.45
125897.69
124884.37
125313.51
125047.29
125035.79
124681.82
124696.97
124654.89
124116.35
124867.41
124353.01
125239.39
125105.05
125105.24
124229.99
123848.94
123690.09
123018.58
123015.12
122940.16
123055.87
122755.01
122642.13
122853.34
122729.93
122758.33
123149.95
123106.24
123966.82
122910.95
123101.56
122115.94
122264.81
121876.78
121851.17
121597.84
121577.65
121334.87
121105.41
121662.26
121411.86
121826.92
122282.95
123155.14
122033.18
121795.97
121593.99
121179.48
121376.68
121048.78
121091.59
120320.24
121203.78
120138.05
120604.73
120050.58
121208.06
121408.88
122675.65
121931.9
121951.58
121297.93
121055.85
121120.15
120344.98
120523.89
120285.07
120194.42
120011.01
120246.84
120190.6
120398.58
120627.71
122496.86
122000.48
121495.52
121546.51
120867.49
120775.7
120808.55
120687.48
120378.69
120616.1
120012.89
120456.73
120084.25
120349.93
120671.76
123289.96
122023.93
121957.98
121537.94
121381.94
121540.52
121249.9
121139.39
120885.74
120770.34
120510.71
120353.58
120096.09
120546.85
120360.39
122889.67
122755.88
122160.75
122623.82
121789.35
122361.57
121691.77
121799.83
121358.58
121433.39
120823.27
121488.71
120435.61
120613.26
121146.3
124154.13
123016.28
123099.75
122842.55
122990.04
122845.39
122327
122451.07
122066.12
121982.52
121525.87
121422.31
121297.2
121480.7
120805.93
123903.47
123925.72
123858.36
123703.18
123153.08
123574.95
123072.34
123245.61
122826.29
122793.77
122252.84
122583.43
121666.38
121300.17
122013.97
125332.95
123946.86
124165.85
124556.24
124114.42
124121.79
123900.83
123974.04
123431.44
123320.39
122684.29
122872.94
122354.07
121942.9
122051.19
124948.83
124749.62
124641.8
124884.36
124281.01
125050.77
123951.95
124362.68
123423.39
124009.91
123267.13
123333.31
122904.17
122222.38
122588.09
125569.05
124733.91
124976.22
125198.77
124903.44
125048.83
124720.65
124687.46
124360.66
124363.84
123615.09
123705.58
123126.06
122372.06
122667.66
125355.95
124855.62
124978.42
125300.39
124830.96
125329.1
124633.1
124940.35
124329.93
124449.21
123711.91
123801.55
123137.33
122534.46
122715.52
125063.25
124600.83
124793.35
125014.31
124768.74
125070.05
124688.42
124760.55
124242.9
124262.46
123640.14
123554.21
123073.61
122282.35
122586.89
124507.67
124292.4
124427.05
124741.5
124395.76
124842.04
124260.28
124414.96
123936.34
124054.54
123299.78
123449.41
122562.41
122460.84
122029.83
123686.14
123673.99
123528.66
124381.23
123507.54
124045.81
123716.53
123689.03
123433.07
123423.45
122672.5
122683.08
122252.9
121449.91
122104.58
123469.24
122603.44
122963.73
123178.29
123181.95
123237.17
123021.1
123048.12
122588.74
122346.32
122088.09
122133.96
121509.13
121185.62
121144.66
122041.12
121872.72
121870.56
122519.73
121873.33
122496.67
121988.92
122217.07
121669.77
121931.06
121197.42
121264.62
120789.86
120217.56
120568.23
121431.03
120739.89
121042.88
121459.11
121131.51
121563.07
121156.76
121291.73
120911.76
120970.21
120370.33
120513.87
119856.65
119715.75
119795.1
120117.54
119746.53
119882.31
120362.93
119960.69
120442.44
120018.4
120230.97
119795.77
119885.57
119295.18
119354.57
118996.71
118745.58
118895.37
119242.17
118641.61
118890.93
119337.81
119016.61
119445.37
119130.78
119268.62
118891.04
119008.49
118417.58
118606.71
118102.55
117970.35
118118.42
118078.92
117637.98
117808.73
118297.52
117933
118437.87
118069.94
118241.85
117898.63
117994.06
117484.34
117604.77
117180.75
117122.41
117280.98
117207.63
116699.72
116926.39
117394.88
117100.41
117560.31
117252.36
117423.35
117076.16
117200.65
116649.05
116790.42
116391.53
116354.17
116481.68
116272.15
115850.21
116021.36
116519.41
116159.39
116679.7
116364.35
116529.8
116208.32
116316.6
115789.11
115969.6
115575.59
115528.59
115690.81
115517.72
115081.23
115316.09
115772.2
115480
116013.72
115716.05
115879.25
115558.9
115660.56
115163.14
115299.77
114899.35
114838.62
114989.76
114755.58
114409.37
114591.82
115082.22
114770.94
115323.59
115006.61
115160.76
114834.16
114964.79
114427.24
114555.98
114187.48
114052.52
114240.01
114127.41
113764.95
114004.08
114487.86
114208
114759.87
114449.31
114592.8
114300.15
114382.74
113836.85
113964.08
113569.78
113347.96