/*--------------------------------*- C++ -*----------------------------------*\
  =========                 |
  \\      /  F ield         | OpenFOAM: The Open Source CFD Toolbox
   \\    /   O peration     | Website:  https://openfoam.org
    \\  /    A nd           | Version:  6
     \\/     M anipulation  |
\*---------------------------------------------------------------------------*/
FoamFile
{
    version     2.0;
    format      ascii;
    class       pointVectorField;
    location    "0.36";
    object      u;
}
// * * * * * * * * * * * * * * * * * * * * * * * * * * * * * * * * * * * * * //

dimensions      [0 1 0 0 0 0 0];

internalField   nonuniform List<vector> 
3969
(
(0 0 0)
(0 0 0)
(1.0422842 0.029663062 0.0017424773)
(1.0104949 -0.22002247 0.00040893154)
(0 0 0)
(0 0 0)
(1.0115787 -0.22040105 0.00022888514)
(1.0433854 0.029042233 0.0014239541)
(0 0 0)
(0 0 0)
(0 0 0)
(0 0 0)
(0 0 0)
(0 0 0)
(0 0 0)
(1.0379683 -0.0023411494 0.0011287609)
(1.0336472 -0.033433701 0.0010727829)
(1.0294934 -0.06424766 0.00093401647)
(1.0255578 -0.094940406 0.001012057)
(1.0217554 -0.12568438 0.00098899616)
(1.0180077 -0.15659251 0.0010300969)
(1.0144411 -0.1878807 0.00081462286)
(0.0032353365 0.0070742385 0.0073363132)
(0.0052297348 0.011963436 0.0090318289)
(0.0090957717 0.017389368 0.009935329)
(0.014733923 0.022792851 0.010111345)
(0.021694275 0.02806969 0.010091037)
(0.030247127 0.033193282 0.0098419894)
(0.040005668 0.038007819 0.0096450542)
(0.051170509 0.042589268 0.0093187456)
(0.063428397 0.046774705 0.0090819564)
(0.076899272 0.050689754 0.0087551937)
(0.091401841 0.054252638 0.0085016953)
(0.10693177 0.057496239 0.0082183622)
(0.12340239 0.06038593 0.0079341909)
(0.14077782 0.063003008 0.0076713553)
(0.15899353 0.0652539 0.0073878731)
(0.17798224 0.06723887 0.0071092523)
(0.19772085 0.06893099 0.0068472721)
(0.21814537 0.070342847 0.0065807144)
(0.23922757 0.071493363 0.0063250758)
(0.26091213 0.072392328 0.0060739737)
(0.28317525 0.073049705 0.0058345729)
(0.30597402 0.073493116 0.0056035974)
(0.32928424 0.073718426 0.0053847817)
(0.35307692 0.073756443 0.0051793499)
(0.37732763 0.07359846 0.004984309)
(0.40201473 0.073302792 0.0048129211)
(0.4271216 0.072834406 0.004657394)
(0.45264304 0.072239794 0.0045171925)
(0.47856633 0.07151614 0.0044083257)
(0.50487464 0.070673574 0.0043182866)
(0.53158208 0.069721823 0.0042541939)
(0.55868062 0.068663851 0.0042112215)
(0.586182 0.067489264 0.0041824063)
(0.61408081 0.066210061 0.004165412)
(0.64241125 0.064799159 0.0041413689)
(0.67113456 0.063228812 0.0041311644)
(0.70030915 0.061586875 0.0040597363)
(0.72985904 0.059627428 0.0040197961)
(0.75982563 0.057702534 0.0038792027)
(0.7901767 0.055318144 0.0037977942)
(0.82087054 0.053000339 0.0035614002)
(0.85187797 0.050252083 0.0034086739)
(0.88317356 0.047343996 0.0031597131)
(0.91464388 0.044361981 0.0028790251)
(0.94632148 0.040840132 0.0026978849)
(0.97806862 0.037484676 0.002402919)
(1.0097738 0.033818796 0.0023109574)
(0.00051288826 -0.0063860424 -0.0084809224)
(0.0037068036 -0.010774824 -0.0084861416)
(0.0069748706 -0.015877582 -0.010107044)
(0.012024967 -0.020756502 -0.0096506552)
(0.018816738 -0.026123125 -0.0095969554)
(0.026700496 -0.031201097 -0.0090545685)
(0.03601265 -0.036333516 -0.0086521034)
(0.046420784 -0.041312898 -0.0081281978)
(0.058013514 -0.046251721 -0.0076551224)
(0.070701326 -0.051071308 -0.0071630748)
(0.084359519 -0.055828782 -0.0067148594)
(0.099070244 -0.060494459 -0.0062676102)
(0.11464567 -0.065101213 -0.0058618258)
(0.13114133 -0.069613413 -0.005453238)
(0.14844597 -0.074088724 -0.0050873356)
(0.16655521 -0.07847058 -0.0047346641)
(0.18541587 -0.082823134 -0.0044172034)
(0.2049638 -0.087089441 -0.0041219154)
(0.22519584 -0.091342695 -0.0038550041)
(0.24603553 -0.095517553 -0.0036192924)
(0.2674692 -0.09970359 -0.0034025753)
(0.28946376 -0.10381088 -0.0032271927)
(0.31197751 -0.10795078 -0.003054306)
(0.33499425 -0.11205116 -0.0029290727)
(0.35846414 -0.11615045 -0.0028282347)
(0.38239666 -0.12025962 -0.002751258)
(0.40672691 -0.12436885 -0.0026925567)
(0.43151634 -0.1285326 -0.0026542527)
(0.45670644 -0.13271248 -0.0026456087)
(0.48228838 -0.13694217 -0.0026388115)
(0.50827876 -0.1412302 -0.0026456369)
(0.53466468 -0.14559142 -0.0026481301)
(0.56145865 -0.15001676 -0.0026478612)
(0.58866424 -0.15453188 -0.0026367891)
(0.61629154 -0.15911607 -0.002602059)
(0.6443412 -0.16378658 -0.0025510147)
(0.67281754 -0.16851383 -0.0024800486)
(0.70172782 -0.17329863 -0.0023441782)
(0.7310856 -0.17815623 -0.0022072777)
(0.7608288 -0.18298605 -0.0020205981)
(0.79098102 -0.18784368 -0.0018062057)
(0.82150858 -0.19268208 -0.0015500289)
(0.85234841 -0.19742732 -0.0012862435)
(0.88351194 -0.2021465 -0.00097163655)
(0.91486616 -0.20672828 -0.00066344654)
(0.94648227 -0.21118767 -0.00037040523)
(0.97817479 -0.21563708 -2.3897487e-05)
(0 0 0)
(0 0 0)
(0 0 0)
(0 0 0)
(0 0 0)
(0 0 0)
(0 0 0)
(0.0027118186 -0.0042332873 0.0066071636)
(0.0043709492 -0.013128922 0.0090911141)
(0.0071638245 -0.014714911 0.0092545469)
(0.012599631 -0.021896618 0.0096925719)
(0.019191985 -0.026403635 0.0095570867)
(0.027119002 -0.031650356 0.0091122203)
(0.036428621 -0.036958205 0.0089431016)
(0.046845742 -0.041727598 0.0084410465)
(0.058428616 -0.046877051 0.0082167581)
(0.071056191 -0.051543645 0.0077790798)
(0.084738545 -0.056442286 0.0076295914)
(0.099345302 -0.060868582 0.0072218886)
(0.11501222 -0.065536354 0.0069362634)
(0.1315041 -0.069946091 0.006606502)
(0.14883562 -0.074363132 0.0063061302)
(0.16696698 -0.078708281 0.0060116223)
(0.18584113 -0.08298378 0.0057131319)
(0.20542565 -0.087226859 0.0054302177)
(0.22567348 -0.09142163 0.0051507415)
(0.24655159 -0.095581177 0.0048810878)
(0.26801914 -0.099714221 0.0046273551)
(0.29004142 -0.10382523 0.004386257)
(0.31259538 -0.107922 0.0041591473)
(0.33563484 -0.11200572 0.0039502117)
(0.35916811 -0.11612179 0.0037463771)
(0.38317741 -0.12022524 0.0035442159)
(0.40754412 -0.12439881 0.0034168521)
(0.43235376 -0.12855925 0.0032782805)
(0.45756335 -0.13278928 0.0031798887)
(0.48318275 -0.13706294 0.0030878822)
(0.50919434 -0.14140008 0.0030135158)
(0.53561035 -0.14581353 0.0029568757)
(0.5624265 -0.15030143 0.0029096802)
(0.58965717 -0.15486184 0.0028652321)
(0.61730104 -0.1595068 0.0028200272)
(0.64539112 -0.16422774 0.0027680951)
(0.67383764 -0.16893006 0.0026966782)
(0.7028148 -0.17382292 0.0026007016)
(0.73214301 -0.17864233 0.0024918977)
(0.76191477 -0.18351127 0.0023353868)
(0.79207499 -0.1883633 0.0021483876)
(0.82260876 -0.19318976 0.0019363799)
(0.85345819 -0.19794722 0.0016948001)
(0.88462083 -0.20263882 0.001433488)
(0.91598852 -0.20720993 0.0011619506)
(0.94759148 -0.21167663 0.00091036702)
(0.97921834 -0.21612137 0.00063608176)
(1.015626 -0.18830214 0.00014286596)
(1.0191496 -0.157114 0.00025778396)
(1.0228589 -0.12612304 0.00055821747)
(1.0267081 -0.095552075 0.00083201746)
(1.0305548 -0.06476076 0.0012464161)
(1.0346951 -0.034033925 0.0014304317)
(1.0391214 -0.0029890906 0.001645464)
(1.0110489 0.033199514 0.00085452543)
(0.97909916 0.036781309 0.00059725817)
(0.94736301 0.040334638 0.00026218417)
(0.91569878 0.043679199 -2.918703e-05)
(0.88418447 0.046798675 -0.00035382087)
(0.85288092 0.049709455 -0.00066556072)
(0.82184755 0.052386782 -0.00094148236)
(0.79111212 0.054861665 -0.0012075387)
(0.76072454 0.057129597 -0.001442022)
(0.73072081 0.059231413 -0.0016490363)
(0.7010558 0.061159038 -0.0018189416)
(0.67199582 0.062799867 -0.0019163123)
(0.64312599 0.064507662 -0.002060988)
(0.61480393 0.065942135 -0.0021324113)
(0.5868623 0.067300812 -0.0022042691)
(0.55934934 0.068522873 -0.0022479185)
(0.5322363 0.069635675 -0.0022856435)
(0.50553495 0.070619764 -0.0023207272)
(0.47922618 0.071491116 -0.0023582937)
(0.45332124 0.072222142 -0.0024035099)
(0.42781192 0.072827334 -0.0024675139)
(0.40271436 0.073276443 -0.0025462917)
(0.37803418 0.073571645 -0.0026454717)
(0.35378437 0.073692352 -0.002771211)
(0.32999266 0.073628104 -0.0029200239)
(0.30667712 0.073367396 -0.0030920299)
(0.28386507 0.072890871 -0.003291366)
(0.26158987 0.072191422 -0.0035132013)
(0.23988535 0.07124639 -0.0037597529)
(0.21878388 0.07005343 -0.0040331968)
(0.19833456 0.068592159 -0.0043318022)
(0.17856548 0.066862927 -0.0046513089)
(0.15953923 0.064837215 -0.0050061639)
(0.14132303 0.0624756 -0.0053350222)
(0.12395973 0.059858366 -0.0057621456)
(0.10742373 0.056920745 -0.0061096592)
(0.09189778 0.053649165 -0.0065602572)
(0.077322973 0.050069771 -0.0069724315)
(0.063828085 0.046173425 -0.0074780342)
(0.051531318 0.041899475 -0.0078649341)
(0.040428776 0.037442963 -0.0083317498)
(0.030428974 0.032570187 -0.0087568888)
(0.022036079 0.027521688 -0.0091312307)
(0.014836966 0.022249657 -0.0093151186)
(0.0094426818 0.017040372 -0.0091443732)
(0.0053216116 0.011134991 -0.0084128735)
(0.0054266946 0.0067334164 -0.0054780748)
(0 0 0)
(0 0 0)
(0 0 0)
(0 0 0)
(0 0 0)
(0 0 0)
(0 0 0)
(0 0 0)
(0 0 0)
(0 0 0)
(0 0 0)
(0 0 0)
(0 0 0)
(0 0 0)
(1.0106576 -0.22035148 0.00030354204)
(1.010862 -0.22053448 0.00028177342)
(1.0110287 -0.22063272 0.00028693765)
(1.0111847 -0.22073671 0.00033191754)
(1.0113253 -0.22079414 0.0003582653)
(1.0114354 -0.2207705 0.00039421296)
(1.0115345 -0.22078034 0.00029033472)
(1.0427119 0.029905454 0.0017356785)
(1.04291 0.029854892 0.0017443286)
(1.0430892 0.029823579 0.0016494094)
(1.0432514 0.029763589 0.0015729296)
(1.0433747 0.029685418 0.0014925207)
(1.0434522 0.029543267 0.0014260512)
(1.0435876 0.029470726 0.0014282266)
(0.00033802189 -0.0027044442 0.0065130156)
(0.0018943284 -0.0067348337 0.0064454506)
(0.0045692681 -0.0098095603 0.0074817314)
(0.0090255736 -0.012778357 0.0076508518)
(0.014723386 -0.015342588 0.0077138072)
(0.022087612 -0.017273082 0.0076692776)
(0.030648141 -0.018772087 0.0074827094)
(0.040615593 -0.019551173 0.0073817669)
(0.051873512 -0.019795495 0.0071370738)
(0.064395764 -0.019265694 0.006982224)
(0.078138343 -0.018092811 0.0067714526)
(0.093069383 -0.016161191 0.0065684448)
(0.10919519 -0.013501753 0.0063621207)
(0.12642274 -0.010134222 0.0061482947)
(0.14474898 -0.0060850983 0.0059474819)
(0.16411547 -0.0013901245 0.0057376456)
(0.18447868 0.0038974596 0.0055297211)
(0.20576518 0.0096951204 0.0053281583)
(0.22794486 0.015945751 0.0051230322)
(0.25094468 0.022544505 0.0049224524)
(0.27470859 0.02940469 0.0047296223)
(0.29916894 0.036417346 0.004540118)
(0.32426793 0.043474731 0.0043651284)
(0.34993119 0.050462685 0.0041969388)
(0.37612311 0.057279737 0.0040448314)
(0.40276386 0.063789293 0.0038943907)
(0.42980057 0.069900936 0.003766502)
(0.45718313 0.075510496 0.0036597813)
(0.48487423 0.080484012 0.0035648329)
(0.51281708 0.084756917 0.0034900962)
(0.54099441 0.088218793 0.0034328531)
(0.56937229 0.090789528 0.0033873878)
(0.59792612 0.092401745 0.0033533009)
(0.62664601 0.092993411 0.0033222477)
(0.65552174 0.092508663 0.0032948182)
(0.68450409 0.090940384 0.0032553994)
(0.71365212 0.088256524 0.0031974418)
(0.74285958 0.084440513 0.0031540243)
(0.77220913 0.079587299 0.0030525749)
(0.80160654 0.073604972 0.0029696723)
(0.83105941 0.066746255 0.0028176722)
(0.86058565 0.058783713 0.0027199073)
(0.89010579 0.050204273 0.0024949147)
(0.91963576 0.040711496 0.0023714534)
(0.94918802 0.030610821 0.002163965)
(0.97860303 0.020182409 0.0019430952)
(1.0081203 0.0089574454 0.0016866435)
(-0.0017261805 -0.007409298 0.0044499735)
(-0.0007208509 -0.016235521 0.0044675951)
(0.001891328 -0.023007107 0.0052101949)
(0.0057292039 -0.030269722 0.0052809203)
(0.011184836 -0.036443696 0.0053744138)
(0.017878283 -0.04196707 0.0052507785)
(0.025956516 -0.046608346 0.0052734562)
(0.035461877 -0.050290229 0.0050891047)
(0.046216008 -0.052965573 0.0050632971)
(0.05832676 -0.054490076 0.0049339217)
(0.071705877 -0.054933322 0.0048438499)
(0.086376943 -0.054140319 0.0047277232)
(0.10228441 -0.052225054 0.0046254862)
(0.11942972 -0.049130459 0.0045182805)
(0.1377644 -0.044937449 0.0044021491)
(0.15723939 -0.039666581 0.0042630498)
(0.1777958 -0.033430308 0.0041287224)
(0.19939641 -0.02631464 0.0039897824)
(0.22197773 -0.018446343 0.0038446838)
(0.24547793 -0.0099479256 0.0037025804)
(0.26981896 -0.00097172739 0.003557577)
(0.29492803 0.0083399516 0.003415314)
(0.32071592 0.017817419 0.0032768891)
(0.34713211 0.027314547 0.0031432076)
(0.37407283 0.03663224 0.003009524)
(0.4014657 0.045641769 0.002906126)
(0.42924894 0.05413829 0.0028066119)
(0.45736255 0.061988185 0.0027065289)
(0.48572061 0.069031961 0.0026427169)
(0.51429775 0.07512451 0.002580268)
(0.54303457 0.080132195 0.0025362411)
(0.57189263 0.083942003 0.0025095523)
(0.60084054 0.086450922 0.0024862128)
(0.62986038 0.087579341 0.0024765802)
(0.65890019 0.087268042 0.0024641618)
(0.68798054 0.085472599 0.0024534957)
(0.71705921 0.08220602 0.002429603)
(0.74608752 0.077392166 0.0024225719)
(0.7751546 0.071265858 0.0023334962)
(0.80407853 0.063564047 0.0023289732)
(0.83307323 0.05476034 0.0021972333)
(0.86189094 0.044570847 0.002149766)
(0.89072787 0.033473402 0.0019976496)
(0.91940921 0.021276318 0.0019268629)
(0.94805178 0.0083899261 0.0017591077)
(0.97660538 -0.0051889965 0.0015919551)
(1.0052445 -0.019290011 0.0013604108)
(-0.0027605352 -0.0057462318 0.0027347514)
(-0.0013116122 -0.011977461 0.0026037514)
(0.0012580145 -0.017445088 0.0029192253)
(0.0057799246 -0.022695021 0.0029458375)
(0.011508373 -0.02758891 0.0029368292)
(0.018808472 -0.031807735 0.0029805206)
(0.027427009 -0.03569308 0.0028487944)
(0.037297033 -0.038774258 0.0029179609)
(0.048500362 -0.041256313 0.0028719298)
(0.060929063 -0.042951117 0.0028590652)
(0.0745694 -0.043858488 0.0028466608)
(0.089391278 -0.043984304 0.0028201719)
(0.10537415 -0.043284115 0.0027961104)
(0.12246117 -0.041808708 0.0027695831)
(0.14065018 -0.039530018 0.0027441176)
(0.15987419 -0.036548011 0.0026932233)
(0.18008942 -0.032889267 0.002642317)
(0.20124022 -0.028635661 0.0025797246)
(0.2232752 -0.023862919 0.0025179797)
(0.24612179 -0.018656994 0.0024525835)
(0.26972135 -0.013126426 0.0023898645)
(0.29401131 -0.0073711906 0.0023231556)
(0.31895611 -0.0014985276 0.0022570144)
(0.34445353 0.0043459817 0.0021855332)
(0.37046069 0.010078078 0.0021331871)
(0.39692323 0.015554679 0.0020621256)
(0.42379838 0.020669781 0.0019883732)
(0.45100811 0.02530662 0.0019375231)
(0.4785263 0.029357553 0.0018815508)
(0.50631048 0.032714662 0.0018291523)
(0.53431981 0.035294586 0.001795629)
(0.56254036 0.037002374 0.00176128)
(0.59094652 0.037773576 0.0017386977)
(0.61951371 0.037551452 0.00172167)
(0.64824417 0.036273711 0.0017123542)
(0.67711582 0.033959219 0.0016925551)
(0.70610145 0.03050841 0.0016970179)
(0.73524105 0.026076813 0.0016582891)
(0.76446693 0.020513116 0.0016465543)
(0.79377599 0.013978697 0.0016368198)
(0.82319911 0.0065844399 0.0015504328)
(0.85260233 -0.001868596 0.0015929093)
(0.88215938 -0.010860711 0.0014475721)
(0.91163118 -0.020768023 0.0014787657)
(0.9412771 -0.031114188 0.0013168312)
(0.97079704 -0.041919875 0.0012469717)
(1.0003489 -0.053112339 0.0011444384)
(-0.0026894198 0.00043101026 0.00060597972)
(-0.0005436801 0.00050892564 0.00013196627)
(0.0030685811 0.0011704793 0.00028140622)
(0.0084172805 0.0013543301 0.0003218133)
(0.015459668 0.0015388871 0.00044260853)
(0.023810004 0.0017111467 0.0004156816)
(0.033481325 0.0015292996 0.00063904005)
(0.044416198 0.0014275003 0.00066267406)
(0.056531027 0.00102883 0.0007904654)
(0.06975295 0.00061023373 0.00089009871)
(0.084037261 -2.7093098e-05 0.00096240048)
(0.099343503 -0.00074818606 0.0010281788)
(0.1155539 -0.0016150519 0.0010685131)
(0.13267267 -0.0026193347 0.001129675)
(0.15061899 -0.0037209171 0.0011496228)
(0.16936088 -0.0049578652 0.0011807647)
(0.18881637 -0.0063055612 0.0011943992)
(0.20897397 -0.0077752074 0.0012100052)
(0.22976478 -0.0093578489 0.0012144832)
(0.25116982 -0.01104555 0.0012114553)
(0.27315094 -0.01284227 0.0011952554)
(0.29569289 -0.01472146 0.001170639)
(0.31869666 -0.016714336 0.0011405964)
(0.34219294 -0.018782225 0.001116905)
(0.366145 -0.020937877 0.0010640185)
(0.39053856 -0.023169434 0.0010162814)
(0.41533272 -0.025486481 0.00098526828)
(0.44053327 -0.027881818 0.00094650045)
(0.46613207 -0.030352946 0.00090321278)
(0.49212096 -0.032908366 0.00088033673)
(0.51850242 -0.035539287 0.00084937952)
(0.54528551 -0.03826437 0.00083534524)
(0.57245956 -0.041070043 0.00082265503)
(0.60006091 -0.043981772 0.00082701921)
(0.62806566 -0.046974719 0.00082517021)
(0.65650239 -0.050105838 0.00085548993)
(0.68537549 -0.053297777 0.00086051697)
(0.7146623 -0.056647235 0.00089298623)
(0.74436877 -0.06010347 0.00093264111)
(0.77448422 -0.063619561 0.00093010639)
(0.805011 -0.067320541 0.00097689003)
(0.83585213 -0.071089006 0.00099392649)
(0.86709102 -0.074877555 0.00096423645)
(0.89851926 -0.07891051 0.0010478444)
(0.93025039 -0.082797716 0.00097314368)
(0.96201085 -0.086897898 0.0010813162)
(0.99402591 -0.090992396 0.0010169002)
(-0.0024629738 0.0064232161 -0.0015554323)
(0.00089102255 0.013277496 -0.0020963067)
(0.0051336855 0.0193476 -0.0020639527)
(0.011795158 0.025043846 -0.0020434363)
(0.019887318 0.030033969 -0.0020146321)
(0.029393299 0.034411117 -0.001766108)
(0.04025271 0.037902684 -0.0016605314)
(0.052254741 0.04061681 -0.0014917625)
(0.065325461 0.042317292 -0.001301486)
(0.079392167 0.043080065 -0.0011552859)
(0.094327537 0.042785775 -0.0010112402)
(0.11001966 0.041505343 -0.00085713705)
(0.12643284 0.039113911 -0.00069828516)
(0.14349857 0.035736373 -0.00056510562)
(0.16114116 0.03131974 -0.00043742056)
(0.1793116 0.02595606 -0.00031509604)
(0.19796771 0.019688648 -0.00022558269)
(0.21706307 0.012599397 -0.00013493989)
(0.23658293 0.0047680495 -6.6845776e-05)
(0.25649691 -0.0036989144 -3.9851554e-06)
(0.27680944 -0.012698061 4.4462672e-05)
(0.29746091 -0.022127088 9.9997574e-05)
(0.31852026 -0.031834583 0.00013513906)
(0.33997203 -0.04175046 0.00015533219)
(0.36184577 -0.051700543 0.00017173915)
(0.38412137 -0.061586304 0.00019115362)
(0.40685281 -0.071279564 0.00019486838)
(0.43005063 -0.08065782 0.00018070249)
(0.45374107 -0.089615772 0.00017410305)
(0.47795174 -0.098050066 0.00015480791)
(0.50272145 -0.10587321 0.00013838293)
(0.52807412 -0.11301005 0.00012375387)
(0.55405443 -0.11939688 0.00011358034)
(0.58068194 -0.12497535 0.00010240418)
(0.60798887 -0.12974167 0.00011441363)
(0.63601537 -0.13362894 0.00011178046)
(0.66474435 -0.13668322 0.00013713055)
(0.69423298 -0.13891428 0.00017407787)
(0.72441496 -0.14028571 0.00018689473)
(0.75537608 -0.14089706 0.00024875079)
(0.78696929 -0.14079761 0.00030289345)
(0.81925492 -0.13998747 0.00035224934)
(0.85210629 -0.13863867 0.00043368352)
(0.88545551 -0.13676438 0.00052845614)
(0.91927497 -0.13438975 0.00057851061)
(0.95341951 -0.13177739 0.00071254418)
(0.98780317 -0.1288229 0.00079146753)
(-0.0016977636 0.0080076989 -0.0040453918)
(0.0023658929 0.016308728 -0.004456602)
(0.0069979762 0.023893335 -0.0047716728)
(0.014084617 0.030906363 -0.0047892881)
(0.022539481 0.03702901 -0.0044833727)
(0.032480366 0.042401509 -0.0042801843)
(0.043711291 0.046584533 -0.0039758989)
(0.056067232 0.04978502 -0.0036636126)
(0.069441798 0.051653343 -0.0033895161)
(0.083725734 0.052320123 -0.0030788247)
(0.09879127 0.051573337 -0.0028222304)
(0.1145566 0.049485175 -0.002560894)
(0.1309529 0.045974276 -0.0023421945)
(0.14788132 0.041123161 -0.0021190523)
(0.16528773 0.034914162 -0.0019195472)
(0.18312296 0.027450693 -0.0017401976)
(0.20134155 0.01877537 -0.0015840644)
(0.21991387 0.0090245878 -0.0014361201)
(0.23881506 -0.0017278192 -0.0013123207)
(0.25803625 -0.013301506 -0.0011995102)
(0.27756401 -0.025611057 -0.0011056887)
(0.29745919 -0.038389059 -0.0010138061)
(0.31764046 -0.051605884 -0.00097158576)
(0.33820433 -0.065054659 -0.00090147011)
(0.35914489 -0.078494391 -0.00086505545)
(0.38050262 -0.091800673 -0.00084102493)
(0.40233021 -0.10477434 -0.00082988509)
(0.42464103 -0.11727768 -0.00081558771)
(0.44748383 -0.12913932 -0.0008222854)
(0.47091298 -0.14023763 -0.00082631895)
(0.49495663 -0.15043295 -0.00083686084)
(0.5196721 -0.15962103 -0.00084262831)
(0.54509232 -0.16770289 -0.00085162398)
(0.57126542 -0.17463656 -0.00083991221)
(0.59822286 -0.18031431 -0.00084051279)
(0.6259997 -0.1847893 -0.00080139039)
(0.65461983 -0.18798393 -0.00076561838)
(0.68408697 -0.18993758 -0.00070949223)
(0.71443471 -0.19072929 -0.00063088119)
(0.74560467 -0.19034208 -0.00054696795)
(0.77759275 -0.18883658 -0.00044494717)
(0.81038209 -0.18634758 -0.00032090569)
(0.84381667 -0.18300673 -0.00015992672)
(0.87793148 -0.17879626 -2.2041917e-05)
(0.91251331 -0.1739436 0.00015879472)
(0.94753832 -0.16856451 0.0003925921)
(0.98282816 -0.16264012 0.00064362468)
(-0.00078639479 0.0028012399 -0.0058981707)
(0.0029648311 0.00731747 -0.0065054284)
(0.0070661137 0.010442756 -0.0072678766)
(0.013688083 0.01340783 -0.0071073819)
(0.021449741 0.01570065 -0.0068988469)
(0.030851945 0.017340396 -0.0065625481)
(0.041417053 0.018303015 -0.006166242)
(0.053164734 0.018541325 -0.0057894461)
(0.065968244 0.017938632 -0.0054056202)
(0.079697759 0.016536082 -0.0050155945)
(0.094345813 0.014173391 -0.0046664622)
(0.10971751 0.010950944 -0.0043338069)
(0.12584495 0.0067366558 -0.00400076)
(0.14258138 0.0016335579 -0.0036958985)
(0.15992939 -0.0043804664 -0.0034184463)
(0.1777924 -0.011247366 -0.0031626875)
(0.19616474 -0.018925324 -0.0029259522)
(0.21497837 -0.027342975 -0.0027175709)
(0.23422889 -0.036424045 -0.0025248114)
(0.2538809 -0.046077902 -0.0023582031)
(0.27394051 -0.056191613 -0.0022099666)
(0.29436379 -0.06669121 -0.0020760869)
(0.31522774 -0.077418402 -0.0019724679)
(0.33645223 -0.088307132 -0.0018715227)
(0.35809307 -0.099182744 -0.0018124422)
(0.38015586 -0.1099571 -0.0017529963)
(0.40267112 -0.1205103 -0.0017006692)
(0.42565794 -0.13072007 -0.0016781943)
(0.44914499 -0.14049127 -0.0016664787)
(0.47315795 -0.14973332 -0.001658467)
(0.49772219 -0.15834804 -0.0016623919)
(0.5228812 -0.16626719 -0.0016648704)
(0.54865866 -0.17344019 -0.001663259)
(0.57508952 -0.17979419 -0.001660655)
(0.60220352 -0.18532311 -0.0016428366)
(0.63002825 -0.18999912 -0.0016039029)
(0.65856042 -0.19378394 -0.0015706948)
(0.68786585 -0.19674644 -0.0014743732)
(0.71787428 -0.19884178 -0.0013956674)
(0.74862109 -0.20014512 -0.0012666528)
(0.78005487 -0.20064572 -0.0011207223)
(0.81215404 -0.20044834 -0.00093574352)
(0.84481953 -0.19958611 -0.00072935091)
(0.87804513 -0.19807311 -0.00053200025)
(0.91163472 -0.19612459 -0.00024082032)
(0.94563848 -0.19364515 -8.5728125e-06)
(0.97979219 -0.1907754 0.00032912498)
(0 0 0)
(0 0 0)
(0 0 0)
(0 0 0)
(0 0 0)
(0 0 0)
(0 0 0)
(0 0 0)
(0 0 0)
(0 0 0)
(0 0 0)
(0 0 0)
(0 0 0)
(0 0 0)
(0 0 0)
(0 0 0)
(0 0 0)
(0 0 0)
(0 0 0)
(0 0 0)
(0 0 0)
(0 0 0)
(0 0 0)
(0 0 0)
(0 0 0)
(0 0 0)
(0 0 0)
(0 0 0)
(0 0 0)
(0 0 0)
(0 0 0)
(0 0 0)
(0 0 0)
(0 0 0)
(0 0 0)
(0 0 0)
(0 0 0)
(0 0 0)
(0 0 0)
(0 0 0)
(0 0 0)
(0 0 0)
(0 0 0)
(0 0 0)
(0 0 0)
(0 0 0)
(0 0 0)
(0 0 0)
(0 0 0)
(0.0030389265 -0.0020234111 -0.0043810244)
(0.0037046072 -0.0026169717 -0.0029760965)
(0.0044332705 -0.0027413631 -0.0015450005)
(0.0047237945 -0.002906764 -0.00036431989)
(0.004583833 -0.0026821523 0.00083188195)
(0.0043649117 -0.002802225 0.0021015406)
(0.0035760152 -0.0018797023 0.0035092569)
(0.0061164144 -0.01068614 -0.0068963042)
(0.0075705518 -0.011698352 -0.0039124011)
(0.0081882608 -0.010984115 -0.0017719662)
(0.0083058508 -0.010625522 -6.7530474e-05)
(0.0083986916 -0.011209958 0.0016442998)
(0.0075846027 -0.011091542 0.0036912613)
(0.0067123281 -0.011070964 0.0063306864)
(0.0090438164 -0.01475345 -0.0072920785)
(0.010810449 -0.014171847 -0.0051396754)
(0.011931623 -0.014725269 -0.0023619429)
(0.01210544 -0.01470566 -0.0001999444)
(0.011964717 -0.014383431 0.0022445358)
(0.011070458 -0.014507653 0.0041424008)
(0.0098832497 -0.015136479 0.0073625611)
(0.014580731 -0.021209922 -0.0072311342)
(0.016088253 -0.021498452 -0.0049994115)
(0.016990466 -0.021293004 -0.0022588547)
(0.017343985 -0.02123802 -0.00015844027)
(0.017124948 -0.021299565 0.0022428782)
(0.016322376 -0.021650791 0.0048692077)
(0.014701655 -0.021354906 0.0071554105)
(0.020964444 -0.026433732 -0.0071986998)
(0.02260081 -0.026334218 -0.0049748804)
(0.023754187 -0.026527865 -0.0024381688)
(0.02401127 -0.026469372 -1.6407781e-05)
(0.023861146 -0.026556671 0.0024109652)
(0.022962413 -0.026542129 0.0046659937)
(0.021613345 -0.026752109 0.0073830535)
(0.028920981 -0.031738989 -0.006763705)
(0.03034422 -0.03179799 -0.0046349842)
(0.031312237 -0.031747906 -0.002155845)
(0.031652022 -0.031882372 -1.0635103e-05)
(0.031395857 -0.031835536 0.0024238165)
(0.030605834 -0.031918259 0.0048010315)
(0.029098746 -0.031847063 0.0070010564)
(0.038043268 -0.036833746 -0.0064694896)
(0.039485803 -0.036972095 -0.0043240464)
(0.040488877 -0.037193264 -0.0020536578)
(0.040762085 -0.037245401 5.5034213e-05)
(0.040626197 -0.037320994 0.0024306595)
(0.039774297 -0.037464704 0.0044962275)
(0.038498751 -0.037388392 0.0068939136)
(0.048384319 -0.041872401 -0.0060264374)
(0.049747145 -0.042086606 -0.0040832745)
(0.050636162 -0.042155009 -0.0018285469)
(0.050966796 -0.042233149 0.00019710164)
(0.050707425 -0.04221697 0.0023259101)
(0.050003683 -0.042164071 0.0044969036)
(0.048643809 -0.042056358 0.0065103358)
(0.059891839 -0.046817502 -0.0056732518)
(0.061180247 -0.046999049 -0.0036925082)
(0.062052091 -0.04720103 -0.0016867468)
(0.062314908 -0.047276112 0.00025573005)
(0.062163902 -0.047413019 0.0023087572)
(0.061418238 -0.047349737 0.0042661223)
(0.06022546 -0.047337774 0.0063721666)
(0.072439662 -0.051612609 -0.0052666184)
(0.073677464 -0.051856702 -0.0034831516)
(0.074493386 -0.051975261 -0.0014967125)
(0.074808797 -0.052140395 0.00041155017)
(0.074557988 -0.052101748 0.002327145)
(0.073904751 -0.052033377 0.004205512)
(0.07271272 -0.051927881 0.0060719089)
(0.086064175 -0.056368942 -0.0048994879)
(0.087225398 -0.056600673 -0.0031589807)
(0.088018061 -0.056812951 -0.0012712582)
(0.08824409 -0.056834326 0.00041588649)
(0.088127924 -0.056923955 0.0022899036)
(0.087448312 -0.056867589 0.0039930667)
(0.086338446 -0.056831626 0.0059413768)
(0.10065575 -0.06101492 -0.0045731124)
(0.10177999 -0.061248032 -0.0028567281)
(0.10247124 -0.06140263 -0.0012012293)
(0.1027713 -0.061533828 0.00054015728)
(0.1025757 -0.061544027 0.0022617522)
(0.10192015 -0.061441591 0.0039238234)
(0.10093293 -0.061365855 0.0057007475)
(0.1162054 -0.065618727 -0.0042297989)
(0.11720684 -0.065812161 -0.0026179739)
(0.11791628 -0.066025901 -0.0010227052)
(0.11816002 -0.066058186 0.00059383421)
(0.11799767 -0.066100111 0.0022317249)
(0.1173933 -0.06608736 0.003766788)
(0.11643081 -0.065938157 0.0054308965)
(0.13259116 -0.070103468 -0.0039300849)
(0.13354887 -0.07031553 -0.0023846538)
(0.13426446 -0.070485961 -0.0009100248)
(0.13444469 -0.070546949 0.00064901081)
(0.13434627 -0.070615627 0.0021765578)
(0.13373732 -0.070511631 0.0036241751)
(0.13288071 -0.070392617 0.0052266277)
(0.14982612 -0.074563338 -0.0036449434)
(0.15076447 -0.074754743 -0.0021722013)
(0.15139256 -0.074899085 -0.00079884324)
(0.15161311 -0.07498493 0.00070062333)
(0.15148951 -0.074987827 0.0020973542)
(0.15095156 -0.074924011 0.003507926)
(0.15012176 -0.074778405 0.0049834637)
(0.16787366 -0.078923788 -0.003374159)
(0.16873422 -0.079096366 -0.0019915829)
(0.16936818 -0.079261634 -0.00069152335)
(0.16955974 -0.07931038 0.00069922902)
(0.16947013 -0.079342652 0.0020519211)
(0.16895006 -0.079258437 0.0033532016)
(0.16818201 -0.079118506 0.0047667103)
(0.18664329 -0.083235782 -0.0031358098)
(0.18749192 -0.08342181 -0.0018221983)
(0.18807462 -0.083551357 -0.00061103201)
(0.18827096 -0.083603287 0.00072706427)
(0.18818387 -0.083620267 0.0019734085)
(0.18770511 -0.083534337 0.0032172173)
(0.18698115 -0.083387505 0.0045439968)
(0.20614855 -0.087497796 -0.0029073407)
(0.2069363 -0.087657522 -0.0016881498)
(0.20751376 -0.087792417 -0.00052635674)
(0.20769183 -0.087838011 0.000719255)
(0.20762654 -0.087851975 0.0019000786)
(0.20717179 -0.087760117 0.0030766322)
(0.20649623 -0.087614186 0.0043232448)
(0.22630449 -0.09171049 -0.0027164552)
(0.22706924 -0.091871903 -0.0015554583)
(0.22761341 -0.091984641 -0.0004675578)
(0.22778938 -0.092027633 0.00071469208)
(0.22773184 -0.092028696 0.001821718)
(0.22730895 -0.091941359 0.0029353813)
(0.22668031 -0.091800295 0.0041048723)
(0.24709931 -0.095883181 -0.0025348966)
(0.24782428 -0.096023509 -0.0014484111)
(0.24835333 -0.096138688 -0.00041832966)
(0.24852096 -0.09618051 0.00069568961)
(0.24848033 -0.096176061 0.0017404934)
(0.24808269 -0.096095451 0.002792299)
(0.24749677 -0.095943053 0.0038938853)
(0.26848475 -0.10002209 -0.0023869029)
(0.26918468 -0.10016451 -0.0013561212)
(0.2696859 -0.10026603 -0.00038336595)
(0.26985804 -0.10029671 0.00067198144)
(0.26982254 -0.10029208 0.0016549607)
(0.26945497 -0.10020278 0.0026518937)
(0.26890796 -0.1000563 0.0036917181)
(0.29043463 -0.10413549 -0.0022524003)
(0.29110038 -0.10426539 -0.0012809974)
(0.29159158 -0.10435806 -0.00035429864)
(0.2917573 -0.10439459 0.00063483242)
(0.29173464 -0.10437631 0.0015747646)
(0.29138798 -0.10429702 0.0025144641)
(0.29087904 -0.10415012 0.003499203)
(0.31290774 -0.1082372 -0.0021405471)
(0.31355727 -0.10835509 -0.0012162478)
(0.31402648 -0.10844626 -0.00034801063)
(0.31419586 -0.10846924 0.00059856839)
(0.31417628 -0.10846366 0.0014883571)
(0.31386011 -0.10838329 0.0023742093)
(0.31338457 -0.10823144 0.0033159419)
(0.33589242 -0.11231311 -0.0020438722)
(0.33651867 -0.11244222 -0.001176561)
(0.33697041 -0.11251008 -0.00034077204)
(0.33713768 -0.11255068 0.00055342757)
(0.33713412 -0.11252406 0.0013982461)
(0.33683549 -0.11243746 0.0022481372)
(0.33638669 -0.11229123 0.0031463184)
(0.35933635 -0.11640425 -0.0019919816)
(0.35996419 -0.11651535 -0.0011405535)
(0.36038529 -0.1165779 -0.00036068231)
(0.3605793 -0.11662244 0.00050756186)
(0.36055647 -0.11658892 0.0013133223)
(0.36028684 -0.11653635 0.0021250548)
(0.35986465 -0.11639527 0.0029719097)
(0.38324214 -0.12050081 -0.0019373261)
(0.38386244 -0.12059642 -0.001136117)
(0.38426528 -0.12067405 -0.00037575557)
(0.38445596 -0.1206976 0.00048062545)
(0.38442778 -0.12066641 0.0012085246)
(0.38420893 -0.12061539 0.0019902558)
(0.38381203 -0.12046018 0.0027943023)
(0.40758949 -0.12461438 -0.0019109228)