/*--------------------------------*- C++ -*----------------------------------*\
  =========                 |
  \\      /  F ield         | OpenFOAM: The Open Source CFD Toolbox
   \\    /   O peration     | Website:  https://openfoam.org
    \\  /    A nd           | Version:  6
     \\/     M anipulation  |
\*---------------------------------------------------------------------------*/
FoamFile
{
    version     2.0;
    format      ascii;
    class       pointScalarField;
    location    "1.39";
    object      E;
}
// * * * * * * * * * * * * * * * * * * * * * * * * * * * * * * * * * * * * * //

dimensions      [1 -1 -2 0 0 0 0];

internalField   nonuniform List<scalar> 
3969
(
44391.385
35297.726
9278.814
-20240.309
47975.35
38230.401
-17319.315
5255.1404
20471.948
8899.9186
2781.5103
2389.7677
5756.9577
13837.512
29725.371
-568.24655
-9560.0482
-7486.0741
-1917.1535
4508.5675
8328.6622
5820.6999
40754.289
32826.764
33442.798
33790.324
33991.669
33888.298
32968.298
32811.159
31330.332
30856.679
30337.985
29221.071
28777.421
27713.6
26939.833
25347.783
24451.383
22606.328
21088.637
18898.895
16702.652
14185.321
11556.529
8893.2542
5820.6583
2979.2701
-401.8812
-3794.1488
-7033.922
-10601.925
-14104.538
-17478.061
-20785.382
-23925.841
-26542.412
-28771.145
-30371.786
-31884.844
-32263.866
-32824.522
-31382.067
-30933.202
-27558.687
-25884.757
-20966.548
-17780.053
-5191.7654
42691.249
28219.674
37812.843
33026.272
35330.717
31621.254
31339.843
28927.234
26921.298
25400.852
22437.136
21139.396
19131.244
17525.828
16026.224
14657.159
13932.494
12636.948
12348.907
11922.502
11885.939
12530.439
12836.532
14402.958
15555.789
17939.685
18658.559
21206.679
23489.31
25385.05
28531.597
30513.464
33368.111
35317.113
37524.092
39364.526
40062.785
40287.044
40294.562
38850.394
37159.939
33629.476
29736.857
24408.344
19126.87
12665.988
1131.7996
24403.043
10821.231
3795.2085
4770.1356
5916.7666
13124.741
27084.839
57927.402
47937.098
26175.664
43981.043
37669.159
36769.718
36941.045
30936.579
33422.919
26517.597
29249.779
26655.115
25580.1
24807.014
21708.468
22033.35
19311.588
19117.49
17887.971
17288.168
17006.589
16671.349
16838.717
16727.523
17459.711
18375.836
19669.415
20818.533
22585.295
24057.411
25581.954
27429.743
28719.707
30004.435
30365.163
30772.921
34600.595
29828.949
28534.845
26459.425
23336.772
20315.911
15988.126
11480.866
6531.859
557.75646
2955.3543
7468.819
6357.7053
5832.5904
1611.5707
-3446.8118
-10017.886
-837.1151
-4776.2164
-5466.3109
-6546.7282
-9594.1625
-11872.588
-13765.75
-15194.229
-16265.535
-16706.152
-16608.124
-15555.131
-16586.396
-15617.839
-13796.542
-12361.111
-10496.288
-8562.7173
-6247.2546
-4096.0036
-1541.631
690.71516
3285.2804
5381.1647
7575.033
9644.03
11662.809
13582.759
15374.015
17264.453
18740.64
20642.765
21975.014
23947.103
24215.012
26110.04
27082.7
28792.412
29281.471
30408.753
31526.539
33845.073
32234.781
36603.113
32665.496
34304.659
31676.659
51451.821
26964.181
28944.175
27536.172
28428.502
27704.616
27579.817
27749.102
23290.495
24783.959
26109.622
26836.509
26977.671
28408.545
23561.488
-19476.339
-19073.834
-19198.176
-19033.414
-19157.034
-19028.089
-18494.384
9066.7981
8625.9088
8626.626
8726.2159
8685.6814
8788.8248
8007.6571
25962.977
18666.8
20412.588
19777.619
20203.277
20922.718
19907.343
20520.793
19450.759
19563.893
18963.531
18145.995
17850.975
16849.951
15991.82
15098.7
14477.772
13124.968
12258.732
10859.272
9682.7768
8264.3885
7058.9
5483.3859
4149.7735
2880.1002
1610.5564
591.64799
51.448728
-669.4053
-990.00356
-1221.1661
-1593.9733
-1609.4055
-1628.1941
-1740.6346
-1554.031
-1555.2484
-1161.7016
-823.64261
-398.47692
358.22643
1059.7277
1339.3157
2966.3243
2765.4904
5757.7111
10863.281
7915.1148
8904.2993
8480.189
8930.03
9530.5947
8943.1076
9607.7244
8831.5123
8958.4051
8477.3224
8128.3294
7726.6706
7085.3375
6747.6553
6070.5047
5371.0605
4582.8349
3923.5627
3270.8036
2682.5196
2342.2417
1749.4921
1676.8139
1618.4751
1598.8465
1832.0729
2271.4326
2693.4433
3412.3954
4216.4673
4874.5775
5644.6456
6347.1725
6935.4466
7478.5922
8090.6732
8020.319
8720.6535
8242.4515
9084.1698
8109.5952
8901.1144
7494.9709
8488.0757
5528.1678
4095.6732
4705.3329
521.28557
2911.8376
1112.1904
2106.7508
1777.7972
2245.2952
2296.778
2023.0164
2386.3329
1878.4245
1820.794
1262.9399
946.50406
229.0129
-216.89891
-393.85854
-759.09307
-696.17048
-1098.4444
-1139.2804
-1507.1363
-1121.9128
-673.14753
-141.19309
665.46253
2104.6929
3123.434
4908.522
6539.2994
8120.453
9838.8751
11324.622
12806.822
14066.898
15192.699
16075.436
16856.887
17426.802
17252.453
16877.588
15778.811
14856.003
12323.096
11076.899
6164.0259
1895.3155
3095.4585
405.61631
1193.1186
1237.92
787.83988
1263.919
528.71142
398.4957
191.44852
-686.83117
-773.74603
-927.65906
-1639.096
-1354.3635
-2266.8281
-1673.405
-2299.2051
-1781.4841
-2025.7235
-1637.8878
-1058.8089
-45.046527
898.11324
1537.8463
2243.0292
3315.808
3947.5186
4835.7401
5829.6085
6652.6997
7583.9945
8558.7545
9194.0135
10139.14
10582.239
11110.964
11549.478
11493.08
11893.471
11555.233
11533.757
9995.7291
9500.4938
6938.5402
6562.8629
1876.1328
-485.74261
8044.8918
4325.7437
6255.8395
4783.0559
5122.7279
4774.947
4263.3746
4071.4453
3851.1149
3236.0131
3964.2203
2776.0857
2933.7527
2242.3262
2114.5223
1669.8864
1483.3218
1251.165
1107.8988
1008.2316
1198.8765
1172.0771
862.5799
236.32315
-165.15201
-1033.2339
-1744.2077
-2324.5486
-3056.6825
-3830.1828
-4659.1658
-5393.8639
-6471.6066
-7099.8053
-8288.7492
-8869.6941
-9688.9174
-10187.531
-5813.5459
1963.1548
1553.48
1270.3683
543.10352
-329.04231
-1130.1358
-4009.2372
-1418.4783
18176.236
14519.737
16581.967
16458.859
16768.342
16847.676
16475.308
16003.624
15862.931
14881.025
14976.956
13886.048
13773.535
13091.103
12419.395
12131.255
11350.362
10957.625
10297.527
9617.445
9091.2065
8507.246
6184.7839
5355.9432
4230.385
3239.8392
2171.1502
813.75387
-756.65547
-2242.8204
-3845.3088
-5647.8606
-7323.9596
-8816.3105
-10773.516
-11748.322
-13137.014
-14327.204
-14599.916
-13386.763
-14439.762
-14862.78
-14457.24
-13944.591
-12895.421
-11140.176
-2038.3972
26443.467
22775.48
24555.643
24799.208
24654.98
24511.389
23900.462
22730.18
23111.767
20924.488
21704.573
19367.39
19321.561
17575.806
17175.33
15903.311
15262.963
14183.952
13275.044
12218.776
11022.454
9583.0058
8231.1951
6396.2324
4830.8748
3599.8349
2015.767
596.36109
-811.59255
-1958.3526
-3479.8187
-4640.5737
-6106.751
-7172.817
-8652.4598
-9220.4352
-10426.877
-10004.845
-10142.761
-14954.175
-15359.113
-13275.741
-10801.064
-7875.8194
-4708.911
-383.12961
5351.5511
10048.724
10657.814
8207.5391
8168.567
8662.928
9496.898
13012.35
4642.5509
4930.954
3514.9077
3977.5988
4075.2163
4852.2771
6275.5277
1189.9638
327.42014
-564.44497
-202.83014
-378.53885
144.114
1413.6225
1035.861
164.01343
-9.0080881
-73.603655
204.59421
1032.425
2466.8027
2268.988
1092.6359
808.6259
660.76108
905.29288
1735.3315
3264.5167
7748.5272
4565.4726
4241.192
3482.2304
3937.0527
4919.6188
8236.5901
15181.205
14183.683
11975.433
12128.019
11978.097
13172.521
17564.717
47341.298
43343.615
46434.316
49743.53
49260.175
51523.948
50026.105
42197.523
43018.196
37872.691
36126.396
42032.277
41880.264
45320.469
33575.286
35228.465
38168.226
36794.697
36144.645
36113.491
40684.781
38533.536
40781.308
38208.962
39224.771
39722.269
41340.096
38587.597
35198.855
36124.61
38663.214
38187.725
38007.272
37605.12
39726.325
36154.042
34751.846
34593.004
35269.049
35051.123
35479.13
35237.543
33232.081
32633.893
34409.339
33832.249
34800.933
34815.424
36570.633
31855.201
31062.559
31326.625
31015.892
30066.329
30767.532
30905.698
30241.562
28598.299
28995.451
28925.53
30102.378
30175.274
32619.766
27277.15
26567.942
26226.544
27727.476
26145.883
26399.454
27472.563
26735.773
25151.576
25863.728
23808.278
25389.769
24904.347
27147.022
23745.602
23472.632
22559.599
23987.222
23582.322
21745.861
25801.87
23165.907
20913.238
21723.763
20181.357
20819.29
20960.978
23192.54
20275.394
19256.494
20428.86
19248.135
21039.517
19128.587
23248.258
19518.829
18453.926
18292.708
17647.761
17883.378
17099.525
19969.061
18232.217
16258.625
17657.077
16302.741
17794.21
16542.502
20007.753
16574.591
15758.518
16358.726
14864.282
16182.311
14638.702
17755.649
16180.772
14628.953
15732.133
14353.594
15655.682
14298.073
17163.901
15354.287
13901.673
15340.89
13258.899
14925.494
13279.046
16406.211
15103.042
13833.116
14914.949
13365.6
14763.877
13220.361
15927.011
15244.609
13582.028
15099.615
13020.383
14522.724
12848.722
15799.213
15449.718
14090.182
15168.002
13352.727
14830.873
13136.057
15952.098
16296.8
14624.551
15743.47
14038.377
15377.716
13807.243
16615.486
17221.345
15889.312
16592.967
15107.567
16177.727
14492.077
17054.035
18626.158
17534.428
17228.973
16890.393
17223.347
16044.926
18587.225
20466.636
19169.688
18767.731
18391.962
18051.702
17663.858
20056.872
22349.754
20999.658
20910.3
20009.501
21455.391
19632.228
22026.883
24618.511
22681.101
23510.513
21869.466
22715.834
20246.741
23596.199
25493.852
25243.647
24421.27
24503.033
24401.374
23758.473
25366.682
28463.887
26314.59
27480.411
26271.614
26965.086
25369.447
27297.498
29572.717
29314.348
29075.529
28863.018
28780.943
27883.442
29313.436
32298.942
30955.214
31406.291
30974.316
31138.27
30228.84
31544.126
33698.031
33129.442
33288.936
33275.968
33125.253
32463.799
33725.294
35656.995
34964.295
35200.197
35103.086
34794.343
34340.618
35598.247
36849.081
36413.015
36332.531
36636.947
36378.714
36260.774
36867.285
38225.632
37437.321
37590.941
37689.508
37061.649
37729.177
38063.061
37875.166
37166.863
37419.737
37711.222
37768.724
33641.916
35846.654
34507.653
33957.626
34211.303
34538.396
33845.733
38406.401
37840.875
36725.779
36139.119
36700.495
36337.27
36201.582
36120.133
37432.364
35313.786
34633.493
34383.332
34844.699
34185.303
34346.434
35415.513
32580.444
31667.632
31893.795
31868.222
31543.83
31639.859
32350.014
29059.33
28203.377
28065.175
28421.929
27863.482
28146.753
28682.238
24520.632
23895.779
24192.451
24179.423
23816.775
24075.046
24348.146
19225.534
19028.375
18822.893
19036.224
18585.945
19077.327
18957.699
13708.013
13480.362
13516.446
13593.437
13446.767
13753.481
13416.244
7271.1376
7475.6736
7225.8065
7533.06
7198.8246
7530.6049
6960.7256
1342.7504
1502.0222
1531.0102
1487.4444
1631.5036
1642.9264
1841.4761
-3114.0843
-1634.6804
-1667.5427
-1542.3155
-1636.9844
-1687.4226
-1754.8944
-12920.425
-10372.579
-10715.567
-10630.817
-10839.703
-9943.1928
-11545.602
-5266.5875
-5226.6004
-4935.8201
-4920.7593
-4954.5818
-5812.2669
-6152.6175
-1214.0892
-778.3232
-935.55455
-685.30548
-1223.3813
-537.02961
-1877.202
6144.7048
9929.944
7981.2496
7646.0006
8153.0015
7673.1253
6711.9255
10045.883
9516.8379
8605.5152
8957.3581
7495.7549
8882.6961
7179.2815
5938.7701
6706.119
6825.6198
6709.3926
7798.721
6958.3773
6884.3843
39240.987
34994.931
33075.48
31836.167
32586.3
34095.878
33956.937
37543.076
34253.344
35092.928
35071.755
34771.457
35025.627
36491.864
39401.898
40755.328
39390.523
38746.946
40466.797
39007.003
39266.137
36953.391
37785.42
38167.666
38908.005
37763.773
36159.085
36368.792
38760.297
39172.215
40056.283
39632.277
39805.824
38276.851
36784.895
34869.19
35892.707
36008.066
36016.603
35541.364
33582.064
33677.201
36606.612
36302.85
36809.682
36499.22
36386.297
35689.417
34813.968
33186.141
33524.805
33613.889
33234.098
32778.32
31729.756
31745.341
33795.689
33395.907
33874.167
33177.724
33590.028
31527.21
32308.71
32241.38
31653.701
31806.807
31330.425
31007.296
30071.448
30173.236
31146.702
31093.415
31414.294
30785.569
30878.027
29400.298
29622.268
30495.176
29945.539
29796.58
29916.294
29424.376
28847.551
28736.911
29536.219
28815.873
29333.168
28408.631
28720.204
27174.049
27829.642
28444.63
28021.362
28083.139
27689.5
27648.206
27225.314
27266.239
27362.026
26555.315
26972.644
26895.494
27083.572
25031.45
25714.507
26042.015
25338.122
25841.628
24567.864
25331.345
24403.866
24335.835
24587.539
24404.395
24302.16
24216.892
24171.577
22913.529
23278.388
23213.475
22426.29
23017.187
22230.519
22413.95
21440.723
21520.065
21091.773
20964.453
21135.9
20526.933
20994.147
19790.293
20004.403
19322.06
18876.924
19139.875
18752.086
18940.264
17882.125
18123.393
16908.857
16584.373
17069.816
16429.456
16885.395
15916.817
16232.822
14593.741
14292.554
14580.417
14151.055
14613.056
13566.595
14114.888
12023.416
11480.769
12007.838
11555.362
12031.412
11174.148
12098.779
9545.9639
8979.4258
9444.3706
8953.4157
9535.7548
8787.6227
9983.3103
6902.4019
6232.3642
6643.1556
6301.4678
6817.3187
6128.4761
7723.7863
4480.038
3331.039
4078.5977
3543.8624
4171.9201
3569.9326
5613.3977
1489.3083
563.86643
1026.0888
634.06705
1217.6501
648.29318
2928.0592
-1313.7112
-2526.5634
-1963.025
-2249.5939
-1568.1434
-2172.4279
450.91326
-4569.7774
-5824.9259
-4880.8414
-5563.7897
-4828.9427
-5412.4443
-2633.4122
-7858.182
-8647.7564
-8303.6168
-8692.5668
-7873.9448
-8411.6887
-5472.5589
-10904.037
-12004.012
-11419.514
-11754.767
-11024.93
-11587.739
-8462.3496
-14038.467
-14896.801
-14415.478
-14740.986
-14110.837
-14527.176
-11272.86
-16890.287
-17716.244
-17351.072
-17697.187
-17054.981
-17401.215
-13989.387
-19438.368
-20257.712
-19980.012
-20098.198
-19618.127
-19802.357
-16234.589
-21596.14
-22564.413
-22236.627
-22381.751
-22170.877
-22049.667
-18726.591
-23544.444
-24342.791
-23996.967
-24382.992
-23859.162
-26605.661
-22969.881
-27608.889
-28602.151
-28632.95
-28591.715
-28151.549
-25854.333
-19837.119
-25740.014
-26719.797
-26736.395
-26692.738
-26401.742
-26299.931
-22554.32
-25928.229
-26541.523
-26645.423
-26568.828
-26528.365
-26600.569
-22355.387
-25676.614
-26753.283
-26817.598
-26550.255
-26635.648
-26363.264
-22594.069
-24743.11
-25531.317
-25395.452
-25321.436
-25419.365
-25479.405
-22116.857
-24057.029
-24808.277
-24852.675
-24816.469
-24882.68
-24574.519
-21135.693
-21410.855
-21875.059
-22033.976
-21770.203
-21941.267
-21799.829
-19455.652
-19951.91
-20649.571
-20573.63
-20565.527
-20773.279
-20534.78
-17750.31
-15869.723
-15991.92
-16115.271
-16053.405
-16236.218
-15705.791
-14025.575
-13594.193
-13859.136
-13895.893
-14012.923
-13893.805
-13883.2
-12778.696
-5003.3791
-4925.0475
-5169.7982
-5084.8043
-5118.3664
-5069.4619
-4943.4166
45125.172
28455.932
25083.142
24093.253
25858.562
25092.555
24349.014
23876.569
22822.757
22112.337
21441.117
19296.961
18637.898
16967.581
15379.327
15325.626
13737.165
13071.948
11998.55
11425.069
10519.31
9999.6875
9195.3113
8543.1444
7735.9174
7309.1696
7312.0366
7266.3101
7832.4522
8528.7272
9604.3658
10637.575
11736.316
12561.567
13724.251
14010.013
16357.887
14288.592
14446.903
14122.486
13871.826
13304.688
12517.551
11407.076
10088.59
7425.4002
10807.305
19596.24
17614.285
12136.391
12105.776
14537.941
11266.804
13671.046
12588.592
13058.615
12532.382
12088.484
11698.671
11379.289
10591.391
10471.944
9893.658
9442.7964
8796.052
8603.4495
8115.4431
7872.5099
7633.6088
7435.8807
7467.8173
7487.6429
7250.602
7771.6997
9344.2627
9863.7962
10566.939
11023.063
11441.688
11553.737
11798.113
11518.351
11301.39
10797.475
9595.0656
9443.8673
7885.5666
6954.7782
5218.0818
3867.3968
1458.7906
708.52716
-3803.8171
3293.6619
6675.9683
4576.7364
3899.4451
3366.4179
3802.7256
2299.1946
3943.2392
2620.7221
4020.8439
3197.2134
3615.5068
4016.5616
4553.2492
5376.19
6049.7122
5660.5354
5970.2967
5716.6285
5310.4585
5120.4843
4509.6199
4073.3802
3438.3563
2638.9503
2097.6269
1143.1323
971.38425
-451.07905
-890.2367
-1780.5137
-2442.3646
-3323.9493
-3891.2331
-4639.0009
-5317.7509
-5755.1619
-6353.4426
-6567.1888
-6796.6448
-6976.0946
-7008.7453
-6714.9223
-6789.3901
-6084.2884
-5614.4085
-5404.0896
-878.51455
2581.7771
2723.3071
-934.91265
3172.8008
-799.18227
3006.9147
-1479.4968
2195.6742
-0.58661042
746.92003
1610.7784
284.14821
1340.2149
4862.2861
3915.7935
4253.0571
4138.155
3542.2017
3601.1309
2979.615
2578.4609
1958.8933
1212.7485
830.70949
69.765192
-286.66067
-1217.5374
-1795.4723
-2651.6303
-3474.6803
-4316.5211
-5172.6214
-5873.9642
-6879.2549
-7439.1756
-8161.5881
-8817.5406
-9384.2025
-9526.7971
-10026.845
-9731.155
-9928.327
-8975.0398
-8965.4224
-6600.9705
-7595.5553
-3099.2928
6709.1096
2788.8411
4696.4186
3671.6178
4929.0151
4046.9262
5361.4603
6130.7724
4436.7556
7151.8629
4501.9541
6531.5363
5721.3998
5770.8022
5792.4042
5466.2267
4917.6497
4646.4127
3938.8147
3431.3885
2666.6858
1843.1399
1266.9184
66.103624
-1157.0324
-2746.4969
-4163.4255
-5458.7817
-6803.1893
-8211.6706
-9611.2407
-10995.598
-12429.121
-13629.888
-14569.779
-15705.077
-16191.043
-16396.092
-16689.365
-15772.081
-15263.352
-13390.818
-11917.07
-9158.0327
-6538.3906
-3435.8731
-2693.3928
13513.046
14652.336
11061.92
16495.163
11700.437
15683.601
14474.009
13037.54
14934.714
12948.323
13695.983
14255.82
11404.289
12742.828
10804.832
10483.006
9625.5506
8748.66
8144.5068
7238.6098
6529.2751
5721.1688
5082.8397
4048.2423
2886.3893
1608.322
1792.1215
1127.0306
753.13325
155.1675
-60.689048
-748.56805
-1134.1339
-1302.2518
-1737.7607
-1840.3227
-1654.5462
-2046.7106
-1048.1536
-1172.8655
-331.86056
50.076214
1088.8658
1389.9877
3145.3546
2615.8617
2708.686
34509.8
22068.979
27865.115
22214.649
27638.789
24473.407
25582.046
23755.127
24340.251
21867.838
21623.897
22153.779
19570.861
20233.549
17724.818
18185.3
16603.654
16011.628
14813.678
13573.251
12132.726
10469.124
8723.9729
6455.1672
4562.5129
2580.8213
498.00691
-738.25098
-2605.1043
-3783.5592
-5564.8851
-7253.238
-8695.5927
-10077.027
-11571.511
-10687.6
-12383.821
-11937.355
-11897.596
-9886.8796
-8041.7442
-5511.7937
-2846.1109
198.05691
2992.2367
5692.9999
8620.0551
31088.868
25776.773
25275.814
24465.796
24843.394
24253.884
25574.938
26920.874
28173.202
25381.304
25404.424
24679.446
25300.553
26182.643
25528.051
27787.432
28000.239
27289.745
27312.824
27128.812
27237.928
25424.924
26244.686
26326.849
26687.192
26045.022
25597.606
24129.973
24596.532
26264.275
27976.809
27139.233
27423.303
26482.943
25251.029
24359.22
25251.722
25280.647
26050.218
25435.054
24707.182
24349.634
23666.252
24121.921
25569.62
24834.784
24667.592
24459.926
23234.966
22907.733
23548.659
23819.08
23908.158
24109.166
22833.33
22869.51
22249.951
22776.578
22974.883
23474.837
22558.554
22781.5
21901.967
21406.525
21428.987
22080.029
21424.437
21726.123
21071.247
20810.028
20241.34
21116.05
21010.757
21364.978
21164.955
20844.767
20579.174
19788.566
19497.511
20291.076
19464.727
19611.73
19119.475
18962.929
18620.67
18994.412
18946.755
18980.311
19054.436
18627.367
18200.211
17729.998
17564.779
18444.89
17591.985
18109.158
16853.408
17240.345
16517.23
17035.332
16393.147
16675.306
16241.876
16609.142
15792.772
15831.964
15700.163
15949.568
15887.504
15791.005
15163.303
14710.154
14294.813
14413.331
14476.141
14420.11
14265.79
13986.797
13785.693
13248.811
13402.609
13563.054
13411.145
13431.174
13298.726
12741.293
12193.802
12192.44
12246.361
12198.165
12309.385
11884.601
11509.416
10955.071
11112.086
11201.658
11260.038
11150.418
10979.313
10725.725
10097.655
10071.233
10238.786
10108.209
10145.01
9938.7082
9625.3235
9024.8455
9015.1205
9260.1172
9179.5299
9226.3493
9064.5143
8860.9817
8287.8857
8218.3028
8560.6254
8357.5498
8369.83
8041.0894
8058.4514
7386.3676
7169.2154
7740.0992
7511.321
7563.4763
7372.6084
7440.9975
6796.6584
6418.9208
6964.81
6847.76
6792.3529
6436.1376
6694.76
5944.9591
5568.8788
6383.2052
5938.8868
6104.2458
5744.4441
6160.2072
5580.8285
5057.5318
5826.0936
5617.399
5555.092
5454.7691
5885.1392
5416.1014
4887.4376
5334.6691
5322.0226
5294.8617
4865.4281
5635.6731
5347.0985
4410.2563
5795.4987
5272.027
5216.4506
4991.5033
5873.3886
5532.6118
5208.4964
5654.8608
5288.0369
5527.1508
5079.0414
6090.6886
6088.5803
5213.5156
6066.9126
5984.4766
5881.9142
5390.756
6651.2073
6407.0154
5930.3773
6683.4569
6315.8491
6170.1834
5893.5421
7234.4416
7097.9341
6646.8861
7172.4815
7037.6948
6968.2313
6608.3325
8116.5637
7776.7749
7288.8955
7819.7696
7748.0152
7505.5229
7323.7803
8558.4061
8369.9789
8033.3239
8432.4
8367.1683
8157.3851
7512.7317
9440.8927
8986.7144
8534.0681
8882.4697
8879.4938
8481.5569
8732.1847
9851.3307
8996.9502
9009.3938
9047.2719
9351.048
9279.6765
8425.9573
13238.586
9675.7107
10848.09
11358.189
11475.793
10848.303
11351.03
10424.988
9767.282
9633.5449
9385.9242
9820.4123
9287.5431
9041.9471
11377.648
10188.757
9670.7094
9368.7319
10103.005
9233.1853
9729.2723
11055.477
9936.1788
9581.8597
9374.4658
9968.2891
9282.1077
9501.8899
11040.882
10138.839
9655.7855
9323.3583
9943.1845
9201.3324
9714.0497
10873.896
9762.1009
9487.1461
9131.6264
9855.1291
9212.3167
9626.7781
10403.546
9278.7611
8712.2904
8638.7291
9103.1194
8468.0186
8927.2324
9930.6808
9384.3122
9195.1784
8988.5312
9444.2852
8965.7352
9812.0158
9727.2674
7913.9548
7475.0634
7481.555
7779.802
7568.03
7693.1148
7562.2835
9227.4374
9015.5869
8916.8994
9032.4641
8864.3505
8963.8117
9085.9675
12656.609
9162.5016
8164.1591
7812.3463
7540.2475
8020.5471
9016.2683
13183.967
14773.741
13319.649
13941.007
13796.008
14170.739
14507.002
12376.914
12870.978
13009.36
12417.954
12816.164
11967.214
12793.354
12003.988
13380.63
14063.55
14259.485
13731.093
13618.855
11574.318
12446.866
13092.67
14568.131
13838.468
14615.323
13152.135
12971.908
12168.226
12895.861
12400.253
12634.403
11898.44
11712.634
11209.53
12193.111
12503.536
13732.757
13498.462
13566.699
13132.04
11704.309
12135.397
12761.736
12113.24
12345.745
12017.225
11286.101
11181.403
11958.006
11951.435
12384.541
12449.186
11678.126
11834.566
10933.531
11687.945
11929.619
11902.946
11669.707
11822.338
11175.34
10911.154
11378.551
11535.165
11451.779
11635.944
10814.797
10699.673
10061.885
10932.981
11210.234
10748.322
10823.118
10568.746
10269.407
9929.4851
10499.284
10601.379
10624.201
10986.177
10184.974
10122.449
9098.0389
9812.4744
9728.1922
9998.3016
9479.7328
9285.0757
8908.9678
8872.8329
9487.7822
9385.3784
9495.1131
9198.8694
9507.0383
8609.2476
8356.0628
8853.0869
8153.729
8762.4686
8257.9256
8387.8981
7571.1237
7516.8165
7889.0069
8000.5263
8073.8634
7737.9433
7903.808
7284.73
7402.1521
7532.2207
7157.4159
7302.5594
7162.4232
7176.1647
6620.8811
6536.0087
6594.9526
6505.6107
6691.1353
6426.4886
6621.5216
5974.8837
6140.1468
6172.5716
6023.7601
6060.1795
6038.4506
5970.1088
5491.3872
5741.1988
5401.9857
5374.435
5540.8497
5356.1504
5460.6429
5233.4893
5312.3245
5056.4747
5297.1079
5163.1105
5115.1757
5295.3616
4805.6732
5132.7795
4748.24
4802.4972
4739.9944
4860.0324
4701.7643
4840.8946
5070.4636
4830.4009
4846.8668
4858.9966
4585.6252
4822.4153
5127.8534
5283.2394
4952.9076
4936.5626
4888.3116
4596.456
4952.8897
5022.8223
5139.7553
5599.8472
5346.4968
5406.2447
5226.1529
4961.1737
5552.5082
6097.3079
6158.6096
5945.8536
5749.459
5346.0865
6240.3151
6491.0443
6813.8638
7466.9826
5824.3512
6404.0958
6380.6482
6485.2929
7219.487
7244.243
7670.3447
7501.6514
7596.4287
6894.7473
7258.8813
8291.2496
7908.4515
8965.9061
8249.9644
8041.9664
7855.7439
8330.1795
9210.1344
8838.4303
9897.9406
8892.5975
9053.4253
8944.5106
9037.9514
10174.678
9850.6225
10839.243
10034.667
10087.899
9816.0866
10028.343
11434.508
10910.381
11997.51
10751.27
10774.492
10638.733
10954.505
12312.936
11625.856
12811.331
11444.992
11609.275
11552.099
11628.698
12846.076
12569.085
13609.859
12010.549
12191.242
12095.115
12085.112
13986.178
13462.064
14175.61
12315.989
12550.075
12495.787
12771.023
13930.102
13574.285
14763.746
12713.215
12856.461
13067.001
12404.638
14655.678
13961.733
14722.129
12161.544
12785.458
12793.384
12866.623
14532.253
13889.793
14827.258
12322.08
12806.757
12581.733
12466.48
13715.62
13644.642
14132.745
11039.072
12104.432
11586.582
11907.612
13233.66
13098.582
13696.592
11100.084
11986.736
11566.174
11645.751
12464.483
12232.395
12053.353
9222.1104
10243.568
9589.2685
9846.1213
10675.52
10982.626
11261.692
9049.3486
9787.9444
9476.4665
9670.9548
10156.641
9948.4241
8761.2465
6514.7379
7213.4075
6754.3538
6722.4187
6961.7808
7391.1514
8117.9569
6612.427
6964.4239
6716.0871
6857.3536
7344.9959
7050.4003
3849.6956
2137.8166
2479.1027
2092.0474
2278.2746
1851.003
1604.7442
3737.8464
3441.0619
2893.5475
2865.2638
2880.8607
2983.8201
3453.0094
5214.4127
4232.3083
3431.12
3304.6334
3001.7494
3282.3414
3315.7454
2658.6961
3189.6383
2453.8697
2705.333
2571.0552
2427.4756
2985.9742
4691.0562
4782.2779
4657.1047
4552.4454
4201.7474
4084.0619
4145.8948
2699.8284
3314.3502
4293.2604
4752.3674
4425.6477
4475.8083
3285.6167
4732.6118
5200.6405
5555.139
4688.2396
4639.3485
3490.9212
4079.3714
3471.3359
2463.8603
2877.7543
3462.4735
3128.1081
3147.4973
2556.2688
4430.1085
4005.5631
5333.308
5200.1537
5407.0153
4623.9465
4355.4955
4268.5354
3224.7074
3131.4755
2768.6259
2469.0153
2628.6703
2254.5118
3929.504
3296.6097
4180.9812
4441.9122
4890.7176
4471.5407
3885.4931
4549.1316
3547.478
3515.5489
3346.7584
2848.1401
2900.0315
2479.2142
3983.7854
2975.0595
3487.5553
3270.3261
3705.6984
3420.5617
3094.2846
4249.5724
3174.4872
3281.4252
3334.9508
3351.3337
3181.4785
2763.4673
4041.1468
2394.2298
3163.8669
3004.3159
3272.1227
2993.1707
3285.7453
3360.0587
3086.6379
3288.7869
2888.1052
3386.9597
3061.6632
2755.907
3140.3794
2826.8984
3017.2884
3113.8836
2577.2183
2840.1267
2732.8696
2626.5932
2841.2331
3073.7987
2833.4148
2826.871
2560.3119
2878.2964
2749.1671
2465.8826
2809.3847
2862.6382
2311.525
2513.9523
2525.6489
2364.1798
2054.5597
2800.7096
2340.7273
2272.4209
2370.4914
2525.488
2366.1193
2060.7669
2506.7401
2342.1307
2007.6018
2119.7342
2227.0029
2157.5851
1566.0911
2342.7157
2000.0065
1798.0137
2098.2386
2267.5211
2281.9962
1720.1407
2276.012
1957.1247
1852.9901
1837.9776
2109.5415
2400.7872
1390.2735
2080.1088
1889.4835
1563.0012
1822.7231
2222.2952
2603.256
1556.1789
2368.329
1636.6932
1920.6503
1797.7642
2369.5302
2988.1563
1614.7777
2271.4255
1941.5077
2225.0909
1663.4265
2216.5637
3425.5124
1670.8138
2611.2829
2319.0269
2450.4555
1743.0369
2969.6428
3925.5013
1904.9636
3038.4966
2172.1542
2687.4354
2103.057
2611.8328
4991.2202
2363.265
3330.1266
2547.0268
3603.5647
2127.9516
3679.0761
5438.9949
2808.2617
3618.0213
3386.4841
3703.9422
2473.119
3973.1559
6482.7395
3707.3267
4718.4403
3440.0434
4704.4523
2923.6248
4740.4621
7424.3295
4026.4055
4628.2976
4105.9333
5176.4601
3152.7133
5306.7241
8197.111
4737.5107
5686.6841
4986.665
5904.2267
3942.1214
6084.3682
9163.4264
5467.2285
6212.6829
5256.5231
6375.533
4336.7152
6423.3667
9883.8236
6065.2104
6660.1921
5990.0033
7006.9273
4746.6672
7052.9447
10558.923
6593.7994
7305.4277
6435.7111
7342.7536
5482.5942
7521.5552
11072.023
7136.5515
7640.6385
6710.1266
7825.8664
5674.5538
7500.6854
11478.006
7453.7611
8025.2636
7102.7901
7982.9617
6171.0507
7827.3209
11510.141
7613.0254
8082.2851
7099.6868
8285.5448
6153.9187
7861.933
11376.25
7527.1577
8212.5513
7160.4138
8103.6431
6375.3826
7385.3224
10749.518
7755.905
7848.0886
7147.727
7765.2772
6237.3008
7265.4009
10246.04
7395.9534
7227.8378
6990.2922
7369.6281
6465.6029
6691.4548
9143.6504
7116.6656
6646.3844
6635.6549
6680.0642
5712.2051
5780.2335
8231.9077
6158.7908
5715.9975
5866.1916
5666.9126
5641.6431
5194.9448
6792.7769
5569.0531
5001.3619
5291.3679
5079.7444
4989.5905
3744.3505
5098.3225
3850.2634
3337.6017
3775.6129
3121.662
3497.7455
2611.4917
3898.8778
3176.9619
2760.8784
3178.9106
2555.9195
3794.0253
1724.771
696.72107
128.26648
14.442793
318.7323
-118.67938
314.62327
-1504.996
-821.94836
-952.99943
-1268.824
-1069.5537
-1330.238
-779.24834
-953.23628
2341.5124
2122.8762
1533.5248
1570.8138
1360.2807
1459.8214
877.68749
934.07481
1806.9291
2023.6049
2567.1185
2519.5779
2630.7251
2670.8749
995.54908
431.3555
61.294669
31.571007
-10.059281
6.3726356
-544.69515
1544.6813
2676.9164
3627.8198
3927.166
4243.1241
3951.2175
3358.8177
899.76642
408.98793
-168.49919
-905.68262
-1034.0892
-1055.5316
-642.33853
2193.7476
2227.1652
2641.291
2998.3257
3285.2602
3283.9103
2900.8047
1284.6288
696.45149
-62.242346
354.66657
-247.01738
-466.58891
103.14797
2359.0417
1832.9438
1832.5949
1882.7022
1744.2801
2323.2441
2101.7635
2226.2786
1552.4444
1290.0427
853.05771
1572.2103
600.82777
1579.0585
2278.3187
1768.0306
1067.7413
1277.52
978.16696
1481.7978
1656.3107
2596.0488
1172.5534
2376.0636
1293.9728
2402.4096
1740.1971
1909.3787
2529.4137
2023.9569
1791.0201
646.86169
1629.3941
1176.1063
2366.4088
2883.2588
1291.3761
1484.7875
1602.9963
2510.5334
1762.5721
1580.4704
2682.0204
1625.8755
818.883
748.26466
1607.9097
1309.106
1850.311
1368.713
1220.8936
2197.8289
621.51128
2229.6359
1183.4213
1503.3707
1508.6195
1233.5188
1922.2459
964.75173
1566.1469
1114.999
1607.8746
1328.9458
1074.8289
1888.6415
808.85159
1752.6732
1322.7178
1828.2587
1454.0811
1381.2219
1935.3178
943.17303
1630.5894
1060.2199
1694.986
1160.9129
1074.2501
1780.1016
706.72374
1649.865
1225.4538
1785.8913
1344.0286
1334.2244
1808.8829
836.03603
1700.7649
936.29805
1647.0421
1228.2579
955.72239
1669.4547
808.00145
1399.3247
1090.1558
1631.6161
1346.8002
1132.5005
1785.1112
618.71724
1508.4272
1057.7114
1535.5699
1503.8931
1074.7425
1238.1121
1020.4227
1347.632
1096.6761
1240.7065
1671.2536
821.242
1463.9167
1085.0523
1016.2946
1107.3672
1601.9758
1875.1127
787.80625
1672.2207
630.23786
686.6564
1367.4128
981.29267
2339.3474
975.02733
1439.3917
863.93746
923.53031
1335.7062
1426.9876
2150.7186
819.84214
1468.7669
1183.3646
632.8832
1598.8302
963.99063
2497.0995
821.53899
1786.757
995.98245
931.77029
1717.3587
1060.5708
2743.2156
908.33512
1497.4512
1315.7106
367.16583
1810.7159
881.80953
2653.0346
742.1136
1457.25
1257.3941
695.01408
2200.5575
829.3038
2820.1366
851.53357
1591.1402
1447.7129
547.0765
2104.4205
676.41438
2869.8634
829.65104
1405.6549
1326.3082
353.87294
2259.3163
477.6152
2837.8566
603.16183
1372.324
1344.2634
516.65107
2497.0625
442.80786
2840.5487
614.27212
1300.6897
1317.8071
365.34819
2288.1348
22.343199
2671.2631
422.00522
1092.7093
1193.7688
264.21508
2324.0743
-86.670664
2491.3942
214.64099
827.75866
1000.7447
306.21542
2026.5121
-343.27179
2323.4864
75.116003
592.98302
1014.4324
-171.61051
1929.5154
-794.10591
1793.324
-292.97253
379.84455
472.37965
-144.45172
1485.996