/*--------------------------------*- C++ -*----------------------------------*\
  =========                 |
  \\      /  F ield         | OpenFOAM: The Open Source CFD Toolbox
   \\    /   O peration     | Website:  https://openfoam.org
    \\  /    A nd           | Version:  6
     \\/     M anipulation  |
\*---------------------------------------------------------------------------*/
FoamFile
{
    version     2.0;
    format      ascii;
    class       pointVectorField;
    location    "1.53";
    object      u;
}
// * * * * * * * * * * * * * * * * * * * * * * * * * * * * * * * * * * * * * //

dimensions      [0 1 0 0 0 0 0];

internalField   nonuniform List<vector> 
28033
(
(0 6.7672501e-19 0)
(0 4.6340107e-18 0)
(-1.5136202 -0.38795795 -0.013281691)
(-1.5707295 -0.054880835 -0.013404701)
(0 4.1850725e-18 0)
(0 6.8162488e-18 0)
(-1.5716217 -0.051819605 -0.013461266)
(-1.5145615 -0.38491849 -0.013258778)
(0 1.4653075e-18 0)
(0 4.2313563e-19 0)
(0 3.3800813e-18 0)
(0 -1.6047108e-18 0)
(0 2.1616506e-18 0)
(0 -1.2810561e-18 0)
(0 -3.0954971e-20 0)
(-1.0325414e-18 -3.368325e-19 0)
(0 6.3351952e-19 0)
(0 3.1526814e-19 0)
(0 -1.213303e-18 0)
(0 1.1747238e-18 0)
(0 1.4047647e-18 0)
(0 -1.1267054e-18 0)
(0 1.4324829e-18 0)
(-1.5172041 -0.3670978 -0.013266689)
(-1.5207659 -0.34624108 -0.013250933)
(-1.5243235 -0.32539899 -0.013252843)
(-1.5278699 -0.30457228 -0.013257652)
(-1.5314116 -0.2837639 -0.013277361)
(-1.5349562 -0.26296589 -0.013301215)
(-1.5384973 -0.24218225 -0.013330819)
(-1.5420508 -0.22140221 -0.013361756)
(-1.5456082 -0.20062565 -0.013391828)
(-1.5491765 -0.17984243 -0.013418783)
(-1.5527576 -0.15905245 -0.013438089)
(-1.5563448 -0.13824788 -0.013445629)
(-1.5599439 -0.11743138 -0.013453515)
(-1.563548 -0.096593151 -0.013444531)
(-1.5671471 -0.075738573 -0.013428389)
(-0.0038504396 -0.0079400121 -0.0080558247)
(-0.0041512225 -0.011502051 -0.01171328)
(-0.0051511131 -0.015576528 -0.01387635)
(-0.0071996984 -0.019668922 -0.015445668)
(-0.0095934012 -0.023928203 -0.016216017)
(-0.012972966 -0.028301416 -0.016738238)
(-0.016900615 -0.032826805 -0.016893944)
(-0.021612559 -0.037268579 -0.016892084)
(-0.026868535 -0.041917902 -0.016732262)
(-0.032835888 -0.046442578 -0.016514797)
(-0.039300766 -0.051057216 -0.016176077)
(-0.046378187 -0.055619197 -0.015824459)
(-0.053936518 -0.060219082 -0.015473738)
(-0.062084464 -0.064763537 -0.01506602)
(-0.070650337 -0.069308574 -0.014690786)
(-0.0797484 -0.07379685 -0.014277462)
(-0.089264684 -0.078333249 -0.013927619)
(-0.099276549 -0.082746816 -0.013549064)
(-0.10968243 -0.087228578 -0.013186341)
(-0.12053502 -0.091612687 -0.012832664)
(-0.13177607 -0.096039959 -0.012518141)
(-0.14343188 -0.100377 -0.012170307)
(-0.15546048 -0.10475704 -0.011881581)
(-0.16787088 -0.10907713 -0.011571665)
(-0.18064938 -0.11340177 -0.011279686)
(-0.19377528 -0.11770346 -0.01100035)
(-0.20725257 -0.12198624 -0.010738186)
(-0.22105601 -0.12626786 -0.010469622)
(-0.23520262 -0.13052015 -0.010215386)
(-0.24964664 -0.13476262 -0.0099744614)
(-0.26440841 -0.13900458 -0.009737324)
(-0.27945281 -0.14320041 -0.0095042267)
(-0.29478199 -0.14741267 -0.0092944577)
(-0.31039371 -0.15156896 -0.009084718)
(-0.32625969 -0.1557446 -0.0088800563)
(-0.34238176 -0.15986784 -0.0086943438)
(-0.35873016 -0.16398461 -0.0085250143)
(-0.37531893 -0.16807172 -0.0083641306)
(-0.39211184 -0.1721282 -0.0082071176)
(-0.40910817 -0.17617076 -0.0080773541)
(-0.42629884 -0.18017096 -0.0079548655)
(-0.44366149 -0.18416234 -0.0078521632)
(-0.46120314 -0.18811722 -0.0077585159)
(-0.4788996 -0.19205621 -0.0076868461)
(-0.49674863 -0.19596395 -0.0076259599)
(-0.51473906 -0.19985833 -0.0075830294)
(-0.53286099 -0.20372629 -0.0075553237)
(-0.55111405 -0.20758286 -0.0075417081)
(-0.56948205 -0.21141865 -0.0075442658)
(-0.58797035 -0.21524518 -0.0075602575)
(-0.60656327 -0.21905693 -0.0075908004)
(-0.62526588 -0.22286059 -0.0076343487)
(-0.6440665 -0.22665512 -0.0076908985)
(-0.66296775 -0.2304423 -0.0077592536)
(-0.68196217 -0.23422424 -0.0078386303)
(-0.70105001 -0.23799996 -0.0079285164)
(-0.72022663 -0.24177202 -0.008027118)
(-0.73949096 -0.24553968 -0.0081339735)
(-0.75883951 -0.24930381 -0.0082475899)
(-0.77827105 -0.25306483 -0.0083666738)
(-0.79778177 -0.25682289 -0.0084901284)
(-0.817371 -0.26057923 -0.0086160348)
(-0.83703361 -0.26433258 -0.0087447714)
(-0.85677232 -0.26808552 -0.0088717944)
(-0.87657506 -0.27183925 -0.0090011339)
(-0.89645163 -0.27559131 -0.0091258779)
(-0.91638867 -0.27934444 -0.0092512283)
(-0.93638879 -0.28310236 -0.009373824)
(-0.95645028 -0.28686057 -0.0094884489)
(-0.97656803 -0.29062927 -0.009604192)
(-0.99674319 -0.294398 -0.009715554)
(-1.0169703 -0.29817675 -0.009824714)
(-1.0372499 -0.30196261 -0.0099317975)
(-1.0575799 -0.30575386 -0.010038676)
(-1.077958 -0.30955649 -0.010143847)
(-1.0983844 -0.31336036 -0.010252712)
(-1.1188547 -0.31717665 -0.010361034)
(-1.1393721 -0.32099034 -0.010475443)
(-1.1599294 -0.3248142 -0.01059118)
(-1.1805315 -0.32863124 -0.010715623)
(-1.2011717 -0.33245267 -0.010840692)
(-1.2218503 -0.33626443 -0.010977166)
(-1.2425679 -0.34007184 -0.011114775)
(-1.2633133 -0.34386717 -0.011262716)
(-1.2840978 -0.34765106 -0.011412366)
(-1.304904 -0.35141923 -0.01156911)
(-1.3257437 -0.35516431 -0.011729583)
(-1.3465945 -0.35889693 -0.011892856)
(-1.3674716 -0.36259718 -0.01206095)
(-1.3883504 -0.36628525 -0.012228137)
(-1.4092455 -0.36993876 -0.01240239)
(-1.4301292 -0.37358043 -0.01257235)
(-1.4510234 -0.37718848 -0.012751289)
(-1.4718914 -0.38079098 -0.012926697)
(-1.4927593 -0.38437494 -0.013106946)
(-0.0029958369 0.007424085 0.0099751018)
(-0.0060785956 0.01130348 0.010466922)
(-0.007876309 0.015934803 0.013697953)
(-0.01016869 0.019984793 0.014566624)
(-0.013566332 0.024515163 0.015607933)
(-0.017402388 0.02915792 0.016060942)
(-0.021998701 0.033470862 0.016361324)
(-0.027266878 0.038006394 0.016399395)
(-0.03328496 0.042317657 0.016347611)
(-0.039840529 0.046545722 0.016175955)
(-0.047145546 0.0506697 0.015928535)
(-0.054939322 0.054601043 0.015643492)
(-0.06342447 0.058428077 0.015279138)
(-0.072393176 0.062056944 0.014941057)
(-0.081956657 0.06552233 0.014524045)
(-0.092001828 0.068815909 0.014145554)
(-0.10257052 0.071908139 0.01371277)
(-0.11360396 0.074834599 0.01329872)
(-0.12511582 0.077575511 0.01287367)
(-0.13704104 0.08010453 0.012457707)
(-0.14942394 0.08247999 0.012014511)
(-0.16219965 0.084655112 0.01161526)
(-0.17536296 0.086635542 0.011178801)
(-0.18892922 0.088457952 0.010766445)
(-0.20283703 0.090078213 0.010353332)
(-0.21711443 0.091521174 0.0099273123)
(-0.23172473 0.092797468 0.0095276693)
(-0.24666058 0.093874295 0.0090971074)
(-0.26192039 0.094802219 0.0086902869)
(-0.27746471 0.095526421 0.0082566623)
(-0.29332356 0.096115541 0.0078334)
(-0.30943747 0.096505539 0.0073995396)
(-0.32583867 0.096751739 0.0069621372)
(-0.34247289 0.096820641 0.006519876)
(-0.3593671 0.09674301 0.0060694612)
(-0.37646307 0.09649704 0.0056271285)
(-0.39378925 0.096107254 0.0051608636)
(-0.41130655 0.095577516 0.0047149956)
(-0.42901267 0.094898865 0.0042567647)
(-0.44689191 0.09409181 0.0038094932)
(-0.46493522 0.093152813 0.0033618491)
(-0.48312399 0.092092308 0.0029259535)
(-0.50145742 0.090914192 0.002493982)
(-0.51991614 0.089626069 0.0020762312)
(-0.53849885 0.088232375 0.0016661442)
(-0.55719312 0.08673994 0.0012695859)
(-0.57599468 0.085153648 0.00088345758)
(-0.59489652 0.083478821 0.00050914335)
(-0.61389514 0.081720486 0.00014484932)
(-0.63298455 0.079882775 -0.00020952041)
(-0.65216413 0.077970269 -0.00055635752)
(-0.67142837 0.075986526 -0.00089584941)
(-0.69077707 0.073934882 -0.0012306982)
(-0.71020691 0.071818984 -0.001561135)
(-0.72971642 0.069641219 -0.0018893382)
(-0.74930309 0.067404482 -0.0022152649)
(-0.76896576 0.065111526 -0.0025405099)
(-0.78870074 0.06276403 -0.0028642443)
(-0.80850682 0.060364976 -0.0031871913)
(-0.82838047 0.057915699 -0.0035081185)
(-0.84831908 0.05541885 -0.0038267998)
(-0.86831909 0.052875488 -0.0041412622)
(-0.88837829 0.050288527 -0.0044514204)
(-0.90849196 0.047657989 -0.0047545336)
(-0.92865854 0.044987336 -0.0050506214)
(-0.94887388 0.042275899 -0.0053375915)
(-0.96913625 0.039526641 -0.0056150018)
(-0.9894425 0.036739324 -0.0058825922)
(-1.0097907 0.033914994 -0.0061387844)
(-1.0301783 0.031053249 -0.0063876053)
(-1.0506079 0.028158886 -0.0066259192)
(-1.0710732 0.025225458 -0.0068568334)
(-1.09158 0.022259659 -0.0070823798)
(-1.1121215 0.019255445 -0.007303529)
(-1.1327045 0.016217759 -0.0075249574)
(-1.1533233 0.013142972 -0.0077459516)
(-1.1739824 0.010032923 -0.007972686)
(-1.194679 0.0068859379 -0.0082042187)
(-1.2154146 0.003703855 -0.0084460235)
(-1.2361861 0.00048427661 -0.0086961494)
(-1.2569956 -0.0027690853 -0.0089600665)
(-1.2778358 -0.0060598536 -0.0092332347)
(-1.2987108 -0.0093826914 -0.009521613)
(-1.3196094 -0.012741158 -0.0098177668)
(-1.3405355 -0.016129255 -0.010127149)
(-1.3614764 -0.019550049 -0.010440808)
(-1.3824344 -0.022996834 -0.010762846)
(-1.4033965 -0.026472214 -0.011083864)
(-1.4243632 -0.029969151 -0.011406401)
(-1.4453224 -0.033489214 -0.011722007)
(-1.4662731 -0.037025801 -0.012031687)
(-1.487206 -0.040579211 -0.012329173)
(-1.5081192 -0.044143526 -0.012615299)
(-1.5290091 -0.047716857 -0.012887703)
(-1.5498783 -0.051297787 -0.013149176)
(0 -1.8413257e-18 0)
(0 -1.344532e-18 0)
(0 1.2593986e-18 0)
(0 -7.958046e-19 0)
(0 -6.8526392e-19 0)
(0 3.829441e-18 0)
(0 -1.1369061e-18 0)
(-2.6470746e-18 7.3992437e-19 0)
(0 -6.7626325e-19 0)
(0 1.6475166e-18 0)
(0 1.9690333e-18 0)
(0 6.8871136e-19 0)
(0 3.645431e-19 0)
(0 -7.4250495e-19 0)
(0 5.0471519e-19 0)
(-0.0050751995 0.0033328752 -0.0072381027)
(-0.00667495 0.012905903 -0.010797634)
(-0.0076073679 0.014222106 -0.012272892)
(-0.010840008 0.020802111 -0.014260092)
(-0.013505325 0.024123987 -0.014863529)
(-0.017816182 0.029288958 -0.015292)
(-0.022149064 0.033355953 -0.015461886)
(-0.027747629 0.03819542 -0.015511617)
(-0.033547168 0.042260565 -0.015360135)
(-0.040373307 0.046835271 -0.015209478)
(-0.047562832 0.050796099 -0.014982706)
(-0.055432841 0.054868837 -0.014709139)
(-0.063917408 0.058748556 -0.014431479)
(-0.072882083 0.062388404 -0.014118486)
(-0.082480172 0.065991975 -0.013832091)
(-0.092514266 0.069257289 -0.013504577)
(-0.10305951 0.072463875 -0.01324751)
(-0.11413627 0.075428312 -0.012907963)
(-0.12557702 0.07818556 -0.012646156)
(-0.13760813 0.080845015 -0.012345592)
(-0.14988936 0.083193695 -0.012091888)
(-0.16274205 0.085458628 -0.011821544)
(-0.17585043 0.087451817 -0.011545099)
(-0.1894989 0.089386774 -0.011319346)
(-0.20335153 0.090969225 -0.011043089)
(-0.21771209 0.092557268 -0.010827348)
(-0.23229083 0.093785194 -0.010569156)
(-0.24729818 0.095012637 -0.010359256)
(-0.26254317 0.095911502 -0.010120957)
(-0.278148 0.096765946 -0.0099152597)
(-0.29400745 0.097363199 -0.0096983149)
(-0.3101713 0.097844029 -0.0095004236)
(-0.32657428 0.098129995 -0.0093032167)
(-0.34325054 0.098272926 -0.0091160749)
(-0.36014751 0.098255128 -0.0089450363)
(-0.37727371 0.098060586 -0.0087740928)
(-0.39460169 0.097753669 -0.0086232333)
(-0.41214056 0.097272837 -0.0084821218)
(-0.42984608 0.096656634 -0.0083562846)
(-0.44773519 0.095905532 -0.0082417861)
(-0.46577646 0.095020189 -0.008143049)
(-0.48397038 0.09401324 -0.0080602842)
(-0.5022999 0.092883567 -0.0079914498)
(-0.5207608 0.091642867 -0.0079394777)
(-0.53934043 0.090293346 -0.0079023536)
(-0.5580355 0.088843697 -0.0078811174)
(-0.576836 0.087297439 -0.0078745874)
(-0.5957392 0.085661662 -0.0078826772)
(-0.61473775 0.083940615 -0.0079053207)
(-0.63382915 0.082139205 -0.0079409599)
(-0.6530083 0.080262087 -0.0079904089)
(-0.67227301 0.078312144 -0.0080506131)
(-0.69161988 0.076293974 -0.0081234175)
(-0.71104603 0.074208869 -0.0082050593)
(-0.73054977 0.072061566 -0.0082973395)
(-0.7501276 0.069851608 -0.0083965201)
(-0.76977813 0.067583837 -0.0085042553)
(-0.78949833 0.065257538 -0.0086170017)
(-0.80928605 0.062876155 -0.0087355247)
(-0.82913924 0.060440336 -0.0088575385)
(-0.84905483 0.057952152 -0.0089824983)
(-0.86903146 0.055412996 -0.0091088631)
(-0.88906624 0.052825145 -0.0092361022)
(-0.90915723 0.050189581 -0.0093625794)
(-0.92930288 0.047509419 -0.0094878602)
(-0.94950079 0.044785783 -0.0096112289)
(-0.96974982 0.042020894 -0.0097310656)
(-0.99004969 0.039218734 -0.0098503218)
(-1.0103955 0.036375815 -0.0099622616)
(-1.0307896 0.033503496 -0.010074938)
(-1.0512303 0.030594766 -0.010183121)
(-1.071715 0.027655157 -0.010289743)
(-1.0922452 0.024685548 -0.010393375)
(-1.1128186 0.021686534 -0.010497018)
(-1.1334344 0.01865915 -0.010599764)
(-1.1540918 0.015603087 -0.010703674)
(-1.1747889 0.012518807 -0.010808665)
(-1.195525 0.009405308 -0.010916469)
(-1.2162968 0.0062625737 -0.011027063)
(-1.2371036 0.0030889012 -0.011141626)
(-1.2579409 -0.00011566349 -0.011259891)
(-1.278808 -0.0033530873 -0.011382945)
(-1.2996987 -0.0066234539 -0.011509734)
(-1.3206125 -0.0099280854 -0.011641351)
(-1.3415418 -0.013266729 -0.011776359)
(-1.3624856 -0.016640086 -0.011915512)
(-1.3834361 -0.02004664 -0.012057432)
(-1.4043911 -0.023486628 -0.0122027)
(-1.4253435 -0.026956395 -0.012350346)
(-1.4462899 -0.030456104 -0.01250065)
(-1.4672244 -0.033979253 -0.012653687)
(-1.488143 -0.037525838 -0.012809508)
(-1.509042 -0.041086703 -0.012968728)
(-1.5299196 -0.044661603 -0.013131343)
(-1.5507756 -0.048237803 -0.013297178)
(-1.5680441 -0.072666187 -0.013427445)
(-1.5644466 -0.093511493 -0.013394931)
(-1.5608574 -0.11433863 -0.013372023)
(-1.5572595 -0.13514726 -0.013359918)
(-1.5536874 -0.15594145 -0.013357407)
(-1.5501034 -0.17672538 -0.013359413)
(-1.5465476 -0.19749918 -0.013369604)
(-1.5429845 -0.21828034 -0.013379757)
(-1.5394436 -0.23905734 -0.013387066)
(-1.5358925 -0.25984743 -0.013395556)
(-1.5323602 -0.28064968 -0.013392534)
(-1.5288072 -0.301472 -0.013388451)
(-1.5252769 -0.32230872 -0.013364291)
(-1.5217064 -0.34317338 -0.013340343)
(-1.5181488 -0.36404448 -0.013298045)
(-1.4936903 -0.38133015 -0.013004112)
(-1.4728114 -0.37773391 -0.012753772)
(-1.4519226 -0.37412339 -0.012489478)
(-1.4310145 -0.37049478 -0.012213101)
(-1.4100958 -0.36684649 -0.011918833)
(-1.3891691 -0.36318026 -0.011614665)
(-1.3682452 -0.35949551 -0.011301228)
(-1.347326 -0.35579624 -0.010982352)
(-1.3264225 -0.35208135 -0.010663337)
(-1.3055391 -0.34835625 -0.010345722)
(-1.2846824 -0.34461994 -0.010035228)
(-1.2638591 -0.34087625 -0.009733776)
(-1.2430726 -0.33712617 -0.0094436433)
(-1.2223264 -0.33337061 -0.0091649181)
(-1.201627 -0.32961162 -0.0089008311)
(-1.1809754 -0.32585081 -0.0086514171)
(-1.1603745 -0.32208791 -0.0084165481)
(-1.1398249 -0.31832336 -0.0081940555)
(-1.1193274 -0.31455829 -0.0079824947)
(-1.0988822 -0.31079189 -0.0077792017)
(-1.0784891 -0.30702474 -0.0075819943)
(-1.0581474 -0.30325673 -0.0073870549)
(-1.037857 -0.29948745 -0.0071923806)
(-1.0176164 -0.29571741 -0.0069936364)
(-0.99742779 -0.29194568 -0.0067912049)
(-0.97728661 -0.28817437 -0.0065789182)
(-0.95719763 -0.28439791 -0.006355724)
(-0.93716796 -0.28062736 -0.0061276754)
(-0.91718234 -0.27684958 -0.0058826015)
(-0.89725664 -0.27307588 -0.0056286232)
(-0.87738917 -0.269301 -0.0053625818)
(-0.8575823 -0.26552871 -0.0050863647)
(-0.83784058 -0.26175682 -0.0048016325)
(-0.81816637 -0.25798749 -0.0045087319)
(-0.79856448 -0.25421996 -0.0042099262)
(-0.77903745 -0.25045537 -0.0039064104)
(-0.75959009 -0.24669264 -0.0035992482)
(-0.7402247 -0.2429326 -0.0032898145)
(-0.72094602 -0.23917372 -0.0029785347)
(-0.70175558 -0.23541619 -0.0026657312)
(-0.68265792 -0.23165803 -0.0023511655)
(-0.66365429 -0.22789881 -0.0020345438)
(-0.64474869 -0.22413627 -0.0017143105)
(-0.62594265 -0.22036913 -0.001389989)
(-0.60724003 -0.21659528 -0.0010592393)
(-0.58864301 -0.21281263 -0.00072126358)
(-0.57015602 -0.2090194 -0.00037368837)
(-0.55178215 -0.20521299 -1.586136e-05)
(-0.53352743 -0.20139208 0.00035454261)
(-0.51539591 -0.19755412 0.00073702177)
(-0.49739622 -0.19369787 0.0011337664)
(-0.47953266 -0.18982183 0.0015431799)
(-0.46181882 -0.18592369 0.0019660856)
(-0.44425748 -0.18200522 0.0024021891)
(-0.42686692 -0.17806311 0.0028455733)
(-0.40964861 -0.1740978 0.0033033514)
(-0.39261456 -0.1701185 0.0037666419)
(-0.37578927 -0.16609498 0.0042303186)
(-0.35920694 -0.16206595 0.0046974309)
(-0.34278784 -0.1580201 0.0051743837)
(-0.32664346 -0.1539358 0.0056458528)
(-0.31078627 -0.1498391 0.0061055885)
(-0.29512972 -0.14573902 0.0065700149)
(-0.27977511 -0.14160773 0.0070255504)
(-0.26470203 -0.13744973 0.0074811376)
(-0.24996589 -0.13328477 0.0079323534)
(-0.23546762 -0.12911025 0.0083646464)
(-0.22137948 -0.12489713 0.0087981778)
(-0.20752819 -0.12070546 0.009251354)
(-0.19406191 -0.11646819 0.0096764732)
(-0.1809239 -0.11223712 0.010121866)
(-0.16813303 -0.10795905 0.010558111)
(-0.15577661 -0.10366933 0.010996545)
(-0.14368382 -0.099391602 0.011456822)
(-0.13202583 -0.095068712 0.011918409)
(-0.12081293 -0.090702169 0.012363276)
(-0.10988666 -0.086380766 0.012872992)
(-0.09952697 -0.081949217 0.013307434)
(-0.089439161 -0.077603583 0.013828424)
(-0.079957589 -0.073105668 0.014286634)
(-0.0708415 -0.068707908 0.014787705)
(-0.062208196 -0.064207157 0.015224204)
(-0.05403198 -0.059766371 0.015722599)
(-0.046543981 -0.055139548 0.016096783)
(-0.039364689 -0.050782134 0.016552492)
(-0.032890931 -0.046164525 0.016829801)
(-0.026973237 -0.041665896 0.017116421)
(-0.021689356 -0.037162587 0.01721087)
(-0.016966259 -0.032715675 0.017225205)
(-0.013012842 -0.028292909 0.016984743)
(-0.0097488677 -0.023799457 0.0163676)
(-0.0074709581 -0.019436597 0.015381389)
(-0.0055853009 -0.015737033 0.014005053)
(-0.0048729665 -0.011189286 0.010673818)
(-0.0064077267 -0.0076544685 0.0058830241)
(0 2.0978519e-18 0)
(0 7.979905e-19 0)
(0 2.0711956e-18 0)
(0 2.0849975e-18 0)
(0 2.1730722e-18 0)
(0 1.3068493e-18 0)
(0 5.2096654e-20 0)
(0 -1.1841658e-18 -1.2992962e-18)
(0 1.4022087e-19 0)
(0 1.2606336e-18 0)
(0 3.0397937e-18 0)
(0 2.6634934e-18 0)
(0 1.9065717e-18 0)
(0 1.8425533e-18 0)
(0 2.104044e-18 0)
(0 8.7514932e-18 0)
(0 3.7262695e-18 0)
(0 1.367435e-18 0)
(0 2.4681506e-18 0)
(0 -2.1488471e-19 0)
(0 5.7529053e-19 0)
(0 6.5554042e-18 0)
(0 -2.667642e-18 -1.1567727e-18)
(0 3.8992202e-18 0)
(0 4.8744357e-18 0)
(0 1.6108367e-18 0)
(0 6.5934845e-19 0)
(0 1.5304048e-18 0)
(0 2.7592166e-18 0)
(0 3.5490884e-19 0)
(-1.5708322 -0.054645864 -0.013406099)
(-1.5709284 -0.054411111 -0.013399319)
(-1.5710194 -0.054187043 -0.013390149)
(-1.5711018 -0.05397403 -0.01338383)
(-1.5711775 -0.053769895 -0.013380307)
(-1.5712439 -0.053575409 -0.013382788)
(-1.5713011 -0.053386717 -0.013389008)
(-1.5713513 -0.053203716 -0.013398849)
(-1.5713943 -0.053024406 -0.013411006)
(-1.5714329 -0.052847196 -0.01342455)
(-1.5714673 -0.052671677 -0.013437497)
(-1.5715001 -0.052497099 -0.013447326)
(-1.5715316 -0.052324899 -0.013455862)
(-1.5715634 -0.052152229 -0.013458603)
(-1.5715962 -0.051984713 -0.013461023)
(-1.5136893 -0.38779402 -0.013279492)
(-1.5137527 -0.38762484 -0.013277343)
(-1.5138192 -0.3874582 -0.013274181)
(-1.5138858 -0.38729248 -0.013266433)
(-1.5139544 -0.38713003 -0.013257303)
(-1.5140214 -0.38696678 -0.013245833)
(-1.5140865 -0.3868023 -0.013235704)
(-1.5141489 -0.3866333 -0.013226306)
(-1.5142081 -0.38645833 -0.013220266)
(-1.5142637 -0.38627412 -0.013217813)
(-1.5143167 -0.38607957 -0.013219607)
(-1.5143667 -0.38587122 -0.013225983)
(-1.5144156 -0.38565139 -0.013235701)
(-1.5144647 -0.38541492 -0.013246899)
(-1.5145126 -0.38517083 -0.013256867)
(-0.0017815065 -0.006837838 -0.0081602166)
(-0.0025380813 -0.009699347 -0.0099316005)
(-0.0034166114 -0.013684231 -0.012133633)
(-0.0055623412 -0.017112997 -0.013128545)
(-0.0077973764 -0.020726555 -0.014028247)
(-0.011284864 -0.02436635 -0.014405812)
(-0.015171607 -0.028087377 -0.014602349)
(-0.020015379 -0.031966043 -0.014597089)
(-0.025277441 -0.035799998 -0.014508753)
(-0.031332705 -0.039781152 -0.014301713)
(-0.037888117 -0.043697496 -0.014032388)
(-0.045072667 -0.047766966 -0.013761866)
(-0.052745685 -0.051704484 -0.013429527)
(-0.060969555 -0.05578502 -0.013110543)
(-0.06967067 -0.059739115 -0.012771199)
(-0.078886011 -0.063825521 -0.012454173)
(-0.088544268 -0.067786307 -0.012120067)
(-0.098632062 -0.071821155 -0.011818173)
(-0.10919768 -0.07579762 -0.011504029)
(-0.12015963 -0.079813642 -0.011215377)
(-0.13152698 -0.083777353 -0.010932901)
(-0.14331099 -0.087753014 -0.010664042)
(-0.15546099 -0.091741245 -0.010394918)
(-0.16798658 -0.095682892 -0.010151301)
(-0.18089588 -0.099658197 -0.0099000597)
(-0.19413624 -0.10360432 -0.0096745141)
(-0.20772954 -0.10757001 -0.0094408531)
(-0.22165207 -0.11150778 -0.0092310006)
(-0.23591553 -0.11545853 -0.0090188886)
(-0.25046513 -0.11941382 -0.0088181917)
(-0.26534144 -0.12333998 -0.0086232847)
(-0.28050174 -0.12728912 -0.0084398527)
(-0.2959471 -0.13121948 -0.0082682826)
(-0.31165597 -0.13514423 -0.0081012886)
(-0.32762938 -0.13906755 -0.0079443722)
(-0.34384952 -0.14296993 -0.0078006975)
(-0.36029768 -0.14687721 -0.0076676864)
(-0.37697234 -0.15075556 -0.007542423)
(-0.39386108 -0.15464137 -0.0074314389)
(-0.41094073 -0.15849834 -0.007338719)
(-0.42821693 -0.16234934 -0.0072556795)
(-0.44566263 -0.1661718 -0.0071826136)
(-0.46327443 -0.16999624 -0.0071284344)
(-0.48104885 -0.17379098 -0.0070843801)
(-0.4989608 -0.17757888 -0.0070549501)
(-0.51701561 -0.18135071 -0.0070405614)
(-0.5351994 -0.18510842 -0.0070369882)
(-0.55350717 -0.18885642 -0.0070496886)
(-0.57193192 -0.19259167 -0.007073247)
(-0.59047 -0.19631934 -0.0071110144)
(-0.60911416 -0.20003829 -0.0071599266)
(-0.62786289 -0.20375053 -0.0072221134)
(-0.64671026 -0.20745785 -0.0072941897)
(-0.66565497 -0.21116 -0.0073783256)
(-0.68469249 -0.2148593 -0.0074715316)
(-0.70382149 -0.21855501 -0.0075747431)
(-0.7230384 -0.22224949 -0.0076855711)
(-0.74234166 -0.22594139 -0.0078043945)
(-0.7617281 -0.22963268 -0.007929002)
(-0.78119606 -0.23332297 -0.0080590175)
(-0.80074232 -0.23701272 -0.0081925404)
(-0.82036515 -0.24070321 -0.0083291652)
(-0.84006117 -0.2443926 -0.0084671764)
(-0.85982956 -0.24808521 -0.0086053116)
(-0.87966261 -0.25177884 -0.0087423149)
(-0.89956889 -0.25547236 -0.0088797256)
(-0.91953388 -0.25917858 -0.0090115009)
(-0.93955853 -0.26287775 -0.0091441183)
(-0.95964435 -0.2665903 -0.0092718642)
(-0.97978439 -0.2703035 -0.0093973596)
(-0.99998025 -0.2740262 -0.0095185501)
(-1.0202282 -0.2777567 -0.0096380339)
(-1.0405287 -0.28149603 -0.0097543323)
(-1.0608774 -0.28524322 -0.0098703826)
(-1.0812751 -0.28900053 -0.0099859816)
(-1.10172 -0.29276323 -0.01010345)
(-1.1222096 -0.29653672 -0.010221444)
(-1.1427449 -0.30031185 -0.010344841)
(-1.163322 -0.3040969 -0.010469589)
(-1.1839423 -0.30787808 -0.0106026)
(-1.2046015 -0.31166623 -0.01073722)
(-1.2252994 -0.31544741 -0.010882034)
(-1.2460343 -0.319227 -0.011028341)
(-1.2667988 -0.3229984 -0.01118421)
(-1.2875994 -0.32676072 -0.01134232)
(-1.3084246 -0.33051037 -0.011508728)
(-1.3292773 -0.33424885 -0.011676669)
(-1.3501449 -0.33796772 -0.011849533)
(-1.3710306 -0.34167337 -0.012024318)
(-1.3919224 -0.34535796 -0.012201398)
(-1.4128208 -0.34902426 -0.012380004)
(-1.4337131 -0.35267331 -0.012558264)
(-1.4546059 -0.35629993 -0.012739012)
(-1.4754755 -0.35991459 -0.01291551)
(-1.4963465 -0.36350917 -0.013092794)
(0.00023040533 -0.0059762664 -0.0068966079)
(-0.00042390382 -0.0070710153 -0.0090321677)
(-0.0021274348 -0.011437727 -0.010189964)
(-0.0038484108 -0.013792421 -0.011517578)
(-0.0064954052 -0.017245834 -0.011937161)
(-0.0098273721 -0.020163396 -0.012336683)
(-0.01392395 -0.023550624 -0.012402648)
(-0.018620584 -0.026716789 -0.012460752)
(-0.024074603 -0.030101781 -0.012350561)
(-0.030133945 -0.033421808 -0.012172961)
(-0.036795156 -0.036867092 -0.011992305)
(-0.04403029 -0.040279745 -0.011703425)
(-0.051807974 -0.043781437 -0.011482921)
(-0.060123761 -0.047233765 -0.011175235)
(-0.068933277 -0.050778389 -0.010943119)
(-0.078258184 -0.054271149 -0.010609992)
(-0.087975633 -0.057832092 -0.010399421)
(-0.09823837 -0.061343375 -0.010100048)
(-0.10886762 -0.064927328 -0.0098741807)
(-0.11995854 -0.068449955 -0.0096093219)
(-0.13143385 -0.072038302 -0.0093997438)
(-0.14332732 -0.075596022 -0.0091462236)
(-0.15558058 -0.079186773 -0.0089580503)
(-0.16823452 -0.082760587 -0.0087372535)
(-0.18123855 -0.086361756 -0.0085541842)
(-0.19459459 -0.089969501 -0.0083486682)
(-0.2082996 -0.093580746 -0.0081845451)
(-0.22233564 -0.097197266 -0.0080058134)
(-0.23669207 -0.10084257 -0.0078419587)
(-0.25136378 -0.10447601 -0.0076805031)
(-0.26633814 -0.10813167 -0.0075430152)
(-0.28160269 -0.11179002 -0.0073925068)
(-0.29713817 -0.11545887 -0.0072657006)
(-0.31295221 -0.11912642 -0.0071383543)
(-0.32901923 -0.12280679 -0.0070256671)
(-0.34532828 -0.12648807 -0.0069207628)
(-0.36187746 -0.13017 -0.006829109)
(-0.37864339 -0.13385081 -0.0067464039)
(-0.39561131 -0.13752497 -0.0066768233)
(-0.41277495 -0.14120386 -0.0066168218)
(-0.43012544 -0.14486589 -0.0065661598)
(-0.44764317 -0.14853555 -0.0065335999)
(-0.46533591 -0.15219009 -0.0065029118)
(-0.48316799 -0.15583901 -0.0064974083)
(-0.50115014 -0.15948544 -0.0064927959)
(-0.51926739 -0.16312215 -0.006506663)
(-0.53751095 -0.16675279 -0.0065294622)
(-0.55587618 -0.17037901 -0.0065661689)
(-0.57435676 -0.17399887 -0.0066117783)
(-0.59294675 -0.17761605 -0.0066712464)
(-0.61164184 -0.18122917 -0.0067396032)
(-0.63043907 -0.1848404 -0.006819895)
(-0.64933299 -0.18845057 -0.0069092713)
(-0.66832277 -0.19205915 -0.0070092928)
(-0.68740359 -0.19566869 -0.007117378)
(-0.70657459 -0.19927792 -0.0072345921)
(-0.7258319 -0.20288867 -0.0073586388)
(-0.74517446 -0.20650003 -0.0074900493)
(-0.76459853 -0.21011374 -0.0076263785)
(-0.78410321 -0.21372856 -0.0077677943)
(-0.80368444 -0.21734599 -0.0079124659)
(-0.82334112 -0.22096592 -0.0080595025)
(-0.84307013 -0.22458747 -0.0082080832)
(-0.8628679 -0.22821524 -0.0083553689)
(-0.88273313 -0.23184393 -0.0085037891)
(-0.90266623 -0.2354811 -0.0086496126)
(-0.92264929 -0.2391205 -0.0087919053)
(-0.94270324 -0.24276411 -0.0089349992)
(-0.96281283 -0.24641769 -0.0090679532)
(-0.98297963 -0.25007592 -0.0092031363)
(-1.0031984 -0.2537487 -0.0093307794)
(-1.0234694 -0.2574268 -0.0094600446)
(-1.0437894 -0.26111795 -0.0095846178)
(-1.0641584 -0.26481689 -0.0097112141)
(-1.0845755 -0.26852915 -0.0098352011)
(-1.1050385 -0.27224765 -0.00996264)
(-1.1255469 -0.27598057 -0.010089282)
(-1.1460997 -0.2797162 -0.010222426)
(-1.166695 -0.28346513 -0.010355915)
(-1.1873321 -0.28721193 -0.010498536)
(-1.2080093 -0.29097059 -0.01064115)
(-1.2287229 -0.29472185 -0.010795372)
(-1.2494773 -0.29847708 -0.010950864)
(-1.2702596 -0.30222247 -0.011110946)
(-1.2910782 -0.30597054 -0.011277307)
(-1.3119175 -0.30970345 -0.011451537)
(-1.3327845 -0.31342581 -0.011628404)
(-1.3536639 -0.31713828 -0.011808706)
(-1.3745628 -0.3208326 -0.011991634)
(-1.3954633 -0.32451415 -0.012174447)
(-1.416373 -0.32817622 -0.012360384)
(-1.4372709 -0.33182366 -0.012541336)
(-1.4581738 -0.33544906 -0.012728093)
(-1.4790451 -0.33906263 -0.01290287)
(-1.4999246 -0.34265725 -0.01308405)
(0.0012736225 -0.0044776595 -0.0061326915)
(0.00055209668 -0.0057568392 -0.0074705813)
(-0.00034034364 -0.0088735427 -0.0087623527)
(-0.0024913654 -0.011151414 -0.0096343474)
(-0.0050825707 -0.013817696 -0.0099264624)
(-0.0086700445 -0.016466403 -0.010193811)
(-0.012646665 -0.019102564 -0.010295519)
(-0.017627577 -0.021859117 -0.010300607)
(-0.023053239 -0.024525803 -0.010177941)
(-0.029220773 -0.027436735 -0.010078493)
(-0.035925953 -0.030179418 -0.0098654234)
(-0.043275853 -0.033177414 -0.009699572)
(-0.051112628 -0.03600246 -0.0094601516)
(-0.059525088 -0.039059655 -0.009268955)
(-0.068428848 -0.04199213 -0.0090015989)
(-0.077803497 -0.04506002 -0.008836919)
(-0.087688197 -0.048080849 -0.008584102)
(-0.097995698 -0.051177316 -0.0083965498)
(-0.10874717 -0.05426268 -0.008182383)
(-0.11993286 -0.057385165 -0.0080078141)
(-0.13151791 -0.060538848 -0.0078068719)
(-0.14350954 -0.063680688 -0.007651797)
(-0.15588191 -0.066885938 -0.0074739868)
(-0.16863005 -0.070065873 -0.0073248807)
(-0.18173882 -0.073319008 -0.0071622203)
(-0.1952018 -0.076545183 -0.0070310823)
(-0.209011 -0.079826737 -0.006892498)
(-0.22313974 -0.083115495 -0.0067606174)
(-0.23760714 -0.08643287 -0.0066415019)
(-0.25236983 -0.089763319 -0.0065330069)
(-0.26744509 -0.093124076 -0.0064209916)
(-0.28279609 -0.096499843 -0.0063237426)
(-0.29843999 -0.099895646 -0.0062369017)
(-0.31433994 -0.10330807 -0.0061539601)
(-0.33049744 -0.10673959 -0.0060836424)
(-0.34689504 -0.11018036 -0.0060208188)
(-0.36351594 -0.11363282 -0.0059709068)
(-0.38034764 -0.11709227 -0.0059287496)
(-0.39740646 -0.12057384 -0.0058962798)
(-0.41465007 -0.1240461 -0.0058689576)
(-0.43207481 -0.12753889 -0.0058617853)
(-0.44967158 -0.13102762 -0.0058507737)
(-0.46742483 -0.13451872 -0.0058694146)
(-0.48532969 -0.13801414 -0.0058848617)
(-0.50337895 -0.14150952 -0.0059132433)
(-0.52155567 -0.14500526 -0.0059546294)
(-0.53986032 -0.14850195 -0.0060030218)
(-0.55828217 -0.15200027 -0.0060626926)
(-0.57681765 -0.15549854 -0.006131973)
(-0.59545938 -0.1589991 -0.0062116685)
(-0.61420596 -0.16250137 -0.006299188)
(-0.63305043 -0.16600605 -0.0063981087)
(-0.65199186 -0.16951395 -0.0065039849)
(-0.67102588 -0.1730247 -0.0066200307)
(-0.69015041 -0.17654011 -0.0067429069)
(-0.70936279 -0.18005856 -0.0068742892)
(-0.72866073 -0.18358226 -0.0070117364)
(-0.74804184 -0.18710985 -0.007155856)
(-0.76750376 -0.19064248 -0.0073043071)
(-0.78704436 -0.19417965 -0.0074578034)
(-0.8066608 -0.197722 -0.0076133385)
(-0.82635122 -0.20126926 -0.0077716671)
(-0.84611201 -0.20482197 -0.0079300576)
(-0.86594136 -0.2083815 -0.0080883555)
(-0.88583787 -0.21194558 -0.0082461764)
(-0.9057938 -0.21551618 -0.0084009238)
(-0.92581318 -0.21910513 -0.0085544187)
(-0.9458921 -0.22268283 -0.0087040107)
(-0.9660305 -0.22627835 -0.0088519225)
(-0.98621376 -0.22988693 -0.0089954976)
(-1.0064563 -0.23350262 -0.0091348601)
(-1.0267428 -0.23713064 -0.0092730906)
(-1.0470829 -0.24077225 -0.0094072157)
(-1.06747 -0.24442468 -0.0095410509)
(-1.0879053 -0.24809035 -0.0096733384)
(-1.108385 -0.25176724 -0.0098082736)
(-1.1289108 -0.25545637 -0.0099434893)
(-1.14948 -0.25915349 -0.010084057)