/*--------------------------------*- C++ -*----------------------------------*\
  =========                 |
  \\      /  F ield         | OpenFOAM: The Open Source CFD Toolbox
   \\    /   O peration     | Website:  https://openfoam.org
    \\  /    A nd           | Version:  6
     \\/     M anipulation  |
\*---------------------------------------------------------------------------*/
FoamFile
{
    version     2.0;
    format      ascii;
    class       pointVectorField;
    location    "0.25";
    object      lm;
}
// * * * * * * * * * * * * * * * * * * * * * * * * * * * * * * * * * * * * * //

dimensions      [1 -2 -1 0 0 0 0];

internalField   nonuniform List<vector> 
3969
(
(-4.0340813e-15 -4.7705825e-17 1.3312818e-16)
(9.2297575e-16 -2.6090405e-16 -6.0252577e-16)
(4677.649 -1085.1523 33.400479)
(4439.39 -1917.7179 76.140352)
(-7.1783695e-15 2.6020842e-15 -1.0366567e-15)
(-4.622429e-15 2.1493156e-15 -1.5432914e-15)
(4468.4743 -1975.4715 30.282324)
(4722.4319 -1080.3608 73.445804)
(-6.09887e-15 1.0869625e-16 -2.0095736e-16)
(-3.193382e-15 6.5333688e-16 6.3735029e-17)
(-2.9260211e-15 2.9260844e-16 -4.8432863e-17)
(-1.7497804e-15 -1.5755452e-16 -2.074758e-16)
(-4.3254872e-15 8.6218995e-16 7.3228779e-16)
(-2.4697388e-15 -4.9707839e-16 4.8086129e-16)
(5.2680668e-16 -4.7467027e-16 -5.3018058e-16)
(4515.8182 -1154.318 38.49615)
(4379.4402 -1223.5323 42.751846)
(4373.3277 -1326.6473 50.476644)
(4473.3073 -1468.9102 59.505115)
(4596.4649 -1626.5336 68.014578)
(4646.8609 -1766.5939 73.678612)
(4574.8192 -1861.3571 75.143456)
(42.343066 65.336134 65.268724)
(74.179059 112.74716 76.869082)
(123.54871 158.31018 75.495049)
(189.55025 199.07773 66.34509)
(267.03503 231.13276 51.666101)
(352.89956 253.33553 35.894321)
(441.17973 264.38321 21.146006)
(527.86951 264.90869 8.0128911)
(608.31318 257.08558 -0.41135365)
(681.38032 243.91992 -6.318478)
(746.76483 228.5427 -8.032201)
(806.4216 213.00625 -7.5541738)
(863.88284 200.54634 -6.0172526)
(922.86773 190.65223 -4.9938593)
(987.21284 182.89483 -5.4822461)
(1058.2749 175.78347 -8.456903)
(1137.053 167.60044 -12.916188)
(1221.5264 156.59352 -18.353884)
(1309.3598 142.17548 -22.975872)
(1396.8983 124.79129 -25.08781)
(1481.6849 106.0318 -23.017493)
(1562.2911 88.236945 -15.95727)
(1639.6291 73.534169 -4.1063555)
(1716.3408 63.472461 11.54201)
(1796.6924 58.020327 28.684149)
(1885.4865 56.19563 45.000862)
(1986.8946 54.258213 58.079139)
(2103.3925 49.063319 65.974414)
(2235.2046 36.680574 68.081206)
(2380.2027 14.304925 64.930905)
(2534.6626 -19.606679 57.751228)
(2693.6221 -64.960307 48.591029)
(2852.4121 -120.16163 39.112147)
(3007.4105 -182.93179 30.812639)
(3156.7667 -250.55782 23.651564)
(3300.073 -320.89907 17.393593)
(3438.4802 -391.86111 11.171321)
(3572.9757 -463.49617 3.5375496)
(3705.3505 -534.91449 -5.9657525)
(3833.9799 -606.37301 -16.168639)
(3958.6083 -677.59658 -26.012597)
(4075.1816 -747.4942 -32.756788)
(4183.4339 -815.32904 -34.542063)
(4279.0813 -878.82072 -30.607054)
(4366.0451 -936.75539 -16.95277)
(4443.0868 -984.27517 -3.2914658)
(4519.4987 -1030.5085 18.86571)
(17.669631 -68.27998 -88.317852)
(46.931235 -116.00505 -99.042393)
(93.267432 -166.65923 -108.61966)
(154.28724 -211.08863 -102.81621)
(233.50027 -253.36508 -91.007891)
(321.83404 -289.59282 -72.415445)
(412.21745 -318.34584 -54.192112)
(499.62346 -341.60592 -37.302812)
(577.68933 -359.16304 -25.252986)
(644.78997 -374.68683 -20.612933)
(699.63373 -388.78934 -21.630462)
(745.84759 -405.56628 -28.782053)
(786.97886 -425.36347 -39.338709)
(828.15636 -449.65559 -50.473725)
(872.98556 -477.8293 -59.358251)
(925.11284 -508.9552 -64.154377)
(984.98757 -541.83705 -63.878351)
(1051.494 -574.53612 -59.425622)
(1121.5947 -606.10202 -52.490155)
(1191.4651 -635.61605 -45.622503)
(1257.6493 -663.84402 -41.490095)
(1318.2962 -691.73284 -41.655955)
(1373.5669 -721.74358 -46.695886)
(1426.16 -755.87007 -56.022273)
(1480.3004 -796.60208 -67.748999)
(1541.8392 -845.33546 -78.060848)
(1615.0485 -902.68518 -84.182959)
(1706.3709 -969.05843 -83.748636)
(1816.1452 -1041.7324 -75.851229)
(1943.802 -1118.541 -60.584671)
(2086.3193 -1196.7193 -40.277051)
(2238.566 -1273.0906 -17.834735)
(2395.6135 -1345.6479 3.1789796)
(2552.8844 -1412.873 19.773732)
(2707.7431 -1474.4046 30.130259)
(2859.1543 -1530.5483 34.057424)
(3008.2691 -1582.0049 33.280979)
(3156.9448 -1629.5772 30.188749)
(3306.7375 -1673.2433 27.982722)
(3458.141 -1713.3479 29.035327)
(3609.8524 -1749.0881 34.88269)
(3758.4769 -1779.8218 44.97815)
(3899.6806 -1805.4842 57.692749)
(4029.1463 -1826.3028 69.703683)
(4143.7315 -1844.1696 78.460885)
(4243.2813 -1861.4924 81.501693)
(4341.1763 -1885.1312 79.352881)
(-3.9179893e-16 -2.8384427e-17 -1.6191597e-16)
(6.8869455e-16 3.3255846e-16 -2.9305012e-16)
(-3.0379221e-16 -4.0639439e-16 3.7376104e-16)
(8.6048107e-16 -8.7588792e-17 1.0515471e-16)
(5.0258192e-16 -7.4376592e-16 6.4035694e-16)
(-2.9679417e-15 -3.4669267e-16 7.3060073e-16)
(8.9003905e-16 -2.834795e-16 1.0120244e-16)
(26.785179 -39.798674 63.774102)
(36.886032 -113.11334 87.715011)
(76.465831 -140.00236 84.406981)
(144.19834 -191.71287 74.504217)
(229.29339 -226.07829 54.439507)
(320.97782 -260.89454 31.420258)
(419.53017 -286.23151 12.944505)
(504.57449 -302.87572 -2.6594935)
(586.93329 -318.68947 -8.45311)
(648.37411 -322.0228 -8.2566226)
(703.08483 -331.71062 -1.8102107)
(746.19556 -339.24316 8.7460295)
(782.65136 -353.90373 22.860278)
(822.90218 -371.60336 31.434948)
(870.89945 -396.01235 34.541205)
(928.85826 -425.55603 30.392432)
(997.27904 -458.00569 20.237375)
(1072.6583 -492.3938 6.7877673)
(1150.6859 -526.0422 -6.4255257)
(1226.1307 -558.31412 -15.813772)
(1295.2814 -588.72405 -18.756913)
(1356.4545 -618.5743 -14.309841)
(1411.0813 -649.88066 -3.354408)
(1462.8372 -685.35684 11.584993)
(1518.6385 -728.93999 26.241526)
(1586.3172 -782.28143 36.34338)
(1666.9038 -845.33053 42.934824)
(1764.7761 -916.54314 42.705347)
(1879.9621 -993.99089 38.228602)
(2010.6988 -1074.0119 30.126599)
(2153.324 -1153.1444 21.006793)
(2303.1593 -1228.6388 13.163663)
(2455.9001 -1298.4019 7.9614797)
(2608.3774 -1362.1086 5.8908795)
(2759.1907 -1420.5403 5.8070546)
(2909.0353 -1475.4116 5.9749258)
(3057.6111 -1529.4214 4.1709879)
(3207.4195 -1579.9637 0.076870174)
(3359.0018 -1633.8253 -9.617088)
(3512.3425 -1685.7279 -21.400152)
(3662.9917 -1735.4514 -33.580223)
(3808.0069 -1780.3268 -42.74776)
(3942.0253 -1818.7802 -45.340248)
(4061.8897 -1850.0704 -39.707494)
(4166.5685 -1875.696 -25.917452)
(4258.3746 -1898.7444 -6.7840746)
(4334.2595 -1919.9975 12.461876)
(4613.921 -1924.628 44.267229)
(4671.1797 -1821.6489 52.411231)
(4606.3583 -1667.1603 56.097)
(4464.7316 -1489.6684 54.582701)
(4387.761 -1342.0162 52.349485)
(4418.1674 -1231.7177 55.069874)
(4579.7997 -1161.2603 61.388914)
(4573.1453 -1030.1563 82.528608)
(4491.7387 -983.38701 92.306863)
(4400.5513 -930.1626 93.377208)
(4307.3246 -864.894 92.751796)
(4206.6996 -790.55656 88.453895)
(4097.9556 -711.56529 83.170416)
(3982.52 -631.96874 79.470808)
(3861.7888 -554.76768 78.442032)
(3737.0077 -482.08303 80.0938)
(3609.3643 -413.52429 83.071409)
(3475.9895 -348.33992 84.705779)
(3341.5214 -282.77581 83.789359)
(3198.3963 -223.16845 77.243462)
(3048.4188 -161.20667 64.75532)
(2892.0287 -101.86391 46.289714)
(2731.2085 -46.546395 23.817385)
(2569.858 2.1062328 0.2928411)
(2412.7776 41.863419 -21.193264)
(2265.0468 71.363515 -37.785299)
(2130.5235 90.757218 -47.609803)
(2011.7774 102.25238 -50.43412)
(1908.2887 108.64326 -47.116952)
(1817.9784 113.70299 -39.674576)
(1736.1222 120.79971 -31.045749)
(1658.3135 131.88956 -23.893143)
(1579.9609 147.94977 -19.962877)
(1498.2919 167.9626 -20.118403)
(1412.4645 189.82178 -23.635703)
(1323.9608 210.85676 -29.065423)
(1235.8959 228.7551 -34.080826)
(1151.4679 241.90526 -36.545858)
(1074.8582 249.91187 -35.316674)
(1007.9932 254.27989 -29.08997)
(946.28038 257.66472 -20.396807)
(892.18721 259.09516 -8.6130769)
(839.62223 263.48823 0.74531792)
(783.09042 269.45527 6.1975239)
(718.19216 277.2575 5.5967312)
(643.36706 285.1287 -3.6908031)
(559.428 288.42463 -17.91321)
(466.74698 286.97391 -38.75848)
(370.34627 272.4002 -59.888797)
(280.53325 252.80486 -81.701533)
(196.99012 219.72433 -95.738679)
(131.21075 176.31982 -98.779588)
(82.946071 124.01074 -92.061411)
(70.321101 74.773169 -62.845149)
(-6.7652979e-16 3.5118239e-16 1.2802193e-16)
(-2.3129286e-15 2.7505878e-16 1.3239036e-16)
(-3.6393531e-15 -1.4253491e-16 -1.5464221e-16)
(-4.9195801e-15 -9.3657526e-16 4.6870719e-16)
(-4.0844143e-15 -8.2232132e-16 1.723462e-16)
(-2.0271537e-15 -1.8079967e-16 2.6438577e-16)
(-2.0670014e-15 8.6459225e-16 1.4474963e-15)
(-4.5036838e-15 1.2268482e-15 -2.065022e-16)
(-1.9919023e-15 1.1694967e-15 -1.6367101e-16)
(-2.9438013e-15 1.1112212e-15 -1.969436e-16)
(-2.4504202e-15 9.597151e-16 -1.1789697e-16)
(-5.2893259e-15 2.5926013e-15 -8.0820905e-16)
(-1.8775489e-15 1.1365606e-15 -5.8525306e-16)
(-7.4714327e-17 -2.094137e-16 9.7564992e-17)
(4436.1578 -1916.674 74.842368)
(4431.2492 -1915.3325 67.682891)
(4429.528 -1915.8363 56.526935)
(4432.2626 -1919.0762 45.321619)
(4439.4807 -1926.5843 35.737599)
(4450.3326 -1938.0641 30.591629)
(4461.0414 -1954.1279 28.044692)
(4665.135 -1096.5862 31.673569)
(4655.7894 -1101.5284 33.843555)
(4655.5426 -1100.9876 40.034669)
(4663.3551 -1097.3633 49.077598)
(4677.6822 -1092.0155 59.915484)
(4695.706 -1087.703 67.712139)
(4710.5197 -1084.7535 74.08811)
(19.637584 40.301823 54.684011)
(51.301807 72.959333 51.840787)
(96.543515 104.9032 52.522575)
(158.09106 132.33725 44.375403)
(232.20439 154.64107 34.167788)
(315.98504 171.75106 23.531406)
(403.8362 181.10747 12.820105)
(492.56842 185.53851 4.4162926)
(576.68407 183.38771 -2.4359496)
(654.70273 177.58127 -6.4824632)
(724.97893 168.58607 -8.9540424)
(788.88323 158.41598 -10.193873)
(848.79037 147.77461 -10.619994)
(908.71799 136.40765 -11.4308)
(972.78726 124.91087 -13.033293)
(1043.7467 112.10075 -15.838289)
(1123.1767 97.838781 -19.527716)
(1209.8312 81.430368 -23.390213)
(1301.415 63.51581 -26.257272)
(1393.9204 44.898993 -26.864696)
(1483.7403 27.040686 -23.964818)
(1568.4415 11.057164 -17.274498)
(1648.1244 -2.3037952 -6.9560944)
(1725.0127 -13.393767 5.6180857)
(1803.9369 -23.550878 18.818295)
(1890.1711 -35.215712 30.369371)
(1988.9293 -50.956118 39.315919)
(2103.0919 -73.159719 44.010974)
(2233.1135 -103.71161 45.052015)
(2376.6816 -142.89756 43.067258)
(2529.3099 -190.26182 39.483247)
(2685.4382 -244.25702 35.515707)
(2839.8237 -302.98534 32.087599)
(2988.7152 -364.79966 29.349352)
(3130.17 -428.30146 26.693025)
(3264.1023 -492.86178 23.429909)
(3392.0329 -557.86227 18.603188)
(3515.3942 -623.8241 11.659539)
(3635.6235 -689.68189 2.8574114)
(3752.3066 -754.97867 -6.2627014)
(3864.9632 -818.4232 -14.275036)
(3970.523 -878.82752 -18.921358)
(4068.1953 -934.48917 -18.856655)
(4156.9107 -984.51898 -13.576905)
(4234.8011 -1029.0536 -2.8426869)
(4308.4481 -1067.1386 9.291226)
(4392.51 -1107.881 24.879922)
(3.2778448 26.125118 35.386199)
(32.393768 43.322174 32.76078)
(79.361889 67.163024 31.421727)
(140.55981 86.62774 24.537872)
(214.26028 102.58634 17.636927)
(297.52189 113.97884 9.5623096)
(386.23093 120.07177 2.9843726)
(475.81087 121.14746 -3.3097493)
(561.88136 117.17626 -7.5037207)
(641.91859 109.77911 -11.187261)
(714.57186 99.39681 -13.627044)
(780.24826 87.418477 -15.444121)
(841.67634 74.680016 -17.051278)
(902.52312 61.083873 -19.002367)
(966.39398 46.499326 -21.370554)
(1036.8437 30.349114 -24.405602)
(1115.2587 12.4519 -27.479228)
(1200.87 -7.2272147 -30.188486)
(1291.1245 -28.082771 -31.754889)
(1382.064 -49.067744 -31.160959)
(1469.7397 -69.163442 -27.87452)
(1551.8356 -87.395719 -21.678992)
(1627.9784 -103.67038 -12.95993)
(1701.4683 -118.55311 -2.6752677)
(1776.7383 -134.16611 7.5667118)
(1859.5262 -152.12078 16.887232)
(1955.4627 -175.14298 24.1065)
(2066.8434 -205.08686 28.304496)
(2194.083 -242.28691 30.386219)
(2334.3539 -287.11901 30.739794)
(2482.7941 -338.34657 30.223162)
(2633.7142 -394.44612 29.597961)
(2782.2221 -453.82599 29.154178)
(2924.7429 -515.01436 28.604405)
(3060.0677 -577.13345 27.611204)
(3188.5089 -639.56881 25.315286)
(3311.7499 -701.93995 21.531704)
(3431.2744 -764.09656 15.796147)
(3548.7146 -824.97819 8.9793893)
(3663.1704 -884.04612 2.364996)
(3774.0811 -940.0946 -2.9933956)
(3878.8501 -992.19512 -5.2524736)
(3976.0383 -1039.5737 -4.0809559)
(4065.138 -1082.3854 0.76308025)
(4145.8507 -1120.863 10.137032)
(4221.7003 -1155.1746 18.763812)
(4305.8283 -1193.3264 32.690533)
(-6.2293277 13.360752 19.393919)
(22.201382 22.662825 14.248595)
(69.694337 35.797752 11.542279)
(133.5684 46.896563 5.8561077)
(211.67459 54.297276 0.16888095)
(299.28794 58.616677 -5.1757136)
(391.3956 57.447487 -9.7782542)
(483.28739 52.689951 -12.716341)
(570.53692 43.452913 -15.16656)
(650.39043 31.502834 -16.949314)
(720.91477 17.541295 -18.388525)
(783.7364 2.194011 -20.206409)
(841.71693 -13.425168 -22.438274)
(898.66913 -29.761123 -25.229437)
(958.7584 -46.924778 -28.089217)
(1025.0892 -65.720269 -31.104646)
(1098.6758 -86.116414 -33.506107)
(1178.6228 -108.01153 -35.319875)
(1262.1295 -130.85342 -35.498035)
(1345.2388 -153.78043 -34.048959)
(1424.4959 -175.8166 -30.57117)
(1497.8301 -196.30444 -25.413814)
(1566.4938 -215.22392 -18.936331)
(1632.4705 -233.99541 -12.24003)
(1701.0836 -253.19762 -5.260851)
(1777.6761 -275.3035 0.53876806)
(1867.2323 -302.04991 5.2406517)
(1972.3381 -334.7613 9.0076398)
(2093.4189 -374.2088 11.879317)
(2227.9952 -420.28663 14.612614)
(2371.904 -471.90241 17.496552)
(2520.188 -527.89826 20.631224)
(2668.1957 -586.63315 23.752544)
(2812.7371 -646.94061 26.450802)
(2952.4167 -708.04215 27.944962)
(3087.4619 -769.1676 27.646974)
(3219.0902 -830.19379 25.198265)
(3348.9074 -890.70714 20.975073)
(3477.7725 -950.10247 15.646432)
(3605.1994 -1007.5397 10.294277)
(3729.9609 -1061.8957 6.2990794)
(3849.1958 -1112.6744 4.8633671)
(3961.1692 -1158.9595 6.7421431)
(4064.616 -1201.1358 12.087652)
(4159.0412 -1239.5094 20.101439)
(4247.3191 -1274.8348 29.506646)
(4336.4829 -1310.6194 40.730133)
(-11.832267 2.0065817 -1.4596262)
(18.473904 3.0072679 -8.7905853)
(70.1862 7.0430612 -12.709977)
(140.96413 8.3959195 -17.174662)
(226.02986 6.7182799 -19.725978)
(319.43147 1.8479612 -21.523693)
(415.76604 -8.278253 -21.313063)
(508.64137 -21.417672 -21.247642)
(594.29743 -38.305472 -20.648897)
(668.94109 -56.594266 -20.92494)
(733.34269 -75.82406 -22.117056)
(789.581 -94.563956 -24.667353)
(840.84956 -112.83245 -27.822213)
(891.99551 -131.41776 -31.515934)
(946.70311 -149.83496 -35.245928)
(1007.3729 -169.73682 -38.058356)
(1074.2404 -190.79855 -40.077845)
(1146.1672 -213.37751 -40.539086)
(1219.8339 -236.89576 -39.609577)
(1292.3038 -260.81295 -37.431154)
(1360.5115 -284.08648 -34.075973)
(1424.0554 -306.34361 -30.066923)
(1482.5179 -327.94187 -25.800795)
(1540.3092 -348.37467 -21.173399)
(1601.418 -369.79254 -17.450028)
(1670.8024 -393.52069 -13.979874)
(1752.8084 -421.09701 -10.680005)
(1850.5058 -454.09211 -7.3689664)
(1964.6691 -493.16765 -3.6022477)
(2093.6772 -538.6249 1.1315571)
(2234.457 -589.9544 6.6358264)
(2382.7668 -646.23572 12.777482)
(2534.5043 -706.04295 18.935139)
(2686.5035 -768.17604 24.275124)
(2837.0331 -831.40074 28.023925)
(2985.6841 -894.8145 29.486971)
(3133.6156 -957.85831 28.720212)
(3281.6281 -1019.9475 25.967114)
(3430.6047 -1080.4931 21.897323)
(3579.5609 -1138.8904 17.672957)
(3727.1023 -1194.7806 15.193348)
(3869.6407 -1247.3956 15.256562)
(4004.0662 -1296.2877 18.434197)
(4128.3463 -1341.3757 24.399151)
(4241.3417 -1383.0374 32.106754)
(4344.6064 -1421.4046 41.201152)
(4440.9378 -1456.4343 49.813523)
(-15.343615 -12.538217 -21.871137)
(19.023185 -21.095201 -31.032209)
(74.391414 -29.794404 -35.326149)
(151.00403 -39.655463 -36.820957)
(241.89025 -51.824138 -36.54598)
(340.86868 -66.079801 -34.027558)
(439.94223 -84.594509 -30.857919)
(533.10719 -104.64696 -27.793875)
(614.98146 -127.38085 -25.575366)
(684.03708 -150.0742 -25.253324)
(741.387 -172.26595 -26.785182)
(789.83818 -193.04997 -29.809791)
(834.21573 -213.09649 -33.630234)
(879.35201 -231.94506 -38.013193)
(928.48797 -250.88501 -41.486803)
(983.57952 -270.598 -43.687207)
(1044.5864 -291.51738 -44.516481)
(1109.3943 -313.76286 -43.757754)
(1175.3308 -336.96311 -41.906748)
(1239.194 -360.84522 -39.141909)
(1299.0196 -384.19533 -36.096698)
(1356.746 -407.56635 -33.820133)
(1412.1033 -430.7703 -31.396096)
(1462.9855 -453.90073 -29.932436)
(1518.2156 -477.96173 -28.778057)
(1581.8418 -503.86447 -27.926691)
(1658.4186 -533.46495 -26.642435)
(1750.843 -567.59616 -24.194119)
(1860.287 -607.62432 -20.129061)
(1986.005 -653.92447 -14.207427)
(2125.5338 -706.53574 -6.6869686)
(2275.191 -764.81629 1.9607506)
(2431.0635 -827.44663 10.728183)
(2589.8623 -893.07068 18.603797)
(2749.2391 -960.17405 24.696512)
(2908.6104 -1027.2416 28.25815)
(3068.3326 -1093.4322 29.301561)
(3229.8168 -1157.8234 28.075153)
(3399.7018 -1223.5683 25.397823)
(3569.2425 -1285.0826 23.126403)
(3735.6053 -1341.7886 21.906838)
(3897.9349 -1395.0893 23.267882)
(4051.5203 -1444.5452 27.400651)
(4193.085 -1490.3652 34.083727)
(4320.2617 -1532.7601 41.939342)
(4433.4565 -1571.7476 51.194388)
(4534.6453 -1605.5301 57.833533)
(-11.396322 -28.964025 -45.737226)
(25.434079 -50.157997 -56.503533)
(81.330707 -70.756493 -60.650917)
(158.46201 -91.813505 -59.644518)
(250.66651 -112.90245 -54.494271)
(349.96663 -136.35821 -46.783489)
(448.62909 -161.31121 -38.346319)
(539.50659 -187.41962 -31.23731)
(618.05424 -213.79503 -26.678423)
(682.57974 -238.71503 -25.521292)
(735.16803 -261.66059 -27.297351)
(778.99206 -282.77461 -31.695342)
(819.57516 -302.29218 -37.549702)
(861.28414 -321.07846 -43.229838)
(907.83882 -340.07233 -47.636758)
(960.80329 -360.27515 -50.119175)
(1019.6037 -382.3049 -50.44458)
(1082.2728 -406.16233 -48.760905)
(1145.735 -431.87529 -45.819727)
(1207.1886 -458.39635 -42.523872)
(1264.0188 -485.43948 -40.006855)
(1318.8939 -512.24804 -38.233257)
(1366.9409 -537.82793 -38.13129)
(1416.3978 -564.6785 -39.424859)
(1469.3749 -591.62793 -41.934212)
(1530.3615 -621.2315 -44.252945)
(1604.5359 -653.79145 -44.821817)
(1694.8003 -691.76924 -43.31694)
(1802.6127 -735.71255 -38.816174)
(1927.5724 -786.81467 -31.033048)
(2067.3535 -844.5334 -20.396068)
(2218.5679 -908.00974 -7.9050276)
(2377.3243 -975.58218 4.7575665)
(2540.014 -1045.5025 16.202255)
(2704.2661 -1115.5825 24.83299)
(2868.8503 -1184.2828 29.828163)
(3034.3475 -1250.6105 31.350605)
(3201.2553 -1313.6032 30.116281)
(3370.5811 -1373.2629 28.116248)
(3551.7372 -1433.8239 25.271129)
(3722.9277 -1486.2562 26.156769)
(3890.0826 -1535.2481 29.854546)
(4048.4021 -1580.8043 36.720712)
(4193.5286 -1623.0055 45.651919)
(4323.034 -1661.7815 54.268586)
(4436.6212 -1697.7305 62.20915)
(4538.6272 -1729.6611 65.227723)
(-2.6146736 -52.856008 -64.313707)
(30.819357 -79.42807 -76.627906)
(82.325968 -112.52362 -82.359191)
(155.06963 -141.30895 -78.519944)
(244.03025 -169.76361 -70.034487)
(341.3556 -198.79483 -57.603897)
(438.40895 -227.29673 -45.279935)
(528.79753 -255.71114 -34.602632)
(606.51891 -283.18143 -27.517782)
(670.22186 -308.41533 -25.337031)
(721.20701 -332.38717 -26.907758)
(763.35163 -354.08815 -32.607247)
(801.93725 -375.23899 -39.985182)
(841.96344 -395.41862 -47.207744)
(887.66681 -416.52513 -52.720417)
(940.67453 -438.80861 -55.404739)
(1001.152 -463.1254 -55.010956)
(1066.5175 -489.33345 -52.178425)
(1133.5833 -517.28827 -47.952665)
(1198.3789 -546.14023 -43.986114)
(1258.9179 -575.54527 -41.147561)
(1313.0033 -604.49449 -41.051804)
(1363.477 -634.10565 -43.127344)
(1412.0629 -664.39259 -47.473785)
(1464.629 -695.81684 -53.181989)
(1525.4136 -730.5204 -58.22433)
(1599.9398 -769.81621 -61.030153)
(1691.958 -815.42439 -60.189165)
(1802.729 -868.48642 -54.822513)
(1931.2025 -929.02308 -44.888629)
(2074.4313 -995.90918 -31.328462)
(2228.1151 -1067.603 -15.732948)
(2387.5183 -1141.6039 -0.15079738)
(2548.663 -1215.551 13.455807)
(2708.9999 -1287.0182 23.449784)
(2867.8055 -1354.1975 29.155875)
(3025.8382 -1416.3264 31.177441)
(3184.8138 -1472.9525 30.572697)
(3346.2487 -1524.3874 29.063831)
(3510.638 -1571.0188 28.790454)
(3675.4021 -1613.516 31.421244)
(3836.3635 -1653.1647 37.156823)
(3988.8927 -1689.9936 45.57804)
(4127.7484 -1724.6616 55.184067)
(4249.8459 -1756.8998 63.149773)
(4355.2427 -1787.6165 69.447766)
(4445.7133 -1815.711 71.214136)
(-1.8726199e-15 -1.0357256e-16 4.2324109e-16)
(-4.3693994e-15 5.8098526e-16 1.0825799e-16)
(-1.86708e-15 5.0203615e-16 5.7484399e-16)
(-1.1298519e-15 4.4303811e-16 -1.5186772e-16)
(-1.5283164e-15 1.7502349e-16 4.7144117e-17)
(-3.9278597e-15 -6.147074e-18 -1.0233878e-17)
(-3.270765e-15 8.5080195e-17 2.8271762e-17)
(-1.444637e-15 3.1767481e-17 -1.0328492e-16)
(-1.9600489e-15 -2.0641393e-16 2.5996682e-17)
(-1.0758982e-15 -5.0887233e-16 -1.6282415e-16)
(-1.1902312e-15 -6.3217422e-16 -1.0496995e-16)
(-2.2455722e-15 -1.0363924e-16 3.7607835e-16)
(-1.7254929e-15 1.2766475e-16 7.9907906e-17)
(-6.542485e-16 2.4659353e-16 4.7610311e-16)
(-1.0183069e-15 2.0413811e-16 3.0876606e-16)
(-1.2825224e-16 3.2154578e-16 2.6910031e-16)
(-2.4669526e-15 5.8726168e-16 -3.2350189e-17)
(-1.9694108e-15 5.8752001e-16 2.9593509e-16)
(-1.9972486e-15 5.0741204e-16 1.6376266e-16)
(-5.0142844e-16 5.9082617e-16 -1.5096731e-17)
(2.8672985e-17 2.0007103e-16 -2.079567e-16)
(-3.5598279e-15 1.6770216e-16 6.1584209e-17)
(1.5219227e-15 -3.8112137e-16 -3.4960392e-16)
(-8.8364966e-17 -1.5289127e-16 1.7491834e-16)
(2.7397895e-16 -2.6900304e-16 -2.0413732e-16)
(-5.1236454e-16 -3.7600259e-16 -4.411389e-17)
(-1.3114086e-15 -5.3747975e-16 1.2489795e-16)
(2.0041989e-16 -4.4379834e-16 -1.4360784e-16)
(-1.3448657e-15 3.3966264e-16 -2.7012678e-16)
(-2.2010094e-15 1.2158219e-16 1.1470551e-16)
(-1.2722141e-15 -2.3577892e-16 -7.7366055e-17)
(-2.6936153e-15 2.298542e-17 6.0151854e-16)
(-1.8084585e-15 2.5926424e-16 8.2177642e-17)
(-1.0121806e-15 3.7760621e-16 1.5728837e-17)
(-3.5076342e-15 -1.049112e-16 -1.8966684e-16)
(-1.2388067e-16 -2.746004e-16 -1.3203227e-16)
(-1.1077126e-15 -2.2449831e-16 5.9960705e-17)
(-7.9462407e-16 5.2806017e-17 1.8160622e-16)
(-1.481116e-15 2.6347307e-16 -6.003674e-17)
(5.3541372e-16 1.9494005e-16 5.7756958e-17)
(-2.5861876e-15 -7.0653702e-17 -1.8824779e-16)
(-1.6152529e-15 1.8241927e-16 3.8488004e-16)
(-1.0389662e-15 3.299921e-17 2.9700946e-16)
(-3.8817577e-15 -1.9427146e-16 -1.2145786e-15)
(-1.6161979e-15 2.8442108e-16 -1.856842e-16)
(8.1577518e-16 1.8112067e-17 2.0819295e-16)
(-2.485062e-15 2.8178417e-16 -5.4749215e-16)
(-1.8307085e-15 4.4562511e-16 -1.4619564e-16)
(-1.4586292e-15 4.0358521e-16 -4.0281137e-16)
(41.926492 -24.917317 -46.822008)
(47.376511 -28.914702 -29.745801)
(52.885089 -30.440926 -15.314229)
(54.738592 -31.311598 -2.8965395)
(51.658386 -28.499608 9.9616319)
(46.868842 -27.80231 22.830921)
(37.721207 -18.996184 36.197544)
(72.530794 -108.04973 -77.794443)
(87.922863 -112.47334 -46.22008)
(92.349756 -106.70798 -22.144117)
(91.225504 -102.82654 -4.1198236)
(89.830865 -104.0511 13.915681)
(79.226049 -100.37093 34.232147)
(67.71186 -96.181713 60.819781)
(116.70163 -160.37469 -81.817829)
(130.78737 -155.46869 -56.332053)
(139.72904 -155.14198 -30.764792)
(140.35431 -152.34809 -7.6358366)
(136.4238 -148.49217 15.434503)
(124.15408 -146.34887 35.857206)
(109.28541 -145.11132 66.154463)
(177.19842 -216.62403 -80.89126)
(190.76907 -216.53778 -57.671065)
(197.83686 -212.01201 -32.977293)
(199.52155 -208.83768 -11.757778)
(194.99195 -205.76195 9.3159462)
(185.79107 -204.27641 31.373955)
(169.75475 -199.92046 53.635249)
(251.93617 -264.54184 -72.431845)
(262.19867 -261.85994 -52.634892)
(270.33883 -257.97426 -33.883871)
(271.80119 -253.68011 -14.534313)
(269.42278 -250.7949 3.9254628)
(259.9442 -247.62116 20.498532)
(249.56598 -246.9858 41.153391)
(332.05913 -301.24289 -58.452281)
(340.41726 -298.96249 -44.589141)
(345.84114 -293.76919 -28.643793)
(347.75833 -288.79647 -15.211776)
(345.58846 -284.04797 -1.3644161)
(342.4458 -280.92724 10.582401)
(332.32941 -279.08386 21.875021)
(418.18329 -329.42869 -44.655578)
(422.70666 -326.25817 -34.452474)
(426.84186 -321.66975 -25.109104)
(428.2255 -315.19769 -15.006687)
(426.72314 -309.8175 -5.3214608)
(423.81903 -305.69702 1.393904)
(420.81127 -305.6158 6.3229637)
(497.71468 -348.98561 -30.784633)
(500.62311 -344.95669 -26.133103)
(504.11654 -338.2995 -19.962601)
(504.68919 -330.8887 -14.617619)
(506.55056 -324.61289 -9.3846208)
(504.84675 -318.28031 -4.455164)
(503.70118 -315.99903 -3.6065708)
(574.17355 -362.96411 -21.775913)
(574.85067 -356.82695 -18.470074)
(574.73656 -349.08762 -14.524264)
(576.9312 -341.22068 -11.026236)
(576.38321 -334.04455 -8.2633029)
(579.45229 -326.33937 -6.5406393)
(578.15731 -324.44574 -10.363322)
(638.37159 -371.51726 -16.95863)
(638.71066 -366.30519 -15.674434)
(640.32476 -358.78199 -12.339387)
(641.10453 -348.53405 -8.3576103)
(641.61531 -338.43976 -6.7910298)
(643.61567 -329.63251 -4.3303762)
(644.3976 -323.80329 -7.5226617)
(695.38642 -383.2296 -18.079341)
(695.56548 -376.14775 -15.248007)
(695.90845 -367.45726 -10.868594)
(697.08768 -355.52558 -7.0184307)
(697.31784 -345.25943 -3.4480621)
(698.83414 -335.05132 -1.1819449)
(698.81053 -327.14107 -3.2840713)
(743.62384 -396.15794 -23.340659)
(745.17993 -389.34385 -18.710688)
(746.13425 -379.47034 -12.664184)
(747.1286 -368.03318 -6.1442181)
(747.76709 -355.88622 -0.68341184)
(747.06461 -342.84637 4.7901754)
(746.70921 -332.75369 6.3428568)
(789.06906 -416.11108 -32.142342)
(791.26053 -408.99003 -24.470788)
(792.70242 -399.229 -15.389297)
(793.93452 -385.91372 -6.7170621)
(794.43109 -372.36215 1.87239)
(792.03257 -359.57799 9.3528707)
(791.10259 -346.65456 17.131046)
(833.33855 -440.60699 -41.295934)
(836.51796 -434.52665 -30.838968)
(838.99579 -424.13906 -19.997015)
(840.24661 -411.10816 -8.9890201)
(840.73777 -397.07025 2.0686869)
(837.28192 -383.56794 11.641978)
(834.94775 -369.69267 24.145935)
(880.79792 -471.52187 -48.969622)
(885.05708 -465.96171 -36.528129)
(888.12992 -455.31465 -24.613779)
(889.79551 -442.08869 -12.252165)
(890.77602 -426.95023 0.039452216)
(886.63788 -413.44404 11.095766)
(883.8738 -399.38773 25.926923)
(933.71677 -505.6934 -53.368004)
(938.30912 -500.77309 -40.646037)
(941.8101 -490.02012 -28.765749)
(944.37878 -476.83523 -16.697287)
(945.3462 -461.62177 -3.9454226)
(942.25169 -448.52466 6.5266726)
(939.65311 -435.05891 21.612416)
(992.65123 -541.49474 -54.028701)
(997.24611 -536.87687 -42.357249)
(1001.2047 -525.91942 -31.876553)
(1004.3723 -512.42009 -20.905284)
(1006.0181 -497.33593 -9.7701825)
(1004.797 -483.94362 -0.52069766)
(1003.0692 -471.80031 12.322114)
(1057.1379 -576.19207 -51.166826)
(1061.2708 -571.45776 -41.914242)
(1065.2723 -560.35664 -33.427864)
(1069.2953 -546.84854 -24.788664)
(1071.4006 -531.81177 -15.958482)
(1072.7634 -518.41804 -8.8691029)
(1072.4037 -507.50568 0.21997803)
(1124.7226 -608.18487 -46.303512)
(1128.1994 -602.92649 -39.697082)
(1132.3304 -591.84275 -33.754899)
(1136.8869 -577.76867 -27.489346)
(1139.8068 -563.08956 -21.316267)
(1143.6422 -549.05413 -16.551182)
(1144.8128 -539.49702 -11.527052)
(1192.7378 -636.72192 -41.204537)
(1195.7322 -630.91447 -37.004084)
(1199.8968 -619.9453 -33.184004)
(1205.0452 -605.69555 -28.797561)
(1208.6257 -591.06685 -24.898154)
(1214.3217 -576.49211 -21.859156)
(1216.9038 -567.44633 -19.919783)
(1258.4837 -662.93272 -37.901734)
(1261.4428 -656.51644 -35.080288)
(1266.0229 -645.90554 -32.259548)
(1271.5648 -631.03415 -28.827467)
(1275.7916 -616.6268 -25.953279)
(1282.4237 -601.03244 -23.585939)
(1285.6771 -592.26099 -22.766803)
(1320.6722 -688.64398 -37.800094)
(1324.2076 -681.98694 -34.742886)
(1329.5597 -671.73369 -31.722954)
(1335.3106 -656.85097 -27.801536)
(1340.1666 -642.31755 -24.49977)
(1346.335 -626.08669 -21.435403)
(1349.6799 -616.74997 -19.312488)
(1379.3086 -717.12817 -41.344201)
(1384.1758 -710.41375 -36.635577)
(1390.6131 -700.80939 -32.01039)
(1396.7462 -685.922 -26.322637)
(1401.9583 -671.49772 -21.212689)
(1406.9527 -654.71849 -16.103299)
(1409.5224 -644.44437 -10.382677)
(1436.4046 -750.96936 -48.075012)
(1443.2597 -745.15766 -40.577072)
(1451.1884 -736.04959 -33.304276)
(1457.6764 -721.92934 -24.850621)
(1463.2836 -707.1098 -17.031313)
(1466.4119 -690.22302 -8.7482564)
(1467.427 -678.9032 1.8376612)
(1495.3304 -793.36333 -56.803364)
(1504.8889 -788.49428 -45.574136)
(1514.0316 -779.91399 -35.347891)
(1521.5449 -766.47398 -23.70376)
(1526.9414 -751.5729 -13.184756)
(1528.5004 -736.09183 -1.3134187)
(1527.871 -724.19777 13.571323)
(1560.5686 -845.4035 -64.444709)
(1572.6247 -841.92072 -50.513243)
(1583.0537 -834.26478 -37.356681)
(1590.8892 -820.99633 -22.46088)
(1596.4298 -806.61663 -10.670834)
(1598.2471 -792.44676 4.167886)
(1596.89 -780.5957 21.300596)
(1636.3662 -907.28671 -69.135541)
(1650.6175 -905.31482 -53.732303)
(1661.9389 -897.93292 -37.602138)
(1671.9359 -885.96025 -23.502223)
(1678.3689 -872.1698 -7.9844411)
(1679.2911 -858.8903 7.9543092)
(1676.777 -847.56406 26.655754)
(1727.8775 -978.39027 -68.29638)
(1741.7676 -976.95372 -51.980886)
(1755.0099 -970.228 -36.327065)
(1764.4382 -957.65593 -21.950922)
(1771.7885 -944.61572 -6.1653817)
(1773.4027 -931.75076 8.6738185)
(1771.9254 -922.54295 27.234266)
(1834.7402 -1054.962 -61.236175)
(1848.8361 -1054.1994 -45.865309)
(1861.2962 -1046.8122 -32.262335)
(1872.114 -1034.8652 -18.706186)
(1879.5848 -1022.2906 -5.2955166)
(1883.2728 -1010.4891 8.0576047)
(1882.5707 -1002.4635 24.199898)
(1958.201 -1134.4303 -48.136313)
(1970.2598 -1132.9255 -35.86773)
(1982.5124 -1125.2677 -24.888527)
(1993.0653 -1113.1346 -14.485871)
(2001.3095 -1100.9459 -3.7770848)
(2006.9471 -1089.5985 6.5146528)
(2008.0572 -1083.3826 18.738547)
(2094.8332 -1212.5737 -31.062032)
(2105.0657 -1210.218 -22.406916)
(2115.7931 -1201.7213 -15.479473)
(2126.239 -1189.4434 -8.4878879)
(2134.933 -1177.2894 -1.5951158)
(2142.6176 -1166.5557 5.2015234)
(2145.7158 -1161.74 12.649981)
(2241.6761 -1286.8722 -12.05437)
(2249.5279 -1282.9296 -7.7782426)
(2258.5413 -1273.7942 -4.6172381)
(2268.4606 -1261.211 -1.5749722)
(2277.4843 -1249.2631 1.5772431)
(2286.8952 -1238.8872 4.8872338)
(2291.9978 -1235.0106 7.7384233)