/*--------------------------------*- C++ -*----------------------------------*\
  =========                 |
  \\      /  F ield         | OpenFOAM: The Open Source CFD Toolbox
   \\    /   O peration     | Website:  https://openfoam.org
    \\  /    A nd           | Version:  6
     \\/     M anipulation  |
\*---------------------------------------------------------------------------*/
FoamFile
{
    version     2.0;
    format      ascii;
    class       pointScalarField;
    location    "0.97";
    object      E;
}
// * * * * * * * * * * * * * * * * * * * * * * * * * * * * * * * * * * * * * //

dimensions      [1 -1 -2 0 0 0 0];

internalField   nonuniform List<scalar> 
3969
(
113563.4
119097.75
-1774025.1
-820177.98
126379.5
130742.65
-1229541.3
-2655930.2
60280.595
25408.511
8772.4203
5948.7723
16492.346
42643.115
96788.515
-980954.77
-968703.65
-958876.83
-949248.3
-941618.72
-933528.17
-704440.53
118811.63
97159.975
95835.528
93782.145
89732.165
85426.283
79256.487
73746.974
67530.037
61857.002
56733.401
51773.182
47158.16
42888.106
38967.763
35198.457
31925.591
28560.047
25604.556
22675.91
20062.051
17538.784
15264.402
13116.798
11357.314
9685.1417
7941.0908
6685.8047
5423.5229
4285.2077
3344.5321
2521.5795
1764.7767
1167.2975
906.13497
159.23139
444.29407
-489.41152
184.35643
-845.49662
-116.47744
-450.94423
-665.22875
151.81132
-121.74544
-1896.4015
-943.45938
105734.17
74717.941
84796.855
79745.946
76907.817
71397.607
66962.016
61223.783
56401.005
51315.145
46326.296
42112.472
37921.828
34413.819
30398.971
27394.077
24313.189
21447.808
19195.11
16565.266
14518.697
12978.844
10316.162
8927.1652
7227.4507
6217.2949
4067.4502
3153.3825
1947.5011
1289.006
680.58773
-8.5532148
-414.34728
-882.5892
-1068.0475
-1377.5287
-1316.6387
-1810.4286
-1633.5905
-1877.4951
-1627.9702
-1629.3938
-1727.3214
-1630.0016
-1258.2027
-1164.6244
-749.55133
63623.781
28484.976
8872.5425
9653.5166
15381.096
39358.809
83890.048
173478.74
109663.5
87419.1
105733.78
87681.197
87587.834
80061.627
71057.989
66917.562
57967.664
57552.705
52706.995
50309.459
45380.249
41255.009
38164.799
33388.687
30668.675
26902.849
23839.617
20980.539
18477.708
16173.62
14086.577
11852.051
10414.823
6063.2519
4118.8066
2891.5805
1410.8145
229.29614
-723.20002
-1631.2291
-2273.0325
-3008.2187
-4635.3412
-1287.9174
-4475.264
-4586.5611
-4954.9245
-5375.4024
-5351.0186
-5876.017
-5886.6085
-5941.7692
-5149.5467
-8353.6051
-1974445.4
-1660901.6
-2008810.6
-1904610.9
-1924290.6
-1730188.4
-2104046.9
-9289.7627
-4452.0472
-1452.1583
-1638.9967
-1775.1832
-2135.7336
-2066.063
-2263.2422
-2169.9429
-1373.9043
-56.867184
-3511.4743
-1098.6059
-842.76586
-257.73624
498.39343
1132.8289
2177.8841
3092.3887
4351.5039
5541.8042
7058.4156
8752.9296
10515.451
12477.175
14507.584
16918.811
19382.582
22303.34
25284.355
28663.023
32774.66
36760.407
39933.045
45253.255
49843.819
56525.274
61422.523
67324.591
73098.896
81340.147
84853.616
94112.148
94814.121
95143.122
102292.56
129406.74
93176.805
91202.163
90567.772
90177.342
89914.398
89135.955
94903.343
77782.385
84037.265
92849.235
96546.68
96338.53
99778.733
83659.67
-922102.31
-922780.02
-922489.86
-923007.45
-923037.56
-923110.83
-924020.75
-1994263.6
-1994929.4
-1995341.4
-1995553.5
-1995766.5
-1996815.6
-1997487.8
75053.156
65053.019
65256.595
62707.097
61793.053
58233.928
55049.19
51013.5
47054.721
43515.803
39990.154
36360.813
33316.798
30185.526
27464.878
25018.781
22713.347
20550.854
18683.072
16906.494
15301.571
13700.758
12314.8
10961.383
9657.9464
8593.3728
7307.3835
6665.5064
5588.1274
4937.6215
4280.7387
3695.1132
3182.4076
2765.9094
2389.3648
1949.062
1943.8225
1612.3699
1478.1865
1357.9682
1492.0814
729.12333
1836.1868
522.47374
1717.4064
2484.7596
2792.7776
33730.426
31679.065
33762.024
33145.228
32180.31
30699.862
28216.208
26734.983
24388.173
22695.54
20636.412
18881.017
17647.802
16432.92
15312.448
13897.532
12752.392
11556.655
10459.729
9482.6999
8632.7094
7806.9081
7005.0695
6326.4534
5778.3487
5231.1077
4502.9328
4231.6891
3661.5368
3396.727
3061.8734
2790.9822
2562.3534
2428.0396
2329.0573
2107.1523
2370.2136
1410.6887
2445.4508
1375.9797
2229.2214
1690.7294
2251.2541
1349.2169
3560.8885
1273.6437
3521.7419
12284.349
9126.5954
12459.524
11344.335
12138.08
11347.74
11210.336
10411.706
9580.531
9131.473
8420.83
7494.9071
6924.7315
6031.6853
5644.3113
5036.0568
4727.8016
4145.2754
3869.837
3328.539
2749.0007
2191.0789
1723.0849
1504.5479
1084.7504
792.088
961.13746
718.7778
623.88167
616.7262
484.18584
576.39692
491.30255
611.92327
537.27484
801.70628
647.41942
1378.9934
1425.9073
1326.1424
1946.6351
1273.1424
2061.1224
1659.0207
2889.4154
1371.1468
4050.636
5261.4989
1412.8885
3303.8266
3777.7959
4354.6422
4627.6762
4384.5825
4902.2792
4320.8415
4239.3215
3878.8497
3625.1468
3541.157
3173.3202
2895.5348
2467.4811
2296.6734
2145.3314
1950.0402
1817.4609
2005.1245
2239.4479
2644.0136
2786.6887
2717.5309
2702.6161
2395.1718
2370.6767
2349.8733
2328.0334
2247.9101
2315.8512
2186.369
2209.6552
2309.8462
1988.0468
2336.9109
1901.1585
1787.5949
1571.6511
1811.519
1402.3793
2108.2854
1282.0054
2657.7973
972.00556
4176.6386
13734.397
7102.7809
7870.08
7029.2268
7228.6953
7399.3452
6807.2639
6658.7052
6200.7921
5930.2907
5665.2542
4992.8171
4502.4787
3958.0621
3766.9443
3228.4218
3008.6219
2565.0056
2296.5742
1877.0251
2451.2752
1092.6599
853.18427
913.32735
719.39043
367.99215
467.17512
461.36169
347.0586
322.24359
297.67682
353.30994
357.96923
443.42555
377.12906
731.55575
381.75475
972.48802
806.85627
1112.495
779.2604
1269.5407
1272.8049
1643.4912
1722.7113
1833.3563
4737.7584
36196.574
28178.642
28334.817
27359.494
28121.148
27207.385
26164.633
24898.873
23121.015
21794.948
19848.526
18912.436
16654.929
15708.693
14119.241
13081.568
11803.259
10868.481
9931.4038
9029.8105
8014.4034
8093.0645
6223.9955
4935.1005
4380.8474
3937.2251
3388.639
3223.7016
2837.1811
2650.0508
2384.8156
2271.5113
2083.3336
1965.4294
1958.2543
1703.6936
1977.3548
1478.3084
1699.673
1862.3647
1969.4865
2240.7357
1805.0178
2080.9642
1782.2087
1210.059
3630.0305
58549.058
52090.23
50412.108
51635.174
51258.3
49599.385
46873.31
44026.479
41320.641
37781.546
35579.781
32726.264
29976.819
27030.661
24854.207
22476.942
20430.033
18482.787
16694.297
15022.187
13943.843
11609.685
11749.005
9464.6662
9286.9466
8176.7916
7380.2338
6749.0785
6053.5416
5388.0419
4686.9568
4322.7892
3710.6688
3443.5996
2902.2651
2743.7081
2326.1131
2516.0501
2115.2781
2077.2736
1906.0532
1860.5452
1814.9252
2408.4895
1577.911
3221.1119
3249.4565
38428.347
39809.388
34538.446
34546.946
34912.981
35669.954
43796.871
16847.181
15084.021
13984.477
13808.617
14204.288
14814.058
18920.221
5081.1127
3754.1887
2536.4818
2925.3621
2595.0137
3022.4056
5152.0761
2643.5106
1352.7802
969.89732
914.98504
1322.5629
2303.5943
4854.2068
6225.0334
4056.1723
3021.0406
2781.6916
3324.1684
4445.3381
7628.5869
22454.102
16708.624
14548.218
13989.06
14715.247
17375.426
25291.7
43136.544
44797.065
37008.844
38609.68
37743.904
41259.457
54563.269
127596.29
112886.93
122537.76
131213.77
131747.86
140654.56
136772.94
109445.24
113351.47
106673.16
104450.36
114222.6
117072.27
118826.56
96776.917
100596.55
102406.26
103136.34
103045.61
104109.82
105380.51
94086.894
105292.76
105077.67
107560.05
108640.59
108276.8
100852.9
88012.453
91065.157
96434.854
97301.062
97028.974
93290.446
91871.399
81999.587
84818.741
88223.975
90384.636
90122.539
87312.026
84519.109
74642.639
76902.323
81224.099
81852.459
81669.684
82086.61
79332.526
69897.785
70157.034
72144.61
72747.684
73056.281
71130.054
70029.983
63348.235
63333.641
66154.871
66908.262
67175.982
66673.05
66263.73
58637.645
58023.125
58790.455
59654.722
58983.629
58032.161
58784.095
53201.765
52826.517
54496.765
53813.987
54426.407
54625.136
54447.534
48661.147
47352.942
48069.835
48885.495
49125.463
46390.019
49703.905
44352.631
42957.195
44521.872
43534.559
43595.044
43679.079
45683.458
39221.455
38601.472
39767.261
39280.105
40920.837
38143.064
41374.233
36406.544
34757.984
36134.756
35638.641
35496.032
34980.827
37344.207
32305.171
30523.767
33044.289
31416.302
33144.926
31581.591
34058.113
29188.265
28176.669
29534.476
28426.857
29397.408
27834.211
30137.465
26272.192
24645.234
26893.074
25331.664
26664.531
25307.469
27357.922
23376.667
22253.188
24287.629
22314.602
23792.388
22110.829
24325.906
20903.064
19670.976
21698.568
19861.94
21321.925
19805.926
21915.726
18644.195
17264.824
19401.522
17280.876
18869.599
17188.011
19387.103
16414.477
15175.381
17133.71
15157.039
16624.465
14994.236
17244.498
14307.184
13164.913
14888.848
13068.782
14424.336
13034.874
15275.771
12296.238
11440.775
12952.574
11224.265
12401.431
11157.001
13177.612
10460.486
9830.1035
10870.569
9962.9694
10631.834
9251.2465
11157.485
8788.866
8494.6105
8980.3089
8323.1561
8979.9581
7839.9531
9881.4368
7879.6177
7169.4067
7774.1862
6956.6789
8793.0341
6363.4739
7671.6017
7153.6144
5799.4778
6691.2699
5448.5204
6305.0742
4849.3394
5968.9755
5665.3828
4777.7085
5373.2821
4370.6641
4997.2823
4074.756
4648.9433
4936.001
3536.6657
4654.6105
3096.6041
4092.9689
2690.5538
3454.4281
3735.9751
2819.7258
3532.5541
2181.5397
2992.1925
1721.158
2476.3348
3057.2803
1961.5231
2741.6673
1366.871
2251.3942
929.94264
1664.2106
2279.7992
1317.5753
2018.9057
722.30035
1470.4289
145.25846
855.09114
1592.6188
688.5913
1351.0163
71.859227
826.08564
-416.6759
246.50492
1057.5498
316.41239
830.54472
-318.5363
224.8757
-957.39918
-342.75634
591.15714
-250.20132
421.41684
-890.09132
-75.295282
-379.54695
-843.8186
410.25194
-365.62828
-155.81338
-929.54748
-418.94091
-2666.0614
-1208.0422
-956.16074
-913.06961
-768.2155
-1356.4998
-1299.9239
-1202.0954
-1653.2493
-544.07347
-1070.9729
-621.48925
-1724.1449
-1088.1817
-2267.7245
-1873.1801
-591.98911
-1379.518
-863.02182
-1867.5677
-1404.6132
-2512.2968
-2138.8924
-1092.4272
-1689.3741
-1173.0111
-2229.769
-1699.5845
-2694.2288
-2446.1358
-1117.8966
-1696.7835
-1167.5527
-2048.9331
-1676.4493
-2678.8302
-2644.5513
-1608.569
-2239.8963
-1679.917
-2568.7454
-2174.4293
-3040.4931
-2893.733
-1658.8884
-2158.7371
-1660.1379
-2359.1478
-2142.2436
-2904.5194
-3110.396
-1620.8727
-1957.5505
-1536.4137
-2210.0716
-1884.3049
-2622.0365
-2899.5261
-1225.1456
-1689.3569
-1154.4921
-1729.1978
-1501.7476
-2116.3188
-2254.8588
-3449.8652
-3102.0355
-2974.6801
-3191.7363
-3128.6674
-3561.6312
-3744.6966
-1194855.2
-1313378
-1313366.8
-1313636.6
-1313862.8
-1313813.1
-1313634.8
-1298201.8
-1296948.3
-1296827.9
-1297213.4
-1297186.5
-1396262.7
-1297405.2
-1380763.7
-1280162.8
-1280412.7
-1280414
-1280372.2
-1162386.6
-1280542.8
-1269320.3
-1268341.6
-1269448.4
-1269259.4
-1269773.7
-1269164.7
-1269509.6
-1257040.5
-1142180
-1256463.5
-1256473.3
-1256096.2
-1256129
-1256390.5
-1133057.7
-1341604.6
-1246285.4
-1246059.4
-1342286
-1245945.7
-1246055.3
-1329102.5
-1233424.1
-1234323.7
-1234029
-1121330.6
-1234237.6
-1234422.3
115005.65
104908.32
98605.892
95465.942
97411.924
99652.855
102606.72
108490.95
101637.97
100613.86
99023.638
100306.83
102180.01
104140.04
103441.95
103332
102102.25
100993.96
101736.74
100940.68
99731.469
98308.136
98990.421
99033.546
98853.338
98091.19
96463.235
96536.107
93766.968
93137.927
93475.94
92940.521
92208.686
90711.445
89787.423
86602.156
86436.721
85957.108
85611.66
85316.43
84200.35
84205.251
81398.789
80083.716
79374.518
78280.88
78687.413
78234.143
78509.374
74156.635
73056.738
72458.85
72337.095
71351.217
71124.533
71434.128
68935.202
67560.803
66973.901
66359.916
66409.175
65399.918
66677.503
62510.084
61119.36
60562.154
59805.349
59670.511
59088.832
59904.252
57289.49
56231.61
56169.225
54999.063
55376.906
54264.148
54987.197
52377.38
51139.311
50273.809
50158.341
49411.122
49361.016
49525.139
47454.766
46476.977
46217.845
45401.091
44903.503
44409.237
45357.34
43132.645
42087.178
41688.952
41006.931
41125.058
41222.68
40917.399
39312.775
38073.111
37871.574
37253.923
37218.869
35672.365
36398.702
35149.37
34602.313
34393.956
33515.395
33245.316
32807.087
32850.916
31693.522
31164.384
30754.45
30370.021
30063.881
29466.426
29347.287
28634.887
27949.064
27810.293
27160.445
26919.472
26312.528
26110.479
25544.67
25130.697
24828.136
24355.132
24106.627
23395.979
23265.313
22823.982
22414.329
22118.006
21734.911
21416.137
20794.514
20608.646
20262.632
19898.217
19648.895
19215.513
18952.305
18342.61
18186.699
17862.6
17466.979
17269.676
16945.854
16763.261
16123.238
15883.238
15683.353
15212.847
15134.947
14816.768
14679.059
14001.638
13878.327
13642.361
13252.564
13207.796
12896.91
12879.363
12087.684
11956.707
11908.114
11389.793
11388.187
11164.819
11058.932
10361.461
10252.026
10231.355
9690.1297
9806.3863
9528.9215
9522.605
8792.5078
8823.3662
8505.5934
8149.8977
8343.9886
7982.3934
8058.4179
7325.3932
7245.8359
7354.1288
6766.7389
6944.293
6681.0983
6772.6259
6027.5099
6031.4947
5958.9645
5397.717
5758.0545
5491.7605
5494.7805
4824.8422
4852.6438
4805.7258
4502.3719
4655.4943
4365.2375
4503.0174
3854.8897
3863.928
3908.0575
3381.6404
3659.6328
3508.4765
3541.8533
2864.0272
2936.8398
2942.6862
2597.0673
2850.0412
2620.2698
2665.7416
2131.3532
2176.3736
2221.2062
1887.7687
2091.1828
1980.5606
2037.0099
1413.4563
1518.0362
1594.3397
1202.4749
1468.4948
1380.1125
1372.0009
921.34861
1000.8699
1080.0894
783.90521
1005.6282
890.21532
817.54004
259.51134
581.16637
566.8289
222.97131
546.23209
399.80219
490.41522
1021.3104
271.87362
947.55456
-27.268223
325.97469
40.839873
354.59303
-1625.6079
-49.304599
-497.14219
-340.92767
-150.44808
-301.31573
-257.8527
-124.77802
-283.21334
-141.85305
-66.473681
-128.40135
-56.456556
-276.70727
-539.51843
-377.09741
-217.7785
-751.95418
-503.8027
-455.75937
-608.10523
-757.77777
-536.8506
-276.89545
-373.87328
-220.20975
-322.95317
-441.64079
-766.29129
-468.8311
-112.39853
-372.74077
-439.39985
-155.694
-472.48514
-620.207
-430.54067
-412.29349
-1049.6809
-607.19213
-640.70616
-759.40807
-673.71555
-271.97964
-32.811655
137.26549
6.4463593
166.44566
-154.19956
-23.016724
-272.12545
273.71876
-735.51973
-359.18747
-546.62966
-609.69905
-535.50864
-491.34193
-3334.6416
-2706.0235
-2788.6125
-2626.2547
-2930.47
-3066.0145
-2968.2634
-3762.0878
-5369.1404
-5480.1474
-5590.6226
-5819.1169
-5528.0399
-5689.2501
120483.55
86752.234
79552.44
76786.539
76688.495
70814.079
68226.744
62126.028
58413.747
53807.71
49271.455
45210.143
41056.484
37902.973
33905.497
32108.054
28530.387
25863.389
23486.498
21167.077
19033.312
17086.384
15207.477
13489.162
11994.726
10402.893
9385.9711
7946.8325
6985.8033
6034.6191
5161.3206
4439.9864
3726.3719
3161.7961
2645.3998
2291.288
831.70843
1859.5721
878.75268
549.91279
393.91653
32.358103
-85.488892
-238.32452
507.20629
2025.7713
4306.0786
52765.631
53175.398
42436.696
43725.352
42039.823
38265.009
36912.124
33801.647
32229.444
28548.811
27161.115
23969.894
22312.656
20075.859
17870.496
16813.701
14831.276
13449.803
12324.278
10983.837
9904.9374
8984.4857
8003.973
7315.8217
6479.0439
5795.9753
5431.5299
4838.0867
4460.2627
4038.035
3737.2578
3521.1898
3291.9974
3170.3835
3062.9787
2885.8432
2942.0265
2882.2526
2947.3059
2898.7168
3300.084
3072.4938
3485.589
3155.8182
4059.6489
1277.2031
5355.5523
18231.614
20184.627
17583.8
19225.325
17546.913
13342.421
15730.901
12207.192
12702.942
11144.246
10462.102
10032.429
8474.9123
9242.7972
8254.8059
7654.0812
6926.4611
6211.0165
5907.3528
5107.6942
4773.4889
4277.3277
3897.3584
3454.9152
3147.3546
2659.8904
2666.853
2142.4662
2037.3217
1852.4539
1712.1935
1558.7427
1457.228
1350.2245
1234.6319
1173.3072
995.31556
1102.391
878.36528
992.48966
829.87961
967.45298
776.28058
1286.3498
679.87833
1249.8606
3811.2368
5493.0095
6082.0889
3300.4056
9258.9869
4040.004
6936.6373
3109.004
3522.5999
4751.1896
2399.9424
4309.6515
1954.7768
3158.3667
2589.9812
2667.9829
2795.1407
2240.7284
2228.7651
2021.5409
1836.4932
1648.1192
1623.1869
1336.6622
1454.3603
1255.8627
1433.3091
1346.2134
1437.627
1457.4085
1507.0941
1494.3704
1583.0037
1692.2031
1641.2414
1856.7292
1822.5713
2037.7068
2044.0372
2285.4086
2092.1567
2665.7998
2194.082
2995.2077
2142.9327
3435.0409
1002.1486
4491.0473
12754.056
2924.5056
6092.1893
5012.294
5634.0931
6253.6238
6164.5708
6374.9325
4553.9944
5716.5918
3924.5451
4728.4398
3998.8547
3607.6364
3938.5287
3325.6061
3398.0544
2942.0216
2907.7259
2499.9952
2427.076
2124.5023
2194.594
1881.6775
1762.3073
1665.1243
1315.4092
1351.2041
1170.9069
1132.5374
1075.1943
1111.957
1027.9422
1037.1154
1133.4653
1012.707
1165.9728
1214.2695
1020.4993
1453.6476
1186.4069
1572.7931
1383.9998
1892.5402
1439.9745
1628.4315
2948.3652
31185.251
24547.067
18194.096
24611.155
18925.888
23289.905
20389.8
19017.233
20743.429
18489.221
20823.112
17758.078
17551.411
15867.253
14548.089
13441.06
11888.048
10938.513
9709.5123
8930.4487
7945.3653
7274.6218
6562.8951
5601.0084
4855.8697
4326.3018
4089.213
3644.2146
3389.5228
3141.5605
2958.6643
2738.8547
2656.4302
2519.3306
2514.4007
2249.4597
2496.1408
2006.8244
2538.1788
2056.9723
2373.2336
2066.0874
2400.589
2023.1428
2594.0673
1991.7765
2939.7982
92379.284
51472.705
59730.64
50863.123
54251.244
52380.352
48326.097
49317.631
42331.846
42057.822
35509.71
35443.76
30798.859
27791.471
25401.707
22273.093
20703.378
18324.755
16683.388
14859.407
13254.201
11507.372
10214.215
8253.8467
8938.2348
6477.0764
5702.4945
5078.721
4321.1643
3766.9469
3213.3457
2796.7766
2395.8988
2114.3108
1749.3936
1411.6913
1715.7128
1651.7936
1441.0527
1568.1024
1667.5497
1806.8915
2013.8358
2462.1397
2367.1272
3566.9438
1509.2411
95146.917
80962.713
79332.95
78019.199
78617.035
78399.323
80360.07
83398.248
85320.078
80195.504
79764.812
78791.935
80293.383
80758.924
76257.705
80397.019
80031.627
79144.555
78865.034
78475.515
77230.926
73112.274
74866.113
74902.207
75077.8
74090.196
73607.621
71517.584
69096.405
71260.062
71671.531
71590.102
71058.442
70887.517
69427.714
64726.06
64946.782
64629.422
64759.845
64045.9
63764.327
63749.436
61158.189
61440.416
61141.797
60682.08
60293.486
60728.563
60753.76
55957.448
55573.728
55093.627
54948.963
54575.307
54536.987
55083.886
52315.505
52349.298
51234.657
51138.681
50562.287
51254.001
51975.254
47752.625
47244.904
46715.304
46363.986
45904.203
46555.851
47130.225
44040.629
43925.258
43070.944
42613.47
42711.538
42788.687
43878.324
40344.678
39681.4
39337.998
39066.097
38763.892
39193.816
40062.626
37077.257
36696.985
35991.421
35505.651
35786.722
35656.029
36254.904
33613.867
33337.367
33004.953
32657.252
32706.547
32788.378
33760.081
30728.861
30659.756
29774.603
29693.614
29574.576
30193.077
30223.494
28017.412
27942.93
27358.454
27244.196
27146.953
27134.884
27699.544
25408.094
25384.456
24888.52
24516.153
24700.977
24977.308
25454.372
22994.374
23011.104
22602.925
22284.522
22474.432
22627.444
22848.196
20819.588
20795.282
20484.875
20231.533
20434.374
20504.56
20872.673
18826.848
18758.88
18522.226
18319.952
18401.754
18562.543
18881.334
17006.585
16814.759
16728.114
16505.768
16660.494
16800.145
17043.624
15373.701
15097.071
15063.175
14872.565
15008.982
15111.628
15323.642
13855.101
13448.161
13582.863
13381.523
13433.845
13491.395
13790.344
12475.068
11976.608
12283.315
11946.801
11977.346
12135.638
12309.965
11072.471
10583.006
10745.238
10685.862
10573.708
10701.651
10998.786
9694.2809
9314.1808
9668.9658
9451.9067
9319.9706
9598.9089
9534.6799
8632.1877
8159.459
8361.0738
8335.8056
8168.6236
8465.1752
8527.0168
7636.1665
7173.6549
7356.6081
7355.9303
7223.5217
7416.0607
7481.6509
6563.5329
6122.4339
6545.9269
6357.6666
6322.3589
6506.5889
6546.0084
5735.8122
5328.7667
5667.0634
5566.5345
5508.0333
5709.1631
5710.4328
4973.0237
4575.8384
4913.8454
4864.1597
4781.692
4991.0842
4963.8112
4283.1941
3896.8377
4301.2308
4212.7102
4142.1328
4366.3212
4277.787
3693.5587
3405.4252
3679.9465
3676.4691
3583.7506
3782.0848
3755.3122
3206.6234
2822.8388
3224.1662
3174.4717
3111.4862
3372.8604
3216.1748
2682.0807
2559.2762
2775.3787
2793.1781
2772.8387
2819.4027
2733.9355
2483.6832
2115.5015
2397.9491
2438.9265
2271.195
2320.7969
2331.1141
1755.5162
1714.6983
2140.6375
1950.8155
2162.6883
2241.9037
2430.804
2083.2215
1547.2513
1918.0902
2087.5749
1701.316
1964.3092
1605.4502
1102.0894
1354.5551
1429.1835
1574.39
1664.6564
1669.7795
1689.7049
1620.1536
1290.5966
1464.2163
1564.9065
1293.9058
1541.3544
1080.3126
866.49302
957.83102
1065.5045
1254.1792
1250.126
1340.2696
1019.1816
954.85807
874.69848
911.25827
1153.1987
767.9558
1109.4571
738.24501
1379.1865
1114.7296
1313.1683
1361.6451
1378.4382
1429.8925
716.9853
334.59832
530.15165
399.4637
898.82692
373.62153
538.65497
197.99798
1576.0022
1015.3306
1714.3404
1627.632
1612.8595
1843.1841
1138.6326
2145.5208
3013.6711
2773.9313
3088.7961
2862.7528
2984.1884
2654.2155
3765.3684
2703.6123
3728.5674
3439.3908
3643.9021
3423.1239
3694.5319
42610.429
34192.92
31586.819
30547.963
30383.667
30515.415
32847.644
44954.183
48087.132
45976.102
45785.752
45761.168
45676.294
46492.221
41559.27
42583.87
43209.138
42452.018
42442.065
40943.702
40220.407
40748.482
42290.533
43168.514
42917.336
42282.136
41326.624
39659.798
37729.204
38117.787
38567.813
38121.144
38083.76
37164.018
36556.949
36039.457
36078.06
35208.217
34986.119
34568.577
34076.017
33972.29
32697.315
32949.352
32754.101
32387.533
32228.577
32044.06
31814.823
30908.895
30654.595
29589.113
29187.631
29124.074
28740.153
29144.859
28437.402
28362.877
27758.253
27324.071
27129.461
27235.671
27429.133
26456.609
25834.951
25148.156
24494.271
24831.643
24537.9
24637.886
24217.863
24067.47
23294.855
22994.462
22932.41
22980.795
22962.768
22380.841
21902.568
21237.39
20711.217
20683.331
20506.813
20489.5
20510.608
20129.317
19596.779
19360.171
19051.457
19174.259
18968.832
18944.193
18351.878
17904.446
17365.483
17370.191
17083.483
17337.215
17554.763
16956.568
16396.969
15998.958
16055.334
15404.705
15629.866
16033.201
15284.848
14913.353
14658.692
14543.004
14150.886
14232.005
14647.17
14115.163
13510.237
13319.888
13188.68
12886.905
13033.39
13388.61
12806.025
12211.596
12298.454
11998.823
11707.054
11571.779
12218.497
11678.993
11185.746
11082.989
10912.585
10546.936
10652.91
11082.464
10649.243
10087.342
10104
9836.6912
9577.2672
9604.9254
9988.0719
9611.2985
9197.8021
9105.9661
8906.5717
8682.7954
8593.1538
8971.7836
8763.7643
8328.7205
8278.5648
8090.6109
7783.0652
7784.5963
8115.3156
7786.2992
7471.2207
7417.9232
7141.6624
7039.4039
6971.5127
7272.4913
6959.9048
6776.0086
6516.5771
6521.8295
6501.1274
6323.5823
6540.5831
6238.4528
6060.9514
5741.551
5885.6194
5673.1448
5528.2328
5939.6276
5556.3229
5362.6115
5397.0501
5008.8895
5349.0586
5147.6976
5031.0164
5308.4752
5004.4687
4590.9267
4940.5071
4834.0431
4698.0353
4900.423
4494.6914
4246.8317
4194.429
4279.0305
4361.7985
4187.7785
4335.2804
3952.1232
4160.7073
3703.4629
3866.8059
4007.6513
3706.9939
4009.9332
3725.0528
3656.3459
3369.5487
3549.297
3641.6956
3395.6058
3634.0141
3242.3841
3390.7211
3081.9573
3214.3545
3367.1071
3088.2886
3349.258
3059.483
3143.2055
2838.2876
2938.598
3152.0329
2866.0596
3126.1583
2780.2995
2897.4891
2595.4435
2768.7864
2984.328
2673.69
2926.7962
2630.3931
2730.8475
2507.3098
2602.5141
2781.4965
2491.0279
2855.2077
2495.1286
2582.7168
2386.1257
2382.0555
2667.5437
2481.3124
2576.7612
2238.2633
2465.003
2248.9936
2334.8719
2710.6862
2444.3631
2819.267
2643.3306
2476.2997
2391.3375
2242.7443
2622.8445
2178.5235
2575.6586
1742.3159
2377.0592
1955.6001
2281.4699
2507.1554
2332.0821
2962.4962
2652.8688
2670.1702
2439.0629
2310.4483
2681.0145
2377.3717
2636.4033
1701.3484
2350.2662
1958.7952
2173.5444
2525.2171
2220.9173
2783.1837
2598.8523
2740.9352
2540.1898
2476.4689
2719.3513
2523.7759
2964.5026
2037.5049
2581.5552
2157.902
2210.0738
2583.7514
2344.8367
2696.2721
2477.0393
2753.1711
2574.4731
2723.9174
2956.0621
2667.4762
2422.2816
1882.6343
2325.8471
2039.8429
1845.7864
2105.2445
2060.0193
3793.7283
3527.1423
3663.8332
3304.3605
3469.5794
4071.8141
3902.3642
1293.7596
912.22343
1264.7274
952.0238
844.43821
978.37267
212.26311
5251.511
4232.7456
4278.4175
3872.3455
4050.1167
3810.4692
4480.71
16073.538
12796.464
11296.236
10923.459
10312.989
10654.595
10685.207
15172.89
17192.106
16601.833
16740.506
16494.581
15973.783
16145.324
17104.573
17448.67
17202.992
17580.142
17008.867
16608.065
15886.189
15397.517
16865.188
18019.83
18426.398
17645.712
17619.81
16169.33
15827.837
16189.814
15857.433
15773.868
15392.932
14885.198
15440.028
14227.017
12949.418
12948.175
14018.262
13131.983
12871.762
13052.702
15054.031
13148.025
13574.031
13577.172
13202.623
14177.268
13597.32
13711.218
11735.511
11130.216
10774.308
10726.738
10993.429
10881.329
12734.534
10802.989
11012.746
10957.495
10797.085
11511.871
11307.947
11706.955
9798.5314
9486.1932
9277.656
9167.0853
9736.4154
9825.0128
10863.907
9021.9348
9030.0698
8754.5892
8593.7147
8928.8125
8916.3817
10004.139
7836.3279
7886.9785
7822.5331
8037.6448
8358.6981
8910.2993
8947.7662
7140.596
7518.9776
7152.6674
7288.5016
7366.2671
7825.9099
7938.3176
6926.6011
6616.8301
6415.7009
6711.1808
6802.125
7139.8785
6460.9014
6190.6443
6221.8646
6011.5978
5780.1045
6326.7104
6732.2098
5783.4313
5481.618
5609.0455
5336.2407
5441.5664
5609.3914
6157.6532
5330.7043
4996.9193
5196.283
4905.0493
4814.818
5188.8128
5749.1532
4747.3122
4435.0409
4711.651
4390.7701
4427.9184
4698.6512
5048.0527
4384.2743
4068.9011
4314.9971
4025.7606
4002.4088
4264.7554
4867.2317
3906.316
3555.5513
3844.6121
3605.0348
3583.8289
3889.9043
4307.8535
3619.3889
3284.3609
3526.1648
3312.0511
3381.2174
3549.3052
4049.2435
3273.4847
2935.7507
3137.9817
2949.9651
2927.1125
3182.5252
3661.7904
2999.3883
2686.2181
2934.364
2569.3047
2806.4388
2965.9166
3466.2097
2906.6407
2475.9693
2702.5909
2465.3689
2637.9495
2572.1382
2963.1642
2698.3647
2147.2494
2538.2324
2289.8479
2489.3074
2267.519
2958.7851
2477.8882
2043.0219
2437.3547
1971.8376
2406.7155
2041.402
2516.1756
2427.7781
1806.524
2054.189
1806.0635
2266.7963
1718.7106
2374.498
2065.7948
1658.2744
2045.3543
1763.255
2007.2629
1651.6233
2136.6578
2082.4052
1532.9326
1908.0285
1509.2905
2027.441
1504.443
1973.7186
1943.0198
1442.8467
1628.5202
1482.0204
1827.9349
1316.0969
1856.9624
1800.8696
1233.448
1670.6592
1403.4452
1760.5411
1315.6345
1750.9658
1773.4564
1243.244
1586.3589
1246.5685
1693.1934
1185.3091
1630.6462
1675.7868
1146.1718
1486.3596
1253.0741
1656.5661
1127.4839
1543.7929
1721.27
1124.8682
1496.621
1211.766
1564.1147
1067.7483
1572.7319
1585.8717
1005.1701
1461.6118
1148.4368
1557.1648
1177.2268
1418.8929
1748.2035
1246.7844
1585.861
1171.9044
1669.1204
1013.4268
1436.8353
1528.0959
902.77671
1305.6989
1142.1347
1517.6021
1052.9486
1386.7184
1735.7739
1237.6804
1722.3386
1244.1219
1701.2733
1076.9759
1402.6286
1317.3757
1255.9561
1233.9539
1214.0545
1466.3213
1048.167
1382.4036
1695.4775
1107.6007
1549.9213
1263.3706
1681.9298
1228.3957
1391.1034
1477.6954
1636.5438
1441.0528
1465.5342
1507.5928
1113.9207
1252.2933
1535.0609
1035.9008
1300.2097
1186.1387
1419.9075
1297.7437
1440.5215
1520.4963
1697.911
1492.4319
1562.0472
1553.1079
1347.7276
1098.2285
1776.5282
1576.3537
1543.178
1607.526
1526.0693
1445.0142
1568.9683
1965.9237
1794.4194
1608.3934
1783.2977
1637.8274
2009.1922
1392.1141
1487.1159
1533.0646
1860.8775
1911.377
1968.6261
1959.8946
1067.3849
4045.6108
3123.6317
3130.4474
2702.713
3125.9005
2602.5405
2926.1999
5270.4054
4541.7624
4020.3593
3894.9225
3505.6307
3185.1605
1900.426
4298.7317
7110.2985
7658.5967
8175.2051
7988.6403
6962.8401
6060.5531
4869.0685
5357.636
5216.1296
5485.9717
5268.3934
4674.044
3358.0339
5387.2843
8227.3372
10082.105
10926.358
10836.593
9864.74
8352.0656
4980.6203
5041.0471
3740.8554
3356.2021
3105.428
3012.6897
3239.4343
5194.1087
6179.9726
6297.5151
7001.3344
7207.1111
7528.547
6420.6396
4746.4562
4396.98
4076.9875
4197.0333
4008.1879
3423.2351
4612.3221
5419.151
4630.8479
3962.6578
4220.964
3789.6636
4119.7115
4290.9628
4642.4499
4400.9503
4139.665
4211.2103
4676.7997
4191.7598
5276.5671
4818.6737
4499.759
2949.3932
3239.5808
2695.7565
2570.3665
2960.4169
4050.8602
3847.3556
3720.3786
3644.7441
4339.0445
4054.1075
4880.7251
4056.3013
4138.5803
2788.6579
2764.2058
2875.718
2545.8077
2913.6846
3752.971
3655.6462
2683.5383
3179.6064
3378.6545
2850.2813
3331.0885
3678.9832
4079.6103
2322.8883
2728.5007
2726.0132
2836.1363
2698.2922
3098.8286
3465.3372
3014.003
2406.6277
2787.6652
2390.997
2535.0577
2942.9905
3164.3671
2531.5737
2181.1742
2490.3625
2462.9698
2401.7255
2549.223
2903.9173
2520.8121
2034.5979
2459.9937
2092.3918
2237.3421
2423.0032
2745.7314
2233.9655
1879.7348
2226.3152
2105.2502
2126.8635
2137.5316
2454.1812
2151.8512
1698.653
2162.4554
1844.1295
1956.0617
2102.9394
2414.9048
1924.0333
1602.3669
1984.2275
1747.3503
1885.5593
2117.0944
2068.8861
1882.5926
1526.8023
1820.1149
1623.3987
1698.1742
2125.4234
2033.7021
1742.5984
1352.6008
1715.938
1516.6525
1667.604
2279.8797
1871.2526
1453.194
1474.5914
1639.6516
1427.5297
1435.3635
2194.1557
1506.176
1452.4393
1283.9369
1455.1172
1347.9609
1601.7753
2154.2595
1431.3151
1469.4044
1002.0268
1282.1974
1322.182
1404.0345
2224.0755
1237.5342
1213.0404
1019.0681
1112.6265
1237.9704
1411.6488
2059.6658
1081.3057
1205.4165
1038.7171
955.78881
1221.1516
1299.6028
2054.2739
1058.6579
1323.6043
898.99816
1114.0051
1165.739
1405.1378
1980.2169
1036.2583
1044.3854
991.43044
839.85604
1127.6
1324.5976
1880.3699
996.33138
1202.9699
968.39089
947.51156
1213.1206
1339.2199
1866.9641
1035.0439
1107.9142
991.69036
901.7965
1186.8412
1349.1481
1866.7923
1077.5046
1188.3208
1038.4895
893.44857
1233.558
1289.8865
1818.9748
1053.2396
1153.7415
1021.8783
974.06001
1296.3145
1453.3761
1820.9045
1104.8868
1229.4325
1158.1093
994.05788
1353.5507
1384.863
1870.6907
1209.6772
1317.3485
1156.4323
1074.1169
1397.3935
1491.4826
1717.6431
1142.2166
1161.589
1210.6861
1091.6977
1381.4377
1538.1974
2033.6736
1367.1738
1469.7149
1451.5924
1100.6506
1611.5945
1587.223
1606.4649
1182.8494
1361.981
1161.4788
1179.6631
1455.709
1647.9114
2027.2076
1553.9332
1551.4706
1619.4675
1331.0042
1820.8608
1832.9961
1799.7437
1193.9092
1600.8227
1308.4632
1286.4029
1538.7322