/*--------------------------------*- C++ -*----------------------------------*\
  =========                 |
  \\      /  F ield         | OpenFOAM: The Open Source CFD Toolbox
   \\    /   O peration     | Website:  https://openfoam.org
    \\  /    A nd           | Version:  6
     \\/     M anipulation  |
\*---------------------------------------------------------------------------*/
FoamFile
{
    version     2.0;
    format      ascii;
    class       pointScalarField;
    location    "1.46";
    object      E;
}
// * * * * * * * * * * * * * * * * * * * * * * * * * * * * * * * * * * * * * //

dimensions      [1 -1 -2 0 0 0 0];

internalField   nonuniform List<scalar> 
3969
(
3542.578
905.20935
-497212.67
-239331.76
3506.9603
3507.7375
-358628.48
-743605.18
1750.4088
1177.6425
666.62559
489.24452
645.93775
921.66244
1474.459
-275436.55
-271517.9
-270093.04
-268783.23
-268519.41
-267532.22
-199804.29
4314.8729
3076.555
3206.8304
3514.7384
3667.6517
3960.3216
3948.5347
4589.7601
4046.8828
4578.6991
4629.6114
4622.4841
4854.366
4670.8716
5043.2053
4651.7153
5078.527
4862.8572
5089.5101
5012.104
5011.2421
5092.4506
4936.5737
5119.6491
4784.7738
5051.9261
4864.0116
4868.0114
4981.7496
4937.3969
4933.1071
5091.9484
5066.4831
5150.2923
5382.4906
5271.6248
5940.1411
5268.7479
6540.7041
5219.3504
6863.667
6229.2567
6184.9981
7633.009
6078.2877
6087.7536
8405.7759
5185.0748
-774.92588
5850.944
2508.6732
5587.4943
4403.4222
5849.9781
5472.0825
5652.2719
6475.7015
5170.6833
6627.826
5931.9509
6311.8083
6096.2185
6070.8046
6644.3938
5663.4161
6700.05
5959.3633
6207.3686
6198.0827
5873.4021
6090.4042
5820.889
6232.0094
5355.8646
5708.0561
5528.1421
5186.6223
5502.9511
5184.0099
5330.5278
5183.3481
5269.2474
5260.1297
5395.5136
5211.8412
5246.6772
5325.7821
5385.1651
5167.8503
5291.6559
4944.7484
5183.3195
5349.9602
4243.4265
1697.5279
1044.4565
524.64984
896.51812
726.13671
1484.1434
1725.8257
6898.4922
8227.6755
-2199.9048
7713.2863
5108.4303
5001.311
7967.8654
4495.3641
9927.2503
3107.9179
10134.592
4904.4344
6556.9187
6576.9646
5557.5123
7031.8569
5945.0813
6629.7364
6532.1921
6387.7392
6580.8921
6326.3322
6475.5145
6139.7123
6338.0701
6483.2121
5880.0383
5909.7293
5906.3253
5790.1437
5532.215
5413.8159
5155.1786
5057.9511
4725.2372
4586.7849
5622.8902
3945.0512
4154.6644
3922.4589
3410.2251
3500.2337
2883.7539
2756.5023
2478.1015
2720.9859
412.22509
-570889.5
-479387.55
-574793.52
-543973.81
-544006.81
-487517.06
-592348.97
5973.6647
4733.1367
6723.3176
6511.4433
6571.7019
6454.4523
6408.6157
6263.591
6267.2695
6399.1691
6168.2565
5240.9369
6017.7126
5980.4524
6002.8232
5990.2561
5977.0509
6023.6784
5995.0652
6055.1639
6035.3992
6112.9827
6058.3584
6029.4763
6028.1926
6044.5136
6058.3602
5936.5678
6064.2768
5695.545
6017.9282
5544.9903
5653.2282
4967.8345
5190.0522
5130.1127
4732.6808
4463.1564
4537.3451
3975.2297
4415.9913
2597.9046
4316.4219
1541.9261
3815.3894
1154.7708
5096.9173
2445.5159
2053.6479
1862.3045
1884.6136
1848.8857
1814.5126
1192.2389
-367.76842
15.692995
-487.72199
-483.15651
-47.584012
853.23406
-311.69986
-269178.15
-269377.85
-268800.33
-269092.32
-269020.44
-268632.15
-269760.91
-558892.09
-559392.1
-559250.78
-559017.91
-558702.76
-559375.55
-557732.03
3875.4447
1797.6374
2519.4324
2416.2409
1988.1349
2703.003
2011.2494
2682.9586
2311.8076
2804.1104
2725.9752
2855.0283
3136.231
3268.3708
3392.2644
3560.1093
3828.4213
3794.046
3975.1602
4013.2673
4111.1281
4125.4587
4318.7285
4176.3969
4428.66
4502.1535
4489.2873
4708.5266
4740.5922
4772.9466
4934.2304
5012.4373
5029.7947
5212.5198
5194.3125
5262.713
5458.7389
5337.3358
5503.0162
5333.7644
5890.0562
4708.9332
6239.641
5011.715
5567.1984
7697.5325
6442.0101
1922.4091
776.2211
1210.1728
870.75571
981.74781
1199.8856
770.88692
1218.6975
773.54648
948.32558
840.5898
970.34188
1000.8173
797.91433
983.3861
985.98075
1137.297
1163.6199
1306.599
1549.6484
1648.4161
2072.8007
1989.1475
2483.9345
2561.5572
2807.7663
2895.1723
3154.4133
3153.6685
3432.3323
3624.8237
3760.8367
3994.9286
4201.2649
4355.0001
4522.5182
4915.1467
4227.538
5645.9017
4360.2093
5966.1182
4993.4778
6620.1078
5569.1666
7870.8728
6137.2699
7721.4806
1271.9821
55.227914
777.37787
344.63178
271.13969
410.40831
384.37491
720.58201
557.1475
1200.7034
933.39147
1335.8737
1204.7598
1554.2724
1403.0404
1549.4743
1674.6739
1756.8412
2096.711
2044.8251
2218.0756
1946.567
2331.5364
2318.4074
2449.52
2531.1273
3032.8771
3072.3065
3523.8726
3830.7471
4019.4389
4397.2322
4605.0755
4917.3241
5080.0824
5574.1674
5365.9355
6490.3642
6409.7612
6580.3589
7420.3421
6400.3277
7730.7531
6501.1775
7315.7415
6157.8148
8085.2325
559.73956
-152.4811
189.35019
-19.900479
-155.34148
172.39678
-336.9333
-169.56131
-315.80619
-557.69542
-668.03205
-301.49449
-725.00344
-172.72945
-612.80626
209.88521
-270.68537
475.98944
116.37958
584.37745
699.95759
1512.313
1827.0005
2143.7309
2311.187
2879.3843
2913.8747
3182.8473
3455.1328
3608.5092
3847.4961
4110.9797
4223.0787
4504.161
4724.4564
4660.7281
5208.5448
4849.4883
4593.7118
4496.2956
4809.4375
4292.2686
5714.6615
4295.2336
6776.4087
5232.9445
8547.8337
795.7294
-287.48914
421.70137
-291.55298
-67.917816
-12.20309
-321.78707
187.57196
69.577441
45.732059
561.08823
295.63309
574.77852
560.53689
798.59606
727.77906
899.47211
977.08987
1093.1355
1352.474
1602.89
1407.9289
1648.0506
1634.5051
2124.6258
2153.4498
2415.8383
2778.5248
3039.2237
3343.8043
3626.2322
3933.021
4193.5416
4536.1315
4618.1891
5166.7254
5106.4099
5596.9776
5662.5876
6717.6032
6340.0499
7220.8741
7099.9248
7154.3324
7815.4842
6497.6699
9083.1159
1502.3833
41.778057
1039.4997
827.38331
1179.4302
1331.3116
1376.7692
1372.726
1742.4534
1251.7615
1765.4027
1615.6742
1911.0978
2018.643
1919.4361
2293.9711
2116.2396
2469.5952
2491.9851
2629.3115
2725.0477
3288.8874
2864.9937
3254.1563
3402.1786
3405.4584
3692.9942
3799.9263
3929.5554
4168.9794
4300.8883
4445.2467
4640.2518
4761.6719
4946.3742
5032.7175
5215.3322
5155.2827
5540.3159
5043.5757
5259.101
5478.8368
5041.8083
5547.9834
5490.3153
4862.3383
7999.3656
2023.8118
-914.73132
1057.3567
-169.03469
628.66526
226.67312
799.73062
150.04082
1795.0783
160.15893
2548.3255
916.01946
2358.9962
1805.8498
2599.9744
2467.8689
2855.931
3030.1821
3102.3748
3374.7107
3525.2818
3446.1399
3994.9621
3909.443
3969.6374
4279.0662
4513.3249
4706.2766
4924.896
5114.8778
5223.8897
5510.6677
5559.9566
5882.728
5838.6853
6151.9049
6121.6707
6639.4989
6501.844
6823.9709
7001.7056
7233.0381
7344.8467
8150.1992
7487.7655
8887.1086
9740.9031
772.05177
472.44488
204.18966
27.42484
204.29987
197.69072
416.29845
689.31671
405.34458
182.15445
127.81488
207.78462
361.08089
443.25378
291.27575
-6.3415723
-174.91513
-183.1187
-154.67337
-82.040794
-2.890064
283.21761
111.21783
130.74091
100.18777
170.61244
386.97177
516.3467
105.32276
-24.311637
-102.67198
-111.45826
-111.30937
38.129197
241.17952
279.59957
-248.2918
-176.45818
-414.29165
-300.9712
-173.39746
230.41098
-10.036279
256.7742
-480.55782
-589.4669
-481.75681
-445.61706
323.79939
5477.3921
6864.916
6944.8941
7802.1907
7974.2725
7837.8193
6832.0335
3512.2687
4286.5849
2060.3424
1319.451
3937.3629
2699.1062
5499.6244
2872.1768
2785.6785
5123.1997
3943.2777
3313.3783
3117.13
5540.3501
5020.2491
5998.6429
3703.6625
4472.9399
4778.6848
6201.1175
4252.2142
5361.7764
5370.5267
6856.8932
5781.9718
5836.6354
5781.0743
7735.2881
6063.4986
4888.8222
3593.9811
4711.6506
3964.2484
5157.3962
4730.5851
5811.6323
5914.4128
7501.7697
6749.7609
7459.7514
7792.8953
8502.2135
6525.9868
5990.508
4925.046
5222.8033
4431.8718
4286.8884
4851.0644
6911.6573
6094.206
6852.7718
6745.043
8155.3484
8488.7775
9749.1784
5909.1989
6133.9005
5321.4031
7220.1456
4914.7739
4943.6387
5487.1464
7779.5379
6646.3578
7687.0712
5811.9308
7630.8529
7393.8876
7849.405
5850.5056
7110.9245
5360.919
7564.5644
7018.1434
4913.0581
7135.9714
7929.009
6152.2435
7444.225
6114.0683
6249.5402
7675.5391
6301.5431
6384.4271
6747.9928
7216.1143
6066.4112
8220.8731
5784.8185
7772.701
7517.6436
7343.587
6525.0629
7113.4867
6327.4709
6456.2049
6374.9625
7310.1116
6155.3779
7669.5815
5992.0872
7627.7199
6471.094
7597.82
6757.0635
7370.0089
6833.805
6501.9639
7095.545
6261.2634
7057.7082
7570.8069
6248.6495
7353.0156
6341.6943
7187.5313
6375.5548
7065.9042
6954.2757
6639.5209
7253.6999
6092.7808
7227.2638
6148.3895
7335.8863
7178.2042
6478.6404
7065.2472
6343.1239
7145.2521
6203.6451
7090.4731
7197.3626
6341.2497
7237.9476
6129.0365
7114.07
6018.9378
7184.3117
6996.2297
6382.0618
7073.7763
6067.5225
7039.4654
5885.132
7082.4114
7042.6569
6301.8354
6951.7299
6089.4827
6981.5117
5936.9292
7149.1406
6809.823
6276.2814
6850.3554
5936.9142
6811.467
5696.3098
6836.8767
6530.9971
6571.078
6321.044
6285.1849
6635.3496
5745.5527
6903.2577
6335.1157
6518.0446
6071.3067
6227.3056
6088.7635
5841.0344
7051.5906
6383.4226
6345.0178
6383.5719
5880.4981
7143.2953
6053.4513
7086.8196
6819.321
5992.611
6719.0659
5743.9391
6385.3455
5333.0441
6902.7588
6016.361
6352.2651
5858.7608
6086.9528
6018.7909
5899.6223
6483.3587
6599.8051
5669.0921
6411.7056
5704.2775
6125.7151
5590.2255
6366.9511
5970.3966
5988.6773
5930.4539
5662.6117
5857.9957
5490.5064
6082.6084
6213.5905
5705.9939
5953.0755
5554.3992
5797.6918
5384.8407
5958.1183
5934.0986
5665.3648
5787.4815
5434.7579
5638.8718
5252.1927
5828.2448
5911.557
5572.9588
5742.7875
5378.2089
5557.1532
5192.3962
5687.0354
5759.0232
5516.8727
5586.3763
5265.7392
5365.3976
5057.7455
5468.8663
5772.8698
5495.4591
5615.5342
5229.2596
5351.5862
5383.8454
5608.7068
5414.7015
5379.203
5359.2486
5123.0658
5526.7283
4447.2303
5427.404
5154.382
5026.0432
5148.9949
4935.7629
4896.2657
5432.0085
5072.5446
5384.3212
5259.5496
5291.5153
4834.8698
5092.5751
4499.0848
4816.8303
5356.5203
5096.78
5131.6303
4938.0208
4843.6086
4597.6037
4919.2955
5038.9354
4827.8578
4914.5753
4506.7155
4588.9553
4382.8574
4458.1789
5069.5168
4702.7364
4910.6531
4590.0135
4611.0439
4350.8728
4259.9498
4651.0239
4429.8719
4526.3098
4173.2791
4211.0935
3960.497
3989.1674
4381.1264
4188.4833
4277.3017
4113.4541
3940.7252
4022.8402
3511.257
4048.8124
4059.4917
4100.0511
3846.1827
3981.8101
3692.2098
3233.7321
4317.9432
4381.3956
4338.0343
4362.6533
4104.3526
4174.6328
3711.9386
1906.7632
2390.0471
2462.7273
2378.0314
2561.5988
2253.8518
1988.1084
-334665.2
-368340.43
-367797.77
-367626.88
-367829.14
-367293.65
-367390.03
-364677.46
-365320.44
-364971.33
-365009.58
-364745.3
-393116.91
-364082.2
-390020.52
-360795.44
-360457.06
-360432.59
-360062.26
-326489.33
-360726.89
-362180.35
-361668.17
-362248.89
-361840.08
-362306.98
-361619.47
-362166.62
-360000.76
-325655.03
-358473.48
-358682.29
-357854.65
-357931.22
-358507.91
-326097.99
-387169.27
-359424.46
-359000.16
-387680.31
-358658.08
-359483.9
-384259.97
-354994.47
-355690.62
-355155.44
-321808.54
-354982.36
-354972.14
3840.5428
4024.8207
3662.8482
3622.1039
3625.4688
3910.9294
3049.9056
2524.3619
2105.0547
2224.7486
2707.1829
2155.0107
1863.3374
2251.9811
3794.7022
4078.0053
3665.1817
3311.7843
4302.6143
3470.5027
4156.1305
3413.9204
3257.9669
2943.3349
3523.1648
2812.4807
2452.4431
2730.7475
4815.9999
4437.2249
4860.2833
4488.7138
4839.9864
4451.501
4660.5647
3658.3176
3652.273
3110.3868
3029.3161
2975.3802
2337.0106
3157.8798
5410.3129
4842.6432
5094.2976
5109.1006
5043.3762
5089.7427
5104.0169
4174.8095
4034.7757
3609.1877
3615.2807
3356.3616
3296.5427
4064.3483
5339.5214
4930.1367
5106.0735
4622.3691
5173.5257
4320.9739
5189.8988
5335.5213
4565.7281
4547.1138
4451.8242
4434.7089
4377.7214
4949.3213
5303.0847
4907.7146
5046.5329
4751.3297
4844.1938
4285.8491
4907.8141
5521.9993
5058.7036
4743.8366
5190.3222
4969.4673
5195.4742
5670.9462
5608.1467
5186.2912
5300.0972
4844.4302
5178.0466
4349.1157
5192.454
5623.935
5209.1723
4995.1025
5209.2258
5132.2178
5767.6041
6102.704
5986.4316
5424.519
5211.1675
5431.35
5778.0355
4847.8969
5974.178
5932.4541
5378.3098
5587.0252
4926.3711
5632.9547
5176.3565
5719.5092
6063.7624
5690.4042
5613.047
5597.2547
5864.6572
5250.903
6286.7099
6207.4925
5462.7923
5829.16
5379.5352
5672.2216
5317.7317
6003.8394
6163.9427
5713.1513
5818.8517
5383.6696
6013.3775
5372.0268
6316.3513
6333.5976
5695.7852
5812.9896
5604.6444
5857.8744
5365.8556
6220.0839
6284.3848
5604.6622
5928.8404
5410.3935
5935.1542
5436.3369
6349.4631
6427.0815
5839.153
5921.0935
5592.2953
5992.6989
5418.9707
6371.7805
6345.8534
5591.3951
5860.9115
5472.3141
5908.8749
5401.2281
6419.0746
6476.7517
5789.1884
5901.7725
5595.9216
5950.2547
5526.2848
6450.1673
6361.9307
5626.7756
5833.2507
5501.6934
5943.8032
5495.8186
6421.0267
6608.0167
5657.1923
5942.425
5546.1094
6017.277
5514.2735
6400.0556
6410.2648
5605.8172
5821.425
5539.6306
5894.3512
5476.505
6398.2852
6500.5433
5702.8272
5861.805
5586.0558
6023.7852
5550.0708
6492.2859
6520.0872
5548.4476
5908.5996
5552.9844
5928.5066
5522.1313
6381.887
6372.0155
5772.8002
5797.2366
5591.5246
5991.7076
5548.8
6462.2867
6556.6291
5621.5755
5860.6371
5648.1383
5991.8186
5553.7598
6458.8293
6442.14
5731.2021
5863.976
5655.97
5954.4925
5606.9831
6462.3507
6506.0444
5764.4541
5875.3596
5727.2765
6029.0976
5635.984
6467.7795
6540.9194
5794.5627
5885.517
5826.0288
5952.1856
5748.599
6536.8852
6587.3008
5911.9208
5999.8872
5867.1615
5981.2315
5819.5882
6434.4795
6582.1619
5942.9257
5994.9373
5864.3681
6155.2706
6302.5643
6769.0322
7031.2865
6159.5354
6037.5743
6070.3931
6387.4425
5348.6596
6717.8493
6579.2776
5884.4211
6095.2494
5857.7422
6248.0644
6027.0314
6675.1386
7063.1348
6868.4151
6433.8779
6515.3134
6347.0391
6114.9404
6932.4467
6851.8385
5851.8852
6087.7299
6186.5326
6233.5545
6380.0157
6956.5025
7404.7212
7053.1774
6898.5677
6741.4037
6664.2535
6415.6469
7005.5502
7267.7117
6606.0377
6376.6928
6758.4926
6525.125
6707.4669
7096.6548
7087.4044
6261.7395
6607.9834
6375.2405
6262.055
6425.1975
7137.6914
7619.1971
7734.9012
7203.5329
7440.3784
7179.3401
7590.5525
7132.056
7065.7057
5746.8534
6028.489
5792.337
5949.4582
5959.6854
6581.6765
4583.8192
5411.3235
5224.2701
5460.5665
5218.2501
5423.4271
5556.6092
8196.7524
6885.2757
6833.7676
6715.5119
6623.8998
6857.7157
7044.2862
3498.4706
1575.4213
1251.7113
1679.8422
1504.9335
2622.0796
1717.8495
2753.1659
2424.5556
2910.4531
3612.1904
2766.1787
4021.4166
3286.0175
3686.6565
4279.7116
3927.6884
4591.5469
4219.6442
4701.5092
4500.5825
4712.0575
4751.6603
4765.428
4718.7064
4743.6087
4724.4653
4836.8927
4825.01
4815.0889
4865.7964
4915.5831
4895.4508
4921.8777
4995.0476
4791.32
4989.1527
4983.4056
4869.6399
4705.3327
4813.018
4767.6922
4796.8926
5028.0182
5432.0106
6858.4795
6302.6324
1890.2099
1850.9348
249.55153
574.30539
1986.4413
243.27212
1851.5751
1293.5421
1540.0521
2213.4189
1407.6128
2235.015
2140.4575
2259.6296
2685.1828
2422.6197
2813.0185
2632.5509
2969.8495
3023.4762
3169.3562
3413.0263
3489.5864
3742.1266
3831.4311
4087.8792
4591.1387
4537.1002
4876.5933
5072.7464
5354.6136
5536.7393
5789.2935
6034.7453
6296.1742
6397.7219
6742.3508
6832.4846
7283.2247
7158.3585
7691.061
7567.7089
7986.6351
7632.1078
8608.2017
5691.5069
9134.1969
913.31801
294.32059
-455.73181
562.381
-330.1683
665.76606
449.9651
337.72203
1058.5176
546.75271
890.41845
1483.3756
872.37042
1170.0357
1067.9786
1198.534
1463.8551
1658.533
1720.3
1959.0934
2084.096
2234.2193
2437.5355
2505.6654
2817.3842
2762.9801
3275.6392
3085.7621
3571.9294
3706.3963
3941.4693
4091.701
4358.4731
4462.3892
4639.4333
4813.5668
4878.3066
5126.492
5195.5671
5364.368
5460.0841
5700.658
5629.1564
6369.7584
5839.5617
6334.8218
9226.3792
412.73819
791.52697
-811.22289
1042.9434
-1024.4819
1201.5845
-1370.6677
925.96742
-725.80265
-89.573506
453.73439
-604.55083
301.00314
1090.3673
601.13669
1032.2006
1015.1536
1012.8391
1246.8495
1432.2248
1608.378
1845.2535
2042.0928
2514.5812
2805.6648
3363.3832
3354.8797
3892.9066
4049.1028
4327.3652
4583.7846
4905.5913
5179.4199
5356.9484
5757.2287
5867.6715
6223.4521
6284.1235
6686.5309
6539.3717
7165.5582
6753.8564
7632.2683
6772.1132
8222.4216
5667.6638
10294.382
1112.6985
118.35309
407.78283
420.35326
-31.959188
503.58635
-294.47247
1391.6761
-707.88951
1886.1903
-404.08356
1483.9537
663.89183
1001.4751
960.75774
1153.8332
1289.2884
1618.4974
1780.5317
2024.533
2172.1315
2300.3625
2658.9531
2639.9823
2577.2778
2451.3609
2822.6536
2982.4353
3204.7716
3524.2724
3804.0268
4033.647
4235.3509
4533.7466
4808.8319
4916.113
5209.2567
5495.5839
5463.5746
6011.7874
5885.0937
6429.5159
6290.7608
6995.3319
6819.9693
6907.7762
9135.9188
1411.3976
2141.1138
-419.76189
2570.0552
-222.17076
1743.3581
1979.7701
204.02437
3035.0337
1058.6045
1500.9461
2249.8633
618.15184
2263.0778
1415.7076
1852.9313
1901.1469
1945.8438
2140.0991
2176.7734
2309.978
2372.5985
2624.9256
2533.6589
3347.3513
3991.3943
4195.2725
4343.6406
4551.2203
4708.3339
4895.7957
5005.5878
5164.0194
5372.4934
5474.042
5494.8139
5916.3766
5527.6986
6094.6803
5818.9155
6094.4092
5950.4893
6315.6928
5967.6209
6733.705
5427.1636
8899.4971
4053.9084
-251.11498
2436.4476
-731.19197
1700.8866
879.60662
982.45263
979.87121
2178.8075
1207.6359
1317.2196
3934.2878
1837.8079
4336.3754
2616.6646
4224.4861
3569.2927
4025.3395
4154.7307
4239.7356
4408.1232
4505.8719
4699.4576
4495.1706
5241.4376
4630.0338
4175.2311
4479.9999
4409.4995
4706.8175
4843.8963
4990.0159
5236.6077
5472.1169
5508.207
5706.6874
5959.679
6468.0734
6465.5693
6853.9559
7110.243
7519.3022
7769.0247
8505.5111
8409.2979
9667.7553
9535.8708
3125.3674
2861.7008
2616.5011
2454.7335
2365.0079
1981.2542
2268.9171
2284.4789
2164.5207
1635.2654
1535.4098
1290.3739
1324.4868
1706.6945
2259.7262
2096.478
2277.9192
1972.2241
1994.7238
1842.9486
2210.4055
2833.819
2467.2517
2390.6906
2399.2234
2164.2541
2244.5838
2075.0167
2599.9266
2332.9487
2779.0083
1851.8946
2483.7982
1723.0114
2060.2615
2930.6699
2902.5633
2458.1154
3124.8715
2656.2114
2779.1425
3030.1239
2956.1845
2308.9346
3105.5032
2119.6559
2438.835
2254.3595
2237.7761
3020.1365
3254.4071
2866.0696
3111.6993
3153.1874
2794.2068
3128.8056
3272.1108
2889.7209
3134.3448
3194.6689
2973.8021
3078.6857
2891.8446
3167.1255
3231.6279
3149.5154
2913.597
2959.6821
2876.1866
2827.588
3380.2688
3514.6135
3431.5235
3635.5765
3652.1905
3645.9606
3777.325
3657.1982
3413.6507
3611.8748
3120.5675
3170.9472
3098.5684
2999.0107
3719.47
3830.9708
3549.7236
3744.2295
3948.2476
3733.1023
3955.8419
4052.2955
3876.5087
4155.2551
3753.9857
3993.9629
3126.1501
3786.0551
3935.0685
4114.8768
3665.8801
3946.3779
3606.4406
4099.7461
3786.583
4440.5968
4405.6907
4113.5953
4431.5449
4174.8821
3985.5005
4119.0574
4287.066
4229.317
4056.8481
4296.5638
3938.6149
4049.2834
4054.7086
4476.9763
4528.1012
4297.7505
4505.0662
4275.8098
4541.2743
4448.2323
4624.6425
4516.0769
4312.5881
4561.1628
4377.8078
4359.8926
4261.0564
4648.9
4664.6518
4418.2131
4787.5726
4417.2869
4659.6769
4623.4069
4891.643
4707.2924
4610.6784
4794.7779
4572.1771
4699.0875
4569.4515
4883.4803
4676.4176
4610.2353
4889.5746
4637.3264
4858.6658
4694.9336
5142.4697
4806.0608
4890.2146
4972.4177
4792.6183
4809.3008
4746.6641
5057.8752
4692.5748
4867.7586
5039.591
4826.9748
4974.3702
4902.8916
5375.7543
4843.5984
5085.372
5173.1555
4930.8841
4897.1501
4853.1335
5236.1073
4734.401
5193.3114
5112.7801
4995.178
4929.6476
5111.445
5400.2698
4823.345
5265.19
5173.5739
4998.6391
5144.3821
5037.0667
5476.3193
4920.7438
5113.1057
5287.7762
5093.521
5008.5341
5151.6697
5373.4376
4690.1411
5415.8358
5289.8016
5088.126
5140.3457
5248.2504
5441.4436
5074.6216
5354.2088
5284.4929
5193.3732
5177.9972
5284.029
5556.6821
4901.0148
5317.5385
5435.7351
5212.0594
5220.7452
5325.2926
5468.4176
4989.7023
5476.0912
5424.039
5235.9615
5265.4427
5377.4312
5570.8617
5105.2211
5419.2169
5509.1669
5283.7459
5339.0027
5463.1859
5619.4786
5030.0688
5503.1003
5486.2809
5307.781
5412.0216
5428.244
5520.0852
5205.5008
5487.6253
5601.3138
5470.5598
5434.5294
5472.2414
5868.0051
5154.902
5532.0585
5633.5713
5307.9242
5361.9125
5369.434
5415.4254
5004.4162
5559.9081
5462.5166
5522.9728
5379.6188
5960.4734
5887.7979
5200.3633
5627.8991
5945.7795
5253.728
5736.1106
5245.9776
5264.0384
5433.948
5357.7343
5734.3261
5461.5625
5461.4058
5719.3619
5894.2688
5210.5433
5474.0215
5805.2917
5265.417
5684.6328
5362.175
5455.2117
5547.232
5497.2658
5901.4504
5541.3813
5586.8115
5409.6748
5389.1476
4865.9763
4965.2487
5489.4101
4822.7378
5487.5093
5377.2451
6162.1168
5843.6682
6196.9359
6239.0153
6145.5719
6207.1978
5436.0376
5144.4908
5086.3097
4726.2514
5510.6776
4869.3792
5272.6772
5210.4335
6143.8639
5361.7078
6389.9358
6217.1384
6143.1433
6374.9609
5772.3424
7386.7191
8319.8625
7756.5714
8286.1361
7856.2889
8143.5664
7579.6876
7222.8263
6101.2049
6774.695
6535.4619
6601.6268
6497.2622
6481.1511
1701.6303
1902.6346
1504.4889
1521.6393
1124.494
1220.8247
886.86725
1051.5261
1125.3145
865.29317
1056.2021
1039.9633
1284.8677
1247.1927
1220.2042
871.00635
823.56428
672.55868
871.02351
504.65
1135.1054
1178.6391
1412.9129
1304.0457
1578.1536
1064.7712
1447.0911
531.22537
1754.1774
1300.2511
1812.5745
1274.1714
1903.3398
1086.6686
1674.7308
1533.8044
1426.2301
681.36488
1284.3054
426.10449
972.83887
716.92733
1981.0709
1312.3529
2023.527
1519.6354
1813.5219
1743.6044
1281.4154
1893.1392
1760.4395
1020.5603
1492.1126
1192.2053
1172.8296
1223.4952
2177.9447
1296.9217
1599.0199
1619.7173
1065.0225
1547.8768
939.08856
2222.8216
1725.6385
1719.5382
1640.7359
1912.571
1659.5282
1859.4539
2476.5123
1653.2333
1597.9981
1882.6444
1219.8118
1564.111
1044.1844
2428.6858
1714.3361
1694.984
1692.6896
1869.7994
1732.0312
1852.8813
2628.8412
1788.5485
1788.5809
2447.7295
1712.7161
2190.1039
1579.88
2482.72
1538.3256
1927.0311
1849.1065
1595.8153
1969.9482
1910.7315
2622.3002
2030.3358
2122.6181
2293.123
2307.5156
2255.2988
2354.7022
2789.0798
1597.0382
2375.5079
2067.8687
2134.5057
2074.2314
2067.4564
2700.2362
2174.1334
2420.441
2322.3777
2508.5024
2329.525
2659.3045
3071.8866
2189.9897
2552.238
2504.4616
2485.7561
2432.5444
2490.5902
3063.1409
2303.4955
2737.1706
2518.67
2775.7272
2512.0816
2733.6274
3370.8727
2585.7518
2851.5262
2837.1994
2823.0002
2644.2377
2932.6982
3324.0531
2522.0045
3003.0402
2809.313
2971.116
2890.513
3000.0052
3555.289
3056.8843
3217.7099
3124.0128
3288.3523
2905.5082
3228.018
3588.8896
2927.0521
3191.3243
3238.8107
3140.8775
3159.2359
3419.3738
3901.3977
3307.547
3545.1503
3349.9683
3423.1714
3556.3021
3657.9445
3838.582
3384.3431
3615.6288
3368.8005
3510.4809
3535.5897
3593.2597
4132.137
3709.0681
3678.3682
3870.9943
3440.4826
4083.5644
4108.1658
4162.5356
3852.4018
3956.6144
3499.9184
4182.6571
3900.6952
4178.8575
4511.4994
3703.3
4307.6332
4076.3003
4026.6974
4361.4243
4364.043
4566.1455
4294.6449
4679.2294
3951.0631
4265.9215
4637.667
4416.0041
4968.6102
4480.7154
4523.4645
4303.4935
4550.0991
4805.7912
4632.7848
5075.4896
4447.5855
4881.8931
4525.2679
4653.8099
4998.6925
4851.1004
5236.9814
4889.4302
5113.1107
4789.8453
4847.5865
5332.5368
5055.5799
5562.4811
4971.8989
5267.7912
4876.476
5081.872
5512.6675
5206.4902
5629.1639
5252.1761
5472.2734
5266.4439
5320.9778
5718.5324
5406.8044
5981.7269
5427.3755
5691.7299
5438.2608
5358.6558
5901.0406
5687.2914
5945.6418
5495.4214
5887.2698
5577.2747
5626.0321
6210.9943
5825.8323
6435.1903
6195.8751
6084.9414
6051.9269
5656.1084
6582.0482
5887.3386
6470.5785
5319.149
6314.1302
5643.7661
6106.2636
6482.9858
6148.7928
7119.9691
6723.1167
6842.9816
6538.6583
6199.745
6913.8886
6339.4706
6858.9933
5384.4039
6626.7309
5826.3237
6355.8532
6865.4088
6463.066
7315.6626
7055.3711
7299.2745
6960.4582
6735.6624
7175.9089
6689.1692
7505.3481
5956.7154
7077.9553
6269.5324
6563.3774
7178.4243
6821.4828
7587.603
7305.0545
7762.1493
7325.7005
7507.874
7681.9159
7098.6666
7140.2183
6417.5706
6979.3119
6527.3824
6378.1076
6590.7154
6616.6059
8829.0356
8487.6967
8863.3676
8386.6386
8572.7828
9025.625
8684.4584
6240.2078
5839.7054
5858.2293
5526.5164
5547.5029
5409.4057
4950.8729
9188.7299
8018.5826
8471.0648
8055.8624
8255.0826
8135.6707
8799.6528
1129.654
1259.6498
977.85804
915.16578
793.14372
798.80869
640.70031
216.46579
66.52714
-69.128102
-162.93406
33.531885
-181.53377
181.6167
718.50677
190.46007
176.83015
47.431394
-19.074103
-142.15953
280.39824
455.79762
577.80965
977.06205
1102.4353
1032.4687
1193.757
648.84566
1125.6615
626.06487
660.4153
-289.80934
130.14186
-671.69706
286.4244
737.30446
48.165681
341.38109
396.91648
479.88398
787.61595
492.91672
868.10391
534.61843
1215.2904
774.39488
1144.9427
411.83804
753.15927
919.3533
382.16383
407.56684
101.57667
23.520647
100.47792
191.15903
613.63848
521.33606
1057.3849
983.23509
1422.3939
923.77434
939.12013
1122.5384
754.97904
763.77381
554.80247
374.93528
288.98994
346.86859
667.72201
588.3671
938.03668
764.33002
1027.4686
694.25671
748.28837
1243.6657
912.61104
1076.0036
1001.4515
1040.1286
898.73022
927.62139
1010.1758
667.91062
1417.5141
835.65185
1055.7995
611.41135
975.08613
1356.4328
1258.2562
1801.2673
1013.189
1581.7322
1035.3107
1284.1628
1785.1946
1243.9656
1429.8544
1367.9075
1077.4878
1248.8069
1129.9523
1810.4171
1550.9665
1682.9544
1585.6666
1526.0164
1368.1228
1519.7746
2203.7213
1587.5872
1751.5552
1851.9337
1325.9489
1589.3441
1498.3422
2184.0807
1573.9586
2023.896
1835.4568
1613.9752
1809.5309
1757.4207
2545.635
1945.0762
2129.5738
2077.0316
1740.9355
1903.4628
1835.7102
2515.1737
1855.5159
2246.1649
2214.4641
1843.2848
2175.1755
2062.7147
2932.0783
2283.444
2580.2092
2435.5407
2151.4758
2286.838
2213.971
3100.0454
2183.5028
2590.4754
2644.2694
2095.3639
2526.9194
2421.9723
3471.3896
2469.1332
3123.2381
2610.3591
2544.5746
2776.0125
2641.5585
3564.5736
2622.0348
3191.9267
2936.962
2945.0339
2832.2336
2605.9565
3977.7306
2772.8082
3511.5712
3225.2396
3235.9953
2991.1736
3117.2028
4148.2848
2966.9213
3888.6925
3145.4784
3602.1027
3198.3327
2937.5118
4538.3279
3244.2518
3895.1819
3479.9849
4046.636
3278.0204
3550.4162
4517.7091
3474.8788
4167.1229
3914.6967
4018.3407
3527.4546
3581.0651
4963.2044
3916.9471
4526.4319
3858.9952
4506.6394
3796.5757
3873.1803
5165.2447
3954.0128
4401.7542
4192.6419
4666.1222
3831.2335
4096.2766
5309.7461
4197.4017
4894.2726
4569.3548
4886.7408
4228.2092
4372.1988
5626.1981
4490.9366
5041.9664
4530.0523
5046.8915
4332.8754
4469.7118
5778.2989
4678.6979
5146.7602
4910.5252
5336.8274
4579.1195
4728.4064
6033.3233
4852.9305
5405.9928
5064.1595
5375.2194
4721.6743
4951.5046
6111.6544
5005.6344
5579.2583
5191.0311
5603.3938
5088.0678
4993.228
6483.1265
5465.6619
5852.433
5374.4592
5891.6014
5083.4371
5249.3946
6355.2312
5183.6439
5654.3941
5510.6118
5921.8429
5310.9342
5354.732
6789.5154
5849.1304
6319.6688
5818.0943
6199.2006
5456.4053
5430.1156
6208.9347
5958.7133
5754.0396
5899.1709
6051.732
5614.3577
5612.8922
6696.0882
5953.1908
6124.0414
6028.2632
6317.9312
5870.5418
5707.7667
6608.4899
6947.252
6299.2637
6670.072
6411.661
5998.6982
5665.7901
6548.9006
5797.2455
5795.3717
5942.6582
6010.3061
6095.4584
5992.8885
6743.8402
7209.98
6693.0704
7067.9169
6741.6552
6599.1146
5652.1842
6679.6231
6309.3115
5922.3058
6253.591
5951.3156
6181.7288
6215.2428
6959.4082
6833.0864
6484.3509
6971.774
6485.2874
7342.7879
6212.1343
6479.1021
6217.3003
6235.1062
6511.34
6130.7443
6529.7215
5288.6109
8388.9382
8010.0658
8045.1141
7962.4075
8092.5581
8178.9242
8192.7884
369.7719
423.17641
232.60014
302.22419
189.89109
271.36602
40.702213
63.939348
243.23485
330.09781
561.1322
534.83481
690.60138
796.34239
-74.173973
-670.15267
-796.33453
-819.22478
-778.23488
-710.24397
-696.41634
331.67794
739.7538
1135.3078
1313.4987
1335.7023
1302.2836
1026.8497
93.76706
-485.1671
-805.36903
-1280.8458
-1341.0353
-1310.0419
-694.93928
474.33597
467.40156
646.73012
1069.9553
1233.2676
1203.4093
918.19663
68.635635
-306.01741
-630.07585
-667.62255
-822.83728
-1034.0405
-414.48011
323.48377
353.29604
277.56135
618.51302
381.98142
1078.1618
611.0274
370.7801
-97.316046
332.30594
-479.88431
558.12176
-380.85402
188.75187
107.9613
346.59536
-246.51024
208.88714
-138.54469
418.06361
424.99526
459.94903
-379.72915
988.84321
-41.553307
961.58728
697.64142
359.73769
149.97932
469.44399
220.59408
-452.64294
410.4467
6.5157734
736.0455
440.51427
-254.33485
536.7309
225.39996
1031.4202
554.1244
216.44042
270.93557
408.49883
250.55359
161.66668
108.11406
527.78969
510.2958
322.51329
-93.187343
939.03557
-0.33192027
866.72561
485.28195
486.10505
500.69553
207.85548
713.29648
337.68197
428.99879
713.46451
518.17707
507.04019
-52.544655
962.3163
246.82309
772.49473
844.33784
725.09266
786.44823
570.48548
1115.0982
531.66715
815.55437
987.53056
818.53138
739.29793
349.24361
1196.7269
490.69296
1068.0335
1178.8978
954.20605
1139.6174
858.85286
1460.2131
837.46235
1317.9588
1211.0051
1183.722
1206.1217
711.19383
1573.5939
914.53822
1313.9123
1504.4832
1375.3906
1550.535
1197.1006
1924.5208
981.13771
1739.6061
1697.0698
1567.3472
1648.354
1405.4584
1715.7786
1483.2053
1898.6523
1867.5028
1682.1846
2072.5456
1603.7489
2003.5061
1805.4291
1853.0953
2065.0583
2188.8921
2260.1628
1731.4705
2406.6324
1715.0235
1779.8198
2384.7317
2068.3348
2654.3544
2109.8713
2383.2606
2188.123
2175.6236
2530.6253
2751.4695
2737.0243
2181.0241
2741.2854
2491.1998
2138.7213
2754.1937
2647.5836
3107.7416
2426.9623
3157.9484
2533.1062
2693.963
2987.1292
3138.6763
3401.4967
2700.6053
3151.0275
2962.136
2591.3916
3145.8903
3351.7778
3485.9288
2841.7362
3491.4372
3216.285
3052.0048
3597.4696
3615.6101
3779.6464
3220.5886
3739.9165
3442.9062
3165.3672
3615.1329
3868.5861
4010.3471
3469.2966
3926.5479
3726.2946
3395.3859
4048.5599
4087.941
4212.1406
3599.8056
4144.0609
3899.7632
3698.5866
4209.4308
4413.5526
4394.5809
3893.468
4431.4787
4270.4103
3878.1543
4558.8452
4494.8798
4656.4664
4203.6622
4666.0955
4367.3717
4167.2627
4669.1179
4817.3294
4672.4848
4223.2986
4578.3654
4676.073
4321.9702
4885.203
4981.0521
5131.9313
4626.6857
5148.6799
5027.0033
4434.2809
5202.6365
5138.5468
4907.9132
4587.7286
5110.8382
4845.3279
4687.2867
5188.2611
5348.5091
5522.7853
4874.6929
5356.7281
5310.4119
4885.6794
5561.2634
5610.8007
5682.918
4758.2026
5741.0066
5243.8341
5081.0635
5485.1709
5556.3316
5847.9717
5194.8998
5784.6599
5660.1557
5249.6737
5908.7331
5949.692
5995.6196
4603.7977
5833.0598