/*--------------------------------*- C++ -*----------------------------------*\
  =========                 |
  \\      /  F ield         | OpenFOAM: The Open Source CFD Toolbox
   \\    /   O peration     | Website:  https://openfoam.org
    \\  /    A nd           | Version:  6
     \\/     M anipulation  |
\*---------------------------------------------------------------------------*/
FoamFile
{
    version     2.0;
    format      ascii;
    class       pointScalarField;
    location    "1.46";
    object      p;
}
// * * * * * * * * * * * * * * * * * * * * * * * * * * * * * * * * * * * * * //

dimensions      [1 -1 -2 0 0 0 0];

internalField   nonuniform List<scalar> 
3969
(
259390.78
-259456.2
7526.8109
2763.5097
439038.59
-748080.19
3205.9165
1825.4922
221678.56
167746.53
107632.71
34967.906
-27415.755
-101058.78
-127066.65
-13918.859
-5127.3365
-4053.935
964.36878
5506.2426
9740.2559
9659.7581
82556.684
104720.49
105883.12
117162.11
119056.5
126416.92
125990.86
130738.63
131120.24
131990.4
133734.89
134821.4
134556.92
135911.24
136147.77
135540.64
136095.78
134837.84
134386.38
132088.59
130671.8
127889.97
125141.11
121899.82
117993.77
113718.3
108944.1
104158.67
99554.626
93847.235
88701.701
83221.646
77649.937
72247.521
66826.449
62001.573
56367.114
52220.663
46257.052
43036.176
36864.905
33170.951
29436.703
23079.723
21296.106
16231.254
11828.52
-76124.191
-68152.123
-89786.473
-85097.005
-101921.45
-95685.618
-108364.49
-105187.44
-113062.66
-113186.89
-117631.21
-120159.47
-119895.15
-123388.22
-122810.59
-123713.6
-123702.42
-122229.28
-122009.13
-120190.19
-117518.01
-116644.5
-112336.31
-110611.55
-106110.97
-102694.65
-97559.658
-93470.054
-88814.2
-84116.743
-80185.951
-75125.835
-70867.794
-65982.198
-61587.232
-56925.199
-52808.776
-47627.631
-43845.184
-38675.536
-34262.107
-29816.163
-25628.605
-20428.955
-15909.483
-12148.761
-6956.0969
345210.8
240711.47
92092.786
-60826.842
-171381.43
-311678.7
-261441.06
-99809.397
-122952.39
-93568.546
-125410.42
-120140.15
-126986.52
-127916.65
-130745.39
-132508.97
-123289.23
-142852.17
-133056.85
-141353.56
-141452.97
-139196.07
-143753.52
-138276.37
-140463.39
-136706.82
-135151.44
-132622.91
-130206.37
-126711.83
-123378.94
-119654.39
-116254.33
-111563.25
-105507.72
-100908.64
-95451.139
-89401.605
-83868.075
-78148.173
-72255.763
-66980.508
-61937.423
-54506.562
-50974.28
-45936.584
-41114.542
-36072.221
-31778.687
-26414.5
-21611.691
-17227.645
-12372.111
-7844.4047
14603.571
8328.0773
5357.0907
4049.9563
-5651.2009
-5250.327
-14129.167
23947.334
19029.173
20953.207
26092.539
31006.272
35406.994
40539.433
44996.205
50136.025
54350.019
58207.936
66121.372
69461.346
74677.914
79941.119
85317.563
90359.328
95870.164
100686.51
105768.16
111045.24
115096.26
119861.43
123715.46
127967.73
131186.33
134543.06
136039.3
139055.87
139423.55
140774.75
140174
137064.98
140747.89
142154.5
133689.54
136715.45
129339.9
128187.58
129030.52
126597.52
115516.96
118363.52
100488.1
100519.86
93619.503
85773.3
198160.67
205476.25
214487.94
203477.61
200524.76
192155.89
131689.5
-189440.71
-258050.13
-325375.27
-354297.49
-350324.1
-370401.43
-262581.96
4385.1568
5122.5016
5460.8111
6487.4936
5966.3998
4581.4862
4501.1117
-1125.3279
1175.8291
249.2026
-458.5523
101.39429
4272.4229
-234.60765
80647.278
88142.043
90254.395
93042.897
96417.743
97233.132
99561.395
102022.98
101197.85
105195.8
105600.37
104517.13
108388.16
107705.32
108353.9
108103.17
108425.31
107263.32
106403.32
105048.37
103716.24
101350.64
99238.77
96633.801
94128.332
90407.972
86858.059
83353.595
79114.034
74956.521
70787.958
66346.471
62089.831
57722.195
53640.1
49244.502
44939.614
41363.609
37317.986
34015.1
29723.724
27130.806
22004.005
18879.416
16128.013
9503.1493
4972.0227
54481.491
59873.804
56890.464
61853.849
64654.603
67877.384
67251.703
68890.987
69055.653
70902.455
69731.586
71241.591
70537.514
70258.834
71266.154
70651.345
71113.461
69923.666
69933.886
68770.428
67466.819
65892.143
64201.802
62574.16
60302.733
58466.997
56506.621
53415.373
51288.208
48400.108
45763.096
42952.261
40067.145
37355.513
34653.854
31941.586
29525.654
27297.56
24193.572
22628.381
19494.255
17830.745
14558.96
13751.008
10497.857
6399.6777
1355.9532
31569.477
38252.411
31034.278
34864.447
35255.061
35190.274
35294.998
36379.504
35827.384
35502.527
36729.863
35727.979
36264.096
35188.917
35259.305
34851.826
35234.487
34562.214
35156.656
34245.527
34737.557
34120.487
33825.819
32748.174
32163.08
30882.179
29669.163
28714.678
27387.027
25924.621
24518.284
22879.357
21342.452
19756.519
18347.268
16559.444
15448.619
13647.703
12618.537
11653.13
9916.306
9840.1472
7628.9326
7382.6572
5310.5235
2547.8528
1780.0143
6179.0927
10307.099
4050.8013
7261.6147
4218.8236
3964.0829
534.61849
750.9234
-1528.7686
2554.7372
-2123.2176
312.29373
-1661.2155
-656.41485
-503.14627
-566.30292
-361.61253
-512.42436
-166.56102
-653.44598
-464.38634
-1384.758
-2204.4134
-2043.5566
-1708.8325
-1825.5358
-1572.3141
-1513.7982
-1539.9797
-1458.1044
-1430.6568
-1405.1416
-1451.5484
-1362.1519
-1414.7603
-1057.2338
-1238.1687
-932.1152
-435.14721
-363.31148
207.37085
619.33026
-2.6641636
1828.1315
1410.3315
2677.6465
3707.7005
-20023.864
-12345.039
-20854.351
-21204.571
-26026.276
-27458.634
-30086.271
-30488.827
-33049.045
-31473.171
-35684.121
-32861.624
-36515.324
-34003.585
-36199.019
-34731.008
-35221.741
-34800.482
-34088.997
-34151.349
-31980.628
-30211.044
-28769.383
-26163.836
-25722.967
-25693.635
-23909.662
-22740.235
-21507.26
-20505.023
-19165.16
-18374.656
-17005.294
-16274.898
-14824.953
-14024.166
-13122.117
-11616.482
-12043.015
-10527.407
-9169.2859
-8251.163
-6224.4502
-4499.9688
-3144.1202
-614.35321
2297.423
-43207.698
-38748.987
-45593.338
-50928.958
-54737.489
-57302.478
-61472.201
-62068.29
-67073.265
-66231.692
-70571.816
-70649.522
-72356.816
-73465.392
-74008.763
-73471.673
-73602.385
-72810.748
-71977.055
-71258.565
-68570.057
-67711.443
-63008.879
-60457.684
-57365.542
-55548.771
-53280.505
-50922.102
-48403.486
-45911.126
-43640.913
-40998.894
-38579.265
-35936.104
-33573.729
-30964.476
-28501.796
-26194.826
-23490.281
-21617.167
-19459.982
-16985.032
-13619.032
-11194.262
-7424.5692
-3021.5422
3873.5182
-74227.659
-58274.006
-74074.992
-74942.451
-84504.255
-85044.244
-92675.424
-91689.852
-100250.91
-96551.428
-103916.63
-104079.79
-105337.7
-106295.09
-106373.49
-106383.13
-105433.85
-104939.67
-103891.72
-101830.64
-100731.24
-97527.198
-95726.728
-92837.518
-89922.152
-86844.694
-84170.601
-79957.894
-75992.417
-72069.81
-68161.482
-64146.082
-60001.725
-56093.902
-51892.36
-47911.21
-44255.563
-40237.035
-36848.505
-32472.84
-28474.357
-24598.576
-20385.232
-17201.504
-12439.244
-8076.3202
-644.72874
166161.72
148372.66
151051.59
145855.98
146454.43
137054.07
129059.41
114116.1
117162.7
107051.61
103853.3
104437.62
95368.958
98919.366
70654.633
78645.798
62388.402
60064.373
55032.493
47731.314
55360.146
27953.405
20114.721
7571.3416
9118.0347
1828.4354
-18184.323
11247.962
-17342.24
-20248.689
-30367.412
-31361.329
-37523.819
-47439.81
-29050.206
-84893.751
-83611.822
-93467.878
-96964.374
-106296.1
-109527.69
-98106.088
-113221.25
-109273.51
-88990.852
-93600.324
-96905.35
-88193.995
-113507.86
-106523.17
-115735.29
-138046.72
-143858.72
-149318.04
-152346.57
-118561.89
-92509.345
-101815.39
-105363.54
-111365.87
-113901.77
-117664.51
-109306.46
-98853.787
-113483.51
-120083.65
-120720.01
-124667.65
-120372.87
-121585.75
-98028.572
-104371.94
-105462.15
-113158.4
-110250.85
-111638.79
-111000.53
-104639.25
-112158.54
-119487.23
-121815.08
-123536.71
-120882.46
-122410.99
-109909.19
-108804.14
-113592.77
-116862.24
-120463.86
-118480.64
-120414.16
-109795.75
-114715.17
-117421.32
-121602.37
-121901.69
-122962.99
-124242.07
-116218.03
-115858.33
-118077.98
-120839.56
-121748.84
-122969.7
-123499.5
-116932.77
-120269.63
-120896.24
-124761.25
-126566.96
-128125.97
-129479.1
-122615.24
-121951.94
-122623.56
-124202.97
-125539.22
-123893.19
-126471.23
-123533.47
-126066.78
-124236.18
-127569.05
-128160.81
-128453.02
-131831.71
-124771.71
-126049.27
-126204.38
-129228.62
-129263.87
-126947.86
-131249.63
-129585.5
-126744.64
-128631.41
-129154.32
-130485.77
-129347.29
-134107.07
-127666.69
-127629.63
-130648.1
-131004.81
-132156.92
-129876.83
-133184.81
-130665.36
-128776.08
-131468.6
-130186.01
-131779.74
-129629.09
-133775.35
-129950.94
-128396.86
-131938.81
-131103.84
-133340.6
-131160.22
-134707.38
-129612.06
-128922.13
-131815.69
-130444.44
-132592.8
-129604.05
-132660.27
-129082.81
-128381.49
-131583.78
-130004.02
-132943.65
-129584.42
-133278.94
-127681.73
-127465.05
-130455.68
-128443.58
-131349.84
-127779.5
-131536.88
-125932.48
-126072.92
-129012.51
-127008.67
-130426.65
-126821
-130707
-124200.6
-123628.46
-126939.19
-124552.6
-128107.71
-124346.26
-128100.79
-121387.02
-121565.61
-124465.08
-122458.88
-125920.72
-122173.6
-126212.55
-118912.85
-118128.16
-121706.98
-119184.6
-122407.18
-119071.71
-122838.6
-115218.05
-115699.93
-118142.99
-115858.62
-119514.92
-116263.57
-120219.96
-111726.99
-112263.32
-113158.28
-112699.75
-114944.28
-112633.51
-116078.56
-106924.61
-108551.5
-107812.01
-110101.71
-110991.11
-110252.29
-112615.35
-104291.84
-103944.02
-104399.42
-105273.5
-106118.19
-105293.03
-107925.55
-99850.362
-99167.73
-99939.192
-100565.64
-100894.19
-100953.19
-102215.45
-94990.163
-94134.804
-95172.618
-95065.167
-95396.041
-96075.538
-96751.09
-90225.828
-89055.121
-90332.425
-89937.415
-90640.328
-91037.127
-91478.691
-85014.713
-84266.135
-85013.028
-84637.726
-85051.396
-85364.438
-85818.311
-80175.91
-78937.833
-79840.942
-79313.728
-79715.387
-80055.517
-80448.142
-74946.804
-73932.3
-74565.027
-73982.405
-74372.889
-74584.191
-75048.086
-69979.033
-68781.384
-69402.419
-68810.612
-69022.105
-69280.841
-69483.306
-64769.027
-63696.35
-64150.25
-63431.72
-63695.449
-63897.498
-64193.821
-59850.196
-59019.916
-59234.481
-58823.146
-58882.618
-58939.511
-58936.455
-54979.071
-53845.686
-54228.674
-53325.459
-53617.165
-53997.825
-53767.395
-50464.536
-49513.179
-49397.54
-49150.528
-48887.623
-48787.069
-48975.735
-45366.371
-44607.376
-44554.29
-44155.493
-44051.019
-44082.899
-44086.134
-41114.761
-40031.309
-40512.579
-39724.692
-39719.285
-39665.326
-39646.53
-36044.713
-35647.539
-35592.007
-35088.049
-35063.83
-34896.429
-34737.387
-31653.759
-31238.957
-31137.112
-30964.292
-30713.252
-30530.359
-30321.281
-26745.182
-26883.933
-26673.548
-26799.571
-26146.05
-25995.384
-25674.853
-22052.511
-21764.097
-21929.239
-21724.974
-21278.401
-21223.364
-20576.419
-18102.933
-18896.634
-18724.873
-18869.939
-18353.401
-17627.034
-16737.597
-15030.504
-14990.973
-15320.714
-15204.556
-14583.532
-14573.426
-13553.696
-11378.558
-11930.879
-11922.423
-11256.152
-12108.188
-11426.987
-9713.6097
-21629.296
-24214.799
-27235.728
-27444.021
-26411.718
-25168.154
-22485.475
-11017.933
-12003.717
-12926.215
-13549.187
-13043.884
-11468.006
-9558.8319
-7695.5827
-8980.1542
-10047.598
-9943.7611
-9680.0091
-7740.389
-6613.7874
2028.6283
2697.9176
2483.0629
2443.2986
3103.7446
2499.1383
3611.0949
8096.3528
8600.371
8260.6068
9363.2118
8289.9791
8051.2554
7551.1476
13089.135
16014.163
16670.659
16761.054
17850.95
14845.56
14099.607
17002.474
17709.166
19405.829
19264.03
18444.79
17369.707
15324.927
103937.78
96977.092
111835.61
103117.16
107026.4
98494.218
99042.811
116606.14
114256.32
118546.83
116263.11
115072.19
107729.9
101877.89
118661.2
115861.06
117716.98
116240.02
114774.01
110969.09
106137.91
116931.84
119452.86
119013.15
118843.54
117488.74
112031.93
111986.89
124201.7
122290.1
121795.5
122010.78
119080.19
118408.91
112715.39
122727.85
123308.89
123384.05
121098.6
120099.88
114963.71
113754.53
128474
126852.46
125687.26
125171.05
125412.84
121092.24
124025.07
127192.58
126611.41
127970.22
122137.41
124530.44
121906.73
120589.21
131130.66
132240.82
130501.16
128102.83
129562.59
126572.7
128159.32
133616.42
131351.34
130223.64
128675.14
129815.24
126657.38
128482.03
135180.78
132875.73
135414.56
131970.48
133700.3
130829.25
132513.68
134744.3
135631.94
134565.91
132487.27
133544.88
131491.81
133472.43
138074.95
135667.86
136311.84
134294.12
135847.53
132821.14
132259.32
138173.89
136894.19
136791.05
135484.12
135804.83
134655.92
135802.45
137938.5
137836.24
136450.09
136618.23
136370.46
134617.33
136254.3
139543.64
136900.82
136963.96
135775.1
137200.94
135109.44
136039.91
138702.37
137226.49
136730.56
136231.18
136389.48
134273.05
135582.87
137803.44
135885.08
136045.94
135111.36
135337.49
133615.81
134343.42
136457.02
135161.05
135202.64
133895.8
134419.85
132634.8
133691.31
134877.93
133034.94
133234.76
132059.65
132483.53
130494.75
131440.13
133220.51
130906.85
131618.69
130028.45
130652.02
128704.35
129699.89
130340.34
128104.46
129000.98
127340.42
127844.61
125500.8
126714.32
127682.94
125216.71
126449.78
124437.52
124990.49
122816.57
124255.65
124180.84
121875.96
123010.45
120827.88
121367.98
118914.8
120490.51
120627.51
117712.18
119446.95
116951.79
117749.63
115235.51
117040.79
116470.88
113192.2
115309.13
112582.96
113300.52
110948.75
112542.66
111646.86
109011.61
110729.63
108198
108874.27
106548.96
108436.14
107251.61
104071.05
105756.56
103449.9
104146.79
101920.49
103789.71
101573.42
98710.2
100963.45
98372.92
99024.429
96942.923
98763.266
96330.69
93906.898
95471.497
93293.785
93916.682
92161.194
93771.689
90999.899
88377.342
90190.714
88077.27
88714.171
86936.44
88677.28
85201.311
83001.38
84564.225
82750.143
83181.381
81863.237
83391.422
79801.129
77657.122
79278.644
77427.886
78034.544
76818.746
78435.569
74231.442
72353.672
73671.13
72296.677
72679.662
71777.165
72995.105
68835.309
66893.563
68430.343
67017.78
67375.943
66926.655
68013.161
63295.347
62218.248
63251.141
62049.492
62489.744
62078.597
62761.344
58073.126
57064.972
57536.319
57326.524
57066.34
57200.314
58148.819
53240.186
52919.401
52825.67
52681.666
52760.794
52171.74
53420.459
48125.118
47261.791
47894.514
47471.311
48033.006
47386.161
48588.24
43939.138
43674.032
43974.908
43626.265
43616.549
42808.975
44145.313
38357.816
37818.715
38244.809
38038.94
38320.154
38361.997
39198.81
34732.063
34551.098
34881.336
34591.804
34829.808
33871.909
34700.276
29978.336
30236.931
30286.203
30452.574
29931.248
29262.685
29500.751
24306.01
24562.644
24815.812
24752.38
24700.691
23824.69
25075.336
22520.786
24642.099
25066.616
25480.817
24738.097
23228.926
22103.951
18777.197
19300.783
19165.616
18979.053
19220.309
19116.991
17604.146
23187.152
26165.414
27262.872
27964.85
27973.183
27773.106
25857.63
92888.774
77498.622
79461.127
82532.167
90679.924
96258.047
95623.737
100813.29
103229.94
107030.84
107139.09
109896.53
111109.09
110151.06
112325.55
111864.16
110799.5
110670.9
109230.81
108043.73
106224.56
103968.36
101523.44
99009.304
95930.56
92798.534
88908.039
85335.725
81593.231
77621.1
73502.605
69557.139
65308.475
61287.956
57467.824
52681.885
48912.963
45696.372
41493.37
37474.759
33803.707
29623.46
26045.713
21435.108
17247.983
11801.179
3866.4905
47477.591
48884.628
45224.587
51082.654
65696.841
63367.093
70572.171
68727.831
75686.927
73287.795
77629.404
78255.539
77219.41
79688.171
79712.181
80526.91
80555.347
79278.482
79448.645
77764.8
76826.676
74844.806
73336.888
70767.285
68625.082
65279.469
63975.825
60779.841
58137.843
55375.092
52490.273
49747.286
46765.412
44201.466
40869.437
38616.444
35603.262
32838.031
30336.27
27403.316
24889.311
21860.693
19152.133
15716.222
12843.212
8579.8319
2922.5339
16202.166
27460.463
19168.918
27140.32
28330.102
25554.89
31165.821
29690.432
33093.334
30822.444
36372.7
34252.847
38980.345
37143.834
39012.526
39837.752
39061.791
39375.299
38969.117
38110.864
37322.769
36646.893
35537.17
34652.253
33579.412
32610.152
31583.06
30082.327
28898.962
27724.2
26425.905
25317.319
24059.091
22826.354
21447.545
20435.774
18890.714
17759.974
16286.091
15088.857
13812.094
12124.791
10578.042
8861.4768
6997.7425
5226.4019
-766.55605
-20271.336
-4762.6033
-9056.1346
-3098.7875
-3676.7699
-3342.186
-766.03827
-3789.3275
-1874.4826
398.62803
-528.62977
1303.4421
1374.8399
3620.4541
5687.5182
4879.3256
5948.1646
5704.4488
6059.4142
5441.6238
5965.3184
5628.3431
5751.7703
5522.8513
5380.704
5020.2326
4840.8076
4873.9222
4725.0511
4791.1988
4724.6994
5035.3102
4913.6134
5104.8089
5006.5666
5180.7836
4889.6779
4948.2717
4665.4707
4645.8954
4333.0441
4068.1418
3893.4669
3271.6117
3484.1901
2227.2916
322.07388
-59891.545
-32423.143
-31034.161
-28029.142
-28187.831
-28830.651
-31221.768
-31498.206
-28483.919
-31003.552
-27071.111
-32013.328
-27870.996
-31174.961
-30657.542
-31014.513
-31019.494
-30856.923
-31082.808
-30639.303
-30353.087
-29881.824
-29367.132
-28826.502
-27843.307
-27443.864
-25715.049
-24364.094
-23033.655
-21636.62
-20169.743
-18590.445
-17069.599
-15418.659
-14032.608
-12479.701
-11280.86
-9738.4478
-8748.5269
-7396.9148
-6516.6121
-5091.2847
-4449.7439
-3033.2036
-1875.9148
-135.07335
1347.0229
-83702.208
-61844.457
-56298.667
-57152.831
-61088.942
-62268.357
-64905.557
-62350.337
-69533.667
-69433.324
-72376.357
-74002.64
-72665.383
-75769.944
-72843.829
-74508.172
-72093.701
-72290.324
-70556.962
-69979.307
-68514.76
-67217.428
-65109.645
-62222.107
-58591.597
-55133.297
-52860.479
-50192.765
-47572.252
-44768.955
-42159.522
-39181.582
-36384.366
-33545.242
-30723.198
-28105.871
-25309.81
-22909.727
-20462.352
-18022.996
-15774.282
-13332.605
-11083.742
-8422.3111
-5804.4355
-1791.8713
2086.1464
-100858.98
-84771.953
-80304.915
-87109.157
-91115.658
-95357.157
-99198.991
-99656.236
-106189.64
-104997.8
-107170.37
-107345.49
-108479.13
-109024.71
-109614.13
-109596.36
-110933.65
-109354.44
-109956.47
-108039.49
-106879.3
-104495.07
-102341.63
-98977.432
-96359.773
-90132.161
-86644.936
-82621.981
-78525.849
-74492.235
-70209.052
-65561.521
-61294.576
-56678.774
-52213.893
-47969.544
-44199.531
-39708.591
-35898.733
-31939.87
-28427.903
-24269.929
-21117.079
-17033.912
-12414.765
-8393.9703
-2449.9913
132259.86
145220.35
130473.37
136041.72
127664.63
116509.06
108522.33
98405.105
109643.05
105263.53
104898.89
100539.59
96613.153
80990.83
95867.126
105633.51
101930.95
102778.38
99295.706
93463.031
89037.251
99554.026
98807.29
98957.423
101324.64
93276.397
93143.658
83416.1
99183.487
100988.94
102049.23
99555.903
95440.68
94747.721
83247.626
101567.28
103551.08
98606.253
101177.45
97765.771
94116.497
94680.973
104427.87
102564.06
102850.84
102857.75
95913.12
100363.75
94460.06
103945.77
108454.74
103757.22
103642.48
102630.02
99999.845
97191.51
109229.75
107227.77
101664.55
108032.52
101887.36
102545.07
99406.742
108119.29
106547.01
108708.37
108234.69
104264.77
104929.89
103317.99
107999.64
111838.58
106908.47
108315.24
104716.35
106258.36
102925.58
112709.92
109771.6
108998.75
109094.15
108278.82
106373.83
104778.97
111471.69
111402.9
109805.06
112169.41
107224.48
109018.12
107462.24
112022.6
110428.26
111461.95
110745.15
108654.67
108876.63
107464.96
113020.73
111948.57
111511.44
111031.45
109109.54
110001.02
107798.87
112333.12
110786.66
112237.92
111355.42
109254.03
108951.98
108179.58
111229.18
111206.1
110857.55
111150.93
108582.69
109109.57
107694.66
111074.51
110242.38
111018.71
109901.99
108155.73
108437.15
107528.21
109274.45
109793
108792.43
108992.43
106945.87
107057.93
105553.83
108503.98
108098.92
107929.7
107704.12
105833.62
105908.47
104911.38
105249.22
106766.9
105666.84
105719.68
103692.96
103813.97
102373.38
103533.91
105135.41
103566.91
103586.82
101876.09
101850.73
101083.56
100472.11
102616.36
100426.69
100906.19
98959.922
99563.26
97861.334
97418.377
99947.887
97606.093
98076.874
96735.78
96779.035
95312.174
93507.544
97162.554
93810.953
95151.471
93027.948
93868.6
92189.481
90473.088
93814.488
91030.585
91253.247
90580.969
90331.506
89278.37
87187.934
89901.101
86932.937
87911.581
86876.36
86900.476
85716.147
82860.136
85499.178
83844.029
83912.12
82862.732
83265.234
81854.899
78660.905
82559.707
78963.256
79864.297
79193.074
79425.478
78268.19
75026.882
77489.45
75293.841
75954.06
75251.01
75370.209
74365.05
70372.96
73365.26
70890.915
71561.409
70898.007
71208.522
70396.839
66294.293
68961.106
66918.314
67442.436
67043.66
67354.196
66471.658
62017.868
64575.828
62542.391
63118.335
62840.462
63027.693
62368.659
57808.371
60102.553
58448.323
58961.826
58778.902
59016.984
58335.232
53699.58
55823.458
54452.856
54811.979
54792.208
54907.984
54578.425
49719.298
51588.051
50492.558
50723.584
50973.043
51213.686
50431.421
46443.83
47256.149
46711.624
46524.811
47278.835
46674.454
47249.097
42299.076
43302.838
43255.546
43010.882
43102.92
43498.21
42764.496
38784.51
39191.878
39026.436
39431.179
39300.547
39801.415
39340.342
34645.229
35857.751
35608.575
35868.388
35667.072
36096.605
35714.255
31712.342
31795.128
32013.626
31784.113
32001.532
32314.57
31820.883
27831.894
28779.495
29130.12
29088.661
29355.13
28841.901
28450.549
23720.631
23455.905
23916.348
23688.795
23772.176
24188.329
24361.771
21233.537
21408.273
22686.479
22038.245
22808.544
22524.091
21549.39
16161.671
16207.781
16492.073
16361.314
16599.363
16731.036
16362.315
10984.155
10549.406
12129.393
10986.172
11807.249
11721.797
10606.838
4781.6151
2658.316
2804.2699
2873.781
3233.6514
2557.2624
4860.6062
95763.705
94391.077
98746.788
92941.526
91005.464
77265.961
77398.678
73167.335
74627.507
75989.449
74002.506
71237.233
63490.793
61783.512
73349.264
65194.152
72104.958
67397.702
66388.354
59356.403
55487.693
66477.036
64690.668
66470.28
62584.832
61639.653
57417.446
54500.345
71014.746
68068.129
69106.822
64654.096
65398.373
62741.55
58975.835
70109.796
66470.651
67202.029
63548.308
61899.529
62566.379
59008.262
71814.331
70832.905
72195.232
66973.336
68161.157
67540.062
63158.272
73044.621
69496.042
68431.201
66185.985
67497.304
64217.252
63353.695
74180.617
69726.058
73745.266
70549.311
68605.903
69136.591
67130.048
71756.951
72536.543
73354.978
67692.111
69221.821
68987.449
68130.234
75045.616
73659.981
72313.835
70364.557
71692.495
70847.927
68294.957
75492.359
71710.84
75034.294
71258.268
72998.531
70246.06
72472.543
74015.74
73725.921
76158.44
70651.326
73364.116
71192.301
71651.221
74863.945
74509.446
75546.045
71254.394
74022.99
72484.572
70970.547
74362.255
75419.891
75423.841
72096.953
74544.464
72339.565
71210.07
74541.779
74560.372
74752.491
72438.922
73449.635
72709.368
70575.502
74365.206
75460.756
75508.482
72373.448
73836.218
73359.976
71801.871
73805.158
74648.722
73915.977
71971.775
72923.966
72335.38
70106.239
74038.944
74300.943
74144.496
72027.896
72855.167
72318.413
70444.934
72457.473
73039.516
72838.695
70923.421
71494.158
70766.887
68968.568
72373.39
72474.348
72177.307
70252.432
70764.848
70185.53
68682.843
71382.257
70762.861
70447.773
68761.995
69263.891
68564.54
66823.092
70367.473
69172.525
69201.543
67693.611
68275.901
66996.556
65829.674
68855.112
67297.539
67628.99
66068.442
66317.616
64902.383
64244.749
67028.135
65624.197
65748.253
64217.091
64765.215
62984.256
62697.474
65013.687
63497.672
62812.327
63298.978
61857.147
60881.311
60893.055
61902.716
61410.79
61001.156
59637.386
60264.897
57989.964
58351.321
60140.613
58174.825
58554.586
57495.726
57760.408
55866.812
56199.27
57131.988
55701.07
56164.741
54840.61
55500.243
53151.523
53809.358
54211.084
52866.242
52926.896
52244.867
52266.152
50627.193
51104.174
51191.8
50092.547
50407.663
49502.514
49814.848
48114.841
48746.381
48032.096
47247.932
47131.286
46734
46769.282
45452.35
45872.311
45062.892
44205.819
44320.679
43875.59
44089.894
42652.436
43343.199
41830.599
41335.399
41249.724
41170.751
41072.84
40062.597
40673.074
38806.021
38506.082
38478.979
38252.714
38476.45
37393.994
38368.82
35695.688
35648.385
35346.5
35624.15
35509.54
34806.562
35202.913
32615.833
32989.291
32793.901
32806.411
33013.641
31978.24
33050.533
29755.943
30575.943
29835.936
30386.19
30098.306
29744.601
30316.213
27125.591
27217.105
27470.05
27300.102
27712.821
27280.643
27799.683
24510.466
25481.171
25023.264
25150.934
25145.172
24807.617
25061.358
22211.939
22240.931
22454.016
22417.832
22815.354
22369.224
22534.211
19263.596
20273.651
19805.35
20062.226
20039.162
19601.461
20170.668
17280.369
17333.124
17433.884
17467.287
17483.338
17362.729
17446.732
14781.333
15522.606
15310.523
15303.761
15558.881
14957.944
14921.902
10566.273
11655.156
11237.535
11523.457
11356.074
10877.302
10657.261
7183.9809
7547.9899
6929.4619
7115.7712
7248.5579
7173.7183
6767.7802
2184.865
116.37317
-963.84638
-838.28361
-527.15687
-356.53011
806.27831
62876.947
63403.024
52916.001
55759.929
45668.729
37952.977
34043.646
43575.927
55300.074
50687.518
49679.829
39657.864
42553.518
28389.525
40972.242
41887.643
41687.912
38852.691
35534.032
30609.389
22004.139
38336.292
41334.564
39042.876
38890.409
31617.39
32705.178
26245.265
40849.602
37306.565
38473.741
34577.399
31390.655
32486.162
22319.956
36041.985
40009.203
35411.875
33900.273
34892.554
29228.768
28299.098
40489.367
39254.29
34582.643
36496.282
33982.348
32516.352
30086.409
38232.153
39153.592
35668.817
35075.753
33510.883
30404.846
30688.836
39080.966
41964.788
35529.627
36904.118
34912.275
34387.88
32939.195
41391.297
40054.939
35090.954
34727.332
36164.03
32383.608
33140.95
40530.471
41622.644
34793.36
38301.684
36253.714
35415.163
34084.753
39243.146
40269.331
35495.794
36645.078
36622.561
33479.838
35101.273
39413.36
43086.309
34766.761
37971.605
35640.771
35669.455
34494.171
40213.028
40712.43
36524.26
37390.46
38711.369
33207.656
37284.589
39763.354
41179.86
34655.99
38585.012
36695.912
33971.374
36903.547
39856.073
39937.087
37269.643
37069.457
37726.033
34157.747
38141.211
38019.801
40922.962
35517.114
37636.971
36908.025
34163.229
36641.343
39282.499
39389.837
36203.75
37158.929
37172.169
34030.4
36979.331
37112.679
39667.572
35396.504
37034.755
36121.325
33532.266
35855.877
37601.051
39039.349
35295.894
36241.459
35814.882
33244.396
36136.29
36222.094
38477.624
34339.579
35708.95
34787.376
32899.436
34620.403
35533.465
37426.341
33927.673
34936.717
34465.754
31985.843
34248.546
34436.565
36551.389
32981.283
34460.161
32762.044
31384.913
33099.461
33402.263
35318.32
32460.624
33002.822
31829.129
30776.429
32023.144
32295.172
34165.899
31055.173
31950.108
30465.425
29970.929
30776.895
31263.579
32274.265
30496.18
30395.054
29380.652
28946.163
29475.48
30027.828
31485.873
28872.983
29936.477
27638.636
28391.144
28211.493
28619.128
30669.978
27675.861
28470.594
26930.642
27075.249
27460.35
27041.334
28896.229
26194.481
27102.801
25440.533
25736.16
26272.049
25847.163
27432.667
25151.468
25899.356
24399.967
24848.09
25137.515
24256.538
26013.863
23624.366
24607.408
22962.289
23686.356
23907.027
22931.093
24429.488
22359.886
23269.672
21812.608
22613.972
22542.391
21468.205
22897.048
21010.958
22002.996
20545.963
21358.21
21543.627
20134.513
21399.471
19807.682
20691.924
19323.803
20441.485
20282.747
18726.144
19853.35
18475.181
19287.897
18182.546
19049.347
19082.825
17439.953
18412.284
17238.71
18117.94
16991.808
18123.28
17886.322
16466.068
17032.063
16198.871
16746.634
16056.239
16608.154
16996.296
14923.14
15633.539
14702.88
15701.05
14642.121
15794.541
15678.161
14080.49
14389.633
13829.732
14179.102
13843.622
14363.901
14526.168
12721.336
13649.291
12491.088
13763.327
12750.22
13478.384
13192.8
11633.391
11248.771
11146.173
11360.364
11139.865
11683.904
12027.73
10541.85
11550.786
10865.11
11624.963
11023.898
11248.032
10957.896
9567.3534
8493.3688
8568.5965
8573.8255
8561.9475
8801.3315
9458.4146
8045.0556
8314.5379
8495.3952
8767.1748
8615.3013
8652.2844
8430.216
5921.8503
4787.9505
4999.2213
4441.8235
4736.6024
4693.12
5296.3049
4484.4119
3896.7209
3537.8115
3423.7532
3914.8649
3805.3409
4854.5466
1638.8213
-1632.8806
-1517.2193
-2012.0522
-2060.6886
-2167.1706
-784.31795
18231.969
7248.8808
3526.8135
1888.2687
-3384.9715
-9973.4314
-6597.6333
11037.231
6926.1099
4420.3532
1787.4298
-2518.8543
-5528.0753
-7108.5032
15366.512
3709.6906
2621.6941
-3024.2685
-1827.0114
-9946.2137
-6729.6363
9631.8714
3224.6922
3520.127
-320.35497
-3329.3794
-3045.5904
-6820.5978
7921.5006
3678.3693
4452.331
-4063.1224
1780.2674
-8118.0209
-4870.1967
7794.8574
3071.1927
1163.5808
1568.5199
-2684.7679
-1880.6631
-2793.6012
8433.6245
2285.7434
6349.2124
-2515.8057
575.0965
-2719.5568
-3241.4451
7509.2493
4511.9438
1010.9182
1174.6713
-534.96648
-766.09347
-2530.4561
8893.2864
712.98444
4089.0224
24.210576
417.8066
-766.98947
-2477.7151
4318.3398
2500.3661
2626.6149
-947.02532
-470.45434
-722.89133
-2062.5596
4860.3096
2444.9412
2263.8123
-30.044975
249.58066
-419.76159
-1286.2595
4283.6789
1862.9661
805.51987
-72.056632
-938.45215
334.12315
-937.17467
4423.7347
1487.5391
1453.1033
390.74124
500.14385
982.36324
-1525.8386
3039.9841
683.87642
2608.9139
382.47173
-678.86945
-133.77854
-1742.8287
3562.7305
2789.2717
-203.76771
1281.1803
-1746.6868
1084.3747
-911.25727
1954.0833
1408.5361
-139.70469
973.5724
-1983.2008
677.99449
-1382.2653
2942.7487
1899.7303
124.6073
2192.4938
-1750.8074
1293.5275
-679.0339
2009.6503
1120.9883
353.77384
1681.492
-2081.6494
652.27581
-1314.0871
2353.3617
2501.604
642.02044
2247.8081
-1684.086
1310.1726
-429.22958
2569.8181
1903.6809
304.80859
1743.2237
-1854.206
1167.8664
-1326.2256
2494.0103
2634.6682
561.57438
2370.0717
-1006.4011
1322.4945
-871.87657
3125.5359
2726.5497
618.62007
2279.9857
-1442.3673
1103.149
-1084.6649
2858.3088
3256.4157
1187.9942
2043.6908
-784.37741
1468.8688
-690.62233
3647.7314
3112.7729
1380.5238
1769.7831
-243.81682
1360.7931
-722.41221
3405.913
3361.9958
1814.1761
1871.7912
694.79367
1215.0071
-443.25394
3502.2018
4067.9407
2014.4601
2202.5877
1154.8725
1052.3637
19.187044
4018.461
3899.165
2300.3989
2131.2052
1338.8742
1348.5498
-47.367647
3812.0772
3578.8294
2403.2136
1935.0465
1448.7103
1363.4353
-41.396456
3920.3714
3643.8944
2580.5725
2357.2703
1956.758
1612.4334
497.36394
3613.2553
3584.8875
2642.8761
2237.8907
1849.9408
1734.6641
631.38844
3453.7282
3529.1894
2635.9266
2327.7592
2225.7648
1937.0786
938.49776
3213.0804
3399.7382
2549.4672
2482.935