/*--------------------------------*- C++ -*----------------------------------*\
  =========                 |
  \\      /  F ield         | OpenFOAM: The Open Source CFD Toolbox
   \\    /   O peration     | Website:  https://openfoam.org
    \\  /    A nd           | Version:  6
     \\/     M anipulation  |
\*---------------------------------------------------------------------------*/
FoamFile
{
    version     2.0;
    format      ascii;
    class       pointScalarField;
    location    "1.12";
    object      p;
}
// * * * * * * * * * * * * * * * * * * * * * * * * * * * * * * * * * * * * * //

dimensions      [1 -1 -2 0 0 0 0];

internalField   nonuniform List<scalar> 
625
(
-317413.59
712352.59
503.46975
-2631.1213
-820622.39
993310.3
-2778.7254
885.16002
-245492.59
85405.547
146904.18
1892.5234
248.13118
-862.78246
-131025.43
-151552.24
-160925.36
-164597.03
-161659.34
-159238.09
-157971.22
-150968
-151445.8
-137075.96
-132392.76
-121321.29
-111577.81
-99341.343
-87329.36
-74404.132
-60850.198
-48921.756
-35551.081
-24438.755
-14829.905
-5189.3773
-1320.6537
227222.52
187305.61
228222.05
200496.85
198202.42
197046.64
183269.1
174921.3
168585.56
155043.51
143061.04
130795.77
117280.94
102917.58
88552.157
74031.589
59893.685
46786.102
33718.521
23968.187
13414.239
6686.386
1231.9011
-499510.6
-53658.04
117892.94
187942.78
261879.18
204434.52
197462.93
215576.15
189565.3
177926.06
184545.76
175135.57
166373.95
157200.3
144679.81
133518.66
118204.92
104683.99
88690.117
73812.865
58436.694
43863.135
30488.309
18434.123
8469.6622
724.78418
-1287.9343
1134.2929
1276.7244
-1163.4734
-5322.228
-11100.886
-20917.142
-32392.25
-45089.442
-59361.824
-75003.617
-90497.835
-107035.69
-122261.65
-139197.29
-151107.13
-157378.69
-190807.82
-187730.58
-200747.22
-201402.86
-229355.89
-209165.23
-227069.59
-238632.33
-197936.4
-360417
-395099.8
-370693.78
699439.15
658336.76
628864.4
-2728.9847
-3750.1748
-4569.1729
1769.8107
1416.9055
1225.9806
-72338.163
-86277.265
-93796.671
-91390.086
-86936.161
-94497.606
-87379.252
-87526.381
-79577.072
-79541.297
-75168.299
-70277.019
-63462.904
-57019.497
-49428.803
-41591.465
-33759.15
-26148.419
-18295.004
-12820.421
-6840.3277
-3079.6866
-1094.25
50784.247
45890.178
49483.633
37793.339
41702.359
36053.339
35767.409
30715.521
27391.135
24619.918
22713.605
19614.246
16606.566
13454.212
10746.526
8238.3073
5857.118
3933.719
2716.462
1271.1517
834.2518
-187.97634
-648.51508
158888.25
145317.03
140443.28
131897.96
138422.2
125777.05
123471.4
114782.64
109069.95
99443.516
91820.207
80657.753
71833.831
61734.635
52419.818
43001.409
34180.513
25907.898
19042.901
11600.819
7696.1945
3875.7382
747.50072
-210987.29
-230870.8
-253685.59
58392.473
19914.767
18360.689
114606.77
118331.51
132170.5
300093.42
278447.91
278785.11
271830.39
243142.89
229089.09
222468
203278.58
211364.15
208711.1
196432.31
193043.08
206875.61
194002.88
201174.07
196200.18
183461.54
184476.12
193420.61
181890.45
185456.47
185131.42
167855.53
176562.07
173349.06
162164.2
168531.6
162372.21
151920.78
160681.65
150633.83
142639.29
149002.55
137623.29
129552.58
137026.19
122702.87
117394.75
123934.15
108005.31
103265.33
109770.79
92695.3
89547.956
95295.544
77510.294
75062.671
80222.828
62514.496
60833.458
65362.462
48238.885
47326.698
50906.262
34939.609
34037.111
36955.399
23369.852
23053.565
25005.265
12403.729
12391.523
13698.343
5182.0143
5969.7095
6470.2001
693.94348
-396.86164
645.77911
2125.2488
1908.6766
2066.9318
935.13666
1127.9506
188.82113
-2246.5562
-2711.669
-3518.1212
-206143.24
-190439.96
-220177.68
-206871.47
-186466.88
-216793.47
-209098.28
-192482.16
-225793.79
-194526.08
-181245.07
-212252.74
-190749.67
-184506.18
-200135.39
-191689.29
-168611.48
-198318.62
-182633.56
-169823.83
-192054.27
-179699.46
-159818.86
-180766.78
-163222.32
-156188.09
-168141.1
-161050.46
-143604.4
-161455.3
-149527.98
-133647.32
-146350.86
-138740.4
-120695.37
-134738.53
-123925.3
-109142.82
-119893.33
-110185.98
-96181.388
-104898.96
-95001.302
-82779.276
-89276.519
-79336.02
-69524.279
-74111.461
-64272.248
-56349.789
-59037.19
-49251.896
-43641.712
-44901.65
-34791.676
-31814.917
-31630.235
-22700.256
-20622.627
-20674.701
-12133.719
-10643.847
-10668.326
-4096.3034
-3977.5886
-4033.9143
-610.82729
-349.16906
-703.93611
-145532.64
-143643.94
-116325.06
-127886.53
-123804.96
-117764.73
-113308.92
-108657.19
-94560.151
-90968.034
-86793.292
-73756.147
-65502.894
-56501.507
-47790.687
-39174.359
-31210.002
-23902.206
-17481.539
-11371.874
-7070.3673
-3474.1304
729.52204
-5326.8552
-32621.672
-13478.475
-34774.113
-34077.929
-25617.464
-30771.302
-25385.134
-22031.683
-21026.232
-18049.56
-15337.772
-12461.423
-10508.976
-7487.059
-6006.7791
-3843.1418
-2907.8716
-1363.1934
-932.61764
-528.43643
242.79431
524.76143
60310.437
63625.864
100625.57
89968.633
102243.73
101858.24
100121.09
97197.318
93805.914
91251.546
87442.921
81941.341
76648.708
70085.816
63106.225
55190.688
47138.006
38670.527
30589.995
22340.791
15358.858
8231.3085
4827.2373
-123902.65
-157059.71
-149033.04
-112073.17
-142515.19
-145435.92
-94140.146
-111069.44
-143273.77
-83044.272
-126009.05
-116406.58
-101852.35
-102190.16
-121352.83
-79538.839
-110335.12
-120845.76
-84246.276
-103827.04
-107028.3
-78322.91
-97435.467
-103461.2
-81632.551
-89480.992
-102223.64
-70205.503
-87081.382
-88682.577
-66266.488
-78281.562
-81696.88
-58645.574
-72051.965
-73744.556
-53709.779
-63788.304
-64419.522
-47175.066
-55084.291
-55621.478
-40241.044
-46614.717
-46897.654
-33811.817
-38241.551
-37969.03
-27149.675
-29819.49
-29745.937
-20974.004
-22141.352
-21894.466
-14723.996
-14633.55
-15131.684
-10707.784
-9527.9858
-9673.7587
-4727.4156
-4638.5946
-3946.289
-3083.7309
-2058.7871
-2618.1974
886.80017
1429.8165
1723.7824
50064.19
38442.824
7483.218
28339.155
-5088.3986
-2554.3686
7338.2085
290.17835
-4284.4596
9503.9014
-3418.1441
3576.4737
7259.3352
-5758.4126
-12099.743
6305.8316
-10190.628
-28.971439
3413.805
-6923.1884
-1069.6733
3518.5332
-9981.4382
-3022.0332
3129.9183
-9406.4076
2453.1393
1065.7616
-7807.4711
10.488049
564.80142
-7857.0093
1635.5114
-604.94822
-8376.3494
2007.4967
-1930.9327
-7557.1739
3425.3698
-1616.8912
-6793.7684
2911.7777
-2238.1671
-6615.4233
3465.7782
-2144.1365
-5855.1569
3330.6541
-2300.6002
-5058.7196
2936.6179
-1710.7138
-4595.9731
2781.3711
-2125.3977
-3190.5861
1521.346
-1665.6075
-2903.0415
2169.4993
-1296.0208
37.699068
602.13041
-118.96927
-1118.3461
501.15095
-265.04456
-480.99317
-384.24365
146520.96
140756.45
149919.8
113088.02
93350.332
111866.84
110482.3
140149.61
114849.01
130906.66
110630.83
103582.02
110916.51
121372.05
108047.71
111015.08
117749.99
108015.56
106977.46
115350.68
100497.55
101632.4
109938.76
106955.5
93977.368
109797.73
97262.932
91919.646
100311.33
94538.212
82971.343
94660.814
89563.473
76657.267
87656.527
84605.761
68966.22
80496.116
77529.587
61045.019
71943.773
70525.54
52866
63283.797
62668.423
44726.344
54364.12
54585.751
36791.688
45362.603
46003.634
29376.546
36263.815
37611.537
22070.947
28063.237
29361.692
15919.7
19642.699
20945.135
11388.932
13142.013
14334.381
4773.0841
5625.12
5293.0575
3145.2381
4108.1227
5474.4514
)
;

boundaryField
{
    free
    {
        type            calculated;
    }
    fixed
    {
        type            calculated;
    }
    freeTop
    {
        type            calculated;
    }
}


// ************************************************************************* //
