/*--------------------------------*- C++ -*----------------------------------*\
  =========                 |
  \\      /  F ield         | OpenFOAM: The Open Source CFD Toolbox
   \\    /   O peration     | Website:  https://openfoam.org
    \\  /    A nd           | Version:  6
     \\/     M anipulation  |
\*---------------------------------------------------------------------------*/
FoamFile
{
    version     2.0;
    format      ascii;
    class       pointVectorField;
    location    "1.02";
    object      lm;
}
// * * * * * * * * * * * * * * * * * * * * * * * * * * * * * * * * * * * * * //

dimensions      [1 -2 -1 0 0 0 0];

internalField   nonuniform List<vector> 
3969
(
(-4.0340813e-15 -4.7705825e-17 1.3312818e-16)
(9.2297575e-16 -2.6090405e-16 -6.0252577e-16)
(-7718.1129 -2508.139 -103.81607)
(-8152.4277 -95.969192 -92.702463)
(-7.1783695e-15 2.6020842e-15 -1.0366567e-15)
(-4.622429e-15 2.1493156e-15 -1.5432914e-15)
(-8143.0163 -78.548058 -93.792669)
(-7713.5199 -2490.2434 -103.03035)
(-6.09887e-15 1.0869625e-16 -2.0095736e-16)
(-3.193382e-15 6.5333688e-16 6.3735029e-17)
(-2.9260211e-15 2.9260844e-16 -4.8432863e-17)
(-1.7497804e-15 -1.5755452e-16 -2.074758e-16)
(-4.3254872e-15 8.6218995e-16 7.3228779e-16)
(-2.4697388e-15 -4.9707839e-16 4.8086129e-16)
(5.2680668e-16 -4.7467027e-16 -5.3018058e-16)
(-7772.3644 -2205.8926 -102.19571)
(-7826.1658 -1904.1309 -100.55079)
(-7880.3186 -1602.3982 -99.183369)
(-7934.3373 -1301.1846 -97.760625)
(-7988.5312 -1000.2105 -96.62339)
(-8043.2254 -699.2103 -95.479829)
(-8097.9665 -397.87428 -94.177507)
(-13.7391 -33.972581 -36.690261)
(-20.579762 -54.168422 -47.250838)
(-35.367386 -75.271036 -53.885202)
(-54.873528 -94.618548 -59.172313)
(-77.797212 -113.35225 -62.736956)
(-105.14858 -130.659 -66.230297)
(-134.78445 -147.11923 -69.417986)
(-169.03121 -163.02895 -71.50859)
(-206.07542 -178.79376 -72.993657)
(-247.81155 -195.12899 -72.39975)
(-293.10104 -213.12198 -71.338999)
(-343.07365 -232.75811 -68.503917)
(-397.52906 -255.47066 -64.912304)
(-456.38706 -281.60494 -61.299682)
(-520.80189 -311.41486 -57.773699)
(-589.99641 -345.34538 -55.033078)
(-665.44551 -383.77426 -53.515263)
(-747.59891 -426.71394 -52.844075)
(-837.87292 -474.5074 -53.019413)
(-937.20288 -527.02516 -53.458376)
(-1047.0008 -584.53814 -53.848718)
(-1168.1164 -646.93249 -53.669947)
(-1301.524 -714.15129 -52.840567)
(-1447.6672 -785.84623 -51.333256)
(-1606.5665 -861.70493 -49.537966)
(-1778.1704 -941.54444 -47.945266)
(-1962.1356 -1024.213 -47.164044)
(-2158.1415 -1109.2053 -47.622707)
(-2365.7573 -1195.5744 -49.81014)
(-2584.3976 -1282.4453 -53.64786)
(-2814.0415 -1369.0748 -58.947247)
(-3054.3486 -1454.6487 -65.194303)
(-3305.078 -1538.5521 -71.7629)
(-3565.8981 -1620.3873 -77.877605)
(-3836.0223 -1699.6821 -83.186339)
(-4115.0074 -1776.1889 -87.177104)
(-4401.1822 -1849.941 -89.775176)
(-4693.722 -1920.4417 -91.32517)
(-4990.6446 -1988.418 -91.996931)
(-5291.1887 -2053.192 -92.610107)
(-5593.6389 -2115.8357 -92.922411)
(-5897.1571 -2175.8221 -93.949529)
(-6201.584 -2233.6184 -94.968367)
(-6505.0979 -2290.6246 -96.615921)
(-6809.6334 -2345.3315 -98.14153)
(-7112.8534 -2399.9666 -99.878116)
(-7415.7028 -2453.8948 -101.86469)
(-1.2371392 23.923212 33.672785)
(-22.706614 41.265719 25.092765)
(-39.197292 61.217246 28.188618)
(-62.78828 79.124989 21.915699)
(-93.36328 98.618106 18.6746)
(-126.47517 118.02889 13.596068)
(-164.64931 137.38353 10.955007)
(-205.23499 157.45946 9.2093229)
(-249.19377 177.44173 10.214494)
(-296.40832 198.46427 13.211828)
(-346.19837 219.03782 18.712945)
(-400.20245 240.78384 26.609195)
(-457.77089 262.09445 35.847765)
(-520.32585 283.94745 46.204687)
(-588.30488 306.1005 56.960816)
(-662.7135 328.60495 67.681246)
(-744.63104 351.79168 77.832552)
(-834.68255 375.43793 87.296882)
(-934.3963 399.84614 95.797561)
(-1044.2149 424.30731 103.57436)
(-1165.3098 449.02364 110.36581)
(-1298.5182 472.37622 116.54772)
(-1444.4691 494.95255 121.26192)
(-1603.7242 514.79329 125.10171)
(-1776.3319 531.71481 127.2161)
(-1962.8736 544.99565 127.30764)
(-2162.3624 554.13396 124.57039)
(-2376.4319 559.52991 119.10206)
(-2603.6322 560.24097 110.95012)
(-2843.3412 556.90323 99.776706)
(-3095.2265 549.56314 86.26893)
(-3358.0073 538.32587 70.8045)
(-3630.9779 523.24689 54.130448)
(-3912.6354 504.24419 36.960294)
(-4201.9335 481.2487 19.990601)
(-4497.4221 454.27678 3.6380492)
(-4797.63 423.01532 -11.489993)
(-5101.3106 387.8241 -25.413361)
(-5407.3183 348.94611 -37.864814)
(-5714.5569 306.51559 -48.920745)
(-6022.1762 261.41838 -58.776474)
(-6329.3944 213.9223 -67.045176)
(-6635.8793 164.66826 -74.20436)
(-6941.1941 114.04012 -79.875767)
(-7245.4245 62.576675 -84.464773)
(-7548.4299 10.199882 -87.877275)
(-7850.569 -42.571475 -90.558131)
(-3.9179893e-16 -2.8384427e-17 -1.6191597e-16)
(6.8869455e-16 3.3255846e-16 -2.9305012e-16)
(-3.0379221e-16 -4.0639439e-16 3.7376104e-16)
(8.6048107e-16 -8.7588792e-17 1.0515471e-16)
(5.0258192e-16 -7.4376592e-16 6.4035694e-16)
(-2.9679417e-15 -3.4669267e-16 7.3060073e-16)
(8.9003905e-16 -2.834795e-16 1.0120244e-16)
(-15.879282 19.263575 -29.366529)
(-31.54152 60.549395 -38.478591)
(-44.863415 62.129231 -39.921411)
(-71.724995 92.070691 -45.038317)
(-97.92169 105.5801 -49.073984)
(-130.08988 122.75628 -51.722823)
(-165.38132 137.81787 -56.101504)
(-204.04795 150.56119 -57.937305)
(-247.22689 165.29589 -60.454364)
(-293.5111 176.70924 -59.429318)
(-345.31587 192.49993 -59.199251)
(-400.11547 205.80822 -55.877425)
(-460.34356 222.69387 -52.599477)
(-525.97198 240.67736 -48.269723)
(-595.73118 260.00285 -44.436297)
(-672.19667 282.60879 -41.363709)
(-754.47697 305.71945 -39.031525)
(-844.66441 331.46667 -37.684174)
(-943.52461 357.89063 -36.860656)
(-1052.5455 385.44373 -36.163363)
(-1173.1172 413.23358 -35.237272)
(-1306.2125 440.94055 -33.67599)
(-1452.9411 467.8913 -31.417184)
(-1613.3208 493.56828 -28.735492)
(-1788.1517 517.78579 -25.784302)
(-1977.6206 539.10799 -22.784915)
(-2179.494 558.857 -21.958567)
(-2393.7687 574.36837 -22.824409)
(-2620.3285 586.00484 -25.871112)
(-2858.1551 592.64718 -30.788149)
(-3106.841 594.04778 -37.280664)
(-3365.7959 589.67868 -44.901628)
(-3634.3304 579.2788 -52.814694)
(-3911.9201 562.61556 -60.318292)
(-4197.3747 539.75171 -66.79231)
(-4490.3421 511.17266 -72.099139)
(-4788.5599 476.84275 -75.615704)
(-5090.9306 438.50507 -78.89095)
(-5396.4641 395.0515 -80.529045)
(-5703.4571 348.56901 -82.248717)
(-6010.799 299.20355 -83.664835)
(-6318.002 247.72286 -85.28695)
(-6624.2554 194.71136 -86.97172)
(-6929.6841 140.54137 -88.6387)
(-7234.155 85.861953 -90.120233)
(-7537.7642 30.803139 -91.388356)
(-7840.7953 -23.88195 -92.584068)
(-8088.9141 -380.11755 -94.538157)
(-8034.4426 -681.91474 -95.528829)
(-7981.1733 -982.41243 -96.573049)
(-7926.6885 -1283.8712 -98.036441)
(-7874.7165 -1584.3589 -99.337042)
(-7820.7017 -1886.6846 -100.55143)
(-7767.5881 -2188.3077 -101.76242)
(-7411.8001 -2436.0468 -100.63769)
(-7109.6582 -2380.2351 -97.767697)
(-6807.5097 -2323.2044 -94.421613)
(-6504.4741 -2264.8092 -89.489877)
(-6201.2067 -2204.5826 -82.98463)
(-5898.0796 -2142.5695 -74.943422)
(-5595.4696 -2078.3864 -65.247975)
(-5293.994 -2011.7241 -53.894609)
(-4994.5751 -1942.4396 -40.683143)
(-4697.7804 -1870.6578 -25.988379)
(-4405.2693 -1795.7583 -9.3560292)
(-4118.6472 -1718.9678 8.1888993)
(-3836.7514 -1639.9176 27.396693)
(-3563.1006 -1560.2012 46.862897)
(-3297.8243 -1479.8823 66.524247)
(-3042.2949 -1399.7564 85.064747)
(-2797.3185 -1320.3542 101.90844)
(-2563.9325 -1242.0837 116.24309)
(-2342.684 -1165.1743 127.36629)
(-2134.3676 -1089.8319 135.10195)
(-1939.1093 -1016.1691 139.1587)
(-1757.2938 -944.30439 139.84963)
(-1589.0092 -874.45166 137.37294)
(-1433.6914 -806.92131 132.53762)
(-1291.3361 -742.22397 125.6494)
(-1161.3125 -680.67922 117.21646)
(-1042.9351 -622.94192 107.75534)
(-935.55232 -569.14212 97.293179)
(-838.28289 -519.70181 86.250038)
(-750.34061 -474.44014 74.495234)
(-670.75138 -433.24044 62.250609)
(-598.69042 -395.58036 49.851413)
(-532.89972 -361.28255 37.503924)
(-473.24967 -329.31509 25.354866)
(-419.19088 -299.30881 14.408797)
(-368.30417 -270.93506 5.2255935)
(-321.25983 -244.07207 -1.2724689)
(-277.21486 -217.6815 -6.0574842)
(-235.16526 -193.56682 -6.5639033)
(-196.80554 -169.37008 -5.9404207)
(-159.74693 -147.05098 -2.2680663)
(-125.31749 -124.05643 3.6996454)
(-94.20789 -103.45875 10.745146)
(-65.415615 -82.620941 17.954306)
(-42.366327 -63.210364 23.800635)
(-23.387919 -41.461626 27.787692)
(-19.701699 -28.102756 21.161338)
(-6.7652979e-16 3.5118239e-16 1.2802193e-16)
(-2.3129286e-15 2.7505878e-16 1.3239036e-16)
(-3.6393531e-15 -1.4253491e-16 -1.5464221e-16)
(-4.9195801e-15 -9.3657526e-16 4.6870719e-16)
(-4.0844143e-15 -8.2232132e-16 1.723462e-16)
(-2.0271537e-15 -1.8079967e-16 2.6438577e-16)
(-2.0670014e-15 8.6459225e-16 1.4474963e-15)
(-4.5036838e-15 1.2268482e-15 -2.065022e-16)
(-1.9919023e-15 1.1694967e-15 -1.6367101e-16)
(-2.9438013e-15 1.1112212e-15 -1.969436e-16)
(-2.4504202e-15 9.597151e-16 -1.1789697e-16)
(-5.2893259e-15 2.5926013e-15 -8.0820905e-16)
(-1.8775489e-15 1.1365606e-15 -5.8525306e-16)
(-7.4714327e-17 -2.094137e-16 9.7564992e-17)
(-8151.8302 -93.516197 -92.949039)
(-8151.0341 -90.687333 -93.005858)
(-8150.162 -88.301522 -93.056301)
(-8148.9268 -86.146761 -93.036938)
(-8147.5349 -84.292852 -93.30822)
(-8145.9704 -82.265109 -93.488167)
(-8144.552 -80.499219 -93.855424)
(-7717.5008 -2505.7026 -103.79783)
(-7716.9214 -2503.3154 -103.4869)
(-7716.3748 -2501.2992 -103.30008)
(-7715.9166 -2499.4424 -103.07877)
(-7715.4665 -2497.6111 -102.89765)
(-7714.8432 -2495.492 -103.01314)
(-7714.1904 -2493.0242 -103.0235)
(-3.4372027 -25.686336 -33.718221)
(-13.229312 -38.902814 -35.517695)
(-27.57751 -56.031522 -43.882311)
(-47.60974 -71.026767 -47.734357)
(-71.424445 -85.316198 -51.701396)
(-99.701681 -99.538095 -55.168207)
(-130.33537 -111.72121 -57.965462)
(-165.2512 -124.74099 -60.035545)
(-203.19091 -136.30152 -60.644871)
(-245.09805 -149.14223 -60.408656)
(-290.58941 -162.66667 -58.605328)
(-340.43403 -177.83376 -55.47936)
(-394.42371 -195.98153 -51.845469)
(-453.00741 -216.43099 -47.690273)
(-516.64319 -240.34662 -43.823686)
(-585.57924 -267.72596 -40.462108)
(-660.70575 -298.73955 -37.946988)
(-742.89962 -333.258 -36.211609)
(-833.35031 -371.58939 -35.158222)
(-933.24813 -413.64929 -34.447918)
(-1043.7567 -459.70398 -33.785677)
(-1165.9251 -509.74612 -32.84424)
(-1300.6693 -564.08522 -31.56403)
(-1448.2415 -622.52519 -29.987538)
(-1609.1427 -685.34066 -28.498685)
(-1783.1742 -751.78707 -27.182538)
(-1969.7579 -821.74153 -27.046774)
(-2168.7674 -894.53613 -28.221)
(-2379.7364 -969.17255 -30.952702)
(-2602.0499 -1044.9402 -35.353323)
(-2835.6189 -1121.0434 -41.18454)
(-3080.0181 -1196.6589 -47.99599)
(-3334.8681 -1271.3766 -55.198839)
(-3599.6964 -1344.6899 -62.218464)
(-3873.7843 -1416.3986 -68.592036)
(-4156.0456 -1486.4612 -73.889648)
(-4445.4387 -1554.7796 -78.139119)
(-4740.5277 -1621.2917 -81.39218)
(-5039.8637 -1686.3056 -83.810304)
(-5342.0317 -1749.419 -86.077328)
(-5645.8836 -1811.1398 -87.798115)
(-5950.4146 -1870.7371 -90.093344)
(-6255.3505 -1929.4071 -91.898288)
(-6559.383 -1986.0819 -94.334997)
(-6864.0761 -2041.9442 -96.274074)
(-7167.2393 -2097.0737 -98.317721)
(-7470.2123 -2151.6093 -100.17552)
(4.7257435 -17.916822 -24.359659)
(-6.2787378 -24.887128 -27.261763)
(-22.285548 -39.961204 -33.706049)
(-42.933439 -49.219586 -37.335192)
(-68.346753 -59.660813 -41.265575)
(-96.51068 -68.621993 -44.005952)
(-128.64514 -76.929044 -47.01177)
(-164.20753 -84.601837 -47.824663)
(-202.71279 -91.527952 -49.12243)
(-244.8502 -99.300594 -47.71172)
(-291.01001 -107.20744 -45.63436)
(-340.73198 -117.15938 -42.116376)
(-394.89461 -128.76562 -37.914695)
(-453.58112 -142.8735 -33.262801)
(-517.35767 -159.85497 -28.768266)
(-586.39204 -179.79032 -24.495518)
(-661.87013 -202.7134 -21.053143)
(-744.49881 -228.65427 -18.287135)
(-835.66262 -257.74841 -16.175093)
(-936.46199 -289.98029 -14.507923)
(-1048.1045 -325.59142 -12.98527)
(-1171.6679 -364.89977 -11.441171)
(-1307.5692 -407.94874 -9.8534561)
(-1456.8165 -455.31387 -8.336117)
(-1619.3 -506.51128 -6.9433442)
(-1794.814 -561.95354 -6.5454759)
(-1983.4166 -620.73906 -7.1995995)
(-2184.725 -682.69266 -9.1012774)
(-2398.14 -746.98852 -12.883767)
(-2623.4273 -812.84559 -18.207774)
(-2860.1677 -879.55208 -24.967751)
(-3107.8968 -946.43862 -32.738273)
(-3366.1388 -1012.9869 -40.945595)
(-3634.3184 -1078.8505 -49.116689)
(-3911.4424 -1143.9132 -56.665416)
(-4196.6465 -1208.0149 -63.420114)
(-4488.5784 -1271.218 -69.032867)
(-4785.7407 -1333.4242 -73.831976)
(-5086.9154 -1394.861 -77.625135)
(-5390.5367 -1455.06 -81.051676)
(-5695.8788 -1514.6151 -83.883279)
(-6001.3293 -1572.563 -86.879545)
(-6307.409 -1629.8862 -89.3269)
(-6612.175 -1685.7913 -92.075027)
(-6917.5128 -1741.176 -94.263144)
(-7220.9134 -1795.9007 -96.449179)
(-7524.1908 -1850.1854 -98.673945)
(9.1611207 -10.70955 -16.618497)
(-2.8022336 -15.942741 -18.545139)
(-17.496836 -23.400023 -23.718092)
(-39.812642 -29.125408 -27.252678)
(-64.954446 -33.988985 -30.681145)
(-95.62853 -39.109699 -33.887111)
(-128.5038 -41.582835 -35.621497)
(-165.13542 -44.900863 -37.658885)
(-204.54812 -46.667386 -37.598732)
(-248.1972 -49.110168 -36.116796)
(-294.23218 -52.122445 -33.72504)
(-344.67561 -55.99878 -29.651907)
(-398.90266 -61.851104 -24.854005)
(-457.67715 -69.50642 -19.514306)
(-521.30016 -79.736984 -14.311243)
(-590.76004 -92.199206 -9.1692647)
(-666.60266 -107.16916 -4.8727329)
(-750.00589 -124.66784 -0.95322816)
(-842.09591 -144.69644 2.0706386)
(-943.76679 -167.39721 4.7411899)
(-1056.3549 -193.13928 6.9905919)
(-1180.6008 -221.96206 9.0913251)
(-1317.9213 -254.62655 10.959056)
(-1468.2601 -290.67739 12.764676)
(-1631.8801 -330.96706 13.666929)
(-1809.2834 -375.09346 14.023612)
(-2000.0766 -422.9555 13.210393)
(-2203.7587 -474.20028 10.632607)
(-2419.9214 -528.11692 6.3634105)
(-2648.2097 -583.98004 0.39057041)
(-2888.0782 -641.3194 -7.1280452)
(-3139.1087 -699.34699 -15.731798)
(-3400.6373 -757.73669 -24.935176)
(-3671.9263 -816.1887 -34.163153)
(-3952.0448 -874.45842 -42.99822)
(-4239.8536 -932.61203 -51.027959)
(-4534.0523 -990.52973 -58.15186)
(-4833.3045 -1048.3414 -64.343333)
(-5136.1925 -1105.8639 -69.560152)
(-5441.2547 -1163.0291 -74.461064)
(-5747.4807 -1219.8029 -78.442944)
(-6054.038 -1275.6446 -82.712882)
(-6360.5101 -1331.5399 -85.829098)
(-6665.9149 -1385.9449 -89.647319)
(-6971.2051 -1440.7781 -92.060195)
(-7274.8856 -1494.5452 -95.044087)
(-7578.4171 -1548.5786 -97.069863)
(10.375842 -4.2044651 -7.2240049)
(-2.0449051 -5.2419336 -8.3777695)
(-17.485106 -8.0437504 -12.702491)
(-39.697797 -8.5359681 -16.458333)
(-67.101892 -8.5255491 -20.172112)
(-97.414146 -8.2181337 -22.919267)
(-131.58739 -5.8177969 -26.145939)
(-168.55875 -4.060242 -26.788256)
(-209.273 -0.58094638 -26.974188)
(-252.53408 1.7936839 -25.571207)
(-299.6288 4.8760699 -22.416015)
(-350.54177 6.2414578 -17.773376)
(-405.215 6.6098018 -12.238885)
(-464.66869 5.5448285 -6.2141865)
(-528.93334 2.2146582 0.2034291)
(-599.23537 -2.6748382 6.0842837)
(-675.84669 -9.8174873 11.743401)
(-760.39049 -18.747101 16.52573)
(-853.42302 -29.736198 20.683828)
(-956.57371 -42.968063 24.358803)
(-1070.8484 -58.772963 27.664536)
(-1197.511 -77.516491 30.533105)
(-1336.3372 -99.03793 33.189521)
(-1488.4489 -124.8026 35.177693)
(-1654.2798 -154.36894 36.722539)
(-1833.489 -187.96841 36.983843)
(-2025.898 -225.26816 35.394563)
(-2231.3813 -265.98989 32.117313)
(-2449.6279 -309.67077 26.965971)
(-2680.135 -355.78982 19.824767)
(-2922.4401 -403.79724 11.150007)
(-3175.9829 -453.05595 1.162564)
(-3439.9399 -503.40854 -9.4018116)
(-3713.6378 -554.40182 -20.193969)
(-3995.8786 -606.02716 -30.575609)
(-4285.5978 -658.16741 -40.29622)
(-4581.453 -710.85106 -49.049878)
(-4881.8944 -763.98673 -56.843631)
(-5185.7257 -817.41199 -63.787408)
(-5491.6509 -871.1636 -69.75613)
(-5798.9825 -925.27637 -75.006583)
(-6106.0279 -979.14624 -79.798527)
(-6413.2623 -1033.2324 -83.784159)
(-6719.018 -1086.6332 -87.681205)
(-7024.8627 -1140.6081 -90.484478)
(-7328.981 -1193.8745 -93.395905)
(-7632.5784 -1247.7259 -95.676864)
(10.131044 1.0183323 1.7761162)
(-3.8929198 2.6508068 0.74385476)
(-17.773508 6.022886 -3.2351937)
(-42.344419 10.651175 -6.7486282)
(-68.989999 16.114706 -10.080217)
(-101.35171 21.818962 -13.737558)
(-135.81135 29.356633 -15.828688)
(-174.92249 36.348569 -16.739759)
(-215.6205 45.056129 -16.709127)
(-260.61431 53.077657 -14.446088)
(-308.28858 61.545534 -10.49597)
(-359.62954 68.360162 -5.4500392)
(-414.95741 75.407047 0.73619988)
(-474.6935 80.119 7.7520635)
(-539.56945 84.160512 14.742891)
(-610.28526 86.405101 21.680114)
(-687.94026 87.224332 28.208888)
(-773.25677 86.573144 34.005189)
(-867.5992 84.202412 39.200743)
(-971.8572 80.110556 43.773963)
(-1087.2858 73.537131 47.776002)
(-1213.9926 64.97107 51.046181)
(-1354.1247 52.872042 53.851788)
(-1507.4515 37.961566 56.103751)
(-1674.4541 19.080095 57.100705)
(-1854.996 -3.5753498 56.705188)
(-2049.3372 -30.121257 54.79454)
(-2256.9699 -60.403209 51.134489)
(-2477.5276 -93.993614 45.28401)
(-2710.5374 -130.41535 37.504513)
(-2955.5567 -169.15091 27.928392)
(-3211.8311 -209.7097 17.024336)
(-3478.5906 -251.93484 5.3797037)
(-3754.9376 -295.40746 -6.5725431)
(-4039.6407 -340.20027 -18.215257)
(-4331.6411 -386.24102 -29.203448)
(-4629.3912 -433.45952 -39.2756)
(-4931.6633 -481.88083 -48.395415)
(-5236.9774 -531.30353 -56.198085)
(-5544.4839 -581.981 -63.432454)
(-5852.3241 -632.95483 -69.733049)
(-6160.2415 -684.46234 -75.589725)
(-6467.5794 -736.48954 -80.294365)
(-6773.874 -788.33002 -85.004308)
(-7079.5361 -841.09703 -88.190991)
(-7383.547 -893.3959 -91.799874)
(-7686.8568 -946.89003 -94.213124)
(7.9225483 8.071794 12.199174)
(-7.1813862 14.634942 8.8502599)
(-23.01227 22.995524 7.4338209)
(-47.623053 33.152365 3.4070124)
(-75.605393 42.567544 -0.30640821)
(-108.02848 53.753943 -3.9655211)
(-144.2079 65.199433 -6.3338032)
(-183.28251 77.135563 -7.6725377)
(-225.70834 90.289733 -7.2103715)
(-271.11636 102.847 -4.6625909)
(-319.77801 116.15801 -0.60495251)
(-371.71897 128.68602 5.3697647)
(-427.91038 140.84956 12.702451)
(-488.54871 152.01812 20.609218)
(-554.32976 162.39247 29.018389)
(-626.29868 171.76392 37.127777)
(-705.12332 180.29054 44.936963)
(-791.98577 187.80823 51.877876)
(-887.85148 194.45171 58.252699)
(-993.86843 199.6779 63.787259)
(-1110.8353 203.78892 68.878273)
(-1240.1207 204.19797 72.800211)
(-1381.7125 203.82461 76.755271)
(-1537.4241 200.61554 79.175876)
(-1706.0716 193.0552 80.713333)
(-1888.7077 181.96356 80.741696)
(-2085.0178 166.52875 78.686901)
(-2294.5238 147.40241 74.359457)
(-2517.05 124.52439 67.816315)
(-2752.3303 98.555531 58.873853)
(-2999.5153 69.723644 48.010047)
(-3257.937 38.359021 35.549926)
(-3526.7495 4.6706192 22.235877)
(-3804.8925 -31.05309 8.4703858)
(-4091.1647 -69.056873 -4.913236)
(-4384.4458 -108.96541 -17.790527)
(-4683.1401 -150.97566 -29.642646)
(-4986.0039 -194.92311 -40.382468)
(-5291.9433 -240.71462 -50.194325)
(-5599.0781 -288.12888 -58.76585)
(-5907.2245 -337.05607 -66.290255)
(-6215.0984 -386.86297 -72.814304)
(-6522.5644 -437.42623 -78.471233)
(-6828.7937 -488.5803 -83.266418)
(-7134.2039 -540.47017 -87.046666)
(-7438.19 -592.70479 -90.483406)
(-7741.2214 -645.90121 -93.042466)
(4.4232356 13.851656 19.231048)
(-12.519144 22.902875 17.866493)
(-28.896675 38.761338 17.075751)
(-54.512198 53.004885 12.636056)
(-82.021061 67.846071 9.1611949)
(-116.44676 83.940377 4.7573089)
(-152.49578 100.11295 2.6424954)
(-193.18064 117.12081 0.93374501)
(-236.16313 134.916 1.9788183)
(-282.31085 152.16336 4.5997967)
(-331.97468 170.84625 9.2137259)
(-384.41152 187.97347 16.518905)
(-441.65573 205.92599 24.207726)
(-502.71637 222.68316 33.411282)
(-569.671 239.43993 42.604998)
(-642.41012 255.54186 51.883869)
(-722.55909 271.48125 60.567621)
(-810.67645 287.06191 68.677111)
(-908.1209 302.32964 75.975457)
(-1015.6579 316.99611 82.602995)
(-1134.5442 330.45779 88.454419)
(-1264.9553 342.75402 93.504061)
(-1408.9979 352.19973 97.766476)
(-1565.7926 359.67126 100.74535)
(-1736.1944 363.09964 102.69132)
(-1920.4571 363.01628 102.4727)
(-2118.2034 358.89784 99.946253)
(-2329.6547 350.36714 95.230552)
(-2554.4085 338.12248 87.842904)
(-2791.9063 322.34889 77.911036)
(-3041.3866 303.27067 65.849671)
(-3302.1775 281.1765 52.123463)
(-3573.2459 256.18891 37.379512)
(-3853.5025 228.4778 22.193848)
(-4141.7242 197.82158 7.2712369)
(-4436.5696 164.48316 -7.1062501)
(-4736.5853 128.2311 -20.412397)
(-5040.659 89.155189 -32.627528)
(-5346.9554 47.485878 -43.444861)
(-5654.811 3.5065363 -53.249292)
(-5963.1336 -42.575345 -61.829585)
(-6271.2206 -90.209197 -69.389651)
(-6578.4971 -139.21696 -75.699563)
(-6884.5839 -189.20452 -81.097523)
(-7189.5988 -240.19875 -85.297592)
(-7493.1761 -291.88121 -88.887168)
(-7795.8174 -344.53175 -91.651675)
(-1.8726199e-15 -1.0357256e-16 4.2324109e-16)
(-4.3693994e-15 5.8098526e-16 1.0825799e-16)
(-1.86708e-15 5.0203615e-16 5.7484399e-16)
(-1.1298519e-15 4.4303811e-16 -1.5186772e-16)
(-1.5283164e-15 1.7502349e-16 4.7144117e-17)
(-3.9278597e-15 -6.147074e-18 -1.0233878e-17)
(-3.270765e-15 8.5080195e-17 2.8271762e-17)
(-1.444637e-15 3.1767481e-17 -1.0328492e-16)
(-1.9600489e-15 -2.0641393e-16 2.5996682e-17)
(-1.0758982e-15 -5.0887233e-16 -1.6282415e-16)
(-1.1902312e-15 -6.3217422e-16 -1.0496995e-16)
(-2.2455722e-15 -1.0363924e-16 3.7607835e-16)
(-1.7254929e-15 1.2766475e-16 7.9907906e-17)
(-6.542485e-16 2.4659353e-16 4.7610311e-16)
(-1.0183069e-15 2.0413811e-16 3.0876606e-16)
(-1.2825224e-16 3.2154578e-16 2.6910031e-16)
(-2.4669526e-15 5.8726168e-16 -3.2350189e-17)
(-1.9694108e-15 5.8752001e-16 2.9593509e-16)
(-1.9972486e-15 5.0741204e-16 1.6376266e-16)
(-5.0142844e-16 5.9082617e-16 -1.5096731e-17)
(2.8672985e-17 2.0007103e-16 -2.079567e-16)
(-3.5598279e-15 1.6770216e-16 6.1584209e-17)
(1.5219227e-15 -3.8112137e-16 -3.4960392e-16)
(-8.8364966e-17 -1.5289127e-16 1.7491834e-16)
(2.7397895e-16 -2.6900304e-16 -2.0413732e-16)
(-5.1236454e-16 -3.7600259e-16 -4.411389e-17)
(-1.3114086e-15 -5.3747975e-16 1.2489795e-16)
(2.0041989e-16 -4.4379834e-16 -1.4360784e-16)
(-1.3448657e-15 3.3966264e-16 -2.7012678e-16)
(-2.2010094e-15 1.2158219e-16 1.1470551e-16)
(-1.2722141e-15 -2.3577892e-16 -7.7366055e-17)
(-2.6936153e-15 2.298542e-17 6.0151854e-16)
(-1.8084585e-15 2.5926424e-16 8.2177642e-17)
(-1.0121806e-15 3.7760621e-16 1.5728837e-17)
(-3.5076342e-15 -1.049112e-16 -1.8966684e-16)
(-1.2388067e-16 -2.746004e-16 -1.3203227e-16)
(-1.1077126e-15 -2.2449831e-16 5.9960705e-17)
(-7.9462407e-16 5.2806017e-17 1.8160622e-16)
(-1.481116e-15 2.6347307e-16 -6.003674e-17)
(5.3541372e-16 1.9494005e-16 5.7756958e-17)
(-2.5861876e-15 -7.0653702e-17 -1.8824779e-16)
(-1.6152529e-15 1.8241927e-16 3.8488004e-16)
(-1.0389662e-15 3.299921e-17 2.9700946e-16)
(-3.8817577e-15 -1.9427146e-16 -1.2145786e-15)
(-1.6161979e-15 2.8442108e-16 -1.856842e-16)
(8.1577518e-16 1.8112067e-17 2.0819295e-16)
(-2.485062e-15 2.8178417e-16 -5.4749215e-16)
(-1.8307085e-15 4.4562511e-16 -1.4619564e-16)
(-1.4586292e-15 4.0358521e-16 -4.0281137e-16)
(-12.503991 8.2827553 16.457383)
(-15.848968 11.341889 10.709442)
(-19.893508 11.577248 4.62109)
(-21.658986 12.460101 -0.11562984)
(-21.631771 11.556038 -4.6766401)
(-21.688722 12.53817 -9.3811252)
(-18.822847 8.9733848 -14.93758)
(-32.580865 46.378144 19.508238)
(-38.482534 51.124994 8.8965263)
(-40.912156 47.093111 1.7072197)
(-42.057367 45.260692 -4.533544)
(-43.44976 48.65938 -10.372782)
(-40.757502 48.817034 -17.422383)
(-38.594949 50.465649 -27.953473)
(-44.838421 58.159965 16.903226)
(-52.06636 55.778216 10.664934)
(-57.187483 58.5525 -0.16378519)
(-58.530809 58.178656 -7.3379201)
(-58.557614 57.188416 -16.204041)
(-56.692654 58.270983 -21.995658)
(-53.851516 63.844684 -33.263267)
(-73.14374 83.130165 13.160021)
(-79.296319 84.637115 5.321575)
(-82.637776 83.654344 -4.5185593)
(-84.61468 82.9349 -11.753297)
(-84.347287 83.147121 -19.677266)
(-82.595732 85.414699 -28.671284)
(-77.100568 85.683977 -36.101255)
(-99.969266 100.02812 8.8331269)
(-106.03653 99.549888 1.1521566)
(-110.57522 99.204135 -8.2207534)
(-111.71908 98.208035 -16.699058)
(-111.72 98.763273 -24.942873)
(-109.43649 99.23114 -32.715557)
(-105.43325 102.23681 -41.486764)
(-135 120.75073 4.0240813)
(-139.78566 119.82011 -3.7308186)
(-143.4861 118.64566 -13.273881)
(-144.67541 117.69249 -20.416367)
(-144.03845 116.78909 -29.34641)
(-141.06173 117.0746 -37.270989)
(-136.30782 118.97288 -44.631039)
(-171.04626 137.31492 1.4164752)
(-176.26838 136.04735 -7.4806634)
(-179.55786 134.98428 -16.042731)
(-180.51338 132.95055 -24.582587)
(-179.95991 132.99618 -33.129461)
(-177.23614 132.834 -41.013573)
(-172.44524 134.18732 -49.160722)
(-212.25142 156.81808 -0.82453959)
(-217.02315 155.16619 -8.7767305)
(-220.26745 152.65814 -18.600558)
(-220.81185 150.63152 -26.694092)
(-219.65645 148.6179 -35.159154)
(-216.44649 147.76415 -43.527455)
(-210.90755 148.11615 -51.063999)
(-256.00355 174.80305 0.37712207)
(-260.78123 171.59838 -9.5094501)
(-263.64015 168.7219 -18.576824)
(-264.2533 166.37216 -27.235119)
(-263.27215 164.92139 -36.323221)
(-260.06062 163.41429 -44.863915)
(-254.99843 163.58551 -53.439908)
(-303.09462 193.37849 2.648206)
(-308.16085 190.27181 -6.5352169)
(-311.22841 186.43884 -16.154403)
(-312.28601 183.97988 -25.99925)
(-310.92682 180.40414 -34.908408)
(-307.09505 178.4873 -44.059468)
(-301.4357 176.74255 -52.413599)
(-353.87655 213.12499 8.0939093)
(-359.18935 208.40849 -2.0400945)
(-362.48876 204.14995 -12.797876)
(-363.1665 199.94367 -22.095635)
(-361.97698 196.85603 -32.171348)
(-358.4067 194.30161 -41.559404)
(-353.10005 192.66839 -50.773236)
(-407.90039 232.03752 15.606502)
(-414.23909 227.15373 4.3425329)
(-417.80085 222.17409 -5.8973688)
(-419.48415 218.70883 -16.901043)
(-418.52657 214.44372 -27.509734)
(-414.53809 211.21328 -37.092261)
(-409.19786 207.90562 -47.416453)
(-467.23193 253.27484 24.048804)
(-473.55779 247.20802 12.44107)
(-477.8759 241.95735 0.9429334)
(-479.44537 236.6523 -10.43158)
(-478.24445 231.74443 -21.669535)
(-474.62602 228.53267 -32.0324)
(-468.8785 224.43033 -42.844662)
(-530.34912 273.62272 34.047629)
(-537.74388 267.69163 21.522286)
(-542.88864 261.788 9.6701211)
(-544.88131 256.67076 -2.7607799)
(-544.2626 251.95576 -14.853759)
(-540.69584 247.56598 -25.747549)
(-535.00197 243.27783 -37.719895)
(-599.84664 296.03242 44.057298)
(-608.08989 289.5551 30.61445)
(-613.42469 283.05227 17.939857)
(-615.8646 277.34835 4.4744488)
(-615.08486 271.44058 -8.0383156)
(-611.37552 266.79804 -20.143181)
(-605.25808 262.08134 -32.813307)
(-675.48449 318.28811 53.970017)
(-684.3366 311.81398 39.819234)
(-690.59473 305.40354 26.246627)
(-693.30894 299.35884 12.226298)
(-692.61178 293.65119 -1.6957885)
(-688.86792 288.76382 -14.395846)
(-682.25205 283.829 -28.515571)
(-758.46476 341.90724 63.304998)
(-768.25544 335.58993 48.147748)
(-774.94341 328.75028 33.870491)
(-777.63182 322.36909 18.530987)
(-777.05143 316.39113 4.0256889)
(-772.78051 311.00201 -9.8538078)
(-765.6988 306.37428 -25.193893)
(-849.92127 366.09584 71.743734)
(-860.26962 359.84347 56.036567)
(-867.48069 353.08013 40.638341)
(-870.39763 346.91244 24.710251)
(-869.61124 340.78824 9.1210449)
(-864.89426 335.7531 -5.8744911)
(-857.00774 330.95514 -22.591027)
(-950.59905 390.9966 79.501808)
(-961.48281 384.89484 62.828615)
(-969.23294 378.31108 46.758634)
(-971.95714 371.97819 29.891106)
(-971.1775 366.13106 13.296428)
(-965.77332 361.04308 -2.6660548)
(-957.30545 356.76296 -20.709976)
(-1061.4857 416.1074 86.331947)
(-1072.9809 410.29697 69.087329)
(-1081.0586 403.9123 52.357232)
(-1083.9165 398.1223 34.657233)
(-1082.9286 392.38803 17.325328)
(-1077.0119 388.00063 0.34132204)
(-1067.699 383.73482 -18.98855)
(-1183.6623 441.14163 92.627704)
(-1195.5154 435.59977 74.790315)
(-1204.1057 429.7418 57.379778)
(-1206.8576 424.08216 39.137114)
(-1205.8489 419.04292 20.981037)
(-1199.3798 414.94708 3.2847304)
(-1189.469 411.24253 -17.190393)
(-1317.6929 465.43828 98.176433)
(-1330.0335 460.38504 79.868678)
(-1339.0161 454.79951 62.133242)
(-1341.8063 449.94665 43.43837)
(-1340.8139 445.28815 24.730198)
(-1333.9408 442.09218 6.4191319)
(-1323.5515 438.879 -14.914611)
(-1464.4472 488.50845 102.79246)
(-1477.2069 483.71254 84.337214)
(-1486.5045 478.8318 66.428676)
(-1489.4264 474.57586 47.461938)
(-1488.5143 470.98438 28.329397)
(-1481.5093 468.49986 9.8700803)
(-1470.8384 465.92024 -12.132819)
(-1624.2494 509.15814 106.3996)
(-1637.5458 505.41976 88.040291)
(-1646.9201 500.92522 70.046366)
(-1650.174 497.87675 50.980206)
(-1649.4354 494.5504 31.920177)
(-1642.3043 492.93579 13.131955)
(-1631.5894 491.25841 -9.0995341)
(-1797.4082 527.65876 108.98601)
(-1811.3535 524.23893 90.189512)
(-1820.3637 520.48571 72.74727)
(-1824.5997 518.28042 53.520626)
(-1823.2485 516.07 34.700914)
(-1816.8374 515.89655 15.967974)
(-1806.0702 515.419 -5.9858522)
(-1984.1796 542.72234 109.19869)
(-1998.2693 539.83745 90.852615)
(-2007.3737 537.55062 73.875269)
(-2011.5683 535.81865 53.753403)
(-2010.2019 534.68238 36.973827)
(-2004.7775 535.14302 17.874527)
(-1994.1987 535.75025 -2.9851492)
(-2184.3029 553.94769 107.17083)
(-2198.3852 552.08319 89.899667)
(-2207.6697 550.98115 72.091065)
(-2212.3787 549.78462 54.304259)
(-2211.2234 549.85886 36.209129)
(-2205.8915 551.27848 17.320915)
(-2195.2595 553.89921 -2.3605151)
(-2398.219 561.0636 102.43154)
(-2411.5144 560.92442 85.350652)
(-2421.4839 560.31815 68.104881)
(-2425.0663 560.26176 51.172448)
(-2424.6411 561.09414 32.981764)
(-2419.0528 563.47771 15.782876)
(-2409.1627 567.81087 -4.0286545)
(-2624.5827 564.19847 94.906925)
(-2637.9596 565.17433 77.906741)
(-2646.7927 565.76254 62.241512)
(-2650.757 566.31644 44.861092)
(-2649.8975 568.56032 28.287231)
(-2644.6429 571.74998 11.225887)
(-2635.0887 577.68597 -7.7331737)
(-2863.6853 563.04264 84.139221)
(-2875.9117 565.24748 68.327946)
(-2884.621 566.73656 52.898798)
(-2887.9317 568.29336 36.640656)
(-2887.0724 571.37206 20.684587)
(-2881.8181 575.44821 4.4002633)
(-2872.5401 582.7792 -13.69895)
(-3114.1287 557.64909 71.369762)