/*--------------------------------*- C++ -*----------------------------------*\
  =========                 |
  \\      /  F ield         | OpenFOAM: The Open Source CFD Toolbox
   \\    /   O peration     | Website:  https://openfoam.org
    \\  /    A nd           | Version:  6
     \\/     M anipulation  |
\*---------------------------------------------------------------------------*/
FoamFile
{
    version     2.0;
    format      ascii;
    class       pointVectorField;
    location    "1.02";
    object      u;
}
// * * * * * * * * * * * * * * * * * * * * * * * * * * * * * * * * * * * * * //

dimensions      [0 1 0 0 0 0 0];

internalField   nonuniform List<vector> 
3969
(
(0 -4.4231974e-20 0)
(0 -2.4190549e-19 0)
(-0.72088568 -0.13291293 0.026578708)
(-0.73651964 0.043387308 0.025865743)
(0 2.4126051e-18 0)
(0 1.9928064e-18 0)
(-0.73447249 0.035706189 0.025883131)
(-0.71882444 -0.1405748 0.026499336)
(0 1.0078119e-19 0)
(0 6.0576208e-19 0)
(0 2.7130122e-19 0)
(-1.6223646e-18 -1.4608168e-19 0)
(0 7.9940684e-19 0)
(0 -4.6088205e-19 0)
(0 -4.4010565e-19 0)
(-0.72285083 -0.11081408 0.026510557)
(-0.72477355 -0.088752945 0.026443057)
(-0.72670223 -0.06672891 0.026340936)
(-0.72864411 -0.044721181 0.026239278)
(-0.73059466 -0.022727217 0.02612694)
(-0.73257127 -0.00071372574 0.026026941)
(-0.73455393 0.021328264 0.025940295)
(-0.001488977 -0.0039909047 -0.0043771682)
(-0.0023519331 -0.0068940548 -0.0054264446)
(-0.0046623709 -0.0099922546 -0.0058335127)
(-0.0079475305 -0.013286688 -0.0057639949)
(-0.012171624 -0.016374913 -0.0055814845)
(-0.017240334 -0.019650895 -0.0052100297)
(-0.023115926 -0.022671665 -0.0049072065)
(-0.029713324 -0.025837645 -0.0044992523)
(-0.037065323 -0.028749435 -0.0041777968)
(-0.0450633 -0.031789147 -0.0037854863)
(-0.053760628 -0.034632981 -0.0034774157)
(-0.063068589 -0.037595742 -0.0031085489)
(-0.07303625 -0.040388929 -0.002794809)
(-0.083587041 -0.04330217 -0.0024452799)
(-0.094768653 -0.046099232 -0.0021104635)
(-0.10652793 -0.048981672 -0.0017534782)
(-0.11887718 -0.051807662 -0.0014014738)
(-0.13181749 -0.054700057 -0.0010208423)
(-0.14533484 -0.057569951 -0.00061939646)
(-0.15943645 -0.060483319 -0.00019148666)
(-0.17410736 -0.063399854 0.00027499908)
(-0.18935514 -0.066348944 0.00077495981)
(-0.20516528 -0.069307148 0.0013259563)
(-0.22154672 -0.072283118 0.0019225327)
(-0.23846863 -0.075280145 0.0025774643)
(-0.25594722 -0.078270365 0.0032857576)
(-0.2739421 -0.081266093 0.0040538353)
(-0.29245432 -0.084259931 0.0048785344)
(-0.31145389 -0.087223517 0.0057640685)
(-0.33091751 -0.090173692 0.0066997504)
(-0.35081402 -0.09307764 0.0076901165)
(-0.37111082 -0.095943003 0.0087253377)
(-0.39177457 -0.098748363 0.0098008266)
(-0.41276575 -0.10149582 0.01091245)
(-0.43403981 -0.10417365 0.012052132)
(-0.45557441 -0.10677671 0.013209159)
(-0.47730531 -0.10930149 0.014388784)
(-0.49921324 -0.11175389 0.015575244)
(-0.52124446 -0.11412149 0.016750271)
(-0.54338247 -0.11642606 0.017932787)
(-0.5655742 -0.11865489 0.019092382)
(-0.58781671 -0.12081697 0.020243622)
(-0.61005538 -0.12293114 0.021362091)
(-0.6322901 -0.1249852 0.022463904)
(-0.6545099 -0.12699551 0.02352725)
(-0.67665834 -0.12899125 0.024568231)
(-0.69879751 -0.13094395 0.025573183)
(-0.00089456246 0.0043192812 0.0056919236)
(-0.0034275544 0.0074332709 0.0055660887)
(-0.0057524121 0.010986126 0.0065572818)
(-0.0091668933 0.014238904 0.006468887)
(-0.01375114 0.017838254 0.0064892388)
(-0.018938921 0.021060542 0.0063711284)
(-0.025137366 0.024378467 0.0062581607)
(-0.031985528 0.027371389 0.0061588596)
(-0.039670935 0.030398861 0.0060831089)
(-0.047990213 0.033113566 0.0060277942)
(-0.057077516 0.035879323 0.006021473)
(-0.066767473 0.038354962 0.0060331838)
(-0.07714659 0.040841355 0.0060992055)
(-0.088142771 0.043135674 0.0061555911)
(-0.09977329 0.045374499 0.0062917789)
(-0.11201171 0.047472898 0.0064191263)
(-0.12488355 0.049503718 0.0066109829)
(-0.1383219 0.051399747 0.0068076489)
(-0.15241289 0.053237885 0.0070481739)
(-0.16702945 0.054929354 0.0073149815)
(-0.1823029 0.056577408 0.0076109369)
(-0.19808911 0.058048979 0.0079453265)
(-0.21450857 0.059473047 0.008297791)
(-0.23144033 0.060726892 0.0086928547)
(-0.24895324 0.061875493 0.0091158859)
(-0.26695111 0.062853136 0.0095822784)
(-0.2854901 0.063707244 0.010061425)
(-0.30451264 0.064367424 0.01057607)
(-0.32401212 0.064864125 0.011122745)
(-0.34394323 0.065170062 0.011684757)
(-0.36427683 0.065291231 0.012274909)
(-0.38497774 0.065219281 0.012883314)
(-0.40600636 0.064953369 0.013517513)
(-0.4273224 0.064493565 0.014173052)
(-0.44888727 0.063846587 0.014855669)
(-0.47065872 0.063014092 0.015558082)
(-0.492592 0.062007487 0.016297869)
(-0.51465892 0.060833485 0.0170502)
(-0.53681753 0.059515454 0.017838842)
(-0.55903868 0.058056282 0.018648127)
(-0.58129401 0.056475371 0.019483886)
(-0.60356254 0.05479189 0.020337231)
(-0.62581561 0.0530169 0.021216032)
(-0.64804574 0.051173023 0.022112092)
(-0.67023528 0.049270574 0.023029359)
(-0.69237866 0.047333655 0.023961171)
(-0.71447384 0.045362139 0.024911133)
(0 -2.6317524e-20 0)
(0 3.0834216e-19 0)
(0 -3.7680149e-19 0)
(7.9782241e-19 -8.1210735e-20 0)
(0 -6.8960623e-19 0)
(0 -3.2144714e-19 0)
(0 -2.6283704e-19 0)
(-0.002037815 0.0027059874 -0.0043355223)
(-0.0034092337 0.0084531246 -0.0058039976)
(-0.0051952592 0.0096622726 -0.0058164208)
(-0.0090697704 0.014269005 -0.0060925071)
(-0.013188065 0.017023511 -0.0059151882)
(-0.018546862 0.020424148 -0.0055898274)
(-0.024541123 0.023480916 -0.0053878062)
(-0.031436256 0.026456247 -0.0050071784)
(-0.038957011 0.029268698 -0.0047678769)
(-0.047259453 0.031972226 -0.0044431807)
(-0.05624187 0.034563089 -0.0042265418)
(-0.065783334 0.036869866 -0.0039022679)
(-0.076193739 0.039268732 -0.003637713)
(-0.087005383 0.041307392 -0.0033302041)
(-0.098652406 0.04348968 -0.0030549534)
(-0.11072564 0.045295445 -0.0027227439)
(-0.12356751 0.047245532 -0.0024252229)
(-0.13687868 0.048857186 -0.002060404)
(-0.15089206 0.05055007 -0.0017104231)
(-0.16541666 0.05197549 -0.0012963138)
(-0.18059042 0.05340075 -0.00086945774)
(-0.19630041 0.054615728 -0.00038045802)
(-0.21261973 0.055767433 0.000145546)
(-0.22948234 0.056733885 0.00073903771)
(-0.24693128 0.057604835 0.0013974623)
(-0.26495051 0.05828976 0.0021427802)
(-0.28344469 0.058864569 0.0029166833)
(-0.3024358 0.059256648 0.0037506855)
(-0.32190778 0.059478442 0.0046492732)
(-0.34182 0.059519144 0.0056098861)
(-0.36214308 0.059384901 0.0066221179)
(-0.38283788 0.059069315 0.0076818831)
(-0.40386027 0.058569457 0.0087839373)
(-0.42517902 0.05789866 0.0099196021)
(-0.44674101 0.057046325 0.011082496)
(-0.46853135 0.056053465 0.012269994)
(-0.49045701 0.054851102 0.013460502)
(-0.51253975 0.053577851 0.014671013)
(-0.53471359 0.052126703 0.015872593)
(-0.55694605 0.050577032 0.017070436)
(-0.57921715 0.048921448 0.018253691)
(-0.60149355 0.047183293 0.019416005)
(-0.62375795 0.045370528 0.020557197)
(-0.64599311 0.043503382 0.021669412)
(-0.66818296 0.041588171 0.022756608)
(-0.69032755 0.039645501 0.023814633)
(-0.71241605 0.03767727 0.024851515)
(-0.73250206 0.013646686 0.025970138)
(-0.73052353 -0.008397634 0.026053486)
(-0.72854263 -0.030413891 0.02612651)
(-0.72658297 -0.052411189 0.026179569)
(-0.72465427 -0.074409457 0.026246991)
(-0.72270891 -0.096443927 0.026313785)
(-0.72078987 -0.11849378 0.026402264)
(-0.69675223 -0.13860867 0.025518576)
(-0.6746238 -0.13666212 0.024525711)
(-0.65246945 -0.13467423 0.023563063)
(-0.63028983 -0.1326499 0.022605173)
(-0.60808062 -0.13057984 0.021677423)
(-0.58587667 -0.12844213 0.020765512)
(-0.56368784 -0.12623552 0.019880057)
(-0.54154033 -0.12394414 0.019020662)
(-0.51946343 -0.12156713 0.018191292)
(-0.4974862 -0.11909747 0.017384606)
(-0.47563166 -0.11651263 0.016621461)
(-0.45399239 -0.11385255 0.015868275)
(-0.43249845 -0.11107514 0.015177446)
(-0.41129163 -0.10821178 0.014493887)
(-0.39035846 -0.10526017 0.013852265)
(-0.36975661 -0.10222861 0.013234322)
(-0.34951781 -0.09912356 0.012643485)
(-0.32967918 -0.095959553 0.012078914)
(-0.31027202 -0.092745986 0.011539005)
(-0.29132697 -0.089493674 0.01102342)
(-0.27286627 -0.086218217 0.01053185)
(-0.2549214 -0.08292942 0.010065178)
(-0.23749726 -0.079638394 0.009619907)
(-0.22061061 -0.076362335 0.0092077882)
(-0.20427676 -0.073089673 0.0088153485)
(-0.18850147 -0.069864525 0.0084577231)
(-0.17329481 -0.066641939 0.0081132811)
(-0.15865158 -0.06348514 0.0078157629)
(-0.14459296 -0.06033092 0.0075208708)
(-0.13110164 -0.057239461 0.0072751709)
(-0.11820358 -0.054160907 0.007040441)
(-0.10587633 -0.051124068 0.0068394905)
(-0.094138683 -0.048119726 0.0066667195)
(-0.083060406 -0.045066937 0.0064764499)
(-0.072585106 -0.042060842 0.0063918064)
(-0.062629765 -0.03908816 0.0062485514)
(-0.053417575 -0.036036951 0.006201234)
(-0.044738724 -0.033008959 0.0061668616)
(-0.036793545 -0.029927922 0.006176555)
(-0.029539689 -0.026773792 0.006168261)
(-0.02306089 -0.023555948 0.006218086)
(-0.017114343 -0.020372394 0.0063021508)
(-0.012262541 -0.016969454 0.0063423057)
(-0.0080453234 -0.013723303 0.0062962192)
(-0.0048771177 -0.0104245 0.0060524116)
(-0.0027728101 -0.006806781 0.0053913249)
(-0.0030323787 -0.0041541032 0.0033745597)
(0 3.2560993e-19 0)
(0 2.550295e-19 0)
(0 -1.3215578e-19 0)
(0 -8.6837556e-19 4.3457678e-19)
(0 -7.6244138e-19 0)
(0 -1.6763416e-19 0)
(0 8.0163421e-19 0)
(0 1.1375114e-18 0)
(0 1.084336e-18 0)
(0 1.030304e-18 0)
(0 8.8983039e-19 -1.0931193e-19)
(0 2.4038127e-18 0)
(0 1.0537983e-18 0)
(0 -1.9416458e-19 0)
(-0.73627033 0.042464467 0.02587105)
(-0.73602574 0.041529732 0.0258774)
(-0.73577979 0.040586139 0.025873361)
(-0.7355276 0.03963389 0.025874229)
(-0.7352726 0.038670251 0.025870709)
(-0.7350055 0.037692629 0.025869229)
(-0.73473715 0.036708434 0.025883637)
(-0.72064118 -0.13389013 0.026570717)
(-0.72038834 -0.13486265 0.026557574)
(-0.72013657 -0.13583081 0.026544713)
(-0.71988045 -0.13678912 0.026532694)
(-0.71961964 -0.13774016 0.026523797)
(-0.71935727 -0.13868718 0.026512722)
(-0.71909199 -0.13962766 0.026504986)
(-0.00017125883 -0.0030726008 -0.0038091494)
(-0.0012645711 -0.0048564747 -0.00383464)
(-0.0034629219 -0.0072837939 -0.0042017212)
(-0.0067499002 -0.0094935613 -0.0041823045)
(-0.010969087 -0.011767849 -0.0039901673)
(-0.016127703 -0.014128795 -0.0037653545)
(-0.022074032 -0.0164158 -0.0034369619)
(-0.028724448 -0.018735532 -0.0031896172)
(-0.03619574 -0.020988244 -0.0028387782)
(-0.04426212 -0.023274694 -0.0025644412)
(-0.053056806 -0.025495331 -0.0022402098)
(-0.062424818 -0.027728568 -0.0019547919)
(-0.072498844 -0.029950806 -0.001628348)
(-0.08310985 -0.032185583 -0.0013230327)
(-0.094384614 -0.034396923 -0.0010115008)
(-0.10622512 -0.036653137 -0.0006732748)
(-0.11866307 -0.038896807 -0.00033674261)
(-0.1316786 -0.041179226 2.4373544e-05)
(-0.14528934 -0.043467425 0.00040851692)
(-0.15947257 -0.045790828 0.00082140875)
(-0.17423848 -0.048136932 0.0012682736)
(-0.18957881 -0.050507839 0.0017540073)
(-0.20548776 -0.05290527 0.0022814427)
(-0.22196637 -0.055335007 0.0028591057)
(-0.23899236 -0.057779384 0.0034829291)
(-0.25657298 -0.060250486 0.0041598459)
(-0.27467746 -0.062741794 0.0048923549)
(-0.29329706 -0.065243882 0.0056802637)
(-0.31240356 -0.06776043 0.0065144309)
(-0.33197582 -0.070277639 0.0074036889)
(-0.35197584 -0.072790351 0.0083368292)
(-0.37237657 -0.075296209 0.0093131405)
(-0.39313826 -0.077781208 0.0103271)
(-0.41422011 -0.080247766 0.011376515)
(-0.43558546 -0.082677756 0.01244832)
(-0.45719309 -0.085079601 0.013547637)
(-0.4789955 -0.087437546 0.01466109)
(-0.50096644 -0.089757406 0.015783895)
(-0.52305483 -0.092030975 0.016908937)
(-0.54523638 -0.094267565 0.018036125)
(-0.56746764 -0.096450919 0.01915162)
(-0.58973582 -0.09860632 0.020257892)
(-0.61199458 -0.10071159 0.021345448)
(-0.63424986 -0.10278803 0.022413982)
(-0.65646684 -0.10483152 0.023460769)
(-0.67863063 -0.10684826 0.024490298)
(-0.70077101 -0.10883354 0.025502474)
(0.00093621914 -0.0018663277 -0.0024418214)
(-0.00028536956 -0.0027679139 -0.0024147062)
(-0.002640474 -0.004603429 -0.0026918745)
(-0.0059133863 -0.0059123874 -0.0026021363)
(-0.010286876 -0.0074526265 -0.0024804791)
(-0.015420674 -0.0089984297 -0.0022167562)
(-0.021381305 -0.010479607 -0.0020740079)
(-0.028161221 -0.012055911 -0.001752066)
(-0.03563405 -0.013542534 -0.0015599269)
(-0.043795521 -0.015135072 -0.0012725564)
(-0.052624478 -0.016592599 -0.0010575425)
(-0.062110211 -0.018220959 -0.0007571201)
(-0.072210317 -0.019715098 -0.00052010648)
(-0.082933883 -0.021335101 -0.00025237814)
(-0.094273061 -0.022889135 3.6170833e-05)
(-0.10619214 -0.024542975 0.0003399354)
(-0.11870024 -0.026167082 0.000658229)
(-0.13180701 -0.027865392 0.0010033641)
(-0.14548916 -0.0295561 0.00136895)
(-0.15976633 -0.031311936 0.0017660994)
(-0.1746178 -0.033084348 0.0021995789)
(-0.19005029 -0.034901716 0.0026613869)
(-0.20604919 -0.036762119 0.0031759921)
(-0.2226141 -0.038650116 0.0037206043)
(-0.23973393 -0.040589163 0.0043225393)
(-0.25740888 -0.042562852 0.0049700702)
(-0.27560249 -0.04457685 0.0056690972)
(-0.29431223 -0.046626908 0.0064112419)
(-0.3135136 -0.048708721 0.0072096532)
(-0.33316935 -0.050823561 0.0080469666)
(-0.35325799 -0.052960476 0.0089302371)
(-0.3737417 -0.055120754 0.009853543)
(-0.39457907 -0.057293162 0.010811759)
(-0.41573792 -0.059473772 0.011800758)
(-0.43717051 -0.06165691 0.012817461)
(-0.45884039 -0.063840301 0.013857811)
(-0.48070172 -0.066007702 0.014911669)
(-0.50272251 -0.068175997 0.015983196)
(-0.5248508 -0.070313173 0.017053995)
(-0.547072 -0.072448095 0.01813503)
(-0.56933168 -0.074551672 0.019206757)
(-0.59162471 -0.076645123 0.020276694)
(-0.61390624 -0.078709869 0.021331263)
(-0.63617099 -0.080761257 0.022378063)
(-0.65840471 -0.082784392 0.023404165)
(-0.68057413 -0.084798749 0.024427499)
(-0.70272663 -0.086779733 0.025426753)
(0.0015379672 -0.00087328985 -0.0012756593)
(0.00023577802 -0.001271686 -0.0011810036)
(-0.0020246325 -0.0020529436 -0.0011629893)
(-0.0055087704 -0.0026891175 -0.0011205611)
(-0.009831904 -0.0033642573 -0.00091850366)
(-0.015071314 -0.0040986092 -0.00085687647)
(-0.02118533 -0.0047877596 -0.00055676304)
(-0.027950715 -0.0055338056 -0.00045121535)
(-0.035544995 -0.006320098 -0.00021162238)
(-0.043727751 -0.0070616661 -4.5884027e-05)
(-0.052668619 -0.0079300862 0.00019867373)
(-0.062160308 -0.0087618326 0.00040960154)
(-0.072342762 -0.0096399383 0.00062710556)
(-0.0831052 -0.010562343 0.00088810056)
(-0.094503809 -0.011517704 0.0011341228)
(-0.10648254 -0.012522674 0.0014140538)
(-0.11907424 -0.013550946 0.001720444)
(-0.13224442 -0.014632462 0.0020319307)
(-0.1460108 -0.015744021 0.002384545)
(-0.16035544 -0.016914086 0.002753435)
(-0.17527691 -0.018117127 0.0031591681)
(-0.19077808 -0.019380442 0.0035994185)
(-0.20685164 -0.020684143 0.0040781141)
(-0.22349886 -0.022056499 0.0046027653)
(-0.24070131 -0.023476226 0.0051726059)
(-0.25845206 -0.024959512 0.0057862014)
(-0.27672793 -0.026497984 0.0064430324)
(-0.29552507 -0.02809877 0.0071546801)
(-0.31479507 -0.029756512 0.0079005975)
(-0.3345285 -0.031470245 0.0086911263)
(-0.35468751 -0.033237231 0.0095243251)
(-0.37523599 -0.035054302 0.010390548)
(-0.39613792 -0.036913835 0.011291602)
(-0.4173547 -0.038812837 0.012223204)
(-0.43883927 -0.040746909 0.013181969)
(-0.46055822 -0.042704644 0.014161954)
(-0.4824636 -0.044688159 0.015161824)
(-0.5045204 -0.046685993 0.01617729)
(-0.52668648 -0.048695869 0.017201523)
(-0.54893122 -0.050719881 0.01823574)
(-0.57121596 -0.052733262 0.019264383)
(-0.59352471 -0.054762508 0.020298938)
(-0.61581925 -0.056772987 0.021321636)
(-0.63809767 -0.058788408 0.022341523)
(-0.66033567 -0.060789405 0.023349916)
(-0.68251847 -0.062781336 0.024352265)
(-0.70467333 -0.064759238 0.025346218)
(0.0016382441 0.00011133719 8.0397053e-05)
(0.00026980006 0.00036393285 0.00047977715)
(-0.0021309336 0.00038197138 0.00046843247)
(-0.0054757715 0.00059642817 0.000541865)
(-0.0099430025 0.00077083197 0.00055455941)
(-0.015191541 0.00081156595 0.0007432223)
(-0.021236313 0.00097652452 0.00073053959)
(-0.028096152 0.00093498903 0.00091738095)
(-0.035630815 0.00099263642 0.00098908706)
(-0.043914285 0.00088504384 0.0011592519)
(-0.052825988 0.00079978005 0.0013174036)
(-0.06243068 0.00063560039 0.0014768764)
(-0.072656481 0.00044635131 0.0017091369)
(-0.083501074 0.00015996345 0.0019139635)
(-0.094965107 -0.00011832664 0.0021467244)
(-0.10701746 -0.00053069693 0.002411703)
(-0.11967837 -0.00091844699 0.0026806664)
(-0.13291951 -0.0014237426 0.0029867422)
(-0.14675657 -0.0019358234 0.0033126555)
(-0.16117388 -0.0025324104 0.0036658141)
(-0.17618639 -0.0031836958 0.0040674577)
(-0.19178964 -0.0038981855 0.0044781714)
(-0.20794079 -0.0046800667 0.0049541571)
(-0.22466485 -0.0055317171 0.005450394)
(-0.24194216 -0.0064555454 0.0060012756)
(-0.25975917 -0.007459374 0.0065794604)
(-0.27810603 -0.0085371512 0.0072112778)
(-0.29695709 -0.0097009461 0.0078729428)
(-0.31629125 -0.010939098 0.0085792558)
(-0.33608088 -0.012263565 0.0093264964)
(-0.35629194 -0.013664648 0.010106732)
(-0.37689197 -0.015140441 0.010920527)
(-0.39783952 -0.016691114 0.011768544)
(-0.41909835 -0.018305948 0.012643069)
(-0.4406219 -0.019983488 0.013544263)
(-0.46237405 -0.021717571 0.014468492)
(-0.4843068 -0.023498597 0.015412805)
(-0.50638704 -0.025325501 0.016373485)
(-0.52856587 -0.027185625 0.017346912)
(-0.55083214 -0.029078583 0.018330599)
(-0.57312906 -0.030996206 0.019322379)
(-0.5954495 -0.032939776 0.020315599)
(-0.61775363 -0.034888098 0.021309975)
(-0.64003731 -0.036855517 0.022302443)
(-0.66228188 -0.038820503 0.023292194)
(-0.6844686 -0.040790553 0.024278715)
(-0.70662263 -0.042761694 0.02526004)
(0.0016104899 0.0010502663 0.0014156857)
(-6.2480287e-05 0.0017006522 0.0017924475)
(-0.0022379831 0.0027508189 0.0018686524)
(-0.0057775164 0.0037174534 0.0019288564)
(-0.010242937 0.0046848633 0.0020852399)
(-0.015476276 0.0056524999 0.0020167217)
(-0.021647391 0.0064731215 0.002178952)
(-0.028469961 0.0073476189 0.0021949056)
(-0.036122348 0.0080267693 0.0023260374)
(-0.044408946 0.0087520275 0.0024211898)
(-0.053426229 0.009331938 0.0025559017)
(-0.063032815 0.0098848076 0.0027067821)
(-0.073311922 0.010330088 0.0028629179)
(-0.084203253 0.010745314 0.0030291605)
(-0.095708278 0.011075001 0.0032349441)
(-0.10781759 0.011340393 0.0034456133)
(-0.12053878 0.011549756 0.0037052574)
(-0.13383934 0.011662081 0.0039737472)
(-0.14774804 0.011744056 0.0042787662)
(-0.16222464 0.011713702 0.0046134086)
(-0.17730983 0.011639273 0.0049762083)
(-0.19291806 0.011487665 0.0053626333)
(-0.20911734 0.01123891 0.0058049726)
(-0.22590735 0.010924527 0.0062727264)
(-0.24323936 0.010507338 0.0067788014)
(-0.26112634 0.010003421 0.0073279449)
(-0.27953697 0.009390369 0.0079189802)
(-0.29845399 0.0086788006 0.0085439953)
(-0.31784762 0.0078615283 0.0092133328)
(-0.33769238 0.0069351196 0.0099113627)
(-0.35795787 0.0059061776 0.010644999)
(-0.3786045 0.0047733926 0.011408567)
(-0.39959762 0.0035362862 0.01220472)
(-0.42089581 0.0022107163 0.013022681)
(-0.44245419 0.00078563641 0.013872483)
(-0.46423616 -0.00071752144 0.014742378)
(-0.48619816 -0.0023031854 0.015635568)
(-0.50829772 -0.0039549206 0.016547918)
(-0.5305061 -0.0056744737 0.017481539)
(-0.55278646 -0.0074503228 0.018422064)
(-0.57509206 -0.0092689071 0.019370977)
(-0.59741535 -0.011129458 0.020334941)
(-0.61972245 -0.013015631 0.021297251)
(-0.64200646 -0.01493397 0.02226844)
(-0.66424488 -0.016863507 0.023236393)
(-0.68642933 -0.018811004 0.024204778)
(-0.70857101 -0.020773784 0.025171282)
(0.0011224441 0.0019106758 0.0028536812)
(-0.0008366485 0.0034347263 0.00317815)
(-0.0031263709 0.0053660785 0.0034446504)
(-0.0067229194 0.0070825031 0.0036424)
(-0.011140398 0.0089959887 0.003524247)
(-0.016414773 0.010618313 0.0036094118)
(-0.022549102 0.01236971 0.0035556673)
(-0.029432149 0.013885149 0.0035735782)
(-0.037055599 0.015390961 0.0036121938)
(-0.045387162 0.016777172 0.0036186679)
(-0.054390566 0.01807946 0.0037152719)
(-0.064054355 0.019291248 0.0038054784)
(-0.074370047 0.020446411 0.0039310006)
(-0.085290647 0.021483227 0.0040780079)
(-0.096850685 0.022474628 0.004246506)
(-0.10899988 0.023345576 0.0044517995)
(-0.12177402 0.024169469 0.0046731666)
(-0.13512824 0.024882981 0.0049250308)
(-0.14908946 0.025541971 0.0052121937)
(-0.1636282 0.026094386 0.0055155521)
(-0.17875951 0.026593819 0.0058699756)
(-0.19446813 0.026938797 0.0062256917)
(-0.2107611 0.027231228 0.0066766076)
(-0.22759984 0.027461466 0.0070888717)
(-0.24501029 0.027568833 0.0075944517)
(-0.26293548 0.027539995 0.0081156365)
(-0.28139455 0.02739996 0.0086693285)
(-0.30034767 0.027128391 0.0092558365)
(-0.31977546 0.026731036 0.0098802774)
(-0.33965217 0.02620267 0.010531969)
(-0.35994216 0.025543032 0.011216316)
(-0.38061284 0.024754024 0.011926239)
(-0.40162268 0.023833484 0.012666122)
(-0.42293297 0.022791837 0.013427911)
(-0.44449991 0.021623286 0.014222387)
(-0.46628805 0.020346479 0.015033525)
(-0.48824557 0.018958543 0.015872842)
(-0.51034573 0.017475438 0.016729158)
(-0.53254182 0.01589882 0.017609176)
(-0.55480264 0.014248942 0.018498177)
(-0.57710303 0.012516626 0.019417417)
(-0.59941817 0.010733228 0.020337878)
(-0.62171553 0.0088968966 0.021275035)
(-0.64399049 0.0070249624 0.02221698)
(-0.66621733 0.0051193076 0.023168075)
(-0.6883978 0.0031916169 0.024124625)
(-0.71052857 0.0012397644 0.025083282)
(0.00033189677 0.0030668447 0.0039347308)
(-0.0018059108 0.0051485552 0.0043606652)
(-0.0040885918 0.0079187662 0.0049260146)
(-0.0077430626 0.010489278 0.0049336888)
(-0.012084159 0.013059701 0.0049755921)
(-0.0174159 0.015613028 0.0049191969)
(-0.023549448 0.018033048 0.0048627765)
(-0.030424484 0.020391664 0.0048341271)
(-0.038088489 0.022589612 0.0048122508)
(-0.046419737 0.024743078 0.0048028064)
(-0.055466994 0.026697124 0.0048602127)
(-0.065170895 0.028653077 0.0048941502)
(-0.075499731 0.030419147 0.0050071745)
(-0.086479245 0.032148459 0.0051009674)
(-0.098071007 0.033739258 0.0052507667)
(-0.11027544 0.035259289 0.0054183726)
(-0.12309671 0.036674756 0.0056121612)
(-0.13649986 0.03800285 0.0058515883)
(-0.15052051 0.039237578 0.0060967846)
(-0.16511208 0.040385542 0.0063960131)
(-0.18030073 0.041418262 0.0067119667)
(-0.19605536 0.042383507 0.0070634763)
(-0.2124116 0.043204805 0.0074569655)
(-0.22930239 0.043946505 0.0078777509)
(-0.24675635 0.04454957 0.0083408601)
(-0.26472736 0.045029309 0.0088223907)
(-0.28322661 0.045364922 0.0093402949)
(-0.30222816 0.04554869 0.0098946399)
(-0.3216949 0.045582742 0.010480509)
(-0.34161012 0.045462996 0.011091687)
(-0.36193274 0.045185469 0.011728059)
(-0.38262984 0.044749316 0.012390896)
(-0.40366253 0.044152935 0.013079004)
(-0.42498844 0.043403789 0.013790902)
(-0.44656923 0.042495183 0.014531882)
(-0.46836165 0.041452241 0.015290237)
(-0.49032301 0.040261668 0.016080426)
(-0.51242203 0.038947485 0.016891839)
(-0.53461372 0.037513808 0.017725735)
(-0.55686541 0.035973357 0.018581807)
(-0.57916046 0.034339621 0.019454611)
(-0.60145993 0.032624041 0.02034613)
(-0.62374845 0.030844396 0.021252675)
(-0.64600835 0.02900901 0.022173857)
(-0.66822299 0.027129029 0.023108631)
(-0.69039304 0.025220229 0.02405148)
(-0.71249891 0.023283796 0.025001234)
(0 -9.603059e-20 0)
(0 5.3867897e-19 0)
(0 4.6547879e-19 0)
(0 4.1077688e-19 -1.4080899e-19)
(0 1.622786e-19 0)
(0 -5.6994552e-21 0)
(0 7.888481e-20 0)
(0 2.9454231e-20 0)
(0 -1.9138324e-19 0)
(0 -4.7181717e-19 0)
(0 -5.8614045e-19 -9.7326225e-20)
(0 -9.6092419e-20 0)
(0 1.1836843e-19 0)
(0 2.2863704e-19 0)
(0 1.8927315e-19 0)
(0 2.981314e-19 0)
(0 5.4449835e-19 0)
(0 5.4473787e-19 2.7438563e-19)
(0 4.7046322e-19 0)
(0 5.4780329e-19 0)
(0 1.8550222e-19 0)
(-3.3006077e-18 1.5549039e-19 0)
(1.4110991e-18 -3.5336881e-19 0)
(-8.193039e-20 -1.41758e-19 0)
(2.540283e-19 -2.4941473e-19 -1.8927241e-19)
(-4.7505509e-19 -3.4862276e-19 0)
(-1.2159143e-18 -4.9834146e-19 0)
(1.8582568e-19 -4.1148175e-19 0)
(0 3.1492902e-19 0)
(0 1.1272879e-19 0)
(0 -2.1860993e-19 0)
(0 2.1311664e-20 5.5771705e-19)
(0 2.4038509e-19 0)
(0 3.5010961e-19 0)
(0 -9.7271759e-20 0)
(0 -2.5460449e-19 0)
(0 -2.0815075e-19 0)
(0 4.8960779e-20 0)
(0 2.4428744e-19 -5.5664974e-20)
(0 1.8074487e-19 0)
(0 -6.5508828e-20 0)
(0 1.6913583e-19 0)
(0 3.0596267e-20 0)
(0 -1.8012496e-19 0)
(0 2.6371005e-19 0)
(0 1.6793179e-20 1.9303272e-19)
(0 2.6126516e-19 0)
(0 4.131755e-19 0)
(0 3.7419687e-19 0)
(-0.0024465643 0.0014877448 0.0028792866)
(-0.0028454383 0.0018246326 0.0018880511)
(-0.0032849191 0.0018702674 0.00094496258)
(-0.0034120185 0.0019657204 0.00016364536)
(-0.0033057928 0.0017962145 -0.00059674964)
(-0.0031404189 0.0018404409 -0.0014229227)
(-0.0025469129 0.0013097715 -0.0023137627)
(-0.0048347185 0.0073405434 0.0044311711)
(-0.0056858141 0.0077593811 0.002509646)
(-0.005989976 0.0072068069 0.0011118565)
(-0.005993658 0.0069221948 1.8294957e-05)
(-0.0060095175 0.0072245224 -0.0010944665)
(-0.0054074404 0.0071401209 -0.0024073545)
(-0.0048237561 0.0071563789 -0.0040496833)
(-0.0067684168 0.010138698 0.0047132492)
(-0.007721976 0.0096555522 0.0033113676)
(-0.0083528704 0.0098281743 0.0015384646)
(-0.0083825927 0.0097210912 0.00014235749)
(-0.008214678 0.0094788353 -0.0014089382)
(-0.0076266389 0.0095813322 -0.0026255036)
(-0.006876083 0.0099156757 -0.0045724358)
(-0.010704064 0.014343214 0.0048318549)
(-0.011584031 0.014345416 0.0033363936)
(-0.012032164 0.01408156 0.0015806799)
(-0.012162494 0.013927549 0.00019372629)
(-0.011957422 0.013918439 -0.0013321453)
(-0.011419118 0.014035814 -0.0030019709)
(-0.010335086 0.013844092 -0.0044592997)
(-0.014913281 0.017734799 0.0048589709)
(-0.015780258 0.017433202 0.003391199)
(-0.016362848 0.017365162 0.0017464786)
(-0.016427061 0.017203069 0.00022079146)
(-0.016261463 0.017106022 -0.0013510889)
(-0.015623585 0.017123544 -0.0027802866)
(-0.014755922 0.01715942 -0.0044940403)
(-0.020270081 0.021148173 0.0047913949)
(-0.02101091 0.020929869 0.0033394341)
(-0.021515635 0.020743523 0.0017573235)
(-0.021623393 0.020638376 0.00031837545)
(-0.021373538 0.020538644 -0.0012440919)
(-0.02080237 0.020436571 -0.0027652407)
(-0.019807391 0.020414927 -0.0041922524)
(-0.026292636 0.024318246 0.0047302798)
(-0.027088889 0.024180126 0.0033114175)
(-0.027586052 0.024033805 0.0017842077)
(-0.027641516 0.023907323 0.0004150541)
(-0.027454738 0.023781617 -0.0011144295)
(-0.02685065 0.023793313 -0.0024706817)
(-0.025938973 0.023647545 -0.004027502)
(-0.033170155 0.027400139 0.0046900996)
(-0.033850758 0.027169201 0.0033075749)
(-0.034293226 0.026993604 0.0018547348)
(-0.034405534 0.026864267 0.00045434582)
(-0.034111091 0.026701455 -0.00094690468)
(-0.033571677 0.026600657 -0.00235846)
(-0.032641561 0.026523363 -0.0036982856)
(-0.040734816 0.030294125 0.0046465076)
(-0.041463248 0.030152872 0.0033001572)
(-0.041912366 0.030035132 0.0019315576)
(-0.041930684 0.029804792 0.00059950507)
(-0.041729345 0.02971596 -0.00076235699)
(-0.041128085 0.029560413 -0.002087977)
(-0.040251347 0.029446669 -0.0035046179)
(-0.049087139 0.033115462 0.0046484384)
(-0.049702052 0.032842032 0.0033523778)
(-0.050086841 0.032620161 0.001958445)
(-0.050163508 0.03250574 0.0006734492)
(-0.0498825 0.032334168 -0.00065870648)
(-0.049338288 0.032178693 -0.0019499669)
(-0.048441326 0.032077524 -0.0032308445)
(-0.05806118 0.035721277 0.0046712776)
(-0.058707572 0.035522259 0.0033977368)
(-0.059106085 0.035374915 0.0020883867)
(-0.05911557 0.035161779 0.00086811567)
(-0.05891353 0.034976607 -0.0004516888)
(-0.058305793 0.034826675 -0.0016458464)
(-0.05746764 0.034713904 -0.0030228783)
(-0.067793195 0.03827727 0.004718075)
(-0.068354899 0.038012101 0.0034342226)
(-0.068660646 0.037775544 0.002201357)
(-0.068706959 0.037534215 0.00092978008)
(-0.068410993 0.037346156 -0.00030558472)
(-0.067816237 0.037183401 -0.0015050145)
(-0.067024031 0.037022235 -0.0027651914)
(-0.078101116 0.040661155 0.0048130556)
(-0.07864065 0.040384013 0.0035773988)
(-0.079011116 0.040199037 0.0023636474)
(-0.079014316 0.039966884 0.001153832)
(-0.078750261 0.039778936 -8.6783358e-05)
(-0.078191604 0.039605839 -0.0012120142)
(-0.077355846 0.0393957 -0.0024896054)
(-0.089078841 0.042976019 0.0049042116)
(-0.089571283 0.042663175 0.0036749541)
(-0.089906241 0.042402009 0.0025012548)
(-0.089836248 0.042099788 0.0012877911)
(-0.089612802 0.041878307 0.00011817291)
(-0.088982045 0.041655675 -0.0010104047)
(-0.088208349 0.041475519 -0.0022433499)
(-0.10066959 0.045150113 0.0050561643)
(-0.10117375 0.044832343 0.0038578386)
(-0.10147251 0.044565871 0.0027062465)
(-0.10147565 0.044312448 0.0015227762)
(-0.10118465 0.044068554 0.00036122321)
(-0.10062302 0.043867293 -0.00074871804)
(-0.099805344 0.043617112 -0.0019640346)
(-0.11289538 0.047239656 0.0052083287)
(-0.11332951 0.046878056 0.004025119)
(-0.11365313 0.046583106 0.0028924849)
(-0.11354917 0.046234829 0.001719749)
(-0.11330809 0.045974816 0.00059110421)
(-0.11268264 0.045693158 -0.00049535095)
(-0.11190435 0.045491949 -0.0016765085)
(-0.12571408 0.049215829 0.0054081845)
(-0.12618466 0.048860644 0.0042494734)
(-0.1264392 0.048516559 0.0031268795)
(-0.12639589 0.048220308 0.0019862089)
(-0.12610537 0.047916036 0.00086784655)
(-0.12552634 0.047689815 -0.0002038025)
(-0.12471057 0.047396336 -0.0013816361)
(-0.1391613 0.051105773 0.0056284981)
(-0.13955234 0.050684956 0.0044748691)
(-0.13984 0.050347651 0.0033750802)
(-0.13971473 0.049958927 0.0022370769)
(-0.13946013 0.049659538 0.0011467289)
(-0.13882379 0.049327663 8.6149263e-05)
(-0.13804443 0.049084668 -0.0010520379)
(-0.15318132 0.052883236 0.0058743555)
(-0.153609 0.05248265 0.0047496604)
(-0.15382513 0.052071802 0.0036563757)
(-0.15374792 0.051726949 0.0025446902)
(-0.1534418 0.051355322 0.0014717721)
(-0.15284453 0.051081592 0.00042340346)
(-0.15203573 0.050752983 -0.00070508439)
(-0.16781896 0.05457842 0.0061613658)
(-0.16817227 0.054099135 0.0050422792)
(-0.16842054 0.053705682 0.0039665687)
(-0.16827562 0.053273662 0.002869893)
(-0.16800055 0.052917986 0.0018088279)
(-0.16735962 0.052551689 0.00077623197)
(-0.16657527 0.05224354 -0.00032043235)
(-0.18301496 0.056148288 0.0064711394)
(-0.18340114 0.055692136 0.0053714469)