/*--------------------------------*- C++ -*----------------------------------*\
  =========                 |
  \\      /  F ield         | OpenFOAM: The Open Source CFD Toolbox
   \\    /   O peration     | Website:  https://openfoam.org
    \\  /    A nd           | Version:  6
     \\/     M anipulation  |
\*---------------------------------------------------------------------------*/
FoamFile
{
    version     2.0;
    format      ascii;
    class       pointScalarField;
    location    "0.68";
    object      E;
}
// * * * * * * * * * * * * * * * * * * * * * * * * * * * * * * * * * * * * * //

dimensions      [1 -1 -2 0 0 0 0];

internalField   nonuniform List<scalar> 
3969
(
34831.062
33812.902
20101.453
6010.6124
35680.753
36174.913
8007.8474
18420.034
15215.187
6067.2901
1554.0975
1264.122
4411.6739
11846.095
27003.105
14642.484
9319.4847
10294.524
13702.15
17931.568
20531.284
19624.754
32890.143
25332.919
24729.231
23990.994
22960.165
21787.546
20248.712
19056.855
17395.21
16198.376
15114.088
13957.311
12954.254
11990.673
11004.047
9895.9654
8995.6758
7892.8751
6893.5189
5728.7159
4597.3817
3451.2118
2349.051
1367.2174
315.96201
-527.60756
-1550.8389
-2493.2703
-3332.5269
-4226.5488
-5048.6509
-5828.9115
-6541.5955
-7166.2114
-7564.088
-7787.0528
-7736.5932
-7598.8309
-7242.0397
-6567.1253
-5452.647
-4337.7476
-2134.376
-598.88789
2597.666
4891.1882
12556.13
33061.639
21283.493
25614.386
22358.068
21764.976
19195.762
17433.375
15327.579
13256.629
11564.835
9482.0009
7934.0291
6344.7522
5221.3051
3922.4052
2930.5272
2064.2356
1187.2765
710.10686
238.86216
170.12227
365.16861
690.43297
1492.9885
2409.3608
3732.8638
4820.8813
6587.1768
8356.0962
10114.145
12311.672
14368.163
16743.771
18948.337
21293.009
23521.808
25138.262
26776.887
28023.373
28572.93
28778.027
28259.652
27136.123
25461.913
23605.531
21098.407
16147.116
16643.871
7223.7243
1805.9799
2366.1838
3910.2019
10503.561
23084.297
49866.822
34500.833
20730.924
29068.225
23981.29
22100.462
21089.841
16558.278
16503.909
12268.367
12941.346
11543.909
10319.864
9016.646
7397.7899
6556.3756
5117.0891
4434.4879
3625.9143
3113.4862
2813.1483
2665.617
2742.5057
2918.5355
3445.4122
4293.0728
5099.5177
6502.2813
7994.9811
9782.6238
11740.513
13977.18
16106.001
18273.128
19991.986
22032.839
24037.205
24099.513
24691.53
24600.198
24095.033
23426.653
22033.228
20473.848
18549.137
16096.248
17306.416
20257.196
20318.922
18417.139
15690.956
11938.901
8941.3777
14893.685
13151.001
11791.687
10809.096
8763.4523
6971.6727
5463.4514
4130.6095
2974.0219
2023.5775
1322.9433
598.99061
-731.75908
-992.05945
-1252.8748
-1622.1965
-1855.5041
-1969.1147
-1922.4196
-1809.4653
-1520.4784
-1202.9415
-735.08308
-329.12303
203.9668
812.77825
1499.2026
2320.0397
3201.1497
4271.4258
5299.1053
6560.9567
7888.977
9459.2158
9763.123
11322.345
12998.987
14499.2
15833.144
17178.464
18432.565
21133.424
21395.961
24712.787
24447.333
25347.716
26340.818
38361.975
23417.862
24730.56
24312.037
24503.837
24405.208
24116.475
25383.439
22218.225
24058.672
26102.167
27032.837
26947.121
27903.126
23129.844
6505.9406
6844.1584
6833.7563
6969.0975
6941.8415
7102.244
7406.3416
20107.351
19929.828
19998.407
20085.378
20097.454
20188.14
19870.391
19573.797
15602.212
15946.554
15223.485
14922.523
14279.497
13267.069
12529.872
11393.32
10664.532
9774.0691
8730.5215
8004.7496
7068.6722
6284.8532
5606.2024
5114.7762
4444.3042
3972.2982
3354.114
2875.5311
2361.039
1937.8906
1479.4241
1038.8112
729.11539
554.85894
621.00794
957.10351
1431.485
2051.8831
2754.9194
3444.2029
4248.0375
5088.0628
5868.6709
6784.4586
7514.1455
8535.0864
9483.1121
10365.519
11567.113
12454.87
13356.726
14765.992
15222.264
17410.486
8224.7578
7154.6653
7956.2984
7796.1983
7625.0884
7508.8239
6767.2242
6592.8386
5845.247
5483.0205
4868.093
4413.7833
3940.3883
3437.9414
3044.9125
2577.5906
2212.9473
1834.4763
1525.2869
1253.3803
1014.9179
911.05876
845.74003
979.16657
1174.0554
1570.0985
2079.4622
2761.7504
3577.0398
4500.6721
5501.6311
6479.9368
7460.8494
8448.7857
9341.5124
10241.009
11156.204
11775.316
12622.661
13100.033
14021.819
14338.962
15298.534
15459.078
16544.461
15898.322
15767.787
3076.3926
1635.2396
2944.431
2436.4878
2810.0393
2612.801
2568.083
2369.1124
2042.8294
1889.0988
1602.4313
1310.6249
959.33259
632.62393
338.85336
186.12289
104.6696
18.424968
47.210218
18.618311
100.11673
212.58625
515.8716
953.23964
1463.3369
2083.8847
2925.6948
3756.8244
4859.4919
5972.2455
7102.8922
8263.6316
9370.686
10470.993
11538.442
12574.294
13541.571
14444.357
15419.205
16031.504
16580.081
16861.813
17197.977
16858.732
17196.222
15895.821
14420.062
1692.5997
470.45376
1002.7677
1205.849
1039.8545
1256.7635
848.46469
942.97079
598.64364
405.90858
199.28527
36.394176
-200.88219
-325.89488
-554.30596
-546.52614
-650.65046
-531.98523
-512.67482
-339.70936
-15.757475
446.76394
990.84376
1453.6242
1980.8087
2669.6952
3301.1262
4028.4997
4814.0169
5587.8361
6404.7111
7239.6613
7973.3967
8836.9122
9500.005
10250.637
10945.403
11593.405
12487.586
13090.809
13716.593
13885.938
14407.964
14317.069
15103.59
13889.797
13712.637
4733.5398
2448.5516
3087.1232
2560.7462
2564.4268
2357.7584
1982.9198
1719.8245
1503.002
1162.936
1252.3603
912.80365
724.46214
581.0653
408.06474
307.86513
264.872
239.63662
289.56307
343.37261
626.55743
839.72749
1140.0981
1119.1785
1124.3106
1001.8796
919.70682
866.87571
831.14502
785.6387
763.71055
749.22809
673.10943
740.45125
647.48389
807.30642
964.53145
1078.963
3975.4736
8676.1532
9233.4288
9910.879
10500.759
11121.572
11671.119
11607.387
14305.124
12004.62
9292.7814
9555.2088
9305.3854
9157.564
8752.1395
8189.8863
7542.3538
7030.761
6368.033
5846.0092
5237.9795
4859.3135
4456.9857
4054.8472
3804.5685
3455.251
3229.9816
2956.9976
2670.4402
2503.4891
2035.218
1908.6762
1641.2493
1427.8576
1176.9359
1036.3459
793.95047
475.68472
235.12761
-9.7097747
-274.852
-456.51678
-498.653
-698.42429
-302.91403
-249.23196
148.68136
520.04404
2247.9903
2912.512
3622.122
4632.4574
5848.7445
7263.6491
9325.1143
14958.031
18687.25
15752.288
15505.68
15454.132
14816.789
13898.425
12947.658
11636.625
11056.512
9644.3651
9081.6803
7834.347
7097.1424
6130.753
5549.9841
4885.0937
4421.8287
3919.9789
3458.4452
3030.3021
2572.9531
2025.8221
1458.6944
787.30949
369.87085
-76.453436
-218.39458
-382.04184
-335.04739
-146.2684
77.853593
324.87175
608.86044
942.26265
1214.416
1896.0244
2199.2481
3353.849
4003.8856
2616.82
3550.1655
5358.9693
7537.4121
9745.159
12084.205
15105.387
18700.618
8971.8733
9508.3762
8167.0411
8098.901
8318.8863
8490.0594
10800.844
3729.215
3749.4194
3213.3771
3295.1431
3395.393
3640.9357
4627.1374
762.94056
407.28443
32.437398
205.24734
113.12953
247.93963
861.66987
397.55731
72.137937
-6.1734263
-17.022035
79.748906
421.68228
1057.3168
1594.1493
963.20915
694.07899
625.582
742.38121
1152.6241
1984.5438
6390.2221
4426.4579
3974.9863
3673.5463
3872.8999
4609.804
6840.5723
12462.122
12457.534
10315.256
10692.907
10406.451
11387.896
15037.156
38741.003
34991.675
37829.244
40650.298
40357.459
42600.738
40811.957
33076.635
34461.774
31213.356
30000.252
33897.599
33913.188
35173.874
26252.447
27023.982
28538.623
28110.675
27735.302
27647.623
29534.736
26268.73
28988.898
28019.027
28643.182
28840.219
29294.173
27009.328
23711.199
24310.465
26081.039
25975.974
25750.764
24779.308
25319.865
21789.623
21954.867
22308.815
22825.523
22590.713
22593.844
21685.031
19410.692
19425.751
20824.199
20525.501
20761.431
20614.054
20860.571
17196.315
17089.018
17385.659
17389.434
17305.349
17155.321
16953.488
15240.411
14687.556
15261.683
15382.015
15561.63
15525.782
16127.941
12926.256
12733.398
12837.969
13289.979
12796.976
12762.065
13086.863
11518.265
11067.247
11575.373
10962.859
11269.991
11091.424
12015.989
9585.2501
9489.8657
9248.6683
9700.9436
9520.503
8792.3247
10803.17
8230.6916
7667.6055
8203.3291
7694.1788
7923.5775
8003.3377
9190.6305
6496.6388
6299.4355
6748.6706
6334.0952
6968.6737
6154.5119
8118.7376
5474.4468
5146.9401
5365.9007
5146.0641
5261.3972
5035.4933
6533.7471
4266.9868
3714.8752
4432.3635
3820.6808
4491.9808
3923.7504
5519.8774
3099.0935
2978.162
3369.8617
2888.8592
3408.1673
2830.6278
4236.1351
2405.4219
2024.1032
2712.9467
2136.0461
2719.6671
2211.9637
3436.3582
1684.4881
1493.1687
2199.8467
1477.8419
2131.3187
1570.4766
2771.3577
1326.8898
1125.0265
1787.6282
1183.5738
1771.5288
1280.0342
2333.9103
1150.8946
946.27777
1654.523
936.28891
1511.163
1027.4128
2126.1041
1210.1813
1064.412
1624.1333
1016.9971
1562.4449
1130.2446
2188.6467
1602.8225
1413.1435
1923.8774
1382.3513
1838.1562
1472.9783
2591.6573
2285.526
2165.668
2521.3464
2077.4776
2417.1771
2069.4015
3111.1377
3311.7887
3198.3006
3168.494
3045.0862
3213.7609
3015.634
4128.7844
4649.4268
4361.7581
4291.6076
4232.0885
4127.1061
4145.3777
5212.959
5984.5626
5765.4387
5672.1424
5551.0464
6046.3617
5405.776
6404.8068
7631.4647
7106.2959
7293.0832
7006.4417
7142.196
6521.7387
7692.0639
8853.7705
8777.9418
8569.74
8815.4149
8765.8815
8629.0148
9172.8415
10761.998
10272.708
10607.951
10618.526
10675.595
10395.883
10884.521
12371.58
12436.376
12441.902
12763.641
12643.458
12625.246
12874.399
14565.63
14448.333
14651.04
15017.838
14906.733
14973.289
15114.977
16581.32
16707.708
16803.211
17307.447
17115.037
17347.312
17475.984
18812.897
18908.772
19025.339
19594.876
19300.373
19621.037
19812.089
20841.14
21020.758
21010.159
21667.962
21473.259
21993.259
21916.336
22986.18
22964.939
22967.795
23640.786
23125.156
23695.142
24021.834
24193.823
24121.716
24370.562
24895.26
24888.374
24130.731
24477.919
24632.077
24299.912
24325.676
25062.58
24438.722
26503.589
26573.128
26429.498
26160.437
26489.247
26691.388
26500.909
27224.213
27769.902
27181.07
26949.058
26654.039
27297.942
26906.864
27356.647
27769.454
26961.149
26372.616
26450.891
26817.897
26505.98
26971.943
27234.548
26167.69
25728.886
25656.092
26106.288
25759.789
26203.413
26451.808
24803.788
24528.549
24641.883
24927.878
24625.837
25101.101
25166.696
23114.05
23030.788
22981.307
23234.563
23008.464
23452.655
23371.891
21071.64
21037.654
21048.163
21283.575
21145.469
21495.471
21370.008
18714.011
18825.943
18805.14
18981.844
18870.084
19151.165
18918.024
16212.059
16343.607
16334.734
16383.942
16512.721
16547.685
16734.949
13445.449
14266.438
14306.182
14428.634
14414.779
14433.047
14454.297
7167.7914
8593.3016
8480.1178
8510.9144
8495.7707
8939.1396
8138.7154
10826.397
11005.849
11180.148
11237.508
11202.772
11122.71
10780.828
14074.805
14493.951
14468.663
14533.993
14445.435
14694.283
13908.632
18616.393
20363.608
19380.947
19323.807
19537.46
19343.801
18837.488
21354.201
21448.901
21182.803
21433.357
20719.489
21537.366
20568.244
19520.338
19924.661
20079.669
19995.258
20679.481
20200.712
20145.128
31217.834
28672.586
27170.546
26346.927
26911.472
27722.473
28145.642
28466.483
26330.296
26387.516
26199.148
26362.252
26683.25
27707.39
27654.596
28156.558
27480.55
27118.154
27801.916
27224.083
27314.838
25540.866
25834.299
25915.349
26103.219
25682.657
25092.408
25260.825
24909.187
24747.327
25023.252
24824.734
24816.85
24300.316
23937.715
22222.741
22340.619
22306.718
22159.947
22115.976
21391.569
21719.899
21640.018
21149.322
21121.028
20898.559
20985.446
20908.391
20937.259
19155.52
18899.231
18846.822
18653.849
18410.591
18158.538
18475.437
18228.468
17685.338
17739.592
17365.224
17587.906
16882.997
17642.076
16507.416
16077.13
15958.924
15730.507
15570.04
15347.569
15743.647
15196.646
14930.291
14900.834
14501.941
14600.093
14118.251
14528.779
14248.159
13660.477
13392.273
13492.871
13207.129
13150.723
13261.697
13004.241
12491.16
12471.18
12030.965
12043.044
11601.365
12412.776
12056.73
11581.529
11218.712
11220.47
11111.813
11198.474
11391.731
10995.987
10175.409
10408.081
10181.955
10219.929
9202.4867
10066.798
9689.9154
9333.4913
9298.7163
8749.7118
8856.6032
8734.3301
8931.3388
8667.2227
8409.165
8151.3207
8125.621
7887.5124
7588.4042
7914.6298
7719.3689
7244.7617
7230.5529
6934.295
6792.0063
6552.4058
6743.5736
6484.3028
6280.4956
6124.9743
5920.775
5841.7569
5518.6813
5685.5857
5466.1612
5196.2142
5070.3687
4932.3844
4779.301
4492.5589
4637.9689
4260.1418
4061.3751
4013.5324
3815.6249
3721.8047
3469.42
3616.9491
3144.2814
3001.2413
2904.8403
2778.3061
2695.4365
2434.1066
2680.2799
2106.3948
1881.0922
1852.5377
1737.6112
1641.5284
1475.4897
1908.8689
1256.1669
967.22332
953.80368
837.42592
771.66653
673.60124
1309.7716
486.40334
150.52699
145.49899
37.283176
-41.042253
-87.824881
809.33291
-75.841649
-582.79271
-548.27323
-654.52268
-704.4025
-702.34162
444.86207
-793.01249
-1277.6089
-1289.1614
-1345.1764
-1410.1556
-1411.4073
-71.210131
-1492.8415
-2001.0815
-1950.3757
-2049.8352
-1986.3146
-2013.7667
-539.71882
-2314.8863
-2768.9351
-2645.4477
-2798.6746
-2714.4028
-2759.9001
-1204.1422
-3112.0965
-3399.6391
-3409.4056
-3500.7704
-3381.3032
-3391.3626
-1773.8366
-3802.4928
-4088.8574
-4037.6231
-4136.4663
-3994.9268
-3993.5839
-2314.1964
-4424.2651
-4604.807
-4591.482
-4678.098
-4538.8152
-4504.0794
-2728.8886
-4883.839
-5034.3107
-5050.1176
-5153.4451
-5006.4653
-4920.4603
-3050.0476
-5211.2456
-5353.6959
-5394.1852
-5435.1083
-5308.082
-5136.1198
-3151.9205
-5283.9067
-5489.9943
-5520.9471
-5563.732
-5534.9097
-5360.5209
-3365.1906
-5348.5349
-5570.3922
-5592.0166
-5690.2676
-5589.5323
-6198.8826
-4263.6589
-6087.2077
-6487.7183
-6584.3402
-6594.6213
-6278.7363
-5182.414
-1725.1977
-4334.9034
-4804.9013
-4919.4417
-4858.1443
-4827.9801
-4684.709
-2292.7608
-3853.0002
-4219.3318
-4202.1115
-4170.2842
-4169.6451
-3850.2291
-1370.9855
-2968.4081
-3404.8217
-3462.2946
-3329.1059
-3354.0896
-3038.1052
-743.08644
-1898.668
-2305.0872
-2241.6415
-2174.2982
-2178.321
-1944.7031
142.07675
-827.639
-1166.0728
-1134.8473
-1076.4712
-1026.6856
-755.15672
1262.3948
1058.7049
893.03096
847.69332
987.33701
910.09271
1132.0683
2629.5744
2443.6616
2147.3892
2225.1185
2234.2162
2245.1789
2531.668
4157.922
5264.1208
5349.5187
5265.6191
5346.6412
5294.8418
5620.187
6645.5509
7050.4595
6947.1768
6915.7044
6936.596
6996.0823
7142.7492
7743.4743
12770.512
12856.634
12738.695
12806.953
12825.998
12900.614
12982.567
33164.397
22348.349
20066.311
18844.013
18957.55
17298.729
16234.001
14808.159
13493.635
12138.957
10988.569
9215.1396
8094.8025
6810.4441
5436.4706
4972.7923
3960.3841
3311.5613
2856.5523
2474.0464
2248.4034
2076.4607
1951.0438
1817.9183
1738.9199
1880.2804
2393.1593
3098.7488
4228.8223
5595.4914
7167.754
8810.2238
10485.021
12001.954
13591.108
14703.374
16717.346
16756.409
17445.933
18092.283
18683.622
19085.634
19343.769
19387.516
19216.474
18403.044
20420.939
14105.786
13808.327
10525.061
10824.4
11043.834
9519.0184
9830.0961
8886.3797
8602.9482
7697.5536
7212.6422
6445.9754
5985.6316
5312.9662
4907.8764
4493.4806
4020.9893
3604.9269
3375.1798
3091.3371
2904.9804
2803.8452
2727.8405
2856.8561
3046.2541
3416.5963
3859.2976
5133.9306
5945.4821
6793.2675
7669.1084
8538.5494
9336.8471
10204.332
10879.944
11582.632
12037.364
12521.88
12989.353
13130.292
13300.306
13161.522
13056.767
12546.151
12607.16
11186.225
15368.605
4602.7036
4590.3013
4182.2625
4427.0065
4412.7678
3147.626
4116.1386
2914.9171
3424.311
2683.8022
2679.7145
2549.3415
2650.5339
2874.2393
2904.0664
2550.3139
2570.8116
2253.8302
2148.4205
1928.8422
1797.4769
1643.6777
1544.9198
1376.612
1415.8569
1379.3789
1580.6697
1486.5571
1648.2895
1738.7493
1871.4567
1948.9969
2135.7369
2222.3104
2314.7264
2543.0898
2688.3835
2947.485
3250.0606
3644.2524
4244.6876
4947.5876
5667.4332
6846.1857
7984.5618
9229.3519
12857.085
1404.1172
1833.0615
619.51661
2779.1827
986.20528
2301.2901
756.95747
1712.2107
1481.2902
1209.9185
1834.0799
1090.9138
1717.4911
2722.6074
2546.4008
2651.2765
2523.9128
2429.4775
2354.9141
2220.3833
2052.1912
1903.4824
1662.3802
1615.5355
1439.7658
1408.5148
1216.6353
1111.6193
947.35563
795.8523
607.83257
463.19472
339.74253
189.32016
229.41382
259.20851
360.09442
592.46844
1056.2288
1589.6118
2345.6583
3069.0948
4403.8838
5487.268
7615.5267
8673.4711
12511.751
3840.2859
1291.8107
2315.6559
2004.2066
2437.9999
2449.296
2639.8127
2832.6819
2239.7029
2880.8881
2067.5158
2410.1719
2244.043
2090.9528
2339.2074
2127.9472
2106.165
1942.0815
1847.9903
1703.1102
1607.7897
1430.2291
1357.8161
1078.1503
743.34924
309.32697
-64.89897
-367.1143
-722.04186
-1128.0876
-1525.3225
-1907.0311
-2275.2526
-2519.7042
-2651.035
-2775.0272
-2591.9223
-2217.9246
-1690.2928
-750.7848
247.06009
2018.5456
3687.769
6057.3031
8624.6755
11353.144
13858.085
9208.866
8701.2768
6112.4663
8973.8339
6368.425
7991.2153
7014.5056
6147.0129
6655.4705
5564.5133
6066.7592
5396.4204
4674.0645
4584.2207
3920.6351
3641.0474
3219.2656
2896.7616
2564.1899
2257.3489
1951.1187
1729.6668
1559.095
1356.2986
1346.3603
1230.9369
1466.314
1521.2695
1680.8343
1844.1428
2123.2426
2345.2525
2686.9157
3214.3283
3674.9161
4449.5637
5302.4277
6093.2711
7338.4104
8186.8514
9648.1003
10715.014
12083.618
13368.118
15091.065
16236.154
17691.024
26508.028
14976.059
18244.483
14535.692
16332.476
14701.204
13628.784
13202.018
11371.698
10542.624
9300.5337
8899.3733
7345.0237
6798.6301
6062.3536
5636.7374
5267.9752
4790.3186
4388.4477
3834.5091
3297.8457
2601.1983
1948.0992
1112.9347
624.22497
377.8068
38.265481
109.57671
86.38094
244.62877
180.26766
169.01776
156.9093
290.86459
410.36466
1584.2878
1670.5621
2810.8701
3870.9187
6036.9411
7818.9331
9963.441
12157.707
14325.494
16390.101
18397.167
20650.284
24783.341
21068.956
20765.125
20306.264
20538.823
20344.662
21021.664
21295.48
21841.135
20464.676
20434.043
20115.836
20507.642
20825.55
19301.913
20543.457
20634.536
20298.011
20347.056
20303.021
20127.133
18489.94
18966.349
19061.226
19211.827
18937.365
18723.104
18135.737
17215.179
17955.333
18509.908
18310.86
18334.596
18150.804
17685.095
16088.707
16297.392
16323.8
16545.426
16317.273
16134.323
16086.322
15038.026
15099.856
15430.335
15174.449
15153.27
15244.653
15031.885
13570.903
13569.969
13645.216
13652.81
13704.116
13419.072
13550.934
12625.721
12678.446
12568.003
12685.439
12401.152
12682.845
12559.84
11300.651
11083.259
11258.879
10980.073
11075.785
11047.428
11028.725
10173.556
10284.659
10178.528
10154.485
10254.938
10176.587
10266.767
9168.4593
8888.0316
9062.6274
8860.5077
8827.8627
8818.4241
8859.0121
8176.4087
8058.4867
8003.3843
7934.4239
7960.5503
7914.1097
7768.7004
7155.5461
6900.4057
7124.868
6879.487
6993.6185
6705.1914
6837.4368
6264.3211
6274.0732
5914.8563
6016.5497
5828.4026
6070.9279
5688.8018
5529.5685
5327.3731
5366.5587
5374.256
5214.9063
5044.3787
4747.0777
4670.1263
4552.9747
4513.5022
4462.1782
4381.5694
4339.4514
4164.1171
4027.6209
3932.348
3918.4379
3869.5304
3773.1092
3756.3809
3344.5632
3457.0253
3361.1106
3298.6694
3277.0023
3220.1544
3116.3931
2770.5794
2916.7696
2907.3192
2828.8993
2845.1044
2675.565
2634.1674
2285.8974
2570.3691
2559.3943
2492.54
2454.6109
2324.8098
2302.4171
1914.7514
2252.7523
2319.561
2244.3132
2216.9095
2071.3645
2044.3793
1681.8612
2116.6658
2194.4141
2146.9844
2099.439
1941.5956
1882.866
1610.2505
2000.4805
2052.1945
2088.2768
2044.3224
1899.8097
1858.8882
1613.7501
2030.9754
2000.3493
2105.4589
2044.446
1920.0773
1815.1456
1656.603
2136.3997
2047.1946
2190.088
2115.0766
2067.0923
1924.4049
1849.7728
2381.8473
2238.4943
2434.9901
2440.2829
2329.5978
2292.1878
2293.0722
2919.0232
2725.7036
2925.6831
2874.5283
2879.1173
2679.0882
2821.0369
3613.2697
3305.4635
3696.8951
3625.3445
3581.4829
3460.7122
3663.225
4507.6822
4324.6271
4574.5989
4486.6395
4552.8996
4373.0293
4663.5128
5575.4192
5304.8242
5664.167
5640.335
5644.144
5464.0186
5848.1342
6699.2761
6543.6958
6896.3297
6804.3481
6809.1739
6664.7096
7123.9736
7946.003
7820.0649
8134.4137
8098.9817
8113.7645
7997.5292
8554.9474
9260.3923
9150.3666
9486.0943
9461.5656
9431.2263
9341.8514
9859.9119
10492.573
10420.213
10710.815
10683.252
10670.332
10515.993
11297.361
11741.129
11617.318
11882.867
11913.644
11825.258
12008.38
12324.932
12809.753
12542.652
12939.065
12874.387
13034.927
12611.408
14782.988
13649.273
14328.554
14443.649
14713.61
14438.748
14707.015
14642.451
14632.053
14541.612
14739.211
14808.696
14718.276
14631.886
15714.081
15427.589
15338.438
15261.09
15477.978
15314.503
15409.095
16304.293
16066.118
15887.844
15899.693
16104.973
15994.28
16055.461
17006.669
16791.879
16723.295
16613.021
16848.806
16663.637
16767.552
17564.06
17206.938
17119.702
17017.241
17276.129
17124.347
17316.028
17991.489
17617.568
17514.187
17466.067
17676.992
17527.364
17758.413
18355.059
18236.05
18267.207
18170.366
18380.858
18292.001
18610.06
18803.515
18082.695
18003.917
17962.981
18198.682
18130.982
18251.106
18287.333
19299.707
19277.374
19238.247
19369.096
19302.566
19399.463
19548.853
10300.719
7999.1906
7403.7512
7222.3815
7103.6637
7239.9609
7773.7668
11059.015
12082.815
11474.584
11660.423
11641.45
11737.621
11835.372
10233.207
10676.522
10851.975
10643.861
10781.979
10298.801
10423.735
9999.2191
10728.869
11047.163
11137.558
10866.882
10731.272
9921.3851
9432.5248
9716.8103
10196.765
9965.2104
10190.28
9700.8095
9650.4211
9050.5474
9295.3851
9001.8566
9060.2975
8863.8142
8742.5316
8686.7259
8279.3656
8413.3184
8666.587
8593.0279
8585.5943
8490.5034
8263.0635
7885.5238
8027.0206
7664.1037
7644.3076
7560.7073
7382.5491
7486.9447
7227.0566
7247.0663
7173.6134
7135.2137
6951.1755
7014.1318
7013.3535
6700.136
6657.999
6539.271
6353.6939
6453.7168
6302.6278
6300.7289
6067.4858
6178.0468
5939.2889
5922.9896
5726.4721
5718.7319
5742.7866
5615.881
5583.6379
5346.3101
5279.5796
5146.0363
5110.4895
5101.7564
5013.9161
5038.3897
4937.2309
4950.1139
4650.4681
4786.1466
4576.4643
4536.2666
4429.3058
4420.1512
4189.2639
4098.8684
4047.9873
4095.2261
4132.3583
3987.1304
3995.0043
3804.9359
3796.0221
3654.1109
3583.9907
3678.4838
3415.3048
3548.6152
3320.5139
3273.9242
3130.2372
3104.507
3212.7849
3133.8573
3111.3399
2938.2526
2844.5779
2824.6724
2826.1614
2888.0267
2723.3214
2763.6438
2619.9123
2533.826
2492.7508
2392.8902
2508.0769
2402.2117
2433.6915
2271.2864
2218.6923
2145.9774
2137.9012
2290.8082
2167.203
2204.1501
2096.2582
1991.6223
1975.0191
1994.0006
2062.6193
1972.6032
2022.9028
1867.036
1825.449
1873.3014
1824.2297
2003.4628
1979.651
1962.3161
1853.9977
1859.9747
1831.2093
1884.2795
2032.484
1962.219
1952.7832
1899.9375
1814.3304
1980.6129
1995.9891
2262.1338
2163.6695
2182.5977
2047.205
2069.2533
2299.7686
2324.9449
2590.9369
2468.1684
2510.5357
2335.9598
2379.3464
2550.619
2578.864
3213.6366
3007.4841
3061.5343
2851.6708
2826.6984
3049.0529
3280.168
3936.9678
3545.378
3569.5958
3467.6334
3561.8827
3937.4577
3953.2778
4801.5897
4180.8185
4156.4806
4297.3308
4248.5424
4662.7961
4677.7329
5441.3953
5295.0135
5225.3111
5084.7342
5067.4914
5616.5481
5512.1281
6445.0918
6179.1817
6011.135
6024.4035
6043.4672
6590.7434
6497.1225
7436.7845
7160.0758
7035.9002
7069.0577
7004.0484
7653.5497
7556.9006
8479.6009
8250.2218
8069.2313
8092.0717
8076.222
8814.4892
8699.9074
9630.9477
9319.2356
9118.374
9180.1678
9181.4351
9949.04
9771.0654
10715.014
10340.656
10135.889
10202.754
10197.229
10974.364
10909.618
11801.224
11343.263
11144.681
11218.646
11208.859
12158.184
12063.786
12829.162
12233.189
12030.753
12161.267
12206.214
12995.514
12933.04
13807.942
13105.555
12905.002
13047.169
12824.245
13928.394
13693.739
14583.489
13685.261
13519.979
13736.984
13690.681
14693.241
14561.858
15399.588
14343.29
14339.852
14438.547
14359.711
15223.235
15207.146
15821.449
14586.477
14667.35
14716.554
14733.303
15580.34
15541.641
16261.632
15084.2
15271.459
15288.971
15224.641
15920.647
15812.498
16211.526
15061.758
15232.486
15218.104
15188.243
15834.536
15877.311
16424.647
15416.719
15607.712
15631.457
15601.996
16110.293
15966.825
15971.988
15098.331
15220.698
15217.821
15136.243
15458.332
15475.686
16252.961
15619.61
15630.157
15705.444
15680.818
16033.31
15817.051
15024.955
14263.738
14277.926
14305.322
14254.532
14249.159
14032.592
15449.323
15329.555
15086.083
15112.013
15120.395
15281.043
15407.595
3925.3028
3213.7239
2841.9897
2766.6325
2577.8684
2654.4887
2591.0079
3423.0942
3992.257
3805.6816
3915.7596
3833.6374
3623.2566
3708.0522
4311.5902
4420.19
4468.2226
4546.1992
4393.6197
4248.2262
4162.1532
3640.3212
4098.2354
4654.4431
4831.218
4581.4037
4556.7152
3907.797
4205.1658
4343.3502
4445.7134
4217.9404
4206.0451
3808.756
4118.4324
3565.1493
3076.5226
3196.1893
3513.8696
3284.4404
3261.197
3172.2779
3901.1923
3359.1027
3808.1926
3779.4402
3803.1424
3851.4031
3754.582
3566.8148
2791.7552
2685.9721
2512.7845
2512.3746
2580.5135
2579.531
3247.5087
2586.3058
2869.4454
2946.9141
3032.3977
3096.9524
3031.4137
3134.1016
2366.5885
2324.6982
2184.6833
2121.0115
2235.7183
2293.3547
2785.0637
2046.0513
2152.605
2050.8855
2162.8038
2173.9511
2190.8923
2621.4893
1809.6767
1770.4977
1776.4603
1875.5647
1914.3399
2028.0251
2283.8412
1454.5964
1590.305
1628.4427
1683.5673
1701.6984
1893.1149
1893.1546
1564.0325
1553.3019
1388.272
1518.6122
1570.6151
1519.6476
1570.72
1482.0528
1484.3281
1373.8869
1259.8097
1372.6854
1459.8611
1399.6472
1372.9664
1325.9601
1232.0382
1169.4089
1180.8898
1306.1252
1353.3274
1249.1599
1280.1155
1174.7456
1020.9174
1159.2768
1202.3019
1228.8702
1134.7917
1174.3448
1024.4217
945.52816
1038.4637
1051.8807
1213.8684
1095.4049
1098.1107
1019.6898
869.30037
992.9573
1038.4455
1177.1481
1025.1101
1069.6529
976.60184
822.28406
998.45706
998.86979
1278.5403
1106.3371
1106.2404
1021.1721
910.76652
1031.2822
1064.7552
1439.3341
1155.2581
1178.5788
1141.673
951.69961
1132.5624
1186.2092
1677.6551
1342.1332
1423.7159
1239.9893
1226.7173
1313.6384
1434.7284
2012.4095
1588.2649
1627.7628
1552.5489
1541.1239
1482.1013
1600.0052
2459.99
1854.5039
1988.6321
1900.0612
1900.0818
1818.3698
2120.1053
2963.1865
2249.7808
2410.7532
2240.1767
2329.8033
2262.0461
2380.042
3672.8153
2746.761
2915.5644
2738.0512
2990.8485
2675.3843
3080.0062
4317.8862
3382.3173
3453.069
3405.2503
3534.8893
3214.9277
3680.6016
5146.3685
4074.2623
4243.1109
3996.0582
4326.068
3856.9118
4395.3928
5972.0528
4706.8961
4782.8461
4701.4557
5030.6466
4479.0103
5114.6819
6775.9401
5476.1974
5624.3169
5519.0017
5833.0135
5244.2861
5908.841
7639.8104
6255.8968
6354.6244
6209.5558
6567.5108
5938.131
6595.5829
8444.0225
7005.3666
7074.4459
6973.9482
7336.6548
6613.8845
7350.7252
9261.708
7759.4649
7828.0929
7698.8423
8033.5925
7358.8536
8064.8461
10025.761
8489.0545
8505.1848
8352.6516
8735.3008
7941.9138
8598.8516
10736.581
9121.4866
9149.5306
8977.6694
9288.6591
8597.9124
9204.3023
11354.488
9736.4157
9757.2561
9518.5314
9964.7834
9077.521
9746.8742
11818.588
10194.907
10273.777
10043.209
10384.322
9657.7663
10151.986
12204.95
10775.657
10721.569
10599.021
10806.176
10122.099
10558.496
12537.618
11144.068
11081.649
10991.448
11162.042
10658.831
10834.464
12709.033
11590.641
11449.425
11406.578
11552.146
11028.166
11157.781
12950.491
11899.146
11744.632
11805.83
11830.257
11610.649
11491.813
12995.854
12221.66
12069.541
12130.793
12157.16
11986.785
11623.199
13017.656
12351.329
12164.589
12369.735
12210.391
12275.39
11882.551
13343.965
12818.546
12719.291
12876.977
12710.681
13057.345
12336.174
12751.405
12362.693
12391.65
12561.623
12392.02
12631.121
11808.532
12905.936
12851.131
12665.047
12821.457
12782.42
12971.181
12968.742
1501.8788
1457.2067
1273.4099
1281.2874
1144.5103
1068.8969
522.7897
1211.6301
2076.3235
2282.3528
2592.8697
2499.8385
2312.7305
1973.3522
1281.0157
1365.7885
1346.342
1442.962
1387.9727
1260.7456
817.50813
1642.4739
2487.6232
3081.1128
3336.5949
3378.5335
3150.6571
2573.9902
1343.225
1240.7175
860.62812
687.22012
617.0861
533.47614
768.89586
1788.6144
1913.3517
2081.4647
2329.9163
2357.6797
2459.2402
2175.5535
1517.957
1151.6712
881.68726
1020.7008
902.77377
768.34771
1216.8318
1960.7048
1562.9995
1401.8239
1469.9527
1339.3134
1604.7849
1579.6729
1757.4663
1400.4223
1250.8042
1187.6266
1445.2175
1224.9385
1646.2493
1904.9819
1498.4273
1068.1449
1120.6055
958.22809
1159.1403
1244.5593
1814.8798
1230.9217
1438.3114
1219.1527
1582.2479
1492.6617
1644.6805
1844.4245
1471.7883
1223.5964
970.93962
1128.555
1105.3221
1434.7008
1883.5388
1145.873
1045.9344
1259.9928
1414.2682
1378.0237
1401.8007
1768.4695
1277.3269
661.25633
849.95808
1134.656
1139.4597
1131.2588
1146.8633
1067.4699
1325.9657
813.15087
1231.8823
1000.5489
1071.5548
1155.9449
984.19538
1225.5552
863.19429
1087.6726
1068.2964
1140.0039
1120.9345
935.83574
1212.8051
828.36248
1128.5752
1047.5507
1162.7666
1144.1092
961.2004
1232.5385
866.78935
1129.4045
1058.8847
1225.9984
1113.7819
915.79112
1247.1272
838.31346
1165.2599
1085.2064
1255.4315
1212.7575
1007.2588
1301.8044
913.42025
1235.2278
1102.6443
1320.2674
1265.3171
976.8979
1331.7885
950.74001
1230.274
1176.6506
1370.5286
1339.8066
1130.8352
1452.5333
1034.2863
1376.9577
1295.7192
1481.8189
1503.2181
1257.7021
1420.2503
1237.1769
1425.8245
1410.7554
1527.3055
1744.2523
1357.6519
1609.4868
1410.9849
1486.2928
1603.5011
1816.5663
2005.2803
1526.8965
1847.7797
1490.0512
1579.5512
1828.5305
1839.0653
2379.9386
1841.8354
2005.9855
1789.9766
1855.8423
2046.2029
2176.6058
2649.4975
2024.7601
2238.4677
2126.599
2015.6136
2347.618
2289.9448
3051.5162
2328.2672
2601.5437
2350.4026
2367.5615
2672.1974
2569.361
3448.0609
2609.2628
2767.6572
2746.63
2489.9852
2968.221
2767.7486
3778.0678
2870.8881
3086.5959
3021.3924
2864.3649
3391.0477
3031.645
4173.1741
3233.899
3435.6787
3413.9912
3139.5982
3703.2644
3255.198
4557.9705
3520.7253
3719.3672
3686.0519
3417.9961
4101.3429
3493.9917
4911.009
3816.4951
4076.2479
4108.1246
3841.2744
4519.6353
3778.1825
5313.2775
4169.9333
4443.3304
4461.1088
4135.0464
4860.9217
3971.3576
5616.8338
4451.1982
4749.1566
4811.6652
4510.6775
5286.7961
4273.117
5990.4123
4815.8161
5126.9704
5239.8513
4965.2724
5635.4361
4582.4983
6315.1051
5153.1339
5484.3233
5681.4392
5271.273
6094.8864
4842.8054
6643.1464
5546.9355
5941.3641
6045.4642
5800.5111
6473.9193
5240.3049
6748.5653
6035.0012
6384.3396
6532.0655
6286.4328
6959.87
5601.9235
6854.6239
6387.4796
6813.4996
6934.2502
6740.0272
7343.9521
6021.743
7410.3636
7016.8241
7432.3418
7565.6285
7402.8261
7935.973
6617.7441
7942.6016
7454.0846