/*--------------------------------*- C++ -*----------------------------------*\
  =========                 |
  \\      /  F ield         | OpenFOAM: The Open Source CFD Toolbox
   \\    /   O peration     | Website:  https://openfoam.org
    \\  /    A nd           | Version:  6
     \\/     M anipulation  |
\*---------------------------------------------------------------------------*/
FoamFile
{
    version     2.0;
    format      ascii;
    class       pointScalarField;
    location    "0.68";
    object      p;
}
// * * * * * * * * * * * * * * * * * * * * * * * * * * * * * * * * * * * * * //

dimensions      [1 -1 -2 0 0 0 0];

internalField   nonuniform List<scalar> 
3969
(
906326.4
-1399163.4
-276.34791
316.59082
1728003.7
-2833720.5
742.04441
-430.28
723025.76
495831.87
240422.27
-7309.4512
-207510.02
-501680.1
-555714.98
-784.65978
-1112.4607
-932.73254
86.995303
803.21113
825.91028
812.96686
294943.45
326419.23
310617.35
321922.25
309613.74
305111.07
291842.27
280817.93
268099.46
253087.14
242678.89
230499.99
217820.27
208365.86
197796.34
186755.87
179070.95
168716.9
161194.25
151572.86
143956.2
135399.31
127637.69
119915.93
111887.53
104278.87
96442.644
89335.548
82842.002
75437.721
69009.965
62571.221
56254.395
50273.101
44841.89
39282.563
34216.113
29719.918
24866.182
20619.724
16612.038
13004.007
9254.2374
6538.7189
3868.1482
1719.9111
428.9934
-312360.62
-257087.37
-309357.59
-266817.76
-295595.05
-266092.31
-268976.6
-248786.47
-242219.07
-227817.62
-217319.13
-208638.91
-194339.65
-188046.72
-176962.1
-167980.65
-159426.59
-149360.24
-141912.97
-133272.36
-124550.77
-118279.25
-109553.21
-103523.65
-95893.925
-89504.047
-81924.376
-75444.775
-69397.879
-62905.036
-58069.121
-51771.694
-46980.364
-41590.085
-37261.407
-32562.248
-28697.191
-24590.633
-21000.402
-17158.985
-13312.211
-10129.915
-6946.0091
-4402.1946
-1934.2231
-334.92192
516.89452
1267658.8
951168.56
417016.85
-52922.078
-440261.35
-956457.75
-788479.34
-370051.18
-415414.89
-250063.74
-353343.35
-304351.67
-304233.88
-293519.24
-277975.85
-268311.18
-240815.84
-253475.85
-227406.62
-226413.04
-213778.54
-202619.64
-195897.45
-182689.23
-175090.98
-164350.29
-154533.37
-146459.52
-137907.14
-129404.77
-121549.95
-114128.48
-107887.22
-99782.293
-90366.518
-82800.673
-74874.905
-66533.241
-59300.085
-52116.692
-44958.9
-38963.049
-33550.255
-27000.043
-22561.974
-18627.305
-14750.6
-11186.619
-8179.1242
-5251.9364
-3053.6489
-1119.5479
181.87869
1185.6254
1517.3026
1418.3074
1680.1038
-188.68985
38.703845
-1116.875
-1067.1983
946.58868
1930.3935
4148.6523
7354.8983
10947.922
14889.669
19160.198
22984.875
27824.386
31545.57
35860.657
42629.328
46699.389
52107.085
58108.187
64088.279
70396.528
76970.202
83366.869
90191.427
97417.554
103940.26
111368.29
118663.88
126829.25
134955.3
143668.11
151568.93
161792.04
170248.01
181213.18
189795.37
198109.57
210362.72
226850.47
231224.84
247645.21
253843.5
268692.63
287089.63
306045.93
302413.34
326001.57
319256.76
315903.36
337988.29
346546.88
805561.79
866373.13
908262.26
895716.28
887720.6
894374.31
720513.5
-1113539
-1410814
-1614210.2
-1720015.6
-1639094.3
-1623790.3
-1256601.3
185.67668
-195.7732
211.39182
-93.781522
-114.64112
-527.91362
-51.928801
-249.81771
-333.31991
-623.63255
-782.40066
-789.24348
-497.15698
-747.63019
245474.54
247781.71
246718.52
246921.91
244012.47
240487.29
231419.96
226458.99
213677.03
208971.82
198224.93
186678.76
181745.21
171514.98
164157.5
156421.39
149180.74
141318.67
133856.98
126578.96
119770.53
112208.97
105410.01
98483.595
92252.184
84834.48
78282.525
72342.757
65657.831
59617.259
53897.036
48003.303
42759.872
37683.101
32948.725
28460.662
24335.854
20617.842
17264.4
14383.332
11564.145
9359.2244
7121.9265
5685.2541
3734.4342
2140.4712
418.02036
154588.27
157007.25
152210.72
159477.01
159408.62
162346.67
155301.35
152044.15
145880.45
142798.94
134863.33
130583.87
123337.48
116530.79
112138.98
105517.88
100922.85
94872.465
90239.403
85062.286
79744.255
74556.225
69467.054
64746.975
59721.51
55551.423
51472.513
46837.301
43383.995
39532.173
36019.161
32498.243
29347.592
26036.064
22970.246
20027.333
17200.171
14918.014
12627.972
10734.453
8992.8259
7575.8074
6075.549
4971.8147
3399.4694
1903.1591
873.76783
67859.18
77678.381
69661.557
76308.928
74943.586
77407.102
74887.894
75223.656
72169.967
70039.996
68183.49
65140.138
62438.628
58530.685
55789.908
53284.091
51483.117
48824.268
47393.749
44813.015
43268.901
40970.675
38866.879
36172.511
33864.218
31133.63
28605.644
26454.969
24194.658
21860.99
19737.183
17523.692
15546.887
13365.724
11734.988
9901.94
8353.2149
7065.0288
5781.6934
4983.9918
4221.2384
3627.7918
3094.2711
2707.834
1979.1466
1374.4166
845.47999
-8340.4546
-4540.2837
-10345.754
-3076.1217
-8006.2461
-4347.0821
-8189.6013
-5029.7007
-6503.4336
-1159.9822
-4023.3192
-962.8013
-1459.1236
-280.66542
884.74093
1398.3516
1994.479
2720.8097
3206.8503
3240.4653
3642.4524
3610.3426
2524.4069
2182.9204
2560.6626
2254.7708
2304.9468
2222.9826
2122.1337
2016.9844
2012.2094
1695.2024
1496.6347
1155.6943
892.1493
479.1459
156.01705
-41.597871
289.0902
717.18859
807.02469
969.67447
1175.7343
1318.5051
1071.1331
1050.4713
760.40152
-96601.544
-83152.003
-87196.597
-87957.318
-91432.19
-87716.605
-86985.462
-81202.13
-79422.965
-71000.108
-71035.999
-62320.381
-62216.253
-55178.788
-53369.206
-48478.999
-45515.168
-41964.694
-38630.568
-36003.369
-31621.193
-26989.24
-24531.737
-20435.448
-19788.278
-19394.073
-16992.722
-15353.41
-14131.73
-12774.469
-11443.363
-10619.29
-9381.6164
-8690.3895
-7799.2278
-7018.9177
-6638.0527
-5707.5059
-6208.7257
-5137.7979
-4318.9382
-3232.8092
-2240.209
-1379.9568
-532.5783
-52.987419
645.9285
-178606.98
-162998.48
-165814.29
-172338.84
-171136.71
-165261.73
-161030.86
-151114.1
-147687.39
-136296.92
-133702.01
-123750.79
-119360.3
-113496.09
-107467.15
-100533.65
-95118.736
-88875.447
-83280.542
-78274.567
-71962.731
-67537.97
-59838.004
-54569.26
-49713.217
-45866.913
-42322.431
-39011.257
-35606.25
-32385.054
-29837.424
-26769.306
-24283.154
-21868.137
-19498.268
-17505.441
-15345.067
-13587.597
-11557.491
-9960.7099
-8029.946
-6130.7522
-4256.7484
-2349.7939
-1074.7518
-8.1522906
519.73594
-295761.34
-207224.38
-245791.48
-238705.78
-244244.09
-231481.77
-228345.74
-215099.98
-211626.54
-194870.18
-191567.16
-180164.72
-171311.4
-161172.28
-152148.78
-143347.88
-134331.29
-126742.62
-119116.04
-111610.92
-105277.2
-97995.727
-91395.192
-85347.372
-79256.718
-73876.696
-69170.897
-63122.221
-57598.594
-52386.382
-47535.623
-42554.708
-38061.673
-33789.697
-29798.07
-26251.507
-22918.606
-19582.889
-16959.171
-13751.094
-11009.408
-8233.2367
-5770.9354
-3467.7105
-1829.6353
-406.92659
13.207142
562444.67
535881.51
564601.57
564422.4
569275.44
554755.34
513064.37
367280.35
415855.94
393134.49
404879.64
403933.49
393738.57
377923.69
181145.51
214964.05
183192.18
199898.62
188426.63
189057.93
200585.43
32366.59
9990.5726
-674.93481
18222.851
3991.5636
-18452.209
52010.259
-113342.37
-117179.88
-127257.66
-113768
-119976.68
-116702.35
-71411.666
-376353.92
-397103.34
-394719.03
-406379.78
-415689.34
-402189.87
-384229.78
-466998.91
-422282.96
-368657.11
-376647.08
-354709.82
-328405.16
-367641.42
-509260.24
-527106.72
-594462.13
-617949.55
-629060.41
-615735.71
-478978.11
-383096.49
-443597.86
-444300.5
-453357.73
-474485.25
-451709.5
-412978.09
-311928.29
-355452.82
-374010.24
-376560.23
-374334.04
-348978.38
-367869.91
-308515.52
-336902.48
-328638.67
-349791.69
-336972.36
-334678.25
-313634.5
-305116.27
-323276.88
-335040.19
-335772.62
-334470.31
-321417.04
-323088.51
-291294.63
-285814.84
-291206.88
-298468.07
-298279.07
-291479.62
-288742.28
-273482.05
-281801.2
-286114.71
-291254.55
-288504.97
-290645.92
-288965.9
-265468.09
-262071.14
-262677.23
-266725.28
-264954.79
-266729.53
-264884.34
-249801.5
-251585.11
-252882.12
-256504.39
-257625.63
-261454.2
-261585.96
-240595.89
-237604.21
-237304.12
-239892.18
-239864.11
-238285.91
-240992.86
-227400
-227694.34
-226037.54
-229313.27
-229016.08
-231595.05
-234925.7
-214623.44
-214681.54
-214049.11
-218471.13
-217719.99
-215715.07
-222360.87
-207826.13
-201027.85
-206067.58
-204792.47
-207699.95
-207415.03
-214407.54
-192835.66
-191852.27
-196115.95
-195847.94
-198973.53
-196505.69
-202476.17
-185506.48
-181935.29
-186564.09
-184617.87
-187628.64
-186647.75
-193021.7
-174319.28
-171558.41
-176646.41
-175597.88
-180227.87
-178906.06
-184685.44
-164273.17
-163390.18
-167347.39
-166725.92
-170618.09
-169208.35
-173647.4
-155248.07
-154462.01
-158900.29
-157638.09
-162695.71
-160717.5
-165750.54
-145950.04
-146094.2
-150249.87
-148998.18
-153715.78
-151928.18
-156593.89
-137226.82
-137828.28
-142054.71
-140714.83
-145850.74
-144108.74
-148581.15
-129514.6
-129508.88
-133893.91
-132194.33
-137263.17
-135581.38
-139710.83
-121385.23
-121894.15
-125807.54
-124668.33
-129501.74
-127850.71
-132250.06
-114187.98
-113830.07
-118550.12
-116882.27
-121138.55
-120044.37
-123887.68
-106198.36
-107356.65
-110727.38
-108819.62
-113652.57
-112497.06
-116534.11
-99184.923
-100502.28
-102233.97
-102124.18
-105800.9
-105044.92
-108977.22
-91222.612
-93768.735
-93818.602
-95252.641
-97937.549
-98811.759
-102056.64
-86284.483
-86537.457
-87475.172
-88294.128
-89645.971
-90720.474
-93319.955
-79738.51
-79634.087
-80310.528
-81234.294
-82305.852
-83519.435
-84540.33
-73011.301
-72813.932
-73426.395
-73436.684
-74145.349
-75984.255
-76495.106
-66898.904
-66153.18
-66862.096
-66464.265
-67527.223
-68979.813
-69101.698
-60156.483
-60223.511
-60009.166
-59659.544
-60056.082
-61441.394
-61372.72
-54654.847
-53859.604
-53761.12
-53033.689
-53353.981
-54728.704
-54559.392
-48452.386
-48192.387
-47608.281
-46905.531
-46962.027
-48375.448
-48086.867
-43421.743
-42804.347
-42159.029
-41237.46
-41244.953
-42394.373
-41738.53
-38220.128
-37777.839
-36803.391
-35883.081
-35629.262
-36973.376
-36263.374
-33658.787
-33069.193
-31974.564
-31214.742
-30889.31
-31119.908
-31261.59
-29618.427
-28468.591
-28083.496
-26311.622
-26552.736
-27834.072
-26352.032
-25739.911
-24882.479
-23535.369
-23014.931
-22102.68
-22233.396
-22246.938
-21366.241
-20685.625
-19486.344
-18811.443
-18248.642
-18500.823
-18504.353
-17643.887
-16642.236
-15969.503
-14888.614
-14468.76
-14737.03
-14499.935
-13821.449
-13009.202
-12122.855
-11136.942
-10900.014
-10950.561
-10874.769
-10395.281
-9582.3454
-8832.7034
-8053.0651
-7713.4837
-7830.6774
-7737.3503
-6973.4783
-6020.1365
-5416.0433
-4687.2431
-4381.2378
-4658.5189
-4478.7942
-4252.4455
-3398.6286
-2993.7611
-2336.9228
-2113.6318
-2424.1728
-2126.0531
-1687.1179
-863.20264
-542.39911
-54.955474
181.85884
-314.1409
34.224401
-255.77264
248.92868
379.4052
773.72733
761.79128
345.00552
652.12045
482.08202
1086.2622
1051.7847
1184.9056
1029.4991
854.94288
1076.1954
-730.14816
-824.19012
-1009.9445
-1198.5593
-1185.9438
-1250.7867
-1181.9489
-2182.8002
-1849.1794
-1849.1565
-2134.1793
-2022.3229
-1951.9699
-2025.0638
-586.89806
-795.49979
-728.99275
-971.17801
-962.62633
-1183.7838
-918.32128
366.66205
417.82853
322.26125
147.80627
203.0624
-133.10861
343.30482
1536.3237
1337.1059
1799.0831
1333.8918
1439.955
1239.2309
1397.8485
1840.1854
1880.968
1640.7763
1490.8975
1584.2245
1184.4921
1781.0851
1162.3459
1589.0667
1396.7722
1285.6676
952.97221
876.10009
1455.3721
356864.6
360665.83
404245.08
396732.1
406672.42
383980.69
372676.72
369778.48
384381.27
399468.67
398739.46
401417.32
376454.64
368041.89
349732.78
356499.88
366838.66
367482.8
367847.35
349060.92
345231.45
328103.36
341675.26
349002.21
353276.87
350656.26
339293.28
337473.74
323140.57
326526
329836.09
332642.34
331263.39
326170.14
318505.44
303879.64
307059.52
312907
309094.03
311421.23
301660.77
301918.48
296669.9
296905.86
298718.84
297623.87
303202.68
295036.31
299941.91
277454.64
275781.97
281381.58
271724.17
278519.22
273821.67
274093.78
268282.56
270613.48
270832.78
267112.08
272695.04
266531.34
271198.44
255725.28
251675.43
251803.76
247575.13
253212.43
246878.95
251830.28
243767.18
240765.2
245881.87
239100.18
244901.47
238553.38
243091.18
229701.09
230204.27
229540.99
224054.67
229191.72
224350.93
228987.63
222466.65
217373.21
218950.87
214578.8
218167.33
213850.83
212589.1
209946.91
207705.69
206857.04
204896.78
206871.61
203933.78
207753.46
200080.9
197908.06
195526.19
194858.18
195233.18
193161.32
195069.23
192622.97
186976.52
186695.87
184186.27
186384.06
183132.25
183552.69
181845.31
178102.04
177068.6
175716.09
175881.89
173369.79
173957.82
172894.69
168240.19
168178.55
165644.23
166140.51
164027.98
163709.55
163540.65
159983.51
159313.78
156613.62
157439.56
155112
155226.54
155110.56
150639.67
150236.96
147756.09
148279.33
145962.03
145689.15
146812.16
142116.37
142209.85
139368.41
139967.78
137737.85
137522
138291.28
133797.13
134009.99
131241.51
131446.49
129083.69
129129.25
130367.78
125987.11
126589.59
123434.48
123529.55
121470.09
121849
122288.05
118410.91
118600.71
115640.87
115532.48
113566.53
114227.49
114645.04
110249.84
111240.59
107937.37
107940.44
106276.95
107382.75
106882
102729.09
103725.18
100599.82
100450.14
99178.708
100208.93
98797.182
95853.158
96262.166
93661.955
93125.312
92128.339
93659.388
91794.763
88733.662
88840.58
86734.635
86226.24
85576.187
87179.381
83603.181
81227.562
81973.858
79833.818
79030.858
78742.176
80395.854
76275.453
75132.976
74686.966
73272.088
72414.886
72573.831
74058.629
69245.638
68211.769
67959.136
66996.776
65907.003
66191.979
67790.315
61965.937
61917.752
61212.386
60668.803
59463.599
60152.611
61846.179
55429.338
55950.365
55125.411
54968.284
53711.406
54722.869
56208.214
49235.458
50132.733
49150.158
49411.127
48245.524
49198.173
50702.735
43232.435
44636.762
43631.485
44146.534
42852.203
44660.221
45741.026
38087.129
39702.298
38863.655
39480.558
38772.365
40076.307
41054.556
33302.875
35133.554
33905.913
34930.067
33864.476
34243.523
36507.647
27928.884
29851.375
29661.562
29775.474
30006.494
30556.92
32450.139
23841.13
25600.115
24512.302
25861.186
25393.856
25933.461
27921.996
19744.289
21364.364
20717.162
21886.789
21190.021
22031.424
23522.486
15678.231
16957.622
16422.169
17376.385
17053.867
17956.626
19091.487
12129.477
13307.37
12704.247
13622.324
13333.181
13935.301
14986.151
8567.0182
9052.0152
8734.33
9373.2897
9242.3738
9882.309
10853.286
5798.3484
6176.6847
5777.4213
6265.4611
6220.5894
6736.9594
7312.9613
2952.0627
3007.0026
2797.7268
3133.7005
3183.8638
3510.7895
3976.502
1297.86
1476.839
1172.7627
1336.2337
1179.7565
1468.4813
1796.0567
221.40743
343.1816
169.7771
203.85997
115.36417
419.9121
471.27222
357042.89
269241.57
264977.05
255985.65
261590.38
260868.84
243983.68
241794.6
229987.08
222799.46
210558.76
200965.34
190455.75
179492.53
170034.01
161937.6
152042.14
144065.87
135412.21
127522.15
119773.57
112078.5
105031.4
98338.725
91690.287
85263.159
78611.337
72630.463
66691.469
60919.155
55284.033
50022.6
45007.166
40275.132
36290.133
31460.706
27747.708
24345.963
20379.231
17316.69
14144.089
11162.134
8381.8274
6000.1247
3750.7613
2128.9749
107.59436
219294.28
209760.43
154478.91
174857.73
194499.18
177567.5
184324.77
168710.05
169230.86
156694.73
151588.13
144286.42
133993.13
129640.63
123090.79
116459.19
110095.92
102463
97551.498
90649.717
85007.321
79327.446
74123.709
68690.889
63754.861
58240.031
54990.649
50182.506
46407.048
42501.473
38807.743
35422.496
32122.809
29407.056
26166.539
24112.646
21492.977
18857.541
16551.148
14282.987
11681.242
9538.4367
7186.1598
5151.7516
3171.8498
1395.032
60.967239
101761.13
115917.27
65352.675
100580.54
85894.652
78397.185
81233.751
75530.457
74105.654
67880.917
71375.948
65814.688
68383.852
64320.798
62369.453
60658.848
56649.131
53765.164
51003.233
46670.953
43901.342
40792.314
37879.896
35215.069
32901.316
30534.265
28357.038
25560.46
23470.094
21361.047
19491.606
17862.55
16438.433
15060.57
13877.972
12882.671
11766.509
10778.29
9325.3978
8234.4876
6744.4966
5494.1254
4155.1097
3125.6538
1918.2067
1421.9514
-203.86382
-8674.4132
23118.832
-4928.519
13441.856
-1968.2713
6986.1809
4335.7459
-4448.8686
1218.364
1310.2027
129.97249
2461.4026
1878.0152
5529.4736
6200.7797
5922.154
5803.7845
5762.9878
5386.9684
4678.745
4948.215
4659.9867
4603.92
4812.0844
4513.5809
4499.4055
4544.9655
4966.2093
4916.0135
5124.4383
5292.9609
5948.7715
6036.6312
6520.9296
6687.3039
6909.737
6821.1261
6799.7806
6276.7859
5986.1249
5223.3789
4368.7388
3605.1043
2663.0341
1976.254
1148.2576
425.46482
-146973.88
-70642.361
-84143.26
-61163.076
-77889.143
-62834.168
-73660.636
-68245.079
-60576.42
-64728.905
-54357.313
-58048.282
-50871.362
-52054.859
-47378.622
-45558.731
-43217.492
-41202.283
-39034.91
-37101.31
-34645.922
-32820.391
-30382.294
-28387.61
-25830.338
-23699.911
-21090.071
-18731.943
-16933.497
-14902.963
-12968.284
-11047.479
-9153.6214
-7171.6119
-5607.7989
-4005.4483
-2620.1871
-1406.5418
-684.02958
202.55084
535.14984
827.30909
797.87158
871.95243
628.00515
824.74993
171.12609
-227239.77
-169114.83
-145988.69
-148601.53
-155161.32
-149203.61
-153276.67
-136045.29
-145255.99
-135598.44
-134143.43
-128366.09
-120079.23
-117665.56
-109738.38
-105576.44
-98734.128
-92939.242
-87273.555
-82174.754
-77510.804
-72488.97
-67676.541
-61455.846
-55954.798
-50173.853
-46324.382
-41793.418
-37551.275
-33268.541
-29709.753
-25694.165
-22137.766
-18707.649
-15594.099
-12642.52
-9959.4701
-7598.1576
-5683.1838
-4035.1835
-2663.9597
-1877.4742
-960.15809
-637.33459
-47.953537
108.37735
860.92572
-290718.49
-226665.96
-237929.35
-229500.18
-247681.81
-237361.39
-232584.23
-224458.58
-217965.02
-205544.67
-196916.67
-189114.29
-177952.92
-169562.16
-160619.9
-153108.8
-146703.43
-138932.11
-133476.21
-125931.01
-119342.36
-111989.06
-105515.3
-97813.119
-91416.996
-80726.155
-75973.174
-70030.907
-64388.833
-58976.942
-53575.14
-47863.868
-42768.985
-37645.673
-32257.288
-27811.634
-23603.838
-19205.416
-15695.306
-12576.853
-10037.922
-7586.3376
-5956.6164
-4123.4611
-2881.7011
-1330.8475
-465.50262
434548.95
475639.97
467577.14
486083.37
479775.8
454595.15
421859.71
305139.61
347063.31
345857.69
353459.39
345110.38
332181.36
304474.31
282501.12
310197.15
322342.75
327391.62
319929.62
317653.97
298272.48
270236.83
277921.81
282894.87
290697.47
278643.8
279779.07
258245.46
258386.35
265341.16
274301.59
270800.49
267085.44
265062.56
246353.7
249939.46
260441.04
251969.69
262186.3
254280.94
251779.55
251810.62
242687.68
241332.5
240473.8
243933.19
232674.63
240630.83
234621.16
230318.18
242161.89
233186.93
238026.58
235123.94
231862.32
229178.68
226911.49
224669.09
212735
224764.68
214235.66
217720.61
215769.58
214439.85
214150.72
214235.2
218247.26
209024.22
213058.57
210500.77
203646.35
208395.25
198352.51
203105.57
196387.52
200712.35
197952.67
199668.27
195654.68
191299.23
195092.42
191015.4
190406.44
189157.95
188282.34
187626.1
182490.15
187698.92
179979.88
182749.82
182995.5
179607
176580.42
175637.06
176324.85
170334.96
172684.04
170973.39
172381.88
169332.58
166826.92
166925.56
163392.9
164765.7
162935.83
162595.33
159865.6
159513.67
158897.63
154935.88
153806.59
154639.24
153606.49
152644.08
150044.35
150902.32
145803.92
146806.17
145911.44
146391.78
144493.69
143352.7
141865.66
138631.99
138305.59
137980.76
137634.96
137431.86
134015.08
134614.73
130516.07
130151.54
128931.21
130880.8
129421.46
127417.9
126956.77
123352.52
122588.73
122013.33
121618.33
122759.98
119433.82
119484.02
115722.5
115165.38
113890.02
114917.78
115918.77
112406.86
112106.49
109015.45
108083.14
107399.32
107004.11
108764.31
104482.48
104896.53
101798.35
101807.38
99809.363
99862.873
101680.54
97684.057
97983.134
95797.914
95064.375
93263.021
91954.654
95242.701
90648.192
91757.883
89103.153
89369.313
86830.759
86058.369
88355.911
84790.456
84561.206
83948.869
82803.859
81007.33
79846.298
80981.949
77964.933
78424.146
77820.532
77021.146
74950.068
72727.151
73564.555
72653.765
71893.928
71519.955
71195.663
68829.721
66303.078
68492.129
65391.267
65683.539
66086.699
65663.197
63342.064
60966.66
60689.285
60024.02
59926.117
60386.934
59874.758
57849.207
54526.022
54758.953
53972.136
53749.732
54511.585
54484.34
52507.638
49212.017
48675.631
48718.256
48380.077
49558.923
49536.537
47599.889
43910.758
43012.495
43236.11
43017.192
44252.358
44441.59
42569.002
38776.355
37510.621
38331.438
37948.913
39354.906
39700.684
38219.084
34039.349
32748.894
33729.684
33479.032
34959.029
35487.518
33975.295
29540.746
28057.361
29207.84
28907.085
30380.203
31329.921
29883.733
25609.636
23856.292
25225.199
24850.346
26255.11
26671.286
26472.507
21536.226
20099.065
20826.144
21308.9
22247.231
23555.553
23259.232
18216.219
16223.896
18316.55
17341.224
19184.18
19600.936
19706.16
14882.315
13457.444
14926.068
14296.629
15674.113
16266.037
16636.141
12132.716
10450.481
11928.519
10957.333
12543.44
12917.461
13420.495
9360.1221
8112.5177
9105.5787
8579.1223
9705.8805
9956.9196
10565.607
7173.7329
5711.1361
6712.5418
5887.8927
6851.267
7160.8876
7868.9697
4821.9515
3996.0038
4447.7961
3950.4268
4736.0518
4933.9442
5344.3059
2970.8546
2251.5462
2542.6609
2114.6277
2573.1134
2459.978
3166.9969
1432.7156
996.97279
989.98431
798.1336
894.97012
1255.1989
1364.4538
214.37425
-117.48375
-208.65825
-426.16498
-180.70872
-378.29463
103.20886
286091.57
299653.25
325441.02
321029.44
328103.91
301323.8
295772.47
217199
263492.14
272815.18
279974.5
278504.27
258606.83
242514.76
209401.63
197505.94
220995.8
213981.68
222377.18
199747.29
199791.2
178765.02
188088.5
197835.24
195065.14
197002.2
189802.63
172206.2
182862.42
183040.33
190987.22
185323.27
193868.79
182699.44
181612
170412.98
169624.75
172592.12
169586.83
167963.8
172066.85
167545.26
167048.71
168463.79
176717.99
167622.07
174240.31
172761.21
167511.12
161559.59
157755.48
157782.62
153903.45
159221.25
154731.31
158484.58
156240.53
150553.79
159217.89
153450.33
153164.47
154749.92
155225.59
146054.06
146459.36
149486.64
139694.99
145304.19
144878.32
146900.09
143102.3
140831.91
140349.58
136058.64
139382.74
138724.12
138597.97
137075.9
130803.74
136768.5
129492.36
133905.25
130483.21
135293.1
128957.81
126448.93
130835.98
121357.37
125489.39
123355.6
125101.54
124309.94
121053.32
122829.25
115574.59
119784.91
118813.23
115916.94
117900.22
115846.42
116029.94
110195.86
113596.64
111282.84
109738.05
112384.88
109401.38
109205.33
105210.14
105571.3
106061.6
102592.05
107033.5
104571.87
104759.59
99187.319
100680.56
100974.06
98751.249
100918.22
98829.032
97486.228
94032.505
94453.15
94553.439
91008.69
96612.072
93266.764
93017.411
89127.171
89311.216
89149.936
86546.717
90300.483
87788.138
87341.627
83812.625
83484.013
83367.507
80702.67
86021.645
83083.168
82416.014
78920.588
78513.578
78389.92
76015.49
81187.745
77792.589
76811.323
74117.487
73425.037
73375.394
70551.15
76709.589
72689.391
72237.598
69840.952
69113.064
68271.122
66215.616
71938.268
68027.083
67796.109
65686.231
64461.837
63605.77
61990.491
67300.283
63545.945
63192.406
61240.73
60284.871
59046.075
57917.658
62492.252
59281.831
58087.779
57958.722
55329.533
54463.52
54332.378
57428.377
54814.531
53755.604
53055.273
51576.194
50150.38
49810.811
53071.976
50794.689
49634.319
48857.001
47727.726
46241.271
46149.682
48447.274
46190.822
45719.623
45045.269
44031.151
42158.477
42248.697
43757.427
42428.268
41307.169
41233.513
39584.84
38524.006
38518.306
39354.968
38788.861
37611.481
37546.321
36244.05
35319.255
35088.48
35234.71
35148.132
33499.774
34129.526
32611.893
31855.651
31586.218
31137.912
31495.221
29941.111
30600.801
29187.099
28661.729
28501.131
27273.193
28302.804
26518.699
27610.496
26131.528
25966.314
25633.319
23841.339
25085.768
23330.462
24341.928
23282.118
23148.968
23235.858
20495.552
22037.264
20187.204
21777.628
20309.807
20774.197
20185.742
17690.987
19264.642
17917.275
18911.898
18284.093
18240.46
18137.246
14868.15
16654.537
14921.678
16519.861
15471.995
16163.687
16106.145
12537.554
14358.772
12894.785
14324.417
13400.315
14139.25
13803.867
10359.034
12253.863
10495.489
11985.151
11284.746
11899.133
11803.1
8567.6365
9916.6222
8568.8099
9961.7147
9296.2484
9873.3473
9769.3354
6814.3823
8084.914
6822.6224
8008.3571
7388.639
7964.9157
7778.2349
5131.0742
5827.0777
4877.9372
5659.3828
5341.2992
5808.3711
5791.5983
3817.2922
4544.6384
3563.9631
4247.7899
4002.1782
4243.0882
4102.9918
2209.3832
2513.2361
1717.2827
2206.037
1976.4279
2225.3505
2425.7319
1277.3642
1448.4854
776.77674
1031.5131
852.87462
1059.9761
1220.167
83.450532
189.18588
-349.52115
-202.62686
-270.13022
-434.41583
-155.94262
159203.96
163839.67
155668.15
172862.25
161580.83
152418.15
146360.72
111639.31
157544.79
149481.56
161288.59
141337.82
148358.39
123235.73
107024.69
100007.02
106983.44
107980.08
102951.7
95583.493
92518.333
85744.432
101205.73
105075.18
112043.29
98733.467
106273.06
88080.303
94925.741
87273.719
92097.908
86086.643
85683.436
81711.553
79983.865
82919.552
91520.489
84095.321
85953.711
85677.283
82267.349
80444.87
87354.409
87857.107
75986.042
81100.527
79651.336
76580.792
77458.568
81781.524
86925.869
74550.314
80041.779
75292.477
72782.202
75279.781
81752.407
86192.301
72163.187
76242.003
73092.16
73600.638
72797.496
80558.315
82030.899
67849.297
71223.843
71635.584
68253.649
69745.319
77271.239
79912.664
65171.076
72292.661
68366.546
68076.701
66300.78
72197.866
75243.253
62684.768
66833.333
65406.042
62358.535
65027.264
68886.383
75545.621
59263.059
65734.038
61980.685
62139.934
61016.501
66487.929
68685.481
59488.933
62186.256
62248.067
56132.478
61347.969
63459.855
65537.143
55427.777
60514.15
57691.377
54050.84
57129.165
60974.253
60980.925
55642.439
55731.218
55824.448
51435.684
55206.948
56375.352
59354.763
51614.446
53942.604
52552.288
49209.499
50487.64
55378.488
55168.038
50062.796
51053.679
50089.041
46214.369
47560.102
51024.766
53186.523
47351.773
48804.256
46700.246
43795.245
44189.698
49293.08
50437.969
45215.871
45737.685
44206.592
41252.787
41774.686
45939.141
47798.511
42249.376
43273.283
41227.782
39134.99
38084.247
43499.708
44661.802
40146.025
40675.746
39096.933
36233.008
35793.931
40563.424
41993.302
37503.039
38567.423
35580.685
34259.788
33038.818
37944.752
38794.097
35160.212
35353.266
32817.814
32169.506
30385.893
35360.215
35817.928
32466.724
32816.933
30098.897
30249.247
27866.92
33089.572
32056.293
30284.583
29856.921
27533.883
28150.174
25545.366
30331.219
29858.182
27552.514
28067.152
24659.058
26571.169
23098.609
28091.873
27594.384
25180.157
25238.405
23051.801
24004.777
21938.807
25471.551
24287.532
22346.002
22686.969
20645.057
21775.195
20216.581
23402.174
21743.269
20627.001
20393.846
18816.284
19995.05
18650.854
21127.123
19351.626
17974.222
18191.406
16673.079
18158.534
17015.987
19087.772
16843.767
16031.171
16186.353
14915.384
16403.753
15445.644
16970.749
14784.163
14136.281
14327.075
13208.367
14864.945
14430.697
15103.482
12858.188
12375.654
12646.751
11809.406
13646.147
13177.643
13262.134
11033.561
10755.816
11087.732
10433.482
12056.76
12060.6
11458.721
9552.2135
9379.1519
9818.2586
9335.3852
11181.4
11304.501
10031.229
8030.8398
8120.6472
8392.3913
8219.8961
9642.968
10192.123
8511.6349
6828.5522
6811.1048
7305.7385
7131.926
8661.4206
9437.534
7353.9938
5409.2953
5998.778
6104.9439
6222.9388
7691.3444
8295.9278
6220.2302
4462.1091
5095.2595
5096.0006
5371.8941
6427.7887
7227.4234
5060.1339
3366.3566
4258.1012
3889.076
4429.1966
5103.8776
6261.9596
4005.0729
2740.2672
3367.521
3014.0035
3554.5616
4077.0772
5112.8677
3098.0922
2028.7319
2555.496
2105.9722
2684.2753
2787.7582
3980.8294
2220.8035
1713.895
1930.9476
1701.4433
2033.1725
2232.3235
3013.3338
1329.9166
1030.1832
991.20572
738.13092
1031.2676
901.77059
1632.7498
1018.088
1146.2855
882.88127
1025.5646
888.03583
1047.3423
1329.6381
80.851366
-156.24952
-239.51014
-238.60877
-361.95151
-277.04362
21.713572
2698.0752
-7365.1452
-1683.6412
1243.5405
-3304.5111
-3180.26
6929.4272
-3275.4402
460.28523
1487.2341
4771.835
-1450.6141
3488.6218
-3221.3891
11413.16
-12617.619
-7837.3092
-16106.075
-8289.134
-14959.652
-1465.2481
-1778.8408
-7608.5401
1856.3049
-2371.2017
-3867.4516
3806.4407
-8106.8739
3062.4866
-317.99036
1304.6845
-13843.519
1982.2288
-17136.726
2101.5162
1474.8571
-4697.3845
-6496.1451
-3602.0655
-4931.7751
-1352.5194
-2171.0662
2925.316
-1035.3114
6118.5734
-6156.9876
997.25852
-4676.3054
-623.91672
4363.6341
1085.0574
-2903.1823
-1344.7577
-2272.3271
-560.01239
-806.73751
5822.0984
-2409.2637
2261.1627
-3079.6957
115.22176
-1481.5304
-3285.1323
2281.0849
1239.6837
1285.9835
-2786.3165
-1478.9913
-2119.401
-1080.4431
4066.5775
1051.2159
837.12183
-2873.0179
-1337.6345
-1416.9156
-1776.4697
4455.2841
1364.9521
105.52271
-1240.3104
-1757.9151
-288.50056
-1496.5054
5743.0065
868.1493
1621.0268
-1800.4977
-522.78349
-524.99408
-2771.7126
5613.5243
142.24254
4779.4329
-573.68733
-2118.9776
-759.49407
-4366.1577
7080.0368
3999.0947
1016.6635
618.31976
-2450.0196
-689.80856
-1679.2171
5751.883
3511.1006
683.26239
1133.1769
-3009.1152
-180.02662
-2179.5667
7597.6463
3466.5635
1970.9429
2615.9937
-2160.8507
-286.81704
-1172.7059
6837.4192
3560.3472
2442.9858
2649.0949
-2526.1545
-291.26782
-1610.2032
7729.9896
4943.5054
3252.5167
2951.7292
-1698.8977
55.077309
-960.55039
8094.2472
4792.9552
2847.9471
2780.5783
-1694.2285
285.69755
-1888.7118
8321.4498
5456.5905
3352.7461
3340.3883
-675.47929
101.82425
-1651.763
8849.5455
5987.4655
3287.973
3651.2077
-1056.0812
371.63417
-1554.3711
8658.3847
6177.7521
3713.8442
3202.1614
-594.13142
711.44031
-1555.3397
9046.4829
5987.7659
3996.6149
3190.905
312.99698
1110.1054
-1278.6749
8600.4442
5877.1034
4354.022
3164.2933
1189.8471
1096.0837
-1100.4251
7949.9543
6563.7687
4560.1334
3385.6342
1871.2093
1171.2889
-368.78835
8320.96
5966.7337
4551.886
3331.5589
1926.419
1582.3876
-700.73273
7460.1777
5392.5099
4536.1574
3224.9946
1953.67
2051.7996
-609.7133
7105.2885
5194.1516
4673.6046
3542.1647
2529.8305
2470.5064
-113.15633
6286.4169
5038.9994
4552.4926
3588.6788
2361.2176
2708.1803
167.06951
5648.8538
4636.9407
4299.1209
3445.1145
2597.2398
3172.8473
325.75238
4935.3801
4343.2326
4164.3405
3755.7482