/*--------------------------------*- C++ -*----------------------------------*\
  =========                 |
  \\      /  F ield         | OpenFOAM: The Open Source CFD Toolbox
   \\    /   O peration     | Website:  https://openfoam.org
    \\  /    A nd           | Version:  6
     \\/     M anipulation  |
\*---------------------------------------------------------------------------*/
FoamFile
{
    version     2.0;
    format      ascii;
    class       pointVectorField;
    location    "0.46";
    object      u;
}
// * * * * * * * * * * * * * * * * * * * * * * * * * * * * * * * * * * * * * //

dimensions      [0 1 0 0 0 0 0];

internalField   nonuniform List<vector> 
625
(
(0 9.0236325e-20 0)
(0 7.9492008e-20 0)
(1.9725879 -0.14618574 0.023069199)
(1.8823363 -0.56124941 0.029390436)
(0 1.1754994e-19 0)
(0 6.2162992e-19 0)
(1.87493 -0.56273929 0.029123256)
(1.9650645 -0.14771068 0.023110234)
(0 -1.3856555e-20 0)
(6.0598538e-20 -1.4075967e-19 0)
(0 2.8431362e-19 0)
(1.9499855 -0.25005028 0.024576761)
(1.9273065 -0.35370743 0.026131535)
(1.9048579 -0.45732873 0.027744254)
(0.0086739616 0.024049258 0.02187384)
(0.028813138 0.047250907 0.020522934)
(0.063086376 0.068957244 0.021028782)
(0.11013985 0.086711827 0.019189227)
(0.1652582 0.099756875 0.018616743)
(0.23109762 0.10941584 0.017492788)
(0.30295343 0.1146735 0.016988594)
(0.38153329 0.11594573 0.016374354)
(0.46561558 0.11409667 0.01629399)
(0.55358302 0.10858155 0.015885273)
(0.64566203 0.10055355 0.015947942)
(0.74058404 0.089703472 0.016013409)
(0.83809665 0.076627003 0.016234148)
(0.93748688 0.061548052 0.016542111)
(1.0385409 0.044727287 0.016919174)
(1.1407155 0.0264862 0.017385207)
(1.2438604 0.0070210847 0.01784263)
(1.3475432 -0.013412313 0.018412215)
(1.451761 -0.034640004 0.018912519)
(1.5559919 -0.056362201 0.019582708)
(1.6604298 -0.078575847 0.020270659)
(1.7646597 -0.10095063 0.021075351)
(1.8687278 -0.12357934 0.022064025)
(-0.0020756709 -0.019247443 -0.028039701)
(0.019069506 -0.041394072 -0.019435982)
(0.051067186 -0.067328712 -0.020716846)
(0.091046586 -0.090090635 -0.015646329)
(0.13963066 -0.11146655 -0.013243687)
(0.19871391 -0.13657685 -0.0093752737)
(0.26282498 -0.15811363 -0.0068264612)
(0.33472578 -0.18185925 -0.0032213605)
(0.41173149 -0.20546641 -0.0006287341)
(0.49396945 -0.22883908 0.0024526226)
(0.58037988 -0.25306425 0.0051329089)
(0.67042835 -0.2771072 0.0078121621)
(0.76363731 -0.30137879 0.010293876)
(0.85934287 -0.32569449 0.012644062)
(0.95726032 -0.34999536 0.014867136)
(1.0568615 -0.37422735 0.016920841)
(1.1579005 -0.39838965 0.018876386)
(1.2600126 -0.42232089 0.020648342)
(1.3629466 -0.4461434 0.022378291)
(1.4664714 -0.46961663 0.023915879)
(1.5703687 -0.49293772 0.025434643)
(1.6743808 -0.51592496 0.026833161)
(1.7784482 -0.53864756 0.02809478)
(0 8.3141923e-20 0)
(-1.0824054e-18 -2.328972e-19 0)
(0 5.8267842e-19 0)
(0.004426197 -0.01311475 0.019950898)
(0.0199235 -0.053212996 0.023975934)
(0.053103652 -0.067170401 0.019834112)
(0.090240303 -0.091959077 0.01875788)
(0.14048451 -0.11868564 0.019987601)
(0.19787775 -0.13856826 0.017422382)
(0.2607181 -0.16279788 0.019086468)
(0.33210225 -0.18623047 0.018309165)
(0.40855195 -0.20952265 0.018622181)
(0.48983115 -0.23329588 0.019002364)
(0.57552571 -0.25681395 0.019292674)
(0.66496374 -0.28092424 0.019861077)
(0.75756713 -0.30478465 0.020363764)
(0.85291919 -0.32883323 0.020958012)
(0.95051656 -0.35292707 0.021599881)
(1.0499381 -0.37683012 0.022253361)
(1.1508551 -0.40076747 0.022952319)
(1.2528788 -0.42448168 0.023697748)
(1.355755 -0.44804945 0.024466864)
(1.4592137 -0.47139471 0.025288685)
(1.5630248 -0.49453895 0.026165614)
(1.6670178 -0.51746121 0.027101601)
(1.7709879 -0.54009296 0.02814095)
(1.8974251 -0.45874217 0.027640556)
(1.9197954 -0.35519578 0.026199371)
(1.9424697 -0.25156069 0.0246914)
(1.8612464 -0.12512548 0.021917863)
(1.7572118 -0.10251884 0.020744845)
(1.6530403 -0.080174417 0.019479072)
(1.5487713 -0.058135805 0.018133385)
(1.4445559 -0.036562987 0.016726411)
(1.3405622 -0.015660757 0.015211478)
(1.2369687 0.0045028236 0.013595588)
(1.1340342 0.023628624 0.011890197)
(1.0320239 0.041596573 0.010067553)
(0.93125701 0.058116556 0.008179542)
(0.83210507 0.072944771 0.0061903164)
(0.73506071 0.085807604 0.0041665458)
(0.64047038 0.096469781 0.0020359816)
(0.54902628 0.10442973 -8.1738512e-05)
(0.46153784 0.10938369 -0.0021629886)
(0.37812912 0.11154284 -0.004585596)
(0.30040392 0.1102594 -0.0069528315)
(0.22872968 0.10453727 -0.0090183448)
(0.16469038 0.09632767 -0.012125052)
(0.10795827 0.08199736 -0.013817494)
(0.063131348 0.066956839 -0.017253192)
(0.027038638 0.043694454 -0.018705167)
(0.013510717 0.023066152 -0.015268298)
(0 -1.4735582e-19 0)
(0 -1.5326322e-19 -3.161207e-19)
(0 -4.5170492e-19 0)
(0 2.5876955e-19 0)
(0 -2.8632354e-20 9.1295228e-20)
(0 1.9709388e-19 0)
(1.8804293 -0.56170057 0.029267064)
(1.8786034 -0.56205946 0.029276917)
(1.8766928 -0.56245214 0.029190006)
(1.970768 -0.14646742 0.023100666)
(1.9689052 -0.14686548 0.023107624)
(1.9669831 -0.14727174 0.023114164)
(-0.0039924459 -0.014506105 0.012988732)
(0.010647683 -0.026515417 0.0096136251)
(0.036519475 -0.036255155 0.011432018)
(0.074516744 -0.044241117 0.010837052)
(0.12236121 -0.047645949 0.011586223)
(0.18275779 -0.048364087 0.011644691)
(0.25155411 -0.045545182 0.011934186)
(0.33098143 -0.039437526 0.01226301)
(0.41830324 -0.030985612 0.01256166)
(0.51331402 -0.021312588 0.013054981)
(0.61454852 -0.011075296 0.013581262)
(0.72023196 -0.002014443 0.014249525)
(0.82913539 0.0050028178 0.014979551)
(0.93965744 0.0085555784 0.015754827)
(1.0504715 0.0076368764 0.016617474)
(1.1603314 0.0013667772 0.01745708)
(1.2683371 -0.010960897 0.018347511)
(1.3737631 -0.029565036 0.019212858)
(1.4762768 -0.054497938 0.020098708)
(1.5756551 -0.085390206 0.021018998)
(1.6722654 -0.12152134 0.021876623)
(1.7663625 -0.16187572 0.022819103)
(1.8587116 -0.20525381 0.023716734)
(-0.0082761589 0.0034999463 0.0015785085)
(0.014028433 0.005400414 0.00021688278)
(0.045748913 0.0062956551 0.0011868411)
(0.090163476 0.004684003 0.0023126338)
(0.14455187 -0.0004930104 0.003011891)
(0.20684045 -0.0075939031 0.0040286883)
(0.2766249 -0.016839089 0.0050543414)
(0.3528469 -0.028743543 0.0063530762)
(0.43405733 -0.042252639 0.0075785625)
(0.52015619 -0.057660933 0.0089143257)
(0.6098356 -0.074394734 0.010296539)
(0.70287137 -0.092502453 0.011742495)
(0.79859835 -0.11164238 0.013147914)
(0.89654507 -0.1316746 0.014587788)
(0.99629367 -0.15245298 0.015965185)
(1.0974705 -0.17381111 0.017292459)
(1.1997916 -0.19565243 0.018571851)
(1.3029052 -0.21782909 0.019767574)
(1.4066713 -0.24029004 0.020924078)
(1.510689 -0.26293129 0.022003278)
(1.6150335 -0.2856424 0.023026765)
(1.719284 -0.30840285 0.024111896)
(1.8235545 -0.33117142 0.025106001)
(-0.006985585 0.016670438 -0.011115822)
(0.023388029 0.030962013 -0.010712783)
(0.060924974 0.039538491 -0.0089605889)
(0.11273235 0.039983703 -0.0067046122)
(0.17041928 0.033696141 -0.0045855834)
(0.23521282 0.021885685 -0.0021353994)
(0.30441458 0.00077040877 0.00027996554)
(0.37651613 -0.025914095 0.0024573314)
(0.45113136 -0.058995691 0.004511532)
(0.52770352 -0.097208331 0.0065661691)
(0.60605914 -0.13876558 0.0084263553)
(0.68644613 -0.18264362 0.010233407)
(0.76910616 -0.22682777 0.011922955)
(0.85460501 -0.26991667 0.013552775)
(0.94335069 -0.31039863 0.015120048)
(1.0358687 -0.34694619 0.016638658)
(1.132388 -0.37865218 0.018133764)
(1.2331 -0.40481135 0.019587301)
(1.3378907 -0.42516381 0.020998151)
(1.4464422 -0.43991593 0.02243724)
(1.5582803 -0.44944686 0.023751247)
(1.6725236 -0.45478167 0.025143401)
(1.7884449 -0.45694138 0.026418489)
(0 -9.3120674e-20 0)
(0 1.5507619e-19 3.252788e-19)
(0 3.3708471e-19 0)
(-1.6097931e-19 3.2142912e-21 0)
(6.723738e-20 -9.9625246e-20 -4.9620278e-21)
(-4.2372599e-19 -3.8107236e-19 0)
(0 1.4309006e-19 0)
(0 3.8455811e-19 -1.0227553e-20)
(0 4.2281568e-19 0)
(0.0087716062 -0.0085610603 -0.012066484)
(0.011844544 -0.011298375 -0.0021745786)
(0.010623215 -0.0076881532 0.0069558059)
(0.03087897 -0.049862467 -0.010064407)
(0.030779702 -0.050312584 0.00028688061)
(0.029053356 -0.048503572 0.012923775)
(0.059087037 -0.068258248 -0.0104005)
(0.06166185 -0.066787209 -0.000330597)
(0.060888466 -0.071735506 0.011554203)
(0.097051545 -0.092059169 -0.0065964146)
(0.099702357 -0.094706219 0.0018370331)
(0.09708854 -0.092764896 0.011337811)
(0.14720149 -0.1166033 -0.0051617396)
(0.14824823 -0.11698808 0.0020854343)
(0.14689211 -0.11913711 0.011817882)
(0.20300862 -0.13862836 -0.0027577514)
(0.20460544 -0.1401013 0.0044969502)
(0.20283806 -0.14025321 0.011831709)
(0.26745838 -0.16181076 -0.00021256284)
(0.26827205 -0.16339925 0.0050708702)
(0.26685196 -0.16412848 0.012987098)
(0.3383595 -0.1851429 0.0021430955)
(0.33858116 -0.18592151 0.0070441767)
(0.33715095 -0.18683065 0.013350171)
(0.41466512 -0.20798391 0.0044381029)
(0.4145587 -0.20972352 0.0086715281)
(0.41298726 -0.21011307 0.014196112)
(0.49615821 -0.23197422 0.0066739441)
(0.49567608 -0.2330677 0.010337465)
(0.4942935 -0.23369591 0.015156119)
(0.58178551 -0.25549086 0.0088817801)
(0.58123448 -0.25666908 0.012053162)
(0.57952465 -0.25718305 0.016073897)
(0.67134485 -0.27954963 0.01108868)
(0.67039869 -0.28054928 0.01364777)
(0.66875098 -0.28104862 0.017127225)
(0.76390097 -0.30350811 0.013051034)
(0.76290054 -0.30440465 0.015246392)
(0.76108068 -0.30495513 0.018172579)
(0.85922746 -0.3276738 0.015014368)
(0.85801541 -0.32839634 0.016859749)
(0.85611819 -0.32887626 0.019197343)
(0.95672053 -0.35171294 0.016826465)
(0.95540244 -0.35236571 0.018307944)
(0.95346124 -0.35292148 0.020204112)
(1.0560393 -0.37578991 0.018512332)
(1.0546268 -0.37635201 0.019761701)
(1.0526337 -0.37682752 0.021219014)
(1.1568302 -0.3997146 0.020129625)
(1.1553143 -0.40018489 0.021121953)
(1.1533135 -0.40066334 0.022182502)
(1.2587324 -0.42347692 0.021626861)
(1.2571501 -0.42391525 0.022392144)
(1.2551608 -0.42437949 0.023157071)
(1.3615076 -0.44708282 0.023054978)
(1.3598575 -0.44747092 0.023634593)
(1.3578783 -0.44789217 0.024120486)
(1.464886 -0.47042704 0.024406217)
(1.4631663 -0.47078503 0.024805186)
(1.4612084 -0.4712014 0.025086128)
(1.5686252 -0.49355156 0.025718879)
(1.5668593 -0.49390077 0.025948515)
(1.5649419 -0.49429941 0.026076296)
(1.6725701 -0.51645509 0.026946839)
(1.6707833 -0.51680647 0.027049473)
(1.6688746 -0.51720361 0.02709323)
(1.7765997 -0.53910483 0.028116445)
(1.7747235 -0.53943047 0.028148529)
(1.7728601 -0.5398004 0.028146197)
(1.9481555 -0.25034076 0.024629853)
(1.9463046 -0.25074306 0.024669822)
(1.9443873 -0.25112322 0.024675687)
(1.9254683 -0.35403553 0.026192573)
(1.9236219 -0.35443785 0.026199276)
(1.9217132 -0.35478291 0.026175766)
(1.9029867 -0.45770387 0.027718801)
(1.9011376 -0.45811385 0.027721668)
(1.8992512 -0.45844137 0.027671349)
(0.018688212 0.020263841 0.010190223)
(0.019126417 0.021676392 0.0028100491)
(0.02062601 0.020462343 -0.0053418031)
(0.036602108 0.044882766 0.0092394464)
(0.03817394 0.044286254 5.4193561e-05)
(0.035691039 0.043232514 -0.010090501)
(0.072223372 0.068300597 0.010644098)
(0.072355436 0.067047686 0.00276586)
(0.07205342 0.067047209 -0.0087970319)
(0.11566744 0.08395666 0.009958454)
(0.11731332 0.082812029 0.0025107202)
(0.11529434 0.082018696 -0.0068278848)
(0.17183687 0.098587918 0.011046516)
(0.17288335 0.097342934 0.0033184418)
(0.17093295 0.09650464 -0.0049579409)
(0.23587837 0.10750755 0.010475548)
(0.23582122 0.10553699 0.0048716871)
(0.23490973 0.10490943 -0.003157797)
(0.30701513 0.11257617 0.011073397)
(0.30768904 0.11148723 0.0052678389)
(0.30591081 0.11018907 -0.0015607014)
(0.38526463 0.11425986 0.011247693)
(0.38501436 0.11262932 0.0062916832)
(0.38339483 0.1117079 5.0431861e-05)
(0.46800179 0.11236743 0.011879167)
(0.46799774 0.11073484 0.006841678)
(0.46611044 0.10991076 0.0021476057)
(0.55589779 0.10705988 0.011998775)
(0.55521267 0.1056401 0.0086448982)
(0.55369109 0.10462568 0.0034707018)
(0.64723662 0.098901187 0.012622077)
(0.6465354 0.097640773 0.0090010748)
(0.6446222 0.096780552 0.0051513958)
(0.74176834 0.088264877 0.013105623)
(0.74068474 0.087045021 0.010278296)
(0.73898278 0.086223197 0.0068584121)
(0.83870201 0.075285667 0.013808432)
(0.83761562 0.074196806 0.011264935)
(0.83576393 0.073403753 0.008466547)
(0.93778384 0.060351338 0.014443947)
(0.93647432 0.059359165 0.012427947)
(0.93462136 0.058592209 0.010081433)
(1.0384038 0.04370641 0.015215092)
(1.0370061 0.042769793 0.013528289)
(1.0351313 0.042082131 0.011636675)
(1.1402812 0.025586861 0.015952251)
(1.1387796 0.02477313 0.014655741)
(1.1368835 0.024126793 0.01314238)
(1.243086 0.0063334551 0.016752799)
(1.2415026 0.0055543242 0.015747762)
(1.2396013 0.0049561144 0.014577968)
(1.3465462 -0.014004284 0.017539285)
(1.3448972 -0.014677198 0.016815447)
(1.3429654 -0.015179954 0.015940912)
(1.4504357 -0.035016278 0.018352178)
(1.4487 -0.035629933 0.017878469)
(1.4468042 -0.036152163 0.01724313)
(1.5545008 -0.05669309 0.019257315)
(1.5528045 -0.057285688 0.018883124)
(1.5508573 -0.057702681 0.018472631)
(1.6587492 -0.078839008 0.020077495)
(1.6569532 -0.079352115 0.019919)
(1.6550137 -0.079766126 0.019661601)
(1.7628485 -0.10122199 0.021027563)
(1.7610104 -0.10166756 0.020956564)
(1.7591133 -0.10208683 0.020820185)
(1.8669152 -0.1238558 0.022038489)
(1.865061 -0.12426252 0.021998743)
(1.8631539 -0.1246781 0.021940149)
(-0.0034500801 -0.019709587 -0.0090143816)
(0.01145141 -0.024090726 -0.010467756)
(0.035325789 -0.041179512 -0.0081616354)
(0.074129325 -0.047356216 -0.0077570228)
(0.12213779 -0.052104987 -0.0065922396)
(0.18086076 -0.053680361 -0.0042516825)
(0.2501087 -0.050133175 -0.0025502555)
(0.32795176 -0.044432663 -0.0003867009)
(0.41496055 -0.035656751 0.0016028933)
(0.50915695 -0.025752055 0.0038841457)
(0.60953748 -0.015141096 0.0058554294)
(0.71472502 -0.0058025385 0.0080199659)
(0.82310654 0.0015781407 0.010020144)
(0.93323057 0.0054921041 0.011914474)
(1.0437422 0.0049129045 0.013686139)
(1.1533799 -0.0010531931 0.015303929)
(1.2612134 -0.013072894 0.016783784)
(1.3665273 -0.031474912 0.018120439)
(1.4689244 -0.056244959 0.019354093)
(1.568306 -0.087040547 0.020475624)
(1.6648516 -0.12311162 0.021567469)
(1.7589304 -0.16344305 0.022574695)
(1.8512475 -0.20677671 0.02361679)
(-0.0062845795 0.0039278015 0.00021334925)
(0.013201007 0.0054562276 0.00055920236)
(0.046234964 0.0025195246 0.00317661)
(0.089613232 0.0017912171 0.0030614165)
(0.14247427 -0.0031577518 0.0045498833)
(0.204776 -0.011053544 0.0061352887)
(0.27337562 -0.019696619 0.006858565)
(0.34896959 -0.031551422 0.0080451386)
(0.42986576 -0.045123186 0.0091680225)
(0.51525188 -0.0604069 0.010163912)
(0.60471877 -0.07718195 0.011125588)
(0.6975265 -0.09543392 0.012236567)
(0.79292942 -0.11453507 0.013244325)
(0.89072252 -0.13458357 0.014377996)
(0.99025936 -0.15523034 0.01549843)
(1.0912445 -0.17646684 0.016690549)
(1.1933828 -0.19808992 0.017876421)
(1.296326 -0.2200803 0.019077082)
(1.3998767 -0.24232451 0.020279874)
(1.5037894 -0.26477045 0.02146919)
(1.6078859 -0.28734549 0.022662651)
(1.7119903 -0.30998846 0.02383325)
(1.8161664 -0.33267013 0.025037826)
(-0.0073516855 0.015562498 0.011178391)
(0.025950211 0.033281981 0.011091834)
(0.064041118 0.031212541 0.013656555)
(0.11300923 0.038062471 0.01056688)
(0.17138778 0.028591955 0.011993683)
(0.23513488 0.015390605 0.011527957)
(0.30267823 -0.0040023407 0.011652038)
(0.37447905 -0.03193223 0.012499623)
(0.44795345 -0.064274707 0.012938754)
(0.52390025 -0.10231009 0.013717152)
(0.60144779 -0.14351422 0.014611802)
(0.68118674 -0.18685165 0.015501567)
(0.76333573 -0.23065486 0.016524495)
(0.84839864 -0.27323432 0.017481051)
(0.93684585 -0.31333734 0.018499854)
(1.029103 -0.34955899 0.019472164)
(1.1254876 -0.38095175 0.020449852)
(1.2260585 -0.40688286 0.021407591)
(1.3307713 -0.42706785 0.022384803)
(1.4392386 -0.44163028 0.023357624)
(1.5509529 -0.45106509 0.024381738)
(1.6651521 -0.45631052 0.025409247)
(1.7809746 -0.45839065 0.026547057)
(0.0013962727 -0.020461204 0.0058236854)
(0.0015875029 -0.019853103 0.0018834034)
(0.0033756495 -0.020468965 -0.0032246459)
(0.01870771 -0.026717296 0.0041859258)
(0.021361746 -0.027194791 -0.00025376446)
(0.018393628 -0.027144542 -0.0064929295)
(0.044633686 -0.039010753 0.0057898319)
(0.044671775 -0.04026025 0.0011483633)
(0.043928538 -0.039677625 -0.0039488985)
(0.081125239 -0.045392094 0.0060114219)
(0.08355006 -0.046380503 0.0011047201)
(0.081458709 -0.04729857 -0.0037618558)
(0.12944076 -0.049749578 0.0063225097)
(0.13071101 -0.051589845 0.0025775405)
(0.1290996 -0.051647339 -0.0025231483)
(0.18810245 -0.050640251 0.0073811859)
(0.18928009 -0.051949612 0.0033417738)
(0.18736 -0.05246391 -0.0010772598)
(0.25650006 -0.047623056 0.0079569142)
(0.25743194 -0.049009966 0.004273123)
(0.25592508 -0.049811672 0.00068725196)
(0.33492945 -0.041319966 0.0086110432)
(0.33552303 -0.043252208 0.0055909437)
(0.33357589 -0.043759736 0.0022803415)
(0.42166752 -0.033314011 0.0094833827)
(0.42166576 -0.034478695 0.0068885215)
(0.419923 -0.035144154 0.0039656306)
(0.51587773 -0.02309327 0.010366156)
(0.51571959 -0.024263138 0.0080196173)
(0.51389535 -0.025353811 0.0057453845)
(0.61637121 -0.012840673 0.011297585)
(0.61573293 -0.014125379 0.0093618407)
(0.61385117 -0.014827911 0.0076022863)
(0.7213787 -0.0035331045 0.012323742)
(0.72058089 -0.0045123919 0.010841495)
(0.71872953 -0.0053624546 0.0093143431)
(0.82976834 0.0037055936 0.013412163)
(0.82869477 0.0027515987 0.012153217)
(0.82678863 0.001919476 0.011107223)
(0.93978043 0.0074493717 0.014486082)
(0.93852572 0.0066298105 0.013618536)
(0.93659645 0.0058128226 0.012767773)
(1.0501624 0.0067336565 0.015632303)
(1.0487427 0.0059717565 0.01495119)
(1.0468224 0.0052382294 0.014347676)
(1.1596624 0.0006140472 0.016715874)
(1.158143 -4.4211338e-05 0.016269404)
(1.1561979 -0.00073142658 0.01581028)
(1.2673535 -0.011536529 0.017812795)
(1.265737 -0.012141101 0.017486582)
(1.2637998 -0.012751743 0.017166921)
(1.3725363 -0.030040788 0.01883466)
(1.3708641 -0.030600947 0.018645952)
(1.3689016 -0.031126825 0.018402827)
(1.474819 -0.054882708 0.019866575)
(1.4730642 -0.055377398 0.019723021)
(1.471151 -0.055895572 0.019555859)
(1.5740304 -0.085722134 0.02083452)
(1.5723618 -0.086257282 0.020746777)
(1.5703786 -0.086650597 0.020614118)
(1.6705333 -0.12185831 0.021773169)
(1.6687914 -0.12226258 0.021730208)
(1.6668229 -0.12268935 0.021646952)
(1.764572 -0.16220756 0.022765096)
(1.7627389 -0.1625985 0.022694717)
(1.7608409 -0.16302896 0.022628681)
(1.8569048 -0.20555308 0.023694335)
(1.8550558 -0.20595227 0.023646812)
(1.8531535 -0.20635228 0.023638052)
(-0.0013113416 0.0022418276 0.00014263886)
(0.00030182969 0.0032056482 -0.00073916761)
(0.0017626377 0.0032335761 -0.00057181296)
(0.021129621 0.0045862085 -0.0016849473)
(0.022402396 0.005270285 -0.0016601111)
(0.019788237 0.0043539139 -0.00077780144)
(0.054099409 0.0047414118 0.00011805494)
(0.05445222 0.0042973639 0.0017795677)
(0.054293432 0.0035451632 0.0015062403)
(0.096475409 0.0020300459 0.00057414181)
(0.098606954 0.0013733547 0.0012338306)
(0.096575987 -0.0007202362 0.0018971395)
(0.15076003 -0.0024278387 0.0019469222)
(0.15130903 -0.0033236499 0.0035606159)
(0.14936015 -0.0040256131 0.0030545652)
(0.21165407 -0.0097383089 0.0032143064)
(0.21237843 -0.010608709 0.0037926986)
(0.21091009 -0.012148386 0.0046249258)
(0.28083289 -0.018760277 0.0040339044)
(0.28135411 -0.019991611 0.0055327376)
(0.27922548 -0.021636324 0.0056253628)
(0.35618538 -0.030807767 0.0058167316)
(0.35617315 -0.031859105 0.0068207601)
(0.35411396 -0.032732704 0.0068752234)
(0.43657331 -0.043935534 0.0070035872)
(0.43654065 -0.045008008 0.0077923722)
(0.43447017 -0.046439689 0.0081402228)
(0.52210089 -0.059193729 0.0084428491)
(0.521704 -0.060549267 0.0094407467)
(0.51953856 -0.061466402 0.0095273435)
(0.61120581 -0.075995527 0.0099294074)
(0.61067903 -0.077191897 0.010756095)
(0.60840773 -0.078144738 0.010563545)
(0.70376255 -0.093952799 0.011425453)
(0.70304864 -0.095164549 0.012115878)
(0.7008107 -0.095895542 0.011912035)
(0.79906332 -0.11299589 0.01289587)
(0.79821959 -0.11419652 0.013491473)
(0.7958701 -0.11491533 0.013117383)
(0.8965888 -0.13293324 0.014362207)
(0.89558 -0.13414819 0.014826992)
(0.89329589 -0.13462312 0.014385203)
(0.9960213 -0.15358697 0.015786371)
(0.99488523 -0.15466971 0.016118554)
(0.99262858 -0.15513502 0.015619913)
(1.0968951 -0.17480764 0.017126042)
(1.0956068 -0.17584315 0.017366907)
(1.093434 -0.17619651 0.016873769)
(1.198955 -0.19651359 0.018433544)
(1.197553 -0.19740606 0.018565063)
(1.1954265 -0.19777497 0.018086935)
(1.301866 -0.21854377 0.019642584)
(1.3003088 -0.21938827 0.019707312)
(1.2982967 -0.21968373 0.019290877)
(1.4053939 -0.24092678 0.020817417)
(1.4037731 -0.24159089 0.02081557)
(1.4017872 -0.24193678 0.020473251)
(1.5093325 -0.26336694 0.021915548)
(1.5075625 -0.2640857 0.021889104)
(1.5056515 -0.26436596 0.02161182)
(1.6135602 -0.28612657 0.022996939)
(1.6115102 -0.28654578 0.022894919)
(1.6097819 -0.28694798 0.022784442)
(1.7175745 -0.30879867 0.024052234)
(1.7157645 -0.30922968 0.024008995)
(1.7138751 -0.30960586 0.023899874)
(1.8217782 -0.33149343 0.025083346)
(1.8199139 -0.33191996 0.02507003)
(1.8180244 -0.3322702 0.025049921)
(0.0011690561 0.018339116 -0.0056309884)
(0.00074935259 0.019134401 -0.00022586374)
(0.00063820922 0.019272404 0.0048640915)
(0.033985899 0.030269807 -0.0060465862)
(0.035997252 0.033611195 0.00084483646)
(0.033090059 0.031137226 0.0060229726)
(0.069936304 0.036076857 -0.0041430712)
(0.071776954 0.031925803 0.0021389525)
(0.070883943 0.032054868 0.00777955)
(0.12077078 0.03536028 -0.002611208)
(0.12175046 0.036239007 0.0027637032)
(0.12001198 0.035097842 0.0069981511)
(0.17706072 0.030779271 -0.00018901018)
(0.17835815 0.027962785 0.0044643364)
(0.17679327 0.028175851 0.0082697636)
(0.24091083 0.0174 0.0012053851)
(0.24167308 0.015439438 0.0052973943)
(0.23978296 0.014989092 0.0084830314)
(0.30887944 -0.0029466994 0.0035450628)
(0.30921574 -0.0048188247 0.0071970164)
(0.30754955 -0.0047516499 0.0097403138)
(0.38013453 -0.029326412 0.0053047767)
(0.38018489 -0.031618562 0.007868745)
(0.37839582 -0.031739895 0.010436673)
(0.45400354 -0.062411798 0.006899781)
(0.45362078 -0.064256658 0.0095277061)
(0.45205919 -0.064452385 0.011639574)
(0.52980708 -0.10022575 0.0087239652)
(0.52929763 -0.10204207 0.010768798)
(0.52755627 -0.10225804 0.012375551)
(0.60754223 -0.14154141 0.010227837)
(0.60668435 -0.14322759 0.011892709)
(0.60513576 -0.14350232 0.013413529)
(0.68740549 -0.185111 0.011737974)
(0.68634587 -0.18650294 0.013196879)
(0.68472681 -0.18684589 0.014399892)
(0.76960314 -0.22899719 0.013181684)
(0.76830779 -0.23026628 0.014357136)
(0.76677177 -0.23073717 0.015368859)
(0.85470513 -0.27188034 0.014584734)
(0.85327172 -0.27288744 0.015548648)
(0.85167764 -0.27336302 0.016427479)
(0.94313119 -0.31209669 0.015958851)
(0.94155787 -0.31292097 0.016751908)
(0.93997287 -0.31348039 0.017466354)
(1.0353334 -0.34844901 0.017319183)
(1.0336892 -0.34913767 0.017945524)
(1.0320225 -0.34970825 0.018530679)
(1.1316099 -0.37995239 0.018672476)
(1.1298845 -0.38052393 0.01914443)
(1.1281976 -0.38108146 0.019625097)
(1.2320722 -0.4059218 0.019992826)
(1.2303257 -0.40643506 0.020354407)
(1.2285781 -0.40694333 0.020724604)
(1.3366642 -0.42613039 0.021315626)
(1.3348726 -0.42657262 0.021570375)
(1.3330823 -0.42705925 0.021824152)
(1.4450268 -0.4407044 0.022628333)
(1.4432173 -0.44112109 0.022757552)
(1.4413946 -0.4415387 0.022965572)
(1.5566536 -0.45010308 0.023874511)
(1.5548145 -0.45048705 0.024014898)
(1.5529851 -0.45088061 0.024104702)
(1.6707846 -0.45529793 0.025198318)
(1.6689415 -0.45569334 0.02525502)
(1.6671052 -0.456078 0.025288293)
(1.7865954 -0.45738366 0.026437533)
(1.7847204 -0.45774654 0.026443985)
(1.7828413 -0.45813097 0.026469185)
)
;

boundaryField
{
    free
    {
        type            calculated;
    }
    fixed
    {
        type            calculated;
    }
    freeTop
    {
        type            calculated;
    }
}


// ************************************************************************* //
