/*--------------------------------*- C++ -*----------------------------------*\
  =========                 |
  \\      /  F ield         | OpenFOAM: The Open Source CFD Toolbox
   \\    /   O peration     | Website:  https://openfoam.org
    \\  /    A nd           | Version:  6
     \\/     M anipulation  |
\*---------------------------------------------------------------------------*/
FoamFile
{
    version     2.0;
    format      ascii;
    class       pointScalarField;
    location    "1.03";
    object      E;
}
// * * * * * * * * * * * * * * * * * * * * * * * * * * * * * * * * * * * * * //

dimensions      [1 -1 -2 0 0 0 0];

internalField   nonuniform List<scalar> 
28033
(
13775.708
14117.881
28948.214
13050.89
15550.85
18392.515
15704.552
28387.457
8116.8715
5684.6876
3678.1125
2512.1744
1088.8389
632.64055
331.37788
421.66158
664.51801
1180.098
1600.5926
2808.6677
4346.0822
6505.0722
10738.021
25878.421
21634.524
21349.319
21417.777
21845.171
22945.345
23053.039
24474.519
25216.829
25765.429
26530.712
26287.839
26211.597
25846.441
23582.206
11230.385
6921.2925
7061.2928
6916.6101
7607.2712
7744.3746
8194.2503
8110.4619
8569.1237
8310.2039
8660.4699
8502.0098
8552.0389
8368.4389
8269.5044
8063.3602
7675.4857
7629.7613
7143.3769
6915.3878
6545.6477
6224.2122
5874.3201
5684.2886
5184.0185
5110.6775
4599.2612
4502.4598
3906.8518
3745.3158
3352.0348
2767.6398
2350.2588
1972.9213
1594.5029
1481.4499
1026.636
1017.168
655.23744
478.01375
177.05228
35.447273
-248.9324
-380.5524
-543.68865
-513.40283
-553.98817
-320.93629
-238.09595
71.092414
208.7647
448.38406
544.43147
646.83774
673.21984
691.38307
685.08069
696.07281
699.36963
719.11327
707.48069
715.3234
583.07742
625.76266
527.01257
421.1073
354.53891
523.09729
753.23686
1144.5757
1573.2205
2149.8174
2720.9464
3408.1689
4071.7229
4737.0559
5381.0469
6071.4165
6664.8019
7255.517
7987.8278
8492.8228
9283.7223
9661.7439
10508.67
10879.003
11726.508
12089.45
13118.275
13410.866
14821.414
14918.234
16738.014
17239.654
22918.772
15848.187
4491.791
10486.787
6812.0699
8827.1772
8606.5352
8410.1446
8706.67
8999.9003
8788.2159
9217.7055
8984.9187
9160.0229
8917.9627
8753.8511
8508.3748
8242.0732
7809.0405
7518.5841
7311.518
6680.9912
6654.7569
6001.9752
6112.9686
5506.9943
5453.6261
4807.7374
4559.0556
3930.773
3602.4012
2898.505
2626.0998
2165.3627
1881.5067
1601.2368
1449.6095
1336.1845
1218.5907
1166.895
1333.4079
1383.986
1610.3194
1822.5303
2152.9858
2468.2895
2919.0313
3361.5506
3911.6759
4484.9721
5108.5831
5759.6439
6413.9667
7042.2036
7664.8687
8210.0878
8740.347
9229.62
9713.5733
10215.762
10785.658
11409.823
12150.892
12955.095
13871.02
14814.106
15775.932
16799.475
17827.501
18790.131
19605.796
20698.301
21371.907
22505.431
23207.311
24152.484
24936.596
25578.026
26336.088
26738.543
27218.613
27466.269
27647.668
27738.943
27744.872
27683.865
27572.264
27386.325
27161.985
26843.947
26508.304
26045.419
25549.537
24969.904
24383.41
21172.916
9668.6826
6552.5389
4194.8959
3528.4764
1470.0807
847.35652
555.19671
479.22556
805.55388
1511.847
2161.022
3370.767
4822.0516
7004.7937
10694.706
22600.495
15390.29
124.54621
10666.068
7562.976
7852.7102
9318.2973
8694.7764
9724.3811
9461.8869
10138.721
8996.8727
10357.882
8422.1199
9749.6101
7942.3407
9101.7712
6619.9722
8179.7847
6238.6522
6553.5255
6656.2786
6510.9009
6157.9185
5311.1442
5299.054
4858.5831
4111.5083
4287.038
2574.0532
2464.2032
1950.5669
1707.314
1596.8941
1233.5428
2490.8919
1414.507
2229.1693
2227.2048
2349.8394
2487.6944
2567.2098
2734.4828
2944.4831
3288.5442
3712.6032
4266.4051
4877.3733
5527.3434
6158.9148
6721.2045
7208.0501
7596.0455
7908.6566
8213.3244
8540.057
8944.1361
9508.7573
10174.433
11023.644
11931.906
12921.172
13882.222
14793.06
15610.31
16351.093
16994.318
17026.625
18327.754
18791.104
19353.482
19888.702
20563.272
21200.409
21763.831
22244.202
22618.726
22903.422
23033.238
23159.309
23171.789
23209.686
23151.809
23135.383
22985.111
22866.679
22570.146
22286.866
21819.974
21378.643
20802.679
20293.834
19769.203
19150.253
22850.57
25709.899
24650.301
25362.711
26530.865
26654.516
25874.636
26169.473
22335.114
24345.26
23317.894
22681.523
20922.076
22668.428
20851.921
23986.983
23007.569
22891.962
23640.082
22483.105
21858.342
21055.095
20298.251
19556.535
18747.243
18032.662
17214.201
16532.223
15810.431
15054.183
14270.239
13501.931
12718.195
11933.28
11121.661
10328.1
9522.7648
8759.527
7973.7404
7280.2035
6680.2674
5911.1985
6004.3038
4050.9888
4497.62
3682.3471
3289.8576
2850.5678
2424.9419
2080.9431
1759.6591
1510.4241
1301.1624
1150.0298
1029.7969
944.33458
859.44361
785.70532
685.29862
577.72032
441.89412
301.12387
157.91706
21.983494
-69.752599
-139.35612
-169.64488
-117.33566
-95.694753
47.886842
101.02065
330.8411
433.16897
987.58071
349.46641
1032.6738
1579.0708
1402.3276
1798.203
2396.1705
3252.3334
3557.2403
3950.6349
4429.1296
4697.6336
5585.9728
5986.8804
6202.8757
6118.1995
7310.4645
6824.1025
7473.7345
7667.3243
8084.9754
8334.3141
8604.1354
9011.2635
8538.3771
9446.2368
8629.2344
9788.5052
8471.6836
8797.5677
8287.3902
8756.6139
7560.804
7343.4706
7933.0415
8495.5589
4184.0817
14497.536
8245.0813
8619.631
8056.4819
8288.0914
8326.9797
8691.4911
8339.3356
8760.2614
8663.423
8794.0318
8233.2343
8034.2014
8214.6761
8291.7956
8447.8869
9290.4321
9975.5035
8780.0291
9938.8232
9746.3622
8936.0892
9998.9066
10845.34
9940.0421
10446.549
9801.6193
9289.0301
9057.2171
8652.205
9354.8393
14373.858
14317.769
14369.147
14328.609
14182.639
14129.054
14071.464
14047.675
14079.055
14037.124
14086.74
14164.276
14315.435
14045.105
15210.974
29531.184
28926.046
29119.276
28716.939
29080.403
29013.323
29026.824
29026.723
29076.095
29088.866
29209.241
29165.396
29253.358
29155.09
29311.819
8984.0276
5687.2502
5638.295
5786.8675
5894.1034
6334.3505
6321.6491
6758.8402
6509.2728
6939.1675
6319.9029
6648.1909
5992.4887
6301.2275
5578.9151
5872.4623
5486.9021
5399.4787
5149.6126
4966.6538
4691.3385
4251.4239
3981.9508
3359.555
3030.9316
2506.2167
2136.5063
1734.3422
1549.7806
1354.0059
1166.4649
1232.4282
1300.4671
1321.5193
1347.2603
1168.7358
1145.9621
945.96578
932.5631
745.4114
740.5981
556.74741
561.25965
583.32464
458.31896
465.10528
338.95408
266.41172
98.297438
-7.0313439
-149.88438
-178.96046
-147.01049
42.436835
355.29567
811.87791
1366.279
1983.2065
2601.4379
3187.6775
3685.7477
4110.7703
4430.5421
4741.6313
4852.8989
5166.5025
5920.1049
6489.583
7016.4839
7226.6681
7798.7332
8244.6735
8761.9572
9298.6046
9910.8418
10528.84
11321.75
12071.088
13040.753
13901.061
15023.158
15910.357
17034.917
17574.372
18486.789
19396.561
20040.872
20670.447
21286.144
21723.063
22464.391
22718.885
23836.856
23964.029
26635.112
5831.4873
3745.7567
4519.3776
3971.2229
4590.1483
4434.686
4732.8665
4706.3603
4768.7017
4688.0307
4619.5002
4545.2131
4317.6228
4217.916
3948.5823
3996.0169
3490.6304
3629.8976
3280.373
3249.2888
2894.7917
2805.2602
2449.3704
2305.3908
1959.456
1772.8421
1466.2254
1297.867
1080.6234
950.3558
899.15119
830.27835
704.27468
646.94426
654.78125
634.24503
687.98665
724.73607
548.83621
511.85581
413.58443
395.16055
370.21717
357.32811
359.90482
488.50102
524.28066
634.75843
714.369
805.02966
885.87743
1006.3771
1145.7971
1347.2392
1596.0571
1913.9671
2259.4754
2640.659
3014.3452
3373.6911
3682.5682
3985.3122
4218.2911
4445.5573
4684.407
5202.4489
5759.3858
8545.125
9915.5106
10793.22
11708.001
12371.255
13114.244
13892.45
14740.109
15582.816
16537.496
17393.763
18425.516
19177.429
20244.57
20763.967
21884.785
20854.588
19428.129
19577.134
20376.766
20682.737
21572.091
21757.012
22742.48
22728.77
24101.745
23376.504
26063.939
3883.8762
2089.05
3087.0261
2540.7948
2912.7281
2730.1201
2835.5113
2936.8429
2786.2627
2852.1853
2563.0088
2631.6454
2210.5062
2266.1092
1886.8333
1874.2957
1627.6978
1619.6706
1360.6073
1373.0641
1232.3344
1180.1284
1052.7897
917.88684
754.45985
615.5975
460.11584
332.11399
259.07284
216.02674
188.75372
207.95448
326.91116
405.70757
475.71753
545.35415
455.236
355.78482
489.49593
444.39525
514.29741
508.91025
525.56273
754.2927
913.72465
1075.6872
1221.4782
1383.0388
1510.1161
1616.5151
1759.9834
1898.3728
2110.5021
2361.1054
2699.5262
3075.1308
3501.0629
3938.7885
4365.2983
4757.4818
5116.6352
5443.7651
5691.2452
6029.4956
6197.496
7033.0013
5206.6701
8156.3044
9327.2983
10021.932
10687.948
11120.774
11737.452
12398.61
13177.217
13878.17
14687.932
15412.064
16242.08
16904.47
17757.235
18285.211
19028.409
19969.306
19095.094
19032.716
19439.074
19986.927
20567.048
20975.516
21810.754
21938.325
23298.562
22965.885
25668.41
2224.2359
1280.6227
1606.7427
1534.6516
1572.3764
1507.5679
1568.0035
1486.7479
1348.5065
1341.6551
1207.0989
1107.799
871.26489
915.30511
530.40236
656.68483
272.9373
425.79373
151.04733
315.73826
41.216711
204.37812
-35.57612
80.449085
-92.669842
-49.195975
-192.17318
-150.05293
-261.45234
-193.20999
-186.75568
-61.376152
30.084252
137.2684
312.94018
401.71649
602.95347
976.97596
778.03118
933.92801
954.31774
1163.6565
1267.8271
1440.5643
1563.5769
1795.7552
2027.2835
2288.1018
2533.849
2805.0896
3072.7846
3346.7188
3645.1641
3953.8645
4287.8186
4631.4593
4994.4894
5350.1647
5702.8106
6051.0475
6377.7158
6697.0887
6989.1039
7353.1373
7606.4364
7786.6117
9101.3709
7501.0092
7523.3897
7632.6732
8572.7613
9152.6208
9143.5496
9327.8254
9981.3448
10570.503
11291.941
11926.561
12714.001
13384.253
14198.913
14798.78
15740.852
16053.441
18101.327
18941.964
19959.438
20266.898
21172.836
21430.081
22527.986
22413.975
24296.339
23180.142
25832.025
1480.5318
251.12507
842.35109
352.90157
702.22862
435.1482
607.74863
432.74038
457.71939
409.50165
233.50466
180.17525
11.932499
-71.219539
-292.79258
-279.4828
-505.37985
-417.11668
-622.82342
-464.53371
-590.95018
-384.0539
-527.27871
-330.47338
-516.0227
-404.60962
-528.61799
-498.86308
-524.13738
-410.60309
-362.93072
-182.67508
-44.248813
164.59059
324.05944
499.68243
817.61666
484.28749
244.00247
298.33615
613.81093
734.53832
974.07449
1308.2099
1634.9804
1978.7932
2315.4284
2628.8454
2962.6046
3284.2734
3633.8975
3981.0686
4389.0562
4789.7031
5243.5949
5691.3213
6163.282
6611.3054
7059.3256
7487.9404
7887.0349
8274.1676
8681.9418
9032.5936
9412.2955
9883.4233
10076.081
10972.45
11208.534
11554.084
12424.11
12471.267
12918.91
12820.302
12792.396
13190.848
13681.076
14308.098
14905.414
15539.677
16146.518
16800.548
17343.408
18010.642
18470.865
19141.638
19569.268
20106.656
20621.401
21135.948
21853.896
22230.919
23763.077
22943.208
25533.833
782.26491
39.273422
353.8209
127.11921
186.54332
118.97301
72.587623
53.435257
-1.9103124
-42.398176
-107.87145
-137.06765
-310.3478
-317.49158
-535.2069
-538.90758
-723.8484
-647.04735
-798.49655
-579.59762
-764.70554
-494.44242
-678.23185
-453.31278
-661.53629
-442.16717
-677.39172
-481.76244
-593.83853
-455.61419
-427.87607
-250.16506
-109.70251
88.718462
258.4003
468.13839
612.53498
1456.9703
1173.3093
1678.8353
1720.2803
2012.5694
2153.3658
2476.1972
2688.5024
2956.1698
3181.4049
3447.878
3687.8677
3950.6506
4203.9984
4482.721
4754.7897
5041.9794
5322.8557
5597.8
5854.584
6088.0007
6305.6559
6484.099
6642.6741
6818.62
6923.0954
7059.7008
7255.2497
7340.0685
7597.7016
7649.3002
8025.1581
8213.4468
8560.3585
8702.1603
8635.2435
10294.762
10788.432
11033.538
11557.6
12105.714
12774.782
13321.023
14090.388
14555.132
15431.421
15828.641
16761.594
17155.738
18217.093
18661.865
19825.984
20214.68
21624.542
21721.183
23762.63
22896.196
25323.388
450.14457
-339.80459
170.99034
-336.69409
-35.855067
-255.26665
-84.022525
-213.27889
-104.37856
-219.19172
-194.14587
-367.43412
-409.54153
-571.40016
-699.36116
-775.8832
-876.58075
-881.19136
-939.51277
-804.07431
-900.86187
-644.28585
-855.14935
-617.25949
-837.04969
-725.39338
-924.52087
-798.14858
-942.72245
-737.07465
-712.27768
-464.45683
-313.20194
-108.79553
95.458383
250.50225
406.3818
409.03694
784.58544
1022.0662
1074.4529
1340.1127
1530.9995
1811.0978
2086.9272
2376.1829
2699.3675
2968.9978
3256.4542
3501.0302
3765.5616
3995.4152
4256.135
4501.3447
4774.1008
5031.0368
5310.5711
5563.6522
5815.942
6031.4797
6256.1989
6428.1367
6589.309
6810.5855
6916.38
7176.3061
7314.436
7629.4705
7858.7952
8164.0062
8482.401
8988.7945
9119.0343
10675.857
11722.783
12188.759
12709.576
13268.328
13850.822
14470.645
15078.024
15733.425
16377.004
17003.26
17697.002
18260.22
18933.247
19486.677
20176.077
20656.811
21530.666
21772.89
23675.827
22594.541
25220.688
455.87361
-51.083196
248.48484
44.610013
141.48607
83.645805
111.8721
52.974668
153.32963
46.569906
91.284816
7.0216966
-30.762815
-180.29833
-203.30089
-356.78704
-365.98141
-413.08697
-417.39446
-341.83804
-460.65598
-333.04877
-497.80543
-284.86732
-632.33387
-407.68643
-691.41762
-536.6571
-665.32431
-493.3184
-501.82993
-294.27372
-227.0567
5.108273
149.84935
285.91854
484.21484
625.92487
830.56005
1015.0309
1168.5982
1451.1913
1694.7586
1986.7597
2236.9725
2566.4583
2828.9556
3140.6798
3412.4272
3712.6178
3975.7498
4264.4803
4530.2059
4803.0891
5060.3859
5311.9526
5548.0413
5757.4624
5956.6352
6133.4847
6297.679
6436.7658
6611.7434
6734.3151
6915.5255
7062.8316
7286.8621
7488.3952
7713.4247
8007.6073
8279.0533
8595.2899
9061.3642
9248.7227
9538.8839
10087.231
10581.04
11174.967
11798.023
12375.275
13083.248
13655.847
14417.287
14969.878
15825.206
16368.945
17356.772
17894.706
18988.647
19569.71
20896.169
21362.288
23254.557
22458.614
24957.904
469.39749
-236.5457
289.69863
-147.96172
125.0264
-71.453932
171.26388
17.543312
241.58867
7.8283307
123.33787
-139.494
-201.29933
-468.88584
-525.28439
-766.03251
-714.2051
-859.47399
-750.71376
-744.33394
-686.68123
-507.02698
-593.60257
-596.08039
-780.95743
-698.95239
-982.41359
-828.11615
-993.63289
-792.67694
-777.14419
-557.54606
-403.71593
-188.31933
-104.59365
159.67227
203.34522
404.22342
474.50014
639.45129
812.92204
1002.9276
1268.8538
1497.8051
1841.8453
2130.7475
2466.4919
2760.6599
3077.0646
3345.1717
3633.2505
3884.9194
4147.3591
4393.9028
4645.6605
4889.6819
5132.5744
5357.9691
5589.2777
5789.8558
5977.2197
6176.7495
6333.3497
6530.4409
6696.312
6951.071
7138.6435
7430.2318
7730.7163
8099.3756
8457.9254
8950.2466
9401.3361
10032.738
10624.216
10639.681
11388.02
11960.483
12582.285
13255.279
13898.392
14600.67
15267.111
15990.438
16679.703
17370.614
18068.172
18726.909
19449.363
20049.016
20862.932
21236.618
22757.111
21888.024
25018.775
1264.7118
465.47066
1042.1621
659.98011
954.37211
825.02606
987.71427
846.92616
972.84368
903.00662
914.06884
814.3702
815.73582
647.01596
708.04585
503.30491
628.38298
465.41027
596.12159
510.82027
530.61316
403.80505
148.53101
198.47064
7.3014446
16.51424
-138.65789
-46.194603
-137.37936
17.651675
-9.2767986
197.01761
240.08397
353.55774
563.15123
605.27905
795.67535
902.64753
1053.6582
1257.3515
1416.6095
1654.8792
1845.7537
2112.8577
2308.5107
2571.7023
2782.9133
3038.5874
3252.5514
3495.5962
3709.6439
3930.2262
4140.1445
4344.1548
4533.078
4720.371
4885.1232
5046.388
5207.1133
5332.8024
5500.2252
5634.3961
5782.4583
5949.8946
6133.8806
6305.8481
6531.2437
6779.8786
7038.9521
7331.4678
7671.5906
8060.2037
8522.8855
9150.4345
6823.5948
4638.2847
5675.7237
6110.303
6749.6388
7393.545
8080.9968
8809.6516
9595.8048
10363.953
11246.425
12046.549
13055.757
13882.152
15053.786
15928.283
17324.704
18314.317
20101.763
20409.845
25200.069
1310.7347
495.2332
979.88354
562.21122
988.53058
765.50512
1013.3703
849.67173
1075.2509
848.02054
906.57996
684.10335
724.11261
483.33239
652.75591
370.73402
761.53928
445.84187
864.75393
590.18354
946.65929
590.97107
522.15209
366.75744
149.86937
60.786974
-92.37856
-109.08134
-214.02432
-175.04244
-154.58649
-36.239848
-25.091157
240.88028
200.67131
409.23064
467.00419
596.96917
711.89055
795.39778
948.56017
1038.1405
1237.466
1375.1382
1599.4837
1784.6108
2016.7667
2194.0115
2405.8765
2564.3023
2728.2127
2857.3368
2990.9543
3099.1935
3222.122
3348.1321
3481.192
3649.1121
3810.9304
4010.5775
4217.2071
4433.3779
4655.3417
4934.5011
5154.3294
5491.5812
5775.6552
6155.3011
6521.1836
6994.4368
7455.6792
8001.8969
8607.5142
9883.9134
11866.897
7461.4131
8613.1323
9328.7657
9962.4792
10681.147
11450.728
12239.422
13069.562
13926.807
14790.666
15705.369
16573.967
17518.677
18403.631
19347.142
20343.257
21112.041
22455.831
22745.532
26841.376
3064.5292
1252.181
1911.6918
1846.7112
2219.1036
2165.5507
2430.4553
2336.98
2477.4242
2451.5844
2441.5711
2378.6873
2447.2133
2309.1452
2349.5528
2330.1705
2339.5381
2298.3421
2342.0037
2274.8161
2237.4925
2266.7644
2259.9798
2209.497
1988.4954
1811.0962
1760.8978
1744.6531
1746.7963
1827.3056
1880.9897
1933.3311
2071.7473
2091.3291
2229.9102
2319.6622
2376.0629
2465.5243
2473.3138
2573.2861
2569.9691
2683.5951
2703.4771
2828.7763
2891.6039
3036.1974
3161.8149
3332.7396
3511.918
3703.2671
3899.2299
4093.9011
4284.7684
4460.0763
4634.4163
4792.5915
4952.7271
5103.161
5259.5486
5416.7271
5571.7532
5733.5621
5885.5537
6049.4285
6184.9561
6386.4703
6543.5514
6778.6041
7028.4951
7345.8458
7688.5132
8078.3203
8649.6188
9059.1891
9801.9644
11555.419
12424
13123.402
13744.472
14441.379
15127.691
15777.407
16416.622
17033.487
17614.442
18152.517
18680.502
19153.328
19635.154
20168.359
20674.842
21331.061
22434.169
22829.607
27325.428
4614.8291
2813.1163
3380.1559
3093.5708
3183.4315
3082.0818
3294.5627
3118.6821
3334.74
3149.0086
3190.0105
3107.8218
2959.3667
2881.0404
2812.2703
2666.0578
2673.4444
2546.025
2595.8685
2460.0969
2503.6908
2264.0274
2465.8416
2537.1967
2501.8141
2229.4101
2159.3742
1914.2024
1804.9394
1667.9127
1531.8578
1532.2441
1394.7189
1478.7212
1399.2589
1417.9683
1438.4128
1432.8497
1502.1048
1478.6316
1570.9416
1576.3567
1669.4804
1723.8836
1822.7525
1891.2823
1983.9802
2015.6406
2055.9984
2031.2118
1992.4176
1912.0421
1828.5672
1740.1063
1685.3438
1681.5227
1734.5413
1876.9447
2084.7737
2372.5421
2698.3262
3085.6591
3439.6149
3871.3895
4171.3202
4621.3084
4855.7864
5323.5089
5641.9691
6071.5157
6422.7939
7024.4415
7292.9537
8006.6378
8479.4075
9248.2943
9661.1368
10324.032
10942.647
11709.4
12452.925
13304.264
14148.226
15073.095
15933.347
16867.833
17706.405
18596.329
19414.726
20247.583
21057.291
21851.175
22661.16
23344.049
27013.184
6970.5921
4105.3813
4819.0489
4242.5382
4940.2701
4923.7399
5218.1206
5387.4969
5603.3215
5685.3551
5829.535
5771.5534
5900.4512
5816.3118
5850.2283
5752.506
5797.0291
5634.002
5751.9331
5559.5266
5636.8543
5452.1639
5268.3615
5084.4065
4947.7662
4780.8028
4625.6978
4405.6449
4262.8159
4000.662
3907.7902
3703.1048
3624.3474
3579.3655
3465.7378
3451.7709
3393.0804
3401.0045
3296.8101
3321.316
3213.8443
3215.5255
3139.6468
3150.1004
3135.7986
3186.8891
3249.1519
3333.8989
3434.114
3516.5661
3583.9257
3615.3543
3626.2741
3603.3233
3588.8823
3583.005
3612.9531
3693.1852
3826.4962
4004.3772
4211.8624
4439.2381
4649.544
4859.0828
5009.2192
5238.7382
5313.8775
5609.508
5725.1175
6000.1215
6417.4816
6711.0583
7286.4741
7751.5625
8308.2906
8899.2323
9542.2415
10173.006
10835.418
11558.448
12268.456
13054.141
13833.448
14636.713
15428.554
16206.078
16963.975
17682.807
18392.779
19098.483
19788.516
20585.279
21421.921
22737.786
26964.999
9411.8142
4727.9437
6135.6997
5426.9573
6393.7945
6163.9578
6759.1604
6772.073
6922.1136
6931.2638
6749.4316
6805.065
6681.4942
6653.3216
6755.5606
6640.6199
6868.4002
6634.6204
6788.0433
6359.7283
6404.0077
5643.4015
5545.8632
4681.6391
4490.6398
3931.8629
3764.8338
3533.0236
3536.3132
3635.1047
3683.8349
3847.2823
3934.5769
4032.5021
3922.2688
3961.8116
3853.0274
3713.3013
3609.5094
3400.3135
3279.0139
3104.2066
2973.2626
2810.3515
2647.6483
2441.8482
2227.2818
1980.5311
1760.8408
1576.1169
1472.8372
1494.5025
1655.0401
1959.5207
2407.1383
2952.8473
3536.334
4133.349
4652.052
5084.0991
5387.1813
5594.4895
5676.7801
5724.915
5729.8959
5787.492
5732.6988
6030.5841
5975.6619
6529.691
6569.0549
7211.7725
7453.9628
8158.144
8701.956
9577.2625
10427.249
11470.435
12651.381
13888.154
15146.339
16450.416
17637.575
18833.841
19853.907
20871.351
21727.417
22598.474
23405.474
24207.445
25086.889
25982.609
26850.853
28148.889
29207.309
4154.6692
4204.7425
3227.5645
2954.3088
2914.0082
2884.6876
2866.2061
2906.2928
2927.8919
3172.6284
2978.8795
3012.3408
3593.1615
3734.2533
4451.3781
3381.5974
2838.9611
2265.7026
2353.8269
2079.274
2076.1531
1999.1755
1993.9943
2163.6274
2049.0134
2111.3842
2280.0651
2386.2614
2870.8789
3319.1533
2082.2854
1407.1495
789.35992
763.97341
565.5311
524.8926
554.41225
463.27603
500.28662
535.6648
637.51433
620.51514
819.65199
1369.1606
1761.1535
1220.4571
1007.413
708.32783
517.53812
520.6106
446.07879
452.26015
407.44908
500.19497
482.44299
569.1782
585.87
838.64841
1216.0344
1056.4571
514.32977
344.65215
27.927461
-16.056067
-116.71626
-119.52098
-144.7181
-136.64143
-159.7078
-139.08984
-110.76019
-37.277423
100.81326
220.5989
652.53811
467.0994
222.05299
65.60311
55.060956
6.0423561
2.8254958
-31.857038
-15.704054
-16.463017
-8.4402895
32.539453
21.566981
90.870895
223.45855
396.84284
84.072048
-44.626052
-137.86632
-199.44512
-210.12805
-245.26366
-244.56508
-268.40096
-262.87224
-246.01564
-244.8883
-175.26312
-138.47711
9.1349109
169.45325
224.67569
107.94628
0.16011309
-9.6340221
-51.917611
-57.831328
-75.51172
-77.371234
-66.796445
-87.398898
-62.122128
-50.663984
-34.508051
44.874677
181.40428
129.80668
12.648029
-157.77304
-172.83323
-224.33571
-242.43554
-253.28904
-234.04829
-254.03547
-183.26982
-202.02208
-121.48475
-99.820673
99.560821
181.27075
716.63193
478.72643
258.04974
235.55015
142.45322
134.34446
121.40695
106.96751
106.43828
67.554702
148.53743
104.38293
181.77371
375.40206
505.92846
436.60998
246.96144
-73.3934
-130.92006
-237.30721
-184.31133
-266.93517
-197.70898
-246.97813
-109.33087
-130.60769
-54.065403
101.66996
416.54549
586.05028
1122.2308
673.05119
410.67734
197.68145
161.60401
-2.6532427
27.602693
-29.896974
9.6035945
17.520993
93.429755
198.72596
318.32455
687.94334
1095.0284
1348.8398
1318.3574
477.39054
464.01865
198.98017
243.75611
60.535439
224.24511
233.1404
254.34778
374.1807
348.66336
576.77679
1235.652
1632.1855
3341.0499
2381.8361
1850.6954
1521.5556
1283.0336
1153.0403
1328.5176
1401.7013
1332.3176
1146.3949
1237.8731
1237.6136
1450.7261
1965.9705
2825.0957
4510.3559
4613.6749
3064.8067
2890.429
2548.1848
2351.5463
2666.9003
3002.8624
2490.8875
2759.7082
2492.8017
2688.245
3103.584
4060.9333
4864.2085
15735.198
16590.967
14547.568
15827.645
16535.119
15609.335
16659.644
17882.026
16806.776
17222.718
16783.245
16150.79
15911.467
16583.231
14319.925
14342.634
10052.278
11236.335
11200.887
9917.6707
11826.706
11239.827
11167.227
12141.27
10311.243
10833.673
9791.4205
10776.793
12254.054
13546.677
8199.0273
8294.5679
7264.7971
7357.2129
9034.3133
6533.5719
6431.5524
6495.7794
4833.5903
7423.518
6619.7861
9158.1319
8127.5867
6923.3504
8553.0282
7413.9186
9103.491
8726.6182
7046.8072
7003.6011
7222.4859
6750.7727
7213.8284
7332.043
6503.3732
7443.3311
7235.9745
8089.3558
8723.9739
7823.9298
9801.3033
9358.6743
8235.2321
9886.6235
8769.3148
8916.6305
9265.8744
8873.4293
9130.1093
10378.82
9069.2575
9831.8175
8720.2868
8967.932
9725.4884
7201.5338
8455.5128
8453.4592
8312.2098
8289.4278
8251.0232
7873.1036
7838.6877
7986.5102
7316.1706
8236.0293
7854.826
8153.6893
8598.7913
7667.2814
8596.6383
9372.2344
9225.509
9154.0041
9090.744
9270.2359
9418.1699
9287.9802
9425.5669
9559.903
9062.1261
9389.6203
9009.3623
8698.5502
9371.737
8660.4926
8610.3967
8934.9595
9220.6062
9427.1255
9113.0938
9139.8459
9259.4619
8942.2633
9263.9695
9200.7992
9092.1003
9006.4795
8445.4675
8951.0723
8824.2325
9574.1376
9599.1783
9963.289
9513.8527
9857.4227
9729.7232
9871.912
9807.043
9711.9383
9610.5423
9348.805
9361.5895
9214.8083
9199.1514
9504.1544
9155.3161
9516.7758
9434.9854
9631.2193
9451.7243
9541.0817
9391.2375
9206.8119
9675.2712
9070.676
9712.6743
9081.1907
9147.089
9773.8935
9477.926
9831.8417
9897.1621
10186.878
10051.33
10327.373
10172.129
10300.745
10420.341
9948.8044
10529.74
9929.4496
10081.137
9981.465
10027.835
10102.525
9601.107
9838.951
9753.9383
9803.9762
9688.804
9658.1879
9542.7228
9341.4963
9485.7999
9144.3623
9335.0056
9098.7659
8966.3521
9884.6787
9935.892
9818.0445
9597.0971
10011.154
9880.6495
10029.855
10030.562
9997.2455
10230.016
10060.951
10234.538
10024.481
10022.655
10048.515
10179.571
9730.6649
9467.7451
9813.7509
9446.0418
9533.5067
9567.7052
9373.024
9301.7835
9026.0964
8982.8345
8725.5305
8853.0798
8630.9344
8399.6191
9502.3852
9577.3037
9074.7655
9159.7533
9512.3964
9539.912
9314.2186
9448.2255
9188.153
9551.2104
9448.1901
9735.3435
9511.3704
9489.2917
9562.3705
9808.9899
8929.584
8831.75
9035.1056
8977.6069
8653.7958
9037.1011
8826.2786
8678.813
8334.8483
8319.7471
7922.3193
8040.5643
7912.4808
7810.6139
8574.5796
8580.4609
8129.9721
8202.8083
8143.7547
8624.8684
8336.6336
8514.7547
8219.5171
8608.8005
8391.7257
8720.1041
8567.8058
8445.6649
8020.3244
9095.3096
8100.5129
8014.1381
8044.3053
8137.052
7762.5353
7973.3956
7672.8674
7912.5697
7592.5217
7618.9258
7296.3547
7111.3752
6973.826
6988.227
7160.155
7782.5723
7477.6924
7827.8898
7569.684
7807.5139
7458.3782
7854.1338
7338.2649
7617.0201
7429.1658
7278.6986
7413.3085
7598.6743
7316.0259
8277.8798
7404.1574
7204.3629
7034.3427
7205.0974
7063.6984
7235.4231
7156.6185
7058.9096
6993.3569
6860.531
7042.6983
6893.7613
6489.7265
6451.5879
6808.7944
7391.114
7027.5989
7271.8543
6959.5526
7054.7096
6665.0088
7042.8153
6758.3512
6943.0384
6515.4223
6765.4454
6536.9267
7263.2115
6503.1196
7436.908
7043.9627
6942.1341
6697.4238
6893.355
6590.0446
6870.6391
6483.4526
6690.4977
6185.3425
6928.1156
6437.9461
6622.207
6002.7354
5676.9035
7391.0361
7316.4219
6510.5131
6825.1555
6410.4782
6598.9079
6528.7446
6471.852
6132.0105
6432.632
6207.5674
5860.1419
5925.2201
5953.5342
5935.2805
7482.8143
6824.2562
6710.5122
6333.6473
6462.8249
6198.8152
5987.8633
5983.6882
5854.9471
5856.5507
5663.0352
5798.1411
5998.1932
6101.2881
5489.8614
7870.6779
7167.1405
6162.631
6089.1031
5688.1422
5965.5924
5550.8471
5952.854
5572.9449
5721.5332
5521.8048
5866.7214
5679.8742
5397.821
5343.1596
7383.3579
6478.9971
5700.6018
5761.6955
5589.1422
5526.2518
5578.2696
5259.4485
5207.3897
5146.6945
5079.3274
5055.7918
5156.4986
5576.5894
5346.9316
6759.7694
6175.9514
5273.3014
5456.5015
4964.5124
5332.1338
4798.7827
4971.7856
4748.8947
4841.338
4701.7922
4855.3192
4259.5554
4650.0027
4067.0488
6727.9407
5457.9121
4675.7179
4524.7413
4653.1744
4297.9761
4218.4878
4252.8826
4043.7868
4208.2721
4004.6995
4179.1721
4291.2638
4211.7395
4261.7934
5356.9245
4908.993
4164.2415
4020.3471
3714.201
3799.6297
3705.3683
3709.9788
3533.8238
3527.0205
3487.2534
3471.8565
3647.4614
3412.2895
3043.1999
5404.5697
3912.1903
3247.1341
3388.2731
3275.4018
3241.7816
3278.889
3029.8354
2945.7328
2737.4494
2704.7408
2670.5573
2580.5595
3064.835
2580.5805
3660.0144
3571.5337
3100.3751
3180.1849
2802.7607
2937.3183
2315.0904
2616.2271
2291.1728
2754.4157
2369.6275
2357.3899
2251.1822
2175.5064
2012.9561
3049.0376
2919.8259
2409.1304
2381.0335
2244.5255
2216.4404
2184.6552
2161.912
2048.3787
1926.0944
1800.6117
1842.1554
1791.2977
1806.1603
1717.9383
2397.7549
2357.2888
1948.3793
2096.5917
1886.6328
2021.6926
1752.2978
1898.2454
1574.6885
1744.4478
1518.0428
1659.7793
1478.0491
1544.689
1455.0525
1733.7304
1942.1857
1724.1515
1821.6505
1729.4824
1735.911
1582.872
1623.3481
1492.2969
1522.2467
1393.6925
1404.4628
1337.8555
1349.5295
1217.384
1423.8631
1764.3513
1563.9938
1712.8542
1914.8765
1662.3166
1513.0384
1606.4247
1453.5671
1471.9093
1401.6276
1437.7479
1382.1558
1370.7049
1402.7448
1468.5875
1779.8351
1631.2707
1723.5332
1402.5669
1599.3972
1490.6674
1523.3653
1374.8
1540.3809
953.95428
1411.0271
1229.262
1365.2897
1204.1768
1500.478
1488.1054
1508.3882
1764.6511
1638.5907
1733.0619
1476.9974
1637.8344
1387.357
1465.1213
1589.3835
1450.057
1468.0754
1301.1804
1428.4123
1383.1749
1734.5053
1981.7913
1924.2407
1920.397
1789.531
1784.8399
1698.2327
1631.7514
1662.1521
1417.0766
1565.583
1394.9156
1618.3469
1458.5523
1437.2115
2042.0271
1923.7531
2063.4013
1865.4921
2042.8531
1760.7462
1911.5136
1688.4932
1734.8557
1665.9194
1618.8369
1697.3943
1592.4875
1538.0128
1703.1477
2061.7679
2159.7845
2123.549
2139.709
2034.6658
1952.5508
1934.1989
1776.3206
1855.3429
1649.7121
1787.9914
1625.5234
1663.4283
1653.319
1744.1757
2325.8988
2300.4317
2345.5773
2174.7691
2245.8303
2037.8607
2084.6163
1944.0604
1921.4925
1865.8825
1818.5247
1797.0441
1784.3897
1693.1245
1917.3613
2454.2206
2512.9265
2380.5324
2367.5699
2318.7123
2164.9099
2201.7546
1996.2837
2064.6964
1901.1566
1915.0783
1902.2024
1799.9275
1795.0654
2106.0654
2732.5824
2675.3701
2634.1135
2532.5718
2522.3362
2367.4261
2364.6563
2236.9482
2220.7945
2115.0348
2108.4366
2063.1534
1982.3609
1961.7554
2387.6939
2960.067
2974.4775
2827.5866
2772.7613
2739.8226
2568.3839
2604.1344
2436.6779
2436.5607
2351.3806
2283.9236
2317.6489
2195.3387
2172.2863
2808.4673
3396.9737
3300.7964
3190.6688
3136.2246
3083.4006
2938.8727
2951.4704
2808.2491
2804.2834
2701.2739
2661.7911
2687.9296
2562.4073
2527.2436
3410.2635
3873.3324
3756.2783
3623.5649
3562.1876
3498.6928
3348.0293
3362.3919
3234.7478
3192.4965
3153.8962
3066.7049
3133.8285
3031.2938
2953.6813
4173.1623
4530.2847
4306.6267
4169.1065
4120.5814
4053.3152
3903.2534
3919.2117
3776.1927
3760.3505
3704.8745
3617.0048
3713.0503
3627.0246
3495.6111
5079.5104
5274.5161
4931.3521
4798.6835
4748.8549
4628.9243
4467.0624
4455.1256
4357.3054
4301.353
4284.5729
4194.2429
4316.0822
4271.9682
4086.9133
6074.0617
6082.7208
5604.9679
5466.8668
5391.5454
5274.4036
5114.855
5132.2632
5011.2379
4953.721
4944.1663
4842.0176
4970.9026
4964.8323
4712.9738
7051.9911
6912.5549
6279.4738
6121.2121
6064.5436
5902.2265
5725.2791
5680.8415
5576.8439
5500.7671
5514.8764
5414.0573
5560.9226
5605.4778
5298.4067
7950.1707
7665.6756
6882.1008
6740.7321
6644.6407
6464.5789
6285.7358
6280.5384
6190.0344
6100.2136
6115.9573
6002.4427
6136.9551
6197.385
5847.8889
8666.6597
8299.9734
7427.2463
7255.8717
7169.9645
6979.578
6810.5678
6749.8361
6641.5955
6526.4574
6557.4486
6445.6615
6575.3077
6665.2065
6300.5185
9172.3103
8778.5949