/*--------------------------------*- C++ -*----------------------------------*\
  =========                 |
  \\      /  F ield         | OpenFOAM: The Open Source CFD Toolbox
   \\    /   O peration     | Website:  https://openfoam.org
    \\  /    A nd           | Version:  6
     \\/     M anipulation  |
\*---------------------------------------------------------------------------*/
FoamFile
{
    version     2.0;
    format      ascii;
    class       pointVectorField;
    location    "1.89";
    object      u;
}
// * * * * * * * * * * * * * * * * * * * * * * * * * * * * * * * * * * * * * //

dimensions      [0 1 0 0 0 0 0];

internalField   nonuniform List<vector> 
625
(
(0 3.7347114e-19 0)
(0 3.266622e-19 0)
(0.048138786 -0.017786441 -0.1840489)
(0.048098183 -0.025608653 -0.17899534)
(0 4.8662274e-19 0)
(0 2.5545083e-18 0)
(0.043461289 0.020619097 -0.18006527)
(0.043447767 0.028490269 -0.18514307)
(0 -5.7075445e-20 0)
(2.4757373e-19 -5.7506994e-19 0)
(0 1.1664279e-18 0)
(0.048132217 -0.019743343 -0.18279528)
(0.048128677 -0.021752956 -0.18157508)
(0.048050923 -0.023621358 -0.18028551)
(-0.00029469949 -0.00032196858 0.00020828952)
(-0.00011953069 -0.00041806438 -0.00029821871)
(0.0013147718 -0.0015154831 -0.0021030155)
(0.0022939532 -0.0017400611 -0.0047534986)
(0.0044081438 -0.0028360836 -0.0078808062)
(0.0059394038 -0.003377756 -0.012170589)
(0.008362978 -0.0046382874 -0.016903267)
(0.010482303 -0.0052963119 -0.022613588)
(0.012995313 -0.0067349919 -0.028940517)
(0.015485576 -0.0075104567 -0.036156879)
(0.018120595 -0.0088766962 -0.043925488)
(0.020695564 -0.0098601496 -0.052468344)
(0.023298483 -0.011072536 -0.061563831)
(0.025899626 -0.012075155 -0.071267466)
(0.028398499 -0.013121649 -0.081446808)
(0.030881579 -0.014009902 -0.092073095)
(0.033263654 -0.014863372 -0.10303023)
(0.035574385 -0.015519492 -0.11432878)
(0.037816457 -0.016160408 -0.12576196)
(0.039994892 -0.016635738 -0.13738585)
(0.042089267 -0.016988318 -0.14910343)
(0.044155547 -0.017315173 -0.16074273)
(0.046134978 -0.017517829 -0.17243428)
(0.00097967267 -0.0015392193 -0.00074710883)
(0.0018103511 -0.0033004419 -0.0014808957)
(0.0033279609 -0.0053913225 -0.0021886324)
(0.004411456 -0.0069282672 -0.0047878877)
(0.0064698512 -0.0091727279 -0.0072732212)
(0.0081749467 -0.010426257 -0.011147142)
(0.01042459 -0.012506438 -0.0154543)
(0.012594981 -0.013808328 -0.020755741)
(0.014926378 -0.015350617 -0.026680503)
(0.017439322 -0.016807013 -0.033457156)
(0.019750402 -0.018014354 -0.040956262)
(0.022272255 -0.019175974 -0.049118)
(0.024598631 -0.020264432 -0.057980863)
(0.027001993 -0.021144371 -0.067388968)
(0.029238528 -0.021990383 -0.077386452)
(0.031514608 -0.022667993 -0.087774334)
(0.033646935 -0.023275736 -0.098622743)
(0.035792163 -0.023752769 -0.1097028)
(0.037834151 -0.024186897 -0.1210852)
(0.039929597 -0.024521913 -0.13255891)
(0.04190659 -0.024806 -0.14419424)
(0.043988888 -0.025066458 -0.15578597)
(0.045961445 -0.025313656 -0.16747846)
(0 3.4298832e-19 0)
(-4.4307333e-18 -9.5334461e-19 0)
(0 2.3901004e-18 0)
(-0.00096322171 0.00042148372 0.00046967304)
(-0.0010732738 0.0021110861 -0.0003281475)
(-0.00023907827 0.0022271101 -0.0015862805)
(0.0010535757 0.0039040254 -0.0040618871)
(0.0024065876 0.0050645322 -0.0071729895)
(0.0039653534 0.0065177277 -0.010847576)
(0.0060445321 0.0077321039 -0.015673716)
(0.0077686019 0.0093518567 -0.020983572)
(0.010328343 0.010369065 -0.027120615)
(0.012233189 0.012333333 -0.034186729)
(0.014936459 0.013191084 -0.041707235)
(0.017058472 0.01499103 -0.050163206)
(0.019659329 0.015898249 -0.059031678)
(0.02192742 0.017309312 -0.068632075)
(0.024349528 0.018180302 -0.078614144)
(0.026614627 0.019194117 -0.089126927)
(0.028880346 0.019857083 -0.099917877)
(0.031055551 0.020482369 -0.11105458)
(0.033192573 0.020869179 -0.12237181)
(0.035267287 0.021104391 -0.1338324)
(0.037331765 0.021190036 -0.14541043)
(0.03936621 0.021103418 -0.15696473)
(0.0413686 0.020925947 -0.16854477)
(0.043423815 0.022637635 -0.18133214)
(0.043506491 0.024554184 -0.18259897)
(0.043450482 0.026590357 -0.18387316)
(0.041487419 0.028767589 -0.1735767)
(0.039645637 0.028940767 -0.16187276)
(0.03778513 0.029094829 -0.15017182)
(0.035967763 0.029094973 -0.13844633)
(0.034125861 0.029012062 -0.12679587)
(0.032255164 0.028779509 -0.1152983)
(0.030333595 0.028387913 -0.10399569)
(0.028360538 0.02787605 -0.093017099)
(0.026295522 0.027134943 -0.082373725)
(0.024204953 0.026298927 -0.0722084)
(0.022016264 0.025183298 -0.06250712)
(0.019801536 0.024055335 -0.053475645)
(0.017610575 0.022498624 -0.044865005)
(0.015280342 0.02113581 -0.037285343)
(0.013248585 0.019337338 -0.029962577)
(0.010993619 0.01758749 -0.023807947)
(0.0091797949 0.015304571 -0.018006236)
(0.0070513755 0.013631413 -0.01353626)
(0.0057656191 0.011102859 -0.009138108)
(0.0040357056 0.0090598801 -0.006153436)
(0.0030073576 0.0065184062 -0.0037489576)
(0.0022923284 0.0045321952 -0.0016737394)
(0.0018763911 0.0019046428 -0.00069093802)
(0 -6.099376e-19 0)
(0 -6.3435658e-19 -1.3084238e-18)
(0 -1.8697881e-18 0)
(0 1.0633802e-18 0)
(0 -1.1766098e-19 3.7516602e-19)
(0 8.0993198e-19 0)
(0.046936341 -0.014024042 -0.17926884)
(0.045780299 -0.0024560509 -0.17951627)
(0.044648805 0.009057798 -0.17979697)
(0.046983397 -0.0061392961 -0.1843106)
(0.045800476 0.0053952042 -0.18452618)
(0.044618151 0.016910742 -0.18486179)
(-0.00033488154 -0.0033871663 -0.00011478871)
(-0.00021081842 -0.007009761 -0.0008018123)
(0.00095706967 -0.010530292 -0.0026141766)
(0.001993402 -0.013055422 -0.0048772556)
(0.0039604057 -0.015436908 -0.0081072043)
(0.0055728249 -0.016837518 -0.012087749)
(0.0081193527 -0.017610261 -0.016819473)
(0.010215752 -0.017589182 -0.022335856)
(0.012965227 -0.017099595 -0.02862082)
(0.015558823 -0.01578192 -0.035750338)
(0.018349757 -0.014351164 -0.043500448)
(0.021065717 -0.01243901 -0.051993428)
(0.023857858 -0.010642478 -0.061094766)
(0.026525935 -0.0088621308 -0.0707585)
(0.029148764 -0.0074494715 -0.080940297)
(0.031658279 -0.0064545797 -0.091509397)
(0.034031913 -0.0060305954 -0.10245577)
(0.036327137 -0.0062521427 -0.11365043)
(0.038461432 -0.0071584112 -0.12500908)
(0.040520012 -0.0087102656 -0.13654773)
(0.042477969 -0.010839269 -0.1480852)
(0.044397711 -0.013499851 -0.15968367)
(0.046237268 -0.016512707 -0.17126346)
(0.00023221854 -0.00096153055 -0.00045420095)
(0.00053528322 -0.0018705636 -0.0014945943)
(0.0020401436 -0.0034846725 -0.002807483)
(0.0032746204 -0.0044454424 -0.0053319342)
(0.0051500481 -0.0060338824 -0.0083390398)
(0.0070449013 -0.0070114674 -0.012310289)
(0.0093046357 -0.0086384938 -0.016815522)
(0.011449875 -0.009635836 -0.022371265)
(0.014012152 -0.0111404 -0.028465632)
(0.016376435 -0.012169235 -0.035400156)
(0.018988087 -0.013526914 -0.042975864)
(0.021477264 -0.0145385 -0.051292259)
(0.023988888 -0.015681943 -0.060185054)
(0.026450782 -0.016619302 -0.069668102)
(0.028853895 -0.017547613 -0.079679031)
(0.031198669 -0.01832879 -0.090102105)
(0.033468121 -0.019035534 -0.10095396)
(0.03569218 -0.019653939 -0.11204671)
(0.037820014 -0.020129832 -0.12344341)
(0.039960145 -0.020596939 -0.13493723)
(0.041999745 -0.02088698 -0.14662385)
(0.044071924 -0.021228423 -0.15823059)
(0.046094364 -0.021480846 -0.16992816)
(0.00055165056 0.0019408744 -0.00055713154)
(0.0012709959 0.0033844143 -0.0014726849)
(0.0030772762 0.0039386674 -0.0027601586)
(0.0041784912 0.0043283835 -0.005230193)
(0.0063462346 0.0039873474 -0.0081691705)
(0.0081613659 0.0026618748 -0.011931917)
(0.010372747 0.00093885341 -0.016609347)
(0.012516757 -0.0016828391 -0.021907567)
(0.014949274 -0.0049728627 -0.027911275)
(0.017118519 -0.0085715845 -0.034765544)
(0.019589192 -0.012721125 -0.042176505)
(0.021775609 -0.016765584 -0.050350696)
(0.024163252 -0.020877684 -0.059054921)
(0.026353047 -0.024601519 -0.068395194)
(0.028626095 -0.027864754 -0.078226654)
(0.030787573 -0.030457955 -0.088544845)
(0.032976351 -0.032268671 -0.099265886)
(0.035111483 -0.033224427 -0.11033733)
(0.037254223 -0.033287378 -0.12168597)
(0.039394488 -0.032534044 -0.13324618)
(0.041551444 -0.03099135 -0.14493624)
(0.043714689 -0.028914745 -0.15669007)
(0.045880306 -0.026320468 -0.16851567)
(0 -3.8329457e-19 0)
(0 6.3890626e-19 1.3401326e-18)
(0 1.3886362e-18 0)
(-6.5810354e-19 1.3140424e-20 0)
(2.7487481e-19 -4.0728045e-19 -2.0285389e-20)
(-1.7322587e-18 -1.5578839e-18 0)
(0 5.8677896e-19 0)
(0 1.5769831e-18 -4.1940809e-20)
(0 1.7329881e-18 0)
(0.00090931556 -0.00070966847 0.00024941278)
(0.00037117281 -0.00037463603 0.0007871562)
(-0.0002861403 9.1638668e-05 0.00084430258)
(0.0015553755 -0.0020370501 -0.00050244852)
(0.00081041323 -0.00042282048 -0.00022720378)
(-1.5620163e-05 0.0008591637 9.8988574e-05)
(0.002687787 -0.0036103319 -0.0015194341)
(0.0017468203 -0.0017431943 -0.0011526284)
(0.00085200086 0.00066104181 -0.0013229683)
(0.0038033621 -0.0043662061 -0.0040408082)
(0.0030835288 -0.0013613007 -0.0037144178)
(0.0021363475 0.0010610024 -0.0036185227)
(0.0056703353 -0.0056201562 -0.0067234477)
(0.0046292905 -0.0023060307 -0.0063490974)
(0.0035570973 0.001636283 -0.0066608977)
(0.0072681778 -0.0064247389 -0.010488598)
(0.0062410773 -0.0018203609 -0.010315332)
(0.0051228899 0.0024020365 -0.010495706)
(0.0094227631 -0.0073434228 -0.015061566)
(0.0084287124 -0.00237423 -0.014771642)
(0.0072835293 0.0028174857 -0.015063509)
(0.01146119 -0.0078910112 -0.020270816)
(0.010348317 -0.0022113042 -0.02010339)
(0.0089883244 0.0035866972 -0.020389254)
(0.013967441 -0.0090540362 -0.026345)
(0.012692585 -0.0025418237 -0.026238705)
(0.011561118 0.0039814764 -0.026567843)
(0.016075405 -0.0093575663 -0.033182293)
(0.014939429 -0.0021759715 -0.033078237)
(0.013562283 0.0049682697 -0.033494402)
(0.018693846 -0.010188404 -0.040716291)
(0.01739902 -0.0024632349 -0.040690873)
(0.01612514 0.0054535118 -0.0411315)
(0.020939956 -0.010535792 -0.049014645)
(0.019715715 -0.0020320319 -0.04901162)
(0.018391069 0.0063093238 -0.049462036)
(0.023458667 -0.011099612 -0.057887045)
(0.022174856 -0.0021968985 -0.057902534)
(0.020851255 0.0068753108 -0.058431788)
(0.025734503 -0.011390999 -0.067397887)
(0.024482507 -0.0018547668 -0.067492151)
(0.023199108 0.0075646772 -0.067982965)
(0.028104876 -0.011793416 -0.077425472)
(0.026852702 -0.0019120562 -0.077493945)
(0.025546279 0.0080968402 -0.078025735)
(0.030335943 -0.012050772 -0.087875328)
(0.029080356 -0.0016688042 -0.088019749)
(0.027824499 0.0086197701 -0.088540505)
(0.032543522 -0.012312851 -0.098753063)
(0.031311161 -0.0016844807 -0.098890296)
(0.030058712 0.0090081517 -0.09939315)
(0.034677435 -0.012554423 -0.10987146)
(0.033445459 -0.001583741 -0.11005602)
(0.032229812 0.0093261628 -0.11055345)
(0.036772729 -0.012766046 -0.12127622)
(0.035561196 -0.0016232204 -0.12147553)
(0.034354375 0.0095400866 -0.12192776)
(0.038828319 -0.012994672 -0.13277749)
(0.037603856 -0.0016407888 -0.13299831)
(0.036426729 0.0096382707 -0.13342983)
(0.04083932 -0.013184036 -0.14440382)
(0.039655421 -0.0017890522 -0.14466546)
(0.03848786 0.0096265122 -0.14505288)
(0.042881008 -0.013461517 -0.15604021)
(0.041691358 -0.0019366134 -0.15631648)
(0.040529247 0.0095509665 -0.15664655)
(0.0448628 -0.013681151 -0.16770972)
(0.043678122 -0.002118438 -0.16797282)
(0.042530554 0.0093690264 -0.1682696)
(0.046963978 -0.0081038183 -0.18305021)
(0.045806179 0.0034577914 -0.18327922)
(0.044623394 0.015008775 -0.18359711)
(0.04698551 -0.010103122 -0.18181145)
(0.045816765 0.0014464938 -0.18202117)
(0.044682858 0.012995113 -0.18235102)
(0.04686017 -0.011982584 -0.18053048)
(0.045721207 -0.00044883797 -0.18075412)
(0.044575158 0.011113315 -0.18106194)
(0.00014307684 5.0409783e-05 0.00045565772)
(0.0010035223 0.00058741899 0.00044214444)
(0.0011120384 0.001450463 0.00024166814)
(0.00076725433 0.00056702143 -3.0028137e-05)
(0.0011427211 0.0021064083 -0.00030054373)
(0.0018947491 0.0030924778 -0.0008847781)
(0.0016195538 0.00050307945 -0.0017845253)
(0.0025942829 0.0023142378 -0.002195034)
(0.0027778676 0.0043773686 -0.0027643773)
(0.003003644 0.0010558731 -0.0043638806)
(0.0032661496 0.0039391591 -0.0047831186)
(0.003813506 0.0063185662 -0.0051768602)
(0.0046325582 0.00061278766 -0.007633739)
(0.00525383 0.004040299 -0.0078008695)
(0.005552015 0.0074395726 -0.0082800496)
(0.0063634374 0.00094819927 -0.011771563)
(0.0066973251 0.0054756581 -0.012146645)
(0.0070047232 0.009234746 -0.012562957)
(0.0086391685 0.0004226392 -0.016546634)
(0.0089862283 0.0051992322 -0.016836044)
(0.0090652242 0.010166638 -0.017167911)
(0.010669408 0.00024956741 -0.022302448)
(0.010797705 0.0062401629 -0.02253472)
(0.010954855 0.011566442 -0.022923701)
(0.013111303 -4.3557861e-05 -0.028649107)
(0.013205612 0.0064150635 -0.028756609)
(0.013276682 0.012672045 -0.029188709)
(0.015434136 -0.00034981934 -0.035821996)
(0.015469121 0.0069833611 -0.036168636)
(0.015374576 0.013751388 -0.036399544)
(0.017990176 -0.00094711353 -0.043673514)
(0.017861298 0.0068405549 -0.043825346)
(0.017759271 0.014400453 -0.044135663)
(0.020383821 -0.0013964465 -0.052203735)
(0.020261931 0.0071969878 -0.052426583)
(0.019997997 0.015243999 -0.052720153)
(0.02294258 -0.0018882107 -0.061369582)
(0.022611702 0.0071284645 -0.061542732)
(0.022315094 0.015846934 -0.061829289)
(0.025325155 -0.002434705 -0.071071958)
(0.024987465 0.007189503 -0.071269959)
(0.024556892 0.016381604 -0.071546137)
(0.027770146 -0.0029281416 -0.081331848)
(0.027255288 0.007089768 -0.081492115)
(0.026760099 0.016768603 -0.081787273)
(0.030087046 -0.0034401262 -0.091953227)
(0.029514408 0.006997996 -0.092154449)
(0.028903883 0.01710229 -0.092442741)
(0.032379818 -0.0038918835 -0.10301969)
(0.031670156 0.0068547596 -0.1031879)
(0.030991655 0.017290493 -0.10349834)
(0.034585981 -0.0043204228 -0.11430057)
(0.033805854 0.0066676324 -0.11450059)
(0.033011968 0.017433733 -0.11481928)
(0.036757949 -0.0047229411 -0.12583125)
(0.035845018 0.0065041802 -0.12604435)
(0.034986356 0.017484382 -0.12637779)
(0.038849953 -0.0050319982 -0.13750105)
(0.037882402 0.0062791301 -0.13770888)
(0.036930645 0.017469267 -0.13805973)
(0.040915879 -0.0053513433 -0.14924312)
(0.039834268 0.0061093541 -0.14946325)
(0.038838916 0.017412974 -0.14982498)
(0.042933056 -0.0056393135 -0.16093183)
(0.041850998 0.0058523373 -0.16122093)
(0.040774259 0.017277359 -0.16156282)
(0.044941291 -0.0058508455 -0.17270208)
(0.043811056 0.0056962046 -0.17300202)
(0.042648911 0.017164327 -0.17328969)
(0.00041087629 -0.0021219078 -0.0010875079)
(0.0010717551 -0.0023882371 -0.0020791738)
(0.001742839 -0.0023947333 -0.0037844421)
(0.0024868525 -0.0024874099 -0.0060352652)
(0.0042776211 -0.0016023773 -0.0092124256)
(0.0055725915 0.00020202775 -0.013187882)
(0.0076951421 0.0021677572 -0.017803033)
(0.0096092852 0.0055586143 -0.023441326)
(0.012009119 0.0087850702 -0.029688468)
(0.014275242 0.013097513 -0.036765429)
(0.016771772 0.017200223 -0.044528496)
(0.01920482 0.02178382 -0.053118255)
(0.021643535 0.025891541 -0.06220786)
(0.024060363 0.029827364 -0.071935382)
(0.02634717 0.033144497 -0.082170431)
(0.028574858 0.035729013 -0.09278117)
(0.030677362 0.037493852 -0.10377081)
(0.032667745 0.038314536 -0.11498712)
(0.034575267 0.038206676 -0.12639062)
(0.036394518 0.037178582 -0.13790271)
(0.038146118 0.035351311 -0.14943967)
(0.039923584 0.032853639 -0.16098921)
(0.041601845 0.029843873 -0.17248229)
(-9.9337545e-05 0.00055021054 -0.00067848802)
(0.00040514134 0.0033345491 -0.0017531467)
(0.00094921349 0.0044619119 -0.0032598808)
(0.0021425759 0.0066055547 -0.0057326027)
(0.0039108715 0.0079467805 -0.0086234442)
(0.0051142834 0.010381187 -0.012939906)
(0.0074393537 0.011373086 -0.017250566)
(0.0091395935 0.013774254 -0.023087608)
(0.011572766 0.014841339 -0.029027049)
(0.013620492 0.016943736 -0.03632334)
(0.016150067 0.017997558 -0.043808776)
(0.018308292 0.01975477 -0.052375225)
(0.020760208 0.0206932 -0.061226556)
(0.023007089 0.022046737 -0.070934712)
(0.02528425 0.022825263 -0.080907832)
(0.027475848 0.02372022 -0.091466571)
(0.029605526 0.024277097 -0.10230596)
(0.031666955 0.024761397 -0.1134458)
(0.033688156 0.025033543 -0.12482284)
(0.035650217 0.025163436 -0.13629688)
(0.037582492 0.025185973 -0.14788303)
(0.039564088 0.025037058 -0.15948715)
(0.041441556 0.024829956 -0.17105512)
(-0.00039105548 0.0036941475 -0.0006155173)
(-0.0003360431 0.007980066 -0.0013617224)
(0.00078792268 0.012235267 -0.0030226284)
(0.0021956883 0.014963575 -0.0051850852)
(0.0038144952 0.01796456 -0.0085959937)
(0.0051664156 0.019928045 -0.012379839)
(0.0075253141 0.020781736 -0.017070445)
(0.0090041412 0.02156245 -0.022561116)
(0.011519259 0.021004329 -0.02875342)
(0.013356022 0.020216902 -0.035655964)
(0.015752194 0.018796703 -0.043236038)
(0.017797862 0.017153412 -0.051481856)
(0.020099936 0.01542788 -0.060330689)
(0.022216332 0.013729623 -0.069732856)
(0.024409597 0.012345165 -0.079630712)
(0.026533052 0.011345947 -0.090004823)
(0.028639079 0.010890119 -0.10073933)
(0.030746573 0.011014129 -0.11180438)
(0.032806924 0.011782893 -0.1231403)
(0.034896176 0.013140237 -0.13461721)
(0.036980815 0.015052845 -0.14628732)
(0.039096185 0.017331772 -0.15795993)
(0.04121979 0.019951638 -0.16967468)
(-9.2100681e-05 -0.0028982744 0.00016896063)
(0.00016025239 -0.0027099242 0.00015204469)
(0.00025867781 -0.0021453552 -9.511656e-06)
(0.00031332689 -0.0062469447 -0.00060705776)
(0.00036450765 -0.004805075 -0.0006923124)
(0.00094174585 -0.0039254324 -0.0012746566)
(0.0012748211 -0.0084273987 -0.0023376271)
(0.0020489005 -0.0066355881 -0.0026941731)
(0.0018137858 -0.0045283902 -0.0029445102)
(0.0024964416 -0.01065131 -0.0047305942)
(0.0024020875 -0.0077164206 -0.0047765609)
(0.0025199357 -0.0051991667 -0.0053455321)
(0.0041335552 -0.012003248 -0.0077712525)
(0.0044208102 -0.0085376057 -0.0081042019)
(0.004328906 -0.005137203 -0.0083723993)
(0.0058133253 -0.01269872 -0.011892406)
(0.0057680274 -0.0082781547 -0.011994388)
(0.0057638405 -0.0043442515 -0.012456881)
(0.0081384526 -0.012629874 -0.016534425)
(0.0081827023 -0.0078075597 -0.016701584)
(0.0078821641 -0.0027652127 -0.017017283)
(0.010224116 -0.0120099 -0.022103676)
(0.0099801159 -0.0059089802 -0.02222841)
(0.0098356435 -0.00051229459 -0.022668932)
(0.012769377 -0.010426172 -0.028335021)
(0.012625057 -0.0041451435 -0.028592091)
(0.012307497 0.0022791712 -0.028913695)
(0.015277003 -0.008646807 -0.035554399)
(0.015011973 -0.0013678248 -0.035636338)
(0.014585727 0.0055914835 -0.036048452)
(0.017986011 -0.0063479906 -0.043264409)
(0.017607321 0.0014594904 -0.043424884)
(0.017171644 0.0092299068 -0.043820786)
(0.020579215 -0.0038323688 -0.051828568)
(0.02015802 0.0046768784 -0.05201161)
(0.019616569 0.012956041 -0.052394236)
(0.023278646 -0.0013843129 -0.060929206)
(0.022739695 0.0076293325 -0.061103496)
(0.022154976 0.016622479 -0.061537538)
(0.025820738 0.00091937729 -0.070668776)
(0.025259857 0.010486133 -0.070908074)
(0.024580399 0.019926403 -0.071295202)
(0.028382485 0.0028327557 -0.080871468)
(0.027696347 0.012849526 -0.081113232)
(0.026979909 0.022811853 -0.081540457)
(0.030761889 0.0042423235 -0.091517409)
(0.030050326 0.014632464 -0.091812034)
(0.0292482 0.024984482 -0.092209707)
(0.03310717 0.0049880111 -0.10250642)
(0.032287937 0.015730545 -0.10281641)
(0.031441881 0.026419331 -0.10322761)
(0.035292746 0.0050423362 -0.11375678)
(0.034426043 0.016005274 -0.11409891)
(0.033515035 0.026995127 -0.11448429)
(0.037403307 0.0042893675 -0.12518135)
(0.036459751 0.015527362 -0.12554238)
(0.035486241 0.026699259 -0.12594001)
(0.039426211 0.0029295576 -0.13675443)
(0.038408663 0.014226776 -0.13714156)
(0.037407136 0.025582176 -0.13748678)
(0.041365624 0.00081306363 -0.14834161)
(0.040246601 0.012219072 -0.14872573)
(0.039221565 0.023685462 -0.14906757)
(0.043229662 -0.0018076143 -0.15996657)
(0.042141247 0.0096904661 -0.16033699)
(0.04105377 0.021210443 -0.16066023)
(0.045088227 -0.0048416161 -0.1715649)
(0.043942158 0.0066852029 -0.17187892)
(0.042784495 0.018234899 -0.17216259)
(0.00014358539 -0.00033020987 6.1768031e-05)
(0.00021658151 -6.5603687e-05 0.00029412089)
(8.1323483e-05 0.00040438361 0.00021301647)
(0.00087857754 -0.00097633737 -0.00088002651)
(0.00080934401 0.00042596292 -0.00066064144)
(0.00091751611 0.001410848 -0.0011331728)
(0.0019644207 -0.0014641343 -0.0023583255)
(0.0019520241 0.00030123635 -0.0024779199)
(0.0015887714 0.0024591296 -0.0026473351)
(0.003399619 -0.0018901856 -0.0047631766)
(0.00291711 0.0012357448 -0.0047930185)
(0.0026887318 0.0038054343 -0.0049468874)
(0.0049348906 -0.002516766 -0.0078807299)
(0.0047360294 0.00083439774 -0.0079722056)
(0.0045375878 0.0042349069 -0.0079578788)
(0.0068630646 -0.0029163876 -0.011838085)
(0.0063698957 0.0017021663 -0.011792043)
(0.0059818883 0.0056996654 -0.012104704)
(0.0089508953 -0.0036066311 -0.016309739)
(0.0085397142 0.0013274468 -0.01652228)
(0.0080670038 0.0064238109 -0.016568644)
(0.011074379 -0.0039668573 -0.021959419)
(0.010400085 0.0021602629 -0.022049934)
(0.010049944 0.0074616838 -0.022237647)
(0.013504539 -0.004579495 -0.028057655)
(0.012952107 0.0017972367 -0.028138379)
(0.012364965 0.0082910383 -0.028347981)
(0.015844246 -0.0051073277 -0.035021147)
(0.015054901 0.0024118799 -0.035254719)
(0.014545698 0.0092503191 -0.035466932)
(0.018310983 -0.0055559623 -0.042668388)
(0.017619862 0.0022688067 -0.042906144)
(0.01696138 0.010034965 -0.043097508)
(0.020776886 -0.0060561694 -0.05103027)
(0.019916208 0.0026564697 -0.05129603)
(0.019274762 0.010804062 -0.051557113)
(0.023187192 -0.0065128631 -0.060000363)
(0.022375649 0.0025229892 -0.060311953)
(0.021636605 0.01144909 -0.060560514)
(0.025632652 -0.0069585537 -0.06954226)
(0.024717489 0.0027879447 -0.069892671)
(0.023966459 0.012081978 -0.070165364)
(0.027955176 -0.0073563116 -0.079634664)
(0.027053853 0.0026831301 -0.079982799)
(0.026223805 0.012550328 -0.080278536)
(0.030276699 -0.0077487304 -0.09011511)
(0.029318564 0.0027612651 -0.090508694)
(0.028450747 0.012971572 -0.090807242)
(0.032498344 -0.0081046996 -0.10104158)
(0.031528188 0.0026675901 -0.10142109)
(0.030596309 0.013277158 -0.10173615)
(0.034680747 -0.0084318031 -0.11219296)
(0.033670726 0.0026177176 -0.11257832)
(0.032690292 0.013483622 -0.11289907)
(0.036797346 -0.0087491912 -0.12363715)
(0.035758279 0.0024922751 -0.12401923)
(0.034729107 0.013615798 -0.12435509)
(0.038874155 -0.0089981233 -0.13518102)
(0.037823151 0.0023815778 -0.13555258)
(0.036735483 0.013614739 -0.13585712)
(0.040924654 -0.0093078018 -0.14689732)
(0.039754863 0.0022401316 -0.14711753)
(0.038677218 0.013563856 -0.14753157)
(0.042952315 -0.0095606188 -0.15850906)
(0.04185157 0.0019127251 -0.1588559)
(0.040704068 0.013464492 -0.15914821)
(0.044947033 -0.009820841 -0.17021375)
(0.043800358 0.001733684 -0.17050615)
(0.042615332 0.013231878 -0.17078221)
(0.0005748748 0.0025864845 6.6443159e-05)
(0.00027842672 0.0029946925 0.00032781566)
(9.2745055e-05 0.0032774129 0.00016869298)
(0.0012070066 0.0042682004 -0.00085624586)
(0.00078187741 0.0053286499 -0.00062487182)
(0.00044821893 0.006680561 -0.00086918973)
(0.0027327707 0.005832664 -0.0021949398)
(0.0023898241 0.008236679 -0.0023370397)
(0.0014148008 0.010222012 -0.0024300833)
(0.0038491755 0.0069874282 -0.0046474315)
(0.0033159907 0.0095278318 -0.0044639521)
(0.0027347848 0.012390115 -0.0045887507)
(0.0058573545 0.007213132 -0.0076527014)
(0.0054002929 0.010997567 -0.0076971665)
(0.0045179383 0.014313198 -0.0078979384)
(0.0075586784 0.0069299682 -0.011415632)
(0.0068336953 0.011135244 -0.0114286)
(0.0059675032 0.015571867 -0.011658978)
(0.0096758306 0.0058516482 -0.016136191)
(0.0091919618 0.010946511 -0.016234017)
(0.0080735009 0.015882223 -0.016480024)
(0.011793962 0.0039845645 -0.021506536)
(0.010874256 0.0098002431 -0.021517018)
(0.0099795616 0.015566122 -0.021749094)
(0.014015654 0.0015463483 -0.027501615)
(0.013414936 0.0079978353 -0.02769052)
(0.012184358 0.014505101 -0.028054164)
(0.016245328 -0.001390182 -0.034466801)
(0.01529577 0.0057259824 -0.034633662)
(0.014270872 0.01292422 -0.03489385)
(0.018593005 -0.0047986142 -0.041902673)
(0.017813872 0.0030208278 -0.042079865)
(0.016545922 0.010866812 -0.042485036)
(0.020795369 -0.008212154 -0.050146057)
(0.019824381 0.00011009264 -0.05040952)
(0.018706596 0.008554766 -0.050745435)
(0.023112353 -0.011723939 -0.058904703)
(0.022246199 -0.0027916622 -0.059174153)
(0.020947389 0.0062735221 -0.059565783)
(0.025322568 -0.014888534 -0.068314213)
(0.024314746 -0.0054967436 -0.068626078)
(0.023140081 0.0040556232 -0.069017545)
(0.027542536 -0.017676892 -0.078196278)
(0.026608761 -0.0078278418 -0.078536622)
(0.025316883 0.0021945793 -0.078936223)
(0.029728376 -0.019848324 -0.088580654)
(0.028694623 -0.0096309797 -0.088948332)
(0.027486515 0.00080550662 -0.089333127)
(0.03188284 -0.02132085 -0.09935713)
(0.030886166 -0.010751766 -0.099728078)
(0.029610503 1.2660181e-05 -0.10012739)
(0.034030051 -0.021994953 -0.1104759)
(0.032944584 -0.011157887 -0.11087314)
(0.031739733 -0.00011822313 -0.11122893)
(0.036142416 -0.021854978 -0.12187724)
(0.035100436 -0.010798685 -0.12224795)
(0.033865167 0.0004355044 -0.12262601)
(0.03830513 -0.020969407 -0.13347252)
(0.03714229 -0.0097334667 -0.13384929)
(0.035948647 0.0016668054 -0.13416165)
(0.040407103 -0.019368339 -0.14519677)
(0.039283912 -0.0080008211 -0.14553329)
(0.038120785 0.0034718092 -0.14587831)
(0.042565291 -0.01722337 -0.15696623)
(0.041407265 -0.0057869007 -0.15729924)
(0.040253365 0.0057420709 -0.157633)
(0.04472813 -0.014680371 -0.16880129)
(0.043559627 -0.0031661971 -0.16909175)
(0.042394338 0.0083912755 -0.16935985)
)
;

boundaryField
{
    free
    {
        type            calculated;
    }
    fixed
    {
        type            calculated;
    }
    freeTop
    {
        type            calculated;
    }
}


// ************************************************************************* //
