/*--------------------------------*- C++ -*----------------------------------*\
  =========                 |
  \\      /  F ield         | OpenFOAM: The Open Source CFD Toolbox
   \\    /   O peration     | Website:  https://openfoam.org
    \\  /    A nd           | Version:  6
     \\/     M anipulation  |
\*---------------------------------------------------------------------------*/
FoamFile
{
    version     2.0;
    format      ascii;
    class       pointScalarField;
    location    "0.64";
    object      p;
}
// * * * * * * * * * * * * * * * * * * * * * * * * * * * * * * * * * * * * * //

dimensions      [1 -1 -2 0 0 0 0];

internalField   nonuniform List<scalar> 
625
(
1136782.7
-1608125.7
9484.3653
15398.942
1824390.7
-3059324.6
11019.955
4946.6865
679886.62
17427.401
-192316.33
-11884.952
2635.8546
10494.39
460695.65
481579.23
458030.39
439553.77
381194.03
361320.03
324620.94
292278.91
275314.99
238372.27
219264.05
195656.77
174011.2
154991.83
137967.51
121929.73
105388.06
92842.57
77980.426
60768.426
46536.087
30021.615
20155.013
-523463.45
-301598.92
-420904.78
-314851.91
-284570.47
-281960.04
-240060.76
-226154.07
-211650.09
-195012.61
-182147.15
-167520.83
-156815.05
-141122
-128294.83
-114178.9
-98415.171
-85144.072
-66333.743
-56241.991
-38023.471
-22315.514
-6186.4502
1145298
-42995.091
-368968.15
-534624.57
-689976.37
-492166.37
-435868.03
-517401.63
-407800.81
-386146.19
-372912.6
-350179.66
-322191.8
-283956.17
-254063.11
-217037.65
-186798.94
-155154.04
-127270.37
-102690.14
-78904.135
-59085.849
-42226.144
-23875.372
-10358.24
2763.43
10814.464
2410.5684
-4665.8241
24136.334
34076.685
47110.047
62844.442
79553.485
98279.759
114066.09
134489.38
152668.7
172961.67
193415.43
217751.59
238442.62
266745.43
276716.98
334587.93
351967.1
365973.84
442072.79
422176.19
536410.64
446854.9
520005.6
1119450.4
1149390
1090991.4
-1776449.8
-1737882.1
-1760737.4
27394.215
23575.629
29015.166
-2107.7012
4825.6294
2803.0736
222725.89
252235.94
264458.95
241340.97
235408.98
233406.47
211554.72
202518.16
183982.96
166734.23
152390.28
134475.01
117260.81
102520.92
87999.218
73017.973
61667.304
51204.084
38475.788
33559.064
23612.091
15390.279
11456.175
-22491.318
-2965.4395
-17883.531
9353.7554
-6377.3231
30.711508
-4728.4238
-2549.6031
-7827.1752
-8860.1316
-10972.967
-12713.527
-12878.384
-11224.53
-10551.721
-8032.8965
-4961.4958
-2062.8471
-870.07357
2889.2288
-501.08363
7949.1013
4821.6168
-337194.81
-292439.07
-265647.38
-236025.67
-260537.54
-208691.33
-206345.02
-182060.4
-163451.96
-143862.85
-126931.97
-109444.92
-93508.576
-79807.916
-66792.525
-55437.646
-45405.66
-35309.388
-29315.564
-17218.777
-9291.2843
-8195.1653
32.088469
666473.86
594678.85
628672.49
-26521.66
21672.157
-44737.829
-154335.8
-223572.03
-319876.36
-762068.13
-757124.57
-797469.73
-607160.19
-555275.72
-515261.14
-488625.14
-441997.9
-465815.7
-393550.46
-382746.26
-378276.78
-393864.05
-384440.45
-398477.24
-361294.56
-342153.82
-342135.26
-334482.23
-326013.29
-351775.49
-315520.07
-298351.04
-313847.75
-288290.75
-277754.78
-290266.69
-260433.13
-253276.24
-267805.95
-233085.7
-230047.45
-241080.63
-207631.37
-204833.03
-214799.33
-180283.07
-179611.99
-188389.57
-155360.98
-155161.75
-162761.95
-132170.04
-132145.45
-139489.69
-110104.91
-110640.57
-116045.32
-90595.564
-89555.017
-96201.319
-71508.611
-72633.813
-77388.231
-56856.522
-55174.642
-59289.396
-40526.039
-39549.595
-43727.304
-26053.409
-25570.373
-30284.751
-13005.47
-19343.517
-17281.409
-12215.921
-5840.0385
-11468.118
-15375.161
-16077.195
-17296.203
3012.8106
2475.4311
3730.4084
7375.4592
12162.418
9683.7221
557176.49
566501.05
543764.88
519129.09
524858.64
519263
524147.45
474637.11
477504.84
435995.21
412508.23
433108.76
413573.09
410367.72
389654.99
392103.15
336533.89
365530.8
349158.25
322637.77
337398.22
329770.57
292110.56
298856
296739.73
262348.95
285941.21
273567.37
234065.39
258438.55
249141.88
212713.67
233243
224021.06
188468.25
211441.57
199525.03
169411.59
189555.49
178180.05
150596.66
167776.34
156769.46
133546.4
147823.01
136507.41
118010.6
128773.68
117629.43
103404.98
110627.34
100331.19
89009.12
93092.345
79980.688
73933.818
76049.793
65178.893
58130.564
61184.77
47911.216
44835.436
44125.25
32206.015
31418.042
29588.763
28563.301
29164.597
28516.104
296847
371152.83
299433.78
308841.71
297512.79
268269.89
250631.76
219261.51
202631.31
173046.82
156269.26
131912.19
112848.13
96901.854
81513.095
69013.17
57598.696
48609.746
39341.601
31658.614
23165.29
16213.417
7846.5844
-32183.701
24324.749
-19057.483
8513.7494
-5081.6254
-12311.219
-13813.51
-10438.391
-13239.219
-4115.1703
3051.3873
8094.5966
16703.467
22351.552
26745.263
30749.544
31636.974
32356.761
28965.302
27257.496
23444.048
17569.286
10227.86
-238687.43
-223508.3
-289905.65
-235403.74
-210348.86
-195216.91
-154644.71
-140974.72
-115311.49
-105483.46
-96240.254
-90202.374
-86900.193
-83375.085
-81433.24
-76702.285
-70900.515
-65004.385
-55941.291
-45168.483
-35534.563
-23995.607
-13673.084
382038.74
382958.2
355176.32
355004.82
332420.77
309888.68
277317.95
255499.86
305778.19
268030.15
292004.34
266193.97
287843.54
234899.74
259253.24
231119.1
238842.64
253083.05
226461.39
230272.03
225329.34
207385.49
200666.76
209221.58
178816.56
186924.17
191877
160702.48
173855.39
164517.56
138618.25
150542.42
146148.45
117138.69
134638.57
128898.48
101984.14
116128.75
110122.57
85499.092
99066.144
94379.514
70572.063
83068.973
80208.769
58569.009
69907.639
66739.041
49042.138
56348.026
55139.727
38502.747
44839.735
44220.957
31544.605
34735.612
36656.371
25224.127
30954.802
27937.576
20285.882
17025.114
21872.576
17608.847
16284.268
18810.645
6527.9786
2339.9562
4662.956
-48359.558
-61081.905
-15506.119
-37591.282
16253.859
19977.187
-9650.2274
-7363.4554
16972.608
-27226.82
-15404.015
-10111.672
-34211.469
-19451.834
18519.664
-37552.295
-7022.1564
-2109.0001
-25980.417
-18600.721
-5489.949
-35602.653
-14096.603
-5100.8879
-21720.694
-9881.1954
-9089.2981
-15021.972
-9529.4006
-9635.332
-8762.8419
-3858.9549
-8830.5513
910.33259
3727.331
-7215.0197
9805.8995
8915.2827
-6251.4324
16034.976
13768.511
-2208.8476
20794.292
19959.441
1350.2179
26009.269
24407.685
3245.5453
28068.535
24890.352
7029.8047
25949.579
26754.709
8976.544
28139.009
26638.33
12329.058
23174.537
22945.299
9555.1344
25891.903
8555.2729
11164.849
16441.809
15719.403
13310.129
12559.241
11878.096
12739.164
-408156
-431903.11
-483826.27
-287883.75
-224092.44
-354614.05
-262838.5
-334617.52
-348008.07
-319954.79
-224240.79
-301798.28
-234961.49
-209071.95
-266742.41
-223020.47
-181867.87
-247720.3
-200179.02
-153304.3
-214689.98
-169238.15
-130992.78
-194308.57
-147181.98
-116998.27
-167971.11
-129779.94
-103057.86
-144730.7
-109559.06
-93696.227
-126175.03
-92477.438
-88805.407
-109352.61
-78368.672
-86968.404
-95343.704
-66428.185
-83981.618
-82543.038
-55211.23
-81095.97
-72257.574
-46487.218
-77588.924
-64446.886
-39238.485
-72766.89
-55457.221
-32432.227
-64202.093
-46682.558
-26359.806
-54624.686
-42209.433
-17913.559
-48897.119
-31213.73
-21018.613
-32027.823
-21436.12
-6879.4485
-17985.438
-4846.4887
-1812.2429
-9966.0997
-7955.6013
)
;

boundaryField
{
    free
    {
        type            calculated;
    }
    fixed
    {
        type            calculated;
    }
    traction
    {
        type            calculated;
    }
}


// ************************************************************************* //
