/*--------------------------------*- C++ -*----------------------------------*\
  =========                 |
  \\      /  F ield         | OpenFOAM: The Open Source CFD Toolbox
   \\    /   O peration     | Website:  https://openfoam.org
    \\  /    A nd           | Version:  6
     \\/     M anipulation  |
\*---------------------------------------------------------------------------*/
FoamFile
{
    version     2.0;
    format      ascii;
    class       pointScalarField;
    location    "1.98";
    object      E;
}
// * * * * * * * * * * * * * * * * * * * * * * * * * * * * * * * * * * * * * //

dimensions      [1 -1 -2 0 0 0 0];

internalField   nonuniform List<scalar> 
625
(
463.1438
-65.13604
-126279.46
-79591.911
1175.1973
-342.11004
-125075.49
-214398.7
-653.6096
865.43578
1429.8296
-96815.016
-115707.81
-21620.131
3124.8838
1439.1447
3673.2336
8283.0168
9554.7756
16214.038
19306.688
21492.322
21906.799
16106.425
4842.4738
-11818.758
-34386.14
-60041.111
-85906.052
-110252.78
-127145.75
-137359.7
-131921.86
-118753.27
-96497.059
-68412.489
-20709.207
4260.4675
-1448.8587
5462.9812
182.58531
-8065.8357
-8254.5413
-19299.985
-21591.166
-23659.101
-22775.831
-15418.355
-4165.8582
14630.84
39012.896
69185.287
102381.06
135476.4
163049.63
180773.26
183974.96
167629.4
136164.84
76704.964
773.5942
250.52508
-1139.4281
3978.0976
9515.5286
-6103.6465
-3283.0529
1485.512
-17346.925
-15169.39
-19431.217
-19149.81
-15457.961
-9376.4037
4886.0753
19789.12
40642.928
63437.802
87748.253
111550.04
130881.45
142064.74
142266.76
127334.1
100158.23
67053.667
-140498.84
-204326.15
-184639.2
-11255.015
-31337.44
-50041.855
-66679.798
-77104.338
-79392.524
-76218.285
-66752.534
-53794.266
-38544.538
-24007.086
-9910.4072
161.59087
8423.4083
13000.429
13866.446
12521.124
11036.783
10268.161
4543.0219
8685.2221
1569.5624
5112.6636
713.81524
-31.493324
-359.35663
-876.23419
-1949.5253
-2737.0915
-93519.265
-91766.812
-96451.785
-147597.7
-148797.95
-148639.39
620.24262
-1257.2709
-3463.5316
-4908.9467
-10070.347
-12292.323
-17343.295
-19553.296
-20531.656
-18871.259
-12695.322
-3115.2157
11386.739
30142.892
51936.429
75400.557
97704.928
115768.42
128033.05
125668.11
118031.79
95755.692
46520.49
589.82614
-1569.5904
-1975.4345
-4734.6933
-4816.4427
-5630.3319
-6651.2263
-4508.8972
-3629.5483
271.00717
3488.7453
8898.2063
14699.722
21266.817
28185.715
34385.041
39774.579
41886.684
42675.644
34868.184
28755.163
10815.887
-8828.537
2472.6586
475.97952
2918.9503
4812.837
9520.5098
11692.141
19566.783
21007.108
23243.965
20643.798
12875.851
925.16087
-17066.384
-38480.075
-62511.867
-86186.343
-107986.44
-122269.35
-130853.06
-123878.58
-108738.63
-80234.861
-29293.851
-209.81253
-673.94613
-590.45512
130.7843
-108.62064
199.60972
247.16517
-607.58189
-1064.5564
6036.0035
6260.6651
3432.2989
6319.7194
3014.1264
3377.1582
2650.7433
-1439.2086
2157.7394
-607.95968
-599.13654
-5330.5924
-1225.689
-5569.5757
-1846.3616
-11072.087
-10141.412
-11712.841
-13363.495
-15495.201
-13812.085
-17156.634
-22111.905
-20156.225
-20607.721
-20404.373
-22472.762
-17013.209
-18609.987
-17772.448
-11516.978
-10360.453
-12460.362
2366.2643
1946.3165
1622.1724
19525.457
20826.926
19751.743
44133.007
44479.479
43160.187
72855.78
72915.748
71880.618
104292.52
103539.42
102258.6
135076.34
133391.81
132281.38
160164.7
157736.72
156985.2
175084.47
172505.06
171690.46
175275.27
171723.97
171404.54
157722.16
154996.1
155212.55
122653.65
124087.45
122548.71
73226.476
72404.214
75420.026
-126005.39
-125087.99
-124049.35
-126195.02
-139477.62
-141975.16
-81953.97
-72141.585
-72672.943
1928.2357
4101.6492
2494.6805
760.1183
792.52936
1572.4038
7113.9909
5790.2336
7588.083
7047.9479
6676.1736
7427.3445
12669.111
12285.714
12215.048
16681.566
12760.651
15020.715
19678.476
18681.381
18429.434
21993.669
19510.113
20969.135
21775.539
17923.301
18402.411
14812.558
14364.65
15827.327
5106.6243
3688.5828
6497.6566
-10443.455
-10855.53
-6380.764
-30665.638
-30400.577
-23999.879
-53284.124
-52537.266
-43942.876
-76296.577
-75205.438
-64384.078
-97321.424
-95836.984
-83667.715
-111854.28
-111295.47
-97956.122
-120124.82
-119229.06
-105936.5
-117537.04
-118897.31
-104850.21
-102273.85
-110498.83
-94882.605
-79904.971
-89002.489
-75956.809
-57962.043
-57172.306
-52452.654
-15402.116
-16167.726
-14771.013
155.22101
882.74598
-3912.2832
-3184.4632
-9625.7111
-12239.065
-15328.822
-20435.199
-18835.171
-17006.022
-10821.685
-83.291164
14170.514
31938.317
52126.605
72617.146
91339.564
105856.8
112530.19
111112.97
98129.26
74762.428
52193.716
709.45564
2047.5051
-570.72149
5247.5922
6506.3965
13181.257
17000.957
20499.965
23951.971
23222.83
20127.88
14774.951
4766.2592
-6112.2712
-19497.637
-33152.244
-45365.981
-55795.602
-62223.414
-64894.698
-62460.537
-58186.542
-38684.274
1516.7375
578.60782
3981.6598
141.60213
8052.8786
10575.512
12406.292
18469.945
14903.959
13621.001
2550.8025
-10198.138
-29616.127
-50484.435
-73567.605
-94781.791
-112036.15
-122506.67
-123825.7
-113192.35
-93238.584
-58874.512
-18121.674
-197.46674
68.186233
149.51534
-526.32872
-447.75671
47.745814
-3412.0432
-4032.4619
-2971.1201
-5237.0227
-4374.0044
-3693.2328
-9164.8117
-10014.057
-8629.4773
-13580.141
-12848.898
-13456.868
-17931.779
-17785.446
-16296.884
-20122.595
-19903.632
-20813.555
-21134.937
-21245.67
-21408.826
-18316.468
-17741.974
-18413.808
-10366.693
-11224.062
-12192.029
207.60714
63.520223
-568.92627
17237.31
16398.694
15075.159
37457.178
36185.556
34831.439
60677.455
59178.012
57614.369
85113.589
83413.622
81259.856
107272.86
105654.13
103592.17
125379.14
124242.76
121313.12
135510.36
133786.32
131780.85
129438.93
136799.02
130681.79
118991.81
122972.9
118944.79
96076.245
95933.316
93597.044
52014.27
52240.062
53132.46
-58.202891
-64.982335
95.891883
-144.4804
551.7081
634.17509
-1112.5953
-3655.086
-1611.2412
-985.73203
1211.8923
1008.3908
2214.4022
-166.63502
335.54776
1958.2296
3032.0273
4261.6245
4892.8532
5435.0586
6050.725
8198.7922
8669.1478
8275.4793
9218.2552
9910.0815
11186.365
12391.634
13160.136
13166.046
13121.658
12759.831
12739.979
13726.353
13197.032
12985.156
13506.288
11956.848
10354.462
11938.933
9303.7084
7894.0691
10405.063
6768.7091
4261.7677
7627.8206
2407.625
450.05201
4958.5157
-850.06281
-3814.112
1658.1789
-6386.3246
-7812.6624
-2432.5972
-10164.893
-11952.655
-7917.862
-14421.244
-16201.925
-26698.859
2457.4136
-17848.976
-22311.409
-27567.37
-27746.761
-26537.538
-32071.782
-29555.803
3828.6362
3333.5416
3050.3629
1233.0037
477.38998
1563.4217
3373.3779
4603.2242
6028.6492
7776.1521
3349.0871
4917.8548
8882.7499
7993.2566
10011.011
13724.409
11295.394
13402.545
20115.176
15778.106
17065.139
21084.689
18057.226
21326.893
23576.686
19072.815
21192.67
20119.107
15943.617
18308.07
12196.122
6912.1154
9678.687
-680.74829
-6263.9473
-3442.5402
-19392.402
-25338.86
-22031.431
-41317.824
-47210.016
-43866.712
-65987.896
-71411.041
-67589.587
-89876.45
-93856.227
-90252.844
-110296.67
-113117.91
-109591.21
-124302.65
-124914
-121555.58
-129218.95
-127460.13
-125383.77
-121132.3
-118852.15
-117101.91
-103567.27
-99958.284
-99911.498
-70371.872
-66612.855
-67503.256
-27374.497
-22109.848
-23801.365
)
;

boundaryField
{
    free
    {
        type            zeroGradient;
    }
    fixed
    {
        type            zeroGradient;
    }
    traction
    {
        type            zeroGradient;
    }
}


// ************************************************************************* //
