/*--------------------------------*- C++ -*----------------------------------*\
  =========                 |
  \\      /  F ield         | OpenFOAM: The Open Source CFD Toolbox
   \\    /   O peration     | Website:  https://openfoam.org
    \\  /    A nd           | Version:  6
     \\/     M anipulation  |
\*---------------------------------------------------------------------------*/
FoamFile
{
    version     2.0;
    format      ascii;
    class       pointVectorField;
    location    "1.55";
    object      u;
}
// * * * * * * * * * * * * * * * * * * * * * * * * * * * * * * * * * * * * * //

dimensions      [0 1 0 0 0 0 0];

internalField   nonuniform List<vector> 
3969
(
(0 0 0)
(0 0 0)
(0.44350158 0.055744608 0.026534559)
(0.43230619 -0.092922159 0.023632886)
(0 0 0)
(0 0 0)
(0.43385697 -0.10136434 0.02347466)
(0.44504051 0.04710367 0.026306453)
(0 0 0)
(0 0 0)
(0 0 0)
(0 0 0)
(0 0 0)
(0 0 0)
(0 0 0)
(0.44184389 0.03633853 0.025721207)
(0.44007023 0.017870996 0.025497483)
(0.43847629 -0.0003334076 0.025176002)
(0.43709201 -0.018418622 0.025071191)
(0.43581945 -0.036544875 0.024847801)
(0.43463472 -0.054828479 0.024685476)
(0.43361359 -0.073476498 0.024251051)
(-0.0002600072 0.00028027443 0.00054510379)
(-0.00071730464 0.00051099263 0.00088775951)
(-0.0011284463 0.0012274854 0.0012480146)
(-0.0012779741 0.0017202948 0.0015675797)
(-0.0013684965 0.0026574404 0.0018657046)
(-0.0011376793 0.0034440634 0.0021419585)
(-0.00080306347 0.0045716891 0.0024583979)
(-7.4975629e-05 0.0056305812 0.0027093469)
(0.00084756795 0.00698552 0.003040465)
(0.0021552352 0.0082680106 0.0032852009)
(0.0038070324 0.0098735185 0.0036054303)
(0.0058143116 0.011384277 0.0039045147)
(0.0082826383 0.013185521 0.004183924)
(0.011162473 0.01497583 0.0045182246)
(0.014561214 0.016937787 0.0048250436)
(0.018408946 0.018937467 0.0051591111)
(0.022829908 0.021076492 0.0055205441)
(0.027760165 0.023248203 0.005893023)
(0.033299144 0.02551556 0.0063008054)
(0.039400101 0.027819432 0.0067239562)
(0.04614096 0.030166619 0.0071887279)
(0.053484985 0.032539993 0.0076712772)
(0.061490619 0.034918606 0.0081940804)
(0.070126925 0.037293788 0.008745874)
(0.079437245 0.039614444 0.0093282427)
(0.089385589 0.041947416 0.0099488444)
(0.10000078 0.04418452 0.010602918)
(0.11128081 0.046352026 0.011272844)
(0.1232165 0.04844482 0.011985983)
(0.13577954 0.05040015 0.012712904)
(0.14898573 0.052255998 0.013464344)
(0.16280103 0.05395709 0.014235414)
(0.17721412 0.055507224 0.015014685)
(0.19219363 0.056898795 0.015802688)
(0.20773404 0.058106692 0.016603411)
(0.22377774 0.059107124 0.017400243)
(0.24032272 0.059991896 0.018191962)
(0.25730721 0.060520107 0.018993262)
(0.2747136 0.061063409 0.019737082)
(0.29248756 0.061143603 0.020578228)
(0.31060608 0.061275601 0.021277011)
(0.3289774 0.061011751 0.022105662)
(0.34766925 0.060571104 0.022846612)
(0.36643131 0.060128985 0.023585151)
(0.38548771 0.059117798 0.024429568)
(0.40452693 0.058342935 0.025167642)
(0.4235906 0.057220429 0.026097894)
(-0.00037947462 -0.00011878294 -0.00031500665)
(-0.00081641355 -0.00041198522 -0.00056468788)
(-0.0013546999 -0.00067013761 -0.0010827789)
(-0.0015625821 -0.0013866816 -0.0012145803)
(-0.0016100148 -0.0019025972 -0.0015951309)
(-0.0015049981 -0.0027955859 -0.001758222)
(-0.0010952127 -0.0035592876 -0.0020560844)
(-0.00049601924 -0.0046502063 -0.0022411941)
(0.00040566731 -0.0056393192 -0.0024963923)
(0.001639404 -0.0069412799 -0.002675699)
(0.0031720937 -0.0081412269 -0.0028966685)
(0.005119654 -0.009627207 -0.0030619824)
(0.0074145143 -0.011068036 -0.0032378505)
(0.010177099 -0.012697339 -0.0033640189)
(0.013363153 -0.014386284 -0.0034684872)
(0.017051486 -0.016179482 -0.0035344985)
(0.021239457 -0.018051634 -0.0035475638)
(0.02596775 -0.020028441 -0.0035214576)
(0.031233156 -0.02206036 -0.0034274385)
(0.037111382 -0.024211314 -0.0032831146)
(0.043520789 -0.026406246 -0.0030673892)
(0.050615465 -0.028701766 -0.0027941069)
(0.058262715 -0.031059185 -0.002431168)
(0.066607678 -0.03350861 -0.0020112712)
(0.075523867 -0.035986508 -0.0015270007)
(0.085150764 -0.038558255 -0.00095673538)
(0.09531827 -0.041126878 -0.0003185225)
(0.10623705 -0.043820127 0.0004010797)
(0.11776786 -0.046505117 0.001165678)
(0.12992598 -0.049239804 0.0020132536)
(0.14272323 -0.051996127 0.0029133938)
(0.156119 -0.054781767 0.0038780644)
(0.17011949 -0.057566653 0.0048960598)
(0.18468821 -0.060361442 0.0059642556)
(0.19980982 -0.063128759 0.0070770357)
(0.21545973 -0.065893352 0.0082297959)
(0.23160701 -0.068599569 0.0094182127)
(0.24820534 -0.071258416 0.010634769)
(0.26527107 -0.073886383 0.011882787)
(0.28270656 -0.076388527 0.013141522)
(0.30050602 -0.078843653 0.014428129)
(0.31864514 -0.081211202 0.015720853)
(0.33702791 -0.083419189 0.017012669)
(0.35568865 -0.085567567 0.018325825)
(0.3744893 -0.087554222 0.019622067)
(0.39352243 -0.089410678 0.020904699)
(0.41261801 -0.091237238 0.0222192)
(0 0 0)
(0 0 0)
(0 0 0)
(0 0 0)
(0 0 0)
(0 0 0)
(0 0 0)
(-0.00017284662 -5.9369192e-05 0.00017689897)
(-0.00054728187 -0.00056697752 0.00048938072)
(-0.00088682257 -0.00076523284 0.00072044978)
(-0.00099793149 -0.0016081622 0.00090180643)
(-0.00093090428 -0.0021545441 0.0011440048)
(-0.00069135807 -0.0030631617 0.0012570833)
(-0.00013652953 -0.0040174747 0.0015041524)
(0.00053592678 -0.0049883344 0.0016107084)
(0.0016414899 -0.0063092161 0.0018669412)
(0.0029415601 -0.0074718928 0.001955384)
(0.0046461295 -0.0090527957 0.0022549205)
(0.006680373 -0.010511316 0.0024167099)
(0.0091022215 -0.01216829 0.0026441746)
(0.011995722 -0.014053092 0.0028905306)
(0.01530474 -0.01581018 0.0030970795)
(0.019082626 -0.018005104 0.0034214975)
(0.023386737 -0.019986451 0.0036583668)
(0.028173681 -0.022372084 0.004024301)
(0.033537279 -0.024626791 0.0043364681)
(0.039435758 -0.027161324 0.0047393039)
(0.045928599 -0.029655004 0.0051343466)
(0.053003737 -0.032336332 0.0055946834)
(0.060694271 -0.035018054 0.0060641828)
(0.068986142 -0.037818449 0.006588873)
(0.077930593 -0.040675516 0.0071193848)
(0.087577378 -0.043588895 0.007647405)
(0.097764261 -0.046583102 0.008272791)
(0.10860523 -0.049578398 0.0088932979)
(0.12007444 -0.052623279 0.0095662689)
(0.13218054 -0.055670594 0.010245849)
(0.14490254 -0.058722573 0.010940476)
(0.15823534 -0.061774543 0.01165658)
(0.17216405 -0.064818356 0.01238683)
(0.18666325 -0.067816193 0.013119207)
(0.2017233 -0.0707967 0.013857867)
(0.21732754 -0.07373201 0.014618908)
(0.23337365 -0.076529706 0.015340844)
(0.24997262 -0.079403446 0.016115132)
(0.26694414 -0.082070365 0.01686077)
(0.28436639 -0.084704436 0.01761126)
(0.30212737 -0.087212321 0.018354868)
(0.32024195 -0.089622354 0.019106566)
(0.33860974 -0.091892112 0.019854714)
(0.35725686 -0.094048868 0.020602968)
(0.37606124 -0.09604877 0.021354958)
(0.39507631 -0.09792182 0.022129307)
(0.41412948 -0.099764496 0.022866647)
(0.43523826 -0.081909721 0.023623345)
(0.43620489 -0.063410924 0.023930178)
(0.43735463 -0.045036342 0.024433513)
(0.4386761 -0.027081372 0.024896365)
(0.43999039 -0.0089175277 0.025505601)
(0.44156006 0.0092348677 0.025883842)
(0.44344231 0.02766794 0.026318434)
(0.42530913 0.048608203 0.024743974)
(0.40601148 0.049614987 0.023489466)
(0.38695598 0.050606923 0.0221705)
(0.36795395 0.051444099 0.0208777)
(0.34910025 0.052080205 0.019540233)
(0.33044036 0.052550697 0.018203349)
(0.31202522 0.052813402 0.016889259)
(0.29389214 0.052894908 0.015571272)
(0.27608332 0.052783475 0.014275653)
(0.25866446 0.052503689 0.012988932)
(0.24157706 0.052047211 0.011749577)
(0.2252027 0.051261489 0.010602355)
(0.20896824 0.050553277 0.0093449939)
(0.1934639 0.049516529 0.0082418544)
(0.17843244 0.04839165 0.0071288489)
(0.16399926 0.047100448 0.0060908963)
(0.15014905 0.045692469 0.0051018224)
(0.13693119 0.04414897 0.0041713736)
(0.12433555 0.042515452 0.0033033663)
(0.11239552 0.04076879 0.0025045882)
(0.10110888 0.038961252 0.0017644295)
(0.090477758 0.037073211 0.0010983088)
(0.080525451 0.035136742 0.00050328177)
(0.071220253 0.033155494 -2.5381197e-05)
(0.062583441 0.031157687 -0.00049057464)
(0.054591394 0.029129264 -0.00087675031)
(0.047242259 0.027123798 -0.0012148813)
(0.04051542 0.025096691 -0.0014680574)
(0.03440847 0.02312871 -0.0016858301)
(0.028880117 0.021152462 -0.0018235736)
(0.02393249 0.019259099 -0.0019350139)
(0.019526616 0.017387334 -0.0019832507)
(0.015639183 0.01559419 -0.0019940563)
(0.012244973 0.013833966 -0.0019705991)
(0.0093585898 0.012213858 -0.0019377418)
(0.006856768 0.010616196 -0.0018290243)
(0.0047825176 0.0091856689 -0.0017892774)
(0.0030822658 0.0077206319 -0.0016376154)
(0.0016953555 0.0065071861 -0.0015900131)
(0.00067331362 0.0052217613 -0.0014412212)
(-7.0392509e-05 0.0043048949 -0.001355204)
(-0.00060194122 0.003151572 -0.0011897435)
(-0.0008444958 0.0024641829 -0.0011211783)
(-0.0009627877 0.0015611499 -0.00091919145)
(-0.00079430502 0.0010649924 -0.00081518337)
(-0.0006354724 0.00046646294 -0.00061594135)
(1.5635357e-05 0.00015840329 -0.00022399773)
(0 0 0)
(0 0 0)
(0 0 0)
(0 0 0)
(0 0 0)
(0 0 0)
(0 0 0)
(0 0 0)
(0 0 0)
(0 0 0)
(0 0 0)
(0 0 0)
(0 0 0)
(0 0 0)
(0.43256784 -0.094252648 0.023542918)
(0.43283204 -0.095421914 0.023542228)
(0.43304773 -0.096529589 0.023530402)
(0.43325858 -0.097616719 0.023576993)
(0.43345473 -0.098686717 0.023591469)
(0.43361386 -0.099660869 0.023635012)
(0.43377639 -0.10069345 0.023525902)
(0.44393546 0.054990266 0.026538847)
(0.44417147 0.053927529 0.026549713)
(0.44439305 0.052896811 0.026466356)
(0.4446096 0.051841658 0.026401769)
(0.44479342 0.050765334 0.026340131)
(0.44494417 0.049627883 0.026285585)
(0.44514591 0.048562786 0.026306503)
(-0.0011111335 -0.0085506977 0.00050908551)
(-0.0023697569 -0.017034397 0.00065855936)
(-0.0035870688 -0.025168938 0.00093247952)
(-0.0045148159 -0.032801507 0.0011657491)
(-0.0053467897 -0.039752364 0.0013525522)
(-0.0058043446 -0.04587849 0.0016071288)
(-0.0061814114 -0.051156126 0.0018103307)
(-0.0060225903 -0.055298995 0.0020420548)
(-0.0056997792 -0.05841825 0.0022448944)
(-0.0048502762 -0.060325878 0.0024954308)
(-0.0036616572 -0.060965494 0.0027239812)
(-0.0019158259 -0.060397115 0.002941225)
(0.00027062845 -0.05847438 0.0032228081)
(0.0030808167 -0.055361164 0.003461883)
(0.0064452548 -0.050956032 0.0037517678)
(0.010465519 -0.04541397 0.0040515799)
(0.015169482 -0.038731976 0.0043678449)
(0.020543998 -0.031083032 0.0047209549)
(0.026673619 -0.022504386 0.005097737)
(0.033535107 -0.01318767 0.0055120405)
(0.041172549 -0.0032404415 0.0059645762)
(0.049570373 0.0071706978 0.0064541404)
(0.058759485 0.017880033 0.0069878422)
(0.068687897 0.028706565 0.0075645425)
(0.079410428 0.039511004 0.0081812741)
(0.090849893 0.050074131 0.0088178944)
(0.10299744 0.060252426 0.0095071881)
(0.11581527 0.069901518 0.010231835)
(0.12927962 0.078815807 0.010968904)
(0.14331034 0.086904593 0.011739799)
(0.15789113 0.094019046 0.012530332)
(0.17295348 0.10003835 0.013332882)
(0.18843866 0.10489715 0.01414502)
(0.20430414 0.10850055 0.014971988)
(0.22049287 0.11079948 0.015793446)
(0.2369201 0.11178914 0.016622371)
(0.25360399 0.11142563 0.017434931)
(0.27041589 0.10972621 0.018264345)
(0.28739758 0.10679976 0.019072285)
(0.30443504 0.10254778 0.019901468)
(0.32153073 0.097264225 0.020682783)
(0.3386887 0.090729769 0.021533098)
(0.35583097 0.083453762 0.022263248)
(0.37295799 0.075160796 0.023113098)
(0.3901451 0.06616841 0.023870159)
(0.40714801 0.056786644 0.02461994)
(0.42434772 0.046576551 0.025315421)
(-0.0016311793 -0.012375578 0.00040284036)
(-0.0031707061 -0.024696823 0.00045285169)
(-0.004645045 -0.036346274 0.00067497107)
(-0.0059052507 -0.047543141 0.00078774749)
(-0.0069852127 -0.057695336 0.00097624054)
(-0.0079034682 -0.066920031 0.0011211574)
(-0.0084125543 -0.074769146 0.0012908609)
(-0.0086734223 -0.081324287 0.0014086031)
(-0.0085306749 -0.086330757 0.0016352996)
(-0.0079815565 -0.08976067 0.0017767417)
(-0.0068980027 -0.0914447 0.0019271044)
(-0.005393641 -0.091512474 0.0021510177)
(-0.0032542081 -0.089722604 0.0023153857)
(-0.00053070126 -0.086315501 0.0025249309)
(0.0028428825 -0.081154125 0.002756237)
(0.006915395 -0.074446384 0.0029814237)
(0.011692522 -0.06619285 0.0032488048)
(0.017236718 -0.056600517 0.0035481138)
(0.023582613 -0.045771284 0.0038717938)
(0.030734789 -0.033920061 0.0042455156)
(0.038730274 -0.021222148 0.0046580026)
(0.047560341 -0.0078846802 0.0051072963)
(0.057208359 0.0058335714 0.0056230449)
(0.067704108 0.019776226 0.0061681327)
(0.078992126 0.033618252 0.0067618741)
(0.09102149 0.047210274 0.0074330788)
(0.10379623 0.060253255 0.0081411987)
(0.11725683 0.072570901 0.0088619721)
(0.13131333 0.08395061 0.0096631246)
(0.14594695 0.094191898 0.010473085)
(0.16107367 0.1031295 0.011315537)
(0.17662043 0.11061663 0.012183917)
(0.19252328 0.11653189 0.013062964)
(0.2087251 0.1207751 0.013955743)
(0.2251214 0.12329195 0.014849425)
(0.24170585 0.12401724 0.015751308)
(0.25838726 0.12299361 0.016633712)
(0.27508993 0.1201297 0.017547453)
(0.29187559 0.11570599 0.018375398)
(0.30852724 0.10943044 0.019298066)
(0.32528098 0.10185194 0.02009446)
(0.34182809 0.092659686 0.020977179)
(0.35841931 0.08238141 0.02176591)
(0.37482875 0.070849684 0.022621461)
(0.39123332 0.058492807 0.023387165)
(0.4075306 0.045361067 0.024144839)
(0.42394064 0.031659355 0.02484195)
(-0.0015748468 -0.0088026927 0.00030865654)
(-0.0027295155 -0.017466336 0.00036095095)
(-0.003967576 -0.025817072 0.00045053461)
(-0.0048991063 -0.03366301 0.00053461488)
(-0.0058276223 -0.040961318 0.00063597439)
(-0.0063017015 -0.047383523 0.00070587355)
(-0.0067078519 -0.05309438 0.00078330134)
(-0.0066477253 -0.057701797 0.00090257826)
(-0.0063778836 -0.061372652 0.0010026713)
(-0.0055308581 -0.063814851 0.0010521317)
(-0.0044753868 -0.06514602 0.0012265217)
(-0.0027777901 -0.065274868 0.0013328964)
(-0.00066533514 -0.064118184 0.0014417788)
(0.0020421656 -0.061850537 0.0016278637)
(0.0053212402 -0.058331002 0.001798083)
(0.0092479264 -0.053734766 0.0019878837)
(0.013842284 -0.04806848 0.0022359295)
(0.019143241 -0.041465902 0.0024701499)
(0.025173215 -0.0340132 0.0027881924)
(0.031938431 -0.025851383 0.0031208112)
(0.039471629 -0.017100949 0.0035170806)
(0.047755562 -0.0079441008 0.0039608328)
(0.056860685 0.0015242195 0.0044534988)
(0.066701635 0.011051107 0.0049870189)
(0.077298891 0.020547797 0.005608473)
(0.088644561 0.029810716 0.0062381667)
(0.10072886 0.038693535 0.0069022751)
(0.11346506 0.047046057 0.0076415276)
(0.12685152 0.054717106 0.0084000516)
(0.14082567 0.061570064 0.0091858085)
(0.15533614 0.067495899 0.010020298)
(0.17033517 0.072384678 0.010864485)
(0.18577656 0.076146561 0.0117382)
(0.20157842 0.078738639 0.01262172)
(0.21772026 0.080062307 0.013532254)
(0.23412715 0.080174199 0.014426998)
(0.25073656 0.078947041 0.015362648)
(0.26756351 0.076571517 0.016256883)
(0.2844977 0.072890193 0.017187028)
(0.30152244 0.068067748 0.018136093)
(0.31865175 0.062259055 0.018998295)
(0.3357334 0.05522975 0.020020722)
(0.35296784 0.047573477 0.020831343)
(0.37007431 0.038883522 0.021843138)
(0.38737102 0.029688501 0.022646459)
(0.4045045 0.019964006 0.023555888)
(0.42168892 0.0098209771 0.024414138)
(-0.00087032011 0.00011930144 0.00010968339)
(-0.0012436972 0.00011949518 8.3140405e-05)
(-0.0017866293 0.00025627328 0.00012374414)
(-0.0020717488 0.00029689063 0.00015987809)
(-0.0021647554 0.00041581286 0.00018259984)
(-0.0021906689 0.00049097511 0.00021366065)
(-0.0018372265 0.00056871052 0.00027245736)
(-0.0013971299 0.00068217042 0.00030886539)
(-0.00048559518 0.00077731685 0.0003305489)
(0.00056876776 0.00088058767 0.00045333237)
(0.0021012561 0.00096745371 0.00050378362)
(0.0039763718 0.0010900408 0.00053682681)
(0.0062391359 0.0012425253 0.00064723237)
(0.009011077 0.00129181 0.00076253305)
(0.012183097 0.0014950458 0.00084339355)
(0.015930556 0.0015605211 0.001018085)
(0.020134534 0.0017339337 0.0011612953)
(0.024935243 0.001815405 0.0013910227)
(0.030275009 0.001926156 0.001635292)
(0.036230318 0.002001086 0.0019187291)
(0.042797302 0.0020406085 0.0022575993)
(0.050021004 0.0020872071 0.0026169729)
(0.057842197 0.0020438386 0.0030441279)
(0.066322196 0.0019952064 0.0035259388)
(0.075475491 0.0019014299 0.0040277674)
(0.085291081 0.0017648305 0.0045825385)
(0.095744162 0.001569417 0.005230023)
(0.10685609 0.0013069703 0.005906797)
(0.1186274 0.00099229999 0.0066230894)
(0.13103858 0.00059344521 0.007412189)
(0.1440848 0.00013363532 0.0082210364)
(0.15775738 -0.00041094918 0.0090823355)
(0.17201671 -0.0010294807 0.0099700645)
(0.18687251 -0.0017314739 0.010900763)
(0.20227027 -0.0025009246 0.011839161)
(0.21819745 -0.0033823764 0.012828349)
(0.23463704 -0.0042868156 0.013802843)
(0.25151634 -0.0053263424 0.014817201)
(0.26882622 -0.0064241965 0.015845416)
(0.28652267 -0.007540985 0.016841547)
(0.30461146 -0.0087921692 0.017894799)
(0.32295967 -0.010074869 0.018924654)
(0.34168009 -0.011329792 0.019911044)
(0.36051777 -0.012798124 0.021017229)
(0.37966447 -0.014098076 0.021965963)
(0.3987877 -0.015584495 0.023088302)
(0.41817541 -0.01704168 0.024044275)
(-0.00012047264 0.0089247336 -9.3068146e-05)
(0.00020662653 0.017622621 -5.837578e-05)
(0.00034115279 0.026110163 -0.0001343061)
(0.00090349784 0.034080859 -0.00018542832)
(0.001303932 0.041417262 -0.00021815503)
(0.0021591424 0.048113225 -0.0002837843)
(0.0029772042 0.053781744 -0.00028529171)
(0.004206405 0.058710312 -0.00039799677)
(0.0054841519 0.062353565 -0.00034148897)
(0.0071438421 0.065074629 -0.00039821901)
(0.0089867776 0.066532851 -0.00044349968)
(0.011144688 0.066898734 -0.00040275512)
(0.013595583 0.065950508 -0.0003549973)
(0.016367051 0.063914267 -0.00032481248)
(0.019465236 0.060682929 -0.00021070516)
(0.022940452 0.056331926 -0.00010194868)
(0.026764398 0.05099167 5.8769414e-05)
(0.03100627 0.044635753 0.0002455781)
(0.035640075 0.03750056 0.00046924772)
(0.040726539 0.029561804 0.00074445173)
(0.046260627 0.021086151 0.0010522076)
(0.052256834 0.012068539 0.0014242624)
(0.058787238 0.0027546572 0.0018472072)
(0.065832749 -0.0067659567 0.0022907308)
(0.073473669 -0.016317809 0.0028010543)
(0.081672578 -0.025753748 0.0033672235)
(0.090520358 -0.034948877 0.003975012)
(0.10001635 -0.043725399 0.0045984636)
(0.11019969 -0.051975221 0.0052969313)
(0.1210791 -0.059562634 0.0060177597)
(0.13270355 -0.066382945 0.006793115)
(0.14507087 -0.072333894 0.0076039925)
(0.1582174 -0.077354427 0.0084702639)
(0.17213603 -0.081326893 0.0093498917)
(0.18683908 -0.084291788 0.010304426)
(0.20233102 -0.086107875 0.011256152)
(0.21857307 -0.086863733 0.012267764)
(0.23558766 -0.08653997 0.013314246)
(0.25328535 -0.085103107 0.014340296)
(0.27175395 -0.082648584 0.015448315)
(0.29076169 -0.079260584 0.016549404)
(0.31039755 -0.074944861 0.017679943)
(0.33052422 -0.069886598 0.01882878)
(0.35107599 -0.064140535 0.020020163)
(0.37205682 -0.057749276 0.021148377)
(0.39328046 -0.051000382 0.022383195)
(0.41475511 -0.043848688 0.023559205)
(0.00027646734 0.012571942 -0.00022586213)
(0.00094135859 0.024747713 -0.00027597186)
(0.0014395033 0.0366944 -0.00054280247)
(0.0021785627 0.047711559 -0.00056158522)
(0.003052867 0.058101597 -0.00079012059)
(0.0040728658 0.067187184 -0.00081984778)
(0.0053111339 0.075188061 -0.001006156)
(0.0066805088 0.081742043 -0.0010540685)
(0.0083095976 0.086784859 -0.0011518347)
(0.010104706 0.090315863 -0.0012564228)
(0.012162664 0.092108676 -0.0013004143)
(0.014431717 0.092243363 -0.0013281872)
(0.016963522 0.090675256 -0.0013791123)
(0.019765192 0.087402113 -0.0013450252)
(0.022818844 0.082526087 -0.0013269356)
(0.026197454 0.076045808 -0.0012397326)
(0.029847856 0.068134249 -0.0011508114)
(0.033853343 0.058853223 -0.00099578393)
(0.038179931 0.048383753 -0.00080797784)
(0.042891823 0.036868372 -0.00058012239)
(0.047969562 0.024491123 -0.00030366051)
(0.053530643 0.011503525 3.6023802e-05)
(0.059458852 -0.002003803 0.00038593462)
(0.065951397 -0.015806827 0.00080805147)
(0.072920475 -0.029568544 0.0012793933)
(0.0804814 -0.043201274 0.0017865454)
(0.088655879 -0.05639532 0.0023492563)
(0.097463693 -0.069022604 0.0029716462)
(0.10695288 -0.080834584 0.0036351021)
(0.11719111 -0.09171303 0.0043611629)
(0.12818548 -0.10146232 0.0051338921)
(0.13998827 -0.10996075 0.0059695323)
(0.15262139 -0.11707212 0.006844633)
(0.16610943 -0.12273774 0.0077827989)
(0.18046949 -0.12683128 0.0087568337)
(0.19569875 -0.12937456 0.0097855611)
(0.21182154 -0.13030895 0.01085829)
(0.22877176 -0.12964266 0.011959054)
(0.24660541 -0.12747059 0.013114851)
(0.26520481 -0.12379752 0.014281119)
(0.28454339 -0.11864986 0.015482872)
(0.3046158 -0.11224384 0.016710767)
(0.32525626 -0.10471357 0.017975013)
(0.34649092 -0.096087025 0.019223755)
(0.36812666 -0.086629783 0.020511364)
(0.39014883 -0.076496662 0.021853192)
(0.41243713 -0.065746303 0.023196566)
(0.00021388469 0.0086211343 -0.00033712218)
(0.00048706293 0.017140877 -0.00050693888)
(0.00064738937 0.025328442 -0.00076053535)
(0.0011806365 0.032999353 -0.00097123011)
(0.0016722291 0.039956623 -0.00118079)
(0.0025459075 0.046119326 -0.0013414274)
(0.0034309429 0.051329666 -0.0015546993)
(0.004661972 0.055587022 -0.0016886673)
(0.0060172565 0.058648031 -0.0018761379)
(0.0076674454 0.060680079 -0.0020067418)
(0.0095669961 0.061327403 -0.0021148113)
(0.011708303 0.060930326 -0.0022802345)
(0.014202555 0.059136462 -0.0023104935)
(0.01695152 0.05621988 -0.0023882129)
(0.020062363 0.052064009 -0.0023975629)
(0.023506031 0.04679715 -0.0023819533)
(0.027314364 0.040460211 -0.0023210914)
(0.031524088 0.033143644 -0.0022073163)
(0.036110168 0.024959286 -0.0020638309)
(0.041149603 0.016019119 -0.0018530495)
(0.046626782 0.0064556421 -0.0016034438)
(0.05255695 -0.0036011712 -0.0012877945)
(0.059038462 -0.013989884 -0.00092623912)
(0.066016096 -0.024609286 -0.00049183935)
(0.073545806 -0.035233842 -3.2262371e-05)
(0.081669295 -0.045768265 0.00050292343)
(0.090394717 -0.056039098 0.0011069264)
(0.099776193 -0.065894771 0.0017456697)
(0.10984255 -0.075214601 0.002448888)
(0.12061491 -0.083888709 0.003216284)
(0.13210367 -0.091774081 0.0040287208)
(0.14435177 -0.098784259 0.0049042299)
(0.15736022 -0.10483907 0.0058274841)
(0.17114633 -0.10984547 0.0068017772)
(0.18571455 -0.11378024 0.0078261404)
(0.20106182 -0.11657705 0.0088914407)
(0.21716553 -0.1182399 0.0099999578)
(0.23404213 -0.1187669 0.011160072)
(0.25161637 -0.11816434 0.012326881)
(0.26987874 -0.1164891 0.013549805)
(0.28876986 -0.11374964 0.014788724)
(0.30826334 -0.11009191 0.016070398)
(0.3282435 -0.1055499 0.017358989)
(0.34870253 -0.1001854 0.018646855)
(0.36947381 -0.094234683 0.020001756)
(0.39060895 -0.08764939 0.021310021)
(0.41186733 -0.080622821 0.022708178)
(0 0 0)
(0 0 0)
(0 0 0)
(0 0 0)
(0 0 0)
(0 0 0)
(0 0 0)
(0 0 0)
(0 0 0)
(0 0 0)
(0 0 0)
(0 0 0)
(0 0 0)
(0 0 0)
(0 0 0)
(0 0 0)
(0 0 0)
(0 0 0)
(0 0 0)
(0 0 0)
(0 0 0)
(0 0 0)
(0 0 0)
(0 0 0)
(0 0 0)
(0 0 0)
(0 0 0)
(0 0 0)
(0 0 0)
(0 0 0)
(0 0 0)
(0 0 0)
(0 0 0)
(0 0 0)
(0 0 0)
(0 0 0)
(0 0 0)
(0 0 0)
(0 0 0)
(0 0 0)
(0 0 0)
(0 0 0)
(0 0 0)
(0 0 0)
(0 0 0)
(0 0 0)
(0 0 0)
(0 0 0)
(0 0 0)
(-0.00031143322 6.6008259e-05 -0.0002119212)
(-0.00024573448 4.8036119e-05 -0.00022700363)
(-0.00020692671 3.7967739e-05 -0.00014450737)
(-0.00017608683 3.7534978e-05 -9.7400532e-05)
(-0.00016484994 2.5373454e-05 -2.7195618e-05)
(-0.00016282489 5.2728525e-06 4.0679833e-05)
(-0.00018739059 5.4442504e-05 9.1378771e-05)
(-0.00067022388 -0.00023015221 -0.00052121885)
(-0.0005672131 -0.00033349682 -0.0003444189)
(-0.00049084199 -0.00033024471 -0.00023155368)
(-0.00042145437 -0.00035581814 -9.0160012e-05)
(-0.00042188638 -0.00040826768 1.403259e-05)
(-0.00042139347 -0.00041383138 0.00016905531)
(-0.00047323771 -0.00038935452 0.00031474195)
(-0.0010979726 -0.00043398382 -0.00081038561)
(-0.00085638247 -0.00037286956 -0.00064404649)
(-0.00071479914 -0.00047919954 -0.00034399167)
(-0.0006451162 -0.00052093792 -0.00021821731)
(-0.00059012968 -0.00053613562 6.4396519e-05)
(-0.00063446819 -0.00056026711 0.00023956591)
(-0.00073289337 -0.00067873321 0.00052310702)
(-0.0011775471 -0.0012130086 -0.00095422177)
(-0.0010011196 -0.0012943784 -0.00071483237)
(-0.00081439782 -0.0013232763 -0.00045325841)
(-0.00071189599 -0.0013554265 -0.00022113979)
(-0.00066461328 -0.0013677202 7.6274849e-05)
(-0.00074246265 -0.0014762281 0.00031133324)
(-0.00079363179 -0.0014391104 0.00061935325)
(-0.0012418847 -0.0017128347 -0.0012526606)
(-0.00090757836 -0.0017184839 -0.00094263757)
(-0.00065494595 -0.0017368541 -0.00057978618)
(-0.00053675191 -0.0017857366 -0.00022677683)
(-0.0004993849 -0.001911477 9.8258939e-05)
(-0.00052311137 -0.0019241021 0.00042546717)
(-0.00068149304 -0.0020206946 0.00081769888)
(-0.0010142107 -0.0026636952 -0.001375321)
(-0.00068541794 -0.0026970231 -0.0010714342)
(-0.00042215252 -0.0027013003 -0.0006127996)
(-0.00030319863 -0.0028026983 -0.00034579201)
(-0.00020140583 -0.0027814835 0.00013125277)
(-0.00032004616 -0.0028602099 0.00048773317)
(-0.00042948772 -0.0029303149 0.00088064849)
(-0.00057168837 -0.003421809 -0.0016362121)
(-0.00017731281 -0.003387959 -0.0011667764)
(0.00011154692 -0.0035010011 -0.00077511693)
(0.00031250706 -0.0035288349 -0.00030872336)
(0.0003632694 -0.0036639082 0.00013249742)
(0.00031794213 -0.0037980132 0.00055306317)
(0.00016164367 -0.0038586579 0.0010664193)
(7.2729877e-05 -0.0044937542 -0.0017454546)
(0.0005342964 -0.0046106446 -0.0013844026)
(0.00089266492 -0.0046155882 -0.00078140516)
(0.0010517804 -0.0046949768 -0.00033859998)
(0.0011150338 -0.0047491075 0.00013552129)
(0.001077226 -0.0048011871 0.00065649643)
(0.00086243732 -0.0048549306 0.0011529107)
(0.0010988957 -0.0055888968 -0.0019893056)
(0.0015784005 -0.005546844 -0.0014129417)
(0.0019375354 -0.005618859 -0.00087567416)
(0.0021361387 -0.0057661096 -0.00038906327)
(0.0022403359 -0.0059027126 0.00020699955)
(0.0021731722 -0.0060302046 0.00071878777)
(0.0019823547 -0.0061742016 0.0013113471)
(0.0023202861 -0.0067528338 -0.0021016862)
(0.0028792439 -0.0069111585 -0.0015721467)
(0.0032580634 -0.006980111 -0.0010202303)
(0.0035457488 -0.0071303621 -0.00036776532)
(0.0036136818 -0.0071666669 0.00018393143)
(0.0035404237 -0.0072729392 0.00080219571)
(0.0033436989 -0.0073249088 0.0014054512)
(0.0039825853 -0.0081162699 -0.0022670775)
(0.0045345781 -0.0081654129 -0.0016911173)
(0.0050099317 -0.0082509341 -0.00096000565)
(0.0052349824 -0.0083285859 -0.00040293458)
(0.0053281751 -0.0085109797 0.00027467819)
(0.0052604563 -0.0086323122 0.00090278819)
(0.0050397209 -0.0088499159 0.0015684984)
(0.0058977606 -0.0094612366 -0.0024290927)
(0.00659506 -0.0096320202 -0.0017457738)
(0.0070366291 -0.0097725821 -0.0010937531)
(0.0073258364 -0.01001877 -0.00041184833)
(0.0074605815 -0.010131207 0.0003188966)
(0.007367008 -0.010257082 0.00096344413)
(0.0071617692 -0.010383498 0.0017599258)
(0.0083474399 -0.011064632 -0.0025228739)
(0.0089845885 -0.011183042 -0.0018169846)
(0.0094991964 -0.011329903 -0.0010894207)
(0.0098056642 -0.011415787 -0.00035244537)
(0.0099336453 -0.01157816 0.00038843383)
(0.0098158282 -0.011763049 0.0011213383)
(0.0095946755 -0.011939125 0.0018947088)
(0.011128519 -0.01264121 -0.0026283032)
(0.01182962 -0.012838323 -0.0018631271)
(0.012403615 -0.013028908 -0.0011168674)
(0.012707563 -0.01327989 -0.00034243721)
(0.012833336 -0.01350275 0.00048014911)
(0.012756447 -0.013685171 0.001210355)
(0.012516826 -0.013859808 0.0020994426)
(0.014381948 -0.014414907 -0.002692504)
(0.015134928 -0.014613006 -0.0018661633)
(0.015717679 -0.014809654 -0.0011037894)
(0.016031597 -0.014983929 -0.00023208218)
(0.016215253 -0.015174479 0.0005687026)
(0.016088351 -0.015362656 0.0013967357)
(0.015848245 -0.015588486 0.0022834736)
(0.018132521 -0.016229871 -0.0027154065)
(0.018918348 -0.016485157 -0.0018634597)
(0.01951518 -0.016709846 -0.0010406715)
(0.019895362 -0.01700349 -0.00017555999)
(0.020019255 -0.017260751 0.00071972113)
(0.019933568 -0.017525507 0.0015537996)
(0.019668378 -0.017730087 0.0025285653)
(0.022358839 -0.01816722 -0.0027096015)
(0.023173341 -0.018429017 -0.0017926384)
(0.023834039 -0.018714057 -0.00097147668)
(0.02417211 -0.018954221 -1.4831423e-05)
(0.024365442 -0.019229588 0.00088079494)
(0.024246346 -0.019448399 0.0017730735)
(0.023974196 -0.019737616 0.0027689702)
(0.027132007 -0.020184797 -0.0026315782)
(0.028008919 -0.020533622 -0.0017158482)
(0.028644183 -0.020812106 -0.00081886448)
(0.029051943 -0.021157615 0.00014037128)
(0.029199439 -0.021457213 0.0010799348)
(0.029096328 -0.021784771 0.0020124246)
(0.028809494 -0.02204155 0.0030614526)
(0.032456543 -0.022306314 -0.0025301704)
(0.033315867 -0.022636041 -0.0015569743)
(0.034033937 -0.022998127 -0.00064609194)
(0.03439363 -0.023323125 0.00034968722)
(0.034593697 -0.02367793 0.0013308601)
(0.034471705 -0.023965103 0.0022922234)
(0.034177198 -0.024315935 0.0033655724)
(0.038331182 -0.02450052 -0.0023422784)
(0.039267505 -0.024923643 -0.0013556479)
(0.039946944 -0.025295942 -0.00042199074)
(0.040363608 -0.025708947 0.0006173949)
(0.040538079 -0.026062069 0.0016120004)
(0.040416157 -0.026457348 0.0026075789)
(0.040113004 -0.02677717 0.0037225823)
(0.044824943 -0.026790466 -0.0021142643)
(0.045725549 -0.027212448 -0.0011072595)
(0.046471285 -0.027663815 -0.00013265282)
(0.046861264 -0.028061671 0.00091684174)
(0.047058285 -0.028497724 0.0019441141)
(0.046930163 -0.028866284 0.0029655365)
(0.046616464 -0.029267285 0.0041029929)
(0.051891175 -0.029152574 -0.0018098324)
(0.052844436 -0.029657166 -0.00077815483)
(0.053571 -0.030122196 0.00020432772)
(0.053985607 -0.030605717 0.0012777874)
(0.054174717 -0.031034027 0.0023289576)
(0.054036744 -0.031490387 0.0033678286)
(0.053718371 -0.031887966 0.0045352714)
(0.05960002 -0.031605422 -0.0014355549)
(0.060529051 -0.032110923 -0.00040169966)
(0.061290506 -0.032650786 0.00060075106)
(0.061691197 -0.033132277 0.0016872856)
(0.061887459 -0.033655161 0.0027581067)
(0.061748526 -0.034114006 0.0038037065)
(0.061421655 -0.034561754 0.004996592)
(0.067915578 -0.034094281 -0.00098746102)
(0.068872492 -0.034694934 4.4770922e-05)
(0.069610856 -0.035244948 0.0010578332)
(0.070023958 -0.03582209 0.0021492292)
(0.070226113 -0.036328453 0.0032266031)