/*--------------------------------*- C++ -*----------------------------------*\
  =========                 |
  \\      /  F ield         | OpenFOAM: The Open Source CFD Toolbox
   \\    /   O peration     | Website:  https://openfoam.org
    \\  /    A nd           | Version:  6
     \\/     M anipulation  |
\*---------------------------------------------------------------------------*/
FoamFile
{
    version     2.0;
    format      ascii;
    class       pointScalarField;
    location    "0.27";
    object      E;
}
// * * * * * * * * * * * * * * * * * * * * * * * * * * * * * * * * * * * * * //

dimensions      [1 -1 -2 0 0 0 0];

internalField   nonuniform List<scalar> 
28033
(
44985.027
43376.323
9190.7642
8609.7312
49632.222
50391.485
8955.3407
9499.6642
27605.651
19392.846
13356.447
9256.6157
5601.2405
3566.9605
2459.3432
2285.4131
3401.0215
5294.6298
8560.2255
13237.045
19118.035
26061.798
39698.132
9721.1594
9284.318
9201.6651
8999.2221
8765.4878
8721.9399
8356.9909
8439.9562
8412.9302
8295.9174
8505.4504
8521.6409
8657.6517
8848.8245
9082.0262
35417.576
23404.297
22865.968
22976.085
23665.553
23990.961
24307.762
24406.115
24370.59
24271.035
24056.954
23768.872
23409.86
23032.688
22591.003
22095.886
21658.222
21210.415
20846.301
20384.144
20069.944
19731.822
19409.74
19128.918
18776.991
18533.355
18128.136
17816.867
17371.43
16984.785
16585.192
16088.719
15616.364
15115.506
14625.664
14279.374
13722.322
13340.782
12902.573
12445.976
12031.653
11626.341
11261.002
10932.164
10640.274
10405.3
10173.654
9995.1165
9789.8902
9600.336
9357.961
9095.4514
8773.7315
8417.3444
8020.1025
7599.9977
7169.7851
6742.3938
6329.8125
5945.4766
5586.3931
5273.5803
4969.1721
4772.1758
4503.1319
4353.7725
4194.7726
4077.5187
4002.7349
4017.0976
3940.889
3964.2852
3947.8204
3987.2546
4008.0024
4045.8604
4068.0094
4135.2575
4149.8426
4221.0367
4326.0539
4414.0277
4613.4198
4742.3923
5044.7264
5295.4676
5717.3128
6019.2502
6571.2152
6875.9752
7513.1939
7771.3415
8448.3873
8749.1539
9163.309
34394.706
20827.979
23824.29
22694.781
23577.057
23922.974
24051.064
24324.157
24263.697
24156.991
24029.279
23681.276
23407.292
23044.067
22627.727
22250.098
21773.782
21278.216
20867.338
20504.073
20038.234
19781.688
19401.089
19258.571
18909.844
18711.751
18446.981
18086.934
17779.411
17291.271
16860.196
16344.048
15919.377
15408.032
14968.07
14504.875
14049.958
13606.145
13169.866
12861.396
12467.725
12147.788
11821.762
11525.976
11238.737
10985.208
10742.553
10520.907
10309.475
10090.429
9863.661
9602.3736
9304.7452
8957.138
8562.0451
8120.1046
7650.973
7164.0463
6686.4106
6232.5287
5824.1701
5465.0635
5166.8191
4926.2381
4734.0853
4589.1388
4481.6372
4426.8734
4384.7451
4257.9834
4247.5293
4149.9111
4204.179
4154.474
4182.9752
4191.6046
4204.6173
4266.535
4276.5473
4355.8759
4418.8441
4511.2177
4651.3552
4811.3495
5032.7397
5293.422
5612.4333
5962.913
6358.1686
6768.0805
7184.2389
7577.1896
7967.3467
8298.6355
8585.8856
33169.78
21954
15800.507
12206.663
6918.1311
4489.4636
3373.237
3222.0091
4342.3266
7339.1788
10147.292
15479.182
21699.263
30807.124
39136.489
64894.029
29048.3
18224.044
25852.46
22908.014
25045.818
24569.987
25060.404
24940.452
25085.922
24832.002
24500.923
24382.853
23798.888
23566.687
22895.313
22784.083
21438.812
21854.617
20650.726
20703.536
20569.397
20265.347
19977.98
19534.94
19202.094
19025.127
18305.184
18306.357
17215.249
16821.705
16298.33
15856.108
15502.804
14742.839
15282.438
14197.874
14136.507
13693.392
13311.576
12904.783
12494.128
12104.232
11760.829
11460.861
11216.993
11009.703
10824.819
10626.454
10395.701
10096.439
9720.4531
9261.2934
8728.862
8151.4165
7553.5636
6975.7902
6439.7968
5971.171
5574.2553
5247.9314
4979.4054
4755.4579
4554.3306
4366.1718
4197.5514
4028.4352
3530.5589
4212.3379
3586.3548
3609.0081
3490.147
3508.4844
3515.9507
3530.0008
3542.422
3551.2999
3553.4534
3548.2048
3564.0875
3595.5886
3679.5489
3809.8089
4016.1856
4279.7424
4618.9418
5000.303
5428.7112
5871.2529
6321.7462
6771.5258
7197.801
7649.1004
8029.2985
8537.3415
9242.7607
9239.4105
8887.7809
8800.5703
8813.5785
8534.5444
8635.6524
8492.4455
8894.4375
8365.2182
8962.8581
8631.6161
9531.3411
8952.9128
9811.9207
9466.4073
8727.8008
8620.0547
8080.8791
7642.9527
7164.1617
6696.806
6264.6766
5832.4361
5478.4286
5151.8578
4896.879
4700.5494
4503.5988
4390.5278
4289.2418
4233.4281
4182.1705
4152.3796
4127.9578
4112.6511
4102.8683
4112.5793
4107.9836
4170.9649
4220.2055
4450.8907
3897.5283
4450.2574
4468.2703
4651.0944
4827.4245
5042.7006
5311.2694
5629.2116
5993.5499
6404.319
6845.1602
7307.9523
7771.4478
8225.1394
8650.1115
9041.8671
9391.1949
9703.145
9980.9535
10237.574
10476.33
10727.022
10975.032
11242.948
11539.728
11853.398
12198.938
12548.815
12950.949
13322.336
13898.937
13935.881
14632.494
15321.807
15304.417
16063.575
16589.663
17110.982
17568.818
17814.8
18217.52
18595.607
19052.753
19509.423
19661.993
19649.58
20538.407
20551.209
20857.589
21472.454
21837.471
22371.02
22740.839
23504.062
23999.796
24287.098
24709.432
25388.171
25139.872
25509.202
25713.408
25456.42
24449.057
24522.582
24617.977
24311.527
20413.516
38924.457
28337.009
27716.497
26696.407
26777.109
27403.73
27807.994
27805.518
28035.736
28116.866
27988.579
27122.654
26591.204
27150.717
27820.922
31021.502
29755.334
30489.694
29544.464
31100.919
30961.78
30739.901
32689.996
34621.038
33650.953
33290.574
31645.834
30481.222
29937.532
29241.48
33163.079
8923.0346
8945.2526
8993.1682
9002.8993
9026.3563
9033.8427
9050.7036
9057.4007
9078.8993
9090.8446
9101.095
9078.2985
9076.0436
8974.1803
9174.9057
9509.961
9411.4192
9544.0942
9465.9612
9574.4522
9576.9484
9595.4433
9610.2943
9630.6166
9633.847
9656.074
9626.5042
9619.4983
9541.7911
9683.3334
26387.076
20479.011
19104.986
19040.033
19240.321
19565.095
19878.327
20044.6
20111.461
20094.426
19904.787
19705.833
19401.998
19148.738
18817.182
18583.224
18324.076
18086.375
17832.144
17623.288
17345.757
17062.987
16765.152
16390.859
16063.464
15689.233
15314.855
14975.829
14691.758
14396.156
14095.345
13904.298
13684.543
13464.408
13271.218
12962.299
12705.874
12375.533
12158.402
11842.628
11602.168
11371.128
11161.969
10951.693
10727.951
10481.623
10198.488
9880.7807
9509.8737
9114.6844
8692.0008
8273.8708
7873.0319
7511.324
7198.0299
6936.395
6722.7539
6543.1658
6386.8175
6238.1733
6081.1457
5926.3099
5742.3064
5595.1963
5345.1429
5254.8293
5222.3402
5059.4391
4981.5017
4773.8169
4695.2022
4586.5532
4492.2528
4380.8947
4264.6617
4174.8632
4096.6272
4040.2637
4049.4128
4084.4059
4207.559
4351.8528
4609.8419
4768.5163
5103.2772
5447.2028
5851.6966
6208.6329
6678.7066
7010.4063
7536.6537
7905.74
8399.5868
8825.1621
9266.858
17464.082
14872.214
14969.245
14552.914
14680.753
14709.508
14816.926
14918.075
14944.261
14918.75
14806.713
14715.772
14521.482
14346.549
14121.773
13968.208
13747.596
13579.186
13386.893
13222.265
13019.022
12821.923
12609.973
12362.478
12132.154
11880.112
11631.68
11385.422
11150.67
10937.647
10741.262
10570.833
10355.789
10161.31
9990.9562
9774.7985
9642.6636
9463.9033
9260.031
9072.5421
8923.0346
8741.9636
8582.5249
8429.5038
8268.7866
8115.1343
7933.8072
7743.2536
7523.2398
7290.763
7035.7435
6781.676
6526.0082
6287.0448
6068.6726
5876.1125
5710.1243
5567.5587
5442.5457
5326.0992
5217.7627
5108.6665
4997.4783
4895.4262
4753.0607
4793.7697
4493.1381
4586.3333
4510.1084
4466.3302
4466.7891
4376.5807
4301.4214
4246.9334
4196.7002
4158.8916
4128.6003
4146.1618
4191.3263
4250.5187
4412.4584
4512.8274
4790.6597
4924.6771
5387.9223
5644.8695
6049.7429
6301.4649
6791.6217
7062.1433
7557.6155
7891.48
8360.6727
8574.5418
9295.7539
11319.569
9654.3755
10617.535
10400.141
10588.796
10442.815
10527.845
10526.601
10518.324
10491.411
10425.449
10343.992
10201.526
10089.869
9958.5971
9834.4387
9716.8882
9603.865
9504.6234
9399.0681
9281.7584
9148.7067
9008.4794
8828.4482
8663.4869
8470.138
8291.7053
8106.9999
7965.0745
7814.055
7690.6082
7577.36
7492.4548
7413.0123
7332.0152
7226.6639
7099.9838
6922.2511
6869.3209
6777.8683
6651.3488
6591.4721
6506.2245
6438.5955
6372.2743
6279.3349
6171.3917
6044.6605
5888.1914
5714.1078
5528.0174
5340.6179
5165.0528
5011.6051
4889.0692
4797.0492
4738.433
4701.2662
4678.6281
4663.6954
4642.3976
4614.3151
4578.4447
4522.3805
4492.0696
4432.7878
4463.7926
4359.0381
4322.2056
4211.6306
4178.3944
4124.4134
4141.3798
4110.7209
4081.302
4061.6749
4063.1261
4087.9563
4132.8442
4215.3539
4347.2174
4501.0491
4674.1435
5029.4957
5304.2414
5479.4846
5813.1566
6125.2253
6558.3772
6819.2538
7347.888
7639.3574
8134.9459
8396.5267
9458.819
7228.2292
5893.0304
6578.1187
6795.8907
6919.1875
6937.1375
6953.5466
6968.9141
6926.2401
6945.9459
6862.6239
6850.0461
6744.0917
6716.8483
6596.0126
6568.2433
6474.7535
6434.9137
6362.917
6309.7787
6239.7144
6167.4678
6085.1352
5987.2221
5892.0743
5780.8899
5678.8311
5576.944
5483.1327
5407.7541
5344.9544
5296.1574
5261.3466
5211.3051
5210.3268
5120.4809
5183.0548
5262.0187
5281.0183
5235.3842
5225.777
5208.3303
5172.0552
5148.883
5120.5041
5080.6617
5041.6845
4990.7375
4928.4885
4861.305
4784.2859
4706.2094
4629.1145
4558.4238
4499.4362
4453.3539
4423.718
4405.4312
4401.5236
4401.7328
4404.998
4411.9933
4400.9588
4409.7771
4385.4115
4385.1446
4322.9017
4385.6607
4374.3028
4299.5944
4382.6384
4367.1174
4209.1666
4125.9767
4154.336
4157.1631
4184.9115
4208.5674
4282.2087
4355.4721
4489.8569
4601.1121
4848.2149
4948.1266
5239.2874
5455.0915
5929.732
6147.0898
6647.7833
6879.2336
7432.7013
7674.3233
8271.5252
8288.2387
9582.5305
4555.1544
3135.4419
3786.5666
3784.5154
4062.6998
4038.3275
4107.2217
4064.479
4078.0882
4054.9784
4028.2819
3997.9764
3948.5548
3911.9474
3867.258
3849.5844
3814.7757
3817.1078
3804.2057
3801.2126
3790.3678
3767.6604
3735.6928
3682.5823
3626.3063
3556.2276
3503.5508
3438.3987
3414.7107
3383.7128
3382.765
3396.1257
3409.3585
3451.1111
3467.9864
3471.4348
3626.4407
3433.4803
3549.1205
3576.9541
3602.0729
3599.758
3626.436
3648.0401
3659.4558
3658.1883
3647.8935
3618.289
3577.6744
3528.2603
3474.7546
3426.8291
3390.1554
3370.3233
3372.6308
3392.7305
3432.9951
3484.4556
3540.1143
3597.1879
3648.9478
3685.4765
3709.8125
3763.5225
3713.0683
3784.8836
3798.9564
3746.3164
3773.188
3754.8899
3853.0929
3777.2626
3958.3481
4256.9563
4218.3045
4249.167
4261.0615
4307.0146
4374.5012
4454.7219
4584.4903
4739.1803
4908.8049
5153.0316
5383.1798
5668.498
5922.4983
6201.5679
6559.0941
6840.1143
7271.9755
7619.546
8091.3751
8199.4459
9755.9361
2755.5252
1478.9661
1745.4787
1702.5848
1873.061
1930.1248
1948.8563
2006.8488
1994.5018
2043.1133
2004.017
2045.2199
2000.4957
2035.8904
2000.3962
2036.3775
2022.6984
2064.296
2066.2023
2108.663
2120.1997
2141.9809
2148.0917
2152.4811
2151.9215
2154.4122
2144.1864
2151.2679
2157.2443
2172.6969
2210.9544
2243.77
2304.1662
2361.7223
2414.9806
2519.1242
2550.8795
2793.287
2916.5526
2954.5732
2998.3925
3062.5571
3113.0543
3171.1837
3213.7384
3252.1982
3280.6025
3303.053
3316.6305
3326.1602
3334.4904
3347.4517
3368.2047
3400.5316
3446.2676
3503.1597
3573.12
3643.2125
3722.5365
3791.9151
3851.2619
3915.8948
3957.6902
3966.2121
4044.4127
4017.4304
4053.5073
4057.5559
4097.1119
4106.4055
4069.0273
4092.8175
4051.6935
3875.4298
3883.3074
3903.8389
3954.8826
4015.4549
4093.2211
4193.6122
4336.7751
4459.123
4698.4508
4835.0215
5156.3048
5343.2892
5756.0618
5976.9292
6501.3759
6707.4089
7323.085
7537.303
8167.7377
8242.6879
9814.2974
1872.437
466.67318
583.24112
375.75588
531.19869
536.40106
635.07331
645.00342
706.20632
719.14235
732.67489
743.43768
735.46788
739.30956
733.15667
760.34636
767.20904
818.33675
847.69049
903.12042
941.29858
988.72364
1008.9266
1029.5189
1045.2619
1037.4438
1054.3594
1063.1565
1092.8843
1135.0734
1191.9612
1263.2583
1350.149
1424.9565
1531.1506
1595.1745
1696.4774
1725.2828
1822.6448
1812.7266
1934.499
1999.9127
2086.5276
2174.9278
2261.2657
2345.1337
2429.0678
2494.6646
2555.3379
2601.5566
2645.0783
2684.0602
2731.8313
2787.3234
2861.4071
2947.4881
3051.8862
3162.0808
3280.0326
3385.2177
3495.9731
3578.9836
3642.3934
3728.1519
3742.0178
3804.5404
3822.8831
3866.1617
3905.4068
3902.0667
4012.1199
3982.2202
4067.3935
4120.5424
4241.8872
4274.9831
4337.7353
4377.2644
4473.0859
4556.0607
4688.575
4842.318
5011.7459
5228.6212
5456.729
5707.7371
5980.5556
6262.0462
6596.4938
6859.1528
7269.684
7579.5246
8120.2012
8164.6551
9894.9646
1702.8791
355.33283
253.65028
56.001415
78.089639
140.30776
156.63782
216.89797
245.08561
299.82298
306.18659
367.04761
368.32621
423.63776
442.44848
498.53551
527.00499
597.31167
629.60252
701.92494
730.41387
776.43991
821.94237
883.21369
904.99512
957.42346
990.47841
1031.1779
1078.7634
1130.8232
1195.6024
1274.0647
1349.597
1448.4185
1546.527
1632.2892
1742.9903
1846.9959
1929.3692
2022.7148
2109.278
2184.4725
2268.2494
2351.3783
2423.2683
2504.543
2567.8275
2632.9316
2685.3493
2737.2011
2781.2814
2830.1157
2879.5208
2939.7032
3009.1161
3087.7629
3181.7084
3275.2026
3375.5697
3473.565
3562.5137
3632.2939
3712.6689
3743.0912
3794.2149
3811.4954
3845.4841
3858.6165
3863.2227
3896.7228
3877.6953
3903.6712
3922.9745
3878.8261
3812.2986
3839.3063
3868.8288
3929.1774
4004.2108
4088.5979
4228.9784
4340.6204
4557.9027
4706.5922
5001.5119
5198.1895
5579.4014
5822.133
6291.4555
6574.6396
7155.8386
7483.5758
8084.4539
8223.8877
9814.9704
2193.7127
702.35721
575.60063
334.12834
351.45741
374.95862
431.98861
469.68317
523.69566
556.55123
572.51908
577.30292
569.57767
558.03019
544.02964
553.3874
557.06768
599.91108
636.42179
711.10481
788.82592
894.01489
921.78088
930.98023
951.92296
963.47416
968.5358
983.2485
1014.1222
1046.3371
1112.2236
1172.464
1257.2884
1353.265
1418.4585
1531.8933
1592.0238
1681.7254
1734.1745
1808.6206
1869.3791
1944.4367
2025.078
2105.3136
2200.2397
2283.6071
2373.5203
2447.7845
2517.2388
2570.8432
2619.4732
2660.3598
2704.7317
2756.3979
2819.1372
2898.4932
2992.6471
3091.6866
3206.5867
3308.6283
3405.3235
3498.75
3558.7531
3624.1267
3661.1626
3709.1314
3728.3452
3753.3829
3799.6635
3825.9323
3878.0352
3920.7842
3960.8076
4005.1515
4191.8724
4210.5437
4273.2596
4334.8748
4409.7534
4508.6551
4623.8115
4775.9529
4941.5285
5149.2566
5372.3412
5628.2949
5902.5979
6202.6921
6526.6346
6857.4985
7234.6767
7565.3198
8075.1619
8212.9725
9734.0765
3658.0802
2116.9615
1977.2424
1832.7581
1844.8485
1868.3518
1880.5709
1881.6675
1927.8165
1965.5308
1977.1005
2029.7443
2046.166
2070.9572
2100.0247
2114.9693
2134.1426
2169.7048
2166.9978
2200.087
2228.6525
2225.124
2206.0352
2234.7318
2254.3599
2265.8273
2268.0158
2294.4042
2302.6188
2334.2871
2367.0335
2414.399
2481.0429
2528.3656
2634.5781
2686.0767
2775.3749
2847.0514
2921.2228
2995.5467
3059.3456
3130.3328
3180.9404
3246.6992
3288.8305
3339.2483
3371.2281
3400.9056
3415.4599
3427.7059
3430.825
3436.2387
3443.8993
3460.3249
3486.9234
3527.6502
3577.4347
3638.4409
3706.8118
3765.8712
3838.4115
3883.1095
3931.6548
3959.9207
3983.799
3983.6528
3995.3178
4004.0148
4004.1403
3992.6103
3987.567
3985.6193
3955.9794
3988.9292
3968.9249
3830.9455
3915.1401
3933.7158
4035.4517
4110.4699
4261.5433
4388.1802
4603.2974
4772.5934
5057.5005
5263.995
5623.8964
5868.0397
6301.9024
6596.1576
7085.589
7460.0498
7985.9545
8305.2118
9637.5885
4138.4616
3319.0287
3152.7489
3216.7837
3212.6319
3292.6747
3249.9333
3300.283
3313.9512
3336.5993
3298.5399
3311.6779
3248.7426
3229.087
3179.6351
3157.3204
3145.6387
3140.9793
3144.0918
3166.4422
3212.2466
3457.2907
3476.6919
3483.2705
3445.4092
3379.5267
3333.0605
3250.5386
3202.2118
3148.7896
3128.7793
3130.4232
3107.8069
3164.8757
3149.4914
3196.3988
3213.8107
3242.6576
3255.6293
3268.6121
3290.753
3296.6912
3334.3911
3352.1102
3393.4643
3419.0955
3448.621
3459.4643
3461.4919
3442.7184
3411.5626
3368.4045
3321.7417
3279.5819
3247.6217
3235.0896
3239.3287
3267.2688
3304.2485
3358.9208
3410.3945
3463.5051
3507.3745
3556.7099
3579.0817
3624.698
3650.9772
3672.9214
3694.3329
3731.4882
3779.4101
3801.0536
3858.5486
3898.3607
4076.6392
4114.0973
4095.7665
4159.5595
4204.0617
4295.8215
4406.2684
4550.8972
4726.9528
4939.544
5179.1376
5460.945
5756.0927
6101.3222
6443.5998
6832.8499
7236.182
7632.3262
8100.1971
8425.1766
9295.518
9274.7352
6136.5766
6449.18
6432.8275
6499.266
6426.8802
6474.7105
6471.5619
6493.4907
6493.819
6504.1454
6472.0669
6443.2187
6378.4039
6356.3717
6268.3297
6251.047
6183.5468
6157.6118
6123.6212
6051.874
6030.4887
6401.9068
6429.2214
6358.4791
6315.0157
6221.5436
6158.3618
6089.7735
6026.3301
6002.9048
5939.2149
5950.1424
5924.4975
5946.0339
5945.2434
5943.3121
5936.832
5914.3208
5907.1834
5858
5844.0587
5791.2081
5761.9717
5712.4755
5669.8593
5612.9869
5553.5149
5479.0575
5397.415
5305.1786
5208.833
5112.8439
5021.7383
4942.5559
4877.7491
4828.5435
4794.2805
4772.6437
4755.3519
4741.2843
4721.0112
4696.4699
4658.0519
4607.0717
4554.9196
4490.1147
4429.1188
4385.9904
4336.6877
4271.8353
4221.6205
4205.0392
4110.5146
4063.2212
4028.5638
3988.394
4010.2169
4036.4986
4099.1724
4194.6056
4310.3508
4475.4462
4657.1229
4894.8116
5137.3836
5446.4947
5747.9033
6116.2296
6493.7655
6910.3957
7360.6773
7885.3099
8330.8189
9304.4742
13913.342
11351.748
11203.605
11002.57
10795.812
10752.053
10765.671
10705.278
10790.681
10740.062
10690.976
10628.556
10471.139
10350.897
10187.532
9989.8515
9879.5793
9680.4491
9590.1862
9438.4875
9331.312
9223.1215
9057.8769
8925.6042
8756.3125
8526.4005
8343.4956
8114.3502
7881.7921
7718.8919
7503.9325
7399.6285
7230.25
7168.5383
7027.7547
6935.9839
6856.0457
6752.1775
6683.8815
6562.6772
6502.1261
6395.1768
6326.3267
6238.3222
6160.1862
6065.8596
5961.9953
5832.2822
5680.1853
5499.4712
5295.9088
5076.2642
4849.4338
4630.1878
4428.0844
4255.1424
4113.4552
4011.4925
3935.0994
3892.0716
3859.6678
3846.8046
3827.6076
3824.211
3803.4218
3811.7371
3784.7993
3792.157
3779.8693
3763.7745
3753.481
3784.5693
3713.0897
3751.8753
3723.2161
3718.7888
3709.6105
3717.8645
3743.5626
3817.6067
3917.4631
4072.8294
4272.5742
4524.9371
4815.6145
5157.3857
5522.8827
5928.3102
6349.2087
6781.8439
7236.4303
7664.0586
8128.3641
8517.2043
9117.1979
20070.469
16449.553
15783.458
15264.518
15523.618
15497.597
15673.076
15828.455
16003.425
15992.812
16020.262
15896.015
15763.571
15560.045
15308.933
15067.85
14843.894
14582.852
14401.369
14206.354
14026.184
13868.215
13666.275
13537.811
13305.958
13125.841
12911.749
12643.976
12426.729
12138.564
11934.851
11666.966
11469.471
11290.688
11063.029
10899.54
10725.134
10537.911
10321.598
10145.851
9926.3815
9740.477
9547.6222
9376.281
9210.4047
9060.1181
8907.5953
8754.1882
8584.6162
8393.4652
8176.1683
7928.7464
7658.4237
7369.2231
7074.4627
6782.0548
6506.6857
6249.4214
6021.4751
5816.4187
5636.7676
5474.6342
5329.0619
5191.8776
5064.5275
4947.0452
4842.9309
4764.6523
4659.3582
4587.1503
4551.4024
4454.794
4451.6051
4380.1551
4340.157
4290.7659
4257.4364
4217.2556
4197.1687
4206.0109
4234.3435
4310.5849
4431.0798
4592.0945
4818.7378
5073.7705
5396.8668
5730.6186
6118.7945
6509.4903
6931.9344
7355.327
7835.5964
8362.3205
8880.0256
24503.424
20070.648
18955.51
19080.27
19681.342
19866.696
20283.084
20539.166
20594.217
20582.094
20355.523
20159.821
19868.398
19529.549
19275.888
18962.162
18786.505
18517.075
18255.898
17984.248
17714.145
17279.187
17025.389
16558.424
16175.441
15877.491
15444.369
15327.027
14996.038
14978.138
14713.562
14609.909
14381.889
14172.505
13876.386
13608.69
13357.84
12969.548
12703.894
12351.259
12094.611
11818.176
11570.756
11311.155
11037.636
10728.653
10380.057
9992.4735
9571.1114
9137.807
8706.5384
8305.8463
7947.8437
7647.2465
7401.0857
7206.2636
7038.8374
6890.3245
6732.7031
6561.0997
6361.6994
6146.1786
5910.0889
5674.7188
5442.9447
5229.201
5008.9741
4843.0742
4658.7399
4613.2694
4392.6345
4315.8032
4113.1151
3989.868
3839.0083
3729.6087
3645.1702
3616.1567
3657.321
3749.0866
3907.7845
4134.2712
4388.9276
4703.6448
5020.937
5376.3458
5723.552
6100.1978
6483.5992
6879.2936
7316.3986
7755.5878
8208.6204
8644.753
8957.7654
16649.192
15789.755
13116.288
12696.166
12366.362
12400.576
12103.444
12320.143
12406.706
12478.744
12443.41
12466.681
13623.138
14684.712
18473.242
11378.115
9242.1865
7801.0583
7705.4745
7126.9776
7090.9746
6836.5708
6976.2087
7105.3672
7063.4066
7205.7597
7506.2792
8155.7893
9550.9771
12195.139
7699.171
5869.3725
4168.5967
3891.4472
3446.6145
3327.0472
3282.9243
3186.1734
3222.2135
3303.5503
3500.1703
3726.7152
4366.2993
5866.0413
8019.9091
5000.7057
3733.0748
2787.796
2316.1748
2165.0506
2007.5206
1966.4507
1893.5944
1998.7264
2059.5412
2231.0961
2439.8724
3152.3629
4171.7686
5511.8383
3129.2099
2233.6324
1438.0512
1197.9168
978.69001
895.27247
843.232
830.1495
850.96381
919.59378
1025.0934
1280.7235
1714.473
2373.0452
3689.8378
2419.6122
1464.9245
935.02177
730.255
583.08424
530.68914
479.68054
488.91732
497.11157
537.27396
660.15735
779.35639
1076.6483
1706.0998
2657.7269
1456.5019
863.53221
540.573
363.09926
263.89485
179.59847
156.60002
139.60358
162.30146
201.68681
282.78962
437.81504
649.19569
1146.6915
1984.0359
1501.8339
887.55396
525.57657
368.70717
252.795
196.05273
159.05105
162.41477
178.16864
213.73093
309.8758
452.95001
658.36965
1167.4121
2021.3793
1740.8265
1043.5895
633.88107
439.44847
306.9427
239.61344
202.63476
207.35589
226.61101
319.53038
383.6539
540.53374
807.18334
1401.8646
2131.1351
2888.0352
2003.5625
1239.1172
987.18654
757.1175
676.30557
606.78432
602.42669
618.45299
653.86637
845.51779
967.37928
1445.9489
2298.3993
3508.7018
3864.5468
2787.8293
1741.7753
1451.0257
1108.1993
1025.7189
933.20911
958.59263
988.04728
1065.1509
1286.9949
1609.6453
2199.8033
3296.9322
4574.6124
6404.4501
4331.8193
3198.3972
2714.6734
2312.4266
2115.6043
2033.5401
2007.185
2060.6886
2131.2856
2442.3738
2524.7643
3496.557
4860.4219
6854.9416
8744.6485
6769.3788
5094.7116
4455.3869
3914.5769
3803.8093
3614.3853
3719.8468
3731.6348
3695.2523
4124.1855
4401.4189
5355.6998
7309.0887
8706.05
13630.674
10960.665
8806.194
8173.5843
7509.7234
7241.9361
7345.8122
7442.8942
7320.8913
7412.7916
7525.1362
7960.3524
8993.2838
10502.055
14801.038
18116.95
18572.249
14405.671
13950.257
13171.635
12311.38
13071.317
13637.788
12693.504
13476.403
13165.048
13649.742
14677.646
16764.468
20687.455
42779.258
35539.327
35257.946
35957.13
36552.968
36127.26
37946.393
40059.95
40620.044
40037.198
38755.637
36775.713
36494.385
37601.164
36592.546
32537.027
28730.733
27380.885
26737.461
25289.364
26393.603
25838.566
25741.613
27354.893
25961.568
26520.101
26106.365
27964.305
29860.978
34205.459
26042.774
26562.226
25191.721
24136.766
24564.085
22297.156
22103.987
22228.367
21067.512
23046.114
23048.709
25431.922
26028.423
26270.882
27087.545
25673.529
28139.455
27674.326
26716.595
26085.847
25806.02
25526.894
25649.167
25780.452
25859.25
26573.617
27225.702
27863.001
28148.967
26394.387
25803.01
27160.083
27160.409
27857.695
27018.981
26724.856
26665.801
26432.446
26671.098
27494.294
27313.996
28027.095
27601.896
27081.218
25482.279
25430.645
27647.213
28042.572
28169.534
28102.655
27981.675
27804.596
27751.093
27930.004
27797.919
28274.745
28306.112
28147.733
27428.417
25601.464
25574.373
27067.26
27678.029
28035.719
28225.381
28213.115
28284.305
28248.556
28363.414
28529.824
28356.134
28352.952
27761.582
26672.236
25552.326
25692.217
26840.466
27647.403
28152.846
28416.36
28435.642
28438.267
28526.077
28441.263
28492.199
28353.377
28080.309
27470.681
26301.162
25226.735
25341.17
26440.991
27118.804
27581.185
27719.722
27977.54
28011.304
28067.588
28092.563
27961.475
27788.125
27415.125
26904.564
26042.513
25154.63
25495.685
26114.069
26879.876
27242.937
27629.521
27745.936
27865.314
27854.202
27724.347
27783.951
27504.257
27308.125
26687.654
25906.188
25417.385
25058.84
25675.22
26213.841
26625.729
26842.289
27075.53
27149.531
27211.636
27287.935
27045.468
27044.1
26567.707
26238.495
25592.052
24983.704
25085.483
25211.01
25767.233
26062.122
26370.938
26487.094
26588.583
26600.25
26540.27
26460.213
26197.244
25985.092
25500.874
24981.766
24916.196
24591.722
24762.69
25053.575
25396.841
25616.23
25775.079
25881.747
25934.214
26013.23
25875.292
25772.306
25538.107
25195.124
24831.533
24496.762
24113.869
24077.506
24668.591
24694.916
24989.206
25078.291
25180.806
25106.616
25097.686
24980.854
24799.139
24615.46
24259.024
23898.407
24131.642
23599.815
23481.412
23798.918
24068.739
24293.242
24318.759
24537.525
24325.508
24500.291
24407.276
24343.504
24182.825
23892.694
23688.369
23570.882
22961.177
22893.668
23348.387
23312.082
23514.277
23657.108
23770.144
23678.626
23627.854
23494.074
23338.93
23215.1
23062.734
22816.512
22966.995
22411.735
22199.389
22498.29
22572.302
22893.869
22911.739
23000.729
22955.203
23074.494
22968.375
22965.842
22823.677
22530.512
22225.972
22677.793
21766.911
21812.961
22129.925
22223.432
22196.11
22352.571
22282.293
22393.991
22331.003
22246.79
22072.891
21927.238
21824.584
21679.279
21613.578
21370.492
21231.902
21592.562
21575.566
21843.463
21806.763
22032.232
21811.258
21903.85
21811.912
21563.731
21658.208
21495.331
21380.841
21653.263
20930.599
20884.061
21079.507
21158.079
21296.724
21303.493
21507.063
21401.45
21424.772
21279.657
21440.952
21153.229
21000.423
20823.981
20853.512
20571.37
20623.958
20934.787
20922.343
20991.75
20980.097
21085.306
21056.684
21107.532
20917.22
20934.435
20827.042
20967.184
20624.758
20772.759
20418.935
20371.733
20548.494
20623.28
20740.774
20797.292
20819.575
20808.427
20673.409
20933.408
20682.73
20659.316
20268.352
20169.749
20737.004
20329.901
20106.936
20469.266
20401.827
20526.208
20611.911
20589.269
20500.943
20525.181
20488.968
20204.034
20239.577
20169.516
20075.841
20594.777
20026.461
20088.108
20181.907
20264.47
20271.416
20251.394
20302.544
20248.68
20288.211
20124.918
20118.175
20139.384
20172.861
19781.996
20618.461
20157.423
19879.394
19927.674
19886.261
20054.421
19897.884
20165.299
20001.165
20065.14
19988.08
20100.685
19942.6
19681.429
19601.891
20383.917
19779.445
19399.058
19798.162
19626.972
19772.419
19864.072
19839.452
19709.017
19793.67
19636.386
19648.593
19646.616
19633.934
19508.754
19878.079
19564.491
19228.375
19395.672
19326.274
19639.917
19404.54
19495.932
19440.225
19466.734
19426.821
19339.721
19090.084
19106.409
18795.394
19820.794
19139.884
18695.223
19034.874
18912.903
18984.393
18948.778
19051.578
18970.098
19037.602
18940.256
18963.788
18919.657
18835.175
18771.645
19050.237
18716.223
18354.658
18531.755
18447.958
18546.926
18590.594
18601.769
18562.183
18572.241
18518.118
18470.686
18542.508
18165.022
17889.009
18893.359
18113.038
17650.382
18037.372
18027.368
18172.911
18158.427
18149.181
18105.91
17986.633
17993.177
17875.798
17797.957
17980.039
17521.463
18003.515
17619.112
17380.329
17744.929
17535.761
17715.902
17529.717
17665.586
17563.556
17790.827
17531.737
17576.78
17371.315
17346.622
16917.231
17474.027
17185.699
16716.569
17098.343
16968.322
17215.073
17102.65
17267.984
17148.178
17186.925
17094.185
17039.557
16977.042
16846.853
16577.926
16848.399
16498.968
16208.71
16614.821
16526.854
16705.307
16666.919
16790.563
16635.827
16756.401
16581.76
16682.26
16434.944
16465.835
16081.937
16254.797
16001.342
15743.315
16168.358
16012.019
16294.736
16187.304
16337.438
16243.114
16316.605
16228.222
16187.36
16085.065
16011.714
15668.247
15786.432
15460.167
15325.361
15718.698
15832.895
15826.684
15791.075
15926.638
15826.568
15924.027
15836.354
15856.921
15706.489
15640.424
15447.533
15341.052
15187.12
14981.534
15299.3
15183.458
15395.024
15378.256
15477.545
15405.194
15499.421
15198.152
15367.491
15220.719
15185.031
14856.572
14999.443
14601.953
14515.779
14909.689
14818.304
15036
14911.582
15064.036
14955.28
15002.115
15016.528
14978.591
14867.286
14788.732
14579.696
14561.566
14308.404
14228.8
14548.703
14500.176
14591.964
14576.359
14675.604
14592.529
14665.285
14559.826
14588.312
14410.507
14493.23
14149.113
14210.972
14089.115
13753.767
14168.06
13970.546
14258.173
14097.016
14284.959
14121.751
14240.05
14119.707
14105.896
14065.644
13982.413
13772.858
13858.25
13613.041
13373.135
13719.229
13607.736
13771.156
13679.306
13815.503
13690.459
13799.942
13646.637
13727.412
13534.263
13585.859
13346.533
13446.594
13273.784
12964.484
13329.936
13138.562
13372.878
13221.526
13390.9
13250.123
13327.383
13251.464
13223.031
13151.749
13126.875
12918.518
13058.672
12850.418
12572.5
12880.175
12734.021
12927.092
12798.215
12967.794
12795.87
12933.567
12777.578
12817.811
12707.028
12682.259
12524.519
12666.86
12488.874
12177.91
12506.42
12329.304
12536.459
12406.699
12550.46
12425.441
12501.245
12404.362
12404.348
12313.214
12285.298
12142.761
12308.624
12129.137
11846.231
12148.387
11976.231
12188.267
12042.248
12219.247
12053.165
12164.512
12050.452
12048.217
11984.324
11938.368
11819.579
12026.614
11853.688
11550.223
11859.839
11692.016
11887.097
11765.844
11911.752
11774.955
11866.069
11762.222
11763.566
11703.956
11656.74
11545.461
11824.154
11634.683
11322.035
11641.555
11453.195
11660.623
11520.93
11684.483
11535.829
11628.085
11539.798
11529.79
11489.419
11449.084
11328.051
11714.917
11495.453
11156.515
11469.322
11288.759
11478.828
11353.304
11502.845
11356.079
11451.294
11361.944
11353.242
11326.713
11295.283
11150.666
11681.769
11418.818
11021.224
11351.632
11152.392
11338.389
11201.687
11347.457
11203.625
11293.678
11212.842
11208.878
11188.721
11180.148
10997.2
11696.041
11364.991
10913.311
11239.223
11031.674
11204.155
11070.706
11212.022
11063.309
11152.228
11075.448
11068.585
11053.715
11067.332
10832.009
11708.086
11312.675
10781.079
11110.871
10891.559
11053.711
10910.551
11037.699
10887.223
10975.99
10898.111
10897.888
10883.041
10922.565
10633.248
11672.304
11201.762
10600.376
10930.261
10698.792
10845.468
10700.198
10825.113
10676.797
10759.459
10682.958
10681.3
10660.063
10717.857
10373.057
11535.678
11003.554
10342.713
10670.564
10428.182
10569.872
10420.962
10534.836
10377.759
10458.751
10378.604
10379.594
10350.004
10423.822
10034.222
11264.993
10686.535
9988.7795
10316.646
10072.449
10206.438
10054.582
10163.997
10014.026
10092.898
10010.626
10009.382
9966.7719
10043.016
9618.5222
10846.382
10242.667
9539.2731
9872.7145
9625.1923
9760.3725
9611.125
9720.7609
9565.8418