/*--------------------------------*- C++ -*----------------------------------*\
  =========                 |
  \\      /  F ield         | OpenFOAM: The Open Source CFD Toolbox
   \\    /   O peration     | Website:  https://openfoam.org
    \\  /    A nd           | Version:  6
     \\/     M anipulation  |
\*---------------------------------------------------------------------------*/
FoamFile
{
    version     2.0;
    format      ascii;
    class       pointScalarField;
    location    "0.27";
    object      p;
}
// * * * * * * * * * * * * * * * * * * * * * * * * * * * * * * * * * * * * * //

dimensions      [1 -1 -2 0 0 0 0];

internalField   nonuniform List<scalar> 
28033
(
1068878
-1625293.8
-689.28618
539.92688
2041539.4
-2291349.9
293.23274
-301.31659
950474.58
821408.25
703440.37
569667.96
418556.08
281340.18
137627.02
-16798.288
-177443.25
-314394.53
-490345.47
-576345.8
-769026.49
-928736.8
-910535.44
-1243.8636
-3249.9053
-4506.8866
-4654.5353
-4741.2801
-3316.0611
-2460.1075
-624.65216
857.88279
2716.0672
3858.575
4535.1539
4663.5096
3736.0395
2147.3454
294792.85
311129.97
285449.2
306350.52
300159.49
309323.8
310288.63
311836.91
311920.21
312841.4
310156.35
308271.22
306866.15
304500.96
301353.85
297792.49
295953.86
292686.7
289472.66
286618.85
284364.22
281104.92
279162.27
276479.65
273680.05
271602.92
269226.94
266318.68
263691.98
260842.8
257784.61
254159.61
251097.66
247745.67
243075.15
239348.58
235031.57
231626.37
226476.94
222789.05
218127.23
214085.34
209985.38
206459.96
202649.55
199365.94
195894.66
192740.65
189321.11
186060.89
182426.18
178733.69
174631.99
170259.36
165469.81
160314.96
154766.47
148862.46
142637.49
136192.16
129554.85
122831.21
116074.04
109538.88
103022.66
97029.489
91751.35
85880.705
80308.453
75485.579
70800.21
66610.92
62628.991
58842.541
55069.504
51420.023
47684.995
43958.89
39949.715
36063.272
31899.289
27743.97
23328.53
18721.007
14525.205
10401.953
6796.3987
3478.3244
723.63102
-1618.713
-2885.6427
-4279.8237
-3426.7954
-3294.5308
-1359.5919
-287187.98
-239500.42
-286742.15
-257932.58
-295866.43
-292488.97
-300231.88
-297720.1
-304460.34
-299034.23
-302144.65
-297779.08
-296610.09
-294746.11
-291144.96
-288949.35
-285268.01
-282374.06
-279695.62
-276719.78
-273620.96
-272204.67
-268424.53
-267709.28
-264945.95
-262623.39
-261669
-258127.15
-257415
-253098.03
-251779.06
-247933.15
-245205.81
-241907.19
-238551.94
-235334.49
-230148.56
-227144.83
-222090.35
-218629.5
-214184.62
-210440.71
-206443.05
-202901.19
-199304.18
-196052.04
-192813.62
-189742.09
-186684.61
-183585.65
-180392.44
-176996.22
-173347.78
-169373.16
-165023.11
-160283.67
-155121.24
-149578.64
-143669.87
-137466.12
-131020.5
-124453.79
-117806.84
-111218.64
-104729.51
-98506.322
-92518.634
-86910.695
-81818.083
-76620.383
-72153.099
-67782.799
-63912.729
-60065.493
-56482.678
-52908.975
-49354.596
-45730.94
-41984.988
-38165.206
-34162.336
-30051.648
-25837.878
-21616.819
-17388.529
-13345.036
-9460.0762
-5942.9057
-2798.4585
-171.27385
1862.5763
3226.0914
3889.2713
3327.1509
2017.4606
1687806.8
1589718.8
1148907.4
1150593.2
792833.77
460892.36
273042.33
-52075.537
-310039
-623507.52
-857023.88
-1155734.2
-1456534
-1680296.8
-1774043.6
-477764.3
-357866.15
-164574.35
-350209.37
-283073.61
-311681.3
-299741.32
-319442.55
-300303.9
-316824.73
-316026.66
-304587.53
-313859.63
-300003.38
-309253.65
-299776.9
-296756.36
-293492.28
-289071.46
-289829.33
-284794.3
-279892.39
-281240.22
-279205.37
-276958.07
-276399.68
-267516.85
-272283.06
-261752.47
-264827.36
-261923.01
-258532.81
-255286.49
-252126.04
-249327.42
-238898.7
-239978.32
-235484.08
-231064.44
-226996.33
-222928.71
-219042.26
-215270.99
-211726.82
-208359.88
-205136.29
-201970.55
-198851.43
-195669.62
-192411.61
-188940.71
-185224.99
-181169.58
-176731.5
-171878.11
-166585.98
-160887.71
-154789.69
-148371.04
-141692.37
-134828.23
-127901.08
-120970.25
-114155.46
-107514.55
-101110.59
-95289.957
-89191.87
-83971.956
-78842.401
-74616.256
-70137.614
-65995.812
-62023.208
-58125.255
-54208.801
-50267.893
-46253.803
-42088.927
-37792.724
-33342.326
-28811.975
-24224.637
-19696.41
-15260.514
-11070.383
-7166.4673
-3713.3034
-744.73643
1605.9576
3287.3559
4223.1844
4305.7614
3648.307
1988.699
1992.6725
3783.1802
4140.6627
5080.8042
3498.3545
3334.0286
830.00728
-83.097382
-2126.8202
-4386.817
-3754.0657
-5570.1008
-3565.6602
-3916.6987
-981.77926
-1012.3741
-3239.7815
-3549.3701
-3383.3187
-2481.7187
-654.40368
1745.0038
4845.4279
8279.8037
12363.705
16447.453
20759.122
25192.788
29694.808
34070.764
38306.526
42424.581
46286.348
50102.913
53694.457
57317.956
60916.798
64665.943
68465.023
72577.421
77100.415
81087.49
87798.025
92787.609
98861.925
105218.5
111946.9
118766.56
125738.32
132712.41
139571.77
146277.14
152665.21
158745.7
164402.48
169659.93
174460.06
178883.43
182899.67
186634.32
190109.02
193434.15
196674.81
199958.45
203265.21
206751.49
210435.82
214288.35
218468.67
222509.74
227138.85
231166.7
233166.49
243097
244463.15
246468.36
256934.5
256691.74
261061.61
260743.15
270442.65
265285.44
275569.9
274800.93
278474.99
279832.2
279767.96
287507.79
286338.72
287351.16
294444.29
292281.18
300277.64
298060.38
306080.58
311702.87
309052.05
311007.65
318836.36
318954.14
316953.69
324131.36
320218.91
317971.07
311295.47
308533.32
317376.27
308755.76
282735.87
348990.1
796277.26
850932.51
893801.5
934490.72
954484.29
982564.41
982846.33
996167.34
984002.77
961171.45
977253.3
914747.6
881471.01
922805.22
739847.35
-1326932.7
-1664351.2
-1646200.1
-1777304.1
-1729127.5
-1654197.9
-1898893.4
-2019942.6
-1891726
-1894193.2
-1817619.2
-1753016.3
-1646102.2
-1630416.5
-1541002.3
-1045.1337
-2082.4463
-3039.9074
-3658.9471
-3887.2655
-4056.6064
-4163.0503
-4124.5971
-4068.6379
-3890.4784
-3587.3547
-3248.7503
-2643.6466
-1619.6982
-977.65487
579.33216
1892.1346
2928.6774
3565.907
3722.841
3814.7245
3763.5452
3619.6701
3434.4439
3160.6597
2842.0194
2410.3114
1874.3953
1182.1529
128.20045
277572.58
284857.58
257758.26
260938.43
267102.01
271040.8
273844.5
276507.93
277635.18
277311.78
276226.81
276980.45
274075.89
272256.66
269285.63
268670.39
265119.43
263131.03
260048.08
258155.98
255683.57
253675.55
251132.32
248705.93
246186.86
244602.86
241556.68
239166.95
236659.4
234059.42
230483
227685.27
225195.88
221243.22
218124.35
213985.88
210641.93
206296.85
202705.13
199433.56
195924.63
192173.62
188796.36
185358.89
182028.48
178910.88
175663.46
172611.77
169348.22
166135.23
162675.19
159104.07
155244.93
151162.43
146771.16
142109.81
137154.84
131944.67
126521.81
120926.47
115214.99
109416.86
103725.13
98087.948
92508.564
87113.497
81291.882
76722.011
72236.857
68105.651
64046.432
60152.774
56369.474
52746.636
49071.878
45511.675
41921.285
38261.963
34560.357
30947.83
27095.342
23471.313
19847.128
16730.025
13228.975
10019.261
6972.4683
4312.6348
2037.2445
199.02287
-1173.4463
-2204.4084
-2357.4974
-2930.232
-2630.1086
254488.38
237162.94
210404.85
220306.6
221139.56
224629.17
227128.12
229968.32
230963.1
232346.78
231880
231777.75
230177.91
229809.06
227705.56
226045.21
223728.26
222530.72
219988.87
218274.14
216079.21
213569.59
211884.64
209833.7
207999.46
205480.78
203690.01
201629.69
199144.61
196838.08
194556.08
192115.93
189085.71
186346.46
183527.37
180604.28
177676.41
174750.75
171904.03
168864.16
165792.78
163223.54
159892.86
157247.55
154344.21
151721.79
148879.31
146222.25
143315.84
140513.83
137432.3
134325.79
130970.03
127468.21
123745.63
119830.75
115713.53
111435.26
106992.95
102452.26
97820.78
93148.265
88597.55
83956.097
79630.541
75596.869
72082.002
67520.154
64379.884
60454.152
56847.125
53422.704
49999.089
46585.85
43278.36
40165.403
36790.445
33731.584
30410.741
27329.197
24006.899
20843.479
17916.337
14300.843
11951.118
9023.8615
6572.5206
4485.9487
2663.5719
1051.3034
-15.551652
-1245.3376
-1415.9169
-2851.0255
-2771.4287
203512.96
200847.97
173077.19
182981.05
179668.3
185089.7
187825.76
190672.89
191016.74
192592.11
192176.22
192665.9
191416.68
190825.04
189041.1
188345.31
186278.97
185002.95
182898.19
181568.56
179570.13
178297.05
176394.74
174909.28
172633.95
171329.57
169315.09
167329.77
165431.14
163489.79
161283.74
158978.97
156930.97
154641.92
152481.53
149919.03
147855.08
145578.24
143107.44
140564.88
137997.66
135459.28
133305.18
130895.51
128617.54
126247.23
123889.37
121522.7
119102.64
116646.97
114051.21
111410.21
108582.45
105650.97
102546.01
99292.32
95892.467
92354.729
88692.642
84948.81
81132.368
77280.835
73485.062
69553.438
65986.075
62757.549
59932.751
56371.05
53385.086
50655.026
47812.358
44808.145
41799.097
38976.438
36122.495
33272.453
30537.602
27675.235
24943.877
22178.84
19449.592
16884.303
14183.05
12164.347
10666.543
8127.2859
6066.6455
4365.4408
2724.3672
1357.2749
300.05935
-951.08432
-1353.0781
-3015.2484
-3296.0372
159806.12
159636.82
132665.37
143285.85
137562.96
143997.9
145115.32
147034.96
147941.29
149927.39
149503.39
150328.23
149085.21
149556.84
147911.87
147677.93
145802.16
145542.25
143660.49
142826.24
141202.66
139970.65
138490.11
137064.45
135787.14
134341.04
132795.99
131476.81
129833.56
128207.47
126583.09
124887.52
123145.93
121217.42
119670.55
117361.8
115667.04
112784.09
110841.65
108961.34
107523.98
105714.74
103844.4
101958.5
100207.02
98382.14
96561.149
94717.095
92779.508
90800.249
88710.572
86553.717
84271.042
81901.945
79416.537
76841.716
74171.356
71428.04
68622.099
65774.219
62925.443
60048.773
57197.114
54405.398
51744.884
48908.841
46843.363
44311.437
41108.453
38835.366
36559.312
33984.827
32001.089
29763.047
27454.225
25296.981
23141.827
21045.469
18941.392
16896.455
14890.882
12938.833
11053.877
8925.6204
7043.0049
5927.9922
4598.4746
3397.193
2268.8993
1317.0716
471.71688
-405.22589
-953.69922
-2469.2715
-2973.7672
129102.76
116497.7
95408.411
105425.41
102443.03
106360.1
107651.5
109483.55
109774.06
111121.5
110961.94
111276.34
110903.55
110913.11
109754.72
109719.7
108286.05
108034.63
106448.89
106153.18
104720.02
104189.59
102712.37
102155.1
100719.65
99786.075
98511.814
97370.438
96052.564
94940.718
93606.971
92350.235
90975.992
89798.05
88483.548
87101.917
87122.013
87414.954
86112.319
86613.998
84803.088
83471.593
82259.525
80890.922
79514.682
78032.281
76575.053
75035.367
73481.13
71876.437
70203.173
68484.905
66685.073
64816.947
62880.557
60871.157
58792.865
56665.074
54475.299
52260.578
50038.409
47729.584
45521.52
43369.021
40895.173
39108.85
36810.909
34798.097
32621.105
30637.203
28761.879
26327.419
24021.88
22048.31
20252.791
18497.637
16974.839
15385.597
13855.595
12384.447
10888.001
9543.3338
8141.6376
6914.763
5736.6871
4739.9775
3640.0488
2773.3724
1839.937
1184.0588
415.37617
-264.15352
-784.94809
-2211.9814
-2437.9224
78488.499
78588.844
60375.011
69779.58
64048.045
66480.835
68285.477
68960.446
68785.237
70802.732
69754.295
70935.952
69972.305
70664.007
69488.827
70057.492
68737.57
69162.932
67781.828
67871.864
66586.694
66317.778
65324.869
64925.928
63905.101
63407.8
62509.194
61861.229
60983.334
60157.947
59283.363
58378.616
57538.848
56647.673
55657.104
55038.435
54944.366
55021.361
55319.748
55193.294
55503.86
54590.779
53714.047
52876.914
52000.491
51056.861
50097.695
49102.003
48047.872
46950.762
45786.861
44581.053
43307.739
41993.302
40635.946
39236.237
37818.683
36375.671
34936.121
33486.134
32044.687
30663.907
29259.057
27832.056
26691.37
25138.028
24105.56
22807.147
21568.087
20435.576
18902.391
17534.071
16211.225
14505.99
13147.945
12068.193
10926.159
9913.4441
8890.5719
7939.6583
6959.4925
6086.316
5236.1214
4440.6418
3654.729
3042.8215
2347.0611
1867.318
1269.6186
928.41639
385.50062
37.216629
-425.33729
-1369.8055
-1923.0356
38941.828
33910.204
27345.449
32957.296
28080.358
30649.896
31415.967
31098.595
31407.899
31739.275
31852.626
31735.733
31899.071
32088.873
31605.093
32093.744
31288.185
31794.674
30896.194
31464.927
30537.129
30954.24
30156.927
30238.409
29475.833
29417.553
28679.622
28438.074
27760.866
27494.575
26924.755
26588.442
26101.126
25707.979
25342.448
25046.793
24524.532
24683.546
23899.361
22977.019
22907.288
22582.696
22085.49
21836.035
21444.123
21021.302
20571.115
20110.527
19586.55
19066.966
18503.3
17930.571
17337.411
16732.011
16131.353
15508.992
14914.674
14308.496
13722.926
13132.716
12593.706
12023.371
11472.135
11009.36
10384.251
9973.7759
9399.4049
8852.755
8362.0043
7786.6416
7287.8353
6729.2933
5912.6127
5738.2456
5253.7245
4739.1619
4107.0547
3611.0153
3114.4878
2643.6229
2221.7305
1882.1983
1503.2518
1265.443
978.4845
865.77063
620.52548
652.15862
392.33387
484.10595
166.728
214.65276
-84.184969
-710.78957
-727.28733
-9359.2855
-6030.1345
-9733.0953
-6390.153
-7960.396
-7500.217
-7684.1308
-7625.3425
-9148.3544
-7633.8069
-9086.2993
-8286.0744
-8750.1363
-8122.4186
-8695.8255
-7666.0844
-8403.0056
-7289.4032
-7966.6709
-7099.5804
-7554.647
-6695.9596
-7448.502
-6917.6737
-7248.988
-6982.9984
-7209.2383
-7100.0929
-7215.9619
-7221.1514
-7325.7766
-7327.9352
-7384.0635
-7295.6887
-7259.5333
-7287.6033
-6903.0144
-6798.9703
-6654.4601
-6803.1944
-6537.1223
-6307.7549
-6282.2716
-6115.1163
-6002.0932
-5944.3014
-5834.9005
-5771.4109
-5719.1746
-5669.8977
-5635.6082
-5597.1347
-5554.617
-5508.8821
-5428.6208
-5353.6382
-5220.1912
-5086.8423
-4913.0967
-4700.8781
-4484.0721
-4236.0242
-3942.0933
-3708.901
-3371.7629
-3151.2066
-2869.4451
-2597.2234
-2420.6519
-2168.0316
-2101.1132
-2021.9325
-1965.777
-1768.1573
-1551.7324
-1498.978
-1512.1603
-1419.0685
-1386.8394
-1291.687
-1198.7441
-1101.3671
-956.97386
-821.85986
-664.78816
-485.50633
-367.90549
-145.36262
-146.24678
170.13355
14.483296
408.54339
51.814442
178.01581
315.30099
-48226.733
-47729.103
-41398.42
-39792.35
-41086.232
-42948.106
-42239.131
-44763.058
-44418.192
-45573.618
-45281.46
-45831.788
-45285.542
-45167.752
-44939.65
-44208.082
-44315.594
-43205.62
-43687.503
-42468.736
-42828.71
-42242.049
-42405.699
-41393.593
-41640.262
-40890.395
-41063.84
-40368.208
-40394.394
-39854.366
-39654.533
-39139.745
-38787.65
-38217.767
-37815.967
-37083.392
-36645.427
-35914.686
-35277.562
-34531.989
-33873.575
-33188.209
-32608.031
-31926
-31337.875
-30776.53
-30229.443
-29696.108
-29194.172
-28679.355
-28164.539
-27628.225
-27068.909
-26470.079
-25815.732
-25131.397
-24358.314
-23565.648
-22681.629
-21784.868
-20822.447
-19837.575
-18857.369
-17829.633
-16884.06
-15900.156
-14960.063
-14092.656
-13249.896
-12451.873
-11749.016
-10981.191
-10430.397
-9663.7215
-9348.5794
-9091.5377
-8487.902
-8036.8803
-7434.8569
-6892.6156
-6314.5742
-5684.5382
-5080.8496
-4397.3952
-3791.5158
-3069.9415
-2518.5169
-1768.6089
-1346.5264
-549.45946
-372.16922
463.71424
442.02677
1120.1213
1255.9479
-93906.552
-92561.447
-76389.517
-79520.618
-80907.557
-82261.616
-84192.424
-84975.76
-87587.791
-87243.058
-88308.152
-88239.669
-88249.06
-87523.75
-87509.7
-86065.711
-85921.959
-84501.834
-84007.234
-82692.19
-82459.703
-79772.155
-79078.458
-77937.12
-77660.031
-76706.103
-76144.899
-75317.949
-74678.136
-73843.587
-73161.568
-72234.577
-71491.826
-70500.264
-69524.46
-68543.754
-67449.348
-66403.242
-65258.467
-64228.75
-63136.613
-62052.873
-60966.659
-59937.863
-58863.266
-57862.028
-56813.913
-55788.063
-54757.313
-53695.547
-52600.396
-51468.388
-50270.687
-49007.737
-47664.268
-46253.669
-44737.615
-43167.079
-41509.332
-39798.62
-38028.861
-36253.006
-34427.797
-32643.621
-30861.308
-29124.164
-27442.639
-25845.248
-24294.517
-22832.742
-21430.61
-20134.568
-18820.576
-17345.397
-15599.945
-14512.135
-13687.058
-12551.206
-11494.229
-10473.814
-9341.0997
-8322.6257
-7183.7162
-6174.7406
-5088.5681
-4112.3099
-3158.9716
-2256.4109
-1509.1062
-668.88686
-208.40108
614.54052
992.25292
1593.9668
1639.856
-142280.91
-112396.56
-102227.03
-105043.99
-108121.76
-110054.55
-112581.17
-114943.12
-117060.32
-117637.96
-118294.36
-118876.28
-118248.19
-117722.22
-117324.79
-115642.49
-115675.13
-113572.13
-113335.54
-112225.92
-112523.61
-112995.03
-112777.22
-112535.61
-112290.03
-110787.89
-110420.71
-108871.03
-108128.68
-106803.13
-105787.99
-104481.63
-103329.26
-101857.14
-100460.18
-98915.371
-97437.788
-95786.208
-94221.359
-92577.044
-90987.722
-89326.749
-87783.572
-86172.449
-84640.648
-83102.991
-81596.708
-80083.783
-78574.685
-77026.089
-75444.56
-73802.531
-72078.009
-70266.69
-68349.731
-66328.116
-64178.289
-61949.121
-59587.02
-57166.015
-54667.186
-52121.055
-49579.975
-47006.168
-44528.839
-42053.104
-39673.436
-37367.768
-35172.111
-33048.631
-31069.104
-29196.795
-27326.527
-25620.14
-24041.155
-21997.768
-19960.677
-18472.976
-16873.573
-15358.903
-13873.451
-12317.419
-10817.893
-9287.9643
-7815.7251
-6367.3322
-5006.8454
-3687.071
-2539.2593
-1357.6644
-489.05904
630.56402
1100.0725
2294.2343
3229.2389
-167019.73
-158353.32
-143669.45
-142060.61
-145595.58
-147511.58
-152040.8
-154299.4
-155826.41
-157910.33
-158250.08
-158076.48
-158008.98
-156933.78
-155975.72
-154798.34
-153284.85
-151665.98
-150684.59
-148644.53
-148535.34
-146752.59
-148927.78
-148379.36
-147419.13
-146381.78
-145166.02
-143595.11
-142298.77
-140520.51
-139196.43
-137187
-135700.2
-133706.38
-131865.88
-129913.99
-127845.99
-125795.89
-123689.39
-121650.66
-119501.19
-117528.79
-115471.63
-113532.47
-111574.81
-109663.43
-107757.03
-105835.35
-103886.69
-101888.18
-99804.126
-97624.392
-95315.345
-92870.957
-90269.7
-87512.108
-84600.529
-81544.833
-78351.359
-75075.209
-71689.737
-68301.391
-64876.264
-61468.362
-58162.82
-54908.747
-51761.558
-48798.368
-45901.352
-43167.369
-40589.784
-38054.591
-35675.184
-33326.956
-31289.215
-29374.477
-26851.049
-24707.26
-22432.049
-20242.196
-18008.123
-15802.293
-13590.958
-11450.874
-9350.2732
-7378.5248
-5517.81
-3811.2036
-2358.119
-905.55564
-65.263544
1286.7639
1461.8305
2933.5865
3229.752
-234672.62
-210772.74
-177151.22
-188642.84
-185966.11
-194753.56
-195688.51
-200062.26
-201369.82
-203538.34
-203319.17
-204012.37
-202673.38
-202233.25
-200301.67
-198878.6
-197288.35
-194905.48
-193560.9
-191298.12
-189800.77
-188091.54
-185819.17
-183475.53
-182118.33
-180240.35
-179058.54
-176806.94
-175338.59
-173261.4
-171390.36
-169119.07
-167189.2
-164878.41
-162586.37
-160139.04
-157587.15
-155030.66
-152530.79
-149864.61
-147385.53
-144790.1
-142297.69
-139797.37
-137346.35
-134914.41
-132495.71
-130058.54
-127599.7
-125078.69
-122464.68
-119747.79
-116883.57
-113867.46
-110670.03
-107302.91
-103745.06
-100025.43
-96153.244
-92153.075
-88064.246
-83919.544
-79763.949
-75591.985
-71580.131
-67564.687
-63743.011
-60050.851
-56501.675
-53093.785
-49864.163
-46774.598
-43824.075
-40960.533
-38146.172
-35443.349
-32747.601
-30082.359
-27381.432
-24669.686
-22013.849
-19326.719
-16700.787
-14127.843
-11645.334
-9294.1041
-7106.8736
-5106.8422
-3342.4639
-1741.1511
-552.98356
898.28348
1407.4725
2829.2031
3049.1748
-256056.43
-243487.53
-204381.71
-222884.21
-225728.17
-232490.34
-235169.25
-240456.79
-242183.7
-242861.5
-244311.67
-242960
-242269.74
-240992.84
-238305.16
-236875.7
-234304.31
-231601.43
-229927.96
-226972.96
-225103.07
-222988.41
-220944.96
-219716.36
-217355.14
-215643.15
-213828.08
-211443.07
-210108.72
-207368.6
-205485.03
-202599.28
-200078.08
-197206.9
-194379.72
-191549
-188290.67
-185362.24
-181957.02
-178926.13
-175706.58
-172637.73
-169637.54
-166709.11
-163891.01
-161120.75
-158407.01
-155709.92
-152983.39
-150189.14
-147273.53
-144198.91
-140912.92
-137390.03
-133603.27
-129543.32
-125206.57
-120627.13
-115806.28
-110823.4
-105690.14
-100506.94
-95288.305
-90124.073
-85091.34
-80118.588
-75392.462
-70994.772
-66799.497
-62760.967
-59061.999
-55503.018
-52068.762
-48833.188
-45622.304
-42507.52
-39355.294
-36221.939
-33037.51
-29817.705
-26543.835
-23243.802
-19927.119
-16664.173
-13459.539
-10424.978
-7554.6138
-4965.3553
-2654.0925
-713.58189
829.77359
2094.4913
2498.0966
3218.7733
2906.0116
-353709.82
-236462.38
-250289.54
-255811.21
-265884.81
-264825.72
-273851.67
-277000.03
-277444.08
-279712.7
-278984.19
-279299.62
-276808.95
-275283.14
-272598.21
-270469.6
-268167.1
-264915.29
-262824.16
-259807.62
-257214.62
-254781.05
-252915.41
-250579.48
-248967.52
-246185.6
-244504.19
-241601.17
-240503.13
-237397.6
-235260.57
-232000.16
-229113.61
-225415.32
-221898.26
-219068.79
-215693.18
-211941.91
-208279.67
-204693.78
-200979.62
-197475.41
-193969.21
-190611.79
-187333.54
-184142.11
-181015.63
-177913.29
-174768.45
-171566.52
-168211.75
-164683.62
-160911.06
-156870.43
-152526.05
-147865.21
-142899.36
-137634.89
-132116.93
-126389.48
-120513.83
-114556.97
-108590.22
-102690.99
-96914.416
-91227.704
-85803.25
-80620.852
-75931.744
-71418.863
-67240.107
-63094.248
-59296.881
-55576.459
-51959.528
-48420.48
-44890.814
-41270.042
-37642.967
-33890.129
-30125.274
-26287.23
-22463.883
-18664.38
-14999.115
-11478.535
-8238.8583
-5292.0463
-2760.8181
-682.47983
919.27466
1936.1855
2462.4166
2739.3695
2511.929
590421.61
609740.52
591283.9
609383.22
612799.79
617182.7
640200.13
624705.57
620885.93
619487.45
614267.82
593967.03
588338.01
618168.24
530423.88
563619.47
575254.38
548232.18
566100.73
570568.15
583069.29
566011.79
587906.13
582187.16
586063.63
573854.97
571041.87
569908.63
574566.81
497859.93
419697.78
481279.26
423484.5
445796.71
444128.73
440337.53
447153.55
442482.75
446112.98
439975.2
438569.21
442213.36
414111.74
455572.34
425645.92
368423.08
370827.78
370723.87
365520.31
378297.66
374443.73
380472.56
381055.7
377700.33
378758.18
379704.39
366406.21
367887.6
392606.24
288174.57
257993.82
292940.52
254377.93
277836.33
268044.05
278836.25
275010.37
274824.92
276609.89
276577.61
272936.08
272538.09
269844.47
277762.43
252108.32
187052.89
195243.79
182721.62
188760.07
189345.01
190848.71
189932.13
190860.6
192376.16
191572.9
186748
194037.9
183112.62
193743.27
186008.22
94404.745
94354.873
96276.146
91497.815
97449.561
96892.595
97325.753
97406.497
95489.129
97531.811
96067.553
90402.173
99788.843
90313.678
98608.035
4131.167
1865.2304
-2903.1142
3159.5604
-167.86713
1368.66
958.68526
1443.751
-397.8658
5709.2255
-6027.7721
5400.9016
10852.202
-10665.854
37758.579
-84424.556
-94580.54
-83641.503
-90640.058
-88172.438
-88914.514
-89057.398
-87641.794
-90414.345
-81674.957
-92192.381
-81720.229
-78275.866
-101674.27
-19676.025
-156676.08
-193053.61
-171054.61
-178427.22
-177824.27
-180700.3
-181642.23
-181123.59
-185692.27
-175850.56
-195712.17
-172177.99
-170486.2
-205527.21
-113080.59
-253706.72
-307407.16
-259614.73
-288009.06
-274626.65
-281303.52
-278863.26
-278737.77
-281108.26
-268547.47
-275145.51
-272780.64
-251607.28
-287273.95
-174626.02
-367208.16
-353564.9
-353948.58
-348670.09
-361069.53
-362643.83
-364532.4
-368156.26
-369383.08
-363746.44
-380229.9
-336424.8
-354094.65
-387008.49
-268344.35
-415423.06
-463871.09
-411938.09
-429924.21
-413281.91
-425712.83
-421919.08
-422026.44
-417880.05
-412959.68
-417686.22
-423536.34
-383543.93
-463217.52
-235714.45
-505160.52
-611746.37
-527299.68
-575397.63
-587505.03
-582129.52
-586515.56
-612050.6
-598205.76
-615039.14
-580567.85
-565929.22
-580889.64
-562775.17
-524322.37
-546361.05
-480271.07
-437786.73
-442828.08
-460922.42
-495019.46
-472344.04
-453402.19
-435092.33
-432315.47
-443022.75
-445455.92
-443259.93
-496428.25
-442300.88
-493656.52
-458374.08
-545997.36
-571116.89
-593842.4
-645632.75
-619417.13
-579219.04
-658666.3
-644939.85
-623194.19
-589960.99
-564294.83
-539812.49
-446519.48
-352730.38
-355159.66
-399361.04
-409803.39
-427665.94
-441534.62
-453973.37
-465350.86
-478936.27
-456222.15
-446834.39
-419479.45
-420949.97
-417902.56
-417759.21
-289249.02
-330958.78
-322270.32
-352761.05
-373345.41
-361514.63
-380075.44
-375534.11
-365116.2
-380781.95
-365517.84
-371579.59
-359118.78
-319283.91
-334313.89
-298447.93
-339487.25
-343381.46
-351841.52
-360371.02
-369185.52
-371829.39
-375347.72
-374886.76
-366155.16
-365767.32
-355403.43
-343030.68
-337126.54
-316763.96
-319351.04
-348031.08
-338207.21
-364614.64
-367120.16
-374294.74
-383073.11
-381120.51
-384045.02
-383597.43
-373546.68
-366335.02
-350854.42
-335549.39
-332213.55
-311457.61
-325506.88
-333510.46
-346513.08
-350858.5
-360858.03
-359919.93
-361720.62
-361468.46
-355695.32
-353773.07
-346545.58
-336865.84
-328666.76
-311020.8
-311953.68
-333359.25
-334260.4
-348410.39
-349000.93
-356773.93
-359360.64
-360631.86
-360416.72
-357062.25
-349988.88
-345594.88
-336513.85
-322472.42
-324226.93
-315879.48
-322419.72
-330839.78
-336398.07
-345786.64
-347537.41
-350999.41
-352422.96
-351046.93
-348935.46
-345094.83
-338628.38
-332351.9
-321302.43
-313535.14
-310959.17
-323448.89
-326312.74
-335336.68
-335067.77
-342648.95
-340928.18
-343752.49
-342090.66
-338939.45
-335586.56
-330176.05
-325686.76
-317807.51
-314800.65
-312415.26
-315999.85
-321939.31
-324681.04
-330040.5
-331434.52
-334348.81
-334388.99
-333301.51
-333205.81
-328968.72
-326435.17
-321495.34
-315119.92
-312044.53
-307558.89
-315093.14
-317495.27
-323499.13
-324713.14
-329316.72
-328648.66
-331085.35
-330359.63
-328431.52
-327049.01
-323953.72
-319413.13
-315512
-313134.3
-307672.23
-308684.84
-313078.12
-314835.96
-317540.37
-318289.89
-320594.39
-320826.51
-321000.72
-320100.37
-318306.24
-315366.38
-313603.41
-308931.64
-308221.77
-304543.93
-306690.66
-307722.19
-311838.44
-312908.84
-316245.48
-315751.92
-317678.17
-317233.34
-316501.81
-314206.21
-313689.16
-309757.96
-308349.37
-305804.81
-300508.64
-301763.91
-305489.24
-305372.01
-307973.17
-308230.01
-308969.88
-310048.74
-309918.26
-308704
-308059.42
-306561.12
-304648.27
-302435.64
-302516.08
-297962.5
-298196.4
-300102.86
-302288.06
-303444.62
-304466.42
-305536.41
-305285.43
-306041.79
-305914.29
-304522.59
-303898.8
-300733.62
-301133.72
-299051.21
-293734.6
-294830.49
-297665.02
-297131.76
-298692.28
-299082.64
-301116.67
-299690.33
-299256.48
-298821.76
-297597.45
-297259.51
-294563.43
-294092.71
-293320.34
-291640.16
-290833.21
-293059.65
-292780.43
-295109.24
-295885.58
-295896.1
-296558.23
-296879.32
-296675.78
-295686.56
-295835.66
-294707.72
-292658.26
-294575.5
-288417.52
-288360.95
-289792.64
-289666.77
-290960.31
-291450.19
-292169.8
-291527.36
-291585.4
-291070.25
-290020.76
-289502.11
-288003.01
-287328.15
-286976.04
-284667.48
-284857.18
-286770.94
-287372.33
-287959.96
-288267.84
-287910.18
-289184.52
-288773.56
-289071.56
-287190.96
-288264.77
-286405.44
-287842.93
-286663.74
-282524.33
-282129.74
-283448.7
-283113.49
-284706.71
-284934.76
-286252.73
-285068.35
-285832.07
-284850.66
-283660.25
-284460.53
-282208.88
-283018.19
-281773.79
-280127.88
-279662.81
-281272.43
-281217.25
-281796.86
-281875.6
-282844.04
-283366.92
-282729.31
-282845.58
-282247.6
-282610.92
-280926.51
-281499.68
-280225.92
-276265.28
-277610.05
-278287.6
-278744.31
-279778.75
-279678.47
-280575.93
-280080.17
-280625.47
-280027.09
-279406.71
-280164.39
-278233.3
-277847.41
-278596.95
-275750.02
-274687.81
-276315.42
-276689.67
-277480.02
-277992.19
-278589.28
-278474.73
-277912.21
-278861.74
-277165.72
-277371.01
-275810.5
-277195.08
-276207.3
-272278.87
-273018.58
-274114.35
-275072.56
-275435.76
-276162.89
-276336.9
-276031.49
-276658.32
-276000.44
-274960.66
-276109.07
-274776.27
-274367.66
-273645.83
-270768.83
-271599.35
-272187.09
-272978.62
-273567.34
-273553.53
-274817.91
-274590.3
-274595.12
-274925.81
-273095.73
-274132.18
-272615.69
-272674.28
-272413.87
-269667.8
-268655.26
-270740.09
-270335.7
-271538.46
-272323.21
-272880.99
-272653.24
-272951.76
-272801.81
-272715.85
-272096.72
-270207.28
-271487.96
-269342.24
-266313.02
-267110.11
-267680.45
-269421.25
-269560.3
-271159.46
-270846.64
-271380.02
-271010.13
-271168.02
-269966.49
-271160.58
-268397.76
-268451.17
-269090.64
-265739.9
-264591.26
-266442.39
-266821.54
-268410.89
-268818.34
-268869.11
-269175.08
-269386.37
-268975.2
-268486.03
-268063.41
-267105.77
-267963.09
-265479.21
-261715.6
-263187.04
-264740.73
-265292.85
-265663.72
-266790.68
-266874.97
-267413.17
-267161.1
-267237.53
-266150.43
-266609.76
-264619.49
-263792.19
-264857.14
-261675.44
-259789.84
-261930.89
-263030.18
-264055.6
-264159.82
-264764.32
-264991.52
-264835.94
-264506.86
-263676.56
-264008.23
-262354.26
-262393.83
-262001
-257472.31
-257755.18
-259204.77
-260287.4
-260530.23
-262505.96
-261648.53
-262273.23
-261257.55
-262301.54
-261266.94
-261472.09
-259959.96
-259143.51
-259267.02
-255428.71
-254289.41
-256438.14
-257199.17
-257963.03
-258905.95
-258856.07
-259199.45
-258964.75
-259242.81
-258075.63
-258533.45
-256845.88
-256330.83
-256074.19
-251757.56
-251292.23
-252931.15
-253918.95
-254511.95
-255610.16
-255343.69
-255935.45
-255569.42
-255763.65
-254796.99
-254975.55
-253457.17
-252785.68
-252534.82
-248230.4
-247484.97
-249370.12
-250040.08
-250798.8
-251607.36
-251753.65
-252105.99
-251714.06
-251915.33
-250859.76
-251176.54
-249692.28
-249124.77
-249019.34
-243848.5
-243939.16
-245482.66
-246058.41
-246651.3
-247788.29
-247475.54
-248064.09
-247599.25
-248030.75
-246826.81
-247219.46
-245418.62
-245531.67
-244266.12
-239357.83
-239883.57
-240618.04
-242706.21
-241866.44
-243165.1
-243096.57
-243333.31
-243222.4
-243272.94
-242259.19
-242395.18
-241357.78
-240358.39
-241396.78
-236611.02
-234907.77
-236547.15
-237004.39
-238081.63
-238185.76
-238656.42
-238662.09
-238537
-238070.72
-237603.32
-238072.92
-236408.46
-236598.63
-235846.8
-231308.65
-230819.49
-231887.37
-232947.95
-232657.53
-233923.15
-233478.4
-234125.15
-233521.72
-233879.54
-232835.27
-233211.07
-231911.55
-231600.36
-231644.44
-227684.4
-225880.36
-227519.29
-227835.22
-228340.53
-228897.41
-228933.53
-229151.59
-228814.07
-229052.08
-228048.96
-228647.73
-226974.9
-227395.93
-226925.55
-222816.29
-221549.37
-222796.41
-223255.74
-223457.24
-224242.9
-224084.27
-224380.64
-224078.9
-224241.48
-223265.7
-223697.05
-222454.74
-222817.54
-222425.97
-218779.88
-216971.29
-218403.2
-218572.44
-218994.92
-219471.16
-219487.48
-219720.26
-219406.59
-219681.93
-218665.47
-219344.75
-217939.48
-218518
-218058.8
-214451.59
-212839.97
-214030.62
-214300.22
-214580.01
-215158.41
-215152.61
-215309.38
-215112.37
-215290.59
-214433.6
-215044.08
-213747.89
-214439.8