/*--------------------------------*- C++ -*----------------------------------*\
  =========                 |
  \\      /  F ield         | OpenFOAM: The Open Source CFD Toolbox
   \\    /   O peration     | Website:  https://openfoam.org
    \\  /    A nd           | Version:  6
     \\/     M anipulation  |
\*---------------------------------------------------------------------------*/
FoamFile
{
    version     2.0;
    format      ascii;
    class       pointVectorField;
    location    "0.42";
    object      u;
}
// * * * * * * * * * * * * * * * * * * * * * * * * * * * * * * * * * * * * * //

dimensions      [0 1 0 0 0 0 0];

internalField   nonuniform List<vector> 
625
(
(0 0 0)
(0 0 0)
(1.3795193 -0.01241676 0.0075341069)
(1.3234379 -0.34232844 0.0058472321)
(0 0 0)
(0 0 0)
(1.3250602 -0.34320236 0.0051007194)
(1.3811347 -0.013594129 0.0073240159)
(0 0 0)
(0 0 0)
(0 0 0)
(1.3649616 -0.095638692 0.0062893162)
(1.3506924 -0.17705196 0.0065776416)
(1.3372902 -0.25881494 0.0061391973)
(0.0029765691 0.012668451 0.011563225)
(0.011728309 0.025430244 0.012422846)
(0.027831711 0.038406835 0.012990757)
(0.05151068 0.050767708 0.013189924)
(0.080475035 0.061360082 0.013421201)
(0.11668643 0.071217079 0.013380595)
(0.15788417 0.079215522 0.013640236)
(0.20479763 0.085640021 0.013656107)
(0.25676606 0.09059682 0.013768348)
(0.31322143 0.093571651 0.01354842)
(0.37402201 0.095010519 0.013457123)
(0.43865595 0.094605638 0.0131928)
(0.50668059 0.092524241 0.012824799)
(0.57773931 0.088821378 0.012383282)
(0.65138267 0.083612972 0.011884035)
(0.72725463 0.076930188 0.011359911)
(0.80499755 0.069157161 0.010744916)
(0.88429862 0.059974869 0.010299057)
(0.96492622 0.050090188 0.0096506579)
(1.0464516 0.039165135 0.0092474359)
(1.1289666 0.027422266 0.0089002205)
(1.212014 0.01516746 0.008461873)
(1.2951159 0.0019681963 0.0084718832)
(-0.0020971505 -0.00969163 -0.014334774)
(0.0081420919 -0.021022777 -0.011403788)
(0.023609044 -0.034548969 -0.012563796)
(0.044624675 -0.047009279 -0.011327368)
(0.071472679 -0.059295483 -0.010504493)
(0.10508959 -0.073195333 -0.0094172766)
(0.14266652 -0.086081296 -0.0086743193)
(0.18634208 -0.099813998 -0.0073614919)
(0.23456404 -0.11407305 -0.0064986644)
(0.28737547 -0.12826326 -0.0053103933)
(0.34445453 -0.14310766 -0.0042816439)
(0.4054875 -0.1580947 -0.003162672)
(0.47005769 -0.17334022 -0.0021578002)
(0.53784447 -0.18876325 -0.0011516504)
(0.60851036 -0.20429027 -0.00022118508)
(0.68165145 -0.21988233 0.00062131104)
(0.75698879 -0.23549636 0.0014202143)
(0.83416706 -0.25108041 0.0020949442)
(0.91295293 -0.26661382 0.0027571687)
(0.99305216 -0.28208829 0.0032952061)
(1.0743525 -0.29745059 0.0038873689)
(1.1565238 -0.31262689 0.0043820975)
(1.2393968 -0.32757685 0.0049178902)
(0 0 0)
(0 0 0)
(0 0 0)
(0.001815239 -0.0063705927 0.0098694145)
(0.01010466 -0.02718255 0.012578789)
(0.025766969 -0.034423488 0.010744753)
(0.046436415 -0.048688805 0.010198224)
(0.074808899 -0.063339047 0.010917936)
(0.10727252 -0.074855282 0.0097753238)
(0.14546002 -0.088895424 0.010167751)
(0.18909564 -0.10281625 0.0098107401)
(0.23735149 -0.11678764 0.0097760543)
(0.29016998 -0.13116252 0.0096418458)
(0.34723759 -0.14567867 0.0093927047)
(0.40820218 -0.16058036 0.0091874617)
(0.47269507 -0.17558603 0.008900921)
(0.54041365 -0.19078861 0.0085781181)
(0.61094894 -0.20610173 0.0082574017)
(0.68397014 -0.22147394 0.0079176626)
(0.75915762 -0.23690148 0.0075909465)
(0.83620189 -0.25233531 0.0072883795)
(0.91481071 -0.26774409 0.0069897045)
(0.99484721 -0.28314561 0.0067143129)
(1.0759149 -0.29840778 0.0064384545)
(1.1581458 -0.31364918 0.0061485848)
(1.2409201 -0.32855809 0.0058446421)
(1.3391723 -0.2595022 0.0056188716)
(1.3519979 -0.17808263 0.0062820328)
(1.3665704 -0.097015287 0.0073362803)
(1.2970258 0.00073478395 0.0063325191)
(1.2134605 0.013828291 0.005867737)
(1.130522 0.026279931 0.0054178188)
(1.0482257 0.037988828 0.0049757775)
(0.96676656 0.0488064 0.0045707825)
(0.88638004 0.058692081 0.0041145494)
(0.80726392 0.067556291 0.0036415982)
(0.72971165 0.075207455 0.0030758275)
(0.65398336 0.08162127 0.0024413982)
(0.58045863 0.086596293 0.0016940454)
(0.50947363 0.090052517 0.00088517437)
(0.44148342 0.091963887 -6.1711747e-05)
(0.37681539 0.092106958 -0.0010344985)
(0.31598383 0.090814393 -0.0021683743)
(0.25921052 0.087622707 -0.0031063299)
(0.20757138 0.082480476 -0.0042916285)
(0.16023157 0.076573176 -0.0056156412)
(0.11844781 0.068513679 -0.006599123)
(0.082946303 0.058945423 -0.0078307039)
(0.052771445 0.048106627 -0.0085468941)
(0.028955793 0.037501927 -0.010618084)
(0.012134072 0.023772509 -0.010028894)
(0.0059278063 0.011223965 -0.0082741004)
(0 0 0)
(0 0 0)
(0 0 0)
(0 0 0)
(0 0 0)
(0 0 0)
(1.3236771 -0.34291615 0.0054503142)
(1.3242595 -0.3431623 0.0055570143)
(1.3244885 -0.34348762 0.0053342613)
(1.3803264 -0.012189367 0.0075456513)
(1.3807419 -0.012711896 0.0073945541)
(1.3811293 -0.012802641 0.0073247407)
(-0.0025515302 0.0073070938 0.0080579527)
(0.0064046328 0.014143325 0.0065832529)
(0.02243091 0.020931846 0.007299883)
(0.045281044 0.026783565 0.0073005591)
(0.07407719 0.0317831 0.0076703661)
(0.10976713 0.035785381 0.0079615899)
(0.15035576 0.038300821 0.0082369766)
(0.19667111 0.039864975 0.0085859272)
(0.24776713 0.039818445 0.0088104725)
(0.30369533 0.038443665 0.0089699016)
(0.36378427 0.035762846 0.0091428056)
(0.42771755 0.031597971 0.009169424)
(0.49512212 0.02617652 0.0091461086)
(0.56560269 0.019505483 0.0090589681)
(0.63872399 0.011624431 0.0089137959)
(0.71415059 0.0027790819 0.0086916449)
(0.79150668 -0.0071179986 0.0084918832)
(0.87047658 -0.01780105 0.0082587321)
(0.95082784 -0.029153773 0.0079621549)
(1.0322063 -0.041362628 0.0078617708)
(1.1146078 -0.054082124 0.0074727084)
(1.1975575 -0.067198672 0.0073528655)
(1.2810578 -0.081454909 0.0070875329)
(-0.0048919596 0.0015315431 0.00047537447)
(0.0051207725 0.0016529541 -0.00020458899)
(0.020315334 0.0025555831 0.0003302876)
(0.042606112 0.0025650969 0.001058413)
(0.071359597 0.0014426048 0.0014177972)
(0.10580264 -0.00012479679 0.0020013672)
(0.14580323 -0.0026544949 0.0025346995)
(0.19133959 -0.0062790135 0.00312138)
(0.24159202 -0.010880829 0.0035918901)
(0.29665685 -0.016490322 0.0041368339)
(0.35583284 -0.023201387 0.0045543655)
(0.41897981 -0.030918871 0.0049497246)
(0.48559099 -0.039617003 0.0052921415)
(0.55532584 -0.049241514 0.0055683397)
(0.62775384 -0.059676007 0.005766143)
(0.70256586 -0.070867976 0.0059387963)
(0.77934103 -0.082710148 0.0060623334)
(0.85784479 -0.095053742 0.0061159399)
(0.93776585 -0.10797396 0.0062315679)
(1.0187985 -0.12120824 0.0062461595)
(1.1009396 -0.1347928 0.0063160107)
(1.1837284 -0.14877017 0.0064733407)
(1.2674055 -0.16286388 0.006522569)
(-0.005902789 -0.0045481942 -0.0049446594)
(0.0047504882 -0.009129623 -0.0052790072)
(0.019028535 -0.014266831 -0.0050830343)
(0.041614656 -0.020657752 -0.0046033432)
(0.069417228 -0.027758595 -0.0041239204)
(0.10323346 -0.034577561 -0.0033983074)
(0.14271758 -0.042894413 -0.0026755802)
(0.18719024 -0.051390444 -0.0019030743)
(0.23667337 -0.060692141 -0.0011541498)
(0.29075392 -0.070770316 -0.00036957628)
(0.34906696 -0.081484515 0.00034617213)
(0.41131859 -0.092903943 0.0010773763)
(0.47705811 -0.10495106 0.0017367653)
(0.54595967 -0.11752373 0.0023301087)
(0.61762991 -0.13062259 0.0028949597)
(0.69172795 -0.14409514 0.0033762261)
(0.76785655 -0.15790167 0.0037978059)
(0.84582565 -0.17200565 0.0041985351)
(0.92518123 -0.18626095 0.0045025757)
(1.0059281 -0.20069158 0.0048523275)
(1.0876187 -0.21527163 0.0050891253)
(1.170278 -0.22977222 0.0053898684)
(1.2536078 -0.24429453 0.0057043029)
(0 0 0)
(0 0 0)
(0 0 0)
(0 0 0)
(0 0 0)
(0 0 0)
(0 0 0)
(0 0 0)
(0 0 0)
(0.0036180403 -0.0041726827 -0.0062959581)
(0.0053060896 -0.005611706 -0.0012377405)
(0.0048000362 -0.0039084481 0.0032190455)
(0.015346086 -0.024632511 -0.0057932707)
(0.015377184 -0.025003627 -0.00037154337)
(0.014835386 -0.02397947 0.006457062)
(0.028456807 -0.034345047 -0.0064721693)
(0.030182435 -0.033851746 -0.0010253)
(0.03038272 -0.036149268 0.0058082085)
(0.049617804 -0.047938901 -0.0053657448)
(0.051591784 -0.04924305 -0.00012337998)
(0.050457358 -0.048355131 0.0055058414)
(0.077119981 -0.061491076 -0.0050267504)
(0.078402935 -0.061684717 -0.00036017477)
(0.078368171 -0.062906157 0.0057465513)
(0.1092393 -0.074379737 -0.0043974167)
(0.11111991 -0.074975812 0.00076054293)
(0.11063285 -0.075206915 0.005665648)
(0.14734929 -0.08777737 -0.0035010929)
(0.1491195 -0.088959774 0.00047375649)
(0.14890357 -0.089348338 0.0060934087)
(0.19070947 -0.10188202 -0.0028622745)
(0.19208874 -0.1019903 0.001392484)
(0.19199074 -0.10278046 0.0059845624)
(0.23855674 -0.11562872 -0.0020482087)
(0.24007828 -0.11661996 0.0017010661)
(0.23996816 -0.11699979 0.0062242532)
(0.29115921 -0.13020925 -0.0013301369)
(0.29260165 -0.1308272 0.0022614955)
(0.29258877 -0.13133825 0.0063308535)
(0.34794321 -0.14482091 -0.00054442957)
(0.3493339 -0.14553287 0.0026981063)
(0.34931065 -0.14593387 0.0064245187)
(0.40867682 -0.15981295 0.0001917634)
(0.40995709 -0.1604093 0.0031184037)
(0.41004546 -0.16080436 0.0064929114)
(0.47293653 -0.1749232 0.00087680661)
(0.47417555 -0.17548847 0.0035010786)
(0.47427983 -0.17586571 0.0065144286)
(0.54045407 -0.1902476 0.0015285454)
(0.54158209 -0.19074507 0.0038369788)
(0.54173527 -0.19106545 0.006481344)
(0.61080898 -0.20563944 0.002123879)
(0.61185636 -0.20607557 0.0041243632)
(0.61205368 -0.20636991 0.0064348439)
(0.68369356 -0.22110644 0.0026484415)
(0.68465654 -0.22148437 0.0043685191)
(0.68486733 -0.22174002 0.0063637871)
(0.7587569 -0.23657448 0.0031377927)
(0.7596165 -0.23689773 0.0045839807)
(0.75986602 -0.23713603 0.0062679687)
(0.83571225 -0.25205217 0.003545195)
(0.8365084 -0.2523455 0.004745676)
(0.83676399 -0.25254592 0.0061904757)
(0.91426242 -0.26747091 0.0039370364)
(0.91495437 -0.26770221 0.0049254541)
(0.91521781 -0.26792049 0.0060877301)
(0.99419251 -0.28284455 0.0042660384)
(0.99483034 -0.28310257 0.0050364349)
(0.9951132 -0.28329226 0.0059971594)
(1.0752286 -0.29814466 0.004599146)
(1.0757682 -0.29830743 0.0051787857)
(1.0760707 -0.29852073 0.0059026675)
(1.1572728 -0.31325247 0.0049016132)
(1.1577997 -0.31348526 0.0053151987)
(1.1581206 -0.31376142 0.005769956)
(1.2399855 -0.32827888 0.0052054155)
(1.2403936 -0.3284158 0.0053426587)
(1.2408312 -0.32859297 0.0056116892)
(1.3658598 -0.095565681 0.006901557)
(1.3663282 -0.095858525 0.0069274997)
(1.3665818 -0.096146288 0.0070910333)
(1.3511708 -0.17719743 0.0066866503)
(1.3516902 -0.17766292 0.0064919871)
(1.3518337 -0.17779178 0.006380934)
(1.3377874 -0.25930615 0.0059020652)
(1.3383548 -0.25951554 0.0059223287)
(1.3386091 -0.25965394 0.0058117751)
(0.0086705603 0.0099410428 0.0056426101)
(0.0086360291 0.011272337 0.0018580503)
(0.0092734811 0.01086157 -0.0026756625)
(0.016222001 0.023948604 0.0067942136)
(0.017652284 0.024077214 0.00042674385)
(0.017287988 0.023171996 -0.0051441133)
(0.033725006 0.037863934 0.006927877)
(0.03389316 0.037360105 0.0021612939)
(0.033993998 0.037538174 -0.0049923276)
(0.055808812 0.049036512 0.0074283295)
(0.05726833 0.048845434 0.0020314109)
(0.056951329 0.048987045 -0.0039021287)
(0.085473226 0.060797382 0.0080541655)
(0.087153737 0.060129215 0.0025588865)
(0.086651722 0.059719635 -0.0028080682)
(0.12133867 0.069823706 0.0080871374)
(0.12224709 0.069026091 0.0037087854)
(0.12243543 0.06885507 -0.0021256986)
(0.16236813 0.077799689 0.0086782686)
(0.16382031 0.0772451 0.004080975)
(0.16380792 0.076805467 -0.0012083459)
(0.2092345 0.084336547 0.008996494)
(0.21049207 0.08370397 0.0046607463)
(0.21033788 0.083400722 -0.00018563026)
(0.26065366 0.089455385 0.0093946811)
(0.26211943 0.088252965 0.0053154621)
(0.26233813 0.087899704 0.00071137563)
(0.31724039 0.092270661 0.0095210894)
(0.31838601 0.091654148 0.0059218439)
(0.31862039 0.090951887 0.0014592885)
(0.37771582 0.09371997 0.0097345309)
(0.37887451 0.093019872 0.0062313723)
(0.37913177 0.092489463 0.0022664152)
(0.44206777 0.093467016 0.0097897172)
(0.44322375 0.092744344 0.0066316764)
(0.44353208 0.092206835 0.0030005023)
(0.50983736 0.09151451 0.0097654389)
(0.51093889 0.09079587 0.0069179384)
(0.5112478 0.090293645 0.003618704)
(0.58061524 0.087940439 0.0096512686)
(0.58163424 0.087262914 0.0071185785)
(0.58195913 0.086785109 0.0041476504)
(0.6539786 0.082856702 0.0094851732)
(0.65491068 0.082216867 0.0072256848)
(0.65526155 0.081773293 0.0046100371)
(0.72956386 0.076331158 0.0092145342)
(0.73043137 0.07575063 0.0072838561)
(0.73075316 0.075359931 0.0049615179)
(0.8070427 0.068605067 0.0089828254)
(0.80778952 0.06805172 0.0072765178)
(0.80814236 0.067655966 0.005276225)
(0.88608331 0.059581501 0.0086728539)
(0.88678104 0.05911219 0.0072157361)
(0.88707283 0.058831561 0.0055006874)
(0.96641015 0.049735488 0.0083679323)
(0.96700301 0.049286727 0.007226026)
(0.96732765 0.048964174 0.0057308731)
(1.0477897 0.038847426 0.0082608936)
(1.0483748 0.038469206 0.0070820479)
(1.0486703 0.038165251 0.0059334161)
(1.1301137 0.027176777 0.0079424108)
(1.1306279 0.026764015 0.0070943742)
(1.1308609 0.026553606 0.0061833556)
(1.2129387 0.014705072 0.0076396965)
(1.2133576 0.01462329 0.0071508887)
(1.2136745 0.014266084 0.0064439652)
(1.2964466 0.0019765225 0.007870948)
(1.2967719 0.0016135373 0.0072940036)
(1.2971581 0.0011954117 0.0069975482)
(-0.0010506772 0.003952991 -0.0053641868)
(0.008340752 0.015092982 -0.0056551381)
(0.023052228 0.018809747 -0.0041692285)
(0.047252039 0.024878624 -0.0041175282)
(0.076282142 0.029547548 -0.0031087053)
(0.11177464 0.03314968 -0.00237885)
(0.15288223 0.035687279 -0.0015531964)
(0.19914842 0.036992299 -0.00066408732)
(0.2505413 0.037051419 8.4844636e-05)
(0.3064008 0.035768109 0.00096763282)
(0.36650445 0.033179719 0.0015948086)
(0.43048057 0.029182503 0.0023517975)
(0.49784859 0.023966504 0.0029425559)
(0.56824265 0.017499326 0.0034703519)
(0.6412659 0.0098591598 0.0039475333)
(0.71654121 0.0011580124 0.004329036)
(0.7937222 -0.0085020893 0.0046770648)
(0.87252842 -0.019070372 0.0049529305)
(0.95264005 -0.030408981 0.005234177)
(1.0339302 -0.042467803 0.005477342)
(1.1161007 -0.055214396 0.0057871049)
(1.1989548 -0.068499615 0.0061008294)
(1.2825762 -0.082679821 0.0066820734)
(-0.004451545 0.0018170884 0.0006719571)
(0.0053235939 0.0024506488 5.7870273e-05)
(0.021842125 0.0006287148 0.0010261547)
(0.044921254 0.00108349 0.0007068439)
(0.073376197 -0.00049702476 0.0011503802)
(0.10842607 -0.002532789 0.0017719692)
(0.14852138 -0.0051328803 0.0021413136)
(0.1941476 -0.0087887454 0.0026880282)
(0.2445767 -0.013495944 0.0032417985)
(0.29958405 -0.018941262 0.0036329058)
(0.35886114 -0.025587283 0.0040902404)
(0.42197903 -0.033180685 0.0044702877)
(0.48852114 -0.041671738 0.0047729504)
(0.5581769 -0.051106544 0.0050477283)
(0.63048341 -0.061343736 0.0052627695)
(0.70512459 -0.072341355 0.00541538)
(0.78175546 -0.083985085 0.0055651217)
(0.86006278 -0.096257446 0.0056335631)
(0.93980737 -0.10898817 0.0057654631)
(1.0207532 -0.12221283 0.0058115142)
(1.1027558 -0.13576717 0.0059078111)
(1.1854427 -0.14977632 0.0059882192)
(1.2694618 -0.16393823 0.0060970317)
(-0.0054968187 -0.0046869729 0.0046332832)
(0.0068773425 -0.0078048734 0.0048466354)
(0.021961901 -0.017626722 0.0068324468)
(0.043767242 -0.020798848 0.0053080582)
(0.072249176 -0.029700416 0.0064342505)
(0.10633292 -0.036875978 0.0063605469)
(0.14552294 -0.044829391 0.006397353)
(0.19036417 -0.053947568 0.0067896099)
(0.23973762 -0.063009848 0.0068093172)
(0.29391292 -0.07320679 0.0070273591)
(0.35214987 -0.083818298 0.0071197768)
(0.41434361 -0.095109303 0.007146509)
(0.47999815 -0.10699028 0.0071712706)
(0.5487935 -0.11940115 0.0071127911)
(0.62031789 -0.13229922 0.0070346637)
(0.69423927 -0.14558571 0.0069270653)
(0.77022249 -0.15925048 0.0067956079)
(0.84796175 -0.17318037 0.0066662912)
(0.92719966 -0.18735027 0.006552105)
(1.0077646 -0.20170739 0.0063921257)
(1.089296 -0.21614796 0.0063209216)
(1.1719867 -0.23071861 0.0060977242)
(1.25511 -0.24510351 0.0061142698)
(0.0013402766 0.0034536021 0.0036305463)
(0.0013583466 0.0038512525 0.0014479262)
(0.0027310864 0.0032788251 -0.002147131)
(0.011550961 0.01393333 0.0031898333)
(0.013284454 0.013879963 6.0970658e-06)
(0.011978988 0.013969484 -0.0033184618)
(0.027727811 0.019705138 0.0036802439)
(0.027993326 0.019306781 0.00092701694)
(0.02809188 0.018980523 -0.001954048)
(0.050036806 0.02602953 0.0040693075)
(0.051694365 0.025788558 0.0011384263)
(0.051213105 0.025124662 -0.0017182622)
(0.079326096 0.030745665 0.00422306)
(0.080594309 0.030196185 0.0018199238)
(0.080465659 0.029590505 -0.00091649871)
(0.11434073 0.034499633 0.004897792)
(0.11576073 0.034060122 0.0024071761)
(0.11533062 0.033367668 -0.00018331309)
(0.15491177 0.037165053 0.0053091154)
(0.15633997 0.036679559 0.0029287964)
(0.15629029 0.035930665 0.00057324678)
(0.20092397 0.038660112 0.0057555385)
(0.20240791 0.037829768 0.0036406552)
(0.20228213 0.037058601 0.0012195949)
(0.25190295 0.038456653 0.0062376243)
(0.25334372 0.037937946 0.0040989875)
(0.2533142 0.037285466 0.0020667596)
(0.30753443 0.037295958 0.0065675729)
(0.30894525 0.036580389 0.0046506328)
(0.308938 0.035812054 0.0026243336)
(0.36736381 0.034617084 0.0069152757)
(0.36867752 0.033869127 0.0051472098)
(0.36876164 0.03330699 0.0032669717)
(0.43103548 0.030550823 0.0071506354)
(0.43233262 0.029915444 0.0055086051)
(0.43248586 0.029277728 0.0038112072)
(0.49819602 0.025254037 0.0073194889)
(0.49940432 0.024590283 0.0058354796)
(0.49958149 0.0240394 0.0043100332)
(0.56839666 0.01865051 0.0074276106)
(0.56951262 0.018068901 0.0060828815)
(0.56973618 0.017552486 0.0046975287)
(0.64124452 0.010921731 0.0074519233)
(0.64227863 0.010377054 0.0062564658)
(0.64253035 0.0099202241 0.0050389986)
(0.71641343 0.0021339799 0.0074289867)
(0.71733864 0.0016390004 0.0063822902)
(0.71759709 0.0012209758 0.005293905)
(0.79347525 -0.0076397031 0.0073727588)
(0.79431594 -0.008061031 0.0064346502)
(0.79460764 -0.0084486433 0.0055185832)
(0.872232 -0.018250754 0.0072714719)
(0.8729861 -0.018652163 0.0064963373)
(0.87322352 -0.018960232 0.0056737431)
(0.95230744 -0.029553272 0.0071718709)
(0.95292349 -0.029886674 0.006481147)
(0.95324464 -0.030279247 0.0058465922)
(1.0334374 -0.041686451 0.00714086)
(1.0341108 -0.042032398 0.0065730604)
(1.0343316 -0.042315409 0.0059540247)
(1.1155612 -0.054345863 0.0068679597)
(1.1162693 -0.054578919 0.006622266)
(1.1163984 -0.054873524 0.0061555613)
(1.1984248 -0.067520461 0.0069578495)
(1.1988669 -0.067693676 0.0067350513)
(1.1990894 -0.068138379 0.0063097473)
(1.2818065 -0.081396615 0.0069197417)
(1.2821267 -0.081786269 0.006766964)
(1.2824754 -0.082091477 0.0066613915)
(-0.0018762192 0.0009742427 -0.00013565525)
(-0.00089066191 0.0012983938 -0.00057999826)
(4.8190107e-05 0.0015130727 1.569164e-05)
(0.0092016853 0.0017174182 -0.0010768645)
(0.010441542 0.0021435437 -0.00068638623)
(0.0090895272 0.0016560939 -0.00060167006)
(0.025192129 0.0020511893 -0.00019623569)
(0.026119643 0.001534633 0.00063221508)
(0.025996343 0.0014121147 0.00042052583)
(0.04705001 0.0014061645 4.5165934e-05)
(0.049475484 0.00093754576 0.00062862129)
(0.04834845 0.00018418425 0.00051487872)
(0.075994785 0.00064357422 0.00077068699)
(0.077679822 -0.00019590435 0.0016493348)
(0.07680716 -0.00029010025 0.00082127863)
(0.11017511 -0.0012798025 0.001347031)
(0.11207426 -0.0020852936 0.0017831514)
(0.11138776 -0.0025728315 0.0015549701)
(0.15012568 -0.0038139641 0.0018165571)
(0.15193799 -0.0048565677 0.0025709703)
(0.15138675 -0.0053752491 0.0019148552)
(0.1954279 -0.0075989876 0.0025554682)
(0.19721029 -0.008482149 0.0030434392)
(0.19656293 -0.0087607572 0.0025627659)
(0.24549754 -0.012062541 0.0030183188)
(0.24718093 -0.013090529 0.0035091439)
(0.24685405 -0.013625608 0.0030468396)
(0.30032341 -0.017743146 0.003607424)
(0.30195708 -0.018731954 0.0040776472)
(0.30161044 -0.019091436 0.0036168211)
(0.35930184 -0.02442109 0.0040907744)
(0.36080858 -0.02531898 0.0044861371)
(0.36060437 -0.025756935 0.0040069346)
(0.42218503 -0.032060798 0.0045021872)
(0.42363869 -0.032951224 0.0048701005)
(0.42349487 -0.033321529 0.0044396363)
(0.48854066 -0.040666697 0.0048917774)
(0.48989661 -0.041518772 0.0052099026)
(0.48980228 -0.041869198 0.0047732363)
(0.55799882 -0.050203449 0.0051829102)
(0.55925044 -0.050988926 0.0054579963)
(0.55922866 -0.051271083 0.0050527926)
(0.63017539 -0.060512285 0.0054297198)
(0.63131408 -0.061241571 0.005672908)
(0.63134581 -0.061521171 0.0052864151)
(0.70470641 -0.071615692 0.005612071)
(0.70574392 -0.07227891 0.0058156424)
(0.70581073 -0.072504591 0.0054465081)
(0.78123977 -0.083322795 0.0057623167)
(0.78216704 -0.083928538 0.0059379902)
(0.7822605 -0.084143083 0.0055999942)
(0.85950963 -0.095617715 0.0058538172)
(0.86032364 -0.09619277 0.0060121404)
(0.86045639 -0.096360578 0.0056748317)
(0.93916491 -0.10840618 0.0059775221)
(0.93991416 -0.10889126 0.0060701139)
(0.94003712 -0.10911156 0.0058174263)
(1.0200818 -0.12159608 0.0059859447)
(1.0206809 -0.12221157 0.006165629)
(1.0208531 -0.12228588 0.0058521574)
(1.1020711 -0.13510098 0.0062635011)
(1.1024417 -0.13560834 0.006102033)
(1.102766 -0.13575716 0.0059949559)
(1.1845594 -0.14916177 0.0062556694)
(1.1850498 -0.14940888 0.00633535)
(1.1851942 -0.14972194 0.0060277864)
(1.26807 -0.16308463 0.0063919125)
(1.2686944 -0.16355918 0.0063336627)
(1.2689979 -0.16365036 0.0062411317)
(-0.0016000027 -0.0032822185 -0.0021301582)
(-0.0017826309 -0.0028736564 4.652219e-06)
(-0.0018032131 -0.0027701672 0.0021601862)
(0.010560628 -0.0087903023 -0.0027730665)
(0.011807679 -0.0071206257 0.00022740252)
(0.010670081 -0.0081163159 0.0027295521)
(0.024647179 -0.014987804 -0.0024271266)
(0.026042224 -0.01679845 0.00055139929)
(0.026013397 -0.016896444 0.0036402886)
(0.047327208 -0.022169437 -0.0021510623)
(0.048325985 -0.021423597 0.00076618163)
(0.04815041 -0.022066158 0.0031580631)
(0.074744429 -0.028551514 -0.0015212108)
(0.076120789 -0.029530262 0.0011146322)
(0.076037233 -0.029823331 0.0035384162)
(0.10847247 -0.036288791 -0.0011723681)
(0.1097984 -0.036836887 0.0014325575)
(0.10967258 -0.037391701 0.003683248)
(0.14762302 -0.04448306 -0.00045946752)
(0.14887133 -0.044985534 0.0021111306)
(0.14890694 -0.045290525 0.0040472785)
(0.19188728 -0.052967078 0.00018515535)
(0.19309651 -0.053699512 0.002269392)
(0.19323631 -0.054369689 0.0043392221)
(0.24108382 -0.062431574 0.00074530558)
(0.24230871 -0.063118407 0.0029421154)
(0.24245445 -0.063509834 0.0047921818)
(0.29488462 -0.072484492 0.0014420483)
(0.29605852 -0.073131274 0.0033364371)
(0.29624574 -0.073624112 0.0049941274)
(0.35288142 -0.083140269 0.0019890916)
(0.35401864 -0.083848467 0.003749358)
(0.35428418 -0.084284799 0.0053092148)
(0.41482336 -0.094523147 0.0025656489)
(0.41589764 -0.095176125 0.0041467247)
(0.41617988 -0.095578586 0.0055135712)
(0.48023786 -0.10645705 0.0030712652)
(0.48124452 -0.10709079 0.0044640787)
(0.48158371 -0.10744831 0.0056934137)
(0.54882984 -0.11894541 0.003511847)
(0.5497747 -0.11951736 0.0047430135)
(0.55012448 -0.11983699 0.0058184337)
(0.62018778 -0.1319013 0.0039203253)
(0.62104333 -0.13241832 0.0049734284)
(0.62143621 -0.1327118 0.0059018699)
(0.69397378 -0.1452485 0.0042507866)
(0.69477428 -0.14573289 0.0051626714)
(0.69516022 -0.14597907 0.0059429529)
(0.76984489 -0.15894333 0.0045472673)
(0.77053349 -0.15935513 0.0053014232)
(0.77095402 -0.15957225 0.0059667121)
(0.84751263 -0.17289957 0.0047968229)
(0.84816875 -0.17328191 0.005433359)
(0.84858353 -0.17349386 0.0059575379)
(0.92666463 -0.18708452 0.0050003189)
(0.92720955 -0.18742911 0.0055100324)
(0.92760848 -0.18757827 0.0059573758)
(1.0071519 -0.20140577 0.0052376426)
(1.0076794 -0.20171559 0.0056207287)
(1.0081256 -0.20189811 0.0059352818)
(1.0886137 -0.21587441 0.0053281752)
(1.0890423 -0.21613303 0.0056483682)
(1.0894437 -0.21627774 0.0059154045)
(1.1711145 -0.23036953 0.0055574965)
(1.1715306 -0.2306447 0.0058237269)
(1.1720288 -0.2307994 0.0059343285)
(1.2541471 -0.24490058 0.0057328314)
(1.2545175 -0.24494958 0.005827674)
(1.2549543 -0.24529626 0.0058000958)
)
;

boundaryField
{
    free
    {
        type            calculated;
    }
    fixed
    {
        type            calculated;
    }
    traction
    {
        type            calculated;
    }
}


// ************************************************************************* //
