/*--------------------------------*- C++ -*----------------------------------*\
  =========                 |
  \\      /  F ield         | OpenFOAM: The Open Source CFD Toolbox
   \\    /   O peration     | Website:  https://openfoam.org
    \\  /    A nd           | Version:  6
     \\/     M anipulation  |
\*---------------------------------------------------------------------------*/
FoamFile
{
    version     2.0;
    format      ascii;
    class       pointScalarField;
    location    "0.45";
    object      E;
}
// * * * * * * * * * * * * * * * * * * * * * * * * * * * * * * * * * * * * * //

dimensions      [1 -1 -2 0 0 0 0];

internalField   nonuniform List<scalar> 
625
(
12867.872
13709.259
-466258.78
-224120.84
13979.106
12277.53
-351533.2
-724144.98
3219.7782
2579.8029
9358.8008
-252997.53
-260750.81
-180760.09
17683.907
16205.23
16374.365
16733.524
16656.403
17340.29
17596.605
17321.909
16697.62
14622.815
11370.698
6291.1874
9.6640518
-7156.0522
-14537.85
-21461.387
-26382.592
-30037.029
-28661.496
-25811.93
-19200.604
-10285.614
5490.6736
18444.803
12717.943
13444.422
10748.802
7888.6854
5824.2609
2739.8691
1019.616
-474.32071
-642.57829
643.29292
3415.5
8190.4444
14529.032
22422.374
30605.799
39140.716
45750.881
50936.379
52433.528
49392.983
45438.6
30054.628
3327.8897
1717.5083
7267.7109
22861.092
25062.168
15047.079
16534.12
13916.645
8291.0718
8058.2006
5477.1742
5327.3446
5701.7495
7068.6805
10168.739
13942.013
18744.848
23894.527
29154.084
34144.345
38154.642
40465.511
41174.387
38718.931
34378.118
24987.592
-524816.55
-560959.99
-529343.38
8815.5149
-854.69366
-7454.975
-13140.035
-16974.629
-17842.105
-17583.381
-14558.303
-10785.241
-5712.8578
-644.10199
4424.7384
8691.7881
12220.835
14315.656
15966.421
16886.691
16340.605
18030.151
17071.017
19112.807
17144.644
19763.046
11079.644
11430.448
11856.122
10062.089
9667.097
9867.1748
-256403.68
-256164.87
-258113.16
-528764.74
-530273.33
-532860.11
6800.6965
5393.8589
6011.3907
5237.7044
4197.2542
3119.6695
1438.0021
-52.396513
-1119.9211
-1726.4352
-1009.0881
1013.0652
4824.0584
10054.824
16330.899
23011.119
29328.315
34453.087
38327.152
38284.89
38091.177
34122.124
23429.5
2999.6879
1465.5269
1553.01
400.17414
244.54404
110.90085
-141.20785
532.10011
824.07779
2032.3073
3362.6379
5175.5475
7324.2829
9791.0583
12356.437
14894.166
17278.281
18495.493
20146.62
18182.569
18867.748
15871.562
14147.995
8198.6876
7483.0844
8188.9472
8324.0765
9000.4794
9563.442
9879.2407
9914.0832
9339.9858
8269.5404
5966.6332
2902.3387
-1301.1886
-6448.771
-12303.199
-18192.871
-24030.514
-27583.387
-30422.308
-27478.996
-21436.586
-11262.28
6567.7499
1891.0895
2086.8469
2160.7172
1435.5612
1149.5201
1816.4368
4542.9575
4730.8081
4914.9709
20048.911
19998.207
20909.12
22397.135
20777.847
20029.681
15480.63
13743.606
14766.559
14055.685
14769.381
13522.056
11390.071
9720.5644
11056.17
8122.7665
8471.0766
7742.9213
6368.0985
5522.5553
7042.923
4453.6469
3320.5694
3674.8908
3122.2279
2546.5038
2698.4069
3273.2695
2239.7442
2982.061
4458.6615
3907.8241
4487.6287
7725.7551
6670.0998
7786.3089
12265.074
11040.115
12596.571
18583.989
16698.147
18721.066
25893.844
23297.437
25862.076
33806.392
30307.963
33387.727
41249.568
37050.907
40599.696
47617.126
42910.786
46638.844
51564.145
46526.083
50385.508
52128.992
47374.022
51157.429
49221.656
45386.547
48779.338
43049.098
41144.447
43582.204
30388.771
28137.844
31852.674
-344899.87
-344645.27
-344733.81
-314553.73
-348478.42
-349814.95
-365567.66
-335759.48
-336239.89
18013.696
16178.086
16390.739
18000.786
17418.214
18273.797
18727.765
17376.631
17265.294
17573.678
16501.719
17146.293
17875.475
17675.921
17472.986
18431.025
16741.719
17106.371
18350.129
17607.662
17528.081
18533.999
17178.679
17314.065
17061.62
16521.73
15930.959
14781.287
14639.184
14050.477
11730.106
11325.167
10862.938
6652.5104
6759.7265
6231.9083
617.13032
1187.858
770.3886
-6022.2808
-5166.0097
-5362.464
-12856.063
-11595.634
-11371.213
-18619.174
-17385.206
-16897.647
-23350.285
-22140.993
-20779.305
-25393.633
-24144.586
-23050.806
-25247.272
-25073.986
-22542.84
-21256.68
-22223.636
-19309.324
-14118.457
-16059.626
-13257.672
-8329.0496
-7253.1138
-6054.061
7114.5706
7097.8846
7984.4356
11445.598
10629.749
9825.0587
8597.1747
7855.9526
5756.0557
4876.5705
3497.4555
2419.8043
3266.1091
4659.9506
7290.9325
11527.618
16642.044
22399.299
28078.756
32967.949
36654.46
38032.751
37803.102
34918.543
30565.669
27135.352
1577.1026
5088.7354
1866.1436
4658.1152
4557.7426
5753.2704
6968.6489
7517.1111
8283.7185
7932.4968
7491.2146
6516.4432
5192.4252
3514.2542
1377.1621
-981.5515
-3306.7564
-5457.122
-6746.804
-6584.9442
-5625.7185
-1369.038
6295.1956
9854.1262
5799.1524
8360.0298
7440.7453
8423.8082
8285.8582
8443.8971
8685.877
7397.3439
6070.9698
3428.5168
-318.63375
-5043.8388
-10535.707
-16318.065
-21785.183
-26075.88
-28693.004
-28202.051
-24334.471
-16901.51
-3796.721
10722.952
8945.859
8108.8702
8412.5162
8553.0648
8666.2811
8538.3345
8230.7589
8314.7119
8089.9815
6836.5918
6791.0166
6887.7246
5771.8717
6133.6585
6014.5171
4323.4983
4315.2439
4062.1079
2541.2109
2827.5478
2614.5888
1101.1931
1493.3676
1074.1696
65.21227
397.93254
16.270213
19.587841
145.30805
10.677483
1286.7733
1415.8867
1318.7393
3801.969
4055.8191
4034.1433
8068.9013
8206.9555
8454.8752
13554.862
13693.961
14164.946
20003.605
20209.858
20803.509
26667.026
26942.504
27511.246
32755.349
33211.89
33833.741
37825.631
38440.151
38485.306
40548.908
40623.958
41514.091
39696.657
42519.465
41773.693
38695.738
39512.14
39494.793
33983.482
35252.61
35773.573
25721.11
25929.37
27340.763
2100.8821
1839.4028
1495.0047
3022.45
4360.5007
4278.6365
1650.0466
957.27348
921.2881
1545.3459
2625.7166
2776.3441
2138.5121
1981.3132
2107.7908
2209.5171
2437.1506
2757.8436
2697.4981
3092.0748
3604.8825
3462.74
3655.0825
4082.0181
3933.5298
4155.1198
4956.5713
4631.2264
4881.2337
5511.9921
5174.2342
5391.2408
5860.3978
5890.5646
5947.6677
6115.9062
6518.3244
6550.31
6200.4798
7132.3474
7080.9406
6280.4134
7568.9309
7463.8088
6123.8809
7842.2928
7544.9227
5969.1595
7781.4765
7378.0425
5489.364
7501.5818
6568.3655
5238.3889
7103.4976
6221.872
4713.507
5613.6658
6565.8995
4733.4495
4124.9646
9730.012
6276.5941
6392.7771
5928.4494
6297.149
8561.3221
7056.8806
7227.844
8388.7929
8482.1344
9161.647
6944.6975
7147.4604
8505.3136
7754.6336
9166.6597
9465.9449
8078.8067
7883.6189
8604.8796
8078.4963
8740.9672
9201.5074
8281.4907
8801.2347
9345.6259
8788.9767
8828.6538
9007.7744
8266.4474
8867.9288
9293.6711
7827.8374
8392.2167
8431.3784
6387.8685
7035.835
6844.9613
4168.6868
4674.5322
4462.2535
888.52578
1310.7026
1033.0912
-3507.1075
-3084.0735
-3308.8573
-8642.9519
-8284.6948
-8581.2737
-14354.471
-14024.164
-14163.408
-20113.953
-19389.375
-19741.113
-24981.49
-24302.334
-24501.695
-28477.461
-27083.005
-27187.085
-29421.214
-27202.106
-27822.898
-25553.008
-24737.814
-24333.328
-20962.67
-17566.065
-18118.104
-8521.9738
-6280.1982
-5785.1361
7517.1166
9369.1227
9648.6369
)
;

boundaryField
{
    free
    {
        type            zeroGradient;
    }
    fixed
    {
        type            zeroGradient;
    }
    traction
    {
        type            zeroGradient;
    }
}


// ************************************************************************* //
