/*--------------------------------*- C++ -*----------------------------------*\
  =========                 |
  \\      /  F ield         | OpenFOAM: The Open Source CFD Toolbox
   \\    /   O peration     | Website:  https://openfoam.org
    \\  /    A nd           | Version:  6
     \\/     M anipulation  |
\*---------------------------------------------------------------------------*/
FoamFile
{
    version     2.0;
    format      ascii;
    class       pointScalarField;
    location    "1.9";
    object      p;
}
// * * * * * * * * * * * * * * * * * * * * * * * * * * * * * * * * * * * * * //

dimensions      [1 -1 -2 0 0 0 0];

internalField   nonuniform List<scalar> 
625
(
-152882.06
111868.89
5079.4222
6757.0759
-83790.232
420496.78
5676.8135
-566.48554
-89905.258
-43314.697
-29955.703
-16564.233
1189.6265
4505.2714
-45164.007
-46539.387
-28374.911
-16151.129
-703.98884
11495.716
25520.411
37502.489
48096.112
55829.528
63954.2
69646.355
73048.349
75187.105
74952.201
73876.796
68443.752
65718.609
57801.188
49218.601
40891.144
27344.256
18270.104
29462.667
5373.7669
4159.8033
-11278.002
-22276.319
-28518.823
-39703.828
-44610.784
-53442.515
-57630.66
-62042.062
-65515.187
-67197.936
-67283.974
-66673.852
-64496.381
-60716.284
-56348.058
-50009.845
-43478.402
-34937.432
-24876.184
-12261.768
-6061.451
74538.605
66580.549
62995.361
64801.372
21223.333
13633.745
864.02923
-22279.106
-26708.144
-46397.667
-56349.426
-66449.041
-74183.983
-81246.682
-84152.872
-86747.419
-85933.549
-83563.644
-78986.151
-72239.184
-63527.636
-53807.817
-41006.845
-29428.431
-13279.411
4720.0623
647.1482
-8674.1394
24523.278
29985.429
37839.48
47833.619
57743.09
64105.266
69938.238
74603.235
76936.031
78438.46
77825.363
76106.573
72676.417
66633.065
59064.427
56727.875
43249.005
37571.517
24592.868
15266.963
918.697
1301.0782
-22652.787
-147255.39
-119125.51
-107400.53
173143.38
214349.03
211447.73
15667.708
15399.334
17940.298
-7877.186
-759.3177
-4801.2768
-32481.04
-28036.392
-19365.317
-9313.9143
-1359.2493
9130.6672
17411.581
24521.02
30764.944
37642.484
42104.353
45342.227
47570.525
48348.602
48333.112
45942.262
43695.355
39978.169
33962.273
30790.468
22944.761
12718.639
8439.7552
-13732.737
-15904.614
-13426.155
-14383.193
-12275.612
-12215.311
-11779.539
-10792.012
-9821.6482
-9052.9005
-8844.775
-7815.5796
-7247.2018
-6397.0274
-6182.9009
-5399.1622
-4867.4197
-4653.1976
-4077.7257
-3243.1735
-3806.5657
70.211356
1643.241
3749.3765
-6636.1059
-11795.535
-16322.15
-18816.502
-26198.074
-29807.126
-33343.006
-36237.6
-38554.394
-40403.294
-41084.405
-41265.271
-41189.95
-39644.922
-37776.13
-35445.832
-31534.11
-28136.556
-22701.314
-17326.107
-12903.724
-3966.5175
-68054.199
-41486.869
-33691.581
-19622.819
-2149.6056
20701.266
-13310.884
14590.273
43463.299
58498.314
65333.793
77927.109
30001.552
41854.034
44117.533
6437.9712
13592.47
20560.287
-11117.833
-1582.6929
490.46268
-19094.083
-11005.409
-5768.7933
-30413.059
-25937.393
-24557.646
-40672.427
-36077.7
-34402.845
-50680.053
-44651.44
-46933.411
-57559.325
-54068.293
-56568.832
-64201.501
-61767.39
-65319.846
-69470.034
-67336.887
-71227.828
-72840.679
-71483.23
-76291.813
-74755.871
-73871.534
-79073.236
-75056.539
-74691.885
-80026.637
-74152.644
-73696.098
-79281.331
-71129.117
-71226.616
-76346.705
-67127.104
-66672.281
-71943.041
-61113.736
-61419.987
-65923.533
-54507.381
-53803.114
-57534.917
-45852.748
-45413.695
-48965.351
-35201.751
-34938.289
-37590.043
-25926.625
-27434.657
-28120.137
-17453.051
-14339.461
-16805.578
-21664.997
-22868.925
-23931.806
188.15298
-150.40875
1802.8783
8016.2955
9267.9436
7852.3591
-50861.684
-36368.33
-30528.092
-39778.041
-31671.881
-24137.389
-22401.236
-13505.387
-4540.0687
-5358.015
-704.40068
7161.8984
5894.1976
7661.6683
18154.135
23432.793
22742.535
31131.968
36313.285
31514.904
41116.686
48212.358
40754.5
48503.358
56876.031
50505.589
60110.639
67955.005
56439.59
66028.322
75100.792
62330.769
71445.469
80373.32
66761.382
75578.432
83571.541
69654.995
77771.328
84955.315
70979.156
78329.155
84411.745
70518.104
77488.76
81301.279
68741.982
74698.591
76902.498
65218.033
70800.357
70891.288
60429.395
64890.3
61329.42
53491.472
57420.667
53462.466
44489.34
50268.93
43162.656
36985.73
40298.863
30624.094
29389.602
29106.877
27457.461
28118.571
29564.029
13716.703
7296.8434
7857.9654
11549.586
18352.34
20348.243
26704.368
30136.092
32742.512
36382.645
38325.842
39630.934
40370.978
40770.011
39700.158
38819.868
36127.917
33874.411
30127.513
24937.084
20075.425
12450.467
2202.8506
25698.098
17179.766
9362.4686
9158.0413
6948.582
6855.463
6451.4853
5046.4488
5043.1759
4908.1203
4433.7767
4223.0115
4329.4663
3995.945
4223.2743
4434.077
4461.7654
5570.6135
4899.4887
5855.4763
6891.1694
5692.6064
4736.4148
36539.482
33472.291
32353.855
15974.476
10517.514
823.323
-11822.762
-15637.961
-24875.423
-31347.175
-36958.048
-40967.787
-44539.342
-46064.739
-46944.912
-46092.687
-44059.575
-40908.41
-37054.562
-30627.128
-25187.487
-16183.51
-13094.324
-43772.889
-29244.65
-15009.896
-21029.07
-13680.646
-2705.1751
-11379.626
-4646.2213
5799.0302
-5781.7184
1387.8853
7190.0341
4404.3775
12018.305
18265.721
9538.1434
17851.252
21520.647
16536.055
23361.731
25181.602
20714.327
30382.779
32857.027
28860.74
34766.103
35134.648
30384.341
39207.992
37737.974
34427.735
42459.497
40585.059
36553.269
44734.282
41955.89
38565.297
45702.621
42711.559
39000.472
45961.24
42750.524
38675.173
45030.104
41909.861
37130.003
43523.903
40090.048
35717.355
40729.297
37859.309
31972.114
37229.94
33934.937
28010.44
31834.366
30555.887
23074.382
30217.197
26201.37
16631.16
20911.506
17704.968
13339.262
12496.505
15033.728
2402.7224
-675.50927
-126.41007
-10205.238
8866.9279
19628.064
-12506.594
-5591.6792
4997.5161
-14407.95
-6173.1543
5917.5218
-9834.2285
-1990.3195
6281.4132
-8385.7802
-5269.4188
1949.5726
-6899.6088
-4648.083
1319.7618
-6271.0778
-2934.6076
1368.6384
-3429.2589
-1634.1998
-1234.2532
-2615.4971
-2065.7143
-2701.8404
-1184.385
-1140.1981
-2326.0485
-310.35299
229.32188
-3863.76
1187.467
751.60372
-4481.5226
1785.9964
1592.0571
-4597.9984
2702.2503
2241.9496
-4817.2322
2997.8311
2870.0951
-4565.3038
3784.3337
3762.1899
-4461.7773
4110.8552
3786.6542
-3816.8229
3769.2419
4367.2747
-3816.7924
4739.3858
3909.1682
-1388.5408
5099.6269
5236.4997
-3501.9997
3191.0802
-240.99249
-1881.0977
5242.6111
5355.2676
555.83092
5542.1747
6330.1068
6113.732
11845.497
33707.304
41727.51
1949.4903
9055.7904
23536.05
-1544.8888
18811.454
24791.961
-2618.5098
1900.7692
7994.3606
-13190.976
-3803.8896
485.12974
-17469.136
-11132.578
-5680.7939
-21061.947
-17558.657
-14282.182
-26871.343
-25175.058
-24289.865
-29960.675
-31685.723
-27487.353
-34833.29
-35084.335
-34792.581
-36273.127
-40006.802
-39693.422
-38529.527
-43147.29
-43330.628
-39729.845
-45449.241
-45938.053
-39908
-46500.458
-47551.68
-39139.856
-46712.898
-47392.05
-38057.656
-45633.212
-46785.935
-35631.017
-44066.967
-44257.523
-32979.579
-40490.424
-40453.993
-28620.425
-36687.635
-36620.188
-24909.24
-32338.362
-30464.351
-19537.656
-26176.452
-24033.993
-12625.215
-15948.253
-11661.107
-6090.7319
-11935.901
-10490.25
)
;

boundaryField
{
    free
    {
        type            calculated;
    }
    fixed
    {
        type            calculated;
    }
    traction
    {
        type            calculated;
    }
}


// ************************************************************************* //
