/*--------------------------------*- C++ -*----------------------------------*\
  =========                 |
  \\      /  F ield         | OpenFOAM: The Open Source CFD Toolbox
   \\    /   O peration     | Website:  https://openfoam.org
    \\  /    A nd           | Version:  6
     \\/     M anipulation  |
\*---------------------------------------------------------------------------*/
FoamFile
{
    version     2.0;
    format      ascii;
    class       pointVectorField;
    location    "0.74";
    object      lm;
}
// * * * * * * * * * * * * * * * * * * * * * * * * * * * * * * * * * * * * * //

dimensions      [1 -2 -1 0 0 0 0];

internalField   nonuniform List<vector> 
3969
(
(0 0 0)
(0 0 0)
(3217.7237 -1472.9896 101.49035)
(2468.0975 -2488.011 73.482599)
(0 0 0)
(0 0 0)
(2465.1466 -2533.0172 73.12736)
(3213.1932 -1520.4101 98.883254)
(0 0 0)
(0 0 0)
(0 0 0)
(0 0 0)
(0 0 0)
(0 0 0)
(0 0 0)
(3121.6734 -1600.7432 96.441429)
(3026.5433 -1726.7654 91.686715)
(2933.241 -1852.0328 89.044416)
(2840.9453 -1977.2392 86.632435)
(2749.2989 -2102.986 84.680272)
(2657.3209 -2230.4065 81.846699)
(2563.9896 -2359.4072 78.145541)
(-29.012432 -26.5156 -18.301578)
(-57.741594 -39.372285 -15.565767)
(-88.178594 -46.859766 -7.0183959)
(-120.84303 -50.141258 1.6782441)
(-153.02167 -46.735634 12.976207)
(-182.94123 -39.865789 23.412546)
(-209.86964 -27.616636 34.535326)
(-231.00274 -12.360459 44.618298)
(-245.99475 6.2301972 54.289964)
(-253.03984 25.84717 62.367616)
(-251.75174 46.712305 69.668398)
(-241.18026 66.834547 75.024291)
(-221.08084 85.614479 78.93861)
(-191.36045 101.98256 81.333802)
(-152.03939 115.0208 81.856563)
(-103.8118 124.02254 81.094511)
(-46.872505 128.42178 78.966756)
(17.93737 127.64901 75.527317)
(90.001114 121.43042 71.012272)
(168.29097 109.52032 65.514248)
(252.02183 91.950568 59.323429)
(340.15071 68.853193 52.53485)
(431.7803 40.486052 45.537077)
(525.94092 7.3224212 38.482974)
(621.61292 -30.139644 31.83043)
(718.29351 -70.950569 25.90115)
(815.04976 -114.58435 21.10017)
(911.60207 -160.28902 17.730795)
(1007.6359 -207.29433 16.177351)
(1103.0749 -254.96332 16.576319)
(1198.266 -302.83687 19.086479)
(1293.6707 -350.71442 23.605614)
(1389.9898 -398.57269 30.002252)
(1488.1297 -446.65237 37.769986)
(1588.9084 -495.59724 46.769494)
(1693.3336 -545.90067 56.015622)
(1802.179 -598.60192 65.571511)
(1915.7286 -654.5785 74.200198)
(2034.5918 -714.81706 81.904289)
(2158.2028 -779.86427 88.311045)
(2286.523 -850.546 93.16418)
(2418.3665 -926.75264 96.513516)
(2552.7984 -1008.7116 98.294861)
(2688.7112 -1095.7041 99.306351)
(2824.1629 -1186.8667 99.310875)
(2958.2642 -1280.6372 99.870746)
(3089.9605 -1377.1874 100.15811)
(-9.2410681 25.118539 29.666798)
(-33.785074 35.829373 24.242792)
(-67.644642 47.41694 17.596597)
(-100.26437 52.094487 9.542163)
(-132.97044 54.688161 1.6356237)
(-165.33526 53.467564 -5.3423409)
(-194.90557 49.091628 -11.69635)
(-221.6994 39.418444 -16.850744)
(-244.23665 26.573647 -21.335626)
(-261.74984 8.0844525 -24.733477)
(-274.04565 -13.191324 -27.899928)
(-279.57233 -40.269721 -30.138028)
(-279.18237 -70.452714 -31.980275)
(-271.50473 -104.94497 -33.209339)
(-256.85734 -143.1488 -33.959941)
(-234.7238 -184.68633 -34.251806)
(-205.21621 -229.64334 -34.052213)
(-168.58671 -276.95264 -33.435264)
(-124.85787 -327.2116 -32.326261)
(-74.58212 -379.05511 -30.973015)
(-18.360793 -432.84953 -29.128752)
(43.762239 -487.62297 -27.213066)
(110.37308 -543.55292 -24.78375)
(181.37302 -599.76299 -22.54495)
(255.58574 -656.18682 -20.137505)
(332.54842 -712.6547 -17.732744)
(411.18434 -768.75354 -15.333492)
(490.94032 -825.47165 -12.998161)
(571.21003 -882.15483 -10.932095)
(651.25577 -939.46061 -9.0407174)
(730.9678 -997.99364 -7.4452259)
(810.19807 -1058.3334 -6.0779519)
(889.28123 -1121.3382 -4.8904463)
(968.61876 -1187.6091 -3.7794827)
(1048.9501 -1257.9942 -2.6093918)
(1131.3325 -1333.0441 -1.0861404)
(1216.3844 -1413.1413 0.90656239)
(1305.6254 -1498.2749 3.6987562)
(1399.7052 -1588.7415 7.4250924)
(1499.345 -1683.5639 12.188464)
(1604.8868 -1782.2698 18.07904)
(1716.4914 -1883.8316 25.023447)
(1833.7887 -1987.1499 32.991616)
(1955.9977 -2090.8339 41.434866)
(2082.1207 -2193.7462 50.154192)
(2210.5196 -2294.7052 58.585602)
(2340.0125 -2392.6194 66.399218)
(0 0 0)
(0 0 0)
(0 0 0)
(0 0 0)
(0 0 0)
(0 0 0)
(0 0 0)
(-10.822455 14.929822 -22.881247)
(-29.463131 32.179199 -17.753913)
(-62.230849 36.205426 -5.6368014)
(-94.687539 37.809469 6.0134215)
(-128.96557 39.449071 19.203295)
(-160.84319 38.523946 31.118802)
(-191.51923 30.839701 42.851672)
(-217.415 25.114673 52.77355)
(-240.9339 9.9573494 62.67822)
(-257.6268 -3.498025 69.225596)
(-270.78195 -26.019535 77.926647)
(-276.5287 -47.217477 81.652695)
(-274.93461 -75.756732 85.024434)
(-265.57758 -107.25734 85.779401)
(-249.38282 -142.01932 85.146774)
(-225.24607 -181.90248 82.892573)
(-193.90632 -223.86358 79.131447)
(-155.54162 -270.15361 74.244625)
(-110.29078 -318.75521 68.282306)
(-58.837955 -370.18781 61.522174)
(-1.6375522 -423.70222 54.279868)
(60.606045 -479.08675 46.742836)
(127.29465 -535.85938 39.2364)
(197.45088 -593.64359 32.140363)
(270.30794 -652.36981 25.717541)
(345.22615 -711.45472 20.393144)
(420.32599 -770.78968 17.013283)
(496.55158 -830.24984 15.064236)
(572.5773 -890.25508 15.145673)
(648.27413 -950.86143 17.190974)
(723.47397 -1012.5945 21.168427)
(798.36762 -1076.0096 26.955032)
(873.4057 -1141.8157 34.11835)
(949.44682 -1210.7962 42.162849)
(1027.1708 -1283.658 50.553609)
(1108.3235 -1360.8344 58.540055)
(1192.472 -1442.9027 65.649057)
(1282.4235 -1530.8106 71.855963)
(1377.854 -1622.9896 76.099638)
(1479.5924 -1720.0205 78.763694)
(1587.9149 -1820.7108 79.596443)
(1702.4428 -1924.2089 79.086111)
(1822.7155 -2029.0652 77.459253)
(1947.6963 -2134.0745 75.35064)
(2076.035 -2237.8115 73.327485)
(2206.2128 -2339.1063 72.069448)
(2336.1961 -2437.2103 72.276846)
(2560.6606 -2403.9995 75.009868)
(2653.8106 -2274.7885 77.75885)
(2744.8826 -2148.176 81.593792)
(2836.0881 -2022.6553 86.455288)
(2927.9056 -1899.014 90.984437)
(3021.6446 -1773.9461 95.076163)
(3117.0194 -1648.5228 97.304403)
(3085.5515 -1424.6903 90.908403)
(2953.2912 -1328.177 81.945686)
(2817.6639 -1233.2986 71.574587)
(2679.7634 -1140.9738 60.034944)
(2541.1308 -1052.3162 48.23286)
(2403.3666 -968.31864 36.625981)
(2267.9867 -889.50128 25.703935)
(2136.3823 -816.06394 15.922043)
(2009.5466 -747.83525 7.4970337)
(1888.1475 -684.26235 0.37492689)
(1772.5811 -624.23754 -5.1064165)
(1662.7004 -569.34447 -8.9442813)
(1558.3583 -514.37191 -11.73508)
(1458.189 -461.94615 -13.714105)
(1361.873 -410.10794 -14.764185)
(1268.26 -358.65974 -15.151048)
(1176.3588 -307.32373 -15.127754)
(1085.3349 -256.2723 -14.804119)
(994.42756 -205.75424 -14.262943)
(903.22043 -156.35541 -13.676447)
(811.43147 -108.64889 -13.033615)
(719.09775 -63.45956 -12.449833)
(626.60683 -21.56357 -11.888763)
(534.35925 16.408305 -11.47737)
(443.19447 49.724775 -11.098793)
(353.90039 77.780594 -10.747496)
(267.47102 100.32561 -10.462255)
(184.91022 116.85263 -10.042281)
(107.24122 127.47091 -9.6197555)
(35.483451 132.05443 -9.0020565)
(-29.463677 130.89293 -8.1685492)
(-86.791966 124.42989 -7.331037)
(-135.89949 113.39792 -6.1461254)
(-175.63577 97.511489 -4.4099039)
(-206.2988 78.386373 -3.0949506)
(-227.85771 58.033655 -1.0716659)
(-239.84265 35.622993 0.46508045)
(-243.21942 13.360582 2.6051422)
(-237.98778 -6.9660673 4.2329655)
(-225.22495 -26.291558 6.9194993)
(-205.60726 -41.556664 9.5230478)
(-180.93019 -52.67723 12.43739)
(-152.76648 -58.67659 15.00445)
(-122.21976 -60.320284 18.979217)
(-91.241025 -54.673577 20.418669)
(-61.150366 -44.591315 22.451106)
(-39.12015 -29.897692 19.440879)
(0 0 0)
(0 0 0)
(0 0 0)
(0 0 0)
(0 0 0)
(0 0 0)
(0 0 0)
(0 0 0)
(0 0 0)
(0 0 0)
(0 0 0)
(0 0 0)
(0 0 0)
(0 0 0)
(2466.6422 -2496.037 72.723987)
(2466.1813 -2503.924 72.506677)
(2465.8174 -2511.1764 73.083876)
(2465.4315 -2517.6686 73.670848)
(2464.8856 -2523.1967 74.346992)
(2464.5615 -2527.5728 74.506174)
(2463.9277 -2530.9093 73.617304)
(3220.4986 -1477.907 101.63134)
(3222.1537 -1483.1607 101.34012)
(3223.2225 -1488.6706 100.63968)
(3223.3686 -1494.3786 99.578965)
(3222.5955 -1500.0752 98.794062)
(3220.5462 -1506.3198 98.51126)
(3217.3914 -1513.0778 98.81685)
(-21.663025 -9.7699992 -15.362137)
(-51.787621 -17.186338 -9.9744172)
(-82.568241 -23.25706 -4.7156201)
(-116.01183 -24.63106 3.2868512)
(-148.91006 -22.617114 11.503215)
(-180.01231 -16.445213 20.32821)
(-208.3363 -7.1760632 29.019065)
(-231.31525 4.9483804 37.541836)
(-248.32165 18.638058 44.850955)
(-257.85482 33.283643 51.918303)
(-259.32696 48.076939 57.52605)
(-251.81738 61.483638 61.981381)
(-234.9784 73.546251 65.221602)
(-208.87137 82.60665 67.017776)
(-173.38761 88.397924 67.642676)
(-128.74788 90.262802 66.869518)
(-75.623428 87.673705 65.096801)
(-14.510098 80.212334 62.233884)
(53.970237 67.722296 58.460249)
(128.90177 50.065919 53.93894)
(209.48254 27.340705 48.801724)
(294.71836 -0.26070079 43.263347)
(383.7917 -32.371073 37.50579)
(475.60549 -68.553169 31.811082)
(569.5175 -108.1847 26.497873)
(664.51283 -150.75161 21.697272)
(759.88896 -195.3599 17.926449)
(855.25416 -241.56705 15.422283)
(950.13251 -288.75625 14.344695)
(1044.4024 -336.42198 14.954087)
(1138.2731 -384.37609 17.261617)
(1232.036 -432.63684 21.263059)
(1326.3619 -481.31733 26.727995)
(1422.0081 -530.96701 33.44677)
(1519.8497 -582.15066 41.041602)
(1620.8612 -635.54328 48.98023)
(1725.6833 -692.24722 57.189017)
(1835.3763 -752.88318 64.68803)
(1950.0367 -818.15253 71.64571)
(2069.7487 -888.53227 77.681763)
(2194.5197 -964.37808 82.557974)
(2323.3141 -1045.4089 86.379912)
(2455.8332 -1131.4718 89.208404)
(2590.269 -1221.4875 91.250612)
(2725.5584 -1314.6452 92.728424)
(2860.3584 -1409.4826 94.276989)
(2992.9699 -1505.8368 95.334117)
(-18.60087 -7.0517694 -10.267576)
(-46.229022 -8.9869836 -8.1794141)
(-78.780426 -13.150159 -1.7436264)
(-112.63575 -13.968441 3.0693241)
(-146.55348 -11.494843 10.399946)
(-179.41309 -6.2454293 16.759958)
(-208.92404 1.3521864 24.050808)
(-233.30926 10.865857 29.773215)
(-252.24547 21.004444 36.338162)
(-263.78841 31.676005 41.400621)
(-267.37067 41.287559 45.755236)
(-262.40277 49.699503 49.30966)
(-248.3183 55.780482 51.714854)
(-225.04122 58.850209 53.135025)
(-192.4451 58.588324 53.438839)
(-151.07805 54.291335 52.727659)
(-101.11595 45.774514 51.145888)
(-43.221574 32.552719 48.720767)
(22.058449 14.673145 45.611414)
(93.885767 -8.0935709 41.89466)
(171.44254 -35.442321 37.71464)
(253.92244 -67.163288 33.209173)
(340.17807 -102.87148 28.639089)
(429.63926 -142.09488 24.171078)
(521.059 -184.3347 19.924533)
(613.82237 -228.76877 16.446069)
(707.05801 -275.09831 13.686462)
(800.32632 -322.61826 11.962518)
(893.19724 -370.87305 11.543481)
(985.44672 -419.64205 12.433478)
(1077.2141 -468.78473 14.744713)
(1168.7926 -518.40959 18.434303)
(1260.7694 -568.80194 23.310551)
(1353.903 -620.56749 29.252735)
(1449.0672 -674.21031 35.825088)
(1547.2328 -730.68625 42.920695)
(1649.3097 -790.67104 49.980337)
(1755.9102 -854.85835 56.866124)
(1867.7507 -923.97246 63.245761)
(1984.7365 -998.05625 68.943838)
(2107.0445 -1077.6602 73.890577)
(2233.7759 -1161.9744 78.059105)
(2364.474 -1251.067 81.438701)
(2497.5958 -1343.4186 84.224213)
(2632.1202 -1438.6855 86.661294)
(2766.1083 -1534.7667 88.703546)
(2898.7912 -1632.6291 90.730535)
(-18.388309 -3.4840235 -5.1814162)
(-44.481276 -4.0700924 -2.3563345)
(-76.603716 -6.9485893 0.93253938)
(-110.34473 -6.3882314 4.7962443)
(-145.84389 -3.9436272 9.5172578)
(-178.80818 0.39529395 14.311424)
(-209.41035 6.2356762 18.546185)
(-235.18318 13.223476 23.472715)
(-255.57393 20.139175 27.626066)
(-268.40244 26.704751 30.976404)
(-274.25133 32.036723 34.424707)
(-271.25133 35.276925 36.751993)
(-259.79235 36.023323 38.440407)
(-239.18741 33.677145 39.397447)
(-209.61793 27.848848 39.685635)
(-171.19024 17.988321 38.96861)
(-124.32997 3.9176502 37.759043)
(-69.520565 -14.558435 35.759511)
(-7.3305497 -37.549175 33.386932)
(61.356855 -64.887292 30.509346)
(135.93764 -96.391693 27.401573)
(215.28985 -131.84745 24.075507)
(298.94041 -170.89061 20.70881)
(385.48676 -213.09887 17.362942)
(474.31505 -257.73523 14.460107)
(564.61667 -304.57702 11.843282)
(655.64242 -352.965 9.8460001)
(746.73254 -402.3311 8.7776785)
(837.39594 -452.41164 8.6752012)
(927.45974 -502.99996 9.6177836)
(1017.011 -554.00335 11.717236)
(1106.2783 -605.70011 14.882311)
(1195.862 -658.39449 19.054253)
(1286.4916 -712.67281 24.023958)
(1379.0748 -769.19548 29.657776)
(1474.5851 -828.73112 35.623731)
(1573.856 -891.97844 41.79305)
(1677.9176 -959.6747 47.883517)
(1787.0531 -1032.1355 53.708417)
(1901.6273 -1109.6536 59.244467)
(2021.4896 -1192.2713 64.314168)
(2146.137 -1279.5072 68.929825)
(2275.0152 -1370.9529 73.045623)
(2406.5915 -1465.5137 76.913219)
(2539.9505 -1562.2999 80.282713)
(2673.2373 -1659.9568 83.64286)
(2805.9612 -1758.4516 86.506856)
(-16.074048 -2.443403 -1.3924356)
(-40.222573 -2.4944566 -0.68748353)
(-73.031926 -4.4517546 2.9169733)
(-107.9639 -2.7880765 4.7756134)
(-143.6886 -0.98146712 7.9159851)
(-178.26814 3.723246 10.070974)
(-209.8172 7.6722241 13.457367)
(-236.95626 13.16642 15.866803)
(-258.21341 16.955223 18.313646)
(-272.97733 20.336855 21.106905)
(-280.24312 21.013309 22.94262)
(-279.24075 19.766424 24.352338)
(-269.86968 15.466767 25.301085)
(-251.57792 7.472035 25.739627)
(-224.7271 -3.6611018 25.510919)
(-189.00016 -19.303979 24.961825)
(-145.18431 -38.586623 23.779789)
(-93.317206 -62.5371 22.326606)
(-34.397197 -90.415205 20.514148)
(31.335659 -122.59902 18.44271)
(102.84396 -158.64043 16.089302)
(179.61462 -198.28506 13.616414)
(260.07677 -241.08694 11.253828)
(343.97982 -286.49771 8.989819)
(430.26207 -334.19184 6.8528731)
(518.04224 -383.4876 5.1704533)
(606.44432 -434.0146 4.2434899)
(694.92839 -485.40593 3.9376864)
(783.0835 -537.40568 4.3697376)
(870.649 -589.86734 5.7003349)
(957.70273 -642.80855 7.8253713)
(1044.4263 -696.59264 10.850319)
(1131.4605 -751.44509 14.541573)
(1219.5008 -808.15591 18.946175)
(1309.4651 -867.23151 23.783777)
(1402.2914 -929.46543 28.997402)
(1499.0496 -995.59337 34.45181)
(1600.3162 -1066.0419 39.902155)
(1706.8217 -1141.3188 45.31752)
(1818.9432 -1221.6461 50.703798)
(1936.6232 -1307.0279 55.853462)
(2059.3648 -1396.756 60.820265)
(2186.4738 -1490.5929 65.664955)
(2316.6797 -1587.0155 70.125405)
(2449.1255 -1685.5892 74.517717)
(2581.777 -1784.395 78.654175)
(2714.2659 -1883.4798 82.799646)
(-14.291292 0.11945119 2.7271317)
(-39.119805 -0.42007908 5.7542435)
(-72.614653 -0.85733508 7.2095467)
(-107.11126 0.94095682 6.784176)
(-144.12951 4.0046275 7.469855)
(-178.46351 7.5083438 7.6687807)
(-211.11765 10.42077 8.6927488)
(-238.03161 13.416363 8.7611561)
(-260.6822 13.827702 10.276721)
(-276.03523 13.26738 10.68457)
(-284.8498 9.3308214 11.165149)
(-285.45927 3.5990515 11.769513)
(-278.199 -6.6202486 12.040696)
(-262.26728 -19.440064 12.006662)
(-237.99002 -36.751365 11.77157)
(-205.24776 -57.65034 11.225319)
(-164.32939 -82.730473 10.367128)
(-115.72925 -111.78153 9.3858296)
(-59.80079 -144.69083 8.1956433)
(2.643383 -181.44897 6.9331525)
(71.103922 -221.43719 5.5058416)
(144.31004 -264.59673 4.4917252)
(222.0829 -310.52039 3.1711441)
(303.02087 -358.86018 2.0103327)
(386.58386 -408.98598 1.1479844)
(471.59644 -460.52612 0.66024916)
(557.54017 -513.18437 0.4927961)
(643.67454 -566.52407 0.66292362)
(729.51051 -620.37353 1.4641072)
(814.76011 -674.68083 2.7665833)
(899.47024 -729.62349 4.6894855)
(983.7874 -785.52239 7.1873147)
(1068.3666 -842.7464 10.177807)
(1153.8424 -902.05703 13.707541)
(1241.1447 -963.92474 17.596548)
(1331.3515 -1029.2219 21.86421)
(1425.3774 -1098.4503 26.434815)
(1523.9254 -1172.2681 31.132188)
(1628.2943 -1250.8209 36.226524)
(1738.3536 -1334.6244 41.288816)
(1853.6534 -1422.7209 46.595691)
(1974.3634 -1515.3107 52.025031)
(2099.5009 -1611.2115 57.419967)
(2228.2014 -1709.7291 62.859532)
(2359.1681 -1809.559 68.265601)
(2490.7193 -1909.4785 73.687721)
(2622.5798 -2008.7229 79.019535)
(-10.954889 4.1751972 9.137973)
(-34.87852 3.7055634 10.182315)
(-69.015252 4.6574291 8.8421414)
(-104.41776 7.6000061 6.9635439)
(-141.17186 10.754859 4.8611619)
(-176.18102 13.460337 3.1805573)
(-208.26648 14.798596 1.3159522)
(-236.09477 14.936194 0.42112625)
(-258.9184 11.999668 -0.3577519)
(-275.36769 7.3844559 -1.0888668)
(-285.29115 -1.3995717 -1.3223548)
(-287.80483 -12.992411 -1.8415284)
(-282.425 -28.597368 -2.32099)
(-269.00107 -47.786299 -2.6395559)
(-247.52679 -70.8777 -3.2430697)
(-217.7775 -97.856116 -3.637104)
(-180.24682 -128.70117 -4.2965591)
(-134.91351 -163.23978 -4.7248825)
(-82.623902 -201.45788 -5.287105)
(-23.597238 -242.84944 -5.695716)
(41.113628 -287.53937 -6.0808421)
(111.62482 -334.37295 -6.3153582)
(185.5664 -384.06273 -6.6040687)
(263.37329 -435.66144 -6.4951051)
(343.76659 -488.32907 -6.3656413)
(426.00613 -542.27689 -6.0156389)
(509.40906 -596.97574 -5.4273442)
(593.03039 -652.13295 -4.478312)
(676.54969 -707.68687 -3.2771173)
(759.5832 -763.85491 -1.6988629)
(842.06427 -820.71401 0.18033343)
(924.20163 -878.64633 2.4020331)
(1006.5346 -938.16996 4.9012095)
(1089.6335 -999.92825 7.7490206)
(1174.5261 -1064.4641 10.828928)
(1262.1642 -1132.5916 14.309089)
(1353.4537 -1204.828 18.081319)
(1449.4285 -1281.6508 22.380154)
(1550.5664 -1363.4445 26.830137)
(1657.2698 -1449.7035 32.162725)
(1770.2842 -1540.4068 37.675935)
(1888.6059 -1635.2219 43.598447)
(2011.7577 -1733.1672 49.83885)
(2138.7019 -1833.3871 56.230278)
(2268.2288 -1934.4317 62.677809)
(2398.8632 -2035.3963 68.879818)
(2529.9581 -2134.9477 75.21196)
(-6.4777096 8.8580088 14.832918)
(-33.153159 8.5865192 16.318422)
(-68.178275 13.369466 13.551857)
(-103.38892 18.610265 8.6970778)
(-140.24818 22.54099 4.1562812)
(-173.9794 24.555924 -0.37107518)
(-206.05733 23.966417 -4.0623681)
(-233.45458 21.101131 -7.0686555)
(-256.5134 13.881549 -9.7431027)
(-273.70488 4.6835955 -11.66949)
(-284.43704 -10.47194 -13.11363)
(-288.55825 -27.173715 -14.973172)
(-284.92248 -50.018381 -15.51392)
(-274.32973 -75.301851 -16.733273)
(-255.45695 -105.34756 -17.156034)
(-229.14926 -138.6778 -17.749561)
(-194.87566 -175.87992 -17.943551)
(-153.32789 -216.3921 -18.004908)
(-104.66837 -260.07642 -17.840293)
(-49.463328 -306.60521 -17.442938)
(11.754022 -355.56916 -16.920293)
(78.002149 -406.61632 -16.081914)
(149.28385 -459.48911 -15.198097)
(223.75841 -513.66447 -14.036769)
(301.32796 -568.54874 -12.975449)
(380.93838 -624.30736 -11.538404)
(461.76835 -680.41035 -10.129985)
(543.31147 -736.80584 -8.6168139)
(624.77419 -793.67518 -7.0043427)
(705.83018 -851.06622 -5.2805589)
(786.34731 -909.26261 -3.5421995)
(866.49475 -968.78939 -1.7291866)
(946.667 -1030.2114 0.15742182)
(1027.4874 -1094.2237 2.1660884)
(1109.895 -1161.4407 4.3933369)
(1194.8109 -1232.5871 6.890675)
(1283.2644 -1308.1504 9.9015302)
(1376.2029 -1388.5336 13.489109)
(1474.4319 -1473.7685 17.619157)
(1578.3433 -1563.746 22.587323)
(1688.2372 -1658.0373 28.252902)
(1803.8672 -1755.9854 34.653975)
(1924.6534 -1856.6064 41.554167)
(2049.5912 -1958.9418 48.895532)
(2177.5098 -2061.4235 56.170375)
(2306.8842 -2163.3948 63.519582)
(2436.3942 -2262.8459 70.577585)
(0 0 0)
(0 0 0)
(0 0 0)
(0 0 0)
(0 0 0)
(0 0 0)
(0 0 0)
(0 0 0)
(0 0 0)
(0 0 0)
(0 0 0)
(0 0 0)
(0 0 0)
(0 0 0)
(0 0 0)
(0 0 0)
(0 0 0)
(0 0 0)
(0 0 0)
(0 0 0)
(0 0 0)
(0 0 0)
(0 0 0)
(0 0 0)
(0 0 0)
(0 0 0)
(0 0 0)
(0 0 0)
(0 0 0)
(0 0 0)
(0 0 0)
(0 0 0)
(0 0 0)
(0 0 0)
(0 0 0)
(0 0 0)
(0 0 0)
(0 0 0)
(0 0 0)
(0 0 0)
(0 0 0)
(0 0 0)
(0 0 0)
(0 0 0)
(0 0 0)
(0 0 0)
(0 0 0)
(0 0 0)
(0 0 0)
(-20.135732 11.288925 14.475878)
(-21.797298 13.02725 7.802179)
(-23.458605 13.556412 3.9216448)
(-24.530432 14.097404 0.78337315)
(-23.092106 12.979737 -3.2438108)
(-21.646328 12.504445 -6.286298)
(-18.819958 10.629052 -12.919926)
(-42.532701 38.94223 19.288468)
(-46.210368 39.8264 11.063256)
(-46.548846 37.781953 5.5206772)
(-45.330938 36.284903 2.7017155)
(-45.604879 36.409507 -0.67408397)
(-42.840891 35.215291 -4.3607003)
(-40.356627 34.906779 -12.071195)
(-71.799326 52.808079 13.012739)
(-72.619741 53.119554 8.5988204)
(-73.770215 51.327835 7.456227)
(-73.797263 50.56046 2.9103404)
(-72.307663 49.711739 1.3731803)
(-70.175984 48.276927 -1.2760369)
(-67.949755 46.087162 -4.1093453)
(-98.873836 57.837746 9.2714029)
(-100.85579 55.929742 8.4203572)
(-100.18378 55.093934 7.4146082)
(-99.902893 53.988187 6.243852)
(-98.465875 52.727221 6.3663424)
(-98.756342 50.007937 6.1121206)
(-96.149211 48.912491 5.3588559)
(-130.51543 60.446317 3.4256863)
(-128.50894 60.633762 5.3288578)
(-127.1355 59.125848 7.9658156)
(-126.82522 58.017876 9.8726229)
(-126.30767 56.400012 11.648932)
(-125.80614 54.50608 13.422151)
(-126.21715 51.476651 16.413964)
(-159.1397 58.132893 -0.90195719)
(-156.82985 57.464959 3.1572057)
(-154.75919 56.601611 7.9294784)
(-154.03187 54.154279 11.47945)
(-153.32401 53.758272 17.191178)
(-155.86167 50.148672 21.057952)
(-156.62233 48.641477 26.166736)
(-187.70985 51.628604 -5.0940129)
(-183.28743 51.112782 1.7728267)
(-180.00797 48.705471 8.6192256)
(-178.63048 47.503573 15.391916)
(-178.60886 45.458337 22.358413)
(-180.1079 42.752075 28.699855)
(-183.50912 40.629222 36.738819)
(-212.05821 40.916903 -8.1810034)
(-206.54933 39.152359 0.10166664)
(-203.15859 37.894826 9.8707112)
(-201.48934 36.407829 18.417763)
(-202.42767 35.633475 27.129256)
(-204.60436 34.126503 35.628791)
(-209.70408 32.238021 44.524853)
(-233.46878 25.682379 -10.937147)
(-227.05171 24.551181 -0.20071832)
(-222.23917 22.00563 10.372022)
(-221.01866 20.156299 21.073096)
(-221.02742 18.303682 32.044558)
(-224.62938 16.983865 42.389154)
(-229.77355 15.759137 53.652828)
(-250.01398 7.1553354 -13.03888)
(-242.5546 4.2099016 -0.93850112)
(-238.21163 2.5494862 11.038191)
(-235.64612 0.45433835 23.455772)
(-236.66581 0.53631624 35.553263)
(-240.45137 0.1397739 47.047361)
(-246.87077 -0.13197764 59.001324)
(-261.18365 -16.75915 -14.653524)
(-253.51793 -19.445112 -1.5502022)
(-247.93156 -21.863244 12.383344)
(-246.30871 -22.725206 25.310817)
(-246.79715 -23.772146 38.823163)
(-251.03525 -23.861871 51.673274)
(-257.94387 -23.504466 66.024689)
(-266.84189 -43.444206 -16.375263)
(-258.10576 -47.210043 -1.5815632)
(-252.95472 -49.44624 12.110266)
(-250.5315 -51.352306 26.770309)
(-251.26964 -51.32506 41.225185)
(-255.83894 -49.876474 54.61725)
(-262.85018 -48.77573 69.968479)
(-265.48262 -75.854071 -16.955667)
(-257.23753 -79.227069 -2.2180304)
(-251.45103 -81.715728 12.706686)
(-249.14292 -82.405013 27.689423)
(-249.89854 -81.836269 42.663861)
(-254.70877 -81.221967 56.746428)
(-262.07805 -77.989256 72.339897)
(-258.16356 -110.23352 -18.281289)
(-249.43899 -114.34308 -2.8373652)
(-243.37793 -117.00529 12.051823)
(-241.13367 -117.86385 27.397745)
(-241.68974 -118.02525 42.834246)
(-246.22603 -115.36449 56.898148)
(-253.08385 -112.33488 73.080656)
(-243.66715 -149.86173 -18.828883)
(-234.81893 -153.85262 -3.4134683)
(-228.88246 -155.86623 11.482556)
(-226.33145 -156.77582 27.100596)
(-226.69131 -155.45781 42.029375)
(-230.9018 -153.00499 56.625016)
(-237.72346 -148.72462 72.363936)
(-221.84798 -191.66307 -19.466229)
(-213.21022 -195.51535 -4.3467497)
(-207.10303 -198.28102 10.425296)
(-204.50043 -198.68918 25.368787)
(-204.70202 -197.84366 40.576769)
(-208.57065 -194.7147 54.522047)
(-214.78036 -189.847 70.215046)
(-193.20331 -236.91532 -19.800311)
(-184.59057 -241.14133 -5.0273067)
(-178.62281 -243.21116 8.9129259)
(-175.81079 -243.47326 23.887684)
(-175.75949 -242.16176 38.115324)
(-179.04154 -238.45024 51.861731)
(-184.68082 -233.33622 66.907819)
(-157.16534 -284.80376 -19.830878)
(-148.99679 -288.68674 -6.13577)
(-143.06604 -290.91015 7.5078256)
(-140.22588 -291.20373 21.357477)
(-139.9872 -289.64299 35.075003)
(-142.72522 -285.91375 48.179135)
(-147.69315 -280.19 62.448358)
(-114.54302 -334.90927 -19.862376)
(-106.73178 -338.71009 -6.815181)
(-100.96806 -340.85984 5.6602105)
(-98.10839 -340.70448 18.786289)
(-97.536126 -339.20244 31.600693)
(-99.70021 -335.04465 43.843988)
(-103.92595 -329.4892 57.173329)
(-65.335351 -386.87121 -19.422689)
(-57.977911 -390.63582 -7.6886578)
(-52.565096 -392.53631 3.831056)
(-49.648606 -392.57231 15.898322)
(-48.905317 -390.82878 27.58398)
(-50.521461 -386.88695 38.962399)
(-53.907674 -381.05483 51.189971)
(-10.068075 -440.47275 -18.991451)
(-3.4133912 -443.88329 -8.4062165)
(1.7622863 -445.88949 1.9804903)
(4.6492849 -445.5926 12.8361)
(5.5610526 -444.05441 23.456413)
(4.5871686 -439.98051 33.743773)
(1.9167075 -434.42216 44.802284)
(50.616855 -495.06561 -18.241541)
(56.682782 -498.43649 -8.9711979)
(61.489767 -500.21016 0.16222435)
(64.228786 -500.04359 9.7709435)
(65.364464 -498.44512 19.181397)
(64.793433 -494.7049 28.362143)
(62.869543 -489.37436 38.19291)
(116.23367 -550.55735 -17.29389)
(121.59169 -553.53102 -9.3831118)
(125.97175 -555.36482 -1.5441243)
(128.58852 -555.12265 6.8204118)
(129.69738 -553.89659 15.070629)
(129.6234 -550.38447 23.008806)
(128.37437 -545.45932 31.621979)
(186.09486 -606.21245 -16.202422)
(190.62845 -609.32396 -9.6388194)
(194.58524 -611.00756 -3.0241537)
(196.86185 -611.02119 4.1508036)
(198.27394 -609.74165 11.134508)
(198.4615 -606.56757 18.022242)
(197.75076 -602.16102 25.43963)
(259.24925 -662.32767 -15.134011)
(263.22378 -665.24224 -9.5263646)
(266.59032 -666.72016 -4.2602912)
(268.80503 -667.01603 1.9411341)
(269.90249 -665.8875 7.8232871)
(270.23411 -663.43912 13.644268)
(269.8072 -659.70315 19.839836)
(335.13279 -718.27858 -13.687613)
(338.50964 -721.0746 -9.1949526)
(341.21938 -722.77146 -5.0582127)
(343.11715 -723.19352 0.615035)
(344.11455 -722.17057 4.9073892)
(344.64421 -720.34267 10.061537)
(344.50162 -717.03898 15.201773)
(413.01142 -774.26268 -12.146991)
(415.72264 -777.09603 -8.8599274)
(417.8324 -778.90661 -4.9002852)
(419.501 -779.6735 -0.82809936)
(420.29699 -779.11202 3.4883999)
(420.60461 -777.7121 8.0002158)
(420.18774 -774.84634 12.430196)
(492.2494 -830.49369 -10.476608)
(494.06741 -833.36268 -7.7600812)
(495.96772 -835.44725 -4.2361496)
(496.89689 -836.21588 -0.93646535)
(497.55353 -836.04576 3.2053141)
(497.52381 -834.96849 6.6987968)
(496.8129 -833.06808 10.957439)
(571.92506 -886.8998 -8.7810059)
(573.41565 -890.03174 -6.1598279)
(574.49766 -892.21359 -3.3315072)
(575.24692 -893.37857 0.13860832)
(575.20057 -893.55647 3.6217524)
(574.853 -893.00646 7.1282915)
(573.71938 -891.71281 11.173075)
(651.82303 -944.17326 -6.7875217)
(652.76228 -947.43303 -4.4512774)
(653.52689 -950.09966 -1.3369834)
(653.68829 -951.53281 1.9316245)
(653.23013 -952.11136 5.5248287)
(652.38006 -951.9421 9.0644524)
(650.56519 -951.16295 13.177793)
(731.47515 -1002.7153 -4.9623962)
(732.18168 -1006.4621 -2.2029325)
(732.48924 -1009.4095 1.0620878)
(732.22952 -1011.2092 4.7272456)
(731.25314 -1012.1121 8.5201837)
(729.6964 -1012.2499 12.435989)
(727.14887 -1011.9174 16.847826)
(810.94776 -1063.3971 -2.9654543)
(811.49073 -1067.4677 0.27020611)
(811.49634 -1070.9018 4.1362847)
(810.80747 -1073.0606 8.2702831)
(809.27755 -1074.2987 12.639605)
(806.98762 -1074.7377 17.09878)
(803.58646 -1074.6748 22.13426)
(890.40828 -1126.7396 -1.0101913)
(890.91804 -1131.3707 3.0472711)
(890.68181 -1135.2719 7.607205)
(889.57962 -1137.834 12.505684)
(887.52923 -1139.4196 17.595312)
(884.45044 -1140.0381 22.793944)
(880.16224 -1140.1812 28.645875)
(970.27211 -1193.6465 1.0441595)
(970.85434 -1198.8484 6.0355323)
(970.46457 -1203.2752 11.448445)
(969.04391 -1206.2534 17.203452)
(966.50029 -1208.1128 23.122089)
(962.66857 -1208.9451 29.14645)
(957.54813 -1209.22 35.964111)
(1051.1916 -1264.7393 3.1703424)
(1051.9432 -1270.5761 9.1784078)
(1051.4896 -1275.508 15.466937)
(1049.8112 -1278.9259 22.129851)
(1046.8748 -1281.1133 28.876069)
(1042.4355 -1282.1717 35.970813)
(1036.4552 -1282.4399 43.680702)
(1134.1187 -1340.5936 5.6673918)
(1135.0246 -1347.07 12.658235)
(1134.5715 -1352.5211 19.758824)
(1132.7953 -1356.34 27.232748)
(1129.3673 -1358.9353 34.802438)
(1124.3117 -1360.1486 42.764873)
(1117.6294 -1360.2909 50.822928)
(1219.6187 -1421.4921 8.5104763)
(1220.8525 -1428.5596 16.167943)
(1220.5389 -1434.4913 23.880289)
(1218.5215 -1438.7613 32.049778)
(1214.9611 -1441.6173 40.256248)
(1209.8611 -1443.1485 48.397602)
(1202.8777 -1443.3343 57.962665)
(1309.2938 -1507.8241 11.594469)
(1310.5752 -1515.1523 20.054405)
(1310.3372 -1521.5588 28.281758)
(1308.3953 -1526.19 36.794552)
(1304.8319 -1529.5221 45.434033)
(1299.2094 -1530.9048 54.228244)
(1292.1461 -1531.515 63.580071)
(1403.3357 -1598.5667 15.634476)
(1404.6664 -1606.5523 24.210293)
(1404.5895 -1613.2902 32.445491)
(1402.6791 -1618.2608 41.096931)
(1399.1719 -1621.9528 49.811261)
(1393.7641 -1623.9069 58.434389)
(1386.8513 -1624.8334 67.954997)
(1502.6729 -1694.0875 20.224094)
(1504.2164 -1702.2856 28.714631)
(1504.218 -1709.2211 36.705896)
(1502.4568 -1714.5894 45.237629)
(1499.1136 -1718.6476 53.519841)
(1494.0347 -1720.9774 61.946324)
(1487.3528 -1722.2 70.993192)
(1607.807 -1793.0781 25.685809)
(1609.236 -1801.4701 33.513569)
(1609.301 -1808.5554 41.132507)
(1607.7476 -1814.1621 48.920381)
(1604.6982 -1818.5799 56.686414)
(1600.1426 -1821.284 64.432146)
(1594.0558 -1823.0449 72.598033)
(1718.7368 -1894.7912 31.829908)
(1720.0103 -1903.1138 38.761277)
(1720.1702 -1910.1915 45.546522)
(1718.8213 -1916.0265 52.435159)
(1716.146 -1920.7523 59.314209)
(1712.2238 -1923.9464 66.060072)
(1706.9299 -1926.2885 73.063474)
(1835.212 -1997.8247 38.579786)
(1836.2178 -2006.0055 44.34604)
(1836.316 -2013.061 50.026697)
(1835.2247 -2019.0219 55.772483)
(1832.9595 -2024.0086 61.538631)
(1829.8194 -2027.666 67.125898)
(1825.4355 -2030.5832 72.695693)
(1956.5999 -2101.0444 45.654498)
(1957.2815 -2108.95 50.124082)
(1957.3314 -2115.8994 54.524728)
(1956.4447 -2121.9385 59.087277)
(1954.6296 -2127.1411 63.633311)
(1952.2461 -2131.2369 67.946864)
(1948.871 -2134.6357 71.946523)
(2081.8579 -2203.2006 52.886158)
(2082.1315 -2210.8602 55.952969)
(2082.0435 -2217.7195 59.073156)
(2081.3304 -2223.825 62.42814)
(2079.9362 -2229.1727 65.735306)
(2078.2816 -2233.5384 68.815213)
(2075.9187 -2237.2721 71.328417)
(2209.6543 -2303.4009 59.927477)
(2209.601 -2310.827 61.687685)