/*--------------------------------*- C++ -*----------------------------------*\
  =========                 |
  \\      /  F ield         | OpenFOAM: The Open Source CFD Toolbox
   \\    /   O peration     | Website:  https://openfoam.org
    \\  /    A nd           | Version:  6
     \\/     M anipulation  |
\*---------------------------------------------------------------------------*/
FoamFile
{
    version     2.0;
    format      ascii;
    class       pointScalarField;
    location    "1.38";
    object      p;
}
// * * * * * * * * * * * * * * * * * * * * * * * * * * * * * * * * * * * * * //

dimensions      [1 -1 -2 0 0 0 0];

internalField   nonuniform List<scalar> 
3969
(
-1047285.4
1485320.8
-476.05984
-1115.0855
-2070780.9
2910189.1
-1099.4421
469.50857
-888361.53
-631612.08
-309847.15
-29873.236
218608.81
531072.43
598780.78
1200.5001
2008.3298
1998.2564
844.53215
-846.54204
-1928.5222
-1777.5082
-303457.35
-369462.51
-358082.63
-388966.75
-379553.23
-388783.59
-378487.78
-377478.45
-367665.14
-358157.46
-351022.85
-341340.66
-331384.67
-322087.61
-310861.37
-298110.74
-288149.75
-274326.51
-263279.28
-249252.3
-237192.99
-223800.39
-210998.46
-198485.87
-185170.83
-172287.46
-159695.61
-147634.21
-136202.67
-124262.54
-113092.39
-102164.97
-91453.14
-81014.027
-71351.403
-61874.754
-52486.873
-44012.515
-35746.024
-28448.553
-21795.357
-15667.73
-10738.944
-6100.2639
-3183.1396
-588.83079
207.00971
368575.68
330664.98
381520.85
350730.65
389009.9
363442.86
376249.6
362582.03
362561.49
351849.57
346232.07
339381.32
329092.32
320873.9
310735.89
299374.77
288819.39
276477.28
264822.94
253246.35
239383.85
229152.48
215093.17
203998.04
190955.6
178875.8
166336.04
154223.69
143025.07
131263.62
121490.9
110181.33
100438.54
90076.288
80567.702
70965.134
62063.145
52848.86
44957.945
36503.586
29076.528
22609.831
16330.987
11122.276
6260.9667
2830.5452
311.94784
-1536497.3
-1147444.9
-486094.83
57231.813
530361.9
1050649.2
906969.47
397754.35
493498.68
319979.01
442079.67
398450.61
412749.84
404181.69
397204.09
393221.58
373618.65
382102.94
360899.64
360805.32
349228.99
335577.78
328002.03
310832.33
300472.02
285048.64
271542.82
258152.9
244829.95
231248.99
217904.61
205318.12
194010.1
180136.94
165638.05
153401.51
140412.09
127338.06
115096.75
102823.38
91225.914
80221.209
69363.128
57792.751
50035.16
41131.34
32914.434
25470.359
19132.627
13199.732
8277.0443
4252.7605
1120.4017
-838.71196
-2627.7406
-1397.9755
-1526.1433
1375.5086
1501.4737
1950.1777
1718.8395
-559.65395
-1600.7995
-4207.3126
-8305.4742
-13032.302
-18763.197
-25302.541
-32236.998
-40250.382
-47982.908
-55847.158
-70717.059
-77457.542
-88692.115
-100069.5
-111300.92
-122907.15
-134981.48
-146800.91
-159216.22
-171849.46
-183989.18
-197365.07
-210528.44
-223737.92
-237437.02
-250604.78
-263367.18
-276787.12
-288642.74
-302442.51
-310930.23
-318578.77
-331960.41
-355142.96
-349154.59
-365552.32
-365716.65
-367878.49
-390469.43
-402270.69
-382927.39
-403000.39
-384888.45
-355756.45
-373597.83
-388422.57
-840209.93
-943595.91
-993514.15
-984304.56
-944689.4
-945810.56
-661119.56
1188458
1471963.7
1682599.6
1791376.6
1687653.7
1706723.3
1340719.9
-647.0403
-727.72273
-1061.06
-1335.7947
-1319.6007
-668.64156
-1025.1511
-350.83613
58.468969
205.73808
536.07312
406.30988
-9.6810297
247.37313
-268095.54
-281983.57
-285614.48
-294328.9
-300855.64
-303842.92
-301580.74
-302560.46
-293790.29
-292740.31
-284652.3
-274795.22
-271667.92
-260527.41
-253512.86
-244370.59
-235502.88
-225085.54
-214594.76
-203854.83
-193216.19
-181579.62
-170619.2
-159416.04
-148791.83
-137021.77
-125891.09
-115539.95
-104632.91
-94259.955
-84410.357
-74740.425
-65654.174
-57084.068
-49155.131
-41595.982
-34611.373
-28388.424
-22939.811
-18255.393
-13623.267
-10284.763
-7015.5541
-4661.6591
-2859.3288
-866.8381
207.68271
-174482.05
-185928.85
-176859.35
-193255.58
-198481.17
-207880.57
-203906.55
-204151.68
-200743.72
-199155.08
-193770.04
-190303.9
-183197.08
-176661.85
-171734.98
-164150.35
-157949.43
-149877.48
-142710.62
-134558.63
-125971.6
-117300.53
-108785.18
-100506.35
-92080.815
-84546.266
-77532.274
-69464.079
-62958.611
-56147.784
-49908.664
-44050.539
-38534.262
-33539.202
-28809.972
-24531.951
-20505.603
-17365.558
-14142.986
-11479.828
-8802.2349
-6978.1196
-4818.0835
-3423.5113
-2230.0953
-485.65582
79.052352
-76648.751
-98285.228
-80164.196
-96003.759
-95353.959
-102996.05
-101491.8
-103965.26
-102807.01
-99962.134
-100495.36
-96030.461
-94184.231
-87896.515
-83695.829
-80319.108
-77138.179
-73168.959
-70062.732
-65711.209
-62838.464
-59272.485
-55336.982
-51279.91
-47732.518
-43573.314
-39555.394
-36023.441
-32418.318
-28739.31
-25210.908
-21904.057
-18682.269
-15797.943
-13199.239
-10733.397
-8619.802
-6700.7888
-4616.0194
-3560.6354
-2242.1484
-1824.3639
-762.72925
-938.47861
-370.15702
86.205345
55.700897
7345.0991
-2641.5709
10961.967
-620.45676
6126.6203
1612.1692
8699.6066
4095.3902
7512.5391
2867.8722
6742.4568
4106.2762
6117.8586
5238.1897
5257.9419
5352.3606
5613.7211
5621.0356
5937.1461
6892.6095
6794.7736
8398.1505
10442.414
10581.257
10579.74
10606.482
10234.848
9858.6677
9575.3376
9162.4905
8797.0348
8275.0235
7945.8864
7311.7525
6845.3892
6132.2708
5789.0201
5070.4022
3872.6872
2892.7354
2390.5815
1650.4213
1387.9821
479.11117
588.96302
-26.969805
-293.96971
113832.07
95376.533
110387.87
109729.25
115982.61
116196.98
115944.78
114235.34
113120.63
107723.69
107879.67
101389.6
101828.99
95690.28
93669.218
89530.873
85862.595
82388.176
78378.968
75213.357
69227.319
62759.881
58483.549
53022.435
50537.501
48981.701
44954.837
41458.023
38724.732
35718.539
32906.517
30160.83
27611.299
24879.613
22431.705
19966.345
17836.023
15332.404
14416.31
12211.376
10496.68
8370.2983
6565.8129
4505.9629
3105.4345
1336.0086
40.350388
208612.78
195064.71
208687.41
215797.2
220992.66
219135.05
220683.55
215496.28
216023.02
208106.67
207839.71
199905.83
196945.51
191151.85
184862.79
177678.28
170701.01
163604.11
155972.02
149231.38
140006.46
134032.42
121663.28
113068.33
105105.84
98068.517
91898.646
85339.893
78990.143
72940.09
67506.215
61732.172
56441.243
51047.158
46109.857
40889.833
35973.828
31403.86
26579.648
21752.42
17947.985
14083.742
10479.227
7052.2502
4497.6046
2012.563
95.174816
339543.84
267943.4
314148.54
312748.5
321285.09
318290.32
318925.01
313047.41
312754.46
302698.37
300413.64
293067.67
285444.8
275043.2
265894.12
255182.69
244390.47
234221.63
223545.32
212417.66
202562.98
190724.93
180033.26
169451.53
158929.3
148692.21
140452.59
129545
119795.18
110529.35
101548.17
92675.925
84103.485
75764.943
67852.602
59814.718
52487.091
45243.671
38592.557
31261.368
25346.619
19561.918
14594.807
10048.65
6398.6928
3063.8863
623.30358
-597101.63
-590232.75
-614977.31
-606539.19
-613515.73
-602920.51
-540702.07
-413626.74
-499547.17
-448241.13
-470701.22
-463351.03
-448879.41
-425648.31
-212043.06
-250782.08
-199116.63
-222472.61
-199705.66
-199720.98
-219879.44
-45174.389
-22614.376
-8548.368
-28222.782
-16957.386
18210.471
-60564.669
145262.81
142509.75
164025.59
155087.78
157096.54
166059.34
108050.47
420667.15
431372.03
433425.96
439687.79
454251.18
447438.44
415952.19
591359.41
511253.58
462174.72
470420.71
456842.28
419265.71
477763.77
512618.53
521941.47
586247.92
607566.51
613689.22
614925.12
488405.59
445340.28
496709.88
489901.91
497116.44
516715.64
504673.3
467162.12
377830.88
417966.36
436555.8
437253.76
434144.42
415670.42
427998.38
398288.79
419308.98
412828.25
430398.67
416716.55
417439.29
397353.49
393546.17
411373.7
424762.95
425820.42
425663.65
416153.87
413741.58
396736.92
388206.93
394172.81
400389.06
400737.35
393484.35
393992.6
384272.04
391802.85
396240.71
400592.82
401242.54
398928.67
401810.79
385057.12
378503.75
380817.61
383775.56
377170.83
383705.08
381973.13
373713.39
375500.09
375535.09
377634.09
379908.54
382314.41
385503.86
371523.9
365276.79
362734.86
367316.83
365338.25
366110.07
367642.78
362396.07
358950.83
355517.07
359319.38
359188.06
359833.12
368263.68
352097.79
348578.42
347045.6
352329.43
350021.43
346179.75
353889.3
344825.57
335210.43
339758.69
336825.79
341566.8
337757.64
347880.78
332586.52
326001.53
332678.74
329935.69
333678.19
329016.14
336088.98
323202.19
315489.08
321115.09
316100.8
320275.03
316124.35
324478.98
311729.05
303656.16
310650.78
306741.6
312032.81
308007.95
315411.36
298935.2
293534.88
298973.52
294523.24
299364.91
294444.06
300725.84
286922.25
282065.85
287237.5
282730.68
288649.48
283365.98
290228.18
274197.05
269938.36
275132.1
270020.76
275803.45
270167.5
277043.9
261122.32
258058.58
262855.6
258079.2
264216.14
258540.83
265113.18
248856.18
245063.81
250011.13
244698.38
250604.27
244952.85
251336.79
235718.84
232687.58
237159.74
232524.98
238355.87
232641.44
239039.51
223190.77
219640.61
224558.39
219598.09
224447.7
219477.09
225402.63
209903.57
207812.36
211248.55
206381.52
211955.59
207145.96
212995.55
196746.53
196014.58
196398.96
194930.99
198119.24
194541.9
199873.95
183066.2
183843.74
181819.62
183985.03
184870.1
184045.16
187836.59
172384.24
171662.13
170459.7
171522.71
171776.55
170108.59
174350.73
160748.46
159459.26
158695.05
158588.24
158472.75
158126.61
159677.24
148316.19
147390.82
146381.19
145787.02
145275.54
145920.31
146390.12
136916
135358.75
134984.55
133734.3
133583.92
133797.68
133708.91
124891.27
124461.02
123010.64
121918.95
121113.74
121338.48
121093.24
114180.66
112935.49
111678.56
110359.01
109478.75
109733.66
109411.57
102818.98
102072.41
100485.65
99210.469
98118.045
98340.393
97823.437
92446.627
91423.894
89819.595
88388.779
87110.609
87255.875
86555.002
81931.099
80924.355
79334.684
77759.387
76519.576
76785.707
76158.667
71970.71
71099.212
69242.03
67993.311
66460.132
66397.378
66120.239
63262.115
60690.553
60363.803
57501.788
57219.783
57460.748
55793.033
53383.133
52337.788
49903.559
49345.93
47063.906
47257.1
46757.905
44316.676
42949.831
41650.949
40153.917
38945.051
39236.417
38892.871
36340.59
34927.277
33776.102
32145.48
31130.406
31452.717
31054.016
28561.37
27398.005
25983.629
24517.577
23803.954
23920.707
23708.361
21614.126
20450.963
19037.319
18056.622
17165.25
17515.714
17474.268
15108.122
13947.341
12740.918
11809.923
11031.624
11609.056
11634.792
9822.5161
8716.7471
7703.71
6898.2696
6321.406
6935.2724
6968.0111
5062.018
3911.9541
3048.4073
2397.5468
1976.8597
2602.1435
2700.9574
1838.6428
1057.9189
502.74276
-0.46722257
-194.44345
326.02467
605.22897
77.467621
-622.04467
-1085.8908
-1272.4056
-1207.7741
-930.50435
-893.00404
1543.2354
1557.5319
1676.0794
1930.0252
1813.4291
1909.9242
1987.2745
3295.68
3157.5148
3184.8105
3501.3252
3450.7083
3220.0764
3434.9232
1983.6459
2183.9774
2138.7245
2340.8231
2373.2366
2463.158
2295.4868
479.34715
703.68601
878.92106
1081.5582
931.97235
1259.1042
702.7189
-1686.4833
-1542.1481
-1767.9132
-1698.8668
-1677.8593
-1537.7618
-1566.4276
-2780.643
-2854.8225
-2732.7957
-2653.1365
-2763.3942
-2328.5415
-2679.1536
-2710.3708
-2798.4436
-2969.3985
-2889.1407
-2679.6407
-2607.0039
-2780.5912
-381863.54
-386471.14
-445854.93
-428034.79
-444809.65
-422467.89
-410046.29
-424661.03
-436514.67
-463090.11
-463472.06
-462473.51
-429993.43
-417822.44
-416399.72
-428162.36
-436577.51
-440627.43
-438098.2
-409405.73
-409268.95
-398096.45
-419764.28
-426440.31
-435453.87
-426754.31
-410676.56
-411036.91
-403950.73
-410748.2
-414570.43
-418294.41
-415384.65
-402367.67
-390269.37
-388259.76
-397406.07
-403051.84
-400629.62
-399500.03
-384092.07
-385741.16
-390628.57
-392176.81
-394990.06
-392475.79
-398161.18
-386068.66
-392595.28
-375672.24
-378426.06
-384294.68
-372606.34
-380761.06
-370237.33
-371806.75
-374625.16
-376464.31
-378280.56
-373600.9
-381059.39
-367241.66
-377671.3
-365436.58
-362119.03
-365010.04
-359105.42
-365868.89
-354663.1
-363584.34
-357550.69
-354681.06
-363411.44
-353295.83
-362688.48
-349722.14
-359106.64
-345646.58
-347733.56
-348737.36
-341681.99
-347646.33
-338589.63
-347399.75
-340222.24
-334437.18
-340461.77
-332794.54
-340122.24
-330139.02
-330637.99
-326462.03
-326991.97
-327542.36
-323843.25
-327457.41
-320793.11
-327803.76
-316524.62
-315432.56
-314421.52
-314995.52
-315821.35
-311790.77
-317426.97
-308239.17
-302314.09
-305145.44
-300237
-306158.6
-298000.95
-303085.97
-294148.58
-291562.11
-292317.3
-291256.44
-293005.43
-287481.65
-291838
-282447.88
-277987.99
-281066.56
-277346.55
-280114.81
-275409.97
-279130.79
-268711.01
-266220.57
-267958.61
-264798.27
-267914.15
-263243.36
-267082.48
-256700.52
-252488.33
-254807.95
-251968.3
-254916.64
-250437.53
-254271.75
-243513.82
-239042.64
-242034.69
-238930.28
-241907.89
-237685.37
-241654.99
-230448.44
-225828.59
-228994.25
-225874.45
-228656.64
-224374.52
-228895.16
-217429.41
-212675.07
-216393.71
-213035.18
-215632.4
-211781.65
-216448.07
-204231.49
-199940.63
-203103.19
-199906.3
-202277.37
-198466.92
-203466.12
-191519.62
-186193.04
-190230.17
-186879.97
-189113.45
-185690.24
-190984.69
-178555.11
-173319.46
-177373.75
-174277.96
-176042.56
-173125.58
-178156.98
-165439.12
-161152.74
-164596.29
-161676.95
-163198.99
-160481.24
-166124.26
-153334.1
-148858.97
-151934.39
-149578.29
-151031.64
-148847.89
-153908.73
-140211.05
-136262.15
-139767.87
-137596.2
-138415
-136545.54
-141620.69
-128055.83
-125321.18
-127649.93
-126020.83
-126514.44
-125338.21
-129927.15
-116190.08
-113723.34
-115974.69
-114822.67
-114941.28
-113981.52
-118296.34
-104414.8
-102775.77
-104456.07
-103631.73
-103494.65
-102835.4
-107023.99
-93133.559
-92073.59
-93506.629
-92974.284
-92494.696
-92440.593
-96183.597
-82264.579
-81742.479
-82802.574
-82444.635
-82196.008
-81934.145
-85413.653
-71863.409
-71701.758
-72350.119
-72465.49
-71583.64
-72693.203
-75069.847
-61802.124
-61946.89
-62735.395
-62462.804
-62486.631
-62310.151
-64517.767
-52285.448
-52954.122
-52767.45
-53307.91
-52501.776
-53150.029
-56139.17
-43636.144
-44034.731
-44036.575
-44316.255
-44389.271
-43995.805
-47431.583
-35345.441
-36025.107
-35383.38
-36108.781
-35742.109
-36034.777
-38688.156
-28015.919
-28381.758
-27868.815
-28510.466
-28131.64
-28542.459
-30830.704
-20947.265
-21322.393
-20708.211
-21250.904
-21006.496
-21743.161
-23507.365
-14951.35
-15047.537
-14444.12
-14933.559
-14890.995
-15603.082
-17171.101
-9791.167
-9673.4137
-9047.016
-9461.9836
-9430.506
-10219.882
-11422.263
-5325.3975
-4949.1817
-4413.4687
-4715.3686
-4893.5266
-5690.9544
-6725.5105
-2153.2046
-1831.4625
-1372.1389
-1604.2107
-1718.5237
-2316.3167
-3047.4931
-68.343401
162.23637
622.57174
484.90921
369.32086
-153.20001
-666.07592
274.95499
208.10101
555.83308
483.27141
460.38756
141.79466
-19.514094
-446872.69
-298046.45
-303328.94
-294677.47
-315962.8
-325298.06
-316082.98
-316681.85
-316325.57
-312306.54
-303930.8
-297974.9
-288676.25
-280491.27
-271202.48
-263439.64
-250954.18
-241107.25
-230564.23
-218867.33
-207290.17
-195016.37
-182939.44
-170963.11
-158666.83
-146962.51
-134679.82
-123161.86
-112022.65
-101286.9
-91100.803
-81517.04
-72358.113
-63499.617
-56603.785
-46992.614
-41358.386
-35393.074
-28912.256
-23747.243
-18973.451
-14592.145
-10830.681
-7564.7523
-4717.5903
-2528.021
-227.0576
-264564.23
-235369.95
-179079.41
-205878.66
-249568.97
-226310.33
-247770.4
-231642.46
-241020.32
-226255.39
-230621.13
-219216.74
-213686.34
-206134.98
-200477.86
-193481
-185062.04
-175339.56
-168327.37
-158354.69
-149654.71
-140699.96
-131850.01
-122847.64
-114160.17
-103845.09
-99141.948
-90262.511
-83348.85
-76339.555
-69704.241
-63367.174
-57077.071
-51534.823
-45285.315
-39996.567
-34896.128
-29491.792
-25251.412
-20462.003
-16402.317
-12445.11
-9072.1779
-6027.7629
-3389.5548
-1001.9143
244.90206
-125922.42
-136457.52
-76211.48
-112707.72
-107142.97
-96782.585
-110853.13
-102586.21
-105982.92
-99979.702
-106191.23
-101327.17
-104969.45
-100719.15
-99645.717
-97464.791
-93565.398
-89342.804
-86456.307
-80351.52
-76356.983
-71461.7
-66504.866
-61732.235
-57088.383
-52378.811
-48339.585
-43136.023
-39017.216
-34854.83
-31075.267
-27514.21
-24352.344
-21242.949
-18425.622
-15985.016
-13752.529
-11622.364
-9701.4419
-8075.0455
-6534.4699
-5042.3752
-3870.0561
-2711.0256
-1622.462
-955.44842
636.56828
16108.242
-20314.688
10258.867
-11824.229
-4802.3587
-7142.2039
-10282.758
4684.1081
-8706.2316
-2796.2725
-5560.4062
-4512.2967
-6445.2631
-10579.415
-12701.656
-12337.536
-12256.746
-12146.851
-11842.365
-10800.489
-11062.481
-10540.835
-10136.188
-10090.636
-9229.3189
-8778.391
-8373.6374
-8246.9298
-7772.9657
-7684.9103
-7515.4253
-7649.7743
-7466.4219
-7284.5254
-6984.6394
-6658.8372
-5894.809
-5364.7366
-4766.2356
-4078.1415
-3198.6214
-2374.9097
-1652.965
-846.98632
-500.32531
268.91634
670.17401
168768.72
91810.215
103482.45
80304.336
94015.303
83929.749
94696.419
92539.487
82434.452
90970.212
78916.122
86207.098
78601.322
83672.976
76552.622
76469.453
71656.262
69533.436
65616.424
62595.345
58921.34
55860.332
52426.255
49420.086
46103.502
43848.832
40099.38
37072.727
34293.304
31555.15
28930.149
26279.193
23545.031
20892.133
18552.875
16221.161
13963.169
11764.413
10019.425
8110.6699
6473.0657
5068.9798
3872.7859
2699.3937
1909.6702
861.57187
1122.9453
254160.54
209128.44
186143.1
188728.8
201448.39
199255.38
203779.71
192038.39
197497.02
196718.74
196025.76
196561.64
186701.04
185840.1
176356.98
171492.29
162708.01
155506.44
147337.74
140369.69
133221.22
125540.24
118167.17
108541.82
99447.479
90125.285
84189.864
76905
70512.553
63888.489
58145.37
52036.069
46334.081
40987.579
36000.143
31139.444
26694.288
22751.59
19041.737
15425.114
12503.505
9731.138
7201.0457
5212.423
3217.1114
1709.7659
350.78763
341967.8
303091.49
305262.32
305025.61
326999.34
315009.64
324530.24
314731.83
316901.77
305182.97
307640.9
296678.5
287972.99
279944.23
269168.45
261192.87
251697.76
241233.53
231787.69
220358.37
209447.74
197687.52
186503.32
174225.05
163877.61
147508.58
137501.61
127479.34
117688.21
108504.05
99264.674
90051.216
81620.456
72796.564
64877.361
57049.522
50333.362
42817.765
35902.029
29981.484
24262.689
18853.315
14444.497
10176.981
6789.7877
3282.6993
1691.9133
-520927.9
-554217.95
-545580.72
-561301.22
-559072.29
-521614.26
-484353.02
-352335.19
-409781.3
-403604.47
-412367.49
-402884.92
-381047.87
-339656.32
-344993.23
-376231.75
-402156.28
-398522.46
-393633.33
-386288.6
-365700
-333737.26
-340375.6
-351567.63
-360464.1
-345551.38
-344847.14
-310823.02
-327587.46
-338478.71
-359081.74
-350934.78
-346245.58
-340587.65
-309106.9
-324654.93
-335958.56
-331963.25
-341563.45
-334307.22
-326595.01
-326764.19
-322834.27
-326093.46
-331368.53
-335056.72
-320217.33
-329320.13
-313475.92
-314844.77
-327714.81
-322190.92
-327384.01
-325256.09
-315964.14
-311556.23
-314018.87
-317857.54
-308271.05
-324890.75
-307694.33
-315933.7
-306676.77
-305813.5
-308391.63
-312480.05
-316126.45
-306032.84
-309559.01
-302768.12
-297244.26
-308252.43
-298202.17
-306692.21
-295934.38
-302102.39
-294737.34
-296613.4
-293911.38
-294703.55
-297943.89
-294718
-293122.79
-289528.48
-283995.57
-289864.7
-285458.21
-293023.05
-283924.3
-286678.65
-284229.94
-278157.94
-276973.47
-279474.69
-282039.21
-276064.18
-277575.83
-274541.23
-269395.94
-269452.57
-271767.65
-269937.03
-267798.27
-268782.55
-264237.32
-258245.59
-259591.59
-262047.74
-261924.29
-259376.62
-256988.64
-255920.6
-247341.09
-249375.87
-250258.5
-251700.28
-247510.81
-247888.39
-247131.94
-236840.73
-239348.5
-240750.55
-239505.3
-237545.63
-236923.69
-235220.06
-225424.92
-228689.87
-227900.13
-229170.16
-226684.69
-225432.92
-224150.47
-213868.78
-216475.52
-216930.69
-217253.84
-214689.1
-213768.56
-213054.58
-200449.17
-205573.21
-204595.88
-205218.73
-202755.88
-202189.73
-201080.86
-188316.32
-193691.33
-192108.02
-192658.54
-190679.04
-190076.5
-189554.07
-175317.72
-181406.5
-178795.93
-180048.88
-177972.1
-178444.54
-176988.07
-162503.2
-168749.68
-166104.95
-167077.51
-165937.91
-165847.7
-164797.04
-148989.89
-157002.9
-152997.04
-155380.63
-153348.77
-154610.68
-153287.62
-137677.73
-144087.35
-141742.91
-141776.54
-142018.73
-142162.14
-141439.95
-126178.01
-131504.78
-129240.74
-130074.31
-130295.87
-130965.11
-129738.3
-113789.45
-118786.26
-117932.96
-118127.48
-118261.27
-118994.6
-118370.24
-102439.53
-108489.59
-106186.92
-106357.64
-107429.91
-108291.42
-107941.44
-92152.604
-96197.179
-95498.547
-95444.421
-96796.538
-97578.357
-97472.812
-81610.647
-85572.426
-84820.622
-84580.386
-86255.336
-87272.641
-87477.177
-71989.485
-75220.788
-75101.036
-74729.738
-76590.517
-77851.862
-78141.942
-62904.733
-65646.04
-65624.7
-65187.389
-67399.426
-68648.17
-69268.199
-54501.841
-56617.995
-56827.23
-56401.765
-58630.653
-60163.212
-60579.117
-46704.952
-48254.057
-48720.159
-48251.398
-50710.609
-51514.101
-52912.355
-39208.507
-40638.515
-41296.926
-40817.291
-42826.797
-45312.118
-45865.611
-33284.338
-34537.964
-34306.222
-33813.515
-36826.67
-36722.519
-40003.841
-27487.843
-27452.24
-28529.256
-28102.434
-29405.798
-31999.024
-32440.393
-22310.576
-21626.791
-22920.033
-22125.748
-24427.015
-25593.08
-27263.895
-17510.906
-17304.873
-18019.163
-17595.45
-18954.222
-20489.235
-21766.544
-13516.034
-12733.774
-13591.962
-12871.126
-14552.379
-15604.867
-17203.629
-9971.9757
-9489.2242
-9880.9807
-9491.3623
-10706.009
-11528.376
-12988.116
-6847.9243
-6152.2455
-6522.3604
-6042.1326
-7046.3766
-7773.4339
-9233.5301
-4466.4253
-3951.7443
-4102.0669
-3703.658
-4550.5049
-4959.4204
-6108.7974
-2212.0408
-1969.7572
-1765.9632
-1653.5286
-2096.7613
-2339.0276
-3444.3303
-876.07931
-406.09972
-347.81979
-193.47485
-422.62689
-778.14062
-1126.1214
370.63171
536.22348
781.89076
809.80045
644.88053
765.95183
130.66474
-343294.12
-344155.77
-374073.11
-364303.54
-374866.42
-338231.12
-339931.76
-251731.09
-312856.1
-319506.84
-331964.99
-327999.55
-300679.18
-282291.67
-260382.34
-245699.12
-276283.6
-264810.7
-274280.84
-243978.55
-242839.8
-223633.22
-241297.64
-255530.24
-253357.8
-255800.78
-242546.55
-216327.93
-236800.62
-242117.3
-256896.63
-248245.86
-256501.31
-240803.3
-227276.83
-227072.18
-231814.88
-240116.96
-233662.17
-234115.88
-232771.02
-221852.25
-226776.8
-235371.08
-248428.39
-238911.92
-244693.86
-239696.92
-224896.38
-225221.51
-225377.23
-232119.93
-223415.92
-231484.36
-221187.52
-221021.17
-221430.84
-223048.07
-237347.35
-229123.4
-230550.29
-227788.01
-221236.14
-214994.85
-219121.54
-227511.27
-213339.47
-222592.53
-216507.69
-216497.91
-212718.38
-214899.56
-220843.64
-214113.6
-220379.71
-216287.38
-210002.73
-207523.51
-205325.5
-218221.17
-205896.61
-215350.92
-204882.1
-209693.27
-200196.39
-202175.56
-212447.21
-199806.59
-208105.27
-200791.29
-199784.3
-193979.46
-196105.23
-203470.54
-192840.68
-200656.85
-193867.18
-190750.47
-187060.15
-191728.23
-193620
-187825.28
-193818.53
-187416.88
-184923.61
-180329.91
-182450.17
-185194.59
-180689.62
-183785.78
-179753.99
-176143.03
-172263.72
-175692.63
-177811.44
-172531.52
-176027.95
-173471.17
-171291.97
-164220.61
-167243.4
-168165.23
-164938.8
-167637.12
-164772.71
-161424.21
-156355.86
-158155.4
-159652.74
-156651.73
-158724.08
-156181.93
-154335.57
-147163.12
-149195.1
-150864.93
-147906.21
-149582.16
-147485.25
-146004.18
-139088.77
-140551.03
-141669.09
-138936.77
-140720.55
-139036.42
-137670.81
-130954.88
-131257.11
-132140.56
-130045.24
-131806.36
-130127.81
-128800.42
-122679
-121933.12
-123279.56
-121552.7
-123332.75
-121109.93
-120562.36
-114112.5
-113233.62
-114843.8
-113394.28
-114566.35
-112709.21
-112283.23
-105711.31
-104864.38
-106042.81
-104673.46
-106445.91
-104007.98
-104017.45
-97266.983
-96900.341
-96681.273
-98493.68
-96874.725
-95698.787
-97057.618
-88433.644
-89348.002
-88555.32
-88217.659
-90278.781
-87378.833
-87531.795
-80947.091
-80720.518
-81617.894
-81157.09
-82079.996
-80439.275
-80187.369
-73016.763
-73593.862
-74083.478
-73895.536
-75088.413
-73186.208
-72719.018
-65554.227
-67018.939
-66246.044
-67034.165
-67566.736
-66374.119
-65656.438
-58440.871
-60414.689
-59751.394
-60792.349
-61183.938
-60179.468
-59120.946
-51644.705
-54373.474
-53131.54
-54635.96
-54772.329
-54090.637
-52906.731
-45433.103
-48486.955
-47129.895
-48818.777
-48945.7
-48429.028
-46834.71
-39492.072
-42958.53
-41387.155
-43448.033
-43268.688
-42683.811
-41523.663
-33935.465
-37680.443
-36250.43
-38198.987
-38119.751
-38201.51
-36860.395
-29012.362
-32998.972
-31093.164
-33371.915
-33145.98
-32607.182
-31565.072
-24462.375
-28029.574
-26634.582
-28755.214
-28317.603
-28540.06
-27008.699
-20023.177
-23898.43
-22049.693
-24357.138
-23835.2
-24119.371
-23127.717
-16060.635
-19733.408
-18270.24
-20001.368
-19868.543
-20169.903
-18872.696
-12600.26
-16344.62
-14620.419
-16259.27
-16105.708
-16146.48
-15433.465
-9749.7964
-12543.217
-11084.591
-12575.348
-12429.507
-12678.56
-12105.005
-7010.858
-9666.2096
-8214.4287
-9556.3542
-9309.8544
-9525.1576
-9301.6
-4860.5949
-6633.5944
-5352.4994
-6448.343
-6190.974
-6600.9127
-6550.0223
-3006.7719
-4256.1856
-3176.0647
-3988.8971
-3882.7516
-4168.3364
-4402.244
-1449.9279
-2363.5541
-1309.4063
-2004.9864
-1784.2457
-2072.9389
-2526.0703
-40.04164
-208.28598
507.58313
153.53257
290.01659
-3.750851
-583.60955
576.67626
427.7557
1071.5827
859.87352
890.11486
954.34161
446.01032
-201150.22
-190098.84
-180831.7
-193232.7
-182520.22
-170691.79
-168587.59
-136412.37
-196275.76
-180384.3
-195112.34
-168948.61
-173711.9
-142346.85
-142896.77
-130933.71
-147312.01
-143975.73
-137628.75
-124206.08
-120076.84
-115706.39
-133775.68
-144056.28
-149890.12
-134010.4
-137592.57
-113264.89
-131047.89
-122009.85
-135399.68
-127888.33
-125406.9
-115878.82
-107867.33
-116609.09
-126720.53
-125382.7
-124689.38
-127976.9
-114865.51
-113742.35
-124178.52
-127547.88
-118563.65
-124781.67
-123228.53
-116449.84
-113316.67
-119374.63
-126467.09
-117159.27
-122036.47
-120107.08
-110239.82
-113329.73
-119479.51
-129464.67
-113569.46
-122675.15
-118059.11
-115237.7
-113885.58
-119570.61
-122935.82
-109622.87
-115594.47
-116573.9
-109255.67
-110644.02
-114555.66
-123782.5
-107234.11
-119358.11
-114471.75
-110708.29
-108625.32
-110422.46
-117817.18
-103509.12
-111766.98
-109937.38
-104129.13
-107869.54
-104034.01
-119030.64
-100074.81
-110154.81
-107876.59
-103324.91
-105100.62
-102586.23
-110977.22
-99469.46
-105997.99
-107555.52
-95623.278
-105554.9
-99332.603
-104571.7
-96475.123
-103053.04
-101524.65
-94143.463
-100461.05
-94687.545
-99093
-94637.239
-95983.049
-98556.84
-89882.086
-97423.413
-88776.128
-95860.067
-89600.004
-93746.665
-93757.01
-87128.021
-91968.198
-85190.361
-89659.706
-85943.398
-88443.923
-89101.014
-82614.95
-87054.636
-79076.195
-85873.396
-81176.486
-84311.881
-83930.134
-78723.115
-82173.24
-74918.326
-80911.602
-76725.887
-79312.407
-79114.306
-74425.257
-77783.513
-69489.456
-76021.75
-71511.747
-74342.138
-73818.072
-70304.422
-71937.185
-64546.391
-70584.115
-66736.826
-69570.207
-69288.852
-65064.805
-67497.231
-59554.283
-65407.72
-61853.897
-65225.574
-63135.447
-60938.657
-62532.063
-54679.682
-59883.023
-57207.911
-59031.822
-57886.924
-56025.256
-57305.114
-50192.698
-54943.331
-51991.077
-54248.506
-52610.058
-51701.497
-52903.552
-45983.062
-48549.973
-47557.3
-48449.845
-47547.601
-47180.141
-47781.333
-41489.474
-44696.179
-42837.618
-44766.889
-42396.26
-42975.583
-43254.437
-37378.881
-40779.102
-37965.743
-39887.584
-38610.155
-38071.543
-40229.559
-33366.936
-35620.328
-33583.701
-34815.843
-34471.91
-33601.501
-36894.24
-29646.422
-31400.967
-29569.47
-31097.88
-30607.649
-29892.027
-33447.211
-26186.523
-27271.731
-25617.26
-27254.797
-26617.235
-26170.762
-30383.179
-22828.624
-23527.446
-22017.929
-23603.914
-23068.95
-22981.816
-27209.344
-19791.844
-19941.946
-18639.089
-20245.869
-19883.73
-19669.135
-24571.908
-16855.665
-16774.923
-15654.653
-17304.96
-16866.362
-17221.758
-22018.593
-14295.531
-13896.519
-12930.418
-14346.857
-14227.861
-14270.881
-19260.946
-11779.769
-11299.58
-10448.777
-11998.328
-11674.835
-12290.169
-17032.481
-9750.0474
-8958.4861
-8449.4507
-9507.2083
-9779.3684
-9846.1409
-14988.299
-7685.6098
-7306.5059
-6581.591
-7939.3251
-7732.8394
-8352.9325
-12718.655
-6474.7659
-5285.1062
-5000.8956
-5994.905
-6073.9074
-6789.6599
-10615.605
-5128.3731
-4240.0458
-3786.3177
-4877.968
-4761.2298
-5257.6801
-8697.514
-3882.032
-2501.8842
-2618.6345
-3165.0194
-3423.966
-3965.995
-7113.8149
-2844.9189
-2263.5624
-2090.3508
-2684.0575
-2784.0805
-3095.1412
-5466.8443
-1933.28
-858.88749
-912.67359
-1238.1996
-1388.0323
-1829.8046
-3926.0426
-1406.8827
-1070.0096
-1122.3667
-1425.4949
-1493.9829
-1833.8281
-2892.1231
-447.2111
-94.401604
75.568489
-83.541789
-114.94563
-342.14347
-1056.8238
-287.48711
-245.48281
-54.001168
-393.00644
-283.45112
-549.96793
-776.51255
487.32099
1009.3699
1045.0174
978.42805
1188.132
937.69991
824.63308
-12889.419
7581.6692
2225.6244
4766.047
6364.6441
11832.906
-5597.7497
-2800.9225
-11094.278
-10173.625
-18621.236
-8967.8296
-10498.284
-2623.8407
-24023.485
3719.7359
-6244.7844
5403.8109
-296.12027
7718.9447
-4018.8332
-7774.0922
-5847.9718
-19180.916
-13435.026
-12539.079
-17930.546
3597.4573
-12989.423
-13033.304
-20175.488
-3932.7907
-18898.748
4393.6434
-6751.4915
-10215.926
-9131.513
-14415.126
-13795.174
-14033.839
-11943.135
-5884.6157
-13135.181
-16835.45
-26802.148
-14000.265
-19677.294
-9051.6637
-8804.192
-13795.231
-16010.869
-13139.08
-17120.232
-13881.514
-13169.003
-8677.91
-12372.681
-12193.712
-20894.928
-15536.891
-18469.88
-13239.679
-4288.281
-8209.3517
-15721.019
-16012.64
-13186.738
-14171.885
-8508.0978
-8055.5583
-9757.5434
-13257.942
-15231.885
-13113.294
-13588.754
-12110.052
-7008.2961
-6286.5782
-12445.007
-11739.835
-11642.771
-12132.403
-10003.387
-6483.4821
-8649.5246
-10712.618
-12433.099
-11812.632
-13433.562
-9730.513
-5323.9139
-5899.7827
-7944.0073
-14425.992
-11496.124
-7858.8779
-9785.4141
-2401.7683
-6651.3494
-11535.729
-6783.8333
-11531.566
-7128.2359
-9460.8437
-4324.2755
-3857.4397
-8822.741
-6601.9873
-10693.121
-5469.5797
-8292.3766
-3507.4293
-4239.0223
-7266.2663
-6227.1705
-11329.418
-4445.8056
-7640.3132
-3849.2062
-2999.7499
-6195.1384