/*--------------------------------*- C++ -*----------------------------------*\
  =========                 |
  \\      /  F ield         | OpenFOAM: The Open Source CFD Toolbox
   \\    /   O peration     | Website:  https://openfoam.org
    \\  /    A nd           | Version:  6
     \\/     M anipulation  |
\*---------------------------------------------------------------------------*/
FoamFile
{
    version     2.0;
    format      ascii;
    class       pointScalarField;
    location    "1.71";
    object      p;
}
// * * * * * * * * * * * * * * * * * * * * * * * * * * * * * * * * * * * * * //

dimensions      [1 -1 -2 0 0 0 0];

internalField   nonuniform List<scalar> 
28033
(
-395427.5
477987.05
184.62489
-17.948229
-655281.77
747904.67
-331.69095
337.22
-338367.13
-300085.07
-263848.58
-223009.89
-162260.83
-113970.6
-64475.683
-14043.26
41440.18
84839.342
137910.53
164409
225838.14
274946.93
263784.88
676.53433
1289.7273
1985.381
1834.8458
1975.8867
1415.3697
1118.3743
413.65863
-229.2546
-742.3311
-1357.9864
-1697.7712
-1776.5234
-1334.5912
-694.73189
-87743.623
-108422.7
-96389.557
-110082.61
-101737.84
-110091.58
-108653.14
-111998.66
-110767.72
-114671
-111887.57
-113062.72
-112929.68
-114045.44
-112004.32
-112832.62
-113239.78
-112379.67
-112956.97
-113189.88
-113838.84
-114043.27
-115644.74
-115377.51
-116906.3
-117617.94
-118863.94
-118805.69
-119865.97
-119825.89
-120456.85
-119963.77
-120118.11
-119181.43
-118551.52
-117323.81
-116319.42
-115221.21
-113302.88
-112051.49
-110295.22
-108591.32
-107220.27
-105933.64
-104629.1
-103654.64
-102680.11
-101966.77
-101207.22
-100699.06
-100034.66
-99488.97
-98792.331
-97978.04
-97005.224
-95771.484
-94303.263
-92512.09
-90417.887
-88009.175
-85285.461
-82246.51
-78889.582
-75485.728
-71732.424
-68051.437
-64560.229
-60583.718
-56524.465
-52528.79
-48720.529
-45159.831
-41708.749
-38471.974
-35384.944
-32511.267
-29776.128
-27269.398
-24795.278
-22547.642
-20304.88
-18197.975
-16082.663
-13831.891
-11878.59
-9875.8781
-8115.4107
-6313.6208
-4721.6647
-3135.2235
-2004.7102
-714.18611
-255.7506
169.89044
388.89849
98360.599
83255.681
98150.951
88860.726
101853.89
98010.956
105763.78
102115.97
107805.8
104865.02
108643.23
106627.77
108198.59
108064.83
108631.81
108234.61
109125.75
109122.44
110069.41
110639.1
111280.09
112576.28
113390.04
115007.38
116174.09
117143.86
118776.52
119237.16
120714.91
120702.81
121615.72
121343.85
121775.87
120982.14
121204.36
120093.17
119149.78
118193.42
116986.85
115607.02
114554.18
112936.51
111912.62
110453.31
109457.36
108217.41
107345.58
106271.64
105511.58
104536.04
103768.61
102772.27
101841.87
100672.79
99418.887
97894.535
96202.397
94187.416
91948.009
89399.963
86588.229
83508.878
80190.574
76665.566
72954.941
69131.187
65282.242
61403.988
57713.442
53516.548
49906.759
46179.623
42846.083
39508.018
36469.279
33544.665
30836.084
28286.078
25827.99
23568.47
21364.588
19264.445
17211.109
15245.26
13285.205
11420.613
9567.0859
7820.3472
6140.7753
4571.5925
3160.2985
1960.9942
880.95187
207.71578
-33.322307
-540847.7
-523572.62
-360458.95
-373932.11
-241097.15
-131236.16
-62247.541
50376.453
136473.62
238590.15
315763.78
405003.17
499691.56
552268.33
583831.08
148126.37
127823.74
66789.751
121683.92
107203.08
113491.65
111842.54
116911.73
116421.98
120418.12
122368.94
117631.41
123208.64
117938.48
123286.18
119031.22
121614.44
119060.37
120922.54
120809.77
122617.12
121467.74
121269.17
127347.99
121738.11
128458.52
124705.36
130172.06
127168.46
130686.48
128775.19
130578.62
128760.54
129655.93
128702.28
125228.22
125476.27
124764.66
122577.11
121514.81
119429.23
118176.46
116335.63
115126.8
113571.45
112601.02
111359.57
110556.56
109623.74
108966.97
108210.26
107548.32
106773.5
105932.15
104919.11
103666.35
102233.58
100446.88
98391.813
96021.844
93311.994
90321.61
87029.397
83509.924
79741.507
75877.783
72068.324
67796.697
63693.49
59688.113
56139.297
52255.092
48670.073
45295.557
42037.421
38961.902
36076.781
33357.351
30719.987
28217.567
25774.023
23409.88
21055.298
18783.263
16498.384
14272.077
12061.085
9948.1989
7867.6249
5963.8219
4172.5787
2607.1963
1331.0575
287.84916
-267.72461
-853.49208
-1869.3015
-1824.5965
-2233.3034
-1515.8482
-1438.9981
-494.62289
177.40245
1007.3579
1779.9954
1453.9868
2840.9647
1427.5729
1768.8926
525.58136
11.416573
637.63122
535.9122
-69.799389
-692.54248
-1795.4093
-3019.3049
-4452.1695
-5912.7638
-7669.8769
-9350.4883
-11113.517
-13006.645
-14946.165
-16987.904
-19057.687
-21333.307
-23609.214
-26125.57
-28731.55
-31585.706
-34629.117
-37895.691
-41284.126
-45069.272
-48590.036
-51420.58
-58341.056
-61060.101
-65502.48
-69685.652
-73849.104
-77728.381
-81481.266
-84965.362
-88127.685
-91018.216
-93514.777
-95748.134
-97581.442
-99190.235
-100444.19
-101582.52
-102410.98
-103250.69
-103874.53
-104614.31
-105212.71
-106033.58
-106743.1
-107752.17
-108620.86
-109865.85
-110973.5
-112150.56
-113405.42
-114618.59
-114061.32
-118278.86
-117702.77
-116623.64
-120653.94
-119506.11
-119349.97
-117056.33
-120398.96
-115864.67
-118686.31
-116412.62
-115275.3
-114717.57
-111501.5
-113012.44
-110228.58
-108714.69
-109148.54
-107909.98
-107408.79
-107255.28
-109498.93
-109106.46
-104664.03
-104980.35
-107146.57
-110294.96
-108035.06
-106323.29
-104643.15
-103652.07
-101130.64
-95221.516
-106268.14
-93337.491
-82033.25
-102887.9
-251398.92
-279029.47
-292266.89
-313945.17
-307429.26
-327449.95
-314340.21
-325686.6
-310812.14
-296011.12
-307646.09
-276786.32
-258680.13
-276830.32
-183526.18
381968.99
482251.4
484867.5
521023.53
515658.55
488530.31
565433
610096.1
573523.37
581535.48
562082.5
546716.91
517416.8
519004.85
496207.54
634.90361
763.58879
661.37649
488.92905
215.48255
-15.820137
-194.47656
-304.71313
-330.02806
-245.16837
-129.94468
-34.368994
156.502
85.268483
199.39471
170.8992
3.3556255
-2.8100799
97.05759
317.18616
480.87077
560.2994
584.43634
516.41848
406.23291
180.00677
20.225671
-186.93667
-309.34493
155.9224
-83262.952
-101013.95
-87005.648
-89211.478
-92758.121
-97172.334
-97855.819
-100014.95
-101211.71
-101175.13
-101609.06
-103164.02
-102415.45
-102103.27
-102200.8
-103016.18
-102136.68
-102405.51
-103317.23
-102565.63
-103824.39
-103795.55
-104692.8
-104973.65
-106302.3
-106020.79
-107226.83
-107477.56
-108484.6
-108191
-108655.49
-107920.8
-108440.86
-107364.69
-107059.38
-105940.48
-105010.64
-103435.44
-102455.59
-101171.12
-99953.09
-98494.117
-97285.207
-95987.38
-94836.603
-93869.849
-92868.848
-92137.492
-91323.625
-90700.341
-89978.465
-89335.158
-88542.975
-87693.716
-86666.399
-85456.582
-84018.734
-82332.715
-80389.868
-78175.589
-75699.365
-72944.293
-70052.814
-66947.739
-63521.067
-60182.755
-56309.347
-52925.521
-49496.455
-46210.212
-42957.836
-39876.622
-36850.722
-34083.632
-31321.327
-28853.39
-26432.894
-24231.756
-22024.069
-20125.645
-18085.036
-16320.171
-14471.081
-12733.405
-10926.287
-9289.5409
-7703.7318
-6183.75
-4777.2896
-3539.2239
-2342.7983
-1343.9856
-585.19368
158.59337
801.99745
-83157.215
-87287.116
-72872.376
-78095.331
-79582.138
-81535.749
-81101.606
-83860.472
-84389.002
-86317.559
-85890.656
-87350.606
-86677.67
-88189.496
-87310.692
-87763.179
-87292.49
-88028.732
-87705.619
-87792.156
-88424.323
-88027.103
-88937.447
-88946.9
-89876.942
-89726.296
-90844.866
-90690.89
-91276.73
-91264.878
-91698.364
-91365.571
-91284.728
-90658.601
-90314.602
-89361.17
-88743.783
-87590.893
-86707.75
-85453.154
-84312.161
-83314.594
-81908.394
-80932.383
-79871.398
-79025.874
-78132.053
-77445.228
-76686.916
-76092.482
-75403.433
-74772.695
-74030.97
-73226.774
-72296.782
-71199.787
-69938.01
-68480.449
-66811.732
-64941.177
-62866.286
-60600.004
-58232.276
-55653.561
-53060.359
-50793.605
-48634.653
-45703.243
-43265.417
-40468.505
-37722.871
-35134.948
-32525.179
-29998.9
-27600.385
-25422.737
-23214.439
-21275.203
-19314.862
-17592.569
-15798.637
-14205.56
-12671.117
-10873.757
-9229.9793
-7751.9912
-6351.2207
-5129.7094
-4042.5008
-2896.4314
-2048.6738
-1019.2398
-500.32979
333.48857
1113.0591
-68721.632
-76705.191
-59659.99
-66326.904
-65184.687
-67463.957
-67851.918
-70888.288
-70902.032
-71544.293
-72161.544
-73058.662
-72967.38
-73078.58
-73224.777
-73450.921
-73675.912
-73183.832
-73786.69
-73410.488
-74275.138
-73668.184
-74941.207
-74377.481
-75403.921
-75009.567
-76106.547
-75603.061
-76618.69
-75961.503
-76612.899
-75928.063
-76258.776
-75518.919
-75494.263
-74590.041
-74297.839
-73331.299
-72765.61
-71545.408
-70665.528
-69518.574
-68859.676
-67791.331
-67072.737
-66190.464
-65497.474
-64790.978
-64198.543
-63606.729
-63045.663
-62479.253
-61859.268
-61184.632
-60408.598
-59495.376
-58456.502
-57237.225
-55844.046
-54277.362
-52532.927
-50611.664
-48575.271
-46310.724
-44128.089
-42045.928
-39970.485
-37190.819
-35146.553
-33016.616
-30879.982
-28697.977
-26484.436
-24573.481
-22677.572
-20877.841
-19226.523
-17591.063
-16071.789
-14602.995
-13144.99
-11888.632
-10405.805
-9099.2014
-8028.5971
-6730.8057
-5519.3462
-4563.4072
-3566.9257
-2615.862
-1831.8261
-846.10178
-350.51936
820.7301
1449.6182
-52924.215
-64783.389
-46583.756
-54951.664
-51452.331
-53753.693
-53900.058
-55975.318
-55377.714
-57196.749
-57221.483
-58420.309
-57388.495
-59006.754
-57951.125
-59024.646
-57954.067
-58978.492
-58688.692
-58829.143
-58849.198
-58953.965
-59297.177
-58966.446
-59774.792
-59436.542
-60065.68
-59849.197
-60282.054
-60045.012
-60466.799
-59965.011
-60079.736
-59501.768
-59473.652
-58357.569
-58290.596
-56830.903
-56208.537
-55266.424
-54852.592
-53875.915
-53117.575
-52218.924
-51564.673
-50863.604
-50275.028
-49720.442
-49241.549
-48771.929
-48342.508
-47907.2
-47449.247
-46945.477
-46371.213
-45707.957
-44933.408
-44035.871
-43004.366
-41841.241
-40548.776
-39116.037
-37583.248
-35954.29
-34313.024
-32484.941
-30888.329
-29066.773
-26817.1
-25237.14
-23573.444
-21779.806
-20352.218
-18756.757
-17263.041
-15859.078
-14520.743
-13294.145
-12076.444
-10947.568
-9873.4497
-8834.9452
-7772.1579
-6654.971
-5785.8098
-5135.3666
-4288.1906
-3516.0752
-2742.3253
-1998.3651
-1357.0957
-609.75079
-105.41557
669.25871
1342.4642
-45861.756
-48429.809
-36724.511
-41435.244
-39459.848
-41060.649
-41278.689
-42741.15
-42312.486
-43235.103
-43654.065
-43543.807
-43991.129
-44062.48
-44294.8
-44135.908
-44267.891
-44172.397
-44218.027
-43714.002
-44523.715
-43821.56
-44532.653
-44023.336
-44911.731
-44081.082
-45111.717
-44291.746
-45128.316
-44414.725
-44953.651
-44199.416
-44618.019
-43913.244
-44004.321
-43244.817
-44055.654
-43733.826
-43601.709
-43985.036
-43073.489
-42438.451
-42043.697
-41317.206
-40858.08
-40230.036
-39748.888
-39241.153
-38852.325
-38421.535
-38077.55
-37719.391
-37363.199
-36975.498
-36563.149
-36070.167
-35516.631
-34860.334
-34117.453
-33247.694
-32314.161
-31180.451
-30101.595
-28817.248
-27412.81
-26213.832
-24711.311
-23321.716
-21804.199
-20444.46
-19091.805
-17689.697
-15631.88
-14196.595
-13001.478
-11836.397
-10877.127
-9899.8295
-8989.4324
-8156.1683
-7301.2687
-6583.7959
-5754.3983
-5165.9355
-4349.4724
-3738.8761
-3046.6421
-2530.5675
-1892.2757
-1405.0567
-915.7696
-241.9948
-43.010255
783.29952
1180.7876
-27704.988
-35076.462
-23877.139
-29328.036
-26924.646
-27790.144
-27441.936
-29115.059
-27833.641
-29531.16
-28670.992
-29765.862
-28652.172
-30011.484
-28662.309
-29502.914
-28803.598
-29455.364
-28775.961
-29236.364
-29022.021
-28803.768
-29104.501
-28690.81
-29035.059
-28601.64
-29061.671
-28556.854
-29018.166
-28443.453
-28833.089
-28283.746
-28530.406
-27920.928
-27950.592
-27532.067
-27772.009
-27493.361
-27908.712
-27781.191
-28108.583
-27440.603
-27100.214
-26578.634
-26251.126
-25804.299
-25508.128
-25183.169
-24961.393
-24707.122
-24551.531
-24351.305
-24194.873
-23997.393
-23809.455
-23536.813
-23260.918
-22883.449
-22463.947
-21948.584
-21367.697
-20726.122
-19982.437
-19173.093
-18421.054
-17402.982
-16624.229
-15646.086
-14748.992
-13857.919
-12850.241
-11842.962
-10884.631
-9543.3718
-8676.8982
-8041.0804
-7328.5407
-6744.9969
-6126.6897
-5615.6424
-5020.8571
-4563.6955
-4019.058
-3599.3006
-3053.5308
-2771.1719
-2188.8377
-1840.54
-1307.7528
-938.88208
-503.12316
-73.980595
155.00531
689.66492
962.13036
-15880.806
-18403.555
-12414.219
-16813.932
-14003.681
-14594.891
-14403.385
-15353.507
-14415.665
-14568.478
-15167.692
-14149.993
-14871.221
-14479.897
-14381.677
-14496.513
-14409.078
-14033.867
-14143.436
-13795.929
-13928.787
-13497.961
-13927.835
-13144.69
-13934.958
-12969.009
-13767.1
-12865.466
-13535.423
-12681.064
-13345.58
-12498.085
-12998.344
-12243.791
-12660.191
-11984.551
-12246.928
-11760.323
-11524.536
-10754.878
-10861.989
-10487.684
-10337.718
-10074.468
-10028.633
-9812.3593
-9750.0254
-9652.6327
-9640.6934
-9599.2103
-9648.4687
-9652.5702
-9717.8576
-9748.838
-9799.4791
-9802.8283
-9814.2668
-9762.5971
-9690.7476
-9557.7653
-9408.8182
-9168.3786
-8919.1195
-8626.7567
-8249.2658
-7924.4837
-7469.5101
-7076.0047
-6603.003
-6167.9708
-5731.6416
-5307.1516
-4742.6772
-4488.0045
-4219.0139
-3849.6294
-3429.9739
-3111.1965
-2783.0362
-2471.6225
-2150.3513
-1912.4097
-1565.2272
-1377.1596
-1022.1404
-873.69791
-498.49645
-474.26088
-129.22112
-139.18917
134.24645
218.34746
288.3946
581.56324
433.36348
2255.6796
-5557.136
254.35413
-3984.8052
-1499.5891
-2388.5787
-1230.2514
-2377.0725
-36.158497
-1608.2351
-226.62968
-763.64566
103.8828
-371.96235
465.12252
35.705531
996.40681
452.33169
1124.3566
1125.8779
1389.8945
1600.513
1854.1516
2203.1146
2104.0434
2755.097
2319.5817
3066.3451
2626.6351
3287.8344
2864.2417
3547.8234
3127.4044
3650.5678
3350.8185
3904.6025
3474.9776
4036.8908
3802.9977
4334.7299
4193.2142
4361.7581
4457.0392
4650.8707
4593.8275
4755.5427
4705.9492
4704.6569
4607.1036
4540.5654
4356.6808
4199.501
3966.2102
3741.0846
3453.5618
3199.7318
2891.1462
2617.3016
2337.0006
2065.1371
1820.7753
1603.6667
1386.9313
1226.7086
1061.5381
968.58188
837.88646
780.3051
720.01368
648.92038
635.17721
629.7021
638.50584
623.11657
618.63543
581.83509
598.31914
545.05737
539.54186
497.398
469.52674
428.80854
402.50845
348.00971
355.92432
273.1752
325.5651
236.87028
393.85435
287.29492
480.06751
392.91149
404.07071
297.09057
63.127437
12461.696
10345.934
11243.007
9744.9801
11240.486
11572.278
12368.523
12659.037
13378.026
14186.368
13582.225
15065.575
14737.686
15071.864
15386.569
15832.105
15762.605
16162.328
16614.589
16789.827
16965.919
17497.529
17326.093
18048.147
17709.068
18553.404
18057.509
19009.497
18329.063
19283.221
18588.91
19439.422
18726.528
19429.716
18885.426
19281.779
18899.367
19204.751
18779.443
18997.163
18655.959
18739.62
18518.468
18477.892
18191.557
18146.129
17861.089
17675.684
17375.703
17133.09
16749.613
16427.579
16015.697
15609.383
15141.674
14701.847
14184.149
13701.162
13175.383
12656.822
12123.395
11605.722
11066.626
10550.459
10054.165
9521.8309
9034.9866
8542.2022
8067.1553
7585.7337
7183.8223
6669.811
6275.6822
5769.8713
5495.1089
5220.5048
4846.9829
4496.0473
4181.7233
3867.0606
3593.1324
3298.7119
3069.9965
2795.2939
2605.0313
2322.9018
2194.0527
1857.8124
1811.5007
1353.9305
1338.1328
873.66643
667.16477
273.88007
-225.7475
27987.232
24680.728
23483.065
21762.666
24356.528
24324.036
26130.344
25566.177
28263.913
27373.337
28622.955
29242.57
29383.145
29599.842
30615.801
30307.69
30976.649
31242.577
31651.007
31873.881
32546.193
32342.256
32783.697
33293.732
33455.813
34129.014
34009.3
34612.578
34315.96
35000.161
34524.314
35139.497
34619.14
35105.449
34461.316
34896.977
34265.799
34511.348
33990.914
34100.788
33715.594
33653.016
33304.28
33220.123
32863.369
32701.97
32359.082
32082.597
31722.967
31379.356
30920.17
30492.542
29958.117
29401.116
28766.812
28109.257
27354.37
26586.206
25746.791
24867.362
23948.693
23010.578
22019.292
21047.941
20033.078
19038.573
18032.862
17075.994
16093.09
15183.337
14224.576
13338.038
12460.466
11160.4
9902.6063
9448.5602
8628.5514
8006.8905
7332.9446
6760.1548
6155.734
5632.5274
5077.7129
4585.3723
4076.7129
3612.281
3167.9161
2699.8558
2367.5173
1787.7919
1641.9137
956.08726
678.00963
134.03324
-330.30813
41996.821
35601.332
32535.439
33426.974
35759.724
35947.609
37429.225
38574.014
39518.96
40374.569
40767.485
41753.16
41699.389
42503.033
42716.954
42958.318
43637.416
43795.076
44435.407
45134.868
45777.747
47156.371
48111.676
49187.981
49490.763
50264.47
50120.561
50907.058
50475.749
51240.971
50575.905
51315.934
50590.829
51033.721
50293.631
50533.914
49792.863
49891.651
49163.552
49120.026
48470.97
48247.869
47678.224
47393.114
46800.11
46454.622
45896.132
45449.03
44868.895
44351.764
43698.447
43091.007
42364.651
41637.011
40811.856
39973.304
39026.645
38064.451
37009.904
35914.531
34750.432
33551.293
32282.769
30994.246
29675.566
28324.197
26941.543
25544.952
24162.878
22742.888
21392.776
20086.743
18736.616
17310.305
15955.345
14564.515
13243.28
12037.279
11001.432
10048.694
9147.8943
8273.6458
7464.3228
6667.0371
5937.8317
5210.0688
4549.6233
3898.3241
3289.9041
2696.4665
2131.8723
1511.7589
895.63962
115.1744
-890.32115
53270.789
49347.53
47070.999
45606.225
48514.226
48228.293
51264.314
51617.388
53475.795
53978.43
55225.183
55513.275
56462.531
56351.138
57290.491
57515.991
57868.032
58359.543
59097.428
59225.708
60594.075
60997.962
62863.723
63965.642
64603.079
65272.812
65737.293
66192.24
66216.924
66642.397
66421.51
66739.185
66295.365
66517.461
65838.998
65885.822
65110.468
64945.541
64189.733
63880.875
63135.888
62761.05
62092.279
61657.581
61042.221
60572.25
60004.124
59483.189
58896.177
58345.375
57680.57
57026.621
56265.147
55450.484
54524.928
53528.208
52392.59
51177.177
49828.043
48383.081
46816.452
45182.495
43413.089
41616.985
39738.531
37836.523
35879.611
33987.82
32046.934
30160.592
28334.922
26476.524
24738.331
23068.506
21465.277
20125.643
18519.628
16976.893
15573.155
14252.501
12942.785
11698.583
10488.585
9324.7697
8197.6629
7108.4987
6075.7934
5091.6749
4152.3307
3297.5158
2500.0804
1683.1262
1022.9232
121.50644
-918.03305
73523.757
66069.855
60865.102
63530.47
64894.13
67206.814
68375.783
70749.23
71304.904
72889.508
73264.117
74810.756
74341.029
75605.894
75349.988
76235.865
76277.822
77089.315
77256.332
78035.593
78714.231
79491.029
79620.292
80338.189
80567.319
81627.423
81898.721
82569.981
82475.828
83064.153
82629.521
82919.909
82368.056
82543.371
81733.313
81668.966
80646.378
80416.153
79429.623
78970.263
78069.058
77507.171
76613.636
76017.17
75178.388
74542.949
73762.855
73074.114
72289.206
71557.335
70689.041
69848.705
68875.56
67858.909
66714.103
65496.122
64129.923
62674.385
61073.273
59364.416
57527.901
55588.256
53528.121
51394.192
49192.334
46898.29
44594.056
42247.353
39911.945
37551.271
35218.906
32980.471
30776.262
28609.057
26552.376
24573.923
22691.823
20864.42
19111.581
17445.321
15839.973
14304.131
12826.813
11408.91
10040.473
8732.3591
7494.0816
6302.3435
5200.611
4160.3768
3186.9913
2271.7714
1369.4652
309.96648
-729.68895
81597.577
78325.742
70381.241
74462.805
76754.799
78940.919
81161.781
82944.265
84176.994
85251.455
86881.883
86807.519
87885.563
88344.253
88169.874
88976.244
89216.013
89343.521
90419.34
90734.895
91542.098
92471.392
93385.367
94703.791
95315.439
96317.792
96984.985
97604.442
98345.589
98657.1
98836.826
98879.491
98541.606
98305.063
97886.317
97432.698
96490.765
95908.915
94832.347
94070.245
93019.377
92143.674
91180.119
90330.342
89441.614
88653.023
87836.148
87093.531
86312.099
85564.47
84735.188
83894.302
82934.949
81890.642
80692.506
79364.746
77840.045
76152.525
74255.321
72185.363
69905.631
67472.281
64857.963
62112.044
59248.339
56242.439
53258.316
50278.833
47320.457
44293.502
41477.108
38658.227
35912.97
33366.07
30829.994
28472.473
26214.198
24077.158
22039.064
20106.439
18235.62
16434.884
14690.942
12999.366
11353.033
9768.4866
8233.1034
6778.0801
5394.2377
4105.2271
2961.6509
1855.5443
957.71027
142.78565
-518.40599
110747.72
81118.28
88808.427
86554.926
93010.256
92345.602
96143.582
96842.792
98664.765
99901.963
100223.95
102046.66
101628.1
102672.39
102194.13
103412.26
102701.5
103693.84
104100.79
105024.26
105452.84
106842.72
107264.4
108861.31
109648.78
110577.03
111357.27
112224.08
112804.1
113716.61
113658.34
113954.5
113435.36
113133.75
112350.69
112282.22
110886.3
110201.92
108926.93
107968.23
106680.52
105652.05
104447.43
103416.99
102359.43
101409.44
100480.33
99626.134
98752.774
97920.028
97012.2
96076.165
95018.088
93836.163
92493.523
90961.039
89208.141
87231.891
85023.194
82560.747
79883.584
76981.686
73901.139
70626.576
67247.097
63650.012
60068.925
56405.714
53075.692
49670.919
46379.188
43066.859
40003.232
37017.349
34195.196
31537.164
29052.379
26628.827
24368.416
22170.422
20066.909
18031.713
16063.8
14137.802
12284.848
10469.676
8752.6261
7097.8147
5556.8066
4175.6653
2919.6048
1834.8277
1069.5725
300.52616
-303.16643
-173070
-194549.4
-179837.9
-185567.54
-184318.51
-185891.27
-190974.7
-186068.77
-178699.27
-185149.71
-175959.64
-167680.36
-166895.31
-181146.08
-134110.4
-185068.29
-197869.69
-181505.46
-191784
-183046.96
-192231.81
-182419.43
-189937.03
-186095.61
-184228.58
-180838.17
-178254.47
-176475.79
-182826.82
-147574.91
-143616.12
-171689.99
-136983.24
-146328
-146804.68
-139005.73
-142962.46
-138546
-139135.62
-135966.91
-135146.4
-134810.27
-123884.07
-140074.68
-123654.75
-125539.11
-133466.68
-130160.66
-123575.3
-129317.33
-124302.76
-126708.87
-124349.34
-122970.78
-120239.28
-120907.36
-112809.31
-115731.25
-123477.54
-76574.376
-89302.872
-104817.85
-83644.799
-95878.851
-81951.176
-93097.289
-84083.7
-86694.712
-82279.145
-82791.566
-79933.877
-79563.037
-80047.244
-81686.164
-72080.883
-71947.924
-78015.58
-66362.689
-69948.949
-67956.46
-67702.657
-64315.527
-63471.374
-63930.564
-61949.72
-56861.637
-59881.703
-53190.498
-56109.387
-53955.385
-37580.515
-36293.368
-37350.556
-31064.903
-31402.586
-30263.152
-28919.476
-25445.936
-25591.094
-23328.158
-22342.022
-20411.853
-23200.185
-18121.809
-24154.95
-7273.3986
-10875.364
-2489.6843
-6572.1186
-1520.7301
-2894.9399
935.58573
805.78923
2835.6156
2441.0933
9644.7366
4692.641
4839.4731
16486.379
-3329.1378
17312.43
22744.771
19429.555
26288.887
24866.664
28235.09
28451.704
32341.744
31398.869
34540.699
38199.779
33688.708
37391.774
46092.793
13770.162
44739.876
53551.132
52268.809
52873.585
56312.61
56501.854
60576.793
59868.201
63835.744
60758.406
70543.929
61945.829
63504.956
80374.126
44491.001
74780.362
91244.808
79324.508
90993.885
86197.575
93055.517
91342.906
95659.879
94424.706
96074.167
97811.365
95975.082
95702.477
105532.3
69530.353
109100.21
99521.492
107633.71
99536.913
109792.07
108323.08
112351.4
112719.97
115345.98
115956.75
123044.42
110453.64
117662.94
134262.74
95807.955
130607.57
144494.79
127535.55
137841
131119.62
138504.62
136748.2
138314.29
139139.25
140365.8
142760.72
144235
134389.68
159547.98
93926.737
160544.64
175887.81
164975.45
169004.55
179476.57
177895.34
180642.27
190687.7
187855.26
192903.38
182240.29
181207.59
186492.92
188008.81
165584.64
182307.74
153720.4
139743.15
140256.24
146426.51
160098.98
153336.87
150174.97
144167.77
144441.63
147522.19
149931.4
153603.62
170887.5
159369.96
142459.88
139658.89
160474.17
171513.65
175199.62
192475.82
186906.44
174845.93
199712.12
196510.61
190777.45
182198.54
178020.25
168820.14
152821.06
109202.25
109293.71
118468.95
120702.99
124640.06
129449.38
133055.54
139364.87
143476.37
137474.46
135600.38
127911.28
132253.57
132692.11
139376.01
100102.47
113073.59
114286.24
122467.74
131759.49
127592.19
133222.04
133525.23
128257.52
135026.52
130569.65
133080.3
129905.04
117789.23
120119.07
99285.696
109421.92
111657.62
112166.97
115452.4
117380.49
117968.21
118741.81
119116.89
116621.76
118356.32
117544.21
113001.26
113257.74
109065.71
107628.35
118374.33
119090.85
124770.57
126991.51
129544.58
131496.45
131898.32
132580.78
133817.83
129971.04
128676.87
123076.16
121700.15
118452.75
107808.54
110667.01
111768.59
116974.6
119265.81
121821.11
121651.16
122812.89
123853.83
122320.93
122620.08
120556.05
117638.47
116324.86
112208.67
107795.44
115525.19
116448.39
119311.02
122125.71
125015.84
125865.09
126672
127491.78
126606.56
124771.2
124742.04
121955.18
119181.67
120375.17
110671.65
111484.76
115283.96
115575.19
119604.72
119640.63
121060.65
121964.71
121704.8
121381.55
120416.95
119987.63
117954.62
116626.31
114582.41
108898.68
115290.91
115860.04
119491.43
120453.85
123624.26
123203.3
124510.32
125791.46
123444.57
124016.19
122472.14
121338.18
119722.32
117146.72
111838.73
112021.8
114383.5
114402.94
116907.08
117074.85
118779.21
118954.86
118232.41
120201.04
118658.9
119442.75
117935.58
117559.64
116560.08
109962.64
113947.38
114067.56
117128.83
118194.74
120265.14
120115.72
122171.69
122442.27
121732.57
123000.97
122327.25
121718.83
121247.53
121282.59
112072.63
111902.82
113690.19
114155.75
115945.9
115605.05
117532.91
118349.33
118816.88
119324.54
119695.24
119444.14
119545.76
119057.87
118985.42
111669.55
112605.29
112801.01
114896.2
115428.45
117415.74
117649.56
119040.18
119549.93
120070.39
120279.82
120818.08
120229.31
120434.89
120573.11
111630.7
111536.51
113280.74
113009.81
114915.24
114826.5
116034.33
116300.41
117247.69
117094.73
118054.35
118234.39
118327.36
118803.2
119412.4
111408.83
111783.15
112934.94
113391.26
115170.74
115176.69
115119.54
118072.34
117776.73
118610.36
119274.91
119578.7
119546.9
120459.04
120425.49
111717.15
111340.77
113256.69
112437.38
113917.81
113542.13
116015.76
115023.22
115985.96
115970.13
116319.35
116995.48
116756.93
117218.04
117393.52
111847.02
111671.96
112694.42
112793.84
114279.14
114745.6
114852.74
116289.49
116320.49
117102.11
117959.7
118639.13
118858.35
119882.41
120403.61
112295.45
112250.19
112878.52
112962.21
114343.49
114300.71
115407.45
115788.24
116173.26
116562.81
116780.21
117281.15
116394.94
118500.48
117929.41
112318.71
112509.21
113532.85
113573.42
114678.94
114559.57
115172.49
116080.94
116138.51
116863.57
118042.97
118201.19
118203.9
119302.33
120031.86
113329.06
113422.27
114004.15
114010.23
115135.59
115332.27
116474.74
116722.53
117408.43
117865.18
117276.25
118903.19
117729.27
119368.74
119308.36
114299.06
114110.05
114990.17
114776.19
116272.46
115980.45
117360.34
117553.62
117652.05
118042.11
117915.53
119183.59
118338.59
120828.6
120636.5
114717.3
115493.27
115698.92
116217.44
116786.55
117211.08
118154.44
118271.57
118693.31
119943.56
119884.46
120702.62
120137.35
120896.5
121219.94
116464.76
116335.82
117184.5
117279.84
118397.67
118217.63
119032.01
119519.45
119911.22
119651.7
120628.5
120606.32
121807
121731
122437.21
117267.06
117720.84
118312
118701.93
119493.66
119803.89
120698.99
120954.81
121362.03
122204.81
121052.66
123414.89
122602.22
123936.72
123106.63
118535.51
119059.34
119556.33
120188.17
121046.54
121027.51
122241.53
122026.76
122738.86
122640.91
122529.05
123197.35
123862.55
123092.33
124611.96
120516.24
120084.02
121284.97
121048.14
122361.68
122397.23
123263.97
123472.25
123894.81
124461.67
124816.63
125922.16
124026.47
126699.64
125344.69
120759.8
121446.52
122036.87
122825.52
123033.4
124016.22
124353.06
125026.74
125018.47
125509.45
125471
125884.21
125353.7
125414.19
126162.48
122801.46
122445.02
123434.21
123672.13
125020.27
125092.48
125863.65
126010.36
126625.13
126805.24
126992.9
127148.12
126898.69
128012.59
127146.12
122618.97
123758.72
124411.33
124726.96
125526.45
126073.54
126550.61
126987.13
127117.83
127492.48
127236.29
127756.82
127573.87
127337.81
127842.17
124635.21
124123.15
125317.32
125892.45
126649.11
126883.01
127516.8
127761.74
128158.85
128433.96
128110.79
128993.69
127807.45
128724.53
128520.85
124541.62
124592.96
125653.56
125960.45
126822.1
127112.99
127943.5
127837.76
128458.07
128623.89
128581.11
128853.86
128387.33
128290.75
128661.46
125228.7
124783.79
126001
126428.64
127118.35
127758.34
128022
128482.73
128520.31
128975.43
128649.76
129315.04
128504.93
128988.13
128584.93
124782.08
124755.3
125759.15
126080.57
126958.2
127143.69
127800.84
127857.32
128331.52
128395.9
128408.24
128621.34
128241.52
128021.23
128219.01
124831.83
124363.13
125536.85
125848.47
126610.49
126987.33
127501.35
127683.88
127982.28
128174.06
127981.37
128461.25
127756.95
127998.77
127692.77
123635.43
123853.17
124665.84
124775.72
125511.87
126109.73
126255.72
126750.09
126775.86
127146.59
126880.15
127309.79
126613.34
126883.25
126428.21
122886.99
123069.87
123656.03
124748.33
124559.4
125241.89
125485.46
125712.51
125927.11
126132.07
125904.48
126324.81
125839.91
125776.34
126212.76
122425.74
121600.96
122624.76
122656.48
123603.69
123419.81
124195.55
123997.96
124544.44
124387.41
124507.17
124862.06
124318.57
124492.03
124476.93
120849.38
120568.09
121249.24
121649.63
121880.16
122430.39
122581.57
122952.18
123061.61
123259.19
123141.83
123450.28
123054.92
123134.6
123060.37
119648.4
118927.81
119761.47
119828.58
120362.34
120461.95
120917.13
120940.79
121193.08
121317.94
121263.13
121589.16
121194.6
121355.99
121420.48
118254.13
117522.54
118246.21
118362.56
118693.77
119018.68
119290.41
119404.64
119676.5
119772.66
119734.49
120024.05
119685.62
119934.03
119853.42
116661.89
115903.39
116543.99
116520.68
116904.37
117034.95
117347.29
117438.57
117681.19
117795.5
117784.45
118061.17
117811.46
118044.93
118140.96
115358.57
114388.93
115017.99
114999.25
115320.25
115495.77
115816.19
115856.33
116131.7
116229.16
116221.84
116523.9
116256.02
116587.05
116549.8
113840.49
112892.32
113439.38
113333.82
113617.56
113790.47
114021.57
114092.15
114342.76
114440.11
114454.45
114740.76
114548.06
114848.88
114967.87
112621.54
111497.65
112052.33
111894.43
112242.45
112361.1
112628.92
112674.11
112938.86
113039.48
113057.72
113371.78
113147.44
113539.34
113551.07
111313.45
110235.35
110707
110560.34
110815.34
110978.79
111180.9
111237.81
111483.77
111572.51
111597.53
111880.03
111735.66
112057.87
112172.28
110289.08
109063.52
109615.41
109380.68
109707.86
109850.11
110071.38
110134.93
110383.62
110478.23
110501.19
110811.93
110635.75
110965.99
111047.17
109198.36
108099.25
108564.86
108378.19
108648.63
108829.09
109012.7
109081.5
109291.25
109402.27
109413.43
109685.49
109566.98