/*--------------------------------*- C++ -*----------------------------------*\
  =========                 |
  \\      /  F ield         | OpenFOAM: The Open Source CFD Toolbox
   \\    /   O peration     | Website:  https://openfoam.org
    \\  /    A nd           | Version:  6
     \\/     M anipulation  |
\*---------------------------------------------------------------------------*/
FoamFile
{
    version     2.0;
    format      ascii;
    class       pointScalarField;
    location    "1.33";
    object      p;
}
// * * * * * * * * * * * * * * * * * * * * * * * * * * * * * * * * * * * * * //

dimensions      [1 -1 -2 0 0 0 0];

internalField   nonuniform List<scalar> 
625
(
691292.39
-899278.17
8454.8885
9669.876
1077476.6
-2017504.3
8752.0025
2145.6187
505701.23
21537.969
-61717.952
-13177.766
4901.8445
7569.8118
286087
313185.74
304644.71
308327
271955.82
268179.29
245344.17
226295.67
217513.69
192903.85
180604.03
165418.84
149191.96
135772.74
120989.69
108795.02
92830.465
83478.365
68789.733
56140.325
44774.377
29820.416
19636.866
-318731.77
-204513.26
-280182.61
-219294.23
-206983.73
-205155.26
-177392.67
-167896.37
-155138.44
-140900.95
-129664.84
-115182.55
-106872.13
-93031.116
-83440.535
-73504.82
-62856.777
-54662.748
-44364.468
-37326.211
-27207.293
-18499.02
-7230.4144
660552.25
-124011.59
-254887.57
-374209.48
-474770.69
-346794.15
-306561.95
-365765.73
-267746.9
-261440.07
-244177.15
-226257.28
-215418.71
-186343.23
-177296.22
-154154.22
-140383.6
-123518.81
-107250.07
-93291.726
-77986.01
-63915.713
-50393.744
-35919.62
-23433.944
-7145.3627
7980.6366
3827.3946
-5048.3053
25724.123
33005.309
41296.837
53181.843
65470.376
76643.605
88846.233
100981.38
113718.56
127280.44
139611.94
156584.08
167960.46
184728.16
189412
227447.98
232967.79
239408.04
291975.88
263341.45
336488.5
264494.78
309449.07
712336.55
666353.57
662670.37
-1044836.8
-1103655.5
-1091893.9
17052.785
16877.501
19855.641
-4095.1837
3163.4794
-1025.0101
181394.54
195700.12
200192.48
178381.94
169428.77
168938.42
149430.18
146280.02
132525.75
122496.71
115010.43
104325.89
94448.768
85548.896
76795.904
66927.524
58955.379
50940.325
40940.61
35786.014
26127.739
16306.25
11353.685
-11870.771
1844.0748
-15318.267
5498.3941
-7199.1084
-868.25286
-1685.8163
1883.4716
445.88192
2027.4825
2783.4298
2775.4568
3146.7059
4641.1487
3826.2386
4395.3853
4598.8644
4118.3175
3833.0149
4017.0234
1688.11
5717.0533
5051.63
-197211.8
-157647.55
-149475.53
-124163.89
-147656.69
-112815.43
-114443.05
-102002.57
-93022.734
-84232.32
-75750.353
-68928.3
-60289.213
-54030.499
-47355.475
-40634.788
-35027.494
-28503.77
-23661.092
-16717.763
-11505.087
-7808.2834
-51.941225
462289.19
386450.86
391323.56
-28571.989
-19666.139
-71465.17
-41358.885
-101542.08
-209595.86
-486597.74
-489364.63
-529473.63
-384579.52
-375512.98
-376305.22
-317455.64
-310652.48
-338016.13
-251491.69
-263769
-276390.3
-249158.62
-262493.61
-285501.46
-226500.16
-224260.29
-241158.56
-213070.37
-221560.21
-240365.22
-195988.62
-195776.02
-215171.43
-181355.36
-182118.08
-197194.33
-164645.42
-164635.03
-183184.71
-148528.39
-150260.6
-165219.85
-136476.86
-136859.85
-150312.78
-120858.98
-121687.75
-134956.34
-108259.74
-108921.08
-120384.45
-95888.479
-96126.52
-107303.37
-83585.927
-84203.732
-92987.531
-72451.879
-71881.389
-80510.921
-61010.884
-61630.459
-68318.056
-50824.648
-49880.853
-55260.296
-40245.524
-40013.231
-44599.004
-28421.961
-28272.709
-31639.424
-19989.492
-22277.569
-23049.349
-12430.625
-8643.4558
-11314.356
-17726.853
-18592.457
-19267.352
3472.4208
3427.3264
6165.2681
10419.084
12570.116
11584.503
370818.08
328273.87
334412.2
342840.75
312662.15
336488.01
359009.16
302490.37
305206.68
307080.28
270794.42
289007.24
299947.12
276204.33
267635.01
284021.29
238806.24
248522.01
258904.03
231681.83
237470.64
247460.95
213887.3
212153.81
227759.9
197389.2
201856.84
206901.65
181908.81
186301.77
194240.05
166736.07
167610.28
175695.33
151237.34
154813.83
158866.64
138146.23
139342.7
143698.82
124894.39
125414.38
128096.78
111942.73
112419.82
112872.37
99535.014
99213.141
98601.84
87599.515
87410.822
85110.751
75899.523
75367.311
69709.192
63966.312
63414.225
58129.855
51544.183
53375.512
45467.411
40810.872
41478.739
32933.175
32269.665
30973.8
28324.279
28886.619
30343.4
144941.44
192871.54
149668.21
167402.11
150284.07
145453.02
141429.01
121226.63
120273.33
106437.19
101149.93
90150.564
81740.991
75248.371
66470.108
60676.034
52896.101
46736.736
40040.859
32437.016
25437.763
16809.95
4995.5179
-53522.843
-10410.663
-11850.147
7283.3457
11785.027
8705.8181
10053.461
14590.336
6339.4625
12526.61
10940.532
10318.28
11211.33
9750.5473
10605.912
10510.62
10217.437
11353.956
10054.921
10804.808
11202.627
9132.4765
7276.5189
-143601.45
-146288.31
-195079.69
-175404.47
-171153.1
-175936.47
-151006.53
-148736.23
-130165.11
-122694.69
-112650.03
-100981
-92668.782
-81338.45
-73200.616
-63420.633
-54550.142
-45980.841
-38040.181
-28707.791
-21930.478
-12263.011
-9479.8075
240982.06
270172.24
219130.88
230095.03
225158.46
185512.99
165957.38
166996.41
179848.95
153991.92
188138.19
146294.87
176742.16
142775.59
143209.79
130365.38
148199.04
139802.46
135780.96
143006.85
121044.62
129971.76
123024.92
118049.25
111554.65
116186.96
112356.66
109607.85
112748.13
97107.14
98415.957
99504.698
92601.593
88784.564
93076.255
84780.291
83677.31
83624.587
77559.661
74729.014
75907.846
70589.104
67537.798
67438.039
63446.5
59726.281
60896.156
56576.357
53676.048
52874.311
50188.46
45488.493
46001.619
43069.009
38451.902
37943.436
37160.755
31961.308
33992.366
31210.157
23266.331
23348.219
21967.076
17584.105
15808.22
18438.216
6266.7984
2587.5318
3158.2421
-27856.869
-55839.135
-59645.461
-2680.7242
-264.16926
-20479.008
17462.606
2001.4487
-18410.113
21175.103
-1092.1989
-30340.302
15304.908
7284.0927
-1293.0174
16159.06
16400.658
-15121.026
27210.788
11928.964
-10069.087
12744.384
14776.452
-6331.5167
22882.321
18133.657
-8289.9439
20776.963
14829.667
-4695.1713
18196.568
15231.744
-4794.0263
19777.468
17224.393
-3003.6894
18929.793
15723.366
-2547.4526
17916.176
15179.067
-1106.4863
16438.754
15521.19
364.1618
16410.159
14939.088
588.99407
14917.576
13500.449
2173.9695
13093.781
13447.051
1988.3767
13275.966
11284.702
4817.731
12160.128
11177.208
2080.2459
9862.636
4956.5054
4086.0794
9977.1951
10330.669
6060.141
8991.249
9356.7018
9550.4899
-195317.46
-242748.51
-285467.52
-135402.52
-120957.51
-191209.31
-131148.49
-207789.26
-207599.9
-171576.15
-155301.41
-181736.62
-127486.95
-161978.55
-171083.49
-121305.53
-153271.81
-165691.12
-119593.52
-140086.37
-150668.71
-103179.36
-131942.35
-146202.78
-94254.023
-122263.96
-132125.45
-88530.933
-113254.55
-120653.17
-78949.154
-101379.59
-110675.55
-70157.511
-91962.7
-99346.85
-62639.297
-84956.484
-89952.196
-56177.652
-74466.562
-79242.279
-48174.924
-66740.766
-69644.944
-42465.635
-58239.118
-61479.668
-36014.658
-50963.249
-51701.477
-30560.272
-42234.831
-43280.41
-24173.558
-35637.68
-35795.353
-19541.581
-28151.941
-26473.243
-14525.128
-21384.85
-19393.918
-6602.2159
-9897.2187
-5283.3566
-1675.0623
-7614.9035
-7270.497
)
;

boundaryField
{
    free
    {
        type            calculated;
    }
    fixed
    {
        type            calculated;
    }
    traction
    {
        type            calculated;
    }
}


// ************************************************************************* //
