/*--------------------------------*- C++ -*----------------------------------*\
  =========                 |
  \\      /  F ield         | OpenFOAM: The Open Source CFD Toolbox
   \\    /   O peration     | Website:  https://openfoam.org
    \\  /    A nd           | Version:  6
     \\/     M anipulation  |
\*---------------------------------------------------------------------------*/
FoamFile
{
    version     2.0;
    format      ascii;
    class       pointVectorField;
    location    "1.33";
    object      u;
}
// * * * * * * * * * * * * * * * * * * * * * * * * * * * * * * * * * * * * * //

dimensions      [0 1 0 0 0 0 0];

internalField   nonuniform List<vector> 
625
(
(0 0 0)
(0 0 0)
(1.6449271 -0.043764162 0.14702354)
(1.5670114 -0.42964806 0.12458579)
(0 0 0)
(0 0 0)
(1.5752732 -0.46839238 0.12292694)
(1.653122 -0.082918901 0.14599653)
(0 0 0)
(0 0 0)
(0 0 0)
(1.6248867 -0.14092392 0.1405382)
(1.6051826 -0.236303 0.13572916)
(1.5863993 -0.3321369 0.1301057)
(0.0049205327 0.016753648 0.015524731)
(0.016522434 0.034352717 0.016461699)
(0.037749407 0.050836767 0.019131795)
(0.068315819 0.06664978 0.020984837)
(0.10492767 0.079790367 0.023878027)
(0.15077867 0.091271475 0.026958194)
(0.20182132 0.10047818 0.030937889)
(0.25957785 0.10699687 0.035169385)
(0.32281343 0.11188583 0.040278036)
(0.39093579 0.11385624 0.045336648)
(0.46369621 0.114054 0.051235792)
(0.54057476 0.11186798 0.057348391)
(0.62101285 0.10766837 0.06385067)
(0.70476982 0.10148134 0.070667549)
(0.79132906 0.093480669 0.077756003)
(0.88039231 0.083590198 0.085130973)
(0.97162042 0.072350982 0.09256103)
(1.0646223 0.059188258 0.10038967)
(1.159266 0.045033935 0.10797949)
(1.2548952 0.029468667 0.11592794)
(1.3517188 0.012599322 0.12387983)
(1.4490446 -0.0049014876 0.13166498)
(1.546429 -0.023733389 0.13986135)
(-0.0033920445 -0.011843418 -0.018610614)
(0.0100073 -0.025027325 -0.013986291)
(0.02940579 -0.041048644 -0.015084859)
(0.056477177 -0.056062929 -0.011422364)
(0.089646192 -0.069428287 -0.008684386)
(0.13177779 -0.086813946 -0.004474789)
(0.17766977 -0.10085018 -0.00073486433)
(0.23104044 -0.11743114 0.0044228204)
(0.28909385 -0.13405215 0.0093492666)
(0.35242345 -0.15070408 0.015187858)
(0.42033756 -0.16865763 0.021198838)
(0.49241285 -0.1865461 0.027725941)
(0.56850723 -0.20533688 0.034569633)
(0.64794173 -0.22446449 0.041718298)
(0.73066609 -0.24405914 0.049221946)
(0.81614674 -0.26411975 0.056910254)
(0.90417641 -0.28448117 0.064903657)
(0.99440354 -0.30510524 0.072995535)
(1.0865709 -0.32600126 0.081378688)
(1.1803518 -0.34687664 0.089719531)
(1.2756117 -0.36793878 0.098371445)
(1.3718163 -0.38870327 0.10690908)
(1.4689127 -0.40929901 0.1155686)
(0 0 0)
(0 0 0)
(0 0 0)
(0.0034456992 -0.0089007544 0.012806295)
(0.014830439 -0.037714512 0.01640349)
(0.035817037 -0.046915907 0.014322159)
(0.06160555 -0.066048247 0.014570208)
(0.098119326 -0.086966678 0.017492592)
(0.13821666 -0.10093313 0.017573511)
(0.18548575 -0.12098703 0.021248788)
(0.23879999 -0.13867928 0.023496091)
(0.2970147 -0.15777199 0.027409126)
(0.36056544 -0.17705727 0.031558949)
(0.42832973 -0.19610404 0.035881464)
(0.5006341 -0.21661694 0.041089882)
(0.57652162 -0.23648775 0.046390912)
(0.65607362 -0.25739675 0.052206253)
(0.73870789 -0.27826028 0.058371819)
(0.82417881 -0.29943388 0.064805643)
(0.91218567 -0.32084128 0.071561651)
(1.0024143 -0.34228322 0.07854349)
(1.0945484 -0.36377953 0.085712735)
(1.1884261 -0.38524541 0.093062522)
(1.2835452 -0.40646526 0.10051192)
(1.379979 -0.42760334 0.10807733)
(1.4770205 -0.44816925 0.1156797)
(1.5948791 -0.37069359 0.12870633)
(1.6129685 -0.2752611 0.13457699)
(1.6330063 -0.18041545 0.14079968)
(1.5548224 -0.062870833 0.13685801)
(1.45673 -0.043960903 0.12801899)
(1.3591998 -0.025863813 0.11912181)
(1.262253 -0.0085293511 0.1101325)
(1.1662017 0.0077393063 0.10120196)
(1.0714057 0.02287613 0.092297836)
(0.97811496 0.03686003 0.083504059)
(0.88665985 0.049376454 0.074835255)
(0.79736966 0.060524667 0.066333497)
(0.71055687 0.070008252 0.058031707)
(0.62657585 0.077765022 0.049984539)
(0.54590924 0.08376099 0.042198755)
(0.4687083 0.087639193 0.034734609)
(0.39573756 0.089894782 0.027513228)
(0.32705373 0.089536484 0.021127709)
(0.26385839 0.08680373 0.014586762)
(0.2055049 0.08312033 0.0085200536)
(0.15328315 0.075959451 0.0036074308)
(0.10831448 0.066946642 -0.0016185892)
(0.06950958 0.055696461 -0.0052422796)
(0.038699061 0.044557219 -0.010159776)
(0.015934319 0.02843215 -0.011187742)
(0.0074350311 0.013661402 -0.010352099)
(0 0 0)
(0 0 0)
(0 0 0)
(0 0 0)
(0 0 0)
(0 0 0)
(1.568876 -0.43972859 0.12392471)
(1.5711321 -0.44945949 0.12385557)
(1.57294 -0.45921365 0.12337964)
(1.6474022 -0.053059797 0.14680506)
(1.6495067 -0.063018049 0.14639719)
(1.6515558 -0.072583999 0.14621158)
(-0.0026933036 0.0098906427 0.011036049)
(0.00934796 0.019833163 0.0092900192)
(0.030620296 0.028911502 0.011853582)
(0.059738298 0.036782556 0.01340839)
(0.096460749 0.043327388 0.016314001)
(0.14142745 0.048032628 0.01970187)
(0.19155952 0.050862495 0.023478695)
(0.24872366 0.052105192 0.028004332)
(0.31068 0.051353395 0.032881524)
(0.37812564 0.048582748 0.038202994)
(0.44993803 0.044321392 0.044064658)
(0.52582954 0.0380116 0.050212168)
(0.60545534 0.030164742 0.056751291)
(0.68837916 0.020667125 0.06361443)
(0.77419061 0.0096051528 0.070764358)
(0.86259838 -0.0027849667 0.07811808)
(0.95322203 -0.016604623 0.085730424)
(1.0457217 -0.031591075 0.093506355)
(1.1399366 -0.047554275 0.10129201)
(1.2352976 -0.06475642 0.10944403)
(1.331926 -0.08274603 0.11721679)
(1.4290766 -0.10127624 0.12535635)
(1.5268478 -0.12116001 0.13325292)
(-0.0062478167 0.0026955862 0.0011292326)
(0.007601297 0.0038794594 0.00050315984)
(0.026905629 0.0056843741 0.0028270707)
(0.055653609 0.0066727669 0.005085636)
(0.092152634 0.0054491213 0.0081138981)
(0.13509785 0.0037696652 0.011571375)
(0.18476133 0.00083016486 0.015467709)
(0.2405335 -0.0041409558 0.020266682)
(0.30139792 -0.0098382673 0.025033667)
(0.36773987 -0.017430841 0.030678279)
(0.43823128 -0.026117007 0.036514654)
(0.51315868 -0.036349516 0.042817999)
(0.59169773 -0.047847828 0.049486332)
(0.67364246 -0.060564206 0.056461693)
(0.7585585 -0.074497274 0.063708972)
(0.8461388 -0.089481297 0.0712264)
(0.93601894 -0.10548629 0.078955625)
(1.0279174 -0.12231647 0.086810511)
(1.121576 -0.14005183 0.094883433)
(1.2164996 -0.15837164 0.10295682)
(1.312837 -0.17732327 0.11114289)
(1.4098017 -0.19675255 0.1194157)
(1.5078224 -0.21655416 0.12755233)
(-0.0078264261 -0.0049689334 -0.0062263111)
(0.0066241125 -0.010175985 -0.0057730709)
(0.024449556 -0.014994735 -0.0048121793)
(0.053867071 -0.022419855 -0.0023367683)
(0.088714619 -0.030841081 0.00041642819)
(0.13090312 -0.038056663 0.0037339761)
(0.17984546 -0.048676751 0.0082234385)
(0.23397361 -0.058429249 0.012517654)
(0.29396536 -0.069805959 0.017700097)
(0.35885282 -0.082291301 0.023297167)
(0.42822929 -0.095329803 0.029160383)
(0.50197359 -0.1097787 0.035614756)
(0.57931406 -0.12483556 0.042282299)
(0.66021795 -0.1408969 0.049325577)
(0.74409041 -0.15778583 0.056665297)
(0.83077738 -0.17532711 0.064233185)
(0.91978284 -0.19361343 0.072036299)
(1.0110112 -0.21246067 0.080035712)
(1.103911 -0.23174898 0.088131533)
(1.1985159 -0.2515372 0.09646579)
(1.2942583 -0.2715589 0.10468172)
(1.3910806 -0.29173069 0.11313275)
(1.4886308 -0.31199061 0.12154596)
(0 0 0)
(0 0 0)
(0 0 0)
(0 0 0)
(0 0 0)
(0 0 0)
(0 0 0)
(0 0 0)
(0 0 0)
(0.0044364575 -0.0049997339 -0.00871039)
(0.0070832258 -0.0072730955 -0.0023975709)
(0.0069747008 -0.0053687874 0.003565128)
(0.019665921 -0.031120469 -0.0075548024)
(0.020252749 -0.032888325 -0.00078864306)
(0.02027518 -0.032664343 0.0080807583)
(0.036390555 -0.042336903 -0.007861323)
(0.039567519 -0.043162117 -0.001090451)
(0.040635158 -0.048530332 0.0077996312)
(0.063169409 -0.059148405 -0.0046175497)
(0.066294803 -0.063330091 0.0014480202)
(0.065718834 -0.063896777 0.008481901)
(0.097673458 -0.075835318 -0.0024999643)
(0.10022438 -0.078591368 0.0029612696)
(0.10121963 -0.083742145 0.010649659)
(0.13730821 -0.090968987 0.00080897431)
(0.14056787 -0.095322573 0.0065322394)
(0.14112105 -0.098998804 0.012599046)
(0.18439058 -0.10765171 0.0048479038)
(0.18734821 -0.11315952 0.0091543666)
(0.18823222 -0.11803975 0.016047258)
(0.236894 -0.12429686 0.0090129792)
(0.23976733 -0.12885043 0.013393613)
(0.24089788 -0.13480382 0.018896521)
(0.29472044 -0.14106038 0.013921861)
(0.29761427 -0.1475977 0.017795505)
(0.29859076 -0.1531756 0.023103982)
(0.35786869 -0.15902029 0.019128689)
(0.36057817 -0.16518173 0.022697804)
(0.36197479 -0.17198229 0.02754946)
(0.42524228 -0.17660237 0.024874694)
(0.42807456 -0.18380615 0.028098264)
(0.42931225 -0.19068222 0.032389832)
(0.49726615 -0.19554756 0.03102796)
(0.49987156 -0.2029522 0.033851804)
(0.50132747 -0.21032078 0.037817494)
(0.5728699 -0.21429275 0.037479736)
(0.57551544 -0.22208784 0.040019439)
(0.57698438 -0.23004547 0.043574589)
(0.65214221 -0.2338796 0.044341446)
(0.65468084 -0.24216354 0.046590848)
(0.65619909 -0.25027365 0.04966606)
(0.73454978 -0.25371863 0.051495116)
(0.73702583 -0.26220042 0.053399356)
(0.73863042 -0.27081559 0.056165122)
(0.81978525 -0.27394794 0.058881087)
(0.82222744 -0.28280557 0.060568241)
(0.82384239 -0.29159345 0.062926836)
(0.90757365 -0.29448989 0.066575327)
(0.90993168 -0.30353076 0.067972219)
(0.91162047 -0.31262092 0.069961989)
(0.99758074 -0.31524323 0.074406987)
(0.9999247 -0.32452454 0.07555955)
(1.0016375 -0.33379876 0.07724589)
(1.0895101 -0.33616361 0.082466699)
(1.0917757 -0.34556736 0.083399017)
(1.0935388 -0.35500848 0.084695301)
(1.1831372 -0.35713821 0.090611918)
(1.1853894 -0.36671363 0.091308541)
(1.1871962 -0.37626851 0.092312373)
(1.2780679 -0.37810792 0.098930198)
(1.2802447 -0.38766285 0.09938029)
(1.2821179 -0.3973104 0.10003886)
(1.3741922 -0.39887891 0.10724103)
(1.3763842 -0.40861128 0.1074973)
(1.3783008 -0.41835889 0.10782897)
(1.4711077 -0.41954211 0.11562435)
(1.4731606 -0.42914222 0.11557222)
(1.4752561 -0.43879065 0.11565487)
(1.6274407 -0.15041643 0.14094514)
(1.629574 -0.16020144 0.1407536)
(1.6314539 -0.16999373 0.14076941)
(1.6073025 -0.24598458 0.13561889)
(1.6094616 -0.25591466 0.13516814)
(1.6111927 -0.26546427 0.13488923)
(1.5885399 -0.34215746 0.12963114)
(1.5907572 -0.35185719 0.12942686)
(1.592632 -0.36143408 0.12910484)
(0.01204372 0.013202536 0.0074938741)
(0.011491742 0.014539608 0.002521058)
(0.012222668 0.013572669 -0.0033808553)
(0.021854565 0.031369382 0.0092167838)
(0.023467478 0.030666527 0.00097247957)
(0.022686874 0.028909501 -0.005621107)
(0.045245165 0.048848996 0.010982564)
(0.044855809 0.046912747 0.0053687984)
(0.045115999 0.045865443 -0.0034763649)
(0.073250539 0.062582272 0.01353124)
(0.075042759 0.060409729 0.0070313086)
(0.074654595 0.058956373 -0.00016403232)
(0.11135821 0.076492323 0.017023413)
(0.11328036 0.073308309 0.010228472)
(0.11273858 0.070492718 0.0040839315)
(0.15643287 0.086492173 0.020101196)
(0.15733507 0.082383231 0.015220842)
(0.15779634 0.079623431 0.0083290876)
(0.20731184 0.095100191 0.024660844)
(0.20907818 0.090975905 0.019303589)
(0.20945621 0.087053863 0.013259976)
(0.2650751 0.10128932 0.029312946)
(0.26670614 0.096367847 0.024422227)
(0.26682528 0.092326898 0.018870587)
(0.32772543 0.10570534 0.03474371)
(0.32944496 0.099622445 0.030011988)
(0.33022351 0.094802089 0.024971212)
(0.39596721 0.10690901 0.040242948)
(0.39755633 0.10093161 0.036366305)
(0.39833707 0.095426946 0.031222029)
(0.46840525 0.10661631 0.046479949)
(0.47001286 0.10012159 0.042457213)
(0.47087478 0.094158248 0.038042161)
(0.5449626 0.10404062 0.052958445)
(0.54670031 0.096994151 0.049399335)
(0.54773214 0.090555258 0.045321473)
(0.62522274 0.099448294 0.059831298)
(0.62699463 0.091960423 0.056528143)
(0.62806011 0.085077364 0.052776169)
(0.7087338 0.09293266 0.066973474)
(0.71050323 0.08504772 0.064001974)
(0.7116817 0.077744866 0.060592747)
(0.7950783 0.084589068 0.074462425)
(0.79690643 0.076336121 0.071721451)
(0.7981915 0.068635435 0.068653008)
(0.88394666 0.07450716 0.082063123)
(0.88580748 0.06593752 0.079657087)
(0.88713596 0.057908156 0.076899963)
(0.97496636 0.062934406 0.089992893)
(0.97683719 0.054062672 0.087801535)
(0.97830797 0.045655905 0.085367788)
(1.0678221 0.049715762 0.097955459)
(1.0697692 0.040653191 0.096022726)
(1.0712616 0.032037031 0.093920004)
(1.1621941 0.035400677 0.10603785)
(1.1641413 0.026062632 0.10447592)
(1.1657788 0.017114862 0.1026162)
(1.2577584 0.019670108 0.11440555)
(1.2598495 0.010259864 0.11277292)
(1.2615169 0.0010787069 0.11133944)
(1.3544317 0.0028523247 0.12245901)
(1.3564952 -0.0068144034 0.12126345)
(1.3582005 -0.016077373 0.12011513)
(1.4515649 -0.014917775 0.13047966)
(1.4535896 -0.024314994 0.12974033)
(1.4554568 -0.033930735 0.12882886)
(1.5494113 -0.033304127 0.13905045)
(1.55136 -0.043061243 0.1382604)
(1.5533767 -0.052875897 0.13772402)
(-0.0011174618 0.004595987 -0.0060830385)
(0.011525165 0.017262776 -0.0056718376)
(0.031405493 0.020107302 -0.0019745808)
(0.062826288 0.026364803 -0.0003067395)
(0.099961987 0.02984647 0.0037950755)
(0.1447899 0.032049281 0.007632444)
(0.19618861 0.032566051 0.012274543)
(0.25302655 0.031245034 0.017520301)
(0.31584032 0.028305245 0.023017092)
(0.3832948 0.023611767 0.029162317)
(0.45528793 0.017225278 0.035502474)
(0.531474 0.0090732931 0.042410163)
(0.61127774 -0.00046874554 0.049549496)
(0.69435004 -0.011552008 0.056991699)
(0.78038298 -0.024036439 0.064752433)
(0.86894679 -0.037727814 0.072670951)
(0.95975383 -0.052610537 0.080851347)
(1.0525064 -0.068548563 0.089130671)
(1.146827 -0.085391969 0.097577175)
(1.2425471 -0.10309039 0.10606062)
(1.339295 -0.12154236 0.11466307)
(1.4366458 -0.14051785 0.12321974)
(1.5348276 -0.16044901 0.13201408)
(-0.0051280467 0.0019649192 0.0013409596)
(0.0081136753 0.0011239799 0.001356702)
(0.030500465 -0.0028963631 0.0038483165)
(0.060045425 -0.0032701765 0.0049233632)
(0.096457214 -0.0077617097 0.0077398346)
(0.14072522 -0.012117066 0.011462535)
(0.19044811 -0.017568901 0.014881488)
(0.24660678 -0.024718752 0.019622494)
(0.30795754 -0.032945823 0.024441103)
(0.37426167 -0.042404263 0.029841358)
(0.44506052 -0.053200311 0.035637359)
(0.52015511 -0.06533515 0.04187354)
(0.59873474 -0.078394993 0.048409075)
(0.68083889 -0.092805141 0.055351848)
(0.76585569 -0.10800008 0.062517061)
(0.85350592 -0.12429499 0.069982429)
(0.94353439 -0.14128553 0.077674844)
(1.0355319 -0.15911131 0.085493584)
(1.129283 -0.17748151 0.093563051)
(1.2244614 -0.1964351 0.10162732)
(1.3208557 -0.21580955 0.10983304)
(1.4178929 -0.23552692 0.11804016)
(1.5164391 -0.25559746 0.12628966)
(-0.006513834 -0.0065126252 0.006459401)
(0.010761386 -0.011083238 0.0071527874)
(0.030788075 -0.025854532 0.010718936)
(0.058439856 -0.029856986 0.0097696823)
(0.095303905 -0.043604496 0.013569424)
(0.13768208 -0.053931506 0.015600417)
(0.18643233 -0.065304188 0.018639184)
(0.24147354 -0.079357821 0.022722059)
(0.30121779 -0.091836331 0.026615506)
(0.36648159 -0.10705862 0.031523336)
(0.43587009 -0.12204327 0.036594602)
(0.50968311 -0.13827261 0.042140103)
(0.58706764 -0.15522532 0.04815781)
(0.66803007 -0.17277356 0.054389445)
(0.75192869 -0.19113639 0.061061039)
(0.83861009 -0.20995053 0.067950192)
(0.92770681 -0.22932736 0.075111765)
(1.0188945 -0.24909818 0.082476848)
(1.1119251 -0.26918757 0.090045095)
(1.2065328 -0.28953107 0.097662584)
(1.302297 -0.30993781 0.10551604)
(1.3992875 -0.33044991 0.11320048)
(1.496744 -0.35070703 0.12125266)
(0.0023940822 0.0046510265 0.005035104)
(0.0021253093 0.0049109484 0.0021011983)
(0.0039687523 0.0038267743 -0.0026645494)
(0.015865971 0.018724786 0.0046723017)
(0.018144728 0.017794093 0.00063629626)
(0.016137336 0.017162777 -0.0031781283)
(0.037409004 0.025730851 0.0070438417)
(0.037239567 0.023999127 0.0038535699)
(0.037654216 0.021936671 0.00029348443)
(0.065787372 0.033902444 0.0092917105)
(0.067887172 0.031632344 0.0055831763)
(0.067554462 0.028729234 0.002164615)
(0.10317401 0.03926184 0.011734465)
(0.104806 0.035971836 0.0089723356)
(0.10488637 0.032762325 0.0059969039)
(0.14718203 0.043163094 0.015806143)
(0.14889851 0.039685824 0.01295647)
(0.14866626 0.035593786 0.0097997346)
(0.19736145 0.045562556 0.019776902)
(0.19923433 0.041456536 0.016879981)
(0.19984867 0.036805529 0.01440205)
(0.25403422 0.046317005 0.024331176)
(0.25614012 0.040946563 0.021948912)
(0.2563316 0.035731278 0.019195684)
(0.3159521 0.044464238 0.029645262)
(0.31785995 0.039322877 0.027215511)
(0.31847361 0.033751493 0.025052811)
(0.38297447 0.041694054 0.035076157)
(0.38509142 0.035528446 0.032820952)
(0.3856958 0.029189439 0.030669401)
(0.45458216 0.036726991 0.041199571)
(0.45651275 0.030108762 0.039217662)
(0.457286 0.023596637 0.037120729)
(0.53016876 0.03002666 0.047551282)
(0.53223456 0.023029213 0.045624323)
(0.53315176 0.015839688 0.043798212)
(0.60960173 0.021822692 0.054290368)
(0.6116475 0.014312068 0.052567205)
(0.61260696 0.0067791112 0.050891254)
(0.69227332 0.01191042 0.061391447)
(0.69428683 0.0040719898 0.059804205)
(0.69537049 -0.0038803738 0.058238239)
(0.77785231 0.00061435724 0.068701027)
(0.77991018 -0.0076359188 0.06724968)
(0.78108326 -0.015936113 0.065864968)
(0.86608356 -0.012103234 0.076296728)
(0.86810682 -0.020643929 0.075020962)
(0.86934523 -0.029248594 0.073732477)
(0.9564493 -0.026072003 0.084087969)
(0.95849964 -0.034889527 0.082913249)
(0.95987363 -0.043814578 0.081792762)
(1.0488399 -0.041232442 0.09202166)
(1.0509094 -0.050321327 0.091023755)
(1.0522897 -0.059402836 0.089994905)
(1.1428223 -0.05730868 0.10008604)
(1.1448105 -0.06659318 0.099199649)
(1.1464078 -0.076022205 0.098356364)
(1.2379723 -0.074575583 0.10831863)
(1.2401932 -0.084075531 0.10755899)
(1.2417207 -0.093499013 0.10671513)
(1.3343755 -0.092535484 0.11629361)
(1.336738 -0.10203672 0.11588918)
(1.3382478 -0.11166503 0.1152278)
(1.4315261 -0.11120502 0.12469849)
(1.4335549 -0.12071765 0.12428902)
(1.4352756 -0.13059238 0.12364032)
(1.5292342 -0.13065229 0.13287545)
(1.531192 -0.14046546 0.1324974)
(1.5331528 -0.15027242 0.1321889)
(-0.0020340611 0.001565048 -7.3962911e-05)
(-0.00084588625 0.0016992365 -0.00097629134)
(0.0006218373 0.0017254856 -3.8933501e-05)
(0.012605052 0.0031798233 -0.0012136748)
(0.014315303 0.0028095687 -0.00067152465)
(0.012547012 0.0012046152 -0.00015976043)
(0.033590824 0.0035223244 0.0018541679)
(0.034817208 0.0013480614 0.002946788)
(0.035020799 -0.00028687417 0.0027463534)
(0.061153437 0.0031969454 0.0032256017)
(0.064652527 0.00017509874 0.0039380631)
(0.063735224 -0.0029497463 0.0039887923)
(0.098306199 0.0017915679 0.006820179)
(0.10072197 -0.0020579977 0.0080905547)
(0.099831794 -0.0044304906 0.0068385559)
(0.14080802 -0.00089521265 0.010325404)
(0.14341153 -0.005302652 0.010724584)
(0.14336 -0.0091333892 0.010699252)
(0.19028732 -0.0043226488 0.013946264)
(0.19310498 -0.009748336 0.015039101)
(0.19291316 -0.014128089 0.013967823)
(0.24593326 -0.010173344 0.01913342)
(0.24856289 -0.015836588 0.019701322)
(0.24840118 -0.020077321 0.019099731)
(0.30646817 -0.016188511 0.02373999)
(0.30903862 -0.022539817 0.024285034)
(0.30943806 -0.028127636 0.023606676)
(0.37260676 -0.024389099 0.029500814)
(0.37522829 -0.031286601 0.030161592)
(0.37553173 -0.036926502 0.029421528)
(0.4428776 -0.033670581 0.035424708)
(0.44530383 -0.040898441 0.035842508)
(0.44588308 -0.047259044 0.035094168)
(0.51751795 -0.04427083 0.041711324)
(0.52002794 -0.052002739 0.042126046)
(0.52073068 -0.058770253 0.041449586)
(0.59586605 -0.056162805 0.048508538)
(0.59828847 -0.064263558 0.048865564)
(0.59903845 -0.071487736 0.048106378)
(0.6775282 -0.069259633 0.055479485)
(0.67990922 -0.077750448 0.055716588)
(0.6808328 -0.085348443 0.055045406)
(0.76227388 -0.08346474 0.062833905)
(0.76461429 -0.092207354 0.063056851)
(0.76563523 -0.10023052 0.062360673)
(0.84961587 -0.098733272 0.070389628)
(0.85191261 -0.10777879 0.070517813)
(0.85305102 -0.11610152 0.069851991)
(0.93931795 -0.11490431 0.078189258)
(0.94158491 -0.12414731 0.078268203)
(0.94281388 -0.13283351 0.077632006)
(1.0310576 -0.13195365 0.086124753)
(1.0332571 -0.14144978 0.086151533)
(1.0346391 -0.15031065 0.085523703)
(1.1244688 -0.14974599 0.094250029)
(1.1267006 -0.15930562 0.094197576)
(1.1281289 -0.16852102 0.09366298)
(1.2193877 -0.16815967 0.10237513)
(1.2214725 -0.17808529 0.1023531)
(1.2230863 -0.18724081 0.10176322)
(1.3156466 -0.18713421 0.11081912)
(1.3174016 -0.19698094 0.11038176)
(1.3193605 -0.20641252 0.1100917)
(1.4122272 -0.20667395 0.11892335)
(1.4143695 -0.21630513 0.11881878)
(1.4160381 -0.2260289 0.11825045)
(1.5101338 -0.22630482 0.12720856)
(1.5123677 -0.2362576 0.12693718)
(1.5143408 -0.24578464 0.12664548)
(-0.0020100758 -0.0039318366 -0.0029711168)
(-0.0020939355 -0.0036918227 -0.00029231197)
(-0.0019395786 -0.00368779 0.0026721965)
(0.014224027 -0.010283328 -0.0031417198)
(0.016201927 -0.0087195576 0.00054346157)
(0.0150439 -0.011126481 0.004003844)
(0.032081035 -0.017533163 -0.0018183301)
(0.03439638 -0.022200359 0.0022717452)
(0.035270003 -0.023460689 0.0062553043)
(0.061467334 -0.026644112 7.5780795e-05)
(0.062938444 -0.027087565 0.0035235414)
(0.063486436 -0.030306703 0.0064795095)
(0.095718013 -0.034211724 0.0032262239)
(0.098269784 -0.038746832 0.0064961022)
(0.099037642 -0.041203323 0.0096950583)
(0.137917 -0.043811427 0.0058009192)
(0.13999492 -0.047498088 0.0090429353)
(0.14093894 -0.051767279 0.011606788)
(0.18631601 -0.054374169 0.010355094)
(0.1885011 -0.058848316 0.013284593)
(0.18967491 -0.062716115 0.01561146)
(0.24022945 -0.064773817 0.014414645)
(0.24237851 -0.07017746 0.016763456)
(0.24376648 -0.075430517 0.019201511)
(0.29989019 -0.076979993 0.019319146)
(0.3020304 -0.08249103 0.02185079)
(0.30355295 -0.088115695 0.023977802)
(0.36441631 -0.089792958 0.02485265)
(0.36664965 -0.096174693 0.026904092)
(0.36814731 -0.10219798 0.028742658)
(0.43350439 -0.10342295 0.030469629)
(0.43561268 -0.11012752 0.032377394)
(0.43733614 -0.11685208 0.034158563)
(0.5069238 -0.11823912 0.036790798)
(0.50910223 -0.12541555 0.038530418)
(0.51080583 -0.13251071 0.03996972)
(0.58396625 -0.13366457 0.043299484)
(0.5860681 -0.14134842 0.044757145)
(0.58787112 -0.14892622 0.046118882)
(0.66458808 -0.15012517 0.050189787)
(0.6667037 -0.15806271 0.051518755)
(0.66850909 -0.1660099 0.05267054)
(0.74819152 -0.16721921 0.057399963)
(0.75026057 -0.17555597 0.05851551)
(0.75216041 -0.18390737 0.059500198)
(0.8345905 -0.18504353 0.064829755)
(0.83668816 -0.19369098 0.065788188)
(0.83854855 -0.20231916 0.06660613)
(0.92339301 -0.20351822 0.072524896)
(0.92541238 -0.21237923 0.073297897)
(0.92737273 -0.22130734 0.073987881)
(1.0143197 -0.22247 0.080385276)
(1.0164133 -0.23163359 0.081026608)
(1.0183561 -0.24076399 0.081530326)
(1.1070602 -0.24193528 0.088402709)
(1.109065 -0.25120878 0.088870988)
(1.111043 -0.2605118 0.089277911)
(1.2013809 -0.2617034 0.096609186)
(1.2034766 -0.27119204 0.09689793)
(1.2054996 -0.28064801 0.097132428)
(1.2968918 -0.28172206 0.10469665)
(1.2989015 -0.29124841 0.10493372)
(1.300932 -0.30075801 0.1050813)
(1.393541 -0.30191438 0.11307641)
(1.3956075 -0.3115819 0.11319849)
(1.3977582 -0.32118101 0.11315139)
(1.4907827 -0.32214074 0.1213552)
(1.4928347 -0.33163613 0.12126324)
(1.4948773 -0.34146637 0.12103196)
)
;

boundaryField
{
    free
    {
        type            calculated;
    }
    fixed
    {
        type            calculated;
    }
    traction
    {
        type            calculated;
    }
}


// ************************************************************************* //
