/*--------------------------------*- C++ -*----------------------------------*\
  =========                 |
  \\      /  F ield         | OpenFOAM: The Open Source CFD Toolbox
   \\    /   O peration     | Website:  https://openfoam.org
    \\  /    A nd           | Version:  6
     \\/     M anipulation  |
\*---------------------------------------------------------------------------*/
FoamFile
{
    version     2.0;
    format      ascii;
    class       pointScalarField;
    location    "1.45";
    object      E;
}
// * * * * * * * * * * * * * * * * * * * * * * * * * * * * * * * * * * * * * //

dimensions      [1 -1 -2 0 0 0 0];

internalField   nonuniform List<scalar> 
3969
(
4768.8771
1811.6902
-520201.45
-250182.13
4571.7222
4765.3369
-375128.25
-778232.74
2420.9217
1488.9534
790.6019
547.10238
768.0775
1236.5488
2209.3867
-287941.65
-284003.33
-282548.5
-281208.88
-280908.73
-279888.17
-209033.32
5543.6491
4074.3251
4202.3309
4483.4426
4598.7709
4843.4651
4763.9001
5335.0567
4731.8841
5193.5485
5183.9908
5122.8347
5294.1206
5067.4956
5386.0509
4955.3805
5332.8728
5077.2955
5260.2613
5142.9407
5105.5431
5146.2571
4960.261
5107.3592
4747.6409
4983.4489
4769.9744
4753.0918
4842.8541
4779.8478
4759.9143
4904.219
4869.7879
4953.2421
5188.2597
5087.1735
5782.9406
5146.2855
6461.4793
5209.7055
6912.2855
6376.4684
6403.0646
7977.037
6507.2936
6625.22
9052.3717
5981.7893
-121.62833
6532.5806
3200.0476
6221.0743
5020.9003
6411.7458
5999.5161
6140.2963
6904.1482
5593.5204
6978.4852
6271.4723
6612.1779
6374.2228
6327.0489
6869.3472
5889.7919
6887.1564
6142.043
6362.3933
6335.6052
5980.7486
6165.7083
5868.0682
6244.3723
5326.1584
5640.8294
5419.662
5038.9578
5318.1975
4966.8576
5089.7466
4925.4691
5008.5035
5010.1856
5162.697
5008.2642
5096.1772
5231.0115
5369.8766
5238.3617
5452.0312
5211.5649
5552.3667
5822.48
4835.3735
2191.951
1272.8027
590.33666
998.49442
909.09969
1901.1294
2566.0716
8537.6387
9243.304
-1146.1673
8753.8945
6063.7602
5973.2083
8766.902
5319.3565
10536.855
3774.9662
10644.596
5475.5345
7042.2014
7018.2206
5955.1504
7371.558
6238.4645
6876.7845
6728.1252
6547.8219
6693.0986
6409.2643
6518.325
6154.9675
6311.4984
6436.0663
5787.3727
5782.51
5759.986
5617.7982
5341.0864
5207.2652
4937.7635
4837.1578
4502.0682
4379.332
5434.9063
3807.3149
4049.2222
3876.0399
3439.7821
3610.0559
3088.1924
3061.8111
2888.4178
3246.1498
1026.8369
-597793.51
-501739.21
-601871.32
-569361.43
-569511.86
-510153.33
-619787.11
6608.1152
5310.4027
7195.8925
6873.7859
6821.3311
6592.2803
6447.1287
6209.8449
6141.3364
6206.3003
5945.0514
4990.8122
5727.8735
5694.9184
5725.5002
5740.2427
5757.2582
5845.9567
5861.1469
5968.0719
5995.6503
6117.7711
6108.9545
6116.911
6152.6232
6195.852
6239.5009
6139.789
6292.8008
5949.2053
6293.5256
5860.2818
5989.5579
5335.7957
5606.5764
5584.2497
5247.8713
5020.3161
5130.16
4635.6225
5140.1193
3349.4064
5132.8791
2362.7411
4580.9495
2017.4663
6208.0743
3395.3227
2947.8156
2718.8717
2708.4853
2638.4304
2569.5074
1978.2596
242.61754
698.30321
302.0559
366.54577
820.98779
1800.8223
557.86227
-281465.07
-281651.01
-281054.95
-281326.03
-281236.24
-280831.25
-281954.26
-584798.19
-585273.56
-585111.35
-584862.39
-584534.75
-585200.85
-583562.22
4621.7611
2454.0053
3166.6809
3034.4117
2618.1934
3277.7468
2577.1876
3193.7323
2794.9057
3241.7186
3137.9176
3226.5085
3478.1644
3574.7519
3673.3086
3817.2488
4061.8214
4010.0962
4171.5362
4192.323
4271.5358
4267.4946
4438.4476
4279.6488
4502.8151
4555.7136
4511.6403
4704.5735
4703.3373
4706.4917
4835.5678
4884.8121
4879.0585
5040.6177
5012.1054
5079.4286
5286.9508
5191.2727
5395.0228
5282.1228
5905.3475
4816.0155
6433.2064
5334.7086
5978.2015
8248.5656
7109.8436
2249.8721
1086.4058
1520.5726
1183.7689
1281.2697
1487.6892
1043.6778
1476.164
1024.3484
1191.0936
1074.9998
1199.721
1231.7676
1039.8895
1228.8639
1229.9501
1382.5155
1407.3797
1547.8974
1785.2211
1882.3335
2294.4197
2202.545
2675.9896
2734.9775
2953.9655
3007.7036
3234.606
3197.8675
3434.8879
3588.9971
3688.0986
3887.4825
4066.7687
4205.0039
4365.0709
4765.365
4103.8063
5558.1138
4335.1311
6000.0656
5123.421
6819.4787
5895.07
8263.232
6671.9328
8367.301
1377.6855
126.49741
859.84419
416.92004
361.92826
486.36185
470.3097
798.23441
643.79775
1282.4558
1037.0358
1434.6385
1327.8014
1680.6205
1549.4517
1712.4432
1854.0405
1952.5631
2303.1604
2266.2256
2440.5872
2174.4354
2553.4638
2536.2126
2652.0564
2716.5515
3194.7358
3205.6753
3616.6787
3884.1247
4030.3463
4363.9873
4530.503
4810.5163
4945.2831
5422.3313
5215.8164
6347.6056
6296.5259
6509.7917
7403.8841
6467.8007
7872.4965
6772.8551
7676.0488
6671.5224
8718.0435
583.00016
-164.13618
174.905
-21.108616
-153.3063
181.32269
-316.06177
-126.14855
-266.9732
-480.71815
-578.55035
-197.22254
-587.12718
-28.111078
-429.93931
395.74339
-46.64924
708.79342
380.14433
858.56318
991.99215
1813.8107
2132.8704
2446.9219
2601.8013
3142.5111
3144.2658
3371.6514
3596.0616
3700.1986
3884.0967
4094.5448
4158.9563
4396.9887
4584.9591
4503.8924
5045.4248
4697.6594
4472.2324
4427.8923
4809.5133
4385.5337
5890.8427
4603.5616
7156.05
5752.5222
9168.5947
880.34316
-240.80415
462.90834
-243.38716
-18.596962
42.49889
-257.48993
247.73607
142.43335
130.12783
653.68186
406.91112
695.49228
703.74997
957.46611
908.57456
1098.6735
1194.3078
1325.8451
1593.6301
1862.7472
1655.6007
1901.0321
1874.876
2341.6319
2342.2961
2571.9478
2891.7822
3105.7152
3359.1144
3588.6836
3847.2888
4062.9503
4368.4151
4426.1238
4963.4826
4904.5602
5421.3732
5523.5403
6633.7887
6317.7536
7277.4509
7244.9081
7408.7909
8153.8465
6992.0047
9695.3971
1770.158
267.46219
1261.9065
1041.4488
1400.0286
1546.7783
1589.2388
1586.7934
1942.6693
1470.2234
1964.8302
1834.6261
2120.7351
2239.5359
2151.624
2531.7742
2371.9846
2731.8137
2768.5466
2914.9205
3010.6871
3582.1823
3135.5873
3515.9294
3641.5388
3623.2582
3873.1315
3939.4571
4017.604
4205.9427
4283.0788
4377.5976
4524.1525
4608.1299
4763.6055
4837.8534
5019.7348
4975.3989
5397.5659
4951.1682
5236.6436
5544.8295
5205.1112
5820.1774
5874.4595
5376.5756
8610.4779
2472.0972
-426.71423
1508.1446
322.86488
1117.9231
715.09255
1272.7325
612.06961
2220.7571
591.54679
2917.9325
1315.0029
2706.2669
2158.1943
2924.8459
2792.0162
3164.7552
3329.3981
3397.0301
3647.9141
3798.7984
3677.7936
4222.5646
4085.613
4113.4856
4380.6986
4562.1824
4701.9612
4865.0443
4999.8501
5055.5336
5296.719
5308.8415
5603.8733
5547.1641
5862.5881
5852.5717
6409.6888
6321.8053
6704.7161
6965.9493
7292.2106
7506.8992
8422.1381
7872.6453
9382.0419
10332.582
1141.3454
837.37362
489.30297
300.14011
460.73198
449.61773
730.3675
873.74201
564.99595
315.73805
253.91028
327.49858
478.16277
586.42975
352.02922
34.169168
-155.74261
-163.78081
-143.10212
-72.924468
23.634423
310.77116
125.41221
140.56779
109.19426
183.37847
406.69399
561.92501
153.56787
10.888942
-74.27927
-81.116209
-73.162694
88.704513
327.83851
456.28988
-107.10572
-45.273871
-279.2934
-149.49837
14.262226
507.73011
339.39098
630.20063
-152.52098
-225.32273
-108.67249
-29.50202
886.27272
6450.6413
7716.7056
7909.9508
8866.9086
9082.1755
9115.9338
8148.6489
4340.0652
5112.2044
2931.1486
2220.294
4894.5372
3761.9404
6569.8284
3707.1323
3690.3192
6027.7437
4891.5986
4312.7806
4174.3134
6596.1056
5761.2762
6821.8739
4589.5852
5409.9667
5741.8624
7172.0073
5246.5361
6106.5592
6161.6153
7688.0428
6660.2291
6736.481
6696.787
8635.5278
6746.631
5629.023
4404.2754
5545.3063
4845.4164
5991.9385
5609.7491
6452.7547
6586.3713
8186.0856
7469.4215
8193.2836
8544.3275
9244.8083
7125.3279
6605.1487
5586.0512
5902.4079
5149.1103
5017.2678
5595.7564
7441.2335
6656.5872
7437.6899
7344.3296
8732.7043
9079.4441
10327.306
6441.4733
6648.5151
5862.078
7737.7742
5487.2315
5527.6981
6081.4238
8219.3969
7112.0405
8137.2739
6309.3883
8107.3077
7883.8148
8338.8913
6302.7706
7517.1065
5811.2224
7978.6411
7446.5161
5365.7431
7586.4558
8292.5989
6541.7453
7811.3428
6503.858
6650.3371
8036.2503
6725.2806
6749.6057
7086.6803
7551.4251
6422.0919
8542.3174
6131.7719
8111.5081
7834.7437
7634.7192
6845.613
7403.8241
6641.8325
6745.7573
6696.4954
7602.8711
6440.4869
7936.9999
6271.145
7885.5664
6727.9005
7855.7601
7040.3589
7605.4141
7093.1317
6736.293
7328.538
6474.3695
7280.8947
7814.8315
6481.0892
7576.0165
6551.2308
7388.1611
6561.1268
7256.2374
7192.5562
6838.575
7457.1729
6271.9529
7396.6219
6296.1589
7480.7836
7390.7857
6655.439
7246.4478
6491.5011
7288.8315
6323.8003
7212.001
7389.9006
6493.0304
7392.385
6248.5191
7228.4203
6106.1965
7268.4243
7169.8857
6505.6849
7204.9152
6159.451
7127.6671
5945.4319
7140.6067
7188.7764
6397.3416
7053.9258
6149.8623
7040.4672
5965.9807
7178.5333
6927.7066
6346.7312
6922.8514
5971.932
6844.0031
5699.7883
6841.5017
6615.754
6613.2439
6354.979
6302.7451
6634.1867
5719.8307
6877.5597
6384.7468
6527.1725
6073.09
6211.8936
6056.6947
5796.6436
7008.722
6398.6339
6326.5427
6352.9702
5843.2111
7095.9208
5988.1683
7013.8486
6810.6707
5936.7864
6673.7827
5668.0189
6307.2804
5233.445
6808.605
5963.0934
6267.9893
5771.3099
5986.6819
5915.5426
5780.2117
6373.514
6510.8594
5548.1398
6302.9644
5577.4982
6002.5106
5447.57
6240.5058
5845.7153
5843.6018
5791.8822
5513.5405
5714.0533
5328.1003
5942.6732
6059.5884
5532.1847
5794.3198
5386.8882
5639.0543
5209.5299
5809.1437
5754.0286
5476.2283
5612.8659
5254.6577
5469.3465
5066.424
5671.6201
5714.6762
5370.3786
5557.6126
5190.9825
5382.4523
5004.7027
5530.9891
5554.6489
5314.4869
5403.6347
5080.5839
5196.4232
4877.1592
5312.4356
5571.8161
5299.1545
5439.7181
5051.9358
5195.1016
5216.1444
5458.341
5220.6739
5204.4517
5198.8643
4972.955
5383.9662
4297.9613
5304.9294
4994.7002
4867.2468
5017.5326
4807.7251
4785.7114
5313.7207
4972.0394
5261.5549
5158.1627
5212.228
4754.6378
5030.9446
4428.9225
4779.2567
5294.6131
5051.2878
5102.3981
4912.338
4838.174
4582.7354
4924.0797
5043.927
4847.2568
4953.9673
4551.267
4647.7821
4437.5396
4532.4031
5153.3157
4804.2701
5030.2521
4709.34
4749.0462
4484.3219
4407.1544
4825.5988
4617.5648
4726.8003
4380.1968
4431.8278
4180.4255
4220.7603
4654.1109
4471.6697
4578.4436
4415.5458
4257.8429
4339.1862
3836.7008
4427.7624
4448.6223
4500.3624
4250.7105
4397.0146
4112.3424
3658.0237
4806.4741
4869.2492
4844.4235
4867.2938
4625.7448
4698.0822
4242.36
2498.1509
2988.1454
3068.872
2992.7806
3181.3117
2881.6933
2620.0117
-350002.75
-385261.93
-384696.44
-384517.3
-384705.68
-384162.59
-384248.86
-381579.62
-382196.4
-381819.03
-381840.39
-381558
-411269.64
-380874.75
-408236.63
-377618.71
-377261.38
-377220.76
-376830.67
-341647.93
-377476.04
-378973.36
-378433.96
-378992.88
-378567.37
-379014.33
-378322.75
-378849.2
-376753.42
-340791.5
-375178.29
-375362.95
-374525.34
-374589.39
-375151.99
-341215.39
-405185.56
-376077.7
-375642.23
-405632.99
-375272.05
-376073.08
-402249.91
-371621.75
-372298.16
-371739.29
-336810.66
-371537.31
-371515.77
5047.9611
5045.6765
4586.3507
4480.6284
4469.872
4755.5912
3886.4017
3652.2397
3122.5101
3208.8955
3640.4953
3081.3477
2791.1051
3158.4272
4862.6334
5114.6483
4666.1333
4283.242
5230.567
4383.1042
4990.6027
4435.7381
4276.6312
3948.4917
4490.0755
3755.4306
3355.6802
3583.3699
5766.6198
5378.569
5779.2205
5391.2928
5696.3308
5274.2437
5429.2954
4554.2109
4543.9709
3995.0675
3894.54
3809.2117
3146.4325
3906.993
6221.0189
5646.1663
5866.743
5859.7551
5779.1944
5802.5584
5787.6035
4928.6726
4780.678
4348.4925
4339.4109
4056.1744
3975.7816
4703.6776
6019.0505
5599.7663
5753.2987
5269.2795
5793.4137
4934.1917
5769.7453
5945.227
5173.5574
5143.8092
5035.8693
5001.6767
4933.4992
5476.7396
5848.7973
5455.1185
5584.538
5278.6268
5365.2976
4799.787
5398.9205
6009.4068
5550.2931
5224.112
5662.2767
5431.227
5649.3332
6104.5735
6047.0339
5620.392
5734.366
5273.0501
5593.8736
4771.2235
5596.0864
6005.2759
5593.2344
5384.7588
5588.4067
5517.5601
6143.5122
6467.4966
6323.1865
5763.7246
5548.3082
5768.9689
6115.8778
5189.2088
6297.0606
6224.2543
5676.2978
5897.4989
5231.5446
5942.5929
5483.3103
6025.5411
6307.2218
5943.2338
5879.7755
5862.9364
6142.4602
5532.8139
6559.6715
6413.1735
5678.7927
6064.4651
5611.0518
5927.3568
5569.8212
6260.1958
6330.0915
5893.8558
6018.5549
5587.558
6237.5642
5596.1583
6548.5608
6463.7778
5840.9155
5983.0309
5773.8927
6058.8049
5563.3837
6433.9764
6378.6936
5719.3869
6064.4676
5551.842
6107.1758
5604.7714
6540.9451
6486.8297
5916.2037
6025.4867
5700.6307
6138.1941
5558.5168
6539.4666
6372.7473
5637.9159
5932.2938
5550.6823
6023.7141
5508.5767
6560.8888
6467.7827
5802.7379
5941.3213
5640.873
6035.9595
5599.8938
6561.5475
6325.2527
5611.3154
5836.9062
5515.5697
5995.1574
5531.3152
6500.3915
6540.3092
5608.9036
5915.5966
5528.5662
6032.1374
5514.4406
6446.7676
6314.9524
5529.5928
5763.3997
5487.7255
5873.8117
5439.6692
6402.6684
6381.3346
5596.949
5772.3039
5504.6898
5966.478
5476.501
6457.0533
6375.2574
5420.4876
5788.4519
5442.7177
5835.1269
5411.492
6306.5548
6208.7275
5619.6846
5651.8733
5455.2148
5865.2208
5408.2048
6347.997
6373.9014
5451.9819
5693.1867
5490.7814
5837.1098
5383.8597
6308.4167
6248.6619
5547.6687
5679.4074
5481.8105
5774.0848
5416.4192
6282.9789
6303.8602
5571.8711
5680.1291
5542.5363
5835.7269
5434.1511
6265.4843
6340.2515
5603.5182
5690.6255
5641.9344
5750.3355
5538.3667
6320.9629
6388.9231
5724.9654
5808.9734
5682.2143
5784.3828
5619.5867
6218.2344
6409.198
5778.7148
5824.8201
5705.8662
5977.9883
6107.4943
6569.715
6877.4694
6016.7268
5904.3544
5934.1901
6232.6004
5197.0994
6543.5557
6455.6944
5781.7192
5985.8644
5768.176
6130.174
5925.8835
6534.5903
7000.7144
6812.5639
6386.0297
6466.8473
6290.7466
6054.6567
6848.8637
6851.0653
5869.2638
6105.0918
6209.6485
6244.111
6389.2893
6946.1019
7472.1303
7133.3769
6986.886
6831.7835
6753.6462
6503.4463
7076.3386
7426.3997
6783.9747
6559.3421
6943.2541
6710.6957
6883.8879
7262.2536
7326.9441
6510.997
6867.3671
6635.8518
6533.9933
6692.1373
7405.6617
7972.7515
8106.7236
7583.2477
7821.9183
7574.5004
7972.5735
7515.3616
7509.0827
6199.022
6488.8731
6259.9554
6430.1641
6429.9303
7061.9995
5134.118
5973.0687
5796.6534
6042.0505
5802.1458
6001.4779
6147.7449
8810.7345
7504.5532
7458.5616
7348.4069
7263.4117
7507.5689
7699.0013
4462.6895
2248.5231
1914.0744
2313.7974
2184.9374
3231.8898
2358.6661
3317.4228
2993.8112
3427.2076
4099.9209
3234.3661
4447.5955
3706.2922
4075.6657
4655.8499
4290.8232
4927.2509
4551.3921
5007.0501
4793.0458
4976.3376
4988.9412
4965.3376
4883.1149
4858.167
4791.0255
4847.7186
4781.2076
4719.625
4717.9793
4726.9954
4670.9016
4677.583
4743.4431
4538.4579
4746.861
4802.6013
4752.5982
4655.3692
4853.8514
4906.2986
5045.7962
5389.1842
5910.6127
7469.3525
7045.0842
2257.5794
2204.3538
532.13227
865.87014
2259.8043
518.20701
2106.662
1536.0055
1796.1608
2419.8437
1647.0811
2437.595
2353.2268
2469.4593
2888.8692
2646.9491
3036.648
2871.7193
3217.2974
3279.2518
3430.9351
3675.9172
3749.7483
3992.1994
4069.0656
4287.7888
4771.1129
4673.6619
4972.0513
5117.9632
5351.6628
5486.7112
5696.8934
5907.2468
6143.0351
6236.531
6586.1374
6697.2689
7188.2556
7117.754
7726.5621
7690.9048
8213.0561
7973.1954
9054.3922
6286.7671
9826.8686
1010.3122
390.45804
-370.47459
634.60115
-211.52892
706.23175
563.43381
416.90919
1159.4053
647.72754
1015.1632
1599.0206
1027.0665
1342.6089
1263.2607
1410.4661
1690.1224
1895.5001
1977.738
2220.2089
2355.7001
2503.8483
2704.7751
2757.7911
3050.5733
2963.5753
3443.2306
3212.8874
3646.4364
3735.6188
3919.6818
4026.115
4252.2257
4326.6453
4486.8212
4655.6877
4727.3043
5007.7396
5117.6495
5355.123
5520.5441
5852.0229
5881.4596
6721.0491
6302.3087
6912.7279
9912.2134
438.38678
794.6631
-834.17701
1059.9103
-1036.3558
1186.8718
-1346.32
889.60351
-679.01741
-70.951981
500.62071
-533.18424
386.6851
1180.1983
728.56228
1180.6418
1186.5215
1217.1906
1470.4803
1679.4274
1870.37
2122.2985
2322.2598
2792.6426
3068.5669
3611.888
3587.505
4080.5598
4205.8551
4436.3495
4644.0058
4918.609
5145.7107
5284.406
5651.7374
5743.493
6095.8388
6169.0638
6600.5874
6499.5927
7189.8532
6860.8696
7828.8169
7081.1549
8632.4919
6223.9786
10950.524
1258.5555
147.84193
470.90845
451.10931
12.874807
549.14128
-224.3771
1419.5765
-616.28129
1919.0385
-304.50182
1553.0004
769.07055
1110.1016
1097.5737
1294.4492
1454.1502
1787.0285
1966.7581
2214.8922
2373.3359
2502.0496
2863.8239
2834.5224
2771.8944
2632.2007
2958.3787
3093.8358
3277.8561
3551.0559
3791.1823
3981.6355
4147.8507
4417.078
4676.8122
4778.6648
5081.5959
5392.7615
5399.315
6007.6462
5951.4074
6578.6983
6536.9024
7340.7839
7271.4678
7474.0405
9800.5113
1775.2497
2407.979
-170.65141
2818.1889
5.8376633
1984.9327
2159.8343
416.79527
3204.913
1252.3181
1727.6021
2431.3298
851.06213
2455.1719
1623.2261
2062.1511
2102.7837
2156.4927
2346.1593
2390.4108
2520.7336
2586.4161
2833.3477
2730.3262
3524.5425
4143.3966
4345.8486
4461.278
4637.2415
4756.5299
4909.7385
4979.657
5103.0267
5283.3987
5364.322
5371.1243
5793.6027
5421.0115
6021.6304
5792.6556
6131.9956
6068.321
6524.4664
6282.3088
7154.0219
5976.1966
9542.182
5019.8865
367.62676
3127.5554
-97.570819
2321.7748
1491.4015
1539.9594
1551.9038
2647.5943
1683.0996
1741.6127
4280.0915
2192.9447
4579.6202
2884.598
4406.146
3749.1776
4158.3817
4263.4385
4314.6975
4455.7341
4519.8631
4687.65
4448.3009
5179.0912
4567.9398
4090.4714
4369.1493
4272.3166
4544.95
4659.2873
4786.7293
5019.9176
5250.9254
5283.9187
5504.2061
5780.1013
6326.1475
6372.326
6826.9546
7160.5503
7658.6216
8005.9446
8846.9538
8858.1366
10226.813
10173.18
4107.0264
3627.2416
3340.1638
3135.119
3026.6043
2614.772
2880.5538
3138.0565
3013.3253
2400.0799
2270.5463
1991.1521
2007.1939
2355.412
3037.8224
2914.5407
3062.725
2731.0571
2723.6873
2546.2779
2850.36
3572.222
3217.1836
3122.0761
3111.0416
2847.6208
2886.8855
2666.546
3302.2205
3064.2304
3489.7833
2568.8844
3155.6101
2392.6353
2669.8698
3583.6364
3548.0413
3102.2263
3734.7857
3256.1188
3345.7278
3565.8944
3579.5022
2948.847
3714.1183
2736.4239
3026.1005
2836.0086
2799.5776
3586.6193
3802.0052
3416.8748
3636.6729
3663.6518
3297.9272
3608.5862
3803.5745
3431.9595
3652.8348
3703.9686
3474.2859
3571.6735
3385.9316
3653.597
3705.6522
3619.0901
3375.3261
3405.3814
3325.4565
3272.928
3831.6263
3961.3011
3872.8227
4057.8557
4077.6531
4063.3982
4200.8874
4063.3887
3815.0547
4010.1219
3520.1691
3566.15
3494.7712
3408.0046
4098.6661
4203.8485
3926.7587
4106.7045
4316.6496
4101.6557
4326.8022
4388.069
4216.7607
4495.0368
4093.3427
4337.6861
3483.1947
4149.5356
4250.5994
4427.5772
3991.0774
4259.639
3940.9517
4430.1898
4136.116
4720.3635
4690.0657
4408.5807
4719.9655
4482.2997
4296.0812
4452.7224
4546.151
4497.4961
4334.5618
4569.8591
4238.3091
4351.2826
4383.6416
4707.1548
4767.6491
4551.7311
4756.5551
4553.9586
4818.9238
4757.9017
4829.4408
4736.5749
4547.7742
4799.1475
4642.5327
4630.6621
4569.4755
4831.9253
4859.9888
4632.4872
5004.3918
4663.1773
4909.4906
4914.0986
5048.1188
4879.3662
4801.3508
4994.5533
4799.5948
4935.3607
4849.6472
5018.8927
4824.3975
4778.8194
5067.6755
4842.3376
5071.4251
4954.4344
5249.5163
4926.2082
5032.1161
5127.6734
4971.5947
5000.4117
4985.339
5142.1491
4788.2021
4985.328
5167.4425
4976.1579
5134.9716
5109.8441
5424.3978
4908.0328
5165.6921
5270.3983
5046.2382
5023.978
5028.9464
5255.8791
4769.1677
5242.4047
5179.0078
5069.5153
5021.8
5242.434
5386.7869
4824.7104
5273.4754
5201.0278
5034.8357
5195.1164
5124.5428
5430.7326
4885.9133
5091.8744
5279.1958
5089.1263
5016.6767
5190.6437
5295.1011
4625.3595
5351.5921
5239.9319
5040.5351
5102.4098
5234.4297
5333.3015
4970.8232
5256.6265
5200.8625
5105.9378
5099.8587
5223.4295
5417.916
4771.2603
5188.5441
5316.28
5085.928
5102.0234
5215.174
5307.9287
4832.0764
5317.2205
5275.1614
5078.9083
5115.0745
5227.5521
5390.8756
4928.4337
5241.5263
5338.5383
5102.8768
5159.6817
5277.5992
5427.7724
4840.8945
5310.1202
5300.9613
5111.5047
5219.5453
5224.3596
5328.2994
5016.9102
5295.8168
5415.4914
5273.354
5232.2961
5254.8551
5683.7861
4972.8507
5345.6649
5453.9641
5114.801
5174.7996
5166.7845
5253.4997
4845.1786
5394.7611
5308.119
5358.3
5215.1583
5779.6207
5761.547
5081.4329
5508.3499
5826.5635
5133.8206
5606.5223
5086.0137
5184.8762
5353.411
5283.2757
5658.3861
5386.63
5382.1753
5622.4954
5877.1929
5199.3326
5466.5812
5801.8696
5263.2261
5678.3845
5336.4797
5512.4876
5605.3615
5565.0557
5970.6342
5614.4667
5659.5351
5464.8097
5534.4044
5019.2608
5125.2036
5652.5382
4991.9695
5653.6053
5529.0629
6401.0628
6086.7923
6447.1681
6496.1128
6405.4905
6468.9917
5691.1497
5493.1266
5444.9047
5095.8642
5884.8448
5250.706
5653.445
5581.6337
6588.5979
5814.8775
6850.4384
6687.0167
6614.0213
6846.2455
6244.2495
7955.3201
8898.1806
8347.4554
8880.3361
8456.1674
8749.7094
8189.5221
7908.3336
6801.8103
7486.443
7251.868
7322.2371
7226.3701
7210.3537
2139.9081
2199.7833
1760.4766
1749.3115
1342.2598
1422.5106
1097.7044
1503.7148
1587.7717
1280.4077
1446.7217
1409.3635
1625.6116
1576.5448
1619.4493
1271.9373
1217.4504
1041.927
1211.4523
819.78355
1397.9641
1578.4102
1811.4005
1702.0723
1949.7782
1419.8953
1756.4641
816.42333
2098.7864
1654.5674
2151.0782
1611.7383
2203.9187
1380.8875
1922.4853
1877.0202
1769.3044
1021.4739
1597.0016
738.70258
1245.3934
969.77428
2271.8114
1626.4677
2312.6002
1812.7648
2083.4432
1996.8982
1523.6417
2181.6516
2052.6437
1307.1531
1759.2876
1454.4397
1414.0177
1449.0851
2435.6841
1582.2919
1863.3915
1880.0844
1325.5755
1784.3753
1182.8444
2474.4687
1986.4806
1964.4791
1877.6063
2140.882
1875.5927
2062.134
2705.4362
1907.8118
1838.328
2115.4824
1464.2826
1789.4276
1276.049
2655.8305
1959.8334
1926.275
1918.9395
2090.4768
1939.4862
2055.8502
2843.5829
2024.966
2017.5106
2659.0772
1937.8826
2394.9437
1798.1529
2705.2673
1777.5769
2150.1228
2068.1081
1827.6635
2178.4814
2129.4782
2843.3206
2261.1102
2338.4641
2511.8744
2527.3872
2461.5591
2568.8983
3006.2376
1831.2156
2592.1384
2292.6692
2366.6855
2294.9839
2298.8555
2921.2346
2401.3484
2639.1881
2546.1602
2737.207
2552.5845
2890.9649
3285.9554
2416.8534
2771.9183
2732.012
2725.5573
2665.0452
2735.6529
3280.4211
2531.7451
2957.5785
2750.8661
3015.4591
2750.9371
2985.8823
3579.4986
2808.0886
3071.8009
3066.7004
3066.9302
2888.6527
3190.5233
3530.1699
2745.2932
3221.7182
3041.0904
3214.843
3136.3109
3261.5624
3747.9589
3266.6817
3431.0446
3349.7696
3526.6548
3151.8673
3487.4402
3773.7337
3130.2894
3398.4204
3456.3434
3372.4936
3398.5463
3671.1135
4066.6584
3490.1021
3735.7709
3551.0766
3639.8494
3782.7272
3897.117
3989.5189
3549.382
3789.5158
3551.6485
3711.1466
3748.9282
3814.6944
4258.5679
3849.2542
3824.6146
4035.3529
3618.0822
4263.91
4313.4947
4258.2703
3970.7101
4088.5527
3635.1951
4327.9036
4067.2548
4338.2839
4588.8995
3788.8637
4395.8755
4179.1882
4136.573
4486.5829
4489.7846
4607.3865
4341.1341
4736.3302
4021.6506
4338.6508
4726.6643
4501.7115
4976.1629
4493.6753
4548.4707
4338.1318
4581.3987
4854.0619
4673.0225
5050.1296
4426.3685
4870.3583
4520.9482
4647.0879
5006.0653
4846.5413
5180.3197
4833.2489
5066.6592
4752.0684
4803.1341
5299.2379
5007.9444
5475.7534
4886.1334
5192.1951
4808.1335
5004.5311
5444.481
5123.4421
5522.2091
5143.6795
5374.5523
5174.4736
5217.6292
5623.5784
5291.7664
5860.6233
5304.2218
5578.3024
5328.1601
5240.5118
5784.2232
5554.6889
5820.997
5367.5183
5769.5655
5466.9859
5502.7984
6090.5233
5682.1444
6319.7241
6079.3261
5980.8344
5945.9872
5547.3258
6464.208
5755.0145
6378.3733
5228.3821
6226.6045
5566.5384
6013.4043
6386.948
6042.7578
7060.619
6668.1927
6792.8831
6495.2041
6150.6404
6856.9474
6271.4796
6853.565
5392.4267
6632.6586
5842.5865
6361.7472
6860.9966
6451.2911
7371.956
7120.0577
7366.0271
7035.1293
6809.7595
7239.0612
6749.5443
7644.0468
6115.1428
7232.3065
6435.7147
6726.2524
7326.7395
6965.6755
7807.7047
7535.5109
7991.6959
7566.0272
7747.6014
7914.0052
7336.5423
7471.3186
6765.5246
7328.0327
6886.0767
6743.1326
6949.9861
6971.8975
9240.9217
8910.415
9287.8272
8819.9983
9010.9853
9455.213
9122.3695
6788.6919
6402.2607
6425.8301
6104.6141
6131.0295
5996.7218
5546.2104
9848.4839
8682.1675
9139.4943
8732.4893
8935.4941
8819.1147
9486.5705
1288.2018
1355.1675
1050.9216
977.26904
843.94635
845.99228
682.22786
348.77158
205.69059
50.020941
-50.056322
128.1952
-98.237768
247.48862
857.92567
334.74885
307.44718
174.14982
91.433054
-42.702083
347.82386
575.03409
705.58954
1100.1114
1216.7774
1128.0933
1276.599
710.28397
1243.3504
760.84225
786.5423
-153.57151
243.10057
-553.64405
370.81026
843.10877
156.54587
436.33417
497.48586
560.08135
847.0006
551.0848
998.62483
650.8867
1323.9436
888.43373
1239.5249
530.28571
839.16911
1041.2559
495.30785
512.86141
204.23575
119.81799
185.39169
263.50582
748.27497
636.81365
1168.9331
1091.9383
1510.3675
1031.2164
1028.8287
1246.1503
864.89169
874.39152
661.72892
478.45404
398.52815
439.4885
812.42883
714.14644
1061.1563
889.62029
1135.2894
814.34036
854.99551
1380.851
1030.5259
1198.3499
1121.1241
1153.1819
1020.1696
1041.3915
1164.498
810.15832
1548.5357
984.42164
1193.2059
766.23698
1114.9843
1509.6853
1404.8735
1934.9923
1160.5358
1719.6055
1184.6147
1430.1532
1930.1282
1396.2178
1593.0548
1526.9355
1243.1745
1417.9487
1305.9545
1972.1756
1710.953
1853.1765
1753.7244
1699.1149
1545.4186
1707.8066
2372.4668
1761.5392
1938.6116
2033.4614
1523.0075
1783.0923
1713.7241
2371.347
1762.7917
2219.4112
2033.1263
1821.8608
2014.8932
1985.0793
2740.6747
2137.0296
2338.7524
2283.9308
1963.363
2121.7957
2085.9988
2724.2707
2061.8017
2463.3658
2432.9784
2076.1722
2400.7693
2324.4721
3145.8042
2488.0523
2801.1271
2659.4229
2390.7875
2522.5965
2489.6476
3319.3246
2396.6172
2815.688
2868.8426
2340.2146
2760.6101
2700.3652
3687.8117
2677.4003
3341.8046
2833.4676
2784.7598
3007.4898
2924.1925
3780.3135
2825.6197
3406.5469
3152.1248
3177.2832
3055.3804
2879.6552
4180.0845
2961.7468
3714.1236
3429.1975
3455.8965
3197.6693
3379.0917
4333.5719
3141.4146
4072.5937
3329.7208
3797.7829
3384.4817
3167.7446
4701.2882
3387.531
4050.8968
3635.6661
4209.2806
3433.5626
3747.9967
4647.2475
3591.5528
4292.0784
4036.2716
4156.9994
3646.5574
3745.3496
5056.1765
3997.1635
4615.9893
3949.2127
4599.357
3877.5712
3990.2262
5221.0066
3997.0722
4453.8241
4240.7633
4719.5887
3874.6996
4165.4114
5324.682
4202.1692
4906.0041
4579.5482
4897.6994
4228.7656
4392.1907
5600.1244
4457.6147
5014.7646
4503.766
5016.1185
4297.0033
4442.4367
5715.5018
4611.8347
5087.3842
4849.877
5270.8863
4509.9882
4658.9784
5939.9646
4761.4623
5317.2421
4977.187
5280.3135
4626.6079
4845.5743
5994.5565
4893.0087
5471.5458
5086.9398
5490.4055
4976.5951
4866.0356
6354.0147
5347.7251
5738.8345
5265.0526
5771.1229
4968.8208
5112.9591
6228.999
5070.3452
5543.5192
5407.3263
5805.6696
5204.0444
5222.3486
6675.8843
5751.6229
6226.8997
5734.8153
6105.8495
5375.9436
5318.4993
6130.7112
5897.1635
5700.952
5853.1782
5995.6454
5573.6775
5537.4997
6665.8059
5940.0524
6117.4787
6034.0875
6313.2473
5882.9482
5688.4388
6638.261
6988.3092
6354.3163
6734.3979
6471.3248
6077.8973
5718.1168
6660.1266
5925.9281
5936.0881
6092.5764
6156.2556
6254.4794
6128.0027
6940.7372
7412.9969
6910.9521
7295.0025
6968.3845
6843.4178
5886.701
6984.6355
6628.1426
6259.0722
6596.4972
6300.6088
6539.7283
6557.2341
7361.4409
7243.2109
6909.7672
7402.8793
6922.5426
7778.3371
6649.636
7010.3277
6763.4719
6790.8007
7073.9177
6702.1306
7103.9104
5869.0403
9033.1849
8659.3445
8706.7438
8627.272
8762.8322
8852.5837
8867.7484
406.75373
443.95503
247.28343
313.44982
198.44085
275.566
32.715082
80.59586
285.06257
373.56143
603.56439
574.44547
715.6386
808.52593
-60.653292
-646.213
-776.36066
-798.75459
-763.80573
-703.30488
-703.66297
348.16705
780.11997
1192.0719
1379.2798
1396.9588
1351.2608
1054.3446
105.89519
-460.4581
-790.53882
-1259.1711
-1331.7103
-1304.4612
-704.18849
489.70705
492.04626
672.78191
1088.3975
1249.3027
1222.6287
908.55755
86.484363
-278.65728
-592.56427
-627.73897
-781.73553
-1003.0727
-390.84644
364.47019
385.00094
302.78088
638.06569
399.75772
1075.9632
609.89546
405.59766
-49.124499
368.83081
-415.14067
599.52684
-322.85919
231.26364
176.39422
406.89872
-190.41555
260.05353
-89.48728
446.07624
453.2113
522.66239
-291.61048
1037.3672
41.772617
1023.2808
760.76504
431.91114
247.481
564.51249
302.30472
-351.21759
490.93425
89.014108
800.46193
547.17929
-123.60339
633.42779
340.29266
1131.001
649.63834
329.24237
407.5474
555.97292
378.84758
298.33002
245.06154
648.43889
633.05848
480.15199
91.534676
1083.0801
161.12845
1010.4471
624.88253
632.49055
676.23395
402.8037
883.71035
512.29754
606.89957
878.01641
691.63758
706.71558
175.14969
1155.2873
449.20326
968.35215
1030.2541
918.05703
1001.289
805.18655
1327.1307
750.14416
1033.5054
1198.8378
1035.6305
976.38959
610.89211
1431.9395
732.86645
1303.1083
1408.0764
1190.2473
1386.186
1128.5552
1708.6231
1092.9482
1566.6998
1464.6465
1438.3153
1470.3385
995.97799
1838.1155
1183.9876
1576.1623
1770.5042
1639.5897
1817.8137
1483.5179
2193.2498
1261.2834
2006.8442
1973.5324
1841.1627
1923.685
1691.9805
1985.9994
1766.0759
2163.5207
2149.3008
1956.1053
2337.3514
1874.8019
2270.8167
2079.5516
2117.2475
2346.031
2457.5647
2511.7828
1990.1574
2658.0561
1972.0459
2029.6188
2651.4721
2319.8478
2885.8151
2338.0458
2610.8421
2423.7818
2401.1512
2778.3755
2985.4906
2937.3283
2380.5545
2942.7969
2702.1625
2340.9725
2981.1376
2857.1112
3272.0658
2592.0445
3328.6118
2711.065
2858.0154
3177.691
3311.6219
3525.2
2822.3956
3278.2862
3099.2362
2717.6983
3299.8636
3486.1644
3565.4312
2920.7006
3579.9184
3309.5409
3138.2854
3705.4625
3708.1853
3810.8473
3252.1524
3783.076
3491.1039
3207.6413
3677.9517
3914.3272
3998.099
3454.5102
3929.0893
3728.0659
3397.2553
4065.1314
4090.0725
4158.6083
3546.4982
4107.2445
3862.8058
3662.541
4183.3179
4374.8295
4307.7415
3803.5253
4361.7379
4197.8818
3810.7644
4495.6269
4423.1966
4543.7357
4089.4714
4572.5033
4270.8474
4077.6455
4577.9207
4720.2686
4548.7245
4097.3255
4473.0028
4564.9203
4221.372
4778.3523
4869.9168
5009.2048
4500.6068
5044.0316
4916.6796
4339.0745
5094.9746
5028.0907
4803.5815
4480.9581
5024.3255
4753.3478
4607.8835
5093.1097
5255.041
5453.4256
4802.2696
5304.6912
5251.1355
4842.9156
5498.3876
5551.4592
5657.1538
4735.2008
5731.4122
5230.137
5084.1649
5467.9909
5543.9416
5889.2768
5241.3121
5841.9633
5715.3642
5320.0791
5957.7403
6004.604
6116.6237
4736.6147
5968.9909
5241.9107
5322.3493