/*--------------------------------*- C++ -*----------------------------------*\
  =========                 |
  \\      /  F ield         | OpenFOAM: The Open Source CFD Toolbox
   \\    /   O peration     | Website:  https://openfoam.org
    \\  /    A nd           | Version:  6
     \\/     M anipulation  |
\*---------------------------------------------------------------------------*/
FoamFile
{
    version     2.0;
    format      ascii;
    class       pointScalarField;
    location    "1.06";
    object      E;
}
// * * * * * * * * * * * * * * * * * * * * * * * * * * * * * * * * * * * * * //

dimensions      [1 -1 -2 0 0 0 0];

internalField   nonuniform List<scalar> 
625
(
73539.301
69874.804
-896672.82
-411205.5
66341.649
75951.373
-618509.96
-1335581.4
22134.666
6793.2887
37786.258
-483842.38
-473514.66
-352313.25
96116.956
82273.691
73146.756
64078.828
51800.751
43164.941
34377.777
26470.484
20729.902
14958.008
11167.937
7311.1257
4457.0326
2367.8269
710.86159
-687.99532
-858.82632
-1639.5812
-1403.2174
-2007.9916
-1887.0315
-2609.1937
-600.80218
75638.843
48886.302
53518.688
43044.977
36041.424
30750.907
21491.974
18183.431
13358.283
8885.9283
7179.2605
3600.9669
2225.216
434.47686
-602.11389
-1685.6847
-2061.2509
-2718.3511
-2152.1863
-3474.4503
-1395.5664
-2849.9099
-1392.4712
17833.379
5651.2644
39025.063
129449.06
125815.69
79207.378
83777.394
71561.59
40813.089
45011.574
28473.328
25774.269
19767.179
12947.907
10489.167
5645.8971
3369.4358
830.96095
-1234.5831
-2750.4332
-4095.0504
-5531.8048
-6320.6174
-7218.2903
-8020.0846
-13089.189
-923893.42
-1017644.6
-983284.51
-6970.7402
-6423.2057
-4150.6543
-4653.1285
-4838.2859
-4832.9851
-5084.9458
-4335.2934
-3711.7296
-1944.0996
-611.94363
3008.2173
5581.3822
11845.744
17031.298
19891.601
30812.392
37710.468
49085.483
56702.288
72970.595
76185.068
91177.648
64335.09
62104.436
61271.971
56810.851
57256.61
60668.892
-463875.13
-463598.82
-465054.53
-1005602.1
-1006795.6
-1007009.5
42668.124
33657.304
32821.327
26901.631
22468.65
18584.286
14437.679
11110.871
9100.3909
6321.0234
4702.0663
3085.4137
1950.9112
1400.5817
504.49143
416.05899
131.14857
-111.98821
746.35855
344.75209
1515.8535
2031.6031
5414.7977
12230.204
10305.432
13031.567
10469.308
10558.758
10893.946
8425.4451
9415.5821
7674.153
7256.6667
7013.1828
6330.5339
5993.1253
5520.8597
5061.9857
4828.4958
4516.8551
4366.3584
4350.9042
3449.2576
5315.2256
3042.5204
8386.4218
22452.742
21740.447
20943.427
17366.611
17248.077
14695.745
12010.034
10859.168
8227.8012
7693.353
5275.9774
4697.7804
3464.6228
2910.2479
2190.3958
2193.8513
1616.9893
2154.338
1456.4883
3087.8202
1798.0474
4042.5403
5420.6121
14685.957
14918.672
13279.871
4417.0004
4045.0984
6797.506
17825.458
20846.789
22292.491
95445.509
99530.54
111114.52
103267.17
101723.19
102400.84
67563.137
63869.161
71434.888
61606.258
67992.402
69568.281
51316.816
46554.613
54386.409
41769.107
39892.589
41601.104
35166.976
32518.689
39989.75
27970.906
21364.035
27271.561
23518.76
18836.424
23112.824
20274.204
11380.694
17466.519
15021.858
8674.2543
13058.185
12775.408
5294.0274
9908.1262
9405.2732
2361.5903
6962.6708
7438.6301
550.4338
4561.1765
5423.856
-1322.2407
2733.9763
3793.4448
-2453.0983
1130.3274
2353.9758
-3435.7211
-219.52736
1195.1736
-4135.2122
-1258.3981
95.007332
-4511.6325
-2251.3372
-1235.5655
-5311.2319
-3386.9353
-1682.0095
-4885.5729
-3674.6386
-2459.3325
-4772.2188
-4302.0134
-5565.194
-7190.5276
-5653.6221
-652078.64
-650097.91
-650618.71
-579335.97
-636952.68
-637037.13
-667450.01
-616197.35
-616568.61
95081.095
83196.414
80453.582
89513.674
82530.19
83342.656
78840.913
70611.397
67401.402
66274.62
58964.61
58551.295
54219.799
51765.401
49088.986
44674.364
39936.976
38424.492
35797.721
33511.476
32364.888
29127.241
25853.139
25579.334
22242.218
19559.132
18609.779
15675.487
16109.387
13690.695
12624.847
11493.448
10094.846
8544.5506
7457.464
6692.3893
5569.2364
4880.0392
4253.279
3539.8944
2709.447
2168.3202
1481.8035
933.5728
789.03765
352.06771
-98.345187
-367.00016
-417.21354
-948.15596
-922.14736
-985.89185
-1285.0987
-1414.4011
-1149.5371
-1249.2049
-1410.5791
-1265.4872
-1294.1932
-1571.185
-1016.6198
-1517.6727
-1468.6054
-5050.4036
-4470.5893
-3940.3068
-4405.1345
-5939.5224
-5845.3082
57864.302
52629.092
48048.951
40358.005
37488.948
29539.553
27377.157
22253.697
17273.005
16560.454
13184.521
10351.255
8561.6238
6819.5743
5318.9578
4255.0665
3109.8358
2646.7916
1743.9139
1548.8748
1789.4753
2048.7412
6440.8333
7918.7319
25810.69
7871.2119
16793.835
11580.702
9314.6461
10466.958
7360.4068
8250.0195
6349.101
6347.9611
5558.5043
5395.2649
5236.513
5049.0643
5059.1878
5208.1814
5402.6365
5632.1561
6079.9785
7005.868
4940.2076
10707.185
43610.605
18744.533
23587.619
25865.215
17301.742
17683.078
13331.878
11599.215
6777.5038
5567.0258
3676.9581
2223.7044
1389.3089
683.28676
264.65376
170.65769
310.83524
527.39158
1056.7984
1933.7247
1839.5561
4425.9337
3021.4712
53986.926
46991.7
45812.017
47826.815
46726.616
43296.058
41797.314
40947.28
37317.859
35699.851
32833.605
32061.069
30678.779
30263.417
28409.701
25904.808
23524.576
22711.837
22020.864
20937.915
20011.406
17902.785
17215.25
16056.675
14626.979
13992.889
13357.524
12247.249
10944.272
10855.906
10140.583
9382.8126
9114.5607
8088.7126
7576.5276
7007.3215
6628.0225
6155.3327
5730.1556
5437.7429
4853.8242
4543.365
4216.807
3912.9462
3672.405
3744.3947
3225.6
2852.9848
2642.7128
2439.5335
2357.0408
2551.3522
2224.1863
1746.223
1915.876
1428.1532
1700.3682
1057.3204
1091.6662
904.53759
2203.9795
1829.5653
1819.186
2487.4419
3313.1538
2514.9379
6909.4641
5315.7581
6551.5553
12081.056
10874.698
8296.8503
19375.966
25798.536
25362.547
11882.31
8993.329
7948.9211
12600.95
14561.645
15606.627
10749.595
9901.9761
10571.922
10590.589
8185.839
8646.6842
8038.8151
7799.4187
9194.4828
8404.875
5768.8833
5979.043
7019.4476
5022.8581
6706.2473
6411.162
4585.304
5252.6653
5845.0849
3832.931
4751.15
5161.1218
3451.0817
4214.1705
4970.2974
3053.389
3628.3399
4516.2637
2762.9364
3398.5207
4392.2131
2652.0041
3099.7141
4211.1895
2679.3672
2990.9386
4182.2272
2683.868
2840.6422
4281.326
2878.0035
3078.1809
4281.0707
3352.4419
3165.399
4155.0818
3613.4856
3318.9645
6294.0241
3806.7606
5405.9556
3215.0927
2975.4803
1782.3964
8550.9101
7684.8303
8096.3554
28050.579
32081.342
36532.348
20835.745
23247.844
30383.596
19590.347
27940.938
28577.445
18763.238
22901.74
25516.336
15051.5
20537.348
20999.633
11290.728
17744.851
19034.299
9944.1869
13886.015
13643.359
6185.0435
11915.039
13266.232
4714.7408
9908.6938
9931.9646
2989.737
8018.0104
8112.2219
1732.2176
6086.2918
6263.2079
1083.9697
5001.7801
5101.7254
50.217253
3911.9958
4091.8485
-147.54764
3212.9222
3361.3341
-522.2836
2564.4743
3067.5045
-406.02515
2525.6423
2716.5306
-327.36466
1863.5198
2643.6521
30.013405
2657.1968
3084.6975
324.38507
1831.9431
2636.3857
1358.139
3855.8306
4225.648
358.12536
1889.2243
2430.7212
2658.9668
5125.1325
6003.4219
3312.2496
3799.412
3045.7306
)
;

boundaryField
{
    free
    {
        type            zeroGradient;
    }
    fixed
    {
        type            zeroGradient;
    }
    traction
    {
        type            zeroGradient;
    }
}


// ************************************************************************* //
