/*--------------------------------*- C++ -*----------------------------------*\
  =========                 |
  \\      /  F ield         | OpenFOAM: The Open Source CFD Toolbox
   \\    /   O peration     | Website:  https://openfoam.org
    \\  /    A nd           | Version:  6
     \\/     M anipulation  |
\*---------------------------------------------------------------------------*/
FoamFile
{
    version     2.0;
    format      ascii;
    class       pointVectorField;
    location    "0.83";
    object      lm;
}
// * * * * * * * * * * * * * * * * * * * * * * * * * * * * * * * * * * * * * //

dimensions      [1 -2 -1 0 0 0 0];

internalField   nonuniform List<vector> 
625
(
(-3.6361799e-15 2.112754e-16 -3.2990721e-16)
(2.8178306e-17 1.9013092e-16 6.1994168e-17)
(-5947.1036 174.95494 -22.303446)
(-5828.1941 999.04567 81.030837)
(6.5239771e-16 2.739523e-16 -5.5565719e-16)
(-3.7042918e-15 1.4868296e-15 -1.3023874e-15)
(-5917.978 1024.3384 77.154321)
(-6037.5677 196.94426 -22.314524)
(-1.9658614e-16 -3.2115893e-17 -1.1045223e-16)
(1.4766345e-16 -3.4299605e-16 -2.8648028e-16)
(-1.0135278e-15 7.0169807e-16 1.7538027e-16)
(-5918.3859 378.27559 2.1092596)
(-5890.0352 586.05774 27.987469)
(-5858.4454 794.50401 54.976549)
(-34.447759 -108.77934 -101.72722)
(-111.64668 -212.71647 -112.74154)
(-249.913 -308.22158 -116.45613)
(-443.80253 -391.45672 -110.42618)
(-674.79355 -454.48876 -104.88875)
(-950.74799 -501.31691 -92.608367)
(-1252.514 -528.67319 -80.055415)
(-1579.1381 -538.41652 -63.397588)
(-1921.4718 -531.58125 -47.601801)
(-2270.6854 -508.47237 -29.492115)
(-2621.5922 -473.17365 -13.583137)
(-2966.6656 -426.39195 0.86622011)
(-3300.7599 -371.22955 12.274566)
(-3619.0296 -310.33889 20.450656)
(-3919.252 -246.3592 24.906954)
(-4199.0804 -181.8144 25.787973)
(-4459.3642 -119.70958 23.991238)
(-4700.5865 -60.335865 18.818413)
(-4926.6775 -7.544882 12.975506)
(-5139.4725 39.056015 4.6719479)
(-5343.6988 80.541851 -3.0833787)
(-5544.6481 116.1467 -10.581429)
(-5743.5049 145.484 -17.007935)
(14.635461 81.40969 119.8803)
(-70.918871 170.07373 103.51957)
(-202.35964 274.92199 117.78917)
(-372.59931 363.53261 116.85737)
(-584.42738 447.18037 119.89311)
(-840.70323 535.4903 121.54852)
(-1118.0796 607.59285 126.38773)
(-1427.6891 676.46491 126.26676)
(-1752.4841 737.61058 128.02775)
(-2091.2021 786.34215 126.41385)
(-2433.6843 827.50512 124.20861)
(-2776.243 857.65449 119.62294)
(-3111.1221 878.72897 114.36555)
(-3434.0924 891.64645 107.81154)
(-3741.4695 898.36775 101.11008)
(-4030.4267 900.71188 94.759134)
(-4300.3429 901.3721 89.068674)
(-4551.4624 902.01122 85.09617)
(-4785.9569 905.65639 82.047517)
(-5006.1392 912.62683 81.119177)
(-5216.5786 925.73645 80.583014)
(-5420.79 943.99924 81.264123)
(-5623.1498 969.32458 81.276481)
(-4.8813632e-16 1.9183015e-16 -1.0607077e-16)
(-2.6214496e-15 -5.6404768e-16 7.244144e-16)
(-2.4010456e-15 1.4295629e-15 -1.6975308e-16)
(-20.864263 50.922213 -74.580212)
(-105.89979 206.06633 -76.376768)
(-254.5125 258.34408 -43.949784)
(-436.9514 350.10618 -16.225527)
(-671.27702 448.8425 -0.19499678)
(-931.7995 513.43544 32.015423)
(-1225.0613 592.49544 53.409651)
(-1539.032 660.62576 79.872601)
(-1872.9357 721.84857 102.42746)
(-2214.3499 775.07275 122.99454)
(-2560.2311 818.9065 140.43493)
(-2902.2066 854.68775 153.59953)
(-3235.7966 881.34152 161.95344)
(-3555.6722 899.62148 165.9199)
(-3858.8231 911.70926 165.00028)
(-4143.0364 918.06927 160.18983)
(-4407.9075 921.94691 152.02394)
(-4654.2857 924.78257 141.43977)
(-4884.3164 929.31039 129.50693)
(-5101.2587 937.18349 117.07369)
(-5308.885 950.24982 105.03738)
(-5511.5601 969.37293 94.07538)
(-5713.5144 994.26474 85.275148)
(-5948.8007 820.41253 52.118043)
(-5982.0457 609.84224 28.454008)
(-6008.4622 400.37648 4.1256955)
(-5833.4714 167.8186 -19.888601)
(-5634.5577 138.42288 -18.452316)
(-5436.0933 104.18991 -19.505525)
(-5233.462 63.583097 -20.669285)
(-5022.8091 16.597535 -22.051765)
(-4800.0516 -37.253269 -22.674825)
(-4561.1549 -97.703214 -22.475853)
(-4303.9748 -163.0571 -21.355239)
(-4026.7601 -231.63594 -19.380574)
(-3729.5349 -300.87311 -16.647805)
(-3413.4869 -367.50158 -13.678166)
(-3081.7126 -428.86153 -9.9718174)
(-2737.4718 -481.67149 -6.2773393)
(-2387.1468 -520.78977 -2.6466495)
(-2036.7136 -546.7781 2.2662047)
(-1689.519 -556.33177 8.9560603)
(-1358.7241 -547.27422 15.244084)
(-1045.119 -517.43853 23.752795)
(-766.89667 -468.75898 34.453164)
(-513.20834 -400.07926 45.49872)
(-307.60517 -320.19865 61.704211)
(-153.56488 -210.64754 72.35341)
(-75.453581 -110.41433 63.826344)
(-1.3028228e-15 -3.4252847e-16 3.3068324e-16)
(-2.0449562e-15 -3.5718549e-16 -7.3673077e-16)
(-1.4121951e-15 -1.0527101e-15 6.223458e-16)
(-1.2019486e-15 6.189313e-16 -3.4292956e-16)
(-1.2511779e-16 -6.848356e-17 2.1836215e-16)
(-3.8898857e-17 4.7141393e-16 -3.1043199e-16)
(-5851.5688 1002.8141 79.393512)
(-5873.0438 1008.4432 79.250106)
(-5896.3348 1014.4467 78.157235)
(-5968.6552 181.8191 -21.884664)
(-5990.786 186.95267 -22.253087)
(-6014.1966 192.37804 -22.469003)
(9.9852912 -61.697439 -71.416329)
(-70.64035 -117.70991 -57.754865)
(-207.56708 -165.36843 -59.029322)
(-397.17769 -202.48435 -53.120008)
(-628.18796 -227.66303 -46.610911)
(-901.87607 -239.86613 -37.490687)
(-1202.4209 -239.33435 -25.762624)
(-1528.6704 -228.23259 -14.311555)
(-1870.2827 -206.49127 -0.76146644)
(-2221.1548 -176.10527 11.326019)
(-2574.3059 -139.19082 22.612229)
(-2921.9421 -96.634883 31.848643)
(-3259.1428 -51.002748 38.757585)
(-3580.9974 -3.6432124 42.840776)
(-3884.4513 44.184246 44.10682)
(-4167.2087 90.736963 43.065863)
(-4430.0134 135.76773 39.702864)
(-4672.8616 178.10087 34.800441)
(-4899.7255 216.8831 29.565205)
(-5112.2879 253.75769 22.870721)
(-5317.0777 286.83836 17.401155)
(-5516.7906 318.5158 11.972783)
(-5714.5507 347.9808 7.1056212)
(33.151171 -12.965286 -7.2840392)
(-53.843543 -16.212368 1.2632726)
(-186.65524 -21.478145 0.77006109)
(-371.92837 -20.222632 2.626421)
(-601.96742 -6.1051557 8.8610158)
(-868.71152 10.752119 15.300968)
(-1166.0214 35.58635 22.96548)
(-1488.6765 65.643364 31.3957)
(-1827.2252 100.26212 39.652251)
(-2176.5732 137.29589 47.479358)
(-2527.6523 176.20076 53.931182)
(-2875.3292 215.33441 58.808489)
(-3213.0236 253.95319 61.643162)
(-3536.4098 291.17811 62.454841)
(-3841.5047 326.75918 61.534283)
(-4126.8687 360.1405 59.067885)
(-4391.8139 391.73914 55.437483)
(-4637.0539 421.26454 51.477192)
(-4866.0917 449.52273 47.132811)
(-5080.5844 476.81064 42.579297)
(-5286.575 503.43799 39.349693)
(-5486.4809 529.96136 35.005217)
(-5684.5092 557.12265 31.940467)
(42.794881 35.345642 39.327982)
(-48.447786 68.576378 48.696597)
(-175.47053 106.73328 52.672927)
(-360.68272 154.34908 57.46622)
(-584.56796 205.04425 63.238317)
(-846.25403 251.23704 67.673459)
(-1139.5467 304.32777 73.670467)
(-1456.3308 353.08799 78.931463)
(-1791.4024 400.73012 84.200872)
(-2136.5952 446.21388 87.520954)
(-2485.8656 487.20238 89.985736)
(-2831.8261 524.42426 90.382719)
(-3169.0944 556.8626 89.254476)
(-3492.4624 584.8745 86.678743)
(-3798.4784 609.01706 82.849639)
(-4085.2162 629.73695 78.409965)
(-4351.4091 648.44627 73.708124)
(-4598.9125 665.7624 69.2747)
(-4828.863 682.98526 65.391418)
(-5045.2673 700.83132 62.278211)
(-5252.0168 720.59304 59.745525)
(-5452.986 741.68001 57.735377)
(-5653.5352 766.44959 55.977146)
(-2.5953868e-15 -2.1703571e-16 4.2716933e-18)
(-3.8783653e-15 3.5858996e-16 7.5215743e-16)
(-9.8459492e-16 7.8127033e-16 2.7525688e-16)
(-3.9146975e-16 7.8165185e-18 1.2560621e-16)
(1.6350797e-16 -2.4226884e-16 -1.2066667e-17)
(-1.0304172e-15 -9.2669207e-16 -7.5672327e-16)
(-6.4481012e-16 3.525084e-16 2.7116342e-16)
(-3.5205005e-15 9.4737515e-16 -2.5196009e-17)
(-3.8147498e-15 1.043275e-15 1.2924308e-16)
(-34.047272 34.473584 53.936651)
(-49.043884 46.830318 15.423739)
(-46.068275 35.288782 -21.796794)
(-132.18094 194.92552 61.273615)
(-138.45276 197.0549 20.892619)
(-138.54326 191.72174 -32.253087)
(-247.42675 270.46274 74.458868)
(-268.69015 266.05731 35.027863)
(-278.56046 283.92908 -10.888565)
(-417.17568 364.40122 78.225154)
(-445.02978 370.27653 45.274728)
(-449.57368 364.016 10.574679)
(-635.88093 456.60784 88.755883)
(-659.91531 455.30853 62.187091)
(-675.09521 460.6901 28.391049)
(-880.6195 535.49463 97.469579)
(-911.17168 533.03603 72.13746)
(-928.95806 531.87873 49.591326)
(-1162.2264 610.0693 105.67401)
(-1192.5074 611.82686 90.977202)
(-1214.7499 612.09956 68.752567)
(-1466.4325 680.09552 114.08868)
(-1498.6995 674.11401 101.79697)
(-1522.3678 676.16401 89.260228)
(-1789.3062 737.95015 120.34382)
(-1820.8193 737.0437 114.73186)
(-1847.8905 736.47458 107.31521)
(-2123.5396 789.44394 125.73023)
(-2155.5045 786.23738 124.77346)
(-2185.6718 787.43848 123.47019)
(-2463.3261 829.38862 128.4447)
(-2495.2097 827.6984 132.59097)
(-2526.048 828.4685 136.50573)
(-2801.9723 860.53533 128.8415)
(-2832.3389 858.8837 137.63405)
(-2865.065 860.59754 145.97816)
(-3133.5693 881.76861 127.3431)
(-3163.512 881.47761 139.60685)
(-3196.3281 883.88855 151.3471)
(-3453.9444 895.38487 123.58314)
(-3482.1954 895.78793 138.57961)
(-3515.2071 898.79595 153.00509)
(-3758.9727 902.23427 118.49385)
(-3786.0057 903.93712 135.18044)
(-3818.471 907.54807 150.90583)
(-4046.5774 904.86946 112.56124)
(-4072.2622 907.46861 129.69964)
(-4103.8341 911.53067 145.65084)
(-4315.827 905.32133 106.31499)
(-4340.2072 908.92182 122.81566)
(-4370.6823 913.17111 138.14723)
(-4567.1747 905.9347 100.44328)
(-4590.6395 910.24872 115.44068)
(-4619.6647 914.82703 128.96708)
(-4802.3534 909.09008 95.249157)
(-4824.9492 914.11955 107.86484)
(-4852.6227 918.60764 119.14755)
(-5024.2139 916.20881 91.125771)
(-5046.4033 921.61998 100.76128)
(-5072.5441 926.4031 109.25298)
(-5236.0494 929.01395 87.696526)
(-5257.8258 934.63813 94.299)
(-5282.9366 939.6105 100.04105)
(-5441.8296 947.71613 85.109586)
(-5463.9848 954.0189 88.833984)
(-5487.8654 959.45836 91.698224)
(-5645.5772 973.2733 82.254361)
(-5667.9251 979.08908 83.422574)
(-5690.7809 985.02168 84.474475)
(-5939.6797 384.58449 3.0518131)
(-5961.6356 389.9294 3.5149704)
(-5985.3329 395.55755 3.5449858)
(-5912.1881 591.88407 28.514723)
(-5934.5833 597.01223 28.655234)
(-5957.8066 603.63045 28.200674)
(-5881.7103 798.85633 54.458259)
(-5903.2341 804.08611 53.582748)
(-5926.6383 811.28898 53.074096)
(-83.152571 -88.42045 -54.375961)
(-88.62661 -99.143971 -22.529776)
(-98.880912 -103.83526 15.966595)
(-156.97032 -199.61041 -65.112335)
(-174.01176 -210.19388 -17.362561)
(-178.2772 -213.04816 28.393615)
(-302.88554 -308.76234 -71.041431)
(-322.95353 -309.4773 -31.128617)
(-334.11328 -321.20285 20.473927)
(-490.38087 -384.63056 -68.822603)
(-514.00166 -394.08604 -31.767016)
(-525.97566 -399.90621 10.126655)
(-725.16911 -455.62823 -69.109313)
(-754.04944 -462.23026 -34.08215)
(-769.70779 -469.57551 0.76105356)
(-998.19877 -502.33563 -61.207035)
(-1024.0421 -508.02362 -35.207157)
(-1046.1627 -515.93212 -2.5327317)
(-1297.6936 -531.23585 -53.658204)
(-1327.9381 -538.43665 -30.789806)
(-1350.2649 -543.85462 -6.0001906)
(-1622.0925 -543.5265 -43.014713)
(-1650.9715 -548.60965 -26.317801)
(-1675.8698 -553.68121 -6.3924817)
(-1959.0534 -537.47149 -32.416082)
(-1989.2703 -541.18671 -19.751048)
(-2015.2579 -545.82438 -8.1468038)
(-2305.6611 -515.73038 -20.014448)
(-2334.0829 -517.63884 -15.396046)
(-2362.7535 -520.51268 -7.3844594)
(-2651.8926 -479.39969 -8.9320284)
(-2679.8824 -480.55074 -6.9616966)
(-2707.4534 -481.88153 -5.5982768)
(-2993.0137 -432.25485 1.0205837)
(-3019.3074 -430.99584 -2.2101835)
(-3048.4016 -431.44999 -5.5103028)
(-3322.7174 -375.56303 8.2531869)
(-3348.7433 -372.806 2.0390367)
(-3377.2283 -371.609 -5.6484053)
(-3638.1117 -313.06319 13.388827)
(-3662.9148 -308.61721 4.2035751)
(-3691.2231 -306.19745 -6.3793427)
(-3935.457 -247.2155 15.387296)
(-3959.5627 -241.34478 4.9656665)
(-3987.5533 -237.92763 -7.8421824)
(-4213.7514 -180.90021 15.378882)
(-4237.4269 -174.14151 3.9274966)
(-4264.7361 -169.79583 -9.4928506)
(-4473.1843 -116.74103 12.707541)
(-4496.3251 -109.33576 1.8773812)
(-4522.9796 -104.35815 -11.258585)
(-4714.8738 -56.424387 8.8313593)
(-4737.613 -49.181559 -0.89615262)
(-4763.5736 -43.775777 -12.860313)
(-4941.2484 -2.3066578 4.0035671)
(-4963.7283 5.1330847 -4.5263924)
(-4989.1636 10.960522 -14.172498)
(-5155.6746 45.398706 -1.6349632)
(-5178.087 52.20095 -7.7469241)
(-5202.5424 58.111604 -15.026003)
(-5362.3606 87.058667 -7.5547577)
(-5384.4524 93.666959 -11.520323)
(-5408.3423 99.209256 -16.072443)
(-5564.3983 122.43261 -12.368945)
(-5586.6906 127.97027 -14.942366)
(-5609.9135 133.5605 -16.975971)
(-5764.991 152.29374 -17.513881)
(-5787.0753 157.65737 -18.939782)
(-5810.2819 162.90619 -19.383882)
(-11.110312 -31.474955 45.585093)
(-115.3096 -128.06316 40.935817)
(-257.3754 -159.34609 30.817511)
(-467.06816 -206.9263 29.742113)
(-712.46308 -235.04794 25.360074)
(-993.55383 -249.20106 23.670799)
(-1305.3681 -252.37398 23.215883)
(-1636.5363 -240.67765 23.954518)
(-1983.101 -218.21807 25.631966)
(-2336.6551 -184.31488 26.30672)
(-2689.9133 -144.16829 28.722443)
(-3037.325 -95.164975 28.873247)
(-3373.0813 -44.160062 28.992332)
(-3692.7197 8.8569159 28.273424)
(-3993.5484 61.54611 26.546217)
(-4273.7826 111.88743 24.504431)
(-4533.3315 159.07451 22.088732)
(-4773.7462 202.36102 19.641372)
(-4997.4391 241.4661 17.195216)
(-5207.95 277.11804 15.019291)
(-5410.1476 309.69282 12.412447)
(-5607.4739 339.82733 9.6939772)
(-5804.6146 370.2408 7.1938708)
(15.149517 -17.889698 0.086154591)
(-88.819596 -37.571939 9.7729189)
(-240.20158 -28.639914 7.2450839)
(-446.37724 -36.538745 15.371908)
(-686.20613 -24.726588 21.200231)
(-966.05212 -8.8998303 27.810784)
(-1273.176 14.797775 35.888981)
(-1602.1516 44.671805 45.16241)
(-1946.8586 82.630239 52.137429)
(-2298.2143 122.51098 60.850639)
(-2650.8036 166.91993 66.747101)
(-2997.821 212.78485 71.015399)
(-3333.1887 257.46765 73.678019)
(-3653.3751 301.45573 73.821716)
(-3954.6627 342.48123 72.096854)
(-4235.5814 380.46012 68.838575)
(-4496.1307 414.99902 64.200266)
(-4737.507 446.45552 59.024652)
(-4962.3374 475.17959 53.389943)
(-5174.1823 502.06447 48.057529)
(-5377.4958 528.27806 42.47347)
(-5576.238 554.17825 38.261302)
(-5774.2262 580.57768 32.971244)
(30.679103 25.921779 -28.898071)
(-90.052008 36.534611 -22.126981)
(-236.24708 104.82584 -27.336167)
(-432.11438 124.05979 -1.8651986)
(-671.43249 180.88689 6.7026665)
(-944.33277 228.16761 22.954855)
(-1245.9669 276.12675 41.289726)
(-1571.2814 330.61002 55.818746)
(-1910.5344 379.12459 72.65669)
(-2259.4432 430.44712 86.832081)
(-2609.1693 477.62626 98.697784)
(-2954.4561 521.65148 108.5582)
(-3289.3202 561.49625 114.61831)
(-3609.4628 596.46392 117.7636)
(-3911.3669 626.62331 117.54446)
(-4193.4743 652.20827 114.564)
(-4455.5053 674.06282 109.15501)
(-4698.4559 693.13596 102.12525)
(-4925.0123 710.83058 93.825985)
(-5138.3722 728.35019 85.207422)
(-5342.9728 747.07511 76.353988)
(-5543.1433 767.57673 67.651952)
(-5743.3169 791.13226 60.105285)
(-20.59632 -29.246328 -34.700344)
(-25.509788 -33.334492 -14.551042)
(-35.566261 -32.446892 12.704703)
(-115.91032 -114.29347 -31.522036)
(-135.70696 -117.85546 -8.4155681)
(-135.87521 -117.69446 22.600895)
(-255.7421 -157.98899 -32.589582)
(-272.20163 -160.91877 -10.228917)
(-281.21901 -164.27949 10.240146)
(-443.31419 -200.75288 -30.568254)
(-469.1304 -207.21321 -10.691825)
(-478.64971 -205.50421 10.516917)
(-677.28281 -227.50229 -24.8149)
(-703.18065 -231.11523 -9.6853717)
(-719.11869 -233.60805 9.7906776)
(-946.6331 -240.43026 -19.874194)
(-975.2895 -247.3367 -5.543227)
(-992.574 -247.99458 10.039478)
(-1246.1296 -243.12012 -11.319081)
(-1275.7651 -248.43475 -0.19174774)
(-1297.4785 -250.0148 12.043965)
(-1568.783 -233.32451 -2.2796358)
(-1599.2457 -237.17248 6.1434602)
(-1622.8672 -239.19971 15.76191)
(-1907.7808 -211.5429 7.6594959)
(-1937.4989 -216.06619 12.835785)
(-1963.6507 -218.02717 20.117471)
(-2254.714 -181.80373 17.017089)
(-2284.2782 -185.2738 20.104441)
(-2311.9216 -185.13737 23.7584)
(-2603.7616 -144.26778 25.604508)
(-2632.1329 -145.39806 26.261387)
(-2660.7722 -146.33228 27.424453)
(-2947.3996 -100.55968 32.47006)
(-2975.0967 -100.94811 30.897821)
(-3004.8018 -100.17872 30.021699)
(-3281.3635 -53.530505 37.244624)
(-3307.7878 -51.941289 34.289445)
(-3337.6969 -50.366026 31.11631)
(-3600.2666 -4.0638291 39.827356)
(-3625.6893 -1.2894719 35.411807)
(-3655.585 1.3599827 31.277541)
(-3901.4229 45.581938 39.908534)
(-3925.8595 49.691861 35.0698)
(-3955.4636 53.076314 29.972159)
(-4183.0404 94.230481 38.209437)
(-4206.6992 99.100935 33.096822)
(-4235.7066 103.35333 27.902865)
(-4444.9304 140.71645 34.683483)
(-4467.999 146.03045 30.0907)
(-4496.2757 150.83097 25.107542)
(-4688.3151 184.08446 30.285544)
(-4710.8759 189.66102 26.422627)
(-4738.1009 194.84408 22.126412)
(-4915.4987 223.82333 25.395504)
(-4937.8277 229.21845 22.274018)
(-4964.3833 235.07058 19.047807)
(-5129.9181 261.01869 19.984041)
(-5151.6682 266.24321 18.428109)
(-5177.2037 271.60005 16.188587)
(-5336.3599 293.96375 15.191474)
(-5357.9897 299.12927 14.778674)
(-5382.2314 304.89744 12.865255)
(-5536.7252 325.139 10.663306)
(-5558.6108 329.89559 10.353218)
(-5582.2539 336.073 10.072725)
(-5735.9226 354.74507 6.7585474)
(-5758.0605 359.58027 6.7790691)
(-5781.2843 365.58468 6.9612775)
(6.8423559 -8.0581292 -0.59865887)
(-6.0264423 -13.216559 1.1698594)
(-14.764457 -12.526986 0.044332676)
(-93.634857 -17.680106 7.9111322)
(-109.66746 -24.745248 8.1353343)
(-106.77594 -22.317518 9.8360693)
(-232.3025 -22.138023 5.7689617)
(-250.79135 -22.745899 1.7358812)
(-258.76941 -25.072904 7.6077457)
(-416.83741 -16.951259 10.697585)
(-445.51809 -21.530309 9.6631443)
(-452.0143 -19.153135 12.904121)
(-647.89338 -8.0163363 14.292129)
(-675.7249 -10.00504 11.266231)
(-687.39631 -13.039013 19.770737)
(-913.38069 9.6530414 20.646144)
(-942.74645 6.1758364 21.130132)
(-959.46455 4.431357 25.522398)
(-1208.765 32.136931 28.958357)
(-1240.2373 30.466409 27.660513)
(-1259.0287 28.615742 34.408974)
(-1529.2627 62.841576 36.145165)
(-1559.8844 59.741773 36.638056)
(-1582.5239 56.533204 42.856755)
(-1864.4311 95.5739 44.586037)
(-1895.8426 94.075303 46.104487)
(-1920.7842 92.999274 51.22607)
(-2210.6121 132.87924 52.234406)
(-2240.703 132.68042 53.486076)
(-2268.0479 130.78814 58.549009)
(-2558.1123 172.59182 58.371987)
(-2587.7297 172.86905 60.008875)
(-2616.3701 172.67778 65.699759)
(-2902.328 212.53237 62.923098)
(-2930.5282 214.27604 65.224395)
(-2960.5855 214.7906 69.663401)
(-3236.6344 252.52162 65.486787)
(-3263.9016 255.45807 67.732185)
(-3294.1758 257.42373 72.396046)
(-3556.946 291.30234 65.870542)
(-3582.7863 295.46114 68.497005)
(-3613.3891 297.9723 72.64687)
(-3859.7815 328.25395 64.430568)
(-3884.5625 333.20719 67.263304)
(-3914.9432 336.96842 70.88364)
(-4143.3863 363.06448 61.571252)
(-4167.1478 368.72362 64.312168)
(-4197.0114 372.97006 67.574974)
(-4407.3458 395.64474 57.416663)
(-4430.3745 401.51025 60.327542)
(-4459.3282 406.49485 63.045547)
(-4652.6785 425.94654 52.959416)
(-4675.0014 432.11405 55.700376)
(-4703.1823 437.11862 57.823145)
(-4881.6672 454.90366 48.233447)
(-4903.8824 460.4422 50.669937)
(-4930.775 466.08293 52.380679)
(-5097.5226 482.34769 43.364664)
(-5119.7466 487.77039 45.962912)
(-5145.377 492.98159 47.157293)
(-5304.2792 508.65379 39.972346)
(-5327.089 514.27557 41.591624)
(-5351.4159 519.44656 41.659213)
(-5505.8528 535.48504 35.622861)
(-5528.2901 540.59877 37.103433)
(-5552.0534 546.72594 37.469789)
(-5706.1567 562.33953 31.784382)
(-5728.2215 567.34343 32.448743)
(-5751.4634 573.73004 32.494208)
(6.1956955 22.68816 17.78978)
(5.5227103 20.373935 2.2285124)
(3.4236382 16.38383 -13.853949)
(-100.81998 62.21698 30.335084)
(-115.22061 47.952087 7.8931532)
(-113.70004 50.389666 -7.5799267)
(-225.69446 107.70697 35.035953)
(-246.09535 117.37663 15.811593)
(-254.62306 111.08593 -4.8183989)
(-412.61214 159.55345 42.673743)
(-432.98376 149.97528 24.65028)
(-445.5423 146.82632 10.019895)
(-633.40185 203.1057 48.758437)
(-659.61371 204.85407 34.356612)
(-675.76181 198.20466 23.025373)
(-893.86737 254.56664 58.222021)
(-920.72798 252.87304 46.610021)
(-940.62282 246.32408 36.734258)
(-1184.1184 305.34467 65.88541)
(-1212.3317 302.54582 56.563516)
(-1236.5659 294.85646 50.602113)
(-1497.8351 352.96262 74.483793)
(-1526.8676 352.38834 70.14332)
(-1554.194 346.7806 65.117191)
(-1829.1133 401.73212 83.012287)
(-1858.9173 400.81412 79.62908)
(-1888.5618 394.34944 77.566601)
(-2170.5125 447.31132 89.020799)
(-2199.9781 446.74844 89.26614)
(-2231.7625 442.02448 90.175223)
(-2515.3472 488.7739 94.161598)
(-2544.6676 489.68214 96.870221)
(-2578.0312 486.12512 99.539753)
(-2857.4693 526.877 96.975182)
(-2886.0266 528.42882 101.82147)
(-2919.9722 526.32295 106.72432)
(-3190.9708 560.09182 97.601387)
(-3218.5559 562.75811 104.21416)
(-3252.8695 562.38246 110.89749)
(-3511.2276 589.00087 96.194516)
(-3537.9714 592.36894 104.29884)
(-3571.8459 593.57548 111.98667)
(-3814.9323 613.66887 92.990011)
(-3840.6162 617.68774 101.76258)
(-3873.7385 620.59227 110.28404)
(-4099.9187 634.86195 88.471718)
(-4124.8392 639.40792 97.534276)
(-4156.6087 643.57751 106.35322)
(-4365.6772 653.59652 83.086859)
(-4389.6982 658.26742 92.071553)
(-4420.0568 663.59288 100.42395)
(-4613.0695 670.66606 77.67005)
(-4636.6382 675.6068 85.738347)
(-4665.2507 681.67006 93.483785)
(-4844.0842 687.5917 72.299971)
(-4867.0567 692.33979 79.377518)
(-4894.0307 698.9294 85.980295)
(-5062.0488 705.13995 67.490278)
(-5084.881 710.04041 73.238968)
(-5110.1023 716.98521 78.409792)
(-5270.1661 724.32666 63.476115)
(-5292.8671 728.95703 67.712366)
(-5316.6984 736.00621 71.148524)
(-5473.4721 745.7786 59.85305)
(-5495.9546 750.74045 62.518916)
(-5519.2215 757.89685 64.310558)
(-5675.5334 769.95451 56.480251)
(-5697.9844 775.24719 57.647767)
(-5720.5227 782.80254 58.623372)
)
;

boundaryField
{
    free
    {
        type            zeroGradient;
    }
    fixed
    {
        type            fixedValue;
        value           nonuniform List<vector> 
25
(
(-2.5953868e-15 -2.1703571e-16 4.2716933e-18)
(-1.3028228e-15 -3.4252847e-16 3.3068324e-16)
(-1.9658614e-16 -3.2115893e-17 -1.1045223e-16)
(-3.6361799e-15 2.112754e-16 -3.2990721e-16)
(-3.8783653e-15 3.5858996e-16 7.5215743e-16)
(-2.0449562e-15 -3.5718549e-16 -7.3673077e-16)
(-9.8459492e-16 7.8127033e-16 2.7525688e-16)
(-1.4121951e-15 -1.0527101e-15 6.223458e-16)
(-4.8813632e-16 1.9183015e-16 -1.0607077e-16)
(6.5239771e-16 2.739523e-16 -5.5565719e-16)
(-3.9146975e-16 7.8165185e-18 1.2560621e-16)
(1.4766345e-16 -3.4299605e-16 -2.8648028e-16)
(1.6350797e-16 -2.4226884e-16 -1.2066667e-17)
(-1.0304172e-15 -9.2669207e-16 -7.5672327e-16)
(-2.6214496e-15 -5.6404768e-16 7.244144e-16)
(-6.4481012e-16 3.525084e-16 2.7116342e-16)
(-1.0135278e-15 7.0169807e-16 1.7538027e-16)
(-3.5205005e-15 9.4737515e-16 -2.5196009e-17)
(-3.8147498e-15 1.043275e-15 1.2924308e-16)
(-2.4010456e-15 1.4295629e-15 -1.6975308e-16)
(-1.2019486e-15 6.189313e-16 -3.4292956e-16)
(2.8178306e-17 1.9013092e-16 6.1994168e-17)
(-1.2511779e-16 -6.848356e-17 2.1836215e-16)
(-3.8898857e-17 4.7141393e-16 -3.1043199e-16)
(-3.7042918e-15 1.4868296e-15 -1.3023874e-15)
)
;
    }
    freeTop
    {
        type            zeroGradient;
    }
}


// ************************************************************************* //
