/*--------------------------------*- C++ -*----------------------------------*\
  =========                 |
  \\      /  F ield         | OpenFOAM: The Open Source CFD Toolbox
   \\    /   O peration     | Website:  https://openfoam.org
    \\  /    A nd           | Version:  6
     \\/     M anipulation  |
\*---------------------------------------------------------------------------*/
FoamFile
{
    version     2.0;
    format      ascii;
    class       pointVectorField;
    location    "1.63";
    object      lm;
}
// * * * * * * * * * * * * * * * * * * * * * * * * * * * * * * * * * * * * * //

dimensions      [1 -2 -1 0 0 0 0];

internalField   nonuniform List<vector> 
3969
(
(-4.0340813e-15 -4.7705825e-17 1.3312818e-16)
(9.2297575e-16 -2.6090405e-16 -6.0252577e-16)
(4897.3673 1343.6335 9.2263395)
(5264.3542 557.51998 -64.840193)
(-7.1783695e-15 2.6020842e-15 -1.0366567e-15)
(-4.622429e-15 2.1493156e-15 -1.5432914e-15)
(5348.9874 546.44572 -64.857587)
(4979.3 1332.9562 8.8600571)
(-6.09887e-15 1.0869625e-16 -2.0095736e-16)
(-3.193382e-15 6.5333688e-16 6.3735029e-17)
(-2.9260211e-15 2.9260844e-16 -4.8432863e-17)
(-1.7497804e-15 -1.5755452e-16 -2.074758e-16)
(-4.3254872e-15 8.6218995e-16 7.3228779e-16)
(-2.4697388e-15 -4.9707839e-16 4.8086129e-16)
(5.2680668e-16 -4.7467027e-16 -5.3018058e-16)
(4700.7152 1187.214 0.23475249)
(4546.8576 1050.373 -7.9677105)
(4627.0055 969.85257 -16.503756)
(4910.6551 925.13134 -26.35375)
(5247.3243 878.33182 -37.564402)
(5453.9994 799.68866 -48.645285)
(5427.1153 684.27036 -57.761795)
(26.309697 72.115686 73.240128)
(43.184185 113.48814 92.687212)
(81.995793 153.6049 101.13296)
(132.44314 194.68211 104.59754)
(194.54563 231.45062 104.11215)
(266.13111 268.19393 102.28601)
(346.19625 300.45577 99.32233)
(434.13341 332.88385 94.971719)
(528.72252 361.42066 89.970821)
(629.80812 390.40463 83.292106)
(736.5502 417.46268 75.657427)
(848.3865 444.33055 66.727932)
(965.25969 470.84508 56.251183)
(1086.1486 497.88276 44.790679)
(1211.1258 524.81119 32.179579)
(1339.3258 552.70716 18.575546)
(1470.413 581.13422 4.6475515)
(1603.8153 610.33882 -9.6822333)
(1739.0263 640.11785 -23.833744)
(1875.3957 670.62524 -37.56144)
(2012.3353 701.43247 -50.371298)
(2149.1715 732.64622 -61.961585)
(2285.3786 763.77855 -71.98992)
(2420.2033 794.94082 -80.218805)
(2553.4124 825.401 -86.425579)
(2683.9831 855.7943 -90.576164)
(2812.0498 885.11176 -92.587479)
(2937.0041 913.70454 -92.669725)
(3058.6159 941.28497 -90.817334)
(3176.6789 967.71221 -87.454027)
(3291.0472 993.0163 -82.661787)
(3401.6747 1017.1137 -76.849615)
(3508.5117 1039.9701 -70.263723)
(3611.4982 1061.7339 -63.227602)
(3710.9369 1082.3349 -55.86947)
(3806.5144 1101.9451 -48.703272)
(3898.749 1120.7419 -41.400091)
(3987.8119 1138.6218 -34.661469)
(4073.8232 1156.203 -28.422324)
(4156.9918 1173.0008 -22.401233)
(4238.0738 1189.7725 -17.119769)
(4316.7227 1206.3046 -12.14261)
(4394.5072 1222.7624 -7.926899)
(4470.4984 1239.6681 -3.9010219)
(4546.5118 1256.5422 -0.484543)
(4622.0732 1273.9799 2.834073)
(4694.5179 1290.7013 5.8085835)
(20.77138 -64.375071 -85.021749)
(78.648715 -115.11989 -70.013587)
(128.66477 -163.62202 -72.84896)
(191.39452 -206.65311 -61.686303)
(272.75077 -250.66231 -50.59123)
(358.0246 -286.44084 -39.80252)
(454.52736 -318.57497 -30.049688)
(556.73312 -344.68856 -22.097955)
(664.30755 -365.46011 -16.36922)
(776.30949 -380.7472 -13.142012)
(891.4642 -391.43942 -12.033417)
(1009.5539 -396.73214 -13.604375)
(1129.2974 -397.81269 -17.321501)
(1250.8802 -394.31959 -22.895717)
(1373.5686 -386.8738 -30.238074)
(1497.2002 -375.23013 -38.980411)
(1621.7725 -360.2542 -48.714773)
(1746.8038 -341.52578 -59.152565)
(1872.7389 -320.01289 -69.793574)
(1998.892 -295.18069 -80.412983)
(2125.9137 -268.19459 -90.521909)
(2252.9699 -238.44189 -99.978626)
(2380.8584 -207.12828 -108.31865)
(2508.6191 -173.76762 -115.55481)
(2637.0129 -139.49155 -121.39135)
(2765.4648 -104.05895 -125.6643)
(2894.0391 -68.070892 -128.57393)
(3022.5344 -31.929075 -129.93584)
(3150.8894 4.2830327 -129.956)
(3278.6116 40.119326 -128.74136)
(3405.751 75.548209 -126.54867)
(3531.9617 110.27747 -123.43483)
(3656.8818 144.23173 -119.73996)
(3780.3093 177.32347 -115.52647)
(3901.8115 209.50354 -111.16803)
(4021.2269 240.66003 -106.62157)
(4138.22 270.93156 -102.04213)
(4252.3573 300.1198 -97.976427)
(4363.5638 328.54742 -93.798095)
(4471.8944 356.04177 -89.967594)
(4576.8692 382.62913 -86.260209)
(4678.6186 408.45814 -82.961244)
(4776.9736 433.69112 -79.728871)
(4871.9557 458.27122 -76.714492)
(4963.59 482.3868 -73.756125)
(5051.9948 506.07835 -70.698792)
(5154.3208 531.26226 -67.831537)
(-3.9179893e-16 -2.8384427e-17 -1.6191597e-16)
(6.8869455e-16 3.3255846e-16 -2.9305012e-16)
(-3.0379221e-16 -4.0639439e-16 3.7376104e-16)
(8.6048107e-16 -8.7588792e-17 1.0515471e-16)
(5.0258192e-16 -7.4376592e-16 6.4035694e-16)
(-2.9679417e-15 -3.4669267e-16 7.3060073e-16)
(8.9003905e-16 -2.834795e-16 1.0120244e-16)
(49.162973 -48.672921 74.686276)
(92.064434 -148.03094 95.354206)
(131.88532 -161.02548 95.444812)
(200.95938 -225.41197 102.78622)
(276.72556 -258.34187 101.65494)
(359.67623 -291.25397 99.113611)
(457.39327 -318.57402 95.727728)
(555.6097 -335.81827 90.208395)
(666.75124 -350.17559 82.966267)
(777.53053 -356.85726 74.857263)
(895.03178 -358.11782 64.748308)
(1015.1161 -354.79319 52.940251)
(1139.1703 -347.9725 39.638546)
(1264.8822 -336.65861 25.068508)
(1393.1612 -323.47494 9.6801391)
(1522.7453 -306.51505 -6.7573401)
(1654.2177 -288.37295 -23.491836)
(1786.5631 -267.49353 -40.524844)
(1920.1369 -245.8192 -57.248614)
(2054.21 -222.20611 -73.5221)
(2188.8738 -198.07964 -88.700989)
(2323.548 -172.64093 -102.73128)
(2458.271 -146.82125 -115.05755)
(2592.3908 -120.13827 -125.65185)
(2726.1044 -93.193568 -134.11672)
(2858.5137 -65.648369 -140.46205)
(2990.2749 -38.266872 -144.50795)
(3120.8427 -9.8584999 -147.16781)
(3250.3194 18.415564 -147.67713)
(3378.2731 47.177701 -146.69179)
(3504.646 76.120113 -144.29206)
(3629.2989 105.28904 -140.71776)
(3752.0233 134.57943 -136.20191)
(3872.5666 164.01112 -131.0239)
(3990.925 193.39868 -125.45391)
(4107.3442 222.9252 -119.40255)
(4221.4345 251.73206 -113.81655)
(4329.9377 280.64321 -107.38716)
(4437.4015 309.03701 -101.84783)
(4541.7921 336.99318 -96.241543)
(4642.9438 364.30057 -91.030668)
(4741.137 391.15355 -86.276003)
(4836.2365 417.2185 -81.861788)
(4928.3213 442.73462 -77.883503)
(5017.5437 467.47509 -74.180347)
(5103.8552 491.66168 -70.733589)
(5169.946 513.42277 -67.186188)
(5527.3548 675.0282 -57.691361)
(5531.2544 787.21489 -48.419848)
(5288.9973 860.77258 -37.377812)
(4914.4485 901.40757 -26.392229)
(4671.8948 953.98708 -16.948911)
(4632.5989 1043.4391 -8.6785891)
(4821.6941 1187.9353 -0.25828792)
(4804.8431 1288.3898 5.8578151)
(4742.8315 1273.9393 3.0417225)
(4666.2555 1255.497 0.41301091)
(4588.7691 1237.0348 -2.3912671)
(4510.2956 1218.4002 -5.3198614)
(4430.1484 1199.6502 -8.4974675)
(4347.9161 1180.7192 -12.017085)
(4263.2196 1161.6318 -15.829337)
(4175.6145 1142.3527 -20.050713)
(4084.7571 1122.8802 -24.700861)
(3986.464 1102.3744 -29.551576)
(3892.4306 1083.8542 -34.865416)
(3790.3347 1063.942 -40.164838)
(3684.2357 1044.0781 -45.484187)
(3574.2881 1024.2245 -50.685757)
(3460.5073 1004.2899 -55.502702)
(3342.8896 984.36151 -59.711706)
(3221.8137 964.42927 -63.156187)
(3097.4136 944.34525 -65.440206)
(2970.0803 924.26974 -66.67812)
(2840.1383 903.78724 -66.380226)
(2707.9619 883.11859 -64.758038)
(2574.0421 861.71212 -61.579295)
(2438.833 839.80434 -57.125758)
(2302.8986 816.92669 -51.167019)
(2166.635 793.19108 -44.224483)
(2030.6675 768.15192 -36.243286)
(1895.4205 742.12721 -27.758453)
(1761.4395 714.57278 -18.825678)
(1629.0267 686.02641 -10.164492)
(1498.7837 655.9074 -1.6879286)
(1370.7428 624.83282 5.8015945)
(1248.7013 593.62748 11.971049)
(1123.7126 559.59002 17.042545)
(1003.7843 524.39601 20.280353)
(888.75361 488.75546 21.021056)
(777.04201 452.48132 19.834904)
(669.56131 415.00066 16.501431)
(565.22639 376.20728 9.6596286)
(468.91256 338.03379 1.776317)
(377.97863 299.19626 -8.2807464)
(289.421 256.39245 -21.46698)
(215.15518 216.4602 -34.577377)
(144.54753 176.18855 -48.706306)
(87.574764 133.76201 -58.044426)
(45.86706 88.721219 -64.533897)
(38.946327 61.622125 -47.777596)
(-6.7652979e-16 3.5118239e-16 1.2802193e-16)
(-2.3129286e-15 2.7505878e-16 1.3239036e-16)
(-3.6393531e-15 -1.4253491e-16 -1.5464221e-16)
(-4.9195801e-15 -9.3657526e-16 4.6870719e-16)
(-4.0844143e-15 -8.2232132e-16 1.723462e-16)
(-2.0271537e-15 -1.8079967e-16 2.6438577e-16)
(-2.0670014e-15 8.6459225e-16 1.4474963e-15)
(-4.5036838e-15 1.2268482e-15 -2.065022e-16)
(-1.9919023e-15 1.1694967e-15 -1.6367101e-16)
(-2.9438013e-15 1.1112212e-15 -1.969436e-16)
(-2.4504202e-15 9.597151e-16 -1.1789697e-16)
(-5.2893259e-15 2.5926013e-15 -8.0820905e-16)
(-1.8775489e-15 1.1365606e-15 -5.8525306e-16)
(-7.4714327e-17 -2.094137e-16 9.7564992e-17)
(5274.8481 556.30811 -64.75025)
(5285.2917 555.06022 -64.581312)
(5295.8986 553.54811 -64.599867)
(5306.4916 552.1568 -64.600672)
(5317.1417 550.65065 -64.689331)
(5327.7735 549.21023 -64.810833)
(5338.3863 547.84499 -64.874436)
(4907.6896 1342.1764 9.2434023)
(4917.9737 1340.71 9.1866233)
(4928.1473 1339.197 9.240703)
(4938.3571 1337.6878 9.1793328)
(4948.5479 1336.2798 9.1394729)
(4958.758 1334.9885 9.0548944)
(4969.0272 1333.9095 8.8806451)
(3.8403147 48.039378 60.843838)
(26.171282 66.752892 61.554065)
(59.243518 95.939425 74.890438)
(106.10085 121.37596 78.185008)
(163.33858 146.62836 81.376692)
(232.0208 172.88899 82.268554)
(309.73351 197.68846 81.671634)
(396.13031 223.46572 80.377516)
(491.30307 248.10424 77.357719)
(594.09783 273.41432 73.150869)
(704.68884 298.32575 67.578029)
(822.14823 323.88549 60.326054)
(946.52089 349.90813 51.583165)
(1076.9446 376.7843 41.200476)
(1212.9558 404.59018 29.494241)
(1353.7892 433.38994 16.573836)
(1498.8523 463.47612 2.644747)
(1646.8516 494.49142 -11.832523)
(1797.1581 526.7068 -26.522531)
(1948.4374 559.80421 -40.925583)
(2099.7308 593.60042 -54.510876)
(2249.77 627.77866 -66.858028)
(2397.573 662.04383 -77.505388)
(2541.9801 695.94337 -86.135542)
(2682.2763 729.21259 -92.468223)
(2817.504 761.50622 -96.666142)
(2947.1809 792.28008 -98.325346)
(3070.7459 821.64152 -97.913105)
(3188.1005 849.09382 -95.661659)
(3298.8301 874.70172 -91.76518)
(3403.1162 898.39924 -86.592753)
(3501.0057 920.12981 -80.53239)
(3592.6207 940.1112 -73.864615)
(3678.4057 958.3499 -66.853397)
(3758.6123 975.13467 -59.861246)
(3833.7362 990.63163 -52.900862)
(3904.5377 1005.052 -46.247961)
(3971.456 1018.6532 -40.087226)
(4035.2771 1031.8241 -34.279318)
(4096.8067 1044.5342 -28.899496)
(4156.8928 1057.3658 -24.096422)
(4216.317 1070.2029 -19.677247)
(4276.2428 1083.6727 -15.777359)
(4337.0044 1097.6327 -12.137089)
(4400.2113 1112.5126 -8.9291148)
(4466.0343 1128.444 -5.7867983)
(4551.2595 1149.5797 -2.9090681)
(-9.3394942 30.050025 39.212819)
(12.210862 36.804068 44.283425)
(47.941766 59.834113 54.251757)
(93.203534 74.329133 58.09907)
(152.46712 91.442165 61.842479)
(221.21289 108.55368 63.154184)
(300.41865 125.85492 64.769962)
(389.43949 143.89003 64.350712)
(487.82684 161.8934 63.30043)
(594.95292 181.05798 60.611006)
(710.51195 200.62288 56.593762)
(834.019 221.37147 50.63252)
(964.75258 243.16043 43.077797)
(1102.1038 266.55503 33.680427)
(1245.3709 291.14833 22.681647)
(1393.4684 317.69293 10.117681)
(1545.2459 345.55617 -3.4849919)
(1699.6997 375.33729 -17.875282)
(1855.4526 406.48772 -32.567654)
(2011.3036 439.17919 -46.97906)
(2165.7759 472.73116 -60.608163)
(2317.6506 507.10145 -72.953657)
(2465.5778 541.61185 -83.565176)
(2608.6004 576.05351 -92.041482)
(2745.6225 609.64026 -98.307071)
(2875.858 642.32175 -101.99499)
(2998.9759 673.18259 -103.39158)
(3114.5913 702.56316 -102.76744)
(3222.4378 729.75191 -100.0873)
(3322.7793 754.91701 -95.970503)
(3415.7447 777.92798 -90.647582)
(3501.6814 798.92642 -84.493692)
(3581.1435 817.97565 -77.842009)
(3654.6553 835.3744 -71.02608)
(3722.9468 851.35088 -64.20555)
(3786.8657 866.03763 -57.579812)
(3847.211 880.02231 -51.356824)
(3904.9311 893.15095 -45.455455)
(3961.1217 906.34455 -40.125195)
(4016.5643 919.11748 -35.163313)
(4072.6799 932.53347 -30.747573)
(4129.9642 946.16949 -26.72786)
(4190.0879 960.76919 -23.084779)
(4253.2626 976.32979 -19.821015)
(4321.0932 993.14992 -16.761626)
(4393.7999 1011.4279 -13.854466)
(4478.5898 1032.7331 -11.030451)
(-14.030906 15.526864 24.355311)
(11.810538 20.807558 26.308017)
(48.079255 29.234333 34.622616)
(101.03987 37.709189 38.543387)
(166.64234 44.08485 43.003028)
(242.84251 53.830436 46.468839)
(330.57268 61.53466 48.169615)
(426.44519 71.498305 49.473428)
(532.12929 81.873247 49.048134)
(645.02934 93.622208 47.192324)
(765.43336 106.6218 43.442812)
(892.0113 121.21645 37.945794)
(1024.0721 137.59992 30.647208)
(1160.6261 155.77716 21.590599)
(1300.8174 176.09148 11.177444)
(1443.6253 198.3916 -0.62887455)
(1588.1463 222.7044 -13.360901)
(1733.1493 249.106 -26.721106)
(1877.7899 277.25594 -40.131559)
(2020.8752 307.03828 -53.187909)
(2161.5401 338.03132 -65.400014)
(2298.8246 370.09804 -76.436406)
(2432.1095 402.69235 -85.826086)
(2560.4886 435.22123 -93.365259)
(2683.6495 467.61842 -98.838765)
(2801.3359 499.17847 -102.30772)
(2913.4453 529.87899 -103.90002)
(3019.8483 559.26114 -103.43175)
(3120.887 587.20862 -101.48401)
(3216.8011 613.62153 -98.198929)
(3307.9249 638.56196 -93.807528)
(3394.8569 661.93712 -88.665629)
(3478.0873 684.02268 -83.031532)
(3558.1887 704.94682 -77.13396)
(3635.9589 724.79876 -71.122672)
(3711.8621 743.98869 -65.250142)
(3786.8141 762.55277 -59.539219)
(3861.4524 780.91333 -54.123119)
(3936.5049 799.18664 -49.086595)
(4012.7104 817.52483 -44.291045)
(4090.7237 836.40605 -40.060801)
(4171.195 855.57846 -35.975358)
(4254.859 875.82497 -32.45472)
(4341.8788 896.73913 -29.03422)
(4433.096 918.85154 -25.944252)
(4528.5972 942.03678 -22.883212)
(4621.8215 965.06198 -19.981626)
(-16.689592 2.3575058 5.9963113)
(15.813956 -0.42116281 7.193464)
(62.952978 -1.185259 14.312111)
(125.95479 -4.6557465 19.435884)
(203.93709 -7.1556488 25.863817)
(291.87865 -8.1118849 29.119594)
(390.10018 -9.1817777 33.281533)
(496.06561 -7.4075709 34.383887)
(609.06668 -4.498995 34.770796)
(727.16029 0.8749313 32.656392)
(849.6282 8.2314768 29.047961)
(975.04982 18.191706 23.396426)
(1102.2752 30.203325 16.063496)
(1230.6923 44.825882 7.3588224)
(1359.231 61.723204 -2.6815239)
(1487.4964 80.978014 -13.600517)
(1614.5003 102.15948 -25.156769)
(1740.0413 125.51761 -36.837374)
(1863.4537 150.44327 -48.448847)
(1984.7013 177.01745 -59.48303)
(2103.1735 204.88819 -69.824998)
(2219.1637 233.83016 -79.0966)
(2332.2039 263.25305 -86.963988)
(2442.7424 293.34946 -93.390266)
(2550.6879 323.52113 -98.350917)
(2656.4223 353.78683 -101.67472)
(2760.0802 383.68466 -103.34218)
(2862.1553 413.23321 -103.60113)
(2963.02 442.22955 -102.56734)
(3063.1272 470.67466 -100.28765)
(3162.8703 498.49515 -97.127493)
(3262.7034 525.71943 -93.158431)
(3362.9599 552.43878 -88.666717)
(3464.0618 578.65882 -83.754834)
(3566.2808 604.54338 -78.681305)
(3669.8894 630.10958 -73.506534)
(3775.1899 655.62342 -68.433897)
(3882.2001 680.9961 -63.492147)
(3991.2122 706.50004 -58.768965)
(4102.0752 732.13098 -54.386594)
(4215.2064 758.17 -50.218759)
(4330.0669 784.40585 -46.448621)
(4447.0958 811.22237 -42.8529)
(4565.4603 838.35764 -39.607371)
(4685.7344 866.049 -36.390581)
(4807.0029 894.23091 -33.459983)
(4912.9738 919.79922 -30.256981)
(-14.825469 -10.934692 -15.540598)
(30.775801 -19.75854 -15.04873)
(83.901157 -38.34871 -7.4284497)
(159.28138 -52.39459 -0.34608026)
(248.05173 -68.134132 5.948287)
(345.83979 -79.666579 12.668622)
(453.83823 -89.216217 16.5253)
(566.39225 -95.236787 19.172507)
(684.03507 -98.136356 19.499852)
(803.6146 -97.703661 17.99275)
(924.60017 -93.91849 14.41296)
(1044.7374 -87.088942 9.0298211)
(1164.0606 -77.23029 2.1930141)
(1281.3084 -64.474009 -6.0254481)
(1396.54 -49.229983 -15.143124)
(1509.0764 -31.516489 -24.892768)
(1619.0984 -11.791024 -34.995704)
(1726.4624 9.9545942 -45.097102)
(1831.6556 33.235538 -54.995423)
(1934.762 58.021855 -64.252909)
(2036.2964 84.072904 -73.045072)
(2143.4541 111.33999 -80.83906)
(2252.318 139.77737 -87.976686)
(2351.7401 168.27345 -93.599003)
(2451.4807 197.44278 -98.147572)
(2551.7412 226.80333 -101.31848)
(2653.3273 256.43747 -103.4502)
(2756.6476 286.20311 -104.44595)
(2862.1621 316.12348 -104.3997)
(2970.2573 346.03568 -103.38384)
(3081.2589 376.03072 -101.55032)
(3195.4346 406.00469 -98.947306)
(3312.8998 435.99176 -95.74984)
(3433.7034 466.02649 -92.081666)
(3557.8736 495.98218 -87.998837)
(3685.1481 526.07231 -83.721299)
(3815.4065 556.0799 -79.292127)
(3948.4212 586.21801 -74.795894)
(4099.4112 618.68272 -70.758213)
(4246.4937 650.58763 -66.606337)
(4386.9219 681.15613 -62.592768)
(4527.789 711.78487 -58.625207)
(4668.279 742.48283 -55.045484)
(4807.6904 773.04072 -51.535497)
(4945.4604 803.63783 -48.240516)
(5080.4057 833.99565 -44.974443)
(5196.2079 861.42506 -41.481996)
(-6.7864672 -26.492362 -40.226037)
(47.095592 -52.000568 -35.232721)
(105.63195 -82.98155 -29.057872)
(186.52669 -110.74933 -22.243507)
(277.33586 -136.47123 -11.722179)
(378.96733 -157.06831 -5.1642375)
(487.89195 -174.27272 1.3478294)
(601.47248 -186.24909 5.0264137)
(718.10681 -194.06554 6.6948067)
(835.63323 -197.31831 6.2768483)
(952.86584 -196.43645 3.575238)
(1068.8312 -191.5388 -0.9822789)
(1182.9628 -183.23734 -7.323911)
(1294.6833 -171.58283 -14.774715)
(1403.8352 -157.23444 -23.261091)
(1510.5216 -140.11482 -32.316369)
(1614.9159 -120.99512 -41.738491)
(1717.4176 -99.681992 -51.17265)
(1818.506 -76.947235 -60.363443)
(1918.6432 -52.523042 -69.17389)
(2018.5293 -27.115132 -77.380167)
(2122.282 -0.34692537 -84.932891)
(2221.5622 26.87935 -91.520002)
(2324.9431 55.546823 -97.22078)
(2427.5717 84.624033 -101.84876)
(2532.8122 114.17149 -105.35335)
(2640.9014 144.25478 -107.99374)
(2752.2179 174.81586 -109.53065)
(2867.1141 205.75308 -110.17606)
(2985.8632 237.03388 -109.83066)
(3108.4896 268.58326 -108.6956)
(3235.069 300.34277 -106.71365)
(3365.4103 332.31832 -104.13411)
(3499.4105 364.32592 -100.91624)
(3636.6392 396.46473 -97.277027)
(3776.6604 428.53598 -93.320731)
(3919.1867 460.57535 -89.115692)
(4063.1995 492.44363 -84.897823)
(4208.6952 524.25523 -80.540329)
(4377.0542 558.72082 -76.850272)
(4521.0146 589.99187 -72.725763)
(4663.8038 620.96102 -68.936262)
(4804.2759 651.60348 -65.305504)
(4941.474 681.88417 -61.904286)
(5074.7191 711.71358 -58.527625)
(5203.1479 741.11445 -55.287652)
(5319.8588 768.8969 -51.892611)
(5.0347801 -40.992626 -57.879472)
(60.926368 -75.780637 -53.220211)
(116.77549 -120.82769 -51.825489)
(193.16012 -157.41687 -40.579525)
(278.79048 -192.27704 -31.50785)
(375.53726 -222.07945 -21.784919)
(479.43359 -246.73293 -13.983588)
(588.65754 -266.17634 -8.3254822)
(701.79739 -280.2866 -4.8010231)
(816.68404 -289.37542 -3.7204339)
(933.12971 -293.47901 -4.8730811)
(1049.1535 -293.32885 -8.3898711)
(1165.1966 -288.8872 -13.386902)
(1280.172 -280.7127 -20.027778)
(1394.2808 -269.0073 -27.914647)
(1507.1951 -254.1238 -36.750238)
(1619.315 -236.41377 -46.067518)
(1730.6095 -216.1467 -55.757315)
(1841.5845 -193.61871 -65.339807)
(1952.3338 -169.07115 -74.734339)
(2063.512 -142.7505 -83.514425)
(2175.1133 -114.90536 -91.730588)
(2287.7343 -85.686781 -98.94092)
(2401.6998 -55.459011 -105.15631)
(2517.0697 -24.128111 -110.47111)
(2634.5242 7.8553926 -114.53824)
(2753.7941 40.43809 -117.61286)
(2875.2212 73.397212 -119.4047)
(2998.8317 106.61429 -120.11836)
(3124.6398 139.92385 -119.69405)
(3252.401 173.20919 -118.39642)
(3382.0663 206.39647 -116.18127)
(3513.2853 239.32557 -113.29814)
(3645.7639 271.9101 -109.7927)
(3779.0713 304.08101 -105.87099)
(3912.6793 335.87585 -101.74362)
(4046.2722 366.99228 -97.285269)
(4179.0279 397.66047 -92.962644)
(4310.6179 427.7722 -88.722438)
(4440.6318 457.35244 -84.576632)
(4567.9852 486.36649 -80.649022)
(4692.8137 514.80908 -76.918792)
(4814.3594 542.84773 -73.465459)
(4932.1528 570.33178 -70.092174)
(5045.8148 597.43558 -66.900849)
(5154.9371 624.04128 -63.686251)
(5253.2256 649.3889 -60.303315)
(-1.8726199e-15 -1.0357256e-16 4.2324109e-16)
(-4.3693994e-15 5.8098526e-16 1.0825799e-16)
(-1.86708e-15 5.0203615e-16 5.7484399e-16)
(-1.1298519e-15 4.4303811e-16 -1.5186772e-16)
(-1.5283164e-15 1.7502349e-16 4.7144117e-17)
(-3.9278597e-15 -6.147074e-18 -1.0233878e-17)
(-3.270765e-15 8.5080195e-17 2.8271762e-17)
(-1.444637e-15 3.1767481e-17 -1.0328492e-16)
(-1.9600489e-15 -2.0641393e-16 2.5996682e-17)
(-1.0758982e-15 -5.0887233e-16 -1.6282415e-16)
(-1.1902312e-15 -6.3217422e-16 -1.0496995e-16)
(-2.2455722e-15 -1.0363924e-16 3.7607835e-16)
(-1.7254929e-15 1.2766475e-16 7.9907906e-17)
(-6.542485e-16 2.4659353e-16 4.7610311e-16)
(-1.0183069e-15 2.0413811e-16 3.0876606e-16)
(-1.2825224e-16 3.2154578e-16 2.6910031e-16)
(-2.4669526e-15 5.8726168e-16 -3.2350189e-17)
(-1.9694108e-15 5.8752001e-16 2.9593509e-16)
(-1.9972486e-15 5.0741204e-16 1.6376266e-16)
(-5.0142844e-16 5.9082617e-16 -1.5096731e-17)
(2.8672985e-17 2.0007103e-16 -2.079567e-16)
(-3.5598279e-15 1.6770216e-16 6.1584209e-17)
(1.5219227e-15 -3.8112137e-16 -3.4960392e-16)
(-8.8364966e-17 -1.5289127e-16 1.7491834e-16)
(2.7397895e-16 -2.6900304e-16 -2.0413732e-16)
(-5.1236454e-16 -3.7600259e-16 -4.411389e-17)
(-1.3114086e-15 -5.3747975e-16 1.2489795e-16)
(2.0041989e-16 -4.4379834e-16 -1.4360784e-16)
(-1.3448657e-15 3.3966264e-16 -2.7012678e-16)
(-2.2010094e-15 1.2158219e-16 1.1470551e-16)
(-1.2722141e-15 -2.3577892e-16 -7.7366055e-17)
(-2.6936153e-15 2.298542e-17 6.0151854e-16)
(-1.8084585e-15 2.5926424e-16 8.2177642e-17)
(-1.0121806e-15 3.7760621e-16 1.5728837e-17)
(-3.5076342e-15 -1.049112e-16 -1.8966684e-16)
(-1.2388067e-16 -2.746004e-16 -1.3203227e-16)
(-1.1077126e-15 -2.2449831e-16 5.9960705e-17)
(-7.9462407e-16 5.2806017e-17 1.8160622e-16)
(-1.481116e-15 2.6347307e-16 -6.003674e-17)
(5.3541372e-16 1.9494005e-16 5.7756958e-17)
(-2.5861876e-15 -7.0653702e-17 -1.8824779e-16)
(-1.6152529e-15 1.8241927e-16 3.8488004e-16)
(-1.0389662e-15 3.299921e-17 2.9700946e-16)
(-3.8817577e-15 -1.9427146e-16 -1.2145786e-15)
(-1.6161979e-15 2.8442108e-16 -1.856842e-16)
(8.1577518e-16 1.8112067e-17 2.0819295e-16)
(-2.485062e-15 2.8178417e-16 -5.4749215e-16)
(-1.8307085e-15 4.4562511e-16 -1.4619564e-16)
(-1.4586292e-15 4.0358521e-16 -4.0281137e-16)
(45.873563 -24.944183 -41.551556)
(53.170073 -31.548345 -25.936607)
(61.393862 -32.226885 -11.266399)
(64.976636 -34.367344 0.9177739)
(64.108771 -31.691738 12.535689)
(63.899567 -33.154437 24.604434)
(55.752948 -25.984132 39.106556)
(100.20604 -122.93085 -52.82188)
(113.97555 -129.5911 -25.948929)
(119.20814 -120.97795 -6.4858046)
(120.62121 -116.90574 9.4779396)
(122.98939 -122.84086 24.226068)
(116.31754 -123.90035 43.363284)
(109.63493 -127.23669 68.142237)
(140.47884 -155.15891 -47.112518)
(155.09431 -149.80968 -28.518312)
(164.50603 -153.17359 -5.1454033)
(167.13252 -152.92198 15.001647)
(165.68809 -150.80288 35.018269)
(160.43878 -153.30679 52.412712)
(153.51546 -163.24179 79.377376)
(212.90551 -213.70833 -39.97787)
(224.93383 -214.90485 -20.262104)
(231.48516 -212.68694 2.865375)
(234.43049 -211.1644 20.497406)
(233.39893 -211.93674 40.195831)
(228.85527 -216.67793 62.148213)
(216.75832 -218.3158 81.31099)
(286.75452 -252.54949 -29.350244)
(297.19015 -250.01609 -11.416042)
(305.35799 -249.25329 8.0161311)
(307.35495 -248.63065 27.325706)
(306.43164 -249.25121 45.670511)
(300.8597 -250.68933 63.943651)
(292.76896 -255.90089 84.457232)
(372.48441 -289.00674 -20.524389)
(382.39359 -288.74944 -3.3917855)
(388.50744 -286.80349 15.043141)
(391.19626 -286.25474 31.960446)
(389.53889 -286.38071 49.126882)
(386.25169 -288.78562 67.61977)
(375.35331 -290.79745 83.722353)
(467.81055 -320.1374 -12.409398)
(475.44359 -317.88295 3.937989)
(481.59652 -316.33316 20.055994)
(482.97526 -315.17167 35.287368)
(481.60682 -314.68027 51.367006)
(476.83255 -315.77267 66.059969)
(470.26382 -318.52037 81.8735)
(567.00862 -343.80062 -5.8978099)
(575.03578 -342.17595 8.0475941)
(580.58372 -339.84398 23.050796)
(581.90391 -338.052 36.590594)
(581.20805 -337.397 50.60576)
(576.91347 -337.12422 64.987917)
(569.29583 -337.9022 78.104492)
(674.56527 -363.74725 -2.0846302)
(680.64522 -360.42321 11.493893)
(684.25574 -356.80047 24.257804)
(686.50906 -355.02578 36.708066)
(685.9463 -353.85061 48.9162)
(682.09047 -352.11636 60.863663)
(676.55787 -353.07983 72.883535)
(784.25669 -376.74773 -0.10481732)
(790.50981 -372.92822 11.2544)
(794.98004 -369.26734 23.206003)
(796.11768 -366.33558 34.200699)
(795.48614 -363.9883 45.212474)
(792.52845 -362.22045 55.529523)
(787.3138 -361.10977 66.166115)
(899.06382 -386.08971 -0.72247049)
(904.25685 -381.13285 9.8931809)
(908.16569 -376.65018 19.954159)
(909.51951 -372.55248 29.42458)
(909.72542 -369.69496 39.053842)
(907.10571 -366.12681 47.915956)
(903.19735 -364.30988 57.465971)
(1016.1172 -389.76278 -3.618821)
(1021.0821 -383.61826 5.5233543)
(1024.5161 -377.98246 14.236327)
(1026.1886 -373.47201 22.670423)
(1026.613 -369.64679 30.963303)
(1024.6624 -365.65867 38.816042)
(1021.7543 -362.59755 46.538288)
(1135.7616 -389.59211 -8.8024312)
(1140.3135 -382.56896 -0.70946827)
(1143.6221 -376.41954 6.7282965)
(1145.7851 -371.12552 13.922824)
(1146.5106 -366.34689 21.269165)
(1145.6275 -361.70931 27.747197)
(1143.5175 -356.86731 34.317617)
(1256.9338 -384.7879 -15.649862)
(1261.1531 -376.96705 -8.8121778)
(1264.7191 -369.80624 -2.6376201)
(1266.8658 -363.73837 3.7155115)
(1268.4216 -358.4042 9.5940004)
(1268.1461 -352.47715 15.161747)
(1267.2643 -346.9604 20.564821)
(1379.6368 -376.33005 -24.383456)
(1384.1171 -367.95552 -18.695899)
(1387.4543 -360.23261 -13.579058)
(1390.4881 -353.95463 -8.3373863)
(1392.3485 -347.63038 -3.4042889)
(1393.2421 -341.20259 1.3575198)
(1393.28 -334.43929 5.8810728)
(1503.5959 -364.06298 -34.397131)
(1507.9119 -355.09644 -29.661423)
(1511.6954 -347.02841 -25.707702)
(1515.0537 -339.78723 -21.312964)
(1517.7187 -333.14823 -17.345318)
(1519.4542 -325.76697 -13.454939)
(1520.6075 -318.567 -9.8888268)
(1628.4563 -348.55591 -45.330269)
(1633.2141 -339.48416 -41.76799)
(1637.1635 -330.92467 -38.656969)
(1641.2481 -323.61165 -35.251664)
(1644.5104 -316.48304 -32.078075)
(1647.3329 -308.82273 -28.996819)
(1649.4764 -300.70379 -26.072788)
(1754.3093 -329.87178 -56.957643)
(1759.1082 -320.47149 -54.284211)
(1763.682 -311.9234 -52.080252)
(1768.1407 -304.14303 -49.473847)
(1772.3658 -296.84937 -47.173815)
(1776.0071 -288.53976 -44.723001)
(1779.3642 -280.327 -42.575571)
(1880.7722 -308.33981 -68.68072)
(1886.137 -299.22632 -67.033831)
(1890.9872 -290.51064 -65.606437)
(1896.3199 -282.9271 -63.823051)
(1901.106 -275.33772 -62.22086)
(1905.8983 -267.16458 -60.386411)
(1910.2605 -258.51349 -58.884976)
(2008.0327 -284.20841 -80.347867)
(2013.4974 -275.12708 -79.501728)
(2019.1513 -266.78227 -78.835933)
(2024.8757 -259.06644 -77.743524)
(2030.6265 -251.63748 -76.842513)
(2036.2847 -243.29588 -75.61202)
(2041.7932 -234.79098 -74.695354)
(2135.6612 -257.69097 -91.390088)
(2141.8005 -249.21598 -91.392871)
(2147.7742 -241.07731 -91.411341)
(2154.3463 -233.74389 -90.971263)
(2160.7171 -226.41463 -90.696081)
(2167.4149 -218.42626 -89.942986)
(2173.9168 -209.99166 -89.535269)
(2263.9452 -229.0927 -101.66352)
(2270.2218 -221.06767 -102.34795)
(2276.9736 -213.55504 -102.93314)
(2283.9879 -206.46331 -103.14421)
(2291.1829 -199.53295 -103.33074)
(2298.69 -191.80212 -103.11501)
(2306.2529 -183.87648 -103.17815)
(2392.4005 -198.71563 -110.75823)
(2399.2425 -191.47614 -112.07097)
(2406.4295 -184.52424 -113.26756)
(2414.128 -177.99296 -113.89358)
(2421.9572 -171.5415 -114.59814)
(2430.3888 -164.42474 -114.79655)
(2438.8134 -156.94239 -115.21153)
(2521.1845 -166.72223 -118.49999)
(2528.333 -160.35605 -120.4128)
(2536.1342 -154.20306 -121.9115)
(2544.2443 -148.22725 -123.1048)
(2552.7753 -142.35774 -124.13623)
(2561.7933 -135.74006 -124.7089)
(2571.0975 -129.09364 -125.47158)
(2650.0975 -133.70535 -124.8429)
(2657.673 -128.23566 -126.98614)
(2665.8216 -122.85315 -129.11393)
(2674.5398 -117.66241 -130.51352)
(2683.5349 -112.38132 -131.81031)
(2693.2735 -106.64571 -132.72105)
(2703.285 -100.7508 -133.73139)
(2779.0326 -99.707286 -129.37983)
(2786.9037 -95.139237 -132.03741)
(2795.5621 -90.740574 -134.32963)
(2804.5878 -86.154885 -136.01378)
(2814.0384 -81.615871 -137.61528)
(2824.2026 -76.731051 -138.86659)
(2834.7477 -71.701085 -139.82607)
(2907.8827 -65.013547 -132.39907)
(2916.0696 -61.504349 -135.49458)
(2924.9589 -57.946512 -137.63513)
(2934.3611 -54.355793 -139.88143)
(2944.3052 -50.656066 -141.37218)
(2955.0454 -46.763641 -142.7703)
(2965.8725 -42.622281 -143.64861)
(3036.5624 -30.154926 -133.7764)
(3044.8908 -27.796199 -137.14246)
(3054.2164 -25.001778 -139.29579)
(3063.8183 -22.342682 -141.80701)
(3074.0813 -19.314863 -143.2225)
(3084.8586 -16.188814 -144.97708)
(3096.2637 -13.189671 -146.04)
(3164.6137 4.7554377 -133.88241)
(3173.3726 6.3649414 -137.15291)
(3182.7337 8.1154641 -139.63358)
(3192.6052 10.126252 -141.91759)
(3203.0229 12.265855 -143.68761)
(3214.2522 14.366759 -145.36347)
(3225.8474 16.513483 -146.45559)
(3292.1759 39.637648 -132.44442)
(3300.9927 40.256393 -135.94968)
(3310.6201 41.263657 -138.18719)
(3320.6618 42.440245 -140.70235)
(3331.3625 43.783451 -142.42459)
(3342.6439 45.169668 -144.11337)
(3354.4591 46.369636 -145.32386)
(3418.8198 74.117206 -130.18077)
(3427.8807 74.004932 -133.43665)
(3437.6184 74.250264 -135.79503)
(3447.7778 74.697005 -138.14916)
(3458.5113 75.4136 -139.90823)
(3469.8999 75.919488 -141.60105)
(3481.7866 76.364474 -142.84272)
(3544.4178 108.13578 -126.77383)
(3553.5502 107.40955 -129.99053)
(3563.3616 106.96545 -132.1937)
(3573.5657 106.82749 -134.50977)
(3584.4217 106.83847 -136.25121)
(3595.8326 106.6772 -137.9287)
(3607.7817 106.40688 -139.20426)
(3668.5656 141.60785 -122.84727)
(3677.8362 140.303 -125.80836)
(3687.7352 139.3002 -127.94601)
(3698.0208 138.55081 -130.10964)
(3708.8931 138.02657 -131.81261)
(3720.2503 137.27272 -133.44424)
(3732.206 136.42841 -134.68052)
(3791.1404 174.32446 -118.33964)