/*--------------------------------*- C++ -*----------------------------------*\
  =========                 |
  \\      /  F ield         | OpenFOAM: The Open Source CFD Toolbox
   \\    /   O peration     | Website:  https://openfoam.org
    \\  /    A nd           | Version:  6
     \\/     M anipulation  |
\*---------------------------------------------------------------------------*/
FoamFile
{
    version     2.0;
    format      ascii;
    class       pointScalarField;
    location    "0.58";
    object      p;
}
// * * * * * * * * * * * * * * * * * * * * * * * * * * * * * * * * * * * * * //

dimensions      [1 -1 -2 0 0 0 0];

internalField   nonuniform List<scalar> 
625
(
718314.14
-1092488
-337.07121
5982.121
1315992.4
-2158674.7
4266.1974
-828.99003
487053.61
23520.49
-146514.71
-3108.7985
-439.3738
3006.6114
343001.68
337160.06
337801.79
321185.63
279220.17
270532.4
241812.9
220016.26
217586.76
190786.96
186398.59
173508.35
163966.69
150432.29
136707.67
120379.3
101856.14
83628.936
63794.532
44184.041
27890.663
10775.463
2328.652
-369110.98
-221735.69
-316173.49
-247239.74
-238708.6
-240737.82
-217806.37
-209241.95
-204104.75
-192176.6
-184666.49
-172180.93
-163201.17
-148487.2
-133241.1
-115738.82
-96218.195
-77496.396
-55568.151
-40099.28
-21456.538
-8664.5648
519.44779
756629.66
-58178.639
-311934.66
-377950.05
-499271.68
-378582.72
-344625.31
-416514.02
-340531.78
-332249.19
-330558.28
-315065.92
-297258.25
-269262.18
-247125.45
-215041.7
-187110.61
-159054.77
-128155.79
-102777.27
-77253.921
-54475.383
-35180.946
-17968.946
-4659.3561
3610.1142
3322.3978
-1696.9088
-2937.9882
2304.4603
9513.6503
21144.151
37484.002
56171.23
77589.821
98997.132
121221.25
142571.97
162127.51
180601.95
198268.8
212658.46
214581.16
258321.14
258129.44
275368.64
277855.46
329990.93
294687.28
349921.24
355507.93
326235.37
778485.12
752135.45
679071.83
-1202252
-1188942.9
-1190388.4
7620.9773
6803.5971
9707.0453
-2985.0163
-2350.225
-1325.9461
143040.03
170479.47
184456.66
168598.14
169491.19
175183.27
158534.03
159759.83
148271.3
141222.98
134433.81
123428.83
110990.01
97261.236
83885.325
68153.074
53681.442
40064.203
26449.426
17808.564
8719.2533
4155.2771
1483.1462
-24348.402
4275.89
-15203.033
7899.827
-3324.3972
-601.70526
-6686.7885
-4891.4632
-10580.293
-17099.986
-20325.557
-24779.167
-26891.701
-26165.523
-24368.602
-21231.279
-16436.419
-11125.774
-7305.0122
-2487.0044
-1806.3957
2408.5113
1711.9824
-242167.11
-214462.96
-208829.74
-183080.35
-215496
-178504.42
-184047.4
-167466.76
-158150.41
-143368.85
-127192.93
-111949.06
-96437.579
-81778.161
-68648.264
-56691.726
-45724.126
-35307.959
-27509.378
-16836.387
-10467.779
-6129.4841
-1093.354
407828.07
380170.35
430331.88
-18843.602
9212.911
-32969.118
-123327.24
-166999.09
-251842.31
-521952.86
-523184.07
-550569.83
-424398.82
-390624.39
-361597.41
-371528.59
-343180.29
-353326.54
-311480.1
-305175.74
-304672.96
-320901.52
-318638.09
-327118.69
-305769.64
-296285.48
-295789.97
-293135.4
-287339.34
-309777.98
-283120.3
-274599.96
-287851.32
-266473.35
-260338.49
-273904.98
-248876.3
-244120.66
-259442.34
-227582.4
-224394.12
-238096.24
-207255.99
-204914.18
-217724
-182705.54
-181758.95
-191931
-158537.28
-157525.09
-166080.77
-133649.01
-133309.92
-140976.71
-109403.25
-109541.02
-114300.88
-86802.266
-85488.932
-89412.147
-64717.606
-64184.349
-66847.7
-45929.488
-44186.741
-45326.275
-28650.443
-26961.88
-27633.544
-13915.922
-12605.659
-12756.443
-2468.5928
-4411.7743
-2402.5661
-997.84889
2813.609
755.8377
-3321.6599
-3258.0331
-3931.1785
-1678.9746
-1998.8124
-2066.7043
3632.541
4585.8269
5395.5119
387335.52
399255.05
400938.95
380757.78
361278.79
341157.2
375741.29
356607.4
359417.09
322625.77
299653.14
309356.07
308782.59
304786.3
281821.9
301131.68
248565.66
272965.74
267444.88
244792.47
255448.16
261886.23
224316.99
235417.3
237038.2
212539.48
219434.95
232329.14
193902.71
215852.8
217230.6
184389.85
200802.22
204971.85
167938.66
192134.2
186332.38
157509.38
179086.27
170589.67
143934.34
164206.89
150647.67
129796.11
146822.11
130054.34
113682.72
127432.33
107645.8
96949.98
106361.37
86068.103
79055.116
84324.777
62201.502
60455.374
62258.257
42400.946
42064.009
41982.965
23904.79
24317.746
22556.009
8418.4443
9108.1057
8116.8332
1720.8989
1620.7022
1289.066
209056.59
249919.18
212627.94
221323.19
229957.2
200459.01
192419.83
179891.28
160683.27
143916.38
133164.44
111345.75
93443.121
77681.316
62082.252
48757.308
37101.31
27954.42
20366.39
14358.977
9576.6797
6220.5565
1209.5043
-37740.713
2356.0461
-23285.7
-5842.2327
-8096.4473
-27982.638
-21855.152
-23545.922
-25645.922
-18971.064
-9991.5805
-3739.9191
5702.7985
14482.305
21391.9
25831.374
27129.576
26395.066
22021.535
17438.71
11916.347
5743.6377
689.12287
-193218.8
-195404.33
-232009.74
-202753.84
-186920.11
-178236.71
-146661.1
-137841.42
-119845.56
-109761.6
-102525.4
-96346.877
-94345.667
-88706.536
-85986.799
-80115.876
-72293.701
-63117.254
-52685.865
-40355.089
-29401.509
-18160.197
-8866.4975
254638.58
245842.47
221955.41
248288.06
226377.13
213467.59
196742.85
176371.43
217606.96
193889.48
216385.47
176581.6
226812.26
170391.71
194604.37
178094.49
187031.9
198506.78
190049.53
186312.55
179096.43
178987.66
165573.72
173003.78
159627.05
154828.46
166822.83
142872.67
151888
145835.33
124078.96
131835.58
128685.21
101621.07
118251.29
114496.8
83880.411
102298.98
95757.181
65703.446
84438.945
78455.52
48363.561
67191.834
61882.241
34176.458
51665.516
46948.958
23437.573
36884.029
33858.178
14763.78
24327.062
22520.79
8987.2977
13508.78
14430.7
6996.7973
7926.391
8012.6223
2772.7707
1033.1708
3128.3861
3295.502
1921.3236
3514.9803
291.54941
-1397.0044
-625.41478
-23519.962
-42902.751
-2506.7894
-24668.312
8656.4314
16762.004
-1507.8577
-2598.9223
11470.148
-13080.657
-12594.727
-4435.5542
-24018.292
-16727.422
13771.713
-29383.102
-6356.8303
-1203.4213
-18583.741
-18063.642
-9190.4706
-31608.47
-21726.893
-7217.3476
-27555.815
-14252.043
-12867.076
-19173.071
-17345.632
-16468.475
-17694.095
-15488.05
-19208.058
-11179.995
-8471.0636
-18890.989
-4938.325
-3210.9925
-21537.832
439.60875
774.82178
-19854.012
3732.5798
7016.3507
-16972.884
7568.8191
11159.235
-13743.559
9464.0785
13150.491
-9214.2472
9258.6254
14501.492
-5063.4371
9980.5679
13002.822
131.46527
7432.3223
11597.854
1020.3589
8799.3676
1608.7043
4183.6
3316.4459
5089.4122
4543.511
1628.307
1942.1423
2438.6316
-309824.42
-328242.16
-375653.93
-211732.85
-178326.79
-270919.38
-202988.1
-251292.5
-264707.57
-248864.2
-183168.56
-243643.7
-191738.7
-174213.49
-216950.79
-186981.46
-156770.11
-212098.24
-171835.75
-140843.54
-187097.96
-155799.69
-125996.73
-174184.75
-136879.44
-115678.63
-155926.05
-126249.88
-108523.65
-141328.28
-112440.97
-102935.4
-126262.39
-99952.739
-98341.647
-113526.12
-87072.441
-98023.846
-102518.65
-77152.217
-94881.178
-91177.858
-66964.99
-90716.323
-80658.782
-58012.834
-84039.228
-72537.932
-49240.358
-75895.072
-62742.061
-41755.373
-64419.451
-53405.438
-33795.736
-51974.831
-44309.326
-24389.988
-39724.286
-33457.425
-21443.974
-25893.01
-22929.532
-9486.932
-12982.071
-8597.3706
-5179.7393
-6101.2337
-8201.3849
)
;

boundaryField
{
    free
    {
        type            calculated;
    }
    fixed
    {
        type            calculated;
    }
    freeTop
    {
        type            calculated;
    }
}


// ************************************************************************* //
