/*--------------------------------*- C++ -*----------------------------------*\
  =========                 |
  \\      /  F ield         | OpenFOAM: The Open Source CFD Toolbox
   \\    /   O peration     | Website:  https://openfoam.org
    \\  /    A nd           | Version:  6
     \\/     M anipulation  |
\*---------------------------------------------------------------------------*/
FoamFile
{
    version     2.0;
    format      ascii;
    class       pointScalarField;
    location    "0.41";
    object      E;
}
// * * * * * * * * * * * * * * * * * * * * * * * * * * * * * * * * * * * * * //

dimensions      [1 -1 -2 0 0 0 0];

internalField   nonuniform List<scalar> 
625
(
45498.786
47462.45
546.29185
-253.66933
43444.554
40522.33
27.038016
142.72985
11218.65
3886.2637
25364.865
1229.1628
-294.6809
548.18846
52440.814
43935.747
37532.579
31943.887
24755.083
19311.804
14192.661
9871.9012
6574.0638
3329.4868
1686.1281
-80.580888
-823.05941
-1548.5775
-1694.2235
-1811.595
-1602.3741
-1285.0884
-676.88601
-506.71505
313.66813
179.35005
826.41339
50973.129
34031.57
34655.448
26580.623
21347.787
16993.125
10901.694
8417.0917
5421.3522
2618.7426
1806.0798
307.4805
-58.896074
-455.26182
-435.06901
-431.12915
-210.63729
32.21387
556.62116
577.58507
1337.6567
943.94747
1303.7896
11837.456
2235.6694
21287.101
70296.381
69726.366
42240.135
42988.572
33825.985
17637.3
19559.224
10464.65
7804.0556
4686.6741
1594.5883
708.23092
-857.69432
-1232.4032
-1391.221
-1573.941
-1278.9728
-1040.794
-736.53051
-405.12362
-209.03574
-154.828
36.418654
490.96667
-1254.8331
1014.9319
968.98993
-116.93512
-155.60038
-779.20167
-1313.7085
-1878.8988
-2458.9998
-2821.8813
-3064.1551
-2894.1337
-2762.6107
-1543.743
421.07115
2844.8903
3489.6776
7368.1682
14468.463
18719.19
26214.424
32960.293
40915.692
51527.867
59578.067
34006.996
36875.243
38385.969
37086.674
35393.52
35555.392
-511.02858
-142.02447
-328.70423
172.0976
473.53254
156.30756
22210.614
16607.392
16595.031
13139.826
10721.31
8734.6367
6356.5763
4488.3049
3408.3199
2192.6644
1466.8008
752.19591
293.97
17.882041
-118.89821
-244.77986
-106.91916
-192.40466
28.364472
46.763523
470.4414
4.5140034
1758.5379
7736.108
6472.5062
7779.3361
6693.0302
6585.5568
6471.3081
4994.0292
5336.4831
4108.5071
3512.3692
3149.6227
2586.8133
2271.1022
1902.5848
1532.2436
1269.2269
1003.0957
709.89779
713.23495
222.93344
509.54202
-13.073546
1979.149
15806.956
15120.509
13383.27
11297.275
9690.0621
7802.6538
5911.9218
4723.8178
3064.3169
2680.3439
1399.8508
884.86919
202.25484
-182.53849
-517.37079
-623.0669
-788.35817
-665.01147
-811.03462
-233.74705
-284.47085
532.45519
1558.3962
7075.5019
8570.8968
8820.6844
2392.9888
2117.5952
3126.7022
11807.039
12866.11
12372.661
61234.19
60456.993
62939.58
64429.424
60078.322
57538.367
40564.921
36337.267
39378.022
35864.682
37384.399
36528.64
28262.503
23802.81
27529.298
21724.127
20029.232
19972.44
17137.331
13948.683
17778.801
12111.793
8271.024
10898.455
8891.4684
6504.516
8340.6169
7072.7215
2630.8376
5271.7691
4265.5222
1330.7554
3000.9839
3187.4151
-71.230634
1793.7792
1860.6555
-732.39789
871.75739
1533.5121
-1025.2919
332.48136
1020.1798
-1188.6542
225.69875
860.51416
-977.50361
127.32258
797.62514
-814.28006
163.26978
822.11415
-435.49184
391.62327
955.97648
-17.109797
562.80781
985.01975
292.57928
692.41825
964.13888
534.57923
729.66751
702.66159
540.69895
635.76752
588.73101
480.55598
517.10993
1033.0255
1402.845
1074.8229
-900.26967
-571.64053
-1355.7315
834.63763
1008.8109
578.63023
53564.711
48251.926
50225.268
51091.414
47202.226
49374.921
42052.042
40805.215
40744.34
33930.43
31397.192
32745.257
27247.541
26488.285
26547.604
20417.572
18554.472
19140.074
14969.725
14628.29
14825.413
11175.241
9545.919
9992.2259
7117.5188
6825.7551
6713.7091
3622.0661
3620.3171
3804.0148
1848.7208
1636.4447
1792.519
473.63687
-180.6779
582.32013
-800.19545
-881.54392
-386.38308
-1114.406
-1527.6875
-918.09003
-1539.2304
-1837.2362
-1115.7266
-1557.1104
-1818.4016
-1145.3707
-1382.322
-1664.1003
-972.5743
-1077.3638
-1334.7004
-690.74193
-584.39317
-792.47235
-259.58486
-228.54466
-397.72271
-26.952066
546.62622
436.65327
444.89615
365.63236
20.263113
69.948686
1004.525
754.33684
773.51521
37408.007
33249.8
28328.367
23097.099
21594.913
14501.377
13084.909
9443.0083
6896.6492
4288.6205
3945.7648
2065.0633
1055.1831
351.08686
-149
-475.19748
-678.83956
-736.51693
-779.85821
-614.80023
-154.35629
-92.59267
1938.0482
5346.3828
15241.996
6225.5026
9890.041
7902.6224
6113.5206
6818.4435
5225.9171
5487.6882
4403.6011
4352.8345
3850.9663
3371.831
3292.1811
2980.1748
2768.3406
2583.9874
2423.5603
2245.9969
2017.4404
1979.2156
769.9715
2964.5566
23064.07
9603.3224
12841.238
12429.331
9150.6564
7905.7382
6095.7809
4653.9289
2147.2915
1521.146
424.69993
-347.51548
-875.73435
-1221.4188
-1459.0921
-1479.3481
-1419.7784
-1295.0922
-1004.3785
-565.79404
-99.097557
669.86777
1308.7874
29313.969
27180.669
27732.113
25434.107
26460.772
26172.963
22362.265
23547.989
22961.007
17988.989
17202.011
17227.747
15592.615
16058.16
16080.575
12392.028
11575.41
11361.629
9998.8961
9753.0686
9477.4044
7597.0693
7271.6853
7209.1158
5894.3476
5212.0114
5157.3228
4376.6634
3987.5438
3868.672
3267.0208
2728.2217
2489.9842
2182.3653
1853.2328
1856.2948
1537.8012
1206.2271
1024.6438
1015.1463
659.84236
554.62867
626.6721
312.19592
234.57098
421.22522
140.97525
42.762998
280.81563
32.651219
-80.693417
205.79615
-9.0354769
-187.82497
153.00915
-54.302112
-103.77384
-113.90675
149.70038
-326.22166
-25.6928
580.14389
-51.445539
196.10838
-141.35992
-428.92391
1553.0958
1488.6186
1543.3138
7043.7883
6517.3896
5208.6559
10656.086
14389.838
14197.019
6965.6267
5775.2387
5496.5491
7006.1618
8198.1885
8598.5415
6362.0268
5987.5785
6235.7234
6054.7967
4872.8687
5216.2672
4718.1449
4676.2016
5033.929
4971.7265
3548.2529
3571.9035
3852.9055
3222.344
3628.425
3716.3856
2781.0546
2814.4376
3251.5219
2201.8816
2359.4482
2736.2624
2009.6725
2094.9817
2569.5599
1783.5634
1654.5746
2206.1266
1504.3099
1451.8253
2008.6361
1393.1878
1285.9279
1783.53
1249.1823
1077.0372
1592.4169
1137.0447
931.79593
1402.3355
1003.7899
815.66327
1310.6388
1029.1096
781.79275
1219.2903
769.24568
530.28673
1638.9543
215.39109
974.85717
505.98302
218.73203
-132.04997
2110.5445
2235.3843
2186.4841
18368.869
19319.412
20381.099
14126.806
14018.515
16620.595
12908.72
16811.784
16183.972
11222.478
12776.88
13420.52
8973.6444
11285.567
11183.624
6274.9476
8847.0804
9230.219
5252.4435
6513.6921
6531.8082
2964.3612
5075.3586
6052.1887
2069.9142
3708.5584
4122.5991
1184.1469
2491.8188
3070.3831
329.44033
1460.7268
2193.2771
96.934362
773.77213
1476.3603
-368.6757
55.653802
959.20676
-545.53163
-358.68829
556.6908
-621.84693
-663.5665
356.6799
-600.78076
-812.2873
200.31265
-517.4379
-935.44833
184.08773
-405.78736
-809.73939
216.1854
-193.02847
-866.13962
193.90069
32.315115
-270.85905
493.69586
240.57163
-245.92982
362.59481
786.77977
815.52683
1266.3507
1495.5848
1033.5108
1260.4087
)
;

boundaryField
{
    free
    {
        type            zeroGradient;
    }
    fixed
    {
        type            zeroGradient;
    }
    freeTop
    {
        type            zeroGradient;
    }
}


// ************************************************************************* //
