/*--------------------------------*- C++ -*----------------------------------*\
  =========                 |
  \\      /  F ield         | OpenFOAM: The Open Source CFD Toolbox
   \\    /   O peration     | Website:  https://openfoam.org
    \\  /    A nd           | Version:  6
     \\/     M anipulation  |
\*---------------------------------------------------------------------------*/
FoamFile
{
    version     2.0;
    format      ascii;
    class       pointScalarField;
    location    "0.41";
    object      p;
}
// * * * * * * * * * * * * * * * * * * * * * * * * * * * * * * * * * * * * * //

dimensions      [1 -1 -2 0 0 0 0];

internalField   nonuniform List<scalar> 
625
(
941649.86
-1527994.8
223.4087
699.26602
1806502.7
-2836281.3
689.5353
-204.3212
713571.42
-72933.113
-151006.24
-494.04957
378.66778
239.56554
386300.9
418473.64
400004.55
381879.56
331295.26
309318.79
268826.63
231203.87
210138.72
169270.21
145093.28
118873.02
96886.197
76461.712
60265.769
45842.408
33657.813
24607.099
15942.734
10492.742
5402.1268
2027.8795
618.33753
-507298.78
-324977.82
-431781.29
-321973.27
-288397.54
-277125.49
-224422.36
-197681.29
-172737.25
-142638.73
-119468.28
-96424.415
-79056.335
-60885.583
-46955.367
-34663.882
-24223.158
-16501.882
-9691.5349
-5332.445
-1614.9349
-195.06215
641.48591
1016514.7
-30063.601
-278336.5
-514193.5
-647880.57
-451101.84
-377897.53
-433848.59
-302574.91
-277363.42
-247630.83
-209972.49
-181646.82
-145071.32
-120744.94
-94463.572
-73031.301
-56080.619
-39714.53
-28530.077
-18854.294
-11414.756
-6103.4429
-2650.2146
-207.48162
902.90432
402.90178
-101.73892
-407.92499
536.94851
3168.911
6705.5651
11973.527
18918.529
27913.393
38730.628
51657.877
67323.311
85322.229
104912.6
131415.19
152788.69
175506.55
227852.95
247658.91
288642.99
313579.14
390136.87
371066.58
445907.44
488409.67
435895.49
1046563.1
1038852.2
982568.61
-1680229.2
-1682412
-1669048.1
-160.15293
151.79622
469.96695
-152.52812
-451.05623
-432.40976
236983.38
253916.34
249036.37
217795.57
194126.02
187182.75
152416.13
142037.69
115774.33
99188.44
84980.671
69995.684
55665.219
44501.325
34802.419
26021.831
19584.417
14063.055
9513.137
6674.2995
3880.298
2254.7579
868.00083
-63452.906
-44976.103
-55326.387
-21751.131
-35821.573
-21090.05
-19274.342
-11296.135
-9669.6474
-6434.9059
-4546.6315
-3745.8796
-2169.3192
-562.16353
190.73829
877.48399
1672.5655
1903.0519
2127.2406
1973.1866
1701.1457
1603.4404
837.00071
-313049.76
-257478.9
-226965.18
-192598.01
-210323.5
-154057.48
-146526.83
-122982.71
-105891.28
-87666.757
-73454.146
-58369.093
-46748.223
-36383.002
-27897.221
-20473.87
-14537.161
-9571.7873
-5830.1957
-2843.9421
-1408.1736
-292.8874
-154.02894
600972.69
591705.88
613237.62
-72668.808
-42751.407
-111275.34
-105682.24
-159615.69
-250491.29
-761994.55
-744244.07
-781443.87
-595030.36
-551883.16
-536283.65
-452770.43
-422470.23
-452580.36
-348749.89
-346672.13
-350543.64
-332431.41
-330287.48
-347039.81
-284637.21
-266789.86
-275616.59
-251621.33
-249117.87
-259955.97
-218212.68
-203622.26
-216863.6
-186232.55
-177310.37
-184050.55
-155453.43
-145991.99
-156581.77
-128362.02
-121758.38
-127686.25
-105863.09
-97869.686
-104062.04
-83445.35
-77474.509
-82134.979
-65539.219
-59352.751
-63493.646
-49929.595
-44705.034
-48482.007
-36939.784
-32458.335
-35146.355
-26281.597
-22087.335
-24411.25
-17690.911
-14393.131
-16299.236
-10788.375
-8113.6591
-9424.9559
-5855.7369
-3848.2867
-4759.093
-1892.2995
-633.04703
-1229.7729
-98.257935
603.73004
143.82532
748.51254
1581.8058
1425.6593
-435.05694
-369.10038
-581.69522
-328.71141
-258.60105
-254.28339
809.86059
938.12543
1134.1269
532397.26
467440.86
521827.27
491385.59
440117.5
476843.77
480984.48
423135.25
459726.94
397938.2
365891.38
396448.19
373554.17
350494.06
355612.48
334515.94
289398.19
315135.22
286499.43
268948.29
284098.99
257862.94
232055.37
242457.49
215698.12
202452.07
204660.94
183901.84
171850.66
179592.03
154814.14
144671.31
145904.61
128474.8
117029.09
123067.1
101059.11
96490.785
99209.13
81520.198
76914.19
79120.65
62470.93
60171.605
61766.614
47086.961
45928.633
47265.238
34606.128
34176.973
34926.959
24117.655
24201.606
25009.713
15816.132
16258.068
16737.716
9727.849
9902.6837
10602.867
4889.7159
4424.4217
5388.486
2004.8626
2080.1062
2636.1674
157.37319
15.394683
321.64215
267811.18
291795.95
224466.29
245112.16
218017.67
193571.65
176384.84
153630.48
130093.51
113088.15
101516.21
81351.433
66889.6
55354.782
43602.195
34397.913
26088.547
19256.678
13608.797
9153.2577
5438.136
2972.4355
456.32713
-38144.726
33103.192
1181.7505
39964.806
40415.077
30360.265
36109.643
33645.547
26079.726
27504.753
25217.875
21768.657
19192.41
16940.5
14316.116
12216.065
9854.0604
8107.9494
6029.1824
4422.2191
3015.2738
1382.4687
477.78014
-160594.14
-152084.56
-240709.8
-200316.8
-196597.62
-191545.86
-154886.83
-143873.38
-118711.99
-101271.91
-84951.755
-67481.662
-54761.86
-40963.773
-31410.706
-22316.712
-15420.945
-9768.3742
-6046.4018
-2794.4426
-1156.4806
284.92104
-88.498104
330247.25
386967.87
325221.91
282034.43
319651.86
291687.64
208941.9
222919.81
260899.2
180236.96
250606.03
200428.91
204433.93
176332.51
192144.26
141217.05
182015.29
182460.31
143910.8
159966.14
147726.6
127875.26
132020.17
132673.34
108107.83
112337.74
123171.11
93383.286
102951.17
97046.051
79934.695
80482.946
84329.66
62553.598
69132.541
71491.13
53820.092
56288.473
58611.22
43171.65
44494.307
47485.076
33609.544
34504.1
38424.986
26188.223
27153.943
29601.475
19911.636
19559.308
22743.797
14129.16
14383.266
16580.95
10253.516
9692.4466
11713.883
6678.3225
6488.2778
7613.7825
3680.7895
4016.4699
4595.5759
2080.019
2067.3546
2454.2104
516.15076
439.55679
315.20723
-81501.91
-97719.317
-60834.334
-31181.023
5038.228
-23894.624
5939.389
-3381.5322
-11537.935
2709.1887
-709.28592
-30466.726
2122.6007
9744.9973
11793.07
6158.0364
25195.073
-8288.6024
18719.432
16144.73
-2589.0479
6827.7214
20354.308
6560.4741
12284.699
24016.596
1965.0851
14409.03
19673.425
7128.0429
10400.502
18149.843
6247.2644
11376.945
19160.488
8633.7837
10596.536
16613.699
6601.4194
8772.5872
13744.222
7659.7032
7028.8604
12973.789
6975.2189
6450.0759
10634.306
6287.3434
4795.2701
8666.6432
5777.9244
3881.136
7341.7964
4750.1912
3232.8831
5327.0232
4331.3642
2702.2941
3839.5323
3041.5495
1635.0435
2466.7064
2351.7815
775.49209
2002.309
1672.7659
778.12214
1035.4097
1197.5216
-306460.2
-335321.98
-378945.09
-212822.91
-172393.53
-262616.69
-195966.54
-304579.52
-271519.14
-252175.23
-205515.52
-230465.86
-173792.43
-210706.49
-211470.12
-161671.15
-189143.64
-193915.24
-150722.51
-166757.39
-165297.43
-122887.83
-142288.62
-152269.19
-101665.27
-126541.46
-126199.79
-90254.686
-105116.97
-107009.96
-71815.832
-86933.812
-87723.672
-58600.59
-70212.747
-72142.388
-45864.074
-57554.443
-56889.394
-35993.79
-43961.405
-44021.692
-26297.684
-33537.41
-32498.707
-19429.892
-24203.522
-24159.318
-13216.261
-17062.763
-16385.903
-8709.9187
-10610.516
-10881.506
-5035.088
-6632.1866
-6500.7124
-2914.4288
-2361.5934
-3319.3633
-808.93068
-1111.5031
-1318.3961
436.38135
1081.0868
655.92529
631.5754
465.18202
-384.96335
)
;

boundaryField
{
    free
    {
        type            calculated;
    }
    fixed
    {
        type            calculated;
    }
    freeTop
    {
        type            calculated;
    }
}


// ************************************************************************* //
