/*--------------------------------*- C++ -*----------------------------------*\
  =========                 |
  \\      /  F ield         | OpenFOAM: The Open Source CFD Toolbox
   \\    /   O peration     | Website:  https://openfoam.org
    \\  /    A nd           | Version:  6
     \\/     M anipulation  |
\*---------------------------------------------------------------------------*/
FoamFile
{
    version     2.0;
    format      ascii;
    class       pointVectorField;
    location    "0.82";
    object      lm;
}
// * * * * * * * * * * * * * * * * * * * * * * * * * * * * * * * * * * * * * //

dimensions      [1 -2 -1 0 0 0 0];

internalField   nonuniform List<vector> 
625
(
(-3.6361799e-15 2.112754e-16 -3.2990721e-16)
(2.8178306e-17 1.9013092e-16 6.1994168e-17)
(-5955.5961 189.97364 -76.695606)
(-5820.6681 1073.2702 55.772555)
(6.5239771e-16 2.739523e-16 -5.5565719e-16)
(-3.7042918e-15 1.4868296e-15 -1.3023874e-15)
(-5932.3842 1143.9587 53.774098)
(-6068.04 258.1657 -76.504745)
(-1.9658614e-16 -3.2115893e-17 -1.1045223e-16)
(1.4766345e-16 -3.4299605e-16 -2.8648028e-16)
(-1.0135278e-15 7.0169807e-16 1.7538027e-16)
(-5923.033 408.39028 -44.798553)
(-5890.2535 630.84727 -11.865039)
(-5854.6969 854.1528 22.641803)
(-31.057307 -103.17395 -97.92527)
(-103.20152 -201.42184 -111.05674)
(-233.18149 -290.16739 -116.18329)
(-415.69133 -366.91551 -111.76967)
(-633.75628 -424.34413 -106.73829)
(-894.30831 -466.40787 -94.131746)
(-1180.5597 -490.9606 -80.117542)
(-1491.6934 -499.78312 -61.201748)
(-1819.9112 -493.87215 -42.435492)
(-2157.4132 -473.66225 -20.874445)
(-2499.9143 -442.65814 -1.6989177)
(-2840.2124 -401.17222 15.646336)
(-3173.6048 -351.76642 29.113494)
(-3495.0411 -296.56954 38.152529)
(-3802.0043 -237.72725 41.986896)
(-4091.63 -177.34471 40.486563)
(-4363.9346 -118.23927 34.596458)
(-4618.9515 -60.257641 23.287122)
(-4859.7852 -7.760823 9.9734831)
(-5087.377 40.039665 -7.4353764)
(-5307.3607 84.255779 -25.282206)
(-5522.8105 122.42471 -43.12018)
(-5736.8232 156.24356 -60.931936)
(15.829818 77.059804 113.73007)
(-64.188372 160.83228 97.437663)
(-187.33207 261.94339 110.7193)
(-345.5012 347.63904 110.8415)
(-542.88861 430.43112 116.44127)
(-781.71608 518.15164 122.46934)
(-1041.1375 592.02084 133.06402)
(-1332.3359 663.89467 140.25487)
(-1640.1865 729.3082 149.88746)
(-1964.2326 783.76767 156.47972)
(-2295.4843 831.49127 161.78064)
(-2630.9938 869.03007 163.58754)
(-2963.3224 897.70125 162.92913)
(-3288.3021 918.21513 158.80656)
(-3601.9003 932.14669 152.12806)
(-3900.7268 941.09204 143.28913)
(-4183.3547 947.56894 132.74095)
(-4449.239 953.31506 121.82437)
(-4699.6305 961.46375 109.99168)
(-4936.3011 972.32952 99.228157)
(-5163.1907 989.28755 87.852228)
(-5383.2396 1011.2704 77.571077)
(-5601.2228 1040.1446 66.672096)
(-4.8813632e-16 1.9183015e-16 -1.0607077e-16)
(-2.6214496e-15 -5.6404768e-16 7.244144e-16)
(-2.4010456e-15 1.4295629e-15 -1.6975308e-16)
(-19.811797 48.932978 -71.636175)
(-99.775396 195.55514 -73.717895)
(-239.81175 244.73408 -42.751813)
(-411.8112 331.13955 -15.638589)
(-631.85991 424.91867 1.561425)
(-878.0366 487.7838 35.035608)
(-1155.2641 565.46973 59.943077)
(-1454.3104 635.4796 90.661609)
(-1774.2708 701.12627 118.4395)
(-2104.3015 761.32354 144.79139)
(-2441.9749 814.70724 168.00166)
(-2779.4499 861.94949 186.5033)
(-3112.5562 901.52229 199.18066)
(-3435.8995 933.45206 206.06755)
(-3746.1079 959.24772 206.27049)
(-4040.4453 978.79297 200.54748)
(-4317.753 994.81632 189.34512)
(-4578.1868 1008.4433 173.61586)
(-4823.1762 1022.2313 154.68724)
(-5055.4964 1037.804 133.66061)
(-5278.4776 1057.2035 112.00202)
(-5496.4 1081.3838 90.738925)
(-5713.3823 1110.2312 71.560536)
(-5966.9811 925.52915 20.916513)
(-6003.758 700.56634 -10.438168)
(-6034.9371 476.99359 -42.502138)
(-5848.6679 224.97265 -63.681375)
(-5633.6108 190.62141 -51.252712)
(-5419.0906 151.54298 -41.094781)
(-5200.3203 105.51982 -31.262258)
(-4973.5509 53.002317 -22.163764)
(-4735.3528 -6.1329558 -13.349665)
(-4482.1085 -71.403766 -5.1273968)
(-4212.3747 -140.70246 2.2766756)
(-3925.0575 -212.15897 8.4922255)
(-3620.8346 -283.01459 13.301118)
(-3301.3953 -350.00499 16.162942)
(-2970.0912 -410.64705 17.705482)
(-2630.2712 -461.80865 17.505053)
(-2287.6424 -498.94903 15.976815)
(-1948.4722 -522.53938 14.845471)
(-1614.4566 -530.65296 15.314927)
(-1297.8011 -520.40628 15.808077)
(-998.74247 -491.1232 19.873728)
(-733.70664 -443.82572 26.620693)
(-491.71798 -378.16606 36.219716)
(-295.66548 -301.87045 51.763386)
(-147.50972 -198.81264 63.551714)
(-71.502557 -103.23069 57.809951)
(-1.3028228e-15 -3.4252847e-16 3.3068324e-16)
(-2.0449562e-15 -3.5718549e-16 -7.3673077e-16)
(-1.4121951e-15 -1.0527101e-15 6.223458e-16)
(-1.2019486e-15 6.189313e-16 -3.4292956e-16)
(-1.2511779e-16 -6.848356e-17 2.1836215e-16)
(-3.8898857e-17 4.7141393e-16 -3.1043199e-16)
(-5849.3723 1088.9284 54.816927)
(-5876.2944 1105.6631 54.930043)
(-5904.7923 1122.8639 54.433036)
(-5982.3381 208.65414 -76.126515)
(-6010.1697 225.16719 -75.975944)
(-6039.09 241.86243 -76.714005)
(10.728928 -58.93525 -69.024474)
(-64.533162 -111.66963 -57.631414)
(-192.96885 -155.56082 -60.063802)
(-370.8913 -188.97764 -55.246732)
(-587.98641 -210.47097 -48.596253)
(-845.35609 -219.59347 -38.342836)
(-1129.1183 -216.87261 -24.341853)
(-1438.5105 -204.50233 -9.4990484)
(-1764.6928 -182.56634 8.0063495)
(-2102.7901 -152.89335 24.415183)
(-2446.4046 -117.38284 39.899523)
(-2788.5714 -76.747722 52.801115)
(-3124.5668 -33.216669 62.348681)
(-3449.447 12.090296 67.729723)
(-3759.7851 58.196897 68.612301)
(-4052.6638 103.53906 65.363495)
(-4328.1532 148.09123 57.852474)
(-4585.3107 190.72231 46.911029)
(-4827.5411 230.64692 34.131249)
(-5055.7602 269.61648 18.137019)
(-5276.5145 305.51198 2.8800088)
(-5490.9996 340.50468 -13.406372)
(-5704.3715 374.20104 -29.242719)
(32.855717 -12.516181 -7.8867192)
(-48.073062 -15.731991 -1.0036517)
(-172.44739 -19.385733 -2.1743007)
(-345.8797 -16.267395 -0.34915463)
(-561.35794 0.074810469 6.8693364)
(-811.54259 19.277897 15.628989)
(-1091.3343 46.298298 26.895612)
(-1396.4542 78.33151 39.868193)
(-1718.945 114.65109 53.331273)
(-2054.5866 153.12506 66.673017)
(-2395.4726 193.18761 78.260688)
(-2737.0545 233.36836 87.496428)
(-3073.0509 272.94291 93.403895)
(-3399.1187 311.166 95.681881)
(-3710.8903 347.82371 94.318909)
(-4006.3655 382.46022 89.379434)
(-4284.0405 415.58668 81.252583)
(-4543.8095 446.94807 70.89375)
(-4788.6227 477.41982 58.494487)
(-5018.8564 507.38798 44.716781)
(-5241.0831 537.09769 31.225218)
(-5456.3455 566.93453 16.402882)
(-5670.2999 598.11595 2.7231335)
(42.245442 32.839349 36.619591)
(-42.710211 64.386743 44.892708)
(-161.91909 102.27189 48.284582)
(-334.75099 150.05374 53.491639)
(-543.87058 201.81522 60.899921)
(-788.46521 249.88239 68.625818)
(-1063.5132 304.96965 79.180525)
(-1362.1599 356.3473 90.092351)
(-1680.3097 406.86868 101.80537)
(-2011.2146 455.39552 111.66418)
(-2349.6867 499.70561 120.27951)
(-2689.0495 540.34085 125.86031)
(-3024.2605 576.29459 128.48686)
(-3350.0822 607.82363 127.82914)
(-3662.7173 635.43256 123.84597)
(-3959.5982 659.58041 117.064)
(-4238.6647 681.67004 107.87049)
(-4501.0156 702.35721 96.95695)
(-4746.7333 722.93902 85.043818)
(-4979.5603 744.52683 72.314671)
(-5202.5433 767.87213 59.761914)
(-5419.388 793.04741 46.921299)
(-5635.4176 822.19149 34.38716)
(-2.5953868e-15 -2.1703571e-16 4.2716933e-18)
(-3.8783653e-15 3.5858996e-16 7.5215743e-16)
(-9.8459492e-16 7.8127033e-16 2.7525688e-16)
(-3.9146975e-16 7.8165185e-18 1.2560621e-16)
(1.6350797e-16 -2.4226884e-16 -1.2066667e-17)
(-1.0304172e-15 -9.2669207e-16 -7.5672327e-16)
(-6.4481012e-16 3.525084e-16 2.7116342e-16)
(-3.5205005e-15 9.4737515e-16 -2.5196009e-17)
(-3.8147498e-15 1.043275e-15 1.2924308e-16)
(-31.098613 32.546997 50.975811)
(-45.806758 44.493225 14.213685)
(-43.55152 33.442483 -21.407692)
(-123.02376 185.19429 57.360996)
(-129.61585 186.97878 18.704939)
(-130.27415 182.04182 -32.121343)
(-230.49315 257.74687 69.179277)
(-251.55095 253.25957 31.551376)
(-261.67018 269.73024 -11.837945)
(-388.77475 347.73034 73.782947)
(-416.84235 352.49047 42.483444)
(-422.25518 346.0143 9.3470967)
(-593.44665 437.36271 86.24018)
(-617.97985 435.11717 60.746288)
(-633.99294 438.6009 28.359339)
(-822.32579 515.28457 98.678983)
(-854.11209 511.41495 74.137451)
(-873.18345 508.46206 51.962467)
(-1087.1732 590.68396 112.21453)
(-1119.4243 590.45492 97.350953)
(-1143.3204 588.37336 74.886101)
(-1374.739 663.09019 127.19085)
(-1409.5389 655.34802 114.32379)
(-1435.4919 654.84168 100.87009)
(-1681.9333 725.30255 140.95242)
(-1716.9944 722.41765 134.16275)
(-1747.1414 719.70764 124.87503)
(-2002.8708 782.77459 154.05715)
(-2039.3719 778.09203 151.34166)
(-2073.0507 777.59452 147.57201)
(-2332.6281 830.20948 164.0113)
(-2369.7776 827.59111 166.05288)
(-2404.8619 827.54683 166.96983)
(-2665.0406 869.90511 170.66391)
(-2701.4083 868.2537 177.09547)
(-2738.9286 870.21715 182.15447)
(-2994.6164 900.34839 173.79315)
(-3031.0997 901.13797 183.64305)
(-3069.2238 905.1065 192.01222)
(-3317.1696 923.35526 172.64228)
(-3352.353 926.10848 185.36036)
(-3391.0843 932.10102 196.52138)
(-3628.2952 939.34317 167.85558)
(-3662.461 944.73851 182.54364)
(-3700.948 952.81217 195.27799)
(-3925.371 950.49007 159.81119)
(-3958.243 958.17196 175.34119)
(-3996.0251 968.14966 188.69781)
(-4206.7893 958.59818 149.09926)
(-4238.2347 968.6395 164.41379)
(-4275.0162 980.1343 177.64746)
(-4472.195 965.93611 136.59801)
(-4502.5876 977.88466 150.88535)
(-4537.8514 990.89741 162.77295)
(-4722.6988 974.84057 123.03655)
(-4751.855 988.64406 135.27393)
(-4785.6698 1002.5144 145.41794)
(-4960.3861 986.91812 109.15674)
(-4988.8791 1001.9235 118.71117)
(-5021.0142 1016.8422 126.47914)
(-5188.1328 1004.0856 95.124809)
(-5215.8952 1020.0817 101.93412)
(-5246.8141 1035.6593 107.23901)
(-5409.5815 1026.6933 81.625065)
(-5437.5274 1043.8052 85.638033)
(-5467.1369 1060.2853 88.333649)
(-5628.9021 1055.8823 67.931255)
(-5656.7323 1072.9112 69.501638)
(-5685.1939 1089.7933 70.53716)
(-5949.6359 426.51371 -43.719102)
(-5977.0537 443.38007 -42.934266)
(-6006.2008 460.44837 -43.169782)
(-5917.5903 648.54609 -11.115667)
(-5945.4756 665.00209 -10.391001)
(-5973.7905 682.85595 -10.813923)
(-5883.5597 870.39057 22.576816)
(-5910.5394 886.82737 22.124424)
(-5939.1674 905.3209 21.754417)
(-77.232795 -82.998454 -53.169655)
(-83.01274 -93.52425 -23.610443)
(-93.280136 -98.313079 12.582454)
(-147.18904 -187.61906 -65.827979)
(-164.36094 -198.28268 -21.191717)
(-169.81644 -201.42407 21.910197)
(-284.92623 -289.5016 -73.563476)
(-306.01668 -290.93109 -35.94061)
(-318.51428 -302.83303 12.450692)
(-462.3331 -360.06599 -72.580156)
(-487.40985 -369.98638 -37.660109)
(-501.15636 -376.96843 2.0812847)
(-684.51939 -425.53257 -72.913806)
(-715.29578 -433.26389 -39.331059)
(-733.23426 -442.4416 -5.9781041)
(-943.37245 -468.47285 -63.962844)
(-971.97988 -476.20925 -38.627889)
(-996.43748 -486.38984 -6.5426465)
(-1228.1607 -495.32523 -54.120615)
(-1261.2672 -504.67825 -31.080883)
(-1286.5057 -513.2123 -6.0317904)
(-1537.9871 -506.88195 -40.104885)
(-1570.3104 -515.07776 -22.636988)
(-1598.275 -523.53026 -1.3140942)
(-1861.7605 -502.31355 -25.677482)
(-1895.9464 -509.26632 -10.87754)
(-1924.9669 -517.24608 2.6708873)
(-2197.8121 -483.36768 -8.6725162)
(-2229.8516 -488.32046 -1.8776496)
(-2262.0048 -494.43096 9.3722061)
(-2536.0905 -450.97998 6.3177316)
(-2568.0305 -454.88085 11.093327)
(-2599.1818 -458.8382 15.932004)
(-2873.0236 -408.39635 19.821187)
(-2903.2353 -409.18353 19.525964)
(-2936.0036 -411.24892 20.068146)
(-3202.2323 -356.45511 29.385936)
(-3232.151 -354.57718 26.170832)
(-3264.4294 -353.86301 22.287874)
(-3520.8293 -298.32208 35.459829)
(-3549.5303 -293.34012 29.067774)
(-3581.6911 -290.02046 22.030172)
(-3824.7964 -236.05278 36.624574)
(-3852.7663 -228.00792 28.681308)
(-3884.695 -222.21842 18.916571)
(-4112.5457 -172.22065 33.906324)
(-4140.1739 -161.53917 24.452975)
(-4171.4832 -153.28765 13.488207)
(-4383.7713 -109.24712 26.48004)
(-4410.9275 -96.16696 17.257003)
(-4441.7018 -85.825967 5.8287277)
(-4638.828 -48.691343 16.065899)
(-4665.7941 -34.254057 7.4027455)
(-4695.9503 -22.124465 -3.4634123)
(-4879.5513 6.6409835 2.9248751)
(-4906.5591 22.777997 -4.8603428)
(-4936.3513 36.578823 -14.024116)
(-5108.8832 57.002254 -12.540565)
(-5136.2151 73.465697 -17.918973)
(-5165.1167 88.299806 -25.31046)
(-5330.8774 102.03683 -28.817151)
(-5358.1459 119.25657 -32.519631)
(-5386.5657 134.36505 -37.363105)
(-5547.7371 140.82549 -44.40778)
(-5575.2112 157.19495 -47.09559)
(-5603.4775 173.22032 -49.67002)
(-5763.8554 175.16566 -61.270275)
(-5791.2157 191.91505 -62.702073)
(-5819.9061 208.10727 -63.196088)
(-10.970229 -29.072053 40.92763)
(-111.00566 -119.78968 34.843896)
(-246.849 -150.06953 24.702293)
(-445.90398 -195.67017 23.55239)
(-679.23036 -223.17564 21.063502)
(-945.96328 -237.60092 22.302459)
(-1242.4325 -241.09488 25.941085)
(-1558.5472 -230.04052 31.974189)
(-1891.1754 -207.94188 39.025115)
(-2232.9556 -173.75674 45.383346)
(-2577.7509 -132.42737 52.715192)
(-2920.4199 -81.375168 56.773402)
(-3255.5222 -27.086363 59.317424)
(-3578.5664 30.253813 59.203081)
(-3886.5613 88.243183 56.103398)
(-4177.1739 144.60084 50.655319)
(-4449.6149 198.24613 42.856347)
(-4704.71 248.14175 33.289724)
(-4944.1101 293.71631 22.223252)
(-5170.9326 335.43768 10.339516)
(-5389.4815 373.41151 -2.6887828)
(-5602.6125 408.53368 -15.969203)
(-5816.2355 443.16373 -29.312563)
(13.806549 -16.366063 -1.7503418)
(-85.308064 -35.251581 6.6200909)
(-228.67698 -26.90237 3.5637906)
(-423.98082 -34.791587 11.455767)
(-651.09123 -23.824641 18.572776)
(-915.97334 -8.851593 27.863042)
(-1207.5392 14.521571 39.761419)
(-1521.1764 44.661218 53.76045)
(-1851.7222 83.912444 66.243578)
(-2191.485 126.28381 80.513343)
(-2535.6127 174.5107 91.601447)
(-2878.0572 225.50301 100.2685)
(-3212.9939 276.46709 106.02294)
(-3536.7918 327.72299 107.56902)
(-3845.4445 376.63195 105.37444)
(-4136.8584 422.81544 99.602943)
(-4410.3426 465.5147 90.437268)
(-4666.2972 504.81801 78.895133)
(-4906.7172 540.71375 65.220501)
(-5134.484 574.08806 50.649085)
(-5353.8204 605.932 35.019015)
(-5567.9047 636.56283 20.183112)
(-5782.3529 667.40011 4.2704156)
(28.994689 24.547677 -28.514483)
(-85.759259 34.427817 -22.841019)
(-224.07497 98.867822 -28.228489)
(-409.26702 117.68213 -3.242079)
(-635.16427 171.48321 7.0034251)
(-892.74542 217.30286 25.438075)
(-1178.7318 264.84474 47.152867)
(-1488.2558 319.71932 66.28832)
(-1813.5148 370.58556 88.184523)
(-2150.6346 425.84391 107.7405)
(-2491.9414 478.81482 124.76229)
(-2832.6272 530.23517 139.10453)
(-3166.9871 578.8738 148.50812)
(-3490.6817 623.63752 153.50502)
(-3799.8211 664.16184 153.38154)
(-4092.2751 700.26671 148.54873)
(-4367.0497 732.3735 139.34068)
(-4624.3709 761.08115 126.61921)
(-4866.2469 787.52457 110.97066)
(-5095.3512 812.80319 93.774124)
(-5315.6955 838.04303 75.13467)
(-5531.457 864.26301 56.648152)
(-5747.0162 892.52872 38.412656)
(-18.340923 -27.522485 -34.233763)
(-23.559023 -31.400148 -15.456217)
(-33.554991 -30.698286 10.183269)
(-108.53959 -107.0344 -32.954451)
(-127.99809 -110.66119 -11.638634)
(-129.41397 -110.40538 17.562131)
(-239.9981 -147.89047 -35.393762)
(-257.60902 -150.54641 -14.469598)
(-267.68464 -154.71791 4.806937)
(-416.83565 -186.88534 -34.140279)
(-443.59427 -193.51164 -15.402698)
(-454.80892 -193.36521 4.6633668)
(-637.4007 -210.68871 -28.189331)
(-665.05015 -215.30848 -13.649545)
(-682.79679 -219.77004 5.2069047)
(-891.69752 -221.42982 -21.546833)
(-922.54254 -229.85038 -7.3412705)
(-942.20928 -233.14915 8.1553545)
(-1175.3781 -222.53601 -10.189703)
(-1207.7238 -230.0912 1.4653756)
(-1231.9173 -234.72934 14.110719)
(-1482.3195 -212.05141 2.8475457)
(-1515.9857 -218.71393 12.233013)
(-1542.4948 -223.90185 22.832724)
(-1806.9787 -190.28777 17.447818)
(-1840.4104 -197.86408 24.095764)
(-1869.6151 -202.86807 32.712757)
(-2141.9157 -161.19172 31.729577)
(-2175.5212 -167.71951 36.703217)
(-2206.4838 -170.07071 41.927209)
(-2482.1191 -124.69949 45.007667)
(-2514.8441 -128.4141 47.83367)
(-2547.083 -131.09751 50.705508)
(-2820.733 -82.111837 55.950874)
(-2853.0352 -84.278929 56.573783)
(-2886.4798 -84.107481 57.478764)
(-3153.6934 -36.08908 63.574545)
(-3184.8517 -35.109812 62.767629)
(-3218.725 -32.854937 61.220961)
(-3475.6008 12.749468 67.523259)
(-3505.8529 16.314156 64.990187)
(-3539.8694 21.151819 62.254625)
(-3783.4384 62.313585 67.12688)
(-3812.7278 68.819745 63.828337)
(-3846.6159 75.957457 59.792786)
(-4074.8504 111.54742 62.973961)
(-4103.4065 120.48537 58.958168)
(-4136.8206 130.07746 54.497639)
(-4349.0098 159.33919 54.965163)
(-4376.9723 170.40955 51.040659)
(-4409.7852 181.99784 46.405426)
(-4606.3425 204.73883 44.176367)
(-4633.8983 217.57106 40.522288)
(-4665.7096 230.87499 36.341282)
(-4848.5903 247.04762 31.177261)
(-4875.8547 261.18339 27.962074)
(-4907.2412 276.24246 24.563634)
(-5078.3474 287.68532 16.302098)
(-5105.5387 302.60031 14.39912)
(-5135.6284 317.91066 11.899142)
(-5300.4505 324.21439 1.2400214)
(-5327.7502 339.56242 0.2219829)
(-5356.6427 356.21251 -1.9794845)
(-5516.0286 359.37961 -14.456953)
(-5543.1708 374.91891 -15.105571)
(-5571.8782 392.44827 -15.501182)
(-5730.9189 393.01341 -29.541083)
(-5758.4342 409.14916 -29.511733)
(-5787.1469 426.5573 -29.450043)
(7.3823955 -7.5551983 -1.6121391)
(-5.2146658 -12.318361 -0.1706854)
(-14.083576 -11.747546 -1.6661596)
(-86.890805 -16.2643 5.0912053)
(-103.12581 -22.90114 5.0545597)
(-101.58738 -20.70733 6.5321902)
(-216.97395 -19.588702 2.2991002)
(-236.08305 -20.218071 -1.7909707)
(-244.97185 -23.265261 3.515956)
(-390.55719 -13.161713 6.8625729)
(-419.38909 -18.261055 5.5963107)
(-427.66064 -17.458298 8.6119312)
(-607.43699 -2.7223556 11.589802)
(-636.56131 -5.8245983 8.6650328)
(-650.04061 -10.698287 16.738729)
(-857.48815 16.437363 20.460143)
(-888.47548 11.145845 20.883293)
(-907.35622 6.7403717 25.189982)
(-1136.2995 40.435237 32.48394)
(-1170.102 36.333584 31.336135)
(-1191.3955 31.356278 37.935866)
(-1440.3577 72.610384 44.642484)
(-1474.0841 66.710517 45.305025)
(-1499.5527 60.155534 51.416468)
(-1760.5134 106.81841 58.584833)
(-1795.7056 102.40059 60.358888)
(-1823.6954 98.068996 65.452807)
(-2093.9889 145.716 72.144561)
(-2128.5047 142.84137 73.610692)
(-2159.2024 138.12422 78.668958)
(-2432.1164 187.16317 83.766459)
(-2466.7233 185.33764 85.5112)
(-2498.9334 183.17483 91.274895)
(-2770.8098 229.04622 92.973495)
(-2804.4475 229.70289 95.342189)
(-2838.316 229.36483 99.867925)
(-3103.7793 271.24641 98.839532)
(-3136.8262 274.33752 101.03174)
(-3171.0877 276.81042 105.85699)
(-3426.8949 312.52259 100.8352)
(-3458.7229 318.32667 103.29086)
(-3493.4809 322.93529 107.66015)
(-3736.3385 352.24185 98.996177)
(-3767.2167 360.4828 101.55208)
(-3801.896 367.98378 105.45985)
(-4029.8062 390.08974 93.623971)
(-4059.6837 400.69343 95.981386)
(-4093.9587 410.33509 99.624734)
(-4306.1753 425.94127 84.817148)
(-4335.2429 438.34561 87.315934)
(-4368.7382 450.2561 90.45948)
(-4565.6692 459.70019 73.758534)
(-4593.9499 473.8609 76.057041)
(-4626.784 487.13083 78.697925)
(-4810.0183 492.26792 60.72729)
(-4838.0558 506.93661 62.791308)
(-4869.6881 522.045 64.9846)
(-5041.5107 523.38566 46.256253)
(-5069.3839 539.20665 48.56418)
(-5099.9634 554.33785 50.265325)
(-5264.5777 553.63913 32.322353)
(-5292.1476 570.16902 34.233936)
(-5322.1402 585.94404 34.33263)
(-5481.1313 584.2493 17.345025)
(-5509.0299 600.26269 18.769935)
(-5538.0106 617.70211 19.423957)
(-5697.3394 615.20274 2.6524989)
(-5724.9083 631.56844 3.400238)
(-5753.6555 649.14581 3.5710495)
(7.0825962 21.364476 16.377269)
(5.9577932 19.223893 1.2299352)
(3.3920575 15.277052 -14.155625)
(-93.306014 59.39844 27.407209)
(-107.98761 45.992327 5.6480328)
(-107.32239 47.780387 -9.1038628)
(-210.52887 103.69785 31.335098)
(-231.10911 112.2965 12.837279)
(-240.11119 105.32485 -6.8803274)
(-385.41194 154.60014 38.830777)
(-406.57583 144.90975 21.434861)
(-420.0506 140.47582 7.4565214)
(-592.43424 198.41374 46.458406)
(-619.67581 198.62841 32.650406)
(-637.01132 190.21447 21.773757)
(-836.79766 250.24153 58.775923)
(-865.32504 246.66487 47.353507)
(-886.76214 237.75975 37.882048)
(-1110.0498 302.14479 70.786251)
(-1140.7492 296.98117 61.583168)
(-1166.8563 286.58806 55.716542)
(-1407.0679 351.76098 84.937427)
(-1439.1954 348.29548 80.297803)
(-1468.8854 339.74094 75.057862)
(-1722.8218 403.03479 99.772787)
(-1756.4927 399.29988 95.899313)
(-1789.0226 389.93993 93.303098)
(-2051.1755 451.95571 112.36109)
(-2085.1792 448.76571 111.82289)
(-2120.3962 441.58595 111.83318)
(-2386.2432 497.37132 123.69276)
(-2420.6286 496.38663 125.44163)
(-2458.0447 491.05934 126.96414)
(-2722.5454 540.05383 131.83385)
(-2756.6371 540.67222 135.56644)
(-2795.1985 537.79071 139.16063)
(-3054.4775 578.30667 136.39402)
(-3087.8807 581.29703 141.80263)
(-3127.3424 581.38665 147.09874)
(-3377.3761 612.53492 137.12137)
(-3410.1039 617.70101 144.01042)
(-3449.6132 620.80937 150.32309)
(-3687.6166 642.67276 133.9858)
(-3719.3286 650.0692 141.57513)
(-3758.4654 656.3955 148.83282)
(-3982.4541 669.33931 127.33442)
(-4013.3398 678.84042 135.30492)
(-4051.4151 687.96971 143.02961)
(-4260.6604 693.41927 117.60519)
(-4290.5248 704.54908 125.65559)
(-4327.3402 716.325 133.11766)
(-4522.3194 715.59958 105.86858)
(-4551.5919 728.37925 113.09972)
(-4586.7234 742.22253 120.20517)
(-4768.678 737.49571 92.368064)
(-4797.2124 751.19306 98.832319)
(-4830.5679 766.66675 104.99057)
(-5002.4977 759.75626 78.089411)
(-5030.7695 774.43694 83.40049)
(-5062.2331 791.18967 88.328522)
(-5226.4009 783.33551 63.879957)
(-5254.5219 798.45977 67.720932)
(-5284.4105 815.82406 70.9641)
(-5445.3252 809.17354 49.322257)
(-5473.2708 825.05568 51.791019)
(-5502.4096 843.0552 53.549514)
(-5662.7685 837.74988 35.087725)
(-5690.5673 854.14349 36.266026)
(-5718.7077 872.91043 37.356531)
)
;

boundaryField
{
    free
    {
        type            zeroGradient;
    }
    fixed
    {
        type            fixedValue;
        value           nonuniform List<vector> 
25
(
(-2.5953868e-15 -2.1703571e-16 4.2716933e-18)
(-1.3028228e-15 -3.4252847e-16 3.3068324e-16)
(-1.9658614e-16 -3.2115893e-17 -1.1045223e-16)
(-3.6361799e-15 2.112754e-16 -3.2990721e-16)
(-3.8783653e-15 3.5858996e-16 7.5215743e-16)
(-2.0449562e-15 -3.5718549e-16 -7.3673077e-16)
(-9.8459492e-16 7.8127033e-16 2.7525688e-16)
(-1.4121951e-15 -1.0527101e-15 6.223458e-16)
(-4.8813632e-16 1.9183015e-16 -1.0607077e-16)
(6.5239771e-16 2.739523e-16 -5.5565719e-16)
(-3.9146975e-16 7.8165185e-18 1.2560621e-16)
(1.4766345e-16 -3.4299605e-16 -2.8648028e-16)
(1.6350797e-16 -2.4226884e-16 -1.2066667e-17)
(-1.0304172e-15 -9.2669207e-16 -7.5672327e-16)
(-2.6214496e-15 -5.6404768e-16 7.244144e-16)
(-6.4481012e-16 3.525084e-16 2.7116342e-16)
(-1.0135278e-15 7.0169807e-16 1.7538027e-16)
(-3.5205005e-15 9.4737515e-16 -2.5196009e-17)
(-3.8147498e-15 1.043275e-15 1.2924308e-16)
(-2.4010456e-15 1.4295629e-15 -1.6975308e-16)
(-1.2019486e-15 6.189313e-16 -3.4292956e-16)
(2.8178306e-17 1.9013092e-16 6.1994168e-17)
(-1.2511779e-16 -6.848356e-17 2.1836215e-16)
(-3.8898857e-17 4.7141393e-16 -3.1043199e-16)
(-3.7042918e-15 1.4868296e-15 -1.3023874e-15)
)
;
    }
    freeTop
    {
        type            zeroGradient;
    }
}


// ************************************************************************* //
