/*--------------------------------*- C++ -*----------------------------------*\
  =========                 |
  \\      /  F ield         | OpenFOAM: The Open Source CFD Toolbox
   \\    /   O peration     | Website:  https://openfoam.org
    \\  /    A nd           | Version:  6
     \\/     M anipulation  |
\*---------------------------------------------------------------------------*/
FoamFile
{
    version     2.0;
    format      ascii;
    class       pointScalarField;
    location    "0.52";
    object      E;
}
// * * * * * * * * * * * * * * * * * * * * * * * * * * * * * * * * * * * * * //

dimensions      [1 -1 -2 0 0 0 0];

internalField   nonuniform List<scalar> 
3969
(
29333.288
28144.115
-1221134.6
-567637.04
34228.906
30081.769
-855366.72
-1831718.8
17037.923
7493.2593
3153.0933
2562.6319
5364.4567
12382.502
25190.867
-671414.35
-664138.27
-658546.07
-653168.51
-649159.37
-644998.07
-485316.78
31764.077
27687.844
29015.823
29942.421
30452.486
30642.425
30257.679
29895.227
29124.848
28375.484
27543.195
26660.61
25660.839
24602.684
23538.111
22360.154
21276.93
20058.917
18920.54
17746.483
16656.845
15608.562
14653.669
13765.338
13036.581
12366.425
11636.689
11164.927
10646.934
10166.331
9733.6421
9348.6653
8926.4673
8579.2806
8400.164
7909.5131
8049.6671
7385.7435
7849.4164
7141.9244
7758.4268
7550.2719
7660.012
8340.9521
8441.203
7449.0182
8213.45
28994.101
22525.425
26912.25
26623.766
27747.548
27185.857
27386.879
26653.147
26323.132
25482.82
24689.569
23875.005
22898.641
21942.025
20686.056
19608.367
18442.17
17183.397
16201.124
14906.656
13939.642
13101.162
11819.359
11093.968
10252.541
9831.6951
8656.3893
8344.0943
7765.109
7457.3299
7209.6779
6867.0359
6659.8623
6402.1097
6292.6104
6090.4053
6134.8743
5780.2164
5939.5773
5816.6412
6066.6831
6202.928
6212.4063
6587.5269
7011.0152
7388.5883
7968.0169
18366.482
8425.5414
3427.3602
3804.6344
5036.4384
11076.619
21150.38
41600.839
30336.298
25471.177
33454.072
29692.761
31882.536
30544.244
29978.782
29214.207
28098.552
28343.993
27760.22
27444.377
26225.311
25213.227
24206.823
22708.664
21607.316
20177.232
18884.179
17660.023
16548.972
15549.578
14598.775
13630.024
13194.8
11056.494
10164.755
9607.6591
8851.3107
8204.559
7637.9218
7033.0561
6556.7958
5969.8883
4811.177
6663.7579
4541.1333
4412.0592
4078.0052
3745.0808
3810.0101
3486.4707
3648.9145
3767.4371
4632.9705
2328.6373
-1376218.8
-1154000.8
-1394552.9
-1319036.8
-1330291
-1193486.6
-1451008.4
2020.098
5444.1427
7535.3455
7131.5872
6881.9451
6479.9824
6436.8649
6234.9824
6299.8635
6794.7211
7553.4859
5613.7789
7091.2178
7292.5853
7657.5305
8122.3699
8463.9215
9011.9025
9477.9142
10085.16
10646.889
11385.363
12198.762
13067.425
14022.112
15049.05
16202.11
17409.638
18722.321
20021.862
21412.886
22801.788
23854.766
25146.897
26920.662
27583.036
29046.747
29736.886
30250.634
31428.479
32395.848
31796.583
33151.374
31118.368
29844.605
29157.093
36961.313
22644.862
22164.778
21774.601
21893.958
21922.275
21958.535
23804.079
17707.578
18585.712
20250.148
21032.823
20817.962
21810.072
18383.734
-639320.22
-639798.54
-639576.55
-639923.57
-639919.07
-639958.03
-640533.95
-1373727.1
-1374203.4
-1374503.7
-1374640.6
-1374751.3
-1375536.6
-1375930.1
20659.032
18238.511
19076.888
19317.307
19952.562
20043.238
19948.33
19721.053
19283.842
18917.997
18383.3
17746.55
17147.343
16429.937
15738.166
15094.368
14411.819
13738.437
13143.188
12571.898
12048.994
11531.824
11120.213
10713.858
10360.349
10139.717
9718.9419
9677.615
9369.2337
9244.4266
9078.6266
8928.2899
8754.8429
8624.7662
8490.6055
8246.8976
8357.4576
8191.3971
8244.8882
8285.5338
8524.5779
8195.7087
9230.977
8477.3131
9766.5678
10492.859
11097.036
9572.4165
8576.6459
9346.0302
9325.7274
9570.4287
9616.6487
9407.7435
9430.5698
9141.7355
9002.7592
8709.8359
8461.0966
8339.7538
8210.663
8059.2404
7787.9812
7571.5048
7325.5154
7112.1845
6952.3195
6867.2146
6801.2507
6731.7469
6764.9521
6858.9574
6920.0378
6851.723
7071.9892
7062.8788
7216.77
7310.8195
7408.9581
7484.9928
7632.2097
7712.2373
7788.5027
8102.4978
7603.5697
8504.1461
7904.7379
8814.3113
8582.873
9384.1669
8911.1193
10903.269
9504.2493
11634.376
3796.1444
2199.4496
3077.0175
2603.1196
2965.0943
2907.457
3038.8545
3016.2467
2973.6275
3068.6613
3029.5525
2926.3085
2879.0892
2787.7248
2765.3899
2781.7959
2819.0173
2834.7988
2940.5368
2955.1689
2914.6249
2884.4847
2965.3672
3144.1506
3207.9672
3377.0986
3852.0097
4097.6962
4381.1299
4747.5559
4991.0376
5354.8325
5598.111
5923.0101
6146.414
6539.6653
6662.8066
7418.984
7705.411
7910.5593
8552.8208
8381.2688
9218.2125
9181.6296
10531.632
9668.2435
11995.02
2127.5747
436.74934
740.06694
638.50145
779.50041
840.33927
808.44622
985.10789
929.19825
944.36001
960.00469
999.50367
1117.9599
1143.075
1197.8906
1240.5125
1340.5196
1516.1575
1646.2634
1842.2782
2228.8182
2753.9865
3296.675
3750.8798
4117.4023
4537.9344
4742.8554
5105.1318
5467.3306
5829.0087
6115.0525
6494.8023
6703.4537
7014.2809
7317.1516
7367.1677
7815.4355
7745.1632
7848.4502
7869.7003
8360.2867
8298.4897
9139.8439
8845.67
10183.596
9182.7338
11969.117
5072.4263
2907.0927
3080.0366
2627.6815
2673.8367
2736.5588
2593.8674
2663.3073
2559.9312
2608.3941
2628.6867
2511.7147
2420.9552
2357.77
2379.3233
2310.2434
2340.874
2312.8743
2367.4014
2341.4354
2845.6615
2307.0059
2313.3251
2591.4557
2809.0945
2918.9297
3306.1976
3656.8412
3940.8523
4253.1771
4567.3321
4891.8118
5210.8803
5495.9985
5750.0362
6206.9577
6206.1315
6894.3106
6968.3031
7548.7027
7519.6186
8183.8767
8451.7392
9034.3795
9398.0279
9883.3065
12382.111
11698.324
9824.5708
10006.224
9955.7521
10392.896
10436.103
10539.516
10452.728
10305.143
10122.972
9916.6863
9758.3017
9333.523
9116.4936
8740.4027
8462.6507
8102.7527
7840.6334
7579.632
7323.5232
7017.8257
7408.1911
6279.6108
5953.1888
5908.6652
5977.4787
6003.859
6196.5898
6267.0417
6469.7264
6580.0013
6777.447
6885.3197
7051.4607
7224.9756
7260.0752
7629.4669
7430.4469
7856.0057
8115.6917
8413.3833
8871.9361
8817.2512
9334.8812
9409.4519
9384.9739
11429.838
18137.656
16940.66
17160.608
18178.207
18622.388
19036.034
18872.404
18794.167
18510.742
17997.222
17791.402
17229.924
16630.572
15838.893
15212.471
14429.531
13736.296
12991.824
12305.864
11643.039
11251.984
10221.695
10521.101
9508.1381
9588.8555
9252.0819
9039.9738
8902.6427
8780.3331
8630.3617
8438.3298
8417.4555
8243.4339
8227.6893
8058.5605
8106.094
7957.859
8294.6043
8132.6085
8297.1189
8381.2923
8592.498
8815.7564
9497.5624
9212.8083
10740.884
10877.194
9888.7385
10146.659
8367.2729
8408.6757
8597.0355
9113.945
11769.695
4418.4983
3857.161
3309.8129
3320.4367
3470.1718
3925.5049
5362.2711
1732.1927
1115.5193
586.46199
726.07034
634.14816
980.73192
1867.6066
1274.7727
628.47459
372.56194
331.68013
505.58761
1024.2022
2099.6151
2224.7382
1373.6993
994.95173
910.63422
1093.9482
1615.8068
2684.7942
6500.892
4593.4833
3938.8476
3681.7197
3901.2714
4709.5505
7077.9573
11686.767
11539.325
9549.6352
9758.696
9641.2963
10518.226
13998.021
32184.594
27894.267
29939.143
31930.003
31822.25
34095.07
33627.511
30072.325
30555.791
28476.921
27812.896
30234.573
30994.891
32026.069
28638.62
29415.366
29886.539
29788.594
29682.366
29956.968
30933.118
30267.233
32882.976
32488.573
33024.847
33161.431
33248.015
31137.48
29930.288
30635.236
31899.904
31986.73
31871.132
31088.405
30879.459
30573.206
30902.043
31597.399
32077.559
31823.085
30764.491
30307.787
29387.132
30014.611
31021.338
31100.804
31161.067
31123.158
30454.398
29728.269
29494.93
29836.695
30013.086
29694.854
29286.65
28938.865
28596.005
28694.076
29607.145
29398.672
29474.844
29080.318
29096.492
28577.965
28031.11
27930.459
28459.81
27962.34
27606.649
27801.151
27544.163
27291.988
27837.757
27341.902
27507.303
27150.825
27172.924
26803.173
26331.374
26264.063
26575.341
26473.664
25347.051
26526.633
25923.258
25172.203
25776.635
25221.184
25268.625
24880.756
25615.643
24576.266
24161.697
24540.516
24125.417
24723.841
23381.489
24633.939
23775.91
22968.663
23471.581
23128.557
23101.093
22535.405
23495.381
22460.433
21512.651
22520.035
21649.942
22367.714
21408.392
22470.515
21227.522
20625.819
21219.73
20578.324
21059.829
20101.4
21151.094
20071.362
19158.905
20176.243
19292.679
19961.987
19047.527
20067.593
18768.554
18097.809
19021.274
18006.944
18748.074
17735.223
18881.964
17632.706
16833.602
17851.887
16839.41
17637.605
16672.236
17830.611
16506.057
15707.383
16742.337
15641.689
16498.318
15481.616
16713.743
15434.557
14610.847
15658.592
14562.578
15424.598
14411.85
15727.192
14352.32
13645.309
14555.216
13577.09
14386.648
13521.107
14856.684
13367.361
12773.506
13588.971
12634.319
13410.781
12610.216
13886.058
12441.543
12059.185
12508.436
12195.537
12538.617
11752.932
12966.278
11647.498
11412.032
11625.44
11367.761
11677.106
11168.524
12591.153
11241.636
10796.458
11142.022
10796.189
11826.974
10631.727
11553.574
11026.454
10135.561
10791.042
10028.232
10640.267
9809.7055
10794.579
10245.836
9749.1401
10073.251
9624.9927
10014.533
9574.7562
10180.621
10009.38
9104.6516
9866.0686
8993.5229
9653.8877
8902.905
9612.7935
9402.6979
8838.5306
9298.8855
8556.781
9100.864
8397.5871
9114.0205
9112.0955
8383.6666
8917.1905
8131.205
8730.3431
7989.1094
8687.4895
8686.8354
8046.9488
8533.4008
7771.2946
8294.632
7522.7124
8205.0788
8296.522
7678.6985
8142.378
7373.8156
7896.7126
7167.4174
7802.3251
7960.4187
7445.168
7807.3131
7109.7461
7481.2137
6777.3151
7368.4967
7642.7722
7058.8985
7528.5087
6703.2678
7250.979
7103.012
6949.2924
7454.7072
6955.4257
7123.1904
6618.078
7009.5771
5589.0825
6678.2252
6608.7397
6516.7301
6663.0484
6279.8083
6342.3039
6451.5017
6263.6645
6850.5524
6459.0443
6804.0259
6034.8433
6507.0588
5694.5625
6062.2286
6838.7857
6272.371
6640.5474
5968.2252
6263.4719
5547.3455
5880.0273
6532.1195
6073.4152
6504.5165
5719.1186
6125.8769
5453.3233
5662.8649
6632.6172
6222.0892
6603.1146
5983.4784
6249.8217
5552.0917
5611.0225
6411.784
5890.298
6370.8787
5695.6231
6004.0575
5398.9737
5536.0844
6562.3884
6217.1478
6599.1518
6075.4014
6255.6807
5707.5238
5578.6314
6843.3707
6562.0547
6909.5559
6393.9573
6664.8012
6113.7343
5945.6579
7419.5925
7047.7175
7489.4801
7043.7755
7241.7482
6783.226
6738.6622
6008.6933
6243.8712
6340.2214
6167.775
6235.5139
5902.0725
5799.0729
-819968.29
-902281.36
-902309.42
-902456.92
-902588.54
-902565.99
-902292.94
-893333.18
-892407.75
-892356.05
-892601.56
-892561.96
-961448.83
-892729.72
-952272.17
-882253.55
-882370.34
-882358.14
-882315.36
-800092.24
-882356.77
-876447.84
-875626.34
-876437.92
-876297.91
-876617.99
-876133.31
-876462.2
-869553.86
-789110.93
-869054.75
-869027.3
-868693.75
-868732.68
-868874.25
-784468.8
-930444.25
-863816.28
-863615.5
-931108.01
-863445.5
-863583.88
-923509.5
-856443.86
-857017.65
-856816.19
-777737.8
-856903.85
-857010.38
31132.678
27656.332
26346.028
25624.204
26222.016
27159.135
27995.415
30735.646
28581.124
28700.497
28442.768
28774.905
29382.764
30242.79
31764.823
31839.22
31529.755
31247.474
31776.096
31493.616
31492.208
31541.31
32037.819
32187.525
32335.929
32140.214
31714.516
32081.936
32125.098
32199.023
32527.538
32409.844
32401.055
31743.771
31689.565
31204.901
31558.177
31578.241
31732.547
31635.993
31295.018
31430.641
31332.476
31118.746
31147.462
30703.281
31081.771
31013.422
31161.602
30221.621
30257.491
30234.858
30291.456
30115.895
30049.832
30368.1
30002.344
29677.456
29650.641
29513.063
29683.783
29346.092
30026.495
29011.439
28684.224
28665.165
28460.14
28570.566
28409.109
28957.533
28177.077
27923.19
28051.619
27674.76
27979.161
27613.339
28156.628
27172.278
27024.837
26804.679
26831.787
26706.39
26711.612
27186.318
26310.107
25950.462
25980.157
25715.656
25727.303
25523.16
25870.528
25056.009
24901.243
24948.541
24591.939
24794.434
24726.888
25110.463
24126.856
23780.431
23605.304
23591.016
23726.878
23336.55
23702.823
22985.641
22648.723
22658.173
22285.429
22402.134
22025.582
22502.386
21712.157
21499.241
21399.404
21252.21
21307.831
20944.043
21227.135
20599.117
20281.323
20338.592
19992.975
20087.413
19726.598
19951.968
19367.675
19169.61
19122.718
18836.867
18943.944
18500.373
18725.419
18276.098
18036.599
17985.06
17726.8
17778.72
17359.786
17561.618
17183.616
16938.97
16913.667
16591.487
16672.661
16240.117
16427.879
16168.219
15892.884
15863.12
15573.126
15680.418
15211.399
15356.421
15221.025
14884.002
14907.657
14611.86
14724.044
14216.413
14405.617
14332.13
14041.112
14063.431
13755.873
13922.808
13347.803
13507.266
13629.919
13228.37
13255.548
12994.55
13113.4
12546.63
12723.259
12948.41
12483.533
12620.098
12280.39
12454.763
11856.353
12079.077
12219.353
11860.947
11999.858
11607.546
11831.16
11194.943
11364.209
11781.726
11278.289
11396.594
11090.514
11277.832
10652.469
10837.064
11198.071
10676.069
10931.272
10570.847
10731.828
10116.652
10316.145
10687.825
10342.254
10419.18
10092.938
10300.363
9698.9196
9871.1405
10311.37
9794.9897
9984.8658
9718.3995
9861.2888
9232.8944
9438.3219
9826.2325
9440.8062
9589.9465
9293.2611
9427.7792
8891.1093
9056.7105
9451.3349
9057.8262
9187.0139
8975.5867
9093.9195
8510.8181
8714.6491
9084.9965
8670.7149
8837.048
8656.9569
8713.1019
8281.8387
8410.2534
8756.8737
8396.9516
8546.3914
8362.3073
8353.5978
7869.9202
8128.014
8395.0531
8042.1714
8250.4949
8050.9735
8145.5308
8355.5138
7983.5085
8531.1727
7909.5107
8078.8993
7845.1277
8100.253
6691.356
7714.6981
7619.95
7586.6457
7705.4693
7561.1491
7610.2617
7637.8449
7544.0776
7842.4126
7805.5434
7777.5898
7753.7567
7653.1541
7355.2896
7498.2596
7783.3174
7370.1983
7496.6631
7554.2421
7417.7138
7282.9831
7431.3717
7793.6372
7663.4373
7812.0191
7705.4954
7627.3506
7366.04
7532.341
7944.5937
7785.9831
7697.429
7899.3212
7682.1321
7545.6619
7671.5515
7957.1121
7457.2829
7759.7758
7791.6481
7694.2102
7743.5148
7959.7894
8263.0952
8388.267
8322.7379
8446.2895
8198.2039
8263.7443
8088.8039
8829.3122
8106.4774
8393.6019
8260.1623
8211.4343
8300.1116
8279.5853
6302.3598
6787.1051
6740.4798
6831.5351
6669.3117
6507.9008
6587.4481
6193.5832
4995.2297
4932.2132
4885.7447
4698.8913
4935.8768
4814.767
33460.236
25033.585
23836.269
24350.694
25639.266
25296.557
25684.112
25170.57
24890.792
24498.638
23839.029
23122.054
22311.701
21559.46
20460.045
20060.167
18911.555
17976.12
17096.947
16204.233
15345.576
14560.047
13796.519
13092.751
12514.337
11864.667
11510.022
10944.291
10568.661
10217.774
9849.8952
9567.2147
9236.4077
8983.7869
8754.4009
8532.0681
7758.5319
8473.2759
7947.4188
7830.4425
7883.6565
7822.5811
7937.7514
8083.4942
8904.1018
10249.299
12298.602
15072.98
15311.254
12584.413
13260.271
13692.135
13015.854
13395.909
13093.685
13044.906
12579.721
12433.304
11841.091
11586.781
11075.869
10558.251
10330.543
9767.7234
9363.8882
9037.4451
8637.2459
8309.8177
8071.2384
7801.7976
7686.8765
7521.6437
7344.3591
7614.1844
7470.6897
7579.8159
7610.2702
7719.543
7850.7748
7950.8356
8113.214
8252.8065
8324.5807
8560.5163
8715.1319
8961.4572
9116.119
9621.8389
9665.2904
10291.622
10225.759
11368.142
9373.8705
13300.989
5503.7833
5663.0265
4636.6484
5243.3003
4927.7306
3927.834
4889.18
4090.995
4516.587
4289.4749
4280.68
4447.6172
4136.5729
4764.224
4658.6984
4625.0885
4576.02
4506.3
4576.3103
4496.3747
4564.8743
4604.2814
4702.7707
4777.8219
4932.4008
4954.2893
5288.6363
5305.7963
5556.2255
5750.7126
5952.1531
6130.8865
6324.6925
6507.9752
6653.2039
6850.6514
6968.6449
7259.8174
7325.3027
7693.0451
7770.1696
8246.9199
8298.8698
9058.9345
8889.5224
9650.4736
11966.617
2096.3741
1847.9108
408.56732
2153.0329
531.20758
1493.5513
190.83169
627.06205
788.35896
360.05242
952.13284
349.55123
815.13068
1023.2509
1195.5231
1408.6672
1409.6308
1564.1793
1732.0263
1888.7907
2078.2425
2350.461
2528.3992
2890.3451
3127.2034
3582.5368
3950.135
4332.7847
4740.2011
5114.9146
5463.1043
5849.6831
6241.26
6495.9586
6922.9467
7173.3182
7556.9256
7805.1401
8253.2083
8329.315
9060.4307
8929.0244
9865.9472
9469.4519
10867.3
9184.775
12324.97
4401.9889
1270.47
1730.6236
1311.9558
1438.1082
1461.2489
1654.4695
1703.0792
1303.3558
1744.3621
1238.5278
1665.6253
1552.8781
1561.124
1778.5096
1753.1485
1946.9018
2024.7374
2224.8339
2326.4814
2559.4704
2715.4881
3077.3198
3248.1835
3559.1105
3865.5791
3970.009
4339.1228
4592.4233
4885.7969
5171.1027
5490.0257
5713.0371
5988.9299
6316.1896
6462.4064
6814.1815
7110.7802
7172.7203
7816.5003
7802.088
8464.1255
8552.7382
9332.393
9236.1949
9779.3243
11238.621
9407.0769
7787.9105
5867.6839
7869.3778
6209.5871
7759.5858
7138.06
7036.0229
7806.2531
7867.6768
8863.3062
8428.3016
8398.9682
8170.5254
7930.9045
7705.1387
7365.0945
7143.7829
6890.8195
6755.1428
6583.7525
6509.9596
6471.754
6240.1093
6063.18
5993.1824
6289.1798
6385.8885
6581.8493
6757.8339
6969.0113
7114.0272
7319.0297
7472.6431
7681.6038
7689.6834
8073.9973
7874.3992
8506.4107
8312.4589
8807.6286
8815.0141
9347.5417
9342.7995
10061.481
10083.574
10924.091
25503.344
16034.129
18836.175
16933.346
18937.897
18634.988
18638.847
19161.788
18274.116
18426.912
17869.415
18057.206
16786.359
16125.966
15316.812
14428.636
13824.849
13049.612
12418.043
11757.658
11143.326
10483.937
10044.87
9227.4474
9801.0252
8530.3578
8233.0566
8115.1086
7900.787
7810.4604
7692.9605
7622.7354
7551.1039
7521.6559
7430.319
7333.1355
7670.1251
7774.8875
7739.1177
8028.3596
8269.4209
8609.3256
8974.5979
9579.4922
9780.5412
10986.551
9544.1824
25097.222
21079.468
20377.107
20040.301
20322.125
20493.423
21493.243
23281.219
23968.002
22368.079
22292.456
22126.404
22707.292
23237.258
22446.67
23768.34
23712.865
23484.133
23490.271
23534.955
23436.431
22682.343
23416.939
23538.194
23704.489
23477.823
23410.908
22809.721
22643.661
23501.958
23871.737
23894.599
23869.42
23819.862
23374.495
22532.487
22914.929
22948.027
23196.83
22976.158
22956.663
22946.342
22462.534
22793.158
22948.489
22861.292
22857.149
22992.006
23006.714
21974.246
22172.144
22102.788
22251.529
22186.071
22190.052
22450.885
21694.537
21944.845
21748.528
21853.804
21698.19
22001.033
22273.535
21102.511
21212.513
21122.703
21112.612
21083.054
21324.882
21645.951
20573.156
20761.424
20600.775
20577.72
20659.504
20764.783
21248.636
20007.366
19971.504
19979.184
19924.68
19937.738
20131.974
20602.204
19394.669
19435.849
19275.345
19212.107
19389.266
19408.228
19779.962
18610.083
18669.344
18656.433
18558.452
18681.848
18708.354
19319.22
17891.442
18027.4
17731.594
17807.939
17795.857
18163.917
18355.489
17170.829
17283.014
17083.707
17112.865
17139.974
17173.698
17623.073
16363.306
16456.383
16317.595
16226.434
16364.683
16499.797
16936.837
15572.872
15688.401
15555.301
15471.496
15600.628
15724.965
16055.719
14844.109
14911.134
14811.865
14727.073
14892.407
14934.011
15326.939
14151.635
14181.071
14092.497
14043.845
14128.1
14208.847
14593.984
13530.591
13444.932
13451.778
13347.212
13482.729
13539.05
13886.041
12973.625
12817.35
12841.607
12746.765
12878.812
12900.948
13226.772
12476.991
12207.26
12335.381
12201.512
12300.968
12287.38
12652.047
12037.398
11705.479
11914.648
11691.67
11768.566
11813.169
12098.328
11603.614
11248.4
11359.194
11281.351
11278.779
11275.847
11635.012
11132.128
10814.165
11079.224
10868.217
10851.91
10936.178
11101.895
10867.728
10457.017
10640.53
10505.803
10483.73
10564.868
10782.282
10593.731
10217.058
10290.133
10264.126
10191.989
10232.759
10455.527
10236.934
9812.0391
10143.013
9905.2403
9918.585
9938.5422
10141.453
9998.1818
9633.462
9837.3577
9674.463
9678.3017
9701.2389
9884.5066
9763.5899
9354.8522
9599.8676
9471.3461
9434.27
9469.2496
9618.1961
9511.5007
9137.2032
9401.2644
9241.45
9214.1063
9265.6617
9374.1928
9299.8695
8962.8406
9154.7001
9062.3045
9011.0059
9059.1594
9191.7924
9094.3824
8705.4042
8986.0634
8863.5739
8833.2156
8943.0321
8950.5185
8849.6388
8640.0178
8805.0257
8710.4572
8731.2944
8652.8657
8745.4973
8784.6758
8424.5315
8597.0796
8592.1845
8451.6473
8505.9432
8591.1944
8420.9733
8172.5733
8617.4431
8295.5179
8570.1543
8442.6965
8778.0978
8640.7647
8226.3078
8405.2442
8605.1475
8199.8907
8508.7587
8223.4674
8079.2819
8175.1342
8258.2733
8292.8247
8376.019
8332.9832
8447.3921
8548.5921
8289.0502
8363.2683
8467.8159
8232.178
8435.1309
8164.2119
8137.4901
8165.7846
8254.7956
8382.734
8374.602
8455.0485
8277.7232
8415.9145
8366.0184
8341.7139
8542.9172
8241.7726
8511.0587
8282.7755
8926.3219
8707.4599
8826.8333
8924.0713
8903.0623
8975.6149
8478.4127
8354.5518
8511.5867
8443.2406
8828.0261
8379.3621
8538.669
8353.4389
9646.728
9271.0475
9737.5829
9698.5458
9652.9707
9937.7247
9358.6116
10259.067
10944.189
10727.283
11015.632
10864.957
10920.16
10723.613
11838.566
10954.541
11776.078
11579.986
11695.032
11573.747
11812.612
11504.784
8819.3146
7974.8526
7665.956
7676.9971
7970.4092
8966.6207
12219.408
12942.052
12160.41
12211.688
12273.805
12498.897
13022.145
11758.325
12024.901
12197.067
11951.378
12083.367
11730.385
11836.957
11793.981
12345.516
12665.711
12703.145
12578.829
12468.832
11932.939
11632.761
11908.087
12255.282
12114.087
12249.266
11927.88
11837.365
11605.204
11841.425
11695.883
11724.447
11635.405
11534.408
11511.531
11281.757
11513.519
11625.814
11586.532
11611.134
11579.745
11440.748
11248.54
11411.91
11192.724
11170.151
11188.262
11090.89
11230.499
11014.036
11121.515
11044.808
10989.286
10984.7
11049.438
11109.072
10842.928
10840.48
10721.665
10633.066
10777.183
10711.249
10787.599
10550.024
10638.755
10482.198
10453.152
10467.282
10507.98
10555.233
10308.724
10352.398
10163.33
10080.683
10132.964
10092.575
10162.593
10022.8
10016.923
9908.9772
9908.0674
9856.7899
9898.2622
9874.1643
9776.8726
9688.8847
9601.1047
9462.0556
9534.2998
9420.292
9605.5395
9556.1364
9442.3585
9277.807
9203.6434
9295.7965
9051.5402
9211.2433
9249.1595
9031.0353
8957.8201
8895.2802
8964.3405
8745.6013
8870.348
8939.8842
8820.2616
8597.5494
8613.4282
8604.5815
8461.6965
8610.895
8680.962
8505.893
8292.033
8359.3226
8318.4387
8151.0618
8201.8467
8426.0465
8271.2071
8035.6378
8070.4198
8054.0181
7848.2855
7969.355
8187.4039
8036.1916
7771.9809
7837.0474
7769.7375
7595.7755
7701.8277
7927.2576
7823.7557
7589.1689
7608.2718
7553.9773
7400.8523
7437.6164
7719.2327
7695.7328
7428.2078
7451.0716
7394.3846
7182.4132
7257.951
7598.1603
7508.1261
7277.8837
7296.8906
7167.7027
7054.3203
7092.0924
7472.0844
7393.986
7215.8859
7103.5065
7128.4471
7040.8449
7010.2268
7403.3169
7355.5853
7124.6025
6995.7552
7100.6262
6908.2374
6868.501
7405.7759
7308.8545
7066.7911
7214.2108
6887.0633
7083.8271
6989.3272
7226.1472
7585.5922
7162.4015
6936.4007
7246.4143
7002.1675
7018.2261
7518.6179
7285.2213
7218.5893
7094.1121
7139.3191
7117.2238
7023.3774
7522.731
7421.2855
7403.9695
7096.8059
7241.8025
7233.5507
7065.0806
7662.7501
7558.2631
7394.2344
7241.4692
7338.9354
7329.3611
7168.0394
7733.9769
7554.3464
7531.1657
7338.7865
7417.1695
7454.8425
7263.6514
7831.527
7705.0243
7648.0233
7462.1803
7513.7781
7602.4041
7396.7099
7937.1316
7757.2864
7729.9784
7555.4829
7648.0199
7754.6405
7509.1082
8043.4749
7881.5601
7856.3316
7725.7953
7756.5115
7837.6584
7610.8163
8178.2222
7969.3169
7936.2406
7841.2368
7806.5193
7996.323
7849.9928
8211.1944
7982.0227
8060.2431
7965.4617
7962.3226
8234.0252
7968.3412
8502.1954
8431.1407
8218.121
8221.8859
8060.287
8363.2694
7993.6442
8563.6791
7976.5471
8312.4324
8140.6242
8262.2864
8486.2288
8287.04
9006.9415
8740.0533
8762.2269
8601.2048
8495.054
8778.307
8512.7115
8960.2401
8254.7238
8682.7966
8465.8924
8578.4147
8880.4199
8617.7586
9325.0243
9113.6439
9265.2519
9133.8021
9076.5158
9262.8532
9070.8138
9603.0324
8895.1333
9276.9349
8999.3187
9007.0628
9324.5005
9140.4903
9754.5251
9560.3719
9779.6352
9708.739
9807.9668
9997.6138
9739.521
9730.3546
9266.7401
9628.7844
9421.9613
9237.9895
9469.5662
9440.8709
11146.613
10975.062
11061.991
10828.39
10961.575
11497.045
11315.538
9524.6573
9017.4156
9413.6967
9148.5029
9075.8983
9195.1282
8554.223
12918.568
12356.325
12329.966
12058.367
12184.6
12076.25
12523.918
4475.8395
3333.9013
2779.3325
2648.1889
2509.3501
2768.8801
3003.783
3817.2091
4155.0025
3796.07
3867.7257
3827.6562
3874.285
4179.0235
4378.1383
4307.8376
4149.947
4213.0791
4104.5217
4089.9039
4090.9862
3848.6318
4237.0186
4629.2919
4798.486
4644.1164
4719.4634
4335.0158
4281.4838
4464.7005
4421.3556
4375.8387
4303.7431
4097.288
4363.1737
3999.9156
3680.1046
3762.7976
4163.3923
3913.1335
3875.9261
3880.0621
4460.9806
4027.149
4265.4842
4321.4744
4255.1676
4454.3865
4306.5316
4326.5849
3791.3348
3705.4023
3647.8502
3674.2566
3740.7335
3694.5041
4241.5106
3748.2656
3878.5772
3976.6319
3958.1928
4155.3732
4051.2002
4220.6764
3667.8687
3656.7951
3638.4631
3605.6319
3777.3899
3777.1908
4139.9743
3600.9696
3648.8982
3629.4357
3625.3276
3727.5347
3727.2156
4119.0608
3420.0392
3483.2031
3548.0772
3627.6026
3741.9809
3890.0697
3962.6602
3320.3186
3475.3609
3415.5638
3516.9343
3520.5277
3724.1207
3734.298
3455.2576
3386.6481
3400.8022
3527.0561
3538.7018
3716.7743
3405.9235
3366.8675
3439.8261
3408.2313
3352.0718
3542.2183
3776.1046
3354.9352
3332.7535
3401.9939
3379.1672
3393.7775
3455.6038
3771.7248
3392.5948
3277.0744
3438.8392
3374.0923
3318.9728
3467.7869
3802.1084
3378.1307
3270.6468
3450.5632
3356.2586
3348.5129
3484.5606
3744.8541
3465.3601
3310.7367
3496.7428
3404.7725
3391.531
3501.0421
3861.0421
3517.2132
3323.3028
3525.1995
3454.524
3422.0551
3563.9593
3872.4534
3676.4584
3438.3707
3649.2605
3564.2999
3586.6483
3660.1388
4003.3783
3829.4669
3558.8584
3739.4129
3652.9648
3644.7065
3753.5969
4095.348
4016.8394
3716.2486
3940.5365
3737.301
3891.2956
3936.5912
4312.3333
4314.5941
3923.6335
4143.5261
3987.6478
4123.8994
4054.6934
4377.4618
4567.263
4070.2944
4392.8136
4244.6273
4381.1096
4188.4142
4735.2192
4803.6229
4363.7787
4724.8975
4371.058
4681.5337
4385.2524
4802.6821
5199.4516
4577.9986
4802.1698
4631.5568
4936.0012
4538.1468
5105.2321
5307.1198
4835.0564
5150.384
4962.1152
5153.3214
4827.1621
5306.9033
5673.6196
5126.6424
5447.7569
5134.1449
5483.8345
5068.1355
5548.4553
5947.0355
5390.8924
5583.1018
5436.7956
5700.9586
5263.2643
5802.4181
6177.3391
5579.2329
5928.0452
5715.9369
5962.2866
5573.3001
6050.5179
6460.9626
5875.6766
6173.9155
5908.868
6207.8023
5787.1786
6254.6589
6689.6428
6089.9942
6392.8354
6175.7241
6456.1357
6004.8675
6467.9942
6960.3298
6323.9419
6641.9686
6409.7194
6634.8148
6255.466
6749.2342
7132.3822
6479.874
6887.5766
6597.1269
6892.7804
6555.184
6853.656
7427.5435
6873.7187
7176.885
6846.2374
7170.5507
6688.3495
7097.7566
7526.3509
6841.2399
7237.2121
7035.3881
7326.4413
6938.3152
7293.4927
7844.1655
7293.413
7746.2999
7335.9221
7662.5742
7199.4387
7496.1784
7732.8593
7553.0048
7603.7921
7543.2448
7712.3161
7399.682
7714.8544
8263.8348
7725.9671
8101.895
7872.3341
8153.4934
7830.5661
7974.1968
8249.2325
8291.1262
8196.0245
8179.2212
8195.4557
7919.0204
8076.4772
8627.4654
8231.8154
8460.8375
8351.7858
8509.4331
8453.3554
8551.8526
8826.6857
8923.0873
8763.6092
8834.2843
8806.347
8687.9829
8511.3769
9299.3652
9155.6839
9179.3147
9224.6108
9112.9477
9104.9367
9209.5178
9794.1143
9675.4136
9515.2301
9660.6977
9518.6494
9898.0622
9353.9258
9693.1038
9794.3562
10052.682
10068.342
10174.432
10135.304
9451.5983
11925.35
11298.775
11292.494
10987.928
11340.081
10916.181
11201.135
1754.2723
1257.9124
911.75021
841.3818
765.40883
827.09619
714.2993
964.37348
1434.5574
1432.1646
1567.1642
1518.7755
1462.0897
1450.8244
939.02573
812.9862
601.44971
639.41597
604.28017
555.68867
306.64892
982.00226
1649.6117
2125.0689
2336.843
2322.303
2166.3713
1842.0928
922.9087
917.64052
534.04507
379.78777
270.87198
288.08414
322.65668
1040.1615
1314.0057
1352.9897
1592.0064
1676.9433
1729.8224
1379.2177
953.93451
923.15456
815.48988
847.45801
735.16619
555.17752
783.59922
1229.8323
1106.087
973.97806
1060.5658
956.35996
1017.6841
937.49244
1130.8055
1097.0921
1049.93
1012.7348
1171.7562
938.49619
1205.1652
1227.4024
1253.239
847.64188
947.14962
817.90033
750.88182
759.66907
1144.4924
1126.7436
1180.6776
1074.8962
1373.1482
1174.2951
1346.55
1227.0143
1366.0998
1015.4125
944.57953
1084.5409
878.71617
981.4732
1300.0931
1338.3869
1058.5714
1147.0778
1334.7704
998.89362
1144.1846
1362.6365
1624.7801
1017.9827
1183.334
1187.2406
1210.4713
1111.2289
1322.1041
1568.3063
1438.7251
1210.2474
1397.3925
1194.541
1213.4226
1427.3841
1647.043
1434.5025
1312.3893
1431.6067
1380.7232
1332.1331
1484.1069
1756.2693
1603.9474
1424.4352
1587.9902
1453.0581
1474.2945
1641.5255
1915.4119
1700.6875
1557.8014
1702.8299
1632.5371
1621.8859
1755.3873
2039.5482
1872.8105
1705.3835
1900.2737
1769.744
1793.1875
1997.0031
2276.112
2022.8324
1906.613
2063.2574
1945.1673
2001.8858
2283.0331
2402.1809
2267.463
2140.774
2245.7445
2181.8074
2200.5311
2610.0564
2682.0067
2490.4128
2333.7679
2487.3531
2398.8593
2454.6254
3042.2954
2913.536
2627.9716
2741.683
2744.903
2673.4837
2662.9936
3339.9913
3031.9911
2999.3813
2970.6585
2977.9253
2954.2034
3052.1781
3682.8151
3360.5128
3363.8206
3119.4377
3223.5944
3295.1608
3259.6049
4148.3811
3591.133
3544.2491
3503.0111
3455.0822
3616.1561
3640.234
4393.4492
3853.2975
3938.415
3882.1771
3731.3101
4014.6819
3921.4082
4777.8445
4173.369
4384.306
4150.394
4184.2663
4328.2914
4335.0225
5115.5399
4535.4354
4572.5546
4550.9549
4357.2078
4667.6524
4659.5067
5410.7562
4832.476
5012.2318
4868.7472
4789.7805
5082.2976
5025.8035
5723.2413
5195.2584
5280.453
5218.8872
5069.6907
5390.2201
5359.7632
6068.1854
5518.9161
5651.8657
5543.3855
5373.3057
5735.9496
5646.8578
6308.599
5797.0943
5904.7848
5815.3414
5710.0972
6087.2105
6051.1847
6621.8317
6099.8378
6239.9703
6178.395
6008.6381
6389.2518
6271.9388
6878.2362
6407.692
6540.2539
6411.5119
6304.3499
6674.5961
6611.2663
7060.6312
6632.7987
6680.2761
6701.0054
6577.3807
6905.4824
6900.3649
7486.7722
6987.51
7113.9279
7091.4255
6791.1192
7303.7489
7162.6914
7434.0653
7130.6108
7266.1902
7109.836
7094.0443
7413.6322
7450.5524
8000.0688
7623.957
7657.212
7694.7294
7463.6983
7929.0642
7839.3647
8025.9423
7576.1137
7878.9889
7654.9753
7611.8252
7919.6828
7889.5417
8466.2794
8260.7937
8336.7893
8347.4364
8136.5804
8578.0608
8527.0028
8793.7161
8092.1218
8491.5395
8168.7216
8240.9667
8532.9354
8509.819
9215.1667
9098.1363
9232.0357
9224.6393
9173.1447
9445.2935
9308.386
9402.3717
8591.5905