/*--------------------------------*- C++ -*----------------------------------*\
  =========                 |
  \\      /  F ield         | OpenFOAM: The Open Source CFD Toolbox
   \\    /   O peration     | Website:  https://openfoam.org
    \\  /    A nd           | Version:  6
     \\/     M anipulation  |
\*---------------------------------------------------------------------------*/
FoamFile
{
    version     2.0;
    format      ascii;
    class       pointScalarField;
    location    "0.04";
    object      p;
}
// * * * * * * * * * * * * * * * * * * * * * * * * * * * * * * * * * * * * * //

dimensions      [1 -1 -2 0 0 0 0];

internalField   nonuniform List<scalar> 
3969
(
10.261698
-39.551124
5453.7611
1144.5925
26.846743
-56.373248
1514.06
-306.34345
12.187789
6.4999289
-1.8623531
-11.62485
-20.086938
-29.228156
-25.064853
-15166.131
-6926.7199
-5363.9212
-91.559097
3941.5993
8396.7987
7807.5486
1.79704
1.5545071
-1.0031202
-6.6733451
-15.799923
-33.111446
-58.635356
-98.353935
-158.81201
-242.39178
-349.65753
-484.75178
-676.89988
-884.11359
-1178.8167
-1564.2013
-1996.7142
-2504.0843
-3030.2513
-3477.445
-3687.624
-3430.0974
-2424.0699
-537.70159
2379.5912
6441.2143
11054.927
16131.077
21464.068
26542.493
31183.346
35159.08
38447.257
40837.472
42482.54
43640.34
43419.942
42656.926
40368.737
39163.545
34570.78
31757.248
28866.122
21490.717
20574.803
15184.397
10107.425
-9.0053578
-9.7994225
-10.908105
-8.5574255
-3.6183929
7.1323835
30.964175
61.190597
118.85555
188.50194
307.32068
437.26502
621.78718
864.39051
1157.673
1519.0171
1945.08
2424.3116
2923.8881
3342.8561
3590.5949
3409.8022
2587.7697
1023.0107
-1580.9785
-5017.1166
-9238.2201
-14008.919
-18901.051
-23727.017
-28130.961
-32014.922
-35237.346
-37739.811
-39522.788
-40609.504
-41027.207
-40115.555
-39492.801
-37109.086
-34410.034
-31106.842
-27252.006
-22382.863
-17974.089
-14136.909
-9094.6162
26.885838
15.080217
-0.067753508
-13.171562
-25.270066
-37.772929
-25.620097
-8.0239007
-9.8142859
-5.485735
-5.2655409
-0.32334688
13.642049
28.865548
68.207541
100.93124
203.79683
318.54065
453.65353
673.88848
923.96804
1248.4273
1646.3345
2118.4863
2653.7477
3213.9181
3714.703
4007.8196
3868.7954
3044.3307
1283.0185
-1679.3399
-5574.6318
-11105.922
-16232.066
-21543.316
-26332.161
-30672.549
-34733.275
-38521.314
-41860.934
-44494.985
-46539.881
-43542.716
-45876.929
-43231.055
-40845.925
-37644.845
-33888.593
-29364.643
-24543.486
-20239.885
-15275.404
-10848.535
12885.112
7144.8827
2930.2026
2178.048
-7917.2564
-8047.3982
-15870.222
22609.923
18364.956
19849.473
24703.11
28879.522
32764.454
36568.061
39691.663
42312.602
44120.185
43682.516
47309.89
43828.305
42229.775
39537.722
36099.099
32205.649
27765.283
23010.899
17488.523
12223.351
7338.2089
2957.2054
-295.78746
-2359.1062
-3416.4904
-3702.3532
-3508.6132
-3078.181
-2578.426
-2097.0039
-1648.1447
-1395.2773
-1009.5319
-725.42025
-564.8778
-415.43674
-281.71022
-203.64792
-110.02137
-59.893338
-39.247587
-14.076653
-6.5029125
1.1197993
3.8523292
3.0811155
4.8073032
5.0090741
4.4707777
4.9123841
5.9898741
9.1438094
10.383667
-32.831067
-32.72397
-33.100342
-32.390499
-30.134736
-29.718605
-28.110669
2582.4859
4028.8999
4360.8928
5469.0254
4981.3464
3330.0019
3148.5769
-3260.949
-1519.7282
-2277.2791
-3317.861
-2474.3759
2067.5436
-1725.7229
2.5106991
0.96835253
-1.7118945
-6.7905803
-16.644236
-31.925255
-57.179071
-94.506345
-148.41822
-220.73149
-321.3735
-461.80508
-630.59944
-846.48337
-1104.9259
-1375.2879
-1677.2714
-1995.331
-2266.2707
-2403.3604
-2294.2589
-1775.9303
-766.4676
846.74995
3094.9805
5924.3255
9179.06
12750.917
16642.541
20433.014
24079.623
27378.281
30132.265
32177.66
33656.86
34116.343
33979.882
33416.5
32238.001
30921.76
27901.386
26691.076
21739.964
18565.347
16151.078
8525.0113
4209.7216
0.75631699
-1.4020704
-3.4265943
-7.4786082
-14.472362
-26.643891
-44.950484
-72.324975
-110.67771
-164.03715
-229.17641
-317.57133
-407.10706
-516.21428
-650.01733
-810.43981
-982.71487
-1136.348
-1240.0161
-1231.0912
-1045.4798
-631.68815
60.24027
1071.4248
2329.3623
3810.0631
5463.6114
7412.8049
9687.0461
11919.232
14238.366
16351.664
18116.036
19465.713
20284.115
20656.459
20801.626
20702.147
19859.417
19603.749
17740.644
17154.989
13888.216
13348.937
10034.862
5641.1793
349.05638
-1.9015919
-3.8341499
-5.8607934
-9.2899752
-15.63115
-24.384567
-39.519582
-60.43832
-88.660781
-125.48342
-170.30803
-228.96902
-284.39925
-322.58683
-396.02149
-465.52038
-534.25502
-589.18535
-617.2555
-576.26929
-476.13009
-253.57796
113.43811
593.88024
1192.0957
1962.5456
2918.121
4038.1551
5205.2669
6607.765
8080.702
9409.3661
10507.26
11201.769
11573.663
11476.755
11457.154
10866.888
10571.517
10541.286
9310.7746
9856.4009
7512.158
7471.0245
4812.2623
2053.9799
1167.815
-4.7040397
-6.106607
-7.0432575
-8.3813509
-10.449159
-13.568324
-17.143279
-21.229813
-24.574975
-29.85056
-34.635493
-32.542605
-27.764673
-17.183564
4.8726343
40.079681
84.402299
142.45406
221.51538
296.03227
435.62499
549.10164
488.36341
460.94044
241.0804
-116.02248
-602.96489
-1168.7446
-1607.5777
-1897.1875
-2009.7313
-1976.7646
-1940.4906
-1882.8026
-2055.5553
-2094.8982
-2348.3788
-2365.1828
-1732.9794
-1686.5767
-1022.5429
-127.96638
-651.95575
1370.5211
890.65071
2442.4072
2958.8049
-7.2497836
-8.4806762
-9.8005641
-11.803926
-13.741571
-15.818881
-15.788989
-15.693073
-6.3559154
3.2937222
28.631016
66.003143
120.65193
195.74704
287.28001
403.58284
536.09628
676.59549
807.71928
858.39658
999.10984
648.60237
406.40698
-308.19869
-1082.3283
-2215.5421
-3553.0556
-4834.5022
-6056.5575
-7160.1094
-8045.8159
-8856.4903
-9495.4686
-10151.093
-10678.747
-11037.533
-11255.814
-11030.012
-11200.695
-10155.5
-9237.8512
-8640.8764
-6833.0922
-5147.5464
-4183.6217
-1265.3799
1542.3261
-9.2747831
-9.9371759
-9.8258302
-9.3741736
-7.1112464
-2.6011086
8.629135
24.078295
53.127528
87.917962
136.23828
218.78476
322.22639
457.47036
626.24257
829.71136
1064.3469
1317.3499
1560.1919
1748.1517
1812.3313
1806.7623
1216.8283
303.8228
-1184.652
-3414.6167
-5809.3049
-8572.8124
-11427.228
-14104.73
-16484.506
-18438.627
-20008.53
-21201.306
-22223.165
-22881.187
-23166.28
-23319.196
-22642.411
-21852.583
-20261.169
-18335.874
-14654.992
-12688.287
-8670.7662
-4112.6176
2317.8896
-12.591175
-12.162256
-13.558519
-13.513861
-9.7017981
-2.1189859
16.050456
44.190183
91.50876
156.67911
246.84425
373.20732
552.39826
777.23287
1055.9701
1385.1867
1755.3547
2135.6704
2474.6849
2691.8232
2621.8673
2103.8226
1173.0043
-441.89676
-2754.0125
-5677.425
-9020.6962
-12880.258
-16705.188
-20506.82
-24071.903
-27242.755
-29836.877
-31869.555
-33303.31
-34147.182
-34461.912
-34234.155
-33051.795
-31043.799
-28525.632
-25410.801
-21654.214
-18774.746
-13855.283
-9415.4824
-1648.533
9.7067266
5.2735938
3.9658741
4.1891831
6.2270727
9.2598635
11.376106
1.7506858
-0.5858735
-1.7128442
-1.765485
0.3420496
2.4406649
6.2578028
-5.2448162
-6.869298
-8.1008007
-7.9206839
-6.5721159
-5.1062336
-0.68472859
-12.117424
-14.991568
-14.619738
-15.021763
-12.90295
-12.494985
-7.7848246
-20.734178
-18.660956
-19.491152
-19.249183
-18.085796
-18.242412
-13.674066
-26.485121
-25.473392
-24.293055
-23.797357
-23.140691
-22.750712
-21.064498
-28.54976
-20.5126
-20.042156
-19.339601
-18.741944
-17.656419
-19.566072
-13.102975
-10.817129
-11.127646
-10.816626
-10.511906
-10.789348
-7.5598769
-12.100862
-10.964171
-9.2119811
-8.499506
-8.7666506
-9.0186321
-9.6921633
-7.2209804
-3.6528878
-2.6977433
-1.9809763
-2.2261223
-3.2392142
-6.6901814
-6.2462795
-0.92741264
2.0436788
4.0753606
4.2159185
2.774835
-1.2773349
4.8168867
11.344066
15.226431
17.94368
17.466453
14.100939
5.6363415
17.918747
30.387132
36.861163
39.203382
39.474977
28.644293
21.097581
43.259608
56.04537
65.504105
71.853859
71.6543
68.463306
42.001988
85.347516
105.48531
121.63438
124.33276
118.99387
108.75954
82.123081
146.79309
160.96005
198.24056
198.46533
194.94689
178.81822
137.24848
237.71834
259.84474
288.19644
308.12603
298.77775
279.8028
225.23154
338.90433
379.7021
436.69886
452.48244
434.18643
401.82901
347.97245
487.81316
553.78198
613.20379
635.28492
617.48673
571.62859
474.28933
697.38957
777.24092
840.02903
869.34274
831.15941
786.77569
682.38673
945.58406
1034.6963
1114.8479
1155.3703
1115.4834
1061.1057
942.38463
1258.7528
1355.339
1451.0872
1501.8218
1457.1489
1390.8275
1265.6608
1641.2343
1743.2899
1855.4953
1915.8583
1869.5389
1791.6445
1670.3852
2104.2969
2212.7811
2338.659
2405.3291
2361.1348
2264.2443
2163.2892
2650.0493
2768.2613
2906.0521
2972.6865
2934.2614
2805.178
2747.6882
3253.4495
3397.7027
3541.7018
3598.4755
3572.7555
3384.9434
3407.4435
3851.3231
4022.2635
4167.9451
4202.8494
4202.4314
3921.3281
4077.9347
4278.475
4491.8212
4629.9891
4628.5176
4669.4301
4249.2404
4612.1845
4286.465
4535.9729
4645.9977
4588.9551
4697.2872
4114.7532
4746.0862
3563.2709
3826.8625
3846.9482
3731.6191
3887.9449
3122.8766
4072.3879
1789.0707
1958.2141
1859.3236
1681.1986
1873.0773
1137.0058
2329.2946
-1219.6972
-1157.1726
-1521.5734
-1794.67
-1668.3106
-2299.4559
-1225.8614
-5447.9523
-5675.3731
-6288.924
-6525.8869
-6768.6119
-6987.2304
-5921.9635
-10545.059
-10984.25
-11899.512
-12240.911
-12598.488
-12783.893
-12025.483
-15992.307
-16563.651
-17808.018
-18256.778
-18961.623
-18689.798
-18476.265
-21544.881
-22182.129
-23541.632
-23932.257
-24606.822
-23835.152
-24251.081
-26415.081
-27160.87
-28394.839
-28801.272
-29469.308
-28184.226
-29085.173
-30710.161
-31472.194
-32542.292
-32881.261
-33437.872
-31769.301
-32818.521
-34395.505
-35164.684
-36042.741
-36330.646
-36790.815
-35030.901
-35929.704
-37606.585
-38325.227
-39073.778
-39293.482
-39803.065
-38211.372
-38931.416
-40313.862
-40947.292
-41586.424
-41736.934
-42340.226
-41189.25
-41887.718
-42365.527
-42845.161
-43348.613
-43423.889
-44164.323
-43201.455
-44381.474
-43579.93
-44005.938
-44080.04
-44136.972
-44668.064
-45096.873
-45531.231
-43794.995
-43759.652
-43966.273
-43618.181
-44220.039
-44067.362
-45764.558
-43220.245
-42492.144
-41985.671
-42093.025
-42662.696
-41923.858
-44055.619
-41309.683
-41081.349
-40245.056
-39846.526
-39719.819
-39494.731
-41705.139
-38892.709
-38383.499
-37585.391
-37008.381
-36895.514
-36876.734
-38290.919
-35590.815
-35403.28
-34396.228
-34022.632
-33672.178
-33613.997
-34389.691
-32135.505
-31907.086
-30990.251
-31068.435
-30229.257
-30588.752
-30687.788
-28015.625
-28372.077
-27688.862
-27855.494
-26839.877
-27280.535
-26749.152
-23691.936
-23861.797
-23363.264
-23565.07
-22674.002
-23212.072
-22450.22
-20191.454
-21064.919
-20698.891
-21010.427
-20235.512
-20060.544
-18940.86
-17417.227
-17730.454
-17696.818
-17798.672
-17029.655
-17419.105
-16231.742
-13459.687
-14675.252
-14301.792
-13629.303
-14535.697
-13962.137
-12470.564
-23756.509
-26420.265
-29601.253
-29607.514
-28435.826
-26990.331
-24506.678
-12849.314
-15221.966
-16086.848
-16528.586
-16207.679
-14199.304
-12398.117
-8946.0115
-10943.85
-11703.91
-11542.299
-11423.521
-9200.4645
-8324.3832
906.89542
1325.1865
797.9059
812.04661
1271.3402
618.34216
1396.8855
6897.3755
6716.2093
6205.478
7538.2122
6054.6331
5942.4122
5815.8258
12176.479
15112.976
15961.011
16243.407
17409.937
14341.347
13526.301
15310.781
15961.315
17625.214
17615.023
16658.358
15686.227
13788.986
1.5372728
0.11636154
0.17465482
-0.31758605
0.38675757
1.2309611
3.1455892
0.5334019
-1.26405
-1.1592969
-1.8528099
-0.80150598
0.071522887
2.9765374
-2.6757397
-5.357909
-5.9391385
-6.5534095
-4.0958439
-4.8404394
1.4158648
-11.163632
-13.37287
-14.875134
-15.55453
-13.932509
-12.428545
-4.3155627
-22.253475
-28.122228
-30.183769
-33.020996
-26.894535
-27.735469
-15.45631
-45.313182
-50.511273
-54.808386
-56.783467
-50.702443
-55.860047
-31.716899
-72.656236
-85.365313
-92.352507
-100.62784
-87.765064
-86.368495
-63.784745
-126.2344
-136.4519
-148.71632
-151.42115
-142.9981
-138.79163
-104.77169
-183.49935
-206.50781
-223.41818
-238.73212
-209.88704
-230.16976
-161.42219
-273.35067
-303.79441
-326.68601
-343.6133
-311.22362
-321.33951
-256.24327
-389.38714
-424.86007
-460.35903
-482.87697
-441.4488
-465.10744
-368.31359
-573.65377
-595.14084
-642.70676
-641.91012
-619.38453
-594.99473
-516.61216
-739.48329
-775.95167
-833.79517
-870.44383
-805.8487
-840.5831
-726.51588
-1021.4664
-1038.0949
-1100.0105
-1114.079
-1072.4101
-1050.7631
-937.04446
-1307.9655
-1345.94
-1416.2763
-1419.2507
-1374.7046
-1328.073
-1225.381
-1639.1639
-1649.3447
-1770.0055
-1779.42
-1735.1425
-1677.1117
-1649.9876
-2069.0135
-2075.1667
-2235.4168
-2235.9848
-2241.2876
-2103.0004
-2057.7462
-2579.1024
-2599.4049
-2784.8498
-2775.993
-2811.2122
-2600.5554
-2612.9694
-3159.7753
-3203.0505
-3418.1216
-3390.724
-3485.3162
-3153.6686
-3254.0135
-3718.6975
-3800.1313
-4037.2293
-3990.7713
-4170.9699
-3668.4499
-3920.459
-4097.5166
-4225.749
-4470.9666
-4398.724
-4692.7785
-3974.4969
-4450.7069
-4039.9574
-4215.2111
-4439.7082
-4351.128
-4764.6429
-3783.5015
-4535.8896
-3223.9541
-3416.582
-3570.3063
-3420.4092
-3892.3719
-2742.4677
-3807.1507
-1415.7663
-1569.3868
-1561.9396
-1367.3199
-1888.0192
-651.33523
-1844.7533
1708.1543
1603.5738
1830.2369
1958.1289
1664.6942
2710.5309
1518.3636
5975.6001
5936.6195
6533.2932
6622.8354
6660.8001
7211.0775
6287.6845
11202.76
11159.34
12132.924
12270.732
12668.285
12711.723
12235.364
16895.41
16975.462
18192.301
18154.415
18809.32
17912.981
18052.889
22890.855
22890.258
24120.725
23987.939
24974.916
23363.205
24061.924
28289.419
28069.059
29438.92
29198.683
30266.454
28058.773
29084.942
33127.824
32656.219
34040.148
33631.939
34744.354
32294.494
33360.251
37145.144
36302.959
37717.422
37175.16
38321.171
35785.583
36866.994
40361.861
39145.7
40576.175
39852.311
41016.419
38759.398
39940.412
42772.846
41285.904
42761.281
41851.679
43216.262
41146.267
42582.576
44530.43
42811.379
44137.689
43188.959
44298.351
42830.347
44156.241
45397.317
43624.718
44737.988
43471.232
44962.92
43649.63
44562.878
44967.033
43465.332
44314.527
43638.215
44504.841
43535.917
45301.444
44470.677
43107.704
43000.087
42221.97
43722.205
41900.626
43888.391
42522.443
40588.956
41135.898
39997.657
41109.952
39814.52
41846.614
40507.19
39120.305
39507.934
37912.147
38713.43
37264.091
38924.674
36118.452
34622.935
34864.933
33759.844
34532.515
34039.556
35369.095
33434.962
31900.724
32440.406
31217.414
31792.79
30872.157
31641.123
28945.768
28804.099
28834.089
28306.386
28188.293
27275.05
27274.823
22857.181
21942.519
22473.242
21967.74
22227.869
21444.361
23015.202
21783.078
23631.374
24212.134
24204.778
23681.664
22513.139
21187.99
17557.58
17690.748
17598.204
17041.251
17872.286
17680.191
16049.128
21560.653
24688.874
25235.958
26275.9
26486.623
26227.155
24271.496
5.2836265
5.5696279
0.38985322
-4.7588159
-16.602428
-35.900233
-65.389992
-116.68705
-175.12993
-255.40603
-372.31207
-510.44109
-709.98126
-902.26879
-1121.0827
-1346.491
-1618.5091
-1884.2068
-2050.4082
-2056.6293
-1769.3829
-1071.384
112.88248
1822.1869
3929.5057
6290.3454
9175.8065
12451.98
15648.822
19243.68
22911.633
26414.429
29396.769
31649.521
33714.786
33775.108
34621.031
34697.968
33170.505
31643.805
29586.882
26941.872
24102.392
20075.027
15897.204
9969.5235
2324.2153
0.27350918
0.64200714
-4.9774362
-8.907466
-17.978409
-32.262344
-53.946248
-85.093262
-128.71503
-183.18974
-249.98028
-328.69358
-425.74957
-518.69021
-644.96444
-762.82404
-902.20854
-1050.6602
-1175.3084
-1265.1662
-1261.762
-1108.4551
-729.62809
-0.3038722
963.51642
2781.2486
4719.5014
7205.402
10265.734
13447.759
16549.865
19283.45
21413.995
23285.319
24474.959
25008.732
25534.508
25688.794
25096.912
23921.325
22222.953
20143.175
17791.118
14331.63
11454.329
6994.5062
1705.679
-2.038454
-0.18376137
-3.3260783
-4.9802907
-11.451153
-18.800392
-33.886877
-54.55717
-80.344323
-112.75016
-154.44655
-200.42381
-272.40736
-301.45776
-341.98469
-395.8329
-447.30583
-495.14778
-514.16907
-482.39634
-353.92963
-84.569059
371.74774
984.61461
1801.4736
2872.2666
3382.3473
4855.543
6160.5126
7137.7015
8213.0695
9123.8592
9998.8062
10719.258
11263.113
11614.261
11664.08
11456.581
11049.141
10505.433
9681.6897
9057.8064
8006.2787
6454.9811
5562.2663
3535.1255
-2469.4752
-5.1336913
-3.0151569
-4.4265625
-5.3819231
-8.705792
-16.11587
-19.282213
-29.193059
-38.414567
-49.696102
-60.57253
-69.114253
-95.477247
-46.493621
-32.933543
5.690263
42.956763
81.743996
117.21803
139.97933
145.96822
121.61564
59.171793
-42.441549
-74.49242
-321.42244
-207.1942
-29.33924
319.96342
602.30976
1031.4237
1378.2999
1639.5675
1884.5375
2125.8134
2368.2712
2431.5538
2335.3348
2179.7105
1905.3762
1756.679
1818.3014
1684.9575
1285.2273
1912.2978
-62.438235
-1486.031
-7.8375379
-5.1460185
-4.6738521
-4.662055
-5.5201778
-5.6756556
-4.155585
-3.6525948
3.006744
9.3412594
25.055739
48.253103
88.729206
180.63598
299.37869
419.47464
540.2463
655.11526
738.4401
763.54663
702.38824
536.42941
268.27571
8.9822377
-627.51478
-1385.3991
-2152.116
-3163.8945
-4107.1708
-5158.1251
-6204.4668
-7287.3644
-8282.755
-9114.9328
-9711.2479
-10183.807
-10583.442
-10651.406
-10815.165
-10352.879
-9726.7722
-8594.953
-7408.5011
-6107.7134
-4253.202
-2402.5649
-902.18606
-9.1988837
-7.6035023
-5.0020478
-4.5197343
-2.1709357
2.2063727
11.494293
28.208307
67.877611
109.23044
176.96547
259.07686
367.28654
514.30579
693.36891
912.39647
1165.461
1443.0046
1709.9439
1911.5771
1952.756
1701.9503
1061.215
-199.53522
-2093.9251
-3549.0937
-5532.9269
-7454.516
-9427.0056
-11468.797
-13548.582
-15621.124
-17572.615
-19180.075
-20258.256
-20744.834
-20896.491
-20928.753
-20236.753
-19428.111
-18291.489
-16107.399
-14040.416
-11281.399
-7953.1237
-4012.2622
-535.17171
-9.7145229
-9.900019
-9.1133541
-11.205377
-7.8975044
-5.7354635
8.5523589
27.526542
69.478443
119.78855
190.63498
304.64571
455.15866
656.01926
911.03318
1213.4124
1552.9975
1894.0208
2178.8877
2319.3449
2209.2055
1758.7795
891.39991
-354.95166
-1291.4025
-4234.7415
-7042.3502
-9983.4
-13142.079
-16543.411
-20183.318
-23709.402
-26863.631
-29388.475
-30868.857
-31969.417
-33695.653
-32601.787
-32648.973
-31790.223
-29789.928
-27025.875
-23929.296
-19858.926
-14961.292
-10759.897
-4280.8422
2.7675668
0.77551337
0.90407256
0.82786587
2.1490245
2.5878305
4.2606447
1.4328142
0.41207476
-0.0064702251
0.12800403
1.6894811
2.2299786
4.5502893
-2.0812038
-3.972166
-4.4160704
-4.6523368
-2.9606438
-2.6425075
1.2695096
-8.4552067
-11.775165
-12.528851
-12.352512
-10.167159
-9.5368197
-4.5404611
-19.658531
-25.266726
-26.585
-26.87185
-23.934602
-23.668111
-14.349195
-37.525885
-46.846455
-50.684831
-50.743568
-48.4308
-45.312886
-32.906969
-66.406104
-82.029888
-86.731414
-87.96517
-83.148379
-81.300321
-60.951732
-107.79359
-130.42432
-139.34358
-142.67364
-136.55484
-135.95614
-105.55444
-168.604
-201.02194
-214.0368
-215.24564
-211.94346
-201.9549
-170.39479
-251.46505
-293.48316
-311.9039
-312.23093
-314.79729
-299.49489
-262.06357
-366.11071
-418.85567
-436.6011
-437.0822
-437.27972
-411.29723
-372.26998
-496.81574
-561.33732
-583.20381
-597.77757
-588.74691
-584.68731
-522.88079
-672.73605
-749.52159
-781.99533
-775.97993
-779.58286
-736.69077
-668.74576
-891.94388
-963.38468
-1002.5386
-985.64717
-1004.3206
-956.77465
-902.0623
-1117.5841
-1193.1255
-1253.538
-1255.5941
-1259.5381
-1189.69
-1143.6942
-1407.4789
-1502.4211
-1548.8325
-1514.7827
-1551.3454
-1454.5131
-1447.964
-1742.9028
-1846.9982
-1882.3485
-1843.7891
-1874.3711
-1739.1427
-1716.4829
-2049.5087
-2179.8094
-2215.1949
-2172.3505
-2191.9033
-2032.8332
-2047.4942
-2305.3529
-2496.5052
-2521.7735
-2486.6352
-2483.5201
-2305.9919
-2329.8044
-2424.4795
-2686.9773
-2700.1294
-2690.2372
-2643.7978
-2467.4626
-2513.93
-2289.9253
-2645.3519
-2644.1695
-2683.8472
-2565.526
-2408.9517
-2481.6235
-1754.1779
-2181.8518
-2146.1352
-2248.9812
-2018.513
-1953.2032
-2066.9061
-718.47387
-1152.1943
-1079.8648
-1260.696
-928.43047
-982.86469
-1136.4973
978.39374
605.3144
739.05877
454.28992
905.52217
619.38666
509.73742
3320.1821
3133.4556
3260.4278
2986.4984
3452.6805
3043.3058
2935.4559
6221.3577
6251.8383
6402.9027
6246.2778
6775.9692
6034.7335
6235.6104
9380.3297
10133.161
10214.149
9837.4861
10131.558
9092.1937
9316.2831
13415.22
14245.838
14120.477
13931.12
14131.269
13253.904
13649.52
17038.483
17972.032
17993.86
18020.774
17765.499
17013.491
17395.654
20710.607
21916.795
21744.312
21913.672
21273.666
20869.257
21145.771
24079.552
25393.098
25126.806
25438.449
24508.74
24396.46
24534.278
27031.998
28467.249
28085.086
28426.087
27330.558
27475.069
27510.121
29481.021
31103.471
30642.764
30937.158
29915.517
30102.906
30294.996
31442.564
33213.823
32642.75
32873.165
31929.456
32271.689
32050.891
32826.825
34635.872
34074.252
34004.361
33632.975
33135.981
33714.656
33324.922
35282.271
34757.237
34987.9
34319.542
34695.559
34579.727
33776.595
35525.483
35119.012
34447.794
34981.357
33701.178
35087.303
33019.184
34296.115
34276.247
34172.997
33274.785
34130.809
33529.985
32081.689
33400.902
32770.126
33420.79
32198.365
32874.102
32537.681
29697.298
31594.098
30678.752
31213.355
30220.412
30971.242
30492.085
28235.414
28788.39
28243.318
28754.282
28035.401
28736.889
28247.006
25514.312
27008.867
26859.627
27043.229
26574.247
26383.423
25422.392
21321.201
21893.303
21266.902
21790.17
21241.447
21794.596
22099.456
20173.572
20468.252
21485.521
21150.835
21094.69
21208.646
19961.041
15089.621
15834.973
15468.301
15477.773
15496.337
15678.797
15128.312
9544.2763
9022.0067
10280.777
9486.5988
10298.825
10039.199
9281.6045
3223.4496
730.04024
1194.0005
1257.5756
1288.5266
767.92492
3681.1146
-0.7258882
-2.7838315
-3.1894896
-3.7896238
-2.2984559
-1.8507643
1.8854992
-2.1681914
-2.9556427
-3.2696245
-3.5521513
-1.9343822
-1.9115126
2.1707833
-4.6539797
-6.8078608
-6.8402177
-6.7395669
-5.0157538
-5.703874
-0.66722107
-9.526057
-11.846488
-11.841862
-11.42768
-10.167419
-10.562373
-4.9288493
-17.362045
-21.609219
-22.359012
-22.548374
-21.212485
-21.169772
-13.179091
-31.069744
-37.957268
-39.42256
-40.669975
-38.799908
-38.127525
-27.458131
-52.749781
-63.731096
-66.230198
-69.259697
-66.812358
-65.685817
-49.971628
-83.35051
-98.571274
-103.27067
-108.80726
-105.82706
-103.78956
-82.804641
-124.8958
-146.46999
-153.25397
-162.0491
-158.5619
-156.68948
-129.22398
-179.82388
-206.03312
-215.59154
-228.98139
-223.44944
-220.91463
-188.1055
-249.07556
-277.58351
-291.75551
-307.81363
-302.25249
-302.5289
-269.29083
-338.25476
-360.70064
-384.38957
-399.77264
-401.12729
-395.63145
-366.14111
-432.27022
-455.96576
-486.27797
-503.23575
-514.64529
-506.29124
-509.19355
-540.31639
-574.67935
-608.24241
-621.34223
-639.27552
-613.7102
-655.30935
-681.50985
-716.9173
-740.5779
-740.3253
-774.55111
-735.78631
-813.68631
-833.24589
-859.18986
-878.82714
-880.13307
-924.88724
-864.7783
-987.14109
-991.00231
-1005.9603
-1029.9281
-1037.3942
-1096.909
-1004.9731
-1180.5748
-1145.9892
-1156.2227
-1184.6185
-1192.8912
-1271.0175
-1147.7618
-1375.5762
-1269.6926
-1297.0099
-1327.0239
-1345.7944
-1439.5371
-1282.4491
-1542.8565
-1323.619
-1388.4307
-1421.0211
-1457.3783
-1562.1191
-1370.7888
-1635.8479
-1250.414
-1376.3689
-1406.645
-1461.3899
-1573.5996
-1363.0311
-1585.0657
-1003.2982
-1190.8437
-1215.8524
-1291.2013
-1405.1758
-1192.6911
-1297.9544
-483.62521
-732.68832
-767.92983
-860.96905
-949.84769
-767.66004
-666.95507
362.57667
80.435589
8.7060863
-66.300178
-89.45177
20.91252
432.55381
1588.8612
1282.8749
1207.1833
1219.5129
1235.7509
1379.7874
2196.1688
3158.7926
2939.369
3059.9073
2913.8401
2898.026
3216.8448
3332.3384
5386.7155
5089.7365
5203.4539
5096.0699
5643.8946
5327.6572
7202.2099
7907.7983
7330.7407
7591.3026
7813.2356
8167.2276
7886.4383
9300.0046
10343.451
10188.212
10654.837
10513.391
11242.849
10730.414
12236.897
13169.569
12924.962
13580.118
13400.091
14272.84
13652.22
14849.881
15883.043
15550.484
16441.886
16070.732
17102.526
16367.822
17180.796
18307.512
17932.696
18965.033
18413.624
19621.837
18772.247
19332.804
20360.201
19935.019
21002.618
20348.637
21688.412
20736.078
21021.142
21931.988
21453.235
22485.969
21730.137
23143.246
21970.847
22413.71
22830.401
22535.738
23399.383
22786.437
24139.046
23054.126
23625.27
23571.34
23335.818
23953.341
23269.527
24562.035
23226.692
24117.145
23563.085
23409.88
23730.174
23328.069
24290.568
23499.17
23959.963
23349.4
23316.79
23672.666
23171.178
24113.393
23137.182
23365.274
22496.486
22004.21
23093.399
21690.501
23205.508
22218.809
22135.232
21586.11
21942.441
22098.462
21099.976
21953.754
20940.441
20744.637
20413.369
19604.181
20596.1
19270.306
20352.67
19554.977
19075.954
17912.469
18508.006
18558.395
17459.16
18186.312
17074.921
16925.398
16383.691
16101.974
16315.203
15526.013
15705.415
15417.688
15186.838
14020.255
14169.542
14529.017
13261.936
13889.562
13347.644
12714.172
9467.1883
10730.334
9860.403
9524.1137
9763.6399
9177.6763
8403.1623
5824.0705
5786.4672
5235.5426
4970.5095
5087.9786
4982.4558
4684.5592
782.40564
-279.34301
-2039.017
-2128.2939
-1669.8789
-1186.6337
-662.61627
-3.830774
-5.9453982
-6.4078548
-6.9665902
-5.4409191
-5.0431687
-1.472273
-4.5173114
-4.7126735
-4.6958503
-4.6380568
-3.0527591
-2.7689771
-0.3222606
-5.4689501
-5.8964721
-5.171861
-4.8637808
-3.4488314
-3.6011733
-1.8267416
-8.5244307
-8.2791182
-6.92065
-5.677494
-5.2734196
-5.2019638
-4.7042811
-12.762781
-13.869519
-12.168981
-11.306807
-10.759305
-10.022641
-10.630564
-21.507039
-25.524882
-25.27255
-24.834839
-23.28116
-22.767111
-24.291641
-32.120785
-40.259581
-42.748561
-43.693666
-42.547285
-41.200878
-41.910584
-47.588316
-65.000752
-69.855961
-72.960094
-71.670701
-69.116624
-69.886649
-67.3055
-96.356037
-102.96332
-110.46859
-109.39326
-105.07541
-106.17928
-91.799252
-136.182
-143.61087
-156.2672
-156.51941
-150.59396
-152.8041
-121.65682
-184.34317
-190.51535
-207.25996
-208.93694
-201.57219
-208.69217
-157.23031
-233.93033
-237.77487
-266.92887
-271.96646
-274.66811
-278.74498
-178.15906
-289.65765
-312.04028
-313.81651
-333.9994
-305.97235
-310.3161
-282.94108
-379.30953
-383.65192
-368.0739
-406.81351
-363.4358
-395.17773
-350.01396
-424.05307
-437.90607
-436.28733
-477.7365
-418.52305
-480.25177
-415.40972
-502.9711
-516.22257
-503.20815
-553.07979
-478.61686
-571.49626
-478.81213
-585.66297
-595.84819
-580.59703
-631.75438
-542.24579
-654.06372
-534.84265
-666.06278
-673.95964
-659.2445
-701.54042
-600.97739
-730.0862
-565.06239
-742.33115
-740.91908
-741.20929
-759.68277
-651.99723
-783.87429
-552.57504
-776.18615
-753.73807
-783.18863
-756.03434
-651.32758
-785.06771
-473.90965
-744.31635
-683.43487
-766.52304
-677.05726
-582.39524
-704.46418
-272.21901
-575.71577
-449.26596
-616.79902
-435.81083
-344.2856
-466.71458
57.776855
-206.14383
-20.440155
-279.51139
-6.4533168
68.6573
-41.852757
570.91323
418.57133
693.14242
382.87287
761.55534
811.38434
706.44473
1226.171
1283.9685
1639.6396
1303.907
1718.5418
1542.2498
1328.5613
2168.1383
2611.2176
2928.7854
2564.3631
3166.3775
2717.2593
2929.367
3218.7378
3716.7652
4132.1759
3930.7961
4479.2217
3941.2583
3974.2092
4237.7768
5289.2585
5797.6141
5522.9489
5889.1104
5386.5087
5020.3563
5519.7272
6704.1982
7002.5334
6900.9033
7222.4529
6600.77
6470.7816
6671.0837
8063.2185
8151.9853
8209.6086
8404.6633
7661.4145
7761.7316
7718.3848
9263.6943
9161.1348
9272.2602
9306.8519
8518.9143
8888.3582
8636.4605
10295.097
9940.8924
10082.28
10059.543
9181.1437
9869.4394
9419.8664
11145.857
10529.834
10762.768
10605.512
9575.8863
10679.871
9940.5802
11722.672
10997.895
11262.831
11015.836
10091.003
11340.244
10420.785
12306.039
11319.927
11537.524
11324
10260.742
11670.011
10580.528
12217.937
11150.003
11664.152
11268.207
10617.388
11725.943
10720.909
12311.494
11296.515
11615.499
11387.045
10440.43
11740.699
10295.779
11792.423
10541.403
11227.704
10793.102
10170.416
11397.198
10297.585
11459.939
10179.628
10762.136
10364.894
9609.5416
10840.306
9595.2597
11319.874
9309.2989
10485.127
9706.5382
9065.4261
10284.533
9016.4212
9235.3434
8008.2156
8725.3873
8336.592
8095.2976
9357.6616
8520.2495
10173.544
8482.9661
9389.0397
8714.7054
7927.5982
8472.1144
7581.582
6999.1136
5854.3904
6366.6162
5966.3262
5982.5412
7385.1705
6767.2343
7353.2188
6709.7884
7072.7776
6922.1408
6686.9212
6297.9471
4510.1288
3603.8595
2804.1385
2416.696
2764.0094
2270.5721
2940.0265
3390.9515
3012.3354
1986.9212
2184.8528
2863.967
2164.7322
3648.0188
396.52045
-3568.6475
-3787.8712
-4197.7254
-4569.8039
-4394.3306
-2970.2002
-8.355515
-9.681102
-10.126601
-10.632613
-9.0680376
-8.9806155
-4.5932081
-7.2758397
-7.4969262
-7.1031432
-6.7022113
-5.0189358
-5.2015635
-2.963076
-6.6856195
-5.6646352
-4.3135866
-3.682953
-2.3331164
-3.2783404
-2.7150131
-7.0050284
-4.069682
-1.9235385
-0.82895593
0.12707834
-1.4594102
-2.980273
-8.5159637
-5.0143461
-2.0239698
-0.67884867
-1.5245496
-3.076325
-4.3212292
-9.8825773
-6.0839603
-4.5470028
-6.0570795
-6.114453
-8.6632121
-10.885615
-13.759171
-9.7474131
-10.142257
-10.418698
-15.897851
-14.173593
-15.391527
-16.812712
-15.247298
-19.415403
-19.829817
-28.13804
-24.064147
-22.161306
-19.925573
-22.210978
-29.582581
-29.025886
-41.368195
-33.038356
-28.262744
-20.875081
-26.844698
-37.749176
-34.71436
-51.898044
-40.080247
-34.188381
-16.510473
-27.012833
-42.084091
-34.986206
-57.970076
-41.575291
-38.294248
-5.4452904
-20.83241
-38.751215
-22.957847
-52.390792
-29.929944
-34.717277
10.357446
-4.2630513
-24.275773
0.27326989
-44.52944
-6.9682692
-49.662571
50.876821
19.151522
0.21060918
26.107017
-18.122031
10.606924
-77.22503
88.934798
49.33605
64.552437
82.066944
20.669699
53.171351
-63.746009
135.3232
103.41651
128.97852
145.76554
75.29125
113.72495
-38.16999
191.83679
157.40652
200.35628
216.88565
141.96392
182.20396
8.8475086
256.32159
215.31831
281.96115
296.21908
218.2056
254.77265
73.764677
321.41676
273.49929
368.70481
370.66673
302.58513
319.28709
162.31929
374.0219
328.99947
456.64078
433.27189
398.14939
367.8004
273.22185
396.70664
370.3794
519.3695
455.55113
485.64031
368.41323
395.89723
382.97186
383.60982
556.52173
423.1646
562.42469
332.86277
526.4646
309.71337
363.49282
527.42009
298.70875
633.02599
233.28806
602.47796