/*--------------------------------*- C++ -*----------------------------------*\
  =========                 |
  \\      /  F ield         | OpenFOAM: The Open Source CFD Toolbox
   \\    /   O peration     | Website:  https://openfoam.org
    \\  /    A nd           | Version:  6
     \\/     M anipulation  |
\*---------------------------------------------------------------------------*/
FoamFile
{
    version     2.0;
    format      ascii;
    class       pointVectorField;
    location    "0.4";
    object      u;
}
// * * * * * * * * * * * * * * * * * * * * * * * * * * * * * * * * * * * * * //

dimensions      [0 1 0 0 0 0 0];

internalField   nonuniform List<vector> 
28033
(
(0 0 0)
(0 0 0)
(1.2523637 0.0037035749 0.00059136325)
(1.2073511 -0.29221909 0.00034141733)
(0 0 0)
(0 0 0)
(1.2074825 -0.29213003 0.00023162727)
(1.2525256 0.0037540636 0.00023147678)
(0 0 0)
(0 0 0)
(0 0 0)
(0 0 0)
(0 0 0)
(0 0 0)
(0 0 0)
(0 0 0)
(0 0 0)
(0 0 0)
(0 0 0)
(0 0 0)
(0 0 0)
(0 0 0)
(0 0 0)
(1.2493393 -0.01527986 0.00034620582)
(1.2463305 -0.033855708 0.00034838897)
(1.2433556 -0.052317567 0.00029906424)
(1.2404659 -0.070736813 0.00031883052)
(1.2376032 -0.089093031 0.00033499024)
(1.2347716 -0.10741733 0.0003649403)
(1.2319811 -0.12572504 0.00040813748)
(1.2292126 -0.14402726 0.00045667828)
(1.22647 -0.16233453 0.00049869989)
(1.223742 -0.18067193 0.00054682482)
(1.2210334 -0.19902823 0.0005761858)
(1.2183228 -0.21745056 0.00058848052)
(1.2156399 -0.23592221 0.00058987642)
(1.2129055 -0.25449552 0.00057880336)
(1.2102243 -0.27319935 0.00049550693)
(0.0026773954 0.004459347 0.004752487)
(0.0030773205 0.0067833011 0.0066966934)
(0.0038266488 0.009342944 0.0080821095)
(0.0050524672 0.012027673 0.0090133212)
(0.0065548799 0.014737076 0.0095971678)
(0.0085493912 0.017576853 0.010014078)
(0.010946274 0.020422834 0.010259202)
(0.013771402 0.023275481 0.010402812)
(0.017006762 0.026152857 0.010475923)
(0.020659906 0.028994811 0.010498817)
(0.024692504 0.031819755 0.010473094)
(0.029125045 0.034609361 0.010421418)
(0.033929487 0.037358966 0.01037056)
(0.039126601 0.040061706 0.01028419)
(0.044669038 0.042708999 0.010205429)
(0.050585916 0.045298721 0.010106254)
(0.056851421 0.047835165 0.01002341)
(0.063476251 0.050293965 0.0099292008)
(0.070436907 0.052704363 0.0098282996)
(0.077740427 0.055031682 0.0097336629)
(0.085373167 0.057303071 0.0096458748)
(0.093341262 0.059492599 0.0095414211)
(0.10162576 0.061613308 0.0094605833)
(0.11023966 0.063669156 0.0093646926)
(0.11915803 0.065639832 0.0092742949)
(0.12839289 0.067547578 0.0091865106)
(0.13792914 0.069366748 0.0091068464)
(0.14777458 0.071131878 0.0090163443)
(0.15791466 0.072798947 0.0089321579)
(0.16834966 0.074400861 0.0088542144)
(0.17908501 0.075931851 0.008766179)
(0.19009797 0.07737312 0.0086815316)
(0.20140166 0.078745148 0.00860201)
(0.2129936 0.080022761 0.0085155766)
(0.22486377 0.081238195 0.0084236557)
(0.23701443 0.082355147 0.008331944)
(0.24943113 0.083395138 0.0082414862)
(0.2621299 0.084349072 0.0081431044)
(0.27508555 0.085210232 0.0080343305)
(0.28830922 0.085988115 0.0079291404)
(0.30178747 0.086667799 0.0078132067)
(0.31551975 0.087262012 0.0076952893)
(0.32950181 0.087756523 0.0075667362)
(0.34372718 0.088157615 0.0074356011)
(0.35818746 0.088458142 0.0072956932)
(0.37288133 0.088661875 0.0071495114)
(0.38779689 0.088763196 0.006996284)
(0.40293339 0.088763937 0.006835098)
(0.41827752 0.088661003 0.0066669222)
(0.43382755 0.088455006 0.006490955)
(0.44957004 0.088144712 0.0063080024)
(0.46550065 0.087730044 0.0061182495)
(0.4816069 0.08721199 0.0059227175)
(0.49788126 0.08659004 0.0057224016)
(0.5143123 0.085867222 0.0055186555)
(0.53089022 0.085043694 0.005313364)
(0.54760418 0.084123365 0.0051081384)
(0.56444387 0.08310839 0.0049051458)
(0.58139882 0.08200276 0.0047063405)
(0.59845962 0.080810076 0.0045136457)
(0.61561693 0.07953501 0.0043287225)
(0.63286325 0.078181729 0.0041528489)
(0.65018998 0.076755411 0.0039875962)
(0.66759478 0.075258163 0.0038317431)
(0.68506643 0.073699776 0.0036891587)
(0.70260951 0.07207734 0.003553301)
(0.72021236 0.070396683 0.0034313043)
(0.7378785 0.068665236 0.0033159859)
(0.75560547 0.066880369 0.0032042263)
(0.77339329 0.065049424 0.0031026185)
(0.7912394 0.063168575 0.003003413)
(0.80914326 0.061242419 0.0029081429)
(0.82710827 0.059278221 0.0028109342)
(0.8451265 0.057257663 0.0027190686)
(0.86320576 0.055217631 0.0026192484)
(0.88133563 0.053102112 0.0025282331)
(0.89952025 0.05099129 0.0024235169)
(0.91775622 0.048784502 0.0023322431)
(0.93603555 0.046603155 0.0022234651)
(0.95436657 0.04431517 0.0021330852)
(0.97273272 0.042056179 0.0020214923)
(0.99114141 0.039703383 0.0019351073)
(1.0095866 0.037363003 0.0018252686)
(1.028058 0.034949412 0.0017436513)
(1.0465689 0.032534161 0.0016417166)
(1.0651008 0.030068759 0.0015599556)
(1.0836674 0.027570428 0.0014686893)
(1.1022479 0.025053281 0.0013925457)
(1.1208661 0.022491208 0.0013009298)
(1.1394942 0.019921082 0.0012279088)
(1.1581562 0.017272466 0.0011554618)
(1.1768479 0.014702298 0.001048338)
(1.1955522 0.011970638 0.0010195413)
(1.214347 0.0093320137 0.00090222749)
(1.2331272 0.0066599234 0.00087128301)
(0.0011392624 -0.0044630648 -0.0054152024)
(0.0020862047 -0.0062624668 -0.0062804461)
(0.0026031451 -0.0088167346 -0.008199004)
(0.0032947089 -0.010948291 -0.0089053002)
(0.0047488589 -0.013587526 -0.0096047708)
(0.00642379 -0.016259973 -0.009988049)
(0.0085723496 -0.018851664 -0.010245317)
(0.011114046 -0.021632601 -0.010360435)
(0.014106569 -0.024391924 -0.010411567)
(0.017412976 -0.027155959 -0.010400577)
(0.02115627 -0.029982483 -0.010346724)
(0.025213494 -0.032775059 -0.010269592)
(0.029669444 -0.035615901 -0.010157584)
(0.034445558 -0.03844678 -0.010058971)
(0.039578263 -0.041279055 -0.0099215082)
(0.045044033 -0.044137071 -0.0098059457)
(0.050834497 -0.046969768 -0.0096644598)
(0.056966351 -0.04983622 -0.009526156)
(0.063407285 -0.05269888 -0.0093955787)
(0.070169904 -0.055555537 -0.0092550245)
(0.077248259 -0.058438668 -0.0091108846)
(0.08463461 -0.06132523 -0.0089842793)
(0.092314032 -0.064205352 -0.0088408766)
(0.10031469 -0.067125613 -0.0087083403)
(0.10858883 -0.070033638 -0.0085809368)
(0.11717333 -0.072964253 -0.0084418048)
(0.1260357 -0.075916906 -0.0083288267)
(0.13519278 -0.078869556 -0.0081925251)
(0.14462847 -0.081860194 -0.0080842563)
(0.15434806 -0.084847493 -0.0079532062)
(0.16434815 -0.087880135 -0.0078437313)
(0.17462293 -0.090913441 -0.0077259436)
(0.18517513 -0.093981165 -0.0076145391)
(0.19600227 -0.097065709 -0.0074997346)
(0.20710027 -0.10017563 -0.0073873172)
(0.2184667 -0.10330476 -0.0072777077)
(0.23010167 -0.10645261 -0.007152708)
(0.24200622 -0.10963613 -0.0070384666)
(0.25416652 -0.11282566 -0.0069154687)
(0.26659337 -0.11604524 -0.0067909613)
(0.27927333 -0.11927993 -0.0066616077)
(0.29220839 -0.12253326 -0.0065287819)
(0.30539215 -0.12580313 -0.0063904079)
(0.31882233 -0.12908748 -0.0062476368)
(0.33249337 -0.1323851 -0.0060988611)
(0.34640255 -0.13569369 -0.0059439618)
(0.36054368 -0.13901177 -0.0057825623)
(0.37491343 -0.14233672 -0.0056136128)
(0.3895055 -0.14566709 -0.0054372137)
(0.40431475 -0.14899969 -0.0052526555)
(0.41933483 -0.1523331 -0.0050600962)
(0.43455866 -0.15566403 -0.0048597891)
(0.4499788 -0.15899046 -0.0046522946)
(0.46558681 -0.16230966 -0.0044387858)
(0.48137361 -0.16561924 -0.0042206079)
(0.49732966 -0.16891669 -0.0039997191)
(0.5134449 -0.17220035 -0.0037780403)
(0.52970896 -0.17546785 -0.0035580045)
(0.5461115 -0.17871833 -0.0033419616)
(0.56264283 -0.18195067 -0.0031318095)
(0.57929258 -0.18516419 -0.0029302157)
(0.59605286 -0.18835964 -0.0027379699)
(0.61291465 -0.19153661 -0.0025574022)
(0.62987186 -0.19469758 -0.0023879357)
(0.64691749 -0.19784185 -0.002231645)
(0.66404793 -0.20097416 -0.002085993)
(0.68125806 -0.20409249 -0.0019535014)
(0.69854612 -0.20720407 -0.001828904)
(0.71590887 -0.21030296 -0.0017171832)
(0.73334398 -0.21339696 -0.0016083385)
(0.75085191 -0.21648775 -0.0015100897)
(0.76843044 -0.21957176 -0.0014149537)
(0.78608021 -0.22265566 -0.0013245064)
(0.80379628 -0.22573307 -0.0012381662)
(0.82158317 -0.22881137 -0.0011521044)
(0.8394323 -0.23188288 -0.0010715391)
(0.85734848 -0.23495482 -0.00098889415)
(0.87532433 -0.23801836 -0.00091192307)
(0.89336071 -0.24108136 -0.00083372247)
(0.91145293 -0.24413406 -0.00076034954)
(0.9295995 -0.2471846 -0.00068741888)
(0.94779733 -0.25022414 -0.00061858317)
(0.9660423 -0.25325864 -0.00055168672)
(0.98433551 -0.25628349 -0.00048776151)
(1.0026688 -0.25929923 -0.00042751019)
(1.0210471 -0.26230886 -0.00036776578)
(1.039462 -0.26530573 -0.00031190314)
(1.0579173 -0.26829707 -0.0002573622)
(1.0764079 -0.27127986 -0.00020112775)
(1.0949385 -0.27425353 -0.00014829681)
(1.1135001 -0.27721887 -9.3248605e-05)
(1.1321087 -0.28018775 -3.7129157e-05)
(1.1507474 -0.28315374 3.0501657e-05)
(1.169466 -0.28611498 7.9630095e-05)
(1.1882398 -0.28915664 0.00018363907)
(0 0 0)
(0 0 0)
(0 0 0)
(0 0 0)
(0 0 0)
(0 0 0)
(0 0 0)
(0 0 0)
(0 0 0)
(0 0 0)
(0 0 0)
(0 0 0)
(0 0 0)
(0 0 0)
(0 0 0)
(0.0025235223 -0.0018837509 0.0039396129)
(0.0026178794 -0.007302518 0.0063423052)
(0.002507819 -0.0078190231 0.0075526332)
(0.0036608753 -0.0115625 0.0089145386)
(0.0047064499 -0.013455514 0.009467671)
(0.0065984674 -0.016383973 0.0098580036)
(0.0086340067 -0.018891998 0.010083613)
(0.011317395 -0.021797464 0.010242511)
(0.014213496 -0.02442053 0.010253064)
(0.017605702 -0.027338908 0.010250357)
(0.0213645 -0.030119712 0.0102253)
(0.025380153 -0.032891594 0.010131728)
(0.029905871 -0.035833126 0.010060222)
(0.034610865 -0.038558711 0.0099453233)
(0.039831249 -0.04155143 0.0098468289)
(0.045233445 -0.044276459 0.0097333227)
(0.05105264 -0.047222945 0.0096338582)
(0.057171186 -0.050028199 0.0094962211)
(0.063607597 -0.052931066 0.0094008401)
(0.070389949 -0.055801303 0.0092715817)
(0.077437493 -0.058669436 0.0091832048)
(0.084822113 -0.061556622 0.0090619024)
(0.092505285 -0.064471515 0.0089666387)
(0.10049189 -0.067369231 0.0088608997)
(0.10876646 -0.070288316 0.0087635774)
(0.11734724 -0.073225552 0.0086687394)
(0.12618907 -0.07614386 0.0085705371)
(0.13535759 -0.07914219 0.0084825164)
(0.1447711 -0.08208001 0.0083887625)
(0.15449769 -0.085111609 0.0083022337)
(0.16449358 -0.088114745 0.0082138877)
(0.17476571 -0.09115358 0.0081258159)
(0.18531834 -0.094212016 0.0080342482)
(0.19614404 -0.09729414 0.0079429199)
(0.20725046 -0.10040353 0.0078478231)
(0.21860561 -0.1035 0.0077488472)
(0.23025562 -0.10667902 0.0076457962)
(0.24216246 -0.10983767 0.0075404981)
(0.25433091 -0.11302847 0.0074269457)
(0.26676448 -0.11624045 0.0073074789)
(0.27945291 -0.11947081 0.0071830322)
(0.29239627 -0.12272019 0.0070514217)
(0.30558957 -0.12598609 0.006913369)
(0.31902895 -0.12926807 0.0067685963)
(0.33270974 -0.13256355 0.0066170558)
(0.34662805 -0.1358716 0.0064583239)
(0.36077842 -0.1391894 0.0062925704)
(0.37515636 -0.1425157 0.0061196572)
(0.38975577 -0.14584723 0.0059398017)
(0.40457123 -0.1491824 0.0057531321)
(0.41959572 -0.15251775 0.0055603419)
(0.43482265 -0.15585125 0.0053617253)
(0.45024383 -0.15917944 0.0051587497)
(0.46585113 -0.16250007 0.0049522381)
(0.48163525 -0.1658101 0.004744204)
(0.49758688 -0.16910715 0.0045360107)
(0.51369578 -0.17238895 0.0043301233)
(0.52995208 -0.17565379 0.0041281939)
(0.54634545 -0.1788999 0.0039324817)
(0.56286621 -0.1821269 0.0037448264)
(0.57950487 -0.18533384 0.0035667508)
(0.59625289 -0.18852129 0.003399545)
(0.61310245 -0.19168985 0.0032440904)
(0.63004666 -0.19484024 0.0031005674)
(0.64708001 -0.19797459 0.0029689412)
(0.66419749 -0.20109439 0.0028484496)
(0.68139617 -0.2042 0.002737995)
(0.69867173 -0.20730023 0.0026375512)
(0.71602506 -0.2103819 0.0025424485)
(0.73344779 -0.21346581 0.0024548488)
(0.75094927 -0.21653933 0.0023697599)
(0.76851874 -0.21960969 0.0022891611)
(0.78616148 -0.22267586 0.0022073124)
(0.80387353 -0.22574045 0.0021267236)
(0.82165448 -0.22880178 0.0020446665)
(0.8395027 -0.2318612 0.0019613258)
(0.85741612 -0.23491785 0.0018761617)
(0.87539271 -0.23797155 0.0017897925)
(0.89342964 -0.24102219 0.0017019926)
(0.91152427 -0.24406785 0.0016140869)
(0.92967359 -0.24711005 0.0015256191)
(0.94787504 -0.2501456 0.0014386673)
(0.96612511 -0.25317642 0.0013524276)
(0.98442188 -0.25619972 0.0012687259)
(1.0027623 -0.25921669 0.0011867337)
(1.0211443 -0.26222627 0.0011081727)
(1.039566 -0.26522685 0.0010306009)
(1.0580266 -0.26822249 0.00095705101)
(1.0765231 -0.27120551 0.00088280549)
(1.0950582 -0.27418764 0.0008126152)
(1.1136264 -0.27715405 0.00073793534)
(1.132239 -0.28012937 0.00066945714)
(1.1508814 -0.28308946 0.00058794843)
(1.16961 -0.28607473 0.00051377376)
(1.1883466 -0.28910967 0.00040522837)
(1.2103997 -0.27311567 0.00010357554)
(1.2130775 -0.25445956 3.3248615e-05)
(1.2157825 -0.23584061 2.9486274e-05)
(1.2184837 -0.21738699 2.212048e-05)
(1.2211857 -0.19895361 6.6414605e-05)
(1.2238941 -0.18059757 9.6072837e-05)
(1.2266195 -0.16226266 0.00016189208)
(1.2293577 -0.14394842 0.0002157637)
(1.2321395 -0.12566103 0.00027537477)
(1.2349149 -0.1073448 0.00033670487)
(1.2377523 -0.089028817 0.00037920123)
(1.2406103 -0.070677339 0.00041347743)
(1.2435133 -0.052274171 0.00044288367)
(1.2464213 -0.033781796 0.00043032669)
(1.249501 -0.015264593 0.00040083588)
(1.2333381 0.0067085279 -1.9056289e-05)
(1.2144564 0.0093478494 -8.2111815e-05)
(1.1957042 0.012054785 -0.0001691305)
(1.1769746 0.014720653 -0.00022809974)
(1.158284 0.017363791 -0.00030727464)
(1.139619 0.019977241 -0.00037569998)
(1.1209808 0.022562137 -0.0004450376)
(1.1023666 0.025117836 -0.00051566372)
(1.0837794 0.027639488 -0.0005825081)
(1.0652189 0.030132598 -0.00065308409)
(1.0466865 0.032589314 -0.00072054097)
(1.0281841 0.035015054 -0.00079108432)
(1.0097128 0.037403718 -0.00086115746)
(0.99127365 0.039759771 -0.00093564698)
(0.97287202 0.042076544 -0.0010090459)
(0.95450935 0.044357215 -0.0010848868)
(0.93618907 0.046598794 -0.0011604131)
(0.91791233 0.048800833 -0.0012378306)
(0.89968323 0.050963976 -0.0013163471)
(0.88150349 0.053084747 -0.0013955418)
(0.86337578 0.055166493 -0.001476442)
(0.84530209 0.057204151 -0.0015584478)
(0.82728401 0.059202205 -0.0016429984)
(0.80932235 0.061154726 -0.0017300599)
(0.79141976 0.06306601 -0.0018209407)
(0.77357364 0.064932359 -0.0019166368)
(0.75578572 0.066751444 -0.0020210246)
(0.73807039 0.068516068 -0.0021255913)
(0.72039971 0.070240665 -0.0022456779)
(0.70279889 0.071908227 -0.0023739244)
(0.68526049 0.073521464 -0.002513932)
(0.66779023 0.075074324 -0.0026644718)
(0.65038973 0.076564931 -0.0028268654)
(0.63306502 0.077987102 -0.0030007044)
(0.61582164 0.079337574 -0.0031849056)
(0.5986668 0.080611098 -0.0033784507)
(0.58160854 0.081803173 -0.0035796485)
(0.56465596 0.082909434 -0.003786566)
(0.5478188 0.083925454 -0.0039970447)
(0.53110714 0.084847833 -0.0042091591)
(0.51453165 0.085672862 -0.0044206181)
(0.49810269 0.086398362 -0.0046297236)
(0.48183073 0.087021735 -0.0048349014)
(0.46572571 0.087541974 -0.0050348095)
(0.44979736 0.087957753 -0.0052286724)
(0.43405464 0.088269036 -0.0054159122)
(0.41850624 0.088475587 -0.0055962907)
(0.40316009 0.088578125 -0.0057697902)
(0.38802392 0.088577109 -0.0059368213)
(0.37310453 0.088474101 -0.0060972895)
(0.35840931 0.088268972 -0.0062518952)
(0.34394355 0.087965921 -0.0064011632)
(0.32971532 0.087561076 -0.0065441951)
(0.31572776 0.087063793 -0.0066842266)
(0.30199032 0.086466431 -0.0068164193)
(0.28850556 0.085779306 -0.0069464471)
(0.27527513 0.085003456 -0.0070729037)
(0.26230251 0.084134588 -0.0071949923)
(0.24963166 0.08315328 -0.0073005771)
(0.23718619 0.082133671 -0.0074281927)
(0.22502585 0.081003664 -0.0075398024)
(0.21318603 0.079765517 -0.0076365446)
(0.20157538 0.078495571 -0.007752959)
(0.19026865 0.077117775 -0.007862693)
(0.17923537 0.075674174 -0.0079755673)
(0.16852962 0.074123439 -0.0080816933)
(0.15806441 0.072548139 -0.0081896984)
(0.14795404 0.070833371 -0.0082966906)
(0.13809037 0.069106778 -0.0084232857)
(0.12855456 0.067272931 -0.0085368753)
(0.11931408 0.065377776 -0.0086599118)
(0.11037776 0.063412025 -0.0087835137)
(0.10179823 0.061336285 -0.0088926477)
(0.093480117 0.059251737 -0.0090307777)
(0.085509386 0.057063586 -0.0091545193)
(0.077890757 0.054780674 -0.0092683494)
(0.070557193 0.052492379 -0.0094095855)
(0.063619835 0.050060527 -0.0095129384)
(0.056967149 0.047646574 -0.0096521873)
(0.050718163 0.04508989 -0.0097557961)
(0.04481432 0.042509915 -0.0098703283)
(0.039234978 0.039888201 -0.0099769118)
(0.034038984 0.037213138 -0.010085751)
(0.02925789 0.034425881 -0.010144714)
(0.024800699 0.031701733 -0.010231456)
(0.020753231 0.028870319 -0.010259028)
(0.017128501 0.026007392 -0.010248878)
(0.013883427 0.023183231 -0.010194741)
(0.011040294 0.020322472 -0.010058658)
(0.0086394958 0.017497378 -0.009824421)
(0.0066654525 0.01463268 -0.0093862113)
(0.0051898448 0.011820178 -0.0087632018)
(0.0040898371 0.0093356689 -0.0078915745)
(0.0032693085 0.0065352491 -0.0062337863)
(0.0039439594 0.0041531409 -0.0035944147)
(0 0 0)
(0 0 0)
(0 0 0)
(0 0 0)
(0 0 0)
(0 0 0)
(0 0 0)
(0 0 0)
(0 0 0)
(0 0 0)
(0 0 0)
(0 0 0)
(0 0 0)
(0 0 0)
(0 0 0)
(0 0 0)
(0 0 0)
(0 0 0)
(0 0 0)
(0 0 0)
(0 0 0)
(0 0 0)
(0 0 0)
(0 0 0)
(0 0 0)
(0 0 0)
(0 0 0)
(0 0 0)
(0 0 0)
(0 0 0)
(1.207404 -0.29233295 0.00032205546)
(1.207423 -0.29237486 0.00030453169)
(1.2074326 -0.29238127 0.00028820197)
(1.2074472 -0.2923903 0.00027971045)
(1.2074611 -0.29239161 0.00027423579)
(1.2074751 -0.29239119 0.00027691191)
(1.2074869 -0.29238723 0.00027847356)
(1.207498 -0.29238393 0.00028706994)
(1.207508 -0.29238181 0.00029163538)
(1.2075128 -0.29237755 0.00029529317)
(1.2075267 -0.2923829 0.00029996302)
(1.2075253 -0.29236518 0.00029464035)
(1.2075336 -0.29236068 0.00028767049)
(1.2075346 -0.29233242 0.00027419676)
(1.2075447 -0.29231231 0.00025077876)
(1.2525246 0.0038315702 0.00056855824)
(1.2525501 0.0038481106 0.00057568983)
(1.2525682 0.0038753546 0.00054654675)
(1.2525977 0.0038936644 0.0005241235)
(1.2526036 0.0039004585 0.00050028069)
(1.2526189 0.003906274 0.00046416843)
(1.2526308 0.0039151382 0.00043305987)
(1.2526417 0.00391904 0.0003955743)
(1.2526516 0.0039253698 0.00036079291)
(1.2526593 0.0039304776 0.00032875898)
(1.2526662 0.0039305174 0.00029770367)
(1.2526688 0.0039302101 0.00027123109)
(1.2526754 0.0039286077 0.00026461196)
(1.2526645 0.0038891728 0.00022535907)
(1.2526847 0.0039077545 0.00023338752)
(0.0014529604 0.0035770694 0.0048804)
(0.0020536466 0.0058264342 0.0058039282)
(0.002719197 0.0083292259 0.0071725599)
(0.0039578252 0.010701692 0.007790099)
(0.0053495322 0.01309502 0.0084209046)
(0.0073595014 0.015546392 0.0087311382)
(0.0096752727 0.017984278 0.0089808856)
(0.012518205 0.020492201 0.0091001961)
(0.015694532 0.022958369 0.0091791489)
(0.01932658 0.025449186 0.0092034311)
(0.023339496 0.027889939 0.0091767103)
(0.027755809 0.030340434 0.009158784)
(0.032539955 0.032713729 0.0090913008)
(0.03770258 0.035084082 0.0090383334)
(0.043233386 0.037368078 0.0089579707)
(0.049134056 0.039638217 0.008889965)
(0.055381885 0.041817881 0.0088038163)
(0.061969882 0.043970781 0.0087301122)
(0.068917646 0.046030127 0.008644811)
(0.076198431 0.048057241 0.0085650226)
(0.083805418 0.049996089 0.0084855825)
(0.091751493 0.051874508 0.0084069046)
(0.10001066 0.053697493 0.0083254743)
(0.10858653 0.055432869 0.008252648)
(0.11748498 0.05711188 0.008171803)
(0.12668751 0.0587128 0.008102419)
(0.13619336 0.06025441 0.0080239952)
(0.14600022 0.061709057 0.007955799)
(0.15611245 0.063098476 0.0078833013)
(0.16651216 0.064422772 0.0078115345)
(0.17720442 0.065654991 0.0077391798)
(0.18819128 0.066825046 0.0076684349)
(0.19946069 0.067913397 0.0075972927)
(0.21100966 0.068928593 0.0075214825)
(0.22284189 0.069861219 0.0074457861)
(0.23495374 0.07071001 0.0073667404)
(0.24733538 0.07148902 0.0072830423)
(0.25998563 0.072170783 0.0071977223)
(0.27291104 0.072778651 0.0071044526)
(0.28609244 0.073296327 0.007011875)
(0.29953526 0.073726666 0.0069131118)
(0.31322975 0.074064655 0.0068066354)
(0.32717458 0.074318437 0.0066977081)
(0.34136409 0.074473728 0.006581298)
(0.35578842 0.07454077 0.0064591577)
(0.37044684 0.074511457 0.0063317466)
(0.38532965 0.074387135 0.0061968468)
(0.40043252 0.074166923 0.0060565658)
(0.41574667 0.073849701 0.0059091851)
(0.43126625 0.073435395 0.0057557408)
(0.44698171 0.07292425 0.0055959731)
(0.46288574 0.072315977 0.0054308854)
(0.47896832 0.071612375 0.0052605747)
(0.49522048 0.070813609 0.0050866711)
(0.51163163 0.069922644 0.0049098151)
(0.52819171 0.068940427 0.0047319596)
(0.54488988 0.067870983 0.0045542197)
(0.56171573 0.066716156 0.004378596)
(0.57865869 0.06548028 0.0042066796)
(0.59570901 0.064166339 0.0040399907)
(0.61285738 0.062778513 0.0038798765)
(0.63009545 0.061320739 0.0037276273)
(0.64741548 0.059795951 0.0035839478)
(0.66481253 0.058208333 0.0034494222)
(0.6822774 0.056563312 0.0033231692)
(0.69981493 0.054857641 0.0032069952)
(0.71741618 0.053104156 0.0030981304)
(0.7350719 0.051295228 0.0029977149)
(0.75279365 0.049438737 0.0029030182)
(0.77056983 0.047533158 0.0028126966)
(0.78841005 0.04558406 0.002724389)
(0.80630456 0.043590598 0.0026393144)
(0.82426236 0.041556266 0.0025535548)
(0.84227184 0.039476312 0.0024704539)
(0.8603431 0.037363204 0.0023842197)
(0.87846539 0.035197577 0.0023006011)
(0.89664266 0.033013184 0.0022110649)
(0.91487097 0.03076385 0.002127665)
(0.93314498 0.028512291 0.0020339151)
(0.95147018 0.026187134 0.0019514994)
(0.96982869 0.023862963 0.0018575309)
(0.98823854 0.021478703 0.0017740442)
(1.0066744 0.019077167 0.0016840454)
(1.0251483 0.016634285 0.0016026049)
(1.0436517 0.014172917 0.0015136349)
(1.0621863 0.011666219 0.0014393586)
(1.0807493 0.009137274 0.0013582963)
(1.0993325 0.0065817266 0.0012811778)
(1.1179475 0.0039949949 0.0012053905)
(1.1365731 0.0013604904 0.0011416167)
(1.15524 -0.0012576061 0.0010426402)
(1.1739135 -0.0039524667 0.0009875468)
(1.1926271 -0.0066988532 0.00088923493)
(1.2113943 -0.0093934546 0.00077231976)
(1.2302046 -0.012332514 0.00063741995)
(0.00024813323 0.0032080358 0.004355236)
(0.00074438405 0.004491605 0.0052898248)
(0.0017694502 0.0070973359 0.0061866867)
(0.0027795061 0.0089521689 0.0068940797)
(0.0043193117 0.011198571 0.007282864)
(0.0062111598 0.013267879 0.0075701911)
(0.0085906743 0.015476236 0.0077432732)
(0.011333706 0.017604599 0.0078593495)
(0.014536828 0.019767349 0.007927243)
(0.018139225 0.021891697 0.0079242651)
(0.022136718 0.024012416 0.0079381847)
(0.026527122 0.026090597 0.0078856082)
(0.031291853 0.028146394 0.0078600833)
(0.036445795 0.030149928 0.0077938497)
(0.041952035 0.032117734 0.0077485468)
(0.04783483 0.034030466 0.0076684466)
(0.054045119 0.035900049 0.0076173543)
(0.0606352 0.037701379 0.0075429285)
(0.067543515 0.0394576 0.007479827)
(0.07480371 0.041145631 0.007409394)
(0.082384575 0.042775251 0.0073463409)
(0.090300364 0.0443471 0.0072738132)
(0.098529134 0.045848094 0.0072147544)
(0.10708472 0.04728879 0.0071482099)
(0.11594705 0.048656929 0.0070881816)
(0.1251188 0.049971484 0.0070216502)
(0.13459297 0.051203484 0.0069644573)
(0.14437167 0.052375116 0.0069061232)
(0.15444447 0.053477333 0.0068430114)
(0.16481152 0.05450641 0.0067843848)
(0.17547148 0.055465202 0.0067282037)
(0.18641942 0.05635295 0.0066662688)
(0.19764701 0.057169013 0.0066048017)
(0.20916155 0.057905037 0.0065429912)
(0.22095757 0.058569385 0.0064778894)
(0.23302855 0.059157545 0.0064106847)
(0.24537652 0.059663873 0.0063412049)
(0.2579948 0.060092188 0.0062689255)
(0.27087493 0.06043809 0.0061922235)
(0.28402027 0.060705913 0.0061129277)
(0.29742313 0.060883793 0.0060253553)
(0.31107987 0.060984233 0.0059382625)
(0.32498953 0.060990956 0.005840274)
(0.33913852 0.060915843 0.005743668)
(0.3535292 0.060751403 0.0056371654)
(0.36815252 0.060497533 0.0055283281)
(0.38300189 0.06015382 0.0054124223)
(0.39807207 0.05972017 0.0052925377)
(0.41335534 0.059195219 0.005165579)
(0.4288446 0.058580146 0.005034739)
(0.44453161 0.057874517 0.0048976621)
(0.46040835 0.057079141 0.0047567323)
(0.47646521 0.056195759 0.0046111717)
(0.49269307 0.055224784 0.00446294)
(0.50908145 0.05416949 0.0043121525)
(0.52562032 0.053030965 0.0041608023)
(0.54229868 0.051813123 0.0040094224)
(0.55910625 0.050517714 0.0038603065)
(0.57603217 0.049149213 0.0037139679)
(0.59306701 0.047709842 0.0035722521)
(0.61020072 0.04620385 0.0034362616)
(0.62742549 0.044634369 0.003306448)
(0.64473311 0.043003357 0.0031847299)
(0.66211765 0.041317113 0.0030690733)
(0.67957312 0.039575653 0.0029622801)
(0.69710104 0.037783191 0.0028626967)
(0.71467555 0.035942202 0.0027715091)
(0.7323237 0.034048958 0.0026851113)
(0.7500346 0.032110461 0.0025986677)
(0.76780497 0.030128445 0.0025201181)
(0.78563501 0.028105291 0.0024427587)
(0.80352091 0.026037241 0.0023700411)
(0.82146785 0.023934741 0.0022942978)
(0.83946851 0.02178183 0.0022255972)
(0.85753183 0.019607958 0.0021454733)
(0.87564257 0.017372217 0.00208001)
(0.89381491 0.015133283 0.0019934473)
(0.9120309 0.012817795 0.0019306566)
(0.93030317 0.010519422 0.0018370012)
(0.94861406 0.0081291299 0.0017787738)
(0.96697617 0.0057704424 0.0016804819)
(0.98537213 0.0033233908 0.0016212652)
(1.0038092 0.00088947167 0.0015341785)
(1.0222798 -0.0016057241 0.0014629539)
(1.0407911 -0.0040986163 0.0013817399)
(1.0593168 -0.0066517512 0.0013193995)
(1.0778837 -0.0092049445 0.0012403397)
(1.0964584 -0.011803359 0.0011770599)
(1.1150806 -0.014444887 0.0011102629)
(1.1337026 -0.017074425 0.0010250322)
(1.152376 -0.019784439 0.00096144156)
(1.1710426 -0.0225156 0.00087622673)
(1.1897776 -0.025265248 0.00077133313)
(1.2085299 -0.028099592 0.00066349231)
(1.2273788 -0.030985636 0.00052524239)
(-0.00049824025 0.0025256663 0.0038253991)
(-1.844711e-05 0.0037479927 0.0045079885)
(0.00056625864 0.005729645 0.0054334064)
(0.001749094 0.0074601624 0.0058916105)
(0.0032224458 0.0092933736 0.0061857247)
(0.0052132339 0.011163436 0.0063854732)
(0.0075131923 0.012971687 0.0065366285)
(0.010323342 0.01481162 0.0066251269)
(0.013490675 0.016593752 0.0066386644)
(0.017084445 0.018419542 0.0066797048)
(0.021062872 0.020154747 0.0066436831)
(0.02544145 0.02192372 0.0066414163)
(0.030193522 0.023602086 0.0065856203)
(0.035317047 0.025293324 0.0065622003)
(0.040812674 0.026899152 0.0064932036)
(0.046657383 0.028494788 0.0064632993)
(0.052871266 0.030010296 0.0063950292)
(0.059415586 0.031501522 0.0063513329)
(0.066311386 0.032917444 0.006290774)
(0.073540499 0.034292445 0.0062424214)
(0.081099431 0.035603755 0.0061849859)
(0.088986363 0.036854308 0.0061378082)
(0.097191717 0.038049985 0.0060831633)
(0.10571164 0.039177046 0.0060356879)
(0.11454392 0.040252393 0.0059816425)
(0.12368321 0.041253884 0.0059364433)
(0.13312658 0.042197069 0.0058888536)
(0.1428666 0.04307611 0.0058385081)
(0.15290623 0.0438857 0.005792622)
(0.16323745 0.044630666 0.0057481752)
(0.17385942 0.045306339 0.0056981173)
(0.18476719 0.045916048 0.0056499978)
(0.19596233 0.046451037 0.0056025656)
(0.2074399 0.04691859 0.0055517033)
(0.21919453 0.047312915 0.0054993501)
(0.23122616 0.04763287 0.0054454606)
(0.24352605 0.047880991 0.0053900095)
(0.256093 0.048050006 0.0053318514)
(0.26894039 0.048145021 0.0052682855)
(0.282046 0.048154366 0.0051986348)
(0.29541029 0.048093545 0.0051312813)
(0.30903108 0.047946356 0.0050522821)
(0.32289943 0.047720209 0.0049784992)
(0.33701425 0.047411066 0.0048946744)
(0.35136855 0.047018081 0.004807568)
(0.36595529 0.046542015 0.0047168881)
(0.38077016 0.045981441 0.0046207708)
(0.39580633 0.045336595 0.0045202754)
(0.41105669 0.044606837 0.0044154021)
(0.42651395 0.043793019 0.0043062674)
(0.44217061 0.042895215 0.0041924958)
(0.45801761 0.04191469 0.0040756761)
(0.47404646 0.040852773 0.0039549826)
(0.4902472 0.039710686 0.0038324121)
(0.50661003 0.038491444 0.0037077624)
(0.52312444 0.037196236 0.0035827784)
(0.53977972 0.035828991 0.0034580999)
(0.55656544 0.034391399 0.0033352009)
(0.57347093 0.032887796 0.0032145909)
(0.59048637 0.031319932 0.0030982738)
(0.60760212 0.029692199 0.0029860046)
(0.62481 0.0280064 0.0028793764)
(0.64210174 0.026266174 0.0027787738)
(0.65947162 0.024474793 0.0026827552)
(0.67691466 0.022632413 0.002594981)
(0.69442227 0.020742073 0.0025107468)
(0.71200319 0.018816816 0.0024352785)
(0.72964172 0.016831633 0.0023556155)
(0.74734124 0.014804341 0.0022935299)
(0.76509843 0.012744356 0.0022272087)
(0.78291569 0.010640614 0.0021637826)
(0.8007914 0.008501515 0.0021018456)
(0.81872858 0.0063222473 0.0020387671)
(0.83671946 0.0041116536 0.0019766364)
(0.85477077 0.0018602785 0.001913478)
(0.872873 -0.00042244832 0.0018512666)
(0.89103543 -0.0027382722 0.001784155)
(0.90924203 -0.005089957 0.001722038)
(0.92750553 -0.0074662078 0.001651983)
(0.94580943 -0.0098825008 0.0015901097)
(0.9641623 -0.01231085 0.0015157633)
(0.98255342 -0.014796359 0.0014613757)
(1.0009813 -0.017270586 0.0013809762)
(1.0194522 -0.019812315 0.0013285997)
(1.0379435 -0.022350062 0.0012568996)
(1.0564772 -0.024936041 0.0012039845)
(1.0750307 -0.027524823 0.0011285452)
(1.0936197 -0.030180068 0.0010833169)
(1.1122328 -0.032810428 0.00099800473)
(1.1308629 -0.035521866 0.0009521275)
(1.149533 -0.038246282 0.00087193656)
(1.1682153 -0.040989512 0.00079369354)
(1.1869512 -0.04381425 0.00070153385)
(1.2057132 -0.046629323 0.00059305138)
(1.224536 -0.049512107 0.00046607151)
(-0.00094681989 0.0022371736 0.0031819648)
(-0.00082611892 0.0029563385 0.0038577492)
(-0.00018366539 0.0046153262 0.0044082292)
(0.00089375956 0.0059236449 0.0047998389)
(0.0024157924 0.0074939114 0.005006605)
(0.00429859 0.008967797 0.0051969531)
(0.0066774464 0.010501068 0.0052976304)
(0.0094254903 0.011965118 0.0053304396)
(0.012596694 0.013470951 0.0053968908)
(0.016176314 0.014905057 0.0053741705)
(0.02014629 0.016343543 0.005393576)
(0.024503713 0.017735587 0.0053496969)
(0.02923183 0.019105426 0.0053461477)
(0.034350111 0.020433126 0.0052903701)
(0.039806954 0.021718338 0.00527765)
(0.045652885 0.022965947 0.0052207851)
(0.051819216 0.024163244 0.0051934301)
(0.058357731 0.02531499 0.0051478306)
(0.065217592 0.026412049 0.0051120334)
(0.072426284 0.027462527 0.0050695048)
(0.079951387 0.028451354 0.0050335272)