/*--------------------------------*- C++ -*----------------------------------*\
  =========                 |
  \\      /  F ield         | OpenFOAM: The Open Source CFD Toolbox
   \\    /   O peration     | Website:  https://openfoam.org
    \\  /    A nd           | Version:  6
     \\/     M anipulation  |
\*---------------------------------------------------------------------------*/
FoamFile
{
    version     2.0;
    format      ascii;
    class       pointVectorField;
    location    "0.74";
    object      u;
}
// * * * * * * * * * * * * * * * * * * * * * * * * * * * * * * * * * * * * * //

dimensions      [0 1 0 0 0 0 0];

internalField   nonuniform List<vector> 
28033
(
(0 0 0)
(0 0 0)
(2.6632091 -0.37791006 0.0050144708)
(2.4676695 -0.97115236 0.0039500568)
(0 0 0)
(0 0 0)
(2.4679466 -0.9722632 0.0036013214)
(2.6634664 -0.37909723 0.0043992601)
(0 0 0)
(0 0 0)
(0 0 0)
(0 0 0)
(0 0 0)
(0 0 0)
(0 0 0)
(0 0 0)
(0 0 0)
(0 0 0)
(0 0 0)
(0 0 0)
(0 0 0)
(0 0 0)
(0 0 0)
(2.6506269 -0.41538915 0.0047109315)
(2.6381538 -0.45251873 0.0046124508)
(2.6257512 -0.4895432 0.004496575)
(2.6134476 -0.52651851 0.0044517366)
(2.6012074 -0.56343244 0.0044250813)
(2.5890194 -0.60031285 0.0044244752)
(2.5768903 -0.63717572 0.0044408286)
(2.5647998 -0.67404775 0.0044706382)
(2.552738 -0.71093486 0.0044925704)
(2.5406845 -0.74786795 0.0045189985)
(2.5286425 -0.78484595 0.0045155324)
(2.516567 -0.82190049 0.0044813507)
(2.5044904 -0.85903055 0.0044309751)
(2.4923193 -0.89625521 0.0043448893)
(2.4801261 -0.93361118 0.0041829752)
(0.0067921039 0.010265927 0.011324236)
(0.0085538035 0.016190174 0.015398094)
(0.011048341 0.022430529 0.018525592)
(0.014720949 0.028803425 0.020446401)
(0.019042382 0.035331146 0.021665917)
(0.024608894 0.041891689 0.022471972)
(0.031120938 0.048505947 0.022922924)
(0.038690981 0.05491165 0.023130899)
(0.047247672 0.061352343 0.023194347)
(0.056823395 0.0675041 0.023130065)
(0.067283342 0.073556946 0.023001649)
(0.078718398 0.079332063 0.022763493)
(0.091003153 0.084930179 0.022586791)
(0.10424661 0.090228172 0.022268341)
(0.11822784 0.095286355 0.022046291)
(0.133124 0.10003974 0.021701825)
(0.14876784 0.10453795 0.021460175)
(0.16524465 0.10869365 0.021131038)
(0.18243274 0.11258455 0.020855369)
(0.20040104 0.11613418 0.020532304)
(0.21905566 0.11939195 0.020263635)
(0.23844166 0.12231007 0.019937122)
(0.25848217 0.124919 0.019668815)
(0.27921059 0.12720535 0.019363811)
(0.30055606 0.1291535 0.019078491)
(0.3225487 0.13079778 0.018788006)
(0.34512618 0.13209119 0.018513488)
(0.36831411 0.13309014 0.018229498)
(0.39206141 0.13373449 0.017948754)
(0.41636804 0.13407934 0.017682178)
(0.44122807 0.13409303 0.017405602)
(0.46658947 0.13378851 0.017138095)
(0.49247833 0.13317163 0.016877585)
(0.51885727 0.13222416 0.016616033)
(0.54572052 0.13098555 0.016352811)
(0.57306023 0.1294149 0.016093227)
(0.60083921 0.1275472 0.015845668)
(0.62908104 0.12536504 0.015593294)
(0.65773014 0.12287863 0.015331034)
(0.68681296 0.12009428 0.01508384)
(0.71628362 0.1169988 0.014827742)
(0.74615473 0.11362389 0.014579782)
(0.77640144 0.10993726 0.014320275)
(0.80701766 0.10596928 0.014070914)
(0.83797709 0.10170656 0.013815568)
(0.86928372 0.097165342 0.013563234)
(0.9009068 0.092342463 0.013312293)
(0.93285073 0.087246171 0.013062293)
(0.96508527 0.081881341 0.012816571)
(0.99761397 0.076252911 0.012574719)
(1.0304103 0.070368612 0.012338161)
(1.0634735 0.064232358 0.012108627)
(1.0967843 0.057853886 0.011886379)
(1.1303366 0.051235839 0.011673019)
(1.1641185 0.044388733 0.011468284)
(1.1981206 0.03731519 0.011273797)
(1.232335 0.030024044 0.011088103)
(1.2667533 0.022519466 0.010912058)
(1.3013683 0.01480763 0.010744319)
(1.3361733 0.0068925943 0.010584428)
(1.3711622 -0.001219265 0.010430571)
(1.4063299 -0.009526169 0.010281613)
(1.4416674 -0.018019297 0.010137392)
(1.4771775 -0.026706303 0.0099910959)
(1.5128413 -0.035561802 0.0098542341)
(1.5486677 -0.044606017 0.0097059431)
(1.5846382 -0.053826619 0.0095640394)
(1.6207548 -0.063215079 0.0094171144)
(1.6570105 -0.072770093 0.0092611432)
(1.6933943 -0.082489054 0.0091076082)
(1.7299056 -0.092368468 0.0089501527)
(1.7665292 -0.10240531 0.0087921116)
(1.8032731 -0.11258531 0.008623367)
(1.8401082 -0.12292769 0.0084624679)
(1.8770562 -0.13338666 0.0082867809)
(1.9140757 -0.14402176 0.0081254212)
(1.9511972 -0.15474 0.0079441549)
(1.9883762 -0.16564967 0.0077837621)
(2.0256412 -0.17661271 0.0075991714)
(2.062953 -0.18777035 0.0074407921)
(2.1003349 -0.19897523 0.0072530875)
(2.1377494 -0.21034787 0.0070970935)
(2.1752224 -0.22178537 0.0069107901)
(2.2127089 -0.23335625 0.0067530981)
(2.2502424 -0.24499838 0.0065754959)
(2.2877807 -0.25674317 0.0064137399)
(2.3253401 -0.26858671 0.0062469419)
(2.3628946 -0.28048353 0.0060922958)
(2.4004554 -0.29248178 0.0059305609)
(2.437995 -0.30450808 0.0057897223)
(2.4755168 -0.31664877 0.0056613796)
(2.5130436 -0.32873004 0.0055119985)
(2.5505037 -0.34097671 0.0054472174)
(2.5880157 -0.35315151 0.005319478)
(2.625477 -0.36535861 0.005277281)
(0.002627366 -0.012258695 -0.013718996)
(0.0046434023 -0.016337495 -0.016563526)
(0.0061199609 -0.022472173 -0.021295162)
(0.0076827577 -0.027466715 -0.023033305)
(0.011326844 -0.033812515 -0.02470228)
(0.015425258 -0.040315345 -0.025504141)
(0.02062506 -0.046438536 -0.026012204)
(0.026777018 -0.053273959 -0.026079128)
(0.033960958 -0.059949298 -0.026025773)
(0.041831002 -0.06674245 -0.02578239)
(0.050696867 -0.073703452 -0.025435241)
(0.060237585 -0.080645487 -0.02503014)
(0.07063411 -0.087736894 -0.024554453)
(0.081720138 -0.094863912 -0.024101256)
(0.093574147 -0.10204526 -0.023575054)
(0.10610852 -0.10934693 -0.023097207)
(0.11935678 -0.11663477 -0.02257066)
(0.13327352 -0.12407241 -0.022067338)
(0.14785552 -0.1315451 -0.021574197)
(0.16311421 -0.13910001 -0.021071162)
(0.17898262 -0.14673331 -0.020573438)
(0.19551088 -0.15447852 -0.020103079)
(0.2126194 -0.16224307 -0.01961496)
(0.23036577 -0.17017932 -0.019146676)
(0.24867444 -0.17813487 -0.018689091)
(0.26759951 -0.18624162 -0.018210639)
(0.28705381 -0.19441435 -0.017788171)
(0.30710383 -0.20270223 -0.017319443)
(0.32766734 -0.21109284 -0.016907612)
(0.3487924 -0.21957498 -0.016456279)
(0.3704154 -0.22819069 -0.016047396)
(0.39257279 -0.23689332 -0.015625941)
(0.41521782 -0.24572563 -0.015221717)
(0.43836905 -0.25465806 -0.014815577)
(0.46199369 -0.26371923 -0.014418961)
(0.48609968 -0.27287982 -0.014034026)
(0.51066608 -0.28215716 -0.013628864)
(0.5356874 -0.29156779 -0.01325055)
(0.56115407 -0.30107696 -0.012862204)
(0.58706352 -0.31071436 -0.012479609)
(0.61339681 -0.32046356 -0.012095741)
(0.64015225 -0.33032729 -0.011714023)
(0.66731558 -0.34030627 -0.011330493)
(0.69488036 -0.3503957 -0.010948838)
(0.72283341 -0.36059564 -0.010566431)
(0.75116837 -0.37090277 -0.010184704)
(0.77987026 -0.3813149 -0.0098047927)
(0.80893275 -0.39182886 -0.0094258071)
(0.8383414 -0.40244299 -0.0090502962)
(0.86808756 -0.41315246 -0.0086778252)
(0.89815926 -0.42395725 -0.0083099371)
(0.92854587 -0.43485226 -0.0079474515)
(0.959237 -0.44583673 -0.0075908625)
(0.99022246 -0.45690812 -0.007241106)
(1.0214921 -0.46806431 -0.0068985275)
(1.0530371 -0.47930361 -0.0065635191)
(1.0848484 -0.49062568 -0.0062359322)
(1.1169179 -0.5020276 -0.0059160377)
(1.1492379 -0.51350977 -0.0056034239)
(1.1818019 -0.52507091 -0.0052972842)
(1.2146023 -0.53670919 -0.0049978838)
(1.2476342 -0.54842473 -0.0047037843)
(1.2808908 -0.56021538 -0.0044150789)
(1.3143676 -0.57208071 -0.0041301081)
(1.348058 -0.58401715 -0.0038500454)
(1.3819587 -0.59602609 -0.0035716341)
(1.4160625 -0.60810088 -0.00329857)
(1.4503662 -0.62024407 -0.0030242618)
(1.4848612 -0.63244232 -0.0027615222)
(1.5195461 -0.64469919 -0.0024845992)
(1.5544118 -0.65702608 -0.0022235661)
(1.5894552 -0.66938441 -0.001958122)
(1.6246688 -0.68180768 -0.0016973346)
(1.6600481 -0.69426242 -0.001437401)
(1.6955873 -0.70676586 -0.0011784613)
(1.7312785 -0.71929838 -0.00092359911)
(1.7671183 -0.73186688 -0.00066680739)
(1.8031002 -0.74446058 -0.00041386268)
(1.8392166 -0.75707923 -0.00015906463)
(1.8754645 -0.76971536 9.3319013e-05)
(1.9118352 -0.78236869 0.00034772258)
(1.9483252 -0.79503033 0.00060115861)
(1.9849249 -0.80769929 0.00085621123)
(2.0216322 -0.82036925 0.001111332)
(2.0584343 -0.83303311 0.00136542)
(2.0953298 -0.84569169 0.0016210466)
(2.1323055 -0.85833037 0.001872514)
(2.1693574 -0.87095345 0.0021218773)
(2.2064715 -0.88354931 0.0023677427)
(2.243646 -0.89611728 0.0026057017)
(2.2808612 -0.90864766 0.0028349424)
(2.3181209 -0.92115449 0.0030553807)
(2.3554006 -0.93362613 0.0032728039)
(2.3927357 -0.94607542 0.0034608111)
(2.4300802 -0.95857044 0.0036861449)
(0 0 0)
(0 0 0)
(0 0 0)
(0 0 0)
(0 0 0)
(0 0 0)
(0 0 0)
(0 0 0)
(0 0 0)
(0 0 0)
(0 0 0)
(0 0 0)
(0 0 0)
(0 0 0)
(0 0 0)
(0.0064653842 -0.0050644058 0.010007327)
(0.0064801545 -0.019162555 0.016151615)
(0.0060149928 -0.01984551 0.019614628)
(0.0086084886 -0.029195078 0.022919355)
(0.011385706 -0.033597496 0.024354975)
(0.015864005 -0.040637339 0.02510946)
(0.02096231 -0.046726001 0.025596063)
(0.027327176 -0.053802309 0.025765787)
(0.03443085 -0.060215753 0.025658017)
(0.04233317 -0.067344187 0.025443228)
(0.051328264 -0.074269053 0.025229974)
(0.060727375 -0.081129011 0.024790172)
(0.071252434 -0.088528927 0.024487649)
(0.082211806 -0.09535361 0.023995944)
(0.094162608 -0.10300335 0.023644476)
(0.10661694 -0.10989261 0.023194262)
(0.1198648 -0.11758876 0.022806897)
(0.1337778 -0.12473339 0.02231956)
(0.14832622 -0.13247529 0.021956664)
(0.16360102 -0.13990207 0.021499041)
(0.17942573 -0.14762565 0.021145391)
(0.19595981 -0.15535183 0.020713618)
(0.21304697 -0.16318764 0.020356109)
(0.23079086 -0.17110344 0.01996774)
(0.24909351 -0.1790717 0.019598725)
(0.26800833 -0.18721303 0.01923836)
(0.28746489 -0.19533735 0.018871982)
(0.30749126 -0.20370781 0.018528518)
(0.32807176 -0.21202896 0.018173999)
(0.34915674 -0.22059205 0.017845137)
(0.37080711 -0.22917139 0.017508243)
(0.39294148 -0.23790078 0.01718779)
(0.41559623 -0.24672278 0.016861032)
(0.43873353 -0.25567296 0.016547471)
(0.46236873 -0.2647383 0.01623455)
(0.48646592 -0.27387123 0.015922379)
(0.51101767 -0.28320745 0.015618245)
(0.53604864 -0.2926006 0.015317315)
(0.56150782 -0.30212533 0.015018187)
(0.58741423 -0.31176759 0.014716591)
(0.61374403 -0.32152677 0.01442011)
(0.64049359 -0.33139987 0.014122468)
(0.66765244 -0.34138846 0.013826261)
(0.69521088 -0.35148835 0.013530817)
(0.72315813 -0.36169877 0.013237144)
(0.75148526 -0.3720172 0.012944881)
(0.78018051 -0.38244041 0.012655577)
(0.80923408 -0.39296655 0.012369592)
(0.8386339 -0.40359163 0.012089092)
(0.86837004 -0.41431354 0.011813958)
(0.89843024 -0.42512884 0.01154741)
(0.9288053 -0.43603487 0.011287685)
(0.95948323 -0.44702954 0.011039244)
(0.99045525 -0.45810906 0.010799108)
(1.0217104 -0.4692737 0.010571398)
(1.0532412 -0.48051867 0.010352669)
(1.0850372 -0.49184515 0.010146194)
(1.1170926 -0.50324997 0.0099483933)
(1.1493985 -0.51473256 0.0097606156)
(1.1819495 -0.52629232 0.0095804841)
(1.2147383 -0.53792752 0.0094072341)
(1.2477602 -0.54963763 0.0092389814)
(1.2810088 -0.56142202 0.0090747771)
(1.3144796 -0.57327811 0.0089124832)
(1.3481671 -0.58520569 0.0087509847)
(1.3820659 -0.59720411 0.0085892409)
(1.4161732 -0.60926632 0.0084242429)
(1.4504792 -0.6214106 0.0082623743)
(1.4849823 -0.63356816 0.0080926506)
(1.5196699 -0.64585053 0.0079204079)
(1.5545506 -0.65814914 0.0077496514)
(1.589602 -0.67050938 0.0075738674)
(1.6248301 -0.68291957 0.0073947355)
(1.6602209 -0.69537439 0.0072162686)
(1.6957723 -0.70787053 0.0070347052)
(1.7314772 -0.72040402 0.006853033)
(1.7673289 -0.73297071 0.0066703554)
(1.8033222 -0.74556616 0.006488064)
(1.8394502 -0.75818657 0.0063052912)
(1.8757078 -0.77082613 0.0061231727)
(1.9120878 -0.78348242 0.0059407321)
(1.9485855 -0.79614891 0.0057595706)
(1.9851928 -0.80882139 0.0055782654)
(2.0219049 -0.82149543 0.0053988555)
(2.0587135 -0.83416427 0.0052203137)
(2.0956116 -0.84682467 0.0050457003)
(2.1325916 -0.8594676 0.0048725748)
(2.1696447 -0.87209393 0.0047073627)
(2.2067619 -0.88468872 0.0045457214)
(2.2439348 -0.8972612 0.0043961553)
(2.2811519 -0.90978996 0.0042521499)
(2.3184082 -0.92229949 0.0041270204)
(2.3556878 -0.93476049 0.0040029576)
(2.3930193 -0.94722923 0.0039012944)
(2.4303251 -0.95969965 0.0037802904)
(2.4804351 -0.93473363 0.0034999487)
(2.4926131 -0.89742708 0.0034448311)
(2.5047731 -0.86015299 0.0034734773)
(2.5168567 -0.82305344 0.0035102182)
(2.5289285 -0.78598857 0.0036154065)
(2.5409616 -0.74901629 0.0037143386)
(2.5530147 -0.71209163 0.0038598101)
(2.5650707 -0.67519223 0.0039965919)
(2.5771693 -0.63834369 0.0041318483)
(2.5892823 -0.60146183 0.0042722481)
(2.6014761 -0.56460027 0.0043792569)
(2.6137025 -0.52767468 0.004471078)
(2.6260195 -0.49073317 0.0045351211)
(2.6383668 -0.45365106 0.004552729)
(2.65088 -0.41660003 0.0045338129)
(2.6257804 -0.36656696 0.0040595218)
(2.5882316 -0.35436037 0.0038846448)
(2.5507754 -0.34213482 0.0036791392)
(2.5132812 -0.32994418 0.0034836889)
(2.4757757 -0.31779242 0.0032556737)
(2.4382461 -0.3056856 0.0030267404)
(2.4007006 -0.29363544 0.0027859026)
(2.3631431 -0.28164496 0.0025362778)
(2.3255815 -0.26973251 0.0022861383)
(2.2880255 -0.25789239 0.0020273746)
(2.2504784 -0.24614393 0.0017717328)
(2.2129528 -0.23448302 0.0015119822)
(2.17545 -0.22292126 0.0012533677)
(2.1379821 -0.21146068 0.00099077907)
(2.1005568 -0.20011117 0.00073251394)
(2.0631805 -0.18887244 0.00047323152)
(2.0258601 -0.17775328 0.00021792929)
(1.9886007 -0.16675607 -3.8985318e-05)
(1.9514113 -0.1558837 -0.00029471837)
(1.9142964 -0.1451451 -0.00055023621)
(1.8772645 -0.13453763 -0.00080627674)
(1.840321 -0.12407348 -0.0010626553)
(1.8034735 -0.11374665 -0.0013206539)
(1.7667281 -0.10357353 -0.0015787001)
(1.7300922 -0.093542881 -0.0018389023)
(1.6935752 -0.083670937 -0.0020998232)
(1.6571643 -0.073946087 -0.0023645055)
(1.6209325 -0.064449255 -0.0026105034)
(1.584785 -0.055024924 -0.0028853076)
(1.5488069 -0.045825532 -0.0031473168)
(1.5129719 -0.036781168 -0.0034179821)
(1.4772961 -0.027917203 -0.0036866948)
(1.4417806 -0.019232853 -0.0039590381)
(1.406434 -0.010732493 -0.0042350044)
(1.3712611 -0.0024201122 -0.0045141436)
(1.3362681 0.0057008258 -0.0047978592)
(1.301461 0.013624333 -0.0050864375)
(1.2668464 0.02134713 -0.005380115)
(1.2324307 0.028862163 -0.0056792811)
(1.1982213 0.03616557 -0.0059844089)
(1.1642258 0.043249575 -0.0062952025)
(1.1304527 0.050109674 -0.0066116718)
(1.096911 0.056737796 -0.006933884)
(1.0636104 0.063128916 -0.0072609213)
(1.0305613 0.069275032 -0.0075927322)
(0.99777454 0.075170978 -0.0079284702)
(0.96526208 0.080809185 -0.0082675333)
(0.93303552 0.086184743 -0.0086089817)
(0.90110799 0.091290572 -0.0089527922)
(0.86949146 0.096123329 -0.0092972116)
(0.83820008 0.10067408 -0.0096425472)
(0.80724498 0.10494591 -0.0099888297)
(0.77664259 0.10892153 -0.010332809)
(0.74640144 0.11261636 -0.010681405)
(0.71654061 0.11600294 -0.011022822)
(0.68707135 0.119102 -0.011368795)
(0.65799607 0.12190403 -0.011715258)
(0.62933405 0.12439094 -0.012066024)
(0.60113742 0.12655267 -0.012394259)
(0.57333436 0.12846443 -0.012760629)
(0.54599796 0.13001891 -0.013114548)
(0.51916957 0.13125764 -0.013451777)
(0.49277915 0.13221476 -0.013813783)
(0.46689085 0.1328454 -0.014180649)
(0.44150889 0.1331505 -0.014552932)
(0.41668555 0.13313077 -0.014918715)
(0.39235599 0.13281359 -0.015289182)
(0.36863208 0.13214074 -0.01566494)
(0.34543282 0.13118014 -0.01605833)
(0.32285323 0.12988813 -0.016449701)
(0.30085786 0.12826233 -0.016838693)
(0.27949366 0.12632924 -0.017250654)
(0.25880223 0.12402134 -0.017620895)
(0.23871657 0.1214834 -0.018048228)
(0.21934961 0.1185463 -0.018452542)
(0.20067733 0.11532138 -0.018832818)
(0.18271091 0.11179554 -0.019277098)
(0.16550217 0.10792071 -0.019627805)
(0.14903327 0.10381472 -0.020084124)
(0.13337489 0.099311966 -0.020424288)
(0.11853229 0.094592978 -0.020832346)
(0.10444225 0.089553378 -0.021164932)
(0.091261405 0.084348001 -0.021580524)
(0.078957995 0.07867959 -0.021814876)
(0.067518919 0.073071005 -0.022172702)
(0.057018794 0.066982136 -0.022341134)
(0.047485457 0.060855937 -0.022477628)
(0.038928679 0.054490809 -0.022466205)
(0.031314263 0.048117379 -0.022320802)
(0.024794097 0.041570651 -0.021915076)
(0.019288567 0.034978542 -0.021087128)
(0.014924883 0.02827071 -0.01983599)
(0.01165566 0.022302337 -0.017962388)
(0.0087242726 0.015579429 -0.014528072)
(0.0096579015 0.0095643249 -0.008695435)
(0 0 0)
(0 0 0)
(0 0 0)
(0 0 0)
(0 0 0)
(0 0 0)
(0 0 0)
(0 0 0)
(0 0 0)
(0 0 0)
(0 0 0)
(0 0 0)
(0 0 0)
(0 0 0)
(0 0 0)
(0 0 0)
(0 0 0)
(0 0 0)
(0 0 0)
(0 0 0)
(0 0 0)
(0 0 0)
(0 0 0)
(0 0 0)
(0 0 0)
(0 0 0)
(0 0 0)
(0 0 0)
(0 0 0)
(0 0 0)
(2.4676731 -0.97141853 0.0039143146)
(2.4676697 -0.97161246 0.0038727735)
(2.4676749 -0.97176648 0.0038331452)
(2.4676891 -0.97191299 0.0038058377)
(2.4677094 -0.97204351 0.0037853942)
(2.4677308 -0.9721571 0.0037799188)
(2.4677518 -0.97225324 0.0037740474)
(2.4677713 -0.97233259 0.0037792182)
(2.4677877 -0.97239836 0.0037775348)
(2.4678007 -0.97244302 0.0037754216)
(2.4678187 -0.97248591 0.003768601)
(2.4678311 -0.97248837 0.003748653)
(2.4678526 -0.97249572 0.0037215059)
(2.4678802 -0.97246936 0.0036845953)
(2.4679178 -0.97244623 0.0036373661)
(2.66346 -0.377892 0.0049821802)
(2.663559 -0.37793005 0.0049772936)
(2.6636523 -0.37796403 0.0049427369)
(2.6637413 -0.378015 0.0049077858)
(2.6638027 -0.37807488 0.0048679986)
(2.6638573 -0.37814244 0.0048110479)
(2.6638971 -0.37820937 0.0047562584)
(2.6639199 -0.37828282 0.0046928497)
(2.6639287 -0.37835568 0.0046324865)
(2.6639209 -0.37843119 0.0045761099)
(2.663899 -0.3785134 0.0045242724)
(2.6638612 -0.37859874 0.0044819114)
(2.6638187 -0.37869097 0.0044613064)
(2.6637434 -0.3788169 0.0044176709)
(2.6637039 -0.37890983 0.0044160213)
(0.0034335176 0.0063968526 0.011338294)
(0.0051673739 0.010794203 0.013107667)
(0.0069821047 0.015302723 0.016279175)
(0.010155358 0.019686584 0.017534685)
(0.013653992 0.024033467 0.018932598)
(0.018638088 0.028480017 0.019566496)
(0.024282625 0.032855745 0.020078313)
(0.031257779 0.037357705 0.020285417)
(0.038929563 0.041677302 0.02041513)
(0.04778164 0.04606266 0.020420579)
(0.057451879 0.050210957 0.020289278)
(0.068153438 0.054396119 0.020217311)
(0.07966716 0.058272458 0.01998165)
(0.092132901 0.062165337 0.019828472)
(0.10540065 0.065737436 0.019568785)
(0.11959414 0.069263486 0.019379473)
(0.13457307 0.072489647 0.01909044)
(0.15034885 0.075612951 0.018893555)
(0.16696141 0.078463878 0.018611526)
(0.18434059 0.081153916 0.01837729)
(0.20248034 0.083601786 0.018120644)
(0.22136988 0.085832775 0.017877679)
(0.24100544 0.087859317 0.017610608)
(0.26132429 0.089638515 0.017375594)
(0.28237879 0.091199199 0.017110967)
(0.30409778 0.092520733 0.016869628)
(0.32649463 0.093613476 0.016614336)
(0.34953273 0.094459076 0.016372853)
(0.37322348 0.095063977 0.016123862)
(0.39753028 0.095431806 0.015880627)
(0.42243631 0.095540832 0.015635817)
(0.44794597 0.095409746 0.015393753)
(0.47402913 0.095023199 0.015159794)
(0.50066332 0.09438294 0.014919689)
(0.52785618 0.093489215 0.01468503)
(0.55556855 0.092320707 0.014451912)
(0.58380453 0.090912214 0.014217326)
(0.61252636 0.08922437 0.013983846)
(0.64175042 0.087277425 0.013750003)
(0.67143123 0.085058161 0.013521553)
(0.70157094 0.082568583 0.013292699)
(0.73213676 0.079797246 0.013057051)
(0.76313203 0.076765566 0.012830377)
(0.7945267 0.073440919 0.01259688)
(0.82630231 0.06985388 0.012365704)
(0.85844891 0.06598411 0.012137467)
(0.89094194 0.061839299 0.011907312)
(0.92376843 0.057420046 0.011683338)
(0.95690629 0.052726994 0.011460617)
(0.99034165 0.047762116 0.011243775)
(1.0240533 0.042529318 0.011031724)
(1.0580266 0.03702894 0.010827781)
(1.0922435 0.031266731 0.01063002)
(1.1266885 0.025242898 0.010442086)
(1.1613462 0.01896335 0.010262184)
(1.196202 0.012428182 0.010092227)
(1.231243 0.0056433709 0.0099306678)
(1.2664556 -0.0013912244 0.0097783945)
(1.3018284 -0.0086709611 0.0096339951)
(1.3373505 -0.016194378 0.0094965933)
(1.3730115 -0.023958914 0.009365002)
(1.4088014 -0.031961696 0.0092383637)
(1.4447112 -0.040201781 0.0091146775)
(1.4807329 -0.048677359 0.0089942685)
(1.5168535 -0.05737635 0.0088712696)
(1.5530765 -0.066320588 0.0087503189)
(1.5893903 -0.075477581 0.0086285321)
(1.6257652 -0.084857062 0.00850701)
(1.6622177 -0.094456509 0.0083842032)
(1.6987267 -0.10427416 0.0082568685)
(1.735296 -0.11429577 0.0081260752)
(1.7719069 -0.12452595 0.007993207)
(1.8085641 -0.13495188 0.0078562142)
(1.8452454 -0.14557772 0.0077209939)
(1.8819621 -0.15638354 0.0075805472)
(1.9186872 -0.16738806 0.0074445003)
(1.9554369 -0.17854743 0.0073011471)
(1.9921823 -0.1899095 0.0071668515)
(2.0289416 -0.20139768 0.0070204804)
(2.0656881 -0.21308966 0.0068890357)
(2.1024344 -0.22489203 0.0067423065)
(2.1391673 -0.23687228 0.0066102674)
(2.1758837 -0.24897381 0.0064669321)
(2.2125795 -0.26121309 0.0063352671)
(2.2492518 -0.27356625 0.0061921729)
(2.2859015 -0.28604991 0.0060646762)
(2.3225225 -0.29863287 0.0059316783)
(2.3591063 -0.31130678 0.0058018934)
(2.3956603 -0.32407284 0.0056793146)
(2.4321561 -0.33692237 0.005570048)
(2.46864 -0.34980839 0.0054382349)
(2.5050478 -0.36277747 0.0053509851)
(2.5414263 -0.37582465 0.0052364663)
(2.5777997 -0.38883642 0.0051119125)
(2.6141037 -0.40207226 0.0049765965)
(0.00032054113 0.0044163452 0.010113769)
(0.0012978578 0.0053057277 0.011818403)
(0.0035417401 0.0087873321 0.013997471)
(0.0056438525 0.010790942 0.01543815)
(0.0090029209 0.013685918 0.016351136)
(0.013137042 0.016150213 0.01694756)
(0.018438427 0.018987071 0.017336402)
(0.024522701 0.021590176 0.017575191)
(0.031747504 0.024348742 0.017730308)
(0.039877575 0.026961677 0.017662615)
(0.048934793 0.029639957 0.017722995)
(0.058948721 0.032178162 0.017522978)
(0.06983549 0.034733593 0.017486103)
(0.081664752 0.037141809 0.017254517)
(0.094310165 0.039511594 0.017168329)
(0.10791245 0.041757923 0.016887217)
(0.12223527 0.043924994 0.016785998)
(0.13753715 0.045963023 0.016526732)
(0.15355302 0.047895078 0.016359937)
(0.17045692 0.049695352 0.016132819)
(0.18810128 0.051378173 0.015942269)
(0.20658701 0.052922123 0.015709388)
(0.22580139 0.054330212 0.015516602)
(0.2458159 0.055590867 0.015295869)
(0.26655162 0.056696116 0.015088159)
(0.28804272 0.057660021 0.01486783)
(0.31023536 0.05845045 0.014659812)
(0.33314727 0.059082887 0.014447626)
(0.35674471 0.059538532 0.014231159)
(0.38102024 0.059824432 0.014018549)
(0.40595909 0.059920373 0.013810244)
(0.43154606 0.0598314 0.013598417)
(0.45775553 0.059550182 0.013385869)
(0.48458452 0.059065539 0.013178649)
(0.51201325 0.058374661 0.01296827)
(0.54002338 0.057472024 0.012761765)
(0.5686088 0.056345595 0.012551942)
(0.59773648 0.054993159 0.01234994)
(0.62738376 0.053407768 0.012144732)
(0.65755507 0.051592092 0.011940675)
(0.68820972 0.049517798 0.011730443)
(0.71934463 0.047210085 0.011532973)
(0.75093791 0.044624243 0.011316142)
(0.78295621 0.041796354 0.011119529)
(0.81539542 0.038697002 0.010910553)
(0.84822549 0.035328293 0.010709949)
(0.88142369 0.031689281 0.010508066)
(0.91497191 0.027776545 0.010312571)
(0.94884492 0.023587284 0.010116704)
(0.98302211 0.019122381 0.0099300172)
(1.0174801 0.014380039 0.009746022)
(1.0521988 0.0093592359 0.009571113)
(1.0871558 0.004062355 0.0094021046)
(1.1223312 -0.0015137884 0.0092430958)
(1.1577054 -0.0073656229 0.0090913429)
(1.1932597 -0.013495644 0.0089495452)
(1.2289766 -0.019901105 0.0088154136)
(1.2648387 -0.026584422 0.0086907715)
(1.3008315 -0.033542107 0.0085724272)
(1.3369396 -0.040777011 0.0084613938)
(1.3731488 -0.048286013 0.0083560788)
(1.4094477 -0.056070032 0.0082542521)
(1.4458215 -0.064129341 0.0081576534)
(1.482261 -0.072456856 0.0080594437)
(1.5187551 -0.08105737 0.0079651344)
(1.555297 -0.089927556 0.0078720753)
(1.5918474 -0.09904782 0.0077796777)
(1.6284335 -0.10845148 0.0076861342)
(1.6650395 -0.11811419 0.007578232)
(1.7016474 -0.12803159 0.0074785261)
(1.738256 -0.13819214 0.0073699484)
(1.7748433 -0.14860699 0.0072682235)
(1.8114181 -0.15924858 0.0071568803)
(1.8479554 -0.17014186 0.0070556494)
(1.8844716 -0.18123868 0.0069378914)
(1.9209307 -0.19258753 0.0068401642)
(1.9573644 -0.20411129 0.006716388)
(1.993726 -0.21588867 0.0066227536)
(2.0300587 -0.22780993 0.0064938101)
(2.0663075 -0.23998484 0.0064057396)
(2.1025262 -0.25227707 0.0062732428)
(2.1386565 -0.26480184 0.0061842518)
(2.1747451 -0.2774522 0.0060639561)
(2.2107501 -0.2902878 0.0059550132)
(2.2467218 -0.30324065 0.0058379385)
(2.2825951 -0.31635346 0.0057430345)
(2.318423 -0.32957201 0.0056316769)
(2.3541648 -0.34290803 0.0055360845)
(2.3898558 -0.35636963 0.0054409741)
(2.4254702 -0.36986975 0.0053291648)
(2.4610331 -0.38350772 0.0052458217)
(2.4965044 -0.39718154 0.0051420166)
(2.5319655 -0.41092676 0.0050343891)
(2.5673407 -0.42473584 0.0049193979)
(2.6027349 -0.43863615 0.0047900033)
(-0.0016533994 0.0021281551 0.0086935377)
(-0.0010129713 0.0020303241 0.0099360349)
(-0.0001941237 0.0032072261 0.012251028)
(0.0019914229 0.0041949339 0.013135151)
(0.004834895 0.0053614198 0.013850469)
(0.0088735552 0.0066835874 0.014283291)
(0.013514783 0.0078788408 0.01464959)
(0.019455852 0.0092522778 0.014852207)
(0.026118392 0.010463709 0.014864468)
(0.033836341 0.011914805 0.015004952)
(0.042424684 0.013119767 0.014877086)
(0.052008226 0.01455463 0.014908756)
(0.062425097 0.015754466 0.01473355)
(0.073777464 0.017122631 0.014712688)
(0.086019226 0.018311626 0.014486139)
(0.0990893 0.019566397 0.014451509)
(0.11308878 0.020704793 0.014228296)
(0.12788353 0.021843338 0.014121904)
(0.14355272 0.022896201 0.013939184)
(0.16003947 0.023901045 0.013801164)
(0.17736951 0.024836975 0.013615184)
(0.19548829 0.025686254 0.013471235)
(0.21442945 0.026473083 0.013288987)
(0.23413881 0.027156067 0.013127174)
(0.25464344 0.027766172 0.012946793)
(0.27590095 0.028259768 0.0127802)
(0.2979218 0.02865871 0.012603977)
(0.3206751 0.028940125 0.01242562)
(0.34416005 0.029104985 0.012251728)
(0.36835499 0.029134645 0.012076987)
(0.39324919 0.029034962 0.011897546)
(0.41882109 0.028789976 0.01171997)
(0.44506699 0.028390786 0.011545426)
(0.47195885 0.027831531 0.011367742)
(0.49948733 0.027101112 0.011191761)
(0.52763018 0.026196864 0.011015807)
(0.55636148 0.025103852 0.010846254)
(0.58566489 0.023818128 0.010674691)
(0.61556336 0.022318407 0.010498848)
(0.64598702 0.020594639 0.010315746)
(0.6769379 0.018666913 0.010149783)
(0.70839012 0.016492495 0.009960945)
(0.74031809 0.014085271 0.0097995508)
(0.77270682 0.011430195 0.0096218003)
(0.80552827 0.0085173853 0.0094477082)
(0.83875564 0.0053500296 0.0092785013)
(0.87236979 0.0019161979 0.0091082538)
(0.90634409 -0.0017860622 0.0089419316)
(0.94065302 -0.0057617478 0.0087795269)
(0.97527162 -0.010013209 0.0086228949)
(1.0101762 -0.014544532 0.0084696578)
(1.0453403 -0.019356956 0.0083256929)
(1.0807416 -0.02445305 0.0081864614)
(1.1163552 -0.02983523 0.0080570058)
(1.1521604 -0.035503615 0.0079339413)
(1.1881339 -0.04146174 0.0078201676)
(1.2242566 -0.047709415 0.0077137398)
(1.2605085 -0.054249139 0.007615193)
(1.2968723 -0.061081168 0.0075226744)
(1.3333294 -0.068207883 0.0074375573)
(1.3698654 -0.075628678 0.0073558316)
(1.4064641 -0.083345692 0.0072791474)
(1.4431109 -0.091357323 0.0072050108)
(1.4797942 -0.099662721 0.0071302928)
(1.5165009 -0.10826701 0.0070615493)
(1.5532054 -0.11715706 0.0069853754)
(1.5899439 -0.12632989 0.006920684)
(1.626637 -0.13580673 0.0068294632)
(1.6633063 -0.14557519 0.0067715505)
(1.6999483 -0.15560575 0.0066945141)
(1.7365436 -0.16591832 0.0066189393)
(1.7730874 -0.17649422 0.0065440959)
(1.8095785 -0.18733767 0.0064622421)
(1.8459959 -0.19843229 0.0063835603)
(1.8823465 -0.20978323 0.0063012177)
(1.9186114 -0.22137472 0.0062226595)
(1.9548032 -0.2332011 0.0061374866)
(1.9908956 -0.24525941 0.0060614621)
(2.0269126 -0.25753024 0.0059750139)
(2.0628229 -0.27002087 0.0059009992)
(2.0986568 -0.28269645 0.0058119248)
(2.1343796 -0.29559273 0.0057463987)
(2.1700225 -0.30862811 0.0056511677)
(2.2055683 -0.32188293 0.0055859977)
(2.2410231 -0.33525507 0.0055041717)
(2.2763821 -0.34880143 0.0054371829)
(2.311657 -0.36245656 0.0053491541)
(2.3468401 -0.37627428 0.0052893216)
(2.3819516 -0.39015564 0.0051951529)
(2.4169607 -0.40417412 0.0051368061)
(2.4519105 -0.41827154 0.005052911)
(2.4867757 -0.4324179 0.0049705452)
(2.5215898 -0.44668473 0.004882276)
(2.5563449 -0.46094395 0.0047768774)
(2.5910775 -0.47529723 0.0046592294)
(-0.0027404196 0.0012910598 0.0071945967)
(-0.0031011023 -0.00033762682 0.0085012829)
(-0.002343347 -0.00011367323 0.009935234)
(-0.00055693809 -0.00036755825 0.010610994)
(0.0022479672 -4.6877142e-05 0.01118701)
(0.0057804261 8.8787248e-05 0.011590603)
(0.010562671 0.00051143024 0.011837593)
(0.016109621 0.00075155853 0.011891202)
(0.022649263 0.0012201823 0.012114951)
(0.030159225 0.0015348759 0.012008834)
(0.038575562 0.0019778163 0.012116527)
(0.047893925 0.0023586406 0.011971755)
(0.05810315 0.0027734791 0.012025515)
(0.069275831 0.0031930906 0.011828883)
(0.081208992 0.0035565671 0.011863569)
(0.094150996 0.0039710828 0.011672312)
(0.10783745 0.0043072791 0.011626421)
(0.12246679 0.0046661242 0.011491983)
(0.13787329 0.0049560688 0.011399001)
(0.15417667 0.0052405251 0.011263208)
(0.17124643 0.0054627757 0.011160902)
(0.18918414 0.0056556605 0.011028244)
(0.20788981 0.0057861963 0.010907303)
(0.22742396 0.005864827 0.010778982)
(0.24772229 0.005870758 0.01065241)
(0.26881143 0.0058080765 0.010523075)
(0.29065149 0.0056670552 0.010387082)
(0.31325021 0.0054349752 0.010258591)
(0.33657852 0.0051075123 0.010122517)
(0.36063628 0.0046807014 0.0099855796)
(0.38539548 0.0041382416 0.0098506326)
(0.41085767 0.0034751712 0.0097147186)
(0.43699063 0.0026816807 0.0095757468)
(0.46378888 0.0017516336 0.0094389308)
(0.49123444 0.00066322391 0.0093003444)
(0.5193021 -0.00057011197 0.0091605596)
(0.54799994 -0.0019986647 0.0090187964)
(0.5773115 -0.0035852602 0.0088703924)
(0.60714736 -0.0053755814 0.0087340166)
(0.63755057 -0.0073391226 0.0086070151)
(0.66848089 -0.0095296554 0.0084613073)
(0.69992633 -0.011936588 0.0083322848)