/*--------------------------------*- C++ -*----------------------------------*\
  =========                 |
  \\      /  F ield         | OpenFOAM: The Open Source CFD Toolbox
   \\    /   O peration     | Website:  https://openfoam.org
    \\  /    A nd           | Version:  6
     \\/     M anipulation  |
\*---------------------------------------------------------------------------*/
FoamFile
{
    version     2.0;
    format      ascii;
    class       pointScalarField;
    location    "0.09";
    object      E;
}
// * * * * * * * * * * * * * * * * * * * * * * * * * * * * * * * * * * * * * //

dimensions      [1 -1 -2 0 0 0 0];

internalField   nonuniform List<scalar> 
28033
(
22355.488
16357.783
20989.746
21112.565
24437.495
18677.239
21008.806
20847.618
12796.885
8722.7764
5814.8196
3870.1029
2193.6726
1142.5465
497.40131
182.78565
348.7684
831.30769
1820.0775
3364.5313
5504.301
8203.5065
13633.367
20859.972
21041.86
21049.077
21089.474
21194.481
21164.553
21235.388
21222.462
21232.892
21228.396
21199.218
21099.485
21125.346
21010.289
20907.521
16733.578
9971.4099
9139.8358
8731.9505
8588.2766
8359.6199
8116.028
7789.2671
7470.2721
7108.4626
6729.7896
6368.7543
6008.9262
5681.7078
5356.1781
5045.6966
4763.0637
4514.0159
4268.8395
4018.6674
3813.1506
3586.7298
3390.76
3207.2249
3010.2678
2831.1965
2667.486
2520.9045
2335.6709
2243.9144
2095.9548
1946.8236
1810.9231
1715.9837
1652.6642
1573.1829
1496.6278
1469.5492
1440.5775
1405.8287
1430.4705
1446.6738
1491.1992
1561.3608
1658.0629
1785.58
1945.6931
2138.0199
2365.1652
2621.5374
2907.2896
3217.1262
3548.7831
3898.1066
4261.5026
4635.6818
5016.123
5399.3119
5781.6766
6158.4178
6526.6094
6884.3213
7233.8974
7552.8425
7897.5199
8202.8093
8534.4764
8820.0418
9133.5426
9461.6266
9818.3987
10199.946
10627.652
11093.834
11607.063
12171.585
12776.076
13418.719
14098.507
14779.361
15466.632
16160.292
16788.695
17410.437
17936.741
18457.952
18888.914
19278.237
19582.463
19881.57
20066.805
20241.535
20480.685
20645.198
20770.427
12370.301
6933.2813
7536.0548
6782.1495
6719.8186
6508.2381
6201.4562
5956.5788
5652.9664
5292.5524
5021.5206
4643.916
4371.2215
4065.5157
3804.7393
3576.4941
3311.0091
3115.227
2929.0668
2720.1867
2559.661
2404.6277
2208.4528
2133.8469
1962.3372
1866.6934
1767.3076
1646.2712
1581.4954
1455.8378
1402.6639
1311.1169
1271.6659
1217.6299
1203.166
1175.5931
1171.5253
1137.5355
1152.5899
1186.9864
1221.0712
1281.2324
1360.6978
1462.7529
1588.6603
1741.9582
1923.7511
2135.679
2379.9487
2656.9629
2967.0954
3308.63
3677.6356
4069.26
4476.258
4892.4432
5310.5895
5725.7268
6133.2321
6530.283
6914.5892
7286.0239
7642.0477
7984.5691
8313.2364
8624.1612
8937.1075
9223.933
9521.0292
9901.0935
10160.002
10588.276
10953.731
11407.401
11888.696
12425.387
13008.963
13623.506
14292.263
14966.258
15659.648
16334.375
16980.769
17577.635
18116.05
18581.123
18980.457
19307.98
19582.769
19805.815
20000.268
20174.644
20344.529
20533.186
20764.036
15477.352
10080.581
7013.5979
5275.0222
2765.7628
1537.2374
779.14485
381.89261
483.94065
1217.3937
2064.6691
3789.749
6014.3172
9446.5287
13460.182
23706.503
10087.17
5861.4344
8287.3554
6576.186
7028.579
6335.5297
6192.2508
5712.5253
5440.4462
4939.8658
4718.1301
4283.9319
4076.9313
3666.6553
3404.8864
3386.5833
2806.5843
2920.8024
2404.3186
2318.4358
2356.9119
2062.3316
1901.1873
1735.281
1473.5789
1645.6612
1214.3857
1463.4423
1105.7853
1027.6602
927.67637
866.61042
787.34954
682.78112
1069.9172
654.01754
794.05061
769.529
808.62265
862.46878
924.8915
1006.4456
1112.8568
1239.7885
1397.4459
1584.6638
1806.3188
2060.7733
2349.7337
2667.5464
3011.7986
3375.4082
3753.5623
4141.1757
4534.5796
4931.6156
5330.7192
5731.0894
6131.1134
6528.6393
6919.9035
7301.2965
7666.5924
8020.1972
8345.0644
8659.3799
9103.1013
9466.9629
9531.066
9981.5084
10356.025
10758.967
11240.474
11759.94
12329.683
12948.969
13606.229
14293.358
14992.995
15690.206
16365.027
17001.844
17587.036
18112.263
18574.787
18976.314
19321.421
19617.691
19870.871
20092.456
20284.467
20477.661
20622.495
20830.382
20787.888
20993.668
20834.482
21034.936
20827.214
21112.214
20900.502
21077.763
21004.02
21087.498
20828.626
21074.932
20821.101
20904.605
20650.135
20782.709
20447.955
20405.708
20264.527
20090.589
19905.908
19675.745
19381.215
19028.128
18603.177
18107.913
17549.363
16938.546
16296.854
15600.269
14912.762
14220.375
13551.999
12915.463
12320.534
11772.945
11269.632
10821.849
10396.734
10049.795
9662.287
9354.3896
8847.7946
8843.2217
8387.891
8115.6667
7778.1206
7433.4044
7073.2989
6703.2504
6322.1785
5934.6076
5543.9006
5153.3756
4767.2667
4389.5537
4024.6923
3677.0415
3350.6332
3049.5108
2775.8054
2532.9327
2318.005
2137.2054
1982.2248
1854.6587
1753.9346
1676.9195
1621.5825
1577.1809
1570.1743
1546.4416
1627.081
1585.7156
1610.4775
1860.7211
1741.5821
1912.562
2051.4498
2280.7422
2254.6429
2525.5581
2545.1472
2828.2608
3042.1509
3254.5689
3438.3321
3505.4062
3866.3132
4055.8332
4190.4243
4521.3372
4691.1274
5013.7038
5227.318
5530.3529
5923.7499
6286.2301
6543.3656
7015.6256
7330.9954
7674.3294
8134.9159
8403.7908
8415.1733
8701.0737
9222.9889
9761.7873
8785.7901
17994.497
14464.898
14455.925
14032.814
14142.542
14461.115
14683.164
14682.471
14802.747
14841.517
14775.142
14336.69
14051.598
14249.307
14462.872
15768.558
11778.6
12482.788
12376.531
13027.555
13102.223
13062.685
13724.83
14499.913
14222.087
14031.458
13366.524
12842.035
12477.539
11943.662
12905.127
21010.508
20784.259
20662.842
20505.087
20375.805
20278.686
20229.577
20216.725
20255.711
20327.416
20432.776
20540.488
20658.198
20778.166
20981.362
20780.042
20644.373
20484.273
20320.842
20173.105
20060.155
19990.546
19974.698
20018.009
20102.252
20227.357
20368.242
20467.965
20608.679
20790.712
12040.307
8521.6435
7689.9979
7243.1739
7074.3967
6896.2364
6734.4155
6553.3067
6323.3262
6072.2034
5796.5112
5529.3592
5234.2176
4963.7598
4690.2667
4453.9085
4220.1045
3994.1355
3775.9154
3604.6248
3397.2285
3229.4899
3059.9581
2875.4376
2728.3556
2585.8857
2429.0353
2290.7981
2191.6941
2060.9553
1960.1664
1917.0671
1868.6622
1819.045
1791.1598
1739.3655
1735.1245
1704.7729
1719.2398
1709.5666
1734.227
1747.0366
1811.5528
1864.3155
1954.9696
2057.5043
2190.3559
2344.8243
2526.6432
2733.3569
2968.812
3233.4582
3530.0353
3859.266
4220.4703
4610.6201
5023.6686
5452.4527
5886.3629
6317.2296
6734.8258
7134.5428
7506.7226
7852.905
8195.2434
8460.0154
8691.4573
9002.9499
9322.6326
9619.0049
9957.501
10316.969
10720.332
11168.855
11671.466
12214.096
12813.305
13454.667
14131.569
14837.764
15554.752
16279.224
16988.356
17709.297
18370.435
18874.632
19362.694
19711.504
20036.67
20239.759
20414.991
20509.877
20657.134
20679.908
20723.144
7626.3709
6010.9913
5971.1658
5566.7811
5514.7676
5320.6957
5234.2773
5083.7017
4935.4747
4750.9749
4555.8767
4346.078
4122.4148
3911.4522
3695.9442
3502.8835
3297.7549
3131.9611
2966.4825
2811.9978
2668.0265
2540.2635
2422.0328
2312.4082
2221.9538
2127.2203
2053.8814
1993.5543
1927.2975
1890.7021
1859.4759
1815.1182
1777.7174
1740.2833
1725.5062
1703.8036
1692.3967
1675.927
1671.6488
1649.206
1665.7745
1695.5035
1722.1245
1784.5229
1868.5151
1983.2053
2125.9526
2298.8277
2501.6293
2733.8685
2995.4453
3284.8042
3600.9689
3941.9155
4304.5401
4685.1691
5078.2819
5477.9192
5877.3603
6270.6519
6650.9428
7015.3181
7359.8139
7687.9082
8007.2835
8248.1033
8675.5689
9012.9737
9296.3838
9598.7062
9951.1564
10346.68
10767.392
11233.949
11742.68
12308.868
12919.589
13574.678
14265.614
14991.943
15696.547
16452.491
17107.67
17766.938
18201.165
18773.499
19196.701
19601.336
19862.201
20172.813
20264.845
20474.596
20593.085
20672.5
20714.282
4805.0198
3842.8205
4223.7382
4062.0453
4075.7434
3954.5491
3901.5571
3806.8693
3693.9077
3576.9902
3429.3358
3282.4678
3115.3395
2956.9821
2796.9398
2643.8081
2504.2619
2371.1721
2246.6685
2142.0795
2042.0697
1959.7474
1880.9573
1817.2908
1761.9623
1724.1823
1689.0775
1664.2098
1653.023
1645.127
1633.2744
1638.4634
1644.9622
1648.8439
1663.6622
1650.6763
1633.8596
1618.005
1611.3482
1615.1485
1626.3892
1648.1929
1679.4776
1748.4343
1832.1178
1941.5922
2079.2583
2245.7835
2440.9547
2665.6155
2919.0189
3200.846
3510.072
3845.1867
4203.0439
4580.2599
4970.5604
5368.7243
5766.7166
6158.434
6537.6166
6900.6452
7239.9758
7576.4559
7852.1791
8205.5122
8426.2055
8712.7511
9054.3822
9391.252
9759.3936
10137.545
10534.091
11010.193
11540.766
12101.15
12724.875
13375.991
14071.879
14786.783
15506.957
16222.025
16938.768
17523.966
18219.692
18768.504
19269.769
19607.158
19964.6
20168.235
20355.845
20501.298
20654.275
20705.056
20728.71
2996.5166
2341.7301
2669.7866
2778.2792
2833.8939
2834.6359
2820.4539
2765.7209
2701.9272
2618.7073
2514.4276
2406.3976
2280.6762
2168.789
2039.0239
1937.0782
1821.9235
1733.9411
1643.8257
1575.2914
1507.2946
1456.948
1415.5967
1387.9818
1371.4419
1363.5218
1365.424
1377.7623
1395.3518
1413.6489
1444.0718
1467.1112
1490.1621
1505.9241
1518.3219
1505.8482
1538.2194
1583.8463
1578.4019
1578.3827
1583.9801
1599.8983
1639.9923
1690.6452
1765.951
1867.9818
1999.2999
2160.7991
2353.2526
2577.6302
2832.6086
3117.2205
3428.769
3764.4677
4119.7319
4490.4201
4870.1252
5254.0996
5634.7885
6008.9529
6370.3067
6713.099
7050.0498
7348.82
7667.5249
7927.2932
8271.4174
8505.038
8830.1324
9165.1956
9499.3079
9927.9367
10470.152
11006.154
11519.212
12108.338
12734.255
13408.098
14116.822
14837.102
15576.4
16298.88
16973.953
17668.79
18307.265
18815.907
19236.075
19629.029
19900.297
20180.021
20300.688
20507.323
20595.452
20692.43
20675.337
1801.3066
1248.6097
1642.9576
1733.3729
1880.7017
1918.0327
1938.5278
1920.9302
1888.5665
1840.7306
1771.6796
1697.7998
1617.0613
1529.9595
1451.4723
1374.3151
1306.3629
1247.2963
1197.5403
1157.7094
1127.4756
1112.4653
1104.2334
1109.4821
1121.3556
1147.0415
1179.4027
1219.9504
1263.361
1315.573
1361.2286
1407.2944
1448.9822
1479.0976
1512.9788
1518.5807
1564.863
1523.6216
1493.5003
1518.7824
1527.5536
1569.6436
1606.7739
1676.8618
1768.5253
1885.2966
2029.7513
2203.0999
2406.2443
2639.9558
2903.5433
3196.4211
3516.6742
3861.5863
4227.08
4608.6288
4999.6959
5394.507
5786.4187
6169.9556
6536.7101
6894.4744
7223.4521
7542.7539
7851.2498
8147.0235
8439.7417
8725.8471
9062.7403
9391.2194
9746.7354
10172.155
10509.556
10889.028
11459.783
12034.242
12682.757
13356.344
14065.142
14799.896
15531.926
16255.188
16964.397
17601.229
18196.679
18709.727
19206.098
19569.02
19908.863
20147.132
20319.889
20488.526
20606.117
20708.094
20653.58
959.69605
603.62203
883.55677
990.86088
1145.9482
1226.9502
1272.7658
1291.729
1284.1052
1260.1262
1211.7765
1168.3125
1100.0962
1049.6151
984.32304
939.47416
887.44833
857.03768
823.52752
811.02672
800.45286
805.4927
815.20363
839.37672
871.76148
916.88106
965.06581
1022.0505
1084.0964
1142.8829
1202.78
1259.0903
1305.2705
1347.9926
1377.9571
1386.9676
1434.3649
1446.6272
1494.4552
1489.916
1500.5956
1520.8027
1560.4681
1619.8999
1698.6912
1802.434
1934.0009
2094.5812
2285.4557
2507.1802
2759.4554
3041.6243
3351.5789
3686.5331
4042.0679
4413.707
4794.3674
5179.8645
5560.8034
5934.5737
6296.7895
6639.1451
6967.4068
7288.253
7575.2333
7883.7986
8170.0692
8477.7873
8805.5827
9129.8127
9530.6812
9931.0154
10357.24
10987.357
11546.679
12156.852
12799.555
13480.221
14197.898
14920.008
15655.66
16370.315
17052.979
17695.382
18280.286
18799.752
19233.288
19610.76
19893.878
20157.304
20284.358
20486.941
20580.447
20693.468
20662.41
470.8722
152.76244
402.35994
497.19639
645.06249
738.0765
809.03774
839.99661
856.20805
846.14464
826.97155
790.36998
756.06898
711.06939
676.23282
640.71278
615.33064
595.96603
587.73422
588.66497
598.28949
619.65809
646.95207
689.16026
739.76895
796.26509
862.85596
937.24141
1010.2518
1088.1197
1163.217
1230.8627
1293.5524
1344.4743
1379.8594
1428.4878
1426.2301
1444.373
1466.9731
1477.0178
1495.2262
1530.939
1580.6187
1650.3114
1741.265
1859.7641
2004.8849
2178.0739
2380.487
2611.5191
2871.122
3157.8071
3469.9456
3804.7875
4158.5248
4527.201
4904.6345
5285.9441
5663.5706
6035.6492
6390.9927
6733.6937
7062.9173
7364.6395
7672.6065
7957.5799
8255.3205
8555.1704
8864.0616
9223.8591
9576.7806
10000.213
10467.293
10944.836
11449.151
12036.866
12670.495
13344.207
14048.74
14769.019
15498.969
16210.53
16904.919
17551.514
18150.174
18682.539
19151.762
19543.531
19860.829
20125.294
20289.521
20486.581
20587.032
20720.429
20650.282
236.70475
-1.526704
181.44878
270.09515
400.53515
515.60153
577.11891
623.82414
646.62578
649.78881
630.51474
613.10772
576.3392
548.73455
516.27157
493.06142
471.7086
463.63819
456.24191
461.21225
465.42584
484.11764
518.33027
565.90159
612.28122
679.51153
747.67518
820.7672
896.91487
973.50573
1043.322
1110.2519
1166.9077
1211.8926
1259.5355
1266.6489
1300.6963
1311.153
1316.8547
1325.1922
1350.3835
1378.1091
1424.9858
1488.3487
1574.8909
1686.8863
1825.4738
1994.1185
2193.1609
2423.3946
2684.4779
2975.0303
3293.1285
3634.9851
3996.9751
4373.6044
4758.7165
5147.3211
5532.4674
5908.806
6271.9106
6623.764
6950.3645
7275.4322
7578.014
7882.6771
8183.3056
8493.473
8827.2225
9170.61
9556.0743
9990.6597
10434.492
10973.533
11588.84
12201.598
12854.461
13550.61
14265.621
14999.409
15730.865
16443.368
17127.044
17760.231
18332.471
18844.542
19267.115
19642.499
19912.249
20163.494
20309.172
20475.973
20578.737
20711.368
20641.118
268.97097
15.038381
174.31317
239.49015
356.6172
446.34272
503.39251
544.4981
563.11362
556.16791
542.52346
510.40103
478.24006
438.70665
406.43276
374.066
354.29526
337.34489
334.52587
344.51685
373.313
424.53161
463.88368
498.84182
560.99468
622.7059
691.10485
769.32139
850.49175
931.01615
1012.4649
1087.6302
1154.8516
1218.5244
1254.0266
1305.5072
1332.9059
1354.5729
1380.5632
1410.8459
1437.5753
1479.3931
1535.843
1609.3943
1706.1736
1826.7782
1974.6528
2150.8673
2356.2338
2590.7912
2854.1797
3144.8658
3461.3039
3800.0018
4158.5975
4530.7406
4913.1864
5299.4438
5682.3696
6059.1754
6424.7656
6770.6901
7107.6629
7421.2015
7728.1001
8022.402
8321.4714
8624.2589
8939.6795
9279.4836
9656.3026
10047.614
10508.409
10975.584
11406.798
11980.415
12623.067
13280.851
13985.767
14695.851
15418.601
16125.094
16810.764
17451.297
18043.793
18579.488
19034.352
19450.808
19753.195
20051.191
20236.724
20411.491
20576.289
20717.821
20646.985
640.88325
341.78494
472.52266
543.10116
643.31668
729.36328
783.65825
814.15228
835.08916
830.03155
809.37088
781.43354
743.16267
701.01382
665.28253
625.05362
597.31693
571.67725
554.73062
544.59317
533.2745
517.24799
515.84406
559.19329
598.42252
651.63472
712.6419
783.2379
849.17654
920.99077
986.45494
1047.2802
1103.2188
1141.1223
1188.9265
1211.5327
1229.6858
1245.3537
1260.1218
1272.8412
1297.4114
1332.6906
1381.5216
1450.0219
1540.043
1654.9075
1797.0663
1968.6298
2170.8474
2404.6919
2669.7093
2964.8429
3287.7028
3634.7301
4001.997
4382.7831
4773.7336
5165.299
5553.8518
5935.3683
6298.479
6652.4021
6983.6457
7303.8286
7609.8054
7912.3884
8210.2509
8519.6337
8844.057
9198.4905
9575.1673
9991.3026
10481.892
10935.099
11642.149
12325.138
12912.628
13610.338
14302.951
15029.081
15751.191
16457.644
17137.17
17767.277
18342.756
18853.934
19277.619
19664.139
19913.652
20185.322
20308.098
20452.972
20593.182
20667.915
20619.943
787.32715
647.01098
741.96641
839.17051
908.59544
982.05744
993.28945
1011.0392
1000.7337
968.82209
921.82774
868.46991
799.00925
735.99115
671.52923
608.70389
565.22228
515.53906
490.16926
468.59664
468.13945
472.94653
534.21015
538.34337
568.44352
605.54052
653.47415
701.69697
760.76011
822.19697
886.35991
949.56285
1005.1842
1067.4497
1106.6263
1146.418
1184.3871
1221.1003
1254.9155
1295.9995
1342.6944
1399.6055
1472.1247
1561.4354
1672.0557
1805.555
1965.1602
2151.6459
2366.6256
2609.843
2881.0711
3178.8975
3501.6278
3846.4614
4210.6191
4589.2479
4979.6894
5373.3867
5770.5781
6158.6833
6540.6113
6906.83
7258.9393
7593.2234
7917.6049
8225.7329
8539.538
8850.9907
9174.9398
9509.8324
9875.9842
10271.78
10714.837
11147.329
11752.313
12155.11
12785.775
13424.949
14111.935
14803.944
15506.633
16199.087
16868.014
17498.206
18080.664
18600.003
19059.721
19450.504
19768.566
20047.896
20247.502
20415.72
20593.304
20681.946
20698.563
2325.9002
1476.1332
1644.6688
1666.8551
1737.2911
1728.0222
1758.1082
1737.1481
1713.2299
1668.5462
1611.8759
1535.0143
1459.7949
1372.4682
1295.136
1213.5222
1148.3746
1077.7741
1032.0257
982.44817
935.15451
913.98305
917.84009
902.14721
905.75085
928.16901
945.27672
982.51473
1019.4965
1058.4858
1103.1817
1132.0141
1179.2796
1198.2489
1228.34
1252.2376
1271.2376
1283.4331
1298.9841
1318.2514
1343.5701
1383.1041
1435.2954
1507.7801
1601.6881
1720.9889
1868.1725
2045.3801
2254.1013
2494.865
2767.1186
3069.3411
3398.7556
3751.7367
4123.5654
4508.8999
4902.1105
5296.7041
5687.5907
6068.3723
6435.6477
6786.4448
7117.4211
7434.3403
7733.5707
8029.5348
8318.3728
8609.8026
8919.1437
9256.2969
9621.5636
10027.933
10457.716
10975.456
11527.598
12097.863
12775.918
13461.724
14193.603
14934.939
15684.354
16415.74
17116.612
17764.615
18353.817
18868.25
19309.261
19674.203
19958.868
20195.459
20351.443
20465.333
20635.946
20681.927
20696.562
3991.1952
3090.8509
3016.4452
2900.0594
2774.0109
2730.4285
2636.9125
2546.3774
2461.8505
2339.8061
2211.828
2078.9138
1925.9136
1791.0168
1643.2682
1507.2952
1389.5524
1258.8152
1171.8888
1061.8243
986.37911
926.02955
859.25154
835.61678
796.15608
777.2653
761.41389
761.94117
762.70493
788.6797
807.03186
845.75003
883.6344
922.66893
968.98835
1010.533
1052.3422
1097.3794
1147.8009
1200.0193
1263.7908
1333.8085
1419.0688
1519.0474
1637.8461
1777.7266
1941.9476
2132.1288
2350.482
2597.5364
2873.5874
3177.9416
3509.5236
3866.2299
4245.7271
4644.018
5057.4397
5479.3351
5906.2804
6327.9233
6744.2229
7142.1532
7527.2862
7886.8354
8235.4508
8561.7859
8876.9201
9192.8943
9522.3471
9848.7284
10205.256
10568.759
11010.108
11433.967
11940.947
12473.062
13066.021
13672.754
14325.911
14993.244
15671.078
16342.5
16991.225
17606.056
18174.034
18684.32
19134.695
19516.819
19831.303
20099.045
20278.268
20462.785
20642.506
20675.375
20736.97
6318.3482
4909.0503
4622.4988
4298.2181
4270.7911
4128.0053
4014.58
3915.4322
3780.5442
3606.2994
3453.8319
3246.4438
3074.9565
2878.6285
2696.5766
2533.8665
2370.164
2223.8791
2101.8263
1968.9697
1874.1664
1780.1708
1677.8769
1628.5662
1532.2174
1506.346
1446.0387
1406.6629
1377.354
1333.5664
1319.3715
1281.3864
1278.4692
1248.0358
1242.6996
1229.1435
1227.5515
1226.1849
1239.0746
1262.7698
1297.2838
1352.2465
1424.7479
1520.0011
1639.3857
1785.5544
1960.0616
2164.1518
2398.1919
2661.3139
2951.8213
3267.1235
3603.9019
3958.5587
4327.0337
4705.3363
5089.1783
5475.169
5858.3288
6236.1307
6604.5106
6959.3422
7302.7833
7625.7504
7946.4021
8240.3922
8540.7199
8841.2192
9156.5984
9477.5129
9823.0567
10230.326
10636.872
11118.862
11644.237
12206.254
12821.292
13479.138
14174.569
14883.779
15602.945
16304.116
16980.144
17607.997
18182.901
18691.129
19135.302
19509.509
19824.365
20080.442
20281.656
20470.747
20612.286
20684.625
20771.135
8152.8095
6339.1856
5751.1138
5448.6259
5410.8538
5144.4985
5006.2062
4821.3265
4585.892
4375.0917
4100.2187
3876.3494
3620.3473
3376.4465
3154.7044
2935.0748
2749.0731
2555.1094
2375.8468
2215.6583
2063.8167
1905.7486
1782.5395
1627.8367
1504.363
1416.6497
1291.3531
1258.2734
1185.2721
1185.1873
1155.726
1172.4009
1189.8516
1205.4792
1239.6733
1284.4692
1330.3515
1380.2046
1429.1552
1479.0864
1542.3451
1611.6173
1693.963
1791.5729
1906.2667
2040.5084
2196.8416
2377.345
2584.6888
2821.5297
3090.9978
3395.8942
3738.285
4117.9019
4532.3991
4975.3975
5440.0599
5914.4306
6389.9598
6853.8827
7299.0417
7715.15
8104.3598
8453.9464
8788.1553
9080.3859
9378.9937
9656.3277
9939.7056
10203.656
10566.622
10882.207
11292.996
11717.717
12194.939
12717.484
13294.754
13910.162
14560.137
15245.183
15942.331
16642.483
17320.878
17961.301
18541.838
19050.879
19475.563
19817.205
20071.599
20258.31
20372.196
20457.856
20507.35
20521.444
20662.158
7924.595
7756.1319
6618.9601
6484.4609
6362.0021
6416.5571
6278.5383
6393.3967
6424.9278
6452.9607
6408.3408
6372.3561
6838.9996
7199.3313
8806.9672
5346.5049
4567.7872
3973.5788
4029.6373
3769.1106
3783.4161
3663.9786
3749.2594
3798.9924
3771.1406
3811.0307
3909.4608
4135.0474
4662.6048
5664.268
3409.0437
2774.2758
2097.2454
2040.0743
1877.1839
1844.0546
1837.5053
1799.3362
1821.2605
1835.6304
1902.1449
1963.0741
2194.2676
2747.4407
3523.331
2124.0621
1714.7597
1347.6117
1206.9396
1164.9551
1114.3624
1110.0423
1078.8858
1118.7941
1130.4509
1191.3345
1227.3785
1486.4498
1835.1074
2221.9646
1181.2026
930.69304
643.67484
592.67811
523.43434
510.12654
498.90389
486.85781
495.60629
517.55218
534.84901
605.2645
742.83499
926.93778
1334.7356
714.37631
471.6921
304.27356
271.58689
239.53036
236.13363
223.53103
227.67654
232.01284
233.14387
259.47954
282.66739
348.68724
514.16525
765.80659
230.75799
120.96697
63.531007
32.543418
30.773997
18.134599
20.716023
16.506394
20.226558
22.482048
30.797798
47.787699
78.426154
168.24007
349.03166
78.372595
-3.4824505
-47.510338
-49.442415
-54.658422
-55.410268
-54.786078
-53.252571
-51.69599
-52.637806
-48.623725
-34.317846
-22.492441
34.478778
191.34036
89.700336
3.1747884
-38.295176
-51.019729
-57.567106
-60.335831
-60.247514
-59.238357
-57.600283
-49.069886
-48.567157
-37.530446
-17.997049
52.926101
159.18758
372.68531
238.24775
116.9266
92.797762
64.498973
60.454101
52.020274
53.78801
54.168743
51.072595
80.634355
77.216226
147.49174
283.21237
463.28654
717.93112
550.32657
339.56396
312.4293
248.1758
239.43268
225.89921
232.80003
235.3459
238.71566
275.08552
332.23754
420.83238
642.53546
840.87344
1589.5363
1112.3207
857.10381
764.92221
671.08531
638.33571
624.32494
616.4783
631.22807
629.76992
707.29414
676.67222
921.37659
1219.1425
1633.0723
2568.716
2067.2828
1678.8108
1503.937
1375.8648
1361.893
1313.0655
1356.4213
1347.9249
1304.5227
1423.7095
1462.7325
1695.7573
2212.0548
2478.414
4519.7038
3767.9007
3216.255
3047.3049
2887.3742
2819.2306
2888.856
2928.7272
2887.1232
2874.1255
2888.1883
2976.1069
3238.0664
3588.5373
4742.2559
6571.4106
6925.4798
5597.539
5474.8602
5275.0752
4947.7076
5320.4455
5540.3292
5167.6248
5435.2398
5258.7584
5383.3221
5650.3078
6315.6884
7448.2575
16050.267
13789.836
14397.473
14690.131
15090.019
15030.881
15721.958
16459.061
16853.666
16573.464
16000.254
15189.686
14875.662
15080.461
14161.618
11210.542
10075.678
9953.601
9798.778
9337.4985
9919.4695
9693.567
9742.7318
10395.749
9761.274
9900.9649
9580.7075
10159.251
10743.873
11808.576
8343.0821
8784.0644
8278.5513
8003.7389
8225.8908
7424.5433
7397.9004
7465.148
7062.7464
7750.4339
7689.3373
8460.6232
8544.5359
8490.5235
8771.7329
7858.6987
8976.593
8892.8212
8551.7418
8406.2621
8411.1524
8300.2483
8390.1207
8392.033
8331.4915
8611.702
8735.3168
8919.1298
8998.3337
8269.4532
7684.649
8006.3296
7983.8938
8336.7451
8062.6533
7980.9515
8035.4718
7926.283
8024.5296
8284.2478
8174.7083
8408.2085
8283.9202
7990.4082
7557.9256
7115.3585
7797.542
7916.5238
8050.2025
8026.3703
8017.6378
7942.403
7934.1711
7968.8529
7890.0175
8065.6762
8045.706
7978.1491
7805.7225
7208.7119
6849.8567
7181.0521
7372.2666
7523.0592
7483.1796
7519.2709
7558.1437
7538.1356
7578.2958
7620.4924
7530.3006
7544.2318
7365.0276
7010.1581
6816.5597
6466.1356
6668.4705
6903.278
7047.1611
7171.4014
7137.1022
7151.9202
7167.3055
7127.9837
7156.7058
7132.7423
7026.2541
6921.8532
6564.5292
6363.3034
6043.3921
6198.6046
6379.8494
6507.0871
6489.8279
6573.6837
6578.1724
6579.5658
6530.0931
6529.272
6477.1461
6361.0988
6281.7443
5986.7776
6014.9298
5658.826
5687.8958
5893.9971
5972.0435
6078.1235
6082.1149
6120.0264
6101.3174
6075.056
6098.5904
6003.1327
5989.8862
5805.344
5693.0106
5589.4201
5285.2678
5289.9722
5416.4492
5500.9277
5532.6878
5602.248
5611.1461
5610.548
5648.4943
5559.042
5578.0587
5432.5826
5416.6137
5230.4169
5239.7448
4950.0429
4843.6216
4941.6828
5023.1721
5090.1901
5092.8569
5117.8846
5097.3102
5059.6464
5052.2608
4977.306
4939.6194
4842.9452
4748.1653
4848.1093
4539.986
4506.0114
4638.7242
4649.2898
4680.759
4719.9412
4739.307
4734.6463
4763.371
4717.8302
4705.6035
4648.7796
4591.2024
4552.8752
4518.6974
4309.1839
4167.2848
4251.067
4241.8337
4314.6322
4323.6704
4384.4305
4266.9851
4282.2913
4255.884
4200.9718
4177.4388
4112.9698
4048.6408
4217.3329
3955.7309
3849.5264
3927.3715
3984.7399
4016.1457
4002.7768
4061.3268
4002.8349
4037.9844
4012.4466
4014.6349
3992.4116
3930.6053
3961.1152
3928.7449
3752.1199
3628.574
3751.378
3650.1665
3701.5459
3734.4011
3724.8861
3703.5498
3666.1117
3645.0393
3591.681
3579.1261
3614.7077
3532.4638
3653.5891
3503.5903
3342.8271
3408.1961
3440.3482
3486.1292
3471.018
3471.9215
3448.2097
3494.4782
3468.4018
3487.452
3463.4257
3374.7143
3318.5566
3501.9936
3240.3483
3190.3935
3244.6747
3261.6512
3213.6268
3239.207
3184.9848
3220.9393
3188.8539
3177.9399
3134.0853
3108.7862
3098.6116
3204.2162
3139.6302
3128.8622
2984.882
3065.7687
2995.6304
3046.88
3025.2158
3118.0969
3044.449
3064.2155
3050.8237
2964.5716
3008.5678
3022.6938
2934.7339
3080.6706
2923.0841
2783.3298
2836.5858
2831.6223
2879.7473
2820.0893
2877.3058
2821.7972
2828.8466
2803.105
2911.0556
2854.8516
2780.2118
2778.2639
2766.764
2713.0136
2664.0966
2736.6402
2715.6483
2676.6446
2718.3564
2693.7541
2703.6938
2712.6929
2665.7886
2660.0601
2619.5746
2746.5991
2628.286
2705.1007
2634.3454
2504.8964
2575.8025
2551.4371
2590.0574
2590.7484
2577.8622
2567.0423
2471.1713
2635.2954
2519.2025
2540.4544
2391.6446
2329.0941
2536.6427
2450.8952
2337.002
2432.6733
2395.722
2398.3909
2453.3884
2408.4633
2383.9608
2429.7717
2384.9129
2293.2502
2322.4506
2339.8714
2281.6295
2380.6096
2326.5039
2331.822
2319.8152
2300.2773
2312.4305
2215.3876
2246.5248
2239.2419
2245.83
2192.6991
2245.9088
2206.1496
2248.0362
2091.8572
2304.1891
2294.0886
2070.9233
2120.6724
2066.6809
2121.6581
2129.5165
2170.4046
2138.8626
2125.5432
2125.4324
2210.9382
2142.8468
1989.7776
1978.0509
2159.8313
2060.8668
1939.4104
2030.5769
2035.6573
2051.3558
2071.8582
2034.4671
1997.9952
2008.6371
1976.3855
1928.4882
2009.461
2020.8053
1936.4459
2017.9782
2009.1964
1859.5465
1938.4204
1866.1297
2010.9364
1885.192
1898.7218
1891.1114
1887.2445
1878.0411
1867.3151
1705.5763
1805.1821
1648.8889
1925.6252
1820.7364
1701.6497
1800.1825
1790.237
1735.4029
1732.3101
1741.8115
1725.3945
1734.8573
1721.0754
1716.0855
1758.4623
1674.9289
1706.3974
1728.8172
1779.6414
1612.9355
1644.7959
1614.161
1601.6208
1635.691
1616.0153
1604.5685
1596.6086
1595.4621
1586.0236
1625.0989
1494.3909
1390.3949
1727.672
1567.2971
1447.2491
1498.9964
1535.3967
1528.2786
1565.2465
1503.3136
1500.0407
1407.1011
1460.3451
1420.8695
1392.0422
1511.5382
1371.4423
1516.4718
1515.0065
1434.3709
1520.1999
1440.5525
1447.6219
1361.7392
1385.4271
1353.9174
1453.9323
1364.4304
1371.8174
1329.9778
1355.9288
1203.706
1469.6724
1453.1758
1322.2977
1365.4805
1330.745
1358.9238
1310.2306
1326.7171
1305.5775
1292.2408
1279.0103
1256.9918
1255.4835
1241.4614
1165.3671
1354.1413
1347.5657
1235.2405
1280.8397
1262.019
1250.9767
1240.0065
1238.9609
1203.8027
1207.8089
1176.9604
1187.0448
1154.6072
1162.8842
1087.2054
1257.0671
1268.4463
1167.5848
1226.9515
1193.3001
1193.0275
1167.6926
1162.943
1142.5337
1138.6012
1123.2718
1106.8839
1095.276
1086.7041
1028.1133
1154.0106
1218.4031
1135.8901
1176.0258
1188.5171
1122.2996
1106.3995
1108.4277
1088.8096
1090.8523
1071.3269
1084.2096
1062.9064
1072.6914
1046.1182
1137.2293
1181.2099
1054.9376
1122.5712
989.82716
1060.876
1041.9391
1048.63
1028.8297
1055.0232
960.98237
1021.6921
997.07274
1014.05
935.73318
1102.1572
1019.3798
1045.0086
1063.503
1068.2236
1056.3575
1038.7436
1032.546
1019.587
987.48709
1115.3987
990.9637
1000.1462
948.57981
957.07586
1021.2634
1122.6578
1119.4869
1133.2277
1106.3439
1086.2503
1071.4069
1060.1549
1032.9502
1044.1221
990.35804
1005.2846
987.39508
997.51633
977.06326
1012.454
1136.3572
1111.0526
1118.9356
1095.4799
1095.8078
1077.8529
1064.4674
1054.7042
1037.1496
1035.8231
1018.8907
1024.9399
995.45922
978.16768
1056.9015
1150.3596
1150.05
1151.3326
1141.4352
1125.9399
1110.2149
1097.8839
1080.6066
1077.362
1054.1344
1060.3195
1043.5465
1018.6801
1033.6196
1067.0744
1194.6965
1203.664
1198.369
1188.3938
1171.1947
1160.6101
1141.7339
1132.9043
1116.8763
1108.5988
1101.3379
1090.4848
1077.5708
1070.8056
1122.9013
1256.027
1270.9758
1255.9781
1251.5027
1232.2084
1221.5207
1205.0935
1190.9165
1182.8792
1168.2391
1161.6556
1159.7903
1130.7295
1138.3688
1194.0261
1336.5686
1353.0973
1332.4041
1334.3387
1308.8151
1304.3925
1281.2718
1274.1579
1262.2451
1245.4924
1246.8133
1234.4827
1212.8178
1218.8143
1279.2883
1437.0009
1454.332
1429.7808
1434.8021
1409.3565
1405.6698
1383.8847
1377.6854
1361.5841
1351.6402
1345.9092
1337.0166
1317.3007
1317.414
1391.998
1561.8107
1578.2525
1548.6962
1560.8802
1531.1273
1532.4569
1509.4792
1502.725
1491.5289
1476.1718
1473.6417
1463.7228
1443.2128
1439.5815
1528.6563
1713.9444
1726.654
1696.9449
1713.5105
1682.9267
1688.7416
1662.7597
1662.0631
1646.1709
1632.5662
1631.3545
1616.9074
1601.3974
1589.9937
1694.8836
1895.8991
1905.8057
1875.33
1897.4151
1866.3375
1874.7111
1850.9055
1849.8235
1835.0218
1821.9308
1819.6873
1803.4346
1791.8917
1769.1926
1893.8978
2112.2419
2117.2522
2087.953
2115.5952
2082.8218
2096.7927
2070.6798
2072.643
2057.6909
2043.2133
2042.5124
2023.0821
2016.3636
1982.2769
2128.5836
2363.8153
2363.4234
2335.7958
2366.4232
2333.7574
2349.891
2323.8296
2328.0657
2312.0039
2298.2702
2298.2735
2275.5825
2274.8137
2228.0548
2396.9248
2650.2017
2643.5972
2615.7257
2649.8496
2615.5267
2634.6461
2607.9196
2613.241
2597.0476
2583.1687
2583.836
2558.2866
2564.6117
2505.241
2697.146
2967.95
2953.8118
2925.5077
2960.6539
2924.5802
2945.3408
2916.9848
2923.8255
2906.7858
2893.2677
2894.5152
2867.345
2879.8702
2809.9275
3021.7253
3309.8199
3289.5307
3257.9631
3293.1409
3254.8506
3276.1056
3246.3631
3253.8305
3236.1005
3222.7904
3225.0825
3195.9974
3215.1716
3137.4844
3363.1193
3668.4783
3643.5854
3607.2594
3641.8686
3600.727
3622.0632
3590.4002
3598.4733
3579.6305
3567.3172
3569.4803
3540.3321
3564.2019
3482.8948
3712.4822
4035.0347
4009.8006
3967.2988
4000.4235
3956.4668