/*--------------------------------*- C++ -*----------------------------------*\
  =========                 |
  \\      /  F ield         | OpenFOAM: The Open Source CFD Toolbox
   \\    /   O peration     | Website:  https://openfoam.org
    \\  /    A nd           | Version:  6
     \\/     M anipulation  |
\*---------------------------------------------------------------------------*/
FoamFile
{
    version     2.0;
    format      ascii;
    class       pointVectorField;
    location    "0.09";
    object      u;
}
// * * * * * * * * * * * * * * * * * * * * * * * * * * * * * * * * * * * * * //

dimensions      [0 1 0 0 0 0 0];

internalField   nonuniform List<vector> 
28033
(
(0 3.9765722e-20 0)
(0 2.7230379e-19 0)
(0.53499458 0.024764953 -0.00012911019)
(0.53173281 -0.055632362 1.0811448e-05)
(0 2.4592327e-19 0)
(0 4.0053648e-19 0)
(0.53176836 -0.055729614 -8.138297e-05)
(0.53499506 0.024815591 -3.2632163e-05)
(0 8.6104415e-20 0)
(0 2.48643e-20 0)
(0 1.9862037e-19 0)
(0 -9.4296033e-20 0)
(0 1.2702293e-19 0)
(0 -7.5277433e-20 0)
(0 -1.8189763e-21 0)
(-6.067421e-20 -1.9792955e-20 0)
(0 3.7226881e-20 0)
(0 1.852579e-20 0)
(0 -7.1296126e-20 0)
(0 6.9029134e-20 0)
(0 8.25468e-20 0)
(0 -6.6207472e-20 0)
(0 8.4175572e-20 0)
(0.53479951 0.019778167 -0.000115113)
(0.53462474 0.014785438 -9.7077495e-05)
(0.53444871 0.0097803822 -8.8748329e-05)
(0.53427218 0.0047645782 -7.7626529e-05)
(0.5340926 -0.00026419709 -7.2346214e-05)
(0.53390432 -0.0052980637 -6.5298024e-05)
(0.53371091 -0.01033962 -6.1016688e-05)
(0.53350857 -0.015383454 -5.3103145e-05)
(0.53329869 -0.020428568 -4.7804511e-05)
(0.53308142 -0.02547302 -4.1226941e-05)
(0.53285815 -0.030513711 -3.170315e-05)
(0.53262874 -0.035548427 -2.6402942e-05)
(0.53239772 -0.040580523 -1.8539994e-05)
(0.53216613 -0.045602501 -9.8422946e-06)
(0.53194048 -0.050620249 -1.7130303e-06)
(0.0025590309 0.0037925092 0.0039680444)
(0.0033153855 0.0058392971 0.0054150892)
(0.0043990225 0.0078300435 0.0063491857)
(0.0058278548 0.0099194189 0.0069229847)
(0.0074771198 0.011924997 0.0071913235)
(0.0094729625 0.014003496 0.0073337467)
(0.011752585 0.016025148 0.0073174071)
(0.014315847 0.018018511 0.0072425233)
(0.017148862 0.019977123 0.0071023589)
(0.020236897 0.021877623 0.0069379415)
(0.023549042 0.023721027 0.0067493641)
(0.027082848 0.02551032 0.0065622343)
(0.030821398 0.027234561 0.0063815431)
(0.034762345 0.028903134 0.0062027284)
(0.038886097 0.030507291 0.0060359674)
(0.043193547 0.032053338 0.0058806664)
(0.047682964 0.033542954 0.0057343266)
(0.052355888 0.034973163 0.0055925178)
(0.057201389 0.036349456 0.005448281)
(0.062220993 0.037664731 0.0053115261)
(0.06741772 0.038929595 0.005167869)
(0.072782591 0.040129238 0.0050176234)
(0.078318261 0.041275145 0.0048660038)
(0.084018726 0.04236037 0.0047005369)
(0.089873917 0.043379633 0.0045290125)
(0.095884357 0.044339538 0.004350001)
(0.10203872 0.045227394 0.0041657546)
(0.10833124 0.046055036 0.0039696558)
(0.11474647 0.046802752 0.0037723872)
(0.12128373 0.047489637 0.0035717139)
(0.12792139 0.048097537 0.0033671621)
(0.13465135 0.048636714 0.0031633828)
(0.14146604 0.049108196 0.0029616391)
(0.14835253 0.049504309 0.0027633001)
(0.15529926 0.049841903 0.0025649362)
(0.16229226 0.050105758 0.0023806872)
(0.16932484 0.050314958 0.002202235)
(0.17638627 0.050462127 0.002031356)
(0.18346739 0.050557325 0.001871577)
(0.1905646 0.050602555 0.0017226403)
(0.19767216 0.050600121 0.0015811865)
(0.20478605 0.050556024 0.0014485274)
(0.21190599 0.050470959 0.0013215388)
(0.21902975 0.050347713 0.0011974271)
(0.22615653 0.050190176 0.0010762945)
(0.23328635 0.049998447 0.00095398282)
(0.2404184 0.049774563 0.00083061169)
(0.24755176 0.04951873 0.00070395633)
(0.25468526 0.049231498 0.00057361202)
(0.26181666 0.048912749 0.00043886834)
(0.26894355 0.048562401 0.00029961295)
(0.27606241 0.048180165 0.00015606701)
(0.28316915 0.047765876 8.9583682e-06)
(0.29025874 0.047319445 -0.00014051)
(0.29732534 0.046841043 -0.00029060494)
(0.30436247 0.046331108 -0.00043921531)
(0.31136305 0.045790421 -0.00058397107)
(0.31831982 0.045220183 -0.00072247465)
(0.32522556 0.044621889 -0.00085243232)
(0.33207322 0.043997679 -0.00097196842)
(0.33885638 0.043349988 -0.0010794217)
(0.34556914 0.042681574 -0.001173678)
(0.3522068 0.041995852 -0.0012537838)
(0.35876374 0.0412968 -0.0013186118)
(0.36523953 0.040587264 -0.0013700311)
(0.3716282 0.039871873 -0.0014028725)
(0.37793187 0.039155554 -0.0014229391)
(0.38414993 0.038441026 -0.0014283345)
(0.39028242 0.037729842 -0.0014192345)
(0.39633385 0.037027857 -0.0013989878)
(0.40230758 0.036336154 -0.0013699206)
(0.40820616 0.035656853 -0.0013338498)
(0.41403592 0.034992491 -0.0012925632)
(0.41980039 0.034343237 -0.0012489946)
(0.42550455 0.033710769 -0.0012050411)
(0.43115268 0.033095453 -0.0011619542)
(0.43674826 0.032497998 -0.0011214565)
(0.44229455 0.031917353 -0.0010833874)
(0.44779421 0.031354251 -0.0010490193)
(0.45324808 0.030807557 -0.0010171864)
(0.45865739 0.03027716 -0.0009876757)
(0.46402188 0.02976257 -0.00095927709)
(0.46933903 0.029265225 -0.00092944358)
(0.4746104 0.028783195 -0.00089552701)
(0.479829 0.028318878 -0.00085686928)
(0.48499888 0.0278757 -0.00080852502)
(0.49011825 0.02745394 -0.00075295133)
(0.49519058 0.027053911 -0.00068508003)
(0.5002209 0.026681363 -0.0006109018)
(0.50521606 0.0263306 -0.00052751581)
(0.51018415 0.026012483 -0.00044370296)
(0.51513732 0.025711958 -0.0003589323)
(0.52008537 0.025445179 -0.0002833545)
(0.52503952 0.025194733 -0.000217705)
(0.53000577 0.024973488 -0.00016436059)
(0.0010478649 -0.0035320684 -0.0043449397)
(0.002204899 -0.0049967641 -0.0048193498)
(0.0031210244 -0.0069758168 -0.0060857639)
(0.0041915273 -0.0085339765 -0.0064098264)
(0.0058411787 -0.010443938 -0.0067093204)
(0.0076766901 -0.012295717 -0.0067710331)
(0.0098414621 -0.014071185 -0.0067321858)
(0.012294109 -0.015903303 -0.0065960508)
(0.015039988 -0.017685702 -0.0064115325)
(0.017988005 -0.019417704 -0.0062006109)
(0.021198124 -0.021141719 -0.0059694576)
(0.024590678 -0.022798488 -0.0057439866)
(0.028195869 -0.024440529 -0.0055199266)
(0.031978255 -0.026033215 -0.0053184529)
(0.035945321 -0.027590815 -0.0051208335)
(0.040086629 -0.029121365 -0.0049474748)
(0.044397509 -0.03060643 -0.0047805631)
(0.048887525 -0.032073756 -0.0046239547)
(0.053547016 -0.033508966 -0.0044775575)
(0.058377184 -0.034909086 -0.004330583)
(0.06338654 -0.036291775 -0.0041793185)
(0.068564864 -0.037643569 -0.0040326836)
(0.073911655 -0.038961987 -0.0038702416)
(0.079435932 -0.040262136 -0.0037042117)
(0.085113037 -0.04152213 -0.0035326988)
(0.090955162 -0.042748665 -0.0033438562)
(0.096945902 -0.043945164 -0.0031588557)
(0.10307829 -0.045092175 -0.002955859)
(0.10934666 -0.046208097 -0.0027579248)
(0.11573543 -0.047268361 -0.0025473629)
(0.12224077 -0.048294006 -0.002341506)
(0.12884517 -0.049262001 -0.0021315857)
(0.13554372 -0.050185271 -0.0019241407)
(0.14232175 -0.0510571 -0.0017183551)
(0.1491695 -0.051879348 -0.0015173179)
(0.15607387 -0.05264913 -0.0013229517)
(0.16302547 -0.053369915 -0.0011365112)
(0.17001523 -0.054047387 -0.00096005531)
(0.17703463 -0.054675113 -0.00079292983)
(0.18407916 -0.055263277 -0.00063625426)
(0.19114094 -0.055809535 -0.00048950592)
(0.19821784 -0.056318645 -0.00035169859)
(0.20530711 -0.056792659 -0.00022096959)
(0.21240714 -0.057234063 -9.5976115e-05)
(0.21951671 -0.05764467 2.5043185e-05)
(0.22663495 -0.058025955 0.00014348954)
(0.23376087 -0.058378788 0.00026057574)
(0.24089336 -0.058703515 0.00037735233)
(0.24803112 -0.059000081 0.00049468709)
(0.25517243 -0.05926801 0.00061331173)
(0.26231512 -0.059506585 0.00073373336)
(0.26945633 -0.059714869 0.00085615704)
(0.27659235 -0.059891813 0.0009803201)
(0.28371852 -0.060036325 0.0011054309)
(0.29082921 -0.060147318 0.0012301006)
(0.29791794 -0.060223852 0.0013525156)
(0.30497762 -0.060265151 0.0014705159)
(0.31200079 -0.06027083 0.0015819833)
(0.31898001 -0.06024089 0.0016849464)
(0.32590804 -0.060175928 0.0017778369)
(0.33277809 -0.060077135 0.0018594844)
(0.33958387 -0.05994642 0.0019291415)
(0.34631975 -0.059786207 0.0019861884)
(0.35298067 -0.059599674 0.0020302448)
(0.3595625 -0.059390249 0.0020609464)
(0.36606168 -0.059161741 0.0020776777)
(0.37247677 -0.058918235 0.0020807678)
(0.37880585 -0.058664265 0.0020700974)
(0.3850501 -0.05840189 0.0020467707)
(0.39121158 -0.058138616 0.002009244)
(0.39729141 -0.057871657 0.0019638341)
(0.40329602 -0.05761172 0.0019093717)
(0.40922676 -0.057355102 0.0018486093)
(0.41508941 -0.057108171 0.0017834798)
(0.42088807 -0.056870833 0.0017161176)
(0.42662698 -0.056645634 0.0016476679)
(0.43231011 -0.05643335 0.0015792747)
(0.43794066 -0.056234287 0.001511811)
(0.44352215 -0.056049081 0.0014457956)
(0.44905578 -0.055877102 0.001381281)
(0.45454319 -0.055718415 0.0013179054)
(0.45998375 -0.055572476 0.0012546449)
(0.46537645 -0.055439346 0.0011901579)
(0.47071936 -0.055319392 0.0011224274)
(0.47601065 -0.055213735 0.0010494783)
(0.48124896 -0.055123897 0.0009693663)
(0.48643471 -0.055052322 0.00088095067)
(0.49156995 -0.055001575 0.00078401012)
(0.49665946 -0.054974783 0.00067959576)
(0.50170988 -0.054974559 0.00056995565)
(0.50673009 -0.055004004 0.00045852428)
(0.51173027 -0.055064462 0.00034914691)
(0.51672085 -0.055157598 0.00024635984)
(0.52171296 -0.055284106 0.00015424885)
(0.52671587 -0.055442001 7.3799047e-05)
(0 -1.082e-19 0)
(0 -7.9007401e-20 0)
(0 7.4004795e-20 0)
(0 -4.6763079e-20 0)
(0 -4.0267486e-20 0)
(0 2.2502565e-19 0)
(0 -6.680689e-20 0)
(-1.5554742e-19 4.3479443e-20 0)
(0 -3.9738588e-20 0)
(0 9.6811388e-20 0)
(0 1.1570436e-19 0)
(0 4.0470064e-20 0)
(0 2.1421285e-20 0)
(0 -4.3631084e-20 0)
(0 2.9658079e-20 0)
(0.002097031 -0.0015411067 0.0032134801)
(0.002557213 -0.0057817563 0.0048700003)
(0.0030430281 -0.0062410578 0.0055413579)
(0.0044516639 -0.0089697961 0.0063549783)
(0.0058221225 -0.010327184 0.0065263827)
(0.0077934249 -0.012360403 0.0065836042)
(0.0099119043 -0.014070114 0.0065161878)
(0.012440837 -0.015981634 0.0064021621)
(0.015147817 -0.017669999 0.006184456)
(0.018132286 -0.019483699 0.0059828898)
(0.021354325 -0.021181741 0.0057692875)
(0.024722754 -0.022818512 0.0055479864)
(0.028352331 -0.024504178 0.0053435737)
(0.032099612 -0.026049391 0.0051527993)
(0.036088988 -0.027660123 0.0049766807)
(0.040199627 -0.029145858 0.004818516)
(0.044507612 -0.030668894 0.0046798188)
(0.048987853 -0.032110951 0.0045332873)
(0.053631328 -0.033553758 0.0044086841)
(0.058468491 -0.034961161 0.0042722889)
(0.0634591 -0.036334027 0.0041438959)
(0.068629903 -0.03767732 0.0040006871)
(0.073978342 -0.039008405 0.0038532349)
(0.079493113 -0.04029514 0.0036916659)
(0.085171932 -0.041552834 0.003522639)
(0.091015473 -0.042787461 0.0033423363)
(0.096998488 -0.043948947 0.003152417)
(0.10313891 -0.045131479 0.0029564009)
(0.10940301 -0.04620716 0.0027535097)
(0.11579549 -0.047295073 0.0025465403)
(0.12230559 -0.048303241 0.0023379452)
(0.12891314 -0.049272601 0.0021288139)
(0.13561711 -0.050191378 0.001918984)
(0.14239836 -0.051056051 0.0017130481)
(0.14925018 -0.051881988 0.0015127179)
(0.15615963 -0.052640179 0.0013226342)
(0.16310564 -0.053368989 0.001137597)
(0.1701014 -0.054037905 0.0009668808)
(0.17711747 -0.05466648 0.00080848832)
(0.18416002 -0.055250982 0.00066026095)
(0.19121894 -0.055796219 0.00052391815)
(0.19829283 -0.056303257 0.00039591068)
(0.20537896 -0.056774996 0.00027477754)
(0.21247599 -0.057213811 0.00015856265)
(0.21958239 -0.057621255 4.5434817e-05)
(0.22669745 -0.057999003 -6.6115287e-05)
(0.23381988 -0.058347909 -0.00017715655)
(0.24094884 -0.058668569 -0.00028877436)
(0.24808306 -0.058960856 -0.00040189579)
(0.2552213 -0.059224527 -0.0005174283)
(0.26236158 -0.059458726 -0.0006361179)
(0.2695014 -0.059662629 -0.00075839121)
(0.27663708 -0.059835128 -0.0008840685)
(0.28376387 -0.05997522 -0.0010123085)
(0.29087586 -0.060081945 -0.0011414763)
(0.29796617 -0.060154539 -0.0012693667)
(0.30502731 -0.060192479 -0.0013934102)
(0.31205154 -0.060195573 -0.0015110688)
(0.3190313 -0.060163993 -0.001620072)
(0.3259594 -0.06009841 -0.0017186963)
(0.33282923 -0.05999994 -0.0018057062)
(0.33963473 -0.059870376 -0.001880352)
(0.34637051 -0.059711911 -0.0019421396)
(0.35303152 -0.059527492 -0.0019905446)
(0.35961393 -0.059320503 -0.0020254022)
(0.36611381 -0.059094566 -0.0020459051)
(0.3725294 -0.058851794 -0.0020525289)
(0.37885693 -0.058600496 -0.0020449099)
(0.38510752 -0.058350324 -0.0020226592)
(0.39126274 -0.058076312 -0.0019887226)
(0.39734345 -0.057817427 -0.0019455466)
(0.40334548 -0.057557594 -0.0018919975)
(0.40927301 -0.057303238 -0.0018333284)
(0.41513198 -0.057057608 -0.0017702984)
(0.42092565 -0.056821953 -0.0017049167)
(0.42665853 -0.056598095 -0.0016389247)
(0.43233481 -0.056387273 -0.0015734418)
(0.43795807 -0.056190131 -0.0015094544)
(0.44353152 -0.056007077 -0.0014474829)
(0.44905751 -0.055837902 -0.0013877185)
(0.45453731 -0.05568248 -0.0013297408)
(0.45997101 -0.055540478 -0.0012725196)
(0.46535765 -0.055412054 -0.0012143961)
(0.47069561 -0.055297689 -0.0011532429)
(0.47598315 -0.055198633 -0.0010867672)
(0.48121933 -0.055116645 -0.0010129491)
(0.48640452 -0.055054157 -0.00093046101)
(0.49154118 -0.055013753 -0.00083904371)
(0.49663393 -0.054998294 -0.00073965629)
(0.50168954 -0.055010175 -0.00063451509)
(0.5067166 -0.055051669 -0.00052675378)
(0.51172488 -0.055124126 -0.0004205052)
(0.5167252 -0.055228599 -0.000319662)
(0.52172703 -0.055365585 -0.0002285751)
(0.52674483 -0.05553043 -0.00015247512)
(0.53197626 -0.050707877 -7.1911874e-05)
(0.53220214 -0.045677896 -6.3870395e-05)
(0.53242297 -0.040644557 -5.8101492e-05)
(0.53265605 -0.035601402 -5.8158488e-05)
(0.53287237 -0.030554411 -5.7688081e-05)
(0.53309998 -0.025501531 -6.0279538e-05)
(0.53330413 -0.020448799 -6.1456918e-05)
(0.53351471 -0.015396431 -6.1656855e-05)
(0.53371519 -0.010346809 -6.0912192e-05)
(0.53390671 -0.0052995475 -6.3584692e-05)
(0.53408481 -0.00025683489 -6.1000445e-05)
(0.53427407 0.0047734021 -6.0315502e-05)
(0.53444417 0.0098022962 -5.7272501e-05)
(0.53462507 0.01481325 -5.3286807e-05)
(0.53479728 0.01981909 -4.1251123e-05)
(0.52999621 0.02501695 2.3826639e-06)
(0.52501515 0.025250537 5.2340148e-05)
(0.52004928 0.025498553 0.00010957487)
(0.51508995 0.025774301 0.0001816022)
(0.51012596 0.026075554 0.00025989348)
(0.50514707 0.026404848 0.00033963303)
(0.50014485 0.02676089 0.00042136514)
(0.4951096 0.027143064 0.00049912285)
(0.49003546 0.027549976 0.00057299685)
(0.48491718 0.027978402 0.00064176845)
(0.47975254 0.028427146 0.00070527892)
(0.47454005 0.028893402 0.00076427458)
(0.46928102 0.029374807 0.00082087748)
(0.46397651 0.029871747 0.00087622894)
(0.45862493 0.030383032 0.00093134635)
(0.4532288 0.030907981 0.00098669143)
(0.44778792 0.031448414 0.0010435015)
(0.44230117 0.032005001 0.0011019399)
(0.43676624 0.032578111 0.0011615172)
(0.43118032 0.033169018 0.0012215142)
(0.42554 0.033777283 0.0012810014)
(0.41984128 0.034403482 0.0013387059)
(0.4140806 0.035046242 0.0013930949)
(0.40825272 0.035706289 0.0014423546)
(0.40235477 0.036379623 0.0014842449)
(0.39638079 0.037068401 0.0015180518)
(0.39033344 0.037766691 0.0015389692)
(0.38418528 0.038483541 0.0015458866)
(0.37797252 0.039187843 0.0015417553)
(0.37166338 0.039909493 0.0015204819)
(0.36527027 0.040624444 0.0014853823)
(0.35879239 0.041334114 0.0014354381)
(0.35223253 0.042034288 0.0013721927)
(0.34559393 0.042720287 0.0012959139)
(0.33888136 0.043388458 0.0012076197)
(0.33209982 0.044035376 0.0011081512)
(0.32525508 0.04465812 0.00099850202)
(0.31835341 0.045254153 0.00087988982)
(0.31140153 0.045821492 0.00075386266)
(0.30440643 0.046358496 0.00062224256)
(0.29737523 0.046863993 0.00048705521)
(0.29031489 0.047337122 0.00035035505)
(0.28323194 0.047777462 0.00021398063)
(0.27613226 0.048184851 7.9416155e-05)
(0.2690209 0.048559507 -5.2412994e-05)
(0.26190185 0.048901751 -0.00018109085)
(0.25477836 0.049212128 -0.00030675391)
(0.24765246 0.049490956 -0.00042994495)
(0.24052599 0.04973876 -0.00055163979)
(0.23339956 0.049954807 -0.00067258999)
(0.2262739 0.050139978 -0.00079519849)
(0.21914961 0.050291019 -0.000918932)
(0.21202635 0.05040913 -0.0010486596)
(0.20490642 0.050489694 -0.0011822873)
(0.19779054 0.050530569 -0.0013235507)
(0.19067858 0.050531871 -0.0014770678)
(0.18357652 0.050488134 -0.0016359976)
(0.17648981 0.050389717 -0.0018082078)
(0.16943298 0.050236697 -0.0019852626)
(0.16238539 0.050038846 -0.0021799333)
(0.1553884 0.049764632 -0.0023773692)
(0.14844838 0.049432387 -0.0025786028)
(0.14155118 0.049037507 -0.0027851445)
(0.13473143 0.048573805 -0.0029946221)
(0.12799153 0.048027488 -0.0032029887)
(0.1213642 0.047418638 -0.0034127826)
(0.1148119 0.046735947 -0.0036122856)
(0.10841521 0.045975028 -0.0038113914)
(0.1021089 0.045159204 -0.0040111376)
(0.095960277 0.044263237 -0.0041939877)
(0.089949501 0.04330468 -0.0043761681)
(0.084086573 0.042276357 -0.0045463677)
(0.078411378 0.041178206 -0.0047053052)
(0.072862335 0.040039866 -0.0048657229)
(0.067499664 0.038828871 -0.005010516)
(0.062325182 0.037549318 -0.005148857)
(0.057288148 0.036242624 -0.0052970068)
(0.05247252 0.03484203 -0.0054256389)
(0.047783671 0.033430372 -0.0055818949)
(0.043318995 0.031920178 -0.0057267376)
(0.039014923 0.030366733 -0.0058904008)
(0.034873599 0.028779046 -0.0060699197)
(0.030933478 0.027122702 -0.0062612017)
(0.027212166 0.02537635 -0.0064474196)
(0.023650975 0.02362864 -0.00665852)
(0.020330873 0.021788062 -0.0068523373)
(0.017257257 0.01987018 -0.0070248974)
(0.014408858 0.017962922 -0.0071781194)
(0.011826779 0.015965706 -0.0072556831)
(0.009540204 0.013954709 -0.0072683932)
(0.0075617595 0.011854482 -0.007110468)
(0.0059428955 0.0097636303 -0.0067940268)
(0.004588684 0.0078602849 -0.0062675258)
(0.0034765682 0.0056118644 -0.0050675691)
(0.0036024361 0.0036829952 -0.0030592612)
(0 1.2327399e-19 0)
(0 4.6891526e-20 0)
(0 1.2170762e-19 0)
(0 1.2251864e-19 0)
(0 1.2769409e-19 0)
(0 7.679309e-20 0)
(0 3.0613041e-21 0)
(0 -6.9583964e-20 -7.634926e-20)
(0 8.23966e-21 0)
(0 7.4077363e-20 0)
(0 1.7862439e-19 0)
(0 1.5651223e-19 0)
(0 1.1203399e-19 0)
(0 1.0827213e-19 0)
(0 1.2363786e-19 0)
(0 5.1425533e-19 0)
(0 2.1896309e-19 0)
(0 8.0353228e-20 0)
(0 1.4503349e-19 0)
(0 -1.2627058e-20 0)
(0 3.3805228e-20 0)
(0 3.8520873e-19 0)
(0 -1.5675601e-19 -6.7974287e-20)
(0 2.2912602e-19 0)
(0 2.8643164e-19 0)
(0 9.4656004e-20 0)
(0 3.8744641e-20 0)
(0 8.9929663e-20 0)
(0 1.6213712e-19 0)
(0 2.0855157e-20 0)
(0.53172999 -0.055578127 1.5698628e-05)
(0.53172807 -0.055538051 1.8425941e-05)
(0.53173373 -0.055518176 1.6772935e-05)
(0.53174323 -0.055512743 1.2433892e-05)
(0.53175566 -0.055517303 4.0801708e-06)
(0.53176851 -0.055528038 -6.3551198e-06)
(0.53177929 -0.055539577 -1.9098593e-05)
(0.53178564 -0.055549552 -3.2678157e-05)
(0.53178706 -0.05555639 -4.6772311e-05)
(0.53178358 -0.055560926 -6.0096206e-05)
(0.53177696 -0.055564306 -7.1904218e-05)
(0.53176876 -0.055570751 -8.0787477e-05)
(0.53176256 -0.055585509 -8.6647495e-05)
(0.53176025 -0.05561496 -8.6458718e-05)
(0.53176435 -0.055659549 -8.3300041e-05)
(0.53497759 0.024735589 -0.00013059292)
(0.53497054 0.024717292 -0.00013393918)
(0.53497075 0.024713972 -0.00013408003)
(0.53497831 0.024720558 -0.00013001534)
(0.53498902 0.02473289 -0.00012259541)
(0.53500141 0.024746704 -0.00011197692)
(0.53501142 0.024758573 -9.9423807e-05)
(0.53501666 0.024765915 -8.5716974e-05)
(0.53501614 0.0247679 -7.1718393e-05)
(0.53501008 0.024765011 -5.8220561e-05)
(0.53500052 0.024759196 -4.6257453e-05)
(0.53498995 0.024753763 -3.6986819e-05)
(0.53498144 0.024752038 -3.0083092e-05)
(0.53498045 0.024761627 -3.020433e-05)
(0.53498516 0.024781608 -3.148564e-05)
(0.001487335 0.0029095648 0.0040346838)
(0.0024781441 0.004694697 0.0046390536)
(0.0035213551 0.0066428357 0.0056385505)
(0.0049836595 0.0084519596 0.0059844929)
(0.0065714207 0.010232739 0.0063250559)
(0.008592429 0.01201644 0.0064008188)
(0.010837777 0.013759237 0.0064290109)
(0.013428755 0.01550217 0.0063557754)
(0.016246511 0.017200808 0.0062497239)
(0.019338148 0.018864321 0.0061125165)
(0.022658693 0.0204837 0.0059495182)
(0.026202891 0.022062579 0.0057969234)
(0.029948279 0.023581103 0.0056347765)
(0.033891034 0.025056148 0.0054855424)
(0.03802533 0.02646852 0.0053388314)
(0.042344206 0.027838009 0.0052035572)
(0.046841633 0.029142565 0.0050732987)
(0.05151295 0.030401839 0.0049496087)
(0.056367296 0.031597117 0.0048258654)
(0.061394278 0.032750093 0.0047017299)
(0.066592502 0.033837572 0.0045776616)
(0.071966265 0.034874669 0.0044460917)
(0.077503952 0.035860158 0.0043088204)
(0.083206888 0.036781128 0.0041682069)
(0.089072204 0.037650148 0.0040156233)
(0.095090044 0.038458681 0.003860167)
(0.10125073 0.039209495 0.0036960498)
(0.10755059 0.039896055 0.003529394)
(0.11398085 0.040523629 0.0033565307)
(0.120525 0.041090595 0.0031803525)
(0.12717657 0.041592675 0.0030038397)
(0.13392604 0.042036736 0.0028269339)
(0.14075813 0.042418427 0.0026524657)
(0.14766085 0.042741819 0.0024795824)
(0.15462411 0.043008542 0.0023097948)
(0.16163516 0.043219363 0.0021477735)
(0.16868562 0.043381728 0.001992184)
(0.17576423 0.043490949 0.0018452053)
(0.18286576 0.04355799 0.0017039811)
(0.1899801 0.043578563 0.0015750563)
(0.19710528 0.043557759 0.0014510783)
(0.20423417 0.043498491 0.0013348316)
(0.21137113 0.043400997 0.0012222338)
(0.21850874 0.043268657 0.0011146342)
(0.22565008 0.043103299 0.0010069302)
(0.23279314 0.04290551 0.00089986803)
(0.23993852 0.042676988 0.00079110415)
(0.24708507 0.042418206 0.00067980742)
(0.25423187 0.042129975 0.00056526599)
(0.26137691 0.041812592 0.00044698094)
(0.26851785 0.041466435 0.00032486082)
(0.27565134 0.041091828 0.00019916417)
(0.28277332 0.040689214 7.0513396e-05)
(0.28987884 0.040259196 -6.0011191e-05)
(0.29696209 0.039802572 -0.00019096423)
(0.30401655 0.039320332 -0.00032055378)
(0.31103512 0.038813662 -0.00044681625)
(0.31801044 0.038283964 -0.000567701)
(0.32493502 0.037732792 -0.00068134089)
(0.33180173 0.037162102 -0.00078604958)
(0.33860375 0.036573984 -0.00088048266)
(0.34533503 0.035970742 -0.00096344377)
(0.35199014 0.035355451 -0.0010342695)
(0.35856434 0.034731163 -0.0010926741)
(0.36505533 0.03409964 -0.0011369517)
(0.37145758 0.033466066 -0.0011682079)
(0.37777204 0.032831056 -0.0011889004)
(0.3840013 0.032197127 -0.0011941534)
(0.39014505 0.031568687 -0.0011914572)
(0.39620339 0.030946393 -0.0011748285)
(0.40218337 0.030331655 -0.0011525118)
(0.40808718 0.029727095 -0.0011228956)
(0.41392033 0.029132932 -0.0010890458)
(0.41968708 0.028550491 -0.0010532453)
(0.42539268 0.02798149 -0.0010166836)
(0.43104089 0.027425858 -0.00098104023)
(0.43663618 0.026884799 -0.00094712048)
(0.44218174 0.026358035 -0.00091552548)
(0.44767993 0.02584632 -0.00088657195)
(0.45313283 0.025349451 -0.00085999401)
(0.45854052 0.024867524 -0.00083477031)
(0.46390339 0.024401529 -0.0008109948)
(0.46921918 0.023952044 -0.00078472946)
(0.4744883 0.023518359 -0.0007573339)
(0.47970677 0.023106039 -0.00072359948)
(0.48487256 0.022709805 -0.00068418616)
(0.48998932 0.022333618 -0.00063721876)
(0.495057 0.021976651 -0.00058245425)
(0.50008299 0.021639472 -0.0005210826)
(0.50507165 0.021320781 -0.00045467287)
(0.51003358 0.021021541 -0.00038594861)
(0.51497911 0.02073872 -0.00031821927)
(0.5199188 0.020474357 -0.00025527622)
(0.52486141 0.020225135 -0.0002007635)
(0.52982005 0.019997139 -0.00015228947)
(0.00055204515 0.0025798708 0.0035083988)
(0.0014619457 0.0035481158 0.0042479797)
(0.0027693625 0.0055111843 0.0048851718)
(0.0040860939 0.0069391776 0.0053228105)
(0.0057974968 0.0085836262 0.0055048751)
(0.0077546949 0.010103203 0.0055970099)
(0.010053024 0.011671613 0.0055908459)
(0.012603593 0.013171634 0.0055406132)
(0.01544682 0.014660206 0.005446007)
(0.018537816 0.016104535 0.0053217619)
(0.021865634 0.017515259 0.0051955626)
(0.025411986 0.018880788 0.0050548132)
(0.029164494 0.020202906 0.0049226775)
(0.033118786 0.021475684 0.0047902278)
(0.037258226 0.02270212 0.0046684875)
(0.041584242 0.023876703 0.0045482156)
(0.046082821 0.025004124 0.004438671)
(0.050767752 0.026076908 0.0043294853)
(0.055623311 0.027103254 0.0042231855)
(0.060655567 0.028075712 0.0041166315)
(0.065859628 0.02899938 0.0040075666)
(0.071235385 0.029873238 0.0038933176)
(0.0767794 0.030694466 0.003777817)
(0.082489077 0.031464703 0.003653448)
(0.088358945 0.032182961 0.00352473)
(0.094380823 0.032851182 0.0033893125)
(0.10055078 0.033463101 0.0032507835)
(0.10685924 0.03402465 0.0031066413)
(0.11329517 0.034531032 0.002958776)
(0.11985086 0.034985589 0.0028094317)
(0.12651457 0.035385665 0.0026599577)
(0.13327237 0.035733348 0.0025088426)
(0.14011448 0.036030951 0.0023590268)
(0.14702801 0.036277802 0.0022114332)
(0.15400517 0.036477867 0.0020673597)
(0.16103013 0.036631254 0.0019299419)
(0.16809476 0.036740291 0.0017969962)
(0.17518836 0.036807073 0.0016701511)
(0.18230362 0.036834039 0.0015514387)
(0.18943142 0.036822057 0.0014388243)
(0.1965712 0.036772786 0.0013326297)
(0.2037162 0.036690065 0.0012302824)
(0.21086485 0.036570805 0.0011352344)
(0.21801674 0.036421506 0.0010402443)
(0.22517083 0.036240825 0.00094718414)
(0.23232722 0.036030805 0.00085367214)
(0.23948521 0.035792267 0.00075903721)
(0.24664446 0.035526339 0.00066206026)
(0.25380379 0.035233836 0.00056241813)
(0.26096152 0.034915387 0.00045950087)
(0.26811526 0.034571724 0.00035342472)
(0.27526177 0.034203485 0.00024432566)
(0.28239698 0.033811521 0.00013282578)
(0.28951595 0.033396765 1.9833536e-05)
(0.29661288 0.032960363 -9.3418701e-05)
(0.30368129 0.032503549 -0.00020541391)
(0.31071406 0.032027698 -0.00031450595)
(0.3177038 0.031534273 -0.00041902389)
(0.32464302 0.031024784 -0.00051735863)
(0.33152444 0.030501004 -0.0006081865)
(0.33834107 0.029964629 -0.00069030072)
(0.34508672 0.029417653 -0.00076270328)
(0.35175565 0.028862701 -0.00082529905)
(0.35834354 0.028301188 -0.00087653142)
(0.3648464 0.027735323 -0.00091676534)
(0.37126073 0.027168911 -0.00094760816)
(0.3775918 0.026601148 -0.00096503355)
(0.38383311 0.026037845 -0.00097391641)
(0.38998477 0.025478328 -0.00097061193)
(0.3960516 0.024923859 -0.00096071919)
(0.40203752 0.02437365 -0.00094335154)
(0.40794767 0.023832238 -0.00092107211)
(0.41378505 0.023298428 -0.00089517769)
(0.41955521 0.022774174 -0.00086707476)
(0.42526258 0.022260525 -0.00083840955)
(0.43091203 0.02175774 -0.00081013846)
(0.43650759 0.021267776 -0.00078345699)
(0.44205257 0.020789822 -0.000758237)
(0.44754984 0.020325839 -0.00073532265)
(0.45300136 0.019875196 -0.00071391456)
(0.45840663 0.019439521 -0.00069388064)
(0.46376785 0.019018598 -0.00067403021)
(0.46907947 0.018615315 -0.0006533244)
(0.47434503 0.018228918 -0.00062755769)
(0.47955423 0.017857092 -0.00059965045)
(0.48471877 0.017503694 -0.00056881881)
(0.48983153 0.017167668 -0.00053108466)
(0.49489744 0.01684745 -0.00048702301)
(0.49991956 0.016543683 -0.00043869842)
(0.50490719 0.016253232 -0.00038455103)
(0.50986522 0.015979466 -0.00033119778)
(0.5148091 0.01571387 -0.00027494383)
(0.5197447 0.015465842 -0.00022595851)
(0.52468386 0.015225704 -0.00017781873)
(0.52963868 0.015003408 -0.00013720813)
(4.187269e-05 0.0020080043 0.0030939059)
(0.00090280653 0.0028855788 0.003609599)
(0.0018952433 0.0043779385 0.0042814123)
(0.0033440139 0.0056751346 0.0045528745)
(0.0050092109 0.0070106153 0.0047020766)
(0.0070387012 0.0083729702 0.0047435235)
(0.0093113169 0.0096725197 0.0047482499)
(0.011902869 0.010963587 0.0046954397)
(0.014743773 0.012214002 0.0046027444)
(0.017842794 0.013448897 0.0045135783)
(0.021173004 0.014630894 0.0043947438)
(0.024726607 0.015791742 0.0042883363)
(0.028486573 0.016898529 0.0041713813)
(0.032441818 0.017975771 0.0040695202)
(0.036588723 0.018999429 0.0039616523)
(0.040915573 0.019988036 0.0038693875)
(0.04542684 0.020923421 0.003772908)
(0.050110827 0.021821013 0.0036854691)
(0.054972332 0.022666556 0.0035953039)
(0.060007928 0.02347213 0.0035070016)
(0.065216077 0.024228941 0.0034151376)
(0.070596519 0.024940948 0.0033221314)
(0.076143558 0.025607737 0.0032224329)
(0.081856426 0.026227889 0.0031198927)
(0.087728597 0.026803462 0.0030110292)
(0.093755991 0.027331546 0.00289912)
(0.099929545 0.027814471 0.002782434)
(0.10624132 0.028250284 0.0026622332)
(0.1126834 0.028640298 0.0025403819)
(0.11924442 0.028983599 0.0024165512)
(0.12591182 0.029281908 0.0022913345)
(0.13267753 0.029535812 0.0021665038)
(0.13952741 0.029746594 0.0020427267)
(0.14645119 0.029914558 0.0019216956)
(0.15343654 0.030042143 0.0018031736)
(0.16046924 0.03013182 0.0016885761)
(0.16754179 0.030183583 0.0015785751)
(0.17464381 0.030199706 0.001476263)
(0.18176866 0.030182144 0.0013768073)
(0.18890957 0.030133004 0.001284569)
(0.19606003 0.03005141 0.0011965519)
(0.20321681 0.029939649 0.0011139166)
(0.21037718 0.029798785 0.0010336741)
(0.21754102 0.02962965 0.00095572119)
(0.22470691 0.029433791 0.00087830156)
(0.23187458 0.029212005 0.0008007917)
(0.23904385 0.028965463 0.00072185035)
(0.24621426 0.028695017 0.00064095051)
(0.2533847 0.02840153 0.00055751796)
(0.26055363 0.028085688 0.00047124914)
(0.2677186 0.02774836 0.00038216674)
(0.27487641 0.02739029 0.00029045504)
(0.28202297 0.027012514 0.00019663788)
(0.28915333 0.026616074 0.00010151451)
(0.29626166 0.026202272 6.1123439e-06)
(0.3033415 0.025772398 -8.8254524e-05)
(0.31038573 0.025327914 -0.00018025843)
(0.31738702 0.024870246 -0.00026843279)
(0.32433781 0.02440091 -0.00035152595)
(0.33123082 0.023921413 -0.00042834753)
(0.33805903 0.023433387 -0.00049791861)
(0.34481612 0.022938584 -0.00055963936)
(0.35149621 0.022438773 -0.00061295065)
(0.35809538 0.021935367 -0.00065668332)
(0.36460759 0.021430873 -0.0006928509)
(0.37103615 0.020927457 -0.00071737044)
(0.37736928 0.020420628 -0.00073647756)
(0.38361362 0.019919889 -0.00074189598)
(0.38977708 0.019427934 -0.00074409077)
(0.39585219 0.01893518 -0.00073710002)
(0.40184686 0.018450265 -0.0007249802)
(0.40776337 0.017970796 -0.00070841609)
(0.41360637 0.017497892 -0.00068826032)
(0.41938177 0.017032697 -0.00066708251)
(0.42509388 0.01657678 -0.00064582317)
(0.43074633 0.016130187 -0.00062518298)
(0.43634448 0.015693598 -0.00060584177)
(0.44189079 0.015267841 -0.00058813001)