/*--------------------------------*- C++ -*----------------------------------*\
  =========                 |
  \\      /  F ield         | OpenFOAM: The Open Source CFD Toolbox
   \\    /   O peration     | Website:  https://openfoam.org
    \\  /    A nd           | Version:  6
     \\/     M anipulation  |
\*---------------------------------------------------------------------------*/
FoamFile
{
    version     2.0;
    format      ascii;
    class       pointScalarField;
    location    "1.25";
    object      E;
}
// * * * * * * * * * * * * * * * * * * * * * * * * * * * * * * * * * * * * * //

dimensions      [1 -1 -2 0 0 0 0];

internalField   nonuniform List<scalar> 
3969
(
35349.333
35025.531
-1150561
-534361.26
40565.917
38503.954
-808268.82
-1729700
19046.993
8117.9891
2989.3481
2247.4084
5605.4342
13583.372
29449.681
-631120.66
-623578.32
-618529.33
-613642.57
-610234.77
-606348.65
-454269.9
37591.433
30927.167
31097.865
31272.017
30552.288
29956.307
28399.898
27512.636
25476.472
24290.184
22884.426
21448.824
20188.462
18772.893
17747.621
16322.342
15502.426
14307.353
13488.205
12538.945
11739.928
11055.468
10317.969
9827.217
9242.9722
8995.9864
8489.4847
8251.7869
8065.7443
7847.0179
7717.3545
7709.8627
7642.2608
7696.2839
8010.5677
7896.7908
8744.3342
8387.9751
9728.0719
9174.7657
10778.904
11067.608
11496.625
13504.885
13325.311
13396.258
15750.954
35311.366
22900.74
30379.873
26803.402
28358.783
25982.814
25794.648
23872.635
22605.461
21577.591
19251.16
18763.354
17046.518
16114.183
14661.467
13651.475
12947.009
11467.393
11289.197
10075.431
9538.2762
9149.4579
8103.4073
7903.0454
7277.3094
7257.6107
6257.2611
6231.8289
5848.5403
5667.7018
5759.2383
5575.4678
5695.4503
5702.9485
5954.395
6105.3056
6579.3731
6705.6199
7208.5882
7689.8687
8368.9862
9006.9114
9641.6543
10437.443
11531.075
12622.901
13404.932
20691.834
9374.8985
3171.6424
3584.5838
4979.7671
12231.179
25241.3
53608.276
38178.132
25796.046
37762.241
31778.658
32177.121
31971.814
27671.223
29672.466
22834.107
27207.186
22559.636
22750.936
21297.235
19282.349
19118.095
16872.89
16320.71
14960.733
13857.979
12976.391
12042.61
11356.604
10558.064
9948.2209
9709.6223
7831.6619
7352.1449
6977.3494
6511.4405
6077.2362
5780.6083
5463.542
5346.2397
5131.7022
4708.0792
6888.344
4970.3518
5566.6956
5767.0522
5924.4715
6602.583
6796.3546
7521.3146
8197.8396
9659.4422
7721.6214
-1302453.8
-1091140.7
-1318859.9
-1247017.7
-1256193.4
-1125925
-1370684.8
9901.6109
11301.353
12891.048
11947.311
11180.794
10263.685
9683.642
8980.1518
8538.6388
8521.7294
8501.9002
6082.8942
7434.7465
7166.0979
7125.4577
7160.9447
7129.5069
7294.7674
7377.7119
7615.6748
7806.9103
8141.0556
8503.7035
8900.22
9398.4732
9931.8532
10631.807
11255.174
12235.746
12910.59
14186.693
15168.244
16374.909
16912.171
18839.862
20265.247
21944.307
23261.325
24792.914
26205.105
28756.384
28388.349
32126.783
30054.521
31358.903
31103.506
43000.714
28209.849
27421.494
27127.83
27054.499
27023.608
26825.802
28311.683
22271.715
23911.779
25910.51
26837.894
26932.657
28559.928
23561.57
-602469.3
-603059.51
-602692.01
-603189.13
-603220.16
-603212.71
-604176.79
-1295090.2
-1295770.1
-1296061.2
-1296205.3
-1296295.5
-1297298
-1297073.2
24157.758
19895.607
20761.423
20328.759
20203.191
19937.822
18876.688
18342.74
17138.47
16503.148
15540.87
14541.242
13848.393
12959.884
12201.892
11490.462
10909.235
10167.456
9663.8455
9097.709
8655.0244
8163.3121
7857.2303
7423.331
7193.4053
6989.8367
6670.6779
6760.3121
6546.8879
6582.0695
6664.5733
6769.2775
6902.929
7180.9666
7402.5063
7697.1798
8287.2854
8600.499
9164.7002
9707.6799
10671.2
10561.361
12526.879
12298.664
13867.281
16429.473
16673.479
10847.736
9161.3341
10185.279
9956.8859
9940.2831
9887.0796
9054.3174
9083.1629
8249.4648
7983.6214
7375.7294
6968.2148
6657.0553
6155.2421
5910.763
5468.0842
5180.711
4808.075
4517.1614
4338.3129
4114.5929
4079.2895
3825.7203
3903.6666
3831.7259
3914.2091
3854.9323
4068.4387
4086.2576
4398.4872
4662.956
4989.7936
5403.6556
5897.6047
6436.5699
6962.415
7852.4682
7755.1412
9571.5467
9241.8323
11053.869
11252.287
12889.114
13000.414
15711.973
15080.5
17337.379
4227.7552
2136.4839
3541.6254
2978.9504
3283.5478
3234.4485
3269.4881
3338.7383
3045.4869
3331.8184
3020.3695
2982.2983
2754.2431
2662.052
2492.6552
2359.213
2323.2063
2153.9638
2226.4728
2023.7632
1909.9387
1616.6012
1658.6086
1644.2519
1658.9564
1705.7299
2120.3076
2234.3415
2614.1183
3000.918
3331.1608
3883.0395
4325.664
4965.3849
5477.1287
6366.0359
6774.2513
8227.6415
8832.9591
9566.189
11002.058
11040.273
12810.53
13124.619
14892.067
14977.72
17519.838
2055.3533
162.73964
829.05403
819.6732
787.67184
1137.3978
673.47843
1034.5647
696.369
638.33936
425.03117
583.43439
280.32328
476.33404
94.797504
377.47893
33.620287
350.49316
82.344647
241.0092
365.40562
863.6554
1203.8681
1446.9713
1543.626
1880.1922
1919.9711
2215.0853
2544.9212
2883.1314
3277.7899
3816.9033
4252.8339
4886.3825
5604.1833
6048.8093
7115.8656
7523.048
8177.0585
8936.869
9974.0573
10515.929
12269.615
12307.801
14727.39
14363.338
17727.882
5179.4778
2436.9372
3094.0159
2264.8668
2398.5605
2435.3157
1978.5195
2241.4609
1962.037
1827.1354
2005.3361
1641.6094
1605.6559
1428.7498
1465.5259
1246.6039
1236.6932
1121.8227
1074.6134
1059.1701
1411.6977
815.41522
809.23169
893.09931
1146.3949
1181.4299
1488.1938
1841.4032
2148.7599
2564.531
3016.2553
3545.4704
4101.8111
4753.1817
5292.6073
6251.9232
6651.9567
7818.0537
8420.6567
9606.4609
10035.638
11404.799
12147.644
13229.855
14302.05
15039.938
18206.786
12714.208
9606.4503
10236.026
9744.8616
10068.028
9825.5158
9468.3567
9076.9895
8679.1548
7983.0226
7648.7474
7267.7611
6675.6473
6399.3137
5804.4514
5631.1301
5101.026
4962.222
4656.6167
4426.7698
4128.818
4523.1749
3663.5483
3403.3995
3395.7065
3259.6962
3314.2676
3470.1393
3579.6538
3856.014
4081.0093
4434.8272
4818.6706
5247.6054
5822.9288
6268.592
7094.8128
7482.3505
8417.725
9130.6847
10056.752
11209.586
11632.578
12953.238
13696.123
14125.942
17357.267
19941.534
16635.26
17350.385
17006.001
17275.706
16561.975
16159.843
14832.214
15124.263
12981.997
13751.718
11930.063
11835.516
10633.873
10323.549
9519.7147
9037.4132
8504.8966
7969.5057
7587.8791
7358.2935
6587.026
7022.4552
6280.4382
6458.3404
6328.1675
6419.4264
6497.1573
6613.6989
6735.3487
6851.9491
7196.3784
7356.4024
7806.5075
7997.2886
8544.8032
8847.0543
9658.8643
10020.094
10710.109
11345.283
12070.049
12827.014
14218.689
14318.842
16577.225
17873.15
11505.457
11681.222
9881.8002
9749.0023
10037.836
10305.588
13120.718
5117.085
4400.0412
3868.9261
3783.5544
4003.1037
4371.3153
5824.4307
1616.3052
944.06915
438.36762
558.36956
493.24158
734.9559
1523.0741
1008.9018
441.01838
295.18786
243.34276
419.54363
922.05521
1868.934
2064.3597
1274.541
872.63205
800.02981
929.10114
1436.1063
2507.5798
7102.729
4929.994
4347.5341
3970.3986
4235.8569
5080.8385
7613.0407
13145.511
13602.059
10841.106
11217.175
11043.438
11977.501
16254.211
41102.081
37395.589
40130.259
43084.519
43281.975
45738.646
44198.442
34752.069
35812.784
32513.685
31382.514
35760.592
35941.647
38448.638
31270.165
32287.475
34295.696
33619.196
33349.657
33591.733
35684.847
32086.077
35677.136
34164.953
35453.211
35909.68
36891.432
33849.757
31076.233
31904.539
34403.063
33999.242
34032.414
33234.436
34270.124
30120.507
30126.601
30329.462
31746.46
31397.469
31410.119
30728.236
28030.682
28693.468
31001.73
30686.386
31317.595
31769.92
31744.078
27227.3
26984.26
26981.876
27507.797
27247.232
26888.626
27206.001
25585.719
25130.572
26551.516
26786
27840.982
28151.278
29040.321
23672.485
23688.71
23561.438
25067.851
23691.744
23644.902
24509.186
23167.952
22427.889
23658.262
22503.947
23893.661
23991.504
24446.76
20641.615
21059.651
20382.081
22028.661
21933.323
20127.552
22710.067
20439.094
19038.716
20426.456
19544.416
19837.914
20855.896
20933.194
17956.775
17995.388
18808.442
18115.773
20006.093
17944.203
20357.44
17608.814
17051.259
17212.814
17543.662
17241.102
17335.728
18270.006
16208.684
15014.37
16851.838
15496.253
17128.342
16143.176
17811.945
14816.429
14879.245
15214.937
14787.703
15605.281
14791.019
16196.899
14328.49
13111.63
14618.431
13640.682
14719.991
13962.844
15239.713
13034.506
12536.791
13722.01
12528.549
13786.976
12770.182
14344.568
12372.204
11620.448
12775.162
11815.921
12929.543
12003.35
13407.185
11675.333
10803.047
12130.3
10907.238
12115.352
11051.451
12605.978
10908.268
10174.991
11350.786
10195.968
11382.43
10281.357
11859.999
10274.848
9563.987
10609.804
9603.5865
10653.259
9673.3825
11260.602
9620.9542
9055.0031
9985.3095
8961.7051
9963.9365
9056.016
10473.22
8973.1187
8740.1095
9159.7498
8827.8686
9390.6375
8461.6878
9848.2688
8419.4905
8424.2805
8486.3405
8345.7097
8651.5642
8173.0653
9648.1385
8235.8416
8064.2499
8340.6651
7870.1774
9277.3698
7851.4401
8958.5339
8348.9329
7572.398
8238.1617
7433.5225
8046.7987
7172.3325
8356.1085
7631.8239
7489.3433
7559.7401
7362.4731
7592.271
7295.646
7759.6897
7780.0453
6917.2394
7711.8219
6855.0839
7419.778
6779.2212
7351.5564
7227.4602
6943.8397
7238.1698
6640.2489
7054.4377
6518.8882
6981.6883
7250.5725
6700.5619
7136.6554
6469.8216
6918.8974
6334.2791
6746.4579
7050.8506
6639.4615
6986.3731
6348.2283
6716.0206
6145.6307
6512.1049
6975.7146
6564.6452
6919.3159
6271.1792
6655.5707
6093.5155
6384.2402
6974.0671
6679.2232
6923.0215
6321.818
6574.6801
6045.5886
6288.4684
7089.3892
6706.3452
7058.2477
6322.8631
6761.1364
6563.1532
6412.7162
7121.903
6958.0699
7021.9069
6592.4053
6994.3981
5707.3521
6547.881
6906.2826
7062.4622
7138.7581
6810.523
6779.0472
7136.3879
6587.8089
7704.3327
7501.3262
7698.6474
7005.9254
7399.4211
6683.3148
6713.5772
8180.0774
7799.716
8043.2224
7482.3052
7688.1128
7074.1138
7219.2382
8436.5736
8132.4547
8409.1956
7745.1308
8023.7966
7509.2196
7503.8318
9118.8214
8777.6893
9129.36
8546.5648
8764.5799
8163.7911
8000.8061
9454.7498
9109.6941
9415.6588
8830.1934
9070.1256
8522.2617
8533.5274
10195.056
9904.3742
10211.402
9773.1573
9848.7624
9437.5672
9085.7639
10988.854
10835.692
11073.58
10606.713
10854.125
10310.52
9975.6332
12313.534
12066.331
12372.708
12032.972
12091.507
11736.783
11499.058
11098.378
11443.771
11522.385
11373.021
11449.157
11092.91
10845.5
-771472.6
-849630.4
-849467.82
-849652.05
-849925.07
-849740.16
-849745.13
-840214.84
-840205.36
-840026.52
-840346.57
-840258.06
-905841.42
-840091.21
-896953.66
-830493.75
-830615.14
-830712.85
-830580.07
-752789.06
-830886.16
-825960.31
-825428.84
-826346.56
-826188.08
-826653.97
-826213.74
-826404.01
-819718.16
-743229.14
-819170.7
-819297.93
-818903.2
-818976.66
-819242.6
-739309.88
-878474.69
-815077.61
-814927.86
-879285.72
-814874.21
-815086.24
-871839.36
-807594.8
-808466.3
-808158.53
-732925.89
-808342.27
-808481.49
36555.934
33398.772
31438.447
30505.515
31002.739
31916.776
32249.964
34294.568
31854.436
31663.566
31544.64
31475.291
31950.257
32815.355
34175.33
34437.105
33763.249
33199.513
34032.403
33303.111
33267.035
32830.678
33108.118
32922.951
33232.062
32480.433
31624.531
31678.865
32726.94
32409.784
32834.375
32402.728
32275.027
31444.618
31061.792
30190.487
30270.633
29770.013
29600.151
29309.763
28395.541
28621.529
30085.823
29337.702
29234.896
28844.553
28824.905
28541.585
28395.45
27366.025
26943.119
26480.696
26303.28
25726.534
25408.295
25746.394
26761.147
25997.743
25856.991
25219.981
25448.229
24431.331
25120.6
24970.559
23980.722
23702.275
23269.8
23065.955
22682.114
23067.167
23436.322
22796.009
22695.977
22021.718
22029.5
21180.009
21540.9
22159.238
21379.987
20780.046
20884.694
20352.264
20304.949
20387.393
20722.524
20036.953
19842.733
19184.164
19011.287
18221.686
18763.139
19374.45
18716.273
18227.198
18048.016
17833.448
18128.524
18039.463
18453.572
17499.431
17138.826
16966.371
16991.41
15830.951
16486.876
17054.098
16409.687
16247.596
15499.441
15576.882
15042.503
15212.855
16004.288
15483.671
15104.882
14883.687
14721.732
14077.165
14443.468
15089.367
14326.717
14278.21
13737.1
13600.945
13115.984
13266.426
14089.408
13576.082
13329.997
12865.738
12912.055
12249.661
12572.951
13342.991
12729.436
12492.04
12184.509
12010.875
11460.352
11729.642
12541.341
11929.364
11816.718
11340.102
11314.896
10784.406
11102.859
11932.885
11361.757
11142.783
10800.017
10740.153
10165.999
10481
11280.036
10605.447
10521.953
10164.324
10129.844
9595.1382
9974.4628
10846.125
10200.087
10072.189
9752.5037
9721.661
9187.2644
9521.2974
10354.967
9653.7631
9602.9124
9304.5706
9272.3465
8792.3934
9111.9869
10088.065
9324.9141
9290.2215
8980.254
8978.9177
8474.2266
8796.8853
9583.2034
8942.9704
8931.203
8650.1788
8613.1228
8164.3297
8457.8614
9425.1995
8726.2123
8699.2343
8430.5313
8455.7082
7984.9849
8287.6275
9155.5106
8386.7551
8492.9319
8244.524
8166.0667
7789.28
8029.894
8864.6569
8378.9047
8291.2464
8068.6563
8074.2583
7688.7717
7927.356
8830.6817
8121.4444
8170.1727
8023.4295
7946.4417
7576.342
7809.3245
8618.851
8096.3973
8110.1437
7919.2608
7842.388
7580.9682
7755.7615
8579.2044
8077.106
8055.954
7962.6925
7894.1327
7583.8204
7756.0254
8579.2356
8056.8725
8083.6052
8026.9447
7864.3204
7701.3134
7812.2218
8628.9562
8215.5864
8217.2276
8099.597
7960.5651
7707.1361
7948.649
8679.6054
8276.0141
8313.6396
8242.7558
8227.2212
8606.5681
8300.4615
9400.9565
8513.1875
8585.7226
8376.5468
8605.1871
7400.6148
8464.606
8957.6017
8764.3883
8805.8156
8706.6425
8648.0032
8679.1907
8790.6519
9709.5537
9707.1831
9432.5641
9502.1276
9168.4268
9098.802
9305.2194
10057.829
9437.8078
9592.7766
9651.5538
9506.226
9575.4967
9781.4828
10820.022
10687.674
10649.438
10534.815
10360.147
10163.331
10457.213
11534.029
11195.576
11018.116
11328.213
11008.153
11032.487
11188.704
11929.503
11271.932
11649.239
11513.823
11398.054
11530.938
12038.225
13273.641
13503.848
13177.422
13365.613
13091.302
13311.608
12903.168
13953.005
12850.456
13173.281
12962.6
13010.409
12990.575
13304.342
11933.206
12663.067
12519.269
12739.237
12436.635
12440.585
12572.48
13989.253
12545.771
12455.989
12329.68
12152.962
12440.548
12407.882
38539.11
26832.44
24571.446
24211.277
24427.759
23504.259
22553.387
21337.386
20371.75
19215.847
18558.668
16674.89
16313.832
14868.421
13875.242
13693.219
12376.461
11910.694
10991.509
10545.771
9820.3764
9371.1712
8888.2762
8447.5851
8083.4721
7718.5477
7585.6337
7362.0546
7291.5191
7237.25
7257.5345
7363.4649
7445.1082
7663.8513
7855.7724
8132.1174
8154.891
9021.1802
9042.426
9411.5322
9985.3073
10436.934
11083.794
11841.75
13186.927
15612.107
17366.544
16977.712
16632.655
12445.001
12925.495
13510.416
11451.928
12112.554
10993.671
10804.374
10131.533
9343.203
8853.0864
8380.4161
7763.214
7336.5689
6885.5115
6496.3751
5976.2769
5840.5881
5483.2551
5248.1221
5153.1792
4931.7568
4945.3125
4780.722
4812.1564
5200.579
5057.3363
5315.0753
5482.03
5778.3466
6088.3493
6470.8788
6904.285
7413.4697
7912.2158
8574.1956
9142.5574
10005.075
10621.088
11783.927
12418.167
13639.559
14270.62
15992.307
14653.459
18571.724
5942.7842
5691.4324
4353.7739
5253.8047
4513.528
3687.7614
4614.1839
3321.8757
4192.9998
3259.7594
3446.7036
3588.8088
2885.639
3168.0695
2882.8881
2732.3086
2677.2772
2521.5476
2494.4871
2347.9322
2338.9934
2285.2568
2321.0184
2275.4092
2438.8726
2363.6584
2798.1142
2701.0952
3170.8363
3428.2484
3830.8267
4215.0916
4721.2977
5194.842
5767.7577
6357.9331
6903.6254
7719.2632
8318.056
9165.4633
9868.1277
10799.039
11485.023
12862.397
13137.017
14670.721
17584.835
1875.3667
2124.4125
-66.832787
2961.988
-20.415516
2328.3503
-413.37639
1128.2407
547.014
114.94984
1197.8973
-313.71963
734.54589
953.77317
708.03432
948.9062
754.1731
742.9637
778.17169
815.64007
828.61828
963.08964
971.26171
1308.4309
1456.853
1889.7071
1933.0712
2408.602
2657.9728
3062.6964
3462.9286
3982.2541
4541.4503
5052.1599
5812.1054
6387.2419
7275.9154
7948.6687
8936.8758
9541.9818
10871.319
11325.722
12941.755
13133.826
15217.6
14242.483
18240.918
4669.0222
1085.3636
2137.1815
1756.8144
1611.8252
2161.6885
1670.137
2711.2354
1009.362
2869.6813
1035.3403
2307.9388
1647.7093
1629.622
1767.7481
1573.706
1701.1606
1652.897
1732.3119
1682.6026
1735.6923
1696.9898
1924.8406
1856.218
1795.7755
1785.2232
2027.2093
2283.4122
2557.0569
2958.498
3373.6879
3851.832
4327.3115
4912.5301
5584.6921
6137.4083
6929.006
7709.943
8294.9749
9451.7833
10040.908
11218.15
11921.144
13273.809
13835.019
14959.34
17107.103
10374.482
9319.0899
5903.8852
9757.726
6214.3216
8963.0954
8076.1916
6702.4491
8984.1702
7100.3384
8289.6227
7690.8786
6766.3887
7104.6136
6153.7395
6014.7257
5455.9459
5130.8625
4750.3011
4488.532
4170.4868
3974.5351
3830.0498
3468.6319
3695.2883
3845.8388
3871.1323
3938.2188
4095.8992
4303.2992
4562.8544
4847.1033
5237.5208
5667.102
6182.5803
6587.2419
7455.8397
7679.8208
8833.1603
9243.8473
10240.917
10901.712
12035.51
12682.446
14137.927
14511.221
17069.286
29983.823
16287.884
20786.97
16502.374
19218.866
18320.135
17282.922
17864.643
16537.349
15988.734
14476.779
15998.716
13344.639
13664.228
12013.944
11752.373
10896.123
10268.647
9810.9289
9185.4161
8761.5507
8220.1571
7937.0489
7211.1748
7967.0193
6715.3667
6300.5555
6423.518
6340.4962
6517.4868
6632.1845
6838.9032
7088.0494
7406.6182
7636.4471
7871.9021
8576.2871
9211.457
9631.2701
10329.922
11082.156
11936.876
12822.138
14096.145
14801.671
16864.355
16669.416
29767.602
25287.153
24587.351
24094.723
24247.329
23981.42
24831.334
26072.443
26719.803
24801.384
24609.756
24171.16
24684.295
25182.119
24273.533
25589.544
25627.804
25138.068
25075.41
24848.757
24670.502
24064.329
24522.161
24534.15
24584.26
24109.078
23887.546
22946.771
23059.464
23749.761
24169.074
23579.551
23724.832
23092.488
22653.973
22276.978
22395.874
22059.256
22448.634
21851.288
21695.279
21588.838
21560.622
21345.038
21718.507
20941.542
20911.049
20791.111
20578.305
20237.437
20238.605
19814.066
19835.702
19610.151
19226.568
19343.548
19555.839
19366.938
19084.011
19037.741
18586.73
18715.817
18629.643
18236.629
18023.578
17709.012
17332.816
17054.738
17084.799
17002.076
17386.047
17361.19
16966.976
16844.664
16768.208
16618.092
16848.573
16457.276
16017.394
15850.919
15409.689
15122.604
15111.456
15126.793
15588.277
15403.087
14900.017
14756.384
14794.775
14508.711
14617.788
14687.853
14375.502
14280.466
13848.899
13802.852
13244.377
13752.911
13731.322
13707.001
12979.604
13047.376
12622.351
13016.467
12678.681
13144.323
12984.803
12488.146
12534.725
12170.197
11975.119
12063.791
12231.101
12066.722
11644.383
11582.123
11256.017
11335.887
11338.089
11540.291
11437.676
11039.744
10986.909
10720.783
10872.514
10736.346
10919.606
10733.104
10370.542
10364.432
10134.473
10115.991
10023.731
10297.251
10153.668
9805.9255
9897.2092
9524.9936
9678.8804
9621.8674
9852.9852
9577.8533
9362.0324
9356.0935
9078.6553
9195.4059
9051.6794
9355.374
9051.3507
8868.5986
8925.0174
8647.0945
8791.973
8626.8215
9057.4929
8646.0503
8595.7148
8568.1403
8285.5229
8333.1455
8247.819
8645.5849
8188.2387
8263.8173
8221.5813
7943.2086
8085.6164
7947.9458
8439.7354
7915.7553
8006.3386
7986.1152
7666.293
7696.2538
7615.1024
8078.3589
7596.304
7835.333
7703.695
7438.3073
7517.4129
7399.9458
7934.1717
7407.6786
7574.4479
7542.0029
7229.1966
7416.896
7223.3598
7835.044
7292.1959
7407.5655
7430.1971
7177.0764
7214.0079
7125.5704
7608.6557
7048.3812
7454.1294
7333.8827
7093.8039
7202.5352
7069.2993
7593.889
7177.7326
7403.4343
7300.6689
7122.4127
7203.5725
7065.1993
7624.5692
7104.314
7373.881
7392.0874
7157.173
7272.2457
7105.3413
7620.7062
7182.5985
7549.3576
7454.9235
7274.0784
7385.6241
7206.7837
7754.6217
7387.0878
7611.8174
7629.8666
7427.1442
7548.4539
7402.5591
7936.6289
7468.0611
7850.1159
7786.4043
7635.9535
7801.5051
7597.2389
8039.9285
7843.2292
8053.3776
8087.9738
7994.9361
8057.42
7855.6856
8569.2892
8065.3325
8364.601
8394.3928
8172.956
8201.3339
8036.2738
8468.5898
8247.6915
8700.2221
8566.8248
8654.994
8687.2624
8928.9485
9303.2394
8826.0722
9220.1852
9374.9699
8954.8767
9250.2806
8828.9176
9126.0667
9324.4095
9377.4867
9546.4657
9555.3593
9572.2244
9613.5806
10278.119
9821.2164
10072.717
10181.03
9908.9165
10158.906
9792.0195
10320.751
10401.858
10495.017
10688.043
10627.93
10678.793
10460.217
11063.69
10812.341
10920.739
11193.579
10801.408
11210.505
10999.973
12333.788
12041.923
12347.806
12312.671
12349.442
12369.93
11760.774
12208.281
12310.536
12113.115
12652.307
12170.845
12388.387
12208.196
14031.37
13372.095
14212.802
14042.132
14037.118
14162.525
13653.05
15948.451
16829.462
16452.129
16818.808
16521.753
16715.727
16396.538
17520.202
16486.717
17349.144
17074.286
17213.485
17052.734
17163.635
13287.061
10829.117
9769.0144
9475.214
9146.8824
9328.3687
9887.4089
13429.537
14416.473
13594.738
13702.548
13698.006
13905.623
14200.72
12657.546
12849.391
13004.475
12692.587
12794.624
12129.84
12278.29
12623.231
13339.819
13584.349
13704.378
13137.496
13040.549
11828.358
12243.785
12158.231
12679.311
12170.491
12491.332
11651.094
11667.801
11881.65
11900.457
11186.165
11484.258
10780.553
10841.289
10496.844
11293.772
10979.044
11390.388
10932.118
10978.589
10762.939
10260.853
10936.934
10779.001
10008.942
10104.235
9827.2691
9574.7767
9558.303
10466.011
9907.4429
9864.8527
9676.4661
9213.2091
9406.4282
8970.7698
10044.028
9491.7266
9263.678
8913.0756
9104.2979
8723.3802
8715.8544
9556.8361
9020.5969
8667.8826
8657.2438
8179.2857
8269.1547
7829.6815
9086.1134
8413.5152
8149.3281
7881.4204
7859.3929
7605.3376
7521.2335
8618.4695
7963.0076
7721.4692
7952.3848
7302.2092
7561.1332
6981.8433
8086.8171
7289.7684
7278.7253
6990.3385
6719.3032
6761.4258
6650.3245
7740.7574
7122.0931
6971.777
6822.1351
6726.9956
6436.9791
6387.2925
7363.8786
6370.225
6607.3393
6269.3431
6155.1728
5913.3068
5798.2365
6879.9331
6302.4447
6206.9127
5996.8686
5919.0461
5696.1701
5770.4664
6657.9264
5903.5845
5860.7525
5753.9798
5551.2579
5371.2258
5212.3358
6308.9303
5612.4512
5640.1947
5396.3963
5358.2472
5058.5174
5070.7814
6102.5709
5422.081
5369.0046
5254.9952
5062.4203
4847.0347
4871.5924
5762.2176
5096.7094
5191.2065
4951.5654
4862.521
4715.9976
4603.396
5588.3665
5121.8887
5057.1996
4884.408
4813.1329
4485.8928
4513.5537
5385.0469
4806.4917
4820.4172
4729.2106
4483.4667
4430.0764
4398.1823
5348.224
4798.3976
4850.7
4574.7253
4510.0823
4550.6346
4402.7841
5174.7181
4704.032
4752.3712
4438.0761
4431.4562
4343.4681
4185.3092
5259.9744
4758.652
4707.903
4602.8576
4275.5782
4603.0266
4470.4
5119.1675
4811.271
4774.0062
4439.8974
4685.7491
4561.256
4476.7225
5346.4668
4802.6338
4882.0285
4711.2646
4616.0794
4764.7263
4574.3976
5435.6658
5004.7019
5273.2702
4702.3417
4783.6783
4981.5633
4639.8828
5728.9215
5258.8993
5246.6674
4968.8894
5053.7607
5172.061
4888.4549
5902.2234
5342.7894
5595.2338
5253.8033
5264.8297
5447.6899
5153.2331
6179.015
5792.4236
5918.8594
5590.1546
5575.943
5823.8687
5491.6718
6575.0052
6073.7867
6241.0086
5897.0745
5965.2169
6202.6743
5866.1883
6907.6045
6542.3465
6670.1972
6420.6356
6433.5286
6643.6689
6300.138
7478.1412
7016.8197
7136.0207
6903.5584
6806.2423
7074.3175
6848.7087
7791.6357
7404.3451
7660.6164
7378.5218
7388.7896
7775.4236
7447.7176
8653.9005
8460.6874
8308.2501
8181.319
7974.8018
8371.2744
7933.2613
9116.5648
8242.2708
8921.4189
8400.1172
8713.0509
8907.6794
8712.8304
10195.276
9927.4697
9905.5491
9657.0762
9427.9648
9828.479
9476.631
10618.181
9620.3202
10348.262
9843.978
10116.35
10421.383
10144.324
11578.85
11454.951
11521.338
11299.05
11148.616
11384.244
11157.279
12591.896
11575.361
12201.548
11681.678
11798.397
12153.654
11917.491
13219.295
13055.931
13288.666
13037.034
13170.493
13310.927
13010.829
13879.95
13390.683
13766.526
13454.961
13307.691
13494.626
13469.522
16035.284
15789.854
15951.366
15580.093
15738.793
16163.362
16009.453
14914.317
14629.471
14760.946
14500.134
14429.819
14502.478
13984.297
18838.926
17729.903
17996.996
17613.075
17775.35
17585.923
18151.09
5221.5957
4317.5545
3655.3525
3503.4526
3226.7398
3388.7775
3339.1856
4091.8124
4522.2216
4255.0071
4245.8359
4323.1393
4041.3841
4378.0026
4942.6785
4723.909
4659.9301
4689.0026
4451.9301
4285.4804
4335.909
4325.952
4860.2869
5497.4417
5659.3119
5375.9455
5438.1985
4557.2989
4986.9638
4889.1242
4823.4312
4177.0949
4319.8439
3599.3634
4281.1934
4334.26
3589.0942
3719.181
4092.2831
3842.8087
3871.7976
3674.3997
4798.4842
4112.1137
4725.6336
4446.2023
4479.8539
4335.2711
4208.9059
4507.3702
3624.4375
3396.1105
3040.1756
2982.5775
2992.9538
2937.0485
4119.559
3537.8363
3937.7254
3910.9447
4044.6039
3914.9472
3757.6936
4191.6228
3389.1738
3273.5904
2984.3889
2822.8106
2855.6698
2828.8917
3730.1112
3148.6046
3316.6712
3131.1445
3177.0321
3022.5756
2938.6727
3837.3577
2943.878
3016.8047
2886.7671
2935.3473
2868.0692
2973.0685
3388.9615
2634.2729
3139.5939
2689.9572
2793.19
2530.7232
2751.5793
3285.0551
2872.1241
3069.7142
2480.0716
2819.99
2509.0422
2608.0555
3051.3891
2713.8723
2709.4089
2577.3454
2276.6377
2486.282
2433.9605
2836.7343
2609.9835
2631.3343
2488.3507
2355.2674
2326.2121
2432.5142
2889.0207
2474.9687
2546.5632
2452.7071
2060.3158
2312.7568
2306.347
2680.5029
2290.7045
2483.999
2293.0257
2065.0947
2254.6225
2189.6257
2743.9945
2334.6341
2417.889
2286.7398
1986.4963
2172.112
2194.8928
2557.5443
2142.5039
2309.3583
2223.9222
1902.5605
2187.8525
2124.0465
2676.7433
2266.2974
2384.5963
2252.3402
2000.2799
2158.1552
2135.0271
2663.5339
2131.6341
2274.8692
2260.7634
1848.1916
2183.6517
2132.8533
2794.2383
2211.2105
2508.9867
2177.3903
2065.3918
2288.2853
2224.3929
2840.6
2278.7332
2530.8491
2359.3188
2267.0967
2250.1867
2077.2691
3050.6186
2313.0814
2706.2729
2509.4257
2446.9924
2330.0107
2404.7763
3145.8917
2468.8134
2926.8603
2506.3638
2699.5035
2464.3436
2291.8518
3408.6455
2670.6786
2985.917
2761.3244
3021.8846
2580.3218
2666.3298
3464.97
2918.3434
3277.1894
3106.1279
3081.6981
2831.9644
2766.2049
3875.2604
3263.7455
3590.2507
3205.1277
3534.152
3153.0243
3068.9949
4139.9685
3514.4205
3698.0656
3609.5567
3798.1081
3362.3516
3390.7818
4443.8745
3833.8199
4235.6196
4035.5517
4179.2085
3858.1103
3781.7796
4898.4211
4313.9118
4616.6779
4309.6502
4586.769
4203.6341
4159.0194
5296.6837
4749.9353
5018.4422
4862.755
5103.1055
4717.2717
4648.0302
5861.2254
5263.3027
5570.2372
5358.8091
5547.7509
5165.751
5217.2415
6298.6455
5743.9419
6115.157
5865.7722
6126.1665
5896.0669
5725.5792
7068.0329
6608.9253
6836.9516
6495.7321
6879.0018
6356.7966
6412.1097
7486.3064
6893.2216
7179.0693
7118.2119
7369.9789
7060.1365
7030.2642
8405.7331
7959.1575
8308.602
7921.575
8252.6366
7774.2096
7786.6242
8647.4954
8663.0305
8510.3621
8589.4839
8760.575
8499.5354
8530.7137
9784.6411
9284.7182
9559.982
9376.2828
9712.5071
9378.0603
9347.1075
10396.238
10678.148
10321.695
10468.382
10406.481
10136.501
10046.301
11222.062
10720.335
10875.063
10843.497
11045.525
11037.697
11096.832
12128.416
12411.289
12123.348
12271.86
12174.695
12039.394
11633.342
13195.695
12962.581
12830.015
12944.568
12867.394
12887.295
13028.799
14242.686
14063.809
13867.549
14096.931
13890.447
14291.408
13696.54
14977.634
14912.392
15090.848
15195.371
15120.139
15229.726
14458.963
17701.113
16967.631
17059.327
16758.628
17047.668
16742.369
16930.677
1794.8537
1560.3813
1209.4883
1206.1906
1007.4723
1005.1889
521.69414
1053.2576
1942.1306
2134.7239
2458.4105
2382.5859
2225.0475
2069.4147
985.89584
716.122
533.03947
586.00098
526.35157
453.15426
85.888005
1430.8685
2572.1392
3415.2109
3798.371
3789.2708
3487.5606
2782.0594
1082.5355
738.79186
85.667797
-328.81936
-463.7521
-490.54934
10.456807
1493.5202
1819.3427
2019.2449
2473.1392
2640.4112
2740.9372
2066.0358
1041.8219
718.53364
445.19907
425.53103
286.94235
-105.42931
665.66927
1510.4352
1305.7432
1078.8939
1348.3507
1049.1443
1569.7542
1232.8365
1247.6395
897.70919
1138.4836
659.42559
1464.8294
697.41488
1308.4696
1250.9172
1247.0343
441.93812
767.10108
379.25538
632.01389
679.8036
1183.7322
592.98651
1407.7607
797.49156
1592.6509
1340.9587
1332.7724
1046.2523
1187.1833
638.57243
231.92878
716.52439
371.41762
865.3519
1102.5535
588.50465
801.88791
796.89113
1297.9073
892.06201
779.19772
981.64215
1120.828
459.24857
558.11672
532.51772
802.48287
674.80023
804.40987
602.05117
1123.4893
383.12521
964.00569
638.56482
631.5192
820.9963
649.07067
797.34317
417.53829
593.75674
747.51761
560.49819
692.58325
421.20137
906.75528
326.82156
754.31807
676.66254
591.98194
767.54633
646.00135
866.44579
390.94916
681.89311
738.49758
591.09319
648.43747
433.07711
876.54172
305.98989
767.16891
724.12819
577.74804
829.5854
649.59387
923.22464
432.37409
831.88843
712.72672
670.48072
886.20686
463.79977
971.98602
442.69243
774.51138
802.15576
686.47236
1062.5027
703.37411
1105.328
434.17589
970.51315
876.57732
795.9245
1173.3959
780.91515
945.2958
740.37939
1042.6735
952.25323
783.97477
1425.1444
834.92525
1115.4163
866.7448
1001.9422
1057.9197
1141.9738
1570.4302
936.29346
1361.4896
831.83348
962.12304
1248.6896
1098.1633
1856.5205
1177.7203
1432.3717
1136.7188
1218.7355
1382.4574
1512.8496
2013.8629
1293.8082
1682.3184
1394.5946
1283.3464
1554.4003
1564.2721
2348.9103
1570.7045
2090.449
1534.8766
1758.7792
1820.695
2007.3404
2657.8041
1894.4056
2192.8248
1992.2841
1844.2312
2076.061
2285.0486
2939.7069
2232.4994
2659.609
2348.5479
2335.1086
2558.1287
2662.5415
3376.157
2716.2022
3024.3293
2763.5303
2686.284
2860.8592
3097.4872
3848.4648
3220.7314
3506.8188
3268.0023
3141.5514
3427.3497
3526.8949
4336.5856
3687.027
3982.0932
3742.2719
3719.332
3913.5977
4148.0609
4896.7356
4310.5337
4602.414
4433.1689
4268.2568
4569.0173
4649.1776
5564.4024
5027.5735
5262.9607
5004.993
4951.5714
5156.0928
5355.5523
6089.6803
5591.4658
5725.2536
5733.4572
5591.1519
5814.6925
6021.5939
7069.9222
6499.0256
6742.6375
6619.8208
6302.9915
6686.9839
6765.92
7463.1935
7093.0253
7347.3674
7101.4573
7108.3399
7288.5533
7559.454
8663.5218
8117.9613
8263.5166
8247.0865
7982.5762
8350.9796
8490.0979
9383.3211
8701.8868
9219.4437
8856.6015
8822.7283
8967.3257
9138.0902
10303.953
9948.8807
10104.609
10074.623
9797.2807
10178.02
10309.777
11304.272
10323.208
10976.949
10484.816
10581.41
10773.487
10965.578
12445.777
12276.282
12485.558
12374.509
12277.759
12477.871
12348.754
13068.226
12045.141
12643.358