/*--------------------------------*- C++ -*----------------------------------*\
  =========                 |
  \\      /  F ield         | OpenFOAM: The Open Source CFD Toolbox
   \\    /   O peration     | Website:  https://openfoam.org
    \\  /    A nd           | Version:  6
     \\/     M anipulation  |
\*---------------------------------------------------------------------------*/
FoamFile
{
    version     2.0;
    format      ascii;
    class       pointScalarField;
    location    "1.31";
    object      p;
}
// * * * * * * * * * * * * * * * * * * * * * * * * * * * * * * * * * * * * * //

dimensions      [1 -1 -2 0 0 0 0];

internalField   nonuniform List<scalar> 
625
(
701205.54
-951815.74
8551.0074
10524.418
1131792.4
-2067952.8
9630.8269
2273.5987
512654.78
5404.6978
-79033.505
-13145.328
5201.7849
8054.0107
293890.61
322365.94
316408.01
322150.93
286365.12
284177.75
262500.78
244158.05
236713.04
211877.81
200150.67
184818.19
168018.24
153745.72
137641.3
123814.96
105725.02
94342.39
77040.587
62035.206
48503.825
31275.317
20140.465
-335989.53
-218102.25
-297588.26
-234235.19
-221817.39
-219985.17
-191477.67
-181879.93
-169419.52
-154967.49
-143886.54
-129308.12
-120888.85
-106492.63
-96186.954
-85177.073
-73131.424
-63294.474
-51076.658
-42243.66
-30066.428
-19736.185
-7242.7267
701875.02
-115597.47
-257332.65
-385623.76
-493001.45
-364456.84
-323753.29
-388390.49
-288510.74
-283033.57
-267606.81
-250476.84
-240337.73
-210891.48
-201717.85
-177579.98
-162411.58
-143832.04
-125219.77
-108704.62
-90549.656
-73475.369
-57025.511
-39805.681
-25006.583
-6910.1702
8536.8079
3913.1965
-5006.0338
26189.066
34608.792
44316.058
58234.828
72678.327
85805.261
99941.429
113662.17
127679.79
142227.74
155030.63
172538.8
183788.97
200605.99
203977.43
244246.25
248394.41
254598.64
309112.8
278399.1
354307.55
279891.74
324625.01
727659.18
685633.11
684232.75
-1090544.7
-1141379.3
-1130145.2
17979.582
17946.233
21145.526
-4247.8387
3028.304
-987.47128
184460.69
200284.26
207147.91
185907.86
177830.09
179314.65
160122.76
158088.79
144513.47
135055.86
127672.3
116697.4
106297.81
96650.78
86849.536
75723.938
66348.944
56850.979
45244.542
38897.408
27886.263
17298.167
11839.093
-18117.768
-3520.4363
-19977.202
2327.7293
-9823.686
-2653.193
-2993.8284
1204.3177
-26.903621
1772.4309
2507.9019
2502.6536
2838.1351
4302.0072
3414.4217
3991.6017
4237.8655
3858.7226
3655.1576
4015.246
1822.7609
6053.8014
5434.3784
-212000.38
-170448.92
-161583.64
-134700.13
-158943.06
-122539.48
-124027.53
-111200.75
-101884.58
-92884.203
-84313.751
-77237.296
-68376.541
-61723.326
-54537.245
-47079.104
-40597.685
-33029.181
-27155.544
-18859.095
-12918.904
-8359.4583
24.568271
474391.3
400217
407264.2
-39269.252
-25616.349
-75241.022
-50377.089
-108717.71
-216139.1
-510326.06
-510631.47
-550390.63
-406016.12
-392935.93
-393557.77
-336266.44
-327449.65
-355458.83
-268813.55
-280508.4
-293607.5
-266604.02
-279842.3
-303605.31
-243748.27
-241441.86
-259726.03
-230397.1
-240004.74
-260460.58
-213711.85
-214189.21
-235467.91
-198988.27
-200858.57
-217961.34
-182313.87
-183527.85
-204457.08
-166062.77
-169223.91
-186359.98
-153897.59
-155505.64
-171138.7
-137670.44
-139713.24
-155108.1
-124287.79
-125961.16
-139375.53
-110781.69
-111829.24
-124779.87
-96948.986
-98190.485
-108490.22
-83996.332
-83818.854
-93713.851
-70417.55
-71302.347
-78971.709
-57979.546
-57092.855
-63185.727
-45099.22
-44882.829
-49933.373
-30964.44
-30836.898
-34410.546
-20749.925
-23165.215
-23968.283
-12210.895
-8104.3655
-11007.41
-17702.934
-18510.596
-19252.721
3559.0201
3458.2659
6304.8486
11177.381
13434.349
12593.006
383506.06
341267.4
348657.27
355140.08
324800.97
351608.62
374716.51
316306.52
320856.14
322286.16
284135.1
304730.4
316144.85
290995.49
283196.76
301870.5
253283.2
264345.2
277252.01
246959.55
253747.46
266841.62
229414.28
228194.43
247366.99
213663.65
218687.14
227084.6
198094.56
203258.35
214654.21
183070.22
184486.85
195876.78
167561.96
171734.16
178386.32
154133.68
155756.38
162295.59
140281.9
141154.12
145281.68
126348.42
127106.99
128242.39
112623.32
112468.18
111871.65
99052.288
98933.89
95954.849
85437.794
84855.337
77868.088
71417.3
70668.299
63861.498
56782.13
58496.591
48737.221
43750.57
44378.706
34231.454
33523.997
32215.783
28606.034
29058.313
30586.767
156612.07
204746.93
157963.14
176653.01
158731.97
153350.64
149928.9
128519.49
127997.12
114021.23
108737.3
97517.984
89013.434
82297.357
73107.856
66824.489
58331.89
51385.373
43818.427
35210.145
27421.331
18032.18
5290.7919
-51232.005
-8395.1558
-12461.272
6991.1123
10582.489
6859.3752
7771.8872
12226.721
3386.9545
10102.358
8464.6346
8294.3068
9558.5969
8499.5217
9835.893
10188.554
10222.963
11718.851
10518.557
11416.725
11843.463
9539.8584
7592.7646
-144763.49
-149039.05
-202312.7
-184601.91
-181551.64
-188443.28
-164054.93
-162776.3
-144341.74
-137337.72
-127413.92
-115333.48
-106624.6
-94480.598
-85331.337
-74330.724
-64039.249
-53912.351
-44387.001
-33385.078
-25128.441
-13912.554
-10224.338
244719.67
279755.3
228750.16
237844.64
234164.73
194691.9
171514.09
173994.39
189169.75
159926.91
197041.76
153380.02
185678.59
150319.39
151393.43
137742.09
157023.96
147901.09
144465.17
152061.01
128235.76
139147
132123.13
126152.56
121064.78
125504.1
120300.24
119165.39
122590.49
104675.09
108013.85
109259.98
100575.55
98067.933
102723.53
92505.017
92812.308
92883.511
85206.649
83208.613
84646.824
77924.228
75261.033
75413.142
70249.224
66535.437
67949.384
62720.558
59426.306
58790.762
55510.021
50123.486
50696.267
47403.609
41903.523
41326.313
40518.09
34509.964
36263.935
33599.611
24648.753
24732.378
23259.926
18592.627
16593.725
19475.09
6480.7978
2646.3622
3230.5702
-35162.13
-59717.203
-61438.935
-7308.7968
-3456.9899
-22714.199
14087.17
-824.41319
-20067.384
19010.696
-3619.0892
-33217.901
13535.04
4856.6035
-3217.922
14698.084
14398.17
-18429.535
26782.754
9881.5873
-13139.263
12072.407
13159.803
-9646.9375
22950.016
16675.69
-12031.918
21046.626
13417.643
-8100.1656
18453.584
14174.007
-8333.5591
20322.559
16505.071
-6437.9825
19539.642
15237.396
-5608.3085
18514.25
15009.687
-3847.565
17108.584
15685.337
-1932.4694
17093.118
15372.453
-1235.7397
15605.552
14163.215
858.93919
13798.271
14346.466
1113.3373
13996.694
12111.898
4502.0924
12992.293
12231.806
1910.012
10533.657
5478.6706
4349.0024
10389.062
10994.613
6308.2241
9425.9154
9854.284
10031.58
-207830.99
-253357.95
-296288.85
-145510.13
-128940.33
-200334.82
-141152.43
-218687.28
-217275.91
-183399.86
-165319.34
-193055.31
-137953.21
-173247.66
-182979.4
-131703.55
-164837.95
-178444.5
-130221.55
-151582.72
-163958.3
-113451.91
-143920.22
-160558.06
-104320.9
-134658.04
-146503.5
-98915.921
-125548.13
-135140.6
-88936.984
-113695.38
-125223.19
-79967.604
-104126.59
-113549.28
-72130.667
-96937.331
-103624.26
-65219.403
-85855.346
-92166.287
-56554.909
-77440.634
-81551.887
-50083.52
-67981.097
-72196.738
-42659.435
-59537.034
-60995.201
-36185.127
-49469.393
-51064.41
-28562.156
-41419.347
-41925.993
-22862.578
-32375.773
-30921.633
-16889.308
-24169.102
-22373.549
-7524.0942
-11098.228
-6288.0126
-2089.7144
-8200.7389
-8101.1838
)
;

boundaryField
{
    free
    {
        type            calculated;
    }
    fixed
    {
        type            calculated;
    }
    traction
    {
        type            calculated;
    }
}


// ************************************************************************* //
