/*--------------------------------*- C++ -*----------------------------------*\
  =========                 |
  \\      /  F ield         | OpenFOAM: The Open Source CFD Toolbox
   \\    /   O peration     | Website:  https://openfoam.org
    \\  /    A nd           | Version:  6
     \\/     M anipulation  |
\*---------------------------------------------------------------------------*/
FoamFile
{
    version     2.0;
    format      ascii;
    class       pointScalarField;
    location    "0.92";
    object      E;
}
// * * * * * * * * * * * * * * * * * * * * * * * * * * * * * * * * * * * * * //

dimensions      [1 -1 -2 0 0 0 0];

internalField   nonuniform List<scalar> 
28033
(
4450.2972
6527.8103
22214.42
21776.918
5108.2904
10175.843
22477.747
23016.213
2212.7038
1050.4816
555.29369
432.74385
29.8849
89.0581
3.5633814
137.71277
183.46074
507.9642
593.76844
1288.9533
1942.3833
2805.0885
4189.6354
23433.483
22822.115
22730.888
22520.6
22090.357
22160.144
21463.128
21765.329
21674.875
21463.504
21886.339
21762.899
22024.953
22402.983
22846.411
4131.4417
1741.9162
1511.376
1097.0008
1024.1457
819.11783
764.78074
392.74706
522.79549
243.72383
310.31742
209.97766
135.99872
88.51378
-99.929008
-207.59947
-488.16422
-315.40017
-582.4843
-460.01032
-517.78073
-396.19968
-393.91029
-141.15063
-305.9554
-18.839683
-182.17814
15.299864
-245.48602
-78.86224
-98.117923
-203.15999
-330.31988
-223.749
-228.95169
70.127696
-132.50401
100.74994
130.89863
106.84672
103.49083
178.81038
199.94984
340.03792
521.31897
842.10717
1139.1283
1632.5078
2019.6052
2562.8689
2977.0229
3467.1781
3856.3087
4258.3559
4616.6
4977.3707
5329.9791
5702.1645
6080.3049
6479.9446
6876.6006
7298.8787
7678.8388
8105.652
8552.3101
8928.4561
9398.2206
9828.8809
10313.134
10965.331
11459.788
12098.582
12670.268
13313.232
13921.815
14493.585
15047.739
15584.147
16029.071
16427.202
16879.02
17185.758
17589.121
17714.793
18127.731
18345.506
18758.477
19027.053
19572.549
19806.752
20582.239
20713.748
21740.344
21940.111
22638.85
9873.6276
101.53969
5748.5206
1725.8147
3291.1792
2875.8312
2078.7874
2144.0824
2075.4392
1658.0512
1945.3631
1605.3284
1979.2818
1646.6906
1780.2873
1573.1666
1572.1864
1340.2276
1180.3668
1204.5439
781.86744
1001.3308
715.05047
1348.6824
1004.9063
1584.6777
1169.1787
1510.6269
1043.2052
1247.6615
557.44358
634.03836
269.80197
206.17304
0.48122541
95.683205
165.82321
166.60166
265.96362
530.54144
603.69564
829.79351
967.60044
1205.3405
1374.9477
1673.7403
1937.0095
2300.2098
2666.0287
3067.5408
3470.3892
3855.0084
4202.2927
4516.8773
4771.1985
5002.4202
5212.374
5424.598
5672.3223
5968.7489
6326.0405
6757.7181
7247.5167
7796.5057
8374.3082
8971.202
9606.6882
10189.046
10886.825
11464.516
12047.855
12632.045
13319.53
13834.842
14472.056
15001.588
15489.662
16011.42
16372.028
16789.506
17111.38
17405.265
17729.27
18009.06
18344.345
18680.349
19074.257
19472.982
19930.898
20387.398
20864.989
21318.362
21762.146
22143.759
22421.134
2794.0911
1409.4515
575.48716
773.7837
23.212068
22.675916
16.985751
28.557836
204.36936
478.86106
758.27208
1216.6572
1681.3939
2460.4644
4415.2536
12199.651
10336.433
-4342.5176
4578.6874
1630.9007
635.95409
2323.5018
1283.0801
2266.5332
1652.9507
2138.7544
1268.9003
2533.8187
646.5582
2049.2771
424.24202
2343.1799
-707.65788
2030.7226
-381.47161
1168.1098
1287.4882
1094.8488
1293.0465
675.25923
1445.477
1210.3506
763.19766
1439.2859
-743.22784
-299.99689
-632.19135
-589.28164
-360.3775
-63.727498
1286.8956
-149.09916
1041.9057
1002.7452
1128.7802
1187.2133
1183.3547
1205.6379
1286.5162
1475.461
1752.2965
2135.2916
2568.7822
3011.7612
3420.203
3742.6954
3975.0868
4111.4013
4180.4138
4238.5183
4332.133
4506.8403
4813.4161
5239.4871
5800.9499
6435.5846
7135.0682
7816.7615
8476.6256
9076.6645
9588.2549
10189.955
10412.608
11255.191
11421.952
12108.462
12557.876
13181.268
13778.137
14340.689
14863.495
15325.79
15734.478
16057.646
16381.96
16650.02
16970.929
17265.177
17647.181
17994.41
18434.679
18809.687
19255.694
19607.433
20019.786
20336.504
20724.403
21080.412
21413.812
22109.38
22933.427
23111.859
22217.305
22069.939
22011.985
21638.625
21645.066
21468.019
22314.838
21279.295
22407.69
21444.613
23588.389
22018.737
23794.478
23386.62
21820.957
22105.57
21268.251
20845.067
20266.928
19775.756
19305.074
18827.699
18437.799
18043.192
17708.551
17448.081
17117.923
16859.788
16572.828
16276.05
15949.495
15585.101
15186.569
14755.208
14292.303
13818.165
13287.24
12909.664
12257.748
11717.137
10339.863
10967.676
10046.303
9595.4376
8988.035
8420.9811
7879.5391
7368.8959
6913.1788
6507.1276
6157.8266
5849.2286
5574.898
5308.9444
5044.5826
4758.9143
4452.4886
4121.1507
3770.9791
3420.6024
3063.4001
2747.6701
2436.2644
2159.11
1939.0098
1692.0944
1502.4708
1255.1964
1122.4459
636.51492
726.36019
276.52496
160.91729
524.04215
-63.873223
144.63876
61.748426
394.01909
438.01449
231.24174
453.36433
167.0211
570.25929
504.23434
355.53269
-497.359
574.01527
-147.87347
-314.86002
120.16091
-182.97003
354.34066
60.995998
115.7685
134.74715
890.15473
-219.24785
1333.0027
417.9715
270.02491
719.60463
1440.7783
919.55963
897.63469
1431.8718
3090.7182
75.02509
6478.9779
2830.1065
3246.1731
2981.0246
3096.1972
3146.1381
3355.2033
3124.4359
3423.3467
3375.2295
3565.2961
3117.2262
3050.2887
2996.657
2855.9918
2387.5676
4060.6951
4717.9087
3684.6411
4650.7543
4456.4176
3646.6654
4490.3325
5059.5107
4215.6969
4796.1245
4440.7045
4086.1647
3932.0968
3569.586
3568.7056
22445.248
22400.532
22448.538
22384.091
22344.589
22308.377
22280.172
22261.824
22291.844
22313.424
22381.849
22370.598
22461.119
22238.482
22857.021
22969.899
22651.755
22885.929
22652.006
22821.63
22785.171
22817.571
22843.322
22908.18
22946.417
23047.956
23018.248
23104.777
22947.409
23370.422
3549.9941
896.06904
984.59092
893.9728
705.81763
903.47337
589.70709
817.77154
443.60355
687.89823
69.248105
297.24026
-283.06162
11.426729
-557.02961
-138.46925
-295.57151
-61.565195
-151.06983
115.41108
35.602289
52.71676
19.533175
-232.1291
-324.4893
-513.83296
-600.42176
-713.79544
-595.69923
-436.78477
-314.44733
61.398997
462.96397
813.11393
1179.163
1274.9727
1510.5333
1595.0858
1787.3187
1827.1717
2069.5964
2151.911
2373.6263
2576.4857
2681.5073
2845.3086
2891.7146
2953.2752
2928.3728
2952.7287
2961.4061
3079.6186
3279.0122
3626.9848
4104.1923
4711.1735
5413.9979
6171.8058
6940.1988
7679.699
8350.9303
8964.0618
9455.049
9927.2291
10316.44
10566.692
11014.913
11286.434
11771.597
11919.091
12339.972
12651.307
13004.952
13350.306
13686.686
14034.884
14432.582
14791.659
15281.521
15681.761
16249.828
16704.377
17250.838
17747.576
18228.326
18696.081
19086.275
19430.259
19846.997
20117.328
20624.745
20971.833
21621.699
22039.24
22853.571
2250.487
179.40324
965.67988
292.27029
782.52954
466.40845
688.74189
518.90365
546.28474
403.5067
357.87664
253.94423
105.49664
56.120202
-74.47301
91.010619
-261.64254
73.813408
-99.710357
140.61993
-42.057442
140.81383
-80.864025
41.193462
-132.27069
-82.705314
-223.86696
-137.36666
-156.5684
-36.234255
85.605681
311.72342
358.10663
517.45973
674.28963
824.60454
1012.5799
1189.5525
1227.3168
1330.433
1408.3936
1572.7318
1718.4708
1835.0857
2000.6869
2225.2703
2402.1083
2611.4371
2818.9466
3028.0924
3252.342
3513.9475
3809.1648
4162.6678
4570.7659
5039.6353
5548.5971
6094.9884
6653.7034
7203.2453
7737.9346
8243.2855
8706.8807
9163.7327
9622.9741
9995.395
10536.299
11347.113
11659.724
12095.158
12634.87
13040.985
13454.467
13879.756
14305.859
14723.128
15172.659
15589.076
16087.679
16443.088
17012.638
17294.366
17870.614
17975.748
18637.17
18967
19425.222
19643.605
20211.738
20403.641
20993.779
21293.284
21997.252
21867.003
23402.104
1564.3576
-70.932668
685.62712
177.23296
447.58055
370.82484
416.9617
567.65748
477.56437
570.65757
357.40523
458.61512
177.23478
297.47474
65.653304
136.69954
89.802744
225.55711
105.70633
275.21051
214.67175
332.89267
263.8849
295.25053
176.53588
176.52107
125.79491
134.87799
162.92813
253.02945
363.69225
456.96367
665.90706
838.747
986.01703
1125.6577
1119.0431
1082.6801
1212.9974
1246.5037
1394.5244
1497.9243
1556.942
1801.614
2011.3031
2214.0799
2401.545
2612.1534
2796.2001
2977.4279
3197.349
3424.479
3721.6274
4063.7994
4486.7886
4957.9394
5488.8686
6044.9997
6612.2977
7167.709
7700.8277
8204.1892
8657.9493
9122.9404
9521.0479
9912.5234
10419.656
10661.232
11265.991
11652.579
12151.288
12555.625
13080.015
13553.191
14027.499
14477.982
14929.15
15381.885
15803.249
16227.321
16678.87
17030.513
17421.024
17985.194
18375.587
18509.064
18842.703
19201.886
19604.339
19855.622
20415.71
20695.126
21363.145
21426.717
23651.133
857.7335
55.280891
393.14973
282.80419
388.65931
340.09589
480.72272
450.50379
404.83001
410.46021
383.34912
327.76559
175.53127
272.05445
-30.088999
213.17268
-130.44845
140.51743
-108.11677
177.49346
-88.305657
144.25809
-121.31979
55.071741
-146.81777
-25.437323
-183.23929
-54.413882
-129.73322
15.478139
17.49812
200.65591
286.16184
388.45237
516.84913
595.22821
691.32679
1076.3652
1050.7092
1167.6226
1205.1152
1334.4624
1466.9949
1601.1035
1723.5334
1903.8116
2112.4135
2347.1456
2591.0912
2865.7114
3154.6456
3456.634
3790.025
4138.4322
4518.877
4923.4812
5356.8288
5806.9719
6279.3753
6755.6179
7237.6704
7718.1743
8177.8059
8666.1478
9092.9419
9596.29
10049.513
10474.022
11058.099
11406.84
12048.811
12579.971
13011.037
13409.715
13939.932
14378.269
14852.728
15264.731
15727.295
16107.543
16553.712
16865.088
17408.014
17575.926
18121.974
18356.783
19053.041
19218.049
19866.616
20029.882
20753.902
20893.525
21899.636
21394.382
24157.283
675.27831
-219.019
358.64061
-24.874479
339.06774
230.04352
458.84754
400.09261
511.61392
537.07904
447.07924
432.40459
352.40565
310.293
207.88523
254.61009
145.6359
282.1818
149.02247
314.30382
180.208
370.87362
209.9583
375.62577
184.9616
281.42237
190.76793
233.25688
229.64642
320.42819
393.42601
525.36482
609.26578
755.30197
840.00563
936.5542
1052.6419
905.38561
923.69882
982.93379
1166.1773
1250.3273
1388.5781
1580.1249
1791.39
2008.4669
2236.7191
2449.2406
2689.3849
2926.1507
3196.2347
3471.9426
3808.0088
4150.3287
4555.6728
4974.4655
5433.0177
5897.5449
6378.7892
6851.729
7321.8719
7780.2064
8240.5063
8688.4397
9131.1074
9608.3186
10090.821
10466.912
11032.116
11509.825
12112.464
12495.076
13161.942
13927.98
14336.571
14834.725
15250.521
15717.119
16118.021
16527.43
16926.486
17320.948
17654.484
18077.936
18392.34
18750.236
18993.747
19305.504
19669.077
19968.537
20422.259
20847.271
21582.074
21261.006
24526.802
379.99684
-24.696476
348.57843
226.1475
358.24434
385.5558
402.90031
452.11902
465.73598
444.23084
425.07562
442.73502
292.37071
366.90282
154.34784
262.46038
43.062674
208.23037
-1.3339415
219.34117
6.4664585
220.98682
-1.5335429
175.64764
-47.852013
162.31628
-66.836372
130.59128
13.539462
157.82409
132.06715
236.40774
291.60384
384.59811
439.63972
548.29977
562.24775
853.76722
835.24723
992.25587
1006.6274
1146.5687
1214.5548
1402.1128
1544.8386
1728.715
1908.4793
2134.0037
2363.3028
2624.9932
2902.8614
3214.9427
3547.8836
3915.3892
4305.2629
4722.4457
5153.6255
5597.8888
6055.0165
6503.2505
6953.4069
7425.662
7857.6144
8308.3577
8815.7592
9243.6921
9744.8733
10245.209
10795.419
11280.613
11796.945
12373.17
12836.417
13110.366
13586.007
14051.358
14536.02
14969.488
15411.692
15799.811
16248.403
16530.09
17043.812
17230.327
17778.632
17958.534
18593.997
18780.46
19517.317
19672.253
20540.983
20702.155
21754.506
21400.479
24731.776
220.80982
-243.53922
325.30087
-0.89730454
343.84929
230.79807
453.1207
416.07795
534.98704
491.3207
529.76387
411.66949
395.85709
300.72257
216.21622
209.32635
129.70466
175.7363
103.97459
235.67192
120.84139
309.15633
121.65501
297.09788
154.43028
221.07967
123.17137
208.67073
127.17079
259.00943
251.55056
409.02641
466.68254
571.1546
648.58342
729.37335
736.42363
761.49222
742.22104
912.07073
888.46587
1040.4346
1133.5801
1322.2257
1505.3074
1728.0523
1991.9321
2235.4636
2511.8216
2766.3071
3058.5777
3331.7726
3656.2917
3981.2356
4357.4005
4747.6458
5182.0147
5626.0284
6096.5049
6554.5274
7048.9694
7496.3695
7964.8755
8464.3693
8894.8171
9418.8642
9899.7958
10438.587
10958.543
11484.471
12136.989
12561.209
13204.181
13775.187
14354.801
14855.842
15330.065
15752.05
16194.017
16581.128
16966.854
17365.268
17698.862
18081.069
18417.55
18748.283
19076.888
19384.57
19760.129
20017.435
20483.251
20781.806
21724.477
21270.892
24918.081
298.71999
82.825688
442.50731
348.12456
478.23011
483.7725
547.60188
502.62419
590.85811
525.01079
548.53372
520.89262
478.66321
448.94918
377.45042
366.63927
272.20341
306.13071
218.53555
267.73851
125.12401
193.17272
67.039228
259.11396
-3.9049567
229.0986
27.415442
181.37439
67.974135
191.00423
133.67899
238.42111
218.93706
311.51235
366.36693
379.9972
486.70848
514.94501
589.49642
661.4297
695.97298
815.20386
924.59302
1070.6159
1205.2057
1419.0422
1604.638
1850.0715
2085.3319
2362.3653
2630.8117
2935.2618
3247.7434
3583.3116
3944.7091
4326.8654
4737.3985
5161.3366
5607.7179
6070.2423
6531.5504
6999.5667
7496.6896
7946.7087
8455.2744
8933.2112
9447.1878
9958.534
10476.632
11048.818
11519.186
12100.957
12648.17
13059.857
13487.101
13933.163
14390.235
14813.486
15240.191
15589.683
16024.514
16292.883
16747.828
16967.909
17458.229
17675.287
18235.685
18474.764
19124.65
19420.771
20237.609
20649.401
21672.665
21470.738
24789.593
180.18022
-186.64455
320.10012
20.530945
282.31788
188.76812
389.94434
333.75841
496.64059
384.28354
461.2604
304.71208
259.86497
107.19618
24.894696
-90.536296
-117.39461
-180.74698
-155.88981
-115.18858
-72.826058
120.63921
116.75017
105.37588
82.788091
131.1414
1.5203872
90.885312
-8.3119106
106.18365
88.324104
221.39842
264.24522
416.11999
395.27243
572.72559
523.62453
624.07181
595.00985
646.48362
684.33491
761.07138
892.16904
1024.8403
1260.6374
1472.7688
1752.286
2007.4926
2306.8019
2573.2914
2874.7
3156.2702
3470.2896
3789.6687
4148.3851
4526.4777
4945.1655
5373.8969
5846.2609
6300.5053
6778.1029
7258.2547
7712.2461
8198.8003
8666.5994
9174.6449
9662.7549
10194.116
10755.694
11287.658
11897.649
12466.598
13054.858
13580.625
14255.947
14702.31
15220.142
15652.417
16078.665
16492.301
16843.952
17251.841
17566.643
17960.104
18279.471
18641.917
18979.657
19336.019
19714.146
20085.191
20532.534
20877.352
21699.412
21468.822
24675.024
761.87429
285.97964
800.33117
507.36823
768.41788
672.459
793.97559
676.46307
772.09733
739.17395
749.5024
711.58512
725.64099
636.24555
642.25921
524.2657
539.63021
416.07617
473.73728
366.52074
362.4556
270.87985
137.1279
244.89776
150.83676
207.69028
113.33322
206.4877
101.20055
201.20176
130.38301
214.73093
226.11025
241.44401
362.39278
351.25958
441.03955
482.17664
528.8547
633.83332
692.22073
823.09607
912.58563
1094.4063
1222.2514
1445.2434
1633.993
1886.7287
2117.9674
2392.1248
2657.0166
2948.1991
3252.8407
3578.5659
3927.3415
4304.535
4702.7454
5129.6823
5579.8019
6032.174
6524.7743
6996.9584
7494.7183
7991.2616
8505.5276
8997.1795
9526.5346
10066.88
10582.994
11137.193
11668.791
12193.678
12715.031
13151.033
13780.499
14162.425
14653.86
15019.345
15483.455
15818.516
16263.155
16562.68
16993.138
17267.705
17700.913
17961.229
18448.006
18707.329
19286.921
19587.441
20260.076
20727.99
21565.036
21848.654
24602.633
581.95101
86.497808
483.93018
103.43856
465.57543
242.26064
466.20986
331.81025
534.50782
370.00566
385.54606
244.53127
195.55579
-17.098012
28.088776
-253.02823
-21.251932
-347.00464
-21.071046
-299.09813
53.930831
-449.00698
-106.84501
-145.1374
-147.666
-219.20701
-250.57979
-323.73093
-392.95259
-382.62216
-416.8782
-300.27483
-324.25199
-104.45491
-135.4556
43.003633
85.507635
185.77194
265.73892
315.53651
429.84413
493.5189
676.92064
817.27183
1062.0052
1281.1518
1566.2641
1811.7856
2101.3268
2349.7163
2613.9073
2859.4153
3124.1222
3391.3126
3698.9131
4034.2777
4416.1168
4839.3476
5295.9614
5785.074
6294.1845
6808.6081
7329.6408
7867.972
8376.4862
8931.2588
9476.7635
10025.294
10590.627
11171.164
11741.999
12318.388
12876.797
13441.479
14008.112
14495.028
14896.667
15378.49
15740.199
16160.273
16523.407
16913.688
17279.023
17671.801
18041.15
18462.76
18832.441
19295.336
19696.853
20175.987
20701.582
21150.86
21869.51
22107.471
23913.332
1494.4507
282.64658
784.92793
619.18814
906.1488
789.39603
983.26597
895.11839
982.48956
970.6777
916.85361
850.63708
868.5169
675.69528
661.80927
591.25283
524.25267
480.18624
497.58955
465.88239
435.31494
583.14729
427.51047
336.45096
356.01187
321.76999
312.82932
320.42152
333.29514
368.4601
440.88808
450.99287
605.0859
638.32895
781.16007
870.40761
922.0583
1015.8542
1007.2027
1099.8703
1079.4535
1194.1674
1213.4584
1369.599
1469.3746
1676.3195
1868.3185
2120.3102
2378.7414
2662.7474
2957.2858
3271.0714
3600.8496
3952.7933
4332.9526
4739.6209
5178.5947
5637.5999
6121.9009
6613.3718
7108.916
7600.5249
8087.8965
8554.7919
9024.5763
9493.6407
9949.0458
10426.447
10918.156
11419.295
11921.702
12419.503
12959.151
13382.164
13883.569
14276.32
14701.419
15142.298
15550.829
15938.89
16326.545
16667.742
17017.923
17338.242
17670.67
17970.614
18318.673
18635.044
19021.582
19436.751
19938.855
20482.677
21352.804
21869.682
23991.176
2093.6572
870.84763
1159.9848
813.95082
744.02631
568.9428
632.71179
382.77797
469.34664
294.20803
195.59923
138.02468
-116.91116
-183.10803
-352.56027
-496.88687
-496.59839
-672.0355
-501.04259
-706.24576
-460.3575
-656.62044
-426.54808
-626.31977
-407.1833
-725.35853
-666.79045
-903.39575
-951.372
-1016.3512
-1077.2521
-976.6182
-967.87683
-766.52656
-679.5523
-501.12665
-318.70264
-201.51206
4.3706216
83.78722
299.60042
411.47291
636.99307
822.64846
1073.2446
1301.8396
1567.8053
1788.7809
2026.3834
2218.4057
2411.4179
2585.989
2777.6259
2989.9128
3251.0391
3572.0365
3955.0646
4410.5697
4921.167
5479.609
6064.1391
6675.367
7266.4498
7878.9288
8455.1146
9046.0567
9586.9072
10175.392
10717.133
11265.137
11769.223
12341.667
12742.834
13291.785
13661.301
14149.873
14484.681
14861.003
15178.874
15569.634
15908.951
16321.094
16718.711
17182.303
17618.761
18134.647
18608.823
19157.269
19683.661
20235.526
20833.662
21339.396
22020.573
22414.119
23487.036
3299.2492
948.79349
1417.5909
778.84546
1168.0502
979.30307
1035.1466
1037.8963
1111.5958
1020.0962
1053.2779
859.05264
896.74406
652.66427
596.72358
366.9442
376.95747
140.52011
414.22157
182.06965
513.53217
359.13398
484.69828
359.91201
390.20354
271.55395
314.32552
81.211431
118.24388
-100.64035
-16.936219
-101.15025
38.999978
155.84309
225.51486
397.57702
508.49131
646.31997
688.63986
820.97411
832.35513
952.65885
1011.9609
1173.1914
1326.7605
1560.2882
1808.6594
2090.9879
2383.4189
2671.1546
2950.7719
3215.7301
3478.9325
3741.2232
4030.3347
4349.2591
4716.7131
5133.1194
5599.0541
6103.3805
6634.9193
7181.248
7724.4228
8264.4177
8793.6231
9309.3404
9841.4603
10370.835
10872.125
11386.372
11954.791
12443.024
13014.683
13491.374
13990.218
14420.99
14856.494
15246.115
15619.776
15981.739
16311.968
16668.765
17007.31
17362.698
17727.466
18093.604
18485.266
18863.089
19275.927
19686.082
20137.161
20614.896
21234.505
21985.151
22971.314
4871.2499
517.57509
1906.8114
810.84422
1550.1172
975.01381
1286.0499
1056.87
867.3144
629.79562
140.49345
-71.908951
-363.83086
-623.52026
-520.047
-809.52179
-382.084
-726.96352
-134.94243
-632.55059
-86.109734
-901.88942
-536.49203
-1362.046
-1125.4137
-1527.8365
-1300.4824
-1279.7973
-859.10133
-474.66575
-20.597883
475.17836
913.78338
1284.8449
1466.2347
1721.1341
1800.03
1863.6061
1973.346
1973.1107
2107.4117
2177.3827
2321.2784
2418.7762
2521.2284
2563.5362
2590.0859
2576.7779
2584.9383
2629.7667
2760.2847
3016.4502
3411.5151
3954.0888
4629.5345
5401.9369
6219.5544
7046.4711
7820.6371
8521.9104
9123.6599
9636.0628
10050.857
10416.322
10733.67
11032.051
11299.528
11602.36
11807.36
12198.664
12395.678
12744.614
12937.416
13290.783
13547.825
13953.09
14328.57
14806.148
15323.932
15889.542
16448.104
17058.283
17565.702
18119.506
18530.805
18982.296
19306.465
19692.143
20028.019
20420.88
20885.709
21401.12
21976.834
22664.782
23101.447
1054.0885
1255.608
879.33945
722.76712
793.27142
775.40655
799.29606
815.57851
857.60832
1021.0631
829.47995
845.7648
1052.6278
988.53818
835.4216
833.64479
734.59734
493.57015
578.88407
449.85332
440.57815
417.9198
382.2874
512.4899
413.21093
430.15974
510.65569
430.63051
603.15531
423.06725
349.98605
45.189271
-119.32685
-106.15044
-185.68945
-197.1249
-165.18369
-225.70623
-201.80506
-189.2047
-136.23044
-215.34238
-173.5055
3.4655103
-109.27726
146.89387
171.13786
71.297004
-23.92674
-4.312207
-39.082988
-33.434072
-63.497216
-4.5731752
-30.884085
2.489583
-16.56301
62.771953
201.78718
-217.65947
-32.726188
-55.432774
-191.01395
-197.46314
-251.97761
-243.71559
-262.07147
-247.35328
-278.65076
-272.81531
-269.01323
-241.95395
-215.18871
-228.60704
-135.25275
109.3267
49.764783
0.51098556
13.056988
-9.6390981
-9.2498436
-36.94782
-22.550826
-29.726588
-29.041476
-15.390121
-54.798869
-45.329497
-32.873879
-84.597664
-69.151685
-92.492137
-125.59135
-159.6575
-149.94885
-172.39239
-168.88392
-187.83065
-184.80669
-172.2195
-177.26678
-132.26515
-125.2982
-79.047575
-116.36986
93.542979
94.179703
50.115368
66.777354
45.042196
45.706584
35.796454
33.191079
39.642932
12.332453
22.140992
2.064749
-26.225975
-37.067866
-67.678776
-63.366088
-61.381756
-151.50912
-141.65213
-168.54867
-177.38084
-180.13741
-165.9852
-179.2917
-145.40901
-143.51202
-98.8998
-96.976897
8.2902769
-49.873001
358.2918
292.11145
194.63926
209.37127
159.44619
161.49141
158.87287
151.11617
150.13466
109.79787
168.1315
102.39678
117.53875
179.64839
56.301751
25.005408
37.27195
-134.24181
-122.50054
-189.55866
-143.13568
-192.31829
-141.97602
-177.85967
-95.745392
-102.16463
-74.055088
-1.1450301
173.54492
70.561196
465.09885
318.22863
221.38046
99.370662
104.72094
7.0234882
37.831502
-2.8769228
19.951806
24.164632
61.020154
85.925938
157.85073
304.0815
286.72106
349.27128
632.73209
91.720067
148.02676
-15.750752
34.486379
-98.682827
18.330098
41.265205
46.982807
121.07389
74.489466
163.53568
559.00432
542.20629
1443.3038
1080.5137
765.07228
681.9956
541.36318
483.73645
631.27615
696.0733
645.10574
459.07421
525.39503
435.45339
496.33895
713.3201
710.43003
1362.5783
1464.2771
572.82519
505.24612
319.74555
284.53418
435.2431
592.80827
261.40702
404.11713
236.67432
368.44155
592.88738
1252.2081
1346.9294
8481.9895
10641.156
8686.4601
9903.3414
10543.352
9693.3989
10410.162
11456.458
10175.085
10667.912
10431.903
10039.846
9839.0966
10372.276
8011.4422
8682.2101
4896.5385
6499.6896
6592.9435
5601.8099
7380.6966
6911.391
6766.7487
7511.8205
5870.604
6303.925
5293.8761
5878.4497
7044.8414
7482.6284
3012.1934
3150.8176
2144.3842
2412.2026
4112.3075
1914.0281
1833.1276
1818.9504
378.0397
2611.5483
1793.257
3986.1418
2635.3551
1397.4436
2866.8123
1817.2759
2984.2316
2923.6458
1299.6059
1426.4257
1785.3229
1332.3649
1845.1716
1968.8005
956.76017
1831.3235
1343.4555
2310.6392
2702.7151
1778.473
3996.839
3109.2562
1635.2397
3484.1396
2312.9872
2575.302
2962.8775
2567.4121
2816.1658
4005.1666
2575.3211
3260.9537
2074.8903
2490.7532
3653.5577
561.15926
1540.125
1756.7203
1418.1038
1378.3627
1366.4611
974.61466
948.96771
1050.5082
290.81521
1193.0964
798.80244
1110.7788
1763.7927
903.56091
1851.5577
2297.3249
2012.1416
1758.4101
1697.8991
1957.4659
2070.4263
1944.8391
2053.1969
2175.0224
1641.3802
2023.6361
1701.4503
1516.336
2311.8358
1451.1256
1192.5172
1416.6989
1716.5676
1864.7385
1485.045
1545.2072
1662.6307
1269.2715
1771.1977
1668.9237
1641.2794
1615.959
1241.0265
2371.7983
1484.9669
2081.9585
1944.9315
2251.1837
1665.672
2040.8839
1875.7654
2016.5956
1879.5258
1843.1314
1825.7387
1609.7955
1721.3239
1830.9341
1563.5932
1934.2827
1407.0315
1642.9247
1526.7106
1665.9778
1401.7302
1524.5773
1404.7731
1209.5313
1797.1116
1113.9449
1898.9568
1397.2362
1510.1802
2325.5207
1890.427
2174.1781
1995.1027
2345.1008
2096.1591
2430.1862
2217.0135
2294.2629
2525.332
1965.6056
2684.2116
2117.9453
2362.9313
2403.0943
2583.7472
2471.7811
1761.9188
1953.4808
1797.7522
1772.7141
1609.2158
1513.2854
1392.1647
1054.0706
1406.5853
965.56967
1296.5164
1149.156
1142.2721
2172.9914
2197.2835
2145.4378
1764.7992
2201.0423
1927.118
2085.0913
2127.299
2003.2644
2305.9326
2146.5131
2420.794
2206.0567
2381.5464
2485.5197
2707.4981
2253.3116
1817.9669
1908.7778
1539.7193
1604.7395
1711.2256
1441.5309
1237.6151
823.19586
884.53192
549.69527
800.6023
652.74522
483.98042
1895.1271
2090.082
1439.3481
1423.1782
1897.5364
1837.4988
1515.4336
1584.3667
1558.5571
1887.3448
1855.3751
2268.7468
2059.8411
2277.631
2380.6199
2695.7842
1607.1793
1468.2842
1514.3758
1417.9512
869.94234
1496.4631
984.12228
994.63617
441.03987
528.66372
-26.099046
201.31797
78.975315
50.729496
1235.1638
1238.6103
683.76505
751.15987
1020.0458
1312.3139
968.70717
1018.2867
816.93843
1323.9709
1177.9856
1649.398
1509.8974
1439.5616
1266.8297
2329.3446
860.19143
952.54263
707.18401
859.30079
440.64577
815.07056
469.23604
759.66766
286.91461
430.4341
-87.080727
-127.36556
-113.19859
-225.01488
215.84275
976.20073
630.38943
930.06804
654.79794
931.18403
546.07841
1183.2153
545.81326
851.69453
731.97986
703.20328
931.90231
1071.1925
914.96255
1997.0515
451.2302
543.21072
332.12839
790.34179
495.03193
849.79391
417.41225
615.28946
455.10659
440.02066
755.51386
407.76203
202.21464
7.6850039
546.80226
1125.7843
800.97477
1050.1691
784.69756
863.07289
675.626
958.71982
786.97194
846.46067
629.69262
652.14356
663.24689
1326.8596
835.36725
1755.5692
913.77483
1097.7633
768.06466
1171.2855
834.87891
1319.0527
697.99378
1064.6556
467.20273
1356.7073
780.86264
1123.1667
384.26265
145.78352
1919.5182
1879.0698
999.54134
1355.615
1006.4109
1197.0426
1057.4194
1198.3614
883.27763
1297.5732
898.40915
701.07453
776.25831
926.30812
974.03012
2422.6203
1579.9897
1651.125
1236.5301
1510.3934
1183.2909
1074.0529
898.44408
989.50833
901.1248
883.51125
1105.765
1288.8266
1310.1568
870.66521
3246.4223
2515.1683
1358.0164
1299.6953
1141.1608
1368.6077
1102.1886
1427.4804
1129.0773
1180.4904
1080.8591
1267.1527
1343.2949
1095.1776
1063.1476
3119.2692
2006.8459
1459.4
1392.1807
1456.1269
1197.7335
1411.9753
886.0218
1066.3216
843.03536
973.82435
743.53845
914.50051
1614.7456
1446.9952
2924.0056
2146.7153
1372.759
1451.0932
1147.2821
1260.229
862.6893
1029.865
904.98878
929.85569
909.68704
1038.6106
420.66632
881.48288
320.67879
3156.7377
1615.4595
949.20768
477.53054
1175.7203
323.67026
501.14329
435.93061
377.39317
485.7576
414.1645
541.49075
977.47821
648.16736
832.69142
2139.2752
1297.9212
762.80382
380.48892
199.80688
281.37075
289.56222
214.8621
149.27219
97.024476
152.60753
132.70945
412.37473
277.11097
-191.23653
2385.2375
457.04753
1.4142799
62.025404
107.41288
-97.353023
-97.448943
-237.12217
-176.33575
-343.71231
-360.46222
-479.73259
-507.14299
271.20266
-423.56422
845.02995
482.4405
209.49246
149.65733
-122.70083
-29.056134
-745.9709
-297.26055
-565.09255
122.59294
-403.08441
-458.15279
-462.13287
-710.1338
-708.59482
311.70483
10.523355
-286.1717
-510.53641
-417.87229
-598.29391
-414.16442
-573.67976
-463.86556
-806.02756
-705.57823
-763.58106
-668.57481
-724.88114
-728.35721
-25.456159
-408.38046
-571.0725
-532.73273
-532.67737
-483.41129
-622.92644
-525.37504
-726.07882
-581.57606
-698.13672
-589.35708
-701.56288
-709.83005
-681.03368
-494.54228
-592.96128
-490.20644
-544.79217
-420.84399
-545.69611
-492.73082
-597.31142
-486.77266
-603.40814
-511.51858
-647.54714
-547.08937
-655.51268
-666.28243
-608.52962
-534.80016
-438.68893
-387.45064
-233.50894
-359.69049
-361.77634
-308.69355
-351.88075
-336.11461
-339.87603
-286.10016
-320.96227
-334.4727
-249.7495
-204.80001
-567.57803
-220.34362
-107.27303
-432.15322
-120.53997
-182.35208
-152.69101
-212.66748
-25.915755
-337.18046
-58.225034
-203.44559
-85.441047
-194.83205
-40.379538
-381.92631
-12.378657
177.39547
202.99889
221.87741
58.837908
191.73284
56.205208
84.992447
441.86128
79.701869
215.49831
-2.8606468
198.6507
57.949207
102.05983
631.02714
461.47989
597.79396
382.43607
498.68352
350.74749
408.83931
398.30545
223.87137
347.01861
290.54113
418.03444
452.07502
138.06688
554.9296
674.07802
691.00539
648.89897
731.38458
565.83899
637.2277
562.06157
521.39383
592.66811
502.74258
660.56451
502.19186
555.43068
557.87103
602.13392
961.52623
768.4909
952.54757
735.31792
776.35189
684.40362
656.49402
679.48049
588.08307
673.34527
621.82343
553.10405
737.93208
595.26894
892.94577
1082.2894
995.87915
972.0684
943.45819
845.78419
821.19561
804.46918
726.27271
768.88364
686.8868
743.28713
659.85005
750.5929
703.73461
926.91839
1225.7731
945.2676
1087.4974
940.82095
900.25298
870.09283
789.01549
801.95852
742.85805
712.26055
796.68562
608.14384
789.6274
810.12819
1106.5987
1272.3526
1101.0858
1142.7371
1049.588
994.92101
944.43651
920.83377
870.55628
845.5536
817.51974
848.54323
677.64164
862.43596
947.82577
1172.1321
1429.3287
1146.4681
1243.3559
1131.8726
1069.25
1051.9138
992.11382
958.86166
954.25158
868.78664
968.47056
769.75196
949.86212
1212.573
1447.2323
1589.1012
1357.6228
1441.1736
1330.5564
1279.9602
1256.5718
1204.5613
1187.8694
1146.0116
1101.9219
1188.2007
987.23022
1158.1238
1637.5122
1739.5161
1865.9991
1607.3442
1687.273
1569.6678
1517.4184
1494.2527
1458.4748
1408.8455
1421.3596
1346.2635
1459.9937
1294.0829
1419.4072
2220.116
2211.6336
2219.9972
1969.0516
2042.1032
1934.5073
1871.5201
1864.6437
1801.0192
1789.6398
1777.5162
1712.5725
1846.7126
1706.2756
1773.7273
2932.5151
2755.383
2639.6271
2387.1499
2449.6844
2303.7491
2235.1075
2203.4722
2173.264
2133.9208
2147.9727
2092.8479
2240.7121
2157.9189
2159.8334
3724.0357
3354.7188
3089.5071
2838.9541
2862.2919
2728.9461
2647.0664
2646.3279
2585.8084
2559.8431
2573.5104
2518.0306
2669.87
2636.5355
2559.8622
4482.6045
3952.219
3529.741
3262.6631
3282.0371
3116.7446
3023.8471
2980.1206
2929.1828
2897.7557
2916.409
2875.4336
3030.851
3058.8617
2907.6068
5146.1115
4462.6267
3893.0778
3639.0758
3613.0338
3448.7877
3341.0226
3328.2126
3274.7588
3240.4231
3255.098
3215.6297
3355.3503
3412.273
3205.6362
5615.323
4844.3992
4184.5054
3914.0386
3881.8552
3710.3825