/*--------------------------------*- C++ -*----------------------------------*\
  =========                 |
  \\      /  F ield         | OpenFOAM: The Open Source CFD Toolbox
   \\    /   O peration     | Website:  https://openfoam.org
    \\  /    A nd           | Version:  6
     \\/     M anipulation  |
\*---------------------------------------------------------------------------*/
FoamFile
{
    version     2.0;
    format      ascii;
    class       pointVectorField;
    location    "0.92";
    object      lm;
}
// * * * * * * * * * * * * * * * * * * * * * * * * * * * * * * * * * * * * * //

dimensions      [1 -2 -1 0 0 0 0];

internalField   nonuniform List<vector> 
28033
(
(-1.780536e-14 4.8656612e-16 1.3104288e-15)
(-5.4375576e-15 3.3318594e-15 9.9433006e-16)
(-7179.7307 -788.60038 -25.684467)
(-7155.5052 940.37441 14.61562)
(-1.338461e-14 3.0090723e-15 -2.870051e-16)
(-1.2587315e-14 4.9008913e-15 -4.4266115e-15)
(-7152.9902 859.62605 -19.464217)
(-7194.7013 -876.30396 11.527726)
(-5.6329745e-15 1.0535579e-15 6.7193838e-16)
(-2.4534443e-15 3.0423504e-16 5.8836893e-16)
(-5.4923298e-15 2.4302826e-15 8.9528572e-16)
(-2.6209443e-15 -1.1537891e-15 -6.7979696e-16)
(-7.2548563e-15 1.5542294e-15 1.0013199e-15)
(-4.7613589e-15 -9.2108094e-16 -7.3952737e-16)
(-1.132389e-15 -2.2256662e-17 -6.4484848e-16)
(-7.4239857e-16 -2.4218299e-16 -3.6669977e-16)
(-1.1196198e-15 4.5550132e-16 8.383863e-16)
(-2.3465882e-16 2.2667819e-16 1.4996246e-15)
(-4.0583243e-15 -8.7236639e-16 -1.3429605e-15)
(-5.8237189e-15 8.4462789e-16 7.5519031e-16)
(-5.1611762e-15 1.0100276e-15 9.7613867e-16)
(-1.7679952e-15 -8.1010255e-16 4.5192313e-16)
(-4.4158752e-15 1.0299569e-15 -9.452958e-16)
(-7178.2547 -688.92247 -26.243785)
(-7179.2023 -588.54712 -27.630077)
(-7181.7152 -485.85845 -28.298967)
(-7185.1722 -379.46035 -26.923871)
(-7188.05 -269.31301 -24.677419)
(-7190.5174 -155.5812 -19.890901)
(-7191.4588 -39.032452 -14.48951)
(-7190.7715 78.833609 -7.913455)
(-7188.2026 196.84319 -1.1209271)
(-7184.4269 313.26349 5.274829)
(-7179.0402 427.01656 10.460334)
(-7173.298 536.83016 14.023389)
(-7167.4199 642.46433 15.711879)
(-7162.3459 744.37176 16.058877)
(-7158.4273 843.14198 15.011298)
(-11.592377 -28.533291 -34.103378)
(-1.2844868 -44.508743 -54.573717)
(7.0918057 -63.420663 -71.061986)
(12.518155 -84.662586 -83.181789)
(14.636527 -107.41086 -92.117723)
(12.860808 -131.84141 -99.070847)
(7.4185763 -156.86348 -104.53291)
(-1.6460953 -181.96613 -108.78433)
(-14.02015 -207.42406 -112.51209)
(-29.812497 -232.03313 -115.61214)
(-48.399706 -256.06358 -118.33151)
(-69.873908 -278.92578 -120.46388)
(-93.992188 -300.73062 -122.4929)
(-121.07437 -321.04278 -123.30928)
(-150.23437 -339.82491 -123.70083)
(-181.83356 -357.19084 -122.91362)
(-215.76968 -373.33518 -121.24002)
(-252.07073 -388.11282 -117.88171)
(-289.99812 -401.82519 -113.67012)
(-329.89549 -414.60856 -107.98107)
(-371.31024 -426.81122 -101.29296)
(-414.20775 -438.78214 -93.673515)
(-458.08619 -450.40603 -85.497533)
(-503.02294 -462.55202 -76.966178)
(-548.39013 -474.93715 -68.770681)
(-594.31212 -488.1044 -60.9542)
(-640.51775 -502.07323 -54.331294)
(-686.95849 -517.39801 -48.913729)
(-733.55101 -533.69673 -45.369407)
(-780.32033 -551.29437 -43.815025)
(-828.08045 -570.59133 -44.29419)
(-876.18896 -591.02465 -46.950201)
(-925.66875 -612.60221 -51.79657)
(-976.83536 -635.60084 -58.412163)
(-1030.285 -659.61295 -66.850139)
(-1086.6767 -684.63728 -76.309519)
(-1146.4619 -710.40701 -86.388598)
(-1210.6183 -736.76834 -96.52231)
(-1279.5717 -763.63298 -106.35456)
(-1353.7681 -790.60524 -115.04071)
(-1434.0527 -817.63166 -122.18397)
(-1520.4695 -844.51091 -127.2886)
(-1613.4366 -871.02863 -129.98679)
(-1712.9884 -896.97859 -129.93643)
(-1819.0424 -922.23274 -127.18999)
(-1931.3693 -946.58573 -121.65932)
(-2049.5157 -969.89509 -113.5927)
(-2172.9109 -992.01896 -103.29962)
(-2300.8255 -1012.826 -91.236381)
(-2432.4421 -1032.2005 -77.943941)
(-2566.8603 -1050.039 -64.022158)
(-2703.161 -1066.249 -50.097292)
(-2840.4279 -1080.7554 -36.773187)
(-2977.8032 -1093.4865 -24.604355)
(-3114.517 -1104.3881 -14.051226)
(-3249.92 -1113.4087 -5.4593193)
(-3383.512 -1120.5074 0.96819069)
(-3514.9473 -1125.6459 5.1817973)
(-3644.0546 -1128.7958 7.2790198)
(-3770.8024 -1129.9268 7.5299985)
(-3895.3232 -1129.0248 6.2919218)
(-4017.8375 -1126.054 4.0891602)
(-4138.6871 -1121.0291 1.4862757)
(-4258.1656 -1113.9425 -1.0142384)
(-4376.7096 -1104.8191 -2.5545241)
(-4494.6758 -1093.6218 -2.9140697)
(-4611.9686 -1080.4912 -1.4872488)
(-4729.0341 -1065.5526 2.0597467)
(-4845.807 -1048.7356 7.9764299)
(-4961.8566 -1030.2571 16.234249)
(-5076.9418 -1010.3973 26.529992)
(-5190.6648 -989.47531 38.603561)
(-5302.2152 -967.6077 51.831042)
(-5410.9459 -945.20984 65.596352)
(-5516.0918 -922.64223 79.121266)
(-5616.9239 -900.32893 91.607226)
(-5712.8356 -878.66294 102.25408)
(-5803.2899 -858.06245 110.34117)
(-5888.1235 -838.87251 115.27851)
(-5967.1943 -821.6025 116.64364)
(-6040.7957 -806.3032 114.23737)
(-6109.6313 -793.46288 108.09453)
(-6174.3726 -783.14026 98.445426)
(-6236.193 -775.29486 85.707959)
(-6296.3579 -770.04002 70.821031)
(-6356.2968 -767.1994 54.382931)
(-6417.7356 -766.56133 37.558306)
(-6481.8881 -767.88578 21.324091)
(-6550.2843 -770.57102 6.3710591)
(-6624.0615 -774.48696 -5.8769764)
(-6703.6666 -778.64347 -15.755994)
(-6789.8779 -783.34452 -21.710112)
(-6881.9408 -786.50669 -25.135463)
(-6979.1469 -789.2494 -25.865192)
(-7079.6348 -790.08885 -24.521416)
(-2.9865443 22.719608 34.155508)
(4.2336667 36.323055 46.068746)
(16.351118 53.596776 69.454146)
(22.848628 70.539103 80.68335)
(24.859253 90.706181 91.583881)
(22.010709 112.06326 97.336113)
(14.225918 132.60812 100.79244)
(1.7919484 154.80624 100.54487)
(-15.966504 176.93447 98.05498)
(-37.418331 199.05152 93.189619)
(-63.56488 221.6586 86.40345)
(-92.664161 244.01312 78.346544)
(-125.46045 266.67542 69.396885)
(-160.60066 289.19921 60.227436)
(-198.26957 311.67509 50.993363)
(-237.46918 334.05402 42.660266)
(-278.09551 356.02505 35.195364)
(-319.59916 377.92273 29.268393)
(-361.6817 399.15745 25.070404)
(-404.21298 420.08833 22.740667)
(-446.47623 440.3078 22.316235)
(-488.91408 459.93767 24.017678)
(-530.95281 478.90709 27.421292)
(-572.73181 497.21777 32.555616)
(-614.31158 514.86566 39.078551)
(-656.02297 532.17387 46.545597)
(-697.55773 549.00715 54.733166)
(-739.77996 565.69348 63.160478)
(-782.42211 582.53159 71.430443)
(-826.23944 599.53958 79.219929)
(-871.34628 617.29779 86.213949)
(-918.40894 635.62063 92.057089)
(-967.68237 655.19091 96.620483)
(-1019.7484 675.96471 99.666891)
(-1075.028 698.09094 101.34727)
(-1133.8269 721.83047 101.31264)
(-1196.4767 746.92406 100.21666)
(-1263.6221 773.65827 97.806506)
(-1335.2779 801.47353 94.331082)
(-1411.9243 830.55763 90.021598)
(-1493.5118 860.32669 85.162663)
(-1580.252 890.51518 79.970556)
(-1672.1183 920.66888 74.629872)
(-1769.0929 950.33575 69.320905)
(-1871.005 979.03842 64.162888)
(-1977.6746 1006.3085 59.22584)
(-2088.7915 1031.7065 54.541808)
(-2204.024 1054.8386 50.080666)
(-2322.9453 1075.3797 45.78897)
(-2445.1095 1093.0817 41.569629)
(-2570.0122 1107.793 37.318259)
(-2697.148 1119.4531 32.91606)
(-2825.9894 1128.1024 28.254705)
(-2956.0378 1133.8733 23.237031)
(-3086.8071 1136.9772 17.792489)
(-3217.8692 1137.6969 11.87594)
(-3348.8396 1136.3619 5.4773568)
(-3479.4069 1133.3287 -1.3830781)
(-3609.3215 1128.9614 -8.6524087)
(-3738.4069 1123.6052 -16.24984)
(-3866.5404 1117.5679 -24.070535)
(-3993.6552 1111.101 -31.986705)
(-4119.7117 1104.3876 -39.86261)
(-4244.6832 1097.5332 -47.536619)
(-4368.5468 1090.5626 -54.861823)
(-4491.2103 1083.4292 -61.664497)
(-4612.6341 1076.0045 -67.795689)
(-4732.6454 1068.2004 -73.129911)
(-4850.9018 1059.5931 -77.472725)
(-4967.1688 1050.3905 -80.752847)
(-5080.9975 1039.8584 -82.764337)
(-5192.2183 1028.4827 -83.585193)
(-5300.0846 1015.6843 -83.049214)
(-5404.2879 1001.745 -81.178085)
(-5504.4137 986.65201 -78.028129)
(-5600.0672 970.67678 -73.631215)
(-5691.021 954.10773 -68.105553)
(-5777.1437 937.34619 -61.59634)
(-5858.4843 920.8848 -54.291957)
(-5935.2422 905.24733 -46.394025)
(-6007.8265 891.00156 -38.123986)
(-6076.8239 878.67796 -29.73123)
(-6142.9967 868.77418 -21.461768)
(-6207.269 861.69809 -13.568899)
(-6270.6769 857.74708 -6.2885369)
(-6334.3373 857.06422 0.16556009)
(-6399.3788 859.64556 5.6051585)
(-6466.8997 865.2813 9.9115289)
(-6537.8686 873.61036 13.000365)
(-6613.1068 884.07183 14.870016)
(-6693.1314 895.87487 15.671546)
(-6778.1708 908.18945 15.540427)
(-6868.0086 919.94739 14.839674)
(-6961.8576 929.75973 14.118648)
(-7058.1313 936.88963 13.666268)
(3.2927448e-15 -1.3239155e-15 2.3845803e-16)
(2.4470133e-15 -9.6672015e-16 3.215493e-17)
(-9.0574249e-15 9.0550918e-16 6.4029168e-16)
(-1.2642219e-16 -5.721845e-16 4.4370095e-16)
(-7.6811722e-15 -4.9270561e-16 4.1193361e-16)
(-7.3893964e-15 2.7533729e-15 -1.0951501e-15)
(-3.2915852e-15 -8.1743692e-16 3.8364228e-16)
(-1.9032499e-15 5.3200654e-16 -8.2319016e-17)
(-4.7409759e-15 -4.8623412e-16 4.3918642e-16)
(-1.2869644e-14 1.1845665e-15 6.4228907e-16)
(-9.6157521e-15 1.4157374e-15 5.9836601e-16)
(-9.4077204e-15 4.9518432e-16 1.1192419e-15)
(-5.982767e-15 2.6210694e-16 3.0473736e-16)
(-1.1478475e-14 -5.3386198e-16 1.6580808e-15)
(-5.257323e-15 3.6289085e-16 2.8600704e-16)
(-8.1253493 7.0779245 -17.914666)
(2.01847 34.378976 -35.238095)
(13.412755 40.682853 -47.801025)
(16.152234 66.216894 -57.345666)
(17.837769 81.990823 -64.332817)
(12.5211 105.49057 -69.225506)
(6.4509021 125.48141 -74.087782)
(-5.8926448 149.06317 -78.843617)
(-19.372094 169.70941 -83.350312)
(-37.203751 192.19248 -87.949025)
(-57.512352 211.41254 -93.096903)
(-80.145349 232.30146 -97.604707)
(-106.26967 250.27322 -102.83238)
(-133.87683 268.1753 -106.72507)
(-165.17447 284.4879 -111.1118)
(-198.03556 299.30198 -113.47915)
(-233.60415 314.57272 -115.65056)
(-271.21918 326.33948 -116.23396)
(-311.16282 340.07774 -115.32523)
(-353.12973 351.20122 -113.34174)
(-396.94946 363.47994 -109.62821)
(-442.10156 374.57123 -105.07185)
(-488.55599 386.79846 -99.620733)
(-536.15314 399.20347 -93.485225)
(-584.54671 412.37626 -87.233921)
(-633.3415 426.56133 -81.172462)
(-682.57488 441.18008 -76.090621)
(-731.52349 457.83424 -71.442008)
(-780.81815 475.23485 -69.189946)
(-829.76689 494.45071 -67.817415)
(-879.16369 514.7027 -68.813875)
(-928.74958 536.37367 -71.482027)
(-979.10393 559.2539 -76.260744)
(-1030.4662 583.24509 -82.640614)
(-1083.5906 607.21204 -90.105168)
(-1138.6639 634.2221 -99.091832)
(-1196.9705 659.59236 -108.51094)
(-1258.7516 685.92729 -117.69793)
(-1324.8463 712.35098 -126.2508)
(-1395.7706 738.67145 -133.69477)
(-1472.1341 764.6217 -139.45986)
(-1554.3449 790.01096 -143.09917)
(-1642.7379 814.67196 -144.30115)
(-1737.4467 838.41042 -142.83546)
(-1838.4827 861.084 -138.62504)
(-1945.6658 882.54132 -131.71695)
(-2058.6633 902.66746 -122.31976)
(-2176.9816 921.34456 -110.7434)
(-2299.9984 938.48336 -97.43654)
(-2426.9796 953.99924 -82.913094)
(-2557.1141 967.82905 -67.765435)
(-2689.5534 979.91978 -52.594591)
(-2823.4402 990.23714 -38.009168)
(-2957.9582 998.75645 -24.55594)
(-3092.3552 1005.4764 -12.719162)
(-3225.9907 1010.398 -2.8612828)
(-3358.3394 1013.5469 4.773801)
(-3489.0339 1014.9518 10.097566)
(-3617.8431 1014.6533 13.165165)
(-3744.6956 1012.7042 14.18179)
(-3869.6413 1009.1559 13.483508)
(-3992.8475 1004.0754 11.510742)
(-4114.553 997.52773 8.7827872)
(-4235.025 989.58327 5.8469993)
(-4354.5659 980.34322 3.2634549)
(-4473.3724 969.8452 1.5078124)
(-4591.5132 958.23491 1.0994561)
(-4709.5124 945.50355 2.0514659)
(-4826.5827 932.73977 5.1504198)
(-4942.5302 917.87632 9.2529123)
(-5057.5534 903.44149 15.59753)
(-5170.7757 888.32223 22.751456)
(-5281.569 873.0908 30.934132)
(-5389.413 857.99438 39.322775)
(-5493.5569 843.24969 47.381619)
(-5593.382 829.1393 54.502355)
(-5688.3935 815.95666 60.097502)
(-5778.1934 803.99608 63.650845)
(-5862.6073 793.53742 64.775415)
(-5941.6854 784.85437 63.224337)
(-6015.7247 778.17398 58.93172)
(-6085.2874 773.68983 52.01744)
(-6151.1807 771.5182 42.793685)
(-6214.4363 771.71602 31.748341)
(-6276.2614 774.24023 19.522093)
(-6337.9798 778.96934 6.8661291)
(-6400.9585 785.67656 -5.4061998)
(-6466.5215 794.05157 -16.477527)
(-6535.8628 803.68763 -25.600868)
(-6609.9424 814.10415 -32.149195)
(-6689.3931 824.74668 -35.73509)
(-6774.4191 835.01012 -36.217549)
(-6864.6606 844.20176 -33.8472)
(-6959.126 851.67068 -29.287986)
(-7055.9369 857.3702 -24.036568)
(-7154.6848 762.8256 -22.059982)
(-7158.8019 666.17948 -24.743236)
(-7164.7028 567.28698 -26.449509)
(-7171.5877 463.41314 -26.84057)
(-7178.1418 356.85457 -25.182505)
(-7185.4156 244.55656 -22.277897)
(-7189.6377 130.48685 -17.396129)
(-7194.0633 13.106649 -12.103066)
(-7196.9907 -104.34459 -5.9225803)
(-7196.5232 -221.86369 -0.63021161)
(-7196.0638 -337.57807 4.6242452)
(-7194.9447 -450.00831 8.0165827)
(-7193.7006 -560.32835 10.192123)
(-7192.6309 -666.566 11.218356)
(-7192.8535 -771.58919 10.665824)
(-7089.9105 -877.98752 8.095941)
(-6986.2186 -873.63813 6.9460916)
(-6884.3988 -868.15003 5.9421541)
(-6786.6465 -861.18511 5.8438206)
(-6693.234 -854.15436 6.2049718)
(-6605.2591 -847.88891 5.8616161)
(-6522.4852 -843.42676 4.9908702)
(-6444.6503 -841.3766 3.0269535)
(-6371.2446 -842.30048 -0.058786485)
(-6301.4336 -846.56434 -4.4128304)
(-6234.2609 -854.35716 -9.9252588)
(-6168.6512 -865.61149 -16.61714)
(-6103.5942 -880.18268 -24.222751)
(-6038.0439 -897.63005 -32.585592)
(-5970.9978 -917.71027 -41.376524)
(-5901.3398 -939.7703 -50.342864)
(-5828.3543 -963.17651 -59.046095)
(-5751.4904 -987.33456 -67.309055)
(-5670.3113 -1011.6552 -74.761453)
(-5584.611 -1035.5605 -81.190188)
(-5494.3113 -1058.5769 -86.345231)
(-5399.4923 -1080.3028 -90.056968)
(-5300.336 -1100.4366 -92.136643)
(-5197.0679 -1118.8912 -92.544986)
(-5090.2728 -1135.3762 -91.233837)
(-4979.6254 -1150.1431 -88.23281)
(-4866.5306 -1163.3329 -83.083817)
(-4749.6049 -1175.4627 -76.304611)
(-4631.1539 -1184.7484 -68.856399)
(-4510.1033 -1194.2001 -59.656999)
(-4386.9378 -1202.3599 -49.48032)
(-4261.977 -1209.7457 -38.558972)
(-4135.2591 -1216.4782 -27.251901)
(-4006.9463 -1222.5097 -15.822819)
(-3877.189 -1227.8081 -4.6048619)
(-3746.1386 -1232.2204 6.1225429)
(-3613.9787 -1235.5448 16.100373)
(-3480.9293 -1237.5127 25.121551)
(-3347.252 -1237.8195 33.031174)
(-3213.2558 -1236.1453 39.738096)
(-3079.2971 -1232.1726 45.213106)
(-2945.7758 -1225.617 49.493318)
(-2813.1306 -1216.2421 52.669912)
(-2681.8285 -1203.8843 54.886703)
(-2552.3566 -1188.4626 56.323009)
(-2425.2032 -1169.9926 57.185156)
(-2300.856 -1148.5874 57.686641)
(-2179.7702 -1124.4574 58.04019)
(-2062.3781 -1097.9068 58.436173)
(-1949.0654 -1069.3112 59.031968)
(-1840.1315 -1039.1098 59.9485)
(-1735.8992 -1007.8211 61.259739)
(-1636.4765 -975.84687 62.936386)
(-1542.0981 -943.84404 65.049385)
(-1452.8305 -912.16817 67.285323)
(-1368.5053 -881.37767 69.737502)
(-1288.9852 -851.72108 72.078359)
(-1214.5956 -824.18618 74.141521)
(-1145.2852 -796.19401 75.332564)
(-1079.5029 -772.36676 76.373615)
(-1018.2384 -749.92668 76.471264)
(-961.2702 -727.36156 75.344494)
(-907.11402 -708.96352 73.075242)
(-856.23795 -690.61155 70.274708)
(-808.00179 -673.85724 66.176908)
(-762.23478 -656.94193 61.472666)
(-718.35682 -642.16168 55.697381)
(-675.90954 -626.08672 50.023094)
(-634.82836 -611.06926 44.162676)
(-594.68725 -594.86183 38.46523)
(-555.27476 -578.17497 33.400448)
(-516.20681 -560.77733 29.430002)
(-477.65602 -542.80277 26.415243)
(-439.41289 -522.93389 24.679528)
(-401.5447 -502.58036 25.072842)
(-363.82121 -481.59561 26.408001)
(-326.85741 -458.7613 29.989626)
(-290.28872 -435.93003 34.617767)
(-254.68458 -411.77439 40.938815)
(-220.18672 -387.49981 48.46828)
(-187.07744 -362.11271 56.609805)
(-155.15599 -336.74413 65.241541)
(-125.55939 -311.95427 74.58002)
(-98.469939 -285.44668 82.949487)
(-73.32976 -260.80272 91.052969)
(-51.63192 -235.30082 97.552962)
(-33.302226 -209.44553 102.89722)
(-18.222464 -185.2703 105.78816)
(-6.9729999 -160.90951 106.60762)
(-0.069963843 -136.90584 104.01652)
(3.0169683 -112.87505 98.581511)
(1.135094 -90.264537 89.160997)
(-3.163181 -70.709254 76.339558)
(-12.455622 -49.467294 55.122638)
(-26.979437 -31.481669 27.241428)
(-6.8708141e-15 1.5083581e-15 1.9262289e-16)
(-1.2504183e-14 5.7375616e-16 8.4327435e-16)
(-8.3449101e-15 1.4891922e-15 5.3018253e-16)
(-4.9731758e-15 1.4991158e-15 6.2376313e-16)
(-3.4146159e-15 1.5624416e-15 3.1576894e-17)
(2.0582335e-15 9.3962624e-16 -5.746342e-16)
(2.2101935e-15 3.7457559e-17 -1.1841335e-16)
(2.4553765e-15 -8.5141669e-16 -9.3419562e-16)
(1.2987427e-15 1.0081898e-16 1.7950851e-15)
(-4.5074861e-15 9.063971e-16 1.0710522e-15)
(-5.2682467e-15 2.1856155e-15 1.0652666e-15)
(-7.4917339e-15 1.915055e-15 2.2418828e-16)
(-9.400838e-15 1.3708275e-15 6.2833768e-16)
(-6.2048683e-15 1.3247981e-15 5.4317906e-16)
(-6.971104e-15 1.5128103e-15 7.5678131e-16)
(-1.2693866e-14 6.2923345e-15 -2.1364834e-15)
(-5.2452578e-15 2.6791924e-15 -5.3037742e-16)
(-1.0752404e-15 9.8318743e-16 -1.0111087e-16)
(-2.7353382e-15 1.7746034e-15 7.3085398e-17)
(1.0178949e-15 -1.5450237e-16 -4.119182e-16)
(-1.4303492e-15 4.136346e-16 -3.3264033e-16)
(-1.0059749e-14 4.7133437e-15 -1.6449855e-15)
(2.9801421e-15 -1.9180379e-15 -8.3172098e-16)
(-4.79756e-15 2.8035442e-15 1.1420498e-15)
(-5.4778068e-15 3.5047253e-15 -3.934403e-16)
(-1.8117877e-15 1.1581936e-15 -9.1309836e-16)
(-3.9812639e-16 4.7407236e-16 -2.2932148e-16)
(-1.5272242e-15 1.100363e-15 -2.2557932e-16)
(-4.1024849e-15 1.9838802e-15 2.8069696e-17)
(-5.3424143e-16 2.551799e-16 -1.9455919e-16)
(-7155.541 938.29528 14.359704)
(-7155.6422 935.36221 13.818067)
(-7155.1661 930.68249 12.798231)
(-7153.7631 924.44781 11.642233)
(-7151.8496 917.19709 10.146633)
(-7149.6564 909.12224 8.4441607)
(-7147.5086 900.82146 6.3115268)
(-7145.7941 892.79365 3.7423729)
(-7144.6671 885.40744 0.6572616)
(-7144.3344 879.04718 -2.8888374)
(-7144.7176 874.04464 -6.8150114)
(-7145.8256 870.29766 -10.806585)
(-7147.4121 867.61006 -14.62983)
(-7149.1651 865.8298 -17.240434)
(-7151.0436 863.67674 -19.401297)
(-7178.9038 -787.51337 -25.069205)
(-7178.1302 -785.60369 -22.933845)
(-7177.397 -784.39972 -19.247776)
(-7177.2147 -784.92034 -14.639933)
(-7177.3789 -787.55753 -9.8724256)
(-7178.4701 -792.49821 -5.3164711)
(-7180.4075 -799.57445 -1.2135548)
(-7183.0983 -808.47023 2.2831308)
(-7186.3248 -818.64147 5.1359237)
(-7189.7255 -829.52435 7.3670594)
(-7192.9405 -840.45828 9.0796722)
(-7195.4068 -850.70832 10.264036)
(-7196.9818 -859.96707 11.190057)
(-7196.9872 -867.05379 11.457349)
(-7195.8068 -872.60901 11.414533)
(-3.1141239 -30.456263 -36.184294)
(6.257661 -47.565157 -49.233154)
(15.987496 -67.07678 -63.19672)
(21.315407 -85.977687 -71.84584)
(24.717555 -105.52485 -80.24166)
(22.786464 -126.33257 -85.986679)
(17.910241 -147.13322 -90.990519)
(8.1993085 -169.27138 -94.84555)
(-4.0133006 -190.58311 -98.469217)
(-20.282981 -212.29774 -101.6064)
(-39.426168 -232.87114 -104.12125)
(-61.635425 -253.33169 -106.80448)
(-86.510143 -271.94218 -108.5394)
(-114.0823 -290.07578 -110.07004)
(-144.0797 -306.42187 -110.56133)
(-176.48948 -322.13445 -110.41172)
(-211.06335 -335.98388 -108.90786)
(-247.66704 -349.27609 -106.55906)
(-286.21414 -361.42433 -102.74988)
(-326.34294 -373.00759 -97.920888)
(-368.07132 -384.10739 -91.973383)
(-410.90715 -394.99979 -85.196469)
(-454.82833 -405.9864 -77.715944)
(-499.44997 -417.30378 -70.039082)
(-544.61178 -429.14398 -62.351852)
(-590.17638 -441.67247 -55.19351)
(-635.94408 -455.30648 -48.791527)
(-681.84964 -469.71641 -43.619822)
(-728.05775 -485.3473 -40.036186)
(-774.47436 -502.13717 -38.11295)
(-821.48071 -519.76364 -38.145673)
(-869.35124 -538.55513 -40.134065)
(-918.54538 -558.18961 -44.050808)
(-969.34291 -578.75339 -49.655992)
(-1022.5476 -599.66556 -56.917796)
(-1078.8122 -621.27934 -65.112501)
(-1138.5636 -643.11164 -73.89631)
(-1202.6264 -664.92653 -83.066125)
(-1271.6224 -686.98354 -91.666655)
(-1345.9487 -708.74713 -99.553409)
(-1426.2751 -730.27251 -106.03731)
(-1512.8739 -751.52818 -110.80197)
(-1606.006 -772.24223 -113.33372)
(-1705.6805 -792.52353 -113.64021)
(-1811.937 -812.27011 -111.43198)
(-1924.4418 -831.42498 -106.82938)
(-2042.791 -849.96873 -99.962911)
(-2166.4023 -867.86382 -91.126852)
(-2294.5617 -885.06327 -80.708474)
(-2426.4559 -901.51356 -69.184912)
(-2561.1972 -917.14377 -57.08239)
(-2697.8707 -931.86756 -44.950733)
(-2835.5707 -945.58355 -33.32213)
(-2973.4411 -958.16768 -22.686912)
(-3110.7137 -969.49061 -13.451826)
(-3246.7398 -979.40289 -5.9240493)
(-3381.0122 -987.75654 -0.28520439)
(-3513.1835 -994.39908 3.4150071)
(-3643.0628 -999.18727 5.2685334)
(-3770.6262 -1001.9896 5.4929853)
(-3895.9688 -1002.6938 4.427857)
(-4019.3293 -1001.2208 2.5016957)
(-4140.9876 -997.49169 0.22266826)
(-4261.298 -991.59364 -1.8985804)
(-4380.6127 -983.34719 -3.2905168)
(-4499.2469 -973.003 -3.5562278)
(-4617.2215 -960.84409 -2.1389054)
(-4734.8508 -946.64301 0.95612439)
(-4852.1085 -931.071 6.2029919)
(-4968.4492 -913.95106 13.402419)
(-5083.9057 -895.92577 22.528781)
(-5197.692 -877.21877 33.06692)
(-5309.2824 -858.1003 44.715224)
(-5417.8949 -839.00269 56.8172)
(-5522.8184 -820.2914 68.746578)
(-5623.3201 -802.28399 79.791776)
(-5718.7752 -785.26253 89.253655)
(-5808.738 -769.51949 96.509868)
(-5892.9026 -755.20265 101.05686)
(-5971.3114 -742.53383 102.48968)
(-6044.2046 -731.48191 100.66409)
(-6112.211 -722.11919 95.481371)
(-6176.1463 -714.5119 87.389077)
(-6237.3334 -708.42103 76.606668)
(-6296.7308 -703.72735 63.805418)
(-6356.0005 -700.09174 49.789833)
(-6416.7064 -697.51709 35.24672)
(-6480.3683 -695.67337 21.022077)
(-6548.1204 -694.40853 7.9654419)
(-6621.6592 -693.5962 -3.2127831)
(-6700.7595 -692.83366 -12.174482)
(-6786.8875 -692.48053 -18.378857)
(-6879.078 -691.78664 -22.438844)
(-6976.1748 -691.22485 -24.344411)
(-7077.5465 -690.57538 -25.056521)
(8.0602361 -28.109307 -34.036772)
(17.519816 -39.876586 -45.522289)
(24.243054 -61.55698 -54.633946)
(31.055574 -76.91438 -63.2955)
(33.117044 -96.433414 -69.308106)
(32.045613 -114.21562 -74.217774)
(26.171047 -133.98582 -78.29894)
(17.435857 -152.8936 -82.003738)
(4.263626 -172.37093 -85.487893)
(-12.208736 -191.11708 -88.115403)
(-31.830076 -209.64148 -91.365613)
(-54.584977 -227.03999 -93.465939)
(-80.064527 -243.70973 -95.941072)
(-108.35822 -259.0765 -97.264694)
(-138.94523 -273.35468 -98.475096)
(-172.08062 -286.34379 -98.207103)
(-207.00524 -298.30894 -97.606334)
(-244.29892 -309.2327 -95.352928)
(-282.98988 -319.32821 -92.345228)
(-323.5436 -328.8777 -87.96654)
(-365.21046 -338.01497 -82.731679)
(-408.15826 -347.14703 -76.479067)
(-451.84541 -356.36331 -69.747978)
(-496.30698 -366.10323 -62.564825)
(-541.13163 -376.37199 -55.488772)
(-586.30552 -387.57004 -48.666306)
(-631.64122 -399.54093 -42.63393)
(-677.21373 -412.6647 -37.646322)
(-722.87885 -426.76558 -33.946628)
(-768.98125 -441.87026 -31.903713)
(-815.66521 -457.90841 -31.558782)
(-863.28907 -474.80564 -33.014429)
(-912.1951 -492.35586 -36.192681)
(-962.97612 -510.38466 -41.041181)
(-1016.2509 -528.76494 -47.20196)
(-1072.447 -547.2721 -54.499971)
(-1132.4609 -565.71978 -62.339632)
(-1196.7237 -584.09012 -70.40633)
(-1265.8796 -602.09932 -78.259534)
(-1340.4866 -619.75999 -85.377358)
(-1421.0325 -636.90384 -91.288441)
(-1507.8523 -653.72862 -95.744117)
(-1601.1496 -669.86295 -98.270799)
(-1701.0047 -685.69315 -98.674004)
(-1807.3343 -701.04696 -96.972599)
(-1919.8885 -716.04915 -93.119496)
(-2038.2263 -730.72805 -87.265414)
(-2161.7956 -745.13042 -79.655392)
(-2289.8918 -759.27235 -70.639819)
(-2421.7208 -773.14762 -60.641525)
(-2556.4217 -786.71754 -50.122978)
(-2693.0979 -799.90752 -39.576506)
(-2830.8699 -812.6069 -29.470091)
(-2968.8965 -824.66704 -20.241421)
(-3106.4307 -835.91371 -12.246004)
(-3242.8287 -846.1395 -5.7597248)
(-3377.5931 -855.13075 -0.93898214)
(-3510.3689 -862.65863 2.1740817)
(-3640.9651 -868.50821 3.6570063)
(-3769.3331 -872.47448 3.7136821)
(-3895.5585 -874.3885 2.6339094)
(-4019.8467 -874.11359 0.80649222)
(-4142.4466 -871.56908 -1.3069243)
(-4263.7131 -866.76004 -3.3176697)
(-4383.8692 -859.58719 -4.5914734)
(-4503.2727 -850.41562 -4.997494)
(-4622.0407 -839.26921 -3.789912)
(-4740.3391 -826.36129 -0.98727015)
(-4857.8126 -811.761 3.5445188)
(-4974.6048 -795.92802 9.9399919)
(-5090.111 -779.31186 17.981918)
(-5203.8881 -762.34088 27.402432)
(-5315.2564 -745.27676 37.765456)
(-5423.5304 -728.62699 48.572772)
(-5527.96 -712.65586 59.259388)
(-5627.8957 -697.66836 69.185881)
(-5722.7327 -683.89629 77.755781)
(-5812.0215 -671.49922 84.420357)
(-5895.5571 -660.53084 88.70496)
(-5973.3407 -651.03775 90.282662)
(-6045.6971 -642.90201 89.028068)
(-6113.1821 -636.0024 84.810924)
(-6176.7462 -630.36327 78.129866)
(-6237.4855 -625.16657 68.532247)
(-6296.5757 -620.39099 57.851596)
(-6355.8003 -616.70474 45.412542)
(-6416.4457 -613.22778 32.717762)
(-6480.0662 -609.94108 20.19573)
(-6547.8297 -606.79247 8.5008062)
(-6621.2065 -603.68345 -1.5549138)
(-6700.3804 -600.63744 -10.020636)
(-6786.1081 -598.06113 -16.058185)
(-6878.4317 -595.24219 -20.694721)
(-6975.233 -593.249 -23.289076)
(-7077.2518 -591.60629 -25.183914)
(14.748824 -22.953297 -31.118152)
(24.400527 -34.69021 -39.154737)
(34.724893 -51.753662 -47.913686)
(39.594495 -67.387885 -53.962238)
(42.013028 -83.744506 -58.20565)
(39.622575 -100.71415 -61.921322)
(34.675574 -117.16293 -65.59921)
(24.565544 -134.33247 -68.864087)
(11.444332 -150.5256 -71.507864)
(-5.3899823 -167.3708 -74.972688)
(-25.495575 -182.5629 -77.453335)
(-48.826178 -197.99273 -80.518123)
(-74.891724 -211.57017 -82.664114)
(-103.67292 -224.84767 -84.977816)
(-135.0422 -236.39549 -85.983648)
(-168.45605 -247.33841 -86.920806)
(-204.23931 -256.82138 -86.251572)
(-241.65796 -265.71886 -84.974609)
(-280.92418 -273.6731 -82.29799)
(-321.5523 -281.21794 -78.701483)
(-363.46653 -288.4511 -73.887222)
(-406.3221 -295.64624 -68.366433)
(-450.02257 -303.09635 -62.026146)
(-494.21465 -310.94031 -55.392421)
(-538.8226 -319.47426 -48.581154)
(-583.6659 -328.71945 -42.090809)
(-628.69662 -338.94253 -36.151817)
(-673.8245 -350.07379 -31.100262)
(-719.27848 -362.14885 -27.3136)
(-765.05605 -375.13517 -24.914132)
(-811.51916 -388.87772 -24.107925)
(-858.97316 -403.32417 -24.953491)
(-907.84642 -418.22492 -27.460903)
(-958.64797 -433.46574 -31.472817)
(-1011.9535 -448.80406 -36.821032)
(-1068.297 -464.15682 -43.165905)
(-1128.4039 -479.26628 -50.174611)
(-1192.7976 -494.04468 -57.540396)
(-1262.2307 -508.42539 -64.650134)
(-1337.0991 -522.27104 -71.176566)
(-1417.846 -535.67375 -76.759239)
(-1504.829 -548.5205 -80.979107)
(-1598.2608 -560.91385 -83.548189)
(-1698.2119 -572.95113 -84.233671)
(-1804.536 -584.70324 -83.033143)
(-1917.0023 -596.26187 -79.920056)
(-2035.1962 -607.72809 -75.002642)
(-2158.567 -619.18961 -68.513467)
(-2286.4284 -630.69122 -60.760911)
(-2418.0153 -642.25875 -52.11707)
(-2552.4849 -653.86688 -43.005075)
(-2688.972 -665.45058 -33.8606)
(-2826.6199 -676.89553 -25.109228)
(-2964.6148 -688.04435 -17.139872)
(-3102.2262 -698.70078 -10.277821)
(-3238.8272 -708.63596 -4.7670566)
(-3373.9263 -717.60346 -0.7505445)
(-3507.1712 -725.34407 1.7319116)
(-3638.3613 -731.61088 2.7556451)
(-3767.4355 -736.16542 2.4949944)
(-3894.4579 -738.81749 1.2197295)
(-4019.6059 -739.40145 -0.71958265)
(-4143.0964 -737.83787 -2.9256571)
(-4265.2567 -734.05393 -5.0184118)
(-4386.2375 -728.13463 -6.4154213)
(-4506.4924 -720.12281 -7.1704306)
(-4626.0062 -710.25403 -5.934043)
(-4744.5478 -698.06825 -4.3653648)
(-4862.5573 -685.39763 -0.14535346)
(-4979.3951 -671.62434 5.2829612)
(-5094.9816 -657.33791 12.393578)
(-5208.4903 -642.79014 20.723563)
(-5319.4772 -628.30561 29.946671)
(-5427.2394 -614.27331 39.649582)
(-5531.1094 -600.9948 49.323898)
(-5630.3971 -588.69569 58.387878)
(-5724.58 -577.5244 66.290951)
(-5813.2515 -567.58368 72.554856)
(-5896.2136 -558.88609 76.749153)
(-5973.5388 -551.3645 78.580896)
(-6045.5527 -544.92794 77.875357)
(-6112.8727 -539.35544 74.612359)
(-6176.385 -534.56177 69.031304)
(-6237.0266 -530.10668 61.137766)
(-6296.3659 -526.70978 51.606751)
(-6355.7172 -522.78229 41.012077)
(-6416.5413 -518.90955 30.074394)
(-6480.2825 -514.7466 18.98963)
(-6548.0435 -510.58508 8.7547988)
(-6621.5254 -506.26195 -0.41793403)
(-6700.3163 -501.9999 -8.1211654)
(-6786.0258 -498.21044 -14.090524)
(-6878.0417 -494.48238 -18.654489)
(-6974.7396 -491.62293 -22.029723)
(-7077.3466 -489.46449 -24.585598)
(19.957581 -20.41102 -26.725992)
(32.760918 -28.361288 -33.931294)
(41.845582 -43.227278 -39.397495)
(47.184245 -55.688916 -43.714906)
(48.545444 -70.46541 -46.829569)
(47.328585 -84.23052 -50.175993)
(40.700716 -99.086063 -53.050344)
(31.028768 -112.99437 -55.37943)
(17.471748 -127.4748 -58.901186)
(0.15283119 -140.85208 -61.300866)
(-20.485024 -154.08296 -64.74261)
(-44.184851 -166.25237 -67.254773)
(-70.770773 -177.6373 -70.387925)
(-100.31345 -188.00219 -72.24832)
(-131.87778 -197.17827 -74.445034)
(-166.19919 -205.49053 -75.06877)
(-202.10335 -212.65389 -75.378087)
(-240.17907 -219.13837 -74.29482)
(-279.5644 -224.77758 -72.35013)
(-320.53586 -230.13278 -69.092806)
(-362.4117 -235.1021 -65.001653)
(-405.39007 -240.22903 -59.849524)
(-448.85304 -245.47011 -54.09614)
(-492.93994 -251.29162 -47.819733)
(-537.25127 -257.64064 -41.44253)
(-581.83524 -264.85719 -35.18622)
(-626.50136 -272.8669 -29.410538)
(-671.42217 -281.81036 -24.458957)
(-716.51779 -291.59493 -20.544065)
(-762.10097 -302.22211 -17.926538)
(-808.3881 -313.51174 -16.773901)
(-855.72873 -325.38027 -17.146971)
(-904.58847 -337.59073 -19.04772)
(-955.42706 -350.03236 -22.363484)
(-1008.8755 -362.43483 -26.960819)
(-1065.4008 -374.7249 -32.504561)
(-1125.937 -386.61052 -38.752126)
(-1190.8706 -398.15193 -45.300716)
(-1260.5146 -409.04824 -51.748899)
(-1335.593 -419.60858 -57.865895)
(-1416.5734 -429.4837 -63.006669)
(-1503.698 -438.94615 -67.029363)
(-1597.2088 -447.94828 -69.598711)
(-1697.1352 -456.67695 -70.542898)
(-1803.3662 -465.23973 -69.789123)
(-1915.6455 -473.75902 -67.338209)
(-2033.5792 -482.36788 -63.282705)
(-2156.6223 -491.18114 -57.836605)
(-2284.1193 -500.27286 -51.256929)