/*--------------------------------*- C++ -*----------------------------------*\
  =========                 |
  \\      /  F ield         | OpenFOAM: The Open Source CFD Toolbox
   \\    /   O peration     | Website:  https://openfoam.org
    \\  /    A nd           | Version:  6
     \\/     M anipulation  |
\*---------------------------------------------------------------------------*/
FoamFile
{
    version     2.0;
    format      ascii;
    class       pointScalarField;
    location    "0.92";
    object      p;
}
// * * * * * * * * * * * * * * * * * * * * * * * * * * * * * * * * * * * * * //

dimensions      [1 -1 -2 0 0 0 0];

internalField   nonuniform List<scalar> 
28033
(
-342787.41
646229.64
426.24129
81.202909
-644894.11
868978.57
67.307722
-23.760038
-267459.68
-218673.53
-168819.68
-126545.86
-78446.859
-38336.41
538.10343
42696.984
86631.944
119293.43
171286.21
194916.49
238206.14
307836.29
282691.14
-102.40749
-118.22763
-122.02684
-8.4265335
-93.54383
-131.46493
-193.44389
-369.3128
-424.58382
-508.03803
-590.69509
-519.07371
-392.28494
-172.06025
10.506634
-80781.773
-81879.391
-67356.804
-67922.377
-64410.027
-61159.042
-56695.844
-52202.609
-47926.234
-42362.837
-38165.103
-33181.891
-28091.602
-23107.044
-19254.869
-14874.804
-10115.5
-6814.9666
-3098.0188
70.869959
3043.2291
5493.2149
8562.8124
10472.67
12704.248
14796.862
16884.381
18699.077
20884.847
22757.453
25016.421
27150.474
29696.462
31960.932
34421.24
36679.364
39305.683
41855.547
43848.715
46195.166
48061.369
49584.423
50953.844
52232.29
52978.611
53707.934
53961.277
54163.569
54016.125
53842.843
53416.423
53023.205
52506.001
52028.189
51554.322
51119.295
50742.557
50409.172
50107.4
49841.956
49551.874
49212.935
48797.022
48317.814
47632.344
46815.229
45969.124
44623.909
42904.727
41151.964
39100.421
36962.039
34644.365
32270.495
29791.05
27354.064
24944.478
22664.768
20450.077
18534.819
16660.316
15046.527
13577.224
12302.682
11224.221
10270.52
9382.0785
8583.9823
7651.6689
6879.5212
5695.1685
4954.0714
3415.5262
2382.7383
918.33701
118776.76
90018.811
94414.282
78792.994
84942.865
81558.18
76733.882
74167.059
69846.578
65705.481
60412.636
56623.386
50866.525
46768.121
41275.231
37637.744
32528.227
28995.648
24941.312
21571.796
18341.701
15448.583
12870.208
10188.286
8448.593
5930.468
4496.9491
2243.0419
656.30979
-1546.9469
-3031.8664
-5425.5881
-7068.5316
-9478.4894
-11497.921
-13863.305
-15950.227
-18175.063
-20225.978
-22254.24
-24121.603
-25761.824
-27285.769
-28527.132
-29578.881
-30403.539
-31012.481
-31414.506
-31673.085
-31772.478
-31781.779
-31725.461
-31637.687
-31574.117
-31519.665
-31545.035
-31621.875
-31777.586
-31983.383
-32248.238
-32510.492
-32780.463
-32981.406
-33097.75
-33084.24
-32907.988
-32537.446
-31987.75
-31209.693
-29985.903
-28884.458
-27316.209
-25696.736
-23903.76
-22015.92
-20081.634
-18117.396
-16215.579
-14367.061
-12666.659
-11070.817
-9655.6004
-8381.304
-7294.4531
-6331.0672
-5531.4812
-4822.4398
-4219.2045
-3662.3001
-3159.7179
-2633.8827
-2164.8844
-1640.0818
-964.70785
-374.05339
-486839.47
-432551.61
-276877.82
-264094.24
-158102.56
-67976.829
-7646.4276
69753.448
145092.11
219937.21
288862.94
368703.34
458851.28
530491.85
566051.29
183133.72
127762.82
53782.868
103829.26
78304.625
80842.46
73491.004
74363.42
63511.824
63448.283
57186.563
54538.068
47640.136
45355.444
37106.451
33929.228
28811.826
26660.499
21533.852
19794.245
15528.749
14149.931
10078.03
7171.0607
7046.3928
2734.978
2082.8604
-1507.5027
-2845.7044
-5878.1077
-6720.7745
-10139.861
-11637.923
-14712.668
-17000.803
-19050.811
-21911.583
-24452.38
-26526.933
-28859.127
-30677.55
-32506.946
-33946
-35215.126
-36095.903
-36869.294
-37199.779
-37451.948
-37390.379
-37265.951
-36949.092
-36621.792
-36225.821
-35866.885
-35533.929
-35243.837
-35074.915
-34921.037
-34872.764
-34854.363
-34849.108
-34834.342
-34759.808
-34582.521
-34289.968
-33781.258
-33252.241
-32660.705
-29967.789
-29981.887
-28256.501
-26567.477
-24734.887
-22811.464
-20810.749
-18847.542
-16912.888
-15122.53
-13426.33
-11930.124
-10580.961
-9468.5439
-8484.4654
-7740.328
-7082.214
-6581.4831
-6110.8366
-5713.1932
-5260.3179
-4780.7513
-4215.4303
-3509.3952
-2692.8337
-1710.1477
-605.33702
120.07302
-37.090732
21.128066
-103.35253
21.467799
0.1225478
221.56238
369.14376
354.75982
596.95233
287.75219
498.69564
74.629504
-18.122622
-229.13361
819.01762
2091.9953
3050.4892
4069.304
5112.7075
6070.5765
7035.1601
8011.8446
8999.1693
10122.131
11301.56
12588.921
14114.472
15802.494
17668.002
19746.413
21997.113
24362.143
26881.288
29452.87
32045.983
34611.824
37120.162
39432.768
41582.498
43373.129
44225.891
47539.01
47665.565
48809.723
49455.25
49920.95
50182.474
50308.776
50342.796
50299.141
50271.964
50212.118
50244.893
50284.414
50426.514
50577.822
50820.603
51013.531
51249.512
51359.712
51440.356
51313.546
51057.202
50559.899
49853.062
48830.044
47595.798
46136.675
44413.567
42522.367
40277.754
37864.405
35987.544
33241.777
30949.859
28830.019
26207.818
24243.988
22352.863
19916.765
18135.243
16035.423
13982.601
12457.652
10483.897
8030.8706
6230.4697
3645.4214
1022.0776
-2329.6147
-4703.0682
-9719.8145
-12113.318
-17009.039
-21688.863
-28426.156
-31288.831
-38565.404
-40280.718
-45735.775
-53372.431
-58036.748
-61485.742
-62927.407
-68220.427
-75750.642
-78478.257
-74840.252
-106295.77
-262464.6
-294743.97
-311455.3
-328064.17
-336495.42
-346060.02
-347388.32
-352232.76
-350351.72
-343482.39
-348297.82
-328758.1
-318970.45
-319636.22
-267584.14
582721.67
730948.17
706329.06
755091.56
719553.42
689634.71
783163.18
822227.82
775622.85
774326.36
751541.11
732532.64
697229.89
692988.35
630656.31
473.30933
821.0248
1222.6822
1477.0987
1642.035
1694.5316
1737.7286
1672.3356
1575.1091
1410.4138
1211.0456
1010.2974
764.2978
344.67709
394.99603
114.74953
-194.64687
-487.15074
-799.51298
-980.7814
-1177.553
-1340.291
-1446.2147
-1496.1481
-1481.5335
-1373.1089
-1201.9247
-931.09381
-551.01454
-160.31206
-73305.681
-67136.879
-57397.824
-55854.656
-52906.63
-48785.604
-46504.564
-42974.914
-39472.124
-35545.556
-31573.044
-27116.706
-23459.369
-19298.141
-15464.672
-11053.567
-8425.7936
-4637.8972
-1595.0842
1383.1518
3953.4174
6806.1281
8769.8867
10985.309
13160.379
15083.395
16935.779
18947.902
20761.078
22744.344
24755.124
26628.6
28596.261
30642.912
32828.038
35019.85
36984.968
38849.65
40857.745
42584.841
44284.711
45682.131
46877.237
47873.269
48605.211
49200.368
49463.987
49675.334
49586.634
49450.721
49129.786
48791.23
48342.105
47912.084
47451.058
47014.209
46592.62
46190.005
45803.148
45418.628
45003.739
44540.59
44028.334
43435.543
42550.268
41744.931
40510.629
39201.698
37761.196
36246.278
34555.165
32634.717
30620.786
28566.506
26434.021
24359.195
22288.537
20330.241
18456.543
16801.977
15162.071
13764.388
12587.745
11575.987
10644.194
9741.2059
8918.5712
8086.7227
7304.2747
6464.4694
5570.4179
4700.5169
3496.9356
2517.6696
1213.6517
-62486.139
-51785.862
-44214.416
-44562.533
-41379.414
-39440.121
-37661.474
-34752.344
-31957.321
-28356.096
-25857.148
-22158.999
-19095.749
-15368.711
-12549.803
-9405.2389
-6545.2822
-3417.8479
-1008.0464
1496.8004
3993.8876
5851.679
8064.1167
10005.046
11987.146
13462.686
15487.493
17056.983
18831.259
20436.371
22238.575
23870.514
25734.508
27457.762
29293.638
30904.061
32663.94
34363.394
35934.089
37387.055
38716.087
39916.21
40876.042
41775.628
42412.38
42956.44
43250.011
43489.194
43481.666
43448.141
43246.164
43023.059
42693.997
42369.094
41996.676
41621.599
41238.335
40855.458
40452.06
40044.42
39590.37
39095.539
38559.173
37918.144
37109.289
36579.446
35561.909
34644.589
33555.031
32171.899
30703.242
29105.52
27420.808
25656.201
23859.746
22114.627
20300.778
18677.402
17019.865
15571.015
14141.042
12881.191
11866.938
10563.303
9783.4451
8853.7263
8064.6683
7336.4015
6583.2385
5877.5132
4988.7351
4307.9924
3186.4684
2400.2653
1042.9556
-47266.88
-41001.962
-33205.349
-33746.187
-30116.699
-29281.107
-28154.862
-25683.824
-23168.22
-21502.963
-18773.896
-15974.333
-13506.42
-11121.607
-8442.545
-5844.4941
-3517.2708
-1257.4902
931.15434
3132.2996
5067.4752
6844.675
8851.0564
10324.667
11954.123
13462.353
15028.137
16274.36
17854.556
19130.042
20667.308
22018.345
23532.233
24931.429
26408.236
27855.612
29252.108
30491.079
31890.539
33011.61
34052.8
35066.227
35971.9
36642.507
37224.535
37617.388
37882.922
38024.815
38024.386
37944.83
37753.612
37516.457
37198.016
36871.469
36499.95
36117.298
35733.183
35335.18
34924.793
34508.251
34058.115
33571.325
33053.074
32395.446
31808.55
31097.915
30447.454
29281.479
28442.741
27279.865
26103.875
24665.661
23159.183
21684.114
20175.012
18694.152
17265.018
15868.118
14578.882
13368.626
12239.164
11257.151
10305.942
9472.3128
8621.9363
7835.8112
7191.4162
6532.6383
5927.7339
5264.064
4536.4161
3938.8514
2954.0651
2140.4219
1030.188
-33553.618
-29115.949
-23396.423
-24452.532
-20750.435
-21294.549
-20046.627
-17493.879
-16817.12
-14632.792
-12811.713
-10551.749
-9209.7512
-6526.8091
-5021.2745
-2690.0654
-1305.6374
996.82203
2392.2805
4209.7226
5505.5193
7151.4689
8463.7631
9655.6667
11169.195
12216.448
13536.819
14698.677
15965.67
17002.188
18380.447
19350.721
20659.758
21693.445
23044.438
23948.494
25276.325
26400.687
27495.558
28270.278
29335.62
29991.431
30624.967
31118.035
31544.783
31863.082
32048.644
32173.958
32172.879
32112.694
31955.198
31774.047
31502.61
31237.763
30907.429
30580.398
30219.779
29856.064
29455.099
29054.179
28609.378
28134.264
27598.692
27061.512
26398.38
25736.807
25006.725
24024.001
23104.026
22063.516
21085.333
19874.1
18844.181
17727.587
16525.214
15355.231
14213.572
13129.443
12089.076
11134.246
10250.761
9450.9021
8689.2178
8015.4638
7410.9016
6866.6592
6327.0491
5763.6098
5229.0414
4614.7046
4006.7462
3387.1872
2497.9113
1832.1205
873.25232
-25236.028
-18259.184
-12753.161
-14020.586
-12084.425
-12070.49
-10830.929
-9904.5713
-8741.6738
-7613.3267
-6028.4382
-5012.1472
-3327.9921
-2153.0693
-574.72153
682.76305
1889.4087
3415.8718
4389.2685
5692.5844
6891.5591
8043.6383
9007.1635
10193.299
11160.363
12021.465
13133.195
13857.14
14873.517
15693.865
16674.303
17426.739
18464.788
19294.432
20170.018
20952.454
22067.167
22717.925
23629.783
24953.412
25287.615
25963.603
26579.016
27002.084
27391.664
27639.949
27787.259
27877.041
27874.188
27781.879
27646.824
27454.021
27198.115
26925.253
26605.813
26265.03
25908.189
25524.36
25124.215
24707.626
24267.774
23780.737
23298.149
22780.141
22095.881
21610.903
20862.685
20084.483
19232.837
18335.391
17473.423
16428.645
15314.584
14381.971
13343.145
12395.158
11532.175
10675.873
9876.5589
9147.9357
8444.2026
7830.827
7247.6074
6729.6605
6261.0795
5794.9984
5383.7293
4893.806
4503.8767
3940.0874
3504.9299
2868.5723
2241.439
1571.7383
712.42358
-11983.278
-8389.0397
-5403.4036
-6423.157
-4298.8353
-3348.1952
-4361.7914
-2238.4339
-2187.8465
-1175.4777
-577.15382
719.96254
883.22162
2439.8039
2725.7547
3897.013
4462.2262
5790.2926
5894.4612
7334.9098
7616.7215
8523.5989
9106.7526
9869.5124
10393.918
11151.898
11743.711
12324.936
13086.886
13524.978
14283.573
14739.655
15536.778
15895.155
16694.257
17198.473
17972.949
18482.448
19847.415
20146.659
20981.09
21226.268
21574.501
21832.59
22025.966
22147.178
22196.828
22204.165
22134.427
22027.767
21870.212
21682.524
21444.656
21196.833
20919.292
20612.376
20303.114
19964.035
19612.681
19238.82
18845.644
18435.716
17987.73
17486.303
17055.421
16413.93
15918.748
15280.159
14611.148
14008.776
13230.575
12525.198
11948.569
11058.206
10115.722
9464.8981
8797.7661
8198.813
7630.945
7125.187
6629.4798
6221.4931
5802.3958
5450.6855
5111.9942
4755.6009
4457.571
4035.4026
3765.9871
3244.6219
2926.242
2322.6081
1839.0022
1145.2484
440.02727
-508.68744
2969.211
3321.3994
2721.782
4890.3506
3747.2004
4109.9965
5367.2353
4988.325
5210.2644
6158.2314
5824.157
6583.3125
6737.5359
6985.9014
7452.53
7639.5684
7943.6325
8150.8649
8805.4867
8694.377
9464.4604
9488.7567
10055.946
10312.219
10728.502
11008.39
11440.901
11751.966
12058.204
12526.704
12787.707
13178.79
13461.171
13909.191
14031.135
14509.242
14777.159
14987.666
15087.427
15436.046
15570.108
15666.028
15790.584
15835.442
15865.566
15793.826
15758.534
15626.093
15504.49
15328.533
15147.113
14916.822
14702.256
14439.141
14171.845
13893.15
13596.337
13277.817
12958.166
12618.162
12254.444
11880.282
11519.793
11066.853
10691.265
10236.669
9772.2056
9320.5449
8834.0033
8362.3225
7921.4554
7302.1095
7068.6438
6651.2343
6275.1678
5872.5305
5531.049
5207.6548
4925.6248
4660.7511
4434.9424
4219.2268
4022.9599
3836.1266
3619.9933
3461.6056
3152.7246
3024.7453
2552.5784
2413.8967
1790.0137
1498.5229
804.83949
311.70063
11376.468
13281.254
11050.818
12840.799
11564.497
12699.741
11944.898
12652.811
11902.999
12309.283
11809.784
12017.188
11312.244
11416.495
10971.809
11026.445
10334.242
10839.452
10093.723
10393.572
9914.5853
10220.402
9745.6245
10194.327
9807.0068
10074.977
10016.654
10094.095
10101.005
10133.843
10259.442
10100.354
10335.901
10237.468
10371.9
10286.022
10552.821
10298.404
10663.062
10488.841
10609.63
10557.302
10521.725
10439.63
10426.849
10312.054
10214.19
10123.525
9981.1081
9831.3458
9663.0324
9479.5927
9265.2225
9051.3747
8808.056
8551.8209
8295.0701
8013.8279
7727.9034
7448.0445
7143.5537
6852.9359
6571.4527
6258.6152
5991.0463
5699.279
5417.0496
5160.3958
4884.5743
4653.0322
4383.3445
4119.0509
3904.0197
3792.4617
3625.8503
3458.9557
3294.6531
3155.4781
3028.0592
2932.1831
2837.124
2765.7586
2710.183
2636.8342
2606.7826
2508.5011
2483.5913
2300.198
2276.6913
1912.8894
1869.3479
1304.0276
1171.6959
494.74878
36.504729
21946.763
23481.916
19578.455
19387.124
19418.44
20040.394
18437.655
19539.919
18430.758
17785.26
17782.859
16614.585
15924.75
15489.758
14622.442
13723.592
13246.582
12671.429
11600.49
11734.192
10794.809
10837.416
10099.458
10060.226
9364.1721
9515.5213
8896.9683
8901.1712
8545.673
8449.9323
8137.7021
7985.9661
7833.2726
7508.7782
7397.856
7124.2401
6915.6054
6685.6807
6538.2705
6287.6766
6126.9487
5918.6711
5710.0275
5553.734
5375.4607
5186.6571
5001.5876
4851.6781
4655.5764
4480.9011
4301.4097
4124.7567
3914.7516
3728.3928
3512.7933
3290.0822
3065.9312
2825.4529
2579.5114
2331.131
2080.5963
1833.3502
1582.2114
1358.0576
1123.494
927.03881
748.72228
584.07578
454.85536
351.75252
256.27425
254.25607
197.59562
200.34573
63.898355
65.616098
188.64669
282.59015
444.09359
582.74403
743.76127
906.01245
1055.3575
1189.8667
1318.3704
1368.2261
1469.0424
1376.8041
1455.5208
1150.2775
1260.3109
737.84442
769.83631
125.91496
-124.76108
34420.979
36505.13
27658.142
30752.455
29146.729
29054.601
28110.761
28049.69
26410.789
25991.184
24590.762
23244.332
22075.273
20900.322
19093.588
18295.119
16753.337
15753.497
14436.476
13832.34
12428.675
12037.229
10608.238
10351.502
9365.6474
9066.8789
8209.6314
7933.6126
7262.5048
6742.431
6232.3207
5674.7517
5143.13
4547.4109
4186.5399
3454.5544
3174.6216
2485.6533
2181.2844
1605.0876
1251.5641
800.95983
510.43223
124.82918
-132.07572
-410.80422
-642.6702
-842.87279
-1052.4461
-1237.6695
-1408.1019
-1592.9996
-1787.921
-1969.3233
-2177.2858
-2400.1788
-2614.5717
-2851.787
-3091.111
-3312.7337
-3539.6807
-3748.6209
-3919.2487
-4074.6763
-4188.4145
-4246.8606
-4282.0521
-4265.5641
-4190.9942
-4078.9127
-3912.4074
-3719.1262
-3487.8673
-3181.7441
-2644.8193
-2324.443
-2047.552
-1664.7799
-1356.8516
-1058.303
-717.83212
-458.90904
-156.61189
65.096023
302.22096
453.74407
624.72206
659.92586
759.16428
658.26851
696.14981
438.04883
348.47131
-4.3838538
-270.63202
49017.542
38590.641
34533.165
35231.96
34596.507
34550.034
33498.78
32740.74
31961.686
30139.552
28755.407
27315.116
25481.621
23664.176
22042.153
20542.241
18473.516
17475.886
15511.04
14531.545
12871.533
12247.864
10648.62
10022.008
8486.766
8081.831
6776.899
6379.5454
5204.5319
4748.0897
3786.3956
3110.0102
2275.2973
1575.9364
775.67505
11.733093
-699.33846
-1465.7309
-2096.9691
-2799.7135
-3382.2155
-3946.2983
-4458.0385
-4948.3332
-5337.3212
-5708.2094
-6038.8138
-6303.0523
-6555.8688
-6759.4819
-6951.1071
-7122.0728
-7294.9352
-7444.1092
-7615.7289
-7784.4149
-7951.4595
-8134.2792
-8310.2753
-8480.8637
-8649.2411
-8785.1866
-8907.0799
-8986.8232
-9037.2932
-9019.5879
-8953.1342
-8807.4606
-8611.5374
-8345.8673
-8028.27
-7665.3005
-7220.3158
-6749.3308
-6358.8489
-5738.7588
-4951.8973
-4433.9388
-3812.0698
-3262.8146
-2734.6989
-2213.739
-1737.5197
-1300.1417
-904.08779
-574.32128
-284.34459
-97.432586
90.229148
95.903537
179.51067
-31.920652
42.932729
-338.77604
-294.29469
53270.415
53662.819
47001.291
46200.331
45314.809
44372.482
43105.826
42331.048
39510.075
38704.878
35688.053
33990.427
31062.044
29368.135
26454.602
24553.959
22069.32
20380.79
17850.188
16709.48
14427.858
13249.583
11472.308
10357.305
8801.3045
7978.5984
6535.3747
5618.0069
4434.5011
3487.74
2230.6046
1254.9724
82.219324
-1099.8292
-2097.7678
-3342.3861
-4278.8071
-5436.5346
-6338.4169
-7363.2384
-8142.6848
-9003.5534
-9663.3906
-10311.405
-10813.191
-11263.342
-11637.676
-11921.241
-12158.958
-12362.428
-12521.31
-12667.97
-12814.647
-12957.081
-13116.987
-13296.789
-13481.965
-13687.682
-13900.172
-14104.017
-14287.529
-14448.893
-14553.161
-14597.912
-14580.108
-14449.409
-14247.115
-13962.219
-13550.389
-13052.387
-12468.932
-11792.319
-11026.85
-10303.172
-9457.9058
-8693.3629
-7818.8752
-7017.917
-6170.5255
-5408.7203
-4673.8555
-4001.0983
-3385.3046
-2837.8677
-2344.4254
-1921.5944
-1542.3334
-1242.8914
-932.97319
-811.29585
-479.88193
-607.24791
-280.08543
-612.5578
-437.1899
77118.597
70898.062
56501.637
58725.642
54053.983
54883.487
51711.972
50141.116
47580.878
45303.39
42373.36
39076.503
36578.749
33183.808
30454.348
27445.058
24797.5
22128.549
19546.526
17441.545
14806.219
13220.454
10867.717
9680.1477
7731.7038
6771.5297
4679.427
3857.3902
2071.5946
1047.3058
-568.98421
-1586.5233
-3250.2158
-4436.1488
-5860.5501
-7236.1695
-8471.282
-9812.3711
-10966.466
-12128.571
-13153.773
-14140.202
-14946.531
-15709.265
-16323.531
-16852.628
-17291.016
-17610.025
-17886.779
-18089.438
-18240.287
-18360.892
-18476.118
-18567.018
-18674.833
-18788.868
-18907.851
-19044.293
-19182.513
-19305.236
-19418.232
-19495.328
-19512.101
-19474.222
-19350.9
-19124.261
-18826.79
-18390.696
-17850.42
-17188.213
-16446.431
-15588.04
-14688.8
-13682.23
-12638.734
-11643.439
-10576.652
-9524.7589
-8480.6873
-7493.844
-6561.8694
-5694.9999
-4890.9385
-4175.7542
-3512.0085
-2941.9908
-2420.5745
-1982.2135
-1593.9731
-1308.0154
-975.98904
-982.24972
-663.99895
-764.98006
-385.03012
89051.976
83015.164
66921.837
68225.082
66525.691
64263.266
61284.1
59751.917
56296.545
53111.267
49219.137
45899.579
41726.095
38236.741
34489.18
31182.778
27568.646
24949.101
21507.319
19156.161
16568.929
14425.189
11971.567
10113.102
8015.1514
6448.9309
4772.5969
3243.7718
1524.0324
49.388742
-1594.046
-3187.3313
-4858.5897
-6530.3466
-8284.3212
-10126.083
-11741.756
-13485.688
-14994.274
-16548.16
-17893.929
-19163.929
-20241.891
-21197.317
-21972.023
-22598.212
-23068.1
-23417.134
-23649.822
-23800.42
-23878.542
-23932.283
-23967.954
-24011.521
-24077.026
-24183.559
-24320.846
-24500.791
-24699.234
-24916.821
-25115.201
-25291.239
-25386.592
-25419.643
-25298.128
-25083.094
-24668.071
-24158.382
-23422.718
-22560.689
-21550.228
-20381.084
-19083.792
-17739.124
-16301.901
-14857.362
-13401.989
-12007.174
-10660.124
-9403.5121
-8235.8582
-7184.972
-6237.7062
-5411.0121
-4673.4828
-4048.2435
-3480.8202
-3004.8576
-2556.6388
-2152.6105
-1783.6857
-1467.9242
-997.1637
-784.59135
-367.67749
122509.95
82658.512
79278.858
77689.226
75748.128
70719.465
69555.158
67018.099
62223.029
58933.277
54620.116
50107.526
45820.045
41712.52
37395.822
33286.824
29502.741
26265.547
22170.647
20193.863
16710.516
14732.245
11584.818
9940.7523
6834.8017
5961.946
3293.0527
2235.0722
-240.92579
-1579.9123
-3751.582
-5509.5864
-7445.0353
-9445.5154
-11380.775
-13677.454
-15411.66
-17486.642
-19223.23
-21023.289
-22566.473
-24021.318
-25240.714
-26294.118
-27160.269
-27808.263
-28324.274
-28660.117
-28873.961
-28984.886
-29028.147
-29025.377
-29019.344
-29012.104
-29049.586
-29125.954
-29249.125
-29416.922
-29625.089
-29836.369
-30048.172
-30214.132
-30310.948
-30308.716
-30155.727
-29853.979
-29325.794
-28642.164
-27835.393
-26806.755
-25568.496
-24144.919
-22652.042
-21019.769
-19325.088
-17623.044
-15942.892
-14287.284
-12723.103
-11245.822
-9901.4628
-8682.752
-7596.9653
-6639.1404
-5801.0208
-5065.4958
-4407.3263
-3825.4925
-3260.653
-2750.4813
-2248.3285
-1709.8179
-1252.7351
-830.08982
-320.43387
-169786.43
-180574.47
-178560.05
-186070.83
-189508.32
-191298.68
-200803.11
-194297.12
-195867.46
-193086.23
-192278.36
-185501.61
-181467.31
-182279.69
-159535.42
-150568.74
-164660.47
-154435.99
-168260.75
-169387.5
-175232.99
-169619.1
-177050.17
-175947.73
-176709.59
-171653.59
-169892.07
-167040.56
-163640.33
-142767.9
-96285.185
-115168.97
-103676.03
-109518.39
-111502.69
-111471.07
-114868.15
-113610.84
-114840.59
-113252.8
-112213.73
-112658.35
-105074.23
-111690.99
-104322.53
-82808.044
-86482.088
-86881.563
-88551.739
-92938.732
-92752.571
-95019.478
-95700.64
-94383.218
-94973.679
-95047.811
-90061.069
-89580.96
-91487.112
-70986.88
-48127.737
-57169.211
-48867.887
-55669.018
-56549.44
-57462.73
-58664.937
-58235.409
-60256.556
-59059.689
-59369.447
-57548.446
-56256.295
-57032.776
-54316.846
-27615.245
-26780.049
-27590.098
-28367.262
-30153.176
-30769.757
-32517.003
-32553.465
-33305.415
-33097.25
-33296.604
-33597.223
-32337.97
-33169.355
-32602.713
-2846.7005
-2363.1935
-2240.6066
-4037.1769
-4507.5533
-4603.1321
-5862.2985
-7186.3141
-5231.3616
-7954.0634
-6722.575
-5628.3996
-8513.9903
-2008.4732
-14747.694
19203.857
25322.775
21667.002
22978.34
21519.237
22499.871
20660.393
21064.164
21287.921
18078.742
21148.848
17191.314
16417.919
20411.772
5471.5242
47317.57
52017.243
49841.783
50069.76
50885.137
50302.024
50162.662
48083.321
49819.381
43365.878
46447.075
43651.029
38802.368
47068.938
19276.11
61986.202
78339.869
67907.105
73492.342
71462.934
74599.958
72064.111
73040.576
73428.269
69952.883
75012.999
66583.662
66418.256
71979.197
48037.128
92136.852
109951.89
97100.356
104477.53
103180.24
102337.45
102883.54
101439.82
102800.96
96912.592
97358.396
97599.368
85939.083
97481.14
62292.837
127384.84
129798.06
127276.96
132151.21
132952.8
135555.88
134470.81
136460.31
135882.41
132077.57
136448.72
119727.47
126587.53
127099.78
94313.393
139883.4
152362.32
143843.61
145792.22
143625.9
146099.25
146399.24
145472.94
142721.64
140755.03
139523.58
143435.44
127323.11
147992.33
80567.629
178761.98
223427.9
196473.28
216530.42
219179.29
216520.41
217563.04
224594.81
220674.82
225590.78
215750.2
209038.91
214559.2
198498.92
193576.1
197322.31
166615.97
156617.65
162622.02
169735.37
177177.04
173592.01
165725.83
156416.17
157087.2
160369.34
159120.65
156477.03
167389.12
144237.27
202445.35
181651.61
223894.15
225360.55
233418.26
252116.47
237074.06
219764.36
251797.19
247260.82
239831.07
230472.53
221218.59
212815.83
174024.08
134547.27
137010.82
154513.01
158191.04
164027.08
168763.6
172526.4
175671.08
179927
171990.33
168972.09
158970.14
158910.87
155600.92
148315.55
91867.13
106154.53
103767
113389.5
119442.95
115616.21
121892.64
118505.73
116465.13
120794.25
115447.94
117967.28
111399.73
100198.06
102310.57
92509.121
106508.92
108785.3
112028.84
114024.2
117866.02
118231.37
119252.55
118650.65
115594.91
114565.5
109630.91
106582.73
102791.42
94898.236
91890.333
99325.296
95170.971
105462.77
104793.07
106988.33
110556.42
109363.49
110118.2
109905.11
106225.09
104122.87
98799.689
93805.612
91731.832
84346.416
88878.755
92448.086
96087.559
96356.267
100001.62
99201.268
99384.269
98524.758
96443.417
95819.529
92684.845
90416.188
87148.627
80951.368
80498.573
85563.306
86311.048
90483.236
88831.989
90883.853
91369.457
91656.03
90589.711
89929.439
87274.558
85498.098
83145.365
78315.336
78411.226
76397.106
79235.591
80576.439
83946.74
85446.052
86712.919
87092.628
87565.452
86265.392
86361.096
84608.881
82504.773
79939.309
76939.855
74269.595
72013.192
73010.648
74485.85
75823.492
74887.694
76399.952
75674.049
76067.313
74077.584
74612.11
72518.247
70977.741
70015.248
68023.656
67821.957
66128.704
68020.059
68774.491
70369.519
71126.885
71938.369
71881.843
71991.577
71505.68
70697.049
69240.508
68322.123
66604.377
64883.392
63688.374
61799.29
62110.177
63399.924
63738.83
63934.3
64635.724
64292.336
64277.676
63577.069
63388.154
62188.874
61067.431
60057.957
58445.634
57963.997
56122.088
56989.565
57016.832
57483.384
57375.767
58142.749
57678.881
57357.164
56713.97
56426.201
55194.551
54384.516
53592.851
53090.112
52397.733
51018.917
51307.776
51645.593
51636.941
52203.319
52276.311
51865.064
51888.621
51447.617
50906.366
50079.546
49444.716
49085.34
48107.76
47479.06
45806.069
46419.875
46358.993
46239.003
46153.262
46464.617
46055.2
46069.889
45348.543
45245.855
44424.787
44072.643
43377.611
43017.076
42880.086
41234.595
40965.29
40553.84
40903.633
40271.907
40875.258
41190.109
39438.099
39620.63
39268.492
38740.502
38248.115
37908.808
37875.027
37394.368
36272.686
36591.636
36222.223
35908.637
35806.76
36402.382
35130.761
35666.708
34754.409
34789.367
34030.699
33974.869
34166.25
33762.333
34273.792
31948.906
31852.096
31380.603
31226.055
31080.478
30977.319
30795.568
30235.398
30540.209
29784.226
29619.862
29134.657
29179.43
28937.027
28799.106
27908.897
27534.166
27260.998
26976.759
26666.952
26733.918
25956.687
26042.122
25401.392
25509.382
24920.256
25032.514
24327.856
25439.884
25206.587
24080.93
23803.393
23441.324
23088.861
22577.373
23092.912
22433.367
22340.247
22320.542
21792.785
21435.425
21243.189
21401.493
21328.471
21383.363
20833.977
20175.262
20072.667
19494.492
19456.925
19249.354
18746.11
18706.734
18135.618
18314.283
17850.791
18056.179
17830.616
18244.215
18243.275
17314.427
17111.329
16554.549
16753.177
15909.122
16191.98
15686.338
15517.655
15470.258
15155.16
15087.481
14664.664
14789.515
14448.269
14585.054
15238.753
14198.454
14476.114
13683.73
13707.123
13521.783
13077.65
13055.147
12512.922
12452.446
11965.269
12203.392
12144.223
12634.495
12412.42
11928.725
11812.869
11366.059
11320.724
10881.045
11117.475
10638.613
10675.841
10100.88
10480.748
9673.2762
9749.6353
9385.1171
9645.0875
9865.8195
10198.715
9610.5949
9684.6486
9169.8886
8975.0232
9036.1712
8216.8666
8377.3656
7852.2694
7818.2389
7647.1191
7197.6546
7259.0352
7273.7437
7397.0659
7654.5718
7588.1759
7180.4555
7293.0855
6772.3116
6798.6514
6416.6352
6385.4489
6052.3018
6088.0117
5860.1848
5817.8149
5283.9644
5638.2993
5379.5826
6110.3867
5851.7306
5417.0067
5474.5486
5010.1092
5164.7459
4735.6667
4686.804
4230.6846
4066.7461
3574.6671
3302.4064
3492.0652
2855.4686
3218.8459
3816.0192
4246.0847
3479.2613
3769.6773
3279.7183
3443.9428
2841.3156
2763.9625
2448.9519
2366.0824
2015.8042
2012.3104
1656.9347
1698.8475
1420.0822
2341.5781
2320.2453
2236.1667
1916.971
1691.2404
1681.611
1157.8076
1172.4521
604.21149
560.0581
-23.947815
-106.05629
-273.19162
-788.48938
-763.11324
300.57353
516.65602
114.38047
350.00865
-275.93306
-144.14542
-670.75116
-722.77992
-1122.6951
-1209.3418
-1497.5883
-1728.8529
-2159.0499
-2521.9506
-2412.1933
-1378.0722
-1243.9915
-1680.2181
-1474.5475
-2059.2285
-1847.6675
-2421.3473
-2506.9735
-3178.2696
-3221.2047
-3623.8218
-3913.9476
-4052.6908
-4707.3459
-4756.3503
-3632.7217
-3252.5325
-3670.7078
-3606.2575
-4175.7124
-3992.5699
-4708.3913
-4688.6489
-5338.3479
-5289.5952
-5714.818
-5944.3427
-6025.9374
-6695.3638
-6651.5388
-5549.5756
-5216.3428
-5769.9183
-5552.7343
-6131.5939
-6276.8598
-6636.0548
-6830.9684
-7149.1376
-7346.9989
-7775.9003
-8103.7484
-8301.9541
-9085.6094
-9059.7036
-7798.2568
-7432.8304
-7937.1853
-7831.6624
-8582.148
-8430.4005
-9087.6509
-9098.3574
-9684.3574
-9763.9352
-10181.074
-10432.088
-10633.863
-11221.632
-11279.687
-10007.617
-9714.9417
-10250.053
-10270.765
-10839.871
-10935.946
-11405.708
-11600.018
-12026.043
-12252.625
-12558.523
-12947.793
-13089.089
-13644.83
-13826.672
-12206.272
-12094.253
-12610.414
-12505.75
-13313.709
-13413.524
-13960.22
-14169.996
-14576.476
-14750.197
-15109.296
-15396.235
-15509.875
-16095.194
-16154.399
-14450.334
-14630.143
-15099.298
-15308.659
-15904.217
-16134.748
-16574.37
-16819.083
-17204.45
-17569.959
-17742.324
-18142.347
-18193.352
-18787.765
-18833.374
-17000.307
-16964.156
-17615.526
-17853.96
-18571.835
-18730.25
-19283.853
-19471.489
-19937.116
-20238.511
-20301.889
-20667.268
-20700.328
-21006.136
-21180.116
-19357.283
-19507.546
-20117.673
-20439.216
-21046.265
-21374.359
-21774.827
-22133.426
-22456.16
-22623.155
-22831.28
-23267.504
-23163.481
-23618.657
-23575.869
-21638.738
-21691.047
-22462.714
-22766.32
-23505.409
-23726.373
-24311.406
-24544.238
-24866.4
-25170.224
-25305.301
-25654.382
-25595.33
-25828.753
-25900.891
-23778.004
-24002.009
-24782.044
-25223.506
-25897.275
-26251.653
-26746.526
-26977.299
-27360.603
-27590.313
-27679.243
-28049.438
-27885.127
-28075.052
-28094.875
-25738.237
-26022.326
-26830.802
-27250.266
-27980.339
-28287.533
-28786.055
-29075.624
-29401.647
-29644.592
-29701.93
-30064.805
-29881.55
-30005.991
-30031.143
-27549.167
-27909.216
-28712.36
-29244.986
-29942.979
-30280.403
-30814.731
-31049.959
-31377.044
-31587.927
-31637.302
-31961.06
-31752.052
-31776.038
-31784.867
-29075.118
-29467.902
-30290.099
-30811.297
-31478.07
-31877.02
-32340.69
-32609.327
-32903.613
-33148.952
-33151.969
-33500.715
-33239.089
-33241.332
-33261.991
-30382.694
-30831.35
-31633.986
-32168.011
-32886.824
-33253.85
-33731.332
-33966.941
-34279.515
-34474.519
-34490.205
-34780.769
-34510.98
-34497.75
-34474.018
-31416.149
-31860.225
-32611.826
-33178.6
-33811.99
-34212.847
-34629.231
-34893.109
-35166.43
-35383.145
-35365.943
-35673.922
-35414.038
-35386.42
-35359.851
-32207.808
-32620.429
-33395.559
-33906.592
-34558.769
-34940.408
-35367.389
-35608.292
-35897.655
-36066.148
-36079.371
-36363.223
-36087.836
-36077.445
-36030.903
-32716.209
-33140.338
-33828.465
-34334.675
-34920.871
-35322.604