/*--------------------------------*- C++ -*----------------------------------*\
  =========                 |
  \\      /  F ield         | OpenFOAM: The Open Source CFD Toolbox
   \\    /   O peration     | Website:  https://openfoam.org
    \\  /    A nd           | Version:  6
     \\/     M anipulation  |
\*---------------------------------------------------------------------------*/
FoamFile
{
    version     2.0;
    format      ascii;
    class       pointScalarField;
    location    "1.14";
    object      E;
}
// * * * * * * * * * * * * * * * * * * * * * * * * * * * * * * * * * * * * * //

dimensions      [1 -1 -2 0 0 0 0];

internalField   nonuniform List<scalar> 
3969
(
53686.218
59644.177
-1426196.7
-734831.67
59388.505
67315.671
-1088427.7
-2167218.1
27579.807
11989.351
5059.1057
3620.0962
9998.9788
25907.693
52547.292
-762305.65
-743042.67
-761583.48
-788169.67
-811389.12
-824157.87
-620022.33
57878.5
46725.165
46395.941
46524.899
45084.977
44940.886
42959.271
42519.479
40864.344
40280.687
39821.026
39383.521
39151.155
38708.071
38405.853
38136.084
37606.193
36754.603
35748.73
34147.805
32201.265
29740.169
26715.785
23179.296
19411.653
14929.346
9884.6521
4801.5811
-779.38983
-6429.5459
-11994.168
-17421.436
-22500.652
-27113.963
-30504.851
-34123.77
-35495.05
-37608.674
-36866.423
-37064.757
-34629.125
-32234.307
-29402.569
-24127.506
-20716.877
-15782.249
5649.0738
56434.725
38908.521
47485.95
42550.36
42327.104
39131.697
36896.92
33783.119
30893.297
28451.061
25268.698
23382.067
20568.725
18663.582
16803.661
15377.526
14383.802
13189.654
12939.719
12437.726
12463.692
13246.59
13266.633
14654.178
15951.889
18011.469
19260.428
21013.519
23394.777
26431.847
29579.197
32617.205
35554.42
38329.646
40607.284
42809.698
43413.148
44022.364
43645.435
42053.026
39808.118
36907.633
32397.16
27767.294
22397.784
16526.1
5324.7247
29707.807
13048.405
4803.7756
6164.9117
9192.9896
23432.522
45835.115
92514.542
59243.165
44186.426
55519.276
47205.384
45853.606
43554.171
37656.758
37998.591
29381.531
31326.874
27327.522
26050.325
24128.796
22430.277
22139.347
20680.312
20769.38
20243.586
20136.767
20332.269
20696.833
21407.219
22262.146
23212.777
24137.975
25697.85
26697.862
28187.49
29083.234
29935.085
30770.42
31219.812
31672.517
31563.8
30423.526
35061.275
28776.91
27948.184
25875.426
23119.711
20388.421
16460.729
12545.196
7902.3935
3562.2039
1453.2104
-1759607
-1475835.8
-1721076
-1543013.8
-1492159.8
-1323601.5
-1667739.9
5471.1158
-5253.1886
-5564.477
-8538.5749
-11808.449
-14802.36
-17132.832
-19315.139
-20802.172
-20381.886
-19293.991
-23993.607
-20930.461
-19047.554
-16897.183
-13726.662
-10606.056
-6635.9282
-2635.2028
1537.7126
5671.1835
9858.7473
13921.729
17451.91
20788.905
23613.173
26280.568
28391.737
30432.016
31784.857
33373.499
33590.317
35287.831
37635.093
37409.303
37693.88
39030.845
39663.104
40858.588
41666.909
44681.547
43991.056
47238.917
45801.722
46170.231
47718.005
64386.531
43029.801
41464.715
40758.401
40435.555
40174.448
39631.945
42215.907
37998.53
40442.141
44019.724
45805.393
46032.431
49268.426
41385.186
-824791.4
-824126.31
-824119.49
-824073.18
-823979.04
-824055.9
-824234.28
-1611291.9
-1608296.5
-1608346.2
-1608209.6
-1608324.6
-1608894.2
-1612120.7
35798.681
29775.294
31251.922
31017.967
31381.071
31303.33
30861.343
30657.037
30107.443
29865.188
29333.434
28753.13
28176.342
27432.119
26483.713
25521.167
24365.01
22890.169
21350.454
19614.27
17695.652
15615.137
13552.619
11251.734
9086.4292
6841.5534
4745.2216
2818.895
984.19663
-535.8913
-1797.9816
-2913.8065
-3773.5643
-4418.6388
-4658.5251
-4964.4995
-4700.083
-4447.5193
-3960.441
-2832.1769
-1719.0257
-589.18044
1697.7444
2368.6926
5247.0806
9492.3228
14752.932
16306.414
14327.476
16208.33
16219.844
16838.094
17103.49
16821.604
17071.64
16761.127
16542.5
16159.238
15746.565
15487.394
15126.073
14719.324
13966.072
13089.875
12124.371
11089.415
10065.275
9036.2967
7999.2596
6942.6837
6051.5635
5145.7013
4295.4216
3619.8266
3014.5502
2396.912
2227.1469
2211.3884
2319.5538
2681.3847
3288.2097
4094.4006
4768.0625
6452.7152
6614.4752
8919.0725
8993.5893
11163.563
11700.289
13491.539
13913.748
16175.828
14543.781
7066.4182
6441.5183
3803.1795
5714.8571
5118.5518
5555.8628
5533.6905
5356.2098
5330.3029
4810.0264
5175.3647
4729.2847
4558.073
4170.5746
3389.1117
3561.6706
3113.7271
2912.3124
2488.6699
2321.119
1974.1825
1713.1974
1661.1549
1973.31
2284.959
2878.1532
3354.4487
4344.5979
5395.0485
6574.3441
7835.6638
9127.8795
10499.132
11953.874
13328.089
14744.705
16304.993
17333.167
19236.68
20290.86
21201.33
22729.582
22219.093
23706.422
22879.678
24345.035
20836.967
3907.6207
3538.8179
333.76479
1195.384
780.54137
732.39359
807.21217
304.84429
788.75852
51.019386
118.60413
-186.52213
-9.7227637
-303.22895
-399.65481
-629.32448
-235.52409
-190.10234
338.07386
546.93768
1010.8518
1462.9481
2360.778
3387.2018
4105.6061
4665.6425
5624.7812
6271.8615
7188.4502
8284.9772
9551.227
10918.41
12579.963
13987.397
15737.599
17378.83
18480.685
20294.936
21133.933
22481.126
23418.484
23471.876
23025.944
23122.467
21131.863
21405.677
16599.344
4536.0199
9132.4165
4992.5413
5846.894
4751.0843
5061.8559
5157.8574
4422.4287
4805.4191
3861.559
4104.7063
4005.2027
3753.5894
3649.3324
3360.4784
3634.3416
3510.3422
3679.0942
3768.0983
3877.8346
4006.5765
4645.4674
4977.3909
5505.9911
5052.8596
4898.0987
4545.4556
4184.8606
3788.4755
3310.2053
2782.0015
2274.0789
1736.0137
1219.7853
814.05015
260.2761
231.32094
-357.03344
638.44121
8421.5
14644.611
13376.316
13183.625
11917.497
10804.588
9229.866
8715.0351
9806.3892
21971.264
17792.082
18273.552
17722.359
18276.368
17653.577
17003.53
16335.503
15065.584
14492.291
13800.563
13263.059
12185.602
11691.337
11143.901
10862.448
10452.347
10256.61
10001.808
9752.8913
9324.9962
9471.6654
7738.6994
6702.7192
5850.6682
4974.4319
3775.0279
3012.523
2012.3092
1112.6548
97.40954
-782.55422
-1723.7912
-2468.9616
-3324.7658
-3772.845
-4250.0943
-4821.2913
-4190.0623
-1984.5914
-3689.1376
-3302.1218
-3712.7123
-2907.6127
-2599.5211
-2912.2989
6954.6289
33743.582
29646.871
30102.306
29699.13
30425.475
28669.217
27834.727
25368.553
24898.347
22105.855
22243.016
19955.936
19275.948
18106.745
17434.037
16703.451
16054.546
15488.407
14864.947
14148.13
13848.724
12580.666
12036.782
10621.925
10473.148
9868.727
8638.9605
7900.6494
6891.2283
5788.5627
4443.0579
3708.8199
2586.9336
2071.5873
1223.1223
1380.0628
905.76929
1712.3516
1368.054
-3286.5707
-3809.8142
-2097.5277
-338.35549
2373.4219
3888.209
8559.0478
12472.58
16723.726
16959.092
14036.598
13812.665
14004.102
14286.341
18487.949
7305.2491
5944.1283
5172.6238
4913.4191
5112.3615
5596.0853
7728.6457
2729.8137
1663.9526
879.98153
978.61198
844.76763
1190.3903
2268.5051
1667.4881
677.1594
452.62911
385.87396
704.15673
1576.7736
3113.2583
3605.1036
2294.3191
1654.2918
1548.2377
1942.171
2877.6316
4732.9223
13910.028
10418.381
9292.3511
8922.7024
9501.9017
11158.596
15523.611
23956.144
25106.229
20352.78
21218.945
20975.073
22844.102
30527.715
67901.923
60744.446
65101.75
69814.573
70322.069
75388.883
74005.934
56382.036
56770.351
53827.507
53140.087
58274.216
59867.123
62148.293
51960.19
54478.069
56180.746
55448.158
55750.424
56155.064
57436.74
50062.135
54397.699
53424.717
55526.745
55655.222
55991.133
51880.948
47084.046
49278.525
52447.83
52007.068
51995.595
50850.373
50454.399
44457.555
45201.251
45732.783
47229.107
46571.275
45741.389
44743.473
40111.541
41313.836
43711.23
43724.554
44315.62
43822.274
43546.911
37318.289
37900.106
38003.986
38494.725
37899.331
37351.592
37154.61
33839.063
34040.415
35440.228
35982.358
36557.224
36839.85
37507.615
30591.349
31179.52
31285.675
32484.072
30920.951
30643.806
30933.57
28393.301
28374.116
29063.199
28639.837
29869.053
30249.932
29282.882
25228.969
25641.521
25744.445
26853.406
26477.527
24785.714
26729.515
23502.486
23113.772
24234.463
23566.694
23936.736
24485.932
24615.579
20690.862
21182.253
22087.739
21565.384
22914.158
21188.662
22721.838
19572.768
19878.233
20408.293
20160.377
20318.423
19918.555
20927.236
17999.685
17961.01
19363.784
18408.475
19604.978
18716.181
20102.747
16884.298
17440.271
18073.093
17585.137
18355.159
17409.189
18749.22
16366.675
16288.347
17537.44
16824.079
17775.416
16887.977
18276.358
15819.199
15991.245
17289.12
16255.832
17405.929
16266.91
17840.885
15804.54
15787.549
17239.68
16209.624
17456.946
16229.873
17818.299
16140.996
15914.332
17615.207
16368.748
17651.219
16319.048
17966.807
16726.972
16382.348
18256.031
16857.538
18197.373
16784.691
18522.87
17519.337
17176.092
18962.856
17715.709
18951.043
17805.632
19385.671
18725.408
18375.615
20166.369
18743.248
19952.59
18786.282
20229.244
20176.47
19919.721
21033.744
20630.756
21245.649
20301.13
21375.742
21897.892
21700.812
22365.288
22123.894
22785.403
21992.036
23004.67
24758.482
23897.971
24338.849
23219.701
24592.23
23715.154
25006.523
27086.29
25841.908
26662.169
25209.311
26388.548
25046.074
26531.556
29091.804
28444.662
28535.952
27482.712
28393.645
27695.945
28409.98
32130.457
30430.936
31538.702
29201.334
30795.26
29225.621
30290.847
34283.59
33274.616
33627.783
31438.642
32663.592
31126.566
32264.26
37035.373
35402.556
36002.788
33319.329
34773.213
32939.496
34227.845
39048.264
37678.025
38121.469
35342.45
36549.749
34586.031
35853.789
40914.654
39406.926
39910.109
36761.073
38079.79
35909.041
37372.226
42183.677
40995.741
41252.755
38218.378
39216.27
37181.852
38512.386
43470.173
41737.213
42420.988
38877.124
40388.93
39051.483
39115.983
43346.131
42230.536
42513.021
39789.533
40501.573
34016.711
36025.893
38519.998
38558.968
37990.521
36186.079
36107.116
39727.562
38811.269
41528.243
40328.44
40898.701
38026.26
38986.623
36827.967
37737.156
39786.72
38485.163
39027.687
36569.905
37256.666
35340.266
36004.941
36487.264
35434.023
36220.497
33825.444
34738.723
32989.683
33447.172
32903.637
32179.854
32737.731
31054.398
31568.68
30048.956
30067.931
28183.939
27367.107
28222.335
26681.979
27302.97
26096.336
26062.26
23199.787
22857.005
23407.994
22469.087
22797.345
21833.549
21226.315
17563.299
17184.789
17694.55
17016.044
17406.487
16722.251
16072.113
11915.8
11821.279
12456.571
12097.912
12384.819
11801.19
10848.913
3212.3315
3565.8188
3378.545
3661.3008
3327.0316
3063.9979
3163.3609
-943498.91
-1034519.5
-1034554.6
-1034673
-1034404.7
-1033622.8
-1033241.1
-994157.76
-992132.39
-991943.83
-992093.86
-991864.69
-1068200.5
-991610.66
-1080788
-1004781
-1004747.4
-1004697.4
-1004299.2
-915387.13
-1003285.3
-1042495.5
-1042681.3
-1043604.5
-1042771.9
-1043752.2
-1041937.3
-1042272.9
-1075835.7
-969911.28
-1072632.9
-1073115.2
-1071341.4
-1072102
-1072121.6
-997162.23
-1184133.5
-1101265.2
-1100834.3
-1189924.5
-1100704.5
-1101420.2
-1183559.8
-1096838.4
-1097097.9
-1097175.9
-993524.03
-1096775.7
-1095695
56070.505
50517.54
47403.337
45732.267
46349.386
47766.04
47931.784
51584.918
47838.696
47088.21
46348.947
46592.63
47239.59
48723.402
50119.105
50468.536
49486.525
48676.612
49409.866
48803.834
48491.607
48703.408
48841.323
48401.385
48577.876
47898.041
46672.511
46993.86
47636.743
47153.484
47804.828
47131.336
46972.123
45973.136
45427.343
45372.834
45148.722
44901.404
44189.259
44518.478
43596.061
43984.353
44622.981
43700.077
43770.785
42764.574
43408.508
42785.269
43047.96
42463.193
41558.429
41732.085
41046.048
40892.732
40592.193
41150.442
41934.762
41068.494
41081.39
39959.324
40873.123
39899.15
41148.392
40854.704
39571.415
39611.138
38628.594
39290.909
38600.149
39637.037
40124.733
39026.427
39601.846
38181.243
39261.888
38139.89
39169.83
39271.825
38617.031
38335.362
37833.069
38010.203
37759.12
38595.818
39013.1
37886.938
37776.973
37022.524
37352.463
36872.212
37176.489
38563.06
37700.934
37806.619
36670.387
37216.952
36615.371
36974.074
37533.344
37117.277
37043.945
36546.403
36749.194
36001.651
36566.224
37650.166
36409.106
36173.245
35590.604
35928.284
35943.939
35877.766
37408.791
36149.905
35807.901
35283.711
35337.532
34504.434
34815.291
36351.149
35018.791
35108.031
34185.803
34217.013
33671.435
33569.232
35033.692
33995.464
33819.023
33060.173
33006.393
32446.19
32309.344
33481.146
32490.723
32238.304
31584.692
31239.014
30773.476
30506.336
31420.643
30671.88
30263.069
29581.219
29142.537
28765.21
28415.625
28956.001
28368.879
27698.456
27196.935
26652.921
26298.834
25840.701
25792.397
25448.816
24646.151
24337.493
23622.521
23350.981
22855.67
22272.984
22392.811
21313.057
21134.306
20480.702
20084.861
19486.577
18287.108
18796.59
17315.635
17581.385
16654.647
16329.004
15680.946
14006.717
14753.639
13236.096
13431.729
12675.469
12149.921
11609.43
9047.5426
10236.757
8696.6461
8932.476
8304.2371
7701.9425
7115.2753
4225.498
5267.6474
3976.3231
4272.6466
3616.9002
3049.1794
2498.7765
-913.0719
501.22271
-1107.1369
-493.29294
-1225.1606
-1697.8389
-2142.2338
-6108.0966
-4473.9334
-6035.4913
-5419.8521
-5921.694
-6438.1532
-6727.1089
-10904.215
-9609.947
-10919.05
-10068.831
-10671.043
-11232.388
-11129.319
-15708.572
-14257.728
-15318.628
-14750.34
-15203.535
-15519.095
-15241.241
-19859.129
-18609.792
-19622.855
-18873.002
-19188.917
-19668.201
-18749.257
-23490.425
-22551.306
-23140.454
-22464.236
-22748.359
-23006.179
-22068.147
-26386.514
-25626.362
-26082.573
-25612.999
-26002.408
-26448.27
-24485.427
-28838.043
-28194.766
-28264.801
-28014.831
-27996.937
-31014.023
-29216.685
-32928.84
-33543.64
-33334.152
-33602.81
-33215.047
-31040.543
-25641.98
-30225.595
-29960.301
-29934.347
-29872.358
-30076.581
-31001.837
-27909.985
-30536.797
-30057.908
-30117.952
-29941.417
-30432.701
-30501.932
-27523.594
-29220.65
-29533.556
-29401.835
-29276.404
-29714.051
-29923.589
-26649.727
-27543.079
-27526.635
-27441.564
-27439.381
-27910.981
-28307.376
-24846.906
-24644.454
-24780.772
-24882.819
-24619.407
-25330.175
-25694.331
-22509.591
-22081.296
-22614.859
-22345.457
-22408.897
-22910.381
-23016.134
-19633.341
-17822.109
-17561.197
-17822.233
-17581.604
-18357.538
-18577.072
-16187.215
-13585.18
-14376.773
-14071.991
-14171.782
-14658.36
-14903.958
-12648.816
-11165.752
-10410.423
-10977.821
-10475.297
-10823
-10863.442
-10101.135
9555.9505
7933.8649
8468.7366
8238.7713
7987.7381
8592.5242
8219.029
53324.417
39503.45
36218.907
35684.913
35818.155
33985.316
34059.661
31696.873
31046.04
29981.223
28728.46
27248.224
26346.322
24864.734
23936.378
22810.253
21500.479
20660.051
19683.354
19000.213
18263.58
17892.36
17614.78
17458.096
17692.666
17564.237
18822.923
19046.678
19737.146
20424.155
20995.301
21588.65
21814.732
22040.839
21468.283
21516.341
23253.003
21330.506
19412.311
18265.539
17175.179
15763.575
14419.742
12837.763
11700.365
10135.834
20616.169
21864.532
23636.218
18624.76
19809.99
20864.323
19924.149
20904.351
20743.979
21224.899
20920.334
21010.228
20711.912
20256.626
19604.2
18804.021
18776.663
18149.839
17333.745
16963.354
15998.505
15254.677
14431.696
13394.384
12518.669
11622.975
9601.8126
8507.3742
8912.9205
7897.7584
7131.0491
6490.5102
6057.3269
5531.0896
5316.6648
4999.5696
5077.2844
4411.947
4182.0386
4197.3843
3906.681
3888.1789
3443.8415
3280.4705
2743.4822
2750.406
974.86827
6372.0879
7847.6821
8577.8451
6610.9422
8776.9962
7478.1332
6631.2459
8429.296
6573.1307
7935.9075
6991.0166
7249.7814
7271.4248
8485.9665
10279.381
9971.675
10278.539
10165.633
9881.6248
9949.1148
9237.5556
8844.8887
8045.2396
7140.4883
5973.6657
4883.5387
3360.0254
2095.1199
112.30846
-1470.7718
-3332.4433
-4928.8861
-6701.8559
-7924.3761
-9147.2481
-10011.263
-10535.006
-10458.217
-10203.83
-9726.1866
-8539.2963
-7268.2972
-5677.3078
-3948.2879
-1481.6908
119.6362
3616.9396
-1424.3955
3321.0375
3067.3562
-31.989831
5122.357
311.86391
3702.0954
-102.75218
1340.3643
2219.7926
935.71343
3364.948
1874.3364
4401.1351
6341.8029
6759.2752
7577.8834
7545.9555
7679.5801
7609.2686
7199.7775
6583.5398
5880.5116
4630.5902
3726.3632
2166.0132
1162.4772
-808.14425
-2154.5655
-3805.4935
-5197.2622
-6618.9294
-7798.5597
-8759.0003
-9880.5174
-10278.516
-10743.685
-10800.55
-10684.645
-9786.3488
-9017.003
-7281.5163
-5858.9691
-2932.4961
-868.90346
2943.9305
6797.3844
492.19345
9268.8655
2535.9765
4142.6578
3779.8705
3292.2568
4267.5764
4466.4658
4993.4695
3597.2873
5617.6044
3574.9941
5650.5154
4874.8427
5156.9367
5636.2162
5433.7893
5767.8611
5592.4827
5588.613
5160.51
4765.8818
4027.4724
3378.9137
2164.9725
901.63961
-399.70751
-1731.4267
-2956.0768
-4283.9529
-5534.2327
-6590.8207
-7409.1775
-8132.265
-8474.3019
-8416.1561
-8387.5412
-7566.6744
-6868.647
-5716.7213
-4016.468
-2472.2863
-200.91971
1928.8555
4404.0916
6967.4268
11281.111
9412.001
22082.467
17213.04
12134.925
17038.041
12674.815
15904.59
14810.981
12478.421
14985.866
12193.71
14005.399
12597.897
12076.843
11984.783
10946.644
10786.553
10123.68
9808.9139
9319.284
8974.9109
8516.6641
8165.4673
7761.2866
7085.5464
5361.4862
5050.5811
4766.4252
4404.5459
4056.581
3711.5939
3547.7377
3306.9977
3220.4217
3349.2552
3528.8051
3504.1317
4239.1548
4663.2962
6053.6771
6512.6267
7784.4879
8760.5878
9862.782
10901.288
11959.16
13007.335
10982.033
55248.34
31087.992
36320.691
31353.557
34284.893
31870.576
30608.685
29346.635
27306.984
25249.549
24178.225
25638.045
23089.439
22124.551
20769.726
19571.809
18496.655
17316.879
16373.234
15170.718
13974.282
12489.461
10986.976
8750.9871
7558.5014
5310.7755
4630.2072
3575.3388
2462.0563
1824.1187
1163.5512
688.21062
524.73692
570.35051
852.39868
2598.2987
2094.8674
2959.6648
3708.8101
4986.2797
6403.1912
7851.496
9419.8622
11353.2
12705.029
15251.368
14090.329
44006.23
37012.603
35736.738
34920.495
34969.856
34689.276
35181.607
39091.57
39635.178
36651.486
36098.442
35355.785
36025.017
36523.247
36343.474
38079.604
37963.935
37231.373
36897.815
36706.063
35863.559
35750.432
36320.16
36313.819
36254.291
35598.549
35163.984
33638.988
34718.802
35732.139
35788.453
35542.182
35245.995
34719.892
33535.506
33451.397
33556.527
33225.925
33644.621
32775.059
32701.145
32252.569
33096.809
33109.461
33012.023
32439.095
32057.758
32192.797
31718.158
31594.037
31459.661
30812.334
31393.845
30792.905
30565.963
30179.146
31197.792
31109.176
30202.904
30634.712
29841.945
30248.447
29993.67
29893.878
29516.242
28962.274
29153.673
28438.847
28925.044
28360.364
29210.63
28889.535
28227.935
28428.067
28044.271
28184.215
28092.211
28363.355
27612.084
27109.178
27341.466
26593.333
27170.009
26637.233
27472.38
26822.219
26270.741
26431.251
26064.862
26324.672
25971.961
26424.065
25582.224
25298.272
25161.691
24982.109
25059.717
24993.775
25215.945
24686.304
24115.893
24223.19
23690.636
24297.792
23665.558
23997.399
23357.637
23008.303
22960.932
22869.192
23137.792
22720.92
22802.977
22099.46
21682.018
21600.932
21499.574
21796.174
21468.121
21355.537
20752.721
20398.4
20280.456
20329.253
20725.144
20245.187
20038.975
19341.914
19058.923
18991.81
19116.319
19394.132
19061.218
18675.922
17987.779
17802.92
17700.21
17804.18
18226.771
17963.178
17445.237
16591.571
16576.072
16380.401
16665.343
17062.386
16816.301
16272.294
15263.292
15409.038
15242.789
15590.555
15947.12
15800.593
15255.362
14025.895
14531.771
14220.23
14554.882
14824.421
14928.975
14324.75
12970.373
13790.147
13214.319
13649.029
13966.872
14212.141
13619.768
11906.868
12733.065
12434.119
12662.768
12894.99
13572.478
12533.426
11176.566
12501.109
11598.319
11826.082
12223.935
12658.925
12311.077
10428.197
11497.472
11219.525
11283.158
11737.851
12835.143
11845.435
10306.94
11198.991
10914.836
10886.506
11180.867
12548.198
11363.384
9759.1379
11392.099
10499.581
10622.97
10874.536
12476.5
11178.252
9895.9429
11151.57
10402.698
10556.593
10698.747
12521.11
11134.4
9867.459
11140.16
10593.312
10498.529
10621.958
12600.327
11008.347
10070.599
11318.712
10608.822
10471.339
10637.142
12721.016
11035.699
10425.468
11297.763
10877.387
10705.986
10798.649
13078.645
11125.045
10600.529
11547.915
11147.813
10900.352
11073.86
13063.037
11172.966
11092.671
11635.811
11378.534
11098.803
11014.009
13441.926
11437.573
11147.418
11791.043
11599.007
11205.362
11218.73
11985.211
10671.828
11202.706
11264.115
11298.56
11225.46
11118.524
16650.19
11581.41
13344.546
14070.838
14090.637
13350.381
13899.767
13635.22
11066.044
11819.498
12016.174
12217.996
12223.884
12256.8
14099.414
12133.707
11993.065
12227.362
12474.369
12074.825
12283.886
13559.685
11525.925
11647.883
11942.777
12197.098
12153.185
12296.428
13633.378
12018.631
11892.243
12149.241
12391.565
12104.589
12394.377
13307.146
12348.229
12129.373
12539.044
12671.496
12755.503
12701.914
13150.583
11450.935
11367.653
11634.877
12048.581
11788.967
11852.473
12361.262
12649.367
12045.89
13040.381
12824.959
13013.078
13013.15
12809.387
13580.484
14387.511
14209.379
14281.111
14338.949
14277.212
13542.146
20603.497
20455.921
21044.483
20547.435
20882.849
20713.233
20759.331
19392.18
15663.994
14087.222
13561.762
13112.719
13300.985
13749.614
20058.271
21364.78
19972.641
19934.308
19759.561
19838.379
20201.736
19472.93
19691.758
19781.955
19212.6
19144.232
18206.763
17985.919
19758.737
20585.917
20817.974
20811.518
20069.798
19694.027
18312.362
19630.898
19465.405
19959.914
19209.133
19441.87
18483.858
18453.348
19575.948
19751.504
19004.892
19087.531
18536.384
18322.058
18009.113
19162.66
19134.945
19181.614
18679.611
18706.599
18353.323
18135.356
19154.395
19301.931
18484.538
18451.151
18219.029
17931.189
18101.875
18954.632
19002.579
18582.446
18219.263
17899.567
18013.462
18019.638
18740.973
18792.984
18130.001
17863.675
17984.645
17684.571
17833.352
18326.635
18648.961
17893.434
17852.642
17474.008
17600.794
17537.983
17813.175
18194.385
17547.913
17217.276
17153.165
17043.713
17026.228
17390.01
17842.745
17357.719
17155.418
16793.945
16987.799
16560.231
17119.04
17055.574
16874.039
16317.16
16262.608
16094.326
15986.159
16769.959
16556.212
16219.714
15937.739
15896.039
15516.943
15367.541
16101.508
15680.341
15550.246
15338.41
15073.065
14884.695
14644.314
15213.063
15286.566
14864.102
14589.014
14386.697
14157.427
14118.973
14517.643
14478.091
14117.848
14042.704
13683.587
13436.656
13064.919
13690.38
13747.097
13455.637
13226.311
12906.636
12585.229
12480.783
12846.255
13003.381
12658.591
12541.323
12087.745
11818.943
11649.098
11986.889
12181.184
11913.633
11692.727
11258.042
11028.925
10801.859
11163.576
11495.894
11170.677
10980.66
10567.79
10156.353
10104.777
10470.837
10634.713
10350.223
10167.529
9565.5482
9407.0203
9376.0147
9851.8749
9918.8542
9717.892
9327.1087
9034.8721
8919.2789
8862.8197
9263.1603
9267.4425
8815.9894
8701.0188
8469.1407
8144.9962
8184.1899
8846.8509
8886.3952
9095.0134
8450.3255
7862.8281
7822.2804
8032.773
8834.9589
8636.253
8126.9296
7978.326
8020.6693
7711.1533
7967.9468
8963.7679
8065.6526
7387.6839
7557.8442
7516.7303
7570.0566
7617.5614
8499.0024
7844.456
8191.9975
7514.9987
7528.4659
7633.171
7486.5578
8919.727
7963.5352
7807.2731
7640.4773
7636.0378
7710.6593
7671.9328
9211.9178
7905.3347
8092.8846
7882.7579
7774.3619
7924.1515
7864.0058
9592.6378
8301.9858
8402.4886
8194.8043
8095.3641
8387.7347
8379.0491
10171.073
8657.7354
8759.1431
8616.186
8598.4624
8883.1395
8627.2006
10736.113
9100.2388
9291.5133
9208.7506
9086.1982
9106.712
9217.4921
11370.45
9681.7987
9802.499
9773.6472
9418.5289
9921.3945
9739.2338
11828.774
10022.148
10447.491
10213.692
10304.209
10344.235
10575.636
12748.313
11127.394
11008.966
11120.303
10517.735
10886.021
10355.365
12890.066
10579.401
11273.216
11021.984
11000.774
11195.695
11193.823
13570.652
12024.528
12250.943
11909.23
11700.039
11795.724
11425.154
13643.341
11275.067
12167.972
11689.286
11811.212
11814.431
11596.551
13832.768
12333.559
12559.604
12325.115
12105.506
12082.341
11848.055
13988.506
11689.641
12366.592
11851.839
11931.963
11976.559
11766.058
13595.039
12106.387
12363.266
12209.951
12257.754
12146.945
11671.173
13012.478
11222.677
11633.916
11315.419
11116.048
11063.285
10837.234
13285.028
11965.484
12031.846
11737.24
11878.544
12090.357
11530.674
10410.921
8913.8608
9010.049
8838.6532
8748.3672
8715.0872
8396.9273
8655.5358
7259.6468
7256.3032
6852.4643
6940.4919
6619.904
7251.5883
7804.9586
6202.4261
5286.3131
4975.7138
4572.2009
4758.0265
4583.7232
6635.015
7321.5699
6913.7368
6815.8485
6804.5136
6329.6786
6602.4067
7849.1293
7402.5532
7274.82
7220.8048
6889.6818
6555.8652
6482.4701
7039.006
7800.8518
8627.7963
8762.4644
8395.8837
8471.4424
7158.44
7879.2018
7827.1682
7571.5463
6839.1521
6956.1659
5953.2259
6872.545
7246.6546
6035.1382
6093.4398
6796.9637
6253.7846
6320.1941
6176.0306
8231.7872
7007.522
7778.5579
7338.6868
7107.3195
7415.802
7089.9139
7972.4408
6304.9271
5941.1799
5339.1821
5379.4092
5416.7368
5423.0056
7744.6644
6134.5436
6723.6635
6550.2926
6596.1521
6863.5013
6762.611
7920.7104
5795.4974
5975.6514
5260.1543
5234.2424
5560.4336
5666.6376
7732.9454
5599.4557
6121.6098
5519.8627
5643.1983
5775.8177
5893.1294
8122.2115
5203.7124
5945.0211
5149.763
5649.82
5530.794
6224.9652
7833.8521
5191.1652
5377.3589
5656.7625
5499.6351
5574.9546
6117.9291
6746.2519
5667.3639
5785.4257
5124.1822
5467.2284
5674.6026
5792.3728
6214.811
5740.918
5860.2012
5358.8351
5100.1735
5546.9528
5754.9063
6080.2093
5636.14
5732.8089
5124.1366
5231.7687
5427.6025
5636.7831
6096.5499
5587.4581
5756.2066
5206.1557
5099.2052
5432.6912
5733.2125
5900.977
5420.9775
5611.9016
5070.0712
5125.7206
5324.5876
5496.718
5825.3327
5415.9032
5598.3019
5083.1786
5110.8451
5173.7749
5631.9385
5630.2557
5222.2901
5441.4127
4981.4775
5057.5395
5133.0443
5479.329
5532.649
5263.7361
5484.5723
5036.9959
5181.1002
5046.3666
5408.1539
5373.2666
5085.1621
5327.8493
5034.2072
5085.7631
4950.4797
5336.1331
5282.6842
5055.2676
5454.2612
5034.9789
5158.7005
4977.7428
5321.3795
5196.9848
5015.4848
5344.7745
5037.5575
5237.0268
4809.8105
4903.1905
5263.68
4834.7603
5350.9912
5167.6253
5152.9337
4671.2249
5144.4473
5142.6647
4588.8808
5448.3375
4819.9608
5047.1047
4782.1638
4588.6971
5399.8944
4753.516
5427.4642
5076.2589
5293.5447
4535.4799
4881.1725
5431.4508
4603.9356
5242.6714
4915.3304
5138.2024
4333.2501
4740.6425
5721.5368
4660.2162
5487.2792
4737.6305
5198.9819
4262.9958
4772.6688
6096.4161
4693.81
5192.5706
4827.2598
5252.2222
4069.391
4866.6475
6464.1039
4664.9793
5403.8217
4900.3325
5254.4311
4218.4203
5091.8111
7013.681
4893.5045
5518.6314
4817.8912
5487.3964
4240.4168
5215.1009
7584.9966
5084.1999
5599.0044
5102.8193
5623.0212
4304.0194
5515.8239
8117.1751
5329.2877
5975.659
5328.6787
5964.9352
4884.8765
6051.3282
8818.2629
5821.6796
6359.5901
5744.4268
6448.2995
5251.6553
6212.4191
9552.8435
6409.7245
6936.9398
6253.5126
6990.1405
5847.1915
6752.762
9993.7247
6877.6265
7346.1485
6925.9748
7682.1018
6600.4587
7421.5997
11025.394
7793.2373
8544.6401
7738.0718
8686.2177
7413.1404
7848.4828
11093.035
8756.516
8711.2228
8657.2667
9152.4338
8286.5375
8434.3199
12171.733
9178.6701
9844.4513
9449.5333
10242.782
9268.1304
9033.6637
12403.062
10730.364
10619.766
10724.263
10948.68
10121.796
9497.2707
12745.068
10317.003
10850.505
10737.514
11181.362
10882.608
10119.287
13132.994
11909.079
11959.417
12043.272
12221.857
11775.667
10195.573
13279.78
11726.672
11754.052
11834.17
11866.481
11643.115
10849.86
13679.331
12326.432
12215.502
12428.084
12281.469
12669.823
10947.442
12207.315
11180.536
11163.596
11484.032
11402.501
11483.785
10951.551
633.17252
-911.7172
-994.51998
-1158.724
-917.84984
-999.97209
-725.78994
3121.6846
2627.6452
2137.0049
2090.6759
1841.1895
1788.9726
1030.0611
1711.984
3349.3835
3501.8162
3884.1609
3710.4783
3394.3832
3062.4394
1676.6248
1496.3592
972.31609
1119.4525
965.52116
831.83715
339.76282
1746.494
4187.2373
5489.1606
6376.6344
6036.1352
5650.3461
4191.9035
1424.0793
1439.8417
142.59236
-316.02259
-629.50749
-816.77592
47.078852
1358.2909
2660.9443
2727.7218
3784.808
3912.0101
4289.0025
2944.9353
1478.3875
1240.445
914.01123
985.10415
769.21929
-88.297704
1262.0444
2388.8236
1967.2584
1288.9839
1962.8348
1291.7484
1975.3742
1591.3103
2377.3835
2015.9669
2122.0713
1725.8932
2560.7433
1744.4218
2593.4806
2913.0016
2719.3198
1190.0635
1819.2145
1211.3424
1199.4862
1326.3623
3317.7569
2563.5604
2961.8085
2622.4876
3391.8829
2840.695
3300.976
3530.5528
3675.8615
2549.2445
2242.3665
2700.9781
2090.4757
2482.4678
4068.5563
3503.1629
2639.9255
3592.8431
4018.9126
3153.333
3930.8087
4046.2995
4690.8525
2393.4861
3274.1081
3766.0903
3394.3936
3682.7406
3284.2921
4289.8999
4294.5497
3740.0468
4419.1591
3544.8778
4107.569
3647.0663
4536.4976
4550.3291
4198.3147
4606.7054
4219.3192
4491.795
3989.1503
4730.6295
5068.876
4607.1771
5161.9935
4455.1221
4816.1426
4411.945
5079.062
5377.9626
4971.6092
5341.9942
4909.2773
5023.9626
4691.4518
5110.8367
5705.0639
5199.0525
5658.4216
5108.7428
5213.9617
5073.9258
5286.1687
5808.4163
5414.0189
5761.352
5287.9641
5347.0292
5379.4237
5114.4561
5969.4901
5516.4285
5712.7507
5323.3085
5202.4258
5509.5309
5095.985
5951.8221
5330.85
5655.9786
5296.3441
5172.7743
5609.1044
4883.3329
5755.3138
5254.0416
5453.1576
5090.2634
4585.4913
5765.3398
4593.3274
5569.0379
4961.1377
5224.4319
4909.314
4588.134
5618.3488
4394.5788
5306.1544
4628.2633
4762.7656
4726.0338
4031.5879
5410.0474
4277.5987
4973.2025
4418.8223
4684.2838
4493.3902
3868.5758
5032.931
3894.1715
4601.7233
4038.0259
4347.3927
4200.0203
3427.1444
5087.685
3259.1639
4444.4252
3776.763
3970.9953
4157.059
3084.3261
4993.7668
3146.4645
4055.4443
3737.6134
3576.8834
4057.4709
2607.6821
4854.6861
2956.0081
3771.6907
3531.5628
3446.3135
4031.7017
2264.059
4926.545
2895.7119
3674.2073
3579.6434
3252.7298
4018.2882
1971.4376
5091.2618
2931.3025
3566.8535
3523.3781
3022.483
4006.0645
1690.4687
5260.4429
2909.9743
3515.6348
3564.9421
3094.2468
4287.3527
1742.7275
5672.4888
3135.1425
3635.5842
3676.2574
3160.2245
4176.88
1593.1216
6070.7084
3418.7913
3677.744
3816.1827
3138.068
4388.0659
1685.506
6450.112
3508.116
3711.2483
3809.6836
3391.6176
4295.7199
2027.8734
7281.9981
4155.1729
4051.9057
4314.0579
3340.8988
4724.7006
2128.5023
7063.5657
4195.4827
4132.888
3983.9381
3675.6492
4460.6549
2677.4193
7423.4944
4984.0498
4487.1403
4637.3634
3901.9286
5003.5074
3143.4505
7438.5079
5119.6169
4985.0051
4501.9068
4340.7502