/*--------------------------------*- C++ -*----------------------------------*\
  =========                 |
  \\      /  F ield         | OpenFOAM: The Open Source CFD Toolbox
   \\    /   O peration     | Website:  https://openfoam.org
    \\  /    A nd           | Version:  6
     \\/     M anipulation  |
\*---------------------------------------------------------------------------*/
FoamFile
{
    version     2.0;
    format      ascii;
    class       pointVectorField;
    location    "0.75";
    object      lm;
}
// * * * * * * * * * * * * * * * * * * * * * * * * * * * * * * * * * * * * * //

dimensions      [1 -2 -1 0 0 0 0];

internalField   nonuniform List<vector> 
625
(
(0 0 0)
(0 0 0)
(3186.1612 -1626.3458 243.53035)
(2517.1375 -2487.0687 212.83105)
(0 0 0)
(0 0 0)
(2486.6196 -2565.1966 208.58566)
(3153.7314 -1705.6658 242.74837)
(0 0 0)
(0 0 0)
(0 0 0)
(3017.5537 -1841.6404 235.4949)
(2851.0271 -2055.5434 227.71294)
(2685.4705 -2271.8634 220.52932)
(-17.680396 -7.6107741 2.9321075)
(-29.843736 1.3256902 6.1739889)
(-31.419848 9.4845469 20.861456)
(-21.957981 21.455687 30.418182)
(-1.5498858 33.612873 41.807793)
(39.575905 43.042673 51.74169)
(94.804391 48.574539 60.277668)
(169.54414 47.120121 68.001254)
(264.18805 38.278366 75.178712)
(377.04507 18.597662 80.653417)
(509.49276 -12.328015 87.395744)
(660.35557 -56.912423 93.954071)
(828.10749 -116.15955 101.23584)
(1011.5677 -190.9279 109.64025)
(1208.2917 -281.79888 118.97215)
(1416.0395 -388.5472 129.54592)
(1631.9748 -510.65931 141.19031)
(1853.7767 -646.34206 153.67965)
(2078.5958 -794.23536 167.06856)
(2303.9232 -951.73864 180.92197)
(2529.3613 -1116.9967 195.54001)
(2751.53 -1284.7639 210.67981)
(2970.9365 -1457.0192 226.88527)
(-14.585092 -0.33558457 -9.4418426)
(-20.295492 -4.8241116 -1.6792832)
(-28.930328 -24.555991 -3.5569027)
(-29.892627 -48.851845 2.6014402)
(-25.443686 -76.362971 6.7077086)
(-7.0214459 -125.26754 12.692805)
(16.756997 -170.23963 14.756551)
(55.032263 -232.12528 19.160422)
(105.82476 -304.11827 20.549162)
(170.884 -384.97509 22.956619)
(251.40767 -480.64317 25.443285)
(347.74524 -586.63635 29.154975)
(460.82831 -706.13372 34.632418)
(590.25451 -837.12055 42.340756)
(735.84339 -979.40542 52.577908)
(896.6131 -1131.6387 65.371657)
(1071.2421 -1292.0165 80.460141)
(1258.1876 -1458.8726 97.624504)
(1455.1755 -1629.9862 116.32527)
(1660.532 -1803.3492 135.82652)
(1871.4713 -1977.4423 155.91049)
(2085.7507 -2150.0473 175.66603)
(2302.6601 -2320.257 194.74433)
(0 0 0)
(0 0 0)
(0 0 0)
(-5.3587686 -6.1204085 10.822255)
(-25.670967 -35.864787 32.892246)
(-37.201455 -40.718182 45.234112)
(-51.733879 -68.480994 61.187476)
(-46.907911 -110.85396 77.046715)
(-33.464795 -136.67563 84.443173)
(-13.467666 -191.3717 96.149019)
(27.517093 -248.72455 101.26012)
(76.867619 -319.7792 107.48336)
(143.2008 -404.14794 111.20715)
(224.63712 -500.23329 113.03936)
(321.31485 -613.16528 115.42319)
(434.72635 -737.48604 116.84652)
(563.82826 -875.82482 118.98488)
(708.72374 -1025.519 121.95196)
(868.6604 -1184.6184 125.84834)
(1042.2938 -1351.7988 131.1708)
(1228.3059 -1524.27 137.89102)
(1424.7279 -1700.0006 146.07717)
(1629.4774 -1876.9164 155.81701)
(1840.3395 -2053.0168 166.98724)
(2054.9609 -2226.9069 179.69334)
(2271.48 -2397.3586 193.89694)
(2654.7684 -2349.7502 217.09684)
(2818.8147 -2133.058 226.20153)
(2985.0015 -1921.0686 234.69046)
(2938.4394 -1536.6112 225.53793)
(2718.5621 -1363.1371 206.69594)
(2494.7755 -1191.8425 185.99201)
(2268.8965 -1023.516 164.58366)
(2041.919 -860.80437 142.7679)
(1816.1452 -706.65244 121.55219)
(1594.049 -563.58638 101.43204)
(1377.9853 -433.72915 83.112074)
(1170.9013 -318.96775 67.106038)
(975.18835 -220.49969 53.79574)
(793.04084 -139.08375 43.206629)
(627.12082 -74.613727 35.37696)
(477.76556 -26.621667 29.8312)
(347.54745 6.4268662 25.725342)
(235.63044 26.632746 23.305367)
(143.72973 32.203548 21.261832)
(71.011952 32.612325 18.187117)
(16.121062 24.965071 15.555153)
(-19.870035 12.549598 12.13662)
(-40.883 -0.32023042 9.8668282)
(-45.682911 -7.4985238 4.4147395)
(-42.318843 -14.585954 3.7110838)
(-27.830644 -15.510387 3.3466822)
(0 0 0)
(0 0 0)
(0 0 0)
(0 0 0)
(0 0 0)
(0 0 0)
(2508.0869 -2507.1616 211.41462)
(2500.4728 -2527.3701 210.84595)
(2492.2797 -2546.3524 209.55594)
(3178.7435 -1646.5977 243.54333)
(3170.8711 -1666.5067 242.74328)
(3162.4955 -1686.1079 243.00457)
(-19.548573 0.8609429 2.2253358)
(-31.540449 6.2871275 6.5674525)
(-34.092003 8.1261681 17.087004)
(-30.693726 11.107064 24.668028)
(-13.476527 13.591444 35.107479)
(20.25696 10.44888 43.478172)
(66.339913 2.7227726 51.288919)
(132.43217 -11.976516 58.391953)
(214.66913 -36.298619 64.172514)
(315.65279 -71.415111 69.511593)
(435.15798 -117.94847 75.0492)
(571.99146 -178.52356 80.626356)
(726.28462 -253.17069 87.315092)
(896.47422 -343.16229 94.902168)
(1080.7535 -448.06316 103.94422)
(1277.388 -567.92056 114.39537)
(1483.6725 -701.08303 126.18688)
(1697.6814 -846.2479 139.27044)
(1916.493 -1001.633 153.62535)
(2138.3469 -1164.1322 168.81147)
(2360.7108 -1332.1903 184.61241)
(2581.7302 -1501.9782 201.63654)
(2801.6504 -1673.5513 218.45848)
(-18.96292 -1.7869389 -3.8830737)
(-25.169126 -2.2169641 -0.63702572)
(-36.292155 -7.0532086 8.96315)
(-34.28707 -9.9882666 15.904765)
(-21.148795 -19.95485 24.422935)
(3.6344877 -33.962162 31.640187)
(44.150427 -53.957574 37.836418)
(99.815075 -84.808157 43.842793)
(171.38082 -122.95887 47.924696)
(260.87501 -173.46638 52.948004)
(367.11329 -235.42304 57.198131)
(491.16691 -310.74113 62.801235)
(632.22026 -399.97175 69.247956)
(789.45819 -503.14291 77.353328)
(961.73015 -620.40242 87.149822)
(1147.1544 -750.74527 98.708825)
(1343.8541 -893.00986 111.90278)
(1549.6519 -1045.664 126.64791)
(1761.9553 -1206.3929 142.52613)
(1978.7 -1372.9772 158.90597)
(2197.7264 -1543.6352 176.55961)
(2417.0085 -1715.2283 193.38119)
(2636.3497 -1888.2366 210.68139)
(-17.06449 -5.2126912 -4.4591041)
(-25.842695 -10.436918 1.889058)
(-39.106997 -16.305398 5.6684472)
(-37.124141 -30.190701 12.2346)
(-29.994763 -51.394128 18.517332)
(-9.1332921 -74.737456 23.388833)
(24.321841 -113.20577 29.816931)
(70.309273 -155.83655 32.992807)
(132.52903 -210.06971 37.111659)
(209.89723 -276.12163 40.460413)
(304.19678 -352.7097 43.93554)
(415.54558 -443.20671 48.653951)
(543.69693 -546.0868 54.405454)
(688.57932 -662.56234 62.13603)
(848.8273 -791.70177 71.758572)
(1023.3075 -932.73815 83.506812)
(1210.2023 -1084.313 97.199413)
(1407.3172 -1244.5468 112.61375)
(1612.677 -1411.2629 129.24942)
(1823.7461 -1583.0516 147.28036)
(2038.6417 -1756.2096 165.08584)
(2254.9121 -1930.8844 183.79485)
(2471.1704 -2103.6372 201.89307)
(0 0 0)
(0 0 0)
(0 0 0)
(0 0 0)
(0 0 0)
(0 0 0)
(0 0 0)
(0 0 0)
(0 0 0)
(-8.9595423 1.1586527 -5.3072792)
(-7.2076751 -0.12582514 1.1318087)
(-5.4115131 2.6382824 3.7194949)
(-15.456829 -17.611104 5.3468325)
(-18.540037 -21.137046 11.945684)
(-17.942932 -20.424659 22.912334)
(-24.991459 -29.012849 7.9973938)
(-23.69734 -28.483833 18.097808)
(-25.964243 -37.301013 34.675447)
(-26.198959 -54.480369 17.708288)
(-28.69886 -61.852034 30.554465)
(-34.995674 -58.590424 47.211498)
(-18.551022 -92.603881 24.590151)
(-22.062559 -94.912854 39.501975)
(-28.904527 -101.89234 60.323541)
(-4.4140768 -131.06695 30.524877)
(-7.5482465 -135.52614 48.372619)
(-15.800183 -137.79975 68.410828)
(21.636152 -182.9148 36.404356)
(18.86461 -190.75376 54.185037)
(8.8162086 -191.94746 79.15832)
(61.143687 -244.63583 40.021775)
(56.249381 -247.56922 59.405009)
(47.26452 -251.46332 82.299419)
(111.3088 -315.48072 42.712346)
(107.10075 -323.46578 62.945333)
(97.788402 -323.75426 87.640531)
(176.99639 -400.42188 44.950833)
(173.06175 -406.43861 65.50684)
(163.12779 -409.52248 90.540202)
(257.05517 -495.08896 47.216813)
(252.91873 -503.60558 67.968143)
(243.26758 -506.42519 92.556821)
(352.84194 -604.44307 50.437975)
(348.89853 -613.73706 70.596683)
(339.30939 -618.0595 94.748156)
(464.94805 -724.90849 54.686378)
(460.92871 -735.6642 74.054489)
(451.1831 -742.01003 97.169882)
(592.88235 -857.86485 61.093378)
(588.6698 -870.32944 79.241348)
(579.05447 -878.03433 100.46494)
(736.82065 -1001.5844 69.492271)
(732.34497 -1015.3758 85.765684)
(722.59135 -1025.5381 105.08694)
(895.62591 -1154.7873 80.108054)
(890.78158 -1170.1618 94.490286)
(881.10601 -1182.0837 111.1897)
(1068.4056 -1315.8749 92.93679)
(1063.167 -1332.4062 104.93545)
(1053.4113 -1346.2821 118.88211)
(1253.4031 -1482.8079 107.58886)
(1247.6747 -1500.4039 117.12586)
(1238.0863 -1515.9932 128.1892)
(1448.9103 -1653.6132 123.70243)
(1442.7838 -1672.02 130.84715)
(1433.3199 -1688.97 138.99177)
(1652.8037 -1826.3671 140.95939)
(1646.2116 -1845.2977 145.75165)
(1637.0665 -1863.3721 151.14517)
(1862.7976 -1999.2533 158.82041)
(1855.8987 -2018.7175 161.38632)
(1847.0616 -2037.4475 164.55033)
(2076.8802 -2171.0455 176.69838)
(2069.6037 -2190.5424 177.74605)
(2061.2028 -2209.7891 178.98928)
(2293.3873 -2340.2664 194.2587)
(2285.5656 -2360.0725 194.01881)
(2277.8043 -2379.447 194.23532)
(3009.9553 -1862.206 235.29388)
(3002.0702 -1882.4024 235.03875)
(2993.5838 -1901.6187 234.94896)
(2842.98 -2075.4445 227.42924)
(2834.8491 -2095.41 226.8809)
(2826.9432 -2113.9795 226.38856)
(2676.5166 -2292.5283 219.70827)
(2668.827 -2312.6567 218.59764)
(2661.0499 -2331.357 217.91351)
(-18.214554 -9.5936795 2.767342)
(-21.812098 -7.7004541 2.997856)
(-20.438884 -12.861969 1.8964943)
(-28.254284 -4.5633333 5.957471)
(-31.049375 -7.0151433 0.97636012)
(-35.693703 -12.056943 3.1811478)
(-27.152052 2.3790971 15.516543)
(-33.051636 -1.3842731 14.071878)
(-34.900508 -6.4385387 8.7270644)
(-21.331496 12.166989 24.436622)
(-23.964181 6.491994 18.992763)
(-28.998982 2.6236521 13.562548)
(3.7874737 24.685719 34.928096)
(0.21900734 17.927246 26.270726)
(-6.2830881 13.748482 19.76433)
(42.689883 32.058015 42.09772)
(37.265532 26.014019 34.746286)
(31.145068 22.58903 24.346231)
(98.20853 37.84405 50.283169)
(94.240089 31.908764 40.257228)
(87.595277 28.617706 28.564769)
(173.76289 35.825081 56.61184)
(169.45287 30.581123 45.367249)
(161.08266 29.385477 32.4143)
(267.62729 27.530841 62.238887)
(261.95347 20.802662 49.638182)
(254.30579 18.771804 35.453464)
(380.55447 5.524741 66.92793)
(375.29825 1.6151782 54.615264)
(366.92729 -1.0512087 38.624716)
(512.63085 -26.336234 72.529677)
(506.69333 -31.153361 58.569076)
(497.86527 -33.573984 42.747581)
(662.65595 -72.184427 78.434267)
(656.51634 -77.594431 64.749536)
(647.62735 -80.798017 48.289848)
(829.8105 -132.83526 85.562767)
(823.36929 -139.31139 71.729732)
(814.02288 -143.48012 55.510855)
(1012.4316 -209.0692 94.025135)
(1005.5337 -216.80584 80.844123)
(995.98544 -222.46709 65.391896)
(1208.1872 -301.30178 104.15915)
(1200.9703 -310.67978 91.9378)
(1191.3069 -317.9886 77.547381)
(1414.8386 -409.18484 115.92682)
(1407.3256 -420.28269 104.8912)
(1397.5948 -429.43719 92.204905)
(1629.8508 -531.95431 129.14779)
(1622.04 -544.85859 119.71994)
(1612.3795 -555.90014 109.03342)
(1850.3284 -668.09701 143.63757)
(1842.4211 -682.89597 136.08159)
(1832.9632 -695.73606 127.47973)
(2074.1833 -815.96759 159.37172)
(2066.2726 -832.34367 153.32322)
(2056.8888 -846.74906 147.09161)
(2298.6739 -973.50146 175.8599)
(2290.8849 -991.15399 171.39774)
(2281.85 -1007.058 167.41359)
(2522.4823 -1137.7651 192.11667)
(2514.6382 -1156.5101 189.64736)
(2505.8622 -1173.5649 187.49409)
(2744.0837 -1305.555 209.38996)
(2736.2419 -1324.9479 208.01173)
(2727.8471 -1343.3108 207.40326)
(2963.0951 -1477.8705 226.57223)
(2955.1235 -1497.5755 225.89988)
(2946.7835 -1516.7445 225.58124)
(-20.453756 -1.7352875 8.5238015)
(-40.929634 -4.6483939 6.3128679)
(-48.465999 -11.605599 17.672431)
(-46.622989 -6.4240827 18.609957)
(-31.777161 -6.6176706 26.403285)
(-2.573457 -6.0682909 30.895343)
(44.25855 -11.741772 35.460203)
(106.80996 -25.116017 39.390065)
(189.07927 -47.613008 43.0325)
(288.00688 -83.146921 46.477082)
(405.8441 -132.11992 50.69906)
(541.38972 -196.86379 55.977352)
(693.77685 -277.525 62.957072)
(862.27543 -374.63039 71.907916)
(1045.0693 -487.67037 82.972698)
(1240.3857 -615.50578 96.102012)
(1446.0653 -756.69826 111.2065)
(1659.7343 -909.04704 127.74439)
(1878.9225 -1070.2601 145.40255)
(2101.5784 -1237.7983 163.71836)
(2325.1504 -1408.8062 182.05248)
(2547.6473 -1581.3388 199.90082)
(2769.2539 -1753.1445 217.92685)
(-23.34863 -4.2248729 10.819874)
(-41.203037 -21.112419 20.785581)
(-49.21599 -29.521778 26.689088)
(-53.699373 -32.678048 33.77193)
(-44.913359 -43.141316 42.210012)
(-20.426699 -53.443829 49.634806)
(16.711083 -72.244208 54.936132)
(72.309348 -98.840499 61.026289)
(143.38094 -137.02958 64.603684)
(232.19995 -187.14315 68.434022)
(338.31677 -251.8239 72.15636)
(462.11525 -331.25885 76.089377)
(602.43981 -426.29382 81.364601)
(759.22787 -536.63616 87.903569)
(930.81698 -661.43091 95.986754)
(1115.6518 -799.68822 106.02113)
(1312.0102 -949.44853 117.61724)
(1517.4893 -1108.6633 130.77568)
(1729.9445 -1275.0343 145.29377)
(1946.931 -1446.096 160.78429)
(2166.2368 -1619.6223 176.69116)
(2385.7088 -1792.7318 193.60191)
(2605.0742 -1967.1397 209.76672)
(-19.946594 -16.409861 13.270536)
(-33.443681 -26.089975 22.475174)
(-50.130604 -48.32515 34.580093)
(-60.493985 -50.345573 44.267607)
(-50.809233 -74.561055 57.534225)
(-35.225006 -98.429477 65.361519)
(-2.5085655 -127.48927 73.658274)
(43.432548 -172.87627 80.04975)
(105.71 -222.81089 84.536904)
(183.99328 -290.36713 89.198701)
(278.73738 -369.03526 92.517343)
(390.61938 -463.34891 96.107155)
(518.69869 -572.56514 100.36869)
(663.21075 -695.64513 105.09983)
(822.69623 -832.57103 111.25946)
(996.19158 -981.3707 118.58248)
(1182.0262 -1140.2244 127.25199)
(1378.2088 -1307.1358 137.27422)
(1582.7214 -1479.5773 148.51379)
(1793.2918 -1655.4122 160.67857)
(2007.8259 -1831.9747 174.16202)
(2223.8049 -2008.2705 187.54252)
(2440.1732 -2181.762 202.92757)
(-14.583155 0.67940155 2.8152765)
(-17.968858 -0.91467599 2.3050272)
(-15.972011 -3.5441583 1.5054606)
(-27.711756 2.2368593 3.9485617)
(-28.803153 -0.85065947 4.4134255)
(-33.789571 -2.1432151 6.72382)
(-30.007565 -0.82930578 14.452731)
(-36.212586 -4.5105429 15.655316)
(-38.087041 -9.3582861 15.662335)
(-26.833492 3.247743 22.6771)
(-29.669589 -1.6541449 20.928093)
(-34.738265 -6.3462867 19.907036)
(-8.0192414 3.1331918 30.558433)
(-11.611966 -3.662011 29.335532)
(-17.650255 -6.8287573 28.588424)
(24.400352 -0.73317587 39.359211)
(19.71108 -5.3987498 37.083236)
(11.990449 -9.1947987 33.582152)
(71.381372 -8.1020375 46.343475)
(67.855625 -13.08656 42.237562)
(60.90127 -16.158358 39.267574)
(137.34854 -23.107436 51.88678)
(133.27425 -29.375787 47.641342)
(123.63276 -31.793051 43.146076)
(219.31476 -49.211231 57.521119)
(215.05801 -53.147581 52.27651)
(206.45135 -55.198981 47.692823)
(320.25779 -83.589233 61.745899)
(316.15317 -89.190569 55.713365)
(306.32164 -91.649395 50.297109)
(439.31474 -131.82665 66.68684)
(434.4487 -137.47729 60.668458)
(424.31072 -140.24153 54.873752)
(575.38918 -193.40778 71.889568)
(570.51869 -199.93044 65.575666)
(560.19745 -203.91911 59.607043)
(728.97053 -269.50086 78.344423)
(723.7156 -277.33017 72.065324)
(712.9405 -282.55348 66.292291)
(897.99242 -360.81061 86.188473)
(892.23095 -370.10197 80.356004)
(881.22324 -377.00857 74.853932)
(1081.0977 -467.05134 95.675656)
(1074.8383 -478.13095 90.404567)
(1063.8605 -486.84049 85.401577)
(1276.3143 -587.84534 106.94795)
(1269.6762 -600.58388 102.46904)
(1258.6078 -611.20277 98.152556)
(1481.4252 -721.70546 119.76935)
(1474.1872 -736.38659 116.26433)
(1463.3639 -748.82477 112.77023)
(1693.9039 -867.47438 134.08146)
(1686.4506 -883.67105 131.62129)
(1675.94 -897.80317 128.91014)
(1911.7858 -1022.793 149.69272)
(1903.7777 -1040.5192 148.02185)
(1893.7086 -1055.9634 146.26965)
(2132.1263 -1185.2181 165.94589)
(2124.6322 -1204.2587 165.35422)
(2114.6376 -1220.8827 164.2489)
(2353.3687 -1352.7125 182.93062)
(2346.2456 -1372.4397 183.16133)
(2336.7479 -1390.2068 182.31278)
(2574.2361 -1522.9806 200.6527)
(2566.3265 -1542.7543 200.52989)
(2557.4509 -1561.257 200.28926)
(2794.1555 -1693.9333 218.13739)
(2786.1244 -1713.8633 217.94015)
(2777.8819 -1733.0979 217.95122)
(-16.720917 -0.95205209 -2.0778232)
(-17.635631 -2.9628831 -0.38777146)
(-16.029493 -1.173783 3.4669158)
(-26.254712 -6.7384367 -0.78699718)
(-27.034587 -9.3476988 5.5375741)
(-32.676454 -12.48791 12.767673)
(-32.2825 -13.690354 12.079286)
(-36.012932 -18.602967 18.315121)
(-38.783508 -21.218247 22.606856)
(-33.381799 -17.527937 17.25527)
(-33.989293 -25.877692 22.783118)
(-40.075198 -29.579418 28.299146)
(-17.527146 -29.243193 26.859942)
(-21.554876 -36.421567 34.729959)
(-29.896576 -36.873529 37.319141)
(6.7771297 -43.587926 34.715956)
(3.0344507 -50.533073 40.272936)
(-3.8036605 -52.385679 45.448623)
(47.504709 -63.777145 39.629524)
(44.207983 -71.937729 46.758875)
(34.795829 -72.832494 49.710406)
(103.86853 -95.903712 46.368483)
(99.594485 -102.20568 52.694861)
(90.391759 -101.06744 56.727475)
(175.16315 -133.87148 49.480947)
(171.20221 -140.76014 55.544988)
(161.90138 -141.34826 59.269676)
(264.86994 -185.59047 54.149411)
(261.0821 -192.55448 60.364624)
(250.94617 -192.38253 63.770078)
(370.75398 -248.95266 57.979369)
(366.44467 -256.28203 63.611155)
(356.34752 -257.3737 66.928698)
(494.25518 -325.5502 62.829203)
(490.2561 -334.00052 68.237197)
(479.81716 -336.11088 71.15275)
(634.74664 -416.38027 68.977064)
(630.23476 -426.05395 74.004896)
(619.44642 -429.77968 76.474855)
(790.90484 -521.10554 76.615799)
(786.01968 -532.40005 81.117251)
(775.1798 -538.08241 83.328189)
(962.10685 -639.84885 86.177954)
(956.79137 -652.62412 90.337433)
(945.80315 -660.38894 91.900528)
(1146.2804 -771.32202 97.646057)
(1140.3737 -785.79984 101.22874)
(1129.3885 -795.75605 102.3874)
(1341.7542 -914.53962 110.85352)
(1335.2165 -930.52066 113.94393)
(1324.442 -942.53313 114.63652)
(1546.1107 -1067.6623 125.6411)
(1539.1229 -1084.9176 128.20895)
(1528.624 -1098.861 128.409)
(1757.5089 -1228.5165 141.7092)
(1749.938 -1246.9219 143.6019)
(1739.8368 -1262.4548 143.59718)
(1973.2813 -1394.9789 158.33428)
(1964.8356 -1414.2072 159.90483)
(1955.6226 -1431.1457 159.60815)
(2191.7533 -1565.7403 176.17714)
(2182.2831 -1584.4339 176.46577)
(2174.2049 -1603.1107 176.21471)
(2409.8274 -1736.3275 193.16115)
(2401.7793 -1755.9068 193.68675)
(2393.219 -1774.5843 193.18289)
(2628.4095 -1908.7495 210.28648)
(2620.1653 -1928.7715 210.25924)
(2612.4762 -1947.8181 209.96138)
(-14.554346 -5.6215761 -1.157426)
(-15.877828 -5.8304876 1.5457297)
(-15.786655 -6.8343304 5.8028068)
(-23.793507 -14.238121 4.5130245)
(-23.163305 -11.574192 11.344838)
(-26.791846 -18.959762 18.095427)
(-35.135243 -23.003296 12.856365)
(-37.018661 -32.751767 22.341536)
(-38.801154 -36.692142 29.443712)
(-32.999075 -41.298761 18.669905)
(-37.725103 -39.060944 28.075806)
(-43.982327 -47.048854 36.272453)
(-25.463181 -59.053702 28.79843)
(-28.37944 -65.931345 39.536208)
(-34.411655 -69.503643 50.555118)
(-3.9255795 -86.802979 33.170135)
(-8.5141773 -90.40882 45.268292)
(-16.887416 -96.034706 54.930375)
(29.477154 -124.19959 40.980108)
(25.572786 -126.98216 53.56784)
(16.725816 -130.31389 64.543355)
(76.347191 -166.6356 44.804083)
(71.832468 -171.25258 56.923456)
(62.417605 -175.06594 69.071872)
(138.65053 -222.43608 48.637239)
(134.57213 -225.74967 62.035954)
(124.73374 -229.11216 74.032748)
(216.3666 -288.81896 52.234293)
(212.13227 -293.68478 65.127454)
(202.23871 -296.78984 77.222803)
(310.43104 -366.99043 55.101023)
(306.13108 -372.56223 67.933889)
(296.33811 -376.43693 80.316558)
(421.31695 -459.1457 59.274428)
(416.93254 -465.87515 71.980423)
(407.27131 -470.47473 83.650906)
(548.5709 -563.80024 64.279614)
(543.71195 -572.39572 76.132814)
(534.33502 -578.43568 87.513763)
(692.08042 -682.26011 71.00112)
(686.88002 -692.37233 82.201176)
(677.75122 -699.84478 92.787064)
(850.76215 -812.9924 79.646596)
(844.98328 -825.02712 89.807865)
(836.18153 -834.35396 99.298529)
(1023.4381 -955.43921 90.260071)
(1017.0327 -969.22728 99.149081)
(1008.5248 -980.30599 107.55156)
(1208.3849 -1107.9191 102.7684)
(1201.4352 -1123.2867 110.38007)
(1193.2828 -1136.2126 117.41544)
(1403.7057 -1268.577 117.00772)
(1396.2227 -1285.4275 123.18498)
(1388.413 -1299.8962 128.82057)
(1607.3202 -1435.5073 132.62941)
(1599.5121 -1453.3318 137.34335)
(1591.9158 -1469.3248 141.64948)
(1816.9186 -1606.426 149.35677)
(1808.8638 -1625.2171 152.65267)
(1801.5997 -1642.2781 155.58058)
(2030.7627 -1779.2846 166.45264)
(2022.5673 -1798.5023 168.78617)
(2015.6107 -1816.4759 170.51746)
(2246.1834 -1952.6016 184.30397)
(2238.2076 -1972.3943 185.37768)
(2231.0611 -1990.9284 185.99659)
(2462.0766 -2124.5565 201.6227)
(2454.1164 -2144.3589 201.92456)
(2446.8557 -2163.0531 202.03366)
)
;

boundaryField
{
    free
    {
        type            zeroGradient;
    }
    fixed
    {
        type            fixedValue;
        value           uniform (0 0 0);
    }
    traction
    {
        type            zeroGradient;
    }
}


// ************************************************************************* //
