/*--------------------------------*- C++ -*----------------------------------*\
  =========                 |
  \\      /  F ield         | OpenFOAM: The Open Source CFD Toolbox
   \\    /   O peration     | Website:  https://openfoam.org
    \\  /    A nd           | Version:  6
     \\/     M anipulation  |
\*---------------------------------------------------------------------------*/
FoamFile
{
    version     2.0;
    format      ascii;
    class       pointVectorField;
    location    "1.49";
    object      u;
}
// * * * * * * * * * * * * * * * * * * * * * * * * * * * * * * * * * * * * * //

dimensions      [0 1 0 0 0 0 0];

internalField   nonuniform List<vector> 
625
(
(0 2.8616292e-19 0)
(0 2.5752368e-19 0)
(-1.8494677 -0.61244093 -0.096820347)
(-1.9553573 -0.1646588 -0.10471369)
(0 3.7105594e-19 0)
(0 2.0138431e-18 0)
(-1.9615695 -0.13497665 -0.10486299)
(-1.8557936 -0.58253805 -0.097449421)
(0 -4.3499517e-20 0)
(2.0000343e-19 -4.6457255e-19 0)
(0 9.5041815e-19 0)
(-1.8759984 -0.5003011 -0.098677666)
(-1.9021145 -0.38846458 -0.10069311)
(-1.9287239 -0.2767643 -0.10273019)
(-0.0024387737 -0.017847844 -0.017132995)
(-0.014616122 -0.035875418 -0.01709448)
(-0.035838013 -0.056384228 -0.017273534)
(-0.068018213 -0.077148254 -0.016450254)
(-0.10631865 -0.097868527 -0.01635491)
(-0.15470393 -0.12048553 -0.016092679)
(-0.20897696 -0.14306699 -0.017006919)
(-0.27121032 -0.16677981 -0.017842831)
(-0.33985763 -0.19189502 -0.01966698)
(-0.4146743 -0.21708246 -0.021505268)
(-0.49520626 -0.24399598 -0.024207053)
(-0.58104484 -0.27129214 -0.027350883)
(-0.67182055 -0.29953859 -0.031003926)
(-0.76679733 -0.32821967 -0.035173157)
(-0.86576457 -0.35741284 -0.03981435)
(-0.96800841 -0.38677316 -0.044920453)
(-1.0731613 -0.4162262 -0.050386244)
(-1.1807119 -0.44550631 -0.056300359)
(-1.2900944 -0.47458308 -0.062384235)
(-1.4008391 -0.50311705 -0.068906652)
(-1.5127045 -0.53127895 -0.075572943)
(-1.6247691 -0.55887292 -0.082465863)
(-1.7373181 -0.58577698 -0.089647018)
(0.00082728421 0.014900489 0.020738625)
(-0.018123365 0.033390937 0.015749865)
(-0.042949387 0.050833028 0.017229985)
(-0.078397429 0.067099644 0.014600889)
(-0.1226923 0.079352406 0.012816243)
(-0.17727246 0.091129663 0.010089351)
(-0.23804002 0.098071019 0.0074098171)
(-0.30775971 0.10311268 0.0036768612)
(-0.38405418 0.10484041 1.3803064e-05)
(-0.46627 0.1030164 -0.0046188882)
(-0.55465425 0.098582465 -0.0095695956)
(-0.64783573 0.090882523 -0.015118474)
(-0.74555494 0.080231871 -0.021152658)
(-0.84705149 0.066882036 -0.027649289)
(-0.95184806 0.050874285 -0.034612345)
(-1.0592311 0.032559917 -0.041896263)
(-1.1687691 0.012132837 -0.049540109)
(-1.2798194 -0.01011826 -0.057335005)
(-1.3920034 -0.033840701 -0.06538734)
(-1.5047321 -0.058842907 -0.073364471)
(-1.6178393 -0.084671989 -0.081484321)
(-1.730686 -0.1110931 -0.089367925)
(-1.8433476 -0.13793215 -0.097158364)
(0 2.5982521e-19 0)
(-3.5506343e-18 -7.6397695e-19 0)
(0 1.9362779e-18 0)
(-0.0038066981 0.0092965828 -0.014303579)
(-0.019261902 0.041386061 -0.018372562)
(-0.043106936 0.050645485 -0.015736037)
(-0.078268621 0.071244142 -0.016071481)
(-0.12359125 0.085829093 -0.017613217)
(-0.17687579 0.097753848 -0.017088973)
(-0.23828533 0.10697764 -0.01926713)
(-0.30865494 0.11421177 -0.020620657)
(-0.384587 0.11723371 -0.022953762)
(-0.46818018 0.11810007 -0.025718574)
(-0.55643798 0.11508727 -0.028909366)
(-0.65059908 0.10954201 -0.032683421)
(-0.74869517 0.10064361 -0.036863965)
(-0.85090723 0.089017712 -0.041506602)
(-0.95622617 0.074617209 -0.046576795)
(-1.0641311 0.057697735 -0.052033284)
(-1.1741021 0.038514038 -0.057819579)
(-1.2855172 0.017301123 -0.063931013)
(-1.3979352 -0.0056020124 -0.070289839)
(-1.5108695 -0.029960068 -0.076880465)
(-1.6239708 -0.055344385 -0.083670102)
(-1.7369133 -0.0815584 -0.090637034)
(-1.849461 -0.10822195 -0.097754036)
(-1.9349147 -0.24704669 -0.10297708)
(-1.9082579 -0.35859112 -0.1012164)
(-1.8823561 -0.47036748 -0.099439011)
(-1.7436747 -0.55587755 -0.089863828)
(-1.6310286 -0.52890381 -0.082117762)
(-1.5186189 -0.50138508 -0.074241575)
(-1.4065054 -0.47351088 -0.06621462)
(-1.2952312 -0.44524771 -0.058223804)
(-1.1852357 -0.41678139 -0.05030949)
(-1.0770021 -0.3882444 -0.042572057)
(-0.97106378 -0.3597966 -0.035097855)
(-0.8679336 -0.33164684 -0.027956523)
(-0.76811403 -0.3039387 -0.021226283)
(-0.67220896 -0.27682677 -0.014966896)
(-0.58060974 -0.25049989 -0.0092018957)
(-0.49390599 -0.22513929 -0.0039191701)
(-0.41239499 -0.20042441 0.00060111016)
(-0.33789446 -0.17668139 0.0045719648)
(-0.26810139 -0.15425452 0.0082603767)
(-0.20594164 -0.13303935 0.011343254)
(-0.15077518 -0.11159 0.013515607)
(-0.10405855 -0.091719996 0.015842545)
(-0.064825165 -0.071938355 0.016682117)
(-0.032954249 -0.053956872 0.018417027)
(-0.013066835 -0.032454009 0.018605727)
(-0.0068149698 -0.017331569 0.012858044)
(0 -4.6393924e-19 0)
(0 -4.8379151e-19 -9.9786834e-19)
(0 -1.425848e-18 0)
(0 8.3831431e-19 0)
(0 -9.2757868e-20 2.957616e-19)
(0 6.3850874e-19 0)
(-1.9569812 -0.15708338 -0.10469169)
(-1.9585893 -0.14967014 -0.10480016)
(-1.9600308 -0.1422185 -0.10484696)
(-1.8509951 -0.60512416 -0.096995839)
(-1.8526279 -0.59771041 -0.097064909)
(-1.8541537 -0.5901961 -0.097293236)
(0.0048717667 -0.0098984077 -0.011166979)
(-0.0083505338 -0.01846463 -0.0083022745)
(-0.030517607 -0.028775482 -0.0092352504)
(-0.063758264 -0.039787154 -0.0086111762)
(-0.10391779 -0.052053081 -0.0090726743)
(-0.15421345 -0.066135115 -0.0098695642)
(-0.21069452 -0.080719856 -0.010970334)
(-0.27524333 -0.09758859 -0.012625174)
(-0.34592204 -0.11551049 -0.014779351)
(-0.42337003 -0.13508836 -0.017473921)
(-0.50628037 -0.15637656 -0.020709735)
(-0.59452414 -0.17872887 -0.024450928)
(-0.6874289 -0.20260651 -0.028687837)
(-0.78455101 -0.22756095 -0.03339686)
(-0.88538257 -0.25353445 -0.038600112)
(-0.98933293 -0.28027521 -0.044183401)
(-1.0959978 -0.30761542 -0.050183904)
(-1.2047069 -0.33532252 -0.056500233)
(-1.3151063 -0.36326694 -0.063092653)
(-1.4266123 -0.39111055 -0.070001319)
(-1.5389048 -0.41890547 -0.076938053)
(-1.6513031 -0.44635686 -0.084219587)
(-1.7639768 -0.47353363 -0.091464312)
(0.0074095549 -0.0013024808 0.00010371571)
(-0.0090154888 -0.00019120673 0.00048102757)
(-0.031431821 -0.0021055715 0.00027126306)
(-0.065227028 -0.0040867194 -0.00092427176)
(-0.10775509 -0.0076195194 -0.0018349546)
(-0.15865276 -0.013153524 -0.0031474986)
(-0.21715627 -0.020639958 -0.0049007352)
(-0.28356123 -0.030063731 -0.0073053722)
(-0.35626062 -0.041561419 -0.010132099)
(-0.43559511 -0.055139708 -0.013366439)
(-0.52029025 -0.070836256 -0.01721618)
(-0.6103588 -0.088425275 -0.021554448)
(-0.70501663 -0.10796514 -0.026416003)
(-0.80376077 -0.12916588 -0.031746578)
(-0.90605913 -0.15188957 -0.037544546)
(-1.0113271 -0.17593698 -0.043701437)
(-1.1190825 -0.20105836 -0.050249723)
(-1.2287277 -0.22703799 -0.057045632)
(-1.3398897 -0.25362917 -0.064116866)
(-1.4519057 -0.28055258 -0.071287562)
(-1.5646139 -0.30772524 -0.078660303)
(-1.6773262 -0.33484587 -0.086000929)
(-1.7902021 -0.36191497 -0.093381745)
(0.0070013601 0.0072451809 0.0076306213)
(-0.011226758 0.015307745 0.0076956899)
(-0.033249512 0.022820268 0.0074950781)
(-0.06926151 0.02961557 0.0061156424)
(-0.11222161 0.035060483 0.0050799017)
(-0.16461009 0.036830385 0.0032187314)
(-0.22515567 0.037667257 0.00075046535)
(-0.29284549 0.035101996 -0.002061545)
(-0.36735383 0.030259425 -0.0052615999)
(-0.44845096 0.022745982 -0.0092058762)
(-0.53496806 0.012537171 -0.013567396)
(-0.62687978 -6.3577086e-05 -0.018515294)
(-0.72314805 -0.015123367 -0.023913247)
(-0.82347634 -0.032410045 -0.029800738)
(-0.92715791 -0.051730549 -0.036115497)
(-1.0336967 -0.0729133 -0.042804745)
(-1.1425079 -0.095623898 -0.049838159)
(-1.2531027 -0.11968977 -0.05712149)
(-1.3649162 -0.14476378 -0.06458311)
(-1.4776317 -0.17058857 -0.07225676)
(-1.5906285 -0.1969644 -0.079823957)
(-1.7037447 -0.22352115 -0.087567193)
(-1.8165996 -0.25017088 -0.095127639)
(0 -2.93965e-19 0)
(0 4.856938e-19 1.0187631e-18)
(0 1.0581951e-18 0)
(-5.3022798e-19 1.0587119e-20 0)
(2.2146411e-19 -3.2814213e-19 -1.6343752e-20)
(-1.3956533e-18 -1.2551623e-18 0)
(0 4.7745661e-19 0)
(0 1.2831766e-18 -3.4126849e-20)
(0 1.4130686e-18 0)
(-0.0067024741 0.006457615 0.0088593494)
(-0.0088789189 0.0085775656 0.0015728758)
(-0.0078602962 0.0059574497 -0.0046733714)
(-0.027741605 0.037574428 0.0073571375)
(-0.027067375 0.037841456 -3.4636931e-05)
(-0.025987819 0.035969899 -0.009356382)
(-0.048194949 0.049276983 0.0083261171)
(-0.050105105 0.048002277 0.00066918315)
(-0.049982217 0.051798094 -0.0086862361)
(-0.085268366 0.067529597 0.0059979854)
(-0.086841131 0.06963701 -0.0012174203)
(-0.084452042 0.068486388 -0.0089434942)
(-0.12922637 0.080669755 0.0049113989)
(-0.12986715 0.080439433 -0.0015897325)
(-0.12942083 0.083339154 -0.010174033)
(-0.18232353 0.091638318 0.0030108234)
(-0.18412882 0.093500739 -0.0043147116)
(-0.18240871 0.094927778 -0.010866367)
(-0.24372929 0.099685158 8.235046e-05)
(-0.24488278 0.10159807 -0.0052706248)
(-0.24393231 0.10401665 -0.013183129)
(-0.3132113 0.10530955 -0.0024884781)
(-0.31383322 0.10681087 -0.0082976189)
(-0.31333528 0.10999822 -0.014763256)
(-0.38853399 0.10671348 -0.0061370437)
(-0.38994342 0.10967762 -0.011266428)
(-0.38902745 0.11308382 -0.01763938)
(-0.47120473 0.10611771 -0.0099827934)
(-0.47225426 0.10922494 -0.014815477)
(-0.47189774 0.11307883 -0.020605379)
(-0.55891263 0.10186468 -0.014558879)
(-0.56022533 0.10542232 -0.018986814)
(-0.55986473 0.1099036 -0.024342362)
(-0.65211111 0.094752482 -0.019648484)
(-0.65335027 0.098953456 -0.023568992)
(-0.6533034 0.10374515 -0.028437509)
(-0.74944467 0.084658924 -0.025165928)
(-0.75085436 0.089239767 -0.028691409)
(-0.75102987 0.09459037 -0.033120528)
(-0.85085074 0.071840957 -0.031210292)
(-0.85225566 0.07691609 -0.034333609)
(-0.85261246 0.082606564 -0.038183582)
(-0.95532339 0.056350302 -0.037679376)
(-0.95681662 0.061833273 -0.040325958)
(-0.9574532 0.067949154 -0.043696889)
(-1.0625243 0.038524899 -0.044486939)
(-1.0640809 0.04440471 -0.046755461)
(-1.064866 0.050816013 -0.049614653)
(-1.1717911 0.018526905 -0.051656702)
(-1.1733585 0.024746015 -0.053506795)
(-1.1743488 0.031456383 -0.055836037)
(-1.2825905 -0.0033378477 -0.059042658)
(-1.2842071 0.0031839042 -0.060496348)
(-1.2853495 0.010130968 -0.062369694)
(-1.394495 -0.02676324 -0.066625347)
(-1.3961067 -0.019976111 -0.0677332)
(-1.3973721 -0.012861092 -0.069131637)
(-1.5069973 -0.051508494 -0.07429892)
(-1.5086127 -0.044529072 -0.075089119)
(-1.5099795 -0.037256024 -0.076074618)
(-1.6197635 -0.07717635 -0.0820481)
(-1.6213559 -0.07001103 -0.082525887)
(-1.622797 -0.062676028 -0.083173178)
(-1.7324739 -0.10354519 -0.089689154)
(-1.734084 -0.096268504 -0.089987122)
(-1.7355816 -0.088869437 -0.090372851)
(-1.8449607 -0.13033443 -0.097276303)
(-1.8465207 -0.12293115 -0.097417837)
(-1.8480241 -0.11557219 -0.097637041)
(-1.8775685 -0.49296311 -0.098897239)
(-1.879198 -0.48553204 -0.099049892)
(-1.8807102 -0.4780043 -0.099260515)
(-1.9036606 -0.38104276 -0.10086706)
(-1.90529 -0.37360636 -0.10094304)
(-1.9067052 -0.36614092 -0.10108309)
(-1.9304172 -0.26918176 -0.10279446)
(-1.9320223 -0.26177028 -0.10282312)
(-1.9334819 -0.25432658 -0.10292598)
(-0.011628078 -0.014946204 -0.0083071173)
(-0.011283282 -0.016438359 -0.0022749529)
(-0.013159831 -0.01469701 0.0050609071)
(-0.022354734 -0.034623412 -0.0078058808)
(-0.023277456 -0.035039998 0.0014828475)
(-0.021240614 -0.033209329 0.010818068)
(-0.043855757 -0.058183277 -0.007991386)
(-0.043505123 -0.056629389 -0.00029972116)
(-0.04280837 -0.056111751 0.010982032)
(-0.074402502 -0.076114883 -0.0072977199)
(-0.07514191 -0.075621563 2.9389845e-05)
(-0.073094717 -0.074038587 0.0099851351)
(-0.11247712 -0.099217914 -0.0081340791)
(-0.11310287 -0.097599777 0.00042411035)
(-0.11101282 -0.095629115 0.0088928728)
(-0.16027149 -0.12006646 -0.0079058267)
(-0.16017521 -0.11739233 -0.0017966854)
(-0.15856398 -0.11569283 0.0075319129)
(-0.2141212 -0.1424067 -0.0092083816)
(-0.21428748 -0.14057199 -0.0025253249)
(-0.21266462 -0.13763511 0.0054818866)
(-0.2760997 -0.16601012 -0.01063796)
(-0.2761135 -0.16285866 -0.0045988311)
(-0.27451806 -0.15966977 0.0031024201)
(-0.34360221 -0.19012675 -0.013029611)
(-0.34456936 -0.18667601 -0.0065198504)
(-0.34259365 -0.18287997 -0.00050753519)
(-0.41882235 -0.21530053 -0.015173281)
(-0.41890663 -0.21099242 -0.010675953)
(-0.41787887 -0.20689499 -0.0036370818)
(-0.49893522 -0.24118628 -0.018514362)
(-0.49938607 -0.2368358 -0.013513696)
(-0.4981423 -0.23201806 -0.007922012)
(-0.58464259 -0.26818448 -0.022085095)
(-0.58504088 -0.26301779 -0.017908739)
(-0.58426773 -0.25796847 -0.012711905)
(-0.67505088 -0.29562964 -0.026388656)
(-0.67571569 -0.2902611 -0.022496721)
(-0.67508552 -0.28462498 -0.018046187)
(-0.76991663 -0.32388786 -0.031054741)
(-0.77064295 -0.31799609 -0.027775109)
(-0.77036211 -0.31198398 -0.023867971)
(-0.86860786 -0.35246224 -0.03632697)
(-0.86954829 -0.34623986 -0.03344709)
(-0.86948602 -0.33989439 -0.030185532)
(-0.97069633 -0.38135332 -0.041936423)
(-0.97175409 -0.37482183 -0.039598055)
(-0.97198007 -0.36815567 -0.036896796)
(-1.0756543 -0.41035066 -0.048032766)
(-1.0768615 -0.40353271 -0.046104055)
(-1.0773342 -0.3966341 -0.043995076)
(-1.1829867 -0.43925061 -0.054383743)
(-1.184307 -0.43224406 -0.052945844)
(-1.1850137 -0.42513603 -0.05135148)
(-1.2921741 -0.46795574 -0.061100448)
(-1.2936397 -0.46075616 -0.060052312)
(-1.2945536 -0.45350901 -0.058937226)
(-1.4028124 -0.49623783 -0.068090465)
(-1.4043358 -0.48900459 -0.067286134)
(-1.4054256 -0.48162707 -0.066639578)
(-1.514426 -0.52414581 -0.075077764)
(-1.5160238 -0.51676323 -0.074713341)
(-1.5172445 -0.50933121 -0.074415523)
(-1.6264898 -0.5515607 -0.082295728)
(-1.6280021 -0.54415699 -0.082196281)
(-1.6294312 -0.53668602 -0.082134152)
(-1.7389243 -0.57846842 -0.089696911)
(-1.7404932 -0.5710196 -0.089729289)
(-1.7420305 -0.56354085 -0.089775824)
(0.002940337 -0.0055434701 0.0084154443)
(-0.0073254577 -0.022029789 0.0097010797)
(-0.027622582 -0.024774074 0.0077427168)
(-0.061705912 -0.036357893 0.0075913317)
(-0.10116723 -0.046985564 0.0068433204)
(-0.15136173 -0.057929616 0.0046309604)
(-0.20815356 -0.071474733 0.0027278174)
(-0.2729469 -0.085388682 1.6432511e-06)
(-0.34424213 -0.10172212 -0.0031211618)
(-0.42211133 -0.11881378 -0.0069413034)
(-0.50560001 -0.13805041 -0.010988731)
(-0.5946723 -0.15831711 -0.015960343)
(-0.68838697 -0.18036111 -0.021202363)
(-0.78633129 -0.2035825 -0.027018287)
(-0.88801515 -0.22802369 -0.033272705)
(-0.99276989 -0.25346245 -0.039898753)
(-1.1001316 -0.27971391 -0.046888523)
(-1.2095292 -0.30658803 -0.054117468)
(-1.3204407 -0.33385658 -0.06156078)
(-1.4323973 -0.3613604 -0.069111048)
(-1.5449517 -0.38891337 -0.076738788)
(-1.6576088 -0.41627263 -0.084306223)
(-1.7703432 -0.44360473 -0.091938487)
(0.0071962155 -0.0024788311 -0.00072773724)
(-0.0066277036 -0.0014147972 0.00095364862)
(-0.031215924 0.0015727452 -0.00056425016)
(-0.065071115 -0.00075898614 0.00015113837)
(-0.10594455 -0.0028074879 -0.00055217433)
(-0.15827181 -0.0048062592 -0.0030165451)
(-0.21601158 -0.012031181 -0.0039308599)
(-0.28309713 -0.018431783 -0.0067564221)
(-0.35603105 -0.028405681 -0.0094715241)
(-0.43581082 -0.039691997 -0.012990725)
(-0.52103311 -0.053609642 -0.016802358)
(-0.61197383 -0.069129208 -0.021353677)
(-0.70716422 -0.086910261 -0.026184114)
(-0.80671385 -0.10637088 -0.031690984)
(-0.9096342 -0.1276125 -0.037491599)
(-1.0155701 -0.15027655 -0.043772497)
(-1.1238778 -0.17428007 -0.050363074)
(-1.2340458 -0.19930051 -0.057219559)
(-1.3455577 -0.22514537 -0.064347616)
(-1.4579184 -0.25157171 -0.071588786)
(-1.5707729 -0.27831757 -0.078962175)
(-1.6835395 -0.30521149 -0.086386287)
(-1.7965314 -0.33222387 -0.093801064)
(0.007112636 0.007483866 -0.0070033953)
(-0.012073601 0.014232629 -0.0073168755)
(-0.035011363 0.028207399 -0.010261209)
(-0.068367692 0.030998916 -0.0081601984)
(-0.11168638 0.040697237 -0.010888076)
(-0.16488332 0.043554479 -0.011230691)
(-0.22415043 0.045851103 -0.012712436)
(-0.29320019 0.045801977 -0.015003801)
(-0.36747272 0.042664962 -0.01738613)
(-0.44936378 0.037247478 -0.020394934)
(-0.53633836 0.029163778 -0.023930147)
(-0.62882615 0.018472265 -0.027901576)
(-0.7257674 0.0053550837 -0.032455575)
(-0.82673319 -0.010223697 -0.037378695)
(-0.93107985 -0.027917034 -0.042770037)
(-1.0382042 -0.047644686 -0.048540838)
(-1.1475666 -0.069146097 -0.054647348)
(-1.2585877 -0.092136121 -0.06104453)
(-1.3708055 -0.11639393 -0.067715985)
(-1.4837108 -0.14159596 -0.074523665)
(-1.5968951 -0.16751927 -0.081582395)
(-1.7100487 -0.19383959 -0.088598193)
(-1.8228537 -0.22040002 -0.095917512)
(-0.0011439318 -0.0044952776 -0.0048666859)
(-0.0011293958 -0.0052804745 -0.0011006757)
(-0.0029535846 -0.0045194181 0.0033955994)
(-0.015152897 -0.019749114 -0.0036154422)
(-0.01728463 -0.019448785 0.0012358448)
(-0.014675803 -0.019062752 0.006982578)
(-0.037951977 -0.028390775 -0.0041558869)
(-0.036441101 -0.027807603 0.0007048551)
(-0.036302372 -0.027638114 0.0046735775)
(-0.069379767 -0.040685484 -0.0039083728)
(-0.070946056 -0.04004531 0.00096893932)
(-0.069265164 -0.037755306 0.0045289977)
(-0.11033925 -0.052660255 -0.0040073954)
(-0.11016834 -0.05100613 -0.00047782702)
(-0.10908816 -0.049474989 0.0040868708)
(-0.15936755 -0.065763976 -0.0053955755)
(-0.15994295 -0.064461518 -0.001348231)
(-0.15822155 -0.06203575 0.0020622041)
(-0.2157292 -0.080483705 -0.0065881084)
(-0.21582041 -0.078586686 -0.0029218533)
(-0.2147017 -0.075293736 0.0003863624)
(-0.27960292 -0.096848026 -0.0084590119)
(-0.28030873 -0.093756291 -0.0052895566)
(-0.27890948 -0.090528847 -0.0022159544)
(-0.35047515 -0.11380426 -0.010878337)
(-0.35069413 -0.11099339 -0.0080440755)
(-0.3495569 -0.1070315 -0.004958853)
(-0.42738843 -0.1331312 -0.013927833)
(-0.4276927 -0.12964589 -0.011162276)
(-0.4269489 -0.12487845 -0.0086440276)
(-0.50995556 -0.15362747 -0.017401261)
(-0.51054035 -0.14939803 -0.014881636)
(-0.50970829 -0.14448965 -0.012663454)
(-0.59795562 -0.17541273 -0.021449022)
(-0.59857287 -0.17087896 -0.019333419)
(-0.59812048 -0.16546177 -0.017220497)
(-0.69062136 -0.19874729 -0.026010384)
(-0.69142745 -0.19363932 -0.024060044)
(-0.6911483 -0.18776722 -0.022385788)
(-0.78755884 -0.22310552 -0.03103975)
(-0.78845654 -0.21759045 -0.029497875)
(-0.7884734 -0.21133357 -0.027978515)
(-0.88816868 -0.24853777 -0.036584467)
(-0.88924904 -0.24258348 -0.035259598)
(-0.88946047 -0.23602113 -0.034055115)
(-0.99197463 -0.27477401 -0.042508009)
(-0.99313841 -0.26850532 -0.041504371)
(-0.99361892 -0.26162531 -0.040514317)
(-1.0984003 -0.30167574 -0.048840944)
(-1.0997138 -0.295056 -0.048073985)
(-1.1004013 -0.28797034 -0.04734926)
(-1.2069802 -0.32898059 -0.05546111)
(-1.2083871 -0.32212841 -0.054968987)
(-1.2092644 -0.3148504 -0.054429154)
(-1.3171694 -0.35659267 -0.062381723)
(-1.3186764 -0.34946338 -0.062070641)
(-1.3197522 -0.34210565 -0.061760021)
(-1.4285226 -0.38410512 -0.069495446)
(-1.4301539 -0.37696363 -0.069390936)
(-1.4312939 -0.3694608 -0.069185753)
(-1.5406159 -0.41167274 -0.076697214)
(-1.5422751 -0.40452173 -0.076789833)
(-1.5435656 -0.39691972 -0.076726789)
(-1.6530467 -0.43901057 -0.084145004)
(-1.6545864 -0.4316206 -0.084226747)
(-1.6560321 -0.42405843 -0.084243824)
(-1.7655392 -0.4662071 -0.091548192)
(-1.767147 -0.45875544 -0.091644614)
(-1.7686801 -0.4512633 -0.091770693)
(0.0029294615 -0.00097647028 0.00074245241)
(0.0015637148 -0.00195176 0.00071065627)
(0.00029240708 -0.0015710137 0.00066246245)
(-0.014511297 -0.0010163068 0.0018904333)
(-0.01569402 -0.0016720912 0.0019314704)
(-0.012736512 -0.0013180868 0.0019116652)
(-0.037775272 -0.002756291 0.0011694255)
(-0.038625621 -0.0021424408 -0.00023877055)
(-0.037480949 -0.0012905029 0.00048344318)
(-0.070817663 -0.0036039368 0.00077614976)
(-0.073591231 -0.0028011236 -0.00013873417)
(-0.071028396 -0.00075339993 0.00064815147)
(-0.11321561 -0.0079326794 -0.00073709895)
(-0.11458569 -0.0067027347 -0.001906937)
(-0.11208281 -0.0056316652 -9.9724027e-05)
(-0.16366246 -0.012678642 -0.0018764917)
(-0.16554266 -0.01064747 -0.0023721779)
(-0.16316331 -0.0083318877 -0.0019135685)
(-0.22200759 -0.020006644 -0.0035410093)
(-0.22337673 -0.017755244 -0.0048673429)
(-0.22144341 -0.014801411 -0.0036067619)
(-0.28799932 -0.028643268 -0.006173001)
(-0.28959908 -0.025787264 -0.0069637378)
(-0.28737888 -0.02299633 -0.0058358254)
(-0.36035842 -0.039827421 -0.0089593997)
(-0.36179748 -0.03683124 -0.0095299974)
(-0.36015892 -0.03276253 -0.0088576292)
(-0.43937472 -0.053027392 -0.012256506)
(-0.440946 -0.049005197 -0.013070996)
(-0.43930662 -0.045016702 -0.012349613)
(-0.52400953 -0.067942176 -0.016199952)
(-0.52541966 -0.063855036 -0.016964468)
(-0.52423681 -0.058936663 -0.016133359)
(-0.61385656 -0.085076008 -0.020623136)
(-0.61536726 -0.080363509 -0.021307645)
(-0.61441378 -0.075198633 -0.020685916)
(-0.70834573 -0.10401491 -0.025586227)
(-0.70985818 -0.098957905 -0.026234337)
(-0.70924793 -0.093127484 -0.025636832)
(-0.80689504 -0.12464738 -0.031014972)
(-0.80848723 -0.11906209 -0.031622986)
(-0.80813617 -0.11299538 -0.031112039)
(-0.9090371 -0.14685618 -0.036930054)
(-0.91062818 -0.14095951 -0.037448641)
(-0.91061915 -0.13445489 -0.037016164)
(-1.0141178 -0.17041375 -0.043186561)
(-1.0157601 -0.16411849 -0.043687366)
(-1.016024 -0.15735217 -0.043321657)
(-1.121695 -0.19509934 -0.049856786)
(-1.1233492 -0.1885034 -0.050268884)
(-1.1239043 -0.18147016 -0.049980302)
(-1.2311701 -0.22068603 -0.05674821)
(-1.2328567 -0.21380014 -0.057127758)
(-1.2336379 -0.20663055 -0.056892817)
(-1.3421285 -0.24694102 -0.063925823)
(-1.3438045 -0.23986996 -0.064222605)
(-1.3448172 -0.23252015 -0.064081218)
(-1.4540056 -0.27367145 -0.071184227)
(-1.4556975 -0.26630788 -0.071474942)
(-1.4568595 -0.25897981 -0.071356405)
(-1.5665819 -0.30066085 -0.078685984)
(-1.5680737 -0.29305748 -0.078742187)
(-1.5695162 -0.28577521 -0.07880635)
(-1.6790979 -0.32750582 -0.086025332)
(-1.6806644 -0.32015841 -0.086233541)
(-1.6821273 -0.3126158 -0.086201424)
(-1.7918271 -0.35453313 -0.09345827)
(-1.7934431 -0.34707882 -0.093598297)
(-1.7949346 -0.33968197 -0.093699117)
(0.0013050035 0.0053164775 0.0032022913)
(0.0016686249 0.0047184108 0.00041183306)
(0.0017654634 0.0045031154 -0.0030724505)
(-0.019018269 0.014036042 0.0038778264)
(-0.020365636 0.011860683 -7.6658187e-05)
(-0.017900631 0.013634771 -0.0037604051)
(-0.040678483 0.022788555 0.0033545042)
(-0.041462432 0.025338583 -0.00079843777)
(-0.041296045 0.025922591 -0.0052052362)
(-0.076578285 0.030188227 0.0024067442)
(-0.076896992 0.029169245 -0.0011486973)
(-0.076130382 0.030868251 -0.0045263934)
(-0.11872948 0.034535631 0.0013083769)
(-0.11936775 0.036607696 -0.002186344)
(-0.11840929 0.037932242 -0.0058086333)
(-0.17113947 0.037875992 1.4855012e-05)
(-0.17178088 0.038978208 -0.0034992107)
(-0.17083534 0.041371495 -0.0068193877)
(-0.23103949 0.038569289 -0.002357121)
(-0.23107346 0.040540406 -0.0058956184)
(-0.23070291 0.042649411 -0.0086735178)
(-0.29831525 0.036380043 -0.0049411225)
(-0.29902988 0.038856138 -0.0076429915)
(-0.29840564 0.042042323 -0.010703693)
(-0.3728076 0.032157943 -0.0077931463)
(-0.37305577 0.035172014 -0.010938793)
(-0.3727944 0.038376725 -0.013721487)
(-0.45343946 0.025182388 -0.011627963)
(-0.45399802 0.028480992 -0.014329216)
(-0.45374373 0.032500136 -0.016729639)
(-0.53970925 0.01553047 -0.015711515)
(-0.54032068 0.019586119 -0.018173675)
(-0.54040549 0.023861332 -0.020580643)
(-0.63133833 0.0035043254 -0.020421851)
(-0.63207478 0.0079478403 -0.022722608)
(-0.63220404 0.0127157 -0.024835246)
(-0.72734643 -0.010995047 -0.025602316)
(-0.72817329 -0.0059701664 -0.027662235)
(-0.72863498 -0.0007907859 -0.029573693)
(-0.82743444 -0.027684492 -0.031275339)
(-0.82841042 -0.022262745 -0.033102034)
(-0.82896865 -0.016692614 -0.034840953)
(-0.93087853 -0.046483869 -0.03737524)
(-0.93194204 -0.040626938 -0.03899553)
(-0.93275536 -0.034697284 -0.04049388)
(-1.0371531 -0.06712797 -0.043876062)
(-1.0383552 -0.06090923 -0.04526616)
(-1.0393062 -0.054632712 -0.04655701)
(-1.1457262 -0.08939169 -0.050720939)
(-1.1470087 -0.082835384 -0.051874633)
(-1.1481421 -0.076301977 -0.052970793)
(-1.2560297 -0.11303255 -0.057819517)
(-1.2574346 -0.10621242 -0.058785331)
(-1.2586702 -0.099443313 -0.059654835)
(-1.3676301 -0.13776032 -0.065157407)
(-1.3690565 -0.13072923 -0.065896172)
(-1.3704187 -0.12375192 -0.066594767)
(-1.4800035 -0.16332796 -0.072647931)
(-1.4815456 -0.15613243 -0.073186257)
(-1.4829534 -0.14902692 -0.073696643)
(-1.5927916 -0.18949358 -0.080133243)
(-1.5942915 -0.18217925 -0.080586456)
(-1.595773 -0.17498168 -0.080949307)
(-1.7056558 -0.21596121 -0.087774093)
(-1.7072483 -0.20859979 -0.08805652)
(-1.7087505 -0.20132067 -0.088281979)
(-1.8183036 -0.24259097 -0.095274663)
(-1.8198577 -0.23514632 -0.095457048)
(-1.8213752 -0.22777897 -0.095608267)
)
;

boundaryField
{
    free
    {
        type            calculated;
    }
    fixed
    {
        type            calculated;
    }
    freeTop
    {
        type            calculated;
    }
}


// ************************************************************************* //
