/*--------------------------------*- C++ -*----------------------------------*\
  =========                 |
  \\      /  F ield         | OpenFOAM: The Open Source CFD Toolbox
   \\    /   O peration     | Website:  https://openfoam.org
    \\  /    A nd           | Version:  6
     \\/     M anipulation  |
\*---------------------------------------------------------------------------*/
FoamFile
{
    version     2.0;
    format      ascii;
    class       pointScalarField;
    location    "1.37";
    object      p;
}
// * * * * * * * * * * * * * * * * * * * * * * * * * * * * * * * * * * * * * //

dimensions      [1 -1 -2 0 0 0 0];

internalField   nonuniform List<scalar> 
625
(
667855.54
-783595.24
8199.5599
8297.7049
968678.78
-1892961.1
7210.462
1866.6343
488476.95
56577.525
-23830.471
-13263.318
4351.9182
6765.4919
269268.6
293092.47
279361.15
279113.05
241598.36
235286.45
210754.62
191054.76
180644.29
157611.14
145135.97
131319.18
117037.5
105896.19
94053.568
85012.571
73042.603
66854.517
56566.851
47668.222
39444.302
27714.59
19046.646
-281769.98
-174499.16
-241464.34
-185941.22
-173700.39
-172196.28
-146817.58
-138484.62
-126682.78
-114444.41
-104739.33
-92222.649
-85760.452
-74403.982
-67137.644
-59723.756
-51710.839
-45952.098
-38372.66
-33038.146
-25409.678
-18008.575
-7857.5659
580627.05
-133725.56
-245482.04
-347831.6
-432805.52
-307729.63
-267675.67
-317359.86
-223018.96
-216605.21
-196639.69
-178511.72
-167672.01
-140727.45
-133217.31
-113098.39
-102856.8
-89903.237
-78270.502
-69074.032
-58750.309
-49601.291
-40707.002
-30473.409
-21521.235
-8094.8043
6920.5043
3573.7766
-5428.9614
25315.275
31363.097
38844.97
48778.904
58923.07
67734.663
77291.264
86841.368
96983.158
107963.74
118265.58
132664.89
142588.84
157429.03
163195.95
194945.37
202095.6
208415.1
256010.64
231457.79
299077.16
233078.99
277522.57
679731.15
624230.7
618343.16
-941994.23
-1016303.5
-1002303.5
15847.485
15228.621
17903.214
-3949.6919
2884.2217
-1478.3356
174611.21
185949.98
185971.93
163086.52
152866.52
148741.17
129067.11
124164.2
110545.61
99851.998
92577.586
82814.656
74214.454
66877.989
60156.203
52643.318
47109.765
41549.267
34439.675
31186.993
23721.657
14855.405
10669.551
1082.1932
13675.172
-4721.7277
13111.412
-383.52515
4010.4498
2067.5221
4043.7028
1779.231
2351.2
2525.1588
1932.2337
1801.5245
2882.1371
1926.438
2346.9893
2506.8862
2098.8755
2119.2517
2397.4533
679.21802
4475.9521
4379.0865
-165240.1
-129844.97
-122951.44
-100676.22
-122599.02
-91460.439
-93667.233
-82904.481
-75515.695
-68301.918
-61154.481
-55972.467
-48841.619
-44163.266
-39038.657
-33967.29
-29881.247
-24897.629
-21159.657
-15912.281
-11197.159
-7959.6031
-768.7003
435227.07
356639.35
359526.82
-5258.4874
-5504.7407
-59797.011
-22034.336
-83594.312
-192117.85
-435181.45
-442949.76
-482667.73
-337118.06
-335792.26
-337215.02
-276147.11
-273652.22
-299279.46
-212977.51
-226346.45
-238122.76
-210458.1
-224271.67
-245592.41
-188818.92
-186886.43
-201029.52
-176024.53
-182440.05
-198204.82
-159481.17
-158227.33
-173793.78
-146514.72
-145127.51
-156278.41
-131501.32
-128939.68
-142940.07
-117437.95
-116010.55
-126855.63
-107434.25
-104827.56
-114138.56
-94615.458
-92192.655
-101442.58
-84809.995
-82384.825
-90122.485
-75479.793
-72802.098
-80598.758
-66449.14
-64376.484
-70267.607
-58591.392
-55737.109
-61867.67
-50482.04
-49013.492
-53829.261
-43371.892
-40993.141
-44934.203
-35648.626
-34149.748
-37784.291
-26572.053
-25569.303
-28366.631
-19850.633
-21200.505
-21900.191
-13169.796
-9702.5066
-12025.454
-17848.837
-18992.045
-19805.478
3049.4681
3066.5406
5257.1732
9489.3771
11217.567
9810.1463
343739.83
301286.37
304360.28
316574.09
286421.6
304056.32
325681.09
272951.27
272268.19
274905.73
242603.35
255960.15
265991.8
244773.38
234892.4
247280.07
208672.98
215799.37
221789.51
200585.07
204799.38
209303.81
183164.56
181104.61
190197.44
166551.19
170451.46
169490.88
152322.83
156256.06
157699.31
138218.27
139379.1
140878.74
124077.52
128079.69
126469.63
112757.79
115028.52
114019.82
101569.93
103550.87
101727.13
91057.921
93270.784
90252.204
81308.944
83037.613
79806.964
72207.049
74242.135
70279.36
63479.853
65226.848
59130.406
54434.437
56245.573
50989.602
44791.617
48759.545
41557.33
36981.138
39360.65
31316.506
30571.599
30101.468
27917.281
28615.99
30130.457
122056.87
169259.51
132785.05
148256.84
133203.08
129432.99
124731
107616.76
106574.89
93930.106
89580.527
79953.327
72462.037
66947.81
59281.671
54391.526
47646.253
42416.426
36559.076
29891.784
23501.049
15438.107
4799.0875
-56495.504
-12721.292
-10118.099
8473.8787
14587.181
12505.044
14694.37
19577.57
12738.933
18051.266
17029.14
16018.644
16512.357
14719.845
14893.725
14033.644
13079.267
13300.651
11436.339
11350.092
11214.994
8955.0516
6979.5743
-138457.19
-138272.81
-177629.7
-154830.85
-148077.87
-149273.68
-123230.33
-119588.57
-101232.88
-93104.233
-83240.797
-72721.403
-65553.37
-56091.46
-50174.729
-43017.493
-37048.131
-31566.879
-26779.15
-20634.516
-16558.176
-9600.0661
-8385.6365
233474.67
251234.67
199575.17
214112.77
206181.17
167215.29
154833
153415.89
161294.34
141986.63
169833.07
131545.55
158985.14
127944.81
126870.24
116044.87
130907.96
124067.63
119125.43
125872.25
107349.31
112808.58
106383.7
103241.55
94254.607
99606.333
98650.801
92538.978
95917.329
85081.448
81772.283
83681.143
80506.046
73072.149
77966.471
74030.036
68430.012
69893.605
67655.713
60878.791
63491.006
61754.397
55090.181
56623.443
55885.379
48854.687
51717.807
50282.735
44464.574
45573.374
45144.706
38100.082
40492.861
39307.031
32953.271
34259.547
34525.94
27374.234
31777.51
29439.856
20570.31
22597.301
21236.484
15862.024
14998.335
17460.505
5836.38
2703.9715
3353.2326
-11214.919
-45672.688
-53774.822
8354.8507
7144.429
-14299.743
25195.118
8666.1891
-13851.774
26786.117
4930.5173
-23380.569
19980.667
12978.828
3582.3264
19928.312
21063.72
-7771.6847
28817.941
16538.172
-3409.7666
14559.326
18118.901
635.20901
22764.191
21107.075
-579.72821
19947.017
17544.044
2223.0626
17012.188
17046.567
2237.4907
17642.013
18275.809
3790.2373
16351.584
16347.419
3584.5878
15161.985
15215.165
4378.4639
13407.71
14973.333
5101.3635
13310.899
14017.062
4516.7026
11901.261
12312.365
5145.3851
10345.944
11910.585
4189.2903
10603.555
9904.4932
5889.3685
9833.0833
9598.369
2879.4784
7697.9503
4294.7395
3598.4977
8839.8326
9060.8613
5465.337
8178.8587
8776.6715
8788.7135
-166970.53
-217062.27
-260643.23
-112467.31
-103147.58
-169861.93
-108585.07
-182189.62
-184701.97
-144926.91
-132939.14
-156559.48
-104460.68
-136917.96
-144713.83
-98536.166
-128014.17
-138222.7
-96971.004
-115478.26
-122846.02
-82128.273
-107065.14
-116410.42
-74350.992
-97190.203
-103130.71
-68982.413
-89267.606
-92108.412
-61097.558
-78194.407
-82665.209
-53630.533
-69883.944
-72632.629
-47531.849
-63993.084
-64896.606
-42601.303
-55339.414
-56165.492
-36362.423
-49428.457
-48919.968
-32304.753
-43051.65
-43296.19
-27663.743
-38080.009
-36411.76
-23863.695
-31818.61
-30853.976
-19307.819
-27604.96
-26214.583
-16174.917
-22467.378
-20034.841
-11940.448
-17846.092
-15176.497
-6213.8056
-8844.1491
-4455.4174
-1368.8602
-6888.8319
-5864.3894
)
;

boundaryField
{
    free
    {
        type            calculated;
    }
    fixed
    {
        type            calculated;
    }
    traction
    {
        type            calculated;
    }
}


// ************************************************************************* //
