/*--------------------------------*- C++ -*----------------------------------*\
  =========                 |
  \\      /  F ield         | OpenFOAM: The Open Source CFD Toolbox
   \\    /   O peration     | Website:  https://openfoam.org
    \\  /    A nd           | Version:  6
     \\/     M anipulation  |
\*---------------------------------------------------------------------------*/
FoamFile
{
    version     2.0;
    format      ascii;
    class       pointScalarField;
    location    "2";
    object      p;
}
// * * * * * * * * * * * * * * * * * * * * * * * * * * * * * * * * * * * * * //

dimensions      [1 -1 -2 0 0 0 0];

internalField   nonuniform List<scalar> 
625
(
182450.84
-612373.15
-1.6158915
1429.6642
705568
-491456.38
1706.9165
-421.24024
128064.14
-134859.53
-144817.43
-1220.8274
-240.1582
352.12565
78264.229
90489.228
99225.834
98458.734
100037.38
95489.655
97365.308
92583.266
94229.067
85508.44
83804.027
77539.801
72120.648
65130.679
58032.155
50332.936
41772.931
34337.333
25580.326
18321.456
11358.243
4909.0731
1411.2432
-184114.92
-151929.11
-175609.22
-147232.26
-140196.97
-134312.36
-120026.08
-109656.61
-102620.69
-90822.49
-80764.296
-72010.77
-62475.824
-53183.921
-44694.703
-36034.143
-28498.872
-21270.046
-14687.992
-9832.3435
-4862.9195
-1935.3487
18.88398
480105.02
178639.76
16177.317
-99014.919
-141168.02
-114394.22
-97689.847
-114634.28
-100323.92
-90921.853
-96761.331
-96151.44
-87459.707
-87365.699
-77800.898
-74552.188
-64700.28
-58553.231
-48707.447
-41215.264
-31859.149
-23898.572
-16144.994
-9387.0007
-4024.0238
43.371902
944.173
-385.97981
-738.51978
1272.2737
4442.5436
8512.337
14707.241
21649.002
30047.998
38156.887
48958.492
57870.117
69774.359
78955.289
92449.468
100292.93
108120.08
129977.53
133762.4
144934.22
153022.33
172446
169829.07
187871.31
194107.82
179703.61
234222.02
316855.78
302471.57
-542144.58
-440660.01
-426516.33
1233.3027
2178.9847
2495.8015
-1205.562
-748.84339
-524.73276
35159.698
43053.118
49567.773
52120.141
48073.537
55636.655
52947.081
54667.535
49797.593
52048.549
49751.43
47995.028
44047.524
40979.854
36134.476
31605.786
26348.802
21442.401
15931.387
11821.228
7177.2185
3848.6879
1531.3526
-60214.986
-58838.246
-51607.03
-40018.548
-39296.243
-30866.308
-27605.432
-21967.607
-17034.418
-12641.514
-10174.058
-6592.279
-3970.6855
-1289.0628
297.44193
1903.716
2716.9254
3405.3882
3157.1101
3178.0577
2379.7805
1978.5872
1218.9163
-138423.11
-123999.53
-114448.14
-104457.28
-102916.11
-88913.08
-83746.509
-74063.67
-67160.788
-58076.99
-51759.684
-42637.899
-36458.123
-29507.98
-23878.197
-18287.787
-13555.916
-9374.3869
-6213.2325
-2919.0818
-1622.6115
-467.96039
235.62896
143450.95
187426.91
208813.88
-69669.123
-10711.581
4023.1812
-92249.926
-74178.014
-36444.28
-238355.77
-201247.16
-188776.49
-208074.91
-163630.38
-143125.2
-158158.08
-128228.07
-126558.09
-148263.94
-123100.64
-111151.12
-139794.37
-116710.85
-112579.23
-129061.93
-109497.21
-103596.16
-122584.25
-107223.09
-103035.35
-114331.74
-96254.295
-96129.562
-104058.92
-92042.543
-91613.723
-94886.623
-84402.3
-86854.75
-85827.66
-79061.98
-80180.525
-76909.5
-70262.949
-73292.601
-66609.556
-63428.791
-65984.282
-57737.057
-54813.231
-58161.945
-48157.69
-47334.063
-50102.305
-39613.384
-38796.165
-41750.744
-30930.564
-31165.753
-33738.065
-23171.39
-23471.855
-25703.531
-16073.489
-16457.706
-18265.606
-10012.385
-10420.504
-11716.598
-4558.769
-4967.6917
-5880.2965
-1213.4169
-1868.3165
-2239.1018
600.52825
954.43564
377.80547
-1432.7417
-1186.3074
-1218.2268
-783.93052
-842.53704
-267.51815
1336.5879
1666.8179
2090.1342
143581.68
146347.82
176888.01
137144.46
138558.31
171954.56
135682.59
140059.74
172772.68
127980.04
127955.91
160409.05
121643.96
127383.47
148154.57
122830.31
116490.5
143091.18
116839.59
113925.17
134747.65
114032.18
105788.99
124746.45
102394.06
101840.1
114278.17
102448.86
94350.07
107750.3
94767.999
85734.569
96143.922
88158.373
78174.733
88421.669
79580.487
70189.062
78024.382
71241.616
62535.794
68469.239
62219.825
53646.292
58090.325
52654.284
45889.061
48879.2
43409.091
37345.396
39153.038
34085.828
29683.36
30394.994
24849.828
21919.162
21986.606
17001.162
14918.208
14999.309
9861.6998
8291.7246
8280.8706
4182.5946
3792.9632
3860.6283
1267.2596
897.98956
960.55149
148220.06
135246.29
111144.81
111302.12
107019.95
96442.463
91262.279
84557.869
72867.988
66957.639
63373.05
52230.422
46371.711
39096.918
33294.902
26982.193
21850.882
17002.424
12758.394
8833.4117
5911.4696
3367.9492
586.13749
54164.605
63325.438
36721.852
49805.23
42497.674
36329.293
34577.646
29886.113
23649.859
23097.292
17597.463
16042.565
12003.182
11160.834
7743.1846
7188.5423
5066.1302
4697.696
3143.3713
2985.1651
2207.0807
1433.6844
585.35213
4886.2798
2798.3798
-32700.888
-27754.446
-36517.242
-39441.166
-42179.856
-41636.649
-41192.156
-42438.339
-41148.715
-40129.349
-37740.042
-35537.065
-32125.643
-28360.027
-24057.786
-19724.354
-15209.35
-10823.931
-6961.071
-3314.954
-1825.8736
73993.726
125033.43
135096.57
66150.156
108255.78
121800.99
56411.71
82006.634
113197.16
49489.925
90439.259
94637.324
61256.432
74310.842
94551.456
50491.091
77937.37
91687.933
52137.619
71232.14
79243.924
48703.524
67293.724
75709.708
53055.84
62720.886
72999.267
46255.507
58818.998
62152.41
43880.534
53762.479
57215.888
40278.536
49442.863
51101.269
37388.78
44478.561
44679.486
33741.769
38460.041
38350.912
29483.457
33566.888
33044.271
25571.873
27962.057
26900.352
21209.324
22817.377
21732.372
17191.678
17608.366
16593.963
12705.536
12809.638
12287.613
9686.3529
9180.3173
8430.103
5446.7188
5589.9778
4775.2868
3744.5993
3283.1558
3174.0035
806.07466
295.38842
295.84177
-55935.851
-17948.868
20681.418
-35394.683
8093.0497
14252.52
-17002.215
130.45201
19415.869
-19862.913
4690.8933
8978.8227
-12269.333
4897.5822
20333.011
-10834.868
7924.5839
9801.0392
-7312.7013
5221.0389
10996.397
-4979.4438
10025.235
11198.557
-2088.7009
7708.9852
5992.6711
-533.5931
8228.598
7482.947
2063.137
8108.5503
5638.9784
3342.1981
9339.7397
4772.6241
5586.2526
8315.2946
3314.293
5411.0403
8714.6627
3403.1623
6638.7583
8210.2084
2556.6843
6277.9077
8158.2773
2211.2283
6585.0294
7216.6466
2096.9021
5662.7683
6941.2135
1769.3144
5413.1376
5499.2258
2072.4311
4543.3018
5202.896
1150.2923
3409.9873
2450.073
1403.6534
2126.2577
2638.1658
1108.1556
1353.6569
1366.7628
1283.9069
-109212.24
-84021.877
-68888.183
-89401.05
-59932.206
-56522.199
-84386.365
-93245.739
-59435.863
-95633.096
-67384.365
-53607.755
-78576.419
-74309.65
-57125.466
-76039.319
-70262.168
-55913.112
-71247.951
-65740.314
-51374.847
-64188.577
-61858.354
-57960.88
-57664.937
-61066.173
-50773.494
-54494.67
-53858.562
-50238.768
-47110.528
-49897.624
-47372.309
-42151.432
-45704.463
-45093.577
-36772.876
-40914.659
-40924.913
-31296.544
-36092.99
-37270.824
-26215.896
-31000.047
-32858.131
-21137.726
-26207.99
-28375.863
-16751.657
-21278.689
-23574.745
-12618.775
-16657.983
-18894.199
-8821.6801
-12170.032
-14342.963
-5756.9782
-8386.1398
-9882.9901
-3817.2349
-4947.9463
-6248.9445
-948.91652
-1453.0861
-1584.1218
-553.55359
-1436.1623
-2006.8976
)
;

boundaryField
{
    free
    {
        type            calculated;
    }
    fixed
    {
        type            calculated;
    }
    freeTop
    {
        type            calculated;
    }
}


// ************************************************************************* //
