/*--------------------------------*- C++ -*----------------------------------*\
  =========                 |
  \\      /  F ield         | OpenFOAM: The Open Source CFD Toolbox
   \\    /   O peration     | Website:  https://openfoam.org
    \\  /    A nd           | Version:  6
     \\/     M anipulation  |
\*---------------------------------------------------------------------------*/
FoamFile
{
    version     2.0;
    format      ascii;
    class       pointVectorField;
    location    "2";
    object      u;
}
// * * * * * * * * * * * * * * * * * * * * * * * * * * * * * * * * * * * * * //

dimensions      [0 1 0 0 0 0 0];

internalField   nonuniform List<vector> 
625
(
(0 3.9463539e-19 0)
(0 3.4567529e-19 0)
(0.76254929 0.023580662 -0.13595399)
(0.74605646 -0.15731163 -0.12875997)
(0 5.1407611e-19 0)
(0 2.7031913e-18 0)
(0.74334146 -0.13261386 -0.12918589)
(0.75981824 0.048173485 -0.13619805)
(0 -6.029547e-20 0)
(2.6231672e-19 -6.093153e-19 0)
(0 1.2364032e-18 0)
(0.75838897 -0.021701065 -0.13420407)
(0.75417811 -0.066796207 -0.13239446)
(0.75016068 -0.1119523 -0.13056006)
(-1.0279688e-05 0.0045446072 0.0052004234)
(0.004370375 0.0099258509 0.003891675)
(0.013497627 0.014798888 0.0010661846)
(0.026124765 0.020483063 -0.0032911067)
(0.042407244 0.024932902 -0.0080028725)
(0.061914263 0.030026393 -0.013978211)
(0.084738931 0.033913909 -0.019946941)
(0.11041917 0.038098717 -0.026733495)
(0.13918475 0.041184611 -0.033559929)
(0.17034057 0.044240989 -0.040945151)
(0.2041469 0.046400102 -0.048184881)
(0.24006955 0.048233035 -0.055633697)
(0.27810616 0.049233971 -0.063004976)
(0.31787852 0.049744241 -0.070345305)
(0.35921145 0.049503027 -0.077555005)
(0.40183776 0.048684068 -0.084630411)
(0.4455005 0.047185866 -0.091553668)
(0.48999752 0.045126315 -0.098302817)
(0.53505612 0.042494097 -0.10491727)
(0.58046008 0.039357841 -0.11134782)
(0.62611734 0.035817745 -0.11767317)
(0.67170158 0.031984476 -0.12385633)
(0.71722735 0.027793253 -0.12991262)
(0.00062490783 -0.0075440887 -0.0088006881)
(0.0064509193 -0.015944998 -0.0088846213)
(0.015187645 -0.025187349 -0.011772095)
(0.026510649 -0.033590673 -0.015170119)
(0.041782624 -0.041983565 -0.018965347)
(0.060214223 -0.05008714 -0.023709471)
(0.081405428 -0.057969304 -0.02890873)
(0.10581157 -0.065408981 -0.034379448)
(0.13299457 -0.072950981 -0.040277961)
(0.16284389 -0.08002831 -0.046291618)
(0.195095 -0.087027652 -0.052463487)
(0.22981413 -0.093804008 -0.05863364)
(0.26648562 -0.10038218 -0.064856283)
(0.30517326 -0.10669308 -0.070955778)
(0.34545437 -0.11283767 -0.077025964)
(0.38724705 -0.11869955 -0.082941097)
(0.43019473 -0.12434283 -0.088803067)
(0.47415563 -0.12971207 -0.094531566)
(0.51881301 -0.13486 -0.10021794)
(0.5640298 -0.13972821 -0.10584945)
(0.609508 -0.14439919 -0.1114828)
(0.65511039 -0.14885186 -0.11715235)
(0.70069302 -0.15312257 -0.12290986)
(0 3.6222855e-19 0)
(-4.6926016e-18 -1.0096899e-18 0)
(0 2.5327376e-18 0)
(-0.00057417727 -0.0021681899 0.0049693241)
(0.0034115655 -0.009594171 0.0043788895)
(0.012291206 -0.013255766 0.00097641022)
(0.024252589 -0.018447446 -0.0032994097)
(0.040003826 -0.024469408 -0.0075195507)
(0.058456748 -0.029516686 -0.013128477)
(0.080108262 -0.035428303 -0.018728898)
(0.10464085 -0.04147277 -0.025034905)
(0.13219118 -0.047911549 -0.031398092)
(0.16189599 -0.053833074 -0.038250743)
(0.19448701 -0.060686925 -0.045004133)
(0.22893199 -0.066816457 -0.052024961)
(0.26570955 -0.073631898 -0.058885894)
(0.30414921 -0.079849899 -0.0658561)
(0.34434424 -0.086386772 -0.072624349)
(0.38586969 -0.092440089 -0.079380789)
(0.42863245 -0.098508594 -0.085946113)
(0.47232868 -0.10416613 -0.09243029)
(0.51678121 -0.10962912 -0.098771076)
(0.56175107 -0.11473553 -0.10499818)
(0.6070584 -0.11957621 -0.1111453)
(0.65252057 -0.12412018 -0.11718421)
(0.69797516 -0.12842219 -0.1231791)
(0.74743791 -0.08728942 -0.13095775)
(0.75141856 -0.042173737 -0.13266184)
(0.7556678 0.0028771757 -0.13438503)
(0.71451529 0.052389207 -0.13037548)
(0.66898973 0.056571754 -0.12460208)
(0.62339084 0.060542067 -0.1188697)
(0.5778478 0.064241882 -0.11315175)
(0.5325115 0.067583459 -0.1073783)
(0.48760118 0.070484091 -0.10153123)
(0.4433104 0.072832736 -0.095547019)
(0.39989744 0.0746245 -0.089454689)
(0.35755468 0.075681699 -0.083169975)
(0.31658267 0.076103347 -0.076784187)
(0.27716104 0.075617448 -0.070189702)
(0.23955634 0.074515007 -0.063623606)
(0.20402658 0.072368302 -0.056842183)
(0.17056156 0.069612053 -0.050255445)
(0.14008317 0.065555572 -0.043444185)
(0.11159769 0.061270351 -0.037267591)
(0.086464337 0.055613745 -0.030976849)
(0.063826506 0.049597167 -0.025467376)
(0.045194048 0.042271315 -0.019998729)
(0.029027043 0.034594811 -0.015519201)
(0.01667084 0.026401988 -0.012026647)
(0.0083413673 0.017102412 -0.0085261273)
(0.0055035503 0.0081764247 -0.0047997666)
(0 -6.4427047e-19 0)
(0 -6.7015093e-19 -1.3822533e-18)
(0 -1.9752825e-18 0)
(0 1.1252734e-18 0)
(0 -1.2450934e-19 3.9700223e-19)
(0 8.5707338e-19 0)
(0.745371 -0.15120277 -0.12889441)
(0.74470692 -0.14503097 -0.1289854)
(0.74399432 -0.13882909 -0.12907236)
(0.76189598 0.029820997 -0.13599575)
(0.76124765 0.035968278 -0.13609466)
(0.76053571 0.042116769 -0.13613535)
(-0.0020857003 0.0019554455 0.002643317)
(0.0024189524 0.0035112873 0.0002832571)
(0.011228984 0.0049956343 -0.00248566)
(0.023702813 0.0069030681 -0.0064450439)
(0.039701275 0.0083046161 -0.011125446)
(0.059109059 0.0099507482 -0.01649146)
(0.081750828 0.010983053 -0.022375325)
(0.10715045 0.012129647 -0.02871837)
(0.13557088 0.012628664 -0.035361212)
(0.16664714 0.013088433 -0.042294527)
(0.20021197 0.012948389 -0.049254206)
(0.23596659 0.012555832 -0.056374039)
(0.27383537 0.011643357 -0.063434865)
(0.31346711 0.010399421 -0.0704645)
(0.35471772 0.0086611083 -0.077386201)
(0.39726755 0.006543199 -0.084182601)
(0.44093212 0.004006441 -0.090842676)
(0.48541855 0.0011057384 -0.097355137)
(0.53053277 -0.0021379335 -0.10371963)
(0.57601995 -0.0056838933 -0.10996906)
(0.62173574 -0.0094653993 -0.11612508)
(0.66741051 -0.013417053 -0.12215935)
(0.71306712 -0.017554119 -0.12817158)
(-0.0025229142 -0.0013604868 -0.001549458)
(0.0027394703 -0.0032153026 -0.003699502)
(0.011298605 -0.005023571 -0.0062508697)
(0.023454124 -0.0064085451 -0.0098683089)
(0.039388981 -0.0084461989 -0.014242015)
(0.058338268 -0.009834271 -0.019360023)
(0.080547612 -0.011847306 -0.024872554)
(0.10570276 -0.013454389 -0.030958894)
(0.13382447 -0.015681092 -0.037206905)
(0.16446936 -0.017648031 -0.043795027)
(0.19768421 -0.020124474 -0.050464032)
(0.23313369 -0.022546398 -0.057229283)
(0.27068344 -0.025351489 -0.063953631)
(0.31008149 -0.028265606 -0.070645335)
(0.35108181 -0.031471018 -0.077250497)
(0.39346498 -0.034824904 -0.08372742)
(0.43696581 -0.038408993 -0.090113571)
(0.48135136 -0.042152053 -0.096338866)
(0.52638863 -0.046041948 -0.10249583)
(0.57183036 -0.050071345 -0.10854564)
(0.61752652 -0.054174369 -0.1145203)
(0.66322818 -0.058353359 -0.12047713)
(0.70893302 -0.062587614 -0.12640965)
(-0.0022591374 -0.0045051892 -0.0041703762)
(0.0034592489 -0.0091538358 -0.00612372)
(0.011721913 -0.014275746 -0.0087096353)
(0.023852085 -0.019294418 -0.012298124)
(0.039431099 -0.024432224 -0.016546448)
(0.058033002 -0.02914692 -0.021372913)
(0.080051707 -0.03401592 -0.026796454)
(0.10480683 -0.03866584 -0.032554932)
(0.13255219 -0.043413488 -0.038635568)
(0.16281158 -0.047963431 -0.04498644)
(0.1957572 -0.052706408 -0.051361494)
(0.23081467 -0.057267161 -0.057872423)
(0.2681152 -0.0619898 -0.064320094)
(0.30716312 -0.066620717 -0.070763843)
(0.34794502 -0.071307839 -0.077087457)
(0.39006984 -0.075963047 -0.083330203)
(0.43339479 -0.080625994 -0.089442316)
(0.47762062 -0.085251154 -0.095458721)
(0.52252822 -0.089833756 -0.1013908)
(0.56791716 -0.094406015 -0.10722082)
(0.61352348 -0.098869292 -0.11307403)
(0.65921845 -0.10333677 -0.11885281)
(0.70482142 -0.10770885 -0.12470732)
(0 -4.0504536e-19 0)
(0 6.7486621e-19 1.4155601e-18)
(0 1.4669684e-18 0)
(-6.9719547e-19 1.3920977e-20 0)
(2.9120262e-19 -4.3147327e-19 -2.149036e-20)
(-1.8351556e-18 -1.6504229e-18 0)
(0 6.2193807e-19 0)
(0 1.6714741e-18 -4.4453854e-20)
(0 1.8370295e-18 0)
(0.0032280796 -0.0031052463 -0.0031363768)
(0.0031926295 -0.0032482176 4.4598135e-05)
(0.0019456255 -0.0018037028 0.0024029859)
(0.0095761791 -0.015092253 -0.0048646066)
(0.0084880081 -0.012873645 -0.0018415824)
(0.0071706162 -0.010505145 0.0019869961)
(0.016781238 -0.02176192 -0.0077740107)
(0.016649334 -0.018779325 -0.0044074888)
(0.015716756 -0.016820612 -0.0012167698)
(0.028648113 -0.029920543 -0.011250652)
(0.028834275 -0.026586156 -0.0082535934)
(0.027389211 -0.02269926 -0.0052279144)
(0.044012213 -0.037801052 -0.015507004)
(0.043773366 -0.033386671 -0.012613791)
(0.042820423 -0.029119224 -0.0097249639)
(0.061878432 -0.045094702 -0.020463961)
(0.062098272 -0.039940727 -0.017558989)
(0.061058229 -0.035000254 -0.015088137)
(0.083373009 -0.052458501 -0.025822536)
(0.083653154 -0.047313352 -0.023409328)
(0.082795906 -0.04161218 -0.020527994)
(0.10766349 -0.05972017 -0.031615717)
(0.10773265 -0.053527921 -0.029201483)
(0.1068842 -0.047813729 -0.026852616)
(0.13478453 -0.066919515 -0.037663651)
(0.13492739 -0.060881469 -0.035550678)
(0.13429875 -0.054616417 -0.033170345)
(0.1643471 -0.073777596 -0.044010591)
(0.16460308 -0.067302446 -0.041955995)
(0.16390522 -0.060885853 -0.039858651)
(0.19667935 -0.080819826 -0.050337829)
(0.19681953 -0.074308191 -0.04853781)
(0.19620955 -0.067627331 -0.046589287)
(0.23103481 -0.087391278 -0.056800275)
(0.23118153 -0.080658075 -0.055204835)
(0.23062029 -0.074036842 -0.053406639)
(0.26765431 -0.094051613 -0.063205074)
(0.2677479 -0.087436893 -0.061770247)
(0.26718589 -0.080635049 -0.060198204)
(0.30605173 -0.10035835 -0.069563583)
(0.30608093 -0.093612685 -0.068368038)
(0.30553965 -0.086961649 -0.066966957)
(0.34617737 -0.10658025 -0.075837657)
(0.34613377 -0.099989453 -0.074800436)
(0.34558623 -0.093273049 -0.073618953)
(0.38770284 -0.11249839 -0.081984022)
(0.38757983 -0.10586577 -0.081167448)
(0.38702246 -0.099306712 -0.080177964)
(0.43046279 -0.11820409 -0.088045171)
(0.43024328 -0.11172257 -0.087388174)
(0.42967164 -0.10517615 -0.086604935)
(0.47417648 -0.12364119 -0.09396593)
(0.47387916 -0.117167 -0.093503432)
(0.47328725 -0.11075471 -0.09290724)
(0.51866416 -0.12880812 -0.099839408)
(0.51826768 -0.12245351 -0.099520754)
(0.51765383 -0.11607214 -0.099102692)
(0.56366786 -0.13371142 -0.10561265)
(0.56319398 -0.12736488 -0.10543757)
(0.56256023 -0.12108637 -0.10518553)
(0.60899983 -0.13834851 -0.1113802)
(0.60845425 -0.13210685 -0.11134073)
(0.60780457 -0.12585194 -0.11121102)
(0.65450068 -0.14279653 -0.11716367)
(0.65390056 -0.13655422 -0.11719008)
(0.65323939 -0.13034249 -0.11715866)
(0.6999976 -0.14702255 -0.12298532)
(0.69934737 -0.14082602 -0.12305994)
(0.69867395 -0.13462139 -0.12309665)
(0.75774559 -0.015488041 -0.1342307)
(0.75709796 -0.0093341821 -0.13429387)
(0.75637605 -0.0031833501 -0.13433361)
(0.75351261 -0.060606183 -0.13243652)
(0.75285557 -0.054458885 -0.13252948)
(0.75213926 -0.048277097 -0.1325937)
(0.74948299 -0.10586446 -0.1306548)
(0.74883957 -0.099698477 -0.13077777)
(0.74812153 -0.093508742 -0.13085272)
(0.0034746333 0.0044844818 0.003030954)
(0.0048117199 0.005771293 0.0011688006)
(0.0059398191 0.0064522487 -0.0010747739)
(0.0081150866 0.01111253 0.0014013855)
(0.0093534291 0.013548728 -0.0015968445)
(0.0099436285 0.01448886 -0.0050841834)
(0.016973301 0.018196579 -0.0014404011)
(0.01831843 0.020432284 -0.0042772253)
(0.018948966 0.023073055 -0.0083868069)
(0.029411351 0.023777351 -0.0058383623)
(0.030459595 0.027676424 -0.0085752052)
(0.030968506 0.030438916 -0.012214857)
(0.045356056 0.029743754 -0.010492531)
(0.046691745 0.033661114 -0.013511776)
(0.046849601 0.037648302 -0.016718418)
(0.064834351 0.034973873 -0.016450666)
(0.065549036 0.039884716 -0.018831749)
(0.065937941 0.044141657 -0.022423458)
(0.087397958 0.039467074 -0.022397347)
(0.088288973 0.044599985 -0.025000924)
(0.08832725 0.04973941 -0.028122883)
(0.11295148 0.043796389 -0.029145744)
(0.1134557 0.049664905 -0.031495433)
(0.11353375 0.054919831 -0.034627042)
(0.14116507 0.047626129 -0.035832358)
(0.14194253 0.053345972 -0.038394619)
(0.14170698 0.059285491 -0.040933165)
(0.17239081 0.050659213 -0.043191596)
(0.17266327 0.056893793 -0.045121995)
(0.17255775 0.062797814 -0.048013012)
(0.20587743 0.052975756 -0.050300429)
(0.20610719 0.05925731 -0.052369203)
(0.20579315 0.06554843 -0.054798439)
(0.24157995 0.054843492 -0.057637891)
(0.24166203 0.061317365 -0.059467033)
(0.24132448 0.067640294 -0.061755493)
(0.27935479 0.055942335 -0.06485377)
(0.27930235 0.062387941 -0.066563336)
(0.27886085 0.068837626 -0.068569803)
(0.31885487 0.05638802 -0.072023265)
(0.31871976 0.062891602 -0.073526128)
(0.31820018 0.069325342 -0.07533964)
(0.35995722 0.056149015 -0.07906311)
(0.35967307 0.062584153 -0.080397328)
(0.35909952 0.069047427 -0.081958972)
(0.40230658 0.055239007 -0.085935027)
(0.40197116 0.061660194 -0.087078244)
(0.40133111 0.068087287 -0.088416976)
(0.44576684 0.053704733 -0.092665554)
(0.44531413 0.060046068 -0.093627847)
(0.4446447 0.066428413 -0.094722352)
(0.49001324 0.05155128 -0.099216077)
(0.48952069 0.057842323 -0.099983854)
(0.48880587 0.064188938 -0.1008659)
(0.53488084 0.048871238 -0.10560363)
(0.53432329 0.055104844 -0.10621576)
(0.53359957 0.061392186 -0.10688742)
(0.58012862 0.045672672 -0.11183595)
(0.57955818 0.051869831 -0.11232674)
(0.57881012 0.05812034 -0.11279265)
(0.62560964 0.042094371 -0.1180188)
(0.62498466 0.04825787 -0.11832487)
(0.62424135 0.054466978 -0.11863502)
(0.67111536 0.038182308 -0.12406601)
(0.67045757 0.044351707 -0.12426351)
(0.66974235 0.0505189 -0.12445098)
(0.71660092 0.034025934 -0.13002676)
(0.71593224 0.040180436 -0.13015423)
(0.71522949 0.046323585 -0.13027494)
(0.00046039511 0.0031465388 -0.0042717715)
(0.0052107961 0.012520163 -0.0068421926)
(0.013136821 0.016548794 -0.0091892582)
(0.025600796 0.021814709 -0.013023692)
(0.041463352 0.02635072 -0.01764573)
(0.060414511 0.030195515 -0.022653968)
(0.082768879 0.033271781 -0.028286711)
(0.10788386 0.03599502 -0.034419244)
(0.13612183 0.03767979 -0.040727442)
(0.16673181 0.03897228 -0.047226342)
(0.19993432 0.039422746 -0.053996381)
(0.23538464 0.039284737 -0.060629381)
(0.27288003 0.038446365 -0.067321813)
(0.31221775 0.037087331 -0.073910775)
(0.35313383 0.035135938 -0.080420931)
(0.39542309 0.032682087 -0.08676573)
(0.43882891 0.029813542 -0.093011626)
(0.48311734 0.026555251 -0.09911248)
(0.52805764 0.022998632 -0.10511073)
(0.5734444 0.019203487 -0.11102369)
(0.61905591 0.015245558 -0.11687901)
(0.66471502 0.011155531 -0.12273059)
(0.71035374 0.0070409844 -0.12853696)
(-0.002272278 0.0017974 -0.00097541565)
(0.0026795349 0.0060275284 -0.0036787495)
(0.01139606 0.0062538633 -0.0058887595)
(0.023856765 0.0089237431 -0.010165473)
(0.039602631 0.0096528209 -0.014453039)
(0.058473358 0.010550443 -0.019705785)
(0.080757576 0.010505299 -0.025224043)
(0.10576042 0.01060598 -0.031515617)
(0.13382247 0.0093230861 -0.037616113)
(0.16422132 0.0084723377 -0.044474953)
(0.19736432 0.0063406657 -0.05098012)
(0.23255206 0.0043526255 -0.057888895)
(0.26992757 0.0014319685 -0.064544151)
(0.30906907 -0.0014293483 -0.071324083)
(0.34982499 -0.0049870253 -0.077852573)
(0.39195867 -0.008573601 -0.084372036)
(0.4352217 -0.012540766 -0.090700347)
(0.47937834 -0.01660225 -0.096930471)
(0.52422056 -0.020812068 -0.10303413)
(0.56949251 -0.025088127 -0.10904631)
(0.61503502 -0.029378549 -0.11499094)
(0.66062268 -0.033668579 -0.12088816)
(0.70626826 -0.037949727 -0.126772)
(-0.0033719173 -0.0011057985 0.00093172552)
(0.0023441365 -0.00050670258 -0.00068594111)
(0.010935296 -0.0030645565 -0.0025948972)
(0.023112418 -0.0037678376 -0.0069537756)
(0.038812377 -0.0063990092 -0.011126967)
(0.057601464 -0.0085468121 -0.016371005)
(0.079695908 -0.011583315 -0.022067378)
(0.10438253 -0.014524229 -0.028100454)
(0.13227584 -0.018130741 -0.034569182)
(0.16244724 -0.02190169 -0.041162959)
(0.19532286 -0.026067909 -0.047924337)
(0.23022021 -0.030446857 -0.054777331)
(0.26737208 -0.03506645 -0.061584943)
(0.30620823 -0.039867558 -0.068383056)
(0.34677145 -0.044789103 -0.075078321)
(0.38866076 -0.049786461 -0.081685227)
(0.43173768 -0.054791348 -0.088162216)
(0.4757299 -0.059785584 -0.094518881)
(0.52042267 -0.06468144 -0.10076998)
(0.56559565 -0.069495217 -0.10691214)
(0.61105387 -0.074139324 -0.11297334)
(0.65660915 -0.07870436 -0.11901163)
(0.70212679 -0.083075429 -0.12492866)
(0.00031800777 0.0015153725 0.001454097)
(0.00076427019 0.001984885 0.00023812506)
(0.0017831181 0.0025981942 -0.0012528125)
(0.0056295297 0.0054023207 -0.00093897176)
(0.0066874984 0.0073649108 -0.0023640189)
(0.0068717629 0.008583342 -0.0047983601)
(0.014490894 0.0079559954 -0.0037185042)
(0.015302911 0.010365971 -0.0055502702)
(0.015556837 0.01345483 -0.0071668045)
(0.026687603 0.010678247 -0.0078324087)
(0.027672243 0.01439383 -0.0094149081)
(0.027688687 0.017430592 -0.011204284)
(0.04276983 0.012977755 -0.012509375)
(0.043580676 0.01701468 -0.013984764)
(0.043602745 0.021268454 -0.015769276)
(0.061817146 0.014977124 -0.017913209)
(0.062528948 0.020011891 -0.01936421)
(0.062513108 0.024585542 -0.021062424)
(0.084284291 0.016750707 -0.02374328)
(0.085008603 0.021938448 -0.025242471)
(0.084812867 0.027256739 -0.026710231)
(0.10947146 0.018133749 -0.030170633)
(0.1100157 0.023925926 -0.031445681)
(0.10986236 0.029514803 -0.032968146)
(0.13777078 0.019028558 -0.036704468)
(0.1382715 0.024982948 -0.038003551)
(0.13800732 0.03108034 -0.039454222)
(0.16855797 0.019550293 -0.043653565)
(0.16891652 0.025942653 -0.044821719)
(0.16859565 0.031988804 -0.04609347)
(0.20188695 0.019661463 -0.05051921)
(0.20213731 0.025985107 -0.051683348)
(0.20175034 0.032507949 -0.052866958)
(0.2373724 0.019287319 -0.057622822)
(0.23754686 0.025843265 -0.058641985)
(0.23710617 0.032304254 -0.059742197)
(0.27501893 0.018440998 -0.064563827)
(0.27505347 0.024943207 -0.065512034)
(0.27455197 0.031562343 -0.066479697)
(0.31438291 0.017138451 -0.071539103)
(0.31434256 0.023679584 -0.072363731)
(0.31377703 0.030227072 -0.073224077)
(0.35540796 0.015360461 -0.078326452)
(0.35522947 0.021857326 -0.079051695)
(0.3546296 0.028438253 -0.079807772)
(0.39770211 0.013167352 -0.085030361)
(0.39745679 0.019610024 -0.085644176)
(0.39680177 0.026100622 -0.086280634)
(0.4411552 0.010544049 -0.091558244)
(0.44079264 0.016926272 -0.092068153)
(0.44011617 0.023376773 -0.09259644)
(0.48541775 0.0075603219 -0.097960635)
(0.48499858 0.013865756 -0.098357694)
(0.48428645 0.020248399 -0.098787404)
(0.53035221 0.0042362357 -0.10419492)
(0.52984154 0.010482515 -0.10451771)
(0.52912976 0.016805714 -0.10485051)
(0.57565645 0.00062675535 -0.11034853)
(0.57514934 0.0068241 -0.11057414)
(0.57438962 0.013095457 -0.110827)
(0.62121479 -0.0032197994 -0.11639508)
(0.62066671 0.0029895368 -0.11652545)
(0.61991507 0.009193391 -0.11672891)
(0.66683801 -0.0072270669 -0.12235121)
(0.66619856 -0.0010546208 -0.12247654)
(0.66547297 0.0051152117 -0.12261776)
(0.71242754 -0.011321252 -0.12827918)
(0.71176782 -0.0051838926 -0.12837787)
(0.71106863 0.00098798773 -0.12845707)
(-0.0010036697 -0.00015358679 -0.00064009513)
(-0.00033761309 0.00048189301 -0.0002533791)
(0.00011190395 0.0011346609 -9.2521073e-05)
(0.0051085052 -0.0012038734 -0.0032491706)
(0.005681758 0.00098424691 -0.0027923515)
(0.0052047787 0.0024278245 -0.0031858168)
(0.013747359 -0.0017891734 -0.0058287074)
(0.014399205 0.00056870517 -0.0053165324)
(0.014036189 0.0036306456 -0.00559225)
(0.025955716 -0.0028859056 -0.0097296746)
(0.026788836 0.00098285757 -0.0093361923)
(0.02618633 0.0041802773 -0.0095182761)
(0.041671493 -0.0037162656 -0.014101231)
(0.042484058 0.00025850339 -0.013617616)
(0.041940291 0.0047502454 -0.014073657)
(0.06058235 -0.0048529937 -0.019340051)
(0.061281404 0.00014819317 -0.019043193)
(0.060688761 0.0049282167 -0.019346162)
(0.082696516 -0.0061534043 -0.02493621)
(0.083424025 -0.001072 -0.024580305)
(0.082813963 0.0044806355 -0.024891782)
(0.10773326 -0.0076305899 -0.031089744)
(0.10826214 -0.0016999133 -0.030793216)
(0.10770376 0.0040027668 -0.031239491)
(0.13563139 -0.0093237355 -0.037398828)
(0.13625306 -0.0035200239 -0.037192386)
(0.13563267 0.0027203522 -0.03747821)
(0.16616621 -0.0112539 -0.044038378)
(0.16655936 -0.0049431441 -0.043875538)
(0.16596374 0.0014220905 -0.044189994)
(0.19919002 -0.013483635 -0.050756063)
(0.19958825 -0.0072247644 -0.050563824)
(0.19894357 -0.00061083924 -0.050919635)
(0.23447669 -0.015947124 -0.05753686)
(0.23470075 -0.0093840234 -0.057404504)
(0.23407329 -0.0028198981 -0.057743114)
(0.27180201 -0.018670783 -0.064288943)
(0.27198717 -0.012273186 -0.064184134)
(0.27130826 -0.005551806 -0.064501085)
(0.31100137 -0.021671309 -0.070978617)
(0.31103659 -0.015106583 -0.07090376)
(0.31035812 -0.0084863273 -0.071224635)
(0.35177229 -0.024884863 -0.077585337)
(0.35172485 -0.018472854 -0.077532473)
(0.35102071 -0.011824612 -0.077832009)
(0.39394474 -0.028339624 -0.084044548)
(0.39377642 -0.021898076 -0.084022591)
(0.39305846 -0.01537187 -0.084305241)
(0.4372286 -0.031988728 -0.090410959)
(0.43696027 -0.025659524 -0.090405358)
(0.43623599 -0.019163378 -0.090667014)
(0.48140931 -0.035807689 -0.096609648)
(0.48104596 -0.029511792 -0.096621307)
(0.48031395 -0.023114166 -0.096871152)
(0.5262669 -0.039771163 -0.10273107)
(0.52581178 -0.033536634 -0.1027747)
(0.52507918 -0.027207903 -0.10298275)
(0.57154982 -0.0438178 -0.10875168)
(0.57100805 -0.037675974 -0.10878023)
(0.57028994 -0.031378274 -0.1089773)
(0.61712914 -0.047987034 -0.11466597)
(0.61642796 -0.041825011 -0.1147725)
(0.61578517 -0.035614723 -0.1149191)
(0.66267533 -0.052192369 -0.1206162)
(0.66205255 -0.046017416 -0.12067498)
(0.66133744 -0.039840209 -0.12082236)
(0.70829945 -0.056408165 -0.12651701)
(0.70764323 -0.050258024 -0.12659058)
(0.7069425 -0.044077011 -0.12668963)
(-0.00031856253 -0.0022854636 -0.0015247183)
(-0.00071277063 -0.0016130525 -0.00017441523)
(-0.00092337606 -0.0010267149 0.00085940208)
(0.0061300738 -0.0068645138 -0.0039027377)
(0.0063191686 -0.0045755264 -0.0021238192)
(0.0051600514 -0.0030851836 -0.001070649)
(0.014174837 -0.011212909 -0.0064540502)
(0.014466217 -0.0089045491 -0.0049869033)
(0.013507425 -0.0059307441 -0.0034666195)
(0.026445256 -0.015672459 -0.010267118)
(0.026491888 -0.011796748 -0.0086477758)
(0.025900783 -0.0083301248 -0.0074968003)
(0.041795942 -0.019814151 -0.014577017)
(0.042165879 -0.015751142 -0.013232525)
(0.041373409 -0.011414977 -0.012037352)
(0.060439103 -0.024189676 -0.019683702)
(0.060605672 -0.019371306 -0.018273829)
(0.059932861 -0.014308778 -0.017208764)
(0.082268204 -0.028550924 -0.025213)
(0.082591702 -0.023137601 -0.023875847)
(0.081938322 -0.017620024 -0.022990277)
(0.10695903 -0.032803989 -0.031164864)
(0.10704491 -0.027085958 -0.030051223)
(0.10659651 -0.021255065 -0.028982)
(0.13453606 -0.0372753 -0.037391247)
(0.13482472 -0.031269162 -0.036257778)
(0.13422238 -0.024908229 -0.035417109)
(0.16471684 -0.04172883 -0.043903639)
(0.16474791 -0.03539332 -0.042895662)
(0.16434201 -0.028980726 -0.04205733)
(0.19740869 -0.046298582 -0.050410633)
(0.1975699 -0.039872391 -0.049491605)
(0.1970602 -0.033217083 -0.048758743)
(0.23232524 -0.050853272 -0.057081554)
(0.23227434 -0.044353398 -0.056284486)
(0.23189221 -0.037647809 -0.055588281)
(0.26937366 -0.055567873 -0.063652054)
(0.26936937 -0.049008343 -0.062930741)
(0.26889276 -0.042232896 -0.062347747)
(0.3082349 -0.060243542 -0.07022905)
(0.30805375 -0.053697069 -0.069622729)
(0.30766205 -0.046966803 -0.069096416)
(0.34875327 -0.064994685 -0.076660877)
(0.34857876 -0.058479405 -0.076145807)
(0.34809406 -0.051781998 -0.075717237)
(0.39066654 -0.069730949 -0.08301399)
(0.39034153 -0.06327295 -0.082600281)
(0.38990085 -0.056652314 -0.082242439)
(0.43373746 -0.074469929 -0.089217297)
(0.43338884 -0.068070244 -0.088895291)
(0.43287056 -0.061520984 -0.088633065)
(0.47774585 -0.07915583 -0.095321201)
(0.47728041 -0.072821116 -0.0950924)
(0.47677599 -0.066362512 -0.094894097)
(0.52244091 -0.083804367 -0.10131355)
(0.52194764 -0.077531391 -0.10115955)
(0.5213785 -0.071149008 -0.10105107)
(0.56763163 -0.088383759 -0.10721774)
(0.5670485 -0.082149911 -0.10715407)
(0.56646824 -0.075826369 -0.1070946)
(0.61308082 -0.092871275 -0.11310091)
(0.6124595 -0.086667484 -0.11305991)
(0.61186623 -0.080397271 -0.1130748)
(0.65864748 -0.097294552 -0.11891531)
(0.65801989 -0.091115904 -0.11895203)
(0.65737841 -0.084889042 -0.11901082)
(0.70416809 -0.10162139 -0.124783)
(0.70348616 -0.095459295 -0.12484361)
(0.70282485 -0.089253564 -0.12490757)
)
;

boundaryField
{
    free
    {
        type            calculated;
    }
    fixed
    {
        type            calculated;
    }
    freeTop
    {
        type            calculated;
    }
}


// ************************************************************************* //
