/*--------------------------------*- C++ -*----------------------------------*\
  =========                 |
  \\      /  F ield         | OpenFOAM: The Open Source CFD Toolbox
   \\    /   O peration     | Website:  https://openfoam.org
    \\  /    A nd           | Version:  6
     \\/     M anipulation  |
\*---------------------------------------------------------------------------*/
FoamFile
{
    version     2.0;
    format      ascii;
    class       pointVectorField;
    location    "0.14";
    object      lm;
}
// * * * * * * * * * * * * * * * * * * * * * * * * * * * * * * * * * * * * * //

dimensions      [1 -2 -1 0 0 0 0];

internalField   nonuniform List<vector> 
3969
(
(0 0 0)
(0 0 0)
(3024.115 192.14996 7.5863693)
(2936.2331 -617.13717 9.7649899)
(0 0 0)
(0 0 0)
(2942.0617 -629.3808 5.2788269)
(3030.8573 191.41182 9.922573)
(0 0 0)
(0 0 0)
(0 0 0)
(0 0 0)
(0 0 0)
(0 0 0)
(0 0 0)
(3012.4093 90.242155 7.7453727)
(3001.4946 -10.909988 8.3021044)
(2990.6749 -111.47008 9.0688767)
(2979.9814 -211.83235 10.145387)
(2969.4746 -312.32779 11.096917)
(2958.8011 -413.24437 11.436552)
(2947.8877 -515.14762 10.933962)
(11.856134 12.890953 9.594483)
(19.294477 23.393508 11.825419)
(30.991989 33.423093 11.454346)
(47.08936 44.408579 10.92313)
(68.546364 53.485949 7.6494697)
(95.573969 60.936085 3.4123257)
(127.38921 65.117388 -3.2013545)
(161.53549 65.860792 -9.9847634)
(195.38563 62.937488 -16.748844)
(226.00804 57.222796 -21.357597)
(250.42948 49.236265 -23.291048)
(268.18271 41.126305 -21.903954)
(279.05477 34.167941 -18.383359)
(284.16591 30.095765 -12.6175)
(286.11818 30.120697 -5.7398716)
(286.25653 34.657356 1.4860226)
(286.61298 44.435318 9.4183565)
(288.68544 59.678459 18.222897)
(294.04385 80.371139 28.210507)
(304.55397 106.34409 39.33892)
(322.62451 137.13542 51.05987)
(351.00274 171.86006 62.244699)
(392.66184 209.0926 71.384474)
(450.1088 246.994 77.041884)
(524.80019 283.33459 77.991757)
(616.7607 316.10216 73.879081)
(724.27785 343.05443 65.049716)
(844.44967 362.8945 52.469085)
(972.94435 374.86191 37.705024)
(1105.0866 379.17124 22.814301)
(1236.5039 376.67022 9.4732409)
(1363.6432 368.8573 -0.82184578)
(1484.2193 357.41933 -7.3044141)
(1597.4581 344.18941 -9.8902613)
(1704.0231 330.55518 -9.1123478)
(1805.2804 317.57808 -6.03189)
(1903.6293 306.11089 -1.8880182)
(2000.9446 295.40807 2.2992424)
(2099.1357 286.40303 5.3468822)
(2198.8116 277.19653 7.4238944)
(2300.7326 268.646 8.0351741)
(2403.9532 259.34575 8.0302649)
(2508.3468 249.47207 7.2686242)
(2612.7347 239.03385 7.0423921)
(2716.5115 227.7163 6.788749)
(2819.5767 216.19104 7.0566411)
(2922.0821 204.30214 7.6253047)
(5.9576059 -11.451928 -13.843683)
(14.989079 -19.458181 -16.151511)
(29.818629 -30.337078 -13.601704)
(45.185467 -39.457203 -14.673573)
(67.858221 -47.845302 -11.713027)
(95.930961 -55.460015 -8.3111186)
(127.06113 -59.757777 -4.2803971)
(160.44642 -60.729152 0.16892276)
(192.68122 -58.161558 3.1215045)
(221.74966 -52.343294 4.5489351)
(245.37029 -44.959327 3.7539826)
(262.50035 -36.93096 -0.1312935)
(273.63534 -29.721482 -5.9495014)
(279.54024 -24.964605 -13.387523)
(281.89278 -23.931368 -22.031367)
(281.96768 -27.162183 -31.22576)
(281.85932 -35.352892 -40.712895)
(282.96798 -48.784388 -50.29918)
(287.27763 -67.728448 -59.732737)
(296.57654 -92.206005 -68.749759)
(313.28746 -122.4824 -76.734847)
(339.9253 -157.5477 -83.004555)
(379.16335 -197.3739 -86.377789)
(433.42137 -240.10046 -86.209166)
(503.46946 -283.84397 -82.073311)
(589.73947 -326.74689 -73.869068)
(690.75438 -366.72542 -62.305394)
(804.50211 -401.84406 -48.489863)
(926.44038 -430.69344 -33.79441)
(1052.4972 -452.94148 -19.605989)
(1178.6251 -468.88238 -7.4537739)
(1301.3966 -479.38048 1.7740886)
(1418.7476 -485.85686 7.5888088)
(1529.7282 -490.03126 10.148124)
(1634.751 -493.40633 10.075092)
(1734.9645 -497.39954 8.1360805)
(1832.156 -502.87035 5.4750735)
(1928.0008 -510.11384 2.5726991)
(2024.2352 -519.15056 0.43581267)
(2121.6915 -529.49799 -0.81061199)
(2220.9563 -540.76448 -0.98085072)
(2321.9274 -552.28871 -0.24821492)
(2424.2473 -563.6669 1.2416922)
(2527.263 -574.74845 3.1011667)
(2630.2476 -585.28438 5.017024)
(2732.8641 -595.65921 6.7979013)
(2834.7993 -605.94816 8.3284249)
(0 0 0)
(0 0 0)
(0 0 0)
(0 0 0)
(0 0 0)
(0 0 0)
(0 0 0)
(10.767008 -8.5660723 11.04028)
(18.873395 -24.369314 13.53789)
(32.756628 -31.518799 10.521403)
(51.511718 -41.079786 10.337275)
(73.788108 -48.996365 6.3960086)
(101.8614 -56.396301 2.7405812)
(131.94604 -58.282912 -2.1004549)
(164.261 -60.571163 -7.7068455)
(195.41852 -56.136058 -12.430187)
(223.10859 -51.408439 -16.468245)
(247.69728 -44.853922 -19.359196)
(265.10025 -37.422015 -18.76757)
(276.45122 -32.48064 -16.126871)
(282.39296 -29.040364 -11.137845)
(284.58401 -29.48589 -4.7658775)
(284.62359 -34.230097 2.8571)
(284.16421 -43.973342 11.591705)
(284.925 -58.956247 21.208613)
(288.61095 -79.507759 31.810851)
(297.31164 -105.5395 42.948809)
(313.47915 -136.77181 53.943391)
(339.87023 -172.6333 63.670898)
(379.25259 -212.13581 70.78227)
(433.91925 -253.92762 74.038176)
(505.70582 -296.72516 72.225889)
(593.99299 -337.86156 66.000857)
(694.96227 -376.47417 56.651756)
(807.84267 -409.95967 44.345508)
(928.66027 -437.57574 30.693659)
(1053.4822 -459.02241 17.214828)
(1178.3043 -474.5331 5.5117473)
(1300.0455 -485.05675 -3.3181406)
(1416.6883 -491.81485 -8.8013937)
(1527.4689 -496.33061 -10.959668)
(1632.6493 -500.08052 -10.435607)
(1733.2478 -503.78382 -8.0129118)
(1831.5967 -509.6809 -5.0918878)
(1928.5135 -516.36485 -1.8827702)
(2025.748 -525.30729 0.43867049)
(2124.3876 -535.61629 1.8313948)
(2224.5366 -547.06093 2.2882151)
(2326.2481 -559.07587 2.1288186)
(2428.8618 -571.23792 1.8294869)
(2531.8991 -583.27087 1.744814)
(2634.8166 -594.95447 2.1237107)
(2737.429 -606.41931 3.0368791)
(2839.5282 -617.58325 4.1324346)
(2953.9404 -526.59334 4.9661169)
(2964.5227 -423.11688 4.8291425)
(2975.4694 -320.17558 4.6083023)
(2985.8082 -217.31461 4.9696219)
(2996.5339 -115.11876 5.7091608)
(3007.6166 -13.048096 6.9231868)
(3019.0464 88.909932 8.3635947)
(2928.4047 203.12621 9.6996466)
(2825.0622 214.78334 9.3645318)
(2721.2932 225.7008 8.3823287)
(2616.947 236.50581 7.1649478)
(2512.5295 246.56738 5.8747596)
(2408.3752 256.05729 4.6351573)
(2305.2533 264.81498 3.8953307)
(2203.5602 273.29625 3.8105405)
(2103.4462 281.8457 4.5169535)
(2004.5895 291.12093 5.8516756)
(1906.2432 301.70706 7.7824878)
(1806.2014 313.45431 9.5697154)
(1704.098 326.65734 10.697678)
(1597.0605 340.26006 10.404408)
(1484.3329 353.17899 8.027921)
(1365.3138 363.7841 3.0777624)
(1240.6068 370.31467 -4.5964265)
(1112.1265 371.07294 -14.808253)
(982.84361 364.74661 -26.789394)
(856.69805 350.72532 -39.617516)
(737.87059 329.12542 -51.96639)
(630.40305 300.85623 -62.571045)
(537.11203 267.74064 -70.556503)
(460.04081 231.53547 -75.237294)
(399.51661 194.72302 -76.43203)
(354.53244 159.19105 -74.440586)
(323.18429 126.58914 -69.887708)
(302.96785 98.115769 -63.430649)
(291.25464 74.471274 -55.793969)
(285.74987 55.962167 -47.347707)
(284.0001 42.718567 -38.474194)
(284.34151 34.266605 -29.54177)
(284.5234 30.568258 -20.851077)
(281.61109 32.173398 -12.731446)
(275.90812 37.212244 -4.9050797)
(265.09632 42.64579 0.56780479)
(246.69079 49.770536 4.2670036)
(222.86384 56.240545 5.5429877)
(193.43588 60.129353 4.4071136)
(160.99976 63.006195 1.3754253)
(128.26484 60.899751 -2.2499739)
(96.586374 56.09234 -6.6397018)
(70.062623 49.296671 -10.125221)
(46.539844 41.516977 -13.480305)
(29.707056 31.803659 -14.132372)
(18.172448 21.973083 -13.384818)
(12.661032 13.157257 -10.218984)
(0 0 0)
(0 0 0)
(0 0 0)
(0 0 0)
(0 0 0)
(0 0 0)
(0 0 0)
(0 0 0)
(0 0 0)
(0 0 0)
(0 0 0)
(0 0 0)
(0 0 0)
(0 0 0)
(2936.881 -618.89377 9.2752122)
(2937.8324 -620.81672 8.5628784)
(2939.0785 -622.97538 7.6713415)
(2940.3606 -624.97002 6.778484)
(2941.3328 -626.55523 6.0485796)
(2941.9989 -627.61094 5.5824277)
(2942.052 -628.49866 5.2712082)
(3023.7534 191.781 7.7056606)
(3023.3742 191.362 8.0528826)
(3023.5761 191.17526 8.4503927)
(3024.4909 191.22121 8.8290612)
(3025.965 191.49048 9.231499)
(3027.8201 191.73668 9.6251638)
(3029.6535 191.6604 9.9515021)
(7.0854612 8.3610854 8.8416742)
(14.7173 14.781176 8.3849579)
(27.153844 20.580342 8.4372247)
(43.40655 25.551365 6.8399132)
(66.332739 29.791225 4.5234152)
(93.859313 32.544181 1.4305105)
(126.80933 34.242105 -2.787769)
(161.71413 34.998926 -7.4989464)
(196.26601 34.736677 -11.721496)
(227.35243 33.514035 -15.119492)
(252.38779 32.058129 -16.711562)
(270.02 30.143431 -16.533909)
(280.34379 28.816552 -14.282429)
(284.67819 28.769198 -10.661465)
(285.02511 30.690736 -6.229002)
(283.30566 35.664955 -1.1725361)
(281.62495 44.241032 4.3203427)
(281.65016 56.588505 10.473538)
(284.98907 72.52279 17.395652)
(293.67823 91.690294 25.081963)
(310.03746 113.31948 33.215773)
(336.91856 136.42778 41.048398)
(377.29275 160.02602 47.696104)
(433.6635 182.92947 52.071003)
(507.72093 204.1727 53.439028)
(599.53039 222.5678 51.348698)
(707.3888 237.43587 45.907002)
(828.42654 248.38637 37.756672)
(958.11846 255.07144 28.086794)
(1091.7755 257.763 17.936999)
(1224.8205 256.76863 8.6874108)
(1353.4903 252.68331 1.3022729)
(1475.3391 246.19895 -3.5821537)
(1589.5273 238.02716 -5.8009551)
(1696.5068 228.6656 -5.6628574)
(1797.7952 218.78199 -3.8106432)
(1895.7768 208.52714 -1.0028017)
(1992.4485 198.17445 1.9975994)
(2089.7345 187.98852 4.3734909)
(2188.7253 177.61924 6.1874883)
(2289.8598 167.5345 7.0499298)
(2392.6231 157.03029 7.3373521)
(2496.8913 146.74625 7.289713)
(2601.0677 135.92504 7.2546669)
(2705.098 124.92127 7.2445327)
(2808.2827 113.84374 7.582186)
(2910.7346 102.0677 7.8538166)
(4.054226 4.6813784 5.9813103)
(12.478913 8.0083803 5.9165037)
(26.002427 10.306859 5.6065087)
(44.292301 14.511959 4.2370007)
(66.507377 15.635154 2.7970362)
(95.250069 16.95874 0.50558998)
(127.67719 17.132042 -2.7746089)
(162.16045 17.303732 -5.9710097)
(196.37149 17.063523 -9.5435836)
(226.85987 17.014209 -12.148711)
(251.7185 16.640241 -13.807204)
(269.28643 16.635148 -14.087614)
(279.50477 16.988054 -13.200589)
(283.67732 18.112418 -11.286728)
(283.18882 20.555616 -8.6789529)
(280.22231 24.929245 -5.4564933)
(277.09217 31.465596 -1.8216636)
(275.51023 40.554237 2.4127464)
(277.53352 51.953718 7.2422279)
(285.1866 65.426171 12.736687)
(300.96374 80.072297 18.521711)
(327.5997 95.253046 24.172429)
(367.79175 109.98208 28.971997)
(424.20429 123.53924 32.334598)
(498.06789 135.084 33.594561)
(589.64312 144.30602 32.680578)
(697.25141 150.82558 29.383342)
(817.84305 154.45873 24.384874)
(947.14691 155.62281 18.188576)
(1080.6122 154.39141 11.673857)
(1213.6355 151.1688 5.6808907)
(1342.4706 146.30528 0.92038502)
(1464.7294 140.17414 -2.2430725)
(1579.4076 133.0311 -3.6380885)
(1686.8684 125.064 -3.4663138)
(1788.6807 116.44669 -2.1255956)
(1886.8742 107.30734 -0.10257512)
(1983.4725 97.467901 2.0511793)
(2080.6927 87.759702 3.8164234)
(2179.1539 77.096108 5.3912042)
(2279.9409 66.888969 6.1308697)
(2382.2657 56.058199 6.7516027)
(2486.1922 45.372288 6.9795667)
(2590.1994 34.427032 7.2375582)
(2694.2425 23.372311 7.6037475)
(2797.4305 12.138024 7.8776553)
(2900.1937 0.32008755 8.2506189)
(3.3076238 2.0801174 2.977687)
(10.834164 2.5305523 2.6251606)
(25.490529 4.5860111 2.935798)
(41.844899 5.5776129 2.4268097)
(66.035425 6.4302952 1.5536354)
(94.040988 6.7606822 -0.14186434)
(126.37844 7.4174874 -1.6898945)
(160.92396 7.5153108 -4.1650717)
(194.82891 7.9348429 -6.285367)
(225.44028 8.1792347 -8.2444739)
(250.19455 8.8967851 -9.7662512)
(267.54696 9.4352048 -10.488416)
(277.96651 10.489664 -10.829289)
(281.62064 11.463544 -10.511042)
(280.78278 13.136952 -9.7688322)
(277.53249 15.774172 -8.901219)
(273.73806 19.526976 -7.6731176)
(271.597 24.615701 -6.1374299)
(273.03559 30.852952 -4.0158993)
(280.17375 38.015307 -1.3665201)
(295.48465 45.503063 1.8530715)
(321.69589 52.790664 5.3808677)
(361.86493 59.438239 8.8339389)
(418.07402 64.695661 11.622812)
(491.79801 68.347074 13.568349)
(582.95141 70.0434 14.088076)
(690.11837 69.783083 13.362434)
(810.08424 67.577878 11.557268)
(938.88214 63.74833 8.898761)
(1071.8215 58.532203 5.7942727)
(1204.3648 52.427884 2.8400261)
(1332.9759 45.611373 0.35598096)
(1455.148 38.352837 -1.3134468)
(1569.9046 30.763104 -2.0284328)
(1677.6156 22.76397 -1.8613957)
(1779.6515 14.529098 -1.0107522)
(1877.9284 5.5743913 0.30900319)
(1974.7919 -3.452577 1.6557482)
(2071.7216 -13.344941 3.0480781)
(2170.1176 -23.536505 4.1772472)
(2270.4561 -33.758995 4.9078921)
(2372.5067 -44.829148 5.7384004)
(2476.0219 -55.440778 6.1196547)
(2579.8156 -66.617421 6.8386963)
(2683.7987 -77.839161 7.3864658)
(2787.0291 -89.051072 8.0333081)
(2889.7474 -100.69082 8.7406352)
(2.4451844 0.81560972 0.20221797)
(10.31361 1.0255308 -0.10344398)
(23.76908 0.94541901 0.068435469)
(42.506475 1.3467961 -0.64826873)
(65.869748 1.16248 -0.86574389)
(94.415358 1.0771294 -1.1226388)
(126.95237 1.1135959 -2.3098577)
(161.24612 1.0054007 -3.1170751)
(194.79486 1.1930942 -4.3351501)
(224.7385 1.4771092 -5.6758313)
(248.96266 1.8369257 -6.9640004)
(266.57908 2.2942547 -8.4008321)
(276.88633 2.8747603 -9.7826429)
(280.81296 3.260818 -10.770252)
(280.28739 3.8847879 -12.127107)
(276.82495 4.5470011 -13.094857)
(272.79496 5.3294552 -14.077921)
(270.23084 6.3522969 -14.598235)
(271.16105 7.3992395 -14.735559)
(277.81809 8.4134301 -14.195911)
(292.93584 9.1226655 -12.974844)
(319.54075 9.3190848 -11.175954)
(359.37796 8.346328 -9.2865332)
(415.34106 6.2235747 -6.9501812)
(488.65466 2.5236011 -4.9905972)
(579.43563 -2.6548809 -3.2220017)
(685.9819 -9.3179517 -1.8337327)
(805.32813 -17.203417 -0.9473065)
(933.34548 -25.989927 -0.6000717)
(1065.4719 -35.297519 -0.48649275)
(1197.3236 -44.717045 -0.64374635)
(1325.2931 -54.052276 -0.78920555)
(1446.9528 -63.05738 -0.85419859)
(1561.3702 -71.718885 -0.71804992)
(1668.8424 -80.13482 -0.36038847)
(1770.7061 -88.566549 0.24204211)
(1869.0117 -96.967091 0.93587926)
(1965.6348 -105.88802 1.757056)
(2062.4752 -115.18998 2.600883)
(2160.5876 -124.77625 3.2709033)
(2260.7154 -135.06902 4.1186711)
(2362.5111 -145.64087 4.7908465)
(2465.8005 -156.31699 5.5866665)
(2569.4989 -167.50482 6.4510333)
(2673.4306 -178.60369 7.3522079)
(2776.5611 -189.76971 8.3289856)
(2879.4316 -201.14161 9.2743045)
(3.157188 -1.6935003 -2.9921932)
(10.06308 -4.0157896 -3.5574692)
(25.309211 -4.9517592 -4.0414933)
(41.841196 -6.4003608 -3.0984718)
(65.575292 -7.1875769 -2.5583792)
(93.626106 -7.4856665 -2.3448582)
(125.92139 -7.7100516 -1.8814742)
(159.72746 -7.492588 -1.7649118)
(193.07725 -7.1550409 -2.1424615)
(223.14146 -6.7965613 -2.9793018)
(247.86093 -5.9107302 -4.6159615)
(265.17295 -5.0747508 -6.6257972)
(275.49421 -4.4936704 -8.7891652)
(279.5721 -4.2203776 -11.592522)
(278.92057 -4.5536666 -14.362614)
(275.64112 -5.6888977 -17.341094)
(271.81682 -7.6966631 -20.373436)
(269.3782 -10.650236 -23.129267)
(270.50545 -14.593731 -25.599857)
(277.1828 -19.62598 -27.266976)
(292.55388 -25.433852 -28.439307)
(318.03207 -33.203303 -28.529317)
(357.38956 -41.523821 -27.537426)
(413.09865 -51.477432 -25.838794)
(486.1563 -62.566804 -23.185772)
(576.37304 -74.675204 -19.852564)
(682.53737 -87.637683 -16.135601)
(801.42312 -101.2057 -12.363469)
(928.92677 -114.90091 -8.7100838)
(1060.4846 -128.32732 -5.5465349)
(1191.6956 -141.0852 -2.9680225)
(1318.9858 -152.90937 -1.0506684)
(1440.0007 -163.66306 0.21331618)
(1553.7915 -173.32882 0.92547406)
(1660.7266 -182.36893 1.3367499)
(1762.2103 -190.71222 1.4179046)
(1860.0689 -199.12528 1.5342408)
(1956.5434 -207.70504 1.6645392)
(2053.1051 -216.52923 1.8467067)
(2151.2704 -226.06383 2.2783253)
(2251.0554 -236.02218 2.795777)
(2352.8553 -246.45959 3.6235268)
(2455.8204 -257.21842 4.551622)
(2559.499 -268.30254 5.7213866)
(2663.1792 -279.39922 6.9322807)
(2766.2751 -290.5408 8.2740329)
(2868.8433 -301.6689 9.5987415)
(3.1573362 -4.4886846 -5.9808133)
(10.357294 -6.4049546 -7.5196803)
(24.777568 -8.7941509 -6.720525)
(41.217211 -11.033916 -6.2168362)
(64.613151 -11.997885 -5.3995196)
(92.574684 -13.255299 -3.7785892)
(124.65952 -13.533474 -2.1846726)
(158.94033 -13.76221 -1.1578898)
(192.49063 -13.43654 -0.46020303)
(223.05302 -12.97957 -0.90074721)
(247.53759 -11.962154 -2.1980021)
(265.19044 -11.198969 -4.4424759)
(275.93904 -10.559454 -8.0037821)
(280.58978 -10.88059 -12.159093)
(280.78567 -12.532866 -16.943814)
(278.37794 -15.864519 -22.046288)
(275.39149 -21.236718 -27.248146)
(273.61117 -28.614574 -32.245218)
(275.15157 -38.171785 -36.94284)
(281.94396 -49.560474 -40.932982)
(296.81053 -63.055143 -44.273733)
(322.5367 -77.316788 -45.478982)
(361.59175 -93.408398 -46.889513)
(416.67639 -111.85514 -44.868285)
(488.91918 -130.94115 -41.779821)
(578.09987 -150.6524 -37.112186)
(683.31701 -170.41274 -31.164895)
(801.11273 -189.94173 -24.350218)
(927.51383 -208.76496 -17.490741)
(1057.8985 -226.28228 -11.035714)
(1187.8843 -242.03257 -5.5437409)
(1313.975 -255.79554 -1.3381245)
(1433.8536 -267.54415 1.443963)
(1546.667 -277.62668 2.9414457)
(1652.7994 -286.28866 3.338351)
(1753.6281 -294.27865 3.0706101)
(1851.1629 -302.01368 2.451928)
(1947.1886 -309.89633 1.763878)
(2043.675 -318.52437 1.4118835)
(2141.3801 -327.65566 1.2887594)
(2241.1059 -337.43545 1.7632442)
(2342.6675 -347.78503 2.5478289)
(2445.4742 -358.5464 3.7198907)
(2549.0272 -369.56071 5.1125397)
(2652.4818 -380.56435 6.5608946)
(2755.3854 -391.61569 8.1806817)
(2857.8051 -402.46231 9.6404863)
(3.3480478 -7.8722125 -8.7808453)
(10.934985 -10.269041 -11.222439)
(25.455133 -16.436029 -10.550997)
(40.922236 -20.838425 -9.9748272)
(65.090682 -24.685832 -8.2688885)
(92.720599 -27.865879 -5.7462194)
(125.54266 -29.910165 -3.4041183)
(159.94145 -31.189842 -0.89990254)
(193.63879 -30.887276 0.91999416)
(223.82369 -29.863177 1.2396126)
(247.935 -27.564725 0.18848223)
(265.44837 -25.473813 -2.732884)
(275.93984 -23.211028 -7.1688819)
(280.77314 -22.46549 -12.693426)
(281.32982 -23.529708 -19.093798)
(279.56771 -27.301725 -25.967489)
(277.25177 -34.096304 -33.053812)
(276.193 -44.190538 -40.188146)
(278.26078 -57.716643 -47.093259)
(285.5813 -74.586451 -53.479661)
(300.64613 -94.545875 -58.885692)
(325.90845 -117.5449 -62.791248)
(365.10643 -142.90695 -64.621592)
(419.77609 -170.57828 -63.859632)
(491.45053 -199.30378 -60.56272)
(579.98697 -228.35228 -54.317995)
(684.55315 -256.77292 -45.767042)
(801.59039 -283.55487 -35.844425)
(927.10164 -308.05154 -25.458369)
(1056.3615 -329.41837 -15.493125)
(1185.094 -347.40402 -6.9653688)
(1309.8578 -361.99421 -0.43349345)
(1428.3873 -373.57594 3.8314362)
(1539.9678 -382.69145 5.8853853)
(1644.9992 -390.3191 6.2176149)
(1745.0624 -397.10579 5.2646836)
(1841.8849 -403.98532 3.7206119)
(1937.5943 -411.40907 2.2255829)
(2033.7083 -419.63055 0.9238445)
(2131.4028 -428.80472 0.38586682)
(2230.9762 -438.72969 0.48645702)
(2332.4463 -449.27529 1.2660213)
(2435.1911 -460.11795 2.5000899)
(2538.6142 -471.11179 4.0601107)
(2641.8457 -482.12788 5.7088498)
(2744.5768 -493.05603 7.4279065)
(2846.5732 -503.88086 8.9974206)
(0 0 0)
(0 0 0)
(0 0 0)
(0 0 0)
(0 0 0)
(0 0 0)
(0 0 0)
(0 0 0)
(0 0 0)
(0 0 0)
(0 0 0)
(0 0 0)
(0 0 0)
(0 0 0)
(0 0 0)
(0 0 0)
(0 0 0)
(0 0 0)
(0 0 0)
(0 0 0)
(0 0 0)
(0 0 0)
(0 0 0)
(0 0 0)
(0 0 0)
(0 0 0)
(0 0 0)
(0 0 0)
(0 0 0)
(0 0 0)
(0 0 0)
(0 0 0)
(0 0 0)
(0 0 0)
(0 0 0)
(0 0 0)
(0 0 0)
(0 0 0)
(0 0 0)
(0 0 0)
(0 0 0)
(0 0 0)
(0 0 0)
(0 0 0)
(0 0 0)
(0 0 0)
(0 0 0)
(0 0 0)
(0 0 0)
(10.07023 -4.9611004 -7.0541077)
(11.234176 -5.8420164 -4.5292777)
(12.044855 -6.1182877 -2.661893)
(12.961723 -6.6875803 -1.4446153)
(12.987372 -6.3403475 0.55751419)
(13.030429 -6.5474115 2.5605368)
(12.045564 -5.544288 4.8470567)
(19.464718 -19.158168 -11.871384)
(22.15401 -20.002172 -6.8863747)
(22.903225 -19.831917 -3.2695796)
(22.757546 -19.615668 -1.7379121)
(23.890968 -20.204637 0.51199527)
(23.267981 -20.250772 3.0088841)
(22.881432 -20.87436 8.032826)
(32.811 -31.652971 -8.4378296)
(33.714085 -32.223399 -5.5667955)
(35.039547 -31.091996 -4.17207)
(36.083577 -31.633585 -1.2908786)
(36.529649 -32.529969 0.86406262)
(36.180547 -33.031282 3.3393653)
(36.319601 -32.203861 6.9046578)
(48.015052 -39.414802 -10.51334)
(51.410454 -39.206114 -7.1653804)
(51.752299 -39.571418 -4.2068957)
(53.233158 -40.163777 -1.9585787)
(53.098374 -40.522112 -0.43066243)
(54.852043 -39.721364 1.4762456)
(53.56514 -41.77214 5.5307044)
(72.283884 -50.707239 -7.357744)
(72.53731 -51.055049 -4.2920645)
(73.149258 -50.300203 -3.5706782)
(74.276742 -50.697701 -2.7144712)
(75.056276 -51.202245 -0.87586537)
(75.651978 -51.792593 0.64135935)
(76.204795 -51.480539 3.0956952)
(97.753678 -57.540656 -5.4083139)
(98.936935 -57.172278 -3.5957988)
(99.103116 -57.175119 -2.4300708)
(99.957859 -56.771474 -2.2834933)
(100.5917 -57.583679 -2.1540204)
(101.72367 -56.423367 -1.5417039)
(102.19157 -58.572789 0.087547804)
(128.29206 -61.601169 -2.738192)
(128.48279 -61.929307 -1.9876536)
(128.08291 -61.250001 -2.572944)
(128.86709 -61.461296 -3.0167594)
(129.47745 -61.96045 -3.6054127)
(131.0269 -61.781985 -3.531124)
(131.43356 -62.322015 -3.5150593)
(159.59571 -62.685512 -0.14996394)
(159.23405 -61.730919 -0.99706543)
(159.08812 -60.923995 -2.5525504)
(159.08826 -61.559494 -3.9206314)
(159.99898 -62.007285 -5.2728382)
(160.91099 -62.251208 -6.5205819)
(162.34592 -62.891566 -7.3547748)
(190.81419 -58.511594 1.0640872)
(190.13771 -58.446092 -0.62617734)
(189.05694 -58.824947 -2.8082241)
(189.86157 -58.499622 -4.8767169)
(189.66545 -58.695643 -6.9144852)
(191.63344 -59.275597 -8.5756627)
(192.19776 -59.601947 -11.251245)
(218.73787 -52.247249 1.5651598)
(217.73006 -51.502203 -1.5028849)
(217.51148 -50.996009 -4.2248624)
(217.29524 -51.674999 -6.5393592)
(217.44066 -52.206664 -9.0423221)
(218.60323 -52.918468 -10.776553)
(219.58011 -52.975799 -14.15007)
(242.18012 -43.034931 -0.31355981)
(241.56106 -42.806726 -3.7760995)
(240.96253 -42.876704 -6.1730814)
(241.31151 -43.600999 -8.2534473)
(240.82206 -44.134606 -9.9742536)
(242.05486 -45.158118 -12.632035)
(243.20406 -45.024937 -16.543212)
(260.18693 -33.724133 -4.0411743)
(260.00047 -33.531521 -6.6805517)
(260.07114 -33.56126 -8.4503089)
(260.23291 -34.526599 -9.6978171)
(260.11315 -34.919394 -11.233949)
(260.5622 -36.235348 -13.238794)
(261.19936 -35.971944 -16.165724)
(272.51712 -25.38536 -9.0197982)
(273.04118 -25.252631 -10.497727)
(273.75952 -26.033308 -11.36158)
(274.19398 -26.601239 -11.443574)
(273.86774 -27.466838 -11.46098)
(273.60297 -28.472882 -12.555706)
(274.10566 -28.705747 -14.206017)
(280.40704 -19.939705 -14.88468)
(281.4471 -20.147583 -14.861574)
(283.11064 -20.641347 -14.076288)
(283.70476 -21.464625 -12.537107)
(283.29053 -22.41283 -11.098499)
(282.66645 -23.924497 -10.94969)
(281.83618 -24.198394 -10.491596)
(284.53809 -18.369978 -21.65898)
(286.70877 -18.595934 -19.587228)
(289.26128 -19.351693 -17.151621)
(289.88144 -20.190834 -13.685899)
(289.46945 -21.394642 -10.285184)
(287.74459 -22.834124 -8.3200942)
(285.98176 -23.341004 -5.7281024)
(286.84073 -21.503478 -28.535426)
(289.98272 -21.870064 -24.436075)
(293.34182 -22.528908 -19.898513)
(294.16584 -23.561023 -14.448996)
(293.64769 -24.870163 -8.8113053)
(291.11568 -26.477848 -5.239539)
(288.22975 -27.305582 0.0034763516)
(288.79145 -29.864175 -35.688936)
(293.00203 -30.191232 -29.283112)
(297.35964 -31.004268 -22.620398)
(298.22346 -32.163083 -14.867891)
(297.68135 -33.691923 -7.129869)
(294.2178 -35.214832 -1.3124885)
(290.14999 -36.508322 6.5783895)
(292.13724 -43.726716 -42.699914)
(297.52064 -44.073062 -34.009492)
(302.76925 -45.049433 -24.963125)
(303.73957 -46.405666 -14.940106)
(303.17892 -47.982622 -4.7931453)
(298.68351 -49.478814 3.2781265)
(293.4272 -51.198741 13.950315)
(298.68548 -63.329651 -49.564152)
(305.27653 -63.777008 -38.379605)
(311.37303 -64.95017 -26.936041)
(312.50557 -66.498913 -14.469266)
(311.8413 -68.168632 -1.9335924)
(306.35077 -69.517129 8.6704635)
(299.80337 -71.723537 22.154027)
(310.29164 -88.943253 -55.866936)
(318.22051 -89.470197 -42.266767)
(325.1486 -91.02223 -28.357906)
(326.48788 -92.827909 -13.473832)
(325.69621 -94.470783 1.4908391)
(319.21695 -95.697558 14.737644)
(311.27572 -98.204417 30.953175)
(329.26228 -120.4262 -61.352982)
(338.53133 -121.31878 -45.347062)
(346.12496 -123.20341 -29.081342)
(347.73876 -125.13121 -11.9234)
(346.73105 -126.77073 5.2643706)
(339.39227 -127.79683 21.086079)
(330.03555 -130.52739 39.749881)
(357.81939 -157.57788 -65.31825)
(368.38886 -158.82114 -47.294492)
(376.54032 -160.99788 -28.981535)
(378.42234 -163.11737 -9.9842445)
(377.16667 -164.63611 9.0611379)
(369.14232 -165.6419 27.096303)
(358.56252 -168.21769 47.642475)
(398.36804 -199.50803 -67.114776)
(410.03053 -201.12257 -47.669225)
(418.34815 -203.56532 -28.066963)
(420.52518 -205.67935 -7.8240706)
(418.98603 -207.20276 12.3113)
(410.76279 -208.07312 31.916994)
(399.22706 -210.24045 53.516254)
(452.90122 -244.56187 -66.233976)
(465.14075 -246.61248 -46.310175)
(473.34544 -249.06963 -26.296035)
(475.72754 -251.28101 -5.6530072)
(474.03341 -252.56587 14.62186)
(465.83917 -253.42902 34.916519)
(453.87509 -255.01112 56.323652)
(522.25704 -290.7482 -62.641766)
(534.6987 -293.04782 -43.085358)
(542.17972 -295.60081 -23.659625)
(544.81091 -297.65871 -3.6100607)
(542.72971 -298.82675 15.572286)
(535.2444 -299.9326 35.353953)
(523.90751 -300.74116 54.980501)
(606.73339 -335.71904 -56.023875)
(618.39367 -338.27205 -38.225336)
(625.14897 -340.94829 -20.320432)
(627.66867 -342.69134 -2.1274316)
(625.45321 -343.84747 15.213741)
(619.29596 -344.43021 33.031387)
(609.08368 -344.19949 50.099995)
(705.11904 -377.19024 -47.091696)
(715.33872 -379.86912 -31.932661)
(721.22335 -382.27881 -16.395088)
(723.47372 -383.67966 -1.5467612)
(722.03595 -384.41908 13.781161)
(716.39254 -385.22156 28.79557)
(707.31142 -384.29219 43.21589)
(815.36813 -412.71673 -36.563495)
(823.09239 -415.52001 -24.547846)
(827.81473 -417.66795 -12.610448)
(829.35464 -418.74428 -0.97873511)
(828.06721 -419.65549 11.172538)
(823.76597 -419.926 22.698235)
(816.91971 -418.90723 33.928022)
(933.35458 -441.23288 -25.397022)
(938.76823 -444.05061 -16.902022)
(941.85111 -445.90414 -8.8437374)
(943.00919 -446.99672 -0.5344047)
(941.9286 -447.85247 7.8467364)
(939.1091 -448.1517 15.802724)
(934.20054 -446.70781 23.489658)
(1055.7014 -462.45954 -14.690708)
(1058.6135 -465.05443 -9.9610362)
(1060.3624 -466.69252 -5.2111509)
(1060.8399 -467.7557 -0.53146928)
(1060.1434 -468.62221 4.5276794)
(1058.4753 -468.79167 8.9187917)
(1055.6904 -467.40143 13.15492)
(1178.5177 -476.64688 -5.6548443)
(1179.3893 -478.99105 -3.9781011)
(1179.8188 -480.51167 -2.3842423)
(1179.8552 -481.5944 -0.59416766)
(1179.4486 -482.44414 1.4372221)
(1178.8103 -482.62513 2.8577418)
(1177.8674 -481.40431 4.1439644)
(1298.9805 -485.08532 1.2292859)
(1298.2 -487.14642 0.40416298)
(1297.6918 -488.6024 -0.15683881)
(1297.3612 -489.73261 -0.70910215)
(1297.1917 -490.63397 -0.9031773)
(1297.3453 -490.82784 -1.7490627)
(1297.7981 -489.94257 -2.6429999)
(1414.9607 -489.48282 5.5247633)
(1413.1458 -491.28352 3.2554299)
(1412.0346 -492.80473 1.2215591)
(1411.4818 -493.99106 -0.73329103)
(1411.5129 -494.9335 -2.407413)
(1412.1533 -495.12153 -4.612849)
(1413.5239 -494.61508 -6.8413984)
(1525.6027 -491.83141 7.4715453)
(1523.327 -493.47695 4.5296225)
(1521.9701 -494.99838 1.9649501)
(1521.3508 -496.22358 -0.65478287)
(1521.4975 -497.16357 -2.9633966)
(1522.4057 -497.42332 -5.7664423)
(1524.2045 -497.23892 -8.4577508)
(1631.0047 -493.92365 7.4491991)
(1628.7784 -495.38346 4.642102)
(1627.4634 -496.97145 2.1131691)
(1626.897 -498.23621 -0.45984724)
(1627.148 -499.16421 -2.8612489)
(1628.132 -499.42973 -5.491852)
(1629.9281 -499.54396 -7.9533837)
(1732.1831 -497.09547 6.132488)
(1730.3511 -498.53218 3.9152044)
(1729.2999 -500.10946 1.9096939)
(1728.8874 -501.36612 -0.22369158)
(1729.1904 -502.26441 -2.1334726)
(1730.0953 -502.80667 -4.173419)
(1731.4235 -502.84568 -6.0202397)
(1830.5065 -502.41305 4.2355606)
(1829.3094 -503.63245 2.8648778)
(1828.5655 -505.216 1.5059272)
(1828.3678 -506.43364 0.1109402)
(1828.6897 -507.3381 -1.1986764)
(1829.2965 -507.52027 -2.6888797)
(1830.4098 -507.77773 -3.8075535)
(1927.4854 -509.65744 2.1406043)
(1926.9391 -511.01485 1.517568)
(1926.6551 -512.57305 1.0305172)
(1926.6076 -513.6936 0.12225933)
(1927.0239 -514.60167 -0.44327868)
(1927.4502 -515.026 -1.1556516)
(1928.374 -515.07946 -1.3978498)
(2024.4906 -519.14138 0.56403102)
(2024.4745 -520.47163 0.60794754)
(2024.5624 -521.9605 0.48543445)
(2024.7804 -523.10688 0.21216928)
(2025.2586 -523.9139 0.11160459)
(2025.654 -524.26874 -0.036511416)
(2026.0825 -524.38099 0.31544118)
(2122.5387 -530.07025 -0.31768727)
(2122.9873 -531.41871 0.011641504)
(2123.3723 -532.88783 0.25366556)
(2123.7586 -533.98249 0.32085225)
(2124.259 -534.76098 0.49538237)
(2124.5727 -535.22125 0.64892937)
(2124.8745 -535.29748 1.3653778)
(2222.0394 -541.83688 -0.4570341)
(2222.7684 -543.2576 -0.037835862)
(2223.3415 -544.70756 0.2873221)
(2223.8316 -545.77964 0.40833087)
(2224.3917 -546.5925 0.67594891)
(2224.7445 -547.01158 0.95551686)
(2224.9634 -547.17412 1.6636998)
(2323.041 -553.81231 0.13389845)
(2323.9051 -555.30251 0.39693026)
(2324.5483 -556.70839 0.62786033)
(2325.1367 -557.83771 0.64550108)
(2325.7217 -558.64179 0.87577496)
(2326.1467 -559.14879 1.0087251)
(2326.3649 -559.44691 1.5581772)
(2425.1938 -565.51437 1.310692)
(2426.0106 -567.02635 1.2937578)
(2426.7168 -568.53004 1.2844528)
(2427.3324 -569.68587 1.1250376)
(2427.9742 -570.60044 1.1444931)
(2428.427 -571.12805 1.1430392)
(2428.7406 -571.54557 1.423426)
(2527.9233 -576.66228 2.8320265)
(2528.7197 -578.29293 2.5201359)
(2529.3912 -579.85549 2.2238362)
(2530.0707 -581.13812 1.8675146)
(2530.675 -582.13029 1.7064035)
(2531.2544 -582.72403 1.5575275)
(2531.5398 -583.3407 1.5315841)
(2630.7326 -587.26987 4.4974679)
(2631.4644 -589.01689 3.8951891)
(2632.1662 -590.73021 3.3900875)
(2632.8533 -592.14964 2.8426205)
(2633.5473 -593.2792 2.535246)
(2634.0783 -593.99732 2.2505486)
(2634.4122 -594.68394 2.0641254)
(2733.251 -597.60914 6.1281449)
(2734.0012 -599.42826 5.3793329)
(2734.7625 -601.32269 4.6516243)
(2735.5794 -602.93413 4.0216059)