/*--------------------------------*- C++ -*----------------------------------*\
  =========                 |
  \\      /  F ield         | OpenFOAM: The Open Source CFD Toolbox
   \\    /   O peration     | Website:  https://openfoam.org
    \\  /    A nd           | Version:  6
     \\/     M anipulation  |
\*---------------------------------------------------------------------------*/
FoamFile
{
    version     2.0;
    format      ascii;
    class       pointVectorField;
    location    "1.11";
    object      u;
}
// * * * * * * * * * * * * * * * * * * * * * * * * * * * * * * * * * * * * * //

dimensions      [0 1 0 0 0 0 0];

internalField   nonuniform List<vector> 
3969
(
(0 0 0)
(0 0 0)
(2.4096182 -0.27769626 0.034392012)
(2.2463277 -0.824541 0.03047726)
(0 0 0)
(0 0 0)
(2.2461838 -0.83176467 0.029981427)
(2.4093783 -0.28511531 0.033904176)
(0 0 0)
(0 0 0)
(0 0 0)
(0 0 0)
(0 0 0)
(0 0 0)
(0 0 0)
(2.3886673 -0.34667535 0.033478614)
(2.3679679 -0.41480296 0.033074028)
(2.3475194 -0.48276416 0.032650908)
(2.3272955 -0.55066764 0.032398283)
(2.3071956 -0.61866329 0.032071721)
(2.2870842 -0.68685573 0.031753612)
(2.2669891 -0.75542651 0.031205532)
(0.0067383584 0.013902609 0.015186016)
(0.010815104 0.02492838 0.01840304)
(0.019172039 0.036928144 0.020639358)
(0.031418165 0.048425086 0.021109134)
(0.0466725 0.0600409 0.021479758)
(0.065743103 0.070727928 0.021261863)
(0.087422046 0.080942975 0.02132436)
(0.11263988 0.090177869 0.021057835)
(0.14031258 0.098605266 0.021138262)
(0.17100306 0.10586343 0.02092394)
(0.20412163 0.11233669 0.021103467)
(0.23982167 0.11762283 0.021101945)
(0.27780257 0.12191087 0.021245137)
(0.31805288 0.12516435 0.021464274)
(0.36047528 0.12730375 0.021651796)
(0.40477813 0.12840669 0.021965012)
(0.45108537 0.12848024 0.022295527)
(0.49914771 0.1274842 0.022668894)
(0.54896951 0.12547966 0.023086274)
(0.60038569 0.12243689 0.023507685)
(0.65336833 0.11838937 0.023984473)
(0.70780244 0.11336478 0.024442095)
(0.76362567 0.1073516 0.024930682)
(0.82077117 0.10040291 0.025398885)
(0.87912559 0.092481398 0.025867727)
(0.93867652 0.083715296 0.026326817)
(0.99929569 0.074026817 0.026769967)
(1.0609597 0.063481914 0.027184853)
(1.1235914 0.052106766 0.027581977)
(1.1870845 0.039916023 0.027961489)
(1.2514197 0.026960873 0.028312545)
(1.3165044 0.013248126 0.028647753)
(1.382273 -0.0011702132 0.028963334)
(1.4486639 -0.016275971 0.029263664)
(1.5156221 -0.032014806 0.029552457)
(1.5830448 -0.048398774 0.029848354)
(1.6509328 -0.065275431 0.0301114)
(1.7191219 -0.082812971 0.030425941)
(1.7876869 -0.10066634 0.030688857)
(1.8564074 -0.11917615 0.031052494)
(1.9254082 -0.13788203 0.031327711)
(1.9944577 -0.15710907 0.031730523)
(2.0636282 -0.17664521 0.032103242)
(2.1328415 -0.1962834 0.032487336)
(2.2019749 -0.21650442 0.033015542)
(2.271141 -0.23652017 0.033467337)
(2.3401282 -0.25681747 0.034142506)
(0.00021443185 -0.014199671 -0.018726138)
(0.0058764735 -0.022973858 -0.019283006)
(0.011472898 -0.033948384 -0.023611776)
(0.021555666 -0.044807044 -0.0224983)
(0.034991996 -0.056675539 -0.022774933)
(0.050918467 -0.068701821 -0.021511596)
(0.069949307 -0.080816734 -0.020725164)
(0.091254718 -0.093260184 -0.019485927)
(0.11524962 -0.10573722 -0.018370237)
(0.14178964 -0.11879592 -0.017084452)
(0.17031826 -0.1315957 -0.015910505)
(0.20148102 -0.14520362 -0.014640199)
(0.23449116 -0.15870666 -0.013344964)
(0.26975512 -0.17270094 -0.012034379)
(0.30692975 -0.1870374 -0.010710867)
(0.34610028 -0.20165616 -0.0093606401)
(0.38716526 -0.21677135 -0.0080073683)
(0.42991788 -0.23206284 -0.0066448541)
(0.47452576 -0.24797485 -0.0052528212)
(0.52068793 -0.26408179 -0.0038974143)
(0.56845079 -0.28073085 -0.0024928647)
(0.61779079 -0.29768101 -0.0011489261)
(0.66851164 -0.31509583 0.00025417982)
(0.72070779 -0.33291151 0.0016031073)
(0.7741598 -0.35101761 0.0029273623)
(0.82895597 -0.36956379 0.0042529964)
(0.88486949 -0.38835516 0.0055633038)
(0.94206762 -0.40763092 0.0068654272)
(1.0003655 -0.42713718 0.0081076079)
(1.059717 -0.44694717 0.0093727182)
(1.1200932 -0.46706054 0.010605449)
(1.181401 -0.48740218 0.011834909)
(1.2436282 -0.50798105 0.013051946)
(1.3066823 -0.52875132 0.014258376)
(1.3705372 -0.54968683 0.015461874)
(1.4351122 -0.57076946 0.016654295)
(1.5003751 -0.59194809 0.017844466)
(1.5662396 -0.61318941 0.019036859)
(1.6326666 -0.63452459 0.020225775)
(1.699597 -0.65582594 0.021400548)
(1.766959 -0.67716788 0.022587328)
(1.8347055 -0.69844596 0.023750318)
(1.9027736 -0.71966548 0.024912472)
(1.9711064 -0.74081642 0.02605472)
(2.0396288 -0.76184073 0.027176252)
(2.1083472 -0.78275802 0.028247351)
(2.1771133 -0.80361894 0.029332209)
(0 0 0)
(0 0 0)
(0 0 0)
(0 0 0)
(0 0 0)
(0 0 0)
(0 0 0)
(0.0055927172 -0.0095152531 0.014492757)
(0.007717474 -0.028937592 0.020527385)
(0.012346672 -0.031999384 0.021491596)
(0.023360413 -0.04874279 0.022500828)
(0.036164027 -0.058822949 0.02280361)
(0.05231942 -0.07156853 0.021751898)
(0.071303264 -0.08481364 0.022007358)
(0.092519187 -0.096665768 0.020891859)
(0.11652447 -0.11083263 0.021255378)
(0.14258519 -0.12279875 0.020235993)
(0.17109497 -0.13773888 0.021074517)
(0.20205157 -0.15009838 0.020231262)
(0.23496924 -0.16474166 0.020561985)
(0.27024274 -0.1788322 0.020399486)
(0.30721908 -0.19319531 0.020483172)
(0.34636271 -0.20841129 0.020628546)
(0.38724846 -0.22332699 0.020742834)
(0.42996399 -0.23911684 0.020965219)
(0.47441017 -0.25494596 0.021191202)
(0.52051018 -0.27130488 0.021445372)
(0.56821298 -0.28794998 0.021740039)
(0.61744011 -0.30501526 0.0220501)
(0.66816287 -0.32241068 0.02236149)
(0.72027478 -0.3401617 0.022688199)
(0.77378488 -0.35837389 0.022968743)
(0.82870143 -0.3768697 0.023179129)
(0.88459159 -0.39581579 0.023568969)
(0.9417877 -0.41493913 0.023840049)
(1.000087 -0.43445571 0.024148738)
(1.0594845 -0.45424233 0.024412655)
(1.1198876 -0.4743026 0.024656652)
(1.1812508 -0.49462774 0.024898747)
(1.2435075 -0.51518221 0.025127265)
(1.3066148 -0.53593453 0.025346531)
(1.3704929 -0.55685766 0.025566258)
(1.4351051 -0.57797342 0.025791199)
(1.5004001 -0.59908908 0.026010145)
(1.5662335 -0.62042955 0.026267199)
(1.6326766 -0.64172941 0.026514971)
(1.6995907 -0.66308944 0.026802875)
(1.7669321 -0.68442108 0.027099622)
(1.8346657 -0.70573774 0.027437214)
(1.9026979 -0.72696041 0.027797952)
(1.9710138 -0.74812106 0.028197624)
(2.0395151 -0.76914032 0.028627003)
(2.1082119 -0.79005522 0.029112239)
(2.1768982 -0.81091089 0.029591684)
(2.2669068 -0.76273093 0.030254472)
(2.286923 -0.69417553 0.030701378)
(2.3070412 -0.62599982 0.0313163)
(2.3271048 -0.55804269 0.031942078)
(2.3472822 -0.49014322 0.03267658)
(2.3676968 -0.42217666 0.033224342)
(2.3884749 -0.35413006 0.03376068)
(2.3400519 -0.26429796 0.032633365)
(2.2708314 -0.24398348 0.031657401)
(2.2017384 -0.22377405 0.030558561)
(2.1325761 -0.20372088 0.029486818)
(2.0633919 -0.18390528 0.028344225)
(1.9942468 -0.16436253 0.027188189)
(1.9251875 -0.14515453 0.026027877)
(1.8562518 -0.12630778 0.024849571)
(1.7875109 -0.10788364 0.023663991)
(1.7190132 -0.089893976 0.022477513)
(1.6507741 -0.072430212 0.021279546)
(1.5830011 -0.055576822 0.020113315)
(1.5155211 -0.039162754 0.018878321)
(1.4485816 -0.023456745 0.01767455)
(1.3821793 -0.0083693697 0.016435325)
(1.3163903 0.0060110365 0.015200556)
(1.2512776 0.01968959 0.013942724)
(1.1869121 0.032606242 0.012666372)
(1.1233582 0.044765003 0.011373407)
(1.060692 0.056096584 0.010064607)
(0.99897719 0.066643151 0.0087190914)
(0.9382882 0.076295636 0.0073762889)
(0.87869971 0.085129335 0.0059969913)
(0.82025765 0.093034236 0.0046095912)
(0.76307828 0.10006713 0.0031921727)
(0.70720103 0.10614203 0.0017831116)
(0.65272232 0.11131177 0.00033732618)
(0.59971424 0.11547947 -0.0010765152)
(0.54826442 0.11870736 -0.0025215694)
(0.49845083 0.12091584 -0.0039399645)
(0.4503588 0.12213329 -0.0053534821)
(0.40409453 0.12236722 -0.0067822432)
(0.35970247 0.12158621 -0.0081256462)
(0.31749816 0.11949531 -0.0093875891)
(0.27737774 0.11658509 -0.01082434)
(0.23930185 0.1127262 -0.01193218)
(0.20379594 0.10772963 -0.013300841)
(0.17056322 0.10166962 -0.014381101)
(0.13998498 0.094870425 -0.015700524)
(0.11231187 0.086523583 -0.016598097)
(0.087485063 0.077968279 -0.017657703)
(0.065209728 0.068060825 -0.018491721)
(0.046796055 0.057717197 -0.01927469)
(0.031021686 0.046514063 -0.019402185)
(0.019523612 0.035618313 -0.019052373)
(0.010751921 0.023074004 -0.017364816)
(0.010972813 0.013249291 -0.011050137)
(0 0 0)
(0 0 0)
(0 0 0)
(0 0 0)
(0 0 0)
(0 0 0)
(0 0 0)
(0 0 0)
(0 0 0)
(0 0 0)
(0 0 0)
(0 0 0)
(0 0 0)
(0 0 0)
(2.2462534 -0.82571714 0.030349929)
(2.24624 -0.82678367 0.030280967)
(2.2462227 -0.82774644 0.030243844)
(2.2462044 -0.82870198 0.030223335)
(2.246186 -0.82959644 0.030210838)
(2.2461723 -0.83040843 0.030192007)
(2.2461479 -0.83124693 0.030062104)
(2.4099303 -0.27843178 0.034353671)
(2.4099653 -0.27935116 0.034331803)
(2.4099902 -0.280242 0.034225436)
(2.4099937 -0.2811592 0.034134684)
(2.4099533 -0.28208277 0.034038661)
(2.4098547 -0.28305063 0.03395935)
(2.4098098 -0.28398351 0.033942777)
(0.0020294034 0.010471124 0.013796497)
(0.0063906968 0.018918699 0.01357948)
(0.014149242 0.02820233 0.015600637)
(0.025886627 0.037022046 0.016058883)
(0.040839467 0.045335075 0.016181196)
(0.059638622 0.053478382 0.01632335)
(0.081027883 0.060641375 0.01620237)
(0.10579019 0.067431385 0.016411958)
(0.13322741 0.073013716 0.016233276)
(0.16348442 0.077984197 0.016512204)
(0.19617549 0.081956329 0.016610397)
(0.23137766 0.084907626 0.016777214)
(0.2689226 0.08711286 0.017065507)
(0.30865462 0.088176513 0.017330622)
(0.3504952 0.088319279 0.017720533)
(0.39433309 0.087486851 0.018097739)
(0.44007549 0.085707324 0.018563213)
(0.48759356 0.082909509 0.019056397)
(0.53685081 0.079199824 0.019567731)
(0.58773128 0.07451161 0.020116094)
(0.64016051 0.068899957 0.020681339)
(0.69404641 0.062364903 0.021250856)
(0.74934826 0.054926404 0.021836223)
(0.80592079 0.046595683 0.022413289)
(0.8637988 0.037415197 0.02300116)
(0.9228272 0.027351091 0.023535866)
(0.98296047 0.016493928 0.024085466)
(1.0441556 0.0048353646 0.024610061)
(1.106315 -0.0076149328 0.025115672)
(1.1693775 -0.02079258 0.025598198)
(1.2333004 -0.034685663 0.026062004)
(1.2979903 -0.049279078 0.026506585)
(1.3633952 -0.064509863 0.026935105)
(1.42946 -0.080370402 0.027347913)
(1.4961011 -0.096819471 0.027755859)
(1.5632551 -0.11380343 0.028153311)
(1.6308956 -0.13130711 0.028543026)
(1.6988831 -0.14930061 0.028963677)
(1.767262 -0.16768364 0.029356748)
(1.8358656 -0.18652443 0.029806072)
(1.9047252 -0.20561365 0.030214636)
(1.973697 -0.22517259 0.030725112)
(2.0428573 -0.24481839 0.031139472)
(2.1119839 -0.26482138 0.031704467)
(2.181192 -0.28504997 0.032210583)
(2.2503065 -0.30519095 0.032738133)
(2.3193466 -0.32591107 0.033258926)
(-0.0020148054 0.0069334503 0.0094841423)
(0.0021440063 0.011776638 0.0086824668)
(0.010180626 0.019404733 0.010635206)
(0.021561341 0.024849196 0.010517482)
(0.036697622 0.030897878 0.011033512)
(0.054666471 0.03617973 0.010910324)
(0.07585321 0.040898668 0.011392387)
(0.10030606 0.044902429 0.011147279)
(0.12720209 0.048043317 0.011715475)
(0.15695673 0.050586598 0.011825163)
(0.18923304 0.052036225 0.012135661)
(0.22393082 0.052868145 0.012509568)
(0.26094315 0.052701617 0.012923592)
(0.30016392 0.051604073 0.013414681)
(0.34149714 0.049692219 0.01392602)
(0.38476327 0.046897335 0.014445505)
(0.42994405 0.043239709 0.01501293)
(0.47688987 0.038661106 0.015616249)
(0.52558953 0.033240459 0.016231891)
(0.57591181 0.026895176 0.016888138)
(0.62778157 0.01970789 0.017541489)
(0.68116044 0.011664388 0.018202137)
(0.73585638 0.0027804414 0.018879078)
(0.79197063 -0.0068876896 0.019546072)
(0.84928314 -0.017408584 0.0201892)
(0.90778954 -0.028652253 0.020870642)
(0.96742946 -0.040683194 0.021513256)
(1.0281247 -0.053467914 0.022130954)
(1.0898002 -0.066918397 0.022751854)
(1.1524286 -0.081087299 0.023338366)
(1.2159167 -0.095894147 0.023905337)
(1.2802017 -0.11133959 0.024470351)
(1.3452404 -0.12736525 0.024999543)
(1.4109479 -0.14396678 0.025534747)
(1.4772658 -0.1610807 0.026050755)
(1.544139 -0.17869783 0.026568126)
(1.611511 -0.19675169 0.02707654)
(1.6792463 -0.21526283 0.027613968)
(1.7474625 -0.23406564 0.028097296)
(1.8158271 -0.25333202 0.028674995)
(1.8846142 -0.27277005 0.029171172)
(1.9534346 -0.29258584 0.029765118)
(2.0225357 -0.31252461 0.030301241)
(2.0915693 -0.3327398 0.03092741)
(2.1607642 -0.35308882 0.031496812)
(2.2298371 -0.37354381 0.03207088)
(2.2990184 -0.39429282 0.032623024)
(-0.0056162555 0.0039021905 0.00578441)
(-0.0010317272 0.0070189751 0.0051957079)
(0.0062276743 0.010850081 0.0058217457)
(0.018055988 0.014235041 0.0057925304)
(0.032439613 0.017212585 0.005895769)
(0.050806771 0.019936424 0.0061389602)
(0.071892073 0.021557976 0.0059291742)
(0.095887939 0.023032892 0.0065316658)
(0.12253289 0.023450274 0.0067339145)
(0.15207032 0.023347643 0.0070082409)
(0.18373116 0.022531193 0.0075696992)
(0.21797174 0.020876575 0.0080082175)
(0.25437538 0.018529062 0.0085669198)
(0.29299982 0.015330343 0.0091690963)
(0.33367842 0.011447144 0.0098434975)
(0.37637644 0.0066724443 0.010436621)
(0.42094278 0.0011216712 0.011172399)
(0.46731936 -0.0052491385 0.011848617)
(0.51542577 -0.012453181 0.012623314)
(0.56510747 -0.0204202 0.013379922)
(0.61637227 -0.029182834 0.014176755)
(0.66903693 -0.038731352 0.014981596)
(0.72322383 -0.049014072 0.015788148)
(0.77867456 -0.060110364 0.016563436)
(0.83541076 -0.071884958 0.017392048)
(0.89336683 -0.084401489 0.018141028)
(0.95249352 -0.097621017 0.018878077)
(1.0126625 -0.11149949 0.019627324)
(1.073878 -0.12602121 0.020331291)
(1.1360289 -0.14118133 0.021019918)
(1.1990633 -0.15690918 0.021707584)
(1.2629387 -0.1732196 0.022361789)
(1.3275689 -0.1900516 0.023010787)
(1.3929066 -0.20738681 0.023648539)
(1.4588811 -0.22519736 0.024277475)
(1.5254482 -0.24341805 0.024892719)
(1.5924965 -0.26207858 0.025527035)
(1.6600641 -0.28103817 0.026129804)
(1.7279784 -0.30037851 0.026760653)
(1.7962231 -0.31999048 0.027422387)
(1.8647952 -0.33977576 0.028014291)
(1.9334773 -0.35993171 0.028757316)
(2.0024621 -0.38008149 0.029333748)
(2.0714177 -0.40055042 0.030102125)
(2.1406018 -0.42107268 0.03069731)
(2.2096641 -0.44163964 0.031408725)
(2.2787965 -0.46239152 0.032066195)
(-0.0062943415 0.00062806871 0.00078634397)
(-0.0018672593 0.00099452015 -0.00080766728)
(0.0050505389 0.0022829722 -0.00025915894)
(0.016123582 0.0028209018 -0.00025187087)
(0.030814272 0.0027572428 0.00023843841)
(0.048505677 0.0029092029 0.00020787972)
(0.069039189 0.0016517451 0.0011425788)
(0.092504281 0.00067384703 0.001358393)
(0.11871925 -0.0015806913 0.001948802)
(0.14742314 -0.0039269443 0.0027220242)
(0.17860894 -0.007407929 0.0032733651)
(0.21234961 -0.011250732 0.0038966083)
(0.24816331 -0.015891865 0.0045445716)
(0.28628637 -0.021327298 0.0053043778)
(0.32636995 -0.027255109 0.0059526518)
(0.36853785 -0.034112067 0.006784005)
(0.41246366 -0.041477314 0.0075381859)
(0.45826791 -0.049743455 0.008398031)
(0.50568006 -0.058630495 0.0092555851)
(0.55480449 -0.068279223 0.010115311)
(0.60545041 -0.07867151 0.010994936)
(0.65770775 -0.089721567 0.011856247)
(0.71122086 -0.10151121 0.012718782)
(0.7661232 -0.11392835 0.013621397)
(0.82230481 -0.1270173 0.014454502)
(0.87972161 -0.1407493 0.015298752)
(0.93825762 -0.15508866 0.01617552)
(0.99789498 -0.1700559 0.017018529)
(1.0585719 -0.1855832 0.017828008)
(1.1202046 -0.20168686 0.018662665)
(1.1827688 -0.2182992 0.019440574)
(1.2461756 -0.23543783 0.020231333)
(1.3103735 -0.25303084 0.020992252)
(1.3753081 -0.27107685 0.021754666)
(1.4409084 -0.28951873 0.022495228)
(1.5071042 -0.30835738 0.023252755)
(1.5738744 -0.32750182 0.023984473)
(1.6410858 -0.34697974 0.024737894)
(1.7087232 -0.36673239 0.025506083)
(1.7767349 -0.38666861 0.026227428)
(1.8450897 -0.40688181 0.027004714)
(1.9136336 -0.42721952 0.027765032)
(1.9824889 -0.44765326 0.028499418)
(2.0513548 -0.46829357 0.029326961)
(2.1204637 -0.48887645 0.030043865)
(2.189465 -0.50956444 0.030885834)
(2.2586362 -0.53029464 0.031618903)
(-0.007235428 -0.0025882954 -0.0036197886)
(-0.0025090672 -0.003798703 -0.0049281257)
(0.003471187 -0.005594912 -0.0048792265)
(0.015040005 -0.0079500493 -0.005107547)
(0.028977838 -0.010608407 -0.0049656451)
(0.046653265 -0.01356613 -0.0044315061)
(0.066747753 -0.01739986 -0.0039961643)
(0.090217573 -0.021183596 -0.0036431636)
(0.11577541 -0.026071562 -0.0028028496)
(0.1443064 -0.031076321 -0.0022801925)
(0.1750018 -0.037006613 -0.0016698206)
(0.20812111 -0.043006885 -0.00084243324)
(0.24334858 -0.050167414 1.2649034e-05)
(0.28083577 -0.057458603 0.00084438802)
(0.32027917 -0.065710641 0.0017847797)
(0.36170237 -0.074419105 0.0027410236)
(0.40502201 -0.083845957 0.0036665501)
(0.45009309 -0.093877082 0.0046532194)
(0.49692458 -0.10453764 0.0056251232)
(0.54534296 -0.11586806 0.006619003)
(0.59538907 -0.12777262 0.00763187)
(0.64677313 -0.14035213 0.0086676391)
(0.69965677 -0.15348749 0.0097045891)
(0.75389034 -0.16730976 0.010701428)
(0.80946846 -0.18169884 0.011699781)
(0.86623732 -0.19665062 0.012708987)
(0.92421455 -0.21219199 0.013684251)
(0.98330236 -0.22825807 0.014615141)
(1.0434403 -0.24483605 0.015555395)
(1.1045701 -0.26190148 0.016457195)
(1.1666413 -0.27943223 0.0173511)
(1.2295829 -0.29741208 0.018235185)
(1.2933445 -0.31579582 0.019101728)
(1.3578671 -0.33455408 0.019956379)
(1.4230687 -0.35368442 0.020817876)
(1.4889353 -0.3730996 0.021653522)
(1.555344 -0.39281579 0.022500353)
(1.6222895 -0.41280743 0.023357741)
(1.6896742 -0.43295326 0.024155811)
(1.75753 -0.45333458 0.025028834)
(1.825626 -0.47384121 0.025873715)
(1.8940523 -0.49444874 0.026736756)
(1.9626839 -0.51516454 0.02758724)
(2.0314624 -0.53594143 0.028490318)
(2.1004483 -0.5566863 0.029308624)
(2.1694455 -0.57749309 0.030234055)
(2.2385511 -0.5982107 0.031097648)
(-0.006160955 -0.0059071886 -0.0090117951)
(-0.00072926176 -0.010076086 -0.01013298)
(0.0051221133 -0.01482784 -0.011413661)
(0.016196234 -0.020074554 -0.011443361)
(0.02998095 -0.025578131 -0.011055815)
(0.046984932 -0.031486602 -0.010455558)
(0.066902254 -0.038039782 -0.009865704)
(0.089547336 -0.044596476 -0.0089616762)
(0.11475242 -0.052092249 -0.0081377412)
(0.14254197 -0.059488714 -0.0072418702)
(0.17265861 -0.067826364 -0.0062699966)
(0.20506252 -0.076352244 -0.0053129084)
(0.23969219 -0.085591465 -0.0043972608)
(0.27644127 -0.095245126 -0.0033252431)
(0.31516247 -0.1054633 -0.0023372067)
(0.3559136 -0.11619218 -0.0012328194)
(0.39846193 -0.12749509 -0.00021106096)
(0.44287658 -0.13929896 0.00092940201)
(0.48893613 -0.15173942 0.0020106084)
(0.53667903 -0.16464163 0.003150317)
(0.58592961 -0.17822174 0.0042630528)
(0.63683524 -0.19215152 0.0054198009)
(0.68899972 -0.20677304 0.0064960152)
(0.74257889 -0.22204521 0.0076374338)
(0.79747285 -0.23768867 0.0087390465)
(0.85358116 -0.25389269 0.0098021911)
(0.91095183 -0.27052017 0.010865892)
(0.96941466 -0.28763699 0.011941988)
(1.0289622 -0.30517343 0.012970991)
(1.0895299 -0.32317138 0.014006971)
(1.1510516 -0.34156152 0.015017901)
(1.2134757 -0.36032863 0.016027469)
(1.2767498 -0.37944589 0.017012087)
(1.3407961 -0.39890002 0.018004391)
(1.4055848 -0.41861307 0.018969527)
(1.4710219 -0.4386133 0.019946053)
(1.537081 -0.4588281 0.020914804)
(1.6036693 -0.47921238 0.021873755)
(1.6707623 -0.49982185 0.022856217)
(1.7382518 -0.52049677 0.023819021)
(1.8061386 -0.54127557 0.024789865)
(1.8743585 -0.56211591 0.02574068)
(1.942776 -0.58304139 0.026733388)
(2.0114703 -0.60390552 0.027673127)
(2.0802752 -0.62477414 0.028648332)
(2.1492133 -0.64560126 0.029647041)
(2.2182746 -0.66627559 0.030644224)
(-0.0037586734 -0.010767095 -0.01270215)
(0.0013099926 -0.015953926 -0.014673405)
(0.006823142 -0.023924162 -0.016633682)
(0.017946948 -0.031625552 -0.0166702)
(0.030947602 -0.039930481 -0.016402312)
(0.048002575 -0.048886631 -0.015684741)
(0.067188713 -0.058096873 -0.014957436)
(0.089465156 -0.06754896 -0.013930166)
(0.11407037 -0.07768185 -0.013067987)
(0.14120049 -0.087534456 -0.011958203)
(0.17081109 -0.098683977 -0.010851525)
(0.2024287 -0.10919741 -0.0099542989)
(0.23651135 -0.12102731 -0.0086193498)
(0.27239794 -0.13265343 -0.0075926866)
(0.31055164 -0.14505941 -0.0063349367)
(0.35046874 -0.15772745 -0.0051824621)
(0.39237719 -0.17094021 -0.0039372632)
(0.43599371 -0.18460163 -0.0027158342)
(0.48135114 -0.19871807 -0.0014792871)
(0.52835099 -0.21333671 -0.00023249046)
(0.57693305 -0.22838877 0.00099958974)
(0.62695552 -0.24395367 0.0022673594)
(0.67855573 -0.2599648 0.0034819352)
(0.73142815 -0.27649349 0.0047253178)
(0.78564483 -0.29339655 0.0059038309)
(0.84111265 -0.31076268 0.0071056093)
(0.89781136 -0.32854017 0.0083233701)
(0.95566635 -0.34671284 0.0094786152)
(1.0146267 -0.36527838 0.010625133)
(1.0746136 -0.38421837 0.011765659)
(1.1355823 -0.40348017 0.012883385)
(1.1974851 -0.42307097 0.013994511)
(1.2602466 -0.44294677 0.015094089)
(1.3238324 -0.46307416 0.016181758)
(1.388163 -0.48343608 0.017265146)
(1.4531992 -0.50399824 0.018344595)
(1.5188638 -0.52471319 0.019410194)
(1.5851281 -0.54559766 0.020496277)
(1.651888 -0.56655226 0.02154407)
(1.7191158 -0.58760508 0.022621002)
(1.7867519 -0.6086823 0.023678594)
(1.8547348 -0.62981089 0.024754331)
(1.9229797 -0.65090791 0.025809702)
(1.9915004 -0.67195193 0.026844181)
(2.0601233 -0.69296731 0.027916611)
(2.1289637 -0.71385432 0.028928249)
(2.1978497 -0.73457541 0.030009056)
(0 0 0)
(0 0 0)
(0 0 0)
(0 0 0)
(0 0 0)
(0 0 0)
(0 0 0)
(0 0 0)
(0 0 0)
(0 0 0)
(0 0 0)
(0 0 0)
(0 0 0)
(0 0 0)
(0 0 0)
(0 0 0)
(0 0 0)
(0 0 0)
(0 0 0)
(0 0 0)
(0 0 0)
(0 0 0)
(0 0 0)
(0 0 0)
(0 0 0)
(0 0 0)
(0 0 0)
(0 0 0)
(0 0 0)
(0 0 0)
(0 0 0)
(0 0 0)
(0 0 0)
(0 0 0)
(0 0 0)
(0 0 0)
(0 0 0)
(0 0 0)
(0 0 0)
(0 0 0)
(0 0 0)
(0 0 0)
(0 0 0)
(0 0 0)
(0 0 0)
(0 0 0)
(0 0 0)
(0 0 0)
(0 0 0)
(0.0059176715 -0.0041762099 -0.0098671808)
(0.0074585848 -0.0054999788 -0.0069048959)
(0.0091112166 -0.0058385862 -0.0036438574)
(0.0097460864 -0.0061570907 -0.00099835868)
(0.0095187202 -0.0057383895 0.0016823096)
(0.0089600154 -0.0060732013 0.0046049539)
(0.0073624804 -0.0038595358 0.0077051462)
(0.011500996 -0.022167455 -0.016072077)
(0.014662441 -0.024993123 -0.0090770018)
(0.016124011 -0.023484421 -0.0043508506)
(0.016530567 -0.022812065 -0.00032307734)
(0.016671193 -0.02426334 0.0036449608)
(0.014893864 -0.023923194 0.008332935)
(0.013056494 -0.023752319 0.014437083)
(0.016467852 -0.031446834 -0.017168441)
(0.020638767 -0.030087046 -0.012389868)
(0.023353776 -0.031763032 -0.0056048777)
(0.023696934 -0.031745485 -0.00091035041)
(0.023552703 -0.031024429 0.0051249416)
(0.021467097 -0.031372429 0.0093684653)
(0.018613675 -0.032951305 0.017082704)
(0.027664223 -0.045958314 -0.017020247)
(0.031006963 -0.047157914 -0.011973087)
(0.033207434 -0.046781263 -0.0056097407)
(0.034095 -0.046922978 -0.00067375528)
(0.033662349 -0.047141721 0.0050603781)
(0.031691554 -0.048119858 0.011239959)
(0.028099846 -0.046995893 0.016640108)
(0.039913695 -0.05784724 -0.017288026)
(0.043937706 -0.057998797 -0.0121957)
(0.046791128 -0.058893206 -0.0059562869)
(0.047403454 -0.058782782 -0.00019714677)
(0.047129068 -0.059301079 0.0056440856)
(0.045069778 -0.059269167 0.011000577)
(0.04187784 -0.059858085 0.017635811)
(0.05627616 -0.070685506 -0.016188255)
(0.059549982 -0.071028345 -0.011344518)
(0.061880863 -0.071150503 -0.0053070868)
(0.062655997 -0.071943663 -0.00041426896)
(0.062171102 -0.07168043 0.0058127591)
(0.06010268 -0.072129519 0.0113152)
(0.056767832 -0.071751979 0.016731451)
(0.074627112 -0.082553991 -0.015632421)
(0.078095109 -0.083374864 -0.010491152)
(0.080533045 -0.084717612 -0.0050499752)
(0.081341933 -0.08496279 0.00022154938)
(0.080997729 -0.08564785 0.0060042587)
(0.079187301 -0.086247253 0.0110853)
(0.076064508 -0.085906149 0.017024684)
(0.095940229 -0.095515674 -0.014498787)
(0.099228922 -0.096612588 -0.0099857196)
(0.10139322 -0.097006901 -0.0043362812)
(0.10210898 -0.097642276 0.00064397573)
(0.1015411 -0.097637925 0.0058887935)
(0.099823561 -0.097541922 0.011239776)
(0.096587789 -0.097251424 0.01619566)
(0.11981386 -0.10816091 -0.013673749)
(0.12284123 -0.10900025 -0.0087161242)
(0.12494805 -0.11037326 -0.0037748703)
(0.12562411 -0.11100152 0.0009952069)
(0.12530102 -0.11191164 0.0062380279)
(0.12361672 -0.11199005 0.01121514)
(0.12072377 -0.11198092 0.016599233)
(0.14582022 -0.12090631 -0.012486958)
(0.14885725 -0.12238489 -0.0081346287)
(0.15081805 -0.12311016 -0.0032687736)
(0.15169164 -0.1242203 0.0017694478)
(0.15102818 -0.12412246 0.0065851814)
(0.14946236 -0.12411675 0.011338183)
(0.14656437 -0.12382743 0.016058284)
(0.17455343 -0.13428966 -0.011437714)
(0.17727427 -0.13548737 -0.0070409475)
(0.17922722 -0.1367796 -0.0020946511)
(0.17966515 -0.13717496 0.0021070504)
(0.17937233 -0.13797306 0.0069642551)
(0.17774292 -0.13825289 0.01139652)
(0.17494641 -0.13823303 0.016564885)
(0.20519966 -0.14734095 -0.010477755)
(0.20800357 -0.14893208 -0.0059149736)
(0.20957119 -0.15006856 -0.0018679598)
(0.21040986 -0.1512457 0.002818325)
(0.20987218 -0.1516617 0.0074138476)
(0.20817185 -0.15142139 0.011638543)
(0.20587719 -0.15155819 0.016289512)
(0.23831697 -0.16146439 -0.0091128756)
(0.24063583 -0.1626975 -0.0050156172)
(0.24240308 -0.16412931 -0.00075132345)
(0.24293742 -0.16469398 0.0035109828)
(0.24246415 -0.16514441 0.0078685338)
(0.24094069 -0.16574676 0.01190787)
(0.23849779 -0.16528221 0.016472051)
(0.27320206 -0.17508502 -0.0081406034)
(0.2755746 -0.17669092 -0.0040211602)
(0.2772934 -0.17811383 -0.00012316962)
(0.2777169 -0.17895446 0.00406913)
(0.27739592 -0.17991459 0.0083174367)
(0.2758307 -0.17977945 0.012133706)
(0.27368873 -0.1798116 0.016623068)
(0.31026684 -0.18975418 -0.0068940539)
(0.31255468 -0.19124263 -0.0029207665)
(0.31402303 -0.19247076 0.00080158997)
(0.31454476 -0.19344605 0.0049636838)
(0.3141203 -0.19385482 0.0087791081)
(0.31270998 -0.19414899 0.012679918)
(0.31052402 -0.19399964 0.016804417)
(0.34931023 -0.20425657 -0.0057147799)
(0.35137429 -0.20572089 -0.0019439081)
(0.35291603 -0.20732052 0.0017039566)
(0.35330689 -0.20816741 0.0054813895)
(0.35295922 -0.20898076 0.0094339337)
(0.35154101 -0.20921364 0.012960623)
(0.34950203 -0.20910193 0.01707383)
(0.39007938 -0.21932619 -0.004512896)
(0.39215982 -0.22099436 -0.00079124943)
(0.3935251 -0.2223427 0.0025477823)
(0.39392456 -0.22323251 0.0064400967)
(0.39357556 -0.22396687 0.0099803198)
(0.39224351 -0.2241222 0.013504517)
(0.39026801 -0.2241332 0.017392718)
(0.43281705 -0.23475967 -0.0032337977)
(0.43469497 -0.2363263 0.00017362692)
(0.43606209 -0.23780532 0.0035906749)
(0.43638473 -0.23881073 0.0071147215)
(0.43605426 -0.2395308 0.010613015)
(0.43474242 -0.23983716 0.013992402)
(0.43284348 -0.23975067 0.017711306)
(0.47715554 -0.25054026 -0.0020554751)
(0.478977 -0.25214035 0.0013585724)
(0.48025559 -0.25363852 0.004512953)
(0.48052625 -0.25452473 0.0079787185)
(0.48024238 -0.25533049 0.011309212)
(0.47896177 -0.25554417 0.014544934)
(0.47716748 -0.25563535 0.018083611)
(0.52320901 -0.26669976 -0.00074665123)
(0.52493839 -0.26835295 0.0024292927)
(0.52612687 -0.26979863 0.0055013533)
(0.5263891 -0.2708469 0.0088066182)
(0.52609746 -0.27157618 0.011965704)
(0.52485745 -0.27194291 0.015095281)
(0.5231462 -0.2719192 0.018471044)
(0.57085325 -0.28330111 0.00046903064)
(0.57245698 -0.28488771 0.0035479207)
(0.57359751 -0.28641496 0.0064979738)
(0.5738261 -0.28734667 0.0096441069)
(0.57354948 -0.28817096 0.012685846)
(0.57236557 -0.28844663 0.015678578)
(0.57072752 -0.28852916 0.018892306)
(0.62000116 -0.30022488 0.0017339321)
(0.62153634 -0.30189122 0.0046743328)
(0.6226093 -0.30332924 0.0074877315)
(0.62280617 -0.30437857 0.010495397)
(0.62254673 -0.30512299 0.013401033)
(0.62138855 -0.30550239 0.016258801)
(0.61983703 -0.30556128 0.019333305)
(0.6706249 -0.31761885 0.0029896731)
(0.67207472 -0.31920217 0.0057972594)
(0.67307026 -0.32069299 0.0084693683)
(0.67326735 -0.32167249 0.011342963)
(0.67299486 -0.3225003 0.014114253)
(0.67190728 -0.32285696 0.016838129)
(0.67043635 -0.3229411 0.019772162)
(0.72266437 -0.33530174 0.0042468797)
(0.72402488 -0.33697725 0.0068952532)
(0.72496893 -0.33836457 0.0094364949)
(0.72513165 -0.33944873 0.012196244)
(0.72489076 -0.34018944 0.014814341)
(0.72385378 -0.34056303 0.017427955)
(0.72243683 -0.34065677 0.020225713)
(0.7759985 -0.35342776 0.0054254904)
(0.77735375 -0.3550563 0.0079989518)
(0.77817668 -0.3564102 0.010394662)
(0.77838409 -0.35750043 0.013051528)
(0.77810082 -0.35823061 0.01549353)
(0.77710418 -0.35871677 0.018016069)
(0.77577686 -0.35884832 0.020616185)
(0.8306337 -0.37188814 0.0066394262)
(0.83195213 -0.37348481 0.0090513829)
(0.83266414 -0.3748585 0.011341512)
(0.8329002 -0.37594177 0.013911549)
(0.83256047 -0.37664725 0.016137642)
(0.83174047 -0.37714628 0.018534899)
(0.83048726 -0.37726238 0.020932041)
(0.88651264 -0.39071524 0.0078193268)
(0.88774029 -0.39227827 0.010033268)
(0.88844077 -0.39367446 0.012358383)
(0.88868299 -0.39471402 0.014553244)
(0.88843981 -0.39546283 0.016892563)
(0.8875786 -0.39597073 0.019132309)
(0.88634203 -0.39610193 0.021445981)
(0.94362813 -0.40986364 0.0089730135)
(0.94470891 -0.41139524 0.011112721)
(0.94543456 -0.41278991 0.013274843)
(0.94559661 -0.4137825 0.015337281)
(0.94537109 -0.41456996 0.017605564)
(0.94458006 -0.41501108 0.019621222)
(0.94341622 -0.41526983 0.021875891)
(1.001808 -0.42929883 0.01009811)
(1.0028575 -0.43086752 0.012172657)
(1.0034737 -0.43219832 0.014113921)
(1.0036793 -0.43321041 0.01617941)
(1.0034181 -0.43399685 0.018214487)
(1.002703 -0.43449346 0.020164367)
(1.0015985 -0.43473414 0.022287266)
(1.0610857 -0.44909004 0.011266248)
(1.0620176 -0.45057803 0.013155264)
(1.06264 -0.45192106 0.015047532)
(1.0628007 -0.45291767 0.01691874)
(1.0625672 -0.45373522 0.018865172)
(1.0619128 -0.45420614 0.02067533)
(1.0608745 -0.45450262 0.022678749)
(1.1213336 -0.46911016 0.01235591)
(1.1222275 -0.47060929 0.014168759)
(1.122791 -0.47191188 0.015885315)
(1.1229435 -0.47291173 0.017682818)
(1.1227333 -0.4737089 0.019471979)
(1.1221171 -0.47421328 0.021179065)
(1.1211584 -0.47452845 0.023037847)
(1.1825611 -0.48942114 0.013480964)