/*--------------------------------*- C++ -*----------------------------------*\
  =========                 |
  \\      /  F ield         | OpenFOAM: The Open Source CFD Toolbox
   \\    /   O peration     | Website:  https://openfoam.org
    \\  /    A nd           | Version:  6
     \\/     M anipulation  |
\*---------------------------------------------------------------------------*/
FoamFile
{
    version     2.0;
    format      ascii;
    class       pointVectorField;
    location    "1.54";
    object      u;
}
// * * * * * * * * * * * * * * * * * * * * * * * * * * * * * * * * * * * * * //

dimensions      [0 1 0 0 0 0 0];

internalField   nonuniform List<vector> 
3969
(
(0 0 0)
(0 0 0)
(0.48264673 0.057036008 0.026638527)
(0.46964715 -0.10313509 0.024425023)
(0 0 0)
(0 0 0)
(0.47046598 -0.11122432 0.024253025)
(0.48345149 0.048741898 0.026409296)
(0 0 0)
(0 0 0)
(0 0 0)
(0 0 0)
(0 0 0)
(0 0 0)
(0 0 0)
(0.48075121 0.036183024 0.025906994)
(0.47874641 0.016277385 0.025763188)
(0.47692688 -0.0033593228 0.025528797)
(0.47532176 -0.022875413 0.025512029)
(0.47383168 -0.042432115 0.0253796)
(0.47242986 -0.062152006 0.025306903)
(0.47118922 -0.082243388 0.024959613)
(-9.5640084e-05 0.00052785916 0.00076424878)
(-0.00038120709 0.00090541769 0.0010759898)
(-0.00056142505 0.0017849976 0.0013787059)
(-0.0004339113 0.00241695 0.001615221)
(-0.00022720501 0.0034930264 0.0018357104)
(0.00033100519 0.0043986949 0.0020268571)
(0.00099411183 0.0056372929 0.0022837704)
(0.0020703807 0.0067928258 0.0024734897)
(0.0033313557 0.0082332863 0.0027748157)
(0.0049844399 0.0095931143 0.0029923899)
(0.0069759366 0.011271187 0.0033127884)
(0.009319745 0.01284802 0.0036225735)
(0.012124209 0.014716896 0.003931563)
(0.015340377 0.01657572 0.0043078837)
(0.019083066 0.018610041 0.0046682641)
(0.023283129 0.020689812 0.0050655128)
(0.028075585 0.022916232 0.0054965941)
(0.033398961 0.025184992 0.0059431994)
(0.039361781 0.027559575 0.0064278326)
(0.045922741 0.029979938 0.0069274057)
(0.053166883 0.032452817 0.0074677073)
(0.061063112 0.03495915 0.0080219601)
(0.069674779 0.037476231 0.0086128521)
(0.078976176 0.039992062 0.0092269187)
(0.089012792 0.042454291 0.0098661129)
(0.099752554 0.044923199 0.010536868)
(0.11122485 0.047289582 0.01123375)
(0.12342767 0.049575509 0.011939281)
(0.13635193 0.051772203 0.012680523)
(0.1499672 0.053814188 0.013427572)
(0.16428703 0.055736555 0.014190836)
(0.17927381 0.0574818 0.014965752)
(0.19491247 0.059052054 0.01574083)
(0.21116727 0.060438972 0.016516588)
(0.22802652 0.061615925 0.017296888)
(0.24542956 0.062559526 0.018068337)
(0.26336842 0.06336249 0.018823804)
(0.28177264 0.063784395 0.019585382)
(0.30062243 0.064198427 0.020285498)
(0.31985799 0.064127425 0.021076687)
(0.33944966 0.064090703 0.021723843)
(0.3593036 0.06363854 0.022497099)
(0.37947764 0.062997681 0.023184994)
(0.39972463 0.062342583 0.023868077)
(0.4202572 0.061107326 0.024662905)
(0.44076576 0.060106198 0.025352972)
(0.4612887 0.058751517 0.026242041)
(-0.00028032604 -0.00038225602 -0.00063748534)
(-0.00050231594 -0.00083023018 -0.00084171844)
(-0.00083121101 -0.0012341413 -0.001394377)
(-0.00078590754 -0.0020797811 -0.0014768031)
(-0.00054017678 -0.0026972519 -0.001840887)
(-0.00013701544 -0.0036800877 -0.0019618245)
(0.00060153003 -0.0045076369 -0.0022256415)
(0.0015273808 -0.005653934 -0.0023697263)
(0.0027669573 -0.0066797024 -0.0025847363)
(0.0043393913 -0.0080214305 -0.0027193558)
(0.0062083498 -0.0092479613 -0.0028993039)
(0.0084920965 -0.0107722 -0.0030168972)
(0.011121035 -0.012253698 -0.0031505788)
(0.014221281 -0.013935295 -0.0032319012)
(0.017747941 -0.015694062 -0.0032936864)
(0.021785845 -0.017571002 -0.0033182533)
(0.026337181 -0.01955086 -0.0032910613)
(0.031445969 -0.021653543 -0.0032270274)
(0.03711826 -0.023837171 -0.0030960608)
(0.043432265 -0.026160657 -0.0029172113)
(0.05031449 -0.028553088 -0.002667214)
(0.057925038 -0.03106698 -0.0023612875)
(0.06613411 -0.033665154 -0.0019649166)
(0.07509524 -0.036375916 -0.0015114635)
(0.084680233 -0.039131134 -0.0009936159)
(0.095034645 -0.041997565 -0.0003906462)
(0.10598739 -0.044874518 0.00028357708)
(0.11775631 -0.047889118 0.0010385309)
(0.13019828 -0.05090543 0.0018379481)
(0.14332882 -0.053978652 0.0027215769)
(0.15715768 -0.057080341 0.0036569319)
(0.17164128 -0.060214598 0.0046558602)
(0.1867839 -0.063350193 0.0057064291)
(0.20254438 -0.066495028 0.0068043522)
(0.21890447 -0.06961067 0.0079441981)
(0.23583423 -0.072718892 0.009119922)
(0.25329755 -0.075762346 0.010324629)
(0.27124638 -0.078750721 0.011556994)
(0.28969046 -0.081701919 0.012811837)
(0.30852508 -0.084513466 0.014072983)
(0.32774418 -0.087268727 0.015356181)
(0.34731543 -0.089924192 0.016641022)
(0.36714113 -0.092407927 0.017920062)
(0.38724941 -0.094819939 0.019215896)
(0.40750101 -0.097058804 0.020491931)
(0.42798228 -0.099157283 0.021750184)
(0.44852223 -0.10121595 0.023038999)
(0 0 0)
(0 0 0)
(0 0 0)
(0 0 0)
(0 0 0)
(0 0 0)
(0 0 0)
(-6.0175946e-05 -0.00020017794 0.00040435953)
(-0.00032061689 -0.00099144282 0.00075193438)
(-0.00049702292 -0.0012242155 0.0009470962)
(-0.00037516939 -0.0022718683 0.0011023185)
(-4.918597e-05 -0.0029045967 0.0013105252)
(0.00045788743 -0.003940968 0.0013865803)
(0.0013129435 -0.0049947101 0.0016220172)
(0.0022698004 -0.0060479057 0.0017133363)
(0.0036831931 -0.0074673042 0.0019865325)
(0.0052738796 -0.0086893189 0.0020896997)
(0.0072778638 -0.010365817 0.0024368984)
(0.0096079811 -0.011884689 0.0026440547)
(0.012319534 -0.013628546 0.0029438072)
(0.015505251 -0.015595939 0.0032673998)
(0.019112147 -0.017444567 0.0035613201)
(0.023194395 -0.01974761 0.0039822799)
(0.027821487 -0.02184369 0.0043169162)
(0.032949122 -0.024365032 0.0047853413)
(0.038683773 -0.026768868 0.005198126)
(0.044985077 -0.029471537 0.0056997923)
(0.05192218 -0.032151241 0.0061893838)
(0.059486211 -0.035036471 0.006738629)
(0.067717344 -0.0379399 0.0072897427)
(0.076604361 -0.04097799 0.0078882034)
(0.086204963 -0.044090976 0.0084818047)
(0.096578413 -0.047273364 0.0090588828)
(0.10754659 -0.05054846 0.0097276323)
(0.11923159 -0.053836486 0.010383571)
(0.13160868 -0.057180894 0.011081626)
(0.14468573 -0.060533517 0.011776138)
(0.15843993 -0.063894811 0.012475872)
(0.17286356 -0.067258104 0.013187962)
(0.18793808 -0.070613076 0.013904851)
(0.20363595 -0.073920997 0.014615159)
(0.21994084 -0.077208297 0.015324344)
(0.23683778 -0.080450555 0.016047295)
(0.25420539 -0.083535991 0.016727307)
(0.27217048 -0.086712366 0.017449685)
(0.29053073 -0.089661118 0.01814255)
(0.30936713 -0.092575197 0.018833612)
(0.32856189 -0.09535423 0.01951598)
(0.34812291 -0.098029857 0.020206017)
(0.36794703 -0.10055593 0.020891784)
(0.3880547 -0.10296321 0.021580032)
(0.40831979 -0.10520565 0.022275208)
(0.42879195 -0.10731566 0.022997354)
(0.44929262 -0.10938862 0.023689848)
(0.47208106 -0.09032119 0.024313704)
(0.47326692 -0.070375403 0.024533299)
(0.47463359 -0.050563987 0.024953628)
(0.47617125 -0.031179428 0.02533658)
(0.47770883 -0.01158595 0.025864022)
(0.47950257 0.0079983507 0.026160376)
(0.48161625 0.027864014 0.026509009)
(0.46227975 0.050482534 0.024875449)
(0.44152452 0.051722097 0.023650653)
(0.42100335 0.052936394 0.022356352)
(0.40052754 0.053985312 0.021085848)
(0.38019289 0.054820489 0.019765179)
(0.36005007 0.055473052 0.01844023)
(0.34015389 0.055899138 0.017132962)
(0.32054531 0.056123013 0.015815551)
(0.3012723 0.056131364 0.014514524)
(0.28240614 0.055949177 0.01321727)
(0.26388682 0.055563198 0.011960566)
(0.2461298 0.05481324 0.010796601)
(0.22851825 0.054130493 0.0095079726)
(0.2116916 0.053083992 0.0083759082)
(0.19537752 0.051926272 0.0072277414)
(0.17971198 0.050578305 0.0061537052)
(0.16468432 0.049090518 0.005126546)
(0.15034749 0.047446203 0.0041579208)
(0.13669539 0.045694536 0.003251158)
(0.12376422 0.043812732 0.0024158864)
(0.11155332 0.041859356 0.0016395978)
(0.10006636 0.03981482 0.00094031384)
(0.089326232 0.037717898 0.00031430524)
(0.079298987 0.035573383 -0.00024259141)
(0.070003649 0.033414979 -0.00073505748)
(0.061413467 0.031230878 -0.0011456262)
(0.053521746 0.029078607 -0.0015071571)
(0.046302117 0.026915737 -0.001782392)
(0.039747047 0.024825608 -0.0020216928)
(0.033808061 0.022741909 -0.0021799668)
(0.028481015 0.020756873 -0.0023120256)
(0.023720647 0.018808609 -0.0023808965)
(0.019497969 0.016955826 -0.0024101429)
(0.015779711 0.015144169 -0.0024057664)
(0.012583112 0.013484424 -0.0023902203)
(0.0097724268 0.011857759 -0.0022957685)
(0.0073952438 0.010397577 -0.0022699852)
(0.0053907969 0.0089033431 -0.0021261949)
(0.0037037313 0.0076553418 -0.0020883426)
(0.0023875696 0.0063206024 -0.0019365292)
(0.0013549294 0.0053569173 -0.0018551459)
(0.00054288932 0.0041102232 -0.0016775954)
(4.3570295e-05 0.0033423862 -0.0016030474)
(-0.0003172662 0.0023108703 -0.001379896)
(-0.00034204509 0.0016840444 -0.0012412809)
(-0.00036342776 0.00091103271 -0.0009864689)
(0.00027932519 0.00045309646 -0.00045491753)
(0 0 0)
(0 0 0)
(0 0 0)
(0 0 0)
(0 0 0)
(0 0 0)
(0 0 0)
(0 0 0)
(0 0 0)
(0 0 0)
(0 0 0)
(0 0 0)
(0 0 0)
(0 0 0)
(0.46981295 -0.10442689 0.024333111)
(0.46998588 -0.10555924 0.024330555)
(0.47011139 -0.10662768 0.024320189)
(0.47023171 -0.10767596 0.024366198)
(0.47033648 -0.10870304 0.024380071)
(0.47040425 -0.10962974 0.024422052)
(0.47047275 -0.11061226 0.024306819)
(0.48299811 0.0563299 0.02664415)
(0.48314604 0.055313947 0.026656272)
(0.48327839 0.054327822 0.026573377)
(0.4834032 0.053314844 0.026508348)
(0.48349322 0.052279648 0.026445204)
(0.48354863 0.051182891 0.026389733)
(0.48365525 0.05015713 0.026409891)
(-0.0010595086 -0.0085137822 0.00068885117)
(-0.0021754619 -0.016993253 0.00077358869)
(-0.0032184944 -0.025092011 0.0010224187)
(-0.0039195267 -0.032692421 0.0011963361)
(-0.0045038211 -0.039610961 0.0013206839)
(-0.0046732464 -0.045692119 0.0015178339)
(-0.004759824 -0.05093465 0.0016653497)
(-0.0042834669 -0.055027621 0.0018558394)
(-0.0036409157 -0.058102851 0.0020217012)
(-0.0024637422 -0.059956975 0.0022559493)
(-0.00094398544 -0.060540857 0.0024775298)
(0.0011355735 -0.059909505 0.0027013973)
(0.0036597079 -0.057911897 0.0030063656)
(0.0068124309 -0.054718963 0.0032788782)
(0.010529164 -0.050220673 0.0036165166)
(0.014914618 -0.044575122 0.0039724994)
(0.020005455 -0.037777187 0.004353176)
(0.02579277 -0.029999628 0.0047767998)
(0.032371382 -0.021280328 0.0052269218)
(0.039723926 -0.011812355 0.0057166592)
(0.047903697 -0.0017048822 0.0062433362)
(0.056901171 0.00887298 0.0068049247)
(0.066754489 0.019751646 0.0074064676)
(0.077415346 0.030746769 0.0080461112)
(0.088942684 0.041714214 0.0087193719)
(0.10126057 0.052430263 0.0094059064)
(0.11436004 0.062748107 0.010137498)
(0.12820119 0.072517793 0.010896957)
(0.14275615 0.081530866 0.011661194)
(0.1579407 0.089692523 0.012451213)
(0.17373175 0.096852216 0.013253108)
(0.19005411 0.10288675 0.014059634)
(0.2068419 0.10773045 0.014868094)
(0.22404417 0.11128763 0.015683914)
(0.24159766 0.11350989 0.016488846)
(0.2594089 0.11439385 0.017293376)
(0.27749014 0.1138964 0.018076653)
(0.29570621 0.11203763 0.018873085)
(0.31409405 0.10892744 0.019642637)
(0.33253428 0.10447161 0.02043057)
(0.35102609 0.09896532 0.021168064)
(0.36957022 0.092192354 0.021973559)
(0.38808605 0.084665331 0.022658111)
(0.40657379 0.076110895 0.02346262)
(0.42510559 0.066848816 0.02417669)
(0.44343865 0.057194834 0.024884055)
(0.46195241 0.046704701 0.025540147)
(-0.0016319499 -0.012423536 0.00050862557)
(-0.0030597592 -0.024831945 0.0005153181)
(-0.0043723802 -0.036498749 0.00072004749)
(-0.0054347889 -0.047740739 0.00077989768)
(-0.0062742679 -0.057906165 0.00092790373)
(-0.006938372 -0.067143297 0.0010200906)
(-0.0071631761 -0.074992765 0.0011562208)
(-0.0071240298 -0.081537641 0.0012307757)
(-0.0066721065 -0.086529239 0.0014420035)
(-0.005802549 -0.089927856 0.0015657024)
(-0.0043908288 -0.091576091 0.00171498)
(-0.0025548653 -0.091589816 0.001949399)
(-7.6873006e-05 -0.089738992 0.0021365487)
(0.0029915434 -0.086258076 0.0023807842)
(0.0067208078 -0.081009431 0.0026573839)
(0.011163692 -0.07420186 0.0029352592)
(0.016331566 -0.065835878 0.0032639904)
(0.022295808 -0.056119968 0.0036290024)
(0.029097398 -0.045156934 0.0040219224)
(0.036751149 -0.033164083 0.0044661525)
(0.045300676 -0.020318052 0.0049483222)
(0.054747364 -0.0068296291 0.0054650129)
(0.065078107 0.00703877 0.0060451621)
(0.076331048 0.02112787 0.0066493175)
(0.088452232 0.035107594 0.0072972713)
(0.10139261 0.048824428 0.0080162855)
(0.11515466 0.061975973 0.0087663555)
(0.12967611 0.074380101 0.0095230133)
(0.14486222 0.085822362 0.010352575)
(0.16068799 0.09609921 0.011184565)
(0.17706095 0.1050432 0.012042093)
(0.19390057 0.11250629 0.012918634)
(0.211133 0.11836731 0.013798494)
(0.22869348 0.12252502 0.014686608)
(0.24646752 0.12492738 0.015567946)
(0.26444182 0.12550963 0.016452529)
(0.28251806 0.12431614 0.017311657)
(0.30061328 0.12125961 0.018197495)
(0.31878471 0.11661909 0.018993438)
(0.33681117 0.11010994 0.019880452)
(0.35492545 0.10227882 0.020638718)
(0.37281661 0.092821298 0.021481667)
(0.3907341 0.082266038 0.022229458)
(0.40845033 0.070448607 0.023043993)
(0.42614433 0.057798334 0.023770408)
(0.44371074 0.044370819 0.024487813)
(0.46137804 0.030364588 0.025148419)
(-0.0015940413 -0.0088641736 0.00036034789)
(-0.0026117048 -0.017585361 0.00037511114)
(-0.0036865856 -0.02597343 0.00043847038)
(-0.0043870052 -0.033848134 0.00048398637)
(-0.0050688146 -0.041168901 0.00054851968)
(-0.0052527009 -0.047597301 0.00058458877)
(-0.0053598345 -0.053316645 0.00062841021)
(-0.004983558 -0.057915911 0.00073215201)
(-0.0043906265 -0.061577615 0.00081988809)
(-0.003211147 -0.063999304 0.00086455413)
(-0.0018273739 -0.065301473 0.0010512074)
(0.00020502822 -0.065396225 0.0011745796)
(0.00265215 -0.064196313 0.0013131508)
(0.0056997002 -0.061879715 0.0015368262)
(0.0093266686 -0.058303515 0.0017525436)
(0.013612482 -0.053645676 0.0019938129)
(0.018586917 -0.047912533 0.0022995285)
(0.024292336 -0.041239209 0.0025936512)
(0.030761907 -0.033713321 0.0029747627)
(0.038006431 -0.025476264 0.0033703862)
(0.0460695 -0.016650641 0.0038286941)
(0.05493827 -0.0074218381 0.0043334028)
(0.064692657 0.0021152624 0.0048834718)
(0.075250882 0.011703151 0.0054708919)
(0.086635951 0.021250618 0.0061429123)
(0.098843634 0.030552197 0.006818292)
(0.11186255 0.039457215 0.0075236907)
(0.12560473 0.047814663 0.0082982811)
(0.14006469 0.055471211 0.0090872628)
(0.15517466 0.062287675 0.009898366)
(0.1708779 0.068154305 0.010752016)
(0.18711997 0.072960647 0.011609395)
(0.20384679 0.076616608 0.01249056)
(0.2209699 0.07907917 0.013375094)
(0.23846034 0.080251807 0.014280667)
(0.25623781 0.080190696 0.015164612)
(0.27423109 0.078771732 0.016083964)
(0.29245105 0.076185693 0.016956635)
(0.31078102 0.072278341 0.01786063)
(0.32919945 0.067217204 0.018779548)
(0.34771765 0.061155913 0.019609241)
(0.36617812 0.053867131 0.020596161)
(0.3847818 0.045941201 0.021369966)
(0.403243 0.036977257 0.022344992)
(0.42188331 0.027502377 0.023110411)
(0.44034364 0.017497726 0.023982856)
(0.45884564 0.0070701647 0.024804932)
(-0.00085697638 0.00010595448 9.2867777e-05)
(-0.0010484693 0.00010062116 2.384993e-05)
(-0.0013757614 0.00025247119 4.2385942e-05)
(-0.0013904482 0.00030293748 4.8945674e-05)
(-0.0011713463 0.00043896786 5.2302683e-05)
(-0.0008754667 0.00053860205 5.8552419e-05)
(-0.00017929342 0.00063247311 0.00011507271)
(0.00060288717 0.00077681622 0.00014247759)
(0.0018643986 0.00089089976 0.00016995233)
(0.003259439 0.0010226324 0.00030805982)
(0.0051324951 0.0011267093 0.00037900421)
(0.0073440076 0.0012697624 0.00043900138)
(0.0099367711 0.0014366994 0.00058639721)
(0.013042224 0.0014933407 0.00074268137)
(0.016546576 0.0017021011 0.00086889945)
(0.02063841 0.0017642984 0.001093734)
(0.025197354 0.0019304574 0.0012886868)
(0.030375557 0.001996687 0.0015723511)
(0.036117992 0.002085764 0.0018708625)
(0.042511024 0.00213307 0.0022069957)
(0.049555959 0.0021361296 0.0025981454)
(0.057306458 0.0021401591 0.0030080876)
(0.065704708 0.0020445028 0.0034826486)
(0.07481846 0.0019355648 0.0040106377)
(0.084667105 0.001772547 0.004555093)
(0.09524096 0.0015562806 0.0051499964)
(0.10651684 0.0012706425 0.0058349313)
(0.11851719 0.00090610286 0.0065461592)
(0.13124211 0.00047724248 0.0072936692)
(0.14467027 -4.8633627e-05 0.0081100578)
(0.15879541 -0.00064798911 0.0089420388)
(0.17360517 -0.0013457011 0.0098225134)
(0.18905644 -0.0021293787 0.01072409)
(0.20515514 -0.003009784 0.011664053)
(0.22184132 -0.0039685377 0.012606063)
(0.23909798 -0.0050505216 0.013593939)
(0.25690292 -0.0061656338 0.014561247)
(0.27517805 -0.0074237401 0.015563301)
(0.29390791 -0.0087473636 0.016573927)
(0.31304694 -0.010096657 0.017548208)
(0.33259129 -0.011584523 0.018574956)
(0.35240732 -0.013106244 0.019575022)
(0.37260074 -0.014602846 0.020528679)
(0.39291263 -0.016312146 0.021600676)
(0.41353359 -0.017852736 0.022512968)
(0.4341205 -0.019576703 0.023600776)
(0.45497029 -0.021272789 0.024521227)
(-8.2213769e-05 0.008949324 -0.00017518293)
(0.00048681768 0.017704475 -0.00017268192)
(0.00087417936 0.026240695 -0.00026733899)
(0.0017780304 0.03426253 -0.00033519398)
(0.0025223776 0.04164691 -0.00037731022)
(0.0037550569 0.048398013 -0.00044474562)
(0.0049471678 0.05410996 -0.00044242594)
(0.0065577648 0.059089017 -0.00054951621)
(0.0082037512 0.06276288 -0.00047081494)
(0.010226406 0.065514088 -0.00050678734)
(0.012419667 0.06698339 -0.00052393243)
(0.014916837 0.067353641 -0.00044633231)
(0.017698149 0.066385203 -0.00035853439)
(0.02079354 0.064319277 -0.000285536)
(0.024213625 0.061037384 -0.00012506469)
(0.028013669 0.056620308 3.0736834e-05)
(0.032171365 0.051197193 0.00023904137)
(0.0367603 0.044742371 0.00047336125)
(0.04176214 0.037493531 0.00074370915)
(0.0472414 0.029427041 0.0010642792)
(0.053201223 0.02081095 0.0014173786)
(0.059655973 0.011639291 0.0018328491)
(0.066686709 0.0021634725 0.0022982584)
(0.074282373 -0.007530765 0.0027823854)
(0.082522964 -0.017264915 0.003332355)
(0.091377573 -0.026891473 0.0039360838)
(0.10093878 -0.036283974 0.0045796292)
(0.11120948 -0.045264238 0.0052365829)
(0.12223022 -0.053723249 0.0059659713)
(0.1340122 -0.061524532 0.0067153231)
(0.14660521 -0.068563292 0.0075164092)
(0.16000725 -0.074736913 0.0083499069)
(0.17425433 -0.079982424 0.0092345776)
(0.18933867 -0.084184482 0.010129562)
(0.20526899 -0.087378647 0.011093823)
(0.22204977 -0.089427645 0.012051177)
(0.23963648 -0.09041541 0.013063122)
(0.25804703 -0.090324756 0.014104487)
(0.27719062 -0.08911931 0.015119931)
(0.29714593 -0.086893164 0.016212958)
(0.31767535 -0.083729962 0.017294084)
(0.33886345 -0.079635453 0.018399824)
(0.36056423 -0.074793577 0.019521069)
(0.3827066 -0.069257565 0.02068138)
(0.40528709 -0.063070524 0.021777456)
(0.42811215 -0.056519795 0.022979761)
(0.45119036 -0.049559339 0.024121764)
(0.00034477013 0.01258894 -0.00038846165)
(0.0012777385 0.024810606 -0.00044897463)
(0.002060218 0.036799957 -0.00073868042)
(0.0031509999 0.047853098 -0.00075374716)
(0.0043940087 0.05829022 -0.00097574331)
(0.0058006637 0.067421072 -0.00099233461)
(0.0074306453 0.075463836 -0.0011617585)
(0.009187565 0.08206042 -0.0011854126)
(0.011196373 0.087127576 -0.001254539)
(0.01335907 0.090680618 -0.0013287276)
(0.015773242 0.092469577 -0.0013352146)
(0.01838275 0.092588659 -0.0013230247)
(0.021245209 0.090979092 -0.0013328708)
(0.02436872 0.087646505 -0.0012548298)
(0.027740017 0.082685858 -0.0011936475)
(0.03143807 0.076100243 -0.0010622226)
(0.035412384 0.068059907 -0.00093081553)
(0.039753976 0.058630388 -0.0007330746)
(0.044432158 0.047991027 -0.00050449344)
(0.049518568 0.036288757 -0.00023640197)
(0.054996462 0.023706783 7.8275259e-05)
(0.060993042 0.010502671 0.00045731407)
(0.067392864 -0.0032351586 0.00084049572)
(0.07439748 -0.017285708 0.0012995538)
(0.081926816 -0.031301616 0.0018047743)
(0.090097911 -0.045194945 0.0023447964)
(0.098937632 -0.058654461 0.0029409669)
(0.10846865 -0.071552963 0.0035954263)
(0.11874282 -0.083638316 0.004289917)
(0.12983079 -0.094792918 0.005046154)
(0.14174193 -0.10481959 0.0058474294)
(0.1545299 -0.11359507 0.0067096976)
(0.1682182 -0.12098323 0.0076088631)
(0.18283082 -0.12692378 0.0085684867)
(0.19838452 -0.13128844 0.0095589181)
(0.21487605 -0.13410092 0.010601793)
(0.23232359 -0.13529805 0.011682137)
(0.25066235 -0.1348892 0.012786893)
(0.26993997 -0.13296946 0.013939828)
(0.290033 -0.12953882 0.015098555)
(0.31091452 -0.1246231 0.016286204)
(0.33256666 -0.11844129 0.017496747)
(0.35481717 -0.11112468 0.018738726)
(0.37768553 -0.10270218 0.019961852)
(0.40096973 -0.093437135 0.021220817)
(0.42464758 -0.083487497 0.022532052)
(0.44859316 -0.072908676 0.023845014)
(0.00029120058 0.0085462658 -0.00055381322)
(0.0008205468 0.017052165 -0.0007351647)
(0.0012397648 0.025198679 -0.001004145)
(0.0021060222 0.032844677 -0.0011961157)
(0.0029298069 0.039786795 -0.0013877456)
(0.0041741305 0.045941694 -0.0015220254)
(0.0054231002 0.051150803 -0.0017085234)
(0.0070284837 0.055411196 -0.0018094127)
(0.0087492809 0.058468413 -0.0019637843)
(0.010759197 0.060497757 -0.0020563627)
(0.013009692 0.061120672 -0.0021231168)
(0.015488562 0.06069794 -0.0022496828)
(0.018316833 0.058850238 -0.0022349631)
(0.021389695 0.055867723 -0.0022717144)
(0.024827102 0.051620346 -0.0022372223)
(0.028596493 0.046242408 -0.0021803906)
(0.032740798 0.039771048 -0.0020777793)
(0.03729783 0.032298473 -0.0019244765)
(0.04225057 0.023937205 -0.0017420037)
(0.047680448 0.014799745 -0.0014937966)
(0.053577779 0.0050217322 -0.0012077389)
(0.059962311 -0.0052684835 -0.00085555681)
(0.066940906 -0.015904622 -0.00045962102)
(0.07445788 -0.026786582 9.8684497e-06)
(0.082576605 -0.03768576 0.00050395051)
(0.091339734 -0.048504018 0.0010736423)
(0.1007612 -0.059068503 0.0017129547)
(0.11089938 -0.069223739 0.0023850191)
(0.12178408 -0.078848761 0.0031213328)
(0.13343849 -0.087833436 0.0039207698)
(0.14587419 -0.096031907 0.0047642587)
(0.1591346 -0.10335736 0.0056688606)
(0.17322058 -0.10972768 0.0066190363)
(0.18814835 -0.11504829 0.0076172207)
(0.20392097 -0.11929381 0.0086615295)
(0.22053298 -0.12239969 0.0097446164)
(0.23795697 -0.1243624 0.010863478)
(0.2562092 -0.12518497 0.012031801)
(0.27520558 -0.12486817 0.013200118)
(0.29493311 -0.12346938 0.014420364)
(0.31532777 -0.12099498 0.0156514)
(0.33635443 -0.11759036 0.016920294)
(0.35789239 -0.11328977 0.018191805)
(0.37992768 -0.10815334 0.019458354)
(0.40228518 -0.10241796 0.020788937)
(0.4250128 -0.09603756 0.022070945)
(0.44786048 -0.089202953 0.023441304)
(0 0 0)
(0 0 0)
(0 0 0)
(0 0 0)
(0 0 0)
(0 0 0)
(0 0 0)
(0 0 0)
(0 0 0)
(0 0 0)
(0 0 0)
(0 0 0)
(0 0 0)
(0 0 0)
(0 0 0)
(0 0 0)
(0 0 0)
(0 0 0)
(0 0 0)
(0 0 0)
(0 0 0)
(0 0 0)
(0 0 0)
(0 0 0)
(0 0 0)
(0 0 0)
(0 0 0)
(0 0 0)
(0 0 0)
(0 0 0)
(0 0 0)
(0 0 0)
(0 0 0)
(0 0 0)
(0 0 0)
(0 0 0)
(0 0 0)
(0 0 0)
(0 0 0)
(0 0 0)
(0 0 0)
(0 0 0)
(0 0 0)
(0 0 0)
(0 0 0)
(0 0 0)
(0 0 0)
(0 0 0)
(0 0 0)
(-0.00012417797 -2.9100638e-05 -0.00036800367)
(-4.204362e-05 -6.6431951e-05 -0.00032890644)
(1.6437635e-05 -7.6918022e-05 -0.00019507761)
(4.9897592e-05 -8.0070703e-05 -0.00010952665)
(4.8550742e-05 -8.0487535e-05 1.5554494e-06)
(3.4157459e-05 -0.00010247827 0.00010950457)
(-2.9477565e-05 -2.2006161e-05 0.00021388575)
(-0.00028588039 -0.00065296495 -0.00075182911)
(-0.00015319218 -0.00078159115 -0.00047021931)
(-7.5757551e-05 -0.00074176841 -0.00029516773)
(-1.604665e-05 -0.00074796081 -0.00010302646)
(-2.5809377e-05 -0.00081375674 4.8951347e-05)
(-6.3832269e-05 -0.00080698829 0.00026690008)
(-0.00015432213 -0.00077500636 0.00049399323)
(-0.00053476443 -0.00097016654 -0.0010383041)
(-0.00026092347 -0.00087236967 -0.00081464291)
(-0.00010226724 -0.00099021546 -0.00043052626)
(-4.9000329e-05 -0.0010221089 -0.00025197378)
(-1.2701711e-05 -0.0010206719 0.00010286311)
(-0.00010110251 -0.0010430768 0.00032634147)
(-0.00025036449 -0.0011758708 0.00069857873)
(-0.00035359009 -0.0019260824 -0.0011619084)
(-0.0001665015 -0.0020084843 -0.00086962911)
(2.2582391e-05 -0.0020247575 -0.00054271079)
(0.00011034327 -0.0020440103 -0.00025918992)
(0.00013383987 -0.0020523214 9.6670824e-05)
(1.1535561e-05 -0.0021654266 0.0003935167)
(-9.5666201e-05 -0.0021094765 0.00075790149)
(-0.00015485324 -0.0025234845 -0.0014511543)
(0.0001915 -0.0025170235 -0.001097227)
(0.00044742112 -0.0025314282 -0.00067764711)
(0.00054512999 -0.0025720136 -0.00027252236)
(0.00055516823 -0.0026972611 0.0001053895)
(0.00048737255 -0.0027030626 0.00048156284)
(0.00027394241 -0.0027997298 0.00093375547)
(0.00036993122 -0.0035776529 -0.0015401684)
(0.00069426474 -0.0036065206 -0.0012059713)
(0.00095057135 -0.0036058357 -0.00069682482)
(0.0010438805 -0.0037050044 -0.00039631409)
(0.0011161118 -0.003676514 0.00013275069)
(0.00095029461 -0.003753306 0.00053198486)
(0.0007862385 -0.0038213503 0.00096794087)
(0.0011247994 -0.0043973364 -0.0017780301)
(0.0015105137 -0.0043629302 -0.0012756335)
(0.00178338 -0.0044831546 -0.00085001942)
(0.0019585445 -0.0045067164 -0.00034857647)
(0.0019735455 -0.0046468688 0.00013230621)
(0.0018822125 -0.0047864421 0.00058735732)
(0.001671719 -0.0048452591 0.0011419621)
(0.0020857831 -0.0055297711 -0.0018495309)
(0.0025302747 -0.0056565951 -0.0014739683)
(0.0028688805 -0.0056641184 -0.00083387357)
(0.0029922711 -0.0057460177 -0.00036494994)
(0.0030163833 -0.0058002605 0.00014125597)
(0.002930764 -0.0058546601 0.0006967451)
(0.0026591096 -0.0059100701 0.0012249474)
(0.0034443004 -0.006670359 -0.0020609155)
(0.0038988129 -0.0066340444 -0.0014618505)
(0.0042280848 -0.0067185531 -0.00089893582)
(0.004387652 -0.0068742659 -0.00039254529)
(0.0044493573 -0.0070239432 0.0002338727)
(0.00433148 -0.0071630558 0.00077229823)
(0.0040813488 -0.0073179542 0.0013951626)
(0.0049914979 -0.0078682986 -0.0021295027)
(0.005518992 -0.0080470844 -0.0015885203)
(0.005863883 -0.0081275042 -0.0010139019)
(0.0061113897 -0.0082942512 -0.00033520059)
(0.0061281632 -0.0083336738 0.00023993988)
(0.0060006824 -0.008453718 0.00088593435)
(0.0057427155 -0.0085155882 0.0015148768)
(0.0069888639 -0.0092698858 -0.0022525634)
(0.0075021442 -0.0093358929 -0.001663553)
(0.0079396573 -0.0094420146 -0.00090356865)
(0.0081128847 -0.009530717 -0.00033122452)
(0.0081530208 -0.009732595 0.00037489742)
(0.0080250589 -0.0098775969 0.0010244842)
(0.0077369295 -0.010118153 0.001716383)
(0.0092315092 -0.010647575 -0.002369283)
(0.0098896576 -0.010845126 -0.0016668703)
(0.010282594 -0.011008867 -0.00099610957)
(0.010520454 -0.011282429 -0.00028868038)
(0.010595207 -0.011410993 0.00046811878)
(0.010433716 -0.011559206 0.0011358809)
(0.010161776 -0.011709714 0.0019607287)
(0.012016753 -0.012300359 -0.0024153227)
(0.01260491 -0.012443276 -0.001688674)
(0.013071337 -0.012620828 -0.00093464113)
(0.013319307 -0.012725014 -0.0001715241)
(0.013382429 -0.01290998 0.00059754957)
(0.013191617 -0.01312938 0.001357179)
(0.012894577 -0.013331633 0.0021600729)
(0.015131457 -0.013926203 -0.002472668)
(0.015782211 -0.014154828 -0.0016797051)
(0.01630534 -0.014378513 -0.00090511714)
(0.016542604 -0.014658018 -9.9483704e-05)
(0.016598393 -0.014910504 0.00075647918)
(0.016441616 -0.015124912 0.0015159815)
(0.016118417 -0.015332959 0.0024417495)
(0.018725305 -0.015772459 -0.0024870145)
(0.019426924 -0.016002975 -0.0016258685)
(0.019952331 -0.016234831 -0.00083028006)
(0.020196537 -0.016438818 8.016112e-05)
(0.020305918 -0.016656489 0.00091717073)
(0.020090502 -0.016883116 0.001782415)
(0.019758563 -0.017143867 0.0027088465)
(0.022827234 -0.017670324 -0.0024605137)
(0.023558383 -0.017960514 -0.0015668311)
(0.024096139 -0.018225406 -0.00070330936)
(0.024402306 -0.018551655 0.0002054992)
(0.024444083 -0.018842259 0.0011464097)
(0.024262445 -0.019147644 0.0020215994)
(0.023896443 -0.019390265 0.0030447956)
(0.027416733 -0.019714466 -0.0024060826)
(0.028177343 -0.020014182 -0.0014381868)
(0.028775856 -0.020339768 -0.00057028716)
(0.029035242 -0.020613521 0.00044006544)
(0.02914217 -0.020922856 0.0013864091)
(0.028919432 -0.021182685 0.0023280135)
(0.028536833 -0.02151152 0.0033789687)
(0.032574876 -0.021858157 -0.0022802073)
(0.033396559 -0.02224589 -0.0013064187)
(0.033967782 -0.022566789 -0.00035239446)
(0.034293223 -0.022948788 0.00066652905)
(0.034348262 -0.023283642 0.00166539)
(0.034133441 -0.023654104 0.0026549302)
(0.033726669 -0.023950697 0.003766948)
(0.038307841 -0.024129956 -0.0021333302)
(0.039112534 -0.024499705 -0.0010920517)
(0.039765419 -0.024905552 -0.00011688224)
(0.040038611 -0.02526629 0.00094738018)
(0.040142058 -0.025656928 0.0019960579)
(0.039900754 -0.025986003 0.0030215769)
(0.039477553 -0.026377269 0.0041658533)
(0.044622401 -0.02649645 -0.0019007299)
(0.045504874 -0.0269608 -0.00083838135)
(0.046117449 -0.027376314 0.00016824251)
(0.046445285 -0.027826789 0.001284474)
(0.046517847 -0.028215256 0.0023538447)
(0.046269429 -0.02865249 0.0034215762)
(0.045828909 -0.029010386 0.004615473)
(0.051592782 -0.028983189 -0.0016303714)
(0.052439855 -0.029446574 -0.00053910448)
(0.053118251 -0.029941571 0.00051672114)
(0.053416396 -0.030375172 0.0016502183)
(0.053507082 -0.030846225 0.0027601815)
(0.053246589 -0.031254094 0.0038602347)
(0.052787526 -0.031691839 0.0050843694)
(0.059177297 -0.031563956 -0.001284501)
(0.060078266 -0.03211059 -0.00016106389)
(0.060736452 -0.032616979 0.00090938575)
(0.061057139 -0.033136705 0.0020741512)
(0.061136403 -0.033598532 0.0032146405)
(0.060859978 -0.034092218 0.004338804)
(0.060388876 -0.034523447 0.0056002892)
(0.067451532 -0.034257813 -0.00086957569)
(0.068329503 -0.034804894 0.00026218739)
(0.0690213 -0.035385429 0.0013590889)
(0.069326799 -0.03590138 0.0025426712)
(0.069408847 -0.036456147 0.0037091034)
(0.069126786 -0.036949018 0.0048450514)
(0.068641342 -0.037426772 0.0061382954)
(0.076384624 -0.037007776 -0.00038179529)
(0.077290725 -0.037650159 0.00075341166)
(0.077958234 -0.038237203 0.0018657284)
(0.078274788 -0.038848225 0.0030595092)
(0.078359857 -0.039383212 0.0042368132)
(0.078062361 -0.039920819 0.0054014917)
(0.077562096 -0.040415216 0.0067167506)
(0.086012418 -0.039878025 0.00014202064)
(0.086916779 -0.040530585 0.0013109475)