/*--------------------------------*- C++ -*----------------------------------*\
  =========                 |
  \\      /  F ield         | OpenFOAM: The Open Source CFD Toolbox
   \\    /   O peration     | Website:  https://openfoam.org
    \\  /    A nd           | Version:  6
     \\/     M anipulation  |
\*---------------------------------------------------------------------------*/
FoamFile
{
    version     2.0;
    format      ascii;
    class       pointScalarField;
    location    "0.73";
    object      E;
}
// * * * * * * * * * * * * * * * * * * * * * * * * * * * * * * * * * * * * * //

dimensions      [1 -1 -2 0 0 0 0];

internalField   nonuniform List<scalar> 
28033
(
154276.43
170369.68
-3337105.3
-1614558.4
182742.54
203297.56
-2409115.4
-5038161.3
99784.258
66413.495
43924.19
30572.456
18729.872
12014.517
8360.2957
7729.9621
12772.522
20253.077
35719.803
55786.099
80668.79
106972.02
159079.67
-1823046
-1762228.1
-1731420
-1719732.3
-1727552.2
-1749143.7
-1781507.1
-1816942.9
-1850955.8
-1879706.3
-1899951.6
-1909187.7
-1904487.8
-1880241.3
-1404476.1
129672.73
84755.033
80744.836
78845.295
79197.123
78424.553
77665.628
76178.96
74507.685
72922.358
70530.396
68441.867
66219.636
64268.151
62046.05
59723.287
58006.301
56159.446
54484.246
52609.611
51388.659
49838.228
48679.79
47453.657
46431.163
45520.005
44632.085
43662.443
43232.295
42247.328
41650.959
41260.564
40550.576
39950.51
39036.386
38978.099
38425.981
37154.053
37202.626
36368.062
35640.013
34835.713
34096.136
33213.76
32345.552
31375.694
30341.745
29235.218
28046.094
26781.089
25425.396
23998.013
22482.044
20890.313
19233.884
17500.557
15717.231
13878.447
12015.196
10121.761
8197.2157
6318.1718
4436.3497
2705.6694
678.3212
-1071.8347
-2712.2403
-4538.4303
-5958.2584
-7491.0928
-8628.0452
-10037.567
-10960.539
-12126.404
-12777.228
-13681.3
-14076.249
-14661.845
-14825.346
-15151.738
-14989.519
-15273.056
-14740.635
-14663.937
-14117.637
-13557.532
-12531.347
-11915.713
-10734.662
-9021.0749
-9427.1156
-6861.3202
-7290.8875
-6904.212
8512.8734
126638.15
72871.751
81196.179
77100.602
76249.783
76908.518
74841.162
74155.402
71955.226
69986.677
67555.425
64890.758
62530.563
59774.885
57372.769
54799.157
52262.924
50094.485
47790.253
45711.574
43704.927
41932.097
40016.825
38401.046
36825.002
35302.012
34121.554
32597.965
31696.126
30254.974
29249.341
28201.629
27297.044
26441.233
25495.721
25111.271
23914.239
23263.767
22522.494
21923.081
21275.787
20694.703
20140.988
19608.252
19111.348
18640.464
18192.952
17773.367
17380.287
16998.911
16655.405
16315.308
16007.835
15710.635
15440.082
15176.746
14943.787
14724.401
14512.659
14346.263
14161.333
14028.503
13864.457
13788.24
13645.39
13675.657
13585.906
13761.487
13404.008
13221.944
13125.44
12839.876
12863.25
12550.709
12457.343
12072.883
11933.175
11522.038
11189.195
10803.826
10341.99
9919.2163
9360.1167
8932.4034
8237.8576
7825.5007
7120.3938
6625.9153
5925.8726
5632.9249
4753.7498
4575.2851
4152.3885
3432.5558
-1384.2437
116794.6
75935.765
51985.787
40214.129
22753.607
14533.182
10841.402
10420.179
15533.571
28175.317
40747.167
64346.356
90976.025
127775.01
158149.06
259078.33
100046.26
66156.511
87392.96
78120.385
82022.857
78317.151
78834.829
75230.799
73001.867
71027.935
67450.986
65263.71
61928.334
59793.13
57728.68
55125.688
51060.277
50364.829
46419.453
45396.354
43474.25
41460.995
39973.519
38317.658
36449.238
35604.498
33703.399
32637.88
32004.655
30626.647
29701.001
28693.2
28309.246
26085.582
25700.526
26008.518
24838.795
24178.482
23536.652
22972.46
22420.337
21903.363
21411.104
20944.807
20496.167
20056.807
19628.971
19200.373
18776.827
18356.576
17925.261
17499.451
17054.661
16610.408
16137.467
15672.779
15177.525
14678.067
14173.436
13649.598
13130.067
12608.508
12072.443
11545.348
11140.063
10607.137
8681.6871
11548.089
8849.3141
8588.3756
8002.1694
7465.0435
6984.7596
6468.5386
5937.1762
5446.8136
4928.3322
4414.9629
3894.0477
3338.5431
2828.5218
2231.3426
1753.397
1124.8895
687.18374
83.137688
-359.02401
-846.06862
-1179.3229
-1619.9057
-1599.9185
-1991.8716
-1963.6755
-3758.4337
-3930539.2
-3777809.9
-3391442.1
-4082608.9
-3380665.1
-4005088.3
-3275837.3
-3625582.5
-3774310.6
-3473240.7
-3064119.3
-3679005.7
-3094529.3
-3806578.2
-3711427.9
7725.1048
-1403.8948
1049.4194
519.88207
-891.84482
-1897.873
-3005.5639
-3991.8758
-4938.1366
-5681.6478
-6375.682
-7070.524
-7518.6309
-7975.4681
-8311.2028
-8677.2269
-8813.4177
-8907.7036
-8867.9786
-8693.4799
-8475.736
-8098.7215
-7619.4098
-6999.26
-6314.4524
-5083.2884
-2533.5434
-4277.5758
-2469.2573
-1212.4348
145.73343
1556.8588
3041.4701
4591.1766
6206.6483
7832.7841
9503.8535
11178.688
12859.149
14515.738
16166.132
17758.45
19328.584
20828.273
22283.605
23664.682
24993.972
26235.372
27435.044
28542.192
29606.257
30575.028
31554.996
32333.365
33251.946
34013.972
33435.016
36961.774
37635.757
35199.527
39422.188
38599.752
39233.715
39057.839
41213.495
41860.935
42259.444
43515.806
43785.256
45172.473
46147.273
47531.246
48746.839
50551.112
51479.154
53442.109
54994.116
56957.031
59370.631
60008.923
63676.946
66370.519
67330.281
69905.169
74101.694
73571.42
76972.601
78752.559
80489.768
78693.854
80534.299
82867.879
84023.282
78831.295
140922.63
116837.94
109160.51
105965.13
106179.47
108402.62
109829.19
109689.57
110541.38
110611.79
109955.36
106855.12
104912.2
106717.2
109261.06
121188.75
115970.73
119737.71
116652.92
122608.18
122607.21
122291.63
130174.53
138596.58
134637.26
133076.17
126640.1
121617.28
119914.8
116934.56
132249.6
-1814777.3
-1815146
-1814837.4
-1815417.8
-1814620.6
-1814386.2
-1814533.5
-1814501.3
-1814473.2
-1814531.1
-1813964.1
-1814852.6
-1814881.2
-1814766.2
-1814311.5
-3759928.6
-3756698
-3756697.2
-3755110.7
-3757478.8
-3757272.3
-3757471.7
-3757485.5
-3757542.1
-3757478.5
-3757504.1
-3757539.1
-3757188
-3758172.4
-3762750.7
94379.75
72606.897
67047.354
64929.454
64558.92
63997.336
63783.574
63102.96
62316.196
61330.398
60098.831
58827.04
57376.521
56005.805
54473.987
53139.01
51760.394
50373.358
49126.95
47950.169
46874.515
45686.089
44821.698
43732.651
42903.645
42014.347
41179.225
40422.33
39624.019
38884.246
38068.143
37439.563
36687.565
35931.941
35419.307
34521.984
33952.786
33075.247
32387.168
31532.705
30589.83
29742.136
28862.026
27814.749
26900.595
25773.549
24727.305
23566.863
22395.157
21162.353
19909.621
18590.507
17262.97
15883.679
14494.714
13067.715
11648.978
10210.381
8779.1471
7362.0782
5958.6174
4578.5663
3228.1194
1958.2459
532.11834
-490.34377
-1154.1053
-1346.5111
-2324.126
-3399.1555
-4092.7746
-4956.3264
-5494.9474
-6106.1336
-6607.5976
-6934.5653
-7356.8217
-7355.3941
-7759.3038
-7384.5673
-7611.5492
-7249.187
-6671.9849
-6142.3046
-5905.9152
-5596.1478
-4683.4541
-4408.3314
-2993.117
-2928.4041
-1547.3335
-772.56469
702.35646
5799.9898
17125.364
60524.816
51304.622
51376.238
49785.384
49719.59
49220.463
49033.964
48898.415
48602.785
48256.788
47647.638
47215.862
46505.75
45846.656
45010.253
44356.506
43545.39
42782.264
42033.607
41241.413
40501.712
39790.569
39109.323
38405.178
37729.11
37088.328
36415.29
35739.083
35076.335
34426.18
33753.141
32989.022
32308.928
31533.191
30787.145
29888.956
29212.87
28265.086
27412.916
26511.522
25640.673
24706.135
23764.414
22633.906
21634.211
20510.841
19387.93
18220.92
17015.599
15787.956
14513.826
13221.485
11903.642
10555.708
9203.1412
7828.5309
6464.1097
5086.3156
3727.2916
2397.7439
1054.7449
-204.06145
-1442.9553
-2674.9799
-3841.0393
-5178.7775
-2980.8011
-242.85382
-1179.5598
-1887.2831
-2394.8812
-2924.7621
-3238.739
-3615.4572
-3856.006
-4025.3471
-4164.2634
-4164.6552
-4210.1482
-4055.9097
-3958.6067
-3901.3295
-3612.2149
-6621.1211
-8380.7124
-7424.9466
-6508.8824
-5828.9813
-5265.7541
-4352.0009
-3775.9082
-2704.2842
-128.96815
4237.1693
15264.117
37723.227
32861.812
36438.38
36447.129
37186.35
36740.668
36978.49
36963.624
36980.943
36942.186
36907.022
36786.311
36519.118
36263.697
35976.918
35546.152
35153.93
34680.395
34261.288
33712.676
33289.642
32639.113
32173.207
31508.415
30985.427
30325.767
29696.446
29069.262
28387.555
27673.541
26940.807
26212.533
25461.748
24622.919
23914.921
22940.906
22032.175
20906.909
20070.211
19137.772
17984.027
17161.871
16046.34
14895.459
13859.668
12697.901
11576.851
10448.244
9276.8901
8128.8355
6955.7862
5794.5233
4631.1094
3471.0475
2334.1871
1199.6182
98.301083
-989.47285
-2032.6255
-3059.895
-4026.3517
-4956.2276
-5849.8883
-6704.6593
-7300.9969
-8592.7405
-9775.7945
-4904.8191
-6268.0917
-7006.8582
-7462.8371
-7782.5509
-7976.5912
-8276.6488
-8330.068
-8426.5501
-8395.0945
-8264.2746
-8142.6017
-7848.8313
-7646.2603
-7088.8029
-7059.7993
-6413.199
-8785.4161
-6503.1751
-5379.4798
-4798.5539
-3485.1352
-3051.5
-1646.9236
-228.99929
1707.6717
5418.0719
10991.623
24129.073
20481.737
23341.764
24915.102
25849.136
26260.299
26585.7
26884.785
26914.919
27203.877
27152.217
27333.515
27179.862
27256.519
26961.289
26906.032
26600.501
26341.924
25971.647
25624.205
25226.171
24810.153
24384.449
23907.798
23420.266
22874.288
22352.5
21721.061
21131.767
20492.75
19845.347
19130.991
18417.672
17680.355
16958.712
16008.618
15545.597
14743.118
14004.68
13049.096
12260.749
11256.787
10360.49
9473.8892
8621.5184
7662.8294
6773.1255
5833.4818
4901.364
3989.6545
3061.7631
2162.8752
1263.6066
385.58966
-469.19255
-1308.8237
-2117.4364
-2890.059
-3647.1671
-4333.1956
-5013.9683
-5617.3168
-6206.5713
-6641.8416
-7242.6968
-7375.4158
-8041.0291
-8715.8202
-9828.0347
-10423.107
-10460.632
-9610.2833
-9760.9736
-10385.149
-10214.713
-10034.413
-9432.9153
-9210.4084
-8403.8129
-8066.263
-7041.884
-6745.5172
-5351.3273
-5122.2892
-3212.7088
-1935.281
-573.62693
301.54884
1490.9858
2090.5769
4032.7999
4057.5619
6181.8718
5934.5167
4288.4623
15026.343
11503.277
14275.73
15336.03
16762.844
17122.579
17634.376
17706.232
17969.098
18093.767
18223.802
18298.206
18301.322
18286.575
18172.658
18085.733
17833.166
17678.244
17407.776
17121.602
16811.133
16417.321
16069.765
15611.28
15202.533
14727.467
14270.602
13770.866
13284.821
12714.565
12176.056
11585.18
11005.094
10402.957
9735.2562
8992.1145
8595.533
7363.102
7345.7579
6734.2107
5994.0124
5323.6946
4774.3765
4080.9296
3471.4081
2817.0133
2256.7731
1659.2636
1120.9264
585.60951
76.02625
-406.27794
-870.03096
-1306.8904
-1711.3229
-2102.7031
-2450.674
-2782.4497
-3075.2217
-3346.8214
-3565.7669
-3806.9804
-3909.8987
-4110.1826
-4120.4112
-4325.2526
-4069.2852
-4219.4316
-3793.368
-3889.7543
-3728.1617
-3158.268
-4842.4414
-5890.3249
-4937.0906
-4198.6381
-3581.9229
-2931.2136
-2207.8264
-1472.9484
-734.25322
259.88402
864.04895
2029.6547
2772.208
3744.5944
4934.6239
5790.5147
7201.6678
8330.0499
9574.8036
9658.3461
10223.961
7505.1257
-309.82953
8794.9969
5793.407
7170.8152
7952.5888
8955.4171
9614.2244
9836.7175
10250.006
10289.914
10560.628
10468.537
10689.976
10542.444
10673.334
10478.046
10512.117
10284.879
10240.302
9973.7935
9844.7957
9593.9929
9380.0673
9124.4016
8848.6495
8593.3396
8268.6785
7974.2573
7594.4011
7258.2238
6875.9374
6522.4215
6112.3074
5733.0921
5309.6443
4851.0731
4543.6938
3852.0848
4846.352
4726.0902
3817.5988
3408.9714
2835.1976
2384.4152
1881.9777
1366.3542
854.02309
354.38094
-145.18436
-636.15227
-1120.2216
-1596.8026
-2054.2647
-2501.577
-2928.2135
-3335.9717
-3717.8186
-4078.2154
-4403.2699
-4703.6277
-4959.9934
-5200.2304
-5348.0187
-5533.0053
-5582.1656
-5647.7649
-5613.5173
-5597.3829
-5462.052
-5217.3576
-4897.7468
-4844.0285
-4186.5647
-4277.4138
-3118.9613
-818.13081
109.11486
1063.4574
1611.7609
2731.3295
3162.7872
4566.8545
4837.1638
6407.9833
6835.843
8257.6452
9153.2122
10399.078
11419.657
12949.079
13261.44
14738.369
14135.662
15052.68
10015.036
-1851.7996
5931.7754
1970.8501
2850.327
2795.3676
3594.9377
3859.6751
4306.0158
4404.5658
4620.0965
4740.9392
4767.0067
4921.8138
4848.0559
4929.3919
4784.5757
4850.4624
4615.0547
4638.7083
4388.4999
4331.2439
4132.3945
4003.2522
3802.4483
3623.3574
3450.6322
3226.8038
3055.2956
2840.301
2664.8429
2421.9047
2205.4595
1949.8495
1724.6683
1421.4571
1256.1815
849.00082
769.3867
196.69697
608.61268
-61.879354
-141.64431
-529.19684
-776.29912
-1082.9969
-1385.5289
-1680.3693
-1941.1645
-2216.185
-2453.3691
-2681.8971
-2880.0915
-3062.783
-3210.5647
-3338.2095
-3426.9762
-3494.1088
-3514.9341
-3509.3473
-3459.5009
-3377.2028
-3235.1267
-3079.8359
-2849.576
-2589.7707
-2285.0654
-1919.5352
-1527.2654
-1058.907
-545.41628
-60.639161
630.60777
1206.3415
1987.7215
3271.7847
4684.8078
5695.5162
6334.546
7279.0839
7952.8904
8884.9078
9632.9401
10442.972
11417.374
11916.431
13101.294
13466.125
14539.415
15140.382
16043.461
16865.564
18428.229
18014.9
18488.974
13544.622
1438.6839
4974.743
747.34337
621.05613
440.98597
650.07004
1158.7005
1273.357
1570.1437
1668.0792
1948.18
1878.2394
2166.6074
2053.8212
2276.5668
2173.61
2341.0208
2199.7615
2368.1172
2199.1815
2298.4156
2119.3406
2127.053
2036.5012
2006.4336
1940.0786
1833.9644
1779.3638
1639.6905
1541.6044
1393.8594
1284.3287
1155.2119
981.91734
900.41853
675.29196
587.89405
345.05083
327.47033
70.270892
-70.50177
-231.855
-437.71724
-610.89544
-751.29634
-895.87071
-987.71219
-1079.3143
-1146.7608
-1189.8665
-1208.5899
-1204.7282
-1161.7049
-1101.1601
-995.17262
-864.60253
-696.44581
-490.85245
-249.61874
18.017505
345.84445
685.55436
1069.7978
1494.4189
1962.2931
2431.4317
2962.1928
3518.2281
4092.1412
4661.3675
5341.7546
5910.4547
6613.3059
7312.5483
7899.2073
8672.5804
9354.9468
10156.888
10788.863
11547.394
12095.441
12888.973
13298.722
14127.522
14400.291
15260.866
15530.591
16335.661
16840.503
17447.359
17778.63
17830.991
16752.674
18545.923
15981.817
6189.3959
7237.079
1968.7685
1470.1354
933.02684
1045.7847
1346.3755
1554.9561
1755.1004
1931.6064
2198.8852
2221.2144
2472.4711
2487.9076
2648.3804
2566.0128
2740.1995
2557.1826
2699.7051
2511.5978
2622.1803
2582.864
2762.356
2554.6955
2454.9769
2294.4025
2163.0576
2043.8458
1890.723
1790.9993
1620.6904
1520.9041
1310.9379
1212.8508
1019.7445
882.07709
717.06362
584.85409
429.64237
278.38732
174.12568
52.601306
-43.176592
-109.97941
-153.55052
-191.99217
-225.89453
-219.66909
-202.01243
-144.97231
-70.295716
47.329425
180.08854
352.58698
555.50488
781.64586
1047.0768
1341.9189
1658.7477
2019.8433
2406.3728
2807.8444
3262.3749
3737.0532
4218.4267
4752.4605
5313.5368
5875.1897
6464.3494
7122.9947
7711.0032
8373.8572
9066.297
9595.2722
10256.708
10382.332
10657.114
11105.105
11770.027
12159.433
12850.135
13174.081
13675.421
14158.104
14182.837
14925.003
14460.559
15063.254
14584.885
14423.545
14717.714
14912.049
16041.049
18086.52
16202.842
10391.369
12586.734
6650.6384
5889.9569
5541.6821
5665.1199
5994.1758
6228.2573
6418.5618
6717.4313
7078.0905
7086.208
7455.8795
7415.0066
7567.9215
7499.2685
7559.826
7313.7868
7396.5061
7019.157
6939.4117
6644.0274
6391.994
5950.7165
5697.2682
5505.383
5251.4054
5024.7764
4775.7954
4532.2961
4285.9484
4025.5753
3810.7694
3557.3927
3334.5081
3128.645
2920.9881
2710.5307
2554.7512
2357.3621
2226.7786
2071.1622
1976.0809
1850.495
1782.8437
1721.3395
1710.2916
1727.5806
1773.7074
1846.5932
1960.503
2097.3179
2270.9928
2477.783
2716.3192
2980.7948
3287.7646
3606.1357
3968.6447
4345.9562
4747.4389
5173.6039
5627.169
6065.704
6560.6417
7024.2135
7517.5468
8001.8219
8524.2048
8990.97
9499.1507
10012.539
10447.819
10996.001
10932.142
6817.6792
5892.3853
6599.1836
6823.8594
7220.4629
7316.6399
7683.9043
7830.459
7999.5178
8204.0023
8281.9447
8342.4173
8453.4365
8533.5457
8560.4591
8755.9133
8817.791
8920.3574
10224.026
10737.724
14272.728
14181.236
11774.367
10580.505
11101.313
11019.554
11542.745
11512.348
11836.925
12107.958
12390.768
12403.405
12663.774
12530.06
12551.641
12305.572
12185.426
11815.362
11638.352
11187.231
10993.331
10586.914
10544.368
9855.5399
9651.7779
9245.4901
8757.7313
8331.2153
7814.426
7419.4957
6929.6307
6567.9839
6154.4722
5748.9265
5417.5222
5040.6087
4711.6443
4417.9698
4121.5068
3876.894
3630.0085
3436.4167
3236.0998
3099.5789
2969.3611
2884.892
2805.6136
2772.5353
2754.1956
2779.7187
2826.1887
2909.5117
3016.3448
3156.4869
3319.7223
3511.1717
3727.8557
3962.9773
4229.6266
4498.9921
4804.2119
5115.9868
5432.4652
5785.1972
6142.4079
6490.5752
6877.1251
7229.0017
7570.9985
7941.9838
8300.8987
8592.7132
8987.5338
9295.8111
9426.009
9931.7221
6628.6692
7937.0858
7883.5853
8048.7975
8372.5215
8428.4272
8696.6382
8678.8988
8865.3856
8800.4171
8718.1214
8793.2545
8246.09
8261.8407
7878.6996
7519.6475
8381.2434
9723.9203
11183.822
16096.715
34789.463
22016.205
23081.748
22535.932
22679.519
22236.865
22452.922
22502.493
22597.198
22595.221
22543.41
22360.669
21991.658
21546.165
21088.571
20385.008
19804.159
19057.055
18341.987
17633.827
16834.488
15984.068
15043.789
14844.838
14331.994
13663.994
12963.634
12294.308
11637.869
11018.104
10451.663
9878.1964
9363.1624
8888.0892
8418.4867
8026.3122
7621.75
7288.8953
6946.2442
6684.1244
6404.9224
6200.2633
5995.9645
5844.1156
5714.3117
5628.1242
5567.5216
5545.9235
5543.6414
5578.095
5634.9004
5716.1196
5823.268
5946.8677
6092.473
6249.1067
6420.5361
6602.3216
6782.4227
6984.0549
7156.532
7362.0399
7525.2165
7712.0266
7830.1634
8015.9202
8122.5543
8302.92
8404.8899
8465.4253
8613.1869
8613.233
8683.2907
8715.6938
8531.8398
9768.7762
10902.78
10562.197
10562.334
10395.42
10134.821
9974.1959
9533.4932
9367.5593
8717.5436
8571.1824
7763.0503
7504.7494
6952.9568
6514.0275
6133.3274
5928.0374
5187.0912
4082.0928
8981.7217
52470.969
41928.421
40240.322
38732.176
37630.059
36973.984
36951.719
36315.791
36409.508
35809.37
35271.675
34524.504
33546.548
32474.739
31379.856
30024.529
28850.959
27500.855
26240.314
25002.083
23795.435
22768.242
21435.127
20317.976
19445.64
18362.602
17560.019
16578.935
15771.522
14987.198
14224.372
13568.269
12893.794
12334.57
11725.257
11178.611
10691.137
10196.706
9787.6088
9347.737
8994.495
8620.2301
8304.0124
7981.5607
7696.3452
7415.314
7160.1699
6917.233
6693.0393
6482.9135
6288.8062
6105.1406
5936.5405
5777.8937
5631.1692
5491.599
5365.5265
5244.0556
5130.6547
5024.4563
4919.8961
4825.3489
4720.8747
4667.8308
4554.5897
4591.783
4423.1193
4410.2947
4184.488
4182.8635
4003.0866
3964.4454
3818.2803
3672.4078
3614.282
3305.7553
3314.578
3108.3398
3019.2408
2880.5703
2802.3123
2657.2229
2582.9823
2466.9048
2405.5423
2360.1515
2257.7021
2536.8101
2222.5577
2815.8528
2651.1163
3122.3366
1573.2241
-628.7606
2627.4572
75532.972
59726.404
55981.788
52837.69
52626.841
51706.871
51204
50970.668
50446.004
49437.614
48378.983
47043.311
45475.824
43865.985
42161.306
40354.478
38708.832
36918.67
35260.736
33683.133
32088.25
30595.703
29271.902
27871.377
26738.747
25499.354
24561.729
23435.453
22572.586
21640.509
20837.638
20042.072
19283.131
18674.783
17944.166
17430.461
16847.798
16343.698
15816.125
15370.162
14909.476
14487.289
14081.551
13696.414
13326.537
12975.256
12626.594
12295.644
11962.377
11634.611
11313.083
10979.962
10655.696
10316.454
9978.4198
9625.5268
9268.8979
8901.7523
8517.7305
8139.8508
7729.9821
7340.6934
6898.1213
6499.8671
5981.9738
5630.3553
5054.9829
4827.6169
4241.6307
3889.8281
3552.1881
3077.1948
2755.1361
2324.8187
2089.7587
1611.6528
1408.8603
1041.4633
805.08729
606.06388
358.03456
278.68133
71.368327
126.85672
-23.795712
164.54127
176.19522
517.84201
640.73721
1556.4406
1708.4507
2802.5536
2676.992
-799.43548
988.21115
90211.307
70428.661
65685.964
63500.878
65154.412
63066.015
63459.059
62781.035
61742.05
60459.441
58680.576
56946.747
54832.919
52670.395
50588.149
48255.39
46378.915
44177.299
42230.594
40333.244
38641.295
36824.582
35565.747
33936.266
32726.185
31349.549
30182.698
29127.543
28105.887
27304.015
26351.798
25527.342
24723.341
23941.174
23193.548
22557.529
22080.828
21339.971
20816.825
20175.737
19630.216
19042.268
18477.556
17895.267
17316.238
16725.608
16128.284
15525.706
14905.188
14283.978
13644.714
12998.276
12343.344
11681.536
11013.478
10343.541
9681.2217
9012.7225
8363.6706
7721.4179
7099.639
6497.5321
5919.5587
5373.8669
4796.5804
4315.0581
3649.4478
3440.307
2830.3594
2991.9636
2299.0614
2287.6753
1888.9421
1745.9844
1594.2044
1481.8638
1412.1545
1410.874
1457.6585
1482.6221
1616.9322
1787.9092
1976.2732
2250.0211
2595.4376
2939.3144
3378.3809
3993.1742
4489.6351
5280.8756
6191.1675
7227.7194
7520.489
8541.8819
5684.8403
62194.295
58176.771
49261.919
48034.294
47055.031
47390.13
46320.419
47216.388
47425.105
47475.65
47249.898
46980.705
50577.416
54050.03
67712.081
41007.104
33072.416
28828.843
28634.493
26712.537
26620.684
25749.911
26265.419
26656.139
26400.279
26804.433
27536.076
29676.413
33976.574
43479.085
25953.796
19814.276
14508.283
13657.703
12320.362
12034.342
11885.099
11603.295
11728.03
11873.959
12450.813
13062.799
15052.513
19508.206
27325.416
16762.167
12772.123
9833.6986
8461.7011
7986.9157
7552.9163
7430.767
7205.8903
7487.1353
7648.574
8087.5972
8575.8454
10793.603
13509.449
18362.591
10395.867
7626.1369
5118.1006
4415.754
3788.6611
3560.756
3426.2114
3349.5878
3389.2475
3586.4524
3811.1602
4538.8362
5761.3909
7661.7347
11780.039
7884.9157
5034.5692
3341.7708
2832.7143
2385.3626
2241.0342
2119.8617
2122.5721
2174.7949
2244.8354
2589.6064
2875.6043
3733.4476
5399.4659
8428.5336
4806.341
3000.6954
2017.1239
1446.8481
1200.8005
967.95501
897.59555
848.45139
887.02298
977.21093
1179.669
1561.5317
2173.7582
3535.4415
6073.1764
4921.9298
2872.4098
1737.5622
1295.2385
960.87101
809.73175
719.72657
715.36426
779.92703
872.21438
1158.37
1498.4811
2191
3568.2486
6328.814
6346.2707
3924.5933
2581.4717
1887.7412
1470.832
1227.9477
1105.1058
1100.7334
1138.8436
1375.6258
1582.3385
2049.9333
2929.5209
4800.9492
7281.9339
10743.179
7659.5516
4730.6693
3838.6388
2993.3128
2720.3503
2472.6953
2450.5996
2526.9562
2670.0584
3424.6197
3709.7806
5656.6249
8683.2363
13066.024
15869.046
12091.61
7846.6963
6822.3183
5422.3496
5088.5548
4697.647
4768.1647
4846.2614
5047.7172
5924.3703
7109.2531
9431.3962
13433.801
18108.609
27115.696
18660.223
14050.529
11960.62
10354.144
9570.7612
9225.4226
9063.0579
9330.9493
9640.7665
10972.62
10952.058
15354.763
20790.258
28019.565
36486.266
29643.236
22212.45
19829.432
17321.532
17006.605
16035.906
16535.418
16523.393
16400.214
18106.021
19263.188
23247.551
31186.57
35200.526
55420.67
45657.161
36211.946
33869.641
31070.196
30059.522
30305.725
30699.675
30221.097
30545.681
31075.266
32879.922
37089.162
42951.496
58681.014
70437.463
74308.804
57548.054
55724.011
52110.405
48747.645
51630.172
54092
50273.887
53414.697
52256.635
54382.969
58461.628
66519.286
81920.514
166531.81
136348.35
136493.93
139986.37
141892.34
141085.81
148826.1
157218.2
160171.42
157519
152450.53
144440.49
142808.75
146725.4
142192.68
117808.02
106523.83
99942.834
96451.524
92380.524
94648.966
93522.121
94156.603
100607.43
95522.093
97055.009
95396.63
101878.4
108280.76
123991.35
96438.688
100025.39
94846.559
91678.381
91509.611
84319.347
84037.887
85144.373
81305.712
87616.713
87710.744
95486.683
99066.069
100068.82
102094.23
89888.517
99354.747
98687.485
95559.363
94047.68
92371.36
91577.889
91851.723
91934.627
92944.473
95715.639
98867.726
100418.57
101355.1
93036.431
88319.643
95144.296
97292.359
99275.167
96472.837
95602.517
95564.649
94907.416
95922.152
97761.188
98354.481
100568.09
99571.279
95978.503
88856.972
85033.678
93775.47
95237.311
96500.896
96929.004
96435.867
95890.397
95812.885
96147.356
96378.38
97789.745
98137.734
96798.331
93871.748
85829.559
83090.454
89009.141
91911.118
94385.778
94642.315
95009.976
95182.097
95200.826
95583.236
95961.919
95513.953
95160.337
93114.876
88161.644
83827.527
80858.206
85583.611
88868.951
90992.502
92511.137
92535.452
92883.952
93189.442
92822.355
93306.189
92708.29
91444.002
89386.722
84464.322
79433.105
77411.495
81256.005
84420.618
86659.012
87444.42
88602.216
88872.751
88966.881
89208.087
88424.773
87903.516
86370.529
84204.704
80672.471
77122.43
74977.877
77785.221
80650.737
82410.437
83934.76
84523.901
85060.749
85275.767
84875.89
85025.826
83643.175
82660.494
80317.614
77491.113
74396.742
71607.76
73844.646
76103.877
77954.933
79239.219
80267.635
80715.708
80917.198
80897.648
80153.165
79962.359
78222.296
76728.4
74066.716
71609.701
68643.588
70116.817
72657.546
73930.037
75124.722
75747.523
76196.705
76248.183
75962.857
75642.748
74585.38
73608.617
71805.498
69894.14
68457.284
65783.684
66983.291
68499.165
69822.208
70880.533
71639.342
72363.864
72271.735
72466.966
72040.589
71470.404
70466.059
69001.802
67516.795
65639.842
62734.715
63491.112
64995.495
66110.591
67225.946
67744.355
68137.336
68068.106
67857.029
67386.871
66633.68
65805.26
64537.25
63224.784
62596.716
59870.525
60570.212
61948.808
62663.325
63551.41
63796.749
64520.661
64309.412
64701.353
64356.99
63963.96
63272.482
62234.268
61379.453
60003.018
57188.115
57556.902
58538.071
59381.597
59939.994
60662.952
61034.951
60704.149
60640.432
60245.44
59636.151
59002.395
57839.932
57160.261
56840.623
54428.214
54704.699
55811.176
56324.368
57211.008
57219.527
57654.598
57570.567
57813.357
57563.334
57381.934
56804.366
56319.057
55162.36
55008.438
52123.847
52238.338
53065.625
53279.105
53887.256
54395.567
54787.086
54678.664
54502.547
54196.87
53617.535
53245.441
52830.591
52061.443
51425.94
49908.378
49744.629
50529.168
51001.638
51481.285
51583.667
51913.635
51861.798
51940.55
51728.65
51543.208
51140.778
50671.919
50244.034
50137.696
47337.74
47498.358
48122.449
48570.721
48892.624
49172.294
49237.162
49347.431
49345.677
49175.374
48807.697
48565.693
48028.358
47581.941
46980.404
45523.607
45453.595
46081.93
46231.184
46728.791
46707.734
47186.934
46964.36
47002.904
46757.717
46515.734
46308.998
46192.244
45608.031
45633.317
43416.742
43446.838
43813.86
44224.343
44444.901
44697.921
44781.148
44886.49
44773.819
44872.231
44557.392
44323.899
43785.521
43149.746
43427.317
41731.569
41558.472
42183.493
42270.227
42700.774
42724.526
42906.091
42877.749
42837.602
42744.129
42491.969
42199.999
41939.786
41616.73
41496.667
39921.96
40028.217
40261.356
40612.715
40736.298
40912.116
41050.809
40961.615
40984.578
40895.406
40564.115
40580.722
40376.726
39721.213
39859.32
38563.464
38522.475
38704.263
38804.156
39202.067
39000.581
39459.11
39234.944
39375.762
39219.836
39089.706
38801.085
38386.817
38102.721
38227.91
36862.028
36773.917
37318.14
37185.45
37424.308
37680.387
37803.48
37662.2
37804.095
37541.88
37744.635
37538.208
37135.936
36859.636
36654.479
35633.275
35401.402
35700.177
35842.981
36388.729
36205.355
36353.199
36319.213
36341.02
36228.402
36096.59
35867.353
35607.748
35171.073
35435.039
34246.534
34146.094
34530.019
34406.745
34938.376
34830.986
34986.153
34934.625
35011.404
34852.843
34742.584
34409.314
34448.063
34233.034
33924.311
33109.12
32947.515
33526.565
33366.883
33547.659
33463.893
33704.077
33730.581
33877.81
33685.295
33548.365
33483.096
32963.426
32576.456
32862.518
32174.245
31633.714
32126.211
32170.203
32555.792
32603.609
32672.542
32567.547
32425.871
32371.075
32356.581
32026.134
31734.433
31542.167
31692.197
30916.186
30597.26
31245.821
31089.865
31405.303
31657.571
31549.765
31317.846
31208.729
31194.023
31312.295
31026.673
31078.388
30464.495
30655.516
30135.575
29512.669
30203.968
30037.19
30432.474
30185.672
30503.487
30377.816
30665.075
30315.16
30302.917
30024.375
29935.951
29493.241
29682.244
29159.26
28604.392
29309.873
29120.48
29493.329
29347.19
29637.924
29360.451
29561.375
29301.821
29390.338
29056.744
29039.282
28527.955
28760.236
28332.436
27708.806
28315.884
27929.144
28621.045
28454.268
28730.901
28516.849
28698.408
28437.098
28477.825
28201.62
28143.394
27694.473
28054.666
27179.015
26900.766
27788.267
27729.831
27794.906
27638.549
27864.776
27717.756
27849.704
27925.137
27764.694
27456.855
27388.856
27042.317
26994.251
26953.825
26308.315
26680.429
27049.553
26868.294
26862.384
27071.519
26923.55
27159.537
26480.704
26881.616
26547.511
26550.894
25992.236
26245.52
26294.732
25410.843
25984.308
25683.94
26261.162
26042.918
26378.141
26080.298
26215.495
25615.335
25965.755
25848.208
25748.54
25382.071
25552.142
25223.207
24630.388
25433.583
25237.528
25555.54
25420.476
25665.566
25432.396
25676.414
25542.44
25584.21
25069.725
25205.953
24603.692
24912.988
24897.344
23933.345
24821.643
24431.188
24999.51
24652.114
25084.114
24718.425
25005.64
24672.328
24781.293
24480.102
24502.632
23961.95
24306.017
24248.122
23311.235
24209.052
23866.164
24342.765
24055.245
24472.526
24074.972
24441.36
24021.935
24249.245
23803.899
23913.195
23345.846
23709.717
23740.649
22711.11
23669.397
23222.39
23811.046
23433.103
23893.063
23488.109
23827.989
23459.394
23644.013
23230.677
23356.827
22747.917
23157.086
23218.228
22154.435
23117.784
22697.223
23261.764
22876.027
23382.832
22902.811
23327.081
22883.977
23107.153
22684.064
22804.294
22199.891
22644.305
22763.414
21611.567
22643.623
22149.121
22751.011
22357.958
22840.24
22392.273
22788.838
22358.557
22597.701
22155.927
22294.699
21683.96
22143.209
22310.975
21122.92
22163.487
21631.95
22278.962
21844.614
22385.605
21880.717
22304.51
21874.575
22099.901
21672.236
21814.709
21190.013
21682.294
21906.575
20643.142
21726.401
21152.423
21801.802
21390.828
21920.78
21400.306
21844.671
21398.907
21627.005
21212.341
21341.751
20727.577
21236.92
21512.81
20191.6
21318.301
20661.095
21360.552
20925.593
21479.184
20936.563
21393.014
20945.981
21175.528
20768.756
20898.453
20285.019
20814.668
21144.986
19771.44
20911.892
20224.891
20944.163
20516.684
21089.496
20505.821
20983.399
20525.127
20744.605
20349.12
20468.941
19863.079
20406.313
20807.392
19353.417
20547.787
19791.419
20539.166
20113.357
20687.154
20071.82
20579.957
20101.923
20328.481
19937.485
20064.882
19452.379
20018.483
20469.912
18974.056
20185.012
19377.788
20167.296
19738.491
20325.056
19686.052
20211.462
19713.536
19936.324
19548.97
19671.261
19051.181
19643.129
20168.893
18597.062
19841.726
18997.472
19799.2
19351.478
19947.863
19268.886
19824.563
19304.307
19537.84
19151.584
19287.418
18654.472
19283.255
19863.728
18233.96
19519.254
18618.021
19438.02
18998.649
19606.121
18910.5
19492.996
18944.746
19175.89
18792.724
18920.622
18273.251
18933.788
19575.07
17890.681
19190.822