/*--------------------------------*- C++ -*----------------------------------*\
  =========                 |
  \\      /  F ield         | OpenFOAM: The Open Source CFD Toolbox
   \\    /   O peration     | Website:  https://openfoam.org
    \\  /    A nd           | Version:  6
     \\/     M anipulation  |
\*---------------------------------------------------------------------------*/
FoamFile
{
    version     2.0;
    format      ascii;
    class       pointVectorField;
    location    "0.24";
    object      lm;
}
// * * * * * * * * * * * * * * * * * * * * * * * * * * * * * * * * * * * * * //

dimensions      [1 -2 -1 0 0 0 0];

internalField   nonuniform List<vector> 
28033
(
(0 0 0)
(0 0 0)
(3076.438 -114.92449 3.8972748)
(3061.7555 -211.8967 -13.78432)
(0 0 0)
(0 0 0)
(3065.7666 -206.05453 4.0335838)
(3076.2588 -107.28266 -12.987699)
(0 0 0)
(0 0 0)
(0 0 0)
(0 0 0)
(0 0 0)
(0 0 0)
(0 0 0)
(0 0 0)
(0 0 0)
(0 0 0)
(0 0 0)
(0 0 0)
(0 0 0)
(0 0 0)
(0 0 0)
(3074.9598 -122.95819 -1.3824399)
(3075.1632 -130.97024 -5.843375)
(3075.3962 -137.96819 -9.0208076)
(3076.4424 -143.7197 -9.7458336)
(3077.1918 -149.20526 -9.3121486)
(3077.7182 -154.06799 -7.3289536)
(3077.8187 -158.6796 -5.2197447)
(3077.3721 -163.25457 -2.5263196)
(3076.4501 -167.71275 0.02388526)
(3074.6443 -172.46031 2.0200915)
(3072.9278 -177.21239 3.1260767)
(3070.3717 -182.70382 2.6905013)
(3067.7657 -188.59905 0.93051602)
(3065.2358 -195.37802 -2.3988242)
(3063.0635 -203.08294 -7.6125237)
(26.398273 38.215995 37.042669)
(40.655135 55.130463 46.931644)
(58.229421 70.957278 50.99679)
(78.484703 86.297562 51.651348)
(99.908867 99.654785 49.35919)
(122.95944 112.84986 45.922153)
(146.76724 124.68807 41.498694)
(170.82461 135.77707 37.067169)
(194.76527 146.13582 32.778729)
(218.18543 155.89139 29.267099)
(240.61675 165.21111 26.763541)
(261.95818 174.41972 25.381752)
(282.24495 183.73976 25.260844)
(301.60758 193.4896 26.284204)
(320.34482 203.88707 28.567899)
(338.89372 215.15174 31.729159)
(357.75491 227.40817 35.549722)
(377.62367 240.86711 39.843878)
(399.16055 255.57556 44.305075)
(422.9026 271.35494 48.683178)
(449.45596 288.11308 52.699892)
(479.47116 305.82547 56.127771)
(513.00886 324.01683 58.989033)
(550.43381 342.68414 61.1449)
(591.7537 361.39277 62.509944)
(636.93352 379.9396 63.267752)
(685.69275 398.08891 63.599471)
(737.89804 415.78028 63.436919)
(793.30843 432.57209 62.868685)
(851.83949 448.68536 62.096742)
(913.31085 463.73099 60.72981)
(977.76891 477.7138 58.874708)
(1045.3659 490.5334 56.216512)
(1116.3854 501.72362 52.48102)
(1190.9653 511.5371 47.195027)
(1268.9913 519.1138 40.296918)
(1350.5854 524.76209 31.821423)
(1435.477 527.78221 21.457061)
(1522.8362 527.85916 9.5380574)
(1612.1282 525.13531 -3.3639103)
(1702.0989 519.13856 -16.907072)
(1791.5508 509.94035 -30.235553)
(1879.2579 497.58021 -42.713441)
(1963.9086 482.20724 -53.69038)
(2044.3103 464.19239 -62.463804)
(2119.6922 443.89219 -68.805388)
(2189.4852 421.75425 -72.464653)
(2253.555 398.24311 -73.615784)
(2312.0731 373.82332 -72.571246)
(2365.5433 348.91463 -69.863513)
(2414.645 323.88282 -66.115667)
(2460.1957 299.01204 -61.974971)
(2502.9753 274.52234 -58.018148)
(2543.6751 250.54561 -54.680453)
(2582.787 227.18071 -52.206613)
(2620.588 204.46256 -50.624403)
(2657.1244 182.42787 -49.772137)
(2692.2615 161.09548 -49.329022)
(2725.7426 140.48707 -48.890385)
(2757.277 120.64626 -48.04642)
(2786.6191 101.60574 -46.456474)
(2813.6467 83.407579 -43.903442)
(2838.3882 66.059254 -40.350654)
(2861.0234 49.58958 -35.90262)
(2881.9604 33.929592 -30.889683)
(2901.4922 19.054621 -25.6013)
(2920.2192 4.8678671 -20.567991)
(2938.4696 -8.7104316 -16.062755)
(2956.4094 -21.955862 -12.33817)
(2973.9903 -34.764784 -9.6609699)
(2991.4067 -47.269 -7.9276229)
(3007.9371 -59.521189 -6.8282301)
(3023.3715 -71.447089 -6.1986019)
(3037.1082 -83.017986 -5.6423759)
(3048.6979 -93.987812 -4.866344)
(3057.7049 -104.33385 -3.4967965)
(3063.9084 -113.64858 -1.4019265)
(3067.192 -121.99571 1.5950716)
(3067.7052 -128.87677 5.3822998)
(3065.727 -134.44761 9.9213629)
(3061.7043 -138.34165 14.951724)
(3056.2302 -140.66523 20.198139)
(3049.9406 -141.31318 25.369436)
(3043.5096 -140.50748 30.256511)
(3037.5099 -138.4381 34.414397)
(3032.6139 -135.12908 37.790116)
(3029.2382 -131.18113 39.949919)
(3027.9557 -126.78147 40.967431)
(3028.6041 -122.33367 40.439931)
(3031.8303 -118.46765 38.840675)
(3036.5049 -114.8903 35.313678)
(3043.7633 -113.16642 31.387415)
(3051.211 -111.35109 25.177804)
(3059.9883 -112.17804 19.469767)
(3068.3154 -113.03686 11.967436)
(12.556367 -34.919474 -43.617473)
(31.695518 -48.100983 -43.074373)
(48.771945 -64.877907 -50.977557)
(66.165427 -75.585338 -48.941991)
(87.831141 -88.266085 -47.043892)
(109.63058 -99.539147 -42.807669)
(132.56368 -109.08948 -37.751894)
(155.93418 -118.71256 -32.198856)
(179.49946 -127.31666 -26.605195)
(202.25471 -135.45638 -21.651221)
(224.38905 -143.4453 -17.223668)
(245.43264 -151.35484 -14.094935)
(265.24225 -159.63748 -12.138495)
(284.02379 -168.32476 -11.585203)
(302.00323 -177.92764 -12.473212)
(319.22552 -188.38725 -14.718641)
(336.55926 -200.08142 -18.307243)
(354.34303 -212.90658 -22.804448)
(373.24312 -227.05946 -28.155741)
(394.011 -242.50046 -33.92897)
(417.35351 -258.96703 -39.59894)
(443.60931 -276.58867 -45.264625)
(473.40852 -294.91063 -50.141435)
(507.11111 -313.87022 -54.391774)
(544.47412 -333.26781 -57.822583)
(585.88628 -352.66721 -59.996114)
(631.02317 -372.33188 -61.57174)
(679.55309 -391.48605 -62.040261)
(731.42823 -410.67277 -62.028113)
(786.18301 -429.14232 -61.15744)
(843.92939 -447.48973 -59.832485)
(904.41872 -465.03992 -57.79955)
(968.00434 -482.15062 -54.98987)
(1034.8084 -498.51305 -51.15544)
(1105.121 -514.04842 -46.089981)
(1179.1795 -528.48455 -39.566782)
(1257.0627 -541.55767 -31.105487)
(1338.8042 -553.24624 -21.039133)
(1423.829 -562.81862 -9.1901815)
(1511.661 -570.27493 4.109899)
(1601.1692 -575.17942 18.392205)
(1691.1435 -577.35208 32.993924)
(1780.1644 -576.64586 47.17525)
(1866.7857 -573.02656 60.129881)
(1949.6735 -566.57904 71.138869)
(2027.7379 -557.50186 79.625742)
(2100.2367 -546.10525 85.247455)
(2166.8462 -532.77833 87.936844)
(2227.6615 -517.97063 87.910876)
(2283.1619 -502.14673 85.642685)
(2334.1111 -485.7636 81.792421)
(2381.4342 -469.22581 77.114784)
(2426.0787 -452.874 72.353986)
(2468.8796 -436.96089 68.139053)
(2510.4575 -421.65324 64.904873)
(2551.1544 -407.03326 62.837512)
(2591.0222 -393.11949 61.867881)
(2629.857 -379.87558 61.696533)
(2667.2789 -367.24347 61.86064)
(2702.8309 -355.15266 61.821974)
(2736.085 -343.54104 61.058847)
(2766.7454 -332.36363 59.162978)
(2794.7009 -321.59218 55.899921)
(2820.068 -311.21841 51.251185)
(2843.1644 -301.24201 45.422634)
(2864.4541 -291.64816 38.778321)
(2884.4925 -282.43945 31.82784)
(2903.7569 -273.55894 25.091506)
(2922.6782 -265.07779 19.068211)
(2941.6117 -256.82177 14.265482)
(2960.5079 -248.76709 10.736602)
(2978.9587 -240.91852 8.4430833)
(2996.7247 -233.09255 7.2796188)
(3013.2763 -225.45471 6.9322666)
(3027.9818 -217.9375 6.9488098)
(3040.2857 -210.63826 6.8270347)
(3049.7423 -203.66621 6.1495079)
(3056.0349 -197.12454 4.5237726)
(3059.149 -191.23098 1.7670314)
(3059.1806 -186.0895 -2.223439)
(3056.5532 -181.9485 -7.3179212)
(3051.781 -178.89357 -13.315506)
(3045.5532 -177.0817 -19.84521)
(3038.6067 -176.54424 -26.522446)
(3031.6935 -177.29304 -32.896124)
(3025.5106 -179.22986 -38.567656)
(3020.6769 -182.21657 -43.142605)
(3017.6699 -186.01584 -46.336757)
(3016.8161 -190.35628 -47.902983)
(3018.2782 -194.91218 -47.721772)
(3022.0225 -199.34691 -45.755374)
(3027.8236 -203.34538 -42.009822)
(3035.2957 -206.63678 -36.719403)
(3043.929 -209.06386 -30.025117)
(3052.8019 -210.61792 -22.249113)
(0 0 0)
(0 0 0)
(0 0 0)
(0 0 0)
(0 0 0)
(0 0 0)
(0 0 0)
(0 0 0)
(0 0 0)
(0 0 0)
(0 0 0)
(0 0 0)
(0 0 0)
(0 0 0)
(0 0 0)
(21.555893 -16.016692 33.321645)
(35.410204 -55.616005 42.407777)
(49.391838 -58.412943 43.388777)
(71.009842 -79.494661 45.074678)
(91.413921 -87.563046 41.38453)
(115.03288 -100.72393 36.393267)
(138.95587 -109.71623 31.000576)
(163.2772 -120.35109 25.432195)
(187.38362 -128.27203 20.499521)
(209.93976 -136.61155 16.468878)
(231.70974 -144.32654 13.858146)
(251.93573 -151.96986 12.727007)
(270.23611 -159.51659 13.161966)
(287.29786 -168.05383 15.418564)
(303.11029 -176.40152 19.149016)
(318.09585 -186.53038 23.873894)
(333.20594 -197.87803 30.033974)
(349.03813 -209.14771 36.562067)
(365.89309 -223.68498 43.266925)
(386.00448 -237.94813 49.72326)
(408.17 -254.42813 55.234969)
(434.33589 -271.22834 59.821733)
(465.18881 -290.17989 63.334364)
(499.82744 -309.03059 65.078274)
(539.29159 -328.69323 65.430308)
(583.08413 -348.53817 64.479075)
(630.37276 -367.52942 62.490843)
(682.11969 -388.37961 59.438349)
(736.21141 -406.88199 56.284778)
(793.72739 -426.93262 52.31227)
(853.54006 -445.31801 48.585401)
(915.83784 -463.63072 44.448971)
(980.71116 -481.3394 40.187261)
(1048.2689 -498.31561 35.358018)
(1119.137 -514.64929 29.778368)
(1193.0042 -529.21329 22.804629)
(1270.6646 -543.59039 14.544468)
(1351.8592 -555.62744 4.6229277)
(1436.1695 -565.91077 -6.8124465)
(1523.1255 -573.91001 -19.57981)
(1611.6442 -579.39558 -33.104026)
(1700.5346 -582.11188 -46.765157)
(1788.3899 -581.95738 -59.755234)
(1873.7904 -578.90078 -71.283016)
(1955.4291 -573.03698 -80.645856)
(2032.2664 -564.5796 -87.323813)
(2103.6121 -553.83386 -91.054444)
(2169.2019 -541.18701 -91.871641)
(2229.1841 -527.0651 -90.092414)
(2284.0733 -511.90928 -86.273158)
(2334.6399 -496.13127 -81.123474)
(2381.7867 -480.0963 -75.404648)
(2426.3995 -464.0921 -69.817146)
(2469.2297 -448.33294 -64.910866)
(2510.7941 -432.94961 -61.012961)
(2551.3352 -418.01261 -58.202842)
(2590.8187 -403.54075 -56.32083)
(2628.9931 -389.53201 -55.021495)
(2665.4705 -375.97149 -53.849304)
(2699.838 -362.86288 -52.330798)
(2731.7582 -350.21719 -50.06618)
(2761.0565 -338.07523 -46.802613)
(2787.7693 -326.48153 -42.47196)
(2812.1524 -315.485 -37.219319)
(2834.6445 -305.12263 -31.347368)
(2855.7926 -295.3931 -25.288954)
(2876.2125 -286.34848 -19.52316)
(2896.2574 -277.73865 -14.438996)
(2916.4343 -269.17962 -10.710249)
(2937.1015 -261.64659 -7.8528332)
(2957.2601 -253.92954 -6.4498732)
(2977.4853 -246.22545 -6.1052441)
(2996.6823 -238.52104 -6.4158745)
(3014.3835 -230.64526 -7.0424349)
(3029.8642 -222.70959 -7.4480319)
(3042.5294 -214.75321 -7.2040588)
(3051.926 -206.93078 -5.9600071)
(3057.829 -199.43543 -3.4829511)
(3060.2404 -192.49944 0.28691402)
(3059.4233 -186.35242 5.2646346)
(3055.8468 -181.23581 11.217489)
(3050.1649 -177.3265 17.815379)
(3043.1291 -174.77047 24.642899)
(3035.5618 -173.62102 31.271935)
(3028.2471 -173.8654 37.261021)
(3021.9325 -175.39678 42.221586)
(3017.22 -178.03718 45.807641)
(3014.603 -181.53883 47.762564)
(3014.3609 -185.60233 47.90324)
(3016.6283 -189.89783 46.164237)
(3021.292 -194.09701 42.540036)
(3028.121 -197.87818 37.202177)
(3036.5847 -200.98924 30.310137)
(3046.1529 -203.30523 22.182943)
(3056.3056 -204.8082 13.245431)
(3067.4424 -196.27309 -2.3632703)
(3069.3971 -187.9147 -7.5531406)
(3072.0028 -180.47165 -10.429753)
(3073.3784 -174.21272 -12.523569)
(3076.364 -168.54674 -11.983001)
(3076.7903 -163.75454 -11.281163)
(3078.7357 -159.13287 -8.3157577)
(3078.8253 -154.86527 -5.8637818)
(3078.1405 -150.15872 -3.1322951)
(3078.0479 -146.3131 -0.56654953)
(3077.7434 -141.54483 1.0857271)
(3075.8217 -136.27921 1.8056181)
(3075.6956 -130.55379 0.51091528)
(3075.0098 -124.16234 -1.9465535)
(3074.868 -115.77589 -6.823375)
(3068.0383 -105.78405 -19.450958)
(3059.6766 -104.64629 -25.601365)
(3050.8696 -104.18036 -31.067932)
(3043.0327 -105.20197 -35.671654)
(3036.3692 -107.44936 -38.867311)
(3031.3155 -110.75633 -41.016349)
(3028.3972 -115.00132 -41.651619)
(3027.6563 -119.75707 -40.934952)
(3029.1818 -124.69853 -38.899484)
(3032.6667 -129.44021 -35.637981)
(3037.8531 -133.51324 -31.46667)
(3044.093 -136.6422 -26.550123)
(3050.902 -138.41735 -21.236981)
(3057.5523 -138.65724 -15.727863)
(3063.4236 -137.18786 -10.371096)
(3067.8119 -133.87678 -5.3797815)
(3070.1351 -128.76691 -0.99489908)
(3069.9524 -121.96867 2.6920589)
(3066.9597 -113.67455 5.6450848)
(3061.0662 -104.13165 7.9088147)
(3052.3339 -93.646893 9.643188)
(3041.0254 -82.483815 11.036794)
(3027.4838 -70.948411 12.362349)
(3012.2172 -59.17225 13.832193)
(2995.5725 -47.417313 15.782567)
(2978.1665 -35.555091 18.109247)
(2959.8786 -23.827485 21.274819)
(2941.0831 -11.140825 24.563013)
(2922.0509 1.2330359 28.546405)
(2902.2574 14.354791 32.718849)
(2881.5992 28.277296 36.845961)
(2859.707 43.147608 40.628302)
(2836.3513 59.038201 43.976657)
(2811.2783 75.989765 46.777762)
(2784.3998 93.950488 49.091023)
(2755.7192 112.83218 51.059603)
(2725.3404 132.51794 52.906624)
(2693.4191 152.89298 54.887797)
(2660.0981 173.86192 57.232334)
(2625.4372 195.3726 60.087551)
(2589.3611 217.40691 63.479114)
(2551.6111 239.98704 67.280886)
(2511.7448 263.13674 71.216249)
(2469.1528 286.87073 74.883002)
(2423.1222 311.14556 77.794774)
(2372.9077 335.8453 79.447326)
(2317.8435 360.74855 79.378034)
(2257.4068 385.53494 77.233611)
(2191.3562 409.77432 72.818183)
(2119.697 432.95478 66.142104)
(2042.8369 454.60261 57.315311)
(1961.402 473.99803 46.889618)
(1876.3784 490.96706 35.046007)
(1788.9073 504.71093 22.756108)
(1700.1265 515.33822 10.318903)
(1611.2639 522.48129 -1.6449141)
(1523.3845 526.44603 -12.668146)
(1437.239 526.58037 -22.287918)
(1354.2076 524.27772 -30.917815)
(1273.2224 519.50703 -37.892764)
(1195.6851 512.08423 -43.598568)
(1121.9211 502.39845 -48.144645)
(1050.2668 491.82591 -52.033902)
(981.83327 479.44935 -55.342044)
(916.02796 465.72534 -58.150243)
(853.44424 450.91628 -60.643354)
(793.07377 435.36106 -62.627567)
(736.47434 418.55996 -64.266468)
(682.55349 401.52734 -65.464101)
(632.60163 383.34123 -65.512067)
(586.71302 364.68234 -64.87608)
(544.58972 345.61653 -62.874706)
(507.33093 326.62825 -60.041039)
(473.8323 307.91382 -56.221693)
(444.05043 289.63179 -51.454059)
(418.23419 271.84877 -46.168483)
(394.87167 255.67989 -40.815708)
(373.96987 239.82274 -35.366696)
(354.63881 225.95361 -30.650222)
(335.79606 213.02735 -26.629106)
(317.57729 200.88112 -23.700779)
(298.84433 190.02873 -22.039931)
(279.59991 180.3737 -21.919796)
(259.09356 170.73648 -22.856297)
(237.76502 161.54169 -25.076427)
(215.64235 152.48966 -28.517327)
(192.35148 142.91234 -32.683208)
(168.92779 133.02557 -37.212365)
(145.17151 122.32276 -41.800046)
(122.0941 110.83392 -46.127231)
(99.710165 97.847553 -49.329289)
(79.151161 83.84302 -50.956384)
(59.81298 70.580713 -50.437835)
(41.96811 52.649669 -43.605611)
(35.907027 36.602487 -29.622079)
(0 0 0)
(0 0 0)
(0 0 0)
(0 0 0)
(0 0 0)
(0 0 0)
(0 0 0)
(0 0 0)
(0 0 0)
(0 0 0)
(0 0 0)
(0 0 0)
(0 0 0)
(0 0 0)
(0 0 0)
(0 0 0)
(0 0 0)
(0 0 0)
(0 0 0)
(0 0 0)
(0 0 0)
(0 0 0)
(0 0 0)
(0 0 0)
(0 0 0)
(0 0 0)
(0 0 0)
(0 0 0)
(0 0 0)
(0 0 0)
(3066.5104 -221.01453 -14.679929)
(3072.5686 -229.65413 -15.033548)
(3079.2296 -238.6168 -14.593761)
(3086.0423 -247.24675 -13.578908)
(3092.3691 -254.78534 -11.964806)
(3097.5213 -260.81434 -9.8383929)
(3100.9295 -264.56649 -7.3993086)
(3102.2378 -265.62334 -4.8211496)
(3101.3314 -263.92598 -2.3034127)
(3098.4625 -259.59393 0.048042529)
(3093.808 -252.95305 1.9094381)
(3088.1178 -244.69961 3.4499326)
(3081.8929 -235.53362 4.2391394)
(3076.0139 -225.89598 4.4343581)
(3070.379 -216.26158 4.3318537)
(3082.9287 -107.8673 4.6658833)
(3090.6861 -101.63785 5.0832616)
(3099.0239 -95.629485 4.7691368)
(3107.3327 -89.905073 3.8956282)
(3115.0669 -84.780267 2.4205403)
(3121.3945 -80.663854 0.4988835)
(3125.4872 -77.894134 -1.7815732)
(3126.9137 -76.727133 -4.2039688)
(3125.5103 -77.206231 -6.603936)
(3121.4628 -79.254369 -8.8211282)
(3115.2097 -82.54874 -10.638379)
(3107.5064 -86.896326 -12.024827)
(3099.1294 -91.581031 -12.904322)
(3090.9193 -96.707677 -13.032829)
(3083.2021 -101.74725 -13.063732)
(16.605988 24.71011 36.267446)
(34.024263 38.254296 38.577474)
(51.469929 53.594727 44.454235)
(72.602692 66.908582 43.946005)
(93.731849 79.300365 43.142164)
(117.38199 91.341184 39.975189)
(141.13541 102.56791 36.70859)
(165.70674 113.53233 32.936758)
(189.73611 123.91886 29.623489)
(213.30348 134.0981 26.757266)
(235.75317 144.02585 24.691286)
(257.13619 153.98808 23.707762)
(277.32613 163.91333 23.649084)
(296.50371 174.18907 24.713214)
(314.90916 184.77268 26.65816)
(333.01089 195.92739 29.44473)
(351.43197 207.57504 32.801575)
(370.77838 219.99816 36.54047)
(391.69943 232.95704 40.388738)
(414.83958 246.62415 44.142765)
(440.83326 260.7888 47.566137)
(470.22673 275.46522 50.579974)
(503.26251 290.47429 52.935554)
(540.23076 305.61509 54.76996)
(581.25066 320.8272 55.922011)
(626.16418 335.89816 56.557361)
(674.73119 350.85061 56.708542)
(726.79932 365.1787 56.50548)
(782.27088 379.05072 55.957808)
(840.71105 392.18658 55.018642)
(902.23659 404.31536 53.733492)
(966.90679 415.40129 51.912627)
(1034.7168 425.1096 49.346413)
(1105.8789 433.34634 45.813708)
(1180.5977 439.81243 41.008298)
(1259.0231 444.37012 34.871235)
(1341.0051 446.9859 27.268474)
(1426.2369 447.23171 18.237904)
(1514.3505 445.33162 7.9312352)
(1604.3507 441.1873 -3.1840008)
(1695.1959 434.64649 -14.710884)
(1785.5678 425.84821 -26.083143)
(1874.4396 415.08497 -36.706544)
(1960.2182 402.2544 -45.918296)
(2041.8575 387.68364 -53.396959)
(2118.4237 371.47593 -58.73913)
(2189.3772 353.84727 -61.897468)
(2254.4995 334.99059 -62.956434)
(2313.9411 315.10886 -62.212538)
(2368.1594 294.40191 -60.099367)
(2417.8308 273.08536 -57.132867)
(2463.7593 251.36462 -53.836383)
(2506.7464 229.46679 -50.677279)
(2547.5035 207.60335 -47.997832)
(2586.5601 185.99984 -45.987405)
(2624.2305 164.8518 -44.659107)
(2660.5999 144.35066 -43.875738)
(2695.5666 124.63596 -43.371904)
(2728.8953 105.81627 -42.827111)
(2760.312 87.945928 -41.916645)
(2789.5698 71.020949 -40.37687)
(2816.5405 54.98832 -38.048457)
(2841.2379 39.761104 -34.914093)
(2863.8387 25.220291 -31.095497)
(2884.7214 11.238781 -26.824407)
(2904.1256 -2.3461474 -22.362225)
(2922.6592 -15.590577 -18.112745)
(2940.7601 -28.516368 -14.377249)
(2958.558 -41.063836 -11.222849)
(2976.1508 -53.25302 -8.9468034)
(2993.3533 -65.030191 -7.3286277)
(3009.8401 -76.227048 -6.2423991)
(3025.2439 -86.805031 -5.4659959)
(3038.9995 -96.616204 -4.7642169)
(3050.6396 -105.47864 -3.8103013)
(3059.7139 -113.38509 -2.3847684)
(3065.9599 -120.15126 -0.35013298)
(3069.2738 -125.81202 2.3836722)
(3069.7343 -130.21843 5.7504229)
(3067.6336 -133.48498 9.6814685)
(3063.3982 -135.48598 13.925839)
(3057.5853 -136.38945 18.327396)
(3050.8816 -136.18392 22.619943)
(3043.9865 -135.14094 26.478763)
(3037.5455 -133.19433 29.779598)
(3032.0392 -130.83643 32.303144)
(3028.2598 -128.07879 33.884773)
(3026.4162 -125.32564 34.394991)
(3026.8872 -122.7467 33.778072)
(3029.6661 -120.63405 31.898395)
(3034.576 -119.08747 28.920388)
(3041.5347 -118.52295 24.784685)
(3049.5044 -118.31958 19.491528)
(3058.4774 -119.63466 13.69415)
(3067.1998 -120.99153 6.66735)
(9.836279 21.225895 30.166131)
(26.014564 26.961041 34.751118)
(46.208285 42.448158 38.034694)
(65.889877 52.269062 39.048991)
(88.351916 64.126799 37.558255)
(111.45187 74.618217 35.280779)
(135.76962 85.400416 32.355663)
(159.97853 95.495637 29.440112)
(184.17169 105.5386 26.655496)
(207.62385 115.2849 24.317598)
(230.11182 124.98787 22.765688)
(251.38515 134.57545 21.921801)
(271.44481 144.20589 22.00668)
(290.474 153.95422 22.877849)
(308.67884 163.87677 24.576606)
(326.59553 174.02033 26.911935)
(344.70435 184.46908 29.735936)
(363.75381 195.20825 32.849358)
(384.30359 206.30742 36.056896)
(407.13239 217.72334 39.188685)
(432.81613 229.42137 42.083542)
(461.82655 241.39311 44.538605)
(494.57951 253.50789 46.570198)
(531.279 265.79605 48.056941)
(571.98021 278.10009 49.039293)
(616.63722 290.38871 49.521823)
(665.04109 302.45663 49.644458)
(717.0429 314.23725 49.409807)
(772.33644 325.54229 48.809817)
(830.87652 336.19094 47.965426)
(892.53645 345.96422 46.743142)
(957.30322 354.68123 44.994558)
(1025.3286 362.1387 42.631561)
(1096.7842 368.12045 39.391339)
(1171.9281 372.4769 35.2188)
(1250.7342 375.1056 29.816821)
(1333.1249 375.87631 23.248757)
(1418.8692 374.79229 15.502718)
(1507.391 371.91848 6.7610074)
(1597.7815 367.2345 -2.6739188)
(1689.1333 360.84147 -12.371091)
(1780.1423 352.86754 -21.98208)
(1869.4878 343.33385 -30.786062)
(1955.904 332.4326 -38.488303)
(2038.2567 320.20624 -44.681693)
(2115.6322 306.71466 -49.15386)
(2187.4433 292.03629 -51.79733)
(2253.4625 276.2309 -52.712956)
(2313.8018 259.38494 -52.152046)
(2368.8792 241.60964 -50.46392)
(2419.3351 223.05195 -48.081385)
(2465.9339 203.88957 -45.4244)
(2509.4505 184.34959 -42.876666)
(2550.5799 164.66709 -40.708354)
(2589.8491 145.10952 -39.074064)
(2627.5858 125.91741 -37.977711)
(2663.8995 107.31941 -37.306779)
(2698.7233 89.483471 -36.844464)
(2731.8623 72.526457 -36.33494)
(2763.0801 56.489976 -35.51472)
(2792.1614 41.344454 -34.177804)
(2819.0052 27.011187 -32.195345)
(2843.6288 13.369203 -29.574211)
(2866.2191 0.27088095 -26.395744)
(2887.1204 -12.432885 -22.839222)
(2906.555 -24.864821 -19.175053)
(2925.4133 -36.960033 -15.804199)
(2943.484 -48.807898 -12.623188)
(2961.2145 -60.376304 -9.9048972)
(2978.6437 -71.536013 -7.8767692)
(2995.7228 -82.074865 -6.402098)
(3012.1192 -91.912174 -5.3506973)
(3027.3559 -100.91264 -4.5820727)
(3040.9388 -108.9689 -3.8001523)
(3052.4036 -115.93649 -2.8559742)
(3061.3266 -121.92348 -1.5124239)
(3067.4348 -126.71042 0.27941104)
(3070.6098 -130.55692 2.6566997)
(3070.9448 -133.27478 5.4850206)
(3068.6948 -135.12457 8.7565055)
(3064.3062 -136.0127 12.239752)
(3058.3258 -136.16812 15.832977)
(3051.4427 -135.566 19.19812)
(3044.2679 -134.48975 22.506957)
(3037.4506 -133.12393 25.120604)
(3031.8378 -131.21317 27.008157)
(3027.792 -129.28568 28.035991)
(3025.8467 -127.48444 28.278828)
(3026.0944 -125.92813 27.344116)
(3028.8977 -124.90854 25.695634)
(3033.6439 -124.28703 22.620506)
(3040.8131 -124.66457 19.13445)
(3048.8038 -125.11548 13.983756)
(3058.1839 -127.02722 8.813887)
(3067.2255 -128.89835 1.8630239)
(6.5100515 15.686316 25.564071)
(22.59053 21.199167 28.743431)
(39.569919 32.055817 32.970392)
(60.454902 41.145712 33.226022)
(82.331566 50.67458 32.211883)
(106.04648 60.456857 30.158213)
(130.0325 69.683153 28.02505)
(154.56317 78.925033 25.637199)
(178.65143 87.860958 23.380372)
(202.10452 96.900349 21.71385)
(224.5023 105.62789 20.432159)
(245.70431 114.48436 19.958234)
(265.72203 123.18254 20.050479)
(284.60983 132.03413 20.941621)
(302.73826 140.8271 22.360936)
(320.49446 149.80951 24.372107)
(338.51653 158.7972 26.681484)
(357.35399 168.00248 29.270927)
(377.77926 177.26693 31.880931)
(400.3957 186.71142 34.436556)
(425.81741 196.24079 36.708933)
(454.59279 205.90137 38.696706)
(487.06785 215.65199 40.24399)
(523.47551 225.44831 41.386899)
(563.90185 235.26798 42.072999)
(608.29051 245.00721 42.399417)
(656.47633 254.63138 42.381714)
(708.27063 263.96048 42.046156)
(763.51881 272.87284 41.495163)
(822.02172 281.19768 40.656065)
(883.71804 288.72996 39.480877)
(948.68447 295.30462 37.922431)
(1016.9777 300.68029 35.797899)
(1088.8153 304.74289 33.027419)
(1164.2597 307.33168 29.358996)
(1243.3851 308.38219 24.768949)
(1326.1137 307.86553 19.229706)
(1412.1114 305.76129 12.761758)
(1500.895 302.15703 5.4344568)
(1591.6291 297.19576 -2.3499317)
(1683.2674 290.91537 -10.415439)
(1774.5552 283.44354 -18.249796)
(1864.2533 274.90307 -25.485702)
(1951.1253 265.32277 -31.717635)
(2033.9961 254.72436 -36.733108)
(2111.9939 243.18107 -40.308841)
(2184.532 230.67835 -42.391449)
(2251.3547 217.21589 -43.079099)
(2312.5469 202.82873 -42.573092)
(2368.4835 187.57166 -41.175407)
(2419.7608 171.54935 -39.233523)
(2467.0926 154.90955 -37.088224)
(2511.2206 137.85272 -35.045)
(2552.8085 120.6021 -33.312686)
(2592.3765 103.41437 -32.009049)
(2630.257 86.522022 -31.125235)
(2666.5822 70.150452 -30.566203)
(2701.3228 54.459582 -30.152726)
(2734.3228 39.559922 -29.681477)
(2765.3908 25.482369 -28.941728)
(2794.351 12.195281 -27.781116)
(2821.1226 -0.38283344 -26.105433)
(2845.7334 -12.383164 -23.934924)
(2868.39 -23.934096 -21.309225)
(2889.3502 -35.149773 -18.451503)
(2908.9721 -46.069848 -15.527943)
(2927.7326 -56.934258 -12.726792)
(2945.6927 -67.321687 -9.9854763)
(2963.3972 -77.300988 -8.166665)
(2980.727 -87.034744 -6.5893333)
(2997.6173 -96.141292 -5.49406)
(3013.643 -104.51567 -4.6654189)
(3028.5048 -112.07609 -3.9421511)
(3041.7541 -118.69692 -3.236853)
(3052.942 -124.30296 -2.3322253)
(3061.5886 -128.87251 -1.06573)
(3067.516 -132.46555 0.59395179)
(3070.5543 -135.11071 2.7124305)
(3070.8106 -136.85976 5.1757662)
(3068.5362 -137.83961 7.956411)
(3064.1369 -138.08992 10.846959)
(3058.1784 -137.76809 13.740195)
(3051.314 -136.90827 16.439332)
(3044.0443 -135.6847 18.851222)
(3037.4822 -134.21692 20.496553)
(3031.8773 -132.73823 21.800381)
(3027.8992 -131.26306 22.355323)
(3025.921 -130.08763 22.220051)
(3026.2794 -129.19131 21.230743)
(3029.0862 -128.85297 19.462932)
(3034.0296 -128.94289 16.782066)
(3041.3055 -129.87978 13.406927)
(3049.5163 -130.96653 9.0522011)
(3059.118 -133.26142 4.1585209)
(3068.1805 -135.69623 -1.6861675)
(4.9323784 13.654813 20.610861)
(18.584574 16.264447 24.429113)
(35.794645 25.076409 26.786524)
(55.672199 31.727486 27.534074)
(77.721195 39.829332 26.619423)
(100.82042 47.782888 25.348853)
(125.04937 55.779804 23.690898)
(149.26668 63.5453 21.807063)
(173.34815 71.499929 20.335431)
(196.69423 79.131951 18.987265)
(219.02077 86.813829 18.237396)
(240.18585 94.367983 17.863469)
(260.08827 101.92916 18.13292)
(278.96605 109.40851 18.840811)
(296.99959 116.90283 20.069962)
(314.76657 124.36205 21.618818)
(332.66452 131.83335 23.4804)
(351.49658 139.30651 25.461002)
(371.78837 146.78548 27.467494)
(394.30007 154.29484 29.371097)
(419.58927 161.80915 31.085427)
(448.1908 169.36493 32.520439)
(480.44958 176.9203 33.635339)
(516.63584 184.50065 34.403472)
(556.80983 192.04069 34.850174)
(600.95817 199.52911 34.996534)
(648.92662 206.86266 34.873964)
(700.57688 213.94752 34.55304)
(755.6856 220.65874 34.008925)
(814.16269 226.84359 33.255324)
(875.93452 232.32764 32.259271)
(941.02043 236.94173 30.919264)
(1009.5349 240.52579 29.149243)
(1081.5773 242.96232 26.789584)
(1157.2987 244.11315 23.779112)
(1236.7136 243.96781 20.026847)
(1319.8085 242.50274 15.495397)
(1406.1799 239.82591 10.123743)
(1495.1844 235.96983 4.3160652)
(1586.0566 230.91751 -1.9993606)
(1677.7805 224.87629 -8.3425669)
(1769.2214 217.94335 -14.515997)
(1859.087 210.16068 -20.148759)
(1946.1301 201.61215 -24.997363)
(2029.2909 192.30913 -28.812363)
(2107.7026 182.26381 -31.471936)
(2180.7621 171.44949 -32.956466)
(2248.2092 159.86018 -33.348532)
(2310.102 147.50435 -32.829495)
(2366.7789 134.42049 -31.64651)
(2418.7903 120.68782 -30.075206)
(2466.8077 106.42943 -28.386691)
(2511.5299 91.813502 -26.811586)
(2553.5917 77.031447 -25.503425)
(2593.4964 62.300832 -24.541972)
(2631.5762 47.818857 -23.903231)
(2667.9803 33.778492 -23.506064)
(2702.7067 20.307694 -23.198357)
(2735.6368 7.4993461 -22.820971)
(2766.62 -4.6261792 -22.213081)
(2795.5128 -16.098078 -21.264381)
(2822.2526 -26.989641 -19.91597)
(2846.9133 -37.413382 -18.177891)
(2869.6287 -47.444868 -16.134172)
(2890.7195 -57.212391 -13.946701)
(2910.4909 -66.764063 -11.662112)
(2929.3621 -76.02777 -9.607509)
(2947.4759 -85.126594 -7.8195466)
(2965.1989 -93.793004 -6.31976)
(2982.5189 -102.04146 -5.1314887)
(2999.1564 -109.74875 -4.3077021)
(3015.0464 -116.67391 -3.6267636)
(3029.8052 -122.84371 -3.0986472)
(3042.8344 -128.05812 -2.4672657)
(3053.6881 -132.36537 -1.614551)
(3062.1062 -135.8018 -0.51033307)
(3067.8129 -138.33085 0.92415991)
(3070.6826 -140.10578 2.6805461)
(3070.8491 -141.08961 4.6751241)
(3068.4904 -141.50792 6.8735269)
(3064.0944 -141.31647 9.08216)
(3058.1477 -140.72615 11.258569)
(3051.2642 -139.77774 13.194008)
(3044.2172 -138.62174 14.884516)
(3037.5846 -137.3379 16.096719)
(3032.0174 -136.06254 16.858837)
(3028.0429 -134.98322 17.02806)
(3026.1465 -134.17426 16.660927)
(3026.5559 -133.76301 15.592613)
(3029.4571 -133.84145 13.984352)
(3034.4783 -134.33074 11.593103)
(3041.932 -135.57158 8.7683129)
(3050.2346 -136.95268 5.0984591)
(3060.0854 -139.32086 1.055818)
(3069.2239 -141.73346 -3.7136057)
(3.2921048 9.8635547 16.4379)
(16.403867 12.138199 18.506235)
(32.216902 18.54314 21.223373)
(51.68926 24.089546 21.740853)
(73.117353 30.063683 21.337)
(96.478692 36.65762 20.251531)
(120.39155 42.825548 18.969777)
(144.67726 49.38958 17.868878)
(168.68788 55.549265 16.645423)
(191.96971 61.917525 15.950554)
(214.27303 67.969848 15.368587)
(235.33908 74.172878 15.359529)
(255.26864 80.116563 15.571563)
(274.03607 86.142949 16.315648)
(292.12549 91.985754 17.211202)
(309.77896 97.872556 18.5094)
(327.72199 103.61709 19.854772)
(346.44369 109.37621 21.353029)
(366.70544 115.04091 22.781517)
(389.10707 120.7019 24.155178)
(414.27354 126.29997 25.314926)
(442.69508 131.89446 26.282741)
(474.76301 137.45007 26.970231)
(510.71068 142.98057 27.423412)
(550.6337 148.45312 27.616241)
(594.52272 153.85113 27.594261)
(642.26118 159.08619 27.395067)
(693.68801 164.10126 27.034359)
(748.66485 168.77044 26.535302)
(807.05611 172.97715 25.895631)
(868.81388 176.57022 25.061105)
(933.96965 179.43406 23.98524)
(1002.588 181.41558 22.563746)
(1074.8166 182.41874 20.738048)
(1150.7385 182.38562 18.389327)
(1230.338 181.23951 15.495523)
(1313.5839 179.12704 11.955406)
(1399.6985 175.74237 8.134404)
(1488.8819 171.34638 3.6280078)
(1579.902 166.27837 -1.0805061)
(1671.7923 160.43552 -5.8760849)
(1763.3728 153.90836 -10.495854)
(1853.4219 146.79863 -14.69351)
(1940.7576 139.11967 -18.258131)
(2024.3016 130.89652 -21.029267)
(2103.1726 122.11971 -22.929191)
(2176.7886 112.78279 -23.942245)
(2244.875 102.86623 -24.141569)
(2307.4669 92.375551 -23.671081)
(2364.8685 81.335296 -22.719431)
(2417.5958 69.809294 -21.496932)
(2466.2795 57.894753 -20.205491)
(2511.589 45.726443 -19.012233)
(2554.1307 33.456511 -18.027029)
(2594.3999 21.257183 -17.300296)
(2632.7258 9.2833579 -16.808951)
(2669.2743 -2.3155278 -16.488395)