/*--------------------------------*- C++ -*----------------------------------*\
  =========                 |
  \\      /  F ield         | OpenFOAM: The Open Source CFD Toolbox
   \\    /   O peration     | Website:  https://openfoam.org
    \\  /    A nd           | Version:  6
     \\/     M anipulation  |
\*---------------------------------------------------------------------------*/
FoamFile
{
    version     2.0;
    format      ascii;
    class       pointScalarField;
    location    "0.45";
    object      E;
}
// * * * * * * * * * * * * * * * * * * * * * * * * * * * * * * * * * * * * * //

dimensions      [1 -1 -2 0 0 0 0];

internalField   nonuniform List<scalar> 
28033
(
118113.21
111350.05
1042.774
-4463.7775
125865.12
133195.86
-3507.5846
909.67593
67206.874
46476.087
30787.439
21343.287
12841.248
8126.3458
5539.6798
5080.8754
8236.9522
13176.188
22671.237
35692.198
51785.815
69589.523
104206.23
956.85103
287.69636
371.30812
247.93911
-4.6976031
-24.644985
-294.16951
-13.663383
70.672738
-125.19181
-250.86684
-920.35066
-1480.178
-1680.0412
-1733.4149
92143.771
59047.048
56643.844
55660.89
56361.691
56129.148
55818.505
54892.813
53721.17
52350.232
50518.692
48612.303
46613.269
44575.306
42440.403
40126.643
38214.19
36172
34325.939
32355.665
30874.009
29133.508
27844.852
26418.949
25187.464
24110.939
22915.495
21857.234
20825.051
19739.802
18723.722
17724.951
16625.749
15597.521
14464.15
13757.734
12757.911
11667.939
10987.732
10013.464
9142.4034
8273.9428
7477.6945
6716.7485
6037.47
5442.0476
4885.3755
4436.8768
3991.0764
3615.3952
3211.5326
2828.8305
2407.8708
1980.6094
1533.5308
1082.5779
634.61245
196.87398
-229.74346
-639.10782
-1053.4582
-1436.5327
-1856.8626
-2174.6237
-2583.6623
-2948.3676
-3180.3076
-3510.8709
-3617.5226
-3714.9727
-3791.1114
-3804.6218
-3830.423
-3809.467
-3799.2204
-3771.7561
-3775.4444
-3725.6468
-3744.9934
-3726.4435
-3669.9266
-3683.1894
-3576.524
-3658.1737
-3549.1335
-3562.3216
-3355.1098
-3322.3929
-3016.1573
-2924.6747
-2486.6388
-2432.1972
-1785.1287
-1629.8025
75.373485
86314.801
50312.413
57081.12
54594.38
54499.114
55084.732
53779.743
53327.759
51672.431
50098.406
48081.236
45835.33
43626.191
41212.325
38904.737
36534.669
34197.411
32020.475
29962.908
28129.284
26285.111
24796.033
23215.802
21964.76
20641.176
19502.405
18438.201
17274.503
16287.999
15140.48
14018.196
13012.125
12026.977
11037.657
10059.064
9273.1928
8296.6051
7383.0593
6628.5163
5938.301
5260.2394
4672.7
4142.883
3677.4256
3273.4718
2944.5115
2672.3291
2467.5914
2319.2052
2207.5853
2136.1791
2067.3206
1999.989
1911.5993
1797.9131
1652.2028
1495.1261
1323.2945
1171.3772
1044.6329
968.32079
933.20837
959.57634
1020.6021
1121.8123
1236.5649
1377.5099
1520.05
1630.8027
1662.0814
1792.2399
1775.5398
1963.9568
1942.6675
2046.7316
2051.0666
2050.2914
2039.8357
1947.167
1862.2343
1739.1733
1572.478
1438.3498
1246.5904
1099.8363
916.81509
769.20794
595.22812
438.4185
277.55015
92.057762
-100.58832
-306.08188
-552.1717
-1521.8702
79225.601
51556.811
35039.101
26928.27
15191.084
9802.512
7249.5425
7002.3445
10341.525
18792.25
27148.732
42687.597
60484.58
84116.662
103917.31
171275.59
70682.148
43552.116
61836.602
55157.127
58367.162
55940.823
55936.23
53929.997
52126.814
50472.19
47672.676
45718.137
42960.297
40581.056
38244.162
36409.089
32358.132
31837.526
28104.778
26995.335
25955.115
24175.938
22693.333
21070.455
19616.329
19010.522
16935.064
16682.526
14639.801
13563.592
12481.523
11443.279
10746.334
9054.593
9683.9559
8161.6432
7659.8128
6878.8985
6159.8712
5471.3786
4798.0176
4180.6871
3642.3875
3192.6957
2841.2588
2570.746
2367.6153
2191.8588
2023.0218
1823.2937
1582.5959
1299.3611
982.75107
671.55182
385.35022
172.90045
44.026076
14.431847
77.409091
202.33888
367.4817
536.66977
673.59959
774.56988
840.22597
862.25485
360.61659
1374.2784
761.58376
754.53708
676.25743
659.59873
639.57301
580.73007
508.18934
411.39482
305.56869
174.40658
65.606855
-52.571591
-138.38286
-230.22789
-291.31641
-374.93221
-448.53367
-557.95606
-684.12555
-845.70657
-1040.6504
-1250.4132
-1500.8245
-1718.9873
-2077.2778
-1177.2528
-1192.7422
-1774.0092
-1383.3975
-637.97576
211.72061
347.23422
760.23558
-287.19798
316.92602
-7.6560084
191.14666
-136.25879
783.59524
-422.80182
252.62634
160.84506
-202.63686
213.86892
-134.61982
-347.07005
-586.05493
-811.97789
-1014.5998
-1222.8276
-1367.514
-1515.6767
-1618.9683
-1706.8143
-1805.0763
-1846.7591
-1904.8553
-1952.3088
-2012.4748
-2074.0523
-2124.8307
-2191.6066
-2236.111
-2275.4729
-2309.2362
-2263.7716
-2223.9246
-1805.8768
-3215.3567
-1971.8861
-2174.0956
-1949.1382
-1814.0306
-1635.2563
-1414.5127
-1149.1557
-854.88234
-514.58164
-154.01076
235.10931
628.51247
1035.2213
1432.3362
1834.5965
2228.5314
2631.1953
3041.532
3480.1521
3938.7052
4462.665
5014.4928
5636.5625
6310.1955
7049.3844
7835.6702
8659.8631
9568.2996
10028.391
12117.219
12261.999
12718.557
15240.694
14918.469
16344.362
17119.801
18969.273
19673.188
20755.718
21727.95
22694.588
24175.711
25542.557
26707.261
27588.552
29950.356
30846.315
32694.078
34562.907
36608.183
38925.538
40316.18
43640.745
46186.432
47533.302
49954.879
53384.491
53144.605
55858.588
57126.802
58220.809
56418.318
57371.016
59132.712
59201.904
53267.465
98681.572
75560.811
73967.519
71458.42
71616.915
73106.78
74082.622
73920.31
74552.487
74610.016
74178.865
71979.939
70595.676
72011.92
73587.463
81852.122
75536.064
78583.761
76363.02
80732.906
80647.774
80232.152
85597.118
91230.915
88427.881
87730.852
83330.187
80136.234
78883.059
76647.067
86653.148
-3907.709
-3888.6563
-3868.4173
-3869.1033
-3889.9037
-3906.3091
-3902.8659
-3902.5014
-3879.0045
-3868.0492
-3838.9182
-3826.4425
-3793.7241
-3900.3758
-3431.8225
1357.8232
1186.0075
1305.3737
1155.7471
1276.4696
1257.1592
1266.2252
1273.8476
1299.3114
1304.9419
1354.4275
1332.3658
1347.7474
1329.5363
1443.0372
64962.481
50272.374
46165.796
44956.575
44807.556
44655.572
44689.163
44315.241
43805.963
43025.018
41927.474
40770.754
39380.204
38028.109
36476.426
35136.673
33698.21
32283.953
30896.906
29622.689
28338.278
26960.436
25836.434
24497.942
23374.191
22243.217
21155.306
20187.949
19271.993
18454.22
17590.424
16932.171
16232.533
15531.427
14910.335
14038.159
13363.983
12482.081
11763.066
10913.434
10123.197
9386.7931
8711.19
8019.1855
7378.9453
6716.085
6075.47
5422.7031
4758.3627
4115.9997
3491.736
2927.0034
2437.0466
2041.2379
1742.7669
1531.1993
1388.3027
1282.1197
1182.7177
1068.2045
917.08172
731.48931
506.32968
284.76168
-21.243226
-190.89785
-280.6024
-287.20372
-493.6121
-768.53308
-893.84756
-1092.5446
-1250.4528
-1404.7659
-1526.2823
-1618.1954
-1649.6738
-1646.2031
-1574.0596
-1459.5112
-1288.5233
-1105.1954
-815.13103
-621.75676
-432.72228
-205.6104
-14.905859
150.41881
314.27416
402.28996
586.24858
611.99489
869.08417
930.17662
1718.5867
40711.646
34761.604
34753.089
33585.191
33598.227
33202.442
33084.854
32973.334
32700.022
32379.124
31789.842
31325.984
30551.566
29827.719
28913.571
28118.497
27185.089
26286.284
25402.666
24457.645
23563.215
22677.941
21804.397
20931.432
20064.598
19268.584
18441.61
17678.551
16930.651
16231.196
15600.073
14909.372
14297.049
13604.644
13011.169
12278.945
11676.801
10960.959
10212.29
9492.3579
8787.3985
8100.8541
7436.0959
6755.628
6140.7638
5550.468
4967.3498
4405.719
3843.7673
3300.7863
2764.9646
2269.0041
1805.7393
1395.1747
1034.6758
722.41955
447.41559
197.69056
-43.434476
-277.24223
-525.4364
-761.77867
-1001.8911
-1243.9702
-1443.9178
-1542.99
-837.12132
-329.42514
-529.97364
-545.89386
-537.2455
-595.16839
-618.34248
-605.24108
-576.22943
-509.57263
-423.11663
-302.45787
-160.21291
-18.99878
167.6942
279.71687
485.77016
-229.12963
-380.9798
-61.645583
195.66486
288.03752
569.37276
644.09523
868.98984
924.9952
1251.0281
1083.4192
2050.9683
25667.582
21719.717
24036.805
23844.623
24289.493
23858.035
23982.595
23837.835
23762.793
23616.168
23428.055
23190.325
22785.216
22420.793
21947.847
21446.201
20884.663
20350.999
19753.951
19159.433
18607.56
17919.178
17348.877
16646.326
16045.447
15360.07
14731.584
14106.458
13515.54
12943.86
12394.114
11890.364
11417.474
10908.087
10471.581
9862.9681
9308.2906
8611.3492
8047.1315
7426.0757
6719.5731
6155.1157
5508.8452
4933.3808
4402.0877
3847.1259
3317.137
2793.9049
2257.8718
1740.3122
1243.2836
783.70848
378.96985
32.463035
-248.55197
-480.88571
-668.23419
-835.93968
-992.19951
-1150.8213
-1312.2586
-1473.632
-1640.2156
-1785.324
-1893.0427
-2108.1965
-2011.7781
-1242.4628
-1667.212
-1610.0479
-1578.2787
-1611.3891
-1551.8426
-1495.0838
-1396.2296
-1291.3037
-1163.4978
-1014.6816
-861.76877
-698.72325
-517.83286
-325.45854
-218.51047
8.4400462
-284.95762
197.76622
334.60707
522.94831
707.22912
779.83767
1009.3327
999.36708
1314.1046
1133.8155
2142.3517
16269.674
13389.886
14828.144
15818.227
16257.195
16511.981
16594.287
16710.305
16613.365
16748.365
16564.816
16609.117
16352.856
16295.161
15917.896
15736.158
15360.794
15026.824
14618.084
14230.107
13796.767
13379.592
12942.609
12501.058
12041.37
11571.143
11124.319
10638.95
10200.22
9771.8049
9387.6906
8997.256
8639.0038
8266.5287
7951.2489
7420.2692
7181.9125
6754.3245
6304.8048
5760.4021
5244.2427
4698.709
4162.7887
3661.8854
3174.0757
2686.1615
2234.1133
1783.7159
1346.1128
935.62875
538.1593
174.94561
-156.69485
-452.1728
-709.5835
-934.89145
-1129.4772
-1300.8588
-1452.6693
-1582.3885
-1701.5175
-1796.8697
-1881.7295
-1917.6228
-1993.1419
-1948.5778
-2036.8804
-2248.6557
-2397.7072
-2254.1798
-2035.3268
-1988.1864
-2074.8394
-2062.8578
-1881.3234
-1744.6457
-1563.4065
-1397.8883
-1181.0244
-1000.5958
-749.82146
-595.44306
-287.30028
-167.04767
404.13861
648.68536
928.8658
976.87153
1220.7051
1215.184
1447.7754
1323.2883
1679.9572
1108.0211
1984.9378
10339.979
7319.5699
8955.9086
9373.3787
10265.457
10391.712
10728.923
10695.403
10855.826
10889.426
10930.494
10941.715
10874.546
10809.077
10636.575
10521.187
10245.579
10076.831
9807.0651
9560.7715
9297.4554
8994.2214
8711.9297
8364.462
8043.4682
7686.6985
7353.8988
7013.5823
6727.2646
6429.7111
6185.696
5952.736
5742.5727
5537.2633
5281.8775
4935.4336
4814.472
4265.414
4021.0906
3568.1394
3141.9723
2713.9417
2337.4391
1954.5807
1592.6206
1224.7652
878.43571
522.18529
185.59764
-134.59084
-428.38558
-682.44165
-894.54465
-1064.729
-1190.3284
-1288.1492
-1355.9226
-1408.6415
-1448.7132
-1478.32
-1500.1285
-1512.124
-1499.0019
-1481.2691
-1444.6887
-1372.7611
-1278.9569
-1265.0619
-1098.8124
-957.25777
-748.37074
-926.05323
-935.48572
-755.89054
-516.92962
-350.99
-164.91016
17.610983
210.11693
389.33945
570.47518
750.84424
903.22382
1072.6335
1216.4649
1311.596
1374.5515
1418.7475
1494.8156
1462.246
1557.318
1446.6302
1643.2933
978.89747
1721.2084
6162.6057
3735.4756
4470.9457
4795.6031
5379.7288
5771.8795
5939.8642
6238.9321
6295.0252
6558.1806
6522.0775
6729.0866
6645.4053
6745.7539
6602.3894
6592.822
6415.7863
6336.6831
6135.8012
6016.262
5825.7386
5667.8036
5477.6577
5287.6337
5101.8965
4892.9476
4699.5878
4495.496
4322.5002
4162.3298
4045.1788
3922.8583
3829.4205
3707.5603
3547.135
3438.227
3059.1188
3478.1284
3146.904
2678.4808
2335.4467
1992.4768
1675.4574
1371.3721
1051.046
739.51495
433.08418
139.60448
-142.01863
-403.60116
-640.52672
-845.28559
-1020.2584
-1163.2761
-1279.2352
-1373.5397
-1448.7501
-1513.9525
-1564.3867
-1607.7215
-1641.7343
-1645.6168
-1660.3139
-1641.7055
-1586.6898
-1558.3444
-1480.5984
-1408.4166
-1273.9196
-1164.7283
-1080.1237
-1038.7564
-1042.1083
-460.52673
-164.9546
-38.331964
150.91463
293.6325
478.51755
591.8941
788.15691
848.94118
1055.5793
1062.5325
1268.7835
1248.877
1454.9382
1402.8804
1613.937
1479.7948
1704.9438
1410.8471
1707.8174
863.53986
1397.1013
4117.727
1216.2776
1711.8975
1565.214
2093.9352
2307.4336
2709.7283
2862.4138
3159.2896
3331.7709
3478.918
3629.9997
3656.9129
3705.9173
3632.1431
3639.0132
3494.0022
3471.0692
3326.3655
3267.4902
3149.6295
3057.8902
2922.7165
2791.4116
2658.793
2504.0643
2391.2777
2283.311
2225.03
2175.9379
2158.3171
2143.2534
2134.4534
2070.1476
2039.7165
1861.5611
1771.7972
1385.5865
1485.5163
1060.9358
866.85311
597.63369
374.73938
155.81328
-54.669806
-250.96312
-425.85175
-610.93289
-775.51977
-936.38174
-1073.4921
-1194.5762
-1280.2014
-1340.911
-1363.8353
-1364.7527
-1333.5639
-1292.3624
-1232.5332
-1172.1376
-1095.2959
-1029.1512
-947.84576
-844.11773
-767.08854
-625.40847
-521.99094
-360.5367
-219.57183
-72.91586
114.69418
256.08984
441.31274
948.83293
1232.7494
1356.7541
1503.9696
1621.2217
1747.674
1842.6615
1950.1793
2011.1112
2098.6687
2111.2462
2176.9344
2122.6287
2137.4179
2022.6616
1988.4004
1771.2796
1744.3753
1427.9272
1622.5355
637.30634
1245.4018
3431.6034
503.04888
424.94048
275.85472
466.09348
888.91917
1067.347
1428.7627
1634.2709
1968.0553
2066.6683
2340.7919
2353.0405
2507.1383
2470.9547
2526.4472
2439.0137
2469.6684
2353.8753
2357.6986
2227.4579
2182.1181
2091.7591
2048.1524
1965.2097
1903.0612
1859.3712
1815.9186
1802.371
1792.4386
1803.1234
1814.8572
1789.1661
1786.828
1707.6944
1617.8084
1475.8002
1374.1256
1169.9539
1003.7579
816.01528
634.87645
466.26357
323.35714
174.95213
64.874863
-52.889596
-148.22563
-235.61818
-302.58882
-358.15486
-385.65083
-398.5364
-384.07006
-352.58513
-304.1256
-236.70688
-167.09277
-82.785159
5.7319775
96.957475
191.24558
302.58665
400.99096
521.05724
630.27391
761.76677
880.07641
995.11549
1124.9895
1219.3579
1343.8807
1452.2286
1503.7626
1543.5116
1615.6638
1688.7172
1737.8097
1800.7048
1798.5319
1847.5551
1793.8129
1835.0983
1726.1388
1764.2987
1616.8565
1649.7178
1478.2685
1502.3021
1308.2583
1377.6729
1078.556
1273.3315
382.26148
994.26588
4666.004
1114.6326
815.07549
481.47567
633.73605
939.86294
1254.3084
1548.4008
1867.4758
2127.3123
2282.3036
2421.7265
2450.7115
2452.5838
2365.204
2343.1059
2203.79
2184.2641
2062.3545
2055.7321
2000.7234
2017.2387
1855.4938
1742.2726
1596.103
1515.0543
1427.1623
1385.11
1373.5373
1367.4238
1396.8565
1380.9839
1390.0557
1348.7226
1256.5646
1180.2409
1032.4505
891.77621
710.17168
562.6466
406.96364
275.86351
171.19009
83.295621
24.321993
-32.386828
-63.704914
-94.259085
-107.44951
-119.08505
-112.35493
-99.267533
-65.897565
-15.264795
52.02633
139.56676
244.03388
351.43031
480.58862
598.3929
721.24897
847.49177
959.47944
1080.9464
1189.6907
1323.6358
1429.3234
1555.9566
1688.5368
1816.4455
1939.5678
2077.7183
2154.5924
2285.1943
2323.9558
2217.4215
2256.1852
2271.2154
2278.7129
2260.4264
2241.5485
2189.6617
2146.4404
2059.7686
1997.3929
1865.7632
1762.7521
1590.5824
1419.357
1201.59
983.74561
653.84166
712.41571
-157.6127
736.37684
8400.2704
4370.9059
4008.8247
3724.102
3826.7478
4081.153
4299.8377
4496.6751
4791.1788
5039.4827
5105.444
5284.03
5225.4426
5201.8915
5073.568
4937.7033
4701.9381
4562.9086
4242.439
4058.4315
3815.3679
3610.3343
3297.8513
3115.225
2957.1942
2814.677
2684.7525
2602.4316
2508.4805
2450.8536
2362.8332
2302.9571
2209.4392
2092.92
2012.1615
1855.8115
1727.7111
1585.5479
1442.3678
1324.9441
1197.8291
1109.2773
1007.4779
945.71777
876.2743
839.71291
806.50517
793.23134
785.30419
798.78331
818.46078
856.20985
905.98923
969.23493
1041.4508
1127.773
1216.7177
1312.7215
1418.3076
1511.0883
1624.7274
1720.4721
1819.5428
1917.3817
2007.9984
2085.5986
2165.2323
2238.0776
2298.1046
2338.3858
2379.9001
2401.6495
2404.9237
2436.9383
1815.4092
939.1024
805.91031
708.35778
649.66981
531.02412
473.51536
335.23462
282.07925
123.22262
72.289425
-111.26847
-156.56898
-354.82104
-398.96768
-577.18497
-605.04386
-740.30408
-595.33243
-1052.0575
456.43308
9533.7133
7761.4102
7036.4524
7282.5193
7182.245
7586.3319
7559.6569
7844.5708
8000.728
8140.6927
8046.9178
8052.6013
7810.8616
7618.592
7284.2157
7026.4408
6642.5302
6358.8612
5944.5264
5664.9112
5259.9063
5034.0273
4726.9223
4452.9005
4111.3587
3802.8506
3529.8499
3263.7801
3057.1997
2843.6994
2685.7806
2522.8869
2330.4564
2207.1718
1984.9894
1825.6713
1638.815
1465.7427
1297.6129
1136.0715
1010.0029
882.43627
806.77309
731.98337
697.29903
664.00287
654.80864
643.3685
646.02479
644.72107
649.42843
654.57761
666.97292
686.40798
717.92659
766.39794
826.18582
908.33781
997.22511
1101.2359
1209.9457
1315.9829
1419.6527
1532.0587
1606.9709
1710.9787
1777.6155
1842.4167
1898.3884
1949.3328
1996.7952
2009.2785
2057.4438
1912.4739
2596.413
1355.1513
1305.2696
1172.2457
1068.79
962.65366
850.03212
742.65964
637.30728
529.12538
429.89255
322.89595
212.92233
108.53253
-27.593988
-133.68264
-266.63242
-425.09641
-408.04718
-791.03811
416.38358
23591.367
14935.743
15747.246
15283.617
15331.622
14948.005
15123.224
15048.083
15037.492
14882.722
14689.274
14316.596
13858.856
13318.052
12754.433
12075.917
11462.607
10774.427
10134.013
9496.9039
8790.5769
8124.9773
7820.0188
7568.5683
7050.2314
6640.1768
6220.1725
5876.1968
5545.7456
5250.8738
4984.3063
4693.8868
4449.9195
4180.8694
3934.153
3695.7655
3438.006
3211.5304
2970.5463
2781.2565
2571.2104
2421.9199
2264.8148
2156.3977
2056.1331
1993.1665
1944.1435
1923.6922
1914.3151
1924.3641
1942.1658
1969.5094
2002.691
2037.9542
2078.4948
2119.4224
2163.8032
2209.8115
2258.2973
2304.5086
2349.7445
2387.0524
2412.4874
2427.9068
2406.4047
2395.8612
2342.7334
2289.5813
2233.1457
2162.0655
2071.4596
1987.2189
1901.2973
1807.8016
1454.0937
1735.5681
1792.053
1664.7625
1510.2562
1327.169
1150.9463
946.4076
756.71557
536.6702
336.44349
86.053848
-126.7397
-397.38303
-632.136
-854.87684
-1095.5376
-1235.9916
-1235.8302
-1544.1761
-118.4512
35841.109
28678.512
27745.612
26668.506
25716.867
25272.15
25147.036
24587.949
24457.731
23761.324
23142.318
22240.609
21245.441
20149.071
19046.475
17827.563
16756.14
15582.419
14590.229
13548.082
12628.761
11771.916
10919.034
10182.301
9423.7029
8684.4749
8079.9112
7420.3866
6853.8767
6337.7384
5834.193
5414.4961
4977.1541
4629.5196
4220.4404
3873.403
3546.4788
3224.3502
2952.76
2666.7708
2449.3599
2221.7699
2046.5843
1875.7922
1734.5322
1598.1944
1474.0987
1345.6763
1217.6453
1080.6768
939.18622
795.54183
655.4021
529.59745
425.80204
354.14712
318.24743
324.82306
363.04915
434.49086
521.04113
616.16629
696.10807
780.72731
806.33637
865.44801
824.17035
818.52502
760.52056
676.82569
576.85845
509.62012
316.79089
218.99582
42.971375
-185.97394
-355.9189
-537.83648
-728.07705
-885.6814
-1028.0943
-1136.3463
-1213.7723
-1269.7064
-1313.6112
-1340.4339
-1370.6562
-1394.3398
-1409.1499
-1433.916
-1441.3939
-1447.372
-1447.2632
-1608.8077
-530.74692
51943.257
41255.025
38959.008
36758.178
36708.953
36131.055
35734.341
35481.044
34931.886
33963.565
32996.955
31656.353
30228.098
28723.346
27113.109
25547.97
24049.703
22487.665
21160.61
19802.283
18563.037
17439.21
16296.929
15381.182
14408.447
13553.004
12763.967
11941.465
11239.045
10489.266
9841.8204
9176.1749
8569.4413
8030.0175
7430.5964
6951.5775
6454.5564
5968.9295
5504.9943
5086.3196
4667.2321
4302.5343
3962.7679
3673.487
3419.4582
3213.9781
3035.4214
2889.7388
2755.5121
2627.0515
2495.9428
2351.1254
2199.5659
2036.4535
1877.0728
1722.8576
1590.6587
1476.2096
1391.6335
1321.9225
1269.2442
1213.2252
1155.2881
1076.3466
972.78705
867.84513
719.38484
628.75998
471.59284
328.90133
249.71236
68.379733
-0.18383999
-175.17505
-295.93819
-479.17014
-632.24575
-823.02861
-986.21992
-1149.8499
-1294.5053
-1429.424
-1523.9125
-1634.6185
-1690.2576
-1776.2613
-1808.1529
-1868.0709
-1877.7546
-1899.4982
-1879.675
-1836.1457
-1769.127
-1596.1477
-526.46129
61736.305
49062.715
45957.725
45034.075
46306.52
45241.307
45462.69
44917.226
43937.544
42674.301
41055.523
39317.362
37399.181
35433.421
33524.739
31592.39
29878.198
28015.108
26328.386
24639.721
23081.835
21472.776
20178.282
18740.283
17573.275
16461.53
15462.108
14721.228
13992.618
13471.971
12836.259
12305.252
11712.894
11114.532
10430.934
9848.2084
9206.1081
8514.9786
7891.4455
7229.5868
6662.2502
6099.0185
5584.886
5089.9813
4613.7505
4145.2203
3681.9202
3232.0581
2799.8642
2414.089
2081.7571
1835.1315
1676.6501
1615.8706
1637.8689
1727.056
1843.1967
1963.3398
2043.4183
2067.9244
2015.0913
1895.1173
1705.8519
1476.312
1210.6956
953.8076
650.70001
461.54849
143.65263
90.717077
-243.74732
-332.18973
-607.28321
-719.98532
-897.68624
-960.2901
-1016.7944
-997.81316
-914.0219
-803.47237
-666.14269
-501.20579
-378.80221
-242.92894
-175.84379
-107.51954
-101.13126
-82.111817
-84.534942
-83.360277
-25.432048
32.283598
113.74073
369.16115
502.88653
41238.886
38869.523
32654.406
31628.398
30907.636
31038.088
30340.642
30850.459
30963.336
31055.403
30910.073
30773.494
33476.966
35786.566
45080.887
27806.231
22636.849
19412.525
19305.626
17918.447
17857.387
17198.303
17574.164
17868.268
17686.517
17976.556
18526.116
20050.951
23084.732
29414.738
17647.735
13547.713
9657.0077
9126.241
8135.6532
7900.1551
7798.4407
7580.4065
7664.3433
7779.5591
8183.7333
8608.6732
10021.843
13169.941
18295.033
11326.591
8688.7642
6637.3729
5660.8676
5353.6707
5012.7243
4945.2791
4785.155
4986.136
5099.5215
5426.459
5775.9444
7337.7452
9353.3578
12263.803
6913.0283
5102.6737
3287.669
2816.7994
2354.1914
2204.2293
2098.8161
2042.8722
2084.819
2209.2596
2384.0168
2895.2488
3754.3745
5098.7097
7906.2464
5302.2663
3335.2409
2139.2871
1775.9645
1456.8302
1358.7095
1258.7871
1267.3332
1295.095
1354.4282
1601.7512
1804.9059
2410.9023
3624.4291
5638.1395
3134.1346
1866.2065
1176.7905
775.83713
598.76251
429.03497
381.38758
345.83343
379.6374
446.50814
592.02522
883.89962
1301.9742
2284.3407
4070.3444
3270.1514
1878.787
1078.1373
770.20745
531.05887
425.47366
354.42631
358.76881
396.42957
455.12301
658.67924
911.41554
1374.9105
2358.2526
4283.3518
4144.2039
2466.5348
1537.2533
1071.7851
784.84482
624.16805
540.71985
551.56579
576.1559
794.72066
898.77191
1253.3239
1843.517
3145.9675
4859.3495
7251.4577
5066.0109
3106.5326
2499.5055
1925.2885
1743.6477
1569.9898
1563.6325
1607.5851
1687.7208
2197.8155
2398.2277
3663.1844
5665.8509
8784.3328
10334.382
7617.9966
4836.3375
4106.4899
3199.9223
2998.0747
2730.1542
2814.7182
2862.0995
3098.6423
3628.1551
4437.4611
6019.3581
8628.1924
11982.962
17628.064
12019.859
8974.6381
7622.0557
6520.7413
5962.1067
5754.9375
5632.9794
5837.4996
6016.3678
6904.3041
7015.9611
9772.8159
13257.212
18411.504
23765.096
19020.223
14085.073
12501.356
10855.977
10641.97
10001.344
10425.395
10428.751
10419.568
11531.527
12269.135
14902.341
20029.564
23227.718
36608.462
29552.851
23632.74
21816.696
20023.308
19246.087
19582.115
19858.569
19538.541
19703.036
20104.65
21334.998
24079.458
27994.921
39019.201
46599.526
48622.322
37484.68
36357.561
33939.754
31712.461
33734.85
35542.085
32875.596
35113.978
34181.512
35615.37
38387.061
43768.39
54276.699
110786.03
92080
91397.925
94069.928
95444.331
94675.428
99934.327
105880.72
107302.84
105873.07
102394.43
97188.778
96298.928
98820.111
95997.307
81295.095
72661.832
68819.528
66887.338
63525.342
65927.497
64908.262
65186.648
69886.791
65861.441
67138.228
65618.993
70285.733
74474.634
85441.439
65527.736
67643.581
64603.358
62352.128
63102.672
57554.101
57379.64
58193.897
54986.418
60022.593
59839.488
65751.284
67614.053
68017.909
69417.376
62592.84
69050.057
68518.548
66167.344
65194.105
64126.014
63601.731
63800.046
63873.364
64351.237
66390.773
68436.262
69675.594
70072.459
64961.513
61920.363
66365.034
67425.407
69047.696
67196.043
66559.422
66557.002
66047.578
66722.121
68386.448
68353.93
69956.094
68794.161
66795.306
62017.447
59932.968
66096.595
67124.474
67906.116
68060.038
67744.564
67397.034
67346.823
67623.945
67692.616
68669.432
68837.337
67981.61
65927.221
60689.203
58998.81
63135.318
64935.532
66489.59
66809.579
66973.161
67143.874
67105.866
67412.461
67697.196
67392.562
67118.978
65633.642
62453.387
59320.377
57563.819
60858.673
63160.106
64500.748
65488.658
65487.955
65660.275
65908.81
65617.642
65948.512
65518.364
64732.188
63266.844
59922.294
56707.403
55316.909
58099.184
60140.697
61597.303
62069.854
62819.587
62988.59
63066.176
63170.007
62749.51
62374.019
61383.862
59893.441
57591.605
54950.169
53636.971
55551.8
57571.373
58637.19
59630.911
59961.482
60263.895
60347.832
60164.891
60220.747
59376.114
58812.735
57198.46
55271.231
53387.624
51121.93
52652.944
54144.516
55293.846
56067.063
56712.402
56976.071
57147.574
57096.643
56658.963
56596.26
55415.785
54499.966
52745.188
50945.412
48922.213
49728.722
51301.244
52097.283
52866.731
53196.866
53452.307
53497.552
53361.088
53136.004
52516.497
51955.231
50766.253
49466.071
48808.417
46330.873
46946.653
47950.317
48738.025
49404.833
49835.966
50295.82
50224.712
50389.624
50136.939
49827.357
49208.781
48311.892
47373.719
46244.491
43636.222
43865.443
44896.003
45491.114
46152.774
46430.361
46753.365
46565.491
46556.368
46292.785
45864.906
45411.487
44617.051
43697.877
43720.934
40837.006
41024.922
41948.895
42360.024
42949.214
43083.067
43606.522
43290.629
43592.241
43390.759
43185.117
42766.862
42159.79
41663.313
41060.035
38250.117
38218.509
38943.553
39248.976
39708.299
40094.736
40315.5
40110.234
40114.479
39887.586
39548.684
39236.967
38791.466
38200.429
38322.257
35543.008
35445.461
36072.398
36398.68
36979.546
36980.659
37295.969
37193.834
37381.061
37208.497
37149.122
36855.809
36248.883
35781.772
36137.992
33126.419
33119.032
33718.224
33924.628
34058.787
34355.129
34420.944
34554.05
34463.096
34306.695
33981.763
33709.415
33676.768
33271.492
32926.196
31187.463
30805.726
31361.645
31363.516
31925.823
31882.299
32396.485
32012.645
32148.723
32001.037
31682.016
31708.55
31439.543
31112.058
31623.573
28943.436
28879.136
29170.416
29491.702
29567.195
29638.641
29817.033
29885.741
29880.605
29726.068
29972.646
29460.108
29188.329
29064.372
28951.123
27229.17
27107.381
27531.016
27508.339
27809.557
27779.064
28039.617
27887.867
27946.48
27803.692
27624.639
27595.978
27865
27127.614
27617.268
25844.39
25550.794
25727.631
25892.113
25988.016
26155.344
26196.337
26237.536
26024.342
26478.921
26102.632
26027.19
25403.691
25257.917
26249.93
24407.577
24086.357
24462.606
24382.407
24630.575
24754.381
24681.792
24606.492
24748.443
24541.752
24208.351
24286.926
24278.769
24039.453
24881.934
23143.905
22998.518
23003.509
23076.048
23127.046
22979.69
23255.424
23133.312
23176.614
23075.806
23124.511
23090.394
23025.03
22535.214
23830.957
22300.996
21658.561
21740.399
21570.189
21899.355
21790.87
22019.493
21816.828
21931.986
21824.912
22003.731
21769.103
21396.149
21307.421
22480.252
20806.551
20276.045
20652.088
20472.205
20624.02
20630.652
20682.928
20519.927
20649.769
20477.725
20467.382
20617.823
20621.439
20343.168
20928.148
19874.613
19128.425
19358.725
19144.807
19645.353
19312.437
19412.611
19349.942
19408.089
19317.688
19343.336
18820.877
19024.046
18588.924
20022.211
18402.758
17919.831
18216.359
18106.478
17996.978
18032.93
18119.938
18036.629
18123.211
18038.614
18032.953
18164.421
17925.569
17853.668
18256.074
17417.887
16747.748
16796.504
16736.604
16857.999
16818.59
16878.247
16855.355
16886.446
16834.568
16757.875
16818.716
16400.896
16122.494
17344.534
15871.83
15382.553
15751.881
15593.787
15794.912
15883.752
15712.712
15669.354
15433.95
15536.686
15476.515
15323.333
15595.31
15025.419
15590.435
14900.17
14412.397
14767.321
14471.08
14715.749
14356.585
14624.787
14387.173
14770.86
14360.919
14436.989
14255.438
14209
13825.11
14318.189
13802.18
13151.19
13548.852
13323.608
13506.876
13387.167
13525.357
13410.926
13465.2
13299.543
13346.347
13180.588
13135.05
12846.868
13102.394
12576.921
12105.721
12521.539
12296.01
12521.819
12354.262
12541.448
12286.562
12461.82
12264.11
12377.376
12128.963
12173.103
11816.906
11925.573
11562.638
11143.148
11522.022
11255.276
11583.83
11404.696
11578.425
11410.952
11548.513
11377.277
11421.769
11261.366
11238.067
10908.934
11009.895
10477.347
10246.752
10718.407
10839.914
10669.41
10549.511
10692.515
10560.874
10662.867
10632.172
10632.914
10437.997
10429.742
10216.982
10090.057
9965.784
9523.6338
9846.876
9618.1879
9858.0126
9755.2026
9869.4732
9745.8275
9899.9731
9356.9471
9780.9953
9555.655
9599.2171
9259.6905
9307.913
8781.4613
8720.605
9055.7493
8896.1988
9089.9631
8931.2502
9108.9869
8912.8438
9001.1888
9010.2499
8929.6197
8841.7077
8784.092
8571.9194
8572.0313
8192.4983
7997.0978
8372.1766
8217.7095
8349.6325
8241.8065
8354.0669
8191.387
8362.532
8147.8625
8284.1235
8007.7618
8153.7958
7833.631
7772.7869
7614.2767
7209.6233
7660.3093
7381.4533
7678.1882
7419.3278
7652.4888
7417.0599
7565.7294
7405.4584
7465.4015
7340.5492
7361.3185
7059.9141
7177.1084
6880.7336
6539.9991
6935.4016
6728.5885
6915.8871
6725.9336
6919.1677
6671.2326
6880.6243
6628.6935
6799.8709
6543.5691
6633.6038
6367.1667
6474.7837
6264.4177
5865.5374
6268.0369
5987.0515
6246.611
5996.6661
6208.6425
5972.343
6129.374
5949.4043
6037.2917
5850.3278
5924.6835
5639.4241
5834.0673
5632.6024
5236.0097
5579.6306
5345.6843
5567.2519
5325.605
5559.3508
5270.382
5490.3284
5243.2632
5368.8852
5177.5897
5224.4454
4982.7165
5236.0735
5082.1263
4629.089
4988.2074
4718.8755
4951.0334
4718.5709
4918.6464
4673.3965
4847.748
4632.6637
4746.0123
4556.9371
4604.4966
4377.6176
4704.8867
4577.1538
4118.5385
4445.2303
4172.8072
4421.78
4166.4419
4402.6054
4121.2209
4312.7002
4098.7952
4194.5292
4033.1212
4070.6839
3853.489
4290.6964
4191.348
3674.8277
4001.8621
3726.5259
3956.5105
3728.8753
3942.2799
3672.5205
3861.0591
3648.8491
3744.009
3599.7365
3632.4999
3421.9206
3997.5844
3900.6098
3332.9401
3665.8647
3355.328
3602.6844
3363.213
3587.2836
3313.2856
3499.5332
3301.0716
3387.5386
3263.322
3305.9249
3084.8208
3833.3608
3724.4431
3090.211
3408.2264
3097.9145
3335.1883
3107.3204
3327.2993
3045.232
3235.6834
3038.652
3119.7056
3014.4648
3068.9649
2826.9875
3773.2502
3648.4304
2912.4882
3246.0784
2906.4801
3135.9331
2905.8631
3117.8008
2834.8603
3027.0261
2834.0977
2918.2582
2824.0137
2905.5941
2629.6234
3785.1712
3622.1552
2798.6052
3121.5223
2759.649
2986.6495
2761.3233
2969.9084
2682.2261
2872.618
2680.0818
2759.5191
2672.4886
2776.7444
2457.8436
3809.9724
3629.4326
2693.5241
3014.8489
2639.749
2852.0606
2613.9905
2808.225
2513.8141
2706.6979
2512.4224
2598.0666
2511.4236
2646.2022
2284.3769
3797.9431
3596.4018
2569.2078
2894.5337
2493.9719
2690.4323
2459.6171
2654.7728
2363.8171
2553.3826
2355.2099
2434.297
2342.7799