/*--------------------------------*- C++ -*----------------------------------*\
  =========                 |
  \\      /  F ield         | OpenFOAM: The Open Source CFD Toolbox
   \\    /   O peration     | Website:  https://openfoam.org
    \\  /    A nd           | Version:  6
     \\/     M anipulation  |
\*---------------------------------------------------------------------------*/
FoamFile
{
    version     2.0;
    format      ascii;
    class       pointScalarField;
    location    "1.43";
    object      E;
}
// * * * * * * * * * * * * * * * * * * * * * * * * * * * * * * * * * * * * * //

dimensions      [1 -1 -2 0 0 0 0];

internalField   nonuniform List<scalar> 
625
(
10953.507
6604.7447
-323156.44
-180977.03
7324.8594
10517.815
-274070.88
-506743.16
2098.9936
1908.2747
4970.9187
-197765.34
-219123.09
-116517
16059.641
13026.499
13969.023
16998.627
16907.748
21566.472
22298.21
23303.928
22305.278
17025.219
7732.1491
-5361.7626
-22770.022
-42499.883
-62545.819
-82313.282
-96578.711
-106663.2
-104792.95
-95696.828
-78433.548
-55754.896
-13390.336
10924.383
2888.9523
8842.8128
3782.607
-3813.5929
-4624.6168
-14019.557
-17290.681
-18996.061
-18990.114
-12629.419
-2473.1868
14246.392
35894.126
61980.162
89552.806
116214.27
137018.95
149663.76
150498.4
135667.18
111273.38
63100.98
2015.9829
1909.4907
5426.1473
21556.336
23295.553
5478.8304
7609.6737
10804.203
-8276.8569
-6250.1551
-10965.093
-11346.244
-7694.3174
-2301.4213
10574.162
23573.374
40766.249
58641.212
76697.71
93553.013
106758.85
113452.04
112677.89
100875.97
80535.168
55310.161
-373224.56
-421440.51
-385993.38
-2725.3704
-23370.214
-39372.444
-53068.274
-61434.35
-62880.276
-60496.511
-52718.527
-42539.096
-30088.498
-18083.435
-6037.3521
3085.7937
10779.102
15134.134
17143.705
17058.637
15385.687
15761.203
11340.174
14781.188
8954.8892
13408.27
8714.3229
6968.0417
5767.7203
5365.2145
5118.4523
5409.9855
-206789.13
-204001.55
-206711.19
-368183.67
-366384.42
-365416.59
5955.8186
4256.647
2852.7411
1794.2128
-2629.4614
-5194.1655
-10022.961
-13305.076
-15115.719
-14747.534
-9714.7129
-1197.4354
12223.043
29431.709
48711.838
68277.709
85586.643
97946.782
104878.1
100502.56
93825.139
76260.943
37408.507
1781.8959
-751.48043
-1180.0953
-4273.9308
-3816.349
-3920.8384
-4888.5739
-2478.0701
-1813.8728
1359.8626
4333.7245
9154.1879
14783.746
21310.842
28099.243
34069.676
38849.943
39913.951
39807.677
31691.603
27157.961
12194.665
-1858.9473
5089.7938
3735.3786
6724.2188
7469.7745
11644.054
12859.921
18040.119
18332.145
19129.766
16685.878
10870.507
2323.3556
-10397.581
-26029.143
-44419.633
-63671.661
-83150.71
-97243.686
-108224.21
-104559.74
-92804.358
-67629.673
-20887.938
1380.272
715.44779
367.2187
1077.21
883.36673
1908.9539
2670.6414
2941.3074
3395.9599
15178.495
16779.493
16977.692
14864.526
13334.702
14330.406
9327.6622
6691.7221
10741.918
5676.6574
7005.8035
3964.1456
4120.1224
1450.6883
5403.7018
-4926.4708
-3382.3508
-4163.4268
-7536.7438
-8455.9532
-6414.4551
-11542.976
-14645.131
-12965.186
-14659.808
-13490.596
-15737.415
-11775.33
-12112.779
-11772.852
-6749.3764
-4996.6926
-6889.7413
5516.3555
5983.6158
5666.9887
20895.84
22116.969
21846.363
42030.467
41821.878
41963.691
66151.074
64585.379
65731.56
91468.505
88138.831
90021.75
115348.91
110389.38
112946.99
134050.59
127862.97
131079.58
144165.39
137780.92
141052.11
142617.34
135958.96
139154.43
128208.52
122964.97
126185.01
100274.16
100065.62
101096.92
60770.103
59461.049
63999.661
-261604.56
-259123.76
-256243.94
-251305.81
-276294.21
-277262.27
-254288.2
-229929.9
-228248.46
13871.684
13488.705
10184.69
12467.877
10958.513
10193.523
16470.398
13450.836
13401.614
15898.653
14245.78
13983.051
19413.756
18108.38
17210.136
22587.781
17555.722
18902.103
23672.853
21884.055
21788.65
25021.321
22016.722
22564.511
23513.369
20076.677
20065.771
17301.968
16260.99
17014.115
8877.1895
7746.7663
8899.3126
-4047.6001
-3862.1706
-2105.6841
-20415.817
-19150.257
-16303.548
-38350.999
-36327.814
-32213.663
-56617.612
-54231.969
-48396.981
-73647.617
-70851.191
-63927.257
-85745.772
-84146.283
-75742.457
-93587.991
-91912.513
-83210.126
-93272.981
-93601.536
-83500.898
-81824.784
-88217.158
-76371.541
-64259.625
-71848.592
-61469.244
-46893.528
-45807.198
-41643.986
-7273.3635
-7800.2867
-6340.8257
4755.3547
5052.2328
1022.9052
838.19708
-3812.8045
-7289.2359
-9756.0453
-14744.856
-14217.887
-12913.925
-6958.5483
3118.4299
17264.399
34527.835
53426.488
71523.875
86572.326
96669.235
99023.706
94731.019
81701.118
62315.324
45436.51
1476.344
4230.6864
-41.403948
6978.957
8408.0767
14402.324
18250.495
20893.007
23319.046
21839.986
19344.523
14811.058
7616.8056
-276.6931
-10258.296
-21117.318
-31725.385
-41854.368
-49278.39
-53304.843
-52325.863
-47354.023
-27944.093
9994.1038
6528.1835
9340.8226
5105.8952
10233.714
10288.678
10955.835
14572.182
10626.859
9340.3766
854.20769
-8560.9012
-22414.221
-37582.261
-54759.921
-71296.626
-85635.872
-95652.848
-98457.645
-91264.942
-75397.772
-44915.389
-8056.2635
6726.9372
4973.0474
4167.7573
6407.0577
5252.7313
4215.7549
3810.9344
2471.1573
1627.1062
1848.8673
1305.3777
673.3154
-1629.9023
-2894.6493
-2789.6647
-6063.0269
-6245.0464
-7954.2328
-10264.44
-10648.062
-10617.54
-13596.379
-13920.331
-15498.291
-15345.132
-15682.058
-16577.8
-13844.279
-13833.824
-14927.484
-7341.6447
-8228.6687
-9120.7253
2219.4072
1948.6222
1507.1114
17755.855
17108.924
16546.075
36306.054
35478.703
35097.177
57015.42
56203.826
55909.914
77725.042
77004.327
76260.879
95144.159
94699.889
94127.409
107933.06
108047.55
106507.99
112917.89
112674.19
112168.94
105383.27
112390.46
108356.38
96089.793
98983.543
96863.641
77088.771
77646.953
76761.863
43013.442
43576.65
45161.018
1320.877
1071.4982
1003.3367
2094.9632
3480.3901
3222.9805
-3.1756747
-2556.8801
-1485.6939
658.38207
3142.1864
2755.5564
3634.9499
1935.569
2135.7098
4042.6186
5357.7615
5723
6410.7205
7517.7491
7961.6261
9267.9239
10055.24
9472.5493
9855.2354
10902.717
11893.655
12128.438
12939.385
12783.871
12791.477
12578.396
12682.168
13804.758
13359.53
13036.589
14554.791
13231.863
11723.257
14546.063
12336.971
10809.797
14329.135
11346.831
8776.0537
12649.142
8349.2977
6124.9025
10120.066
5174.2515
2090.6909
6121.0425
-888.61418
-2324.8758
1072.048
-5849.3104
-7681.5882
-5876.7905
-10745.212
-12557.463
-21311.57
2023.4136
-14169.872
-16491.248
-21732.523
-21104.536
-17699.435
-23056.771
-20928.48
6961.1664
7967.9839
9527.1115
4500.9304
5519.6021
8682.6443
6590.3045
8620.5815
10964.651
9769.1225
6013.5599
8818.886
9779.6281
9005.8943
12246.049
13286.566
10573.503
13391.704
17493.058
12927.317
15332.473
16864.788
13679.194
17602.808
18401.728
13954.548
16509.866
15014.526
10931.181
13776.731
9059.339
4443.135
7338.2464
-157.94442
-4887.0437
-2132.2802
-13523.939
-18112.359
-15277.684
-29344.677
-33510.896
-31037.141
-47806.333
-51211.774
-48781.478
-66778.638
-68486.716
-66715.379
-84158.645
-84714.301
-83286.554
-97785.408
-96089.734
-94791.973
-104544.41
-100402.73
-100572.25
-99757.035
-95892.462
-95399.498
-86767.177
-81491.838
-82415.607
-57638.312
-52729.859
-54221.274
-18312.449
-12302.611
-13856.35
)
;

boundaryField
{
    free
    {
        type            zeroGradient;
    }
    fixed
    {
        type            zeroGradient;
    }
    traction
    {
        type            zeroGradient;
    }
}


// ************************************************************************* //
