/*--------------------------------*- C++ -*----------------------------------*\
  =========                 |
  \\      /  F ield         | OpenFOAM: The Open Source CFD Toolbox
   \\    /   O peration     | Website:  https://openfoam.org
    \\  /    A nd           | Version:  6
     \\/     M anipulation  |
\*---------------------------------------------------------------------------*/
FoamFile
{
    version     2.0;
    format      ascii;
    class       pointVectorField;
    location    "1.2";
    object      u;
}
// * * * * * * * * * * * * * * * * * * * * * * * * * * * * * * * * * * * * * //

dimensions      [0 1 0 0 0 0 0];

internalField   nonuniform List<vector> 
3969
(
(0 -5.2989819e-20 0)
(0 -2.8459888e-19 0)
(-1.5455795 -0.4018052 0.0014062437)
(-1.6043616 -0.06401705 0.0068747353)
(0 2.8978453e-18 0)
(0 2.3445126e-18 0)
(-1.6098388 -0.065026347 0.006885595)
(-1.5510552 -0.40280862 0.0013583036)
(0 1.2335912e-19 0)
(0 7.4263219e-19 0)
(0 3.2473556e-19 0)
(-1.8799676e-18 -1.6927689e-19 0)
(0 9.0627902e-19 0)
(0 -5.221975e-19 0)
(0 -5.0804906e-19 0)
(-1.5529371 -0.35955616 0.00209417)
(-1.5602713 -0.31732353 0.0027822917)
(-1.5676187 -0.27509268 0.0034621972)
(-1.5749537 -0.23287968 0.0041448994)
(-1.5822961 -0.19067371 0.0048170977)
(-1.5896508 -0.1484663 0.0054957748)
(-1.5970096 -0.1062446 0.0061821644)
(-0.0038403617 -0.01177538 -0.012784327)
(-0.0058445482 -0.019477562 -0.016089896)
(-0.011670588 -0.028160414 -0.017518007)
(-0.020323066 -0.037082836 -0.017747619)
(-0.031243564 -0.045912397 -0.017427147)
(-0.044637374 -0.055039143 -0.01675004)
(-0.059907674 -0.063837928 -0.016090566)
(-0.077346554 -0.072880204 -0.015219555)
(-0.096531373 -0.081574624 -0.014473688)
(-0.11756551 -0.090410933 -0.013551123)
(-0.14025503 -0.099110347 -0.012777315)
(-0.16454205 -0.10783097 -0.011889441)
(-0.19037084 -0.11646315 -0.011030963)
(-0.21758168 -0.12519447 -0.010167637)
(-0.24621595 -0.13380798 -0.0092885411)
(-0.2760359 -0.14249567 -0.0084060609)
(-0.30708915 -0.15117467 -0.0075556194)
(-0.33924479 -0.15987315 -0.0066965814)
(-0.37246449 -0.16857835 -0.0058655987)
(-0.40665266 -0.17729323 -0.0050481799)
(-0.44176129 -0.18600477 -0.0042661529)
(-0.47770723 -0.19472503 -0.0035147738)
(-0.51444444 -0.20341945 -0.002801529)
(-0.55190346 -0.21211402 -0.0021278385)
(-0.59002968 -0.22074966 -0.0014993039)
(-0.6287472 -0.22939304 -0.00091957081)
(-0.66802141 -0.23796261 -0.00039116168)
(-0.70779563 -0.24649406 9.3257742e-05)
(-0.74801995 -0.25495972 0.00052073043)
(-0.78863031 -0.26335296 0.0008993683)
(-0.82959109 -0.27167211 0.0012251705)
(-0.8708511 -0.27990871 0.0014981866)
(-0.91236564 -0.28805567 0.0017234593)
(-0.95409405 -0.29611696 0.0019010588)
(-0.99600267 -0.30408216 0.0020287878)
(-1.0380521 -0.31195667 0.002122634)
(-1.080203 -0.31975728 0.0021790113)
(-1.1224485 -0.32744975 0.0021872283)
(-1.1647434 -0.33509669 0.0021925554)
(-1.2070748 -0.3426439 0.0021496881)
(-1.249435 -0.3501604 0.0021107092)
(-1.2917718 -0.35761432 0.0020343117)
(-1.3341515 -0.36501564 0.0019606792)
(-1.3764448 -0.37242236 0.0018648627)
(-1.4187918 -0.37975881 0.0017586466)
(-1.46106 -0.38711822 0.0016497028)
(-1.5033281 -0.39445276 0.0015228224)
(-0.0024405954 0.011028241 0.014890411)
(-0.0097524699 0.019725754 0.014276157)
(-0.016162196 0.028783862 0.016900279)
(-0.025873934 0.037520043 0.016515057)
(-0.038794175 0.046462952 0.016504268)
(-0.053378711 0.054553811 0.01602318)
(-0.070824288 0.062309071 0.015595791)
(-0.090062798 0.069244678 0.015110019)
(-0.1114598 0.075592791 0.014701444)
(-0.13469776 0.081150869 0.014289036)
(-0.15967644 0.086067332 0.013951992)
(-0.18631867 0.090213015 0.013673659)
(-0.21447781 0.093688068 0.013416903)
(-0.24405751 0.096414683 0.013193072)
(-0.2749785 0.098494497 0.013037117)
(-0.30711175 0.099848953 0.012886823)
(-0.34043199 0.10058443 0.012779228)
(-0.37474001 0.10063757 0.012681619)
(-0.41009772 0.10012254 0.012595226)
(-0.44627505 0.098965053 0.012521895)
(-0.48333516 0.097312553 0.012434569)
(-0.52108829 0.095040457 0.012361249)
(-0.5595769 0.092335796 0.012244695)
(-0.59864628 0.089100447 0.012140359)
(-0.63827671 0.085428195 0.012009574)
(-0.67839249 0.081315239 0.011852606)
(-0.71892733 0.076819502 0.011670379)
(-0.75989696 0.071950841 0.011466849)
(-0.80119014 0.066723864 0.011249891)
(-0.84275373 0.061192092 0.01099589)
(-0.88457792 0.055377759 0.010733984)
(-0.92658665 0.049307087 0.010447266)
(-0.96876257 0.043009032 0.01015368)
(-1.0110539 0.036508701 0.0098500889)
(-1.0534388 0.029832461 0.0095464161)
(-1.0958835 0.023009792 0.0092435333)
(-1.1383638 0.016051775 0.0089466867)
(-1.1808516 0.0089950956 0.0086695447)
(-1.2233396 0.001855671 0.0084007537)
(-1.2658066 -0.0053625104 0.0081596265)
(-1.3082517 -0.012617829 0.0079287482)
(-1.3506545 -0.019920814 0.0077338031)
(-1.3930276 -0.027245838 0.0075456726)
(-1.4353518 -0.034594308 0.0073918998)
(-1.477651 -0.041944799 0.0072420914)
(-1.5199076 -0.049306802 0.0071140685)
(-1.5621458 -0.056665968 0.0069910888)
(0 -3.2167523e-20 0)
(0 3.7893491e-19 0)
(0 -4.5134729e-19 0)
(9.2606541e-19 -9.4264654e-20 0)
(0 -7.8343848e-19 0)
(0 -3.6354599e-19 0)
(0 -3.0439245e-19 0)
(-0.0058843149 0.0071475467 -0.011465929)
(-0.010645788 0.023020086 -0.014997401)
(-0.016036578 0.026160844 -0.014927418)
(-0.027246204 0.038529079 -0.015580638)
(-0.039234524 0.045495124 -0.015150252)
(-0.05453799 0.054145186 -0.014256469)
(-0.071824916 0.061383011 -0.013722621)
(-0.09129104 0.068172293 -0.012621924)
(-0.1128461 0.074298629 -0.011920583)
(-0.13608846 0.079579059 -0.010855622)
(-0.16131542 0.08436549 -0.010134934)
(-0.18796098 0.088048549 -0.0090229658)
(-0.2164085 0.091386201 -0.0081131405)
(-0.24610763 0.093839042 -0.0070999157)
(-0.27721956 0.095711878 -0.0061151616)
(-0.30952632 0.096911588 -0.0051304938)
(-0.34300868 0.097504727 -0.0041493383)
(-0.37751763 0.097454181 -0.0031704974)
(-0.41304217 0.096890366 -0.0022309)
(-0.44942408 0.095694709 -0.0012860068)
(-0.48666702 0.094037641 -0.00040050392)
(-0.52462026 0.091817341 0.00046885627)
(-0.56328734 0.089156148 0.0012848265)
(-0.60252323 0.085995379 0.0020654872)
(-0.6423745 0.082453326 0.0028064022)
(-0.6826924 0.078432561 0.003519435)
(-0.72340414 0.074177076 0.004081897)
(-0.76448583 0.069432639 0.0046658463)
(-0.80591597 0.0644042 0.0051568577)
(-0.84761383 0.059037915 0.0056119311)
(-0.88953824 0.053389079 0.0060134661)
(-0.93165259 0.047480776 0.0063528955)
(-0.9739062 0.041333176 0.0066432678)
(-1.0162719 0.034970049 0.0068794584)
(-1.0587067 0.028412344 0.0070726411)
(-1.1011945 0.021705936 0.0072066781)
(-1.1437298 0.014829818 0.0073236397)
(-1.1862152 0.0078547494 0.0073729739)
(-1.2287303 0.00076167756 0.0074196794)
(-1.2712125 -0.0064106895 0.0074188524)
(-1.3136589 -0.013643149 0.0074052812)
(-1.3560792 -0.020934365 0.0073705745)
(-1.3984549 -0.028248767 0.0073178086)
(-1.4407953 -0.035597718 0.0072531234)
(-1.4831 -0.04294665 0.0071731738)
(-1.5253655 -0.050314961 0.0070834557)
(-1.567613 -0.057664181 0.0069852039)
(-1.6024986 -0.10724992 0.006204333)
(-1.5951076 -0.14948246 0.005515542)
(-1.5877993 -0.19167871 0.0048208938)
(-1.5803945 -0.2339041 0.0041249715)
(-1.5731095 -0.276091 0.0034277648)
(-1.5657406 -0.31833868 0.0027386509)
(-1.5584127 -0.36056294 0.0020444289)
(-1.5088124 -0.39545673 0.0014704065)
(-1.4665314 -0.38811745 0.0015764881)
(-1.4242577 -0.38076152 0.0016917384)
(-1.3819307 -0.37339917 0.0018244616)
(-1.3395896 -0.36600447 0.0019779225)
(-1.2972169 -0.35858693 0.0021551203)
(-1.2548306 -0.35112874 0.0023559356)
(-1.212431 -0.34362845 0.002582879)
(-1.1700403 -0.33607749 0.0028387889)
(-1.1276624 -0.32847941 0.0031152624)
(-1.0853435 -0.32080376 0.0034125753)
(-1.0431015 -0.31308051 0.0037263511)
(-1.0009249 -0.30527787 0.0040574849)
(-0.9588979 -0.29741189 0.0043930886)
(-0.91704044 -0.28947063 0.0047364991)
(-0.8753923 -0.28145658 0.0050739637)
(-0.83399386 -0.27336785 0.0054081157)
(-0.79289641 -0.26521012 0.005736661)
(-0.75214416 -0.25697826 0.0060457383)
(-0.71179293 -0.24868456 0.0063496444)
(-0.67188331 -0.24032768 0.0066354727)
(-0.63248696 -0.23191248 0.0069036717)
(-0.59363404 -0.22344435 0.0071620715)
(-0.55539568 -0.21492389 0.0074136738)
(-0.51783756 -0.20635832 0.0076469801)
(-0.48099994 -0.19776072 0.0078827209)
(-0.44496205 -0.18911088 0.0081113469)
(-0.40976772 -0.18044458 0.0083513266)
(-0.37551124 -0.17173015 0.0085897172)
(-0.34221149 -0.16299851 0.0088588763)
(-0.30999015 -0.15423708 0.0091487676)
(-0.27885372 -0.14545975 0.0094571731)
(-0.24893174 -0.13665392 0.0098157858)
(-0.2203711 -0.1277421 0.010148278)
(-0.1931123 -0.11892392 0.010669091)
(-0.16714688 -0.10999152 0.01103893)
(-0.14283126 -0.10108371 0.011645478)
(-0.11998182 -0.092052835 0.012186704)
(-0.098785595 -0.083067772 0.012941426)
(-0.07954014 -0.07382006 0.013582687)
(-0.062015397 -0.064816234 0.01436311)
(-0.046154721 -0.055491136 0.015179815)
(-0.032898441 -0.046202846 0.015960444)
(-0.021498329 -0.037135372 0.016353414)
(-0.012812039 -0.028210713 0.016162733)
(-0.0071783772 -0.01834544 0.014741059)
(-0.0080840157 -0.011732931 0.0093822008)
(0 3.9165111e-19 0)
(0 3.0631234e-19 0)
(0 -1.5873115e-19 0)
(0 -1.0429983e-18 5.2196638e-19)
(0 -9.1576169e-19 0)
(0 -2.0134396e-19 0)
(0 9.6285035e-19 0)
(0 1.3382684e-18 0)
(0 1.2757082e-18 0)
(0 1.2121402e-18 0)
(0 1.0468747e-18 -1.2860416e-19)
(0 2.8280566e-18 0)
(0 1.2397809e-18 0)
(0 -2.2843227e-19 0)
(-1.605051 -0.064137892 0.0068720019)
(-1.6057421 -0.064250943 0.0068702146)
(-1.6064281 -0.06436944 0.0068725941)
(-1.6071181 -0.0644913 0.0068776699)
(-1.6077974 -0.064618551 0.0068798752)
(-1.6084797 -0.064752543 0.0068848496)
(-1.6091596 -0.06488757 0.0068873313)
(-1.5462642 -0.40192742 0.0014014567)
(-1.5469513 -0.40205438 0.0014011352)
(-1.5476348 -0.40218294 0.0013904206)
(-1.5483205 -0.40231016 0.0013853046)
(-1.5490049 -0.40243448 0.0013777956)
(-1.5496876 -0.40255949 0.0013698539)
(-1.5503719 -0.40268285 0.0013618349)
(-0.0018256935 -0.012233474 -0.011094131)
(-0.0061753056 -0.019938562 -0.011369817)
(-0.013047279 -0.029641412 -0.013039838)
(-0.022893123 -0.038638765 -0.013271899)
(-0.034898478 -0.047793467 -0.013187476)
(-0.049382305 -0.057103485 -0.012876509)
(-0.065607684 -0.066005303 -0.012313037)
(-0.083759001 -0.074959732 -0.011827435)
(-0.10367599 -0.083369515 -0.011105199)
(-0.12515283 -0.091669117 -0.010508671)
(-0.14819786 -0.099471794 -0.0097910399)
(-0.17265256 -0.10695097 -0.0090714775)
(-0.19856742 -0.11412109 -0.008322946)
(-0.22572776 -0.12086519 -0.0075593956)
(-0.2541989 -0.12726744 -0.0068051998)
(-0.28382436 -0.13334011 -0.0060264157)
(-0.31460632 -0.13909517 -0.0052572988)
(-0.34643807 -0.14454026 -0.0044972526)
(-0.3793036 -0.14974905 -0.0037372869)
(-0.41312182 -0.15473513 -0.0029962793)
(-0.44784658 -0.15955227 -0.0022837768)
(-0.48341711 -0.16423113 -0.001594144)
(-0.51978371 -0.16884014 -0.00094806063)
(-0.55688116 -0.17340704 -0.00033642413)
(-0.59467291 -0.17800449 0.0002168719)
(-0.63310592 -0.1826618 0.00074587395)
(-0.67210654 -0.1874345 0.0012081434)
(-0.71164468 -0.19238567 0.0016211465)
(-0.75166977 -0.1975337 0.0019802468)
(-0.79211504 -0.20294171 0.0022906434)
(-0.83295072 -0.20864215 0.0025439725)
(-0.87412553 -0.21466163 0.0027511353)
(-0.91559198 -0.2210385 0.0029082445)
(-0.95732067 -0.22778429 0.0030180415)
(-0.99926402 -0.23492702 0.0030909269)
(-1.041389 -0.24246747 0.0031226736)
(-1.0836737 -0.25041747 0.003124985)
(-1.1260786 -0.25876167 0.003093374)
(-1.1685856 -0.26751589 0.0030502651)
(-1.2111721 -0.276634 0.0029732882)
(-1.253818 -0.28613522 0.0029007571)
(-1.2965061 -0.29593773 0.0027954709)
(-1.3392343 -0.30606949 0.0027011844)
(-1.3819532 -0.31643335 0.0025803914)
(-1.4247258 -0.32701973 0.0024669959)
(-1.4674512 -0.33777536 0.0023443352)
(-1.5102037 -0.34863586 0.0022198991)
(0.00051955505 -0.010141476 -0.0072615021)
(-0.0048059417 -0.016701306 -0.0077109845)
(-0.012831133 -0.026348389 -0.0088420221)
(-0.02313104 -0.034094392 -0.0090293146)
(-0.036084031 -0.042535144 -0.0090273027)
(-0.050833653 -0.050640086 -0.0086510528)
(-0.067607345 -0.05855808 -0.0084727353)
(-0.086268983 -0.066233102 -0.0078665155)
(-0.10652088 -0.07344925 -0.0075766198)
(-0.12837386 -0.080417202 -0.0069826239)
(-0.15174867 -0.086767749 -0.0065146656)
(-0.17650686 -0.092862503 -0.0059092638)
(-0.2026345 -0.098336749 -0.0053648296)
(-0.23004198 -0.10343797 -0.0047675282)
(-0.25870681 -0.10802332 -0.0041581634)
(-0.28848885 -0.11224715 -0.0034849838)
(-0.31936393 -0.11602175 -0.0028381503)
(-0.351292 -0.11946052 -0.0021766486)
(-0.38421957 -0.12256739 -0.0015197969)
(-0.41810284 -0.1254276 -0.00088538584)
(-0.45287474 -0.12806749 -0.00026310115)
(-0.48849422 -0.13058537 0.00032659642)
(-0.52487471 -0.13302382 0.00089056617)
(-0.56201154 -0.13548227 0.0014014918)
(-0.59981967 -0.13799634 0.0018880814)
(-0.63825031 -0.14067935 0.0023001158)
(-0.67726993 -0.14356756 0.0026767896)
(-0.71682673 -0.14675241 0.0030045009)
(-0.75685131 -0.15029338 0.0032749837)
(-0.79732247 -0.15425426 0.0035028382)
(-0.83818219 -0.15868339 0.00368233)
(-0.87938383 -0.16363241 0.0038135459)
(-0.92089402 -0.16913578 0.0039035507)
(-0.96266622 -0.17522981 0.0039555606)
(-1.0046665 -0.18193367 0.003972117)
(-1.0468647 -0.18925139 0.0039554991)
(-1.0892287 -0.19720916 0.0039218296)
(-1.1317255 -0.20576155 0.0038541927)
(-1.1743488 -0.21494487 0.0037858131)
(-1.2170553 -0.2246703 0.0036920318)
(-1.2598535 -0.23497099 0.0036018214)
(-1.3026877 -0.24573112 0.0034911326)
(-1.3455967 -0.25696428 0.0033870727)
(-1.388498 -0.26855505 0.0032720893)
(-1.4314649 -0.28047218 0.0031528883)
(-1.4743882 -0.29262465 0.0030365034)
(-1.5173464 -0.30493446 0.0029041244)
(0.0027398631 -0.0059282047 -0.0041507932)
(-0.0023681972 -0.010235098 -0.0040739882)
(-0.0094922299 -0.01554903 -0.0045175904)
(-0.020013538 -0.020528996 -0.0046212963)
(-0.032479198 -0.025397306 -0.0044671116)
(-0.047458373 -0.030604101 -0.0044589214)
(-0.064404038 -0.035287101 -0.0039915882)
(-0.083142812 -0.040223815 -0.0038996345)
(-0.1037384 -0.044840817 -0.0035185293)
(-0.12596362 -0.049367944 -0.0031899283)
(-0.14970492 -0.053785758 -0.002820215)
(-0.17493251 -0.057940869 -0.0024058941)
(-0.20155576 -0.061975892 -0.0019821009)
(-0.22949121 -0.065784856 -0.0015206442)
(-0.2586889 -0.06947264 -0.0010678922)
(-0.28905359 -0.07296652 -0.00055811375)
(-0.32056007 -0.076314212 -6.0350005e-05)
(-0.35311398 -0.07953618 0.00046037027)
(-0.38668146 -0.082652695 0.0009600879)
(-0.42115787 -0.085703399 0.0014542902)
(-0.45651021 -0.088717638 0.0019239849)
(-0.49266498 -0.091745478 0.0023773116)
(-0.52960633 -0.094848137 0.0027951162)
(-0.56724593 -0.09802216 0.0031904319)
(-0.60552676 -0.10136476 0.0035322478)
(-0.6444197 -0.10488916 0.0038563814)
(-0.68387046 -0.10865767 0.0041426702)
(-0.72380262 -0.11269866 0.0043722383)
(-0.76418711 -0.11705935 0.0045693089)
(-0.80497134 -0.12176598 0.0047251716)
(-0.84609521 -0.12686171 0.0048340511)
(-0.88753473 -0.13236051 0.0049061784)
(-0.92923393 -0.13829247 0.0049421619)
(-0.97116018 -0.14467173 0.0049433667)
(-1.0132812 -0.15149876 0.0049135972)
(-1.0555562 -0.15879363 0.0048616178)
(-1.0979642 -0.16653498 0.0047858807)
(-1.1404765 -0.17473148 0.0046921198)
(-1.1830712 -0.18335761 0.0045945776)
(-1.2257225 -0.19238465 0.0044688551)
(-1.2684178 -0.20181705 0.004361907)
(-1.3111477 -0.21156519 0.0042193008)
(-1.353897 -0.22167126 0.0041130554)
(-1.3966441 -0.232 0.0039627383)
(-1.4394132 -0.24258642 0.0038496882)
(-1.4821463 -0.25331902 0.0037094605)
(-1.524908 -0.26417781 0.0035901114)
(0.0046711261 -8.5601609e-05 -0.00036215901)
(0.00073226443 0.00060035083 0.00038214466)
(-0.0055507772 0.00039736573 0.00014471258)
(-0.01479685 0.00079774831 8.2123919e-05)
(-0.026958945 0.00077370342 -2.3000396e-05)
(-0.041255276 0.0004148029 0.00020588253)
(-0.057835975 8.4948875e-05 3.304527e-05)
(-0.076477448 -0.00091179268 0.00030326475)
(-0.097117088 -0.0019144161 0.00034183674)
(-0.11953223 -0.003538644 0.00053353423)
(-0.1437204 -0.005322104 0.00075551892)
(-0.16956276 -0.0076035435 0.0010169367)
(-0.19687037 -0.010176837 0.001339899)
(-0.22564575 -0.013134989 0.0016296135)
(-0.25571231 -0.016458131 0.0019841666)
(-0.28705779 -0.020158355 0.0023314822)
(-0.31952272 -0.024167024 0.0026994921)
(-0.35308759 -0.028527125 0.0030522856)
(-0.38763061 -0.03316526 0.0034041164)
(-0.42311604 -0.038125882 0.0037476032)
(-0.45946275 -0.043369449 0.0040930844)
(-0.49663556 -0.048914371 0.0044091561)
(-0.53446746 -0.054666725 0.0047153998)
(-0.5729727 -0.060676505 0.0049694004)
(-0.61206758 -0.066894343 0.0052275669)
(-0.65170934 -0.073322795 0.0054323661)
(-0.69181617 -0.079916723 0.0055909135)
(-0.7323594 -0.086672647 0.0057174765)
(-0.77327986 -0.09356544 0.0058168463)
(-0.81452694 -0.10058276 0.0058691944)
(-0.85605786 -0.10770269 0.005899174)
(-0.8978288 -0.11490563 0.0058918304)
(-0.93979217 -0.12218038 0.0058608761)
(-0.98191766 -0.12950665 0.0058004422)
(-1.0241627 -0.13687248 0.0057210711)
(-1.0664979 -0.14426187 0.0056205332)
(-1.1089 -0.15167338 0.0055089996)
(-1.1513299 -0.15908106 0.0053847376)
(-1.1937831 -0.166489 0.0052503988)
(-1.2362268 -0.17389534 0.0051246221)
(-1.2786857 -0.18130611 0.0049922817)
(-1.3210933 -0.18868969 0.0048651566)
(-1.3634993 -0.19608973 0.004740685)
(-1.4058428 -0.20344772 0.0046143064)
(-1.4481882 -0.21083122 0.0045001129)
(-1.4904674 -0.21818273 0.0043814956)
(-1.5327449 -0.22554132 0.0042613292)
(0.0060414473 0.005680921 0.0033749628)
(0.0026333491 0.010725224 0.0042289658)
(-0.0019847159 0.016622402 0.0042646524)
(-0.010892225 0.022028373 0.0043381964)
(-0.02215183 0.027228222 0.0045188188)
(-0.036073312 0.031753881 0.0042752603)
(-0.052444766 0.035697922 0.0044426091)
(-0.071073775 0.038820133 0.0044139363)
(-0.091773609 0.041209218 0.0044473702)
(-0.11453728 0.04268286 0.0045361926)
(-0.13914906 0.043316609 0.0046501027)
(-0.16543387 0.04295544 0.0047518856)
(-0.19340012 0.041783634 0.0048594324)
(-0.22283853 0.03959923 0.0050107707)
(-0.25370108 0.036590877 0.0051639704)
(-0.28584496 0.032683963 0.0053247105)
(-0.31921329 0.027953844 0.0055269742)
(-0.35365176 0.022426959 0.0057151553)
(-0.38912771 0.01618396 0.0059167144)
(-0.42550098 0.009255591 0.0061110768)
(-0.46273966 0.0017279084 0.0062949574)
(-0.50068524 -0.0062836802 0.0064400572)
(-0.53934356 -0.014781072 0.006593371)
(-0.57863762 -0.023593965 0.0067231682)
(-0.61849155 -0.03273366 0.006835847)
(-0.65882167 -0.042047717 0.0069073482)
(-0.69959752 -0.051487631 0.0069713207)
(-0.74074817 -0.060958742 0.0070113298)
(-0.78220876 -0.070393655 0.0070251741)
(-0.82393535 -0.079713433 0.0070154196)
(-0.86587912 -0.088852776 0.0069802251)
(-0.907998 -0.097747703 0.0069187617)
(-0.95024234 -0.10634847 0.0068380031)
(-0.99258092 -0.11460747 0.0067352466)
(-1.0349702 -0.12248201 0.0066147825)
(-1.0773868 -0.12995754 0.0064817915)
(-1.119793 -0.13700089 0.0063398789)
(-1.1621789 -0.14361055 0.0061826229)
(-1.2045079 -0.14979228 0.0060467514)
(-1.2467906 -0.1555694 0.0058865779)
(-1.2889849 -0.16092912 0.0057433464)
(-1.331104 -0.16591842 0.0055857602)
(-1.3731407 -0.17058954 0.0054586815)
(-1.4151 -0.17495129 0.0053093295)
(-1.4569927 -0.17910779 0.0051970849)
(-1.4988042 -0.18305165 0.0050548348)
(-1.5405875 -0.18690002 0.0049428369)
(0.0053322425 0.0094081642 0.0073346581)
(0.0016121368 0.018409872 0.0079379363)
(-0.0029096467 0.027866747 0.0086587472)
(-0.01155803 0.03692302 0.0088919186)
(-0.022567811 0.045517434 0.0086186361)
(-0.036355549 0.053250663 0.0085850143)
(-0.052716358 0.060293733 0.0083805315)
(-0.071333713 0.0661615 0.0082111027)
(-0.09222464 0.071134511 0.008094762)
(-0.11513637 0.074827472 0.0079631152)
(-0.14000311 0.077464706 0.007907735)
(-0.16663839 0.078828965 0.007867791)
(-0.19496397 0.079053611 0.007891453)
(-0.22481045 0.07802592 0.0079039815)
(-0.25609159 0.075874858 0.0079474102)
(-0.2886877 0.072543482 0.0080089209)
(-0.32250071 0.068161375 0.0080931247)
(-0.3574092 0.062724598 0.0081639572)
(-0.39334262 0.056383511 0.0082552678)
(-0.43017332 0.04914985 0.0083283676)
(-0.46785653 0.041214702 0.0084057449)
(-0.50627496 0.03249722 0.008458933)
(-0.545354 0.023332192 0.0085370923)
(-0.58507949 0.013734607 0.0085421374)
(-0.62529779 0.0037605821 0.0085678178)
(-0.66597514 -0.0064183006 0.0085675991)
(-0.70706828 -0.016747821 0.0085456182)
(-0.7484897 -0.027082318 0.0084820397)
(-0.7901967 -0.037330212 0.0084161289)
(-0.83214956 -0.047387465 0.0083134689)
(-0.87428367 -0.05716872 0.0081990598)
(-0.9165601 -0.066596189 0.008056971)
(-0.95893481 -0.075598332 0.0079051939)
(-1.0013712 -0.084110834 0.0077310733)
(-1.0438253 -0.092098129 0.0075528251)
(-1.086275 -0.099511449 0.0073615204)
(-1.1286887 -0.10633596 0.0071677607)
(-1.1710347 -0.11256245 0.0069776823)
(-1.2133238 -0.11818847 0.0067793614)
(-1.2554972 -0.12323963 0.0066033964)
(-1.2975873 -0.12773999 0.0064233633)
(-1.3395635 -0.1317348 0.0062692153)
(-1.3814557 -0.13526433 0.0061136973)
(-1.4232362 -0.13840136 0.005978993)
(-1.4649394 -0.14121401 0.0058493727)
(-1.506563 -0.14377001 0.0057276613)
(-1.5481364 -0.14616593 0.005616374)
(0.0023342796 0.011086613 0.010306535)
(-0.0024251847 0.020228042 0.011263233)
(-0.0075342898 0.03092111 0.012650882)
(-0.016846595 0.040711353 0.01257234)
(-0.028047569 0.050191487 0.01260235)
(-0.042468884 0.059084855 0.012258164)
(-0.05900259 0.067078481 0.012023443)
(-0.077986025 0.074203638 0.011690344)
(-0.099086595 0.080333508 0.011462437)
(-0.12215611 0.085355974 0.011195337)
(-0.14722493 0.089374707 0.011006848)
(-0.17388387 0.092221409 0.010879133)
(-0.20230346 0.094022146 0.010719063)
(-0.23214129 0.094698772 0.010616272)
(-0.26343037 0.094304218 0.010540432)
(-0.29596539 0.092866672 0.010492907)
(-0.32972473 0.090430852 0.01044923)
(-0.36453913 0.087059081 0.010439076)
(-0.40037075 0.082804818 0.010417975)
(-0.43709269 0.077749772 0.010415831)
(-0.47464626 0.07193524 0.010403477)
(-0.51292723 0.065518178 0.010378971)
(-0.55191138 0.058470674 0.010353571)
(-0.59147884 0.051006454 0.010297087)
(-0.63156423 0.043104607 0.010257402)
(-0.67212799 0.034914086 0.01016385)
(-0.71310571 0.026492642 0.010051636)
(-0.75443677 0.01793768 0.0099291033)
(-0.7960724 0.0093340156 0.0097889253)
(-0.83795861 0.00076081447 0.0096187176)
(-0.88003886 -0.0077154247 0.0094359567)
(-0.92228251 -0.016027468 0.0092318062)
(-0.96463446 -0.024115941 0.0090149281)
(-1.0070655 -0.031931972 0.0087851942)
(-1.0495321 -0.039433962 0.0085503177)
(-1.0920115 -0.04658908 0.0083096347)
(-1.1344674 -0.053370753 0.0080713354)
(-1.1768929 -0.059770772 0.0078327042)
(-1.2192437 -0.06578124 0.0076162163)
(-1.261533 -0.071409257 0.00739654)
(-1.3037315 -0.076675866 0.0072011521)
(-1.3458549 -0.081597096 0.0070124103)
(-1.3878859 -0.086212642 0.0068482863)
(-1.4298348 -0.090557152 0.0066915124)
(-1.471711 -0.094683078 0.0065575388)
(-1.5135227 -0.098630996 0.0064241079)
(-1.5552832 -0.10246606 0.0063059926)
(0 -1.1772948e-19 0)
(0 6.5897008e-19 0)
(0 5.6976252e-19 0)
(0 5.0280544e-19 -1.7235519e-19)
(0 1.9863475e-19 0)
(0 -6.9763376e-21 0)
(0 9.6558476e-20 0)
(0 3.6138672e-20 0)
(0 -2.3481646e-19 0)
(0 -5.7889308e-19 0)
(0 -7.1916127e-19 -1.1941379e-19)
(0 -1.1789998e-19 0)
(0 1.4523146e-19 0)
(0 2.8053357e-19 0)
(0 2.2695617e-19 0)
(0 3.5748748e-19 0)
(0 6.5290453e-19 0)
(0 6.5435724e-19 3.2960114e-19)
(0 5.6412947e-19 0)
(0 6.5686761e-19 0)
(0 2.2244219e-19 0)
(-3.8372719e-18 1.8077243e-19 0)
(1.6356654e-18 -4.0960492e-19 0)
(-9.509826e-20 -1.6454138e-19 0)
(2.9515861e-19 -2.8979805e-19 -2.1991794e-19)
(-5.5140605e-19 -4.0465349e-19 0)
(-1.4113361e-18 -5.7843496e-19 0)
(2.1569356e-19 -4.7761948e-19 0)
(0 3.5743426e-19 0)
(0 1.2782373e-19 0)
(0 -2.4800864e-19 0)
(0 2.417766e-20 6.3271895e-19)
(0 2.7271212e-19 0)
(0 3.971923e-19 0)
(0 -1.1035335e-19 0)
(0 -2.883015e-19 0)
(0 -2.3569956e-19 0)
(0 5.5440751e-20 0)
(0 2.7661895e-19 -6.3032248e-20)
(0 2.046665e-19 0)
(0 -7.4178919e-20 0)
(0 1.9152563e-19 0)
(0 3.5295212e-20 0)
(0 -2.0806699e-19 0)
(0 3.0461828e-19 0)
(0 1.9398234e-20 2.2297707e-19)
(0 3.0179412e-19 0)
(0 4.7726967e-19 0)
(0 4.3224617e-19 0)
(-0.0064836277 0.0039018544 0.0075394245)
(-0.007636832 0.0048085211 0.0050443231)
(-0.0088593498 0.004936423 0.0025866636)
(-0.0092912258 0.0052280009 0.00057293039)
(-0.0090663516 0.0047937746 -0.0014353278)
(-0.0087445306 0.0049623634 -0.0035650832)
(-0.007185958 0.0036700283 -0.0060050144)
(-0.013465711 0.019691811 0.011321699)
(-0.015788037 0.020762759 0.0064942008)
(-0.016672634 0.019373223 0.0029694317)
(-0.016806289 0.018700353 0.00014842205)
(-0.016974137 0.019605896 -0.0026473313)
(-0.015558026 0.019550736 -0.0060580813)
(-0.014131867 0.019711482 -0.010337035)
(-0.018857656 0.026531141 0.012119632)
(-0.021501382 0.025313248 0.0085655237)
(-0.023254141 0.025874772 0.0040099496)
(-0.023546832 0.025744859 0.00051004398)
(-0.023252797 0.02527317 -0.0034851011)
(-0.02195438 0.025634904 -0.0066332729)
(-0.020199433 0.026857086 -0.011640675)
(-0.030163379 0.037733294 0.012324564)
(-0.032522196 0.037776424 0.0084672616)
(-0.033909101 0.03724276 0.0040924577)
(-0.034405267 0.036937258 0.00056612536)
(-0.034108649 0.037027086 -0.0033212474)
(-0.032899596 0.037617589 -0.007522071)
(-0.030389466 0.037303245 -0.011341925)
(-0.041922716 0.045937253 0.012309741)
(-0.044372101 0.045270256 0.0086050887)
(-0.046108954 0.045099268 0.0044508205)
(-0.046512534 0.044899783 0.00054632451)
(-0.046317114 0.044933252 -0.0033611283)
(-0.045004398 0.04515149 -0.0070737686)
(-0.042978522 0.045598917 -0.011433302)
(-0.057144202 0.054656644 0.012004823)
(-0.059315469 0.054201782 0.0083741684)
(-0.060884381 0.053821248 0.0043383221)
(-0.061395838 0.053717331 0.00079965833)
(-0.061092626 0.053629862 -0.0031544256)
(-0.059829124 0.053691157 -0.0069947132)
(-0.057634779 0.053923926 -0.010645543)
(-0.074074751 0.061968289 0.011765092)
(-0.076312572 0.061546801 0.008114127)
(-0.07786895 0.061315543 0.004408133)
(-0.07835135 0.061107877 0.00089890966)
(-0.078160426 0.061148851 -0.0028606952)
(-0.077009084 0.061404386 -0.0063076838)
(-0.075059394 0.061527023 -0.010225696)
(-0.093351458 0.069094195 0.011428789)
(-0.095494112 0.068697944 0.0081286278)
(-0.09698866 0.068315866 0.004407023)
(-0.097518593 0.068170704 0.0010434836)
(-0.097200901 0.067982371 -0.0024159059)
(-0.096160933 0.068055908 -0.0059795659)
(-0.094126788 0.068142792 -0.0093254861)
(-0.11457992 0.075257014 0.011231424)
(-0.11666456 0.074801206 0.0078162652)
(-0.1180801 0.074519297 0.0045223872)
(-0.11857307 0.074271373 0.0013081763)
(-0.11845168 0.074349405 -0.002035988)
(-0.11740078 0.074278943 -0.0052676958)
(-0.11567812 0.074526529 -0.0087522665)
(-0.13766963 0.080836478 0.010960609)
(-0.13966256 0.080382162 0.0079264599)
(-0.14104952 0.079922109 0.0046065752)
(-0.14163752 0.07986534 0.0014619937)
(-0.14140457 0.079659668 -0.0016748751)
(-0.14046323 0.079633578 -0.00479911)
(-0.13872657 0.079684945 -0.0079370594)
(-0.1625651 0.08566906 0.010787124)
(-0.16448909 0.085149467 0.0078042106)
(-0.1658489 0.084841525 0.0046611372)
(-0.16629494 0.084482705 0.0018819525)
(-0.16626773 0.08440769 -0.0011991435)
(-0.1653211 0.084343799 -0.0040523507)
(-0.16379095 0.084539054 -0.0072559462)
(-0.18908754 0.08973837 0.010711524)
(-0.19092497 0.089231393 0.0077814482)
(-0.19216398 0.088794592 0.005012337)
(-0.19278531 0.088582793 0.0021342592)
(-0.19266 0.088414923 -0.00075189897)
(-0.19174073 0.088345629 -0.0034628875)
(-0.19042184 0.088359038 -0.0063902538)
(-0.21717557 0.093214986 0.01059269)
(-0.21886023 0.092607124 0.0078462712)
(-0.220167 0.092236604 0.0051787573)
(-0.22067204 0.091853567 0.0025034654)
(-0.22062004 0.091696651 -0.00019814119)
(-0.219872 0.09165393 -0.0027414026)
(-0.21856986 0.091589539 -0.0055351123)
(-0.24661067 0.095878034 0.010564712)
(-0.24823635 0.095296342 0.0079492279)
(-0.24955307 0.094822738 0.0054802931)
(-0.25000343 0.094488002 0.002904157)
(-0.25009073 0.094334899 0.00036030214)
(-0.24932297 0.094183951 -0.0020477781)
(-0.24820442 0.09414167 -0.0047161199)
(-0.27742761 0.097947976 0.010556496)
(-0.27904442 0.09732431 0.0080681406)
(-0.28022601 0.096825475 0.0057592769)
(-0.2807776 0.096494702 0.0032908556)
(-0.28080946 0.096242583 0.00095766948)
(-0.2801861 0.096104475 -0.0013699733)
(-0.27912903 0.095997376 -0.0038454072)
(-0.30947725 0.099269842 0.010557498)
(-0.31096474 0.098623258 0.0082352222)
(-0.31219513 0.098136077 0.0060588952)
(-0.31269413 0.097741062 0.0037727773)
(-0.31281204 0.097515525 0.0015235255)
(-0.31224271 0.097332383 -0.00063312235)
(-0.31130384 0.097231767 -0.0029921387)
(-0.34264397 0.099980018 0.010600895)
(-0.34414989 0.099359534 0.0084083303)
(-0.34529911 0.098819973 0.0063783876)
(-0.34582135 0.098441073 0.0041936558)
(-0.34597248 0.098181318 0.0021136226)
(-0.34548749 0.09798711 7.199466e-05)
(-0.34463672 0.097841619 -0.002150118)
(-0.37690848 0.10004944 0.01063868)
(-0.37830963 0.099393367 0.0086088231)
(-0.37946508 0.098865891 0.0066888061)
(-0.37997654 0.098470577 0.0046589869)
(-0.38018123 0.098194957 0.0027151642)
(-0.37974647 0.09796476 0.00078092302)
(-0.37900662 0.097819611 -0.0012901421)
(-0.41212625 0.099515965 0.010700768)
(-0.41351224 0.098885864 0.0087988905)
(-0.41461666 0.098337311 0.0070036653)
(-0.41515012 0.097951589 0.0051076256)
(-0.41537774 0.097643378 0.0032815786)
(-0.41503305 0.097432123 0.0014733176)
(-0.4143935 0.097255491 -0.00046178008)
(-0.44825182 0.098400324 0.010753465)
(-0.4495621 0.097748388 0.0089837886)
(-0.4506639 0.097222046 0.0073252538)
(-0.45119284 0.096824858 0.0055468015)
(-0.451475 0.096518487 0.0038557873)
(-0.45118898 0.096282798 0.0021598817)
(-0.45064449 0.096090374 0.00036134558)
(-0.4851961 0.096723558 0.010804176)
(-0.48649042 0.096109975 0.0091724817)
(-0.48754144 0.095577976 0.0076187638)
(-0.48810151 0.095185428 0.0059700002)
(-0.48840222 0.094864103 0.0043967059)
(-0.48819791 0.094629134 0.0028180739)
(-0.48774321 0.094416188 0.0011413515)
(-0.52290205 0.094519604 0.010848439)
(-0.52412419 0.093905518 0.0093321725)
(-0.52517446 0.093387229 0.0078980373)
(-0.52572999 0.092999148 0.0063789755)
(-0.52607721 0.09267653 0.0049149177)
(-0.52592911 0.092432005 0.0034497115)
(-0.52557362 0.092217335 0.0018978092)