/*--------------------------------*- C++ -*----------------------------------*\
  =========                 |
  \\      /  F ield         | OpenFOAM: The Open Source CFD Toolbox
   \\    /   O peration     | Website:  https://openfoam.org
    \\  /    A nd           | Version:  6
     \\/     M anipulation  |
\*---------------------------------------------------------------------------*/
FoamFile
{
    version     2.0;
    format      ascii;
    class       pointVectorField;
    location    "1.1";
    object      lm;
}
// * * * * * * * * * * * * * * * * * * * * * * * * * * * * * * * * * * * * * //

dimensions      [1 -2 -1 0 0 0 0];

internalField   nonuniform List<vector> 
625
(
(-3.6361799e-15 2.112754e-16 -3.2990721e-16)
(2.8178306e-17 1.9013092e-16 6.1994168e-17)
(-5832.8668 -2122.5441 -764.77715)
(-6313.2574 -633.64297 -211.64006)
(6.5239771e-16 2.739523e-16 -5.5565719e-16)
(-3.7042918e-15 1.4868296e-15 -1.3023874e-15)
(-6909.3926 -532.01743 -201.33087)
(-6419.8712 -2021.5397 -757.9715)
(-1.9658614e-16 -3.2115893e-17 -1.1045223e-16)
(1.4766345e-16 -3.4299605e-16 -2.8648028e-16)
(-1.0135278e-15 7.0169807e-16 1.7538027e-16)
(-5927.8038 -1747.8239 -625.46347)
(-5964.7222 -1360.1129 -481.65101)
(-6105.993 -996.31308 -346.11898)
(21.901975 -33.116761 -57.544802)
(19.75229 -70.895904 -70.916724)
(-11.126363 -117.51125 -83.272235)
(-72.197214 -170.07651 -87.04405)
(-153.39289 -225.96428 -93.397217)
(-266.73416 -291.80627 -97.194694)
(-405.46219 -364.52574 -104.66157)
(-576.88085 -446.68454 -112.39103)
(-781.84907 -540.19307 -125.55558)
(-1022.3261 -642.54208 -139.55278)
(-1300.0485 -757.45943 -160.1664)
(-1612.0782 -879.65273 -185.23997)
(-1956.0559 -1009.227 -216.36925)
(-2323.7578 -1141.6213 -253.01319)
(-2708.6248 -1274.1827 -295.46648)
(-3100.0829 -1402.6171 -342.95171)
(-3489.9822 -1524.7364 -393.82784)
(-3870.5707 -1636.5341 -448.59897)
(-4233.227 -1738.0446 -502.60718)
(-4581.2419 -1829.7394 -558.71331)
(-4910.2575 -1910.5761 -612.76843)
(-5212.4949 -1981.1173 -663.28915)
(-5516.4849 -2049.3297 -715.00137)
(15.262977 45.882319 70.149887)
(-5.4043217 103.90442 90.817483)
(-42.463453 155.73138 126.72398)
(-112.41551 209.66302 155.12628)
(-207.31456 251.98647 185.07562)
(-336.8284 296.14927 212.21553)
(-493.4489 327.75994 239.19407)
(-687.29929 355.44761 261.49269)
(-915.06405 373.25823 281.67252)
(-1177.5412 378.55337 295.67771)
(-1476.325 374.12633 304.28267)
(-1808.4417 354.77501 305.56575)
(-2171.6615 321.3365 299.00733)
(-2561.1947 273.29358 283.67448)
(-2972.1302 210.94887 259.33673)
(-3396.4795 135.60342 226.23687)
(-3826.4047 49.077718 184.43555)
(-4251.7848 -46.099335 135.89972)
(-4663.2976 -146.38597 80.66753)
(-5050.7041 -249.93037 22.759445)
(-5408.2022 -351.41995 -38.228773)
(-5729.1943 -449.66403 -97.664885)
(-6023.2534 -543.37656 -155.69085)
(-4.8813632e-16 1.9183015e-16 -1.0607077e-16)
(-2.6214496e-15 -5.6404768e-16 7.244144e-16)
(-2.4010456e-15 1.4295629e-15 -1.6975308e-16)
(-11.223121 17.35507 -19.939666)
(-62.430044 88.300576 0.2146031)
(-140.34295 116.40806 34.160244)
(-243.66203 165.26504 65.256491)
(-377.49155 208.50333 92.49576)
(-539.83566 246.73403 125.00393)
(-732.36109 280.60712 149.72806)
(-958.51418 312.08957 177.73613)
(-1221.2315 334.58865 200.03708)
(-1519.9887 350.26054 219.34021)
(-1853.0372 354.25085 234.21284)
(-2221.8821 348.22854 242.90572)
(-2619.4921 328.05239 244.68183)
(-3043.3784 295.01216 238.7679)
(-3486.1884 248.05269 223.97491)
(-3939.5866 187.75083 200.31068)
(-4395.1735 115.72533 167.643)
(-4841.9013 33.254688 126.62545)
(-5269.9909 -56.908762 78.567047)
(-5669.4999 -152.39365 25.069097)
(-6033.3548 -249.68587 -31.80291)
(-6357.0632 -346.82553 -89.839383)
(-6625.1352 -440.15856 -146.98091)
(-6719.6157 -900.82023 -339.44276)
(-6559.7689 -1262.8445 -474.62667)
(-6517.193 -1645.9053 -618.68131)
(-6091.3601 -1940.5961 -705.36724)
(-5833.2835 -1883.8325 -658.40717)
(-5528.3089 -1812.0345 -604.69919)
(-5196.4168 -1733.3957 -546.57206)
(-4837.1602 -1646.1039 -485.93199)
(-4453.0728 -1550.4787 -423.63184)
(-4048.1805 -1447.2821 -361.63646)
(-3630.023 -1337.4904 -301.49175)
(-3207.3643 -1223.2661 -244.93853)
(-2790.0109 -1106.8857 -193.28295)
(-2388.3388 -990.70257 -147.76338)
(-2010.7798 -877.96682 -108.66469)
(-1663.7115 -770.95298 -75.920983)
(-1357.1417 -670.28667 -51.469044)
(-1083.989 -577.62432 -30.116741)
(-841.90839 -492.39289 -15.148084)
(-639.93018 -416.19276 -4.4546326)
(-470.20458 -343.48394 2.7047506)
(-330.45668 -280.35559 10.222062)
(-214.6196 -217.16457 13.048378)
(-124.03718 -161.0968 19.825526)
(-61.816797 -99.50801 25.474077)
(-33.879611 -49.799426 20.747008)
(-1.3028228e-15 -3.4252847e-16 3.3068324e-16)
(-2.0449562e-15 -3.5718549e-16 -7.3673077e-16)
(-1.4121951e-15 -1.0527101e-15 6.223458e-16)
(-1.2019486e-15 6.189313e-16 -3.4292956e-16)
(-1.2511779e-16 -6.848356e-17 2.1836215e-16)
(-3.8898857e-17 4.7141393e-16 -3.1043199e-16)
(-6462.8041 -607.58949 -208.64783)
(-6611.3201 -582.60099 -206.96431)
(-6759.6367 -556.7397 -204.02503)
(-5978.9741 -2096.8718 -762.62158)
(-6125.9565 -2072.8191 -759.9273)
(-6272.6582 -2047.9187 -759.73848)
(35.962836 -26.403526 -29.215669)
(33.482662 -44.49006 -29.168911)
(-0.73744981 -68.888736 -31.881476)
(-67.160606 -98.997839 -30.032885)
(-160.39996 -135.16393 -27.853674)
(-289.70728 -179.75604 -26.945156)
(-445.45942 -228.01083 -25.132258)
(-633.56371 -284.83112 -25.835196)
(-847.48274 -346.01844 -28.679022)
(-1089.494 -412.81547 -35.442342)
(-1353.2807 -484.90571 -45.779298)
(-1637.0439 -560.50374 -60.78972)
(-1937.3515 -640.88026 -80.926084)
(-2251.5487 -724.92192 -106.40188)
(-2577.354 -812.75397 -137.88066)
(-2912.663 -904.11548 -174.73065)
(-3257.5757 -998.91859 -217.50198)
(-3610.5181 -1096.9525 -265.57082)
(-3971.1212 -1198.3892 -317.69541)
(-4344.5742 -1303.061 -375.71553)
(-4728.3516 -1411.5338 -435.0691)
(-5117.6197 -1520.9326 -498.21825)
(-5519.7848 -1633.6352 -561.92026)
(49.59317 4.3675121 4.2020441)
(33.468107 16.516861 16.341043)
(-1.1161278 20.292992 27.316038)
(-74.250901 22.003765 40.683312)
(-180.95895 17.433394 54.300552)
(-320.54402 4.6225906 67.790971)
(-491.77899 -16.764365 79.033797)
(-692.31656 -46.20842 85.093147)
(-915.8908 -84.485359 87.025205)
(-1159.539 -130.86026 84.305023)
(-1416.8357 -185.36982 75.199414)
(-1685.3219 -246.18698 60.414719)
(-1961.4401 -313.00179 39.84067)
(-2244.0363 -384.78442 13.926445)
(-2533.6842 -460.89321 -17.094376)
(-2833.0898 -541.45099 -52.745006)
(-3146.4663 -626.42351 -93.077569)
(-3478.4895 -716.46662 -137.58943)
(-3835.946 -812.56236 -186.6895)
(-4220.4467 -913.88861 -239.91254)
(-4638.1646 -1022.8347 -297.06945)
(-5085.0726 -1137.7859 -358.51819)
(-5540.4479 -1253.1356 -420.92499)
(37.795131 38.451421 39.15016)
(17.089924 74.470552 59.761933)
(-17.642269 107.9218 84.607456)
(-93.7266 139.61297 108.12832)
(-196.28048 166.47692 133.84617)
(-332.26415 181.59529 156.32116)
(-500.58796 191.81972 174.3575)
(-697.52875 188.18287 188.38102)
(-923.1913 173.7626 197.60212)
(-1176.3202 146.49325 199.31032)
(-1452.7566 105.97641 194.82663)
(-1751.2325 54.15346 183.10091)
(-2067.7482 -9.5636501 164.74652)
(-2400.2273 -82.885346 139.58348)
(-2745.5407 -164.45397 108.01439)
(-3101.5497 -252.50976 70.635271)
(-3465.4136 -344.649 27.909061)
(-3836.1483 -439.82769 -19.33499)
(-4210.6567 -535.66046 -69.974935)
(-4589.5343 -631.25958 -124.08342)
(-4969.969 -725.91911 -178.81377)
(-5351.495 -818.47999 -235.34878)
(-5734.5298 -908.80449 -291.35377)
(-2.5953868e-15 -2.1703571e-16 4.2716933e-18)
(-3.8783653e-15 3.5858996e-16 7.5215743e-16)
(-9.8459492e-16 7.8127033e-16 2.7525688e-16)
(-3.9146975e-16 7.8165185e-18 1.2560621e-16)
(1.6350797e-16 -2.4226884e-16 -1.2066667e-17)
(-1.0304172e-15 -9.2669207e-16 -7.5672327e-16)
(-6.4481012e-16 3.525084e-16 2.7116342e-16)
(-3.5205005e-15 9.4737515e-16 -2.5196009e-17)
(-3.8147498e-15 1.043275e-15 1.2924308e-16)
(-8.5527066 14.093516 36.793996)
(-17.89739 19.823866 21.658704)
(-20.367702 17.986412 2.073518)
(-41.126459 92.104021 70.224264)
(-57.748007 93.145036 48.318434)
(-67.176778 95.042372 21.854671)
(-81.944964 131.94561 101.67425)
(-111.73505 128.20101 77.616062)
(-134.43185 138.38134 52.978809)
(-162.48695 186.49399 130.14)
(-201.45316 186.44144 108.48404)
(-229.15334 183.29224 84.51064)
(-267.21657 230.05317 160.94279)
(-313.94406 223.41944 138.76443)
(-353.36597 226.84994 113.98241)
(-402.44122 270.87718 189.81023)
(-460.54043 267.53565 166.80367)
(-507.20753 264.51459 144.53814)
(-570.93069 305.17537 215.73194)
(-635.13241 299.82531 196.54595)
(-693.11367 300.93705 170.11507)
(-771.35925 334 240.70912)
(-844.93244 326.39777 220.60094)
(-910.29215 328.23078 198.27036)
(-1005.4716 351.12477 260.65583)
(-1088.0394 348.37523 242.72496)
(-1162.9867 350.18054 219.95055)
(-1277.3419 362.18193 277.16827)
(-1368.1328 359.10115 260.00428)
(-1453.9995 362.33564 238.7936)
(-1582.9874 359.20662 286.88289)
(-1683.4108 358.4253 271.65865)
(-1777.5283 364.07519 252.17618)
(-1923.6047 344.54213 290.09341)
(-2031.8988 346.64013 277.18886)
(-2136.309 353.84646 259.4032)
(-2293.6573 315.45844 285.79573)
(-2411.0954 319.90317 274.76972)
(-2524.5239 330.1056 259.03766)
(-2690.9161 272.58337 272.71062)
(-2815.9187 280.17742 263.85719)
(-2938.0038 292.76277 250.8905)
(-3108.0228 215.26987 250.80159)
(-3240.577 225.93773 244.31375)
(-3370.9588 241.50433 233.72067)
(-3538.3784 145.10606 220.03116)
(-3677.5473 158.97984 215.50612)
(-3814.8364 177.07719 207.46293)
(-3973.1821 63.304939 180.56697)
(-4117.7959 80.314556 177.91872)
(-4261.2195 100.83594 172.52447)
(-4402.5879 -27.459579 133.62526)
(-4551.798 -7.9252688 132.77193)
(-4699.7824 14.871248 129.3057)
(-4817.0637 -124.80683 80.564564)
(-4969.1513 -102.59549 80.762383)
(-5120.3436 -78.267594 79.422479)
(-5206.8241 -225.28872 23.199313)
(-5360.559 -201.51551 24.41201)
(-5513.6075 -175.99484 24.568208)
(-5564.8619 -325.64344 -36.549073)
(-5718.8971 -300.5421 -34.434299)
(-5872.3147 -274.59417 -33.272341)
(-5886.768 -423.72032 -95.6683)
(-6039.9985 -398.01724 -93.308316)
(-6192.8617 -371.7218 -91.775511)
(-6173.5267 -517.13986 -153.58362)
(-6324.2186 -491.30289 -151.10487)
(-6475.0631 -466.05658 -149.32081)
(-6075.2215 -1722.5053 -623.42852)
(-6221.9921 -1697.3806 -621.24891)
(-6369.6127 -1672.1608 -620.4269)
(-6106.2852 -1333.965 -479.35829)
(-6256.5018 -1310.6552 -477.20969)
(-6400.5195 -1285.7117 -475.52754)
(-6263.072 -972.73379 -344.38064)
(-6409.1783 -948.12181 -342.74465)
(-6555.4215 -922.61222 -340.47899)
(-8.8075856 -19.470172 -36.15783)
(-22.542567 -35.929808 -24.861561)
(-36.711818 -45.323387 -5.1509466)
(-21.218161 -67.837651 -47.352188)
(-48.087146 -87.222565 -26.323123)
(-61.374696 -97.410506 1.8534736)
(-64.841302 -127.03583 -57.056818)
(-95.310858 -142.47483 -35.340202)
(-120.28574 -162.15593 -3.8578501)
(-130.35202 -175.3119 -59.880056)
(-169.44915 -196.37666 -39.086549)
(-199.65277 -213.69646 -9.8209946)
(-220.28509 -239.92542 -66.643572)
(-268.60103 -260.3287 -41.375325)
(-305.88159 -278.3245 -13.730732)
(-341.12346 -304.28 -69.213171)
(-393.29806 -322.50744 -49.01885)
(-441.16623 -344.2326 -18.105697)
(-485.78679 -377.63326 -76.365038)
(-547.22383 -398.38087 -53.829394)
(-601.56734 -416.14671 -25.941114)
(-665.1389 -460.0127 -84.490818)
(-732.92932 -478.22143 -63.740738)
(-795.75864 -495.74926 -34.85787)
(-873.80201 -551.70055 -98.763771)
(-955.06093 -568.36853 -73.57847)
(-1024.2588 -582.8147 -50.081294)
(-1124.5067 -653.70463 -112.2874)
(-1209.4422 -665.05762 -95.397322)
(-1291.2628 -679.88668 -67.193733)
(-1407.9455 -764.64262 -134.79193)
(-1502.431 -774.65505 -114.63634)
(-1590.2664 -784.33519 -91.868895)
(-1727.4035 -884.56622 -160.80541)
(-1829.5891 -889.04628 -143.93689)
(-1927.5454 -896.49177 -122.25111)
(-2076.7037 -1009.0714 -194.0972)
(-2188.6444 -1010.2909 -177.93686)
(-2294.3629 -1012.8871 -159.51105)
(-2451.208 -1137.5213 -232.50844)
(-2571.0436 -1133.7293 -219.01155)
(-2685.138 -1132.2755 -202.94348)
(-2841.5596 -1265.0793 -277.62861)
(-2969.4553 -1256.9158 -265.5627)
(-3091.1942 -1251.449 -252.70853)
(-3238.9855 -1389.3132 -327.01807)
(-3373.7145 -1376.9911 -317.49336)
(-3502.6511 -1367.4683 -307.21251)
(-3634.3999 -1507.2614 -381.34172)
(-3774.7334 -1490.923 -373.22148)
(-3910.3785 -1478.1552 -365.77993)
(-4019.6776 -1616.1286 -437.59247)
(-4164.2481 -1597.1408 -431.48958)
(-4305.6066 -1581.4446 -426.22233)
(-4387.9279 -1716.1833 -495.60588)
(-4537.6784 -1694.9891 -491.05825)
(-4682.3288 -1676.1865 -487.457)
(-4736.8499 -1804.8782 -553.71944)
(-4886.8745 -1782.2566 -548.98402)
(-5035.6189 -1762.0983 -547.30563)
(-5064.5149 -1884.6678 -609.03881)
(-5213.5406 -1859.8968 -605.80558)
(-5364.3821 -1838.8918 -604.87078)
(-5368.7897 -1955.7109 -660.99859)
(-5517.4927 -1931.6728 -659.19089)
(-5667.8567 -1908.7495 -658.52103)
(-5655.48 -2019.2119 -711.79092)
(-5802.6926 -1994.4385 -710.02301)
(-5950.2131 -1970.2209 -707.93755)
(-4.818371 -14.723033 18.280501)
(-43.5772 -69.240757 21.807812)
(-107.56567 -86.701663 21.739161)
(-209.17928 -127.68628 25.121191)
(-330.40526 -168.32821 29.338231)
(-486.45759 -207.48332 30.873407)
(-669.22195 -255.24815 30.401923)
(-884.92117 -303.88137 28.818558)
(-1129.5722 -359.11108 21.286442)
(-1406.8324 -416.1851 11.678095)
(-1711.5016 -481.259 -3.4602488)
(-2044.5935 -548.34743 -24.723003)
(-2400.1049 -622.78599 -50.963686)
(-2774.4157 -701.61205 -83.316232)
(-3163.0577 -785.44109 -121.81745)
(-3559.7543 -874.12786 -165.74981)
(-3959.5126 -966.60111 -214.98871)
(-4356.9689 -1062.3923 -268.46989)
(-4747.3593 -1160.2177 -325.37045)
(-5127.3378 -1259.1828 -384.26176)
(-5494.5003 -1358.4052 -444.34462)
(-5847.4874 -1455.9793 -503.70856)
(-6166.7227 -1547.2039 -560.36856)
(7.2542649 -8.9992646 4.326346)
(-37.434788 -22.250586 19.679575)
(-119.47981 -19.155025 27.202)
(-232.44977 -34.346634 44.458092)
(-375.98119 -42.675552 59.268795)
(-558.78106 -53.59715 69.442217)
(-766.97449 -76.122526 82.644356)
(-1005.3172 -97.965617 88.230539)
(-1265.2615 -128.33246 91.309405)
(-1541.1919 -164.18472 88.345586)
(-1826.8568 -206.54321 80.103659)
(-2119.9385 -253.26163 65.676688)
(-2414.0418 -306.63474 46.45447)
(-2711.3899 -363.94415 21.199945)
(-3012.2733 -426.59113 -8.6304773)
(-3321.0704 -494.06007 -43.391339)
(-3643.1241 -567.24011 -82.889341)
(-3983.9763 -646.47394 -126.7502)
(-4348.7165 -732.72323 -175.57706)
(-4740.9622 -826.21997 -228.38084)
(-5162.4335 -926.88439 -285.90486)
(-5610.9293 -1034.7961 -346.38408)
(-6112.6914 -1154.4745 -412.39743)
(9.7103366 9.2809705 -7.1041316)
(-50.366796 17.666395 11.343574)
(-129.99615 52.591408 25.365377)
(-238.96059 65.041066 54.436388)
(-381.0927 93.045605 73.560027)
(-556.47409 106.96693 98.086095)
(-756.59637 118.33138 119.1429)
(-992.60429 122.7645 135.39571)
(-1249.948 115.35199 148.4432)
(-1535.7341 99.850667 155.39493)
(-1842.1942 72.305891 156.00782)
(-2169.0677 34.484781 150.58575)
(-2512.3111 -13.562401 137.4373)
(-2869.4395 -71.281991 117.88411)
(-3237.5 -136.77604 91.274091)
(-3613.72 -209.31583 58.388817)
(-3996.0247 -287.22564 19.767534)
(-4381.9214 -369.30197 -23.858929)
(-4770.1551 -454.32771 -71.671541)
(-5158.8523 -541.39714 -122.36846)
(-5547.0564 -629.93084 -175.86284)
(-5934.129 -718.73738 -229.47223)
(-6319.2444 -808.63289 -285.35136)
(10.63899 -11.932077 -19.294723)
(0.77099803 -14.636613 -14.001373)
(-9.9398512 -16.308722 -1.3861524)
(-4.009497 -46.415518 -19.661359)
(-32.461456 -55.706849 -7.6325038)
(-43.522575 -58.556082 11.522149)
(-51.431422 -70.316986 -20.645167)
(-78.833033 -81.783954 -7.0771959)
(-104.79206 -90.70818 7.5335617)
(-121.57145 -105.70378 -17.234846)
(-166.87685 -121.5281 -2.437627)
(-198.47579 -126.44887 13.112559)
(-225.42417 -143.53249 -13.097142)
(-274.11418 -158.46218 -0.59230676)
(-316.36603 -168.41688 17.012244)
(-357.41653 -186.78931 -11.825426)
(-416.98144 -204.59807 2.8884655)
(-466.76704 -213.16624 19.547811)
(-518.60728 -236.5233 -9.4536777)
(-585.193 -253.65893 5.2621991)
(-645.02101 -260.72538 19.970025)
(-710.34452 -292.68433 -9.6742039)
(-786.75538 -305.92882 3.4679921)
(-854.36963 -313.45608 18.7989)
(-931.88251 -351.04647 -12.620063)
(-1014.1472 -365.26878 -0.49757446)
(-1090.5577 -370.56642 13.90357)
(-1180.2374 -417.84467 -20.023981)
(-1269.9886 -428.88313 -7.6938324)
(-1355.3215 -430.0946 3.8234967)
(-1454.1886 -488.87604 -31.214539)
(-1551.5007 -495.50838 -20.229635)
(-1643.7553 -495.72828 -10.403742)
(-1751.7767 -563.96274 -47.357681)
(-1855.6663 -567.67091 -38.281639)
(-1955.7462 -564.28176 -29.477646)
(-2069.5558 -644.77054 -69.352182)
(-2179.7699 -644.07607 -61.17884)
(-2286.4758 -637.24893 -54.947253)
(-2404.1758 -729.28282 -96.883675)
(-2519.9762 -724.69552 -90.882747)
(-2633.1044 -714.56988 -85.511027)
(-2752.0402 -818.09993 -130.93963)
(-2873.3421 -809.49353 -125.94789)
(-2992.2165 -796.16626 -122.20957)
(-3109.9247 -910.4781 -170.62577)
(-3236.1351 -898.44697 -167.24)
(-3360.506 -881.89773 -164.2733)
(-3474.6315 -1006.0846 -216.35526)
(-3605.5492 -990.72871 -213.7994)
(-3735.0386 -971.76532 -211.68182)
(-3843.558 -1104.3451 -266.88127)
(-3978.8022 -1086.5485 -265.24891)
(-4112.9024 -1065.209 -263.42739)
(-4212.9445 -1204.8102 -321.73627)
(-4356.1687 -1185.4659 -320.87362)
(-4492.567 -1162.0447 -319.21557)
(-4610.2667 -1313.0704 -382.09981)
(-4709.7 -1279.5829 -377.44138)
(-4871.9763 -1261.4526 -377.60345)
(-4985.6853 -1417.3907 -442.56627)
(-5080.6175 -1382.0012 -437.27335)
(-5248.9584 -1363.0086 -438.1826)
(-5333.7414 -1514.212 -502.728)
(-5475.8861 -1490.0466 -500.81006)
(-5623.0652 -1464.2133 -498.94345)
(-5703.1998 -1618.1443 -563.89209)
(-5850.9591 -1594.1998 -561.71109)
(-5997.5842 -1568.389 -560.04083)
(27.474296 1.3491331 3.6521935)
(12.974427 -4.6404112 1.3450219)
(1.1931408 -3.9602457 2.7368557)
(-1.1761237 6.5678972 18.479186)
(-23.124279 -3.9651463 17.313984)
(-35.843064 -7.4714144 19.812633)
(-50.552285 6.3626949 28.436816)
(-84.235156 -5.0691842 25.415977)
(-109.13467 -12.269904 29.136024)
(-133.32455 7.3929597 45.01537)
(-180.39007 -9.0371368 43.407691)
(-213.71427 -14.261904 45.992234)
(-250.56643 -2.5088506 58.145787)
(-306.29992 -19.015368 55.139686)
(-348.43885 -29.285386 61.394892)
(-400.17905 -15.203566 72.837084)
(-465.66636 -31.721417 72.274007)
(-519.00286 -40.316222 73.919805)
(-580.6923 -38.010228 85.112754)
(-655.32807 -53.584454 81.223591)
(-718.08538 -60.640767 85.641705)
(-790.05934 -64.992048 91.248615)
(-873.22287 -79.07804 88.924699)
(-943.52285 -87.576871 92.733211)
(-1020.736 -102.89378 93.790381)
(-1112.2485 -115.27748 92.521461)
(-1191.5001 -118.74089 95.126612)
(-1271.9542 -147.51357 91.314869)
(-1370.2818 -154.8692 88.542201)
(-1456.1474 -158.41498 91.473521)
(-1535.4064 -197.76421 82.217072)
(-1639.3919 -203.34717 79.186342)
(-1731.8758 -202.47816 83.655321)
(-1808.3342 -255.40208 67.161649)
(-1917.3377 -256.57394 64.894551)
(-2015.3451 -253.7278 68.62779)
(-2087.418 -317.91057 46.329332)
(-2200.4441 -315.82983 44.028785)
(-2303.2312 -309.38132 48.615709)
(-2371.5303 -385.26509 20.112167)
(-2487.853 -379.23525 18.397684)
(-2594.7817 -370.54289 23.28884)
(-2662.0887 -457.02384 -11.390418)
(-2781.0939 -447.90409 -12.423325)
(-2892.1834 -436.22336 -7.3299462)
(-2961.6775 -533.23518 -47.321153)
(-3083.327 -520.91843 -47.881093)
(-3198.1037 -506.89503 -42.490262)
(-3275.1325 -614.19887 -88.154205)
(-3399.3496 -599.28835 -87.853394)
(-3518.0771 -582.85046 -82.514273)
(-3607.2795 -700.60157 -132.99796)
(-3734.6102 -683.09684 -132.14045)
(-3857.3098 -665.02496 -126.94304)
(-3964.113 -792.95363 -182.43244)
(-4094.6144 -773.93963 -181.04523)
(-4221.342 -753.52617 -176.32393)
(-4344.7596 -891.3092 -235.93283)
(-4485.4498 -870.57324 -234.06776)
(-4614.2954 -849.7949 -229.73249)
(-4760.3416 -997.56695 -293.4284)
(-4908.417 -975.42741 -291.26573)
(-5036.9999 -953.04608 -288.27758)
(-5208.6067 -1109.3499 -354.46924)
(-5348.2753 -1086.6679 -352.02003)
(-5487.6374 -1062.4084 -349.13075)
(-5681.1238 -1227.825 -418.70779)
(-5825.9239 -1203.7753 -416.59508)
(-5969.322 -1179.4601 -414.63108)
(17.081018 17.808864 19.829969)
(8.7487711 16.719094 10.645134)
(3.3483252 11.229727 0.86386055)
(-20.640177 51.129581 44.762779)
(-41.688746 40.131992 31.05883)
(-50.669318 36.334752 21.543005)
(-65.996881 82.897719 67.912002)
(-97.6302 78.961803 52.572865)
(-120.95472 67.655536 39.533443)
(-152.89293 113.12119 93.004801)
(-192.49074 98.334177 78.887818)
(-224.79258 89.339734 66.97472)
(-263.47952 135.16078 117.95436)
(-314.58537 126.10862 102.84982)
(-355.3651 113.04545 89.19322)
(-409.81452 153.2532 141.9609)
(-469.76766 140.47061 126.45606)
(-520.51958 129.00085 113.91912)
(-585.56939 162.9873 160.67724)
(-653.22416 151.51776 145.38042)
(-714.33983 138.33614 133.43504)
(-790.33239 160.67912 175.99767)
(-867.93597 150.82782 163.43275)
(-937.68463 140.4387 151.32656)
(-1024.2539 149.16677 187.03274)
(-1108.8371 140.84077 173.51037)
(-1188.3173 130.61782 162.1466)
(-1283.557 125.35401 190.03617)
(-1376.1781 118.95974 178.58387)
(-1463.616 111.70077 169.20885)
(-1565.8598 88.826552 187.35736)
(-1665.3548 85.890511 177.7779)
(-1762.0444 80.514479 168.84874)
(-1869.8803 41.33245 177.46212)
(-1976.0595 41.077402 169.24732)
(-2080.1541 38.405904 162.16949)
(-2191.3309 -17.520496 160.80499)
(-2303.3355 -14.378872 154.26333)
(-2415.3789 -13.729842 148.54687)
(-2528.332 -85.74238 137.19107)
(-2646.0158 -79.565461 132.25459)
(-2764.5887 -75.725841 127.67218)
(-2877.8208 -162.29504 107.07943)
(-3000.3796 -152.91424 103.41135)
(-3125.4147 -145.50142 100.15539)
(-3237.2826 -245.19986 70.884276)
(-3364.5671 -232.84567 68.407251)
(-3494.8273 -221.98323 66.217927)
(-3604.5622 -332.81783 29.018237)
(-3735.8288 -317.66951 27.710818)
(-3870.8778 -303.49467 26.295016)
(-3977.5637 -423.69684 -17.345879)
(-4112.7823 -405.95842 -18.088452)
(-4251.4828 -388.81854 -18.581269)
(-4354.7801 -515.85054 -67.936547)
(-4493.0687 -496.08137 -67.808688)
(-4634.5916 -476.40416 -67.66998)
(-4734.8694 -608.66349 -121.38081)
(-4875.7859 -587.34945 -120.59649)
(-5019.4439 -565.38572 -120.09815)
(-5115.8941 -701.24483 -176.37853)
(-5259.1407 -678.63709 -175.65778)
(-5404.3776 -655.6401 -174.58596)
(-5498.3329 -792.70495 -232.9435)
(-5643.3911 -768.97471 -231.80233)
(-5789.799 -744.80534 -230.37604)
(-5881.1985 -883.1453 -289.40082)
(-6026.781 -859.03283 -287.69035)
(-6173.4856 -833.24353 -285.84758)
)
;

boundaryField
{
    free
    {
        type            zeroGradient;
    }
    fixed
    {
        type            fixedValue;
        value           nonuniform List<vector> 
25
(
(-2.5953868e-15 -2.1703571e-16 4.2716933e-18)
(-1.3028228e-15 -3.4252847e-16 3.3068324e-16)
(-1.9658614e-16 -3.2115893e-17 -1.1045223e-16)
(-3.6361799e-15 2.112754e-16 -3.2990721e-16)
(-3.8783653e-15 3.5858996e-16 7.5215743e-16)
(-2.0449562e-15 -3.5718549e-16 -7.3673077e-16)
(-9.8459492e-16 7.8127033e-16 2.7525688e-16)
(-1.4121951e-15 -1.0527101e-15 6.223458e-16)
(-4.8813632e-16 1.9183015e-16 -1.0607077e-16)
(6.5239771e-16 2.739523e-16 -5.5565719e-16)
(-3.9146975e-16 7.8165185e-18 1.2560621e-16)
(1.4766345e-16 -3.4299605e-16 -2.8648028e-16)
(1.6350797e-16 -2.4226884e-16 -1.2066667e-17)
(-1.0304172e-15 -9.2669207e-16 -7.5672327e-16)
(-2.6214496e-15 -5.6404768e-16 7.244144e-16)
(-6.4481012e-16 3.525084e-16 2.7116342e-16)
(-1.0135278e-15 7.0169807e-16 1.7538027e-16)
(-3.5205005e-15 9.4737515e-16 -2.5196009e-17)
(-3.8147498e-15 1.043275e-15 1.2924308e-16)
(-2.4010456e-15 1.4295629e-15 -1.6975308e-16)
(-1.2019486e-15 6.189313e-16 -3.4292956e-16)
(2.8178306e-17 1.9013092e-16 6.1994168e-17)
(-1.2511779e-16 -6.848356e-17 2.1836215e-16)
(-3.8898857e-17 4.7141393e-16 -3.1043199e-16)
(-3.7042918e-15 1.4868296e-15 -1.3023874e-15)
)
;
    }
    freeTop
    {
        type            zeroGradient;
    }
}


// ************************************************************************* //
