/*--------------------------------*- C++ -*----------------------------------*\
  =========                 |
  \\      /  F ield         | OpenFOAM: The Open Source CFD Toolbox
   \\    /   O peration     | Website:  https://openfoam.org
    \\  /    A nd           | Version:  6
     \\/     M anipulation  |
\*---------------------------------------------------------------------------*/
FoamFile
{
    version     2.0;
    format      ascii;
    class       pointScalarField;
    location    "0.46";
    object      p;
}
// * * * * * * * * * * * * * * * * * * * * * * * * * * * * * * * * * * * * * //

dimensions      [1 -1 -2 0 0 0 0];

internalField   nonuniform List<scalar> 
28033
(
1083013.1
-1573125.7
8371.0949
4537.1342
2005603.8
-2197998.8
5390.2945
2371.7972
895017.81
792748.1
678540.8
550059.41
406659.58
276645.76
142174.78
-4921.6361
-154212.64
-285311.07
-449223.12
-531453.79
-715315.22
-865998.21
-860627.4
-11776.295
-7113.4763
-8253.4107
-5010.1486
-4344.3927
-1733.9625
662.21918
3528.847
6071.8698
8885.2287
11624.002
13165.893
14785.256
15426.876
13470.548
276702.68
300374.01
271517.7
290131.33
283268.93
290456.02
290708.37
291524.65
291331.56
292145.41
289940.56
288646.83
287918.1
286413.97
284422.39
282038.41
281138.29
279019.25
276763.93
274840.41
273246.89
270788.78
269349.46
267196.13
264884.24
263185.44
261391.24
258986.75
257117.49
255029.1
253079.26
250643.34
248921.72
247082.82
244055.45
242327.16
239874.65
238337.35
235171.36
233243.46
230358.61
227790.5
225081.78
222731.42
219924.27
217506.59
214786.35
212323.29
209580.73
207086.88
204305.99
201674.25
198835.36
195987.94
192989.48
189882.58
186631.89
183219.98
179627.18
175899.6
171971.11
167871.64
163558.47
159292.96
154713.3
150332.31
146184.57
141142.05
135712.44
130790.08
125623.87
120784.4
115591.32
110682.7
105309.6
100533.05
94970.886
90303.386
84558.896
79953.018
74282.318
69502.281
63849.431
58479.211
53028.176
47735.468
42806.613
37924.96
32350.259
28181.727
24359.929
18319.46
18216.984
15703.455
13108.043
-275381.67
-227252.41
-268675.27
-239633.22
-272926.64
-268470.48
-274257.54
-271203.67
-276569.2
-271634.07
-274200.09
-270856.69
-270259.42
-269316.58
-267033.58
-265947.77
-263562.13
-261936.2
-260418.95
-258367.73
-256229.52
-255522.64
-252318.91
-252052.16
-249726.58
-247683.44
-247061.36
-243986.9
-243626.32
-240171.35
-239452.64
-236729.15
-235117.18
-233175.31
-231262.98
-229599.6
-226298.08
-224986.06
-221757.17
-219924.37
-217085.42
-214752.82
-212015.56
-209538.66
-206820.98
-204280.83
-201611.02
-199018.02
-196391.68
-193747.38
-191090.24
-188369.31
-185595.53
-182733.72
-179758.37
-176670.5
-173431.84
-170041.9
-166493.37
-162773.76
-158892.77
-154848.81
-150669.56
-146308.59
-141878.3
-137250.52
-132717.4
-128004.17
-123633.91
-118154.48
-113710.69
-108557.79
-103881.59
-98850.83
-94039.241
-89096.44
-84140.395
-79207.951
-74193.13
-69202.05
-64208.486
-59153.202
-54046.178
-49077.799
-43960.538
-38974.294
-34047.114
-29303.332
-24412.962
-20180.577
-16039.24
-11885.954
-8731.3041
-6911.2629
-4046.1101
1638735.6
1544191.7
1118045.9
1121476.1
780561.15
465509.12
291676.56
-17426.39
-257777.18
-555944.45
-774272.26
-1057729.3
-1343624
-1563861.3
-1674002
-458721.63
-340644.9
-155569.06
-325759.26
-262882.25
-286474.42
-275884.57
-291316.05
-275936.06
-288448.53
-288652.04
-279242.98
-287453.73
-276216.28
-284764.05
-277547.65
-274406.96
-273347.51
-268936.68
-271123.14
-266225.89
-261669.8
-264046
-261911.01
-260262.81
-259725.06
-251653.26
-256229.42
-247094.93
-250265.52
-248310.92
-246028.2
-244005.25
-242115.89
-240954.72
-232495.12
-235093.27
-232480.33
-229775.71
-227348.32
-224735.6
-222164.64
-219514.93
-216886.82
-214264.37
-211636.89
-208961.92
-206296.82
-203582.92
-200882.86
-198124.47
-195331.71
-192456.79
-189507.13
-186432.38
-183232.35
-179899
-176398.78
-172732.15
-168914.36
-164897.12
-160744.62
-156399.71
-151930.48
-147279.26
-142526
-138036.22
-133392.65
-125917.34
-122750.69
-117764.2
-112539.75
-107443.6
-102346.57
-97205.623
-92072.57
-86939.746
-81842.842
-76700.093
-71538.161
-66328.002
-61145.785
-55850.697
-50659.172
-45388.979
-40222.629
-35008.774
-30079.043
-25120.546
-20522.139
-16234.301
-12225.735
-9584.3418
-6785.8711
-5751.4049
16087.501
17332.167
14227.194
15312.419
10380.527
10623.067
5520.8516
3479.9336
77.010279
-3162.1715
-2925.4323
-7994.4981
-6202.9002
-11474.9
-7849.4718
21964.702
17521.87
18102.563
21670.917
24762.377
29327.302
33884.868
38912.891
43821.63
49308.678
54513.704
59675.365
65215.645
70653.363
76156.161
81444.147
86903.417
92107.956
97428.917
102649.5
107837.99
113056.68
118206.86
123269.76
128305.5
133211.83
136450.03
145411.29
148117.92
153473.33
158155.73
162933.5
167415.85
171851.79
176075.7
180154.94
184062.51
187777.31
191344.06
194733.06
197975.81
201072.37
204075.83
206941.13
209764.41
212512.41
215220.12
217902.23
220606.89
223247.24
225908.57
228651.11
231189.04
234066.04
236380
239151.57
241032.52
241425.12
248702.63
248055.96
248603.54
256241.17
254603.38
257413.49
256440.15
264039.45
258909.99
267695.87
266630.18
269730.83
270695.42
270266.28
277539.12
275787.79
276138.97
282381.17
279352.73
286108.97
282825.64
289395.72
293253.7
289991.77
291356.54
296947.83
296650.17
295137.66
300579.08
297905.86
296294.29
291060.2
289110.27
299752.09
293946.3
271369.97
344271.6
774064.81
846530.36
892814.11
930698.76
948743.98
975864.18
976223.68
988394.37
977128.98
954489.04
971033.47
910626.75
878820.86
920904.55
737825.45
-1291075.2
-1625071.2
-1604204.2
-1730005.4
-1681373.1
-1609151
-1845695.8
-1961687.4
-1839647.6
-1843104.8
-1771030.5
-1710197.9
-1608474.8
-1590983.5
-1493804.6
3730.6954
3635.0722
4180.7812
4613.7194
5581.1823
6258.8782
6394.5838
6492.3909
6430.0013
6089.4995
5636.6795
4916.747
4402.0093
4217.1047
4455.6826
1597.315
4447.0006
4011.3912
3403.0265
2535.5512
2382.6734
1840.7637
1925.5761
2108.3473
2335.2431
3292.2075
3894.423
4169.1189
7446.2406
1975.5108
272061.76
274846.85
245373.95
249014.28
252942.44
255818.39
258002.19
259982.34
260933.62
260573.07
259685.72
260621.97
258330.18
257205.14
255046.89
255044.01
252383.42
251149.66
248887.88
247697.61
245826.63
244476.45
242411.66
240508.99
238534.66
237449.17
235021.49
233212.49
231492.88
229770.12
227136.4
225464.85
224137.32
221634.41
219805.69
217496.76
215560.7
212874.62
210919.13
209033.11
207020.84
204630.44
202477.84
200111.52
197773.3
195547.49
193121.11
190874.01
188423.69
186086.23
183600.53
181144.53
178569.25
175954.22
173228.18
170412.46
167474.5
164399.47
161204.82
157861.77
154367.58
150679.34
146955.8
143098.53
138839.19
134679.68
129676.03
125390.58
121206.13
116632.59
112252.98
107678.1
103055.94
98653.247
93950.027
89497.591
84827.024
80410.112
75602.033
71348.727
66540.424
62081.869
57626.643
53366.048
48643.435
44131.289
39668.011
35026.762
30866.491
27282.701
22418.891
19332.663
16442.588
9866.1505
4285.7266
250438.04
227083.08
201889.27
210961.12
210707.19
213576.56
215521.74
217842.4
218573.08
219751.53
219398.14
219445.13
218222.48
218202.45
216611.63
215500.49
213829.63
213174.03
211257.64
210100.78
208460
206536.5
205329.28
203790.27
202459.59
200461
199202.94
197729.46
195929.89
194311.9
192873.13
191323.36
189291.28
187636.01
186019.89
184235.29
182453.49
180780.77
179070.88
177222.92
175284.43
173763.05
171388.85
169700.19
167649.95
165842.48
163792.01
161925.03
159830.18
157896.69
155758.34
153705.24
151511.68
149308.02
147007.43
144636.36
142158.83
139598.54
136910.51
134124.59
131202.41
128153.56
125119.39
121858.63
118551.84
116105.32
113442.51
110017.74
106941.5
103209.67
99507.707
95859.202
91793.256
88006.468
83566.615
80111.006
75420.758
72089.781
67320.062
64059.508
59374.754
55658.03
51621.689
46605.527
42469.044
38305.35
34008.913
30544.405
26795.682
22779.518
19308.555
15921.84
11521.329
6703.35
-461.63106
193924.12
193376.66
166299.8
175825.06
172013.74
176782.93
179168.97
181562.8
181638.82
183102.07
182694.84
183226.53
182192.58
181900.51
180475.89
180199.73
178570.41
177771.17
176174.22
175314.74
173786.97
172984.81
171514.45
170483.29
168689.05
167817.8
166323.93
164866.24
163542.36
162254.95
160721.52
159208.74
157947.85
156588.68
155258.88
153718.24
152655.32
151372.29
149928.86
148372.15
146799.27
145179.08
143950.25
142378.96
140893.83
139283.05
137663.77
136025.24
134351.6
132668.91
130912.84
129177.39
127340.43
125503.24
123576.89
121598.49
119542.22
117411.51
115170.55
112856.9
110421.55
107878.71
105306.42
102377.77
99764.381
97334.939
95162.169
91647.217
89211.255
86444.067
83512.407
80155.179
76663.851
73390.989
70143.905
66719.244
63574.218
60065.264
56956.265
53469.868
50153.347
47045.876
43237.297
40155.602
37002.963
33424.153
29724.717
26945.106
23430.858
20409.478
17431.153
13231.664
10396.828
3915.3746
567.14412
155689.53
154836.57
128368.52
138584.4
132678.34
138679.88
139594.82
141169.94
141972.77
143801.72
143395.43
144186.97
143144.11
143711.37
142357.06
142321.71
140820.1
140824.34
139313.52
138796.59
137557.65
136668.03
135556.51
134514.13
133597.34
132565.29
131445.59
130564.04
129407.86
128310.82
127232.16
126150.37
125037.46
123777.39
122928.11
121357.61
120409.95
118302.59
116923.28
115778.05
114937.64
113812.31
112525.19
111236.08
110059.55
108819.48
107582.35
106346.29
105051.3
103759.38
102413.99
101068.03
99659.254
98243.388
96754.743
95250.42
93666.112
92041.031
90335.448
88570.367
86740.66
84815.611
82814.994
80772.267
78755.118
76420.534
74675.391
72072.988
69217.117
66942.39
64713.588
62075.251
60090.201
57627.007
54983.43
52418.524
49836.485
47343.342
44711.584
42186.067
39632.408
37141.493
34396.927
31554.023
28936.754
27051.199
24420.504
21920.064
19318.143
16886.854
13867.787
11194.265
7809.0951
3798.0302
-842.83589
125618.69
113665.81
93377.142
102917.67
100025.59
103579.61
104645.86
106357.27
106440.84
107690.71
107467.46
107769.79
107421.28
107553.78
106471.25
106627.09
105403.07
105334.05
104029.3
103980.96
102808.69
102554.05
101380.48
101100.34
99985.319
99379.847
98433.128
97655.226
96717.877
96001.256
95082.651
94283.337
93358.999
92683.256
91861.936
90995.72
91582.64
92257.864
91648.289
92562.978
91325.002
90547.856
89878.844
89051.517
88211.058
87256.028
86320.742
85315.517
84323.377
83290.025
82235.643
81175.944
80071.525
78953.253
77798.925
76618.998
75382.764
74120.629
72791.199
71410.453
70005.313
68413.98
66933.343
65327.213
63374.039
61979.335
60067.462
58072.406
56057.876
54080.108
52126.019
49515.916
46559.889
44489.35
42098.431
40069.288
38245.702
36273.371
34422.799
32593.185
30578.026
28927.51
26770.873
25256.045
23086.169
21638.806
19274.764
17718.404
15450.959
13464.001
11364.287
9081.6957
6978.0437
3173.8761
56.020811
77525.389
77518.101
59868.229
69314.066
63963.676
66166.087
68052.236
68631.262
68393.995
70354.374
69321.7
70396.243
69536.268
70152.687
69069.183
69671.9
68461.715
68917.023
67734.962
67877.581
66793.439
66669.09
65873.258
65652.51
64870.966
64585.767
63941.134
63559.973
62940.578
62422.809
61834.466
61255.3
60730.669
60176.51
59510.994
59217.725
59397.227
59684.056
60286.688
60653.309
61205.503
60643.698
60079.661
59568.928
59020.467
58418.289
57814.413
57204.993
56567.178
55917.384
55250.382
54573.967
53867.283
53159.534
52426.625
51671.065
50897.142
50096.05
49258.493
48392.96
47462.928
46557.683
45530.951
44431.307
43560.297
42140.795
41257.682
39973.982
38719.077
37523.212
36006.87
34398.328
33200.553
30976.082
29054.893
27803.088
26548.094
25277.447
24097.014
23012.692
21523.01
20755.618
19033.47
18354.916
16502.066
15949.546
13980.948
13434.499
11537.008
10863.181
9253.0914
7728.0257
6039.9482
3256.8221
1693.8275
40772.606
36081.086
29671.999
35131.598
30377.593
32906.902
33655.47
33323.8
33587.964
33886.409
33888.482
33753.166
33796.601
33949.604
33402.702
33841.558
33014.256
33516.272
32646.512
33226.759
32400.36
32877.977
32196.77
32396.516
31778.195
31864.773
31301.091
31210.921
30716.106
30616.115
30201.734
30034.69
29694.505
29451.127
29238.887
29085.012
28759.765
28991.662
28230.496
27685.484
27713.506
27614.08
27327.785
27278.943
27117.662
26934.775
26730.129
26539.4
26295.453
26072.556
25825.259
25577.948
25319.93
25066.946
24797.008
24528.447
24246.33
23961.301
23642.904
23320.844
22982.255
22594.556
22183.821
21816.201
21250.14
20876.148
20291.215
19736.821
19205.004
18599.309
18034.902
17405.395
16347.363
16359.881
15921.724
15424.338
14744.873
14172.204
13694.592
13023.514
12537.003
12042.233
11253.296
11066.55
10027.649
10008.465
8888.6506
8926.9061
7777.3649
7552.4235
6258.5259
5601.7001
4981.1294
3754.4249
3233.7466
-5135.6987
-1973.161
-5945.841
-2301.4639
-3541.0081
-2963.4043
-2973.8522
-2743.6722
-4210.9181
-2681.8084
-4073.0683
-3387.6617
-3872.7758
-3356.9837
-4049.6225
-3167.5842
-3951.9921
-3048.6154
-3751.9824
-3020.8656
-3511.5926
-2762.7579
-3466.9225
-2980.2716
-3246.2461
-2955.3163
-3128.667
-2955.591
-3028.5773
-2983.7493
-3058.6134
-3024.5738
-3079.3673
-2978.0607
-2962.4641
-2989.8765
-2673.1202
-2580.6146
-2522.7844
-2649.9356
-2400.0605
-2143.6829
-2108.0954
-1932.6539
-1781.8566
-1681.2799
-1524.8646
-1391.9945
-1261.8358
-1132.3665
-1000.302
-861.70792
-719.9624
-570.44748
-399.71502
-231.11918
-42.142439
162.04425
347.71307
583.69909
765.89794
988.06786
1201.4154
1366.6347
1605.3147
1725.6737
1921.7741
2071.4971
2183.8671
2343.266
2363.9163
2383.8237
2450.0925
2763.8833
2951.5007
3076.9485
3116.4979
3313.3997
3371.9572
3555.3704
3746.1882
3726.6833
4081.1955
4013.6169
4165.5196
4402.2909
4073.0171
4714.0201
3946.9099
4818.0675
4371.2559
5104.0256
5035.3511
4495.8434
5121.1374
-41158.486
-40946.743
-34984.774
-33138.657
-34238.244
-35917.471
-34984.027
-37426.665
-37044.182
-38143.682
-38003.968
-38646.142
-38261.85
-38358.224
-38363.229
-37802.009
-38156.545
-37252.875
-37853.19
-36829.4
-37258.537
-36720.224
-36951.861
-36015.928
-36263.817
-35579.375
-35734.549
-35095.769
-35148.963
-34672.712
-34552.883
-34156.409
-33940.041
-33535.933
-33324.656
-32795.631
-32560.417
-32036.059
-31626.289
-31043.186
-30583.909
-30059.59
-29615.922
-29048.998
-28550.816
-28058.963
-27571.21
-27068.289
-26594.62
-26105.307
-25604.386
-25097.7
-24584.391
-24041.061
-23479.758
-22910.201
-22298.195
-21675.588
-21034.862
-20364.731
-19692.306
-18992.814
-18319.857
-17581.195
-16945.55
-16203.881
-15521.274
-14825.587
-14118.531
-13418.396
-12738.016
-11917.972
-11321.451
-10554.512
-10110.438
-9652.5376
-8759.2481
-8118.4638
-7220.9355
-6544.8558
-5659.755
-5034.0622
-4089.7626
-3495.2058
-2696.3422
-1771.0507
-1438.9554
88.780457
-49.845385
1744.8588
1557.7107
2681.8118
2942.7844
4515.0714
6441.6341
-84595.904
-83488.665
-68374.643
-70906.146
-71904.156
-72790.46
-74347.272
-74775.021
-77096.044
-76653.129
-77673.826
-77640.716
-77820.311
-77343.158
-77558.847
-76512.899
-76673.4
-75638.684
-75487.969
-74531.953
-74498.345
-72207.213
-71721.613
-70812.395
-70664.095
-69876.904
-69451.499
-68784.172
-68316.958
-67684.332
-67244.078
-66588.786
-66143.523
-65491.988
-64869.574
-64252.142
-63547.564
-62873.3
-62109.688
-61424.383
-60664.698
-59873.508
-59066.689
-58297.881
-57458.228
-56671.922
-55833.896
-55006.042
-54181.618
-53338.056
-52472.209
-51604.327
-50698.029
-49760.78
-48789.689
-47782.279
-46719.968
-45618.556
-44484.175
-43274.332
-42058.649
-40788.075
-39481.055
-38163.793
-36822.634
-35442.726
-34080.596
-32724.172
-31343.305
-29997.193
-28574.104
-27230.215
-25849.821
-23875.419
-21303.888
-19771.961
-18488.915
-17095.66
-15590.704
-14556.292
-12698.387
-11988.344
-9980.2579
-9272.1899
-7532.6832
-6397.5436
-5288.4795
-3368.794
-3032.9377
-481.31495
-182.62185
1671.052
3236.8926
5257.1353
7400.0525
-130521.71
-102314.43
-92493.783
-94584.568
-97055.771
-98616.32
-100633.82
-102687.82
-104617.3
-105128.16
-105811.52
-106548.45
-106185.06
-105927.8
-105926.11
-104682.19
-105039.41
-103426.74
-103520.31
-102742.33
-103158.23
-103706.6
-103854.77
-103844.81
-103775.53
-102522.6
-102308.46
-101027.32
-100510.86
-99501.492
-98809.64
-97889.312
-97174.652
-96169.564
-95308.836
-94312.838
-93416.784
-92325.21
-91340.322
-90235.123
-89176.234
-88006.518
-86925.628
-85738.439
-84597.174
-83421.348
-82263.567
-81076.707
-79894.876
-78684.525
-77456.268
-76202.585
-74908.938
-73579.933
-72198.196
-70776.587
-69286.53
-67755.557
-66156.044
-64504.338
-62805.805
-61034.107
-59261.477
-57396.874
-55592.707
-53676.592
-51792.186
-49822.075
-47891.349
-45876.585
-43901.71
-41999.149
-39871.751
-37708.281
-35712.179
-33276.919
-30484.043
-28401.515
-26235.543
-24206.346
-22295.304
-20156.406
-18304.986
-16263.721
-14287.765
-12523.052
-10360.261
-8783.3804
-6610.0422
-4685.4928
-2888.8345
-199.38189
2002.1735
4979.5498
9916.2793
-153991.08
-145806.72
-131558.04
-129661.22
-132351.1
-133652.43
-137409.88
-139230.5
-140419.24
-142300.28
-142649.26
-142673.27
-142833.58
-142240.38
-141741.77
-141119.08
-140165.42
-139148.79
-138678.71
-137182.43
-137453.84
-136123.23
-138238.97
-138051.24
-137373.97
-136651.01
-135743.43
-134535.97
-133630.07
-132330.27
-131475.41
-130095.83
-129224.63
-127939.31
-126839.39
-125638.81
-124334.62
-123050.97
-121693.21
-120354.79
-118881.61
-117513.14
-116021.83
-114587.41
-113095.72
-111612.94
-110122.22
-108605.16
-107083.46
-105548.64
-103972.78
-102374.5
-100728.61
-99027.94
-97263.807
-95435.757
-93522.43
-91527.123
-89455.396
-87291.014
-85034.452
-82720.729
-80308.402
-77825.571
-75334.953
-72743.685
-70137.701
-67556.027
-64920.774
-62230.505
-59654.167
-56877.7
-54190.72
-51587.767
-48859.686
-46706.688
-43782.224
-40968.938
-38148.16
-35431.91
-32560.891
-29841.917
-26991.908
-24283.624
-21403.965
-18938.83
-15834.472
-13696.421
-10688.606
-8180.8769
-5941.3289
-2121.2927
688.73186
5969.8042
11369.849
-218366.87
-196495.84
-164047.33
-174118.19
-170812.73
-178458.42
-178616.56
-182454.35
-183253.95
-185151.84
-185025.12
-185679.22
-184776.61
-184670.49
-183291.95
-182398.33
-181463.69
-179703.24
-178973.05
-177306.14
-176329.87
-175171.91
-173378.78
-171439.76
-170410.56
-168961.26
-168101.54
-166332.59
-165303.45
-163756.98
-162501.44
-160899.75
-159744.99
-158216.95
-156819.91
-155268.82
-153688.45
-152070.52
-150496.56
-148734.7
-147107.84
-145315.98
-143571.67
-141765.74
-139964.05
-138139.36
-136311.11
-134448.69
-132584.08
-130686
-128743.71
-126773.78
-124737.31
-122644.93
-120472.57
-118231.48
-115884.26
-113460.19
-110934.93
-108304.13
-105595.57
-102779.04
-99886.919
-96889.087
-93885.508
-90759.158
-87651.015
-84470.682
-81266.748
-77976.566
-74690.236
-71402.355
-68134.096
-64741.094
-61328.006
-58122.656
-54711.983
-51355.459
-47887.856
-44464.899
-41062.176
-37637.258
-34250.027
-30867.095
-27593.141
-24245.247
-21042.662
-18011.45
-14500.351
-11970.534
-8145.7098
-5028.298
-1426.2358
3580.9934
9377.6973
-240631.29
-227216.82
-189549.89
-205845.22
-207463.4
-212782.6
-214541.26
-218895.76
-220091.12
-220597.8
-222064.91
-221027.43
-220843.09
-220180.71
-218348.7
-217766.83
-216112.78
-214298.12
-213445.91
-211285.73
-210075.25
-208580.46
-207002.08
-206139.28
-204164.42
-202858.65
-201394.88
-199512.68
-198638.29
-196590.15
-195398.53
-193392.59
-191899.12
-190040.31
-188423.69
-186812.49
-184855.07
-183162.51
-181029.61
-179172.79
-177075.91
-175014.4
-172920.6
-170786.8
-168657.84
-166494.09
-164328.25
-162148.92
-159952.24
-157734.83
-155480.72
-153186.7
-150830.15
-148400.29
-145880.07
-143260.16
-140520.85
-137662.14
-134668.59
-131551.46
-128296.1
-124924.88
-121430.09
-117816.52
-114100.07
-110261.9
-106357.98
-102574.37
-98733.404
-94652.583
-90858.19
-86816.236
-82781.966
-78827.961
-74749.046
-70710.579
-66624.901
-62552.14
-58475.816
-54419.198
-50315.767
-46228.732
-42115.341
-38091.843
-33932.908
-30028.012
-25993.792
-22132.559
-18237.506
-14905.751
-10409.656
-7846.8691
-3185.0299
1639.4467
8711.8107
-334214.55
-221079.09
-233942.56
-237225.25
-245233.09
-243356.48
-250603.87
-252850.74
-252887.64
-254705.19
-254293.81
-254692.74
-252831.39
-252116.37
-250193.83
-249186.45
-247800.61
-245424.21
-244377.8
-242152.81
-240276.82
-238594.9
-237197.04
-235332.46
-234133.04
-231844.48
-230579.6
-228234.92
-227663.14
-225337.81
-224010.53
-221753.91
-220052.49
-217585.6
-215536.55
-214097.35
-212103.81
-209833.95
-207609.41
-205416.43
-203000.45
-200675.93
-198233.23
-195800.94
-193339.81
-190865.87
-188390.55
-185906.16
-183392.62
-180876.06
-178299.77
-175693.43
-173005.43
-170238.87
-167370.64
-164386.57
-161266.21
-158011.66
-154607.2
-151049.6
-147348.14
-143511.78
-139532.57
-135442.36
-131224.24
-126820.7
-122276.73
-117734.06
-113522.17
-109109.56
-104677.17
-99972.802
-95527.254
-90914.023
-86293.041
-81700.459
-77157.888
-72454.388
-67855.122
-63130.358
-58428.39
-53683.405
-49022.259
-44215.705
-39599.323
-34999.252
-30350.017
-26052.406
-21772.79
-17780.862
-13739.702
-11164.439
-6826.4307
-3183.0218
3850.102
602950.6
594767.39
578092.22
595851.77
598626.08
603006.51
624526.18
609739.27
605853.91
604506.25
599463.9
579843.16
574540.9
603500.13
516620.45
542847.95
562461.24
531449.72
551680.71
554199.1
566733.67
550020.88
571013.27
565293.14
569076.16
557167.55
554680.09
553489.22
558017.4
482743.98
403522.69
463880.47
409996.2
431126.2
430111.13
426091.04
432781.91
427982.42
431520.46
425476.03
423860.02
427565.79
399863.69
440860.7
409702.06
355753.58
358710.22
358865.96
354397.62
366065.12
362874.39
368372.5
368828.05
365467.68
366570.57
367571.79
354497.28
355701.86
380813.03
277947.58
250398.59
285527.75
248545.71
270902.25
262019.01
272206.42
268404.35
268395.67
269554.44
269756.81
265574.65
265325.73
262667.07
270257.99
244613.16
183610.74
191777.77
179517.1
185986.71
186369.09
187849.08
186874.12
187717.49
189190.21
188424.64
183700.24
191157.14
179856.78
191800.06
183304.54
96889.565
97997.89
99710.512
95206.842
100886.43
100507.78
100801.5
100786.02
98793.545
100308.07
99248.919
92981.133
101692.59
94684.467
97942.721
11144.725
9670.8405
4473.3821
10691.646
7401.6325
9031.6566
8471.8406
8911.7133
7126.1514
13020.44
1870.5865
12515.597
17859.611
-1188.3597
43147.273
-70564.492
-80047.47
-69833.431
-76288.704
-73992.596
-74685.101
-74901.645
-73697.389
-76186.602
-69016.725
-78068.074
-68680.946
-65852.593
-86567.34
-12260.77
-140077.07
-173811.97
-153742.48
-160628.38
-160147.78
-162757.58
-163844.49
-163202.16
-167871.28
-158258.89
-177039.5
-155228.37
-153293.27
-184555.62
-98305.929
-230841.54
-280613.19
-236449.81
-262642.25
-250521.76
-256878.18
-254520.71
-254698.99
-256876.3
-245857.08
-251490.33
-249309.27
-229571.14
-262121.45
-157628.99
-336799.9
-325354.19
-326306.7
-321871.23
-333163.74
-334666.98
-336631.28
-340043.09
-341486.74
-335695.54
-351858.39
-311132.06
-326608.62
-356675.94
-245624.74
-385863.87
-432004.39
-383152.9
-400357.86
-384668.46
-396503.24
-393067.1
-393413.86
-389331.22
-385239.35
-389306.67
-394527.27
-357349.11
-431022.99
-219234.64
-470933.39
-571369.39
-494851.6
-539359.06
-550956.38
-546120.54
-550657.98
-574860.68
-561947.08
-577408.11
-545567.86
-531704.76
-545552.5
-527038.17
-488123.45
-525421.21
-461728.79
-422590.09
-427905.2
-445333.09
-476412.13
-456536.04
-439187.98
-421629.15
-419211.88
-428912.74
-431156.09
-429252.22
-477428.78
-422704.46
-476552.2
-443423.34
-529632.93
-553298.91
-575639.69
-624773.4
-598883.67
-560609.55
-637019.9
-623937.65
-603594.93
-572411.33
-547494.6
-522318.7
-432639.77
-339789.57
-340613
-384408.96
-395628.3
-411235.09
-426161.45
-437011.23
-448065.83
-461583.27
-439435.64
-430990.86
-404546.51
-406547.26
-401517.27
-400521.65
-270162.25
-309761.05
-301634.92
-330672.08
-350298.6
-339629.11
-356882.48
-352133.17
-342477.97
-357396.96
-342991.11
-348744.36
-336405.38
-299371.03
-312718.2
-275826.23
-314390.96
-317790.13
-326069.31
-333978.6
-342176.56
-344708.86
-348198.23
-347785.27
-339677.2
-339218.93
-329805
-317979.02
-311960.07
-293680.12
-293246.68
-319803.81
-309900.39
-334602.99
-336652.49
-343465.81
-351394.96
-349752.51
-352381.57
-352085.26
-342629.75
-336003.93
-321877.36
-308426.88
-305179.86
-283982.89
-296613.86
-303643.29
-315262.4
-319235.02
-328320.25
-327497.71
-329086.25
-329043.74
-323740.77
-321950.5
-315270.56
-306614.51
-299399.86
-283620.82
-283502.92
-302881.51
-302883.76
-315104.35
-315614.01
-322473.06
-324756.13
-325818.22
-325654.87
-322675.72
-316318.54
-312725.13
-304659.27
-292827.84
-294797.1
-286042.1
-291214.95
-298307.22
-302745.34
-311042.22
-312585.3
-315620.65
-316843.51
-315614.81
-313846.92
-310557.1
-305133.42
-299501.6
-290982.53
-284500.14
-281284.6
-292177.14
-293649.49
-301304.17
-300678.64
-307417.06
-305504.63
-308126.73
-306507.94
-303979.97
-301264.65
-296712.62
-293215.54
-287631.29
-284575.87
-282410.6
-284837.74
-289513.78
-291202.98
-295737.71
-296698.61
-299190.54
-299135.73
-298539.42
-298411.69
-294879.68
-293288.88
-289363.15
-284778.51
-283112.99
-278454.81
-284656.6
-285639.47
-290538.06
-291151.63
-295123.18
-294244.49
-296592.02
-295977.63
-294436.16
-293799.47
-291471.84
-288077.97
-285858.6
-283847.43
-279101
-279388.37
-282505.41
-283280.25
-285389.05
-285678.86
-287624.62
-287799.2
-288138.34
-287562.33
-286479.8
-284473.91
-283547.85
-280791.05
-280617.5
-277114.86
-278295.86
-278512
-281523.13
-281983.31
-284758.22
-284156.48
-285881.17
-285674.55
-285384.96
-283787.79
-283966.02
-281224.96
-280909.41
-279399.01
-274387.03
-275116.62
-277498.3
-276978.99
-278900.31
-278781.96
-279303.82
-280298
-280322.1
-279569.82
-279536
-278877.9
-277902.41
-276825.65
-277645.94
-273230.7
-273029.25
-274054.72
-275336.98
-275941.95
-276573.74
-277497.75
-277232.83
-278122.27
-278344.83
-277609.31
-277657.08
-275577.41
-276606.3
-275885.32
-270426.77
-271157.01
-272921.89
-272016.62
-272986.63
-273092.4
-274848.18
-273413.61
-273289.12
-273228.07
-272566.89
-272828.43
-271054.53
-271448.27
-271220.47
-269783.29
-268771.38
-270240.12
-269382.33
-271257.82
-271658.57
-271478.66
-272053.27
-272498.87
-272642.44
-272239.6
-272899.91
-272655.41
-271019.91
-273809.46
-267920.54
-267504.59
-268339.53
-267695.15
-268580.25
-268697.03
-269287.87
-268632.09
-268813.82
-268693.1
-268108.01
-268228.01
-267511.88
-267511.45
-267628.72
-265169.59
-265266.31
-266409.88
-266691.19
-266757.91
-266879.24
-266263.36
-267576.95
-267241.57
-267767.66
-266495.95
-267975.53
-266850.85
-268367.56
-268131.13
-264132.51
-263478.77
-264343.67
-263599.29
-264728.13
-264659.44
-265580.87
-264580.88
-265418.06
-264805.67
-263982.1
-265350.75
-263822.12
-264875.79
-264216.02
-262525.86
-261848.39
-262834.27
-262402.98
-262624.5
-262379.88
-263183.57
-263611.25
-263026.64
-263390.5
-263127.43
-263894.53
-262779.42
-263663.7
-263227.86
-259254.47
-260261.58
-260443.04
-260575.91
-261143.18
-260771.52
-261513.6
-260953.31
-261560.89
-261188.25
-260913.29
-261965.9
-260744.77
-260233.67
-262070.01
-259135.9
-257797.33
-258863.49
-258855.95
-259224.98
-259336.5
-259798.4
-259680.03
-259086.11
-260310.03
-258922.12
-259546.55
-258318.55
-259934.94
-259668.01
-256113.98
-256410.73
-256919.74
-257440.77
-257371.19
-257764.65
-257699.47
-257419.47
-257968.99
-257627.06
-256882.89
-258211.68
-257318.73
-257181.17
-257332.9
-254688.53
-254992.32
-255025.03
-255465.93
-255557.46
-255338.89
-256296.23
-256001.37
-255970.12
-256462.67
-254880.78
-256322.55
-255273.29
-255526.41
-255938.27
-253766.9
-252291.48
-253676.6
-252977.03
-253777.03
-254049.59
-254452.03
-254101.95
-254377.64
-254381.52
-254467.46
-254270.26
-252863.9
-254366.5
-253087.45
-250761.13
-250961.11
-250957.1
-252160.69
-251715.15
-252992.29
-252505.9
-252894.27
-252532.48
-252779.2
-251886.32
-253330.99
-251040.04
-251678.72
-252723.98
-250301.88
-248571.18
-249709.06
-249811.1
-250770.84
-250857.38
-250740.78
-250878.76
-251102.47
-250828.75
-250536.48
-250476.58
-249799.32
-251097.76
-249286.6
-246993.66
-247744.86
-248380.33
-248464.21
-248481.28
-249213.52
-249137.42
-249497.63
-249247.26
-249445.11
-248549.88
-249369.46
-247806.41
-247765.5
-248955.41
-247212.51
-244770
-246285.97
-246786.89
-247386.8
-247149.4
-247599.55
-247677.22
-247582.73
-247339.94
-246638.64
-247365.91
-246058.62
-246710.51
-246597.68
-244176.44
-243690.43
-244402.88
-245014.33
-244913.98
-246304.62
-245456.9
-245873.16
-245012.6
-245987.52
-245065.87
-245620.01
-244353.13
-244395.96
-244604.88
-243086.07
-241289.63
-242738.45
-243083.44
-243410.92
-244058.86
-243837.8
-244040.53
-243730.47
-244080.72
-243081.52
-243814.76
-242449.05
-242683.53
-242652.78
-240756.03
-239635.8
-240667.9
-241238.61
-241489.27
-242223.13
-241871.59
-242263.88
-241900.25
-242157.18
-241293.29
-241765.85
-240543.16
-240591.49
-240473.86
-238754.49
-237482.37
-238722.56
-239125.54
-239482.04
-240042.08
-240031.31
-240232.33
-239844.66
-240097.49
-239147.13
-239699.51
-238509.67
-238466.56
-238586.91
-236163.61
-235665.54
-236700.41
-237068.68
-237367.61
-238260.46
-237827.86
-238276.34
-237801.89
-238224
-237133.98
-237740
-236135.39
-236716.83
-235603.54
-233603.15
-233750.78
-233969.9
-235823.75
-234846.38
-235871.99
-235727.54
-235825.2
-235649.45
-235799.59
-234740.84
-235146.61
-234218.32
-233632.59
-234708.79
-232719.22
-230801.55
-232220.92
-232476.78
-233335.88
-233256.15
-233625.76
-233521.97
-233360.23
-232948.18
-232549.7
-233091.91
-231680.93
-231784.07
-231492.5
-229455.73
-228835.42
-229567.16
-230630.62
-230180.28
-231308.12
-230813.62
-231363.07
-230752.8
-231071.12
-230086.85
-230538.21
-229402.71
-228961.39
-229267.57
-227688.5
-226000.34
-227388.5
-227811.51
-228122.4
-228630.21
-228589.19
-228742.99
-228373.96
-228583.27
-227591.76
-228183.81
-226687.13
-226703.17
-226629.84
-224713.31
-223672.09
-224715.21
-225352.93
-225378.39
-226143.14
-225918.55
-226157.6
-225815.65
-225934.71
-224964.96
-225341.89
-224231.78
-224015.72
-224065.24
-222379.68
-220908.6
-222168.03
-222583.71
-222838.69
-223348.14
-223291.6
-223479.9
-223121.46
-223330.47
-222299.58
-222846.28
-221547.06
-221396.83
-221416.93
-219566.75
-218346.97
-219423.52
-219964.79
-220087.11
-220709.41
-220636.64
-220748.42
-220500.04
-220588.31
-219694.52
-220121.11
-218902.99
-218757.48
-218801.45
-217012.55
-215605.39
-216781.63
-217185.95
-217385.95
-217972.05
-217875.92
-218042.64