/*--------------------------------*- C++ -*----------------------------------*\
  =========                 |
  \\      /  F ield         | OpenFOAM: The Open Source CFD Toolbox
   \\    /   O peration     | Website:  https://openfoam.org
    \\  /    A nd           | Version:  6
     \\/     M anipulation  |
\*---------------------------------------------------------------------------*/
FoamFile
{
    version     2.0;
    format      ascii;
    class       pointScalarField;
    location    "1.81";
    object      E;
}
// * * * * * * * * * * * * * * * * * * * * * * * * * * * * * * * * * * * * * //

dimensions      [1 -1 -2 0 0 0 0];

internalField   nonuniform List<scalar> 
3969
(
1842.4355
551.52541
-79616.105
-41356.206
2413.1649
2370.7182
-58287.529
-115580.81
336.81697
296.43619
51.42218
56.539482
210.26016
285.5598
587.84993
-46349.8
-43492.491
-43129.2
-42788.338
-43246.386
-42857.475
-29977.936
2297.0386
816.71525
512.99506
418.26227
197.59126
146.99502
-132.58104
276.40213
-503.62292
-146.51924
-259.86872
-447.39622
-283.6695
-626.33675
-265.44451
-780.98401
-315.30642
-568.95348
-256.04521
-283.41776
-185.37856
25.655533
-12.476849
347.31235
78.932519
553.30231
488.97417
575.20929
825.73356
845.81748
881.69942
1079.2134
1028.1453
1077.6182
1200.8355
1042.0301
1595.3622
785.50426
1993
380.01658
2142.1979
1207.8297
1120.2082
2632.0099
552.72357
1129.7572
3754.8235
4512.0566
-1952.1451
4487.5286
584.50489
3483.7699
1896.3345
3120.8969
2448.3008
2349.2846
3059.3859
1363.0505
2879.0017
1927.1289
2289.6899
2013.4427
1973.0684
2643.6317
1585.1446
2808.8395
2103.2279
2452.2237
2569.6463
2364.2924
2790.5175
2587.784
3175.6885
2405.6922
2875.3461
2771.9611
2359.0349
2744.5242
2334.5705
2457.4812
2193.2807
2143.6289
2034.1022
1958.8655
1629.9144
1395.6004
1352.1962
1140.1365
662.94489
658.84219
7.9016484
46.393228
135.29681
-1700.4421
803.37912
470.37718
37.861469
263.79694
-16.606082
373.89049
395.98105
5426.2954
7047.3112
-5125.0948
4932.1629
1735.7433
1013.3242
4206.1276
-199.91884
5969.6208
-1856.8953
5641.5391
-431.25145
1258.6884
1160.4758
-146.37024
1509.9788
205.12424
1056.4878
970.13037
924.2881
1263.3726
1090.5964
1426.1562
1174.1216
1658.615
1860.3159
1825.7918
2113.38
2295.701
2358.9093
2239.3352
2210.7596
2007.3683
1917.7332
1526.6312
1536.7942
2044.5668
464.6789
518.64337
163.76881
-577.49081
-626.67874
-1435.2373
-1747.4411
-2195.0044
-2226.5869
-4377.5369
-85552.567
-75613.264
-87016.977
-85733.862
-82818.866
-76134.946
-94103.52
3329.0752
244.21562
1962.8758
1836.788
2081.4528
2179.0885
2259.9635
2306.9673
2465.7672
2628.9892
2262.5449
1928.897
2684.0316
2706.3127
2783.885
2739.1842
2734.4661
2698.815
2587.4745
2543.2072
2395.1628
2354.7453
2086.3408
1919.3513
1730.9338
1626.2179
1465.9253
1229.5444
1233.0355
754.12901
1042.885
497.87303
795.00034
-159.30873
88.983094
330.93245
81.005447
29.457055
462.44094
-117.34511
655.6239
-686.3669
1292.3934
-899.34586
1942.2764
-518.60972
3809.9441
1382.0571
1202.7743
1117.6001
1237.8294
1276.1556
1287.9283
568.40125
-412.07066
-28.897272
-607.4908
-656.92598
-255.19506
447.63085
-769.14663
-45698.197
-45752.228
-45137.035
-45391.603
-45318.507
-44842.039
-46047.795
-88613.241
-89241.292
-89037.527
-88778.924
-88381.679
-89052.292
-86623.641
2378.9309
117.48617
715.33182
435.77653
-298.22541
325.39506
-627.86486
-15.79641
-573.59731
-138.72231
-375.39902
-292.03937
-101.36903
-6.7703029
29.23739
134.39767
345.00638
226.564
353.42732
326.11096
374.25915
351.21432
527.58053
321.29569
594.71642
623.50611
630.76017
786.89991
814.78002
755.91353
864.66309
849.3561
746.48042
842.97858
640.30513
623.91654
620.78904
308.70024
354.46915
-37.910096
443.44234
-1031.8813
484.61705
-874.67737
-603.94916
1790.9453
-12.226652
1105.2776
-119.35893
344.64713
-114.96175
-50.62207
99.398968
-390.87344
-5.7497561
-542.51789
-444.70482
-638.71391
-581.51312
-685.03181
-1068.3929
-1015.6194
-1142.279
-1115.9554
-1237.7934
-1215.4804
-1114.1868
-1177.1073
-860.71585
-1134.8491
-746.15585
-861.40615
-761.65959
-791.43218
-737.87864
-897.67563
-786.83743
-753.1091
-795.68652
-697.49242
-673.69715
-682.08702
-625.52026
-424.20511
-1202.7951
130.24453
-1392.2529
290.96309
-960.63107
878.24341
-375.51642
1858.9466
92.62625
1576.4803
898.81367
-250.71802
532.43581
93.915134
-19.37835
170.92876
83.67315
453.59114
223.85406
891.88232
496.22315
927.73062
649.98763
976.12806
661.51963
681.49668
659.07277
578.7444
775.96468
510.01606
556.80266
33.078824
275.67597
6.513278
-39.555938
-180.05068
83.756437
-134.34716
158.87947
228.83609
214.00595
391.69561
408.17462
534.35431
534.5377
878.70189
471.03651
1541.6457
1276.2973
1410.9942
2215.4785
972.97474
2390.9686
782.17947
1421.5747
197.63414
1994.8512
421.51546
-214.26684
255.59323
23.142059
-85.228587
232.7112
-290.01402
-196.47637
-325.78678
-696.91605
-829.75101
-519.81507
-1105.4319
-564.97893
-1227.095
-390.11966
-1148.4
-468.56088
-1117.2262
-804.7778
-956.5614
-372.76135
-367.44137
-350.37085
-456.05377
-122.41322
-350.47526
-347.36563
-337.47104
-467.8743
-452.07418
-434.41699
-529.70893
-430.41132
-408.79581
-598.7646
-183.36379
-682.31532
-1134.9793
-1298.1516
-1124.6478
-1781.083
-246.73728
-1976.4637
769.55398
-948.53584
2571.0212
570.20758
-485.48843
325.01184
-450.25491
-232.37268
-227.48756
-594.41529
-114.05971
-281.97005
-408.36257
113.0437
-296.7742
-32.961531
-204.17857
-53.209744
-277.51047
-246.91568
-309.87726
-370.34169
-235.50593
-266.01057
-454.0001
-476.93997
-749.93852
-438.14581
-631.80175
-645.39204
-505.53854
-462.19909
-371.66013
-302.62705
-195.77612
-147.94704
43.886094
-68.86355
326.09061
193.02295
473.62627
441.54178
1642.4083
1140.7423
2056.065
1803.5456
1676.8322
2444.8276
569.119
3137.4235
1016.0513
-504.73722
500.21065
219.95562
443.84807
493.26912
393.59211
241.41219
560.16452
-177.55385
348.45399
-45.901947
250.16571
224.528
13.299004
341.21221
13.269494
307.80656
193.57867
207.44797
257.30733
555.83339
261.62229
577.26317
592.18957
413.63087
568.74795
470.61399
423.59166
473.01563
434.58838
361.03395
405.92938
342.14343
328.18941
304.30818
240.33035
105.10049
338.00825
-492.37405
-425.25186
-368.6473
-985.33935
-526.65429
-680.0583
-1423.6903
1929.3408
1265.474
-1983.0557
-83.858835
-1665.0475
-1100.6982
-1805.0982
-1466.1128
-2388.9941
-832.50146
-2835.395
-312.90793
-2444.8651
-889.76322
-1717.9566
-911.18703
-1213.0053
-856.83133
-729.49481
-757.82333
-441.41522
-461.20928
-407.48436
-47.772611
-15.326934
-147.64219
157.13145
371.40097
509.24986
684.33146
827.80959
882.71319
1082.3727
1048.7683
1280.4956
1116.3284
1307.4892
1169.163
1563.5549
1316.1544
1545.1028
1704.5428
1863.0449
1918.7115
2708.7582
1986.7336
3316.3174
4310.9937
113.29756
-85.912634
-166.36564
-308.97273
-98.869713
-138.81465
-93.963716
228.52276
53.254875
-79.175573
-104.46383
-30.411167
87.355928
46.80347
-48.906545
-238.3998
-319.57595
-331.95264
-289.13582
-255.70708
-272.29834
-14.567861
-78.788583
-20.733879
-41.690983
-7.1237713
142.07145
113.53788
-150.73853
-207.76396
-246.15435
-261.84127
-289.81072
-208.51273
-142.39706
-82.680675
-492.78734
-379.08069
-608.20112
-538.71003
-524.75973
-390.09913
-437.04286
-171.95063
-835.73953
-1005.5961
-965.1226
-1028.8945
-553.80616
4999.4007
6647.3755
6684.0093
7450.4687
7552.1967
7028.4521
5694.7096
2692.5906
3674.5025
1087.7872
172.1611
2948.8019
1332.6472
4112.8107
956.25709
651.86381
3123.2503
1802.7481
915.90691
492.48072
3023.5227
3188.4209
4048.4259
1501.2101
2096.4074
2327.4968
3751.0943
1507.1678
2953.8636
2745.0921
4155.461
2901.3549
2845.8173
2613.0323
4672.2653
3419.5184
2016.8487
475.01388
1491.2662
508.14394
1928.7524
1223.029
2813.7536
2735.8587
4303.246
3389.7888
3968.9979
4262.8149
4972.2431
3201.9877
2577.4358
1361.3293
1488.7104
544.15024
265.83744
735.46678
3453.8917
2397.716
2969.6563
2839.8405
4325.5498
4580.2349
5887.6715
1895.5245
2200.6128
1282.032
3227.2762
613.13495
561.71526
967.36577
3881.2553
2531.5038
3630.68
1420.4
3346.4515
2991.095
3480.8353
1435.3435
2901.7075
894.57573
3278.1569
2610.0886
262.3829
2507.5894
3705.0768
1706.76
3069.4674
1480.9062
1512.9472
3095.6418
1362.1336
1794.657
2274.981
2713.7463
1402.5013
3723.8244
1036.1753
3076.9045
3038.0912
2940.1496
1843.7558
2464.7862
1474.2151
1591.3099
1315.2719
2755.363
1550.3479
3081.3786
1251.1357
2950.0394
1682.1252
2773.8334
2150.2024
2915.3814
2135.1596
1752.7675
2304.4795
1357.3935
2112.8028
3107.1425
1698.4798
2711.9617
1670.783
2449.0911
1582.6317
2164.1937
2489.9753
2142.7808
2657.3569
1400.8628
2544.7148
1327.3468
2530.7239
2805.4072
2105.4736
2490.9913
1843.1919
2507.7596
1529.2925
2293.2452
2966.2909
1991.434
2821.5732
1660.4566
2589.9036
1388.001
2524.5971
2816.6674
2230.3785
2713.6668
1773.4213
2619.6662
1413.9472
2514.3219
3078.4955
2216.6797
2762.9452
1914.1282
2714.845
1580.1924
2708.9347
2934.4395
2365.4043
2785.032
1950.6677
2681.4699
1471.1046
2502.8127
2818.4099
2808.5074
2394.9254
2385.2905
2634.8015
1738.2645
2790.4951
2723.6708
2889.8246
2301.9173
2539.1303
2197.6783
1988.996
2997.812
2835.2416
2847.226
2779.0646
2262.2374
3398.6902
2431.8522
3372.9206
3375.612
2621.4563
3265.2027
2311.6808
2831.3673
1742.5088
3375.9544
2586.5547
3130.859
2384.0904
2851.8378
2561.0744
2531.7634
3053.683
3307.8993
2438.1461
3082.4506
2529.6244
2759.0359
2316.6873
3043.0405
2646.6905
2852.4176
2592.7547
2563.5734
2538.7346
2312.7378
2806.584
2946.7661
2549.8223
2655.689
2478.7329
2495.7136
2235.9494
2704.9089
2609.507
2481.7613
2451.8396
2327.7441
2326.2613
2115.4042
2598.1839
2561.0297
2348.8803
2382.1364
2244.0579
2200.6963
2006.074
2416.4813
2298.9181
2156.4482
2106.7911
1997.003
1942.0394
1828.1197
2113.3059
2249.594
2088.4292
2062.6206
1911.0358
1800.6311
1902.4613
2238.8383
1596.2025
1672.9368
1621.3676
1521.3519
1874.2097
993.80983
1881.456
1347.7015
1164.413
1268.1667
1181.4942
1045.03
1710.219
1362.6112
1317.1684
1294.8163
1230.4305
933.11602
1061.0247
607.26385
917.36856
1072.0717
943.19619
815.02886
877.36684
585.04173
556.90879
889.48278
575.5509
447.32828
410.83955
199.01964
121.09228
121.28811
177.32688
403.14874
62.698267
163.71984
33.854529
-81.543747
-135.31038
-222.59296
-215.6641
-323.93827
-360.44078
-538.27537
-638.73214
-708.25521
-683.89046
-742.6346
-865.93781
-913.91191
-896.71889
-1201.558
-854.04615
-1436.5038
-1385.8928
-1263.1727
-1330.9186
-1430.6854
-1356.237
-1511.7012
-2005.4401
-1284.0692
-1039.5266
-1277.0062
-1026.3856
-1449.2489
-1152.5671
-1696.9562
-4026.9545
-3444.1496
-3384.3432
-3387.2064
-3159.7413
-3406.1719
-3677.6536
-54029.387
-59271.51
-58637.831
-58399.447
-58666.879
-58047.377
-58250.067
-57424.753
-58450.657
-58124.268
-58120.528
-57844.268
-62312.585
-57025.896
-60557.265
-55627.59
-55131.766
-55170.889
-54777.521
-49784.465
-55738.463
-58696.565
-58317.987
-58804.284
-58404.348
-58896.367
-58214.334
-58966.146
-57439.526
-51075.466
-55695.765
-56024.199
-55091.604
-55251.273
-56020.256
-52517.519
-62098.942
-57950.896
-57504.492
-62644.42
-57178.75
-58369.051
-59588.435
-53735.68
-54428.042
-53902.516
-48353.893
-53707.866
-53700.796
1841.7917
2613.0729
2432.0376
2539.3046
2623.5985
2927.3197
1987.3194
176.29778
47.922916
244.23016
863.65897
367.68771
30.869042
545.50796
1078.3416
1558.4071
1235.3785
971.13696
2132.5855
1290.2005
2184.39
287.53033
134.34993
-101.75966
627.08004
-18.063094
-270.93029
101.76586
1394.0568
1071.0581
1593.8943
1287.751
1824.6034
1543.0975
1879.9245
-134.6766
-145.68084
-635.94482
-671.4272
-553.75696
-1117.9163
-62.506566
1396.8159
859.17198
1254.7516
1412.0583
1355.8112
1519.3632
1605.5933
-153.76744
-297.4877
-693.43143
-569.44336
-735.71687
-692.86262
245.15955
802.41998
454.49834
739.083
307.57497
962.64302
169.04176
1165.1929
574.78005
-182.4988
-111.78663
-119.49554
-49.712007
-17.346706
657.50001
367.34719
11.531269
223.23989
29.139383
151.54391
-335.19902
395.13419
527.77698
-43.013858
-264.91848
268.09343
133.49332
477.12363
962.80738
367.34518
34.897137
223.74234
-172.46851
273.97089
-564.16942
553.3346
404.68243
-83.094865
-332.40852
96.190221
34.41001
906.19533
1216.2812
690.92359
103.34362
7.5292564
249.86609
701.91028
-311.0448
1138.2687
505.62194
10.237064
306.05942
-325.11444
528.47699
173.32855
775.02488
688.94932
358.51575
321.76715
399.34415
749.86846
179.66022
1450.2653
873.01989
116.01359
571.07093
190.94315
556.34247
269.81899
1153.1196
883.23014
447.79433
624.06422
235.25116
996.29352
392.26132
1590.0564
1149.4704
499.39108
693.86672
565.41503
901.57534
454.18886
1559.6733
1197.2005
496.62643
930.78454
450.45665
1104.3717
641.1273
1825.6231
1486.3995
899.1446
1049.643
783.02824
1286.3686
735.9169
1977.3232
1535.6868
767.12953
1118.2934
772.94028
1317.0556
846.42833
2163.4953
1853.9947
1131.7588
1299.7001
1049.3811
1489.4689
1131.0787
2342.8783
1841.7227
1102.5456
1385.394
1080.614
1626.5327
1223.2677
2432.1744
2290.3237
1295.8878
1641.2766
1267.7677
1844.5657
1390.5142
2528.1297
2235.9916
1375.2298
1609.2498
1404.3491
1809.2915
1457.8126
2668.7267
2419.3807
1611.6223
1806.7768
1568.2268
2090.2586
1663.7687
2885.9624
2589.8437
1576.1853
1957.9279
1612.8271
2073.6665
1709.5345
2830.4755
2514.8096
1879.2816
1902.5474
1746.0384
2201.2212
1804.7575
2985.7069
2773.5002
1782.9002
2031.742
1834.6854
2249.9073
1858.6424
3017.1986
2692.7249
1919.3314
2050.0756
1871.7264
2219.3154
1914.3645
3023.2159
2758.8202
1944.9911
2059.0024
1917.2479
2274.4651
1936.9758
2995.0509
2770.193
1947.0591
2019.558
1975.4297
2138.4235
1990.3067
3006.3794
2753.7062
1988.6619
2077.3195
1944.4896
2107.5753
2034.6526
2807.3147
2670.7288
1975.4506
1978.7189
1847.0966
2207.0088
2291.3146
3037.202
2971.2734
2064.4577
1799.0014
1962.2193
2267.1942
1438.7892
2908.3797
2494.5693
1593.7359
1838.9564
1578.2256
2067.363
1762.3345
2677.3847
2866.3113
2591.5751
2072.2188
2157.5989
1996.4426
1779.8291
2852.5527
2396.8199
1234.8633
1504.0905
1605.2046
1743.8303
1970.4623
2715.6713
2981.359
2550.8235
2307.0297
2149.1514
2078.6963
1836.573
2585.9624
2565.9426
1735.9217
1491.7346
1898.9663
1704.52
1995.6617
2523.1573
2290.8165
1397.9455
1724.7053
1437.8575
1329.5548
1508.2463
2383.7807
2734.009
2808.5993
2165.9983
2437.0324
2198.0255
2694.4028
2234.1048
1791.8263
361.28529
616.83752
374.37771
614.25265
596.61547
1488.0936
-392.06171
504.36366
292.10219
571.8054
346.9854
674.1774
851.6665
4514.3784
3302.8721
3290.7706
3168.8611
3118.2874
3324.3725
3623.1669
2104.4706
259.00435
-319.19098
-107.2186
-769.62566
210.89824
-1163.762
-212.17878
-925.5741
-522.55077
-70.563448
-1079.916
74.120762
-843.25416
-508.51209
17.800766
-484.61081
276.72788
-259.48171
322.70026
37.525897
323.20576
354.71122
438.73591
363.72836
486.80017
414.20625
616.73415
588.55911
555.53887
598.38498
589.90557
510.65873
453.82649
423.31519
17.641897
451.05974
-90.205725
-192.4141
-523.90536
-544.42592
-678.38687
-782.71818
-565.43983
-402.46217
875.46696
-737.54034
1205.7435
1168.3464
-453.03222
-215.35283
1152.6599
-795.55702
765.11727
56.250545
86.294815
796.59107
-310.93191
556.92791
287.4176
347.9349
725.7424
282.06028
645.88248
331.01359
595.405
554.85173
610.64982
759.19318
732.01608
871.66632
823.3666
985.21174
1306.4295
1135.8812
1331.9867
1383.579
1509.558
1507.8717
1619.2018
1680.9417
1796.8906
1744.7492
1946.1326
1871.8846
2258.039
1945.0596
2374.1193
2133.3668
2432.2835
1932.4076
2835.7981
-360.8285
3013.7598
556.50068
28.717756
-713.57781
400.2237
-690.34168
575.20404
53.929091
79.582029
608.96479
151.45835
267.43633
951.19221
30.431318
232.16422
-107.26522
-58.165902
36.068924
144.08882
-35.695363
103.04372
-0.20354438
-11.064
-25.847453
-164.11783
-40.662621
-319.79681
18.003197
-434.95389
-105.09991
-197.3028
-144.82061
-186.23636
-84.898177
-163.91943
-114.66228
-83.935499
-141.7953
-7.3726763
6.2886747
54.45496
107.6078
279.9185
120.29802
861.99059
245.39715
619.11357
3598.0663
165.55865
709.28146
-727.54315
1073.7801
-877.52779
1373.8528
-1378.4905
1264.672
-756.40102
75.26381
442.07385
-632.83986
139.96554
948.73251
203.93637
571.67334
392.05251
192.5544
268.79234
254.25293
244.96532
243.66799
236.17619
490.07083
580.9215
892.36723
557.08797
883.08805
744.78566
759.71172
785.0681
860.46493
899.89895
894.19254
1094.2453
1042.2511
1247.9687
1166.1435
1470.6839
1214.2076
1750.0179
1262.4566
2061.375
1126.6905
2537.8952
-260.77887
4831.993
551.4595
-43.136102
213.24335
317.11352
-103.36847
320.69664
-506.65573
1285.7031
-1120.969
1797.6946
-923.72843
1216.0435
96.883057
479.69047
172.1097
376.69645
251.23809
529.07771
448.7891
579.1136
482.71686
437.74266
547.83353
313.826
-61.12686
-497.55224
-266.24199
-379.59162
-360.4626
-252.92463
-172.88792
-170.73319
-140.83378
-7.5143865
89.246982
72.431628
223.53966
421.85491
303.75165
760.60055
579.3942
1067.5698
861.84043
1538.8062
1354.0905
1299.5152
3793.5749
516.73629
1558.0323
-1162.9681
1957.8954
-935.68501
862.38886
1370.1694
-832.52149
2261.5553
-104.75021
-2.6670484
954.82119
-1222.7285
692.96167
-474.4491
-64.067032
-139.17066
-202.38496
-110.86772
-219.63702
-207.38372
-303.84185
-179.65787
-403.84475
478.76493
1075.0941
1093.2713
1064.7702
1094.8759
1051.463
1062.112
978.36489
938.67544
993.18811
881.89892
778.97865
1021.3906
490.1989
887.78604
509.65967
634.22035
399.33541
632.95398
172.85843
875.06484
-802.9018
3344.3983
2097.0474
-1891.9737
595.90581
-2786.4852
-455.71507
-1645.6065
-1550.2435
-2089.8308
-653.557
-2115.1129
-2301.8795
409.03871
-2124.2499
792.4472
-1510.7922
447.51148
-544.49341
9.7040775
37.039271
162.02179
314.47208
502.03533
712.82972
640.15928
1265.0022
829.03139
316.47761
631.33402
520.85465
808.20672
890.57767
942.89286
1118.712
1250.8119
1138.3791
1236.8666
1270.1849
1715.6405
1552.4698
1860.429
1996.6882
2355.0018
2520.4374
3265.6273
3094.0509
4324.5918
4655.1073
1455.6338
1713.8387
1659.8419
1616.7209
1566.4708
1193.7262
1438.1757
478.60768
425.09119
158.72935
143.95005
-7.1623463
49.567411
463.09135
269.87968
99.904035
424.90956
202.63889
327.01117
223.23836
726.13635
626.87236
261.58366
298.85542
401.50672
242.65176
452.12824
384.23784
148.77603
-174.20547
398.27312
-571.00683
240.55631
-525.90285
-25.35643
290.67815
320.95026
-105.16237
725.7351
293.53441
534.28853
896.36497
89.616343
-629.35157
322.01426
-707.4384
-272.28979
-400.12234
-364.14024
13.045761
348.008
-42.392371
308.70635
442.50413
108.08465
549.23364
83.22672
-351.31848
-8.2862181
113.70149
-62.736826
102.47582
-108.08111
-153.6503
-16.676725
-57.155515
-254.15329
-105.53219
-184.58621
-218.98175
-86.996746
91.300709
9.5663483
320.85424
347.39795
418.33115
497.21569
113.5042
-91.98666
167.28541
-341.38633
-201.08084
-267.92142
-417.95007
25.685191
216.93168
-105.55682
198.5771
432.50631
252.34892
448.49187
345.30095
161.96801
519.40941
132.21652
432.74948
-511.18036
145.15363
68.901146
309.96452
-158.33598
224.81988
-159.44121
427.45137
15.518072
596.77973
574.73724
285.34287
704.48327
435.81618
263.23801
321.72192
322.10521
273.64566
115.7102
477.41966
43.759098
215.56111
124.61389
521.543
581.23992
361.30427
673.12258
399.6175
746.85867
552.70928
632.57267
511.44836
309.32783
672.75709
426.87373
460.41664
245.31507
632.31487
664.17076
408.14331
902.6642
464.26492
798.51022
643.58812
883.2734
707.80363
589.48513
886.77452
590.0683
777.05024
525.21564
851.14133
659.55802
584.82608
984.48337
646.63489
965.67761
672.91123
1132.452
843.6865
891.44394
1064.3492
817.23354
880.35615
688.94929
1028.7479
698.56727
828.09735
1151.7801
866.30687
1072.214
886.74252
1409.1385
889.38819
1156.4802
1311.2944
1003.1285
991.8124
802.18136
1295.4106
795.61873
1251.832
1228.07
1098.6586
1000.6246
1139.0262
1457.8141
908.0282
1374.477
1317.8469
1105.5227
1247.8306
1013.0988
1547.115
1005.0598
1198.8618
1405.7421
1199.0518
1064.2874
1122.9168
1425.8285
731.30662
1512.6043
1436.9321
1166.3343
1206.6533
1212.5449
1475.3356
1160.8201
1417.015
1365.0506
1252.2317
1192.5972
1203.8791
1564.8797
893.02417
1324.712
1495.1483
1231.6667
1181.242
1201.8339
1387.5649
935.42325
1440.9218
1405.1434
1180.2767
1145.1184
1197.7584
1424.2261
959.50318
1290.8704
1402.8447
1149.9396
1146.0977
1186.2625
1370.9275
774.91986
1273.0252
1263.5113
1062.1513
1075.1354
1070.042
1124.2294
800.15127
1126.6506
1262.8915
1109.1367
1052.1886
992.62212
1409.4116
626.52983
1046.5186
1143.9078
816.60048
783.64294
732.24201
772.035
241.24821
891.32926
819.83817
839.12662
632.98355
1222.9925
1042.9717
365.73643
788.84487
1188.4633
405.32047
894.11628
332.29731
300.30932
451.19877
370.32779
819.66775
440.32246
422.9612
682.03528
723.81996
-56.066345
276.5235
650.05743
76.197451
499.07785
185.26753
180.97511
272.49173
205.63972
676.97458
233.13961
228.615
71.828424
-116.32083
-785.18163
-626.86616
-20.557303
-747.27707
-15.365757
-62.26215
594.78371
235.40184
683.6183
710.47405
610.76579
645.90889
-149.69161
-583.07376
-711.38711
-1123.5346
-240.97812
-910.97104
-437.00794
-423.58048
251.211
-617.98111
539.48296
330.19409
258.91049
477.00307
-100.8329
1534.2302
2530.4901
1848.8519
2481.1495
1980.7541
2311.2833
1675.9737
749.46536
-453.48169
120.37692
-99.264918
-83.191377
-157.70445
-253.18106
747.72732
1393.2921
1128.0676
1233.4039
841.46423
938.00841
482.87581
-7.1518281
223.89983
128.81973
422.07833
462.07629
733.92595
641.19674
185.86955
-67.136853
-49.349018
-107.90562
185.23425
-161.04268
578.55453
-19.040242
294.97362
230.88348
608.71385
135.49439
654.48139
-268.36725
610.87146
178.00159
768.84428
253.16184
1020.2199
194.04677
915.78445
226.10368
131.45763
-614.14829
119.00638
-759.42767
-46.189155
-253.55437
716.46252
-28.074098
789.07109
266.84461
665.5519
668.7083
221.47495
460.50697
317.09595
-430.72789
139.66569
-119.47449
-55.956323
67.247738
737.26932
-281.35166
116.89191
160.6793
-403.85591
211.7719
-431.68146
641.89277
94.207573
147.68512
95.6766
445.39285
256.47066
542.69313
868.64811
-106.6158
-96.561558
243.61539
-474.08617
-15.598051
-548.89406
688.79899
-147.64261
-91.79285
-77.886673
187.41612
119.20968
320.96087
824.23983
-156.00753
-117.10911
654.04831
-124.27699
465.28501
-152.46335
502.74952
-554.33552
-69.087035
-116.9066
-382.60615
148.95283
134.69941
543.60783
-105.6963
54.30372
248.58081
316.26301
350.02897
523.63129
610.06887
-712.03203
217.59227
-124.52076
-18.497449
25.80622
81.784892
381.28035
-184.04485
149.55411
48.044131
311.54209
193.00044
628.53536
697.39904
-293.52585
192.00644
124.45675
145.79926
182.26131
324.58035
528.80741
-308.527
264.98482
8.8187196
356.8007
151.98986
474.07468
784.64116
-111.50078
278.06077
252.2486
292.50223
175.33519
565.45083
587.59841
-343.61543
309.64331
86.717068
333.64555
313.61806
519.98992
747.95825
147.09858
427.15678
315.58943
560.41545
208.43646
638.50913
631.58932
-145.93818
247.16724
306.09398
267.14674
358.21023
715.7621
879.28429
165.71113
509.74594
322.46372
436.09551
658.87546
840.36584
649.02049
104.74717
458.8745
216.41306
374.04999
468.84096
599.48376
850.76979
351.68799
372.03411
534.70569
153.79966
872.11141
995.41716
769.43713
238.82004
528.29145
39.099151
807.7166
545.59113
939.82663
957.39314
-34.998254
739.04105
543.10007
467.39249
876.092
949.93721
841.58932
549.32076
999.96218
207.76111
555.31598
993.09003
826.80689
1120.6834
546.83522
632.21421
424.78624
704.99798
1003.4647
877.08051
1063.688
351.78323
862.39013
514.09304
634.2857
1021.6157
942.99524
1063.202
673.72326
947.84932
621.74928
668.32274
1218.0582
969.78384
1262.8925
594.4958
938.33126
533.98927
746.35503
1213.5502
956.36994
1134.5716
730.41219
980.16305
795.52272
834.61267
1285.9984
1001.8546
1369.2267
750.09777
1067.5377
800.20988
706.79468
1284.1682
1104.6685
1153.9848
684.71259
1098.569
788.3989
821.91851
1443.6837
1083.6154
1498.926
1237.9203
1154.4876
1131.9775
679.59406
1717.0674
1020.2386
1413.8291
182.86638
1256.996
527.92315
1037.7402
1431.6507
1118.8764
1965.2594
1539.5527
1665.5142
1365.9422
956.2316
1758.0634
1164.9548
1536.9969
-94.04028
1296.3031
414.03543
1019.5081
1581.0216
1197.6724
1954.3035
1655.018
1918.6185
1556.9114
1281.6498
1770.7217
1256.624
1995.1975
243.7453
1513.1071
629.95224
967.72242
1676.3885
1333.4808
2065.8163
1736.3331
2253.4218
1745.833
1936.9146
2105.2261
1473.2242
1419.4177
633.99836
1207.6791
735.80714
583.2732
800.11672
881.025
3142.9986
2730.0673
3179.9545
2682.129
2871.6538
3301.5017
2934.0386
292.55571
-172.16486
-243.31911
-547.51083
-514.01388
-693.55586
-1072.3146
3002.6687
1811.5452
2389.0198
1945.0421
2159.4844
2098.3402
2752.415
683.17278
1056.1348
872.63711
847.21341
746.54871
706.82053
483.10354
-153.79065
-208.45105
-214.60394
-275.55795
-28.989908
-265.26906
80.987144
363.81563
-127.1177
-61.106943
-162.00247
-186.21961
-317.48848
141.87976
109.02285
260.96468
735.48143
920.12506
898.54587
1076.1911
544.15408
775.61144
232.45726
325.45953
-660.57836
-162.5829
-991.86664
73.014888
385.74057
-310.33042
54.253362
93.252319
264.73793
641.91356
347.17072
376.84608
95.753917
799.91356
368.01686
816.26705
-9.9872904
459.29792
414.34658
-81.171305
-24.519988
-296.97235
-356.14261
-205.86359
-56.14227
6.5998413
-1.3648564
533.82766
480.3277
1026.3606
446.07037
549.81448
517.30329
232.10607
214.69885
72.78505
-97.089587
-177.76237
-42.676569
-81.994881
-69.812313
287.33666
107.05305
468.36806
84.066378
226.29196
487.95206
293.03443
408.6976
391.69846
456.03774
335.06184
381.40124
136.19868
-143.51465
663.90607
-30.448196
302.73535
-251.84376
241.45089
457.6033
393.36638
1007.6576
193.04705
836.24768
231.76494
544.75149
926.33197
270.7158
455.78241
411.76277
108.02467
281.74386
154.79599
827.79526
510.88837
624.66788
542.68871
527.31838
328.09557
508.68798
1134.0701
397.49825
521.07111
695.41603
108.39545
386.46116
262.84697
946.51992
210.22796
702.3787
510.13613
297.12969
494.00424
446.27048
1182.9222
487.57172
612.82274
616.6243
235.86375
409.76994
295.39726
967.41801
171.67785
588.49498
579.97134
181.93933
547.68492
389.29866
1225.6905
491.63686
751.67936
635.48851
305.60172
437.67529
316.97432
1214.9058
137.55589
568.43125
672.2519
22.784075
518.84411
356.01894
1401.8499
260.15048
952.02941
413.18942
306.45301
559.4399
332.19329
1247.8593
190.78839
782.584
556.95462
521.32329
380.72016
69.657289
1468.4149
135.91612
917.2904
640.57332
583.12822
361.72846
365.11016
1416.8486
90.398638
1077.383
320.51743
748.76865
358.27286
-79.063384
1587.1847
192.52254
906.49925
477.22244
1035.9537
242.78685
373.82055
1361.9718
204.92295
928.20388
727.49291
733.29477
259.31228
155.39762
1600.8574
487.34645
1142.1175
416.1505
1067.4015
335.88027
255.57426
1591.1772
262.29286
739.77233
557.97227
1008.0139
136.11802
257.8506
1534.2803
334.04104
1093.8409
769.12729
1038.7918
358.05526
337.72315
1666.8206
433.42518
1023.8674
491.63639
985.03019
247.29163
229.85971
1627.9333
437.83108
933.17556
719.1358
1111.3277
336.92169
320.00224
1711.1738
422.27088
1024.6374
686.58018
956.00454
274.62962
348.87046
1623.2038
422.71815
1027.0172
643.94652
1017.8679
498.18143
243.20383
1860.0034
734.48092
1141.5078
671.83329
1156.2781
339.3786
363.51015
1577.0137
271.2591
775.58644
660.33826
1049.8764
435.39977
332.4488
1911.1276
873.60165
1345.518
863.4586
1190.3943
446.57069
272.21122
1149.8419
835.35571
601.7468
827.529
920.39361
512.32321
361.95724
1536.6907
728.60181
863.37149
832.74225
1067.0994
648.19618
362.88
1385.3955
1744.5292
1006.7782
1466.7518
1119.9167
719.35116
224.32257
1167.0368
307.91235
263.77098
498.29411
520.76986
685.88531
491.81993
1331.3542
1835.6909
1274.2921
1728.529
1312.9886
1198.8714
42.59149
1051.505
607.11075
130.20825
557.95997
182.48093
539.79231
525.14426
1281.6554
1116.6016
748.13036
1334.1186
749.95056
1774.6275
484.81447
615.66613
269.68803
221.00469
571.34567
54.004124
597.7095
-787.7743
2351.8171
2158.3693
2170.9329
2198.5877
2263.5168
2519.6269
2460.8186
214.83651
391.55258
261.48201
353.07261
230.4688
283.32863
-9.5188553
-2.222033
222.00282
360.92027
619.96054
600.27346
737.41002
801.33786
-53.806361
-595.49062
-662.85365
-665.13323
-617.05181
-572.16951
-590.85154
331.05174
727.84904
1129.5055
1292.8969
1334.0853
1305.8648
1042.1588
141.98268
-434.85862
-725.02512
-1224.9074
-1237.2304
-1199.0223
-575.38376
509.78702
478.53349
656.06535
1141.4437
1295.8676
1248.4541
1058.9843
121.08748
-282.10193
-662.66308
-715.76285
-881.48342
-1057.4727
-394.07301
282.0139
353.71106
286.72171
652.63729
423.34037
1205.5201
739.43584
374.88223
-144.98613
306.74178
-641.71024
487.71228
-537.46692
124.39097
-45.259869
261.22997
-355.99676
125.11882
-229.63704
451.78685
478.64873
365.56447
-589.43328
935.00226
-297.26845
812.90837
533.56977
154.65335
-119.3834
253.88532
15.907305
-757.89077
212.09714
-205.4093
673.55647
141.6978
-658.26967
256.64148
-165.49854
697.15749
249.74417
-169.55159
-201.56478
-70.221706
-162.08575
-312.33986
-398.13526
139.77706
166.91669
-249.79644
-810.22535
398.93659
-645.79272
324.72682
-37.671063
-33.653522
-190.46755
-564.28362
36.474574
-352.22412
-315.78119
73.941952
-122.30645
-351.17427
-1078.4371
142.92938
-656.97192
-106.58356
52.627056
-61.674991
-201.76213
-521.16437
154.08602
-495.26794
-233.17927
29.764167
-135.59291
-470.29613
-1010.0117
29.077586
-767.25327
-152.6243
54.279957
-189.17402
-221.31864
-639.55735
128.85677
-575.99913
-68.19861
-138.31084
-156.0807
-415.85213
-1058.1777
10.5376
-734.16533
-309.6468
-37.745537
-166.25308
-279.2648
-749.04553
180.87907
-901.08082
-64.453645
-47.542192
-201.17361
-478.19457
-781.67221
-303.67883
-622.98599
-124.89024
-114.19312
-326.90122
-248.91131
-777.87556
-261.57084
-485.89231
-451.91681
-154.88372
-28.92806
-318.68747
-923.07215
-69.202394
-847.60363
-791.20632
-62.866279
-432.2313
-194.61863
-712.77915
-354.36593
-601.96345
-582.3583
-195.60283
74.118124
-375.98933
-930.31653
-245.04861
-547.54457
-907.6535
-252.00607
-352.12637
-261.89422
-922.7744
-67.017533
-786.89993
-576.44143
-273.02229
-92.838289
-204.99546
-908.94202
-336.12963
-585.42678
-963.5347
-373.62002
-144.60045
-391.57502
-1025.3783
-253.27257
-582.1665
-719.82196
-157.87163
-136.35984
-322.04368
-867.53046
-218.22036
-587.98306
-858.50312
-418.63929
-116.7362
-333.05924
-849.4674
-288.12812
-536.82724
-863.44493
-181.30146
-114.54015
-327.59222
-954.30938
-267.28152
-577.43005
-760.1025
-260.33022
-22.647647
-363.0003