/*--------------------------------*- C++ -*----------------------------------*\
  =========                 |
  \\      /  F ield         | OpenFOAM: The Open Source CFD Toolbox
   \\    /   O peration     | Website:  https://openfoam.org
    \\  /    A nd           | Version:  6
     \\/     M anipulation  |
\*---------------------------------------------------------------------------*/
FoamFile
{
    version     2.0;
    format      ascii;
    class       pointScalarField;
    location    "1.17";
    object      p;
}
// * * * * * * * * * * * * * * * * * * * * * * * * * * * * * * * * * * * * * //

dimensions      [1 -1 -2 0 0 0 0];

internalField   nonuniform List<scalar> 
28033
(
1369391.2
-1926253.6
8986.5084
5324.3721
2531425.1
-2742843.9
6161.0566
3515.7783
1149135.7
1032380.9
897159.71
727958.32
548819.18
376133.66
198397.74
1006.125
-189421.25
-373177.78
-577238.32
-688810.78
-940301.46
-1118338.5
-1120016
-9775.4358
-4734.358
-5759.9395
-2655.4241
-2141.2976
109.50361
2088.7634
4486.7992
6601.6263
8929.6489
11364.311
12633.668
14217.682
14956.262
13407.164
364443.55
396264.45
368247.46
396114.42
388949.68
402757.63
407414.09
411334.19
413419.73
418045.39
417293.94
416439.17
418326.53
417359.15
415856.47
412671.85
413276.36
409889.7
407797.48
404697.15
402503.84
398480.43
396469.22
392360.84
388430.81
384768.27
380683.84
376070.61
371636.99
366668.23
361991.81
356478.21
351551.87
346358.37
339794.63
334703.18
328930.83
324381.71
316920.43
311930.02
305001.89
298768.63
292309.42
286547.27
279814.83
273967.08
267405.18
261424.17
254892.07
248927.43
242409.64
236343.09
229957.66
223736.3
217420.47
211122.45
204813.46
198479.18
192121.41
185827.97
179477.71
173147.92
166761.71
160740.25
154422.9
148482.43
143255.35
137034.74
130518.02
124612.97
118683.06
113060.72
107294.8
101966.53
96226.108
91244.277
85573.926
80929.381
75334.419
70906.484
65637.244
61315.237
56265.47
51592.518
47075.929
42576.135
38573.252
34638.119
29891.164
26643.169
23517.859
18354.457
18339.758
16359.155
13541.024
-331760.29
-288736.24
-347423.58
-315769.97
-363330.87
-356711.92
-372191.77
-366773.95
-379297.5
-373030.12
-380560.7
-376148.85
-378343.1
-377358.75
-377063.88
-374826.39
-374297.6
-371202.79
-370275.52
-367911.14
-364863.52
-364330.15
-359676.07
-359257.9
-354486.32
-352398.63
-348820.73
-344868.69
-341749.72
-336597.73
-332242.09
-327931.21
-322275.37
-318241.03
-312630.41
-308525.64
-301205.75
-296834.39
-289915.94
-284915.2
-278511.24
-272826.88
-266572.78
-260773.8
-254479.86
-248640.76
-242422.54
-236469.61
-230358.19
-224350.78
-218253.84
-212227.73
-206111.48
-200078.03
-193924.95
-187855.6
-181704.78
-175589.77
-169439.14
-163333.75
-157192.92
-151126.06
-145061.07
-139036.09
-133064.63
-127139.04
-121405.08
-115740.59
-110509.05
-104284.22
-99246.4
-93618.356
-88672.071
-83399.806
-78530.285
-73614.945
-68798.383
-64226.316
-59566.304
-55171.89
-50765.815
-46524.259
-42226.857
-38255.194
-34094.477
-30232.986
-26341.345
-22716.818
-18888.364
-15653.232
-12416.388
-9154.1728
-6591.0245
-5221.3859
-2681.4772
2105828
1996148.8
1460535.3
1480352.4
1031828.2
619841.19
394113.11
-26082.617
-336462.66
-743796.62
-1021366.3
-1402717.7
-1766116.8
-2044800
-2174006
-559440.65
-433477.86
-200762.28
-429461.28
-357263.41
-385975.74
-377674.59
-399407.19
-386076.52
-400129.76
-408946.78
-389642.42
-410270.14
-388965.16
-410780
-400166.38
-399805.59
-389164.09
-391718.57
-385301.45
-382598.03
-375281.17
-381392.71
-375135.1
-371421.99
-371312.49
-358710.32
-363869.67
-349904.01
-352331.96
-346338.43
-342196.73
-336487.37
-332194.87
-327982.98
-315302.53
-315364.73
-309328.46
-303472.9
-297486.26
-291659.91
-285556.77
-279637.72
-273471.03
-267457.67
-261407.58
-255209.81
-249089.04
-242862.82
-236710.97
-230499.47
-224314.39
-218097.6
-211894.86
-205669.05
-199362.98
-193158.59
-186814.97
-180515.98
-174218.97
-167865.59
-161570.46
-155237.99
-148959.76
-142657.13
-136430.14
-130597.26
-124487.47
-116670.56
-112072.1
-106582.38
-100706.6
-95085.435
-89619.536
-84222.159
-78963.33
-73819.448
-68902.056
-63989.019
-59230.575
-54509.127
-49982.526
-45362.147
-41070.618
-36646.51
-32495.381
-28226.852
-24348.926
-20287.524
-16670.972
-13130.741
-9866.4615
-7691.3236
-5325.4161
-4269.3155
16122.26
16709.639
13759.219
14625.414
10386.326
10578.529
6567.5831
4813.8066
1837.6159
-1028.4399
-746.65612
-4901.2797
-3702.968
-8514.526
-5953.4436
21826.314
17904.974
18285.259
21192.442
23612.886
27321.475
30926.935
34957.85
38792.109
43261.282
47421.108
51591.188
56232.399
60875.475
65620.263
70370.765
75373.562
80273.528
85400.687
90596.375
95856.523
101327.23
106865.66
112389.73
118135.36
123679.08
127438.75
138011.12
141694.3
148578.26
154753.62
161328.82
167676.54
174236.54
180743.07
187288.71
193876.11
200396.02
206976.42
213504.71
220026.12
226512.43
233027.03
239452.44
245925.06
252357.73
258778.57
265220.98
271631.83
278054.94
284472.62
290821.53
297248.01
303913.32
309786.36
316399.3
321819.04
324947.76
337101.47
340129.14
343290.08
355831.39
356102.6
363311.45
363201.24
376165.41
371469.96
384903.97
384056.16
390763.59
392394.68
392957.22
402967.5
402313.57
402942.27
409889.75
408519.33
413318.95
412937.85
417957.05
423908.91
413810.55
418958.51
420960.86
424758.38
417091.69
421712.54
413455.47
410121.68
399815.4
393008.81
402762.28
390255.38
355046.45
440252.64
967784.11
1044165
1104916.5
1147293.9
1171946.1
1206180.6
1205773.5
1221490.5
1207004.2
1179881.5
1198470.9
1121360.8
1081639.8
1141944.4
901663.5
-1520712.6
-1915485.4
-1905273.2
-2057129.6
-2018651.6
-1926203.5
-2219282.3
-2373481.5
-2220032.5
-2230912.9
-2137883.9
-2058077.4
-1929435.9
-1911525.3
-1813096.5
4599.462
4569.6626
5256.6111
5612.9432
6701.0866
7250.6858
7485.4773
7609.1369
7560.533
7281.8544
6980.834
6086.7258
5612.2636
5213.7316
5316.1068
2554.7813
5200.5678
4567.5015
3988.5733
3161.163
3014.9686
2517.4674
2593.3272
2796.7802
3005.4337
3915.581
4498.7736
4808.9806
7883.5706
2936.1734
359639.03
368517.69
333634.59
339561.73
349654.26
358026.1
363035.97
369052.11
372816.42
375233.12
375445.14
380378.2
377508.41
378342.51
375713.79
378719.09
373646.15
373992
370232.29
369431.1
366472.26
365058.33
360748.78
358021.48
354054.69
351779.29
346858.93
343315.97
338834.47
335052.82
329409.54
324921.64
320761.79
315073.27
310202.81
304583.79
299396.26
292840.87
287675.47
282475.7
276973.65
271052.21
265443.09
259375.36
253504.47
247790.68
241700.01
236059.8
230024.07
224289.06
218336.25
212575.08
206663.38
200866.89
195017.04
189201.3
183384.74
177561.97
171787.81
166006.21
160235.65
154438.66
148828.65
143222.03
137220.59
131824.86
125622.45
120354.26
114990.91
109930.2
104758.11
99804.135
94720.795
90005.73
85045.78
80552.595
75815.388
71571.724
66885.113
63050.292
58575.582
54638.622
50686.285
47003.674
43000.066
39256.061
35697.474
31741.341
28464.989
25548.202
21383.133
18850.309
16353.798
10480.661
5465.6526
338894.19
309357.4
277628.52
290620.01
294479.3
300619.9
305418.44
312047.8
315519.36
320234.82
321366.11
323980.47
323838.59
326146.45
324730.89
324421.98
322838.62
323183.31
320400.44
319439.46
316884.76
313859.79
311712.75
309265.2
306468.18
302620.64
299880.79
296349.64
292479.31
288464.98
284678.5
280522.98
275843.63
271350.85
266863.26
261950.15
256985.52
252232.58
247287.17
242167.59
236865.32
232286.87
226194.53
221298.45
215879.25
210825.95
205454.62
200453.66
195077.91
190086.45
184806.9
179794.66
174614.81
169595.91
164529.88
159518.51
154519.98
149580.44
144635.53
139757.77
134875.29
130071.49
125414.45
120645.95
116050.85
112589.24
109127.71
104292.6
100807.02
96186.344
91849.553
87792.636
83256.913
79267.091
74705.855
71247.132
66576.851
63443.6
58928.845
56006.591
51766.081
48512.86
45117.486
40793.056
37272.574
33975.802
30279.786
27568.685
24512.987
21169.177
18256.476
15561.903
11469.278
7500.8095
893.28236
263339.49
264713.05
230040.36
244764.1
242864.73
250863.28
256525.75
262721.57
264963.6
268962.23
270483.68
273769.73
273582.33
274720.18
273945.28
275303.79
273166.47
273261.75
271043.4
270728.85
268222.59
267375.32
264940.33
263085.2
259706.5
257911.88
254540.28
251484.05
248221.43
245003.26
241211.31
237502.66
233765.09
229868.37
225876.82
221667.05
217944.91
213913.14
209680.06
205208.34
200421.07
195857.35
191694.06
187249.37
182790.97
178224.58
173638.47
169127.44
164553.06
160086.14
155539.33
151146.21
146644.47
142308.23
137912.24
133592.66
129308.96
125064.04
120827.47
116667.51
112520.98
108412.07
104387.76
100162.42
96526.469
93013.228
90323.122
86025.951
82763.291
79744.762
76365.906
72783.205
69163.247
65793.466
62457.041
59126.592
56067.94
52782.536
49906.339
46796.541
43804.362
41233.805
37853.939
35239.137
32686.07
29683.076
26624.512
24379.811
21520.575
18986.658
16583.412
12928.399
10472.34
4905.7881
1946.5154
216160.79
213992.46
179439.24
194415.33
189045.99
198762.15
201734.28
207172.74
209254.84
214676.21
215620.01
219041.69
218190.09
221531.45
220025.08
221604.76
219694.75
221152.36
218732.71
218795.15
216485.86
215622.54
213353.95
211532.22
209705.71
207388.7
205049.49
202778.99
200030.29
197156.38
194420.73
191262.63
188180.94
184729.33
181959.19
177730.56
174621.07
169741.88
166007.12
162253.71
159239.5
155544.23
151678
147774.71
144086.51
140387.89
136674.78
133085.41
129404.78
125839.7
122219.98
118728.98
115167.51
111753.41
108279.86
104929.55
101565.16
98278.713
94996.645
91803.554
88630.347
85472.272
82379.492
79392.885
76430.786
73385.573
71029.106
67962.601
64461.024
62022.867
59433.205
56423.856
54046.761
51318.668
48748.716
46238.499
43782.42
41494.377
39074.974
36859.598
34644.823
32522.63
30165.937
27914.88
25693.237
24329.466
22088.991
20102.537
17930.135
15943.163
13314.143
11152.171
8067.1961
4831.2567
587.84611
172373.82
158504.88
133357.12
145504.82
144715.19
149830.76
153540.72
157450.2
158972.28
162382.82
163702.67
165113.02
166319.13
167324.47
166771.21
168060.12
166353.4
167394.37
165271.22
165884.59
163986.31
163929.28
161647.15
161392.25
159059.32
157842.11
155710.33
153877.54
151607.45
149771.02
147286.76
145078.62
142561.36
140428.76
137712.19
135143.37
134488.73
134011.88
131656.13
131813.7
127948.84
125249.43
122618.44
119785.75
116953.19
113993.7
110998.78
108050.29
105104.48
102164.64
99249.817
96419.143
93536.118
90769.468
87987.232
85277.131
82580.559
79937.813
77324.747
74742.956
72229.304
69593.817
67289.062
64762.759
62081.236
60191.465
57511.017
55360.945
52755.54
50561.475
48414.528
45753.931
42354.531
40051.529
37793.105
35828.972
34081.516
32291.979
30560.014
29032.979
27181.525
25878.855
24013.781
22862.447
20967.178
19901.517
17867.918
16667.534
14703.147
13039.185
11261.188
9337.9628
7473.1455
4247.9742
1474.7364
107959.61
109056.37
85261.666
98917.021
93806.029
98089.326
100535.05
104247.91
103818.22
108585.05
107259.34
110780.37
109262.89
111812.28
110266.45
112069.8
110365.73
112185.17
109662.39
110973.01
108747.96
108860.6
107291.3
106902.94
105223.09
104553.16
103073.44
101982.81
100611.78
99069.673
97628.644
95974.447
94572.714
92709.849
91023.011
89719.304
88982.379
88500.16
88639.735
87864.171
87597.023
85616.061
83580.087
81755.671
79792.454
77840.135
75830.1
73941.672
71956.442
70058.664
68138.012
66285.278
64385.783
62587.647
60772.403
58987.478
57247.803
55529.321
53816.894
52146.972
50473.411
48888.087
47208.102
45568.017
44198.786
42291.75
41068.218
39451.847
37959.485
36527.078
34876.722
33129.865
31569.116
29524.163
27637.014
26494.436
25154.795
24038.421
22802.387
21907.368
20407.255
19849.775
18166.075
17683.338
15985.209
15599.061
13786.345
13316
11638.09
11042.319
9624.9324
8266.1376
6661.1189
4398.2649
2870.3464
58491.764
51434.382
44115.712
51190.606
47183.204
49151.273
51602.197
52307.866
52479.536
53242.492
54526.853
53936.778
54768.539
55422.703
54430
55802.349
54248.242
55428.833
53640.429
55343.87
53107.143
54650.231
52749.492
53501.549
51980.242
52312.182
50895.281
50899.841
49646.242
49417.456
48447.41
48050.591
47078.383
46529.818
45868.332
45207.246
44400.2
44427.239
42901.52
41484.784
41021.274
40469.296
39453.143
39011.909
38254.463
37617.146
36769.617
36154.698
35304.912
34627.461
33841.56
33142.597
32365.128
31699.545
30949.008
30264.933
29568.097
28891.872
28179.029
27517.872
26839.071
26107.256
25436.506
24785.875
23933.469
23378.773
22535.954
21808.943
21046.452
20325.354
19561.211
18897.867
17853.722
17722.454
17213.413
16613.278
15818.822
15220.83
14617.708
13980.065
13345.114
12928.264
12010.452
11904.195
10776.803
10812.243
9631.0622
9741.2438
8592.2518
8322.636
7108.6029
6414.1297
5883.7464
4749.153
4222.0693
-5409.8686
792.54463
-6302.6535
887.04105
-1945.2547
88.754581
-756.86071
774.82254
-2891.618
689.24122
-2363.9607
-865.59826
-2152.8945
-1284.3487
-2709.3453
-1091.3278
-3118.1703
-986.4318
-3026.6496
-1404.0492
-3006.6169
-1478.6955
-3295.1132
-1934.6793
-3033.1694
-2221.2997
-2706.1632
-2271.724
-2450.7901
-2226.7339
-2167.5035
-2146.4909
-1910.1535
-1666.4928
-1457.0639
-1380.8087
-569.33777
-589.39258
3.2595224
-81.100843
398.33754
959.00543
1031.342
1376.5821
1727.2625
1963.3477
2246.0582
2616.1666
2863.6174
3179.9627
3455.7099
3765.7082
4021.8249
4326.1567
4597.4698
4871.3852
5147.642
5421.8109
5650.063
5939.1147
6115.1579
6358.0733
6558.8842
6683.5021
6907.6618
6951.8337
7096.6623
7184.9101
7196.692
7276.2366
7208.5924
7110.9751
6914.88
7001.6566
7042.8252
7041.1863
6887.8534
6914.8853
6774.8727
6769.9993
6711.4062
6563.5605
6600.5886
6440.4089
6294.8161
6393.2779
5872.5979
6330.1451
5419.4261
6128.5652
5582.708
6198.9932
5938.6538
5437.6951
5781.7693
-51835.205
-53353.964
-46252.143
-44731.499
-45627.106
-48830.762
-48651.229
-51898.939
-52257.606
-54793.39
-54593.24
-56489.254
-56688.016
-56786.771
-57702.059
-57159.276
-58339.622
-56673.216
-59048.16
-56227.965
-58362.512
-56270.3
-57695.391
-55252.282
-56577.03
-54239.098
-55159.69
-53145.934
-53368.59
-51700.872
-51431.355
-49942.001
-49133.95
-47825.883
-46866.211
-45253.655
-44393.041
-42737.291
-41493.292
-39930.77
-38664.025
-37081.125
-35904.313
-34275.989
-32943.898
-31530.238
-30253.792
-28809.757
-27594.756
-26265.343
-25018.196
-23732.453
-22561.496
-21303.123
-20136.331
-18974.36
-17823.861
-16695.097
-15628.832
-14552.348
-13528.874
-12550.948
-11616.287
-10681.819
-9913.6584
-9050.9976
-8288.3385
-7583.0813
-6880.0549
-6190.5178
-5629.9581
-4914.4306
-4409.407
-3771.5415
-3596.1793
-3279.0242
-2644.2487
-2237.4415
-1700.2569
-1302.4178
-798.43681
-444.72799
48.944877
439.8818
731.18169
1488.0807
1370.9463
2628.5214
2171.262
3616.6809
3179.039
3921.6198
4035.2722
5259.9275
6929.747
-110532.02
-108969.42
-92500.021
-93523.238
-97033.619
-99062.96
-102784.16
-103430.76
-109155.4
-108959.06
-111496.8
-113028.14
-113812.99
-113942.4
-115615.1
-114238.65
-115500.77
-114169.56
-114975.92
-112971.82
-114325.77
-110354.85
-110801.11
-108335.86
-108703.88
-106489.82
-106156.42
-103953.41
-103025.58
-101105.33
-99725.313
-97697.437
-96099.394
-94045.558
-91849.015
-90026.848
-87530.094
-85521.996
-83083.168
-80929.088
-78599.361
-76262.468
-73893.927
-71633.712
-69267.241
-66971.185
-64680.919
-62330.616
-60123.217
-57856.193
-55625.847
-53439.379
-51292.108
-49119.608
-47026.225
-44951.572
-42880.807
-40864.381
-38912.805
-36915.231
-35048.147
-33193.825
-31353.541
-29638.06
-27936.337
-26274.879
-24703.55
-23227.994
-21745.889
-20395.765
-19020.309
-17744.484
-16495.173
-14754.513
-12567.678
-11608.02
-10549.875
-9647.6384
-8472.8575
-7915.7357
-6483.8744
-6245.6499
-4721.4125
-4467.6484
-3227.9174
-2515.9917
-1888.6287
-399.77956
-457.26183
1659.857
1531.1481
3062.8536
4212
5927.5688
7724.5762
-168271.74
-137350.08
-125344.42
-128836.51
-134186.08
-137032.64
-141463.71
-145500.36
-149774.35
-151806.97
-154103.83
-156312.73
-157020.74
-157612.27
-158940.46
-157142.99
-159629.97
-156533.81
-158673.03
-156561.49
-158888.49
-159064.21
-160880.17
-158870.88
-159991.01
-156074.32
-156395.64
-152455.54
-151847.45
-148357.59
-146817.83
-143709.79
-141636.34
-138359.66
-135895.36
-132570.57
-129827.94
-126517.29
-123503.52
-120179.97
-117093.48
-113648.03
-110549.4
-107181.18
-103985.24
-100681.61
-97567.45
-94302.344
-91229.022
-88060.115
-85007.425
-81933.08
-78943.771
-75931.813
-73008.684
-70093.967
-67222.909
-64407.75
-61624.281
-58884.293
-56220.213
-53574.681
-51032.465
-48520.752
-46163.359
-43794.102
-41525.629
-39289.73
-37138.949
-35004.961
-32983.078
-31114.238
-29046.389
-27027.059
-25205.167
-23028.107
-20626.124
-18968.89
-17303.418
-15746.711
-14378.537
-12786.81
-11501.258
-10040.798
-8661.3303
-7448.4132
-5909.035
-4842.8793
-3266.7479
-1889.1534
-583.99635
1472.0734
3179.4284
5569.9974
9849.4511
-202022.61
-192113.75
-176551.98
-173908.79
-180561.64
-182926.36
-191414.78
-194527.21
-199480.95
-202526.24
-206038.73
-206566.4
-209341.14
-208616.57
-210046.84
-209319.21
-209606.03
-207940.86
-209086.09
-205950.32
-207835.83
-204518.07
-208370.68
-207510.26
-206930.92
-204265.22
-202910.72
-199564.78
-197560.4
-193979.4
-191693.84
-187921.57
-185082.62
-181539.78
-177952.25
-174503.36
-170598.16
-166866.9
-162886.18
-159041.64
-154928.63
-151038.28
-146981.13
-143003.33
-138994.14
-134976.66
-131056.04
-127042.19
-123130.14
-119232.58
-115347.31
-111496.56
-107698.98
-103901.62
-100154.43
-96446.865
-92766.837
-89115.937
-85538.34
-81977.537
-78463.187
-75038.62
-71614.149
-68287.219
-65064.825
-61859.482
-58752.959
-55803.859
-52843.321
-49977.063
-47297.43
-44497.127
-41886.52
-39393.471
-36912.412
-35158.547
-32496.273
-30084.715
-27780.98
-25607.513
-23353.807
-21260.443
-19107.05
-17082.51
-14953.784
-13149.357
-10846.22
-9315.4954
-7096.7852
-5154.9679
-3609.2286
-349.50509
1883.8153
6476.8469
11137.774
-279611.35
-254494.31
-218400.48
-233472.55
-233375.31
-245084.94
-248494.85
-256108.5
-259292.49
-263960.61
-265658.07
-268780.16
-268615.49
-270257.45
-269510.33
-269043.6
-268804.39
-266534.42
-266828.44
-263745.44
-264035.05
-260725.02
-259151.75
-254497.04
-254006.94
-249613.85
-249080.46
-243959.15
-242388.11
-237687.4
-235053.71
-230312.68
-227363.93
-222759.9
-219035.29
-214492.91
-210139.77
-205553.01
-201154.74
-196345.8
-191856.77
-187044.23
-182375.42
-177583.16
-172892.05
-168115.75
-163485.93
-158719.76
-154123.04
-149472.86
-144869.2
-140287.4
-135763.44
-131224.01
-126748.85
-122303.1
-117870.96
-113497.06
-109169.7
-104854.72
-100633.61
-96430.125
-92299.211
-88212.799
-84254.796
-80315.118
-76519.889
-72767.338
-69105.199
-65476.764
-61943.798
-58544.057
-55190.153
-51904.195
-48650.115
-45629.887
-42556.201
-39608.037
-36639.606
-33778.401
-30993.134
-28241.256
-25553.348
-22932.604
-20381.479
-17818.036
-15359.621
-13050.162
-10287.978
-8373.363
-5298.0326
-2767.4827
126.10648
4329.9899
9432.2066
-303751.43
-292356.05
-248804.62
-272971.21
-277734.79
-288606.79
-293637.04
-302145.84
-305984.12
-309070.3
-313690.55
-313456.61
-315693.04
-315677.99
-314675.91
-314399.96
-313545.29
-310667.59
-311062.86
-307404.54
-306329.25
-303886.03
-302103.93
-300218.76
-297602.09
-294563.18
-291528.58
-287660.74
-285126.09
-280392.52
-277055.27
-272370.25
-268057.91
-263399.41
-258832.18
-254327.3
-249186.33
-244493.8
-239107.82
-234102.81
-228797.99
-223535.78
-218275.84
-212950.62
-207682.03
-202353.96
-197060.72
-191760.32
-186485.16
-181214.35
-175950.18
-170713.53
-165486.34
-160265.09
-155063.25
-149878.44
-144703.78
-139555.9
-134423.92
-129338.49
-124269.07
-119265.62
-114292.99
-109357.28
-104484.17
-99604.585
-94838.307
-90354.413
-85932.892
-81402.105
-77246.335
-72986.524
-68789.054
-64868.684
-60801.889
-56982.946
-53178.393
-49501.488
-45868.319
-42406.111
-38932.1
-35578.835
-32253.692
-29069.506
-25794.48
-22792.447
-19666.277
-16710.59
-13681.402
-11152.808
-7505.4574
-5545.5262
-1653.7919
2543.5367
8847.3794
-423485.62
-283362.55
-309750.78
-313904.29
-330102.08
-330077.59
-342553.35
-347513.57
-350774.49
-355202.75
-356490.72
-359635.91
-358592.83
-358329.15
-357630.81
-356157.44
-356583.69
-352478.48
-353193.57
-347426.89
-347148.91
-342420.83
-342699.8
-338361.22
-338513.85
-332102.43
-330953.18
-324737.02
-323567.96
-317565.47
-314547.57
-309004.28
-304553.8
-298895.75
-293371.76
-288960.58
-283820.47
-278254.57
-272618.43
-267009.25
-261182.07
-255420.22
-249559.62
-243656.69
-237825.66
-231878.11
-226049.6
-220165.55
-214300.89
-208459.21
-202604.99
-196770.23
-190938.58
-185094.94
-179272.28
-173448.34
-167619.82
-161807.49
-156018.61
-150225.69
-144483.64
-138780.36
-133110.76
-127494.69
-121938.41
-116274.77
-110706.97
-105255.75
-100416.24
-95303.585
-90456.931
-85356.75
-80678.501
-75947.337
-71334.878
-66855.05
-62582.663
-58212.804
-54094.3
-49949.326
-45928.363
-41957.556
-38145.3
-34261.881
-30613.957
-26993.174
-23370.019
-20034.005
-16703.908
-13613.841
-10369.741
-8474.5328
-4816.5717
-1776.9181
4450.5368
778049.06
757657.67
738107.53
756831.07
760094.33
765861.45
790559.37
775947.55
767444.67
767300.37
761896.54
736941.3
731120.91
774384.94
654467.72
708329.18
721235.34
687491.68
703960.28
709203.91
721721.12
702421.58
728342.37
720708.02
726435.8
712487.36
709221.34
710006.93
721331.53
617490.33
543341.77
610760.63
544380.69
567867.31
566500.3
561690.5
567303.87
562760.67
568038
559464.54
558693.26
563003.24
527715.75
582481.99
535020.36
469947.82
473403.29
472560.15
465008.16
478909.51
474054.48
482165.17
481289.9
477241.35
479731.1
480094.92
464657.13
467223.67
502575.38
357953.14
339049.77
380074.92
336018.85
360589.01
348549.97
361589.43
356534.38
356741.65
357254.26
358099.27
352033.13
352969.71
349775.61
360063.26
320722.63
252258.39
259470.55
244827.65
251346.47
251916.65
252592.56
249758.12
250948.14
252248.22
251207.04
243447.08
255163.53
238514.28
255389.25
243067.06
135081.29
136439
139483.92
131837.51
139149.25
139563.73
137637.73
136612.46
135948.34
135913.76
133520.21
127204.84
137319.22
127017.93
131495.44
20373.211
18261.609
11955.986
19734.165
14482.56
17376.978
14400.192
15847.62
12730.463
19903.025
2722.0496
19411.969
26560.576
-3513.1513
61534.719
-80759.254
-93812.441
-76479.144
-88475.904
-82969.37
-85563.603
-85603.05
-86823.393
-88326.32
-84139.353
-97191.717
-82464.392
-85176.621
-113114.92
-10563.062
-180192.49
-220430
-196486.47
-203102.68
-204230.33
-205561.55
-210349.12
-208271.57
-215756.66
-203031.94
-231437.35
-199481.07
-198706.35
-246112.12
-120979.84
-294298.37
-358229.85
-297817.74
-334509.51
-314998.95
-327745.48
-322575.87
-325397.44
-326342.89
-315271.02
-324577.92
-318849.43
-302578.85
-342661.4
-202857.2
-431132.19
-406246.74
-413642.93
-396072.3
-418527.51
-415920.07
-422349.77
-424791.32
-428196.79
-423410.4
-446628.63
-393195.39
-413997.85
-466761.81
-310694.22
-495168.61
-559022.7
-482823.44
-514422.74
-486437.71
-507333.57
-499334.27
-501037.62
-497635.62
-493659.82
-501563.05
-504239.8
-462590.62
-563032.9
-284737.38
-602903.14
-712201.55
-622407.27
-667597.55
-689307.97
-683770.72
-689018.14
-723673.06
-706402.24
-725806.65
-681449.78
-667096.99
-682158.55
-675531.9
-601810.55
-662350.16
-587790.34
-527103.52
-530214.43
-551581.97
-593535.22
-566308.95
-547670.37
-526572.63
-521959.23
-533581.51
-538774.11
-541313.08
-606394.51
-548781.85
-570538.35
-539011.69
-634283.5
-674598.34
-699103.34
-764260.07
-737568.4
-690526.47
-785172.29
-768211.85
-742602.75
-701718.5
-672844.38
-638527.38
-541413.28
-413135.68
-416202.41
-465408.04
-478962.87
-498826.26
-516254.75
-531004.12
-547924.88
-565533.1
-537630.03
-526293.79
-493826.14
-497986.59
-493215.02
-503916.83
-353769.62
-406259.14
-397758.63
-435340.92
-463565.25
-449146.22
-471954.35
-468732.61
-453293.37
-474013.31
-456027.23
-461823.51
-448282.79
-396918
-414412.5
-359805.82
-408062.57
-412065.25
-422484.11
-434986.38
-443414.15
-447335.43
-450948.44
-450527.61
-440500.04
-441390.32
-431644.04
-413203.93
-407378.66
-385090.28
-389753.66
-427185.22
-418055.48
-446719.09
-452266.48
-461982.31
-470260.69
-469855.78
-472937.23
-472283.48
-460253.4
-450735.19
-431601.45
-414625.78
-409118.45
-382126.64
-399636.01
-407631.24
-424394.09
-431575.14
-442977.61
-442494.45
-445271.97
-446477.63
-438730.06
-436878.4
-427748.72
-414985.99
-404953.3
-384688.37
-384023.03
-412536.46
-413302.72
-429066.81
-432908
-442796.2
-445648.18
-447577.06
-447669.01
-443220.39
-435015.3
-430237.87
-418505.9
-402799.13
-405462.64
-390967.46
-398467.58
-409928.3
-414410
-427336.28
-428991.47
-433694.18
-435657.15
-434198.06
-431367.83
-426853.21
-419287.37
-411861.55
-399443.97
-390437.3
-386508.45
-405441.81
-407965.68
-420373.52
-420955.54
-431705.45
-428906.34
-433167.58
-432509.26
-427224.03
-424310.92
-417766.2
-411425.21
-403235.71
-396201.3
-391949.98
-395785.75
-403329.45
-405386.72
-412717.7
-414116.26
-418451.92
-418548.9
-417333.34
-418434.75
-412667.28
-410548.22
-404728.29
-397838.1
-394429.27
-387088.52
-398984.96
-400771.35
-409938.23
-411750.66
-418407.45
-417063.25
-421442.53
-420383.06
-417681.96
-417232.92
-413908.49
-407939.06
-404923.41
-400850.22
-391244.32
-392372.18
-398965.72
-400527.19
-404622.11
-405043.03
-409166.75
-410026.53
-411106.64
-410490.18
-409047.58
-406394.88
-404304.57
-399715.65
-397683.66
-390247.6
-393373.55
-394487.71
-400449.62
-401542.5
-407055.68
-406863.89
-409736.35
-409273.9
-409370.76
-406341.26
-406803.77
-401173.02
-400912.35
-398025
-387892.29
-389523.43
-394434.54
-394957.94
-398679.86
-398837.19
-400283.07
-402579.48
-402990.36
-401796.24
-402096.52
-400955.02
-398985.88
-397418.35
-396391.81
-387142.19
-388429.43
-391693.81
-394071.64
-396727.83
-397610.84
-399784.4
-400646.59
-402243.66
-403012.13
-401321.77
-401568.41
-396785.52
-398572.22
-397188.33
-384248.68
-386083.05
-390111.11
-390210.95
-392561.99
-392642.76
-397296.89
-394172.14
-394806.66
-394528.1
-393901.1
-393921.25
-388715.29
-390472.58
-387758.5
-384149.08
-383989
-387595.18
-386810.37
-391325.58
-392127.83
-392917.13
-394878.64
-395008.45
-396367.83
-394847.57
-396425.37
-394669.85
-392390.03
-395452.52
-382048.33
-382579.42
-385334.12
-385036.31
-387549.45
-388394.23
-390841.88
-389451.02
-390406.42
-389765.53
-389157.98
-388532.81
-389885.41
-384866.18
-385976.32
-379108.87
-380191.67
-383324.76
-384699.67
-386023.02
-386155.28
-386169.3
-388777.12
-388131.04
-389757.52
-386970.53
-390300.79
-387008.89
-390832.16
-388197.23
-376886.04
-378222.37
-380161.46
-380849.6
-382754.03
-383640.91
-385963.51
-384284.79
-386560.71
-384598.84
-384441.91
-385014.96
-382835.15
-383138.91
-381652.14
-376126.28
-375759.92
-379037.82
-378260.08
-380684.85
-379859.97
-382418.57
-383553.72
-382270.77
-383769.83
-382911.06
-384643.24
-382704.35
-384134.99
-382625.03
-369742.41
-373957.34
-374296.33
-376250.18
-377287.5
-377967.67
-379282.99
-379236.71
-380587.46
-379957.1
-379753.32
-380546.49
-377826.23
-376277.77
-378194.68
-370980.86
-370163.69
-372951.86
-373489.54
-375059.89
-375516.15
-376952.5
-376853.08
-376602.09
-378160.94
-376677.85
-377437.75
-374855.97
-377304.93
-375563.93
-365391.81
-367285.45
-368649.27
-370854.8
-371327.91
-372189.89
-373882.15
-372937.29
-374573.87
-373946.58
-372947.04
-374836.12
-372612.93
-372269.98
-371641.51
-364095.98
-365004.87
-366277.43
-367114.37
-368585.58
-368553.1
-370600.37
-370415.71
-370610.15
-371379.63
-368873.75
-370718.95
-369021.73
-368828.02
-368668.29
-360924.75
-359864.21
-363243.91
-362718.31
-364794.03
-365140.93
-366517.77
-366202.09
-367189.83
-367156.94
-367741.6
-367345.29
-364445.39
-366710.3
-363811.84
-356982.94
-356581.9
-358493.04
-359785.12
-360792.14
-362414.91
-362905.71
-363516.61
-363251.34
-363706.35
-362432.86
-364107.92
-360522.33
-360862.92
-361656.79
-353801.41
-352216.96
-354323.82
-355779.71
-357433.37
-357765.54
-358530.48
-358665
-359662.05
-359190.01
-359089.45
-358886.53
-357100.79
-359033.41
-355706.59
-348379.01
-349393.57
-351471.77
-351575.37
-353084.16
-353737.64
-354509.5
-355076.9
-355028.92
-355490.31
-354035.47
-355102.21
-352783.77
-352194.09
-353320.18
-345973.58
-343431.06
-346515.59
-346994.58
-348973.63
-348590.29
-349820.35
-350200.55
-350624.22
-350129.41
-349533.48
-350330.51
-347909.27
-349035.96
-348156.36
-340484.39
-339910.85
-341775.98
-342837.19
-343678.45
-345440.26
-345305.47
-345492.04
-345010.55
-346248.22
-345075.83
-345852.61
-343605.37
-343416.13
-343430.27
-336208.43
-334329.83
-337075.26
-337463.96
-338798.45
-339819.24
-339972.54
-340368.58
-340274.76
-340703.07
-339694.47
-340664.65
-338454.1
-338980.26
-338367.31
-331180.83
-329669.43
-331872.51
-332596.25
-333967.04
-334553.91
-335000.92
-335325.15
-335482.3
-335773.39
-334861.66
-335468.42
-333530.13
-333588.81
-332996.93
-325691.59
-324278.96
-326560.75
-327042.17
-328247.68
-328931.9
-329519.82
-329770.08
-329821.78
-330054.07
-329089.75
-329970.88
-328046.27
-328378.85
-327919.08
-319809.15
-319140.55
-321221.77
-321505.71
-322758.47
-323745.99
-323779.79
-324610.02
-324134.38
-325075.72
-323619.86
-324769.3
-322279.99
-323270.92
-321540.37
-313482.37
-314213.17
-314758.02
-317251.11
-316486.48
-317845.51
-317939.83
-318307.9
-318422.09
-318548.85
-317861.19
-318338.47
-317185.36
-316670.12
-317765.71
-309810.79
-307314.91
-309681.94
-309864.94
-311720.81
-311427.48
-312646.47
-312293.57
-312894.04
-312265.11
-311967.11
-313053.15
-310969.91
-311752.78
-310894.8
-302868.83
-302137.5
-303572.16
-304666.43
-304811.4
-306078.99
-305902.12
-306714.63
-306437.62
-306736.75
-306011.11
-306723.49
-305326.23
-305293.84
-305295.11
-297919.86
-295553.02
-297869.25
-298067.42
-299243.84
-299554.97
-300181.88
-300352.18
-300337.11
-300780.45
-299919.26
-301004.63
-299076.97
-299708.47
-299257.34
-291303.66
-289848.51
-291716.64
-292220.51
-292936.81
-293674.71
-293979.3
-294176.26
-294387.73
-294527.05
-293852.14
-294539.54
-293202.39
-293558.87
-293379.65
-285565.42
-283529.6
-285645.66
-285758.8
-286804.13
-287164.34
-287626.41
-287913.95
-287985.7
-288354.32
-287557.51
-288558.26
-287024.21
-287583.39
-287289.95
-279227.29
-277558.28
-279389.23
-279730.57
-280587.65
-281049.98
-281581.9
-281644.19
-281913.75
-282055.44
-281509.27
-282309.57
-280982.84
-281439.59
-281310.28
-273269.44
-271257.76
-273254.46
-273349.71
-274258.4
-274753.12
-275145.62
-275354.14
-275523.96