/*--------------------------------*- C++ -*----------------------------------*\
  =========                 |
  \\      /  F ield         | OpenFOAM: The Open Source CFD Toolbox
   \\    /   O peration     | Website:  https://openfoam.org
    \\  /    A nd           | Version:  6
     \\/     M anipulation  |
\*---------------------------------------------------------------------------*/
FoamFile
{
    version     2.0;
    format      ascii;
    class       pointVectorField;
    location    "1.17";
    object      u;
}
// * * * * * * * * * * * * * * * * * * * * * * * * * * * * * * * * * * * * * //

dimensions      [0 1 0 0 0 0 0];

internalField   nonuniform List<vector> 
28033
(
(0 0 0)
(0 0 0)
(2.1189659 -0.18273837 0.013810745)
(1.9862127 -0.67982241 0.012305267)
(0 0 0)
(0 0 0)
(1.9855677 -0.68371661 0.012005747)
(2.1183168 -0.18666641 0.013298595)
(0 0 0)
(0 0 0)
(0 0 0)
(0 0 0)
(0 0 0)
(0 0 0)
(0 0 0)
(0 0 0)
(0 0 0)
(0 0 0)
(0 0 0)
(0 0 0)
(0 0 0)
(0 0 0)
(0 0 0)
(2.1103562 -0.21424448 0.013479183)
(2.1018271 -0.2453741 0.013372024)
(2.0933589 -0.27639675 0.01323534)
(2.0849804 -0.30736829 0.013169236)
(2.0766555 -0.33827689 0.013116396)
(2.0683721 -0.36915238 0.013082498)
(2.0601425 -0.40000771 0.013068012)
(2.0519456 -0.43086841 0.013060116)
(2.043777 -0.46174071 0.013047069)
(2.0356197 -0.49265458 0.013035394)
(2.0274772 -0.52360683 0.012998912)
(2.0193129 -0.55463255 0.012933651)
(2.0111585 -0.58573024 0.01285476)
(2.0029242 -0.61692556 0.01274629)
(1.9946916 -0.64825766 0.012562915)
(0.0041034871 0.0066903081 0.0073880173)
(0.0046696059 0.010434127 0.010262023)
(0.0057809964 0.014502639 0.012518055)
(0.007671156 0.018727765 0.013920259)
(0.0099452456 0.023135317 0.014900821)
(0.013077688 0.027614499 0.015570726)
(0.016808378 0.032253661 0.01603954)
(0.021284719 0.036762551 0.016311453)
(0.026391747 0.041458607 0.016517195)
(0.032235119 0.045970197 0.016633346)
(0.038664224 0.05055833 0.016706325)
(0.045799112 0.055005574 0.016708815)
(0.053530823 0.059451185 0.016770359)
(0.061986822 0.06376987 0.016721586)
(0.070961163 0.068008055 0.01676477)
(0.080650178 0.072135504 0.016702308)
(0.090911327 0.076169532 0.016737368)
(0.10183251 0.080048383 0.016698346)
(0.11331412 0.083826915 0.016710937)
(0.12545185 0.087452337 0.016673168)
(0.13814468 0.0909361 0.016694327)
(0.15147791 0.094268344 0.0166485)
(0.16536924 0.097431817 0.016661741)
(0.17987781 0.10044771 0.016630024)
(0.19493203 0.10326281 0.016614781)
(0.21058584 0.10592584 0.016581669)
(0.22678058 0.10837343 0.016558463)
(0.24355437 0.11066327 0.016514301)
(0.26086066 0.11272029 0.016464961)
(0.2787097 0.11459621 0.016415525)
(0.29709815 0.11626396 0.016348062)
(0.31598757 0.11771229 0.016274049)
(0.33539489 0.11895421 0.016201087)
(0.35530019 0.11996009 0.016113186)
(0.3756875 0.12076647 0.016017352)
(0.39655768 0.12133559 0.015913156)
(0.41787393 0.12168342 0.015816007)
(0.43966141 0.12180727 0.015708386)
(0.46186243 0.12169652 0.015585434)
(0.4845069 0.1213694 0.015475453)
(0.50754971 0.1208011 0.015354613)
(0.53100017 0.12002506 0.01524157)
(0.55483968 0.11900718 0.015117551)
(0.57906197 0.11777561 0.015004529)
(0.60364119 0.11631066 0.014886152)
(0.62858605 0.1146314 0.014772489)
(0.65386529 0.11272743 0.014660434)
(0.67948826 0.11060595 0.014549265)
(0.70542543 0.10826769 0.014441358)
(0.73168456 0.10571356 0.014334756)
(0.7582397 0.10294769 0.014229922)
(0.78509376 0.09996906 0.01412702)
(0.81222744 0.096784537 0.014025344)
(0.83963669 0.093390612 0.013925284)
(0.86730877 0.089796444 0.013826107)
(0.89523428 0.085998539 0.013728982)
(0.9234038 0.082004753 0.013632603)
(0.95180652 0.077814779 0.013538509)
(0.98043269 0.073434643 0.013446058)
(1.0092719 0.068864606 0.013356518)
(1.0383144 0.064112521 0.0132695)
(1.0675506 0.059177842 0.013185927)
(1.096967 0.054070648 0.013107574)
(1.1265623 0.048783384 0.013030123)
(1.1563129 0.043342214 0.012965637)
(1.1862247 0.037726924 0.01289702)
(1.2162731 0.031954256 0.012843123)
(1.2464615 0.026031096 0.012792328)
(1.2767722 0.019959334 0.012742963)
(1.3072043 0.013745985 0.012706887)
(1.3377436 0.0073923882 0.012678052)
(1.3683827 0.00090409049 0.012656661)
(1.3991222 -0.0057033806 0.012637734)
(1.4299402 -0.01244978 0.012633308)
(1.4608508 -0.019289389 0.012625027)
(1.4918212 -0.026277928 0.01263707)
(1.5228738 -0.033328981 0.012638914)
(1.5539752 -0.040539291 0.012665381)
(1.5851431 -0.047785708 0.012677262)
(1.6163517 -0.0551927 0.012717893)
(1.6476161 -0.062628642 0.012736412)
(1.6789059 -0.070200507 0.01279136)
(1.7102462 -0.077817175 0.012820979)
(1.7415935 -0.085538839 0.01288481)
(1.7729862 -0.093311814 0.012931413)
(1.8043818 -0.10116323 0.012997459)
(1.8358024 -0.10909567 0.013060514)
(1.8672202 -0.11705867 0.013138112)
(1.8986539 -0.12511665 0.013207604)
(1.9300752 -0.13317674 0.013297523)
(1.9614943 -0.14136215 0.013399043)
(1.9929288 -0.14946018 0.013470407)
(2.0243204 -0.15774137 0.013628438)
(2.0557804 -0.16593859 0.013710528)
(2.0872037 -0.17417199 0.013876159)
(0.0017014846 -0.0072915868 -0.0085264176)
(0.0028594714 -0.010035635 -0.010228134)
(0.0033721034 -0.01392427 -0.013406545)
(0.0041529992 -0.017398679 -0.014661909)
(0.006153169 -0.02149785 -0.015921316)
(0.0085031252 -0.025901603 -0.016622907)
(0.0115963 -0.029962857 -0.017170959)
(0.015321465 -0.034571601 -0.017413429)
(0.019757713 -0.03903291 -0.017618834)
(0.024681187 -0.043622841 -0.017670642)
(0.030324115 -0.048310202 -0.017674068)
(0.03643165 -0.053008774 -0.017630638)
(0.043214685 -0.057822892 -0.017521315)
(0.050479753 -0.062681842 -0.017445061)
(0.058353519 -0.067568651 -0.017283676)
(0.066740732 -0.072596514 -0.017174724)
(0.075688652 -0.077569113 -0.016996559)
(0.085181709 -0.082739918 -0.016838452)
(0.09519971 -0.087874885 -0.0166632)
(0.10579269 -0.093165651 -0.016479801)
(0.11687704 -0.098449149 -0.016266995)
(0.12853737 -0.10391053 -0.016079381)
(0.1406652 -0.10931373 -0.015849281)
(0.15338825 -0.11494801 -0.015618172)
(0.16655196 -0.12052781 -0.015388496)
(0.18033266 -0.12631069 -0.015104311)
(0.19453008 -0.13209044 -0.01487758)
(0.209331 -0.1380205 -0.014561498)
(0.2245529 -0.14399572 -0.014312741)
(0.24034575 -0.15007846 -0.013978429)
(0.25657044 -0.15625222 -0.013694769)
(0.27333094 -0.16250378 -0.013361498)
(0.29052913 -0.16885276 -0.013048003)
(0.30823532 -0.17528292 -0.012704104)
(0.32637788 -0.18180871 -0.01236893)
(0.34499414 -0.18840519 -0.012028132)
(0.3640471 -0.19508882 -0.011661452)
(0.38354538 -0.20187337 -0.011310194)
(0.40346685 -0.20872069 -0.010945769)
(0.42381882 -0.21566302 -0.010579886)
(0.44457714 -0.22268179 -0.010209986)
(0.46574357 -0.22978073 -0.0098380745)
(0.48730312 -0.23696035 -0.0094618868)
(0.50925175 -0.2442175 -0.00908498)
(0.53157583 -0.25155197 -0.0087049378)
(0.55427407 -0.25896401 -0.0083223488)
(0.5773297 -0.2664499 -0.0079388154)
(0.6007435 -0.27401155 -0.0075513621)
(0.62449982 -0.28164564 -0.0071629499)
(0.64859674 -0.28935125 -0.0067709678)
(0.67302235 -0.29712788 -0.0063767565)
(0.69777193 -0.30497271 -0.0059794163)
(0.72283536 -0.31288412 -0.0055789623)
(0.7482075 -0.32086129 -0.0051750501)
(0.77387802 -0.32890041 -0.0047677008)
(0.79984153 -0.33699988 -0.0043566098)
(0.82608852 -0.34515827 -0.0039414727)
(0.85261212 -0.35337067 -0.0035226196)
(0.87940322 -0.36163637 -0.0030997772)
(0.90645515 -0.36995187 -0.0026727297)
(0.93375764 -0.37831358 -0.0022422503)
(0.96130402 -0.38671926 -0.0018079436)
(0.98908447 -0.39516583 -0.001370421)
(1.0170913 -0.40364975 -0.00092973092)
(1.0453145 -0.41216775 -0.00048728453)
(1.0737472 -0.420719 -4.1557017e-05)
(1.1023788 -0.42929672 0.00040337852)
(1.1312018 -0.43790296 0.00085149328)
(1.1602077 -0.44652643 0.0012944337)
(1.1893859 -0.45516758 0.0017470049)
(1.2187287 -0.4638384 0.0021891307)
(1.2482302 -0.47250721 0.0026335649)
(1.2778812 -0.48120371 0.0030750108)
(1.3076722 -0.48989571 0.003512133)
(1.3376001 -0.49860639 0.0039496971)
(1.3676516 -0.50731234 0.0043781554)
(1.3978256 -0.51602825 0.0048093984)
(1.4281124 -0.52473884 0.0052310171)
(1.4585054 -0.53345315 0.0056542482)
(1.4890002 -0.54215819 0.0060690275)
(1.5195889 -0.55086408 0.0064849703)
(1.5502672 -0.55955572 0.0068933073)
(1.5810274 -0.568244 0.0073026603)
(1.6118665 -0.57691545 0.0077049844)
(1.6427748 -0.58557664 0.0081069947)
(1.6737508 -0.59422005 0.008503515)
(1.7047848 -0.60284628 0.0088981115)
(1.7358738 -0.61145073 0.0092853164)
(1.7670085 -0.62003736 0.009672518)
(1.7981882 -0.6285963 0.010048959)
(1.8293988 -0.63713291 0.010422126)
(1.8606473 -0.64565312 0.010786287)
(1.891914 -0.65415476 0.011153535)
(1.9232401 -0.66264423 0.011494206)
(1.9545874 -0.67119584 0.011877211)
(0 0 0)
(0 0 0)
(0 0 0)
(0 0 0)
(0 0 0)
(0 0 0)
(0 0 0)
(0 0 0)
(0 0 0)
(0 0 0)
(0 0 0)
(0 0 0)
(0 0 0)
(0 0 0)
(0 0 0)
(0.003979319 -0.0030251955 0.006167143)
(0.0039012429 -0.011714218 0.010078455)
(0.0033664362 -0.012369092 0.012262041)
(0.0048717752 -0.018474529 0.014451524)
(0.0062818316 -0.021389075 0.015488864)
(0.0090143915 -0.026257722 0.016122096)
(0.011948698 -0.030196897 0.016622069)
(0.015928201 -0.035106924 0.016877293)
(0.020252423 -0.039347732 0.017052166)
(0.025303223 -0.044301276 0.017067)
(0.031012071 -0.048915764 0.017165504)
(0.037053829 -0.053673236 0.017051955)
(0.043977669 -0.058746375 0.017108523)
(0.051109906 -0.063393756 0.016946323)
(0.059167893 -0.068810618 0.01699358)
(0.067414356 -0.073442642 0.016867064)
(0.076468353 -0.078945426 0.016880693)
(0.085888633 -0.083767069 0.016716959)
(0.095950589 -0.089359752 0.016744481)
(0.10652067 -0.094431084 0.016606706)
(0.11757576 -0.099976976 0.016611722)
(0.12925299 -0.10538659 0.016495979)
(0.14136471 -0.11097287 0.016485385)
(0.15407765 -0.11659335 0.016396104)
(0.16724525 -0.12225413 0.016331249)
(0.18099913 -0.12810487 0.016259835)
(0.19520283 -0.13387582 0.016166495)
(0.20997044 -0.13992867 0.016085058)
(0.22520907 -0.14586158 0.015976911)
(0.24095716 -0.15206401 0.015878396)
(0.25720605 -0.15822121 0.01575953)
(0.27393278 -0.16453451 0.015637154)
(0.29114597 -0.17089828 0.015504015)
(0.30882751 -0.17737048 0.015361768)
(0.32698263 -0.1839278 0.015220807)
(0.34558311 -0.1905176 0.015058068)
(0.36462988 -0.19729125 0.014906831)
(0.38412747 -0.20407549 0.014746165)
(0.40404273 -0.21096956 0.014585748)
(0.42438719 -0.21793907 0.014418924)
(0.44513965 -0.22499676 0.014256619)
(0.46629556 -0.23213019 0.014092447)
(0.48784643 -0.23934892 0.01393036)
(0.50978228 -0.24664332 0.013770893)
(0.53209486 -0.25401824 0.013613273)
(0.55477692 -0.26147004 0.013459464)
(0.57781901 -0.26899758 0.013307649)
(0.60121443 -0.27660111 0.013159684)
(0.62495425 -0.28427771 0.013014369)
(0.6490316 -0.29202725 0.012872267)
(0.67343773 -0.29984737 0.01273347)
(0.69816673 -0.30773697 0.012596149)
(0.72320934 -0.31569439 0.012463019)
(0.74855933 -0.32371611 0.012330365)
(0.7742078 -0.3318034 0.012202031)
(0.80014843 -0.33994896 0.012074072)
(0.82637125 -0.3481555 0.01195086)
(0.85287061 -0.35641603 0.011828723)
(0.87963591 -0.36473016 0.011711296)
(0.90666088 -0.37309391 0.011597027)
(0.93393534 -0.38150415 0.011487511)
(0.96145234 -0.38995754 0.011382839)
(0.98920162 -0.39845148 0.011284312)
(1.0171762 -0.40698094 0.011191656)
(1.045366 -0.41554432 0.011106256)
(1.0737631 -0.42413817 0.011028179)
(1.1023605 -0.43275547 0.010956842)
(1.131145 -0.44140984 0.010898196)
(1.1601173 -0.45005068 0.010843317)
(1.18925 -0.45875178 0.010797671)
(1.2185637 -0.46744156 0.01076326)
(1.2480249 -0.47614986 0.010737771)
(1.2776419 -0.48486721 0.010717438)
(1.3073992 -0.49359324 0.010708736)
(1.3372927 -0.50232336 0.010705784)
(1.3673151 -0.51105725 0.010711655)
(1.3974589 -0.51979198 0.010723573)
(1.4277187 -0.52852622 0.010743783)
(1.4580864 -0.53725732 0.010769364)
(1.4885576 -0.54598337 0.010802566)
(1.519124 -0.55470287 0.010840265)
(1.5497822 -0.56341368 0.010885576)
(1.5805232 -0.57211269 0.010934593)
(1.6113445 -0.58080017 0.010990986)
(1.6422369 -0.58947048 0.011051103)
(1.6731975 -0.59812584 0.011119014)
(1.7042176 -0.60675813 0.011189882)
(1.735294 -0.61537363 0.011270272)
(1.7664174 -0.62395953 0.011353222)
(1.7975859 -0.63252854 0.01144722)
(1.828788 -0.64106295 0.01154299)
(1.8600276 -0.64958844 0.011652984)
(1.8912876 -0.65808035 0.011758483)
(1.922609 -0.66658786 0.011879075)
(1.953915 -0.67512503 0.011971919)
(1.9940814 -0.65217134 0.011945981)
(2.002298 -0.62088125 0.011937227)
(2.010515 -0.58964668 0.012004609)
(2.0186779 -0.55857159 0.012077157)
(2.0268381 -0.52754342 0.012210251)
(2.0349719 -0.4965872 0.012334976)
(2.0431285 -0.46568594 0.012501237)
(2.0512897 -0.43479387 0.012658178)
(2.0594999 -0.40395959 0.012815053)
(2.0677084 -0.37307274 0.012975673)
(2.0759997 -0.34221745 0.013106376)
(2.084315 -0.31129153 0.013224393)
(2.0927082 -0.28034552 0.01332217)
(2.1011197 -0.24926763 0.013374766)
(2.1097006 -0.21820515 0.013398915)
(2.0865996 -0.17811092 0.012785381)
(2.0550785 -0.16988741 0.012444811)
(2.0236697 -0.16163142 0.012078414)
(1.9922418 -0.15341265 0.011727401)
(1.9608239 -0.14522969 0.011347566)
(1.929398 -0.13708546 0.010971484)
(1.8979711 -0.12898758 0.010584715)
(1.8665442 -0.12093711 0.010191527)
(1.8351223 -0.11294712 0.0097973692)
(1.803712 -0.1050114 0.0093944515)
(1.7723145 -0.097144237 0.0089924575)
(1.7409388 -0.089342776 0.0085854892)
(1.7095858 -0.081614221 0.008176022)
(1.6782611 -0.073959217 0.0077599721)
(1.6469744 -0.06638871 0.007344586)
(1.6157283 -0.058899773 0.006925454)
(1.5845287 -0.051501184 0.0065057694)
(1.5533791 -0.04419557 0.006081959)
(1.5222875 -0.036985338 0.005655755)
(1.4912577 -0.029879727 0.0052272992)
(1.4602971 -0.022876946 0.0047957771)
(1.4294109 -0.015988656 0.0043620105)
(1.3986065 -0.0092117557 0.0039254311)
(1.3678894 -0.0025606263 0.0034876324)
(1.3372686 0.003970679 0.0030476028)
(1.3067513 0.010370486 0.0026069605)
(1.2763312 0.016632167 0.0021643299)
(1.2460725 0.022719721 0.0017353793)
(1.2158949 0.028714985 0.001291244)
(1.1858751 0.034525827 0.00085486407)
(1.1559956 0.040187826 0.00041794178)
(1.1262734 0.045685638 -1.3511567e-05)
(1.0967131 0.051016024 -0.00044230056)
(1.067327 0.056174146 -0.00086794158)
(1.0381238 0.061155308 -0.0012892044)
(1.0091133 0.065956254 -0.0017066244)
(0.98030554 0.070571613 -0.0021200493)
(0.9517105 0.074999051 -0.002528935)
(0.92333803 0.07923372 -0.0029336958)
(0.8951981 0.083273557 -0.0033342779)
(0.86730076 0.087114286 -0.0037307009)
(0.83965606 0.090754108 -0.0041229613)
(0.81227371 0.094189317 -0.0045117056)
(0.78516404 0.097418125 -0.0048963623)
(0.75833669 0.10043748 -0.0052777738)
(0.73180205 0.10324546 -0.0056556974)
(0.70556979 0.10583959 -0.0060304211)
(0.67965044 0.10821789 -0.0064021121)
(0.6540539 0.1103781 -0.0067709898)
(0.62879097 0.1123191 -0.0071368593)
(0.60387186 0.11403693 -0.0074999563)
(0.57930693 0.1155348 -0.0078611536)
(0.55510873 0.11680245 -0.0082176187)
(0.53128596 0.11785091 -0.0085754012)
(0.50785256 0.11866613 -0.0089253762)
(0.48482171 0.11925715 -0.0092748816)
(0.46219167 0.11962912 -0.0096233897)
(0.43998505 0.11976098 -0.0099681773)
(0.41824937 0.11964368 -0.010290507)
(0.39691089 0.1193579 -0.010642907)
(0.37604228 0.1188105 -0.010974038)
(0.35569383 0.11801644 -0.01128329)
(0.33576793 0.11705361 -0.011607131)
(0.3163611 0.11585439 -0.011929605)
(0.29744067 0.1144378 -0.012236119)
(0.27908341 0.11279421 -0.012537659)
(0.26119346 0.11098764 -0.012819284)
(0.24390472 0.10893083 -0.013105403)
(0.22710576 0.10671738 -0.013382547)
(0.21089184 0.10432123 -0.013659351)
(0.19522682 0.10170733 -0.013907309)
(0.18012994 0.098965867 -0.014170084)
(0.16565197 0.095959739 -0.014379081)
(0.15170012 0.092914988 -0.014633908)
(0.1383757 0.089633977 -0.014845587)
(0.12564578 0.086197743 -0.015035748)
(0.11350602 0.082680756 -0.015261692)
(0.10198809 0.078932841 -0.015406451)
(0.091068979 0.075178716 -0.015622287)
(0.080784101 0.071163815 -0.015742689)
(0.071143252 0.067141413 -0.015908972)
(0.062064455 0.062938636 -0.016000712)
(0.053658029 0.058773848 -0.01616906)
(0.045911705 0.05428391 -0.016176112)
(0.038775359 0.050033395 -0.016301451)
(0.032302982 0.045448911 -0.016248879)
(0.026514519 0.04098374 -0.016210274)
(0.021386856 0.036393315 -0.016029209)
(0.016906243 0.031914678 -0.0157977)
(0.013152965 0.02737277 -0.015349606)
(0.010090111 0.022868662 -0.014636695)
(0.0077851369 0.018372885 -0.013614848)
(0.0061820626 0.014435241 -0.012219041)
(0.0048642067 0.01005953 -0.0096704658)
(0.0060186538 0.0062355146 -0.005594651)
(0 0 0)
(0 0 0)
(0 0 0)
(0 0 0)
(0 0 0)
(0 0 0)
(0 0 0)
(0 0 0)
(0 0 0)
(0 0 0)
(0 0 0)
(0 0 0)
(0 0 0)
(0 0 0)
(0 0 0)
(0 0 0)
(0 0 0)
(0 0 0)
(0 0 0)
(0 0 0)
(0 0 0)
(0 0 0)
(0 0 0)
(0 0 0)
(0 0 0)
(0 0 0)
(0 0 0)
(0 0 0)
(0 0 0)
(0 0 0)
(1.9861879 -0.68023721 0.012275708)
(1.9861433 -0.68057957 0.012242412)
(1.9861007 -0.6808827 0.01220641)
(1.9860657 -0.68118094 0.012183416)
(1.9860316 -0.68146588 0.01216353)
(1.9859997 -0.68173802 0.012156962)
(1.9859635 -0.68199741 0.012150139)
(1.9859261 -0.68224566 0.012152116)
(1.985885 -0.68248489 0.012149665)
(1.9858386 -0.68271077 0.012146408)
(1.9857966 -0.68293804 0.012141146)
(1.985747 -0.68313319 0.012123944)
(1.9857042 -0.68333656 0.012102838)
(1.9856629 -0.68351221 0.012073167)
(1.9856309 -0.68369545 0.012035209)
(2.1191294 -0.18287544 0.013780348)
(2.1191435 -0.18308701 0.013780479)
(2.1191539 -0.1832921 0.013748037)
(2.1191671 -0.18351195 0.013718067)
(2.1191549 -0.18374151 0.013685405)
(2.1191426 -0.18397783 0.013637139)
(2.1191204 -0.18421382 0.013592755)
(2.1190861 -0.18445739 0.013540422)
(2.1190427 -0.18470132 0.01349126)
(2.1189869 -0.18494889 0.013445631)
(2.1189215 -0.18520448 0.013402837)
(2.1188434 -0.18546313 0.013367932)
(2.1187643 -0.18572812 0.013352662)
(2.1186565 -0.18602869 0.013311254)
(2.1185848 -0.18628758 0.013311422)
(0.0017761568 0.0047159815 0.0074993881)
(0.002110557 0.0077312072 0.0088790686)
(0.0026409975 0.010976479 0.011068874)
(0.0040463879 0.014157636 0.012022608)
(0.0056690363 0.01735349 0.013081558)
(0.0083129867 0.02069352 0.013636789)
(0.01140812 0.024020821 0.014079463)
(0.015430214 0.027540212 0.014357828)
(0.019903366 0.030945864 0.014565672)
(0.025237139 0.034521193 0.014708116)
(0.031131277 0.037940277 0.014743207)
(0.037776519 0.041518804 0.014860699)
(0.045014256 0.044879281 0.014827463)
(0.052952473 0.048392213 0.014893228)
(0.061486586 0.051671324 0.014865093)
(0.07074536 0.055062311 0.014914029)
(0.080604536 0.058231119 0.014869325)
(0.091082187 0.061450205 0.014920604)
(0.10224548 0.064488209 0.014890295)
(0.1140296 0.067502755 0.0149127)
(0.12643493 0.070369661 0.014906571)
(0.13948719 0.073145487 0.014921519)
(0.15316302 0.075813242 0.014902469)
(0.16743202 0.078341191 0.014915441)
(0.18235435 0.080751734 0.014892389)
(0.19786363 0.08301297 0.014891484)
(0.21398865 0.085144021 0.014861102)
(0.23069527 0.087104597 0.014843903)
(0.24800953 0.088914082 0.01480482)
(0.26589309 0.090567134 0.014767718)
(0.28434506 0.092025916 0.014714288)
(0.30336656 0.093323264 0.014658212)
(0.32293403 0.094430344 0.014596928)
(0.34302936 0.095352574 0.014523319)
(0.36366034 0.096082806 0.014445659)
(0.3847996 0.096600949 0.014361492)
(0.40643768 0.096940977 0.014272579)
(0.42855189 0.09705812 0.014174956)
(0.45115242 0.096979522 0.014078075)
(0.47419891 0.096687061 0.0139807)
(0.49769429 0.096184448 0.013882322)
(0.52160815 0.095458317 0.013777173)
(0.54594455 0.094535293 0.013680404)
(0.57067849 0.093376624 0.013577359)
(0.59579193 0.092015933 0.013479119)
(0.62128169 0.090432025 0.013383447)
(0.64712466 0.088630385 0.0132867)
(0.67331371 0.086611967 0.013196399)
(0.69983073 0.08437492 0.01310557)
(0.72666651 0.081919493 0.013018894)
(0.75380413 0.079248174 0.012933411)
(0.78123327 0.076358451 0.012851869)
(0.80893925 0.073254964 0.012770634)
(0.83690999 0.069935103 0.012693518)
(0.86513211 0.066404401 0.012617171)
(0.89359257 0.062660263 0.012544314)
(0.9222793 0.058709391 0.012472958)
(0.95117823 0.054549883 0.012405079)
(0.98027746 0.050187751 0.012339786)
(1.0095639 0.045623696 0.01227824)
(1.0390252 0.040862747 0.012219977)
(1.0686484 0.035907469 0.012166525)
(1.0984214 0.030761909 0.012117648)
(1.1283337 0.025427882 0.012074891)
(1.1583679 0.01992126 0.012034885)
(1.188526 0.014220004 0.012004495)
(1.2187927 0.0083622191 0.011978516)
(1.249135 0.0023296203 0.011963504)
(1.2795714 -0.003862632 0.011953426)
(1.3100736 -0.010218775 0.011952031)
(1.3406486 -0.016721784 0.011953165)
(1.3712759 -0.023375206 0.011963927)
(1.401959 -0.030167943 0.011977758)
(1.4326776 -0.037101066 0.012002118)
(1.4634392 -0.044159575 0.012029105)
(1.4942226 -0.051356869 0.012067113)
(1.5250381 -0.058655932 0.012104453)
(1.5558634 -0.066098395 0.012156391)
(1.5867112 -0.073617517 0.012202157)
(1.6175611 -0.081281179 0.012266677)
(1.6484202 -0.089009523 0.012322432)
(1.6792808 -0.096860148 0.012395342)
(1.7101374 -0.10478898 0.012462101)
(1.7409869 -0.11280714 0.012543256)
(1.7718297 -0.12089995 0.012615515)
(1.8026639 -0.12908165 0.012706514)
(1.8334875 -0.13732888 0.01279377)
(1.8642877 -0.14563715 0.012884941)
(1.8950823 -0.15400901 0.012982762)
(1.9258319 -0.16244733 0.01309526)
(1.9565964 -0.17090287 0.013178808)
(1.9873015 -0.17943092 0.013308139)
(2.0180069 -0.18803543 0.013404636)
(2.0487245 -0.19659339 0.0134849)
(2.0794095 -0.20538705 0.013554122)
(-0.0005153183 0.0035746969 0.0067689758)
(-0.00068632479 0.0045687581 0.0080167052)
(1.0184633e-05 0.0074294134 0.0095431808)
(0.00057393905 0.0092193106 0.010617783)
(0.0020060969 0.011711717 0.011346767)
(0.0040150791 0.013894519 0.011809599)
(0.0068126965 0.016445195 0.012196156)
(0.010152555 0.018808809 0.012448011)
(0.014317569 0.02139872 0.012677016)
(0.019137788 0.023869385 0.012722153)
(0.024599633 0.026492672 0.012912867)
(0.030786062 0.029020188 0.012867011)
(0.037600109 0.031645664 0.013000403)
(0.045126948 0.034182323 0.012957951)
(0.053272396 0.036759494 0.013064017)
(0.062166579 0.039282816 0.012981539)
(0.071585436 0.041793791 0.013097536)
(0.081821821 0.044250113 0.013049692)
(0.092603297 0.046668648 0.013102948)
(0.10411388 0.049022722 0.013095658)
(0.11622932 0.051323259 0.01313412)
(0.12905644 0.053552483 0.013115936)
(0.14247918 0.055702548 0.01315262)
(0.15661 0.057766765 0.013148778)
(0.17134972 0.059725737 0.01316069)
(0.18675565 0.061603401 0.013148808)
(0.20277721 0.063350466 0.013150809)
(0.21944782 0.064987602 0.013139207)
(0.23673149 0.066498159 0.013114926)
(0.25463123 0.06787176 0.013089286)
(0.2731359 0.069103946 0.013058876)
(0.29224178 0.070188851 0.013015556)
(0.3119149 0.071120034 0.012966437)
(0.33217212 0.071882931 0.012913431)
(0.35298276 0.072477997 0.012850153)
(0.37433932 0.072903954 0.012784604)
(0.39623149 0.073142282 0.012709018)
(0.41863555 0.073199202 0.012639388)
(0.44152575 0.073062943 0.012560755)
(0.46491103 0.072744053 0.012481986)
(0.48875058 0.072212334 0.01239648)
(0.51304888 0.071497672 0.012322597)
(0.53778388 0.070557532 0.01222882)
(0.56292592 0.06942652 0.012158518)
(0.58847746 0.068081872 0.01207437)
(0.6144118 0.066522545 0.012000461)
(0.64071207 0.064751402 0.011926005)
(0.66736686 0.062764122 0.011857229)
(0.6943561 0.060558816 0.011787263)
(0.7216659 0.058135844 0.011724853)
(0.74927909 0.055494245 0.011661905)
(0.77718139 0.052631225 0.011604353)
(0.80535583 0.049551162 0.011547955)
(0.83378756 0.046248641 0.011496321)
(0.86246085 0.042729832 0.011446062)
(0.89136037 0.038990704 0.011400425)
(0.92047078 0.035037344 0.011356716)
(0.94977645 0.030866364 0.011318044)
(0.97926298 0.026485653 0.011281816)
(1.0089151 0.021891898 0.011250712)
(1.0387174 0.017093132 0.01122388)
(1.0686569 0.012088881 0.011201729)
(1.0987179 0.0068831377 0.01118657)
(1.1288873 0.0014837273 0.011173632)
(1.1591537 -0.0041079862 0.011170055)
(1.1895078 -0.0098925958 0.011173724)
(1.2199055 -0.015844701 0.011185019)
(1.250381 -0.021999306 0.01120404)
(1.2809062 -0.028320944 0.011216648)
(1.3114699 -0.034815908 0.011246276)
(1.3420651 -0.041465261 0.011275632)
(1.3726731 -0.048282872 0.011320217)
(1.4032991 -0.055242084 0.011363021)
(1.4339216 -0.062364538 0.011422466)
(1.4645532 -0.069610709 0.011473901)
(1.4951625 -0.077018561 0.011548388)
(1.5257755 -0.084526748 0.011605835)
(1.5563521 -0.092199915 0.011694613)
(1.5869285 -0.099946301 0.011756433)
(1.6174557 -0.10786277 0.011859881)
(1.6479822 -0.11582955 0.011925377)
(1.6784528 -0.12395266 0.012035443)
(1.7089125 -0.13213938 0.012119903)
(1.739319 -0.14044484 0.012217186)
(1.7697223 -0.1488093 0.012310482)
(1.8000572 -0.15728149 0.012426734)
(1.8303773 -0.16581268 0.012527497)
(1.8606385 -0.17441411 0.012644286)
(1.8908825 -0.18311095 0.012763214)
(1.9210718 -0.19180944 0.012861985)
(1.9512456 -0.20062781 0.012990445)
(1.9813508 -0.20946199 0.013095186)
(2.0114761 -0.21835539 0.013192306)
(2.0415434 -0.22731155 0.01328151)
(2.0716605 -0.23635047 0.013349614)
(-0.0019668566 0.0022070815 0.0058796749)
(-0.0024338231 0.0027352834 0.0068297886)
(-0.0028123475 0.0041779861 0.008441738)
(-0.0022236867 0.0055233688 0.0091152776)
(-0.0011608387 0.0069629766 0.0096440234)
(0.00073396805 0.0085787648 0.010031255)
(0.0030105059 0.010078649 0.010351654)
(0.0062860494 0.011803039 0.010585572)
(0.010030996 0.013369026 0.010652519)
(0.014542431 0.015225991 0.010880782)
(0.019695724 0.016857139 0.010849299)
(0.02559594 0.018773858 0.011010884)
(0.032090124 0.020461516 0.010972715)
(0.039313925 0.022396502 0.011099387)
(0.047211594 0.024148586 0.011027035)
(0.055731526 0.026043884 0.011169599)
(0.065003634 0.027820183 0.011115528)
(0.074894525 0.029674032 0.011188652)
(0.085477439 0.031438175 0.011190888)
(0.096738699 0.033217584 0.011246089)
(0.10868474 0.034943331 0.01123998)
(0.12128231 0.036615823 0.011299406)
(0.13457954 0.038257579 0.011301308)
(0.14851894 0.039809684 0.011336052)
(0.16314352 0.041329963 0.011337798)
(0.17841698 0.042737203 0.011365797)
(0.19436258 0.044082418 0.011366349)
(0.21094586 0.045323156 0.011368138)
(0.22818427 0.046466064 0.011364144)
(0.24605307 0.047490756 0.011359498)
(0.26455699 0.048402255 0.011336138)
(0.28366562 0.049183781 0.011314906)
(0.30339336 0.049827772 0.011286412)
(0.32370511 0.050330261 0.011249059)
(0.34459827 0.05068503 0.011208753)
(0.36605668 0.050881382 0.01116101)
(0.38805281 0.050917684 0.011117976)
(0.41057453 0.050785415 0.011066237)
(0.43364748 0.050473937 0.011009319)
(0.45720244 0.049971758 0.010943872)
(0.48124742 0.049302951 0.010893118)
(0.5057577 0.048430644 0.010819656)
(0.5307119 0.047369486 0.010775047)
(0.55610092 0.046110014 0.010713768)
(0.58190104 0.044643934 0.010657061)
(0.60809126 0.042976182 0.010607335)
(0.63465963 0.041099482 0.010555517)
(0.66158579 0.039011245 0.010508702)
(0.68885157 0.036709743 0.010464779)
(0.71643973 0.034192912 0.010425442)
(0.74433394 0.031458601 0.010386643)
(0.77251432 0.028505714 0.010354978)
(0.80096608 0.02533444 0.010323288)
(0.82966959 0.021941683 0.010298047)
(0.85860996 0.018331409 0.010274089)
(0.88776785 0.014499581 0.010255658)
(0.91712824 0.010451191 0.01023979)
(0.94667285 0.0061839473 0.010229341)
(0.97638647 0.0017031142 0.010221651)
(1.0062509 -0.0029931257 0.010220694)
(1.0362521 -0.0078980933 0.010222718)
(1.066373 -0.01301308 0.010231523)
(1.0965981 -0.018331021 0.010245417)
(1.1269138 -0.023849518 0.010263069)
(1.1573075 -0.029568331 0.01029193)
(1.1877494 -0.035478417 0.01032016)
(1.2182751 -0.041558537 0.010365652)
(1.2488034 -0.047849979 0.010397563)
(1.2793655 -0.054328409 0.01046374)
(1.3099395 -0.060957644 0.010522763)
(1.3405173 -0.067767551 0.010589346)
(1.3710896 -0.074733264 0.010664417)
(1.4016562 -0.081860808 0.010738998)
(1.4321971 -0.089136791 0.010824002)
(1.4627161 -0.096564123 0.01090987)
(1.4931986 -0.10413126 0.011005702)
(1.5236515 -0.11183296 0.011099522)
(1.5540546 -0.11966976 0.011206077)
(1.5844241 -0.12762389 0.011307258)
(1.6147359 -0.13570584 0.011422649)
(1.6450118 -0.1438855 0.011527483)
(1.6752236 -0.15220034 0.011658331)
(1.7053948 -0.16057658 0.011760968)
(1.7355142 -0.16909381 0.011897786)
(1.7655783 -0.1776612 0.012015919)
(1.795588 -0.18633867 0.012154583)
(1.8255519 -0.19506672 0.012270633)
(1.8554607 -0.20390967 0.012418775)
(1.8853357 -0.21276891 0.012527993)
(1.9151382 -0.22173272 0.01267806)
(1.9449237 -0.23074396 0.01279562)
(1.9746457 -0.23978316 0.012918223)
(2.0043585 -0.248928 0.013028723)
(2.0340336 -0.25805827 0.013122881)
(2.0637171 -0.26727519 0.013200818)
(-0.0027741043 0.00165579 0.0049130448)
(-0.0039124292 0.0011938116 0.0058559494)
(-0.0042787228 0.0020874004 0.006836033)
(-0.0039415708 0.0026307132 0.0073264604)
(-0.0029291475 0.003567733 0.0078192986)
(-0.0014466269 0.0043680032 0.0081373986)
(0.00099805848 0.0054424019 0.0083928828)
(0.0039361336 0.0063512524 0.0084653)
(0.0075782708 0.0075043982 0.0087493222)
(0.011964075 0.0085316695 0.0086993268)
(0.017001795 0.0097088967 0.0089042302)
(0.022691885 0.010844181 0.0088540272)
(0.029063525 0.012043776 0.0090229556)
(0.036180191 0.013274675 0.0089348395)
(0.043838186 0.014458147 0.0091175823)
(0.052328285 0.015734852 0.0090439955)
(0.061367746 0.016941303 0.0091491926)
(0.071168879 0.01819641 0.0091558128)
(0.081586267 0.019396191 0.0092236057)
(0.092747061 0.02061699 0.0092287064)
(0.1045088 0.021776162 0.0092989396)
(0.11702107 0.022934034 0.0093156152)
(0.13015038 0.024029391 0.009360262)
(0.14399983 0.025092075 0.0093892692)
(0.15849011 0.026083471 0.0094270569)
(0.1736743 0.027013501 0.009453348)
(0.18950044 0.027878683 0.0094718594)
(0.20600134 0.028644326 0.0094994229)
(0.22314127 0.029330931 0.0095103462)
(0.24093474 0.029912564 0.0095174527)
(0.25934755 0.030390305 0.0095223619)
(0.2784011 0.030746144 0.0095224178)
(0.29805288 0.030983409 0.0095106217)
(0.31830977 0.031090147 0.009501559)
(0.33915554 0.031047364 0.0094810407)
(0.360566 0.030875488 0.0094596911)
(0.3825489 0.030526234 0.0094307334)
(0.40509736 0.030040805 0.0093925788)
(0.42811961 0.029371503 0.009363967)
(0.45166344 0.028559272 0.009343233)
(0.47569018 0.027552856 0.0093033692)
(0.50019302 0.026366079 0.0092820061)
(0.52514544 0.025001227 0.0092452319)
(0.55053163 0.023441821 0.009214387)
(0.57633395 0.021693718 0.0091909181)
(0.60253379 0.019745928 0.0091679216)
(0.62911447 0.017598172 0.0091457829)