/*--------------------------------*- C++ -*----------------------------------*\
  =========                 |
  \\      /  F ield         | OpenFOAM: The Open Source CFD Toolbox
   \\    /   O peration     | Website:  https://openfoam.org
    \\  /    A nd           | Version:  6
     \\/     M anipulation  |
\*---------------------------------------------------------------------------*/
FoamFile
{
    version     2.0;
    format      ascii;
    class       pointVectorField;
    location    "0.15";
    object      u;
}
// * * * * * * * * * * * * * * * * * * * * * * * * * * * * * * * * * * * * * //

dimensions      [0 1 0 0 0 0 0];

internalField   nonuniform List<vector> 
28033
(
(0 6.6305692e-20 0)
(0 4.5404157e-19 0)
(0.96045162 0.025053824 -5.2349665e-06)
(0.93807319 -0.18544634 -0.00017567077)
(0 4.1005449e-19 0)
(0 6.6785783e-19 0)
(0.93823772 -0.18530919 -0.00015923311)
(0.96061145 0.025167087 -2.4319972e-05)
(0 1.4357121e-19 0)
(0 4.1458939e-20 0)
(0 3.3118124e-19 0)
(0 -1.5722998e-19 0)
(0 2.1179909e-19 0)
(0 -1.2551821e-19 0)
(0 -3.0329761e-21 0)
(-1.0116868e-19 -3.3002936e-20 0)
(0 6.2072407e-20 0)
(0 3.0890055e-20 0)
(0 -1.1887975e-19 0)
(0 1.1509975e-19 0)
(0 1.3763921e-19 0)
(0 -1.1039488e-19 0)
(0 1.4035504e-19 0)
(0.95906161 0.011927827 -1.5868728e-05)
(0.957682 -0.0012068454 -2.1508998e-05)
(0.95630272 -0.014350772 -2.7667072e-05)
(0.95492203 -0.027502971 -3.8664737e-05)
(0.9535373 -0.040658612 -4.2816892e-05)
(0.95214969 -0.05382133 -5.1386732e-05)
(0.95075604 -0.066985465 -5.7958462e-05)
(0.94935906 -0.080152637 -6.3925687e-05)
(0.94795519 -0.093321078 -7.3066309e-05)
(0.94654834 -0.10648861 -8.125711e-05)
(0.94513753 -0.11965577 -9.2508842e-05)
(0.94372225 -0.13281941 -0.0001054745)
(0.94230725 -0.14598096 -0.00011941081)
(0.94089236 -0.15913789 -0.00013650333)
(0.93947886 -0.17229106 -0.00015361394)
(0.0029247491 0.0045168279 0.0048533698)
(0.0036297775 0.0070237962 0.0066785081)
(0.0047535972 0.0095354984 0.0079209667)
(0.0063184408 0.012164263 0.0087104414)
(0.0081574055 0.014747486 0.009146207)
(0.010447473 0.017427659 0.0094305965)
(0.013094401 0.020074944 0.0095472922)
(0.016116489 0.022703545 0.0095874749)
(0.019490564 0.025329126 0.0095667111)
(0.023219908 0.027902708 0.0095168429)
(0.02726799 0.030445156 0.0094365079)
(0.031652471 0.032941085 0.0093465279)
(0.036354276 0.035389811 0.0092644668)
(0.041393554 0.037787138 0.0091598053)
(0.046739748 0.040125625 0.0090591532)
(0.052417536 0.042400045 0.0089418933)
(0.058416834 0.044610823 0.0088243478)
(0.064752433 0.046738865 0.0086827399)
(0.071404284 0.048795372 0.0085139243)
(0.07837775 0.050750449 0.0083304574)
(0.085668788 0.052621675 0.0081201793)
(0.093263966 0.054375848 0.007874819)
(0.10115289 0.056027064 0.0076185475)
(0.10932608 0.057564826 0.0073250214)
(0.11774777 0.058975279 0.0070172595)
(0.12641536 0.060275489 0.0066967104)
(0.13529649 0.061442674 0.006372187)
(0.14437772 0.0625065 0.006036137)
(0.15362154 0.063438065 0.0057135381)
(0.1630179 0.064272966 0.0054050484)
(0.17254304 0.065003953 0.00511372)
(0.18216612 0.06563942 0.0048507338)
(0.19188678 0.066197623 0.00462108)
(0.20168701 0.066675635 0.0044253166)
(0.211557 0.067103664 0.0042630136)
(0.22149668 0.067472635 0.0041514497)
(0.23149113 0.067800714 0.0040716704)
(0.2415621 0.068095943 0.0040270375)
(0.25170231 0.068366292 0.0040140545)
(0.26192533 0.06861163 0.0040268136)
(0.27224737 0.068835615 0.0040543332)
(0.28267857 0.069043943 0.0040904811)
(0.29323543 0.069227231 0.0041234867)
(0.30393132 0.069385644 0.004146288)
(0.31477838 0.069512318 0.0041483445)
(0.32578746 0.069600059 0.0041220523)
(0.33696313 0.069641158 0.0040619376)
(0.34830816 0.069627663 0.0039639728)
(0.35981797 0.069551864 0.0038276974)
(0.37148471 0.069407824 0.0036550056)
(0.38329439 0.069190871 0.0034509634)
(0.39522995 0.068898999 0.0032230603)
(0.40727035 0.068532402 0.0029809282)
(0.41939353 0.068094086 0.0027354135)
(0.43157667 0.067589185 0.0024979362)
(0.44379861 0.067025091 0.0022792976)
(0.45604068 0.06641058 0.0020890089)
(0.46828841 0.065755292 0.001934504)
(0.48053203 0.06506926 0.0018204298)
(0.49276706 0.064362115 0.0017486264)
(0.50499467 0.063642432 0.0017177416)
(0.51722042 0.062917118 0.0017242105)
(0.52945468 0.062192362 0.0017608942)
(0.54171114 0.061470147 0.0018208633)
(0.55400348 0.060753309 0.0018948969)
(0.56635136 0.060039119 0.0019706586)
(0.57876489 0.059324741 0.0020446302)
(0.5912631 0.05860612 0.0021046425)
(0.60385765 0.057878648 0.0021418513)
(0.61655412 0.057130388 0.0021523813)
(0.62936013 0.056358329 0.0021330526)
(0.64227627 0.055553415 0.002081787)
(0.65529912 0.054708039 0.0019979701)
(0.66842328 0.053817444 0.0018838001)
(0.68163885 0.052875272 0.0017430008)
(0.69493382 0.051879315 0.0015797704)
(0.70829383 0.050825833 0.0014007284)
(0.72170304 0.049716848 0.0012114238)
(0.73514508 0.048550358 0.0010197767)
(0.74860395 0.047332993 0.00083089122)
(0.76206262 0.046066135 0.00065324358)
(0.77550854 0.044756117 0.00048993112)
(0.7889278 0.043408825 0.00034851299)
(0.80231191 0.042033019 0.00022813373)
(0.81565588 0.040635557 0.00013469943)
(0.82895588 0.039216982 6.3075974e-05)
(0.84220968 0.037794285 1.8338192e-05)
(0.85542393 0.036360512 -9.0971288e-06)
(0.8685989 0.034933999 -1.5957698e-05)
(0.88174682 0.033503574 -1.6335047e-05)
(0.8948733 0.032081926 -2.5706369e-06)
(0.90798407 0.030668202 3.7488182e-06)
(0.921096 0.029251052 1.6205631e-05)
(0.93420741 0.027848324 1.0614652e-05)
(0.94732566 0.026449795 4.970283e-06)
(0.0013855109 -0.0048666457 -0.0058774415)
(0.0027668504 -0.0067884063 -0.0066050221)
(0.0037678179 -0.0094591886 -0.008435784)
(0.0048751479 -0.011587667 -0.0089847922)
(0.0067303104 -0.014215972 -0.0095442126)
(0.0087677788 -0.016826674 -0.0097842287)
(0.011213359 -0.019338068 -0.009910705)
(0.014007178 -0.021999914 -0.0099140645)
(0.017177756 -0.024620619 -0.0098661943)
(0.02060532 -0.027225906 -0.009783481)
(0.024397118 -0.029869018 -0.0096722796)
(0.028447549 -0.032468462 -0.0095589438)
(0.03283089 -0.035096281 -0.0094283751)
(0.037491217 -0.037703434 -0.0093137305)
(0.042465124 -0.040301548 -0.0091723559)
(0.047742142 -0.042907763 -0.0090423866)
(0.053321994 -0.045480148 -0.0088829912)
(0.059229629 -0.048061437 -0.0087098637)
(0.065444323 -0.050621653 -0.0085207897)
(0.071973953 -0.0531474 -0.0082984601)
(0.078823217 -0.055665123 -0.0080451757)
(0.085975711 -0.058145577 -0.007777249)
(0.093416036 -0.060576337 -0.0074658767)
(0.10115734 -0.062987685 -0.0071385195)
(0.10914885 -0.065329447 -0.0067932658)
(0.11739939 -0.06762335 -0.0064213823)
(0.12587206 -0.069864553 -0.0060594009)
(0.13455284 -0.072032786 -0.005677319)
(0.14341575 -0.074151896 -0.0053178327)
(0.15243832 -0.076195214 -0.0049579408)
(0.161599 -0.078194402 -0.0046305106)
(0.17088053 -0.080124067 -0.0043242974)
(0.18026384 -0.082010338 -0.0040546698)
(0.18973429 -0.083848132 -0.0038211056)
(0.19928109 -0.085650878 -0.0036298823)
(0.20889654 -0.087421604 -0.0034793645)
(0.2185753 -0.089173768 -0.0033708424)
(0.22832197 -0.090917945 -0.0033015469)
(0.23814087 -0.09265586 -0.0032641207)
(0.2480419 -0.094404474 -0.0032543682)
(0.25803353 -0.096163109 -0.0032641951)
(0.2681329 -0.097940973 -0.0032842312)
(0.27835351 -0.099740266 -0.0033045753)
(0.28871164 -0.10156283 -0.0033160528)
(0.29922059 -0.10340782 -0.0033093094)
(0.30989286 -0.10527265 -0.0032767233)
(0.32073607 -0.10715262 -0.0032125386)
(0.3317546 -0.10904131 -0.0031130715)
(0.34294715 -0.11093135 -0.0029776915)
(0.35430747 -0.11281411 -0.0028083531)
(0.36582422 -0.11468125 -0.0026099812)
(0.37748134 -0.11652445 -0.002389926)
(0.38925927 -0.1183365 -0.0021575516)
(0.4011361 -0.12011175 -0.001923398)
(0.41308893 -0.12184647 -0.0016984897)
(0.42509563 -0.12353931 -0.0014931878)
(0.43713616 -0.12519131 -0.0013166193)
(0.44919397 -0.12680606 -0.0011756787)
(0.4612569 -0.12838916 -0.0010747666)
(0.47331786 -0.12994821 -0.0010153668)
(0.485375 -0.13149175 -0.00099613414)
(0.4974314 -0.13302913 -0.0010131955)
(0.50949472 -0.13456946 -0.0010603556)
(0.52157627 -0.13612126 -0.0011300073)
(0.53368991 -0.13769165 -0.0012133298)
(0.54585112 -0.13928611 -0.0013013331)
(0.55807541 -0.14090853 -0.0013850656)
(0.5703795 -0.14255972 -0.0014562299)
(0.58277244 -0.14424091 -0.0015093121)
(0.59527046 -0.14594483 -0.0015341291)
(0.60788153 -0.14767453 -0.0015325156)
(0.62060368 -0.14941636 -0.0014998631)
(0.63344295 -0.15116875 -0.0014363409)
(0.64639417 -0.15292162 -0.0013437378)
(0.65945064 -0.15466759 -0.0012254196)
(0.67260291 -0.1563988 -0.0010856698)
(0.68583819 -0.15810757 -0.00093066508)
(0.69914219 -0.15978759 -0.00076636216)
(0.71249883 -0.16143297 -0.00059981915)
(0.72589203 -0.16304043 -0.00043739439)
(0.73930497 -0.16460649 -0.00028592253)
(0.75272282 -0.16613166 -0.0001501599)
(0.76613141 -0.16761595 -3.5713208e-05)
(0.77951961 -0.16906305 5.5352658e-05)
(0.79287855 -0.17047617 0.00012005548)
(0.80620289 -0.17186183 0.00015943716)
(0.81949007 -0.17322492 0.00017369014)
(0.83274074 -0.17457329 0.00016634515)
(0.8459582 -0.17591247 0.00014065566)
(0.85914739 -0.17724929 0.00010114448)
(0.87231535 -0.1785885 5.2939641e-05)
(0.88546911 -0.17993513 3.8843974e-07)
(0.8986163 -0.18129218 -5.0803585e-05)
(0.91176316 -0.18266044 -9.8092568e-05)
(0.92491491 -0.18404461 -0.00013901786)
(0 -1.8041358e-19 0)
(0 -1.3173759e-19 0)
(0 1.233962e-19 0)
(0 -7.7973142e-20 0)
(0 -6.7142337e-20 0)
(0 3.7520963e-19 0)
(0 -1.1139436e-19 0)
(-2.5936106e-19 7.2497982e-20 0)
(0 -6.6260449e-20 0)
(0 1.6142411e-19 0)
(0 1.929264e-19 0)
(0 6.7480118e-20 0)
(0 3.5718028e-20 0)
(0 -7.2750828e-20 0)
(0 4.9452125e-20 0)
(0.0028412086 -0.0020908268 0.0043074692)
(0.0033008716 -0.0078561993 0.0066318405)
(0.0036660322 -0.0083953902 0.0076664597)
(0.0052466817 -0.012154492 0.0089022415)
(0.0067031864 -0.01402506 0.0092908866)
(0.0089350359 -0.016876655 0.0095266436)
(0.011295147 -0.019308812 0.0096218518)
(0.014199184 -0.022076 0.0096549481)
(0.017293592 -0.024574532 0.0095730646)
(0.020779748 -0.027305638 0.0094983408)
(0.024577549 -0.029906132 0.0094182944)
(0.028586461 -0.032491191 0.0092982507)
(0.033015191 -0.0351879 0.009206242)
(0.037609908 -0.037719101 0.0090862304)
(0.042643896 -0.040427685 0.0089802236)
(0.047866502 -0.042933596 0.0088547055)
(0.053457562 -0.045588134 0.0087265295)
(0.059362379 -0.048123881 0.0085541597)
(0.065563147 -0.050699066 0.0083793224)
(0.072124107 -0.053247062 0.0081562367)
(0.07895373 -0.055739474 0.0079304962)
(0.0861137 -0.058215357 0.0076441354)
(0.093567148 -0.060678193 0.0073473249)
(0.10131268 -0.063067639 0.0070152707)
(0.10931472 -0.065410409 0.0066670319)
(0.11757716 -0.067721819 0.0063062421)
(0.12605374 -0.069915878 0.00593442)
(0.13473822 -0.072138919 0.0055666873)
(0.14360805 -0.074207308 0.0052092782)
(0.15261894 -0.076286695 0.0048679262)
(0.16178836 -0.0782647 0.0045528832)
(0.17105761 -0.080198856 0.0042739536)
(0.1804344 -0.082078834 0.0040283582)
(0.18989323 -0.083912004 0.0038274257)
(0.19942553 -0.085711555 0.0036669849)
(0.20902682 -0.087483505 0.0035595652)
(0.21868691 -0.089227589 0.0034861404)
(0.22842473 -0.090965257 0.0034548737)
(0.23822739 -0.092699507 0.0034572983)
(0.24811556 -0.094439751 0.0034830562)
(0.25809711 -0.096192741 0.0035269584)
(0.26818785 -0.097963264 0.0035768193)
(0.27840273 -0.09975437 0.0036229293)
(0.28875767 -0.10156831 0.0036551683)
(0.29926621 -0.10340355 0.0036641346)
(0.30994063 -0.10525786 0.0036417003)
(0.32078852 -0.10712624 0.0035822115)
(0.33181394 -0.10900281 0.0034822119)
(0.34301506 -0.11087969 0.0033413353)
(0.35438546 -0.11274922 0.003162142)
(0.36591286 -0.11460269 0.0029503331)
(0.37758096 -0.11643257 0.0027140237)
(0.38936937 -0.11823185 0.0024636933)
(0.40125567 -0.11999531 0.0022107575)
(0.41321651 -0.12171965 0.0019672876)
(0.42522944 -0.12340373 0.0017443808)
(0.43727427 -0.12504895 0.0015518299)
(0.44933455 -0.12665883 0.0013968494)
(0.46139832 -0.12823909 0.0012840035)
(0.47345886 -0.129797 0.0012146057)
(0.48551472 -0.13134101 0.0011870628)
(0.49756949 -0.13287999 0.0011969634)
(0.50963123 -0.13442282 0.001237638)
(0.5217116 -0.1359775 0.0013008307)
(0.53382472 -0.13755097 0.0013771721)
(0.54598698 -0.1391486 0.001457042)
(0.55821182 -0.14077476 0.0015309039)
(0.57052488 -0.14242557 0.0015897742)
(0.58290948 -0.1441036 0.0016255107)
(0.59542564 -0.14581701 0.001637502)
(0.60803613 -0.14754243 0.0016161007)
(0.62076836 -0.14928434 0.0015615438)
(0.6336148 -0.15103545 0.0014744483)
(0.64657367 -0.15278661 0.0013569571)
(0.6596377 -0.15453073 0.0012130289)
(0.67279659 -0.1562598 0.0010478005)
(0.68603773 -0.15796666 0.00086778063)
(0.69934624 -0.15964473 0.00067978942)
(0.71270628 -0.16128869 0.0004911101)
(0.72610114 -0.16289465 0.00030875021)
(0.73951464 -0.16446012 0.00013939919)
(0.75293116 -0.1659846 -1.1403186e-05)
(0.76633739 -0.16746903 -0.00013897156)
(0.77972169 -0.16891633 -0.00024056131)
(0.79307614 -0.17033041 -0.00031457395)
(0.80639501 -0.17171697 -0.00036164251)
(0.81967688 -0.17308161 -0.00038352087)
(0.83292209 -0.1744315 -0.00038374766)
(0.8461348 -0.17577219 -0.00036655254)
(0.85931993 -0.17711081 -0.0003370747)
(0.87248477 -0.17845139 -0.00030053079)
(0.88563654 -0.17979981 -0.00026203396)
(0.89878273 -0.18115762 -0.00022646989)
(0.91192961 -0.18252955 -0.0001966994)
(0.92508416 -0.18391217 -0.00017605093)
(0.93964113 -0.17216081 -0.00015904318)
(0.94105923 -0.15900377 -0.00016001761)
(0.9424732 -0.14584686 -0.00015717407)
(0.94389195 -0.1326885 -0.00015304084)
(0.94530454 -0.11952507 -0.00014665037)
(0.94671937 -0.10636325 -0.00013698121)
(0.94812422 -0.093197486 -0.00012594267)
(0.94952889 -0.080032683 -0.00011369351)
(0.95092501 -0.066867699 -0.00010017838)
(0.95231809 -0.053706662 -8.5448158e-05)
(0.95370548 -0.040545551 -7.4935346e-05)
(0.95508568 -0.027388988 -5.8726779e-05)
(0.95646885 -0.014241993 -5.0670133e-05)
(0.95784533 -0.0010937261 -4.2238855e-05)
(0.95921928 0.012041951 -2.9994352e-05)
(0.94748444 0.026561584 -2.262354e-05)
(0.93436813 0.027961052 -1.1692342e-05)
(0.92126003 0.029362258 5.4654826e-06)
(0.90815247 0.030768701 3.093563e-05)
(0.89503933 0.032181789 5.4240411e-05)
(0.8819166 0.0336004 7.79998e-05)
(0.86877039 0.035025948 9.2948876e-05)
(0.85559596 0.036455146 9.5068729e-05)
(0.84238453 0.03788497 8.1735034e-05)
(0.82913189 0.039312746 4.6319383e-05)
(0.81583433 0.040729735 -9.9914637e-06)
(0.80249339 0.042133445 -9.1204096e-05)
(0.78911014 0.04351393 -0.00019501409)
(0.77569242 0.044864988 -0.00032122034)
(0.76224837 0.046179613 -0.00046635037)
(0.74879172 0.047450465 -0.00062538562)
(0.73533565 0.04867247 -0.00079275546)
(0.72189536 0.049841017 -0.00096315374)
(0.70848754 0.050952759 -0.0011298843)
(0.69512812 0.052006505 -0.0012868865)
(0.68183296 0.053002394 -0.0014282881)
(0.66861594 0.053942536 -0.0015488766)
(0.65548948 0.054830711 -0.0016445476)
(0.64246322 0.055671957 -0.0017121482)
(0.62954239 0.056473056 -0.0017497464)
(0.61673211 0.057241035 -0.0017599646)
(0.60402245 0.057990364 -0.0017398774)
(0.59143396 0.058700144 -0.001694215)
(0.57892374 0.059427927 -0.0016338958)
(0.56650174 0.06013611 -0.0015616695)
(0.55414817 0.060849625 -0.001484478)
(0.5418488 0.061566847 -0.0014117005)
(0.52958708 0.062289039 -0.0013525029)
(0.51734846 0.063014872 -0.0013144929)
(0.50511999 0.063740607 -0.0013050223)
(0.49289195 0.064460552 -0.0013295282)
(0.48065866 0.065167199 -0.0013913953)
(0.46841917 0.065851508 -0.001491705)
(0.4561776 0.066503762 -0.0016288727)
(0.44394314 0.067113717 -0.0017987591)
(0.43172963 0.067671676 -0.0019950014)
(0.41955478 0.068168692 -0.0022092786)
(0.40743904 0.068597649 -0.0024321812)
(0.39540429 0.068953249 -0.0026537125)
(0.38347235 0.069232873 -0.0028643203)
(0.37166354 0.069436304 -0.003055445)
(0.35999541 0.069566027 -0.0032203124)
(0.34848156 0.069626594 -0.003354246)
(0.33713118 0.069624841 -0.0034554556)
(0.3259483 0.069568068 -0.0035238839)
(0.31493211 0.069464749 -0.0035630294)
(0.30407762 0.069324206 -0.0035780599)
(0.29337536 0.069150438 -0.0035748293)
(0.28281252 0.068955579 -0.0035638425)
(0.2723803 0.068735143 -0.0035487594)
(0.26205465 0.068502202 -0.0035470115)
(0.25182655 0.068248331 -0.0035585968)
(0.24168769 0.067981166 -0.0035977158)
(0.23163122 0.067662336 -0.0036511093)
(0.22162288 0.067345322 -0.0037626399)
(0.2116933 0.066967487 -0.0039019455)
(0.20183478 0.066540193 -0.0040692475)
(0.1920285 0.066060335 -0.0042887239)
(0.18230542 0.065512552 -0.0045355441)
(0.17267445 0.064872219 -0.0048181901)
(0.16316605 0.064146469 -0.0051225133)
(0.15375036 0.063316862 -0.0054425261)
(0.14452891 0.062371815 -0.0057755114)
(0.13542898 0.061332058 -0.0061238452)
(0.12655132 0.060159908 -0.0064573673)
(0.11787754 0.058874799 -0.0067910276)
(0.10943616 0.057458316 -0.007105618)
(0.10129771 0.055906712 -0.0073969951)
(0.093373686 0.054284998 -0.0076806051)
(0.08577183 0.05252255 -0.0079240079)
(0.078502038 0.050635663 -0.008141375)
(0.071489771 0.048709585 -0.0083495624)
(0.064871089 0.046620214 -0.0085044482)
(0.058505396 0.044532579 -0.0086717995)
(0.052532114 0.042288933 -0.0087916073)
(0.046865703 0.040013694 -0.0089139023)
(0.041493917 0.037696146 -0.0090266568)
(0.036461967 0.035317017 -0.0091399504)
(0.031789921 0.032825095 -0.0092153091)
(0.027387659 0.030383791 -0.0093263183)
(0.023338069 0.027833859 -0.0093979664)
(0.019638857 0.025234502 -0.0094446295)
(0.016263387 0.022657354 -0.0094709979)
(0.013225977 0.020018294 -0.0094255171)
(0.010580903 0.017383589 -0.0093052175)
(0.0083102689 0.014679642 -0.0089921168)
(0.0065044899 0.011981322 -0.0085042623)
(0.0050404192 0.009571878 -0.0077681172)
(0.0038513498 0.0067678787 -0.0062401634)
(0.004215163 0.0043609232 -0.0037105838)
(0 2.0554807e-19 0)
(0 7.8187317e-20 0)
(0 2.0293628e-19 0)
(0 2.042886e-19 0)
(0 2.1291818e-19 0)
(0 1.2804543e-19 0)
(0 5.1044437e-21 0)
(0 -1.1602487e-19 -1.2730538e-19)
(0 1.3738877e-20 0)
(0 1.235172e-19 0)
(0 2.9783978e-19 0)
(0 2.6096977e-19 0)
(0 1.868064e-19 0)
(0 1.8053385e-19 0)
(0 2.0615478e-19 0)
(0 8.5747358e-19 0)
(0 3.6510085e-19 0)
(0 1.3398163e-19 0)
(0 2.4183004e-19 0)
(0 -2.105446e-20 0)
(0 5.6367115e-20 0)
(0 6.4230021e-19 0)
(0 -2.6137626e-19 -1.1334089e-19)
(0 3.8204661e-19 0)
(0 4.7759848e-19 0)
(0 1.578302e-19 0)
(0 6.4603133e-20 0)
(0 1.4994946e-19 0)
(0 2.7034876e-19 0)
(0 3.477406e-20 0)
(0.93810638 -0.1854199 -0.0001658827)
(0.93813402 -0.18540857 -0.00016056861)
(0.93816562 -0.1854053 -0.00015806735)
(0.93819731 -0.18541002 -0.00015834774)
(0.93822613 -0.1854161 -0.00015844206)
(0.9382512 -0.18542003 -0.0001613732)
(0.93827029 -0.18541857 -0.00016359368)
(0.9382823 -0.18541072 -0.00016680187)
(0.93828698 -0.18539512 -0.00016906949)
(0.9382851 -0.18537332 -0.00017204164)
(0.93827789 -0.18534775 -0.00017292158)
(0.93826769 -0.18532306 -0.00017387097)
(0.93825776 -0.18530167 -0.00017106775)
(0.9382464 -0.1852913 -0.00016941136)
(0.93824274 -0.18529085 -0.00016057532)
(0.96046511 0.025062976 -9.6831179e-06)
(0.9604867 0.025082495 -1.4700998e-05)
(0.96051649 0.025108732 -1.7076852e-05)
(0.96055133 0.025137359 -1.9355866e-05)
(0.96058555 0.025165881 -2.0257413e-05)
(0.96061699 0.025190793 -2.0487779e-05)
(0.9606415 0.025209696 -2.0053732e-05)
(0.96065696 0.025221167 -1.9074041e-05)
(0.96066243 0.025224362 -1.8026126e-05)
(0.96065869 0.025220123 -1.6558131e-05)
(0.96064766 0.025209325 -1.6015169e-05)
(0.96063291 0.025196135 -1.5057692e-05)
(0.96061856 0.025180473 -1.6393094e-05)
(0.96060677 0.025169714 -1.7521696e-05)
(0.96060569 0.025164576 -2.3307923e-05)
(0.0016514025 0.0035666314 0.0049191404)
(0.0025942757 0.0057929977 0.0057133513)
(0.0036478639 0.0082439399 0.0070013153)
(0.0052472191 0.010539758 0.0074920821)
(0.0069932313 0.012832836 0.0080015142)
(0.0093073555 0.015150859 0.0081952487)
(0.01189095 0.01743247 0.008339388)
(0.014939701 0.019753875 0.0083656743)
(0.018270673 0.022022331 0.0083648662)
(0.021989594 0.024288109 0.0083251699)
(0.026027765 0.026500569 0.0082493994)
(0.030405704 0.028699472 0.0081907882)
(0.035096157 0.030822422 0.0080990451)
(0.040113324 0.032921305 0.0080206996)
(0.045454706 0.034933735 0.0079222562)
(0.051126415 0.036912326 0.0078267885)
(0.057118199 0.038796124 0.0077106726)
(0.063428605 0.040628145 0.0075897125)
(0.070078322 0.042356192 0.0074430512)
(0.077046444 0.04402366 0.0072793352)
(0.084326128 0.045579509 0.0070958523)
(0.091922219 0.047047731 0.0068875122)
(0.099805943 0.048424797 0.0066564299)
(0.10796933 0.049685878 0.006412246)
(0.11640163 0.05085443 0.0061439254)
(0.12507247 0.05191459 0.0058720176)
(0.13395842 0.052878999 0.0055872275)
(0.14304155 0.053736597 0.005307613)
(0.15230143 0.054502755 0.0050303849)
(0.16170519 0.055185437 0.0047650055)
(0.17123527 0.055773689 0.0045167284)
(0.18087758 0.05629472 0.0042928671)
(0.19061084 0.056742968 0.0040971522)
(0.20041833 0.057133347 0.0039290554)
(0.21029642 0.05746767 0.0037955948)
(0.22023485 0.057754236 0.0036933597)
(0.23023346 0.058005993 0.0036237173)
(0.24029708 0.058214536 0.0035857712)
(0.25043358 0.058399383 0.0035678995)
(0.26064623 0.058547102 0.0035775328)
(0.27095643 0.058668129 0.0035961009)
(0.28137063 0.058758838 0.0036219306)
(0.29191019 0.058814397 0.0036465583)
(0.30258593 0.058833798 0.0036613035)
(0.31341291 0.058812464 0.0036580545)
(0.32440107 0.058745302 0.0036319176)
(0.33555752 0.058627643 0.003577035)
(0.3468846 0.058455431 0.0034911995)
(0.35837938 0.058224935 0.0033734823)
(0.37003411 0.057934453 0.0032259079)
(0.38183569 0.057582979 0.0030524873)
(0.39376698 0.057171813 0.0028595735)
(0.40580721 0.056703378 0.0026549611)
(0.41793385 0.056181884 0.0024476977)
(0.43012361 0.055612454 0.0022470231)
(0.44235444 0.055001249 0.0020618506)
(0.45460677 0.054354604 0.00190001)
(0.46686489 0.053679018 0.0017675964)
(0.47911794 0.052980545 0.0016684929)
(0.49136044 0.052264593 0.001604237)
(0.50359249 0.051535451 0.0015740869)
(0.51581918 0.050796567 0.0015746699)
(0.52805034 0.05004996 0.0016007769)
(0.54029959 0.049296397 0.001646646)
(0.55258094 0.048534919 0.0017031193)
(0.56491482 0.047764204 0.0017635416)
(0.57731486 0.046981486 0.0018225346)
(0.58979325 0.046182953 0.0018668658)
(0.6023666 0.045364861 0.00189799)
(0.61504561 0.044520446 0.0019021509)
(0.62783324 0.043648629 0.0018831193)
(0.64073273 0.042741583 0.0018363814)
(0.65374216 0.04179722 0.0017628337)
(0.66685616 0.040811455 0.0016637348)
(0.68006532 0.039781918 0.0015419858)
(0.69335808 0.03870784 0.001401594)
(0.70671998 0.037588552 0.0012475506)
(0.72013531 0.036425654 0.001085119)
(0.73358708 0.035220195 0.00092038955)
(0.74705864 0.0339769 0.0007581325)
(0.76053333 0.032697727 0.00060481781)
(0.77399695 0.031387659 0.00046425159)
(0.78743583 0.030051646 0.00033970829)
(0.80083879 0.028696568 0.00023555906)
(0.81419982 0.027322898 0.00015147595)
(0.82751836 0.025939 8.8395737e-05)
(0.84078644 0.024546087 4.4565396e-05)
(0.8540153 0.023147785 1.707315e-05)
(0.86719838 0.021746348 3.777894e-06)
(0.8803569 0.020343094 1.9970938e-07)
(0.89348535 0.018938874 1.8691976e-06)
(0.90660157 0.017535508 4.9858102e-06)
(0.91971335 0.016128352 7.1499811e-06)
(0.9328221 0.014727525 5.8555926e-07)
(0.94593837 0.013327066 -6.6562226e-06)
(0.00045137825 0.0031603274 0.0042959886)
(0.0013163465 0.0043923586 0.0052049795)
(0.0027071744 0.006897666 0.0060091331)
(0.0040960709 0.0086906583 0.0066104697)
(0.0059888911 0.010831309 0.0069018132)
(0.0082006157 0.012786724 0.0070930727)
(0.010851952 0.014854422 0.0071753396)
(0.013817788 0.016831054 0.0072135575)
(0.01718028 0.018821889 0.0072096693)
(0.020880377 0.02076348 0.0071553738)
(0.024913806 0.022685646 0.0071195098)
(0.029277489 0.024555886 0.007039412)
(0.033961453 0.026390236 0.0069812563)
(0.038979043 0.028163523 0.0068974097)
(0.04430954 0.029888499 0.0068267904)
(0.049975846 0.031546059 0.0067277354)
(0.055948316 0.033144302 0.0066413788)
(0.062270503 0.034661704 0.0065272955)
(0.068902079 0.036111752 0.0064065571)
(0.075865119 0.037475395 0.0062647649)
(0.083139064 0.038757835 0.006108358)
(0.090725504 0.039956629 0.0059276772)
(0.098603698 0.041061575 0.0057385042)
(0.1067685 0.042079522 0.0055262272)
(0.11519316 0.043003226 0.0053052128)
(0.1238589 0.043846034 0.005070408)
(0.13274519 0.044591702 0.004835909)
(0.14183059 0.045258944 0.0045992075)
(0.15108536 0.045844612 0.0043655092)
(0.16049056 0.046355066 0.0041431114)
(0.17002531 0.046794173 0.0039387091)
(0.17966553 0.047170452 0.003749543)
(0.18939424 0.047489637 0.0035830082)
(0.19920015 0.047753196 0.003443411)
(0.20907702 0.047973651 0.0033276179)
(0.21901186 0.048151528 0.003244368)
(0.22901115 0.048289011 0.0031857224)
(0.23907105 0.048392891 0.0031499693)
(0.24919828 0.048461279 0.0031382467)
(0.25940507 0.048498419 0.0031422806)
(0.26970496 0.048498495 0.0031548279)
(0.28011041 0.048467475 0.0031745802)
(0.29063833 0.048393489 0.0031924118)
(0.30130232 0.048281679 0.0032011393)
(0.31211689 0.048123902 0.0031953451)
(0.32309262 0.047918944 0.003170372)
(0.33423606 0.047662668 0.0031217188)
(0.34555023 0.047353857 0.0030472819)
(0.35703239 0.046990838 0.0029466143)
(0.36867508 0.046574102 0.0028213468)
(0.38046554 0.046104719 0.0026748489)
(0.39238687 0.045585618 0.0025123956)
(0.40441859 0.045020331 0.0023404694)
(0.41653832 0.04441361 0.0021664429)
(0.42872286 0.043770491 0.0019979317)
(0.44095015 0.043096318 0.0018422639)
(0.45320041 0.042396165 0.0017058052)
(0.46545766 0.041674748 0.0015935184)
(0.47771069 0.040935942 0.0015086262)
(0.48995345 0.040182849 0.0014524391)
(0.50218556 0.039417553 0.0014242212)
(0.51441152 0.038641151 0.0014212696)
(0.5266409 0.037854005 0.0014395846)
(0.5388867 0.037054999 0.0014740861)
(0.55116298 0.036242879 0.0015172565)
(0.56349032 0.035417129 0.0015656015)
(0.5758749 0.034572733 0.0016084398)
(0.58834184 0.033708214 0.001644527)
(0.60090545 0.032813923 0.0016633319)
(0.6135713 0.031892795 0.0016660699)
(0.62634799 0.030940483 0.0016472695)
(0.63923574 0.029954706 0.0016065153)
(0.65223596 0.028932454 0.0015435361)
(0.66534234 0.027873247 0.0014586668)
(0.67854637 0.026776001 0.0013552738)
(0.69183641 0.025641695 0.0012357303)
(0.70519803 0.024469959 0.0011051753)
(0.71861586 0.023264276 0.00096692556)
(0.73207218 0.022025271 0.00082689537)
(0.74555135 0.02075823 0.00068843053)
(0.75903464 0.019463709 0.0005578566)
(0.77250909 0.018149039 0.00043638729)
(0.78595901 0.016812981 0.00033055698)
(0.79937475 0.015464257 0.00023561078)
(0.81275054 0.01410388 0.00016104347)
(0.82607928 0.012731058 0.00010464604)
(0.83935957 0.011352778 6.2977145e-05)
(0.85259744 0.0099663205 3.5566529e-05)
(0.86579214 0.0085799829 1.9908126e-05)
(0.87895594 0.007184993 1.0530728e-05)
(0.89209391 0.0057911074 8.912294e-06)
(0.90521225 0.0043939247 4.6192776e-06)
(0.91832972 0.0029915994 4.2079989e-06)
(0.93143729 0.0015939669 -6.0542577e-06)
(0.9445549 0.00019542898 -1.2729769e-05)
(-0.00022105105 0.0024498516 0.003767402)
(0.00059672626 0.0035876185 0.004376471)
(0.0015568559 0.0054907378 0.005222612)
(0.0031135864 0.0071370233 0.0056056345)
(0.004941521 0.0088673763 0.0058234876)
(0.0072514183 0.010626979 0.0059419475)
(0.0098366285 0.01231658 0.0060213435)
(0.012867261 0.014018185 0.0060411413)
(0.016206282 0.015660872 0.0060034845)
(0.019906011 0.01731988 0.0059926367)
(0.023929759 0.018894294 0.0059246235)
(0.028292539 0.020476548 0.0058865169)
(0.032972293 0.021972331 0.0058125503)
(0.037974967 0.023456809 0.0057644316)
(0.043305374 0.024856596 0.0056808907)
(0.048952091 0.026224381 0.0056230097)
(0.054936123 0.027507335 0.0055310578)
(0.061235072 0.028743492 0.0054472407)
(0.067865591 0.029893557 0.0053400261)
(0.074817896 0.030982231 0.0052270441)
(0.082086059 0.031988768 0.0050935442)
(0.089664531 0.03291744 0.0049518618)
(0.097536751 0.033769593 0.0047895661)
(0.10569036 0.03453816 0.0046196356)
(0.1141063 0.035233116 0.0044346679)
(0.12276638 0.035844977 0.0042469467)
(0.13164594 0.036384756 0.0040534337)
(0.14072033 0.036852328 0.0038589172)
(0.14997027 0.037250113 0.0036705711)
(0.15936948 0.037584512 0.003491303)
(0.16889443 0.037859203 0.0033215468)
(0.17852836 0.038080908 0.0031680595)
(0.1882534 0.038251312 0.0030347976)
(0.19805634 0.038377668 0.0029209734)
(0.2079259 0.038462319 0.0028302481)
(0.21785429 0.038509845 0.0027614099)
(0.22784035 0.038522962 0.0027125442)
(0.23788754 0.038501058 0.0026875891)
(0.24801004 0.038448455 0.0026759535)
(0.25820958 0.038360104 0.0026772211)
(0.26850045 0.038240137 0.0026902335)
(0.27889808 0.038081563 0.0027050413)
(0.28941626 0.037884037 0.0027194333)
(0.30007097 0.037644987 0.0027254817)
(0.31087554 0.037361041 0.0027201857)
(0.32184005 0.037030053 0.0026992362)
(0.33297202 0.03664979 0.0026585954)
(0.34427419 0.036219943 0.0025971256)
(0.35574397 0.035740052 0.0025142139)
(0.36737404 0.035211742 0.0024112695)
(0.37915187 0.034637186 0.0022909953)
(0.39106076 0.034019971 0.0021577908)
(0.40308058 0.033364139 0.0020167621)
(0.41518914 0.032674578 0.0018739734)
(0.42736361 0.031956054 0.0017355596)
(0.43958203 0.031213428 0.0016074398)
(0.45182484 0.030450931 0.0014947275)
(0.46407602 0.029672268 0.0014014968)
(0.47632422 0.028880031 0.0013303991)
(0.48856321 0.028076269 0.0012823819)
(0.50079219 0.027261541 0.001257051)
(0.51301542 0.02643615 0.0012521445)
(0.52524213 0.025598732 0.00126477)
(0.53748411 0.024748167 0.0012898897)
(0.5497574 0.023882097 0.0013234874)
(0.56207689 0.022997675 0.0013584489)
(0.57446342 0.022096071 0.0013948971)
(0.58693154 0.02116359 0.0014166419)
(0.59948429 0.020203812 0.0014351896)
(0.61214335 0.019219465 0.0014334263)
(0.62491084 0.01820377 0.0014157578)
(0.63779242 0.017155403 0.0013788613)
(0.65078561 0.01607349 0.0013232)
(0.66388504 0.014957838 0.0012505691)
(0.67708225 0.013807574 0.0011628677)
(0.69036682 0.012624336 0.0010621834)
(0.70372409 0.011409921 0.00095264147)
(0.7171388 0.010166641 0.00083718631)
(0.73059415 0.0088967118 0.00072035933)
(0.74407286 0.0076039002 0.00060551301)
(0.75755851 0.0062906638 0.00049658668)
(0.77103544 0.0049618957 0.00039557711)
(0.78449062 0.003617194 0.00030741293)
(0.79791477 0.002264111 0.00022766404)
(0.81129653 0.00090226217 0.00017045609)
(0.82463275 -0.00046539043 0.00011798981)
(0.8379217 -0.0018395173 8.1931137e-05)