/*--------------------------------*- C++ -*----------------------------------*\
  =========                 |
  \\      /  F ield         | OpenFOAM: The Open Source CFD Toolbox
   \\    /   O peration     | Website:  https://openfoam.org
    \\  /    A nd           | Version:  6
     \\/     M anipulation  |
\*---------------------------------------------------------------------------*/
FoamFile
{
    version     2.0;
    format      ascii;
    class       pointVectorField;
    location    "1.11";
    object      u;
}
// * * * * * * * * * * * * * * * * * * * * * * * * * * * * * * * * * * * * * //

dimensions      [0 1 0 0 0 0 0];

internalField   nonuniform List<vector> 
28033
(
(0 0 0)
(0 0 0)
(2.3472986 -0.25910607 0.011278138)
(2.1902622 -0.79629012 0.010248184)
(0 0 0)
(0 0 0)
(2.190002 -0.79836946 0.0099127013)
(2.3470376 -0.26124144 0.010749554)
(0 0 0)
(0 0 0)
(0 0 0)
(0 0 0)
(0 0 0)
(0 0 0)
(0 0 0)
(0 0 0)
(0 0 0)
(0 0 0)
(0 0 0)
(0 0 0)
(0 0 0)
(0 0 0)
(0 0 0)
(2.3371484 -0.29310923 0.010979266)
(2.3270934 -0.32674495 0.010897292)
(2.3171038 -0.36027557 0.010787775)
(2.3072061 -0.39375944 0.010747594)
(2.2973649 -0.42717891 0.010721391)
(2.2875697 -0.46056737 0.010714931)
(2.2778295 -0.49393609 0.010727996)
(2.2681236 -0.52731009 0.010748357)
(2.258447 -0.56069588 0.010764467)
(2.2487806 -0.59412174 0.010782285)
(2.2391283 -0.62758586 0.010775617)
(2.2294511 -0.66112073 0.010741673)
(2.219781 -0.69472495 0.010693489)
(2.2100276 -0.72842092 0.010617131)
(2.2002702 -0.76224898 0.010467787)
(0.0056581502 0.0086771701 0.0095471542)
(0.0069552496 0.013639484 0.013000548)
(0.0089805982 0.018844355 0.015673296)
(0.011977683 0.024194192 0.017281649)
(0.015507023 0.029673151 0.018321103)
(0.020097764 0.035188929 0.01899402)
(0.02545452 0.040790758 0.019386904)
(0.031725613 0.046187291 0.01955068)
(0.038786372 0.051692042 0.019611749)
(0.046729053 0.056917194 0.019567751)
(0.055385999 0.06212512 0.019458471)
(0.064863015 0.067092842 0.019271372)
(0.075048769 0.071958177 0.019136295)
(0.086048959 0.076591954 0.018882373)
(0.097648296 0.08104451 0.018717153)
(0.11001744 0.085281822 0.018449872)
(0.12302642 0.089329807 0.01827644)
(0.13673023 0.093121471 0.01803306)
(0.15102706 0.096720895 0.017844262)
(0.16599083 0.1000769 0.017614035)
(0.18152576 0.10320798 0.017447882)
(0.19768908 0.10610641 0.017227082)
(0.21440611 0.1087643 0.017076401)
(0.23171601 0.11120575 0.016893734)
(0.24954301 0.11338648 0.016743426)
(0.26793432 0.11536043 0.016593025)
(0.2868291 0.11707132 0.016469233)
(0.30625916 0.11858307 0.016341492)
(0.32617349 0.11982603 0.016229615)
(0.34658481 0.12085937 0.016135172)
(0.36748713 0.12166064 0.016040735)
(0.38884276 0.12222554 0.015957414)
(0.41067156 0.12256693 0.015891063)
(0.4329574 0.12266348 0.015823496)
(0.45568618 0.12255287 0.0157609)
(0.47886324 0.12220098 0.015703753)
(0.50245661 0.12162398 0.015658399)
(0.52649693 0.12082254 0.015611473)
(0.55093119 0.11978703 0.015553988)
(0.57579364 0.11853274 0.015511703)
(0.6010454 0.11703873 0.015459961)
(0.62670037 0.11533389 0.015414649)
(0.65274295 0.1133865 0.015356542)
(0.67917179 0.11122152 0.015306692)
(0.70596531 0.10881841 0.015246482)
(0.73313374 0.10619406 0.015186935)
(0.76064975 0.10333678 0.015123165)
(0.78852368 0.10025158 0.015055166)
(0.8167282 0.096937614 0.014984652)
(0.84527178 0.093393628 0.014910099)
(0.87412935 0.089622397 0.014831936)
(0.9033039 0.085620769 0.014750624)
(0.93277637 0.081394504 0.014665716)
(0.96254201 0.076938448 0.014577746)
(0.99258797 0.072260607 0.014486249)
(1.0229037 0.067356577 0.014392529)
(1.0534793 0.062233301 0.014295225)
(1.0843028 0.05688995 0.014196067)
(1.1153635 0.051331983 0.014094232)
(1.14665 0.045559992 0.013990863)
(1.1781517 0.039581261 0.013885354)
(1.2098574 0.033395784 0.013778894)
(1.241754 0.027014166 0.01367208)
(1.2738373 0.020429539 0.01356187)
(1.3060856 0.013668391 0.013458323)
(1.3385014 0.0067109453 0.013346227)
(1.3710599 -0.0004225099 0.013243375)
(1.4037648 -0.0077279996 0.013138253)
(1.436598 -0.015199203 0.013028184)
(1.469558 -0.02283139 0.012926174)
(1.5026286 -0.030618277 0.012826313)
(1.5358034 -0.038556301 0.012729016)
(1.569082 -0.046627657 0.012629311)
(1.6024414 -0.054851273 0.012539114)
(1.635897 -0.063181021 0.012441028)
(1.6694125 -0.071670059 0.012358564)
(1.7030144 -0.080233852 0.012262616)
(1.7366627 -0.088964205 0.012186854)
(1.7703822 -0.097741874 0.012094059)
(1.8041384 -0.10668523 0.0120257)
(1.8379535 -0.11566645 0.011934271)
(1.8717913 -0.12478781 0.011874493)
(1.9056793 -0.13395975 0.011789634)
(1.9395733 -0.14323926 0.011734765)
(1.973511 -0.15257336 0.011663065)
(2.0074503 -0.16198957 0.0116086)
(2.04141 -0.17148243 0.011551699)
(2.0753681 -0.18101254 0.011508245)
(2.1093353 -0.19062821 0.011458696)
(2.1432921 -0.20025241 0.011428921)
(2.1772383 -0.20998991 0.011413312)
(2.2112038 -0.21964636 0.011369657)
(2.2451163 -0.22947322 0.011414268)
(2.2790981 -0.23921873 0.011385757)
(2.3130415 -0.24899446 0.01144418)
(0.0022987432 -0.010156084 -0.011616202)
(0.0042189662 -0.013679688 -0.013763059)
(0.005468966 -0.018881053 -0.017769897)
(0.006923013 -0.023166101 -0.019175458)
(0.010032519 -0.028470026 -0.020577043)
(0.013561958 -0.034023712 -0.021244306)
(0.018000673 -0.039140164 -0.021676365)
(0.023243962 -0.044916147 -0.021730549)
(0.029358794 -0.050500525 -0.021702668)
(0.036050273 -0.056192145 -0.021499523)
(0.043603099 -0.06199529 -0.0212184)
(0.051701135 -0.067766972 -0.020888145)
(0.060573744 -0.073660552 -0.020479998)
(0.069999294 -0.079562167 -0.020116224)
(0.080105827 -0.085476661 -0.019657355)
(0.090782223 -0.091508635 -0.019270697)
(0.10206618 -0.097451833 -0.018812085)
(0.1139368 -0.10358249 -0.018391053)
(0.12636385 -0.10964307 -0.017959812)
(0.13938803 -0.11583518 -0.017537705)
(0.15291446 -0.12199771 -0.017093689)
(0.1670273 -0.12831244 -0.016697518)
(0.18160054 -0.13454146 -0.01626785)
(0.19676614 -0.14099059 -0.01585586)
(0.21235365 -0.14735422 -0.015462163)
(0.22854069 -0.15391127 -0.015028924)
(0.24511402 -0.16044331 -0.014673836)
(0.26226628 -0.16711742 -0.014241965)
(0.27980024 -0.17382295 -0.013899273)
(0.29787458 -0.18063187 -0.013482798)
(0.3163386 -0.18752756 -0.013137444)
(0.33530493 -0.19450112 -0.012753308)
(0.35466838 -0.20157511 -0.01240688)
(0.37450453 -0.20873819 -0.012040782)
(0.394741 -0.21600565 -0.011697868)
(0.41541833 -0.22335765 -0.01135874)
(0.43650255 -0.23081366 -0.011005248)
(0.45800559 -0.23839025 -0.010674374)
(0.47990879 -0.24605012 -0.010338074)
(0.50222265 -0.2538306 -0.010006059)
(0.52492767 -0.26171257 -0.0096748726)
(0.54802945 -0.26970303 -0.0093446326)
(0.57151693 -0.2778032 -0.0090122132)
(0.59539008 -0.28601122 -0.0086797366)
(0.61963883 -0.29432761 -0.0083437745)
(0.64426542 -0.30275321 -0.0080037279)
(0.66925623 -0.31128458 -0.007660396)
(0.69461487 -0.31992364 -0.0073098528)
(0.72032826 -0.32866706 -0.0069544907)
(0.74639651 -0.3375134 -0.0065911282)
(0.77280964 -0.34646184 -0.0062207708)
(0.79956411 -0.35550871 -0.0058424023)
(0.82665112 -0.36465171 -0.0054560044)
(0.85406593 -0.37388897 -0.0050615131)
(0.88179889 -0.38321563 -0.0046592987)
(0.9098445 -0.39262897 -0.0042496423)
(0.93819324 -0.40212616 -0.0038329391)
(0.96683783 -0.4117011 -0.0034103435)
(0.99576872 -0.42135154 -0.0029824884)
(1.0249785 -0.43107267 -0.0025501073)
(1.0544564 -0.44085928 -0.0021149659)
(1.0841948 -0.4507079 -0.0016775666)
(1.1141834 -0.46061379 -0.0012394284)
(1.1444136 -0.47057227 -0.00080136972)
(1.174875 -0.4805785 -0.00036541514)
(1.2055598 -0.49063044 6.921479e-05)
(1.2364572 -0.50072046 0.00049849441)
(1.2675595 -0.5108492 0.00092573503)
(1.2988574 -0.52100457 0.0013429179)
(1.3303407 -0.5311853 0.0017641343)
(1.3620005 -0.54140305 0.0021702361)
(1.3938314 -0.55162582 0.0025734039)
(1.4258237 -0.56188122 0.0029694965)
(1.4579682 -0.57213777 0.003356612)
(1.4902604 -0.58241637 0.0037399831)
(1.5226881 -0.59269378 0.0041105339)
(1.5552486 -0.60298375 0.0044800784)
(1.5879323 -0.61326977 0.0048362902)
(1.620732 -0.62356075 0.0051907387)
(1.6536428 -0.6338424 0.0055331849)
(1.6866558 -0.64412421 0.0058733266)
(1.7197667 -0.65439052 0.0062025516)
(1.7529664 -0.66465122 0.006529213)
(1.786252 -0.6748925 0.0068457885)
(1.8196127 -0.68511997 0.0071585394)
(1.8530466 -0.69532608 0.0074630798)
(1.8865436 -0.70551034 0.0077625686)
(1.9200999 -0.71566845 0.0080523778)
(1.9537062 -0.72580347 0.0083399878)
(1.987361 -0.73590571 0.0086149502)
(2.0210502 -0.74598012 0.0088855509)
(2.0547793 -0.75603303 0.0091463589)
(2.0885293 -0.76606102 0.0094093606)
(2.1223382 -0.77607395 0.0096464427)
(2.1561664 -0.78614239 0.0099252597)
(0 0 0)
(0 0 0)
(0 0 0)
(0 0 0)
(0 0 0)
(0 0 0)
(0 0 0)
(0 0 0)
(0 0 0)
(0 0 0)
(0 0 0)
(0 0 0)
(0 0 0)
(0 0 0)
(0 0 0)
(0.0054825337 -0.004243473 0.0084894748)
(0.0056681892 -0.016103319 0.013562098)
(0.0054079992 -0.016769825 0.016376067)
(0.0077417597 -0.02466107 0.01910591)
(0.010056931 -0.028412016 0.020328737)
(0.013988763 -0.034456249 0.020937552)
(0.018226922 -0.039499845 0.02138548)
(0.023736857 -0.045606262 0.021522113)
(0.029677833 -0.050899713 0.021501921)
(0.036472566 -0.057004914 0.021311636)
(0.044074014 -0.062734802 0.021209775)
(0.052049257 -0.068503643 0.02083639)
(0.061050561 -0.074720088 0.020672955)
(0.070289323 -0.080309906 0.020242696)
(0.080570326 -0.086841128 0.020061412)
(0.09106093 -0.092383727 0.019682525)
(0.10243485 -0.098893504 0.019467139)
(0.11419594 -0.10461961 0.019054449)
(0.12665547 -0.11115148 0.018864949)
(0.13962874 -0.11710608 0.018502912)
(0.15310766 -0.12352713 0.018312237)
(0.1672265 -0.12978318 0.018001965)
(0.18175714 -0.13619269 0.017816288)
(0.19689872 -0.14262742 0.017569941)
(0.21247073 -0.14906747 0.017367192)
(0.22860751 -0.15570281 0.017178352)
(0.24517889 -0.16222153 0.016987394)
(0.26226488 -0.16902467 0.016830265)
(0.27980442 -0.17569102 0.01666823)
(0.29780529 -0.18261731 0.016535872)
(0.31627518 -0.18949968 0.016404313)
(0.33518317 -0.19653156 0.016288738)
(0.35454067 -0.20361813 0.016179151)
(0.37433192 -0.21081502 0.016075508)
(0.39455999 -0.21810688 0.015986944)
(0.41520474 -0.22544303 0.015888313)
(0.43627008 -0.23297151 0.015809444)
(0.45775845 -0.2405321 0.01572714)
(0.47964691 -0.2482209 0.015649259)
(0.50194716 -0.25600789 0.015566507)
(0.52464357 -0.26390759 0.015488221)
(0.54773517 -0.27191007 0.015406)
(0.57121707 -0.28002614 0.015322509)
(0.59508316 -0.28824792 0.01523673)
(0.61932821 -0.29658109 0.01514743)
(0.64394817 -0.30502276 0.015055351)
(0.66893619 -0.31357208 0.014958763)
(0.69428809 -0.32222939 0.014858816)
(0.71999688 -0.33099133 0.014754736)
(0.74605764 -0.33985731 0.014646699)
(0.77246297 -0.34882409 0.014535453)
(0.79920836 -0.35788956 0.014418976)
(0.82628542 -0.36705087 0.014300586)
(0.85368884 -0.37630321 0.014176566)
(0.88141008 -0.38564638 0.014051149)
(0.90944347 -0.39507177 0.013920432)
(0.937779 -0.40458043 0.013788977)
(0.96641122 -0.41416414 0.013653116)
(0.99532948 -0.4238209 0.013516485)
(1.0245272 -0.43354558 0.013377497)
(1.053994 -0.44333357 0.013237589)
(1.0837224 -0.45318063 0.013096891)
(1.1137019 -0.46308275 0.012956287)
(1.1439247 -0.47303429 0.012815844)
(1.1743803 -0.48303234 0.012676335)
(1.2050603 -0.4930731 0.012538236)
(1.2359563 -0.5031479 0.012400775)
(1.2670566 -0.51327183 0.01226964)
(1.2983586 -0.52338924 0.012136725)
(1.3298339 -0.53357911 0.012006629)
(1.3615068 -0.543765 0.011882221)
(1.3933388 -0.55397672 0.011761234)
(1.4253395 -0.56420559 0.011640106)
(1.4574921 -0.57444926 0.01152562)
(1.4897924 -0.58470298 0.011412102)
(1.522232 -0.59496568 0.011302977)
(1.5548032 -0.60523377 0.011195861)
(1.5874995 -0.61550487 0.01109311)
(1.6203125 -0.62577621 0.010992273)
(1.6532369 -0.63604463 0.010895886)
(1.6862638 -0.64630836 0.010801165)
(1.7193889 -0.6565644 0.010711521)
(1.7526027 -0.66680927 0.010623569)
(1.7859017 -0.67704248 0.010541081)
(1.8192764 -0.68725814 0.010461138)
(1.8527227 -0.69745783 0.010387824)
(1.8862319 -0.70763309 0.010317157)
(1.9197992 -0.71778992 0.010255768)
(1.9534161 -0.72791481 0.010197441)
(1.9870784 -0.73802064 0.010151071)
(2.020776 -0.74808852 0.010107845)
(2.0545098 -0.7581449 0.01008082)
(2.0882646 -0.76816305 0.010051783)
(2.1220773 -0.77819532 0.010040385)
(2.155871 -0.78824852 0.01000514)
(2.2000477 -0.76434226 0.0098228942)
(2.2097899 -0.73054857 0.0097849978)
(2.2195323 -0.69681114 0.0098196248)
(2.2292109 -0.66322416 0.0098625113)
(2.2388877 -0.62968626 0.0099637547)
(2.2485328 -0.59621689 0.010059228)
(2.2582011 -0.56280343 0.010195467)
(2.2678728 -0.52940044 0.010324231)
(2.2775899 -0.49605317 0.010452929)
(2.287312 -0.46265947 0.010586854)
(2.2971143 -0.42929495 0.010690286)
(2.306944 -0.39586238 0.010782384)
(2.3168528 -0.36241135 0.010852324)
(2.3267867 -0.32882825 0.010878474)
(2.336885 -0.29526751 0.010874245)
(2.3128306 -0.25114789 0.010365026)
(2.2787986 -0.24138143 0.010151369)
(2.2448751 -0.23158781 0.0099092057)
(2.2109298 -0.22182947 0.0096837726)
(2.1769885 -0.21210526 0.0094276963)
(2.1430359 -0.20242018 0.0091745835)
(2.1090769 -0.19278124 0.0089089274)
(2.0751135 -0.18319078 0.0086343893)
(2.0411498 -0.17366233 0.0083563148)
(2.0071931 -0.16419064 0.008066096)
(1.9732443 -0.15479084 0.0077735889)
(1.9393129 -0.14546062 0.0074720145)
(1.9054004 -0.13620842 0.0071643692)
(1.871512 -0.12703474 0.0068457395)
(1.8376579 -0.11795289 0.0065235048)
(1.8038423 -0.10896031 0.0061935224)
(1.7700708 -0.10006648 0.005858764)
(1.7363478 -0.091275031 0.0055157411)
(1.7026819 -0.082589536 0.0051659754)
(1.6690769 -0.074019281 0.0048095259)
(1.6355416 -0.065564328 0.0044455104)
(1.6020808 -0.05723581 0.0040744432)
(1.5687034 -0.049032875 0.0036958274)
(1.535414 -0.040968447 0.0033103656)
(1.5022242 -0.03304011 0.0029177629)
(1.4691391 -0.025256346 0.0025189196)
(1.4361553 -0.017629103 0.0021104755)
(1.4033343 -0.010188209 0.0017114323)
(1.3706022 -0.0028634612 0.0012924337)
(1.3380308 0.0042644672 0.00087352914)
(1.3056068 0.011223179 0.0004495891)
(1.2733475 0.017998565 2.6031921e-05)
(1.2412584 0.024586938 -0.00039922626)
(1.2093532 0.03098261 -0.00082494583)
(1.1776417 0.037180155 -0.0012491621)
(1.1461355 0.043175934 -0.0016715088)
(1.1148455 0.048964086 -0.0020907608)
(1.0837834 0.054541939 -0.0025056214)
(1.0529602 0.059904447 -0.0029154115)
(1.022387 0.065049663 -0.0033193149)
(0.99207501 0.069973348 -0.0037165437)
(0.96203501 0.074674313 -0.0041064971)
(0.93227733 0.079149389 -0.004489323)
(0.90281264 0.083397799 -0.0048641378)
(0.87365061 0.087417605 -0.0052316788)
(0.84480128 0.091208313 -0.0055917181)
(0.81627368 0.094769103 -0.0059447914)
(0.78807728 0.098099731 -0.0062914031)
(0.7602204 0.10120004 -0.0066323646)
(0.73271222 0.10407102 -0.0069681792)
(0.70556006 0.10671031 -0.0072993174)
(0.67877253 0.10912471 -0.0076289266)
(0.65235777 0.11130351 -0.0079525448)
(0.62632192 0.11326276 -0.0082804275)
(0.60067478 0.11498695 -0.008601416)
(0.5754248 0.11648944 -0.008925908)
(0.55056687 0.11777196 -0.009252561)
(0.5261182 0.11882422 -0.0095828716)
(0.50212233 0.11961552 -0.0098906836)
(0.47850035 0.12025081 -0.010241785)
(0.45532069 0.12062372 -0.010577049)
(0.43263056 0.12073762 -0.010895497)
(0.41032402 0.12068736 -0.011242451)
(0.38850172 0.12038819 -0.011594698)
(0.36712118 0.11986304 -0.011943445)
(0.34626529 0.11908089 -0.012292735)
(0.32582514 0.11812618 -0.012639764)
(0.30595288 0.1168754 -0.012994076)
(0.28651685 0.11544758 -0.013360632)
(0.26763183 0.11378459 -0.013730935)
(0.2492571 0.11186199 -0.014087719)
(0.23141452 0.10975143 -0.014469879)
(0.21417816 0.10730655 -0.014803419)
(0.19742535 0.10476569 -0.015204766)
(0.18130539 0.10191091 -0.015565296)
(0.16577319 0.098808502 -0.015913152)
(0.15082953 0.095557482 -0.016315082)
(0.13653818 0.091965101 -0.016630089)
(0.12285697 0.088293352 -0.017037685)
(0.10986939 0.084243319 -0.017343294)
(0.097569579 0.080088171 -0.01770405)
(0.0858804 0.075669978 -0.01799896)
(0.074957563 0.071178631 -0.018366597)
(0.064790059 0.066245624 -0.018567373)
(0.055315352 0.061475967 -0.018892088)
(0.046635844 0.056269646 -0.019025961)
(0.038774979 0.051063688 -0.019151028)
(0.031706135 0.045685805 -0.019132674)
(0.025439781 0.040311516 -0.019013275)
(0.020075075 0.034820119 -0.018654814)
(0.015580003 0.029269027 -0.017940652)
(0.012041606 0.02367034 -0.016846455)
(0.0093991553 0.018674812 -0.015259748)
(0.0071129246 0.013085239 -0.012261707)
(0.0080359087 0.0080776613 -0.0072745561)
(0 0 0)
(0 0 0)
(0 0 0)
(0 0 0)
(0 0 0)
(0 0 0)
(0 0 0)
(0 0 0)
(0 0 0)
(0 0 0)
(0 0 0)
(0 0 0)
(0 0 0)
(0 0 0)
(0 0 0)
(0 0 0)
(0 0 0)
(0 0 0)
(0 0 0)
(0 0 0)
(0 0 0)
(0 0 0)
(0 0 0)
(0 0 0)
(0 0 0)
(0 0 0)
(0 0 0)
(0 0 0)
(0 0 0)
(0 0 0)
(2.1902444 -0.79659536 0.010216022)
(2.1902133 -0.7968286 0.010181141)
(2.1901867 -0.79702368 0.010145329)
(2.1901689 -0.79721413 0.010121469)
(2.1901538 -0.79739101 0.010101433)
(2.1901419 -0.79755554 0.01009364)
(2.1901277 -0.79770652 0.010085974)
(2.1901134 -0.79784603 0.010085585)
(2.190097 -0.79797487 0.010081123)
(2.1900769 -0.79808911 0.010074584)
(2.1900622 -0.79820194 0.010065865)
(2.1900423 -0.79828105 0.010044439)
(2.19003 -0.79836427 0.010019624)
(2.1900214 -0.79841721 0.0099856991)
(2.1900223 -0.79847431 0.0099440617)
(2.3474874 -0.25914812 0.011246074)
(2.3475276 -0.25925373 0.011245237)
(2.3475627 -0.25935364 0.011213414)
(2.3475986 -0.25946771 0.011184461)
(2.3476083 -0.25959062 0.011152362)
(2.3476167 -0.25971972 0.011104743)
(2.3476148 -0.25984764 0.011060272)
(2.3476012 -0.25998167 0.011007621)
(2.347579 -0.26011469 0.010957416)
(2.3475457 -0.26024961 0.010910271)
(2.3475036 -0.26039051 0.010865553)
(2.3474508 -0.26053258 0.010828231)
(2.3473979 -0.2606792 0.010810187)
(2.3473173 -0.26085789 0.010766903)
(2.3472753 -0.26099651 0.010763785)
(0.0027542659 0.0064401167 0.0096319911)
(0.0039040772 0.010931851 0.011197044)
(0.0053080652 0.015612092 0.013866718)
(0.0078336946 0.02016421 0.014918733)
(0.010687539 0.024685104 0.016088555)
(0.014807476 0.029288989 0.016624009)
(0.019524593 0.033805136 0.017019669)
(0.025373092 0.038447048 0.017198109)
(0.031813792 0.042880228 0.017290516)
(0.039270057 0.047389783 0.017296615)
(0.047425718 0.051640034 0.017168555)
(0.056452556 0.055946649 0.017133128)
(0.066183277 0.059916452 0.01692176)
(0.076705497 0.063932595 0.01681658)
(0.087911524 0.067592694 0.016603481)
(0.099908159 0.071256169 0.016477617)
(0.1125655 0.074573671 0.016247383)
(0.12587742 0.077837976 0.016124235)
(0.13991126 0.080801474 0.015913855)
(0.15458243 0.083641291 0.01576931)
(0.16988295 0.086223541 0.015597705)
(0.18582626 0.088618663 0.015458372)
(0.20237801 0.090811704 0.015294097)
(0.21949972 0.092775242 0.015173791)
(0.23724347 0.094539574 0.015030204)
(0.25553519 0.096077729 0.014925332)
(0.27439645 0.097415544 0.014804411)
(0.29379109 0.098518126 0.014713422)
(0.31373915 0.09941129 0.014618194)
(0.33420131 0.10009803 0.014540211)
(0.35517515 0.10054106 0.014462505)
(0.37666307 0.10078311 0.014398912)
(0.3986418 0.10079668 0.014343267)
(0.42109675 0.10059683 0.014288574)
(0.44403654 0.10017379 0.01424261)
(0.46744058 0.09951597 0.014198049)
(0.49130129 0.098657969 0.014158221)
(0.51560423 0.097557785 0.014115421)
(0.54036182 0.096245237 0.014076873)
(0.56553998 0.094702113 0.014041641)
(0.59114789 0.092935877 0.01400468)
(0.61715989 0.090933031 0.013961083)
(0.64358369 0.088719749 0.013924399)
(0.67040039 0.08625883 0.013877361)
(0.69759617 0.083583827 0.01383217)
(0.72517115 0.080673354 0.013784388)
(0.75310589 0.077533565 0.013731149)
(0.78139598 0.074164722 0.013678989)
(0.81002583 0.070565308 0.013621459)
(0.83898817 0.06673534 0.013562905)
(0.86826778 0.062677375 0.013500811)
(0.89785537 0.058388909 0.013437995)
(0.92773741 0.053874831 0.01337107)
(0.95790217 0.049132665 0.013304048)
(0.98833693 0.044168411 0.013233819)
(1.0190286 0.038980009 0.01316304)
(1.0499654 0.033574684 0.013089929)
(1.0811329 0.027951447 0.01301642)
(1.1125194 0.022117157 0.012941408)
(1.1441113 0.016073725 0.012865953)
(1.1758963 0.0098270117 0.012789663)
(1.207861 0.0033811832 0.0127135)
(1.2399934 -0.0032582871 0.01263714)
(1.2722823 -0.01008833 0.012561972)
(1.3047105 -0.017092299 0.012484965)
(1.3372794 -0.024288788 0.0124116)
(1.3699747 -0.03164165 0.012338227)
(1.4027611 -0.039164328 0.012269483)
(1.4356584 -0.046841183 0.012201077)
(1.4686368 -0.054676376 0.012135411)
(1.5017049 -0.062650592 0.012067695)
(1.5348403 -0.070766894 0.012004408)
(1.5680466 -0.079012996 0.011939541)
(1.6013033 -0.087389049 0.011880534)
(1.6346173 -0.095879659 0.01181997)
(1.6679667 -0.10449713 0.011766251)
(1.701362 -0.1132047 0.011708086)
(1.7347786 -0.12204201 0.01166088)
(1.7682311 -0.13094452 0.011604457)
(1.8016953 -0.13997651 0.011563431)
(1.8351806 -0.14906119 0.011511252)
(1.8686763 -0.15825392 0.011473306)
(1.902177 -0.16751095 0.01142751)
(1.9356787 -0.17684385 0.011393899)
(1.9691808 -0.18623802 0.011350785)
(2.0026805 -0.19570704 0.011325051)
(2.0361742 -0.20522838 0.011294906)
(2.0696511 -0.21479817 0.011269121)
(2.1031227 -0.22441846 0.011249858)
(2.1365557 -0.2340929 0.01124585)
(2.170002 -0.24377401 0.011215549)
(2.2033928 -0.25351627 0.011231287)
(2.2367783 -0.26332313 0.011217429)
(2.2701805 -0.27307976 0.011190127)
(2.3035373 -0.28305888 0.011154256)
(-3.7361151e-05 0.0054333171 0.0086531407)
(0.00054308418 0.0077985431 0.01010261)
(0.0022176843 0.012373744 0.011947668)
(0.0038267818 0.015644896 0.013161627)
(0.0065350758 0.019681445 0.0139423)
(0.0099957753 0.023286042 0.014399424)
(0.014451382 0.027234653 0.014732108)
(0.019610675 0.030883302 0.014908591)
(0.025767746 0.034682243 0.015041098)
(0.032737742 0.038249813 0.014958885)
(0.04048642 0.041871348 0.015030065)
(0.04908304 0.045272728 0.014839819)
(0.058420546 0.048661744 0.014831695)
(0.068572447 0.051831803 0.014637209)
(0.079424902 0.054922348 0.014595056)
(0.091099596 0.057826482 0.014353962)
(0.10335059 0.060600544 0.014319177)
(0.11647118 0.06318385 0.014116744)
(0.13016419 0.065611163 0.014020283)
(0.1446068 0.067849285 0.013865911)
(0.15965834 0.069914725 0.013763174)
(0.1754188 0.071795895 0.013610351)
(0.19175724 0.07348568 0.013522034)
(0.20878095 0.074983529 0.013402343)
(0.22637725 0.076276105 0.013310426)
(0.24459682 0.077394434 0.013206619)
(0.26338302 0.078290887 0.013130655)
(0.28276447 0.07899579 0.013055962)
(0.30269901 0.07949805 0.012981479)
(0.32318778 0.079791789 0.012921479)
(0.34421845 0.079878342 0.012871502)
(0.36578576 0.0797597 0.01282117)
(0.38785741 0.079432779 0.012777927)
(0.41045175 0.078887585 0.012743766)
(0.43354296 0.078129401 0.012707284)
(0.45712475 0.077162417 0.012679874)
(0.48119246 0.075969537 0.012647914)
(0.50572714 0.074562164 0.012627386)
(0.53070833 0.072931561 0.012601899)
(0.55615111 0.071089894 0.012578501)
(0.58201963 0.06901046 0.012547679)
(0.60832446 0.066724702 0.012529184)
(0.63504827 0.064192339 0.012488122)
(0.66216734 0.061449565 0.012467507)
(0.68968891 0.058475318 0.01242954)
(0.71759011 0.05527006 0.012397787)
(0.74585896 0.05183836 0.012360922)
(0.77448697 0.048177007 0.012325183)
(0.8034578 0.044285763 0.012283558)
(0.83275995 0.04016633 0.012245003)
(0.86237886 0.035819086 0.012201545)
(0.89230204 0.031242899 0.012159291)
(0.92251449 0.026443457 0.012114223)
(0.95300238 0.021417128 0.012070212)
(0.98375152 0.016171625 0.012023817)
(1.0147472 0.010704775 0.011978553)
(1.0459752 0.0050243146 0.011931661)
(1.0774202 -0.00087090843 0.011886158)
(1.1090687 -0.0069714007 0.011839329)
(1.1409055 -0.013278052 0.011793834)
(1.1729162 -0.019781093 0.011748449)
(1.2050875 -0.026478508 0.01170342)
(1.2374048 -0.033364092 0.011660591)
(1.269855 -0.040428975 0.011615945)
(1.3024263 -0.047667668 0.011574888)
(1.335112 -0.055080527 0.011536112)
(1.3678629 -0.062638376 0.011501156)
(1.4007182 -0.070374575 0.011467844)
(1.4336504 -0.078256527 0.011422784)
(1.4666456 -0.086283901 0.011389856)
(1.4996986 -0.094439005 0.011351914)
(1.5327885 -0.1027326 0.011324341)
(1.5659228 -0.11113929 0.011290378)
(1.5990773 -0.11967788 0.01126858)
(1.6322667 -0.12831057 0.011234852)
(1.665456 -0.13707223 0.01121992)
(1.6986738 -0.1459043 0.011184784)
(1.7318757 -0.1548681 0.011177155)
(1.765101 -0.1638761 0.011139982)
(1.7982954 -0.17301994 0.011140671)
(1.8315105 -0.18218726 0.011102178)
(1.864687 -0.19147714 0.011104383)
(1.8978694 -0.20080382 0.011080458)
(1.9310158 -0.21021897 0.011066504)
(1.9641731 -0.21966774 0.011048235)
(1.9972747 -0.22919607 0.011050796)
(2.0303732 -0.23875795 0.011037965)
(2.063424 -0.24836808 0.011040697)
(2.0964642 -0.25804738 0.011045244)
(2.1294606 -0.26771232 0.011031707)
(2.1624427 -0.27747391 0.011047873)
(2.1953638 -0.28723569 0.011041917)
(2.2283034 -0.2970426 0.011031881)
(2.2611875 -0.30689883 0.011013422)
(2.2941145 -0.31683052 0.010978521)
(-0.0017996832 0.0040003464 0.0074610926)
(-0.0015441827 0.0059965773 0.0085527439)
(-0.0011135441 0.0091140333 0.010506443)
(0.00055810927 0.012050177 0.011254576)
(0.0028768522 0.015069069 0.011820692)
(0.006258002 0.018219025 0.012190091)
(0.010175725 0.021165389 0.012472543)
(0.015297147 0.02425917 0.012646753)
(0.021044545 0.027096047 0.012614517)
(0.027718021 0.030132271 0.01276315)
(0.035167592 0.032817037 0.01261337)
(0.043498871 0.035686103 0.012672046)
(0.052535647 0.038190633 0.012506208)
(0.062399054 0.040826714 0.012522209)
(0.073027273 0.043140552 0.012312849)
(0.084344141 0.045477652 0.012339364)
(0.096478824 0.047551776 0.012150181)
(0.10927056 0.049580103 0.012102265)
(0.12279062 0.051382966 0.011974736)
(0.1370056 0.053073468 0.011910968)
(0.15191313 0.054583188 0.011784753)
(0.16746692 0.055915471 0.011733723)
(0.18370322 0.057097925 0.011629197)
(0.20055437 0.058075194 0.011568093)
(0.21805431 0.058911824 0.01148139)
(0.23615881 0.059529575 0.011433257)
(0.25488248 0.059985285 0.011369279)
(0.27418648 0.06024497 0.011317076)
(0.29408237 0.06031676 0.011272842)
(0.31454317 0.060189821 0.011240775)
(0.33557001 0.059871878 0.011201357)
(0.35713418 0.059354911 0.01117592)
(0.37924777 0.058632345 0.011155476)
(0.4018806 0.057709273 0.011134661)
(0.42502931 0.056581951 0.011120998)
(0.4486837 0.055245384 0.011106727)
(0.47281935 0.0537014 0.011102501)
(0.49743067 0.051946535 0.011094809)
(0.52254695 0.049971476 0.011084628)
(0.54810476 0.04777019 0.011067413)
(0.57411904 0.045368653 0.011065804)
(0.60057059 0.042733865 0.011040313)
(0.62744229 0.039882304 0.011041506)
(0.65473306 0.036808323 0.011022918)
(0.68242246 0.033505353 0.011006241)
(0.71049565 0.029981154 0.010992343)
(0.73894437 0.026230732 0.010972586)
(0.76775303 0.022254054 0.01095342)
(0.79690668 0.018051653 0.01093327)
(0.82639165 0.013623982 0.01091353)
(0.85619443 0.0089711358 0.010890614)
(0.88629766 0.0040946692 0.010871072)
(0.91668885 -0.0010030268 0.010848232)
(0.94735019 -0.0063222037 0.010828377)
(0.97826867 -0.011856656 0.010806751)
(1.0094261 -0.017607533 0.010787499)
(1.0408092 -0.023567377 0.010767654)
(1.0724004 -0.029735525 0.010749931)
(1.1041859 -0.036104346 0.010731724)
(1.1361482 -0.042672366 0.010716494)
(1.1682743 -0.049430732 0.010700602)
(1.2005478 -0.056377183 0.010687137)
(1.2329542 -0.063503087 0.010674924)
(1.2654802 -0.070802164 0.010661553)
(1.2981137 -0.078272264 0.010654659)
(1.3308277 -0.085902306 0.010642217)
(1.3636547 -0.093667897 0.010643277)
(1.396519 -0.10160923 0.010621752)
(1.4294435 -0.10970034 0.010634126)
(1.4624146 -0.11790215 0.010632417)
(1.495421 -0.12624247 0.010633839)
(1.5284551 -0.13469735 0.010638403)
(1.5615149 -0.14327071 0.010638532)
(1.5945813 -0.15194823 0.010644656)
(1.6276561 -0.16073314 0.010648105)
(1.6607255 -0.16961299 0.010657461)
(1.693795 -0.17858377 0.010661483)
(1.7268438 -0.18764436 0.010674709)
(1.7598869 -0.19677947 0.010679567)
(1.7928996 -0.20599857 0.010695829)
(1.8259017 -0.21527401 0.010699071)
(1.858864 -0.2246416 0.010725206)
(1.8918093 -0.23403335 0.010722799)
(1.9247227 -0.24352428 0.010750367)
(1.9576008 -0.25303171 0.010760471)
(1.9904437 -0.26261103 0.010787444)
(2.0232561 -0.27221033 0.010793346)
(2.0560287 -0.28189045 0.010829041)
(2.0887786 -0.29156037 0.010827954)
(2.1214686 -0.30130619 0.010866644)
(2.154146 -0.31107577 0.010874905)
(2.1867709 -0.32085294 0.010888976)
(2.2193841 -0.33071679 0.010893373)
(2.2519661 -0.34055315 0.010881694)
(2.284553 -0.3504661 0.010856567)
(-0.0027852306 0.0034034064 0.006194154)
(-0.0033553042 0.0042440848 0.0073002218)
(-0.0029335178 0.0067319174 0.0084837457)
(-0.0015486765 0.0087524592 0.0090232374)
(0.00072281485 0.011230633 0.0095371552)
(0.003654281 0.013474573 0.0098519558)
(0.0077575803 0.015948891 0.010076758)
(0.012530982 0.018160768 0.010082648)
(0.018175378 0.020547252 0.010319562)
(0.024719591 0.02268485 0.010185313)
(0.032058323 0.024882364 0.010316999)
(0.040178147 0.026914357 0.010173329)
(0.049084794 0.028897567 0.010260562)
(0.058849634 0.030783981 0.010068842)
(0.06922613 0.032503054 0.010162822)
(0.080523249 0.034180607 0.0099858274)
(0.092411925 0.035663758 0.0099939407)
(0.10512183 0.037064042 0.0099004767)
(0.11846822 0.038279951 0.0098697424)
(0.13258568 0.039390593 0.0097792598)
(0.14730309 0.040313931 0.0097555284)
(0.16277144 0.041114675 0.0096839986)
(0.17883397 0.041733781 0.009644971)
(0.19559486 0.042206875 0.0095976875)
(0.21295574 0.042497093 0.0095662191)
(0.23096712 0.042622013 0.0095334564)
(0.24956615 0.04258174 0.0094999894)
(0.26878236 0.042347265 0.0094875654)
(0.28857265 0.04194352 0.0094682461)
(0.30894959 0.041352026 0.0094550088)
(0.32987645 0.040576844 0.0094500741)
(0.35137302 0.03960655 0.0094507139)
(0.37339853 0.038448369 0.0094476736)
(0.39595983 0.037097118 0.0094561578)
(0.4190442 0.035535479 0.0094601814)
(0.44263096 0.033791342 0.0094693173)
(0.46673123 0.031817405 0.009476142)
(0.49134469 0.029659771 0.0094774797)
(0.5163827 0.027275551 0.0094896493)
(0.54190113 0.0247093 0.0095116007)
(0.56786607 0.021912124 0.0095131393)
(0.59427552 0.018901207 0.0095325257)
(0.6211114 0.015681944 0.0095343299)
(0.64836178 0.012240581 0.0095397067)
(0.67601484 0.0085857902 0.0095490557)
(0.70405689 0.0047096492 0.0095555058)
(0.73247626 0.00061441111 0.0095589811)
(0.76125588 -0.0037004158 0.0095665545)
(0.79038272 -0.0082353483 0.0095710597)