/*--------------------------------*- C++ -*----------------------------------*\
  =========                 |
  \\      /  F ield         | OpenFOAM: The Open Source CFD Toolbox
   \\    /   O peration     | Website:  https://openfoam.org
    \\  /    A nd           | Version:  6
     \\/     M anipulation  |
\*---------------------------------------------------------------------------*/
FoamFile
{
    version     2.0;
    format      ascii;
    class       pointVectorField;
    location    "0.61";
    object      u;
}
// * * * * * * * * * * * * * * * * * * * * * * * * * * * * * * * * * * * * * //

dimensions      [0 1 0 0 0 0 0];

internalField   nonuniform List<vector> 
625
(
(0 0 0)
(0 0 0)
(2.3145626 -0.23898442 0.044002232)
(2.1652202 -0.76377873 0.023298516)
(0 0 0)
(0 0 0)
(2.1779133 -0.78296425 0.022026097)
(2.3270944 -0.25858177 0.043429785)
(0 0 0)
(0 0 0)
(0 0 0)
(2.2765314 -0.37081468 0.03800438)
(2.2391377 -0.50085428 0.033531006)
(2.2026364 -0.63154469 0.028368573)
(0.0065006003 0.023163797 0.020774736)
(0.02441951 0.046706147 0.021852482)
(0.056281404 0.069116486 0.022406004)
(0.10232724 0.089050595 0.021873848)
(0.15747372 0.10465302 0.021645721)
(0.22519402 0.1170432 0.020943477)
(0.3007909 0.12505811 0.021024965)
(0.38522725 0.1287872 0.020889231)
(0.47722023 0.12888831 0.021421934)
(0.57552326 0.12454625 0.02162584)
(0.67991998 0.11672031 0.022528726)
(0.78945706 0.10503332 0.023517573)
(0.90348897 0.089897839 0.024696206)
(1.0215241 0.071497379 0.026090215)
(1.1429454 0.050068413 0.027629588)
(1.2672374 0.025734479 0.029310786)
(1.3940055 -0.00094215215 0.030970745)
(1.5226539 -0.030291146 0.03289834)
(1.6529993 -0.061302923 0.034531606)
(1.7842552 -0.094257827 0.036496999)
(1.9165446 -0.12882201 0.038419139)
(2.0491379 -0.16425414 0.040261685)
(2.1815077 -0.20102845 0.042575531)
(-0.0037675265 -0.019522612 -0.028371735)
(0.014652906 -0.040340681 -0.023503707)
(0.043355343 -0.066254119 -0.026401437)
(0.081486164 -0.08995115 -0.024370173)
(0.12928807 -0.11337408 -0.023560465)
(0.18859913 -0.14057188 -0.021976782)
(0.25391181 -0.16572108 -0.021138867)
(0.32896217 -0.19333477 -0.019174915)
(0.41064867 -0.22227218 -0.017837921)
(0.4993012 -0.25169352 -0.015824158)
(0.59401216 -0.28310565 -0.013857127)
(0.6944254 -0.31546657 -0.011544104)
(0.79985523 -0.34914692 -0.0091891364)
(0.90983743 -0.38396841 -0.0065927609)
(1.0239617 -0.41983379 -0.0038767004)
(1.1416584 -0.45662243 -0.0010753254)
(1.2625883 -0.49418414 0.0018715891)
(1.3862676 -0.5323068 0.0047961212)
(1.5123317 -0.5709089 0.0078826607)
(1.640355 -0.60966163 0.010837952)
(1.7700558 -0.64859535 0.013985995)
(1.9008581 -0.68724688 0.01695948)
(2.0325972 -0.72564709 0.019985887)
(0 0 0)
(0 0 0)
(0 0 0)
(0.0038385117 -0.012392442 0.018881485)
(0.019351761 -0.050709132 0.022665505)
(0.04983434 -0.065104642 0.017526325)
(0.088102386 -0.091574663 0.014623367)
(0.13943323 -0.12092829 0.014379114)
(0.19763028 -0.14370746 0.01073705)
(0.26458737 -0.17258176 0.010295285)
(0.33987924 -0.20146743 0.0085529225)
(0.42210288 -0.23135539 0.0079511015)
(0.51101537 -0.26274967 0.0074540853)
(0.60597217 -0.29493986 0.0071204304)
(0.70646908 -0.32886277 0.0072903643)
(0.81194328 -0.36351192 0.0076251361)
(0.92201481 -0.3994133 0.0082060398)
(1.0361207 -0.43616807 0.009050617)
(1.1538641 -0.47368556 0.010050471)
(1.2748114 -0.51187843 0.011217826)
(1.398552 -0.55052573 0.012528376)
(1.5246418 -0.58946316 0.013925977)
(1.652796 -0.62858252 0.015436888)
(1.782417 -0.66756576 0.017031533)
(1.913444 -0.70650406 0.018727094)
(2.0451101 -0.74486284 0.020534084)
(2.2155661 -0.65055997 0.027344091)
(2.251354 -0.52012043 0.032845096)
(2.2890015 -0.39065406 0.038667812)
(2.1942561 -0.22069193 0.040037983)
(2.0612988 -0.18380612 0.036975405)
(1.928584 -0.14794159 0.033789447)
(1.7962499 -0.11310497 0.030460528)
(1.6646217 -0.079751264 0.027114671)
(1.5341547 -0.048072058 0.023695356)
(1.4052099 -0.018277934 0.020281573)
(1.2782438 0.0092570734 0.016858397)
(1.1536891 0.034428827 0.013482912)
(1.0320427 0.056866559 0.010149972)
(0.91376138 0.076349522 0.0069620802)
(0.79951503 0.092735744 0.0038134035)
(0.68963491 0.10553247 0.00088340238)
(0.5850689 0.11512233 -0.0020473829)
(0.48603294 0.12041801 -0.0043454875)
(0.39424429 0.12132313 -0.007033547)
(0.30894965 0.11956887 -0.0096180558)
(0.23203349 0.11239302 -0.011482525)
(0.16522778 0.10103168 -0.013815794)
(0.10726936 0.085646356 -0.015139503)
(0.060975466 0.068712028 -0.018667155)
(0.026765037 0.044972334 -0.017929767)
(0.012910851 0.021372864 -0.01490507)
(0 0 0)
(0 0 0)
(0 0 0)
(0 0 0)
(0 0 0)
(0 0 0)
(2.1681179 -0.76895524 0.022755381)
(2.1714668 -0.77386002 0.022756499)
(2.1743931 -0.77867968 0.022395637)
(2.3182104 -0.2434535 0.043915636)
(2.3213685 -0.24854199 0.04362922)
(2.3244993 -0.2532375 0.043520998)
(-0.0037688155 0.01295168 0.01421463)
(0.014088202 0.025515629 0.011154441)
(0.045611964 0.036811764 0.011707062)
(0.089347216 0.045535903 0.011027111)
(0.1436185 0.051635218 0.01097647)
(0.20961409 0.054519691 0.01096274)
(0.28322438 0.053754537 0.010984196)
(0.36593452 0.05011883 0.01145204)
(0.45551698 0.042730445 0.011948126)
(0.55211891 0.031981704 0.012671952)
(0.65450299 0.018253856 0.013780724)
(0.76207095 0.0011818132 0.014962812)
(0.87433292 -0.018688177 0.016406522)
(0.99070311 -0.041333841 0.018039834)
(1.1105769 -0.066603642 0.019815744)
(1.233554 -0.094104573 0.021685579)
(1.35911 -0.12385893 0.023703322)
(1.4867968 -0.15541171 0.025768962)
(1.6163294 -0.18851986 0.027799644)
(1.7470277 -0.22322536 0.030104042)
(1.8789111 -0.25899015 0.032024388)
(2.0112238 -0.29543091 0.034336644)
(2.1438607 -0.3332176 0.036417483)
(-0.0084571246 0.0023751891 -0.00011496767)
(0.010934641 0.0024290654 -0.0019647871)
(0.040192718 0.0032063737 -0.0015860129)
(0.08241081 0.0017328834 -0.00095035824)
(0.13573877 -0.0028722371 -0.00086014352)
(0.19853884 -0.0091758864 -0.00038408907)
(0.27032179 -0.018086227 0.00017039568)
(0.35060629 -0.03000245 0.0010392863)
(0.43782636 -0.044348619 0.0018859969)
(0.53211625 -0.061396277 0.0031707438)
(0.63205655 -0.081033279 0.0045231284)
(0.73755872 -0.10320011 0.0061273025)
(0.84777049 -0.12771679 0.0079479045)
(0.96223826 -0.15449072 0.0099152072)
(1.0803961 -0.18330922 0.012008698)
(1.2018374 -0.21401039 0.014245754)
(1.3260152 -0.24639402 0.016561297)
(1.4525837 -0.28016617 0.01889663)
(1.5811019 -0.31529633 0.021356773)
(1.7110525 -0.35129381 0.023731025)
(1.8423925 -0.38815543 0.026195456)
(1.9743228 -0.42554672 0.028703728)
(2.1071509 -0.46335471 0.031109038)
(-0.010727375 -0.0092303373 -0.010321463)
(0.0092276568 -0.017771442 -0.011535487)
(0.036533825 -0.027544205 -0.011892867)
(0.0786356 -0.040592489 -0.011577046)
(0.12939804 -0.055451405 -0.011334831)
(0.19033205 -0.070340214 -0.010609878)
(0.26018543 -0.088925677 -0.0096616855)
(0.33765914 -0.10829435 -0.0086601966)
(0.42267343 -0.12987939 -0.007429934)
(0.51431972 -0.1536135 -0.0059048338)
(0.61196463 -0.17908117 -0.0043127558)
(0.71515631 -0.20660328 -0.0023821153)
(0.82314554 -0.23586825 -0.00034734619)
(0.93557238 -0.26681714 0.0018536118)
(1.0518448 -0.29936728 0.0042356209)
(1.1715899 -0.33325615 0.0066967525)
(1.2942275 -0.36838478 0.0092638869)
(1.4195269 -0.40456952 0.011917747)
(1.5468355 -0.44149196 0.014556141)
(1.6760483 -0.47915232 0.017348259)
(1.806505 -0.51716043 0.019959192)
(1.9380734 -0.55535369 0.022753936)
(2.0702943 -0.59358178 0.025476473)
(0 0 0)
(0 0 0)
(0 0 0)
(0 0 0)
(0 0 0)
(0 0 0)
(0 0 0)
(0 0 0)
(0 0 0)
(0.0075600506 -0.0082310162 -0.012573299)
(0.010814739 -0.011005048 -0.0028946668)
(0.0097912563 -0.0078883405 0.0060557463)
(0.028749091 -0.046829059 -0.01318648)
(0.029198518 -0.047643813 -0.0023668899)
(0.028261798 -0.045951469 0.011048146)
(0.053228162 -0.06616043 -0.015023188)
(0.056884856 -0.0655079 -0.0045589492)
(0.057710144 -0.069859517 0.0083238134)
(0.09101705 -0.09194776 -0.013758299)
(0.095554335 -0.094426715 -0.0042505123)
(0.094194862 -0.092873341 0.0061613163)
(0.14021392 -0.11821734 -0.014092554)
(0.14345344 -0.11895267 -0.0058270443)
(0.14428716 -0.1214285 0.0051550737)
(0.19660594 -0.14334403 -0.013690472)
(0.20113768 -0.14503425 -0.0049383574)
(0.20163433 -0.14580141 0.0037064842)
(0.26295655 -0.17006518 -0.012788413)
(0.26710284 -0.1729186 -0.0063193649)
(0.26820307 -0.17439576 0.0032867002)
(0.33712741 -0.19834255 -0.012186329)
(0.34121359 -0.19953799 -0.0054920488)
(0.34251113 -0.20198363 0.002217763)
(0.41840569 -0.22660279 -0.011064811)
(0.42240454 -0.22978618 -0.0053278627)
(0.42393038 -0.23174914 0.0021249473)
(0.50658847 -0.25713839 -0.00993521)
(0.51061241 -0.25993156 -0.004549665)
(0.51246923 -0.26260157 0.0020717364)
(0.60088147 -0.28830665 -0.008399506)
(0.60487047 -0.29170137 -0.0036395018)
(0.60674748 -0.29445741 0.0023462087)
(0.70086976 -0.32109506 -0.0067065914)
(0.70470841 -0.32461252 -0.00247514)
(0.70686816 -0.32773988 0.0029440468)
(0.80585792 -0.35479372 -0.0048439611)
(0.8097112 -0.35861988 -0.0010520533)
(0.81191382 -0.36209179 0.0037832701)
(0.91551063 -0.38978211 -0.0027484733)
(0.91922677 -0.39383339 0.00058016471)
(0.92156443 -0.39749386 0.0048098891)
(1.0292284 -0.42568376 -0.00051462362)
(1.0328884 -0.42991639 0.0023720209)
(1.0353327 -0.43386163 0.0060853565)
(1.1466147 -0.46249952 0.0018335472)
(1.1502127 -0.46691413 0.0043299649)
(1.1527247 -0.47102755 0.0075254684)
(1.2672167 -0.50001914 0.0043205491)
(1.2707237 -0.50454662 0.006422678)
(1.2733433 -0.50885757 0.0090870644)
(1.3906169 -0.53811502 0.0068514888)
(1.3940966 -0.54277768 0.0085694603)
(1.3967825 -0.54721705 0.010798573)
(1.5163981 -0.57659895 0.0094720642)
(1.5197939 -0.58129635 0.010851883)
(1.522562 -0.58586731 0.012575921)
(1.6442114 -0.61528509 0.012098729)
(1.6475804 -0.62008927 0.013134567)
(1.6504269 -0.62474027 0.014441542)
(1.7735731 -0.65402942 0.014809828)
(1.7768695 -0.65877096 0.015497661)
(1.7798063 -0.66350161 0.016383341)
(1.9042636 -0.69260213 0.017462951)
(1.9075508 -0.6974713 0.017888362)
(1.9105527 -0.70229306 0.018364958)
(2.0357805 -0.73098956 0.020146878)
(2.0389517 -0.73573209 0.020206136)
(2.0421531 -0.7404761 0.020415057)
(2.2802353 -0.37547414 0.038497695)
(2.2834654 -0.38039152 0.038422691)
(2.28642 -0.38524595 0.038521155)
(2.242376 -0.50562452 0.033539812)
(2.2456132 -0.51069761 0.033225147)
(2.2484852 -0.51529227 0.033035994)
(2.2058015 -0.63671294 0.028010124)
(2.2091292 -0.64155941 0.027889934)
(2.2121437 -0.64621007 0.027659538)
(0.016825023 0.018629368 0.010230993)
(0.017236857 0.02095846 0.0034720181)
(0.018552729 0.020627076 -0.0046163967)
(0.032634998 0.044083278 0.011914803)
(0.035729803 0.044588113 0.0006670912)
(0.035494602 0.043477181 -0.0090887286)
(0.067321653 0.067943317 0.011731527)
(0.068182433 0.067432119 0.0034925435)
(0.069146784 0.067895401 -0.0088323486)
(0.11022121 0.085947114 0.011968676)
(0.11347723 0.085755408 0.0028370141)
(0.11375829 0.086273019 -0.0072842172)
(0.16683808 0.10315574 0.012553665)
(0.1704457 0.10202525 0.0032854779)
(0.17061118 0.10157019 -0.0054772233)
(0.2337799 0.11408461 0.012086639)
(0.23605594 0.11259843 0.0051653325)
(0.23751764 0.11236953 -0.004417772)
(0.30896023 0.12178407 0.012845359)
(0.31225395 0.12042051 0.0055485416)
(0.31348456 0.11954385 -0.0027971017)
(0.39333693 0.12539113 0.01333985)
(0.39638962 0.12367064 0.0066920781)
(0.39748922 0.12284207 -0.00087184586)
(0.48446463 0.12547475 0.014382699)
(0.48767413 0.12247604 0.0080758447)
(0.48950261 0.12122458 0.0011627727)
(0.58289501 0.12042135 0.015154803)
(0.58585156 0.11805159 0.0099282983)
(0.58764256 0.1160266 0.0031273803)
(0.68674012 0.11225735 0.016589442)
(0.68975812 0.10947022 0.011354588)
(0.69169386 0.10735961 0.005471269)
(0.79588709 0.1004087 0.018049444)
(0.79898372 0.097230206 0.013399684)
(0.80108946 0.094749536 0.0080628478)
(0.90959322 0.085080235 0.019765561)
(0.91271714 0.081578063 0.015552614)
(0.9148763 0.078810054 0.010713159)
(1.0273008 0.066523174 0.021635399)
(1.0304051 0.062750707 0.017873472)
(1.0326759 0.059680728 0.013528755)
(1.1483975 0.044964791 0.023687995)
(1.1515158 0.040941526 0.020303373)
(1.1539127 0.037587765 0.016477045)
(1.2724076 0.020606083 0.025767016)
(1.2755655 0.016374428 0.022851743)
(1.2780189 0.012786877 0.019470157)
(1.3988918 -0.0061931508 0.028031683)
(1.4020092 -0.01061848 0.025446045)
(1.4045961 -0.014501726 0.022551657)
(1.5273007 -0.035423306 0.030234769)
(1.5304822 -0.039962749 0.028051364)
(1.5331203 -0.043969103 0.025608741)
(1.6573116 -0.066437669 0.032487182)
(1.6604625 -0.07114853 0.030761957)
(1.6632221 -0.075422518 0.028695833)
(1.7884272 -0.09939224 0.034952524)
(1.7916827 -0.10412736 0.033264648)
(1.7944847 -0.10856824 0.031731018)
(1.9204734 -0.13381917 0.037061747)
(1.9236644 -0.13871854 0.035907415)
(1.9265062 -0.14320024 0.034757732)
(2.0527935 -0.16942926 0.039217224)
(2.0559662 -0.1740266 0.038542804)
(2.0589423 -0.17881844 0.037689777)
(2.185592 -0.20582702 0.041873964)
(2.1886483 -0.21072394 0.041192639)
(2.1917275 -0.21567819 0.040765798)
(-0.00039917723 0.0073203463 -0.0097878447)
(0.019450636 0.027907585 -0.010323734)
(0.049293257 0.03395652 -0.0078851265)
(0.095798909 0.042983488 -0.0082625708)
(0.15109333 0.04777608 -0.0066584378)
(0.21696712 0.049343548 -0.0056398687)
(0.29194999 0.047603099 -0.0043234116)
(0.37467022 0.042372927 -0.0027154233)
(0.46507076 0.033707465 -0.0011404753)
(0.56176681 0.021794754 0.00089096178)
(0.66434135 0.0066674434 0.0027474825)
(0.7722166 -0.011680239 0.0051381783)
(0.88467166 -0.032701033 0.0075057744)
(1.0012104 -0.056437706 0.01003681)
(1.1213046 -0.082648835 0.012736785)
(1.2444657 -0.11104923 0.015468455)
(1.3702198 -0.1414363 0.018311581)
(1.4981608 -0.1736123 0.021149661)
(1.6277954 -0.20727284 0.024037947)
(1.758835 -0.24224733 0.02688439)
(1.890807 -0.27829553 0.029777406)
(2.0232511 -0.3150727 0.032588751)
(2.1562523 -0.35287613 0.035636629)
(-0.0069103981 0.0034721076 0.0013669439)
(0.013004659 0.0052562697 -0.00029668995)
(0.045449987 0.0010337104 0.00081293767)
(0.089607557 0.00025331818 -0.00046952523)
(0.14311484 -0.0059577965 -0.00036770706)
(0.20754029 -0.01378565 0.00011097278)
(0.27984316 -0.023879742 0.00021149057)
(0.36068626 -0.037124151 0.00096224681)
(0.4485125 -0.05303653 0.0018677525)
(0.54295352 -0.071267016 0.0028250735)
(0.64330294 -0.092334691 0.0041695122)
(0.74897995 -0.1158548 0.0057040582)
(0.85932773 -0.14147021 0.0073786771)
(0.97396149 -0.1693732 0.009312331)
(1.092251 -0.19911172 0.011356724)
(1.213787 -0.23064938 0.013524227)
(1.3381308 -0.26368359 0.015827172)
(1.4647979 -0.29811188 0.018127227)
(1.5934285 -0.33359965 0.020578748)
(1.7235879 -0.37003431 0.022960662)
(1.8549602 -0.40715465 0.025408074)
(1.9869099 -0.44474808 0.027862513)
(2.1201756 -0.48283816 0.030291321)
(-0.0096573978 -0.0081546727 0.0084462702)
(0.014649326 -0.013209469 0.0081009453)
(0.044474258 -0.031868735 0.010870252)
(0.08581164 -0.039264366 0.0068865715)
(0.13885929 -0.057846894 0.0077860196)
(0.20050193 -0.074428307 0.0066191942)
(0.27053718 -0.093106823 0.0058048167)
(0.3490176 -0.11518283 0.0059424324)
(0.43413547 -0.13753682 0.0056199125)
(0.52624472 -0.16309987 0.0060224911)
(0.62396466 -0.18994459 0.0065096208)
(0.72728759 -0.21879168 0.0072205627)
(0.83534943 -0.24934034 0.0082689888)
(0.94784532 -0.28143996 0.0094327326)
(1.0641521 -0.31498975 0.010831102)
(1.1839076 -0.34975667 0.012368303)
(1.3066369 -0.38563505 0.014027734)
(1.4319183 -0.42239017 0.015787757)
(1.5593495 -0.45984984 0.017661081)
(1.6885717 -0.49784491 0.019506384)
(1.819052 -0.53606664 0.021552974)
(1.9507503 -0.5745334 0.023409214)
(2.082849 -0.61269173 0.025654121)
(0.0033635625 0.0063709323 0.006441213)
(0.0036246835 0.0070811044 0.002500187)
(0.0062269017 0.00618189 -0.0038718024)
(0.023887517 0.025071025 0.0050731498)
(0.027357683 0.025214541 -0.00043221809)
(0.025515732 0.025364093 -0.006257223)
(0.055640901 0.034541645 0.0053726479)
(0.056775524 0.03406637 0.00079842662)
(0.057538542 0.033590555 -0.0041631189)
(0.098431379 0.043951631 0.0054636821)
(0.10204655 0.043567202 0.00053174678)
(0.10191431 0.042562652 -0.0042679015)
(0.15351009 0.049258539 0.005080543)
(0.15654337 0.048224929 0.00123313)
(0.15721315 0.047275975 -0.0032153451)
(0.21818533 0.051523946 0.0058365974)
(0.22149684 0.05055333 0.00186332)
(0.22179313 0.049234674 -0.0023092187)
(0.29174803 0.050742637 0.0061711669)
(0.29513181 0.049453754 0.002415616)
(0.29628283 0.047813991 -0.0011604871)
(0.373836 0.046720696 0.0068095091)
(0.37733564 0.04447864 0.0036182193)
(0.37835785 0.042577344 -0.00011714861)
(0.46316268 0.038594529 0.0078033915)
(0.46665741 0.036708005 0.0045940679)
(0.46799116 0.034702066 0.0016642529)
(0.55926823 0.027944968 0.0088042708)
(0.56277151 0.025324958 0.0059836398)
(0.56418712 0.022746877 0.0030817868)
(0.66123229 0.013796289 0.010220295)
(0.66458667 0.010804729 0.0076762942)
(0.66624155 0.0082740292 0.0049698154)
(0.76839857 -0.0034916585 0.011733384)
(0.77185844 -0.0066405398 0.0093850981)
(0.77366703 -0.009716976 0.0070145962)
(0.88034525 -0.023517891 0.013476674)
(0.88374184 -0.027080881 0.011381988)
(0.88563608 -0.030357692 0.0092730105)
(0.99634551 -0.046393731 0.015416701)
(0.99970714 -0.050152022 0.013539856)
(1.0017445 -0.053722882 0.011619377)
(1.1159074 -0.0717115 0.017469348)
(1.1192595 -0.075742734 0.015809077)
(1.1214213 -0.079538832 0.014134627)
(1.2386044 -0.099350203 0.019651606)
(1.2419151 -0.1035745 0.018215977)
(1.2441715 -0.10759912 0.016718304)
(1.3638429 -0.1290708 0.021928204)
(1.3671456 -0.13346033 0.020661412)
(1.36955 -0.13769558 0.01940114)
(1.4913329 -0.16064125 0.024231145)
(1.494619 -0.16520465 0.023201123)
(1.497076 -0.16953719 0.022085297)
(1.6205662 -0.1937065 0.02658949)
(1.6237644 -0.19837245 0.025700371)
(1.6264227 -0.20297717 0.024836209)
(1.7509939 -0.2283436 0.029034147)
(1.7543739 -0.2331521 0.028327519)
(1.7570071 -0.23772552 0.027504728)
(1.882591 -0.26397985 0.031192254)
(1.8861113 -0.26875435 0.030873106)
(1.8887254 -0.27346324 0.030265301)
(2.0148346 -0.30050012 0.033779336)
(2.0180066 -0.30521298 0.033458962)
(2.0208111 -0.310156 0.032910093)
(2.1474218 -0.33784665 0.03614202)
(2.1504821 -0.34279911 0.035886853)
(2.1535261 -0.34768301 0.035686415)
(-0.0026294053 0.0017330203 -0.00073355688)
(-0.00066105237 0.0022900526 -0.0013295011)
(0.0012118155 0.0026985401 0.00015108607)
(0.018810778 0.0027288547 -0.00332546)
(0.021505201 0.0036042521 -0.0022924761)
(0.019482461 0.0027757817 -0.0016172815)
(0.049647251 0.0021706899 -0.0023227596)
(0.051978938 0.0012823715 -0.00050360791)
(0.052216424 0.0012928348 -0.00047581018)
(0.090923741 -0.00053269594 -0.0026738927)
(0.095899731 -0.0015409157 -0.0013591059)
(0.094735571 -0.0026453685 -0.0011684576)
(0.1445925 -0.0047550554 -0.0019996893)
(0.14843271 -0.006512398 -0.00015649934)
(0.14776999 -0.0065130831 -0.0013649306)
(0.20691168 -0.011893521 -0.0015629485)
(0.21105295 -0.013814466 -0.00057802043)
(0.21108926 -0.014717297 -0.00062901734)
(0.27846956 -0.021028442 -0.0012173932)
(0.2826075 -0.023644866 0.00034810619)
(0.2828532 -0.024818904 -0.00066282501)
(0.35833466 -0.033554706 -7.4679758e-05)
(0.36245814 -0.036165573 0.00096561246)
(0.36277327 -0.037043278 0.00031813335)
(0.44523943 -0.047948281 0.00070227071)
(0.4491876 -0.051074969 0.0016974628)
(0.45013409 -0.052910704 0.0010229451)
(0.53910166 -0.065453875 0.0020470699)
(0.54307353 -0.068889821 0.0030510822)
(0.5440541 -0.070658176 0.002345118)
(0.63874556 -0.08544835 0.0035155857)
(0.6425357 -0.088989785 0.0043210149)
(0.64384292 -0.091314779 0.0035544278)
(0.7438545 -0.10780604 0.0051351365)
(0.74765259 -0.11171479 0.0058754098)
(0.74913941 -0.11429156 0.0052101771)
(0.85374282 -0.13254114 0.007058021)
(0.85745608 -0.13668672 0.0077063659)
(0.85904934 -0.13959892 0.0069883173)
(0.96785415 -0.15950553 0.0090733277)
(0.97148304 -0.16385794 0.0096087324)
(0.97330015 -0.16701094 0.0089555439)
(1.08574 -0.18841851 0.011269762)
(1.0893025 -0.19292995 0.011730777)
(1.0912615 -0.19642476 0.01110151)
(1.2068622 -0.21922548 0.013561125)
(1.2103588 -0.22389603 0.013933535)
(1.2124743 -0.22760241 0.013330562)
(1.3307923 -0.25160997 0.015960363)
(1.3342253 -0.25638551 0.016248324)
(1.3364777 -0.26035034 0.015699867)
(1.4571138 -0.28543856 0.018374324)
(1.4604651 -0.29034571 0.018604695)
(1.462897 -0.29445292 0.018066856)
(1.5853434 -0.32047032 0.020891421)
(1.5886966 -0.32538291 0.021007501)
(1.5912081 -0.32975081 0.020584277)
(1.7152097 -0.35645715 0.023300762)
(1.7183749 -0.3616171 0.023464366)
(1.7211003 -0.36593556 0.022988844)
(1.8464041 -0.39322974 0.026012593)
(1.8492564 -0.39825814 0.025739166)
(1.852316 -0.40282537 0.02554541)
(1.9778928 -0.43065571 0.028358591)
(1.9811353 -0.4354554 0.028390598)
(1.9839137 -0.44024926 0.027939557)
(2.1105824 -0.46824222 0.030864849)
(2.1138906 -0.47334664 0.030714998)
(2.1169804 -0.47796017 0.030534184)
(-0.0025339222 -0.0060618079 -0.0046225837)
(-0.002684773 -0.0055028412 -0.00038835769)
(-0.0027388638 -0.0050002202 0.0038946961)
(0.020447689 -0.016815798 -0.0067686769)
(0.02315413 -0.013758634 -0.00073634982)
(0.021352788 -0.015137529 0.0041412643)
(0.047376754 -0.028947105 -0.0069940656)
(0.050613985 -0.032358235 -0.0010733943)
(0.051092818 -0.0319346 0.0048110487)
(0.08943255 -0.043667577 -0.0072014687)
(0.092023443 -0.042364831 -0.0017274881)
(0.092488259 -0.043171498 0.0028051322)
(0.13950802 -0.05734386 -0.0068057322)
(0.14297694 -0.059483161 -0.001930223)
(0.14392479 -0.059568453 0.0025631463)
(0.20011328 -0.074194522 -0.0069624548)
(0.20348259 -0.07561954 -0.0022518671)
(0.20460746 -0.076576477 0.0016541853)
(0.26933203 -0.092709269 -0.0061298633)
(0.27266747 -0.0942997 -0.0017112892)
(0.27431365 -0.094931543 0.0016380977)
(0.34642528 -0.1123187 -0.0054808088)
(0.34972797 -0.1145647 -0.001970062)
(0.35168705 -0.11631936 0.0015056232)
(0.43090539 -0.1345147 -0.0046646997)
(0.43429241 -0.13692165 -0.00099589073)
(0.43646527 -0.13852826 0.0020636266)
(0.52208992 -0.1584853 -0.0033308581)
(0.52548516 -0.16116135 -0.0002554377)
(0.52777392 -0.16331943 0.002403605)
(0.6192615 -0.18418802 -0.0020524712)
(0.62260259 -0.18729413 0.00077696792)
(0.62514619 -0.18980539 0.003297443)
(0.7220013 -0.2119846 -0.00037973144)
(0.72534702 -0.21531222 0.0021656368)
(0.7279387 -0.21814567 0.0043182924)
(0.82956154 -0.24139768 0.0014283609)
(0.83284225 -0.24504314 0.0036475417)
(0.83558072 -0.24819982 0.005607782)
(0.94158055 -0.27253376 0.0034046417)
(0.94486557 -0.27637235 0.0053775641)
(0.94764286 -0.27982195 0.0070986182)
(1.0574782 -0.30513467 0.0055764391)
(1.0607089 -0.30919675 0.0072747021)
(1.0635821 -0.31293709 0.0087639514)
(1.1768322 -0.33908754 0.0078374247)
(1.1800677 -0.34336679 0.009305328)
(1.182964 -0.34731046 0.010564852)
(1.2991692 -0.37423468 0.010229194)
(1.3023431 -0.37862826 0.011431049)
(1.3053304 -0.3827791 0.012508555)
(1.4240997 -0.41033571 0.012672759)
(1.4273109 -0.41491429 0.013677878)
(1.4303261 -0.41923043 0.014512857)
(1.5511578 -0.44726471 0.015171002)
(1.5542984 -0.4519 0.015936587)
(1.5573601 -0.4563206 0.016619824)
(1.6800388 -0.4847568 0.017768616)
(1.6832447 -0.48952518 0.018296434)
(1.6863731 -0.4940713 0.018752385)
(1.810228 -0.5226384 0.020197777)
(1.81335 -0.5273748 0.020620858)
(1.8165044 -0.53196842 0.02094639)
(1.9415828 -0.56075384 0.022863958)
(1.9447568 -0.56559894 0.023133655)
(1.9480258 -0.57027009 0.02321778)
(2.073476 -0.59886966 0.025408472)
(2.0766385 -0.60351411 0.025443744)
(2.0797997 -0.60840039 0.02533581)
)
;

boundaryField
{
    free
    {
        type            calculated;
    }
    fixed
    {
        type            calculated;
    }
    traction
    {
        type            calculated;
    }
}


// ************************************************************************* //
