/*--------------------------------*- C++ -*----------------------------------*\
  =========                 |
  \\      /  F ield         | OpenFOAM: The Open Source CFD Toolbox
   \\    /   O peration     | Website:  https://openfoam.org
    \\  /    A nd           | Version:  6
     \\/     M anipulation  |
\*---------------------------------------------------------------------------*/
FoamFile
{
    version     2.0;
    format      ascii;
    class       pointScalarField;
    location    "1.8";
    object      E;
}
// * * * * * * * * * * * * * * * * * * * * * * * * * * * * * * * * * * * * * //

dimensions      [1 -1 -2 0 0 0 0];

internalField   nonuniform List<scalar> 
625
(
-48.683205
-2917.9249
-23819.841
-15385.239
1262.0047
-413.4368
-20542.155
-34072.801
-299.78239
-186.93803
-394.97209
-16030.431
-14870.544
-7843.8212
2228.8752
-874.78532
-1421.5338
343.43311
-2710.2932
-998.69967
-1887.3223
-3106.7619
-1869.9642
-3077.8544
-3312.7648
-2855.1693
-3426.4927
-3099.2253
-2883.0913
-2935.4278
-1899.047
-2351.313
-892.81467
-528.19214
591.59043
1233.3719
3837.008
3717.0677
-2968.931
7774.9608
4985.4668
1600.7651
9839.764
1684.1476
5216.0709
4610.476
3090.9446
4412.4412
2642.9636
3252.4284
2327.0066
2100.433
1744.9006
1200.5423
782.89247
390.8971
-675.53522
22.157293
-2129.7099
-1874.2808
687.72148
261.23641
-1453.7345
4397.9975
13482.048
-2872.7164
3531.5794
16212.425
-1179.2956
8198.0367
4563.2497
5210.519
5865.5914
2806.3329
4872.1173
2665.2148
2781.7306
2179.6569
1188.9727
786.96246
-185.70856
-1188.5932
-2053.9426
-3396.0368
-4125.0635
-5051.0098
-20116.828
-30786.364
-28965.566
4330.902
1665.5264
2420.7667
2398.8225
2199.5543
1939.0722
1860.0596
1350.0669
1350.7794
1087.8171
360.80996
954.11318
-79.228392
530.2448
-971.45579
-767.78494
-818.36752
-564.63535
-343.86355
-3536.444
3800.4613
-1989.9857
3203.7
382.56318
115.90011
-257.57995
-2453.2109
-2469.8703
-2962.3754
-18094.796
-17100.24
-19611.628
-25638.643
-27386.997
-25043.786
2150.9119
676.38177
-177.93379
711.06809
-1401.2611
469.08138
-981.99423
-512.07093
-471.1063
-967.20289
-329.55088
-804.6352
-726.67007
-589.01652
-763.50407
-466.59641
-592.28077
-738.69589
115.88964
-536.94031
-646.61598
-251.02427
-1310.3853
254.3411
-291.42975
451.79498
-674.19857
89.110404
297.7361
-1230.8236
53.907885
-1308.2701
-562.70573
-1466.6818
-1285.8923
-1487.5948
-1714.5285
-1845.9191
-1992.8979
-2337.1411
-2259.4395
-2499.8277
-3180.2043
-1776.1444
-3529.8741
1987.501
328.66442
-2284.9485
-2339.5157
-3214.7236
-2249.5828
-4925.8757
-1834.8373
-3877.818
-2614.155
-2214.6502
-2604.0006
-1292.8
-1581.3374
-878.89432
-604.4845
-34.041085
246.67309
1056.6623
1125.9457
2734.3332
1916.4145
3812.7504
4801.7502
-42.765931
-232.44198
-332.52398
-329.04748
-335.26196
91.39468
-548.45942
-1023.0736
-1170.0995
5085.0696
6856.2074
5619.4374
6772.4323
4493.3164
6715.1506
3499.6841
-216.21675
5459.7557
4846.9641
6519.7898
1623.4479
10145.606
5394.8563
11110.909
5104.2482
5982.1233
5600.896
7907.048
6229.3518
7656.6812
6311.0977
3251.4881
7331.3202
5954.4621
6530.133
4885.4605
7366.22
4196.1117
7706.1409
4634.1136
5126.1839
4645.8735
6440.4696
4103.2849
5557.7118
4369.2554
3875.0205
4748.2973
4544.7176
3470.6025
3710.8585
3848.7307
3006.3956
3613.178
2952.6149
2509.9186
2477.3967
2378.8965
1934.369
1723.8828
1299.7156
1253.5855
831.3054
341.44921
571.41444
-416.95732
-829.61137
-411.0521
-1709.8176
-2209.2757
-1430.9606
-2989.533
-3430.3997
-2499.0296
-4752.2841
-5031.5155
-4307.0128
-4582.933
-18530.501
-18191.045
-18459.092
-17453.636
-20365.265
-21544.694
-15601.882
-13075.086
-13762.287
1140.1442
3157.9704
1483.1714
-1571.219
-2187.0205
-1527.9771
1852.9736
771.22821
3017.9053
-1797.7577
-1786.2349
-788.2907
935.54137
135.53477
1032.297
201.89937
-2472.0893
1287.5296
-374.34498
-830.55893
251.8306
-151.29625
-1440.2475
1918.8127
963.46892
-2618.6248
966.72727
401.93727
-1779.1146
948.01976
-213.21966
-1903.3349
937.44652
223.44136
-1446.4035
1494.9023
-63.110582
-1715.4069
1227.743
298.49204
-1505.3952
1463.1506
386.82121
-1253.9545
1762.9544
326.35717
-1092.979
1684.5271
1039.1869
-640.63476
1845.7345
420.70718
-537.24067
1995.9648
1370.3302
162.20924
1931.4401
866.17083
714.48563
1868.5347
1607.2265
411.81904
1874.166
-278.38749
919.40237
1503.4877
5141.939
4059.5033
4237.56
813.44827
913.36065
-2755.2651
698.93651
-2629.5858
-1077.0879
31.714541
-2982.1813
152.43446
-1095.0288
-1127.6892
-812.61282
-998.04661
-935.47513
-933.67764
-1032.0877
-1049.8187
-1082.2386
-1245.4614
-1104.0023
-986.08099
-1371.2651
-1241.0234
221.13339
1788.5205
-1583.1068
1898.4061
-331.27811
1722.2774
1214.3114
773.05959
1866.1786
837.39044
1191.5166
1624.0242
783.43525
1477.1636
1272.1476
1142.5741
1461.9892
1202.9648
1306.7799
1047.5642
1511.8716
-1573.5446
5779.1352
692.65656
-3563.4007
-1538.9146
-6535.9344
-2735.984
-2711.8972
-5561.3581
-1192.023
-5100.7464
-1338.0405
-3295.6111
-1575.2607
-1932.5361
-836.60263
-713.08693
80.180951
635.17072
1358.744
2103.6042
3253.2237
3466.4949
5291.7345
4916.8699
737.46667
1235.4976
849.89501
833.66431
907.47189
1037.7604
-635.47141
-1742.885
-1128.1166
290.92041
1055.244
1383.7523
456.65453
-704.64578
375.00929
574.42449
439.62559
-578.05759
124.2567
-153.34686
1834.0534
1041.4277
774.71297
61.243621
473.71408
-28.279401
625.31494
563.43203
842.3744
961.29522
1437.4003
595.92803
779.19859
532.43559
490.04721
1131.0612
1286.0268
938.56608
964.79719
996.87818
736.16935
965.77123
950.23052
714.01088
855.29259
1014.6223
896.10856
772.39603
700.59588
640.70729
474.12254
542.10452
690.43382
362.47026
934.79123
792.23743
124.55413
-769.23492
411.26531
-607.797
-1279.9335
1617.1151
-191.71075
-19.558104
311.45211
-1609.5081
-144.97932
-1117.4573
-857.8695
-152.05835
72.744252
128.62448
1072.5729
1855.3289
1959.268
26.45009
-2231.2894
-492.94345
170.57051
1935.0316
1638.5845
1949.5676
-435.17845
-431.06908
461.14811
58.875859
756.66356
624.34016
190.03823
91.430793
1871.4418
479.17104
-629.89091
374.11706
-861.964
-100.7104
1540.318
491.70515
-142.24103
995.70248
-965.72185
-991.01135
954.23323
-352.49887
-349.7585
1141.426
-435.38913
-1240.7381
654.44861
-1004.499
-1260.9856
903.61717
-651.38945
-1324.8798
451.06473
-1181.4149
-1742.8247
484.01369
-1018.462
-1874.4571
309.64463
-1497.5402
-2007.2906
139.89115
-1053.2276
-2272.0573
170.12696
-2779.4957
-2653.2361
2179.138
-3380.4534
-929.48526
-2667.8056
-2923.2793
-4779.94
3552.4162
2413.6937
3887.557
1753.765
1770.9552
1751.1717
-2351.6327
-4011.5379
-3288.1205
-2000.8081
-283.11198
431.04157
-174.32004
-4196.3298
-2805.3929
-2545.7653
-2638.5662
-1152.1597
-1543.2704
-3933.983
-1410.8363
117.04438
-3107.7815
-1586.7571
-1804.1564
-3921.2876
-68.677133
102.07335
-3481.3108
-627.42825
-270.92294
-2907.6191
177.70833
8.4819939
-3434.7584
234.12551
723.42547
-2334.7164
976.66205
578.28266
-2650.7474
1023.6051
1351.664
-1879.416
1563.1868
1352.5353
-1772.7112
1861.3785
1796.0521
-1052.265
2191.3865
2068.4761
-803.04743
2538.1049
2418.3594
178.51205
2997.0746
2550.6607
127.92036
2995.2337
3029.8617
2228.1271
4182.1707
2486.1212
1614.1832
3302.4045
3699.8528
3954.0631
5867.0044
3287.3716
4021.6718
3136.8563
)
;

boundaryField
{
    free
    {
        type            zeroGradient;
    }
    fixed
    {
        type            zeroGradient;
    }
    traction
    {
        type            zeroGradient;
    }
}


// ************************************************************************* //
