/*--------------------------------*- C++ -*----------------------------------*\
  =========                 |
  \\      /  F ield         | OpenFOAM: The Open Source CFD Toolbox
   \\    /   O peration     | Website:  https://openfoam.org
    \\  /    A nd           | Version:  6
     \\/     M anipulation  |
\*---------------------------------------------------------------------------*/
FoamFile
{
    version     2.0;
    format      ascii;
    class       pointScalarField;
    location    "1.8";
    object      p;
}
// * * * * * * * * * * * * * * * * * * * * * * * * * * * * * * * * * * * * * //

dimensions      [1 -1 -2 0 0 0 0];

internalField   nonuniform List<scalar> 
625
(
-27234.694
114820.42
5110.0212
5014.1869
-101281.79
80079.595
3310.3805
-635.80055
-971.6599
27849.378
28194.997
-15667.616
1138.0284
3700.1795
-7200.8553
-9126.7796
-6714.1643
-4860.6484
-3755.2514
-529.35887
1064.156
4003.4974
6479.5145
9618.614
12478.421
16181.531
19089.004
22612.274
25420.294
28744.017
29657.072
32391.6
32506.786
31018.604
29199.772
22433.526
16703.397
25455.978
18122.874
14974.969
6558.7188
517.61343
-4661.8254
-11708.944
-16157.991
-22186.753
-26899.647
-31421.279
-35103.888
-38725.747
-40788.907
-42853.94
-43751.147
-43302.414
-42279.685
-39697.47
-35760.189
-30773.478
-22963.174
-12397.521
-61041.86
-32534.05
-6536.3141
13386.745
17539.772
9095.4162
6991.0835
3801.7339
1210.6739
764.66637
-4227.9405
-6710.033
-11006.323
-13111.776
-18741.735
-20685.329
-25695.56
-28466.414
-31558.659
-33996.506
-35006.955
-34755.81
-33329.274
-28596.394
-23994.036
-13367.473
3504.9262
702.72109
-8735.7883
23339.906
26579.322
32800.324
39463.249
45663.493
48383.02
50319.809
51154.349
50188.089
48603.043
45872.84
42434.032
38231.524
32633.107
29123.85
22076.609
15155.895
11115.718
2473.4434
-4581.6639
-10713.189
-14851.42
-24553.159
-37208.392
-53080.62
-44683.504
102938.8
84512.744
85073.589
13541.73
11991.169
14397.481
-6801.3987
-597.17587
-4861.7903
-784.64856
-43.512884
-1474.484
-1725.0365
-269.817
-163.02447
824.35634
1833.1921
3347.8417
4704.0679
6400.4764
8213.8445
10250.479
12169.273
14604.398
15748.344
17712.951
18622.69
18338.66
19375.57
16344.564
9352.1719
7152.809
9440.5662
8056.6304
3686.4306
1236.5196
-1467.0506
-4292.4136
-6432.1071
-8528.9774
-10260.073
-11740.157
-12877.322
-13459.056
-14058.225
-13739.192
-13743.552
-12795.831
-11736.153
-10716.423
-8850.8323
-7082.9584
-6100.1074
-1692.8445
790.84339
18507.889
12977.331
7692.2664
3676.1612
-952.8892
-6004.9446
-10779.509
-14624.137
-18508.208
-22095.738
-24886.581
-27716.902
-29215.885
-30954.861
-31177.54
-31037.231
-30278.146
-27972.426
-25477.441
-21854.995
-16530.229
-12515.987
-4162.8446
-16469.898
-20359.353
-18790.51
12110.647
4741.6341
3083.6552
16503.131
16151.247
8331.3712
34743.383
28738.715
28547.974
26191.617
21111.357
19206.899
10789.755
8324.4799
10218.719
7062.5687
6608.5222
5932.1468
1520.8396
1637.8463
3037.4108
-3997.7676
-2748.1792
-627.92838
-9561.2903
-6355.9997
-4106.6039
-14882.822
-9689.2971
-8491.9855
-20139.957
-14447.908
-12192.207
-24897.006
-18468.949
-16131.24
-29383.299
-21947.997
-19730.388
-33490.388
-25973.904
-23828.021
-37077
-29081.294
-27285.263
-39958.685
-32320.62
-30608.338
-42417.448
-34727.866
-33749.293
-43511.266
-36744.576
-35791.865
-44052.648
-37464.694
-37349.72
-42914.093
-37801.218
-37948.622
-41074.767
-36360.786
-36526.222
-37069.643
-33456.136
-34354.329
-30989.957
-28597.841
-29363.218
-24753.005
-24560.416
-24276.857
-17883.845
-15116.056
-16632.186
-20609.903
-22424.801
-23679.282
374.04052
-63.896422
887.83286
6694.5069
7149.9346
5114.5825
-17259.641
-17912.153
-18087.069
-12924.08
-15763.428
-18905.834
-9073.8767
-9058.6809
-10401.778
-5721.4152
-3678.0992
-5318.4996
-1526.6376
-1441.228
933.97374
2136.9002
4436.3904
6412.3719
5524.9949
8053.4717
12633.6
9878.3271
12234.095
16686.188
13452.466
15894.863
22959.49
17472.296
20162.828
27679.756
21977.997
23846.018
31898.335
25625.637
26999.854
36046.16
29503.333
30411.024
39701.194
33157.161
33160.428
42479.092
36363.112
35325.034
44833.841
38644.541
36988.362
45964.27
40258.819
37683.595
46553.631
41063.365
37625.53
45449.704
39290.049
35694.872
42957.304
37876.396
31667.119
40197.422
34000.594
29376.185
34941.721
26463.518
25520.2
26501.83
25906.288
26979.98
28478.47
-19727.113
-9596.1032
-5081.077
-1365.4853
3622.8321
7437.4397
10846.492
15794.396
18655.363
21445.821
24894.426
27015.429
28531.867
30253.885
30383.031
30804.019
29438.208
28372.367
25738.396
21801.755
17550.526
10682.146
2137.2976
-9408.3348
-6609.002
-1638.5663
-780.41505
2372.6678
4438.8085
6196.0555
8300.6548
9779.247
10911.846
12283.027
12436.593
13006.419
12805.49
12626.41
11875.32
10965.872
10464.056
8676.8447
7764.2479
7521.163
5500.1076
4250.473
-2272.8922
579.7981
6806.5131
4422.5635
6131.9808
4765.4771
3734.4141
4442.1769
2633.3216
1423.5459
-44.19009
-1762.4543
-4206.3952
-5891.6417
-8707.502
-10773.998
-12780.502
-14480.148
-15927.244
-15240.329
-14842.622
-10945.826
-10713.221
-6096.7213
-12239.032
-17010.679
-3603.9606
-6583.2066
-9124.6593
-1329.3287
-2153.7379
-4660.7662
-264.79196
-1084.0532
-1328.6369
969.60406
3219.0388
2875.6746
1368.461
4496.793
6401.3743
3380.432
7911.0501
10156.418
4327.598
10152.237
13559.18
5710.3294
12384.063
17130.194
7103.2848
15151.216
19908.881
8820.4247
16808.634
22061.146
10289.328
19314.633
24956.951
12087.813
21180.395
26372.442
13547.385
22782.224
27777.628
15053.399
23902.331
28704.12
15848.279
24987.588
28819.929
17313.29
25228.907
28575.078
16941.895
24956.973
26782.664
16720.733
22956.218
25294.937
14050.225
23944.76
22589.428
11599.98
17717.222
16178.391
9857.858
10597.965
13271.43
1935.8812
-207.52058
562.64755
10113.231
4106.1385
-531.56518
4989.316
-908.985
-1039.9505
1182.3032
707.0632
-1519.0099
1571.443
153.87593
614.75629
-1056.9117
-228.07541
482.80196
-1724.1416
-62.870792
2097.4474
-2947.1595
337.05446
2529.298
-4098.9643
-67.701639
2950.8621
-4771.5211
95.725827
3587.3496
-5451.8713
276.8583
3985.0122
-5947.1898
208.38785
3972.2898
-5902.3939
347.57547
4383.2551
-6080.0824
450.35265
3966.7514
-5326.6779
429.05727
3729.6914
-5288.9495
550.81561
3601.1573
-4082.8219
1028.8604
2834.2216
-3204.1026
868.17073
2421.636
-2499.8894
1146.1981
1366.3285
-865.29969
1113.5439
2021.9874
615.85754
2193.3733
-381.08729
-218.42896
-1152.567
-942.84503
3469.8877
3284.6899
817.17134
4361.9505
5417.7713
5307.3803
15617.466
13179.491
8058.689
11306.011
9379.705
8157.8866
8140.1295
11524.25
8063.8058
5755.0845
4045.7634
5113.8251
462.08948
3655.8504
4583.5115
-2038.7674
198.72992
2911.0102
-4929.0057
-2465.5284
1476.8288
-8662.344
-5625.4385
-989.27019
-11246.836
-7832.3228
-1360.9655
-14288.654
-10458.792
-4078.9165
-16630.391
-13062.915
-5996.0447
-18886.765
-15282.119
-7979.9729
-20792.89
-17606.056
-10377.872
-22341.51
-19460.595
-12460.001
-23141.58
-21269.494
-14218.556
-23915.588
-22405.627
-16467.074
-23647.167
-23717.977
-17599.325
-23161.591
-23396.797
-18121.246
-21200.096
-23088.076
-18777.959
-19596.519
-22115.505
-17780.002
-15474.72
-19336.968
-15676.191
-11524.62
-13213.555
-8988.4841
-5295.8234
-9613.4733
-7482.161
)
;

boundaryField
{
    free
    {
        type            calculated;
    }
    fixed
    {
        type            calculated;
    }
    traction
    {
        type            calculated;
    }
}


// ************************************************************************* //
