/*--------------------------------*- C++ -*----------------------------------*\
  =========                 |
  \\      /  F ield         | OpenFOAM: The Open Source CFD Toolbox
   \\    /   O peration     | Website:  https://openfoam.org
    \\  /    A nd           | Version:  6
     \\/     M anipulation  |
\*---------------------------------------------------------------------------*/
FoamFile
{
    version     2.0;
    format      ascii;
    class       pointScalarField;
    location    "0.28";
    object      p;
}
// * * * * * * * * * * * * * * * * * * * * * * * * * * * * * * * * * * * * * //

dimensions      [1 -1 -2 0 0 0 0];

internalField   nonuniform List<scalar> 
3969
(
812346.45
-1305046.7
225.3448
1620.3151
1605413
-2625730.4
1310.9252
-596.27215
692279.74
465722.32
222965
-27272.458
-228575.08
-512783.85
-568711.3
-1836.8296
-3536.7926
-3538.736
-1534.7701
1171.0567
2932.7714
2761.9092
275205.69
308928.88
302981.11
318242.02
312577.04
312751.3
305762.36
299057.53
291989.96
282838.13
276478.18
269843.48
261873.62
255722.16
249269.27
241437.52
235156.62
227289.26
220404.35
212292.73
205246.31
197695.1
190697.02
183981.01
175998.62
168133.53
159509.85
150781.33
141658.15
131425.24
121263.35
111099.22
101009.47
91241.122
82344.305
73522.272
64540.085
56069.176
47272.145
38823.547
30331.749
22043.643
14734.937
7650.0751
3742.1322
-608.42018
-911.05521
-292282.79
-256284.36
-310909.57
-282329.9
-311609.09
-292110.84
-297380.97
-283867.89
-281610.41
-272495.06
-266711.91
-261889.75
-253160.9
-249851.28
-242321.05
-235791.09
-229233.16
-220955.86
-214519.74
-206831.12
-198808.8
-193151.25
-184483.05
-178714.69
-170896.28
-163376.59
-154852.05
-145786.01
-137093.38
-127207.44
-118749.06
-108662.83
-100017.92
-90944.289
-82969.962
-75033.015
-67594.19
-59458.872
-52340.374
-43522.02
-35288.029
-27136.607
-18927.66
-11773.921
-5278.2464
-1072.721
1017.9797
1210261.4
894411.54
386433.53
-72263.604
-448063.12
-946148.39
-777635.21
-345190.79
-398517.95
-250774.69
-365479.15
-313657.51
-328506.89
-314956.2
-312712.48
-300873.21
-288480.64
-298338.59
-278511.47
-283079.88
-272023.37
-266426.77
-259932.92
-251094.3
-243782.95
-234834.85
-225996.12
-218458.16
-210401.31
-202902.23
-195218.28
-188558.15
-182389.86
-173213.97
-162654.63
-153424.63
-142739.7
-131308.88
-120358.62
-109192.25
-98788.242
-88920.572
-79932.274
-68159.15
-61694.55
-52766.501
-43730.626
-34709.82
-26095.443
-17707.357
-10429.827
-4519.3268
-313.99403
1982.1806
4346.4628
2964.7786
3069.4368
-1273.198
-1711.0665
-2743.5825
-2270.1251
-61.833133
163.8717
3218.7592
8742.8787
15363.041
23464.735
32310.808
41177.549
50273.699
58291.228
65826.838
79351.447
84763.707
94441.044
104493.79
114723.66
125310.67
136291.66
146825.59
157091.51
167001.49
175333.49
183828.48
191828.77
199346.11
207195.26
214903.48
222302.32
230758.37
238291.3
246807.04
252760.93
257106.77
267187.43
280906.99
278743.84
289990.99
292596.53
299082.39
313393.52
325926.01
317596.91
335466.38
323732.69
315090.4
328446.72
325452.1
716509.74
774423.77
814695.8
806915.98
799103.91
804624.64
651382.73
-1017459.2
-1287665.3
-1475157.3
-1571666.8
-1487591.9
-1473622.6
-1121088.3
50.633289
-339.34103
-291.08253
190.75338
335.23815
-1.9036939
727.937
777.21713
649.54636
721.97639
459.33788
390.92812
879.63719
26.181325
231209.45
235283.11
237448.49
241886.13
241302.47
241789.51
235875.47
235119.31
226377.87
225310.88
218065.17
212072.63
209194.52
203841.87
198765.41
193559.28
188606.27
182697.12
176658.31
170672.96
164720.95
158126.34
151936.51
145494.91
139532.89
132098.51
124861.9
117626.32
109464.17
101147.63
92818.368
84244.389
75809.795
67598.644
59788.727
51970.61
44439.554
37716.193
31333.326
25574.658
19612.594
15011.75
10260.397
6763.5758
3995.4281
606.64067
-1009.9891
141966.27
143469.4
142570.58
150286.73
152573.78
157357.72
153966.48
152337.8
149253.84
147462.6
143191.31
140574.67
135605.82
131541.11
128631.78
124601.32
121393.97
117232.54
113572.95
109388.96
104682.16
99926.658
95190.325
90736.888
85783.36
81647.741
77523.622
72157.344
67994.121
62996.053
58033.768
52954.838
47667.913
42499.125
37235.967
32251.426
27486.743
23492.317
19495.67
16227.786
12891.178
10492.232
7541.9027
5476.5253
3613.0644
466.01054
-273.08707
59904.425
69573.397
63261.147
69979.812
68617.097
73070.98
71219.73
72766.922
70015.738
69176.243
67979.176
66097.911
64179.252
61013.034
58274.396
57138.08
55858.977
54272.548
53128.24
51415.007
50352.006
48868.026
46885.372
44812.51
43256.684
41034.142
38841.58
37151.076
35012.367
32516.193
29840.691
26941.424
23759.521
20576.642
17507.469
14495.407
11792.743
9475.8816
7202.314
5956.0855
4461.1122
3868.1278
2473.7451
2424.6963
1219.2889
277.17782
6.2651763
-13332.91
-12738.515
-16965.237
-11754.892
-16752.31
-13423.539
-17024.377
-14137.226
-15122.122
-11251.781
-13296.277
-11431.763
-12321.885
-11001.718
-10697.308
-9698.4012
-9566.3094
-8745.5585
-8444.6975
-8636.9885
-8440.6723
-9436.2582
-11172.349
-10991.585
-10636.197
-10445.353
-9514.5298
-8660.159
-7777.9341
-6883.4733
-6187.4356
-5596.2477
-5476.3689
-5294.1656
-5410.1819
-5357.0858
-5506.1921
-5120.3491
-4015.1263
-2762.0171
-2004.1853
-918.58327
-491.82797
548.82396
167.32994
885.04982
612.64059
-98463.24
-87089.908
-90446.028
-93763.142
-97997.718
-96646.075
-97174.808
-94593.267
-93830.219
-88498.323
-88883.885
-83716.685
-83840.259
-78870.605
-77633.784
-73717.753
-71839.818
-68645.783
-66380.368
-64122.731
-59629.666
-54902.737
-52928.827
-48355.919
-47250.295
-46180.676
-42691.048
-39420.16
-36745.867
-33893.383
-31213.094
-28816.078
-26708.097
-24627.218
-22755.659
-20945.995
-19283.374
-17147.563
-16281.437
-14053.135
-11655.285
-9117.0458
-6913.2204
-4371.8841
-2870.6047
-469.99827
432.75647
-176769.34
-167210.22
-171532.15
-181704.29
-183868.41
-181833.57
-180315.28
-174491.47
-173525.34
-165797.15
-165431.48
-158644.83
-156970.01
-153001.9
-149204.19
-143965.45
-139837.91
-134698.56
-130212.14
-125728.25
-119592.16
-115391.48
-107309.99
-101787.91
-96240.437
-91544.615
-87349.824
-82268.778
-76957.062
-71648.339
-66693.455
-61388.836
-56604.722
-51879.189
-47613.11
-43326.021
-39174.03
-35125.857
-30433.592
-25414.003
-20801.793
-15874.902
-11206.826
-6715.0532
-3719.0829
-650.32252
772.38242
-289491.41
-210338.86
-249022.79
-250317.8
-258500.48
-253152.72
-252681.22
-246293.44
-244301.58
-234852.73
-234175.07
-227106.5
-222056.83
-215784.66
-209275.56
-202467.26
-195279.31
-189325.21
-182348.51
-176253.17
-170264.54
-163700.39
-157684.56
-151811.56
-144985.53
-138613.69
-133542.19
-125023.14
-117109.9
-109183.52
-101202.34
-93102.692
-85239.77
-77683.004
-70506.91
-63515.173
-57084.805
-50214.353
-43763.308
-35998.757
-29291.849
-22349.443
-16101.957
-10357.836
-5995.7556
-2065.2041
546.95276
524846.63
505745.4
529855.39
531203.61
534678.95
523983.7
489917.6
343209.75
386964.52
365363.73
376178.42
377943.94
370070.22
362477.71
165880.32
199880.76
169084.87
188227.25
177558.93
178148.44
191996.91
15955.216
-7610.5528
-13419.09
4236.619
-3841.034
-26321.993
42795.578
-134054.24
-131751.05
-141682.28
-125600.41
-130716.52
-126977.23
-79841.638
-378412.74
-401733.43
-393359.88
-402985.95
-409957.67
-402268.01
-381085.3
-471832
-422385.5
-373118.76
-380198.76
-358790.1
-331657.19
-371084.91
-468234.91
-482425.61
-542663.39
-563199.59
-572888.78
-564735.04
-435188.69
-376277.63
-433452.77
-433598.7
-441431.81
-461306.3
-439966.06
-402817.92
-314376.81
-350855.62
-368992.34
-371463.65
-369701.71
-344349.87
-365026.29
-323256.03
-352649.05
-344753.09
-365197.54
-351998.03
-349982.41
-327591.52
-323836.91
-339342.84
-349295.85
-350346.74
-350171.3
-335339.65
-338684.12
-316526.73
-311676.82
-316844.76
-323149.13
-322354.62
-315346.18
-311859.18
-304386.27
-312293.65
-315894.72
-320473.83
-317380.95
-316825.49
-315840.11
-301640.15
-297260.63
-297649.55
-301437.43
-298528.29
-300697.22
-297697.07
-290862.44
-292940.17
-293670.33
-295475.25
-295985.16
-297002.59
-297344.21
-287172.27
-283585.74
-282306.33
-285358.38
-283461.32
-282712.34
-283392.69
-279613.41
-279213.12
-276108.09
-279514.08
-277557.96
-277057.74
-282354.26
-271764.39
-271576.42
-269447.3
-273686.02
-271674.11
-266659.95
-273169.27
-267832.8
-262407.31
-266407.71
-264318.67
-266761.68
-262735.94
-269280.03
-258666.06
-257077.51
-260651.98
-258289.42
-261542.86
-255139.52
-261390.55
-254178.71
-250129.49
-254887.1
-251185.2
-254690.7
-249061.88
-255783.15
-245937.86
-242315.83
-247676.74
-244108.24
-248983.28
-243009.48
-249225.52
-237885.66
-235972.73
-240586.59
-237145.11
-241973.14
-235888.33
-240864.85
-230050.42
-228252.26
-233398.4
-229480.73
-234853.07
-228541.12
-233816
-221919.84
-220799.08
-225809.14
-221541.4
-226912.17
-221081.53
-226090.45
-213813.65
-213098.82
-218060.08
-213905.44
-219622.61
-213934.23
-218770.53
-206862.88
-205453.12
-210618.88
-206256.89
-211848.2
-206429.76
-211072.7
-199290.24
-198362.24
-203319.53
-199244.24
-204917.11
-199190.18
-204359.49
-192824.87
-191323.99
-196708.37
-192378.92
-197264.66
-192102.71
-197163.12
-185445.93
-185316.79
-189361.16
-184811.73
-190854.42
-185319.69
-191161
-178133.75
-179181.24
-180216.23
-179190.51
-182835.33
-178407.75
-183742.67
-169366.86
-172083.91
-170674.41
-173421.34
-175170.6
-173114.38
-176982.48
-163294.71
-163779.98
-163513.06
-164813.55
-165843.17
-163418.93
-168135.73
-154769.68
-154549.26
-154652.73
-155613.24
-155983.78
-154893.59
-156745.16
-144679.31
-144551.26
-144629.23
-144865.58
-144900.7
-145066.32
-145667.63
-134768.38
-134001.65
-134627.1
-134195.71
-134677.44
-134625.66
-134501.71
-123918.31
-124083.21
-123652.66
-123339.63
-123223.39
-123490.66
-123078.61
-114082.04
-113427.01
-113146.56
-112635.6
-112534.07
-113137.63
-112535.31
-103866.7
-103686.07
-103085.96
-102609.34
-102337.9
-103171.67
-102384.6
-94928.899
-94513.354
-93881.088
-93307.447
-92947.855
-93818.632
-92904.473
-86228.702
-85867.764
-85244.367
-84512.421
-84147.166
-85298.261
-84694.878
-78201.544
-78036.685
-77197.91
-76749.822
-76221.233
-76825.147
-76209.566
-71171.125
-69458.339
-69895.997
-67923.397
-68102.672
-69335.853
-67910.489
-63206.107
-62282.881
-61052.087
-60853.714
-59499.564
-59256.498
-59839.957
-53982.487
-52989.537
-52575.392
-51569.098
-50955.798
-51327.506
-51971.748
-45294.293
-44204.532
-43839.611
-42415.374
-42051.508
-42058.3
-42453.926
-35857.759
-34941.886
-34024.895
-32730.008
-32352.113
-32255.733
-32727.175
-26561.134
-25440.146
-24443.812
-23473.058
-22894.859
-23157.112
-23457.937
-17458.948
-16217.276
-15300.976
-14375.966
-13776.032
-14420.792
-14524.008
-9840.1705
-8658.4054
-7866.2246
-7059.9381
-6587.304
-7489.9962
-7407.9516
-3424.5991
-2270.3388
-1636.3707
-1062.9923
-702.86319
-1662.4597
-1566.3116
90.329414
612.52412
952.51979
1364.5837
1596.5612
871.87698
721.83145
943.87264
1303.2888
1519.8925
1545.8327
1572.6316
1450.058
1587.993
-1911.046
-1875.5229
-1812.2071
-1942.6828
-1679.8712
-1626.1067
-2021.4802
-5773.1866
-5569.8492
-5522.1965
-5482.9995
-5267.4659
-4655.9033
-5315.8994
-2978.1842
-3429.7657
-3067.5025
-3059.9284
-2901.12
-2905.3343
-2776.4827
-908.11897
-1493.7081
-1567.8426
-1760.0769
-1380.4642
-1481.8318
-655.67837
2473.5384
2168.9815
2386.0617
2327.2471
2552.626
2668.3094
2917.3766
4001.3958
3706.0632
3420.7738
3351.8702
3792.3781
3618.5966
4207.3792
3391.8189
3209.2838
3151.6281
3022.9882
2946.4573
3282.7263
3794.8057
333113.4
332563.55
375837.95
369252.35
379925.31
361712.67
350034.64
350828.79
361832.79
378585.15
377530.38
382855.18
360247.64
354250.48
342108.86
348428.1
358695.21
360447.05
361665.56
343152.69
342613.33
327112.57
337349.02
347011.76
350049.97
348542.74
339221.55
340754.05
326429.47
329905.79
333908.1
336770.09
337196.92
331508.57
327269.63
314288.47
316123.22
323441.8
320000.27
323708.33
314590.08
318669.87
310533.35
311018.19
313867.49
312893.23
319172
312543.27
318030.92
298473.65
297547.04
303602.74
295708.55
302551.12
298142.05
301705.72
293374.26
294306.63
295590.6
293850.14
299402.2
293353.69
301073.59
286283.29
282782.38
285955.07
281377.31
287688.2
282228.23
289693.65
279358.55
276335.52
282247.88
275989.58
283266.55
277804.58
284026.01
270735.78
270937.06
272734.14
268264.62
273710.18
269513.77
276261.66
267122.56
263072.53
266128.78
262559.53
267614.25
263636.31
264159.28
259412.32
257803.47
259174.83
256632.4
260554.72
257630.41
262942.16
252769.42
251292.3
250557.23
251129.39
253011.93
250583.87
255362
248126.23
243674.25
245200.61
242780.37
247363.56
243177.56
246756.55
239733.24
236875.18
237358.4
236758.89
238663.21
235700.95
239083.65
232653.95
228566.31
230635.42
228288.42
230862.57
228344.55
230967.75
224319.68
221366.83
222614.01
220509.93
223064.79
220557.7
223125.19
217188.84
213106.39
214799
212737.84
215060.92
212694.03
214993.82
209635.27
205251.66
207538.21
205135.88
207465.22
205177.21
207322.43
202318.91
198020.26
200435.35
197881.8
199979.45
197385.82
199910.27
195247.64
190980.2
193841.05
190974.33
192909.7
190354.32
193016.38
187901.07
184394.5
186808.87
183886.34
185588.38
182672
185691.33
181034.41
176500.35
179737.28
176376.4
178148.35
175034.09
178650.72
173276.29
168676.41
172231.94
168654.3
170298.03
167062.99
170566.19
164599.68
160606.54
163542.61
160270.55
161472.43
158183.71
162241.98
155807.42
151712.99
154187.53
151149.45
152305.22
149016.69
152960.12
145219.35
141285.66
144208.84
141062.12
141715.47
138597.58
142549.17
134608.93
131531.79
133276.26
130578.62
130891.78
128332.2
131950.34
123635.76
120641.31
122311.9
119982.39
119878.08
117666.42
120957.91
112480.8
110193.38
111266.62
109257.95
108806.34
107144.13
110265.69
101746.61
100033.7
100893.17
99294.888
98478.501
97616.006
100364.54
91592.218
90592.234
91160.23
89858.101
89135.869
88399.391
90766.236
82200.516
81757.135
81971.963
81280.103
80127.036
80690.937
82043.817
73123.743
73112.4
73696.968
72791.431
72409.407
71540.418
73511.526
64258.494
65496.355
65030.811
65212.675
63941.261
63935.631
65886.658
56317.197
56918.461
56897.279
56680.189
56622.988
55207.088
58851.486
47696.275
48468.41
47904.731
48222.264
47935.941
46983.38
49860.288
39203.641
39627.854
39339.99
39514.655
39236.096
38412.928
40999.231
30215.891
30403.66
29962.965
30043.327
29966.715
29621.022
31708.195
21634.214
21446.005
20935.184
21047.034
21107.247
21004.829
22723.044
13754.145
13265.679
12562.432
12653.016
12589.775
12919.999
14084.889
6605.6247
5656.0437
5002.5941
5101.6829
5221.2746
5980.307
6948.5003
2012.6153
1595.7056
1001.8217
1140.0493
1030.3664
1712.7966
1913.6476
-1563.3468
-1964.2872
-2567.4376
-2620.3652
-2646.0039
-1992.4642
-1576.054
-665.93489
89.093127
-250.69266
-373.84436
-453.70615
-630.90208
-937.85273
337696.06
264688.85
257252.49
254712.52
263391.44
265935.15
255410.24
255074.3
249755.44
245674.9
238279.25
232952.84
226104.06
219462.99
213785.5
208364.06
200808.73
194809.23
188194.32
181747.27
175134.7
168392.04
161776.36
155053.9
147753.2
140350.97
131682.8
123364.53
114609.51
105665.2
96983.182
88440.001
80180
72042.14
65442.244
56117.1
50233.275
43265.456
35763.824
29512.255
23386.258
17765.092
12960.238
8832.1484
5305.8354
2836.3918
-231.53123
200609.39
201774.74
145195.68
172511.42
191152.18
178458.99
186548.32
175301.19
176599.3
168821.79
166552.52
161437.24
154737.61
152365.54
148312.08
144955.25
140182.3
135011.23
131271.41
125973.67
121412.04
116867.57
112371.63
107590.98
102894.97
96816.029
94261.29
88083.833
82756.941
76993.793
71190.175
65323.665
59645.655
54591.589
48969.245
44453.984
40013.21
35067.554
30961.599
25957.367
21062.097
16082.159
11481.438
7188.0301
3612.7865
55.185343
-1045.5869
93486.266
113157.28
59165.011
98898.337
81427.367
76532.324
78529.907
75693.94
74259.834
71039.458
74010.298
71175.927
74427.753
71447.416
71433.646
70930.013
68568.751
66723.415
65282.427
62203.066
60417.796
58166.803
55925.762
53644.848
51246.412
48509.937
46061.613
42007.103
38692.508
34993.502
31711.903
28687.364
26220.317
23817.197
21721.648
19791.152
17794.4
15475.824
12924.49
10631.203
8147.7985
5928.1974
4295.0503
2951.4007
1734.3222
1337.0312
-503.22829
-14699.94
19317.413
-9550.7125
11926.384
-4939.1727
5507.5246
176.74637
-8301.1443
-2987.4817
-3625.9654
-4795.1076
-1203.6733
-3472.9593
2450.2348
3516.1507
4334.2582
4157.9195
4506.1014
4601.5143
4294.0984
4796.662
4938.6178
5277.1067
5612.63
5436.8996
5344.8399
4909.5288
4974.2036
4481.7013
4308.641
4200.0458
4410.5069
4525.3952
4757.7349
4966.6745
5110.3153
4797.0335
4559.6636
4135.909
3580.0901
2663.3604
1864.7865
1227.8256
419.74722
350.48957
-364.56783
-389.41187
-146188.4
-71447.664
-85878.839
-60366.941
-82604.288
-66025.79
-80204.323
-75040.112
-70542.753
-73209.641
-65502.326
-68902.128
-64142.932
-65995.079
-62797.596
-61817.952
-60094.368
-58559.859
-56565.214
-54839.704
-52659.262
-50581.596
-48397.051
-46673.429
-44791.701
-43859.673
-41085.395
-39249.033
-37309.946
-35308.109
-33034.91
-30601.037
-27784.245
-24888.937
-22192.836
-19507.097
-16873.597
-14398.352
-12523.918
-10516.399
-8778.5422
-7141.1396
-5583.1318
-3909.1076
-2430.1444
-647.88706
-652.41481
-223307.36
-171147.55
-145337.93
-150697.68
-160716.22
-156203.23
-163196.54
-149982.73
-161008.9
-156547
-158413.03
-154461.63
-150821.11
-148883.04
-143549.5
-140037.22
-134718.49
-129654.66
-124769.83
-120515.87
-116330.12
-111703.16
-107436.91
-100858.34
-94030.087
-87111.023
-83483.552
-78338.685
-73687.321
-68599.125
-63896.323
-58581.968
-53237.653
-48017.085
-42858.124
-37739.136
-32902.288
-28561.368
-24437.4
-20303.458
-16851.405
-13429.792
-10099.112
-7233.8348
-4149.1893
-1698.9456
617.16506
-286200.46
-223990.63
-232849.09
-227543.79
-253641.88
-244930.51
-249495.4
-243916.79
-244663.17
-237545.01
-232827.69
-229801.48
-223252.86
-218236.38
-212475.22
-207487.61
-202743.01
-196986.69
-192060.44
-185496.38
-179120.26
-172081.91
-165037.37
-157230.17
-151097.64
-139268.29
-132888.12
-126185.94
-119308.67
-112613.05
-105128.86
-97083.615
-89091.778
-80374.656
-71817.265
-63822.127
-56949.56
-48652.497
-41728.274
-35787.122
-29947.522
-24177.542
-19019.833
-13621.729
-8868.1458
-3852.4695
-1165.1678
399555.57
437549.52
430066.08
446510.53
443063.38
420883.2
392171.44
287456.47
331748.25
328226.58
337901.35
329353.85
316878.83
292032.43
271861.87
296374.9
309045.53
313792.29
306526.97
305414.12
290307.89
261742.38
272542.46
275485.38
284703.01
273503.82
277180.52
255076.45
255949.21
264642.97
272602.22
270528.78
268936.01
265998.91
249731.48
250828.45
263013.37
254529.61
266507.21
257225.02
258087.95
256914.69
247981.81
249977.62
249408.4
252221.49
244200.8
250637.67
245276.22
240253.27
252063.96
242101
250356.77
246791.61
244810.97
243385.96
239929.71
240241.6
231652.65
242197.78
232134.16
238474.37
235298.12
231197.75
235272.49
231828.83
237723.94
229930.99
235120.25
231266.99
226463.66
231690.54
222775.05
229353.35
222966.76
227291.69
224951.98
224616.35
223412.18
220146.98
223512.21
220688.79
220684.92
219367.82
217536.86
219431.1
214376.84
219825.29
213776.45
216714.09
217063.68
213222.24
211690.41
210422.57
213785.43
208037.65
210710.54
209237.34
208600.46
206815.58
206683.76
206315.48
203478.84
205788.02
203791.31
201490.48
201363.56
200704.93
201868.15
197856.57
198505.84
198312.73
195660.06
195397.35
194385.34
195901.76
191583.5
193583.76
192730.52
189380.88
189708.29
188979.56
188921.24
185941.67
187035.92
185930.43
183065.17
183882.64
181943.54
183009.73
179819.9
180363.66
179302.58
176638.7
177243.52
176042.79
176480.23
173495.57
174026.51
173107.6
169064.67
171748.6
169555.74
170100.64
167189.58
167568.74
166466.24
162562.9
165574.75
163028.21
163402.9
160911.97
161235.61
160402.46
155469.25
159342.59
155987.93
156833.1
154408.26
155248.88
153662.4
148432.81
152410.11
149076.18
149812.34
148122.57
148425.14
147111.82
140312.31
146182.34
141664.65
143631.15
141108.95
142493.45
140702.64
133594.56
138277.25
135089.46
135328.12
134588.63
134850.53
133497.15
126267.71
130177.31
127175.02
127723.48
127053.62
127479.84
126027.74
117522.51
120738.76
119313.12
119176.97
118382.47
119167.39
117561.75
108897.45
113164.37
110172.01
110283.47
110148.9
110948.16
109608.73
100597.67
103187.78
101637.64
101440.98
101526.68
102285.18
100913.83
91672.719
94177.699
92520.555
92157.626
92606.869
93479.53
92341.464
83056.433
85038.411
83981.3
83492.814
84254.017
85232.888
84240.972
74571.108
76319.561
75426.963
74818.679
76070.566
77016.23
76177.375
66419.654
67850.938
67214.232
66633.045
68193.972
69102.245
68378.423
58471.877
59565.982
59320.535
58810.997
60485.6
60990.898
61245.109
50311.728
51823.864
51996.997
51309.093
52975.139
54869.701
54541.648
44116.077
45253.434
44359.306
43944.182
46345.382
45767.231
48502.843
36921.976
36915.934
37884.759
37298.907
38377.459
40783.468
41000.061
30464.738
30137.472
31163.509
30436.189
32219.846
33082.065
34684.267
24342.003
24409.946
24850.788
24457.509
25254.235
26709.373
28162.534
18816.612
18221.832
18789.264
17991.726
19262.547
20235.629
22109.344
13863.337
13494.782
13533.278
13152.702
13884.849
14690.292
16343.359
9286.7852
8493.4491
8552.4356
7981.8691
8590.4689
9394.9979
11082.683
5844.1077
5217.0166
5188.5534
4722.9162
5332.7598
5765.5343
6892.3129
2429.3239
2438.8258
1941.4614
1738.4039
1881.0311
2045.6869
3138.7765
649.44895
201.43593
92.714416
-162.76192
36.884407
377.54671
518.2633
-945.27397
-703.61316
-893.98129
-754.8463
-696.405
-1111.4213
-498.79871
259198.85
269898.23
294339.3
290313.07
300546.74
275867.49
275815.25
199353.66
242636.04
251550.16
258936.88
259203.13
241967.39
229030.02
194273.72
181188.6
203145.04
196014.64
206736.3
185265.41
192739.56
168921.82
176383.48
187212.23
184799.22
188297.77
182989.74
165992.68
174784.07
174062.39
183206.67
177570.64
186951.1
174782.74
178303.68
166312.34
163926.52
168248.62
165229.27
164454.04
169790.26
167591.55
164753.57
164594.83
173571.61
165236.66
172831.62
171767.79
167836.43
161371.23
157239.73
159811.71
156074.98
161441.18
158107.1
163272.55
158342.43
153309.59
162359.29
156021.97
157733.72
159853.17
160869.38
152306.99
151129.74
155292.96
146602.18
153425.81
152636.48
156273.06
150721.55
147656.82
149858.56
145599.8
149408.36
149774.57
151172.41
146953.29
141773.52
148545.99
140908.44
147115.55
144274.71
151096.58
142593.83
139589.1
145015.97
136154.61
142544.35
139622.19
144085.54
138917.85
136947.65
140699.01
133145.66
138773.59
137279.02
138121.19
135136.24
134961.4
135299.03
129430.24
135153.98
132807.32
134053.9
132210.2
130674.01
131117.03
127237.39
130296.88
129564.67
129271.82
128155.1
127184.12
127785.25
122938.96
126240.71
126304.65
126907.1
124182.55
123580.53
123079.63
119602.64
122214.21
122034.35
121211.96
120680.3
119064.02
119176.29
115696.23
118097.85
117719.2
117764.66
116091.41
114914.65
115037.27
111775.76
113678.97
113290.15
113499.13
112566.17
110790.8
110755.32
107579.15
109422.6
109254.74
109494.82
108892.01
106505.06
106183
103595.91
105399.17
105077.37
105196.68
105249.52
101812.66
102088.78
99869.18
101659.09
100602.47
101387.96
101145.17
97691.455
98469.344
96521.541
97681.17
96655.393
97626.514
96973.23
93641.195
94415.35
92362.112
93911.422
92233.912
93350.668
92580.263
89819.443
89055.146
90166.301
88625.165
87973.556
89670.967
87145.648
85533.897
85315.061
83669.952
85587.574
82721.604
83735.002
82875.841
80387.407
81135.286
79713.872
80578.195
78360.523
78886.135
77241.529
75568.357
76345.35
74591.158
76041.046
73113.813
73342.598
71612.918
70829.767
70481.241
69482.098
70303.84
67745.776
67550.933
65663.306
65458.561
65187.965
64347.056
65053.69
62511.789
61989.26
59500.917
60213.852
59290.942
58902.873
59301.899
57085.656
56378.992
53478.065
54805.133
53522.025
53533.629
53822.087
51820.542
50811.641
47464.353
49438.811
47789.453
48451.11
48295.961
46491.266
46060.05
41600.631
44291.695
42650.492
43516.516
43323.64
42440.117
41846.189
36433.323
39704.122
37434.989
38918.078
38516.473
37346.008
36881.106
31356.004
34557.848
32891.972
34536.953
33864.108
33585.362
32621.217
26570.42
30460.649
28363.127
30269.736
29566.915
29428.587
28817.781
22227.004
25987.12
24447.474
25930.709
25521.011
25615.14
24204.023
18123.854
22023.141
20310.394
21608.509
21351.253
21228.781
20281.139
14513.84
17475.45
16089.954
17269.723
17127.271
17093.024
16113.94
10727.995
13508.829
12148.768
13149.143
12898.675
12855.102
12268.611
7437.0241
9264.336
8113.7786
8719.2753
8598.6397
8782.1848
8427.577
4490.0422
5796.2394
4672.3313
5045.6899
5059.3794
5098.5131
5210.479
1868.0369
3186.3139
1824.5814
2251.9983
2035.9906
2192.9133
2729.5801
-522.79005
-621.57737
-1521.4243
-1389.7877
-1477.3614
-1140.2349
-121.77665
-1105.5466
-281.17419
-1313.9707
-1026.0456
-1195.3957
-1350.4409
-813.51284
141727.19
145670.84
139674.72
155508.14
147236.18
139207.33
133968.67
99521.526
148214.06
137379.23
151595.21
132642.03
139591.05
116442.63
96206.98
89449.472
95163.541
97868.579
93424.647
86992.682
87381.716
75729.038
94863.725
97064.168
106485.32
93223.747
102238.24
82868.149
85454.465
81070.936
84400.37
79415.853
80549.581
76081.672
78615.241
74661.794
86810.521
78167.033
82669.716
81360.484
81010.686
79817.053
78007.848
83271.695
71658.989
77098.457
77102.971
74045.371
76514.634
74159.993
84911.072
70248.068
77638.241
73697.424
72048.229
76346.827
75697.919
84153.128
68379.793
74026.549
71887.926
72561.394
74273.101
74721.087
81550.828
65504.656
71268.65
71620.432
69749.3
72343.254
72907.701
80445.561
64077.804
72327.586
69286.168
69768.814
70277.591
69890.6
77496.35
62110.108
68780.508
67230.065
66656.296
69073.691
66973.571
78067.141
60448.061
68244.239
65847.494
66098.931
66701.196
66313.816
73467.9
60751.263
66487.66
66522.053
61189.516
68755.13
66106.161
70099.869
58901.355
65387.2
63629.069
60820.077
65742.733
63671.813
66911.194
59303.592
62169.825
62625.16
58834.333
64837.836
60928.788
65687.554
57407.005
61287.434
60394.04
57657.22
61914.379
59787.277
63083.005
56200.944
59364.433
58789.892
56131.801
59501.223
57201.465
61612.257
54579.451
57826.185
56733.459
54189.276
57307.937
55537.542
59687.696
53020.951
55920.89
54665.521
52664.035
55529.544
53236.69
57784.994
51247.88
53956.149
52781.585
51257.043
52881.163
51145.708
55266.061
49457.824
52211.116
51228.315
48982.233
51184.162
49017.1
52941.055
47882.03
50993.238
48466.515
47650.067
49048.595
46708.402
50259.544
46290.96
47898.68
46201.805
45559.583
46676.75
44800.528
47925.13
44020.555
45845.633
43746.837
43847.647
44483.131
42769.629
44092.545
42335.027
42417.523
41328.022
41278.327
41936.273
40415.83
42220.728
39434.72
40885.782
38126.831
39278.397
39074.329
37913.408
39975.356
36593.574
37713.979
35878.532
35821.311
37292.451
35351.259
36435.885
33500.686
34199.255
32853.711
32518.438
34842.774
32678.65
33296.475
30561.629
31345.505
30026.617
29458.656
32263.363
29953.582
30055.755
27310.601
28218.402
26714.938
26406.637
29695.46
27036.905
26950.555
24283.956
25205.974
23860.262
23708.165
27065.609
24195.83
23840.334
21312.913
22439.621
21177.192
21108.024
24926.059
21327.106
21025.499
18734.583
20071.511
18807.156
19329.044
22930.88
18704.335
18354.519
16275.566
17633.11
16666.375
17093.56
20673.659
15992.152
15768.008
14003.616
15630.1
14641.563
15554.945
19018.795
13838.585
13368.112
12070.659
13340.236
12987.358
13362.593
17308.508
11453.313
11287.405
10015.724
11653.116
10894.649
11862.208
15283.283
9782.1125
8770.677
8153.1521
9222.1886
9053.3996
9849.9821
13100.713
8020.4547
7055.7796
6412.6022
7470.0096
7236.3464
7679.8572
10805.023
6156.3219
4697.0174
4648.4383
5059.1473
5282.0906
5561.2628
8732.6689
4656.4075
3811.1148
3441.0018
3853.7242
3876.8128
4000.3659
6471.7369
3085.961
1964.2424
1735.9632
1849.0696
1941.811
2173.2902
4310.8067
2309.1005
1911.1612
1612.3686
1783.2698
1822.0642
2018.428
3012.9288
551.79801
447.53632
-182.75279
34.717073
-107.67678
159.80796
604.71291
479.47183
626.89711
199.81043
496.99433
394.45494
777.99373
589.79065
-737.51295
-1207.7254
-1368.6341
-1098.8239
-1326.5644
-911.41559
-1185.4994
-9852.4181
-17332.845
-11936.538
-10035.224
-11118.712
-12685.654
3554.7282
-11483.09
-8627.5939
-8360.6655
-3891.7971
-8131.5506
-3439.5178
-5987.4813
1968.6741
-22515.659
-17706.748
-25100.25
-16772.965
-22089.427
-3798.9386
-10820.113
-15850.304
-6240.3069
-10569.057
-10167.886
-2183.2666
-11447.01
-4838.0582
-8671.9763
-7535.7412
-21308.668
-5541.8356
-23102.43
-339.84979
-7070.2165
-13793.246
-15211.956
-12094.341
-11831.436
-8736.5591
-7104.4144
-6271.4133
-9825.2743
-2554.3634
-13585.955
-5234.2344
-11991.405
-2870.1862
-5264.48
-9612.3464
-11906.615
-10743.992
-10251.204
-8453.2536
-5131.0654
-5451.5047
-12178.383
-6081.1519
-12539.88
-6671.7901
-8807.5527
-8382.6046
-7779.9005
-9009.8568
-8412.8511
-12476.633
-9173.2553
-9849.8734
-6105.3935
-6616.6635
-9917.9333
-8973.9709
-12682.41
-9958.1977
-9677.6353
-7082.1123
-7365.5693
-9458.0302
-10176.281
-11117.781
-10484.585
-7481.9302
-7087.2944
-5808.2387
-10510.839
-9383.041
-11839.838
-8904.964
-9267.3305
-6645.1967
-6446.8093
-10430.09
-4646.4649
-9887.2329
-11560.426
-7704.826
-9514.3532
-4535.1859
-6328.5411
-11148.603
-8953.3641
-11654.958
-7613.6454
-7351.9205
-6036.4208
-6661.1211
-10537.528
-7472.2112
-12055.219
-7082.946
-7471.28
-4455.3559
-6773.5553
-9233.9728
-6105.3188
-11516.347
-6732.2445
-6250.7259
-4675.4985
-6117.567
-8326.1558
-5844.3909
-11135.81
-6308.8894
-6575.8355
-3810.6714
-5019.2489
-7638.4486
-5347.0282
-10318.02
-6108.4594
-5921.2101
-3243.7481
-4633.5612
-7398.2266
-5075.4636
-9957.9121
-5478.6064
-6145.0524
-2623.4544
-3997.0985
-6986.5159
-4701.6548
-8878.2033
-5386.6519
-5890.8114
-2168.1796
-3140.9515
-6668.2754
-3859.0316
-8836.0618
-4909.2864
-5543.5535
-2125.3054
-2766.7233
-5685.0986
-4583.9238
-8316.0599
-4534.4966
-5266.0778
-1038.2818
-2276.6773
-5065.4627
-4275.0344
-7057.7362
-3798.6063
-4666.4405
-1129.3213
-2251.0184
-4297.837
-4190.2419
-5490.2636
-3733.984
-4178.9453
-1188.7805
-601.36053
-3613.1011
-2993.6197
-4166.289
-3366.0446
-3480.4352
67.452698
-512.73053
-2729.2587
-2775.4242
-3424.8498
-2850.28
-3418.0604
165.65319
-450.51084
-2034.539
-2202.5028
-3086.7083
-1956.466
-3441.7955
357.21445
58.594235
-993.57531
-1186.2758
-1702.7021
-995.98959
-2949.8149