/*--------------------------------*- C++ -*----------------------------------*\
  =========                 |
  \\      /  F ield         | OpenFOAM: The Open Source CFD Toolbox
   \\    /   O peration     | Website:  https://openfoam.org
    \\  /    A nd           | Version:  6
     \\/     M anipulation  |
\*---------------------------------------------------------------------------*/
FoamFile
{
    version     2.0;
    format      ascii;
    class       pointScalarField;
    location    "0.5";
    object      E;
}
// * * * * * * * * * * * * * * * * * * * * * * * * * * * * * * * * * * * * * //

dimensions      [1 -1 -2 0 0 0 0];

internalField   nonuniform List<scalar> 
625
(
39041.081
37270.134
-348.92475
-1023.1817
34488.272
36298.14
-634.12128
-667.04716
10176.378
3282.8262
21083.704
438.18237
-1100.5245
-240.76777
47113.77
40195.61
35373.092
31502.46
25210.474
20814.072
16169.875
12093.679
8818.738
5437.4552
3503.3807
1370.7141
243.71421
-849.7465
-1343.2796
-1743.5296
-1768.6287
-1624.0858
-1168.3644
-1106.713
-355.09937
-599.9133
1.0979946
43826.908
29845.232
33581.109
27484.727
23327.325
20446.22
14652.087
12443.51
9184.3683
6053.0678
4665.6157
2564.1808
1625.5923
681.36657
250.71675
-113.9243
-160.736
-119.63854
266.06999
175.11377
845.94732
372.37001
636.13852
9283.1837
2221.2438
19592.598
64440.082
65876.865
40206.026
43922.555
36852.238
21174.495
23113.974
14314.112
11645.78
8172.4831
4531.7771
3114.2573
917.83933
6.1012021
-638.6306
-1219.8935
-1221.5415
-1205.6016
-1063.8341
-845.09713
-732.9767
-756.54809
-626.21917
-127.49006
-1951.9307
313.46556
225.21503
-807.07085
-783.99424
-1344.6932
-1803.1418
-2248.066
-2638.6373
-2708.0924
-2548.8691
-1851.7582
-1091.5204
797.15555
3385.9997
6286.9275
7346.7997
11316.264
17697.914
21166.841
27190.383
30757.797
37447.99
43977.18
50300.556
28187.796
29706.566
30115.625
29116.24
27703.985
28285.924
-1274.7322
-846.0457
-1027.4001
-714.0611
-368.91048
-682.81992
20321.612
14935.601
15096.315
12405.585
10270.81
8835.9855
6784.9385
5167.8154
4288.3048
3085.3544
2345.5359
1532.0984
923.86493
470.50933
139.33901
-168.96284
-209.09019
-440.57323
-354.22182
-434.27532
-104.05052
-714.25972
1049.8043
6682.7247
5511.7728
6850.3735
5661.6959
5975.2751
6190.1134
4896.0609
5609.8622
4567.576
4180.3041
3936.2801
3390.9756
3034.2329
2550.0384
2027.2187
1581.3475
1133.5427
665.03308
487.56839
-157.00982
-15.080037
-673.52505
1309.0305
13989.335
13534.929
12698.804
11053.956
10726.934
9182.6263
7745.1708
6831.2243
5205.601
4698.9625
3163.7551
2339.2061
1312.3017
588.00133
-53.82111
-428.94746
-802.48593
-866.47544
-1143.7411
-673.54634
-831.35475
-72.971096
885.29656
6064.5369
7034.3857
6723.9171
1830.9073
1571.3706
2946.6253
10030.06
10963.08
11218.402
52466.552
53519.59
56893.515
58014.145
54648.327
53882.324
38327.28
34892.716
38868.256
36077.503
38304.565
37421.21
30591.308
26193.117
30062.719
24765.911
23242.491
23220.807
20843.089
17937.248
21285.196
16152.538
12130.02
14561.709
12808.668
10185.144
11667.369
10645.426
5868.3586
8352.9457
7315.7425
4090.4374
5632.2936
5710.6477
2103.0263
3913.6531
3782.0273
849.58036
2479.5238
2916.6688
50.66535
1482.0127
1922.8374
-562.30428
958.15469
1373.4956
-697.04191
527.10791
1000.0867
-796.15255
291.65556
793.06637
-611.5692
318.44303
739.10282
-324.63912
324.80994
637.86421
-125.49384
330.39084
481.30621
46.557846
265.5004
131.03464
-44.238306
75.411128
-91.341541
-163.18775
-102.29403
262.46935
683.54979
363.68879
-1711.4591
-1341.5638
-2094.5487
89.554664
314.74355
-108.45809
47286.445
41791.154
42200.942
45799.308
40859.685
42409.148
39466.672
37682.945
37330.276
32953.157
30280.118
31081.001
27946.272
26969.377
27046.693
22192.374
20362.571
21153.527
17385.625
17190.287
17537.27
13806.35
12408.419
13122.278
9743.2899
9654.5813
9783.8179
6086.0327
6370.4702
6766.1735
3909.747
3882.3013
4260.3969
2073.9732
1613.7625
2518.4243
366.60651
400.21707
1022.7475
-372.5057
-712.21709
-8.132994
-1170.7912
-1430.627
-632.98744
-1476.9153
-1736.4016
-994.81608
-1542.6791
-1833.8216
-1074.1389
-1403.6334
-1682.3017
-974.71103
-1048.8027
-1274.3551
-671.14291
-770.90467
-974.28098
-533.3778
-88.081845
-200.84598
-147.44926
-379.05071
-713.53312
-628.03275
200.45586
-43.406846
0.28616964
30012.9
27357.262
24080.661
20773.224
20607.435
14918.408
14393.879
11249.084
9049.7329
6433.0423
5894.8108
3737.501
2355.5994
1272.7159
409.82006
-223.7509
-681.14425
-933.37202
-1124.617
-1067.9936
-699.37776
-706.62168
1313.1947
3754.3917
13348.604
3929.2859
8703.1926
6786.988
5660.2312
6635.8251
5278.9135
5808.9851
4876.9306
4888.3526
4427.4548
3920.4166
3768.907
3363.6264
3041.9323
2735.5289
2462.1793
2160.7155
1820.4998
1651.9383
298.64655
2427.6378
23148.156
10162.903
13443.849
13132.385
10438.189
9435.6994
7602.8616
6358.6447
3736.9505
2925.6379
1647.4851
626.67956
-152.22827
-726.11655
-1187.5704
-1390.1048
-1488.1013
-1489.6325
-1300.6787
-945.95331
-553.38175
149.78339
712.11946
25617.887
22962.319
22749.075
22526.977
22727.467
21853.067
20223.127
20734.384
19605.077
16874.315
15829.066
15547.623
15273.474
15582.021
15499.461
12610.953
11894.418
11545.934
10706.388
10616.068
10399.409
8587.5534
8453.8488
8457.4064
7026.6503
6618.7557
6611.3401
5527.5883
5369.3577
5341.8438
4350.7648
4001.2922
3853.9104
3122.6233
2946.6657
3023.041
2273.1355
2050.88
1924.8833
1538.2768
1242.1198
1189.7681
926.87385
647.82218
606.26787
525.21971
249.23869
184.83805
200.21037
-45.908914
-132.12147
-20.427542
-244.38164
-395.80269
-207.9692
-411.37379
-440.10693
-577.00537
-305.68764
-768.1389
-604.17725
25.370103
-584.10642
-482.56478
-785.86959
-1063.346
861.44851
802.1481
882.77942
5810.3256
5196.7874
3935.9804
9761.7093
13163.202
12809.185
5779.2077
4033.1961
3747.2319
6384.5242
7673.1733
7896.2615
5999.0473
5302.6511
5447.6481
5827.1524
4627.8253
4879.6804
4724.1383
4611.8779
4939.829
5169.3534
3687.957
3692.4247
4188.8773
3509.4355
3932.0887
4162.2556
3188.1452
3282.5883
3768.0457
2681.5255
2906.4731
3260.8103
2505.7492
2671.8691
3069.8209
2248.9457
2196.3726
2633.587
1902.213
1929.6379
2335.2034
1694.62
1650.1786
1991.528
1437.5545
1320.8805
1667.1917
1199.0386
1035.451
1349.516
948.64578
786.45129
1119.2043
836.505
611.61638
907.40595
457.67897
233.29217
1210.7074
-258.82928
557.74666
-63.260647
-353.85975
-693.06847
1467.0331
1618.0954
1587.9641
16632.782
18092.152
19935.044
12742.237
12847.885
15972.136
12325.653
16577.611
16358.581
11870.097
13133.277
13987.613
9946.0947
12494.488
12494.268
7955.9714
10534.152
10871.322
7211.6842
8492.7425
8428.6741
4958.1523
7167.4291
7931.041
4040.6541
5760.3912
6006.3758
2932.913
4379.19
4741.4792
1832.2541
3079.8441
3629.8251
1286.0098
2099.6579
2656.6647
511.41918
1067.4946
1847.2399
34.292485
342.40604
1176.5289
-299.13828
-229.98951
735.29313
-501.58354
-625.58946
360.51316
-592.01521
-942.17835
180.03288
-627.89136
-982.04724
60.727185
-518.66718
-1168.0757
-65.655337
-399.0075
-684.80893
128.77799
-274.29121
-739.75998
-76.353244
189.78273
237.37023
740.65001
829.295
371.34854
640.1955
)
;

boundaryField
{
    free
    {
        type            zeroGradient;
    }
    fixed
    {
        type            zeroGradient;
    }
    freeTop
    {
        type            zeroGradient;
    }
}


// ************************************************************************* //
