/*--------------------------------*- C++ -*----------------------------------*\
  =========                 |
  \\      /  F ield         | OpenFOAM: The Open Source CFD Toolbox
   \\    /   O peration     | Website:  https://openfoam.org
    \\  /    A nd           | Version:  6
     \\/     M anipulation  |
\*---------------------------------------------------------------------------*/
FoamFile
{
    version     2.0;
    format      ascii;
    class       pointVectorField;
    location    "0.5";
    object      lm;
}
// * * * * * * * * * * * * * * * * * * * * * * * * * * * * * * * * * * * * * //

dimensions      [1 -2 -1 0 0 0 0];

internalField   nonuniform List<vector> 
625
(
(-3.6361799e-15 2.112754e-16 -3.2990721e-16)
(2.8178306e-17 1.9013092e-16 6.1994168e-17)
(-17.564073 -124.50245 145.39674)
(-152.55403 -409.58435 166.76145)
(6.5239771e-16 2.739523e-16 -5.5565719e-16)
(-3.7042918e-15 1.4868296e-15 -1.3023874e-15)
(-181.24064 -415.16066 168.19851)
(-45.420056 -128.65712 145.25864)
(-1.9658614e-16 -3.2115893e-17 -1.1045223e-16)
(1.4766345e-16 -3.4299605e-16 -2.8648028e-16)
(-1.0135278e-15 7.0169807e-16 1.7538027e-16)
(-51.048248 -195.79131 151.80916)
(-84.617681 -267.5552 156.71127)
(-119.18627 -339.54077 161.84701)
(-47.364048 -81.13958 -55.037104)
(-134.21834 -141.4686 -56.434826)
(-255.19206 -176.74295 -39.412879)
(-395.08955 -184.29782 -25.692096)
(-540.74799 -164.66253 -6.6568533)
(-679.88982 -121.82588 13.146097)
(-803.31366 -62.59738 36.024648)
(-902.18532 6.4951216 59.388151)
(-971.24315 78.136822 82.665687)
(-1008.4663 144.81799 103.2724)
(-1013.1211 200.95704 122.26472)
(-987.25209 241.31991 136.69303)
(-935.09246 263.31098 146.53199)
(-862.00922 266.41182 151.71558)
(-774.37337 251.27602 152.47099)
(-678.4062 221.08542 149.96543)
(-580.02803 179.60807 145.29937)
(-484.0214 131.32612 140.14074)
(-392.99083 80.647234 135.7497)
(-308.98933 31.64416 133.21876)
(-231.41609 -14.635455 133.12581)
(-158.52485 -55.501638 135.24765)
(-88.663106 -91.085319 139.98488)
(-1.8082284 62.734644 87.605982)
(-88.91854 113.82427 46.6285)
(-208.62287 186.11984 29.393888)
(-326.23186 225.35257 3.2729853)
(-457.45033 265.68284 -16.548541)
(-589.56585 291.75604 -31.14625)
(-711.20959 306.87229 -41.34815)
(-820.13014 306.7693 -45.025499)
(-906.05923 291.32993 -43.623788)
(-969.8414 263.99379 -35.891552)
(-1004.6962 220.78239 -22.761142)
(-1012.3357 168.1223 -5.6061489)
(-992.86638 106.87795 14.910059)
(-949.04475 41.533945 37.356347)
(-885.34522 -24.318593 60.267393)
(-806.75301 -87.514323 82.477578)
(-719.13394 -145.25238 102.82356)
(-627.63667 -196.33594 120.35653)
(-537.208 -240.47103 134.86316)
(-450.6784 -278.41453 145.82635)
(-369.93161 -312.37959 154.08558)
(-294.29344 -344.08802 159.5422)
(-222.83132 -376.18218 163.99545)
(-4.8813632e-16 1.9183015e-16 -1.0607077e-16)
(-2.6214496e-15 -5.6404768e-16 7.244144e-16)
(-2.4010456e-15 1.4295629e-15 -1.6975308e-16)
(-20.580168 46.047905 -67.396509)
(-85.931085 152.43569 -68.854995)
(-192.7329 174.91546 -45.386113)
(-310.42082 215.6183 -25.758021)
(-435.87384 251.31632 -15.542652)
(-561.36926 261.74159 2.5848953)
(-684.62117 265.56175 19.251502)
(-785.56404 253.43503 33.067192)
(-874.64549 230.30328 50.452586)
(-936.22763 194.32905 64.041923)
(-972.55896 149.9222 76.404546)
(-981.38115 95.338988 87.583193)
(-963.91054 37.982917 95.85778)
(-923.15261 -22.20834 102.8219)
(-863.46606 -80.911269 108.49188)
(-790.14356 -135.24884 113.47331)
(-708.79252 -184.15685 118.57516)
(-624.61252 -226.41345 124.34333)
(-541.74331 -262.66762 130.93812)
(-462.78252 -294.29345 138.60463)
(-388.7232 -323.42846 146.88578)
(-318.54339 -352.1833 155.20821)
(-250.46322 -382.37282 162.31735)
(-147.44543 -346.71387 162.44418)
(-110.52653 -272.80172 156.04409)
(-78.46567 -198.89414 149.80372)
(-116.08339 -95.701275 143.79101)
(-182.3728 -61.344734 144.59384)
(-248.93741 -24.601736 146.42603)
(-318.26991 15.05987 148.41204)
(-393.19835 56.627129 148.5483)
(-474.80308 97.757673 146.06293)
(-562.7513 135.73565 139.89904)
(-654.69369 167.04606 129.75851)
(-746.24289 188.24296 115.83475)
(-831.80394 196.37087 98.747766)
(-904.87176 189.48853 79.42694)
(-958.52272 167.06419 59.448394)
(-987.16625 129.99866 39.812259)
(-986.90768 82.063417 22.565222)
(-951.58975 21.09749 9.0709032)
(-886.59509 -35.686923 -0.49268379)
(-790.97277 -92.744269 -5.1929674)
(-670.12804 -139.15745 -3.8644171)
(-534.91447 -171.24582 2.0266322)
(-388.15558 -181.39562 13.530159)
(-250.61312 -169.95733 27.473136)
(-133.35928 -128.4961 40.399422)
(-56.498792 -74.34118 43.11338)
(-1.3028228e-15 -3.4252847e-16 3.3068324e-16)
(-2.0449562e-15 -3.5718549e-16 -7.3673077e-16)
(-1.4121951e-15 -1.0527101e-15 6.223458e-16)
(-1.2019486e-15 6.189313e-16 -3.4292956e-16)
(-1.2511779e-16 -6.848356e-17 2.1836215e-16)
(-3.8898857e-17 4.7141393e-16 -3.1043199e-16)
(-159.26376 -410.65859 167.27685)
(-166.98804 -411.35457 166.74041)
(-173.20935 -411.94902 167.55201)
(-25.703633 -126.75454 145.50511)
(-33.305857 -128.03232 145.80386)
(-39.835906 -129.24015 145.51213)
(-20.469136 -34.115231 -40.753094)
(-111.48943 -61.299203 -22.896065)
(-229.20616 -73.209854 -18.287782)
(-369.80265 -65.490314 -11.60497)
(-516.02406 -40.86282 -3.0165033)
(-656.83262 -1.4334728 8.7894561)
(-784.70288 45.517327 22.294738)
(-888.99356 96.693911 37.22051)
(-966.75772 144.12654 53.683222)
(-1011.9563 183.92249 69.940872)
(-1025.9254 212.04019 85.749645)
(-1009.274 225.11886 99.694196)
(-965.04558 223.03413 111.61152)
(-898.11752 205.80367 120.64643)
(-814.49983 175.90756 127.2226)
(-720.3774 136.30768 131.37349)
(-621.95751 90.638544 133.75154)
(-524.3822 42.652603 135.16196)
(-431.37186 -4.8944328 136.04266)
(-345.31052 -49.623227 137.35039)
(-265.49229 -90.624158 139.46423)
(-191.58763 -128.04273 142.21732)
(-121.94536 -162.03192 146.53125)
(-6.6630064 -6.1993252 -1.8520392)
(-91.051574 -10.251912 -2.7525353)
(-212.48062 -5.3110098 -6.9302041)
(-349.47679 12.080142 -12.397223)
(-495.19095 43.542997 -9.7170717)
(-637.23722 79.388788 -7.2740602)
(-765.7365 119.33248 -1.1349022)
(-873.38502 155.98504 9.2109998)
(-954.99582 187.50994 20.818693)
(-1006.5866 208.59494 35.399153)
(-1027.0606 217.13623 50.068241)
(-1017.0502 211.84197 65.718012)
(-979.2515 192.36475 80.258088)
(-918.27135 160.6899 93.721697)
(-839.51659 119.1657 105.44272)
(-749.26524 71.11664 115.30206)
(-653.45778 20.048243 123.34128)
(-557.58275 -30.954501 129.74392)
(-465.20476 -79.572818 134.99704)
(-379.09014 -124.0716 139.42356)
(-299.56323 -164.40275 143.51696)
(-225.54329 -200.68728 147.66175)
(-155.96763 -234.16945 152.1375)
(9.8767731 12.173679 22.358777)
(-84.457344 22.370486 21.33043)
(-205.38259 51.476997 8.1958711)
(-341.60574 89.564519 0.044564844)
(-485.10237 128.47206 -8.4623119)
(-624.38053 166.26613 -15.68922)
(-751.04417 198.94603 -15.156948)
(-859.73862 224.6186 -13.611217)
(-943.48938 239.43078 -6.5965103)
(-998.5654 240.66857 3.4912042)
(-1024.0065 228.6497 16.656131)
(-1019.6182 202.27978 32.294405)
(-988.13903 163.951 48.822932)
(-933.02303 115.8758 66.047406)
(-859.7645 61.356948 82.718956)
(-773.94006 3.9861061 98.300892)
(-681.78356 -52.977801 112.18836)
(-588.1428 -106.94365 124.18993)
(-497.71928 -156.04606 133.98985)
(-412.52863 -199.81084 142.00791)
(-333.72572 -238.61939 148.39501)
(-259.98554 -273.47654 153.57773)
(-189.96701 -306.4414 158.0031)
(-2.5953868e-15 -2.1703571e-16 4.2716933e-18)
(-3.8783653e-15 3.5858996e-16 7.5215743e-16)
(-9.8459492e-16 7.8127033e-16 2.7525688e-16)
(-3.9146975e-16 7.8165185e-18 1.2560621e-16)
(1.6350797e-16 -2.4226884e-16 -1.2066667e-17)
(-1.0304172e-15 -9.2669207e-16 -7.5672327e-16)
(-6.4481012e-16 3.525084e-16 2.7116342e-16)
(-3.5205005e-15 9.4737515e-16 -2.5196009e-17)
(-3.8147498e-15 1.043275e-15 1.2924308e-16)
(-39.284429 31.095993 35.17652)
(-47.513845 40.326697 3.4836459)
(-42.881964 28.322412 -26.003305)
(-124.02547 151.79575 20.845526)
(-119.31629 148.21997 -6.9962189)
(-113.16352 141.57813 -42.748313)
(-215.22571 197.83772 6.1896742)
(-215.57722 190.29288 -13.181564)
(-211.83849 197.62529 -32.960712)
(-322.67571 238.59481 -8.1528201)
(-328.0927 234.79889 -17.524261)
(-316.19428 229.70145 -23.408174)
(-451.39724 275.53297 -17.780937)
(-444.16602 270.1851 -17.14204)
(-438.46471 263.6364 -16.693594)
(-571.37368 294.41508 -25.416385)
(-566.33935 282.65409 -18.239627)
(-560.77782 276.79183 -8.6605702)
(-690.47521 299.97865 -27.368551)
(-680.32768 288.13401 -14.282597)
(-675.3981 279.21192 4.8830681)
(-793.09168 292.38906 -26.74988)
(-784.32167 281.51104 -7.876744)
(-778.15953 268.00089 12.816206)
(-880.07382 273.78319 -20.345414)
(-868.19513 256.35879 0.9895478)
(-862.83167 243.48771 27.650618)
(-942.3751 238.40998 -10.646256)
(-929.44002 221.69315 13.346014)
(-925.42376 206.97919 40.409503)
(-979.17155 193.86473 3.2851241)
(-966.79096 176.21693 27.022887)
(-962.70645 161.38146 53.649725)
(-989.51394 138.88185 19.474906)
(-977.01298 121.48679 41.925746)
(-973.03447 106.54644 66.473083)
(-973.34471 78.418652 37.345275)
(-961.83306 62.178083 57.130378)
(-958.06578 47.69888 78.19528)
(-933.88902 14.870121 56.049722)
(-923.63449 0.20058718 72.457043)
(-919.96957 -12.697405 88.892158)
(-874.54022 -47.949352 74.570727)
(-866.03872 -60.327764 86.784978)
(-862.51178 -72.000846 98.599058)
(-800.51049 -107.20297 92.188612)
(-794.0045 -117.36757 100.33402)
(-790.92847 -126.85305 107.57682)
(-716.92682 -160.88939 108.25818)
(-712.79004 -168.5915 112.62343)
(-710.33702 -175.98475 115.98928)
(-629.1185 -207.88717 122.41039)
(-627.32861 -213.38762 123.69594)
(-625.93027 -218.76898 124.23497)
(-541.43188 -248.40699 134.32526)
(-542.05473 -252.1622 133.52403)
(-541.89376 -255.60232 132.31534)
(-456.79661 -283.59615 144.13846)
(-459.57767 -285.94231 142.26837)
(-461.03134 -287.96521 140.46234)
(-377.15317 -315.48094 151.93594)
(-381.81457 -317.0215 149.8718)
(-384.71071 -318.02832 148.41563)
(-301.87784 -346.05297 158.02747)
(-307.74957 -347.26652 156.58861)
(-312.33327 -347.91635 155.92781)
(-230.47816 -377.55158 163.45058)
(-237.11637 -378.67559 162.79203)
(-243.25723 -379.2611 162.58379)
(-59.166258 -197.49625 151.15021)
(-66.577057 -198.51618 150.79763)
(-72.691137 -199.41773 150.3846)
(-92.170141 -269.10731 156.41699)
(-99.133988 -270.15362 156.14266)
(-105.28096 -271.95643 156.3289)
(-126.00372 -341.11372 161.72944)
(-133.47287 -342.04693 161.53077)
(-140.06118 -344.06817 161.9235)
(-75.384177 -72.33392 -25.200338)
(-75.34075 -73.789907 -5.7837431)
(-76.17351 -72.896777 15.890491)
(-154.40448 -134.02814 -26.097129)
(-153.65991 -133.33901 -2.2915251)
(-152.14414 -131.49772 18.17489)
(-268.6339 -173.48741 -19.796813)
(-272.25022 -169.43326 -7.002398)
(-268.08402 -170.51112 11.787628)
(-400.95084 -183.66891 -14.424813)
(-401.34343 -180.60274 -3.1395915)
(-395.85882 -181.2994 4.6725997)
(-540.83044 -166.31501 -3.1063129)
(-539.82256 -167.32874 -4.2077698)
(-536.42843 -169.89301 -0.73421616)
(-673.31531 -130.85653 7.8669266)
(-671.37368 -132.82203 5.1655387)
(-667.13012 -136.14841 -1.7407558)
(-791.75467 -76.109876 24.931222)
(-787.00072 -80.714078 14.831648)
(-782.49778 -86.372644 3.752321)
(-885.66883 -13.297734 42.252252)
(-879.4124 -19.695108 27.715695)
(-875.37299 -28.05245 11.715813)
(-952.17339 56.585976 62.250332)
(-942.62602 43.658696 42.479782)
(-939.67645 33.472327 25.611819)
(-985.49123 118.11472 80.536518)
(-976.80476 105.16433 62.356712)
(-971.93101 92.354474 39.159754)
(-988.94826 173.32016 99.323507)
(-978.48071 157.57175 78.953672)
(-974.38189 143.04977 58.098281)
(-962.71616 214.68604 115.30402)
(-952.39405 197.26727 96.568032)
(-947.71345 180.9663 76.490579)
(-911.67924 239.27236 128.28033)
(-901.42168 220.776 111.79533)
(-896.92309 203.63497 94.516639)
(-840.80356 246.07319 137.47685)
(-831.59641 227.42185 124.56248)
(-827.37812 210.04147 110.85338)
(-756.54735 235.51164 143.03046)
(-748.92507 217.57859 134.13536)
(-745.13298 200.72708 124.46086)
(-664.92661 210.07461 145.18613)
(-659.29162 193.44305 140.30012)
(-656.3907 177.87874 134.81227)
(-571.30473 172.83191 144.76806)
(-568.07536 158.24634 143.54702)
(-566.31549 144.46128 141.74942)
(-480.08502 127.96219 142.76454)
(-479.31796 115.72522 144.28349)
(-478.9341 104.09956 145.40055)
(-393.62361 79.604006 140.21144)
(-395.20364 69.858106 143.54925)
(-396.62341 60.702166 146.32013)
(-313.22766 31.450463 138.08364)
(-317.01706 24.24886 142.13797)
(-319.93515 17.209998 145.61791)
(-238.05935 -14.398292 137.47173)
(-243.40537 -19.595324 141.10385)
(-247.88691 -24.188375 144.04055)
(-166.56579 -55.845488 138.20459)
(-172.8696 -59.003041 140.98619)
(-178.64936 -61.619597 142.95221)
(-97.007061 -92.777873 140.74164)
(-104.09629 -94.538117 142.36398)
(-110.40433 -95.899771 143.12617)
(-14.503425 -15.942519 27.133869)
(-111.5325 -58.435332 13.80574)
(-218.71738 -65.812601 8.3514139)
(-359.34289 -65.543702 1.9822608)
(-503.14573 -48.696567 -1.2929984)
(-641.12995 -21.669388 -2.2856206)
(-766.8439 13.140055 2.2731846)
(-868.78315 51.174911 9.0866538)
(-942.40063 88.942959 21.665362)
(-987.11349 120.05852 34.455665)
(-998.667 142.52675 51.06029)
(-979.94414 154.2223 67.924417)
(-935.17247 153.4495 84.626846)
(-868.7909 141.1072 100.23659)
(-787.44063 118.49051 113.74973)
(-697.55991 87.960812 124.78966)
(-605.12775 52.135245 133.17428)
(-514.98371 13.853906 138.87899)
(-430.51235 -24.815178 142.38209)
(-352.76885 -62.406038 144.32384)
(-281.24371 -97.988412 145.51883)
(-213.83036 -131.95195 146.66549)
(-148.29685 -165.41261 147.90518)
(-3.6141867 -10.416483 -7.0969995)
(-96.353871 -18.409951 -2.2064092)
(-205.37203 -7.8995219 -5.5262504)
(-345.36748 4.7853419 -6.2732813)
(-485.3118 26.280936 -3.3860441)
(-622.79668 51.844355 1.8532271)
(-748.79273 81.372929 7.9727798)
(-851.72797 107.13162 19.03476)
(-930.31188 129.40415 29.819614)
(-979.20479 143.44433 43.838673)
(-996.98246 147.95347 58.474648)
(-985.45865 141.30114 72.532559)
(-947.63268 123.45371 86.675986)
(-887.96695 96.496511 99.442392)
(-812.54238 61.768132 110.61773)
(-727.51992 21.981572 120.23714)
(-638.55729 -20.078863 128.02565)
(-550.73218 -62.115134 134.21518)
(-467.2107 -102.36464 139.16033)
(-389.66818 -140.03671 143.20712)
(-317.6742 -174.90518 146.71596)
(-249.31533 -207.65755 149.60645)
(-183.20315 -239.51998 152.75531)
(15.787678 14.555281 -26.509598)
(-89.45461 18.955577 -27.449129)
(-199.10627 65.775229 -35.20602)
(-333.56867 86.61701 -18.942576)
(-469.46543 117.7736 -10.443761)
(-603.09017 146.2683 -1.5199061)
(-727.1298 166.92711 13.292335)
(-831.07879 179.8354 25.789697)
(-912.91872 184.77312 40.438001)
(-966.06478 176.88098 55.661273)
(-991.28531 159.63732 69.256456)
(-987.20707 131.04321 82.262333)
(-957.28787 93.152355 93.907485)
(-905.15556 49.089192 103.45704)
(-836.20083 0.37372208 111.6343)
(-756.34839 -49.417283 118.37741)
(-671.15739 -97.817302 124.06686)
(-585.70271 -143.01763 129.28637)
(-503.45986 -183.92243 134.39175)
(-426.29671 -220.4681 139.53737)
(-354.14556 -253.32044 145.177)
(-285.46588 -283.94026 150.92561)
(-217.98948 -313.875 156.73077)
(-29.169475 -15.252234 -16.584012)
(-31.546432 -18.154951 -5.6014889)
(-34.250896 -16.280225 10.234518)
(-130.44601 -57.964196 -10.4269)
(-132.38493 -58.042621 -4.6972489)
(-127.02033 -57.023074 8.5710763)
(-239.6574 -69.990824 -8.8946778)
(-242.39273 -66.222817 -4.0126845)
(-236.59484 -68.401067 1.1719107)
(-374.17349 -64.851742 -8.06183)
(-374.43176 -64.234738 -7.2502298)
(-367.17455 -67.521157 -3.2088992)
(-513.39591 -43.956324 -3.1581368)
(-512.2274 -44.865959 -5.0553146)
(-507.28281 -49.032584 -3.5563899)
(-648.48741 -10.25049 3.7388098)
(-645.51219 -12.716718 0.49814196)
(-640.17291 -19.996764 -2.4286076)
(-771.15681 32.732893 14.186076)
(-765.30569 26.885338 7.738639)
(-760.71812 17.330514 3.6452768)
(-871.17283 79.161512 26.279829)
(-863.52736 68.727945 19.308513)
(-860.47482 57.604137 12.906934)
(-945.42451 121.70649 41.344874)
(-936.71642 110.20643 33.623483)
(-932.52204 96.795956 25.673195)
(-989.03705 160.10486 57.209668)
(-978.72128 145.07231 48.412494)
(-975.52267 129.55484 40.473322)
(-1002.0969 187.0954 73.389616)
(-991.50004 169.77992 65.332521)
(-987.88941 153.99064 57.377904)
(-985.74403 201.00984 88.787069)
(-974.98608 182.61375 81.447102)
(-970.81005 166.45763 73.864674)
(-942.72991 201.01292 102.62143)
(-932.38854 182.17584 96.461761)
(-927.9679 166.28853 90.149958)
(-878.2394 187.02241 114.17166)
(-868.96401 168.79217 109.68106)
(-864.4409 153.77657 104.83337)
(-797.89977 160.96905 123.20912)
(-790.18228 144.04172 120.43847)
(-785.60578 130.45369 117.22315)
(-707.80848 125.37112 129.77507)
(-701.93614 110.43243 128.65179)
(-697.93513 98.721861 127.08521)
(-613.75373 83.343914 134.1021)
(-610.15494 70.819062 134.42875)
(-606.98311 61.176594 134.32707)
(-520.55663 38.273059 136.81503)
(-519.19539 28.324989 138.13393)
(-517.42861 20.776403 139.12286)
(-431.57471 -7.1495117 138.53127)
(-432.53093 -14.586085 140.49716)
(-432.41321 -20.086501 141.97478)
(-348.604 -50.94012 139.90422)
(-351.80395 -55.830162 141.75714)
(-353.37949 -59.729018 143.62073)
(-271.25514 -91.457503 141.80737)
(-276.32385 -94.962903 143.1272)
(-279.8244 -97.163623 144.86545)
(-199.06753 -128.90297 143.90197)
(-205.05466 -130.9687 145.09493)
(-210.25186 -132.36884 145.98388)
(-129.80171 -163.76947 147.07575)
(-136.66689 -164.97218 147.67852)
(-142.81344 -165.92661 147.90278)
(-20.609538 -5.1034596 -0.51898769)
(-24.680135 -6.8993947 0.89881985)
(-25.988705 -5.9214829 -5.0280019)
(-111.34752 -8.0678826 -1.4986212)
(-114.24765 -9.4869213 -1.7595532)
(-106.63329 -5.7485288 -2.5800759)
(-224.55424 -1.5875568 -5.9542693)
(-222.70959 0.34291501 -9.5473657)
(-219.574 -0.70052049 -7.0660681)
(-356.20647 17.294582 -11.339716)
(-355.15889 16.253365 -11.856148)
(-348.56567 15.880983 -9.7140729)
(-494.73383 43.208719 -10.96374)
(-489.30409 41.471277 -10.386889)
(-485.73832 38.35004 -6.6541468)
(-630.29498 74.679142 -8.7574043)
(-622.76577 69.593431 -6.859277)
(-619.18315 63.75177 -2.9751313)
(-753.08781 109.73581 -2.9154836)
(-743.74883 101.40567 0.23811957)
(-740.87471 93.138551 3.6463178)
(-856.16803 140.65146 7.0297391)
(-845.35748 129.5679 11.166334)
(-843.36456 119.66684 14.332352)
(-935.13162 168.63621 18.85276)
(-922.79696 154.29971 23.118618)
(-920.42 141.6684 25.885812)
(-983.97668 186.07329 33.770958)
(-971.33387 169.18058 38.419224)
(-969.41312 155.83862 40.737156)
(-1003.7839 192.56588 49.111688)
(-991.47868 174.26266 54.003509)
(-989.05407 159.46347 55.543935)
(-994.13973 186.83167 65.308509)
(-982.09708 167.71265 69.783268)
(-979.22951 152.64498 70.597028)
(-957.77974 168.50554 80.675168)
(-947.03663 149.40089 84.730396)
(-943.75161 134.6325 85.303792)
(-899.49966 139.2371 94.718705)
(-890.32829 120.88243 98.220671)
(-886.64909 106.86712 98.613959)
(-824.14945 100.91073 106.98234)
(-816.90387 84.178171 110.08157)
(-813.12851 71.595449 110.11888)
(-737.96441 56.638503 117.22326)
(-732.9456 41.982674 119.72017)
(-729.51023 31.035201 119.82299)
(-646.45192 9.2715544 125.41227)
(-643.78899 -2.9272732 127.50235)
(-641.07785 -12.01485 127.62347)
(-554.7663 -38.347422 131.85526)
(-554.38063 -48.033083 133.53903)
(-552.83789 -55.156887 133.71938)
(-466.16217 -84.307351 136.972)
(-467.96261 -91.382989 138.20936)
(-468.05074 -96.678598 138.49919)
(-383.28824 -126.88065 140.99097)
(-386.99602 -131.62477 142.00369)
(-388.61587 -135.46664 142.47995)
(-306.24811 -165.95949 144.59945)
(-310.58022 -169.26981 145.2972)
(-314.487 -171.70769 146.10425)
(-233.06685 -201.812 148.50396)
(-239.24037 -203.98094 148.70879)
(-244.2443 -205.75856 149.1704)
(-163.49833 -235.64501 152.50375)
(-170.5648 -236.74359 152.59693)
(-176.71349 -238.22377 152.77134)
(-13.737854 10.131426 10.688055)
(-8.062181 8.0405369 -3.5087478)
(-8.5203102 7.4623459 -14.692513)
(-111.59238 34.66035 11.529633)
(-113.27155 27.053341 -6.304069)
(-108.00237 27.735474 -17.061119)
(-217.97907 70.06172 2.3613818)
(-218.25085 75.687792 -6.9355816)
(-214.27693 72.458136 -18.977015)
(-345.32225 107.09357 -5.1199047)
(-343.63565 106.05448 -12.454327)
(-339.80531 99.973641 -17.581679)
(-479.39573 139.0009 -10.020637)
(-475.32224 137.52274 -10.664237)
(-470.80115 130.79 -7.6482169)
(-610.59481 171.17556 -13.41281)
(-604.33522 167.97296 -8.4313478)
(-601.12008 157.70975 -5.3000588)
(-731.80334 195.66243 -10.841199)
(-723.63387 189.9189 -2.1848444)
(-719.81111 178.02845 5.0654198)
(-835.87526 214.4751 -6.1597388)
(-826.38715 204.74694 4.4459713)
(-822.62453 190.54247 15.055583)
(-916.78378 221.782 2.2087098)
(-906.66822 210.07508 16.010612)
(-902.43808 195.06934 27.664287)
(-971.16002 217.57505 14.064491)
(-960.42404 203.11552 28.263399)
(-956.24934 186.77878 40.920975)
(-997.59415 201.71577 27.647196)
(-986.90623 185.44298 41.830374)
(-982.32082 168.91023 54.783217)
(-995.25705 173.22652 43.196325)
(-985.08084 156.17241 56.512089)
(-980.13081 140.05541 68.503333)
(-967.1243 134.99629 59.050723)
(-957.79191 117.58052 70.578807)
(-952.61667 102.0368 81.329377)
(-916.10771 88.41203 74.906867)
(-908.01291 71.801697 84.432782)
(-902.86397 57.62212 93.28683)
(-847.39345 36.941164 89.97787)
(-840.87154 21.624764 97.104304)
(-835.99491 9.0155807 103.75337)
(-766.29377 -16.544928 103.71675)
(-761.63383 -29.928182 108.50849)
(-757.47554 -40.823682 113.0679)
(-678.51639 -69.222506 115.87544)
(-675.88316 -80.420966 118.60919)
(-672.82655 -89.459153 121.15807)
(-588.87369 -118.9142 126.28093)
(-588.35451 -127.76099 127.35905)
(-586.81381 -134.92715 128.30479)
(-501.55138 -164.31032 134.97012)
(-503.05909 -170.86597 134.95068)
(-503.32659 -176.42181 134.82578)
(-418.56503 -205.12688 142.26592)
(-421.89224 -209.74264 141.5674)
(-424.17269 -213.79064 140.80282)
(-341.12958 -241.73223 148.28571)
(-345.85787 -244.67129 147.45562)
(-350.01258 -247.73609 146.78476)
(-267.76272 -275.51125 153.41679)
(-273.67946 -277.49216 152.53138)
(-279.37749 -279.7466 152.22772)
(-197.37605 -307.72818 158.08763)
(-204.31348 -309.20662 157.80691)
(-210.9262 -311.06371 157.49051)
)
;

boundaryField
{
    free
    {
        type            zeroGradient;
    }
    fixed
    {
        type            fixedValue;
        value           nonuniform List<vector> 
25
(
(-2.5953868e-15 -2.1703571e-16 4.2716933e-18)
(-1.3028228e-15 -3.4252847e-16 3.3068324e-16)
(-1.9658614e-16 -3.2115893e-17 -1.1045223e-16)
(-3.6361799e-15 2.112754e-16 -3.2990721e-16)
(-3.8783653e-15 3.5858996e-16 7.5215743e-16)
(-2.0449562e-15 -3.5718549e-16 -7.3673077e-16)
(-9.8459492e-16 7.8127033e-16 2.7525688e-16)
(-1.4121951e-15 -1.0527101e-15 6.223458e-16)
(-4.8813632e-16 1.9183015e-16 -1.0607077e-16)
(6.5239771e-16 2.739523e-16 -5.5565719e-16)
(-3.9146975e-16 7.8165185e-18 1.2560621e-16)
(1.4766345e-16 -3.4299605e-16 -2.8648028e-16)
(1.6350797e-16 -2.4226884e-16 -1.2066667e-17)
(-1.0304172e-15 -9.2669207e-16 -7.5672327e-16)
(-2.6214496e-15 -5.6404768e-16 7.244144e-16)
(-6.4481012e-16 3.525084e-16 2.7116342e-16)
(-1.0135278e-15 7.0169807e-16 1.7538027e-16)
(-3.5205005e-15 9.4737515e-16 -2.5196009e-17)
(-3.8147498e-15 1.043275e-15 1.2924308e-16)
(-2.4010456e-15 1.4295629e-15 -1.6975308e-16)
(-1.2019486e-15 6.189313e-16 -3.4292956e-16)
(2.8178306e-17 1.9013092e-16 6.1994168e-17)
(-1.2511779e-16 -6.848356e-17 2.1836215e-16)
(-3.8898857e-17 4.7141393e-16 -3.1043199e-16)
(-3.7042918e-15 1.4868296e-15 -1.3023874e-15)
)
;
    }
    freeTop
    {
        type            zeroGradient;
    }
}


// ************************************************************************* //
