/*--------------------------------*- C++ -*----------------------------------*\
  =========                 |
  \\      /  F ield         | OpenFOAM: The Open Source CFD Toolbox
   \\    /   O peration     | Website:  https://openfoam.org
    \\  /    A nd           | Version:  6
     \\/     M anipulation  |
\*---------------------------------------------------------------------------*/
FoamFile
{
    version     2.0;
    format      ascii;
    class       pointScalarField;
    location    "0.73";
    object      E;
}
// * * * * * * * * * * * * * * * * * * * * * * * * * * * * * * * * * * * * * //

dimensions      [1 -1 -2 0 0 0 0];

internalField   nonuniform List<scalar> 
3969
(
34978.928
29350.825
20750.557
20074.43
34744.564
32897.843
20719.234
21054.135
15909.393
6434.2483
1813.0242
719.15445
2966.0677
9007.7329
22060.622
21474.264
20175.19
19730.837
19395.593
19140.443
19568.018
20714.366
32551.169
24453.787
23106.624
21878.195
20072.953
18389.595
16128.279
14430.748
12168.069
10573.467
9060.1852
7665.4517
6443.0281
5331.2749
4471.8286
3504.3997
2935.602
2266.3506
1835.0193
1334.3563
1003.672
774.36777
661.31308
759.31068
780.84449
1127.0539
1278.2644
1550.5084
1922.3542
2253.997
2645.2163
3115.2607
3591.7639
4218.1011
4909.9125
5845.506
6790.7248
7881.643
8948.4635
10099.21
11452.374
12637.976
14263.549
15475.56
17400.633
18268.436
20379.401
27601.186
16728.763
21084.122
17550.37
17376.386
14888.355
13706.482
11795.158
10314.667
9003.7826
7349.4929
6506.8948
5447.6546
4741.8449
3893.4082
3297.332
2892.7611
2108.892
2013.179
1474.5599
1397.3124
1280.415
1270.561
1483.7946
1668.7553
2137.7212
2209.4518
2867.6199
3177.4974
3352.2756
3921.0778
4170.8991
4835.9295
5379.9536
6208.0731
7192.5184
8119.5262
9115.9192
10251.906
11441.67
12670.987
13777.102
15010.629
16192.777
17614.863
18885.93
20078.135
16863.858
7264.8928
1687.6472
1691.9469
2787.2704
8318.8334
20035.24
45250.912
30623.824
17157.337
24882.811
19282.719
17637.778
16944.861
12410.351
13505.004
8265.913
10267.121
7278.568
7098.9134
5863.8685
4563.2134
4256.7578
2973.8252
2819.6767
2258.8693
2021.0432
1885.2606
1801.2558
1887.1579
1906.9224
2272.1402
2406.1047
2495.8053
2779.6375
3126.529
3487.7431
3929.821
4579.2894
5184.3149
5947.2702
6514.456
7354.2394
8300.8692
9314.563
10146.775
11156.411
12100.557
13374.109
14427.899
15813.947
17041.976
18289.092
20115.034
21250.52
19376.515
20210.572
18660.221
20041.714
19650.952
22006.669
21312.945
18539.633
17598.62
15969.139
14465.266
13132.384
11821.932
10636.449
9614.1544
8575.0785
7438.2695
6358.6606
5610.8737
4794.3907
4050.54
3408.7695
2882.0499
2494.9756
2162.9739
1972.6283
1761.2595
1655.9512
1467.0605
1326.9236
1260.2664
1251.2379
1372.0803
1541.9366
1981.0641
2325.7033
3085.8684
3812.2093
4928.2526
4740.5183
6163.6342
7680.2887
9301.4515
10544.661
12390.475
13594.995
16249.419
17577.867
20821.872
21111.478
23046.189
24126.687
35723.956
24179.977
25210.214
24749.255
24695.518
24455.837
23954.502
25012.043
19628.235
21523.029
23605.355
24636.83
24653.385
25699.074
21260.028
20203.687
20533.529
20553.303
20645.272
20698.366
20789.379
20768.355
21118.726
21119.408
21191.18
21282.353
21294.325
21363.561
21456.115
20130.027
15565.446
15623.191
14513.886
13724.124
12736.932
11338.444
10297.038
8963.9181
8087.2545
7039.7213
6012.1388
5269.7431
4463.841
3865.165
3445.4953
3204.1418
2903.3789
2750.0688
2565.2637
2463.7543
2371.8446
2335.5914
2201.7286
2112.2672
2059.1715
2018.6659
2209.1339
2520.119
2893.1117
3363.3905
3807.2701
4214.4911
4693.5353
5179.3524
5762.9626
6437.8794
7109.6141
8084.6401
9109.5177
10354.762
11740.501
13181.26
14597.937
16337.803
17465.81
20392.971
8832.4497
7354.3015
8118.3172
7577.6318
7302.6328
6856.2286
5985.4035
5636.3762
4842.9724
4403.0061
3795.1771
3372.0469
2935.8566
2478.1913
2235.3163
1986.7027
1847.6043
1677.538
1609.7169
1555.8869
1521.2812
1585.8144
1556.8465
1690.6371
1737.4592
1861.9067
1966.7369
2170.168
2366.5951
2666.3052
3022.3805
3355.6595
3744.9312
4200.2899
4692.0968
5336.9995
6067.9717
6845.9739
7900.8765
8859.4623
10320.67
11395.967
13233.472
14356.886
16622.133
17213.028
21008.25
3258.631
1921.8993
3192.6546
2718.9926
2998.988
2826.5631
2770.4431
2633.6216
2356.2684
2365.7848
2123.3802
2017.7664
1816.9681
1733.8283
1579.518
1560.7499
1567.9637
1572.3611
1644.562
1586.0819
1567.4398
1443.6546
1524.2981
1575.1962
1660.0571
1748.949
1991.1369
2156.689
2508.0731
2856.3946
3195.1838
3574.5538
3967.9436
4436.5116
4988.1079
5679.4309
6471.7825
7488.8982
8658.3145
9798.1533
10955.348
12293.27
13621.606
14865.996
16467.98
17092.249
21123.171
1448.3151
407.98261
1156.7869
1235.098
1317.2701
1448.622
1199.2989
1343.5532
1098.5648
1046.3801
894.03403
941.08843
743.01763
817.87939
657.59293
837.29353
734.43189
924.96169
842.56326
941.79854
1071.9352
1340.745
1564.9771
1711.139
1871.5473
2168.828
2298.1547
2518.9933
2773.0799
3028.9207
3342.7928
3703.8188
4063.9073
4548.2977
5014.8735
5650.6019
6352.265
7054.311
7714.1544
8523.424
9913.7007
10947.224
12611.845
13799.18
15961.347
17036.528
21232.1
3308.3286
1481.1052
2181.4395
1728.9807
1812.8137
1779.9167
1456.7109
1464.9267
1258.6748
1138.9075
1214.6294
996.07702
927.59786
788.11219
726.10872
599.00601
581.96758
551.79107
549.73911
603.34968
737.40924
726.68631
814.13983
848.7578
1020.1527
1002.5635
1088.9705
1277.3805
1520.4416
1803.8847
2157.3258
2578.5167
3022.1452
3591.0693
4188.6691
4950.0607
5783.0033
6753.9955
7666.9688
9345.0397
10407.617
11917.924
13281.396
14946.758
16559.432
17757.007
21130.75
8845.1905
6483.6979
6857.4069
6402.0235
6437.4239
5974.3062
5492.472
4911.1469
4465.0954
3808.0504
3510.1388
3124.6499
2746.081
2490.4383
2182.7825
2081.3143
1865.6555
1801.8823
1692.8785
1567.248
1630.1536
1548.0938
1886.3624
2137.3164
2295.4391
2484.4149
2776.2335
3002.6681
3217.0317
3545.3559
3856.2305
4178.9761
4596.0878
5094.9206
5575.8387
6358.1131
7010.1458
7831.1211
8928.7081
9570.9052
10573.165
11696.693
12996.588
14324.758
15780.482
17527.58
20476.538
14207.929
11545.845
11547.058
11002.777
10558.705
9581.8761
8685.4532
7486.5858
7136.0726
5632.0325
5699.183
4367.1177
3943.496
3134.548
2829.0124
2416.2059
2224.5956
2060.1383
1889.5715
1838.3953
1708.8298
1545.2068
1524.3555
1146.4003
819.33083
728.53905
829.01092
963.38122
1346.0777
1806.9836
2281.3795
2800.7305
3255.5882
3773.7392
4220.0841
4871.7728
5457.2198
6489.0588
7306.3352
8556.9823
9972.5068
11643.641
13242.862
15013.303
16681.454
18733.773
20463.55
9800.5585
10340.022
8929.1072
8780.5352
8901.7628
8953.8027
11061.981
4182.9538
4091.7851
3504.127
3521.7666
3555.9306
3710.7964
4579.3291
996.6411
668.6818
301.55335
445.31492
338.85639
399.0542
865.96165
194.8146
10.93163
14.70053
23.493468
79.189871
315.90204
742.23631
922.53551
533.49752
387.23476
338.11384
450.38016
705.28862
1328.6737
4863.3192
3540.934
3255.1813
3061.301
3273.5701
3815.7596
5480.0063
10028.738
10484.824
8633.3091
9052.7538
8919.2215
9671.1286
12984.263
33585.168
31088.006
33797.66
36352.364
36597.029
38634.165
36991.721
27367.278
28871.595
26135.51
25156.28
29000.118
29030.93
30710.155
21450.442
22027.6
23849.076
23474.239
23161.418
23292.833
25140.793
21172.597
23692.007
22662.671
23487.604
23841.699
24568.767
22262.32
18911.042
19336.45
21119.538
20801.989
20812.01
20129.223
21047.384
17169.038
17123.874
17187.071
18048.339
17697.199
18199.347
17312.513
15014.551
15108.381
16599.522
16234.274
16502.774
16767.391
16987.138
13364.412
13054.59
13198.018
13168.307
13128.035
12771.737
13009.436
11681.507
11140.707
11575.842
11829.556
12379.76
12549.512
13128.026
9687.1471
9555.875
9621.7609
10173.283
9325.8309
9278.4752
9728.1811
8912.2181
8413.7155
8984.9135
8138.975
8767.1691
8764.632
9308.6948
7263.2418
7249.0349
6820.3353
7503.7178
7281.5508
6316.2193
7887.9359
6847.4457
5915.6565
6565.6054
5828.1146
5935.1844
6488.2982
6857.8435
5300.6927
5126.7728
5423.482
4867.315
5789.5608
4628.4075
6210.6924
4949.7782
4503.1495
4385.6126
4367.3435
4123.2988
4094.7485
4834.215
4037.1914
3230.0106
4026.736
3148.9025
3959.7626
3318.2833
4374.1659
3191.2159
3084.4146
3154.3251
2717.7174
3124.7315
2557.9459
3331.3177
2886.6422
2194.9493
2858.6063
2208.8537
2763.4512
2205.5682
2855.8466
2291.6742
1971.6031
2508.7855
1763.6253
2373.9256
1751.0647
2464.4591
2020.1656
1652.4893
2196.8006
1606.7752
2148.2626
1610.3048
2147.5904
1810.2809
1474.5581
2086.9713
1358.6901
1906.7417
1321.8597
1999.7477
1631.1152
1420.2539
1939.5152
1298.9476
1816.6612
1307.8131
2015.3368
1713.3339
1490.3653
1954.5484
1386.9059
1875.8533
1417.6673
2274.2298
1854.3985
1787.1203
2108.9166
1666.9013
2006.6884
1519.6937
2471.9664
2162.8129
2287.3343
2041.1472
2116.8003
2144.7473
1962.139
3126.1826
2625.7649
2565.5316
2354.9623
2523.3736
2292.9559
2320.4976
3406.094
3066.3449
2907.6178
2823.7542
2659.4432
3230.421
2641.1278
3792.9655
3719.4982
3040.6793
3332.7071
2865.0112
3091.5627
2435.2073
3915.255
3532.923
3473.8506
3113.3079
3357.6636
3311.9341
3134.7569
3951.3358
4062.9231
3392.6387
3789.4707
3564.0178
3730.4234
3367.9965
4157.648
4060.4655
4048.1476
3990.4157
4045.4203
4057.3984
3870.6138
4432.0696
4690.2297
4401.3034
4597.2655
4568.0153
4607.6698
4471.3845
4971.8839
5109.2274
5080.3892
5158.3558
5183.9224
5169.2811
5111.4058
5609.9168
5877.8439
5791.8967
5878.501
5882.7594
5816.9597
5819.5735
6377.9129
6623.6809
6573.2058
6556.7455
6604.1821
6512.3517
6609.8207
7119.0764
7601.1558
7491.015
7451.4447
7449.363
7317.5698
7733.8148
8158.4138
8465.5801
8250.352
8248.3333
8263.3993
8468.6979
8004.4617
9147.0384
9533.9236
8888.0127
8973.469
8985.2495
8874.4043
9190.966
9873.3047
10546.346
10287.354
10278.468
10102.078
10137.685
9990.2585
11119.442
11732.527
11277.344
11113.252
11215.6
11034.636
11093.528
12080.382
12659.381
12169.142
12211.701
12112.758
12115.957
12105.779
12888.623
13769.107
13270.953
13258.302
13312.523
13237.423
13257.759
13970.911
14706.415
14363.353
14457.567
14439.407
14362.7
14489.746
15025.974
15845.059
15699.474
15677.928
15734.567
15666.956
15875.549
16198.585
17066.647
16954.511
16952.048
17023.412
16973.941
17190.056
17396.536
18323.997
18372.018
18312.975
18410.944
18375.165
18598.396
18685.481
19692.726
19770.736
19723.822
19798.232
19895.138
19918.531
20123.564
21898.274
21968.156
22022.272
22118.337
22089.275
22101.208
22050.17
18625.825
19651.812
19564.453
19639.603
19579.893
19711.447
19072.94
19568.127
20015.012
20299.362
20343.849
20359.314
20432.351
19532.913
18333.427
18863.243
18905.252
19003.734
18865.003
19143.484
18047.037
18900.93
20134.602
20190.382
20090.815
20396.739
20151.995
19293.826
19661.609
19896.121
19853.893
20048.062
19713.281
20081.759
19167.395
20687.348
21214.185
21237.656
21301.727
21413.591
21351.745
21206.594
30840.095
28682.542
26823.885
25867.917
26283.044
26874.878
26909.887
27436.651
25450.66
25225.958
24977.645
24972.591
25102.326
25842.73
25777.001
26196.983
25587.389
25092.547
25614.485
24801.179
24703.838
23426.709
23524.903
23417.337
23615.887
22990.077
22306.314
22103.869
21816.065
21656.351
21927.683
21581.501
21487.484
20904.153
20510.686
18961.433
18910.172
18692.577
18416.724
18340.138
17600.549
17856.176
17459.122
17011.175
16970.361
16960.64
16713.258
16531.298
16450.844
14786.201
14384.996
14184.622
14052.876
13758.017
13544.581
13847.129
13121.069
12731.373
12755.973
12380.95
12566.237
11905.067
12599.142
11117.743
10634.239
10539.99
10349.467
10186.115
10021.185
10414.918
9477.7621
9207.6348
9248.2805
8940.1369
8991.6916
8585.7951
9093.9107
8434.322
7770.4592
7520.4566
7673.919
7431.5982
7470.206
7637.2228
6901.8707
6609.9679
6650.3175
6280.9905
6339.2481
5923.603
7144.8237
6124.3467
5569.6503
5172.8767
5406.5573
5321.5733
5832.4017
6009.3348
5189.5447
4497.5921
4623.5281
4491.9614
4705.3511
3710.903
5203.4321
4024.9079
3786.1625
3842.5765
3438.7384
3670.6186
3604.9163
4168.6291
3381.192
3170.3356
3064.7607
3053.6752
3034.6872
2763.3166
3675.4929
2816.565
2446.4137
2582.2245
2336.6153
2405.3064
2227.6534
2941.4652
2231.7731
2061.1511
2069.3158
1872.8256
2048.7718
1753.1481
2510.2234
1849.1577
1630.9552
1673.2505
1543.398
1616.0778
1352.2718
2060.5445
1449.8233
1270.5164
1379.5958
1140.5892
1301.8349
1045.331
1748.0108
1201.7392
1067.8268
1093.259
924.42551
1077.0797
776.85529
1554.4955
1078.9823
837.77048
928.30424
757.69948
875.18072
649.16498
1556.4263
1199.1692
920.95601
973.95844
808.17154
924.35295
751.63646
1765.6158
1435.8506
1081.7033
1134.0428
973.10614
1109.0477
904.50807
2097.5238
1928.239
1361.1762
1488.6544
1280.8957
1458.428
1237.2832
2533.3348
2240.8262
1672.8712
1754.2173
1596.7079
1762.2345
1480.9545
2864.5952
2588.3602
1993.3661
2106.3093
1932.5001
2196.0005
1880.057
3211.0687
2823.6325
2236.5344
2421.2999
2203.5226
2491.4215
2103.2049
3325.8715
3045.3509
2615.0977
2687.0926
2532.262
2832.0287
2444.9686
3556.9653
3396.6173
2932.2131
3083.5366
2914.6949
3235.761
2830.9044
3811.05
3791.9719
3438.8215
3546.6527
3385.1291
3673.845
3301.8382
4183.6202
4337.5044
3999.9553
4094.0728
3945.7534
4230.6142
3885.0258
4677.9133
4995.8935
4681.3161
4739.3489
4632.9552
4803.9912
4568.8741
5330.1945
5760.5398
5421.8406
5488.0363
5366.0861
5518.6314
5420.2521
6015.7399
6685.5716
6374.3652
6392.6451
6241.8571
6425.3324
6368.0646
6994.687
7689.9523
7274.4422
7158.3915
7221.3725
7479.75
6928.8063
8286.4357
8649.1558
8300.7976
8306.1447
8220.4471
8343.1474
8508.4502
9030.1337
10016.052
9630.9206
9573.4023
9535.3473
9621.2772
9423.1552
10390.157
11168.065
10726.217
10687.675
10797.498
10712.595
10756.157
11462.127
12344.273
11939.249
11985.076
11930.317
12001.327
11925.159
12479.136
13373.175
13098.494
13056.847
13117.001
13157.888
13132.254
13629.492
14774.948
14549.582
14526.407
14592.817
14577.429
14588.134
14788.224
15759.996
15539.322
15566.13
15558.822
15596.36
15700.486
15954.189
17496.708
17536.642
17449.264
17519.448
17542.17
17734.153
17679.418
18208.466
18110.473
18113.598
18135.289
18187.391
18254.987
18275.127
20615.018
20730.579
20687.882
20764.019
20801.455
20886.638
20894.414
31955.091
21138.497
18591.462
17291.113
16786.136
15037.127
13757.557
12202.421
10993.995
9762.6315
8804.206
7255.9782
6536.351
5378.3894
4633.8654
4384.6952
3709.4871
3482.551
3185.1712
3112.846
2980.2908
2904.4306
2737.5243
2443.1996
2091.4072
1810.9797
1628.5637
1720.1911
1966.735
2386.6694
2910.1248
3507.9592
4075.8813
4644.3851
5262.3725
5458.4413
6423.8544
6905.8962
7883.9455
8801.1087
10222.37
11716.079
13395.039
15192.181
17016.516
18495.791
21273.605
13774.079
13514.535
9674.1767
9769.4454
9793.6951
7979.6169
8125.4149
7042.8546
6606.3841
5804.8141
5162.5195
4566.9677
4238.4628
3823.1114
3553.006
3292.6026
3049.7263
2787.0977
2758.0451
2594.5014
2519.8869
2435.4167
2323.6087
2326.1426
2329.8657
2530.555
2902.1199
3213.9494
3610.3395
3921.9849
4292.558
4651.9544
5048.3822
5550.1898
6039.7069
6591.7043
7385.6261
8292.1902
9416.1251
10397.133
11691.331
12851.265
14243.672
15299.379
17109.855
17173.225
22087.024
4465.8858
4690.6088
3614.6981
4266.7049
3742.6232
2962.924
3596.3718
2559.7568
2989.6029
2309.5106
2294.4055
2200.7027
1780.7703
1570.5635
1459.8998
1269.1351
1210.8404
1071.8094
1000.3629
900.88879
886.67014
832.85579
885.32724
835.78571
1011.8742
1032.6346
1352.9399
1447.1846
1784.9034
2021.0546
2351.2986
2666.0088
3152.7005
3636.667
4263.7572
5038.5453
5842.7925
6835.3276
7945.3584
9157.3603
10413
11924.227
13245.362
15049.851
16651.896
18108.795
22461.132
1204.4185
1861.92
688.29126
2933.2893
981.64998
2493.6005
811.0929
1734.1685
1367.7582
1049.559
1578.9529
827.00646
1298.1457
1610.3154
1470.2777
1629.7511
1592.0866
1627.3065
1691.6141
1761.6381
1811.5272
1904.531
1953.9074
2175.7402
2359.1749
2661.9136
2852.2778
3148.3037
3425.3503
3706.6798
4028.8096
4403.7649
4838.7807
5303.2522
5932.8886
6586.1444
7360.8386
8223.3001
9251.4337
10215.127
11467.769
12518.449
14023.491
15042.459
17084.267
17242.803
22589.302
3002.444
927.92346
2041.8697
1695.1625
1871.5652
1927.4306
1738.7711
2125.1037
1120.3516
2090.9748
1031.2666
1602.6788
1266.268
1188.8891
1245.7663
1167.491
1239.1318
1228.69
1286.9408
1308.4932
1409.6956
1429.417
1601.3974
1557.1592
1565.9125
1585.9224
1728.7431
1979.4292
2270.5296
2518.4579
2861.9847
3209.2471
3649.7805
4196.4198
4853.0984
5502.136
6378.6594
7306.3587
8272.8418
9587.226
10650.369
12244.595
13440.978
15278.018
16720.765
18396.261
21900.01
7449.6798
6944.3265
4425.9763
7001.0573
4531.0576
5998.4697
5305.5669
4190.751
5303.0125
3537.4682
3849.3071
3418.1283
2698.3931
2871.9584
2307.8874
2292.7527
2050.6895
1993.0481
1858.4847
1780.855
1713.3816
1719.7585
1839.838
1851.5727
2550.9986
2854.6994
3381.7818
3631.0089
3933.1497
4186.1022
4498.1896
4756.1208
5075.5422
5575.2305
6060.2072
6741.042
7600.563
8324.7764
9567.3403
10409.755
11686.939
12726.808
14091.137
15161.226
16957.139
17687.907
21451.999
22494.68
11367.973
14624.109
10891.966
12388.479
10811.183
9715.0508
9322.3424
7976.3375
6987.8114
5271.5273
5383.6069
3768.9862
3712.4045
2942.9174
3031.1985
2800.3581
2680.258
2585.6963
2386.9871
2228.5285
1904.6575
1638.9798
1204.4882
1052.6402
1040.0294
995.61131
1439.6647
1842.884
2422.9765
2829.3955
3202.5766
3578.9523
3998.9279
4330.291
4936.8896
5658.1551
6729.1304
7638.3313
9256.8752
10677.409
12386.755
13965.01
15760.216
17372.718
19147.038
20861.184
25594.777
21986.24
21513.111
20936.171
21031.199
20607.751
20971.687
21222.181
21782.372
20327.522
20105.882
19672.537
19872.852
20026.394
18687.669
19884.736
19953.604
19560.279
19442.303
19185.941
18822.121
17534.82
17966.384
18051.87
18061.275
17658.179
17379.629
16507.838
15863.42
16481.139
16892.822
16551.074
16580.325
16141.426
15657.695
14432.866
14530.495
14450.79
14666.331
14248.485
14113.893
13914.261
13095.318
13065.737
13364.203
12897.103
12912.836
12845.767
12587.206
11477.44
11487.651
11357.633
11391.385
11285.47
10997.438
11037.584
10382.507
10380.711
10276.705
10282.688
10029.034
10192.568
10036.788
9006.1465
8951.4169
8898.2788
8705.3895
8648.6743
8668.56
8577.1732
7969.4591
8101.214
7956.7476
7966.0797
7983.9798
7960.6762
8021.9353
6966.8327
6864.4367
6907.8224
6751.155
6678.4365
6728.3712
6736.7184
6137.0146
6169.6736
6017.0513
6038.6623
6139.2813
6025.9028
6065.1089
5334.9511
5282.1711
5391.2047
5273.0638
5326.7158
5043.5484
5364.8199
4662.8521
4764.0481
4491.8716
4677.5555
4527.1063
4830.5764
4553.8835
4234.4811
4255.7963
4174.188
4309.5826
4169.4814
4116.1579
4085.7657
3700.0506
3738.2318
3668.115
3791.801
3682.2682
3746.8027
3733.5163
3370.664
3436.3042
3387.8203
3485.539
3411.0405
3526.2987
3367.6686
3109.4232
3151.4666
3085.9834
3202.8242
3174.3217
3159.1662
3048.3305
2894.4626
3003.4472
2917.5089
3072.9208
2941.8451
3010.8116
2909.9318
2816.6181
2886.7932
2840.781
2923.0266
2859.5883
2914.0863
2762.8092
2731.7272
2826.8199
2790.8308
2904.0338
2818.3321
2875.8759
2726.7883
2748.4965
2805.8971
2844.2989
2889.5644
2820.3198
2812.2929
2737.4334
2683.5179
2685.5225
2800.516
2864.71
2791.918
2817.0851
2745.4462
2713.3998
2586.814
2771.4054
2802.7933
2747.3027
2672.3701
2659.5851
2647.4971
2444.7031
2704.9843
2697.7832
2678.25
2569.9753
2672.3028
2670.5789
2399.5097
2652.3069
2671.7321
2623.3071
2590.3883
2617.5386
2806.155
2475.0212
2683.4329
2730.4801
2722.7801
2529.1687
2665.6999
2947.7303
2512.5458
2945.3036
2909.2191
2856.3905
2725.6621
2848.0186
3230.3811
2962.6332
3205.7018
3168.4785
3177.0642
3004.4245
3124.7615
3589.5548
3237.4881
3551.2688
3583.6337
3527.7694
3352.5664
3459.531
3932.0636
3720.4913
4018.3045
3998.7546
3931.6917
3800.4619
3898.9239
4410.0255
4232.5136
4485.5193
4513.2023
4442.2953
4323.2196
4397.5426
4921.6757
4767.6788
5013.9587
5045.5527
4959.9172
4914.1406
4937.4924
5473.4922
5382.4409
5616.3474
5667.325
5647.1755
5516.4381
5532.6348
6217.7104
6047.1431
6194.82
6318.9558
6172.6157
6201.4615
6265.9115
6896.7281
6472.8945
6927.1318
6885.5606
7019.7044
6753.2697
7230.5437
7639.2639
7508.9475
7559.2124
7935.0715
7570.5595
7850.7463
7444.636
8479.1134
8312.87
8458.4389
8635.1378
8514.1167
8376.2971
8648.2615
9526.2224
9255.4617
9272.3311
9600.3373
9352.3082
9540.1766
9488.3494
10653.189
10378.158
10453.182
10704.351
10549.778
10622.715
10636.465
12003.024
11770.057
11766.621
12074.185
11842.348
12001.303
11957.255
13389.102
13223.6
13229.714
13512.652
13300.589
13497.124
13372.432
14873.46
14747.847
14774.36
15032.369
14814.9
15050.343
14965.948
16737.485
16743.993
16740.126
16973.449
16793.669
17154.635
16809.915
18107.769
18049.188
18122.186
18316.848
18205.15
18328.295
18002.89
20824.115
20821.827
20825.013
20920.232
20853.389
20953.099
21000.119
11372.65
9190.8014
8536.5932
8271.1099
8023.0363
7998.8527
8211.6404
11336.37
12497.103
11855.392
11936.475
11825.216
11781.72
11704.14
10208.907
10572.799
10723.94
10463.87
10493.504
9842.3774
9762.9391
9668.8895
10287.945
10556.953
10628.454
10166.624
10033.191
8977.1878
8952.577
8990.8242
9364.4873
9035.9311
9238.3268
8616.4938
8561.6612
8255.8212
8267.3491
7854.5347
8001.9892
7586.1354
7598.4979
7313.806
7403.6738
7228.0965
7460.7828
7224.2155
7255.3027
7130.079
6799.9526
6811.6359
6676.3725
6220.5372
6263.8559
6103.097
6036.4104
5995.7086
6102.1468
5766.6206
5743.2263
5641.1124
5443.2251
5608.2305
5391.5507
5542.301
5194.3718
5059.2297
4889.4614
5004.2726
4929.2598
4875.624
4939.0505
4619.2709
4470.6552
4481.08
4273.9917
4433.0668
4252.4188
4502.2162
4080.6386
3952.3636
3880.9841
3854.9411
3899.2232
3873.4949
4010.928
3642.3651
3544.6229
3752.2192
3426.8376
3770.6404
3506.2181
3614.8547
3178.3162
3206.9093
3147.6549
3043.1974
3242.076
3251.7937
3294.7407
2954.7498
2985.826
2972.3297
2953.0521
2996.4914
3029.5334
3050.4724
2529.4305
2736.7571
2610.3519
2648.6052
2681.6893
2749.36
2754.1423
2490.2515
2532.8843
2485.8283
2486.4599
2573.6303
2678.4102
2631.8965
2276.5903
2374.3044
2338.3761
2346.6112
2428.9583
2435.7784
2458.4065
2187.0168
2279.5881
2237.366
2259.1636
2300.7357
2378.0027
2387.6161
2122.7917
2207.3116
2203.352
2181.6533
2259.6642
2343.6407
2261.2662
2060.3181
2166.6118
2120.2888
2149.4299
2263.3578
2276.2512
2221.3387
2146.8295
2173.3226
2153.8596
2205.9901
2216.5967
2322.8362
2199.6231
2102.1724
2139.4493
2161.7053
2106.7864
2305.6362
2357.2661
2289.8702
2201.7722
2261.4524
2177.6933
2235.3802
2463.0102
2494.4916
2369.0346
2303.0171
2384.2649
2240.1408
2333.7795
2481.4426
2467.2017
2636.2443
2509.9833
2457.3899
2522.4327
2414.2765
2679.1892
2787.5635
2758.5916
2665.8197
2750.8803
2536.8918
2788.775
2900.9061
2931.591
3140.7346
2634.3223
2969.8312
2943.5229
2918.8197
3160.9155
3121.3093
3258.0201
3231.4738
3324.9746
3099.3367
3173.5576
3472.8521
3302.9569
3586.2947
3452.7191
3492.9441
3435.0217
3514.4752
3743.8153
3586.7396
3833.8248
3723.7717
3854.2578
3792.9788
3786.5007
4073.6146
3905.3819
4150.8474
4174.4863
4279.3719
4199.9991
4206.8777
4511.3765
4309.3514
4594.3913
4591.5671
4674.5877
4604.8578
4641.7481
4943.1605
4703.7869
5068.5
5114.6331
5209.7813
5183.5231
5179.9713
5435.154
5222.4817
5683.8642
5691.7967
5785.227
5731.6314
5700.1085
6040.4315
5877.4053
6350.2907
6340.9772
6428.8646
6457.468
6394.4553
6759.7051
6436.2095
7220.4223
7182.9444
7220.4012
7253.7981
7042.7183
7593.5836
7131.5264
8174.4257
7899.0947
8032.4497
8068.4303
8032.8586
8335.6981
8072.4087
9237.8453
8927.1018
9117.8468
9085.2864
8967.8122
9316.198
9023.2062
10297.894
9775.8961
10159.661
10030.12
10063.702
10373.657
10118.64
11523.602
11117.06
11451.11
11354.369
11291.701
11552.793
11191.725
12627.681
12119.827
12519.274
12359.69
12370.69
12617.14
12428.03
14069.263
13740.653
14060.319
13988.553
13978.537
14174.996
13858.571
15151.704
14803.71
15093.626
14984.965
14937.862
15070.95
14970.447
17083.972
16944.857
17133.177
17083.493
17124.29
17349.028
17089.188
17550.343
17253.53
17406.735
17341.881
17370.421
17235.561
16930.101
21061.129
21305.663
21058.039
21074.93
21097.545
21240.986
21408.039
4377.175
3700.0687
3303.3132
3175.8634
2956.8197
2941.4003
2755.6912
3792.3415
4421.0546
4233.6821
4291.5105
4205.6648
3908.9466
3959.6843
4472.3901
4422.7262
4458.4454
4449.8645
4245.3192
4003.6111
3878.2793
3812.3193
4229.2196
4779.4079
4914.9455
4646.276
4612.0789
3905.2848
4177.6929
4134.3152
4124.7998
3702.9839
3777.5496
3273.2117
3701.5734
3508.7726
2954.0693
3053.6767
3291.5903
3130.0825
3112.0556
3029.2551
3611.2737
3129.6827
3507.6293
3364.4922
3400.1695
3356.6734
3342.8979
3221.7252
2592.8
2464.7727
2250.2006
2303.0562
2268.9474
2379.8201
2811.1906
2399.6911
2617.9211
2654.5918
2769.5387
2714.9673
2775.5241
2658.4445
2146.0433
2102.017
1923.8383
1942.3487
1935.7317
2105.9834
2242.3988
1895.1219
1996.6426
1915.5644
2051.1968
1958.138
2102.5113
2176.1695
1674.1505
1733.5032
1651.8807
1805.2244
1768.8809
1977.1465
1866.322
1396.7441
1773.4909
1478.3194
1690.4322
1505.7769
1812.9295
1836.7642
1455.9553
1707.3989
1363.7157
1586.1307
1432.7465
1610.8014
1811.6699
1468.0323
1458.8273
1387.6447
1346.582
1392.1873
1517.678
1735.71
1433.0431
1439.586
1408.6485
1331.3908
1320.5255
1514.8592
1765.3299
1347.2513
1412.0763
1373.9836
1238.7076
1314.6848
1456.9925
1711.9776
1296.5186
1388.8473
1321.0122
1235.2584
1264.0923
1424.4312
1747.6187
1300.8721
1367.1419
1320.1428
1216.5832
1237.9931
1420.8778
1711.9418
1260.6396
1360.7013
1323.0937
1202.2363
1260.6225
1410.7939
1811.5469
1336.2554
1424.344
1354.2319
1276.5622
1268.1776
1439.9902
1898.1185
1339.9696
1446.1456
1428.1861
1265.4702
1314.8341
1485.1363
2028.1286
1432.0502
1633.341
1408.7974
1449.111
1392.6112
1598.1021
2156.621
1547.4178
1710.1889
1590.9156
1638.4951
1397.0581
1573.4784
2360.1279
1607.5851
1881.4111
1759.339
1770.9573
1506.4489
1845.7062
2511.8871
1753.1507
2111.0622
1787.8852
1971.1748
1662.6457
1787.1969
2867.5263
1931.8123
2249.9775
2007.5639
2256.2406
1797.5814
2135.1385
3012.1737
2163.6587
2442.8979
2352.0761
2399.9325
1999.0269
2304.8002
3339.0562
2544.6784
2833.923
2517.4457
2773.6283
2305.1565
2621.3491
3648.7321
2690.8265
2948.152
2838.4744
3041.3956
2525.505
2876.1549
3926.2456
3056.0124
3405.7817
3264.5876
3406.9351
2941.4437
3264.2989
4306.9978
3432.9782
3730.4926
3547.5117
3724.9073
3299.6458
3570.3464
4721.7957
3872.7558
4154.6977
4054.2688
4202.1119
3747.712
4033.2433
5223.0796
4373.2698
4671.1896
4544.9316
4629.3814
4297.1946
4545.9689
5797.7119
4987.9957
5278.2792
5128.8402
5263.2478
4916.5531
5046.6964
6513.6
5717.7184
5988.563
5813.0957
5920.8663
5610.4534
5774.6256
7271.9247
6437.0948
6731.7952
6575.1564
6751.2371
6382.7327
6556.6877
8088.3832
7337.3867
7657.0555
7493.5898
7547.0376
7323.4106
7305.8683
8931.8701
8418.5834
8561.6343
8542.1871
8494.2895
8333.1564
8366.6269
9986.5366
9561.6029
9586.6326
9692.7537
9571.7006
9579.5306
9400.1726
11013.241
10797.539
10696.32
10860.56
10689.748
10678.381
10524.348
12320.123
12071.275
11983.202
12209.031
11969.347
12198.786
11912.066
13480.354
13476.201
13317.337
13567.26
13330.241
13572.195
13143.212
14897.518
14851.467
14692.182
15012.377
14659.856
15056.172
14695.889
16471.509
16537.944
16397.728
16706.826
16378.94
17047.28
16378.515
17556.116
17573.568
17539.339
17798.875
17528.725
17912.369
17014.084
20897.771
21100.355
20882.081
21038.584
20972.695
21285.567
21223.876
1488.8897
1486.4348
1360.6428
1377.8697
1214.1483
1094.0484
522.38114
1276.7304
2221.7563
2438.632
2714.0778
2615.1156
2400.3133
2081.1454
1459.5373
1476.0563
1435.7531
1508.6066
1440.4059
1309.1386
868.6006
1711.8451
2563.861
3206.5694
3503.4495
3504.0026
3283.6259
2764.7529
1553.9864
1350.9
913.78046
666.15805
577.41823
544.56173
843.3173
1768.2483
1877.0074
2026.102
2347.8362
2414.5313
2510.6027
2219.9504
1493.6338
1157.0529
927.54778
881.55844
846.34945
665.21589
1276.4766
1712.26
1484.3059
1293.6197
1421.9523
1296.5972
1610.7127
1530.7683
1494.3471
1185.3475
1211.9192
939.29008
1360.643
1036.3856
1514.4236
1460.0332
1339.6108
892.50192
953.87754
818.01282
1023.0152
1076.518
1365.2241
969.53067
1293.0376
932.43898
1389.8014
1287.8361
1403.4995
1265.2858
1212.9129
945.58212
676.36228
924.33945
848.96589
1157.878
1246.9334
925.51283
1026.5661
932.21737
1231.8901
1102.23
1099.9196
1170.475
1168.7166
796.68021
844.40093
850.51919
1126.9991
1009.8761
1077.5418
860.16517
1198.1335
788.5159
1091.9794
1054.2983
1012.2009
1087.7101
866.81445
1099.2165
859.26522
951.35488
1167.869
1024.9194
1079.2265
837.53522
1205.8152
884.40713
1068.9341
1220.3129
1064.0107
1152.7327
961.52257
1270.567
976.35541
1108.5402
1305.3681
1148.3517
1140.4349
953.04716
1353.9833
1028.8888
1215.074
1396.7067
1199.3204
1266.9025
1099.6835
1444.796
1153.9251
1321.3842
1441.9684
1308.0546
1320.8766
1092.1499
1528.7302
1223.9985
1344.6677
1560.0216
1367.2665
1424.6481
1268.8101
1661.0833
1295.0737
1524.6828
1658.6163
1477.3715
1545.0394
1403.1443
1604.14
1545.7924
1564.8778
1765.3915
1533.2072
1720.1924
1453.8458
1793.502
1702.5049
1602.1692
1933.1444
1817.5852
1864.9987
1579.5159
2053.9764
1685.8599
1653.9795
2126.8971
1810.5919
2123.2957
1852.8096
2121.2772
1977.6813
1916.1739
2266.1224
2197.3915
2221.4825
1956.1886
2365.1773
2257.8989
2048.3748
2486.847
2268.7056
2497.7701
2214.5005
2713.0312
2390.888
2417.8912
2728.3437
2586.9074
2805.6848
2449.5725
2842.3364
2741.6087
2503.0232
2955.7738
2796.4348
3021.9753
2684.5945
3184.0757
3016.4577
2936.6835
3338.87
3125.1293
3346.3812
3092.1487
3536.8833
3368.0392
3199.3774
3583.0032
3426.2265
3744.6233
3432.7034
3908.8439
3725.8194
3596.1027
4020.8892
3814.6479
4144.618
3851.1049
4356.8487
4167.8465
4064.266
4455.9461
4255.9769
4649.7521
4359.5962
4880.6851
4683.5675
4561.7466
4956.502
4702.4841
5186.26
4929.6469
5437.5842
5222.9969
5148.6075
5518.278
5324.6557
5830.4796
5586.9851
6034.5345
5914.6293
5841.6889
6159.1276
5970.1248
6550.8534
6308.7326
6805.2095
6676.3099
6508.3809
6928.043
6689.7721
7375.3665
7195.1259
7664.1658
7476.8259
7449.8523
7745.4677
7614.952
8417.9145
8154.9602
8611.3665
8432.5885
8418.8838
8721.6662
8574.5026
9433.739
9060.6259
9596.8843
9381.558
9405.0977
9690.1833
9557.4222
10733.851
10304.997
10871.297
10660.424
10682.729
10931.123
10816.602
11899.338
11389.112
11951.639
11678.859
11785.689
12022.411
11921.199
13377.722
12969.552
13500.701
13272.479
13442.283
13526.418
13440.599
14700.952
14163.475
14637.141
14354.336
14499.759
14569.154
14585.127
16631.92
16351.864
16785.85