/*--------------------------------*- C++ -*----------------------------------*\
  =========                 |
  \\      /  F ield         | OpenFOAM: The Open Source CFD Toolbox
   \\    /   O peration     | Website:  https://openfoam.org
    \\  /    A nd           | Version:  6
     \\/     M anipulation  |
\*---------------------------------------------------------------------------*/
FoamFile
{
    version     2.0;
    format      ascii;
    class       pointScalarField;
    location    "0.13";
    object      p;
}
// * * * * * * * * * * * * * * * * * * * * * * * * * * * * * * * * * * * * * //

dimensions      [1 -1 -2 0 0 0 0];

internalField   nonuniform List<scalar> 
3969
(
643408.76
-932791.87
776.23207
-557.77758
1234305.8
-1847709.6
-762.60762
453.91538
514375.81
354704.02
184001.16
7245.9636
-125222.94
-326629.16
-350787.27
1113.0297
1770.8526
1954.761
862.03706
-141.14122
-793.16478
-1004.6908
200660.87
220444.35
209564.19
215931.26
207605.33
205697.89
198023.23
191667.01
183940.74
174945.79
165421.72
155020.66
143620.6
131764.69
119340.85
107484.66
96651.932
86875.229
78376.795
70609.58
63645.122
56790.621
49972.622
42745.973
35688.389
28612.011
22556.041
17406.725
13704.17
11783.753
11287.096
11972.933
13382.535
14649.722
15400.402
15241.717
14036.042
11373.777
8318.9551
5309.0989
2689.273
1077.3888
381.9804
641.43637
900.54179
2519.9766
1314.6841
-208839.58
-172149.47
-199656.36
-175095.26
-190403.85
-173832.67
-175648.28
-164214.38
-160821.12
-150998.32
-143157.31
-133098.55
-121382.59
-111035.36
-99023.821
-87901.685
-77832.986
-67930.058
-60253.629
-52519.53
-45846.941
-39677.948
-33311.477
-27029.361
-20467.249
-14628.795
-9319.2046
-5063.1081
-2109.1817
-684.40916
-669.51061
-1567.2169
-3126.9311
-4580.9277
-5449.3888
-5619.7997
-4756.5394
-2761.6289
-845.57465
1533.0024
2983.9628
3711.8314
3181.5738
2125.6903
417.40131
-1195.6868
-1274.0872
899750.58
686169.49
316379.02
5569.6723
-257265.92
-599554.69
-493148.37
-244896.42
-271172.89
-161320.8
-228827.25
-192485.47
-196785.61
-185360.15
-181915.23
-168915.68
-160261.06
-157733.79
-140879.69
-134052.03
-119672.35
-108125.37
-95830.878
-84023.973
-74214.878
-64853.293
-56563.329
-49191.37
-42221.912
-35050.005
-28162.315
-20917.541
-14615.734
-8222.9759
-3184.313
312.03396
2004.8894
2113.3246
914.32753
-914.52101
-2959.3695
-4560.1094
-4963.378
-2483.5524
-2934.5762
832.83804
2931.5814
4638.4068
5324.3945
4903.4084
3572.1229
1725.0083
168.10314
-1191.3296
-2133.9743
-1760.0955
-1813.5005
-489.58345
990.78816
795.94889
1356.3067
385.04895
2993.2259
3272.8538
2005.9742
1512.4868
1456.4823
2318.0419
4322.2268
7415.1157
10371.957
12263.044
17995.945
16805.996
17709.714
16704.461
15330.155
14346.041
14272.33
15319.798
18527.117
23005.49
29012.215
36408.145
44030.311
51843.855
59510.746
67170.71
74855.47
82973.063
91847.161
101958.01
111789.07
122116.52
137553.57
154835.83
159891.01
174928.9
181385.34
187889.8
202262.1
211607.68
208548.83
222243.3
219518.13
214432.1
234488.69
237668.15
568697.46
617791.79
647174.48
640086.4
633075.37
632940.53
521309.79
-753864.69
-951061.21
-1084315.3
-1157683
-1095441.9
-1084785.7
-853612.7
-274.95816
-351.21212
-530.04988
-349.7848
-194.33869
797.373
-492.88552
281.03501
293.38902
523.70823
583.83076
724.62521
-10.574826
568.40355
167480.56
170521.99
167655.68
167189.93
164267.6
161374.79
155332.05
151970.46
143952.46
139636.33
130933.37
122464.35
114197.17
104956.22
95626.932
87062.197
78931.133
71061.285
63785.006
57249.694
51099.445
45221.073
39489.567
33844.447
28567.511
23475.424
18848.303
15120.626
12267.945
10387.279
9429.067
9339.7999
9731.7771
10253.446
10758.335
10842.724
10326.699
9304.787
7917.2463
6087.3132
4372.3476
2828.4715
1607.5726
816.54163
496.40888
1160.927
1219.9823
107494.53
106136.47
105410.8
109581.02
108244.53
110054.74
105608.72
102588.96
98588.769
94570.092
89511.891
84619.616
78634.74
72984.541
67310.325
61615.286
56006.744
50540.693
45607.606
41024.203
36663.224
32697.674
28992.825
25583.745
22397.225
19288.235
16462.159
13949.613
11640.377
9901.8062
8641.4532
7913.1207
7590.5908
7657.868
7822.5827
7944.7265
7854.5301
7417.8139
6839.929
5655.0623
4291.1708
2940.612
1544.1734
854.03091
-26.157627
976.82951
750.46584
50559.28
56809.628
53153.385
56625.267
54488.72
57099.86
54408.79
54950.877
51883.972
50248.17
48217.79
45693.242
42948.947
39594.637
36082.046
33491.975
30681.485
28051.086
25577.528
23268.484
21338.233
19641.565
17931.566
16250.445
14602.873
12948.018
11366.193
9695.8147
8387.7527
7247.54
6457.8991
6120.6881
6124.781
6496.8432
6935.5223
7434.5085
7793.6512
7519.5956
6947.4391
6000.7019
4908.3069
3775.6542
2441.0011
1828.4962
621.62635
1164.9221
505.64088
2563.832
2194.7326
-1176.4599
3593.349
-1244.2182
2094.0123
-796.29114
1174.7457
1128.9708
3771.9839
3242.0571
4948.1064
4642.2211
5783.5717
5743.4597
6332.0106
6184.6347
6232.071
5957.6052
5771.2021
5775.5363
5525.7572
5477.5078
5703.5085
6222.4785
6699.6526
6798.5357
6674.7383
6243.1663
5520.9011
4777.3236
4139.682
3621.5405
3509.6056
3564.9451
3962.9901
4443.8281
5004.0245
5529.2115
5454.9062
4837.0142
4139.2535
2794.9502
2152.2531
714.53159
718.90974
309.62907
-56237.101
-49026.63
-48926.685
-49602.053
-51582.066
-48693.481
-48512.141
-45609.918
-43729.643
-39481.263
-37388.002
-32651.133
-30521.359
-25844.652
-23204.502
-19675.224
-17334.572
-14748.68
-12721.076
-10608.32
-8396.9288
-6053.0877
-3914.9606
-1593.4819
450.99603
1946.4186
3040.5243
3569.8596
3518.5394
3149.1883
2531.5996
2012.1747
1571.7041
1697.1114
1958.6141
2613.0435
3522.768
4370.9835
5025.0392
5233.7449
4925.8586
4340.6238
3464.5479
2949.5779
1494.2851
1015.3164
5.8303224
-113468.12
-102211.25
-102486.82
-106119.65
-106710.55
-103776.85
-101817.74
-96820.306
-93756.686
-86249.917
-81585.907
-73473.936
-67732.194
-60640.341
-54331.651
-47631.638
-42186.023
-36932.759
-32558.33
-28395.674
-24204.889
-20882.74
-15978.782
-12010.431
-8111.0479
-4808.0065
-2247.5285
-141.26009
1120.4047
1424.2739
1110.2393
289.17467
-592.99551
-1285.6008
-1670.6865
-1292.1922
-431.15937
899.72707
2346.731
4427.5228
4742.8972
4831.7828
4089.5879
2871.8112
1207.6661
-34.78272
-369.0449
-191392.46
-131944.82
-154668.24
-151033.12
-154711.47
-149264.46
-146694.85
-140457.98
-136084.27
-126453.94
-120844.61
-110002.64
-101241.43
-91185.033
-81531.139
-72356.115
-63956.594
-56841.574
-50028.939
-43899.631
-38342.264
-32051.681
-26410.094
-20848.231
-15354.016
-10429.54
-6133.7034
-2639.6968
-409.69764
545.14126
631.90278
-110.52442
-1101.0782
-2001.1754
-2543.4801
-2158.0366
-1421.2833
-387.25024
1421.3973
2750.8729
3752.6116
4060.1996
3694.0582
2543.1427
1293.1583
-181.31689
-1113.5631
396065.24
380311.24
398233.12
397120.23
397974.95
386968.42
362404.07
264358.35
297903.2
281415.29
289134.49
289013.25
282830.43
272708.89
136886.73
160865.25
138191.91
150722.67
142028.63
141324
145710.89
27677.424
15022.595
8613.1396
21946.013
15005.105
527.9086
45852
-67728.32
-70334.323
-77650.424
-66572.684
-71792.6
-67997.191
-35380.121
-241493.16
-264548.62
-259585.83
-267408.82
-273716.57
-266077.4
-251556.74
-299280.97
-265335.8
-236033.75
-242447.48
-225458.31
-209206.16
-232261.08
-339830.35
-349976.83
-391391.15
-404858.9
-413602.39
-404732.55
-317080.96
-253243.1
-294882.79
-294882.3
-299815.82
-314519.09
-298012.74
-271756.26
-198030.02
-223850.47
-236001.72
-237896.86
-235487.4
-219721.51
-233406.65
-198612.63
-218737.51
-212142.39
-225179.43
-216509.54
-216205
-200691.24
-194174.55
-205122.76
-209595.47
-209515.07
-210185.94
-201421.52
-204613.8
-188566.65
-184160.57
-186612.96
-190073.03
-189009.83
-186224.71
-184717.41
-178944.23
-182898.09
-184465.42
-186454.56
-184923.26
-186186.1
-186692.44
-176042.05
-172555.61
-172371.06
-173597.73
-170997.26
-173095.84
-172998.12
-167474.63
-167594.06
-166959.27
-168004.32
-168697.23
-168328.59
-170698.61
-161685.4
-158491.49
-156148.85
-158069.12
-156838.87
-155365.25
-156809.49
-151348.82
-150573.3
-148074.43
-149011.21
-148345.85
-145789.3
-151590.75
-140093.91
-138323.85
-136785.88
-138378.84
-136902.38
-133342.47
-138551.7
-128674.26
-124526.93
-126139.83
-124151.84
-125748.23
-123777.47
-127938.08
-114971.93
-112508.25
-113725.73
-111625.19
-113295.49
-110660.46
-113708.77
-103188.51
-99346.069
-100953.91
-98553.67
-99986.783
-99274.033
-101972.94
-90696.816
-86909.063
-88994.638
-86429.081
-88638.679
-88272.56
-90439.328
-79623.115
-76470.539
-77901.809
-75632.058
-77797.854
-77480.336
-79311.151
-70165.151
-66886.245
-68583.907
-66131.396
-68667.22
-67846.292
-70268.219
-61889.949
-59148.639
-60590.491
-58134.474
-60613.241
-59391.232
-62368.781
-54655.765
-52209.917
-53654.377
-51263.22
-53867.865
-51994.2
-55266.062
-48223.988
-46019.771
-47243.542
-44892.048
-47299.292
-44914.003
-48401.529
-41665.388
-39823.765
-40968.079
-38713.887
-40968.961
-38304.497
-41704.573
-35037.404
-33502.733
-34282.474
-32206.67
-34075.141
-31572.808
-34465.769
-28166.575
-26775.713
-27295.249
-25371.91
-26971.886
-24880.697
-27132.058
-21100.144
-20005.637
-19661.657
-18570.827
-19480.105
-18174.532
-19711.763
-14369.198
-13254.162
-12522.773
-12225.399
-11874.052
-11950.445
-12815.607
-8690.5043
-7394.4368
-6680.9298
-6476.9178
-5960.4037
-5802.4637
-6275.8293
-4002.8065
-2979.6903
-2190.9721
-1698.1255
-1294.7899
-1989.9721
-1356.8054
-999.1219
57.482665
582.99617
1050.3544
1278.2339
308.97714
1082.8972
70.825559
1072.6551
1192.7244
1708.4796
1803.5443
840.75842
1562.352
-414.58156
274.97609
214.04881
629.05244
505.39443
-116.48427
105.48839
-2206.068
-1652.7971
-2060.2206
-1720.6871
-2014.0771
-2099.906
-2458.6831
-4454.8806
-4174.9027
-4826.7653
-4525.5949
-4965.6808
-4282.8207
-5244.1901
-6460.7526
-6342.7941
-7196.3227
-6811.1707
-7292.5961
-5981.9893
-7374.8993
-7505.1569
-7551.2335
-8592.0084
-8152.5259
-8605.594
-6371.7552
-8140.3613
-7329.5143
-7507.5788
-8400.6781
-7858.5895
-8002.9653
-6866.6694
-7553.4212
-5686.8314
-5970.3855
-6848.6051
-6596.3373
-6406.5052
-4222.539
-5066.2978
-2843.2374
-2958.6102
-3781.4237
-3116.5043
-3151.6813
-1405.6363
-1090.2647
-1.0152145
-484.94431
-1037.9774
-346.61525
-155.79543
1512.6343
1590.9218
2471.6778
2520.15
1817.0791
2476.9755
2865.064
3437.8047
4660.4676
4277.3404
4149.3875
3386.9395
3924.4984
4182.2163
4582.0666
6158.4623
4819.9884
4730.0979
3893.519
4236.5325
4582.2672
4424.968
6051.6969
3791.0578
3586.4536
2698.211
2935.8486
3139.0406
2904.5151
4393.7586
2195.9783
1947.1783
1066.8656
1169.4076
1332.2403
1215.2839
2183.5951
-10.527685
-160.9018
-978.94216
-838.69953
-742.54662
-619.2049
-278.00577
-1478.0426
-1217.3779
-1732.389
-1643.9092
-1565.2395
-1150.6425
-1388.1954
-1092.0442
-751.05838
-1486.1604
-1313.598
-842.66149
-718.89634
-876.5672
979.04347
1230.7739
1581.2637
1492.2698
1450.7327
811.50886
828.57354
4148.1595
4182.7916
4584.5402
4256.5513
4033.2329
2555.6578
3117.6295
1738.2658
2065.1925
1935.4267
1839.777
1689.5647
1338.5323
1391.5123
-326.34696
-196.28446
-258.18223
-14.979367
-80.925334
1.9678524
-500.38534
-1695.7373
-1665.8362
-1892.048
-1756.4896
-1595.5547
-2024.9389
-2177.5487
-2410.7412
-2650.544
-2450.2405
-2377.597
-2490.2713
-2103.5563
-3194.4985
-1423.9986
-1799.4208
-2119.6019
-1843.2257
-1264.4427
-1151.0264
-1453.9633
246224.11
246579.91
277655.71
272701.76
279904.95
265489.94
256749.9
252782.57
261450.95
272198
270885.58
275995.07
258259.62
254874.6
237606.49
240550.88
247620.05
248314.06
248026.55
235003.24
234429.82
220851.11
228272.41
233407.84
235900.93
233620.8
228670.13
229516.22
216841.64
218105.56
220234.9
221142.09
221761.31
217365.23
215420.19
205611.65
207623.31
210073.06
208700.78
210441.45
205666.97
208131.25
201337.34
200828.38
201803.54
200560.34
204642.3
200818.86
205129.54
191623.77
191802.23
193641.54
189468.57
193338.42
189958.68
194029.04
186157.6
186207.44
186480.72
185174.91
189135.04
183823.06
191104.7
177670.12
176011.65
177100.22
174793.28
178630.05
174083.95
180792.15
168212.82
166513.85
169380.42
165975.62
170494.18
165882.56
171339.43
156527.55
156736.43
156993.34
154816.34
157599.21
154202.85
160508.66
145664.9
143523.58
144572.48
142526.54
145923.49
141984.65
144346.97
132234.75
131342.56
131359.54
130034.33
132275.67
131202.19
134887.12
119734.96
118629.88
118003.76
117535.36
119178.49
118124.73
122175.09
108146.05
105855.24
105973.11
104974.18
107206.09
106445.04
108879.1
96495.791
95166.941
94647.555
94485.995
95543.11
95088.71
97840.9
86673.301
85447.438
85420.947
84602.125
85722.95
85607.479
88010.531
77837.262
77303.329
76895.867
76268.988
77415.144
76977.137
79471.948
70398.825
69897.687
69617.581
69093.344
70043.765
69239.492
71901.267
63398.398
63197.765
63003.975
62366.244
63238.665
62048.087
64824.879
56702.444
56616.482
56364.114
55720.545
56335.218
54863.882
57712.295
49614.183
49710.932
49587.811
48897.678
49249.123
47778.46
50320.996
42282.962
42497.711
42029.5
41518.278
41549.559
40323.514
42596.281
34640.68
34773.686
34245.366
34053.854
33631.433
33009.091
34716.266
27245.918
27458.867
26648.055
26749.202
25986.251
26028.948
27260.9
20479.567
20783.085
20081.563
19950.551
19433.227
20095.803
20782.008
15070.049
15235.1
14782.338
14783.878
14492.993
15772.21
16109.43
11504.713
11958.852
11245.398
11707.322
11454.722
12869.177
13185.378
9874.4716
10473.012
10151.975
10610.069
10637.848
11960.778
12499.45
10008.131
11032.062
10754.965
11287.007
11794.129
12496.142
13611.346
11622.705
12800.443
12803.571
13351.156
14324.213
14023.944
15690.637
13843.65
15144.112
15356.969
15744.631
17037.86
15578.823
17988.252
15829.988
17093.428
17511.485
17862.312
19436.606
16984.672
19982.88
17001.363
18073.192
18557.939
18831.641
19806.808
17398.323
19767.59
16975.801
17428.639
18103.486
18041.644
19399.287
16190.486
17690.366
15147.278
15015.648
16149.448
16071.355
16615.045
14590.898
16631.744
12454.003
11988.882
12485.36
12532.378
12791.72
10949.129
11181.581
9029.3659
8206.8951
8902.1283
8677.8538
8819.1063
7434.9069
7745.8406
5507.1655
4546.297
5077.7624
5080.1366
4769.4158
4509.6383
3902.0425
2711.5268
1758.7318
2446.7268
2341.1852
2152.2036
2569.9038
1401.0589
1190.4251
391.19375
1025.5416
1114.1059
933.30898
1712.9072
450.69486
701.06187
301.99447
1129.7137
1197.2124
1345.6181
2051.1858
1056.809
1296.7506
1225.099
1990.8747
2052.1454
2420.5614
2522.2917
2121.2976
2134.3553
1914.3308
2570.6819
2519.7298
3024.3201
2706.6247
3543.3043
3031.3459
3247.7192
3694.0735
3848.6128
4373.3338
4058.1307
5304.1657
687.84912
-61.899839
55.444966
428.53104
424.80761
585.86377
1309.0397
244756.27
185811.14
179261.95
174795.35
177881.01
176940.74
167520.24
164082.49
158098.44
151796.29
142183.05
133994.47
123601.99
113703.51
104966.89
95457.287
86367.991
77859.479
70304.789
63096.683
56241.566
49803.607
43554.639
37616.675
31992.246
27082.723
22677.329
18894.138
16143.93
14133.246
12720.905
11930.432
11388.863
10539.342
10617.704
8786.809
8890.3759
8795.2542
7295.2933
5834.2203
5023.6785
4159.7209
3172.4078
2454.41
1768.3556
311.15652
751.37047
148510.42
148068.76
104211.27
122149.65
132777
121204.96
125793.91
117656.33
116689.16
110603.56
106297.73
99830.377
91945.834
85173.19
78130.145
71278.253
63830.76
57366.876
52037.027
46880.495
42477.793
38435.677
34386.45
30435.242
26258.903
21731.485
18424.094
14871.135
12532.274
10613.454
9783.8287
9807.2724
10252.564
11168.042
11927.363
11451.266
11743.03
11138.342
9085.562
6866.4613
4948.3462
3157.6405
1755.4604
992.17024
642.31871
954.73565
438.40285
76157.032
85940.358
44888.48
75258.965
62003.514
58816.038
59791.516
57154.74
55227.328
51896.781
51452.856
47789.756
46780
44077.952
42071.053
39684.463
36540.123
34041.082
31663.095
28659.209
26153.941
23465.731
20845.279
18342.417
16123.861
14350.28
12712.613
11495.406
11008.402
10687.122
10670.926
10506.319
10178.156
9579.7572
8554.9057
7501.9432
6263.2145
5076.2309
4121.4154
3591.131
3365.7825
3346.0888
3115.7678
2982.1407
2486.8836
1313.8426
544.49104
3911.877
24434.105
931.33693
17797.92
5198.0768
13940.21
9965.042
6081.1875
9336.4899
9896.5366
8791.6465
11861.589
10696.194
13496.125
13460.131
13413.397
12769.637
12486.668
11974.812
11359.19
11169.6
10797.125
10435.957
10106.29
9607.8132
9170.5933
8835.252
8508.0418
8190.8656
7964.4411
7833.5978
7526.6985
7374.2125
7014.4987
6722.3944
6322.2946
5967.2232
5796.1246
5473.2743
5073.905
4732.2049
4355.3892
3692.8293
3063.7773
2012.5806
1056.4522
218.47807
-88895.599
-38899.857
-51380.017
-29450.303
-45733.691
-30662.367
-40012.812
-34148.383
-30842.476
-30316.303
-25672.145
-25592.32
-22122.974
-21638.098
-18080.62
-15872.363
-12768.198
-10348.692
-7932.5695
-6008.4847
-4245.1317
-2941.311
-1809.218
-665.20809
842.04502
1954.1113
3250.8452
4417.392
5490.6546
6383.2134
6835.4472
6917.7051
6748.9586
6104.8583
5339.3275
4540.4819
3738.354
3383.1765
3165.4911
3283.4687
3625.3569
3738.4522
3736.9634
3324.7024
2577.6695
1369.7289
609.43437
-145284.39
-106494.93
-89339.699
-89422.61
-95174.52
-88397.04
-92595.951
-80142.995
-86167.249
-79946.376
-77656.642
-69616.118
-62791.713
-56907.749
-50045.424
-43669.944
-37831.519
-32674.596
-28238.458
-24424.091
-20757.172
-17086.93
-13446.742
-9155.2532
-6124.0766
-3415.1064
-1103.4459
1289.5967
3084.6642
4374.3987
4968.3755
5100.843
4693.0158
3950.8433
3070.6183
2699.7786
2243.5473
2124.3783
2559.776
3086.4173
3571.8136
4083.9953
4084.3944
3865.9517
2912.5497
1736.5802
-21.3432
-188116.12
-144718.09
-151311.74
-142139.11
-155750.48
-145919.86
-145900.37
-137542.64
-135851.85
-125791.74
-118228.65
-111641.34
-102633.54
-93794.92
-84440.873
-75871.229
-67239.507
-58925.214
-51649.11
-44822.033
-38688.509
-33019.621
-27912.937
-22622.087
-17962.088
-11343.909
-7187.0096
-3163.8832
380.84053
3107.3347
5075.6827
5922.7665
5943.2451
5209.887
4167.7024
3160.3293
857.3548
1199.231
1713.2943
1843.8262
3331.6112
4209.8622
5055.7012
5043.1198
4456.6647
2701.0787
1152.7562
301682.27
327727.07
325112.17
335845.09
334147.89
315759.36
294243.91
206735.8
239047.84
237624.24
244210.5
237219.03
226713.04
207676.56
192391.4
208807.76
220785.78
222427.29
217868.51
216180.95
205241.65
181125.59
186333.13
190004.45
194591.76
188157.86
191279.38
173405.09
173903.65
178306.41
185266.38
182015.12
183350.22
178945.74
169074.04
167883.49
172695
168877.19
175447.33
169876.98
171112.69
170447.3
162576.11
162447.07
164070.57
164273.65
160930.05
163684.37
161299.06
155806.98
160765.04
155717.62
160702.79
158208.95
157887.43
157390.41
151125.78
150430.71
147162.02
152456.27
147069.54
151499.47
150089.01
142365.2
144445.26
142713
146251.89
141486.23
145428.71
143279
134654.24
136941.74
133351.8
136628.64
133016.79
136429.23
136269.22
128105.87
127287.01
126104.5
127458.8
126330.44
127431.18
126541
117254.12
118185.68
116586.23
119098.72
116443.62
118569.22
120631.57
108036.06
108381.32
107186.1
108988.03
106849.82
109017.64
109690.43
98957.305
99017.202
98493.93
98285.904
98324.308
99085.999
99152.468
89131.828
89598.321
88965.968
89467.16
88868.911
89164.437
90767.999
80638.55
80423.321
80534.615
80429.062
80516.304
81121.052
82261.819
72686.626
72817.809
72663.916
72274.03
72812.009
73059.782
74331.778
65652.117
65573.311
65486.149
65368.763
65950.756
65878.443
67135.672
58940.351
58956.11
59038.621
58876.822
59283.582
59468.75
60691.973
52638.513
52787.121
52891.43
52763.925
53124.158
53438.777
54411.67
46514.708
46611.258
46723.509
46693.765
46994.112
47534.657
48314.076
40528.48
40377.656
40527.391
40601.511
40897.218
41710.418
42272.282
34638.241
34169.447
34430.666
34231.248
34683.116
35551.851
36071.744
28954.122
28147.663
28477.655
28383.88
28879.241
29950.917
30377.073
23491.867
22405.153
23148.208
22452.856
23313.348
24459.941
24933.333
18785.616
17446.792
18181.412
17685.13
18775.489
19725.09
20391.266
14766.918
14191.39
14034.073
14012.831
15135.727
15535.385
16670.539
12019.978
11099.251
11995.815
11267.328
12771.638
12965.036
14418.642
10187.08
9823.2149
10353.453
9812.8659
11519.785
11354.665
13203.886
9469.1481
9291.2235
10016.444
9647.4406
11155.18
10916.999
12902.721
9402.4497
9621.0809
10257.751
10151.676
11319.613
11030.115
13066.829
9662.2571
10182.18
10778.226
11092.955
11558.948
11501.917
13816.202
9954.903
10725.455
11322.554
11712.404
11707.209
12318.008
13879.718
10160.688
11058.474
11368.373
11937.478
11707.908
11387.95
13449.674
9403.474
10417.906
10839.924
11598.546
10460.72
12096.998
13524.049
8552.2318
10082.859
9993.5728
9917.572
10327.666
9215.5287
11524.988
7033.3556
8323.9174
8419.5283
8581.6391
7811.0415
9410.8587
8419.9306
5671.9022
7034.3975
6539.8183
7094.9054
6161.979
6836.138
7666.288
4087.3919
5294.5413
5036.9527
5146.1754
4731.7529
5548.4561
5463.4043
2849.2324
4295.963
3843.8059
4056.6262
3953.18
4057.1797
4251.8401
2009.7249
3341.0456
3073.1981
2975.3271
3275.4757
3008.1701
3369.9632
1528.1658
3088.0762
2770.964
2870.1702
3417.848
2681.0626
3224.2379
1620.542
2908.5922
2627.8793
2568.7819
2970.1424
2205.7844
2993.8595
1766.69
2518.0014
2394.3209
2520.4884
3190.5855
2622.8341
3626.5179
1587.978
2436.0179
2169.0682
2544.6273
2646.7112
2189.142
2871.6211
1307.8904
993.51987
1096.2555
1192.2879
1331.244
1491.2697
1804.3554
194634.37
203804.23
222841.38
218754.46
226434.13
207723.52
205336.09
146794.17
182367.56
189688
194118.7
194043.67
179930.18
167705.64
142141.72
132702.12
148745.85
142280.35
150167.78
134111.97
139106.13
119212.72
126310.45
133556.35
130984.65
133749.86
129349.18
115532.06
121940.59
122326.94
128122.31
123206.12
130234.94
118905.58
123333.45
113301.2
113631.31
115249.55
113442.23
112303.05
115582.08
114749.95
111349.14
112823.99
117913.65
111715.32
117020.12
115168.37
112313.99
107021.38
106270.13
107113.73
104738.06
107834.21
105241.06
108684.19
103695.44
102421.18
108148.76
103281.7
104972.16
105373.12
105367.55
98111.862
99061.029
101391.31
95942.574
100595.45
98899.12
101002.84
94515.503
94141.425
96252.283
93205.467
96047.939
95470.597
95205.149
88524.017
87948.042
91884.023
87519.09
91563.314
89273.114
91913.359
82380.385
82522.796
85734.347
80957.822
84796.97
82829.877
83553.873
76128.326
76842.352
78585.431
75059.241
78205.337
76930.593
76555.163
69458.911
71019.176
70470.337
68588.894
71079.218
69640.349
70372.614
63090.043
64340.117
63675.404
62893.24
63986.063
63536.141
64081.161
56643.271
58472.864
57256.186
56444.66
57499.781
57645.729
58848.119
51182.233
53013.433
51463.253
51408.189
51921.871
51925.663
52736.922
46287.812
47675.029
46440.66
46451.225
46853.799
46810.558
48066.931
41766.098
43310.437
42120.999
42299.093
42443.772
42439.628
43596.281
37937.255
39276.287
38187.172
38387.015
38618.259
38540.435
39315.965
34361.551
35549.144
34588.961
34887.826
35081.219
34811.454
35236.711
30889.684
31920.147
31220.801
31466.111
31602.555
31137.865
31245.04
27287.836
28333.894
27873.641
28004.568
28048.477
27608.815
27208.617
23499.193
24689.941
24041.72
24200.208
24669.497
23726.154
23598.811
19630.209
20918.76
20437.551
20883.916
20409.474
20062.144
19931.293
16152.455
18154.744
16354.894
16703.999
17367.506
16869.081
16910.03
12611.743
13588.84
13595.666
13558.405
14053.293
13683.738
14346.347
9889.2141
11868.75
10437.981
11222.135
11388.299
11616.643
12603.759
7832.7352
9804.867
8412.845
9427.1741
9797.2019
10009.631
11772.962
6661.2752
8845.3923
7466.8894
8766.3775
9088.415
9436.7918
11501.257
6346.15
8498.2396
7428.7058
8738.1024
9171.2266
9420.9081
11703.016
6614.0802
8767.5309
8169.4072
9349.067
9952.0703
10258.944
12209.814
7431.9962
9518.7139
9340.5297
10296.327
11022.526
10973.874
12088.81
8143.7432
9986.0926
10374.29
11033.755
11866.435
11889.778
12378.17
8873.5538
10548.787
11158.898
11527.117
12430.4
11744.71
11657.868
8916.551
10397.379
11157.519
11514.585
11927.168
11927.74
10489.083
8570.8236
9553.6175
10411.888
10646.829
11178.024
10864.299
9129.1311
7213.9161
8552.7355
9229.757
9002.6954
9950.1696
9056.339
7605.5689
5759.5696
7054.7035
7549.6483
7433.7067
7955.6584
7680.5349
5949.1442
4156.2154
5411.06
5526.7544
5513.2436
6084.3095
5589.8729
4768.6064
2897.5766
3957.702
3950.081
4203.6961
4587.1197
4327.7171
4099.911
1657.8336
2830.4486
2589.6044
3198.8227
3331.1674
3171.8658
3743.7597
1238.0484
2021.8982
1919.8039
2473.2205
2662.4257
2559.1678
3585.8943
1071.7336
1584.0641
1585.1443
2328.0424
2525.3201
2302.6596
3444.8795
1661.7025
2310.8554
2584.5398
3170.4215
3190.6919
2851.3846
3576.1672
1085.8041
388.0969
830.55304
1081.589
1223.2488
1402.2223
2048.185
116701.52
119046.06
115376.26
125437.88
120613.35
113042.92
107375.87
82372.123
118226.05
111063.48
120657.03
107252.05
108531.27
90717.387
78378.622
71299.909
76986.795
77683.148
75397.201
68473.153
69380.577
60621.46
74753.282
76909.635
83116.698
74517.732
79467.648
62828.466
67072.203
63736.431
66644.922
62289.291
64229.369
58715.955
61742.324
57992.215
66641.813
60593.274
64018.746
62412.484
62965.033
61022.038
58728.601
62190.87
54872.791
58885.963
59682.604
56064.791
57633.921
55430.507
62224.431
53176.122
58286.196
55703.775
54079.343
57953.497
54750.643
60296.786
50383.427
54402.455
53486.279
53708.574
55133.187
52965.589
57100.773
47419.132
51465.147
51771.063
50196.084
52754.634
50116.238
54484.837
45092.519
50500.643
48776.097
48796.888
50628.779
47011.115
51279.382
42372.215
46330.977
45394.48
45047.118
47419.855
43518.853
49618.046
39650.112
44143.966
43364.051
42310.127
44954.659
40726.683
44753.237
37768.269
41151.86
41318.802
38151.11
43833.867
38300.564
40580.326
35197.351
38178.144
38006.982
36383.07
39975.633
34760.01
36921.199
33303.287
34834.022
35447.425
33638.203
37473.688
31737.984
34168.562
30996.091
32567.101
32699.625
31579.415
34337.08
29302.52
31273.785
28639.538
29991.618
30293.356
29427.335
31404.501
26790.101
28711.121
26541.883
27697.542
27958.112
27145.772
29211.405
24589.717
26345.998
24460.111
25515.298
25673.401
25194.708
27030.862
22550.466
23846.133
22385.15
23268.659
23573.656
23064.513
24750.642
20490.941
21459.731
20241.555
21219.845
21339.622
20706.721
22689.061
18482.719
19003.113
18106.956
18989.341
18847.21
18647.933
20551.901
16448.933
16547.732
15823.298
16299.449
16473.679
16206.456
18417.755
14540.905
14390.263
13706.819
14212.673
14058.776
14351.375
16465.479
12676.136
12218.979
11651.353
11930.418
12151.935
12419.437
14285.744
10777.613
10706.03
10237.578
10498.403
10608.511
10718.517
12791.668
9535.181
9508.4942
8976.7162
9346.1366
9716.062
9821.1172
11830.593
8365.9149
8645.4155
8395.9287
8631.2995
9340.5329
9360.8582
11203.725
7551.455
8182.3193
7990.3593
8650.97
9330.6639
9414.6919
10852.009
7157.4891
8211.5508
8304.919
9063.5023
9616.5849
9637.3083
10845.818
6979.93
8350.0081
8584.1551
9449.5534
10042.475
10067.665
11143.848
6999.7063
8639.217
8992.6153
9933.829
10417.991
10178.921
11121.696
7000.4551
8708.4005
9079.0674
9880.546
10424.857
9876.6399
11207.793
6914.2818
8678.0435
8830.3396
9627.3266
10018.814
9088.0766
10681.893
6641.3547
8150.1805
8354.2203
8825.75
9113.6812
8288.4694
10031.951
6021.5648
7567.5178
7368.1307
7649.5077
7973.2406
6885.3934
8855.0732
5396.4067
6628.2492
6447.019
6329.2295
6810.0622
5503.6946
7874.3764
4718.9731
5872.8469
5238.1251
5454.3879
5379.2729
4439.4878
6719.8805
3903.3588
5037.4741
4172.9658
4302.7612
4318.7962
3554.7056
5583.1546
3319.0846
4590.8252
3434.1468
3981.2459
3790.5831
3305.4779
4727.4298
2697.0598
3956.4219
3067.4266
3617.558
3356.5281
3150.6507
4105.8559
2426.4251
3628.3198
2988.4719
3697.8292
3357.0435
3461.7945
3668.4706
2143.9356
3492.4365
3002.8404
3504.8954
3206.4271
3299.4546
3128.6882
2270.5094
2858.9859
2943.0086
3595.7485
3404.9925
3626.7935
3303.3402
1954.0104
2447.6586
2510.7721
2765.4612
2474.5752
2551.5537
1937.1606
1331.533
1299.4303
1736.7978
1921.3731
1835.1443
2006.0316
2135.9747
13656.841
7054.9878
12091.151
12512.176
11779.316
9372.4902
19128.967
5118.6859
10666.604
11786.681
15803.25
11565.365
12927.803
8405.936
16126.037
-2230.7612
3354.2043
-2558.8318
2453.3043
-2360.3004
9618.5279
4264.7018
2862.4204
11427.745
7940.0134
7849.087
12522.611
2271.774
9764.7617
8008.8487
8839.2597
-1019.3068
9352.4053
-5467.9462
11075.88
7766.542
2955.0364
2134.3713
5589.0023
3941.5064
6977.6985
4238.7372
8346.6622
6911.0635
11655.036
4008.559
8901.3975
4677.562
9180.6824
9110.5816
5687.5956
5305.7664
5957.8557
6035.0072
8183.532
7103.8653
8675.4605
5173.2137
10198.619
5576.4359
9757.8016
7478.6621
6248.4268
7740.1358
7716.4562
8604.1948
6301.0166
8164.4329
7719.1875
8788.5698
8518.25
7706.3088
8886.6168
6590.8311
8786.4455
7983.4112
9175.9185
7787.1331
8723.0048
8515.5371
8210.0768
8793.1864
9599.3644
9001.1286
8477.4589
8355.9723
8694.1868
7852.8252
10112.162
8194.1476
10327.533
8066.6538
8624.4432
10967.414
9598.1211
7621.2409
10317.52
7394.3676
8881.4902
10643.333
7223.0277
9608.1712
8089.4077
9697.2717
8946.5619
7760.578
9924.1116
7139.2751
10446.192
7324.4263
9913.3063
8762.8011
7832.6711
9447.9098
7240.4581
10049.179
7265.1019
9645.6542
8955.5203
7367.8581
9264.6234
6931.0613
9809.0248
7117.5906
9398.9339
8569.2776
7328.0993
9013.1539
6808.1269
9538.8834
7016.0615
9087.1562
8615.4125
7279.1883
8784.344
6618.6076
9348.9092
6897.4247
9149.953
8314.2065
7276.7393
8576.7834
6703.9346
9245.0374
7078.6791
9021.0816
8118.5043
7209.7087
8650.2107
7009.0936
9383.5209
7122.7129
9117.1508
8158.0627
7218.7193
8618.18
7453.4451
9090.2413
7365.7183
9241.602
8139.7727
7438.6084
8880.3606
8034.9645
9401.4429
8134.0547
9682.9744
8066.7359
7429.4054
8708.5678
8349.5539
9368.9532
8879.235
9665.8415
8088.6349
7065.6977
8779.8138
8763.9627
9413.5326
9195.4496
9654.456
8322.1465
6745.5536
8873.1288
8388.8264
9190.2839
9117.1918
9698.7689
8481.6411
6252.9247
8221.8174
8005.4558
8883.3307
8719.2398
9408.4126
8450.1401
5483.7839
7803.509
7398.8473
8374.8226
8358.1406
8976.5579
8806.1146
4821.1487
7111.3943
6489.2442
7743.4529
7633.9185
8207.5355
8818.0326
4159.4504
6428.7484
5807.3361
7207.8986
6947.858
7636.7931
9046.2866
3654.6434
5781.1176
5007.0495
6504.7045
6314.7389
7039.0576
8854.9498
3387.9191
5194.9669
4547.0993
6163.7031
5890.1452
6447.8679
8579.5514
3345.2812
4873.8902
4366.2721
5826.1485
5504.8184
6162.5391
8262.8876
3559.1626
4711.7852
4417.614
5774.1171
5584.3844
6186.238
7757.8866
3891.6347
4867.3545
4713.1287
5863.6593
5820.992
6049.1789