/*--------------------------------*- C++ -*----------------------------------*\
  =========                 |
  \\      /  F ield         | OpenFOAM: The Open Source CFD Toolbox
   \\    /   O peration     | Website:  https://openfoam.org
    \\  /    A nd           | Version:  6
     \\/     M anipulation  |
\*---------------------------------------------------------------------------*/
FoamFile
{
    version     2.0;
    format      ascii;
    class       pointScalarField;
    location    "1.36";
    object      E;
}
// * * * * * * * * * * * * * * * * * * * * * * * * * * * * * * * * * * * * * //

dimensions      [1 -1 -2 0 0 0 0];

internalField   nonuniform List<scalar> 
28033
(
40136.422
35337.491
-1448565.8
-696385.89
45521.569
46527.687
-1047387.4
-2173184.4
26235.521
18183.323
12289.376
8730.4054
5134.1156
3236.5612
1985.8479
1432.9273
2147.208
3040.8752
5543.6225
8950.7612
13666.694
19066.579
30201.297
-807657.22
-802723.54
-799803.67
-798615.12
-796941.86
-795109.88
-794111.24
-792337.35
-790886.79
-789589.79
-787795.79
-786669.05
-784714.95
-783536.38
-592159.45
32985.441
20499.307
19472.744
18699.999
18893.085
18609.757
18371.163
17836.674
17469.084
16705.9
16164.884
15448.81
14746.811
14055.69
13317.897
12711.513
11923.365
11470.815
10678.971
10249.962
9654.5103
9241.1827
8627.5821
8402.8745
7793.238
7693.2508
7120.8216
7079.444
6650.2114
6532.4563
6326.1133
6122.9548
5974.9976
5744.4421
5697.2583
5595.1817
5426.538
5465.6265
5271.2442
5305.8007
5159.5716
5191.0162
5112.7184
5144.8664
5099.4701
5159.561
5114.5683
5213.5346
5177.4072
5285.5144
5283.3299
5380.0115
5422.7843
5501.8053
5576.7805
5658.3895
5740.3971
5831.2775
5921.6074
6018.2535
6105.5129
6223.4637
6306.0424
6449.6479
6543.896
6666.7363
6758.1865
6872.955
6988.0329
7235.0241
7287.8578
7386.0233
7574.4132
7547.858
7908.281
7710.2842
8212.9908
7925.2364
8507.8346
8142.9517
8781.2765
8422.9358
9035.1778
8696.4726
9201.4177
9164.8472
9430.0269
9463.4366
9723.7375
10166.016
9213.8047
10907.944
9364.0717
8804.4666
11785.395
28575.255
13707.162
18749.049
15358.183
16587.226
16435.7
15784.371
15625.932
15546.246
14533.359
14521.259
13537.831
13280.194
12413.968
11971.791
11259.795
10746.589
10236.553
9646.9349
9185.5596
8425.2239
8180.1095
7452.5421
7572.3858
6901.9953
7080.9247
6328.2731
6408.2911
5824.8087
5843.6658
5353.711
5395.3008
5085.2332
5116.0563
4938.7713
4945.2828
4703.096
4762.9912
4559.5775
4670.6112
4540.421
4587.0601
4544.499
4591.8539
4564.6853
4633.0053
4632.5861
4695.0663
4732.6766
4785.0815
4846.8873
4906.6376
4968.8083
5045.9648
5109.8882
5187.3302
5263.9887
5342.5396
5417.1741
5511.6497
5579.8649
5686.4776
5752.8537
5874.0085
5932.133
6070.9007
6139.1035
6322.5222
6458.5516
6487.8959
6581.9622
6655.3399
6846.7879
6879.036
7059.2843
7114.4719
7233.679
7364.7994
7411.8487
7581.2922
7634.24
7775.9443
7837.7964
8006.3401
8037.0355
8208.0571
8298.0823
8421.8147
8480.8251
8757.277
8685.5551
8850.9876
8986.1837
9377.4433
7940.7128
28619.117
19354.757
13003.782
10263.572
5436.1559
3285.9369
2219.4151
1786.3962
2687.2828
4775.0347
7022.8224
11207.012
16361.486
23527.88
31862.346
57187.432
24999.569
11742.137
21135.811
17735.49
17812.825
18171.48
17697.172
17130.983
16443.841
16337.034
14324.096
15152.449
12625.58
14000.395
11885.4
13168.019
9719.0179
11989.168
9158.8321
9800.9052
9392.4385
8613.1888
8441.8301
7692.8374
7734.948
7484.3824
6961.1032
6962.5265
6517.9044
6268.1628
6187.0755
5945.0369
5836.2687
5635.2446
5951.4869
5317.351
5418.089
5253.1417
5193.9547
5143.3896
5092.5787
5046.0024
5015.1294
4991.0207
4972.3671
4957.7461
4955.1909
4949.7801
4958.5586
4963.7293
4984.63
5005.3316
5026.1684
5062.4228
5091.2599
5127.9759
5168.8953
5205.7374
5252.1784
5292.0109
5343.3859
5385.7465
5442.9054
5488.3754
5566.0272
5586.8487
5584.413
6593.7863
5585.2065
5954.6597
5888.8736
5978.3541
6045.6141
6104.0239
6159.7209
6224.9413
6295.3882
6334.7886
6430.9063
6453.8528
6572.4483
6583.5685
6719.4915
6713.8053
6859.6391
6853.3464
6981.2009
7022.1448
7135.4141
7220.1884
7363.2015
7545.8003
7936.1418
5389.8061
-1678561
-1577244.9
-1402595.3
-1688690.7
-1408014.9
-1695005.5
-1413765.9
-1594691.5
-1704380.6
-1601770.9
-1424859.6
-1716366.1
-1430964.2
-1725171.8
-1626674.4
8965.1309
8254.2797
10304.622
9929.4629
9985.3405
9725.0907
9620.7537
9495.6725
9291.9183
9228.4068
9081.1296
8949.4591
8876.9759
8682.7458
8595.629
8450.3471
8360.3584
8221.3553
8135.7509
7999.3277
7901.9492
7765.7064
7679.8614
7510.4406
7468.7194
7446.3399
7333.3977
6628.2106
7030.1649
6888.2878
6814.4809
6721.2466
6622.649
6540.9675
6450.5662
6370.7543
6287.6095
6207.6224
6130.2241
6051.3352
5976.4559
5899.6823
5830.2254
5754.39
5693.3368
5621.2086
5571.3846
5504.1639
5469.0434
5414.4763
5390.5136
5363.2699
5360.5816
5335.5545
5360.2769
5369.6558
5525.0318
5440.365
5340.8978
5647.1325
5769.4475
5405.8746
6030.6616
6158.2231
6250.3633
6410.4091
6614.5575
6792.936
7095.9228
7814.4833
7811.473
8460.6093
8433.9646
9530.5746
9521.6338
10230.373
10767.218
11321.066
12177.098
12523.539
13431.388
13747.715
15011.722
15111.867
16924.355
16200.366
17533.661
17405.971
18476.882
17633.787
18340.097
18912.804
19632.874
16746.304
35214.696
30146.639
28156.179
27170.802
27087.406
27565.288
27869.098
27589.381
27862.93
27755.835
27644.472
26576.812
26005.733
26449.214
26936.227
29098.127
24557.428
25661.861
24446.976
26251.016
26280.997
25802.45
27885.138
29978.251
28858.493
29097.858
27719.515
26630.856
26360.061
25997.172
29169.942
-783735.48
-784237.16
-783774.2
-783979.6
-783984.6
-784020.83
-784029.36
-784025.99
-783998.58
-784023.52
-784121.79
-784000.87
-784042.63
-784140.55
-784891.31
-1629669.8
-1630497.7
-1630565
-1630623.9
-1630467.8
-1630581.9
-1630571
-1630621.9
-1630648.7
-1630630
-1630696.9
-1630878
-1630559.7
-1631791.4
-1629663.8
24558.833
17631.423
16274.407
15635.112
15287.264
15177.237
14807.46
14706.811
14094.954
14036.017
13178.839
13013.811
12117.055
11989.471
10940.377
10794.827
9998.9437
9652.6744
8968.9339
8672.0742
8133.9248
7724.7639
7442.4169
6974.961
6736.9867
6375.8007
6174.8807
5871.6154
5665.7754
5501.5305
5216.6489
5131.6648
4999.6519
4881.7895
4846.6025
4628.8579
4646.9523
4474.6409
4484.6548
4431.0139
4460.3109
4353.5301
4419.6568
4398.3121
4387.4606
4429.2909
4430.931
4485.2631
4506.961
4578.1915
4622.2479
4696.921
4766.3858
4843.3936
4930.8296
5013.5727
5110.9585
5203.6936
5306.8535
5409.6333
5513.5827
5635.0181
5725.9285
5865.4134
5894.5952
6043.8102
6364.7107
6380.1712
6643.6349
6529.6826
6731.4081
6773.505
6972.7975
7044.5968
7207.2855
7268.1195
7479.1617
7468.7232
7730.2168
7721.4794
7898.7139
8043.2366
8208.671
8202.9525
8314.1887
8351.5613
8549.7517
8607.0505
9187.6494
8426.1584
9952.9641
9492.0532
9410.1214
12436.159
10475.625
15913.055
12420.63
12817.51
11829.406
11995.789
11530.638
11434.163
11127.452
10890.464
10581.843
10169.56
9893.5332
9430.3845
9074.4734
8555.313
8406.2536
7675.0177
7576.1827
7006.7973
6833.3732
6308.804
6182.9063
5700.572
5589.6215
5213.3441
5113.0714
4794.5836
4677.4256
4476.5038
4369.0778
4205.3667
4162.8037
3983.9984
3906.0215
3802.9552
3763.257
3785.0416
3784.9073
3720.0451
3736.0506
3700.7768
3715.8946
3770.8347
3739.5899
3788.8998
3864.6442
3894.8981
3979.3924
4050.7674
4141.0931
4225.8645
4330.7992
4434.9564
4542.3609
4661.3841
4778.8104
4902.7358
5028.4713
5159.5328
5289.9402
5422.7244
5568.3456
5689.0574
5856.6041
5952.2099
6359.6798
6257.7861
6666.5493
6718.3144
6917.949
7165.3384
7239.3248
7461.1375
7491.0491
7818.6163
7747.3032
8169.5738
7991.5934
8566.5416
8173.1772
8945.1183
8480.7408
9129.776
8686.0385
9622.3579
9327.5257
9948.6503
9840.4895
9837.7254
10390.181
10473.262
9936.5177
11602.466
10397.093
10602.197
10118.752
7918.7732
9110.3442
8562.3725
8783.1044
8340.5801
8222.3382
8121.4897
7841.4651
7706.6784
7363.3572
7289.4602
6816.0843
6733.8254
6310.7994
6132.8125
5751.1043
5623.5587
5188.2791
5073.2244
4761.4344
4595.2606
4368.2941
4204.8968
3996.6017
3857.3462
3693.1238
3582.4575
3453.0187
3347.2323
3260.3796
3158.9858
3116.3372
3076.0032
3055.3837
3021.4431
2903.9999
2741.2706
2837.3429
2819.2117
2856.2087
2916.6099
2917.6672
3008.0016
3086.8526
3161.7423
3228.1855
3344.8925
3435.3797
3543.7491
3670.5222
3784.948
3925.3048
4049.6242
4201.129
4333.863
4488.0386
4631.096
4786.6769
4934.204
5092.3763
5248.256
5398.3409
5564.0854
5741.558
5792.9998
6390.8899
6224.4757
6451.1193
6494.6149
6640.0828
6699.4324
6893.0019
7037.0045
7179.2753
7313.7753
7473.0073
7617.6968
7746.5424
7880.4131
8114.987
8078.6452
8370.6416
8520.0359
8676.5133
8696.8548
9014.3939
8671.8962
9659.2507
9090.0235
9573.7814
10010.888
9872.9909
10314.186
10278.856
6360.3456
4932.5879
5686.1808
5792.7619
5912.4485
5757.6786
5761.4759
5675.8243
5403.5225
5385.4825
5147.7504
5063.4485
4733.6583
4776.2927
4292.6144
4413.542
3912.9589
3995.1714
3564.3508
3642.6476
3212.6546
3282.6095
2905.1804
2946.9351
2660.8106
2674.8961
2458.8516
2460.6283
2284.5646
2307.2523
2164.2598
2181.0525
2115.8431
2083.7414
2080.5611
2024.5201
2102.2041
2422.0545
2406.5519
2458.7882
2507.8006
2564.1121
2639.724
2712.9667
2788.2502
2876.7015
2986.7158
3101.771
3210.6738
3345.8135
3475.289
3610.1238
3758.0519
3897.4617
4053.2313
4198.8263
4357.713
4508.1384
4666.6984
4823.1204
4976.2712
5143.5111
5281.6186
5465.4397
5583.4932
5802.0806
5860.7545
6068.8211
6306.3583
6365.8826
6683.3131
6854.6954
6889.0557
6970.019
7236.0063
7304.6556
7648.4571
7587.7377
8068.2363
7918.0342
8466.0472
8158.5163
9064.1415
8353.4949
9148.9622
8821.5783
9380.8059
9530.409
9877.0351
9454.789
10784.982
9567.5697
11188.9
9958.0136
11271.983
4006.9746
2517.4403
3458.9753
3299.8735
3738.4436
3542.1058
3699.6827
3496.1903
3500.5913
3458.088
3311.3596
3274.8547
3137.139
3090.0654
2885.6743
2912.3411
2623.8333
2689.6396
2385.9118
2431.6564
2168.861
2231.4614
1984.4166
2068.5125
1835.4682
1888.609
1743.1013
1731.1001
1661.6093
1642.2113
1598.4493
1611.9858
1567.7018
1605.5296
1593.2117
1599.3749
1796.1739
1473.7658
1626.1312
1687.145
1788.2644
1817.6925
1913.4351
2011.4654
2121.6587
2230.2245
2364.9761
2477.1404
2623.9123
2760.7148
2916.9361
3060.6448
3235.3087
3383.9992
3563.7481
3723.4311
3903.2344
4069.6356
4248.1524
4418.2804
4600.7383
4764.9229
4941.4422
5142.2135
5275.0041
5464.3475
5744.3975
5735.882
6015.4019
6108.8
6406.4047
6428.4581
6791.624
7288.0184
7315.011
7631.1083
7648.2075
7982.5827
8035.1294
8267.6524
8375.6869
8701.0425
8593.102
8991.5425
9129.4764
9071.5515
9610.8475
9180.6932
9620.6933
9688.4699
9962.5152
9881.7735
10488.871
9967.1783
11239.188
2171.893
1269.0155
1681.2271
1722.4711
1942.9128
2060.8755
2012.9598
2120.6857
2029.5079
2083.5348
1948.5153
2056.9462
1828.2095
1975.1628
1702.9662
1847.2282
1559.4183
1726.169
1424.1594
1598.9347
1308.8847
1459.0938
1191.6195
1308.6397
1066.4674
1213.0775
977.05758
1117.9791
958.30005
1040.5732
962.08972
989.83471
976.7201
1006.7103
996.93038
1103.9126
997.1545
1529.8568
1368.3936
1471.841
1520.6003
1618.0307
1686.1086
1827.2274
1918.2299
2042.1127
2154.5564
2298.525
2432.1605
2585.7114
2734.3937
2896.3161
3055.7526
3222.4597
3388.9489
3559.433
3728.7477
3895.8372
4074.0371
4239.9015
4398.1391
4594.7285
4739.6057
4898.4694
5097.1045
5250.1699
5399.6032
5581.5816
5811.4493
5956.4344
6059.6318
6329.4839
6456.8616
6157.1062
6523.071
6601.5419
6895.9509
6945.2718
7294.29
7203.1439
7846.2368
7344.005
8326.7881
7776.5465
8537.8317
8353.7
8951.784
8732.7834
9769.4234
9178.5208
10321.083
9388.8669
10977.671
9670.9255
11568.804
1361.06
222.24122
799.34617
523.98693
928.44561
837.91962
1030.2031
990.09138
1073.1761
1057.3738
1095.7707
1087.0495
1071.5874
1109.1351
996.40048
1093.4815
925.07082
1015.1509
819.96587
936.31338
715.57544
865.73903
614.45466
776.44966
602.82339
681.27474
572.90024
642.54883
540.41065
626.23288
551.74872
634.06359
625.8515
660.28025
715.51423
730.30286
832.31955
799.51408
907.3758
994.17703
1106.8945
1226.382
1331.3125
1468.7082
1591.0034
1725.1832
1898.9743
2042.4224
2222.8736
2383.3355
2578.0191
2745.6399
2950.8145
3128.8945
3336.3062
3521.3217
3728.9778
3920.842
4128.0137
4308.5917
4534.7279
4713.1797
4905.0415
5139.3454
5305.3209
5527.2645
5709.2863
5941.4623
6120.506
6260.5272
6643.0065
6653.144
6895.7834
7231.0198
7411.9781
7729.9097
7766.4211
8121.7238
8145.7014
8561.272
8489.7232
8905.1183
9062.1064
9003.7163
9665.2094
9208.6732
9952.3306
9554.4709
10130.285
9540.4284
10337.147
9876.7691
10839.797
9763.699
11943.94
824.28624
-1.0211654
184.05184
191.58777
320.31159
445.88295
522.62873
615.93783
658.02073
745.6184
721.66451
835.48284
754.11021
856.68922
751.4477
855.02843
710.32809
834.01812
683.17565
779.30875
592.78882
674.0816
509.00599
679.92956
421.77858
625.96874
425.44602
566.89756
447.01817
549.21984
476.52321
567.89265
515.7787
600.39701
607.96402
675.58865
717.41417
832.26789
869.69476
988.77974
1037.5541
1145.0502
1236.9152
1364.1278
1457.4
1615.2466
1732.835
1889.9271
2030.6501
2200.2698
2351.8985
2526.1467
2694.5366
2864.5184
3042.2661
3211.6026
3393.9983
3560.7715
3735.7501
3913.4829
4084.3608
4240.6837
4435.8456
4586.3639
4748.435
4923.7251
5091.5754
5262.1565
5383.3101
5661.7294
5676.6799
5910.2192
6125.7287
6144.4894
6287.5457
6359.6174
6603.4135
6716.544
6985.7429
6994.9169
7392.2032
7319.4512
7731.7286
7629.7762
8170.1771
7896.2192
8690.4624
8310.6988
9176.6692
8908.3535
10186.31
9135.8057
10726.198
9540.6999
11834.649
1065.8513
42.188334
397.37298
141.35934
334.75677
331.59499
497.55368
435.44017
578.82591
530.39038
615.39308
594.39448
612.62269
626.54802
580.36655
610.1525
531.48127
549.0316
455.31001
491.6031
428.6046
566.24471
457.28228
460.93997
381.21691
438.60373
317.82786
400.84108
295.7257
379.14361
320.65614
384.88072
371.39528
455.96668
432.04201
548.36925
543.00693
658.40702
695.39534
777.90546
878.57878
983.22531
1124.9348
1233.3247
1404.3023
1526.4384
1705.2131
1847.5333
2037.0271
2196.5071
2395.6157
2569.945
2772.4355
2959.0088
3163.0513
3356.102
3563.9563
3748.3479
3969.8142
4152.1264
4354.1379
4560.8575
4754.7603
4946.9551
5152.3384
5374.7152
5546.3921
5745.4192
6000.174
6129.6276
6382.6103
6628.3585
6716.7427
7043.4309
7339.524
7617.153
7761.3829
8050.7785
8066.4884
8526.0383
8418.543
8865.611
8923.912
9070.7946
9528.7879
9205.9957
10056.914
9400.9795
10307.689
9796.4142
10155.588
9815.8405
10892.32
9785.4777
12057.282
2010.158
808.57992
1190.739
905.31936
1217.0292
1238.9698
1377.5961
1365.7701
1458.601
1541.4923
1494.7518
1584.1782
1543.3632
1555.676
1517.5457
1500.4918
1450.8948
1415.0929
1377.5172
1302.7583
1257.5452
1110.9342
902.01057
961.81137
836.78363
886.39314
764.7237
846.16732
731.20344
816.70979
726.47056
796.13592
776.89063
793.19677
850.24078
868.16663
927.07122
1003.6894
1032.8962
1168.5456
1226.6606
1353.4421
1418.3762
1565.0796
1645.5463
1801.0877
1919.8767
2079.8596
2217.6572
2387.6008
2541.8752
2707.4044
2878.9291
3045.1334
3216.747
3389.8954
3555.9269
3727.7675
3904.9747
4050.5473
4242.8724
4394.7129
4552.9306
4726.741
4888.3254
5033.8552
5181.3727
5403.1353
5487.8768
5700.9991
5857.7495
5970.1756
6183.4046
6346.2394
6528.1917
6660.1622
6867.4326
6950.5003
7297.3434
7282.2598
7599.4812
7740.2909
7825.0587
8180.2504
8151.8065
8432.8109
8688.3134
8565.5426
9365.9951
8691.0013
10067.689
9459.4109
10462.173
9742.1314
12008.021
2372.8653
1618.4931
1857.608
1630.7195
2005.7269
1863.2255
1987.6284
1882.1218
2031.8894
1942.451
1928.5188
1918.4636
1874.7382
1773.9821
1795.0596
1583.0626
1687.0889
1372.6764
1516.8495
1184.1363
1373.7813
1133.8665
1261.4695
1195.012
1159.9938
1050.0331
1033.407
952.64458
905.27371
891.41452
828.55135
888.08374
801.4175
909.30427
831.01644
925.72801
924.87608
982.19089
1059.1419
1099.6014
1209.2596
1257.5157
1405.4184
1486.194
1643.2831
1752.1636
1920.6601
2042.9782
2221.4246
2370.1836
2547.6813
2714.0399
2901.9798
3072.7191
3265.6028
3444.1794
3633.2871
3822.5225
4003.7172
4191.0581
4391.9634
4551.6427
4761.4435
4946.6849
5123.7649
5326.766
5544.5879
5692.5205
5899.3704
6121.3566
6260.3465
6540.0619
6676.3357
6891.0094
7379.2427
7461.1472
7584.8951
7929.7088
7923.0165
8309.4848
8377.1251
8642.6129
8828.7222
9030.5596
9206.9443
9479.519
9636.4206
9811.237
10171.843
10095.021
10631.314
10064.275
10848.232
10418.491
11631.78
5881.4258
3195.7354
3910.7312
3733.6666
4026.6411
3833.6457
3987.112
3878.4768
3904.7029
3847.6479
3777.338
3699.9331
3668.3556
3472.5301
3416.7412
3279.3529
3125.4202
3003.8666
2856.703
2732.4244
2532.1539
2548.9627
2494.8798
2384.9798
2281.2023
2177.232
2091.3356
2029.8049
1966.0175
1900.6831
1880.8957
1799.1691
1813.3378
1759.2367
1783.6962
1808.0824
1792.286
1880.7424
1862.2644
1977.7127
1986.2
2122.3578
2153.2822
2292.6459
2356.8424
2491.4709
2597.0738
2730.6728
2864.0494
3003.9119
3149.6607
3297.119
3451.0219
3600.9797
3758.3541
3908.512
4069.7063
4214.1113
4371.4527
4526.6328
4666.3002
4822.2317
4975.2395
5113.3294
5252.3116
5417.2749
5525.5512
5702.2326
5858.6273
5989.7813
6163.4926
6279.1604
6458.3845
6604.6721
6668.5986
6766.487
6944.9373
7057.7173
7259.0167
7380.8597
7512.3682
7721.2
7748.6081
8038.1515
7962.476
8399.0618
8099.9114
8673.1762
8507.6995
8627.6384
9152.5369
8884.8527
10066.224
9601.0356
11688.038
9387.7823
7109.6193
7284.1992
6865.3366
6762.8356
6499.7211
6594.6857
6166.4525
6294.209
5964.0249
5861.5703
5682.9769
5394.0366
5208.2347
4978.3216
4672.2226
4546.5624
4154.0781
4106.6801
3638.0392
3659.6092
3198.3671
3173.9337
2746.1135
2891.5935
2453.6645
2534.4252
2240.9505
2203.8539
2084.0349
1987.8106
1970.4615
1875.6185
1874.5903
1819.254
1801.6574
1819.2416
1797.8197
1870.7672
1846.2729
1956.3825
1963.5751
2075.8941
2133.6193
2249.0833
2335.7136
2469.8949
2571.1854
2715.9339
2839.8007
2988.259
3126.9529
3283.285
3429.7919
3587.2727
3745.4305
3900.5608
4058.0002
4225.0793
4373.9704
4540.9918
4702.9347
4861.2803
5025.2596
5198.7713
5373.95
5544.9142
5716.3023
5869.9429
6078.7125
6195.588
6471.0106
6554.0927
6810.9849
6982.8789
7227.9301
7346.35
7604.1319
7701.7629
7939.0048
8119.6455
8285.7358
8510.5418
8671.8035
8915.3092
9075.2459
9238.3606
9739.0421
9365.9805
10345.527
9958.1854
10358.055
10455.666
10444.441
11487.696
14602.998
10778.195
10845.545
9885.3083
10365.637
9983.5424
9921.6141
9792.0419
9709.7846
9377.4131
9208.2372
8780.6804
8606.8621
8123.5902
7891.6001
7394.4094
7154.4212
6651.0266
6573.7206
6002.4557
5972.2428
5422.137
5313.4085
4862.2031
4761.9867
4405.6495
4410.1277
4068.2075
4068.8227
3804.2041
3798.8129
3601.1271
3578.485
3490.2895
3438.7134
3400.3413
3332.6111
3378.1834
3300.5942
3382.7899
3349.9595
3429.1319
3438.7803
3519.2636
3565.2276
3648.2409
3727.7577
3814.9561
3917.7828
4017.2454
4130.5254
4239.9575
4363.7008
4475.9282
4605.3773
4723.123
4848.7778
4974.5694
5095.3867
5223.601
5343.2725
5476.7667
5587.0182
5731.9376
5832.5197
5991.4343
6096.7711
6266.1862
6374.1608
6479.1994
6667.9899
6732.3764
6921.7532
7028.8247
7186.253
7281.8853
7444.3984
7576.5701
7687.314
7895.7686
7937.1008
8168.18
8198.229
8441.237
8430.352
8670.9761
8733.0829
8844.2734
8840.9254
9399.6646
8649.7894
9697.2838
9234.6189
9142.5596
10824.87
18486.417
13515.8
13585.456
12199.395
13076.351
11989.235
12315.889
11961.351
11678.879
11435.266
10831.383
10566.782
10107.685
9420.8026
9304.3383
8263.2376
8372.7359
7270.8313
7550.4937
6445.3264
6895.754
5634.8748
6097.8214
4885.0333
5276.851
4468.5102
4670.841
4215.043
4218.9809
4062.242
3916.7198
3804.8175
3692.3303
3574.0849
3507.2293
3422.8353
3525.49
3381.9853
3487.5644
3410.1914
3489.5023
3482.9223
3554.407
3596.3333
3676.8408
3746.0079
3844.2119
3932.4371
4042.5566
4151.0212
4264.3651
4385.8503
4507.927
4630.8815
4759.1072
4886.5963
5016.943
5144.4428
5281.5434
5407.1446
5550.4249
5678.222
5825.938
5960.1215
6107.1535
6241.9469
6352.8593
6497.1315
6609.2716
6934.1591
6937.5769
7236.7991
7280.2459
7520.7085
7606.8654
7828.1019
7929.8494
8110.9083
8267.3824
8393.362
8554.263
8708.0203
8849.1609
8999.1937
9160.5454
9353.5708
9424.7194
9734.5248
9879.7501
10041.096
10314.855
11015.15
10446.691
11709.854
12523.078
15345.855
14589.586
12113.921
11654.321
11367.558
11349.655
11137.162
11204.62
11256.088
11312.179
11114.027
11032.465
11998.514
12754.079
15580.06
11246.982
9156.1922
7856.9591
7766.4436
7150.552
7083.0174
6830.8526
6892.132
7048.0929
6882.5797
6979.7968
7180.4008
7650.9892
8747.4743
10710.687
7110.7644
5352.3686
3870.8786
3593.0001
3169.294
3044.5929
2992.2468
2861.6038
2899.4118
2916.1121
3097.9621
3173.8088
3673.0239
4884.3765
6491.926
4715.9926
3696.6013
2834.4657
2387.3419
2250.4961
2094.3355
2063.6183
1957.9788
2062.0311
2073.6238
2185.3584
2280.8449
2874.4443
3570.8537
4236.9138
2789.899
2112.3984
1347.6728
1146.4498
934.24041
872.25478
815.04666
788.73792
777.44603
815.36184
859.95647
1038.8106
1344.1689
1743.7577
2695.2585
2082.0863
1380.0911
931.41542
829.35167
694.81075
643.9865
604.84302
594.61307
600.77245
605.76701
685.09388
713.00945
892.02033
1206.0692
1824.5738
1067.6786
716.07429
472.97159
328.54175
293.90647
227.69427
209.67106
174.98247
175.95311
188.89067
201.13782
281.14026
391.80403
650.23362
1088.3852
930.37881
568.18483
352.15273
309.48281
240.03342
223.26784
205.98659
197.46421
222.48718
218.0448
260.9518
290.23308
395.366
552.59935
1010.8836
959.46908
657.37462
403.21347
330.78902
256.00768
216.75508
203.85102
212.87346
203.14667
248.21522
260.04409
353.10355
442.37631
758.60958
1069.6618
1670.2663
1232.9596
783.39422
695.57967
552.94818
537.25087
514.405
510.1367
521.88518
531.72458
686.21443
657.91606
990.47827
1457.6595
2043.1364
2261.7797
1876.099
1155.6466
1061.0104
827.10414
846.26932
758.17933
808.8645
792.60065
892.54162
998.96814
1178.8911
1587.7274
2200.7947
2874.3893
4253.8674
2919.8657
2247.4662
1850.6407
1687.5349
1506.9
1503.6112
1462.7569
1533.5865
1630.8762
1833.2159
1855.5078
2630.4665
3536.3944
4754.0559
5821.3113
5121.0607
3658.0093
3413.5508
2919.3972
2968.8268
2732.0649
2911.3711
2953.1779
2916.8433
3263.1251
3403.5045
4146.6726
5624.5942
6544.2507
10075.127
8202.7704
6617.4227
6176.4441
5704.2177
5578.6542
5765.6528
5893.7914
5809.4684
5771.3134
5865.951
6157.69
6905.7092
8212.638
11013.134
13595.496
14563.764
11105.256
10863.104
10068.789
9486.8141
10232.787
10951.6
10016.143
10741.359
10395.601
10839.24
11843.893
13687.909
16765.742
36042.183
32090.651
31589.992
33209.862
34171.606
33820.209
35882.669
37811.714
38027.49
37975.646
37010.191
35280.049
34937.657
35900.074
34255.149
25409.224
21048.139
21451.709
20488.333
19535.506
20905.363
20571.337
21001.975
22734.196
20735.612
21286.652
20350.858
21984.572
24226.09
27181.931
19603.161
20871.035
19235.547
19089.733
20067.625
17468.879
17493.482
17873.81
16266.515
18997.653
18446.259
21272.608
21218.771
20434.344
21873.085
17594.076
20363.858
20144.606
18470.939
18441.387
18475.145
18086.652
18553.05
18632.094
18266.901
19430.01
19847.409
20325.555
21520.37
19202.445
19940.374
20598.068
20419.743
21898.379
20692.244
20829.276
21250.226
20872.085
21442.854
22238.307
21895.739
22557.77
22173.486
21248.543
21244.257
17034.969
18970.638
18875.504
18989.549
19343.927
19242.724
18898.528
18938.026
18992.962
18854.335
19614.236
19730.663
19417.601
19931.955
18033.787
17825.788
19145.486
19446.986
20152.152
19751.91
20217.145
20346.539
20371.164
20622.844
20784.759
20366.78
20670.483
20250.666
19133.203
19616.98
17257.59
17515.242
18003.479
18485.661
19018.946
18725.766
18896.334
19138.096
18848.65
19419.935
19314.809
19088.317
19134.019
17881.148
17576.093
16386.363
17330.574
17849.399
18534.208
18185.988
18754.272
18750.329
18785.454
19031.377
18676.162
18695.176
18380.709
18127.934
17566.5
17653.298
16125.104
15915.845
16440.526
16638.244
17023.92
16954.108
17144.897
17261.374
16792.948
17662.218
16928.505
17449.742
16781.646
16579.605
16506.403
15085.933
15655.07
16051.74
16581.258
16655.426
17100.061
17134.387
17175.413
17594.765
16917.021
17588.35
16839.908
16924.106
16405.474
16465.643
14832.907
14373.715
14848.472
15079.153
15208.776
15280.496
15303.441
15319.331
15075.042
15411.82
14954.813
15129.602
14836.247
14558.654
15035.833
13838.978
14085.012
14116.367
14603.284
14668.948
14958.312
15125.676
15124.41
15506.72
15265.931
15474.889
15161.593
15067.246
14974.409
14795.28
13244.223
13146.32
13508.982
13407.361
13638.752
13829.876
13675.73
13678.593
13351.217
13396.976
13106.07
13240.609
12984.873
12804.82
13503.733
12701.457
12336.191
12611.365
13025.393
13209.571
13035.342
13309.403
13221.269
13726.202
13653.599
14017.034
13763.053
13733.547
13845.932
13692.037
11784.519
11890.551
12113.102
12235.053
11796.653
12498.709
12294.965
12228.914
11776.241
11832.626
11406.473
11562.057
11153.611
11217.235
11894.091
11528.878
10942.591
11301.77
11193.745
11908.168
11527.093
11725.481
11526.329
12119.75
11939.839
12450.269
12162.355
12546.334
12045.115
12803.432
10599.458
10624.821
10607.747
10739.114
10513.291
11006.371
10759.328
10995.766
10628.412
10743.92
10320.449
10266.987
10216.978
10044.67
10514.082
10431.88
9922.977
10346.94
10231.698
10371.803
10088.604
10507.475
10188.578
10577.899
10381.868
10556.8
10688.894
10889.864
11091.126
11551.616
9418.4532
9364.4967
9319.5936
9578.2444
9455.3151
9952.9796
9566.565
9757.9491
9678.1119
9705.2109
9577.4459
9659.5575
9437.3147
9238.6774
9650.1017
9534.3366
8830.4926
9303.2029
8966.445
9226.5794
8887.7045
9420.0842
9148.1153
9371.6852
9027.9623
9332.471
9234.095
9810.5205
9687.6592
10286.641
8440.7203
8555.5164
8438.9816
8787.7388
8470.2427
9066.3155
8513.0628
8905.9022
8511.3142
9116.9159
8737.0087
8971.0647
8593.9402
8227.9871
9342.2735
8771.1276
7750.4124
8354.1566
7948.078
8354.1896
8066.8972
8436.9362
8124.8279
8596.1848
8125.6304
8253.6447
8093.5984
8239.3051
8402.1884
8788.2613
7698.0941
7842.7963
7661.802
8036.1521
7688.0455
7817.94
7643.5401
7803.9869
7756.9977
7858.2716
7886.8181
8080.0658
8221.0543
7893.0877
8657.0002
8075.2789
7171.0171
7327.5441
7192.243
7595.2085
7297.2989
7804.231
7472.5902
7673.661
7508.4369
7581.1302
7563.6494
7424.3905
7443.0088
8050.0801
6931.9758
7024.6267
7058.7089
7225.2579
6996.6367
7334.9041
7024.3072
7184.3752
7118.2434
7149.6767
7220.645
7234.5099
7547.449
7486.0991
7828.2073
7138.4249
6772.5344
6944.4304
6752.9775
7108.4937
6815.5763
7080.2963
6952.0677
7038.7245
6996.743
7047.0058
6773.8772
6940.2631
6706.2763
7565.8609
6519.3345
6387.3963
6272.0312
6686.126
6441.7933
6485.9403
6540.8572
6498.5018
6678.0216
6540.1616
6752.3677
6712.402
6752.426
6933.8103
7130.1587
6504.2675
6307.586
6482.7022
6151.5853
6376.429
6334.9621
6449.2372
6361.8564
6446.7378
6390.1265
6464.0336
6514.6312
6510.0506
6170.7484
7136.0206
6221.6283
5824.7193
5990.251
6083.262
6104.3717
6016.6754
6149.1351
6062.7406
6158.4412
5995.8966
6108.3514
6022.7392
6251.4153
6326.7843
6697.0924
6177.5809
5920.7734
6177.2505
5997.0807
6050.3552
5943.582
6009.0368
5878.0886
6076.9984
6059.5628
6132.5928
6023.8801
6141.9411
5851.4638
6545.1029
6088.8633
5732.9136
5801.0005
5767.3356
5886.1732
5805.0412
5875.6726
5834.22
5858.142
5798.8165
5783.7325
5854.9165
5880.7988
5833.3475
6458.6639
5926.7493
5483.5617
5750.7025
5653.7123
5797.7717
5629.9527
5831.4754
5605.1827
5817.2052
5636.8761
5845.4365
5682.6333
5811.6747
5668.542
6244.1769
5792.1553
5448.9724
5624.7507
5539.2981
5588.0017
5555.481
5586.4619
5580.058
5569.9663
5584.1709
5544.1917
5586.157
5617.3476
5546.219
6058.551
5689.8304
5277.274
5569.2084
5404.1292
5547.335
5437.3352
5572.8689
5468.91
5577.8709
5493.623
5591.5117
5552.8952
5615.6725
5620.627
5951.2217
5384.1133
5330.9636
5281.2025
5255.5118
5234.6627
5249.4575
5330.4804
5256.6042
5408.2577
5213.6734
5349.5178
5254.2901
5425.3688
5137.4019
6009.2962
5428.4529
4894.0508
5243.4741
5061.6747
5337.1503
5065.4113
5316.7083
5088.5705
5244.2421
5270.9464
5255.7163
5300.1317
5191.95
5297.6872
5650.3027
5330.748
5231.644
5282.8114
5316.7347
5196.9649
5257.6721
5217.7734
5210.3832
5254.0261
5123.4334
5257.2099
5084.8342
5348.2796
5042.4383
5661.6886
5519.8781
4950.0429
5248.8678
5022.7238
5300.0926
5041.5957
5275.1322
5079.1108
5189.7996
5114.9845
5126.7179
5196.0917
5154.1665
5038.228
5650.1978
5287.7691
4996.1459
5134.8432
5135.4287
5129.6374
5081.6221
5159.708
5022.9013
5170.7167
4985.7301
5149.976
4993.5896
5112.704
4992.8677
5524.3054
5375.9466
4914.2505
5202.4653
4990.295
5190.862
4994.3263
5151.6415
5023.16
5091.3793
5033.7283
5060.1818
5014.2195
5112.0902
4912.0844
5487.9538
5281.0814
4941.5093
5096.4087
5036.9546
5124.1614
4983.6705
5143.2226
4940.363
5108.0653
4941.1749
5028.1848
4983.6643
5027.1859
4890.7679
5458.6517
5344.5361
4879.0969
5165.6333
4990.9628
5132.2514
4975.6285
5100.0987
4971.3192
5065.6056
4944.8582
5037.4324
4940.3475
5029.692
4862.1306
5420.9587
5289.2807
4920.7966
5124.6215
4988.1534
5117.8362
4936.1341
5113.2261
4928.251
5047.3595
4939.4969
4979.5001
4941.1366
4997.1689
4837.3182
5400.5537
5352.3109
4897.9333
5161.9653
5005.982
5122.3622
4966.8668
5116.3578
4943.0744
5072.0006
4926.9959
5005.6685
4936.6634
4992.0999
4833.4739
5389.4521
5341.7531
4923.0686
5175.2008
4996.317
5126.8996
4950.9134
5110.7797
4946.4285
5041.9871
4943.2951
4982.3737
4934.7457
4984.5616
4828.6767
5381.9833
5383.697
4941.6556
5196.1763
5028.8425
5157.2778
4980.0934
5155.4751
4957.1106
5085.9614
4956.841
5000.2602
4954.9269
4988.8206
4832.5253
5376.9471
5418.2362
4964.2295
5234.4057
5050.0532
5162.8291
4985.4246
5140.4756
4969.1809
5074.4097
4962.6573
5001.9523
4962.8387
4990.8051
4848.097
5387.1097
5446.3745
4998.1926
5264.9764
5069.8867
5206.882
5020.3851
5208.0764
5009.358
5123.8419
5005.4918
5037.1979
4992.1865
5014.0837
4866.1211
5392.1452
5503.4346
5039.7735
5304.2016
5119.8113
5237.8635
5046.6519
5206.08
5010.6256
5123.4965
5011.1391
5042.125
5006.8784
5029.6485
4885.7084
5413.2298
5543.1964
5073.1645
5354.4579
5146.4258
5277.5597
5081.9732
5270.0789
5075.3221
5190.0227
5069.6258
5096.9487
5053.095
5065.4028
4919.8247
5431.5555
5598.9438
5134.8057
5398.8769
5197.0427
5329.2719
5131.0305
5299.9724
5089.8667
5198.2967
5083.5348
5113.1926
5072.2305
5093.1726
4949.8509
5461.9813
5658.7599
5173.9003
5453.3947
5244.1131
5375.2555
5167.1852
5350.2867
5150.4429
5270.0647
5151.0155
5175.4902
5130.0049
5143.7703
4993.4545
5495.4537
5714.6938
5238.4842
5513.98
5295.9523
5430.104
5226.4849