/*--------------------------------*- C++ -*----------------------------------*\
  =========                 |
  \\      /  F ield         | OpenFOAM: The Open Source CFD Toolbox
   \\    /   O peration     | Website:  https://openfoam.org
    \\  /    A nd           | Version:  6
     \\/     M anipulation  |
\*---------------------------------------------------------------------------*/
FoamFile
{
    version     2.0;
    format      ascii;
    class       pointScalarField;
    location    "0.29";
    object      E;
}
// * * * * * * * * * * * * * * * * * * * * * * * * * * * * * * * * * * * * * //

dimensions      [1 -1 -2 0 0 0 0];

internalField   nonuniform List<scalar> 
3969
(
31128.446
33767.429
8124.016
-209.65824
33192.596
35087.379
444.33913
7014.7008
14718.894
5791.1883
1973.5602
2104.6436
5833.7799
14328.738
29466.071
6214.3222
3448.3846
3535.895
4851.4775
6327.326
6918.9726
6459.0872
30815.304
25436.613
25718.07
25794.595
25297.343
24730.953
23590.816
22634.733
21405.335
20283.631
19327.529
18382.999
17462.37
16655.014
15858.66
15080.897
14412.339
13705.013
13058.633
12267.364
11495.234
10620.635
9770.3242
8887.8372
7926.892
6945.6088
5734.1086
4571.3185
3361.4777
2093.7599
831.41484
-427.67417
-1647.7855
-2768.4648
-3727.2898
-4417.3574
-4978.4117
-5382.0822
-5524.9655
-5506.9964
-5024.2692
-4636.9834
-3393.8034
-2623.7284
-750.70563
460.13269
4682.7256
33565.736
24964.821
28310.978
27191.628
27010.891
25673.33
24514.923
23038.853
21490.501
19933.82
18317.682
16892.511
15451.43
14286.557
13086.877
12108.321
11236.708
10363.447
9737.1781
9045.9337
8605.4478
8292.6799
7892.0584
7794.8724
7748.5671
7983.6027
7838.4475
8210.2066
8502.3079
8779.5017
9353.0753
9685.2772
10348.074
10824.478
11444.727
12094.178
12391.572
12587.055
12913.627
12659.31
12479.817
11736.081
10982.653
9838.5289
8852.5157
7494.8406
5154.4297
16597.77
6888.3553
2392.5836
3217.3983
5060.1152
12152.257
24141.472
48402.526
33900.26
25414.885
32678.727
28179.948
28409.625
26722.592
24355.359
23463.56
21203.538
20516.116
19538.948
18675.217
17295.897
16140.847
15196.99
14070.942
13414.124
12619.524
12067.986
11558.726
11174.987
10860.071
10549.354
10317.94
10027.405
9404.6449
9117.2571
9085.0853
9024.4515
9172.9272
9540.0953
9801.9844
10173.908
10232.638
10025.341
10973.512
10479.308
9900.7694
9428.746
8785.1173
8164.9549
7353.0684
6547.3436
5717.6903
4559.0555
5387.6862
6940.7504
6822.7847
7179.8254
5830.6104
4260.4874
2978.6829
6099.0929
4842.635
3674.1612
3093.1993
1870.1947
842.6476
24.478335
-588.403
-1040.0422
-1266.1621
-1149.8356
-937.13457
-1186.6055
-1179.4718
-397.42053
39.903237
671.12612
1366.476
2241.7149
3132.5196
4185.1172
5192.3967
6312.8206
7349.6802
8303.1239
9219.2579
10034.581
10827.639
11564.675
12341.059
13070.741
13948.099
14828.825
15971.316
16535.411
17913.067
19192.653
20664.865
21776.515
22723.185
23821.731
25726.75
25985.264
27831.168
27612.836
26791.204
27419.719
36420.115
20613.709
21674.126
21397.052
21593.151
21625.296
21499.463
23155.006
21782.66
22951.933
24944.713
25900.008
25542.085
26403.011
22237.592
-8.3970612
244.20021
218.89247
272.78306
228.10972
300.22401
323.81618
8132.7787
8072.0697
8080.6146
8107.9923
8076.3305
8095.7102
7876.9303
18464.545
15635.534
16141.554
16022.405
16277.709
15993.569
15649.463
15183.157
14620.014
14175.637
13634.618
12989.079
12466.246
11851.153
11304.001
10933.478
10605.006
10233.381
9893.8944
9473.2217
9032.7768
8546.7807
8048.6264
7424.9936
6712.6712
6011.6544
5242.3867
4596.1869
4112.2876
3635.3754
3232.8766
2853.6678
2488.5871
2223.3117
2115.0919
1972.5923
2054.2124
2091.3828
2437.9248
2783.7141
3266.6993
3897.7607
4536.5264
5042.3471
6010.8787
6197.8244
7758.008
7916.8111
6915.1952
7686.906
7619.9457
7704.9607
7726.5013
7451.564
7415.5745
7112.4211
6954.1432
6706.4974
6501.422
6355.1792
6234.0007
6135.0482
5975.726
5847.6648
5689.7462
5540.1164
5371.1628
5236.5175
5113.2525
4927.5299
4804.7175
4654.6844
4396.4164
4116.2994
3868.822
3652.2234
3488.5265
3408.186
3356.539
3385.0365
3552.3843
3718.0774
4009.3044
4413.9662
4638.2283
5125.7214
5317.8766
5936.6651
6042.4603
6711.8292
6672.9384
7439.4257
6703.255
7055.9715
2939.1823
1519.5437
2444.3905
2001.6871
2362.6677
2262.9979
2338.9726
2270.3501
2186.9024
2278.7143
2248.638
2210.3047
2197.7425
2060.9243
2055.497
2076.5671
2139.2319
2153.2422
2200.9515
2126.6955
2026.8158
1920.0661
1953.9706
2031.1468
2008.8937
2082.2663
2323.5019
2505.7101
2816.5088
3166.8093
3547.5964
3980.2269
4457.7679
4972.8855
5559.467
6160.529
6758.7531
7357.0837
7972.6252
8264.7558
8521.5318
8507.8482
8580.371
8055.296
8095.064
6690.2124
6247.1808
2017.3497
474.36816
763.1786
755.36439
810.01345
891.34232
832.69742
1014.2364
924.11742
946.0527
989.208
1033.0751
1101.7597
1110.7844
1172.1145
1268.2193
1381.6205
1551.3201
1651.3781
1809.2032
2102.7103
2490.9539
2878.9246
3174.0336
3499.8906
3835.6619
3987.7115
4196.6088
4448.0243
4698.8846
4988.3386
5321.4115
5603.5564
6003.3783
6284.3632
6582.0328
6904.4825
7023.9149
7190.0239
7157.7835
7275.2752
6889.7411
6885.799
6289.1779
6489.8839
5222.7078
5515.1649
5656.6403
3365.7405
3594.8177
3205.7554
3175.9415
3171.3743
2885.1073
2819.0631
2577.6199
2553.8844
2479.6475
2302.7852
2145.1024
2008.1856
1939.7854
1834.8417
1844.1135
1815.4544
1847.5146
1864.0477
2159.6775
2081.763
2100.2002
2111.5352
2113.9991
1952.2166
1872.1446
1791.8983
1709.0731
1591.487
1503.125
1414.8741
1281.8694
1235.8296
1081.6883
1105.9408
1080.5953
1057.8137
2514.0215
4722.3063
4620.3844
4595.9294
4497.8667
4390.6476
4263.9692
3643.7905
5278.3198
13657.535
11403.072
11377.516
11232.165
11327.863
11040.775
10672.008
10192.508
9623.1882
9112.2855
8602.3817
8121.5097
7558.8124
7186.4393
6799.0974
6541.0065
6280.804
6102.3644
5932.5733
5765.4552
5651.1965
5672.0618
5147.0161
4997.1348
4828.4108
4758.8567
4588.5425
4416.6503
4098.953
3850.9858
3534.0832
3177.8151
2803.5701
2477.5814
2005.9505
1831.7948
1454.1899
1129.122
1027.6455
1179.9473
815.03048
540.19002
581.96241
645.90155
968.08857
1698.5373
4699.5782
21133.601
19081.6
18813.82
19424.96
19181.745
18769.069
17905.227
17014.196
16107.924
14982.561
14217.977
13134.402
12165.168
11310.535
10656.408
10092.589
9661.5155
9254.7268
8870.8059
8484.3882
8153.1092
7425.7093
7165.4516
6246.5872
5761.3308
5236.6859
4663.5104
4272.1371
3984.2144
3740.7724
3399.9094
3121.662
2704.807
2342.6455
1890.9904
1667.4268
1263.1588
1419.743
1262.3919
257.56747
253.54162
854.20859
1622.0707
2481.6983
3388.1114
4777.0083
6394.7756
8531.9117
9100.6408
7726.2398
7748.6576
7943.025
8304.102
10633.923
3329.6171
3219.1101
2668.9918
2739.9575
2853.005
3198.1627
4343.7475
997.04739
517.43175
119.99283
294.75488
198.69684
500.87628
1196.8956
824.11069
315.47998
80.677726
44.42168
190.27243
653.25157
1547.8112
2320.8391
1458.5069
1061.5115
986.20869
1165.4832
1712.9193
2706.9444
7665.6763
5542.9433
4817.9531
4566.8034
4772.9648
5634.5508
8121.058
13909.148
13652.119
11499.943
11740.723
11507.569
12513.54
16271.8
37902.407
32941.494
35372.162
37645.12
37363.818
39798.044
38839.426
34785.988
35570.304
32937.765
32035.929
34785.684
35402.691
36003.501
30246.231
30955.787
31452.714
31367.875
31101.727
31114.962
32057.734
31024.119
33800.321
33469.301
33763.134
33802.131
33597.394
31360.15
29262.429
29928.617
31097.643
31154.151
30862.515
29777.994
29410.37
28466.857
29017.083
29647.166
29865.385
29501.907
28863.921
27971.976
26562.905
26888.383
27838.703
27758.448
27601.877
27285.058
26865.557
25195.136
25136.982
25532.826
25496.164
25333.773
24949.953
24504.977
23365.146
23235.884
23710.361
23717.254
23596.433
23293.391
23429.224
21774.128
21577.663
21663.185
21961.706
21559.069
21360.071
21482.385
20202.541
20006.423
20385.267
20009.362
20125.083
19787.696
19988.842
18769.609
18473.626
18438.563
18628.17
18485.854
17826.535
19095.281
17386.645
16884.08
17384.874
16870.948
17017.074
16769.257
17791.614
15871.535
15575.62
15906.148
15534.751
16021.128
15138.304
16631.28
14828.569
14354.093
14717.848
14360.448
14496.902
14065.121
15342.503
13631.695
13052.74
13757.706
13110.558
13698.535
13003.815
14315.685
12602.555
12289.701
12808.084
12252.462
12748.207
12020.366
13212.597
11831.193
11399.698
12162.877
11526.09
12123.156
11409.402
12490.663
11129.912
10847.564
11653.265
10873.605
11559.502
10753.161
11829.911
10599.715
10328.079
11162.166
10435.507
11128.536
10350.751
11373.917
10172.741
9892.7086
10797.834
9940.3078
10667.164
9843.4639
10946.772
9790.5367
9543.2135
10399.741
9587.3649
10311.445
9514.4202
10678.439
9545.2415
9288.2067
10076.78
9311.7488
9988.8344
9284.0944
10568.276
9394.8021
9235.39
9890.5184
9210.6317
9783.0111
9071.0611
10429.249
9370.5432
9369.2674
9467.5291
9372.6932
9535.4231
9099.9364
10482.83
9585.3646
9413.1088
9416.7161
9475.3866
9403.5554
9154.7769
10384.946
9957.6339
9542.2782
9561.7919
9379.4382
9943.8406
9174.8818
10259.775
10404.139
9517.942
9998.6403
9252.3796
9683.1276
8749.5735
10073.515
10127.833
9843.8467
9700.9541
9585.4439
9734.4855
9288.5386
10009.673
10563.849
9731.3385
10286.85
9690.6651
10062.627
9339.8767
10032.941
10553.742
10363.784
10494.049
10132.77
10310.052
9754.8161
10251.816
11119.637
10672.86
11006.097
10572.463
10792.762
10266.958
10698.133
11436.904
11260.844
11486.137
11116.143
11246.737
10762.032
11163.17
11985.405
11769.735
11957.298
11565.321
11636.374
11244.004
11692.701
12353.838
12178.144
12264.741
11952.863
11996.46
11645.926
12030.485
12790.01
12504.78
12611.792
12238.372
12249.207
12424.091
12425.99
12990.232
12505.933
12656.725
12353.99
12434.584
11228.775
12009.771
12334.215
11743.624
11716.33
11675.238
11404.662
12175.132
12367.837
12698.059
12278.214
12467.826
11986.325
12024.698
11749.936
12594.4
12479.035
11994.657
11913.228
11734.131
11619.902
11435.343
11972.655
11787.343
11239.987
11361.201
11064.618
11046.264
10824.321
11227.033
10875.016
10463.237
10513.605
10363.705
10287.101
10156.225
10440.144
9824.8058
9575.0006
9740.9658
9579.3315
9515.6128
9445.2486
9548.8285
8669.0119
8615.0861
8665.701
8591.2716
8516.1763
8537.214
8521.0716
7575.35
7595.8672
7669.7216
7633.235
7608.7663
7639.5127
7536.6538
6332.6237
6429.9225
6424.8342
6437.7111
6395.5709
6411.2883
6305.5396
5129.6637
5232.6036
5213.8478
5222.2646
5253.1073
5226.8117
5313.8331
5572.4929
6061.4091
6088.7763
6131.9244
6098.1228
6042.0197
5990.7272
1913.3474
2901.2063
2800.6727
2813.2159
2740.9285
2990.472
2420.2398
3707.1012
3969.3293
4072.3192
4106.5586
4090.9742
4029.0014
3601.9008
4806.2951
5124.6628
5101.4669
5181.7707
5051.7748
5236.4606
4605.4573
6734.0522
7920.1245
7440.474
7371.5396
7543.6231
7392.2974
6916.1241
7428.8645
7511.1725
7245.5142
7373.1921
6930.9635
7398.8287
6699.533
6369.6566
6778.3045
6827.8409
6839.7827
7113.1503
6890.5529
6787.486
29397.224
26504.956
25369.698
24793.298
25294.424
26144.243
27003.596
28486.804
26486.847
26576.792
26296.72
26711.905
27254.376
28271.131
28392.12
28761.112
28319.47
28121.468
28616.946
28351.03
28567.717
27430.464
27834.802
27988.426
28109.493
28003.5
27598.346
27948.853
26968.396
27041.084
27323.651
27258.338
27296.775
26820.903
26724.246
25475.834
25689.92
25827.318
25729.756
25892.307
25554.18
25917.825
24767.285
24571.733
24637.316
24341.173
24659.154
24552.841
24817.923
23218.477
23097.89
23182.901
23216.064
23075.537
22998.082
23488.436
22311.642
22014.848
22092.501
21835.085
22145.114
21705.209
22698.584
20879.601
20631.234
20664.407
20421.234
20590.208
20378.731
21152.631
19796.4
19591.959
19770.188
19369.495
19754.772
19313.391
20202.864
18968.776
18572.396
18421.946
18411.195
18366.879
18349.352
18878.307
17908.347
17471.082
17613.255
17191.725
17424.922
17070.553
18191.54
17158.826
16692.714
16516.851
16344.131
16585.179
16638.002
17191.467
16233.182
15671.934
15788.793
15587.928
15839.176
14980.391
16310.69
15276.699
14857.672
14987.397
14466.58
14837.199
14595.122
15315.727
14569.496
14241.316
14157.144
13993.516
14082.168
13665.463
14480.303
13899.84
13447.897
13632.232
13188.582
13395.275
12998.285
13680.067
13112.679
12886.891
12931.261
12578.169
12783.388
12314.878
12959.482
12457.351
12201.206
12286.837
11932.296
12088.923
11623.34
12238.572
11641.324
11464.265
11557.707
11153.792
11340.365
10867.65
11462.679
10777.101
10622.028
10673.603
10314.704
10522.914
10015.287
10654.113
9886.371
9664.454
9737.9911
9402.7721
9575.9182
9109.3621
9883.6757
8972.1997
8771.7048
8820.4434
8475.0496
8709.213
8236.0126
9096.4572
8139.8795
7862.2059
7836.8794
7574.0933
7770.9081
7281.4374
8334.547
7323.7523
6839.1323
6971.1364
6627.5527
6899.9554
6414.1438
7575.4965
6302.736
5846.5117
5923.2164
5628.2694
5916.7633
5379.3326
6551.6322
5259.219
4721.871
4840.1599
4598.9901
4922.2301
4395.0422
5533.1799
4005.3273
3552.1987
3746.288
3461.8918
3814.2872
3237.3705
4325.6388
2784.8689
2466.2633
2563.7377
2355.4815
2704.0823
2185.2369
3192.8201
1633.376
1304.1222
1463.1844
1290.5755
1625.1935
1113.7441
2077.3998
534.21243
304.42637
445.3247
297.21301
592.35504
129.70762
1095.7344
-433.63232
-646.34694
-517.77884
-636.73815
-390.68102
-803.11737
181.33445
-1315.2346
-1511.1188
-1393.4021
-1477.1248
-1284.5702
-1614.9581
-452.0241
-2048.5291
-2253.8678
-2171.8332
-2182.5495
-2141.6108
-2201.0484
-1387.2461
-2583.9767
-2895.2378
-2728.8423
-2907.0882
-2737.9805
-3243.0206
-2347.74
-3446.2067
-3756.1944
-3730.3196
-3680.6292
-3613.4483
-3631.6325
-1468.708
-3306.4225
-3601.8273
-3550.4298
-3565.2447
-3467.4339
-3563.3591
-2328.8202
-3284.8686
-3539.8622
-3525.1628
-3527.3543
-3505.0542
-3685.7036
-2191.1895
-3138.9301
-3471.578
-3490.1684
-3368.0469
-3494.5704
-3523.59
-2219.0296
-2849.9205
-3106.9801
-3050.0499
-3026.7511
-3099.7484
-3181.5537
-2047.6343
-2553.3762
-2720.9559
-2730.0393
-2682.5796
-2763.5246
-2755.3807
-1672.5828
-1601.2543
-1661.1096
-1725.6323
-1618.2041
-1765.8811
-1753.8598
-1035.7523
-1001.5663
-1144.6544
-1112.5587
-1098.7173
-1201.8122
-1122.3707
-285.5669
639.40689
730.72117
656.73613
696.20265
581.24663
729.88997
1157.8026
1580.1383
1501.104
1483.3874
1455.7082
1460.6953
1453.3047
1720.0406
4878.5386
4890.747
4803.2656
4817.3727
4774.3244
4770.3968
4747.0225
31442.846
23126.172
21021.05
20805.339
21408.511
20348.343
20317.54
19296.746
18656.905
17916.368
16984.414
15954.483
14909.051
14105.92
13129.559
12815.08
12185.555
11739.905
11440.64
11120.438
10803.759
10427.348
9923.5379
9260.05
8568.1032
7815.0025
7386.3037
6933.9713
6775.2205
6732.1813
6759.0642
6815.5304
6891.9678
6817.1558
6948.941
6660.526
6678.0141
6812.2313
6724.1324
6806.1425
7087.564
7332.8065
7589.1505
7767.188
7872.9938
7600.133
9091.1996
13303.619
13489.193
10774.926
11165.718
11360.789
10684.148
10929.041
10599.758
10499.156
9985.7443
9856.4511
9256.7946
9085.6177
8656.1245
8318.6508
8221.0282
7901.3597
7626.8771
7520.5883
7270.6616
7101.488
6898.0354
6654.7922
6478.0527
6318.0088
5919.5862
6088.6169
6323.7475
6249.078
6185.9701
6136.0716
6141.2864
6074.6594
6182.4178
6122.8276
6028.8526
6122.7231
6037.1457
6122.1371
5944.5218
5912.912
5634.5227
5518.093
5089.2611
5160.326
4116.1954
6907.4083
4473.7629
4611.8533
3803.3473
4215.7092
4060.9039
3001.8804
4023.4726
3123.6308
3537.5383
3265.627
3237.9548
3231.9953
3122.7425
3430.2432
3453.9662
3404.2149
3406.1878
3290.9265
3332.9287
3211.0802
3222.0867
3129.5532
3066.4671
2841.2555
2711.8677
2351.1248
2179.6372
1640.8118
1210.87
765.81315
362.73995
-25.005895
-239.14347
-422.73805
-571.47153
-489.61612
-430.00766
-236.42483
-35.896811
287.90731
655.81371
1135.6632
1538.7871
2218.2226
2818.7675
3321.4862
5535.0752
1738.169
1539.6047
416.73215
2000.3103
643.79698
1447.8472
435.28056
685.53989
1120.2077
591.96401
1280.4081
783.27984
1372.9075
1764.5986
1991.2517
2228.341
2256.4354
2393.4841
2512.491
2606.1537
2685.2998
2788.6111
2747.3022
2823.0933
2698.8636
2732.2983
2583.7421
2390.2992
2176.0604
1918.3796
1643.7702
1401.3146
1210.4385
952.48889
887.09721
807.64811
707.70613
737.84245
858.64016
937.39636
1222.9404
1338.892
1884.2498
2106.5832
3083.4915
2959.8105
5257.7608
4646.6552
1577.137
2176.63
1729.4334
1968.4266
1845.9055
2231.8037
1930.8789
1898.5683
2117.3489
1820.7712
2174.2856
2161.591
2187.9964
2386.3903
2299.676
2419.0309
2358.8857
2422.9368
2403.7499
2495.5394
2475.5783
2549.0068
2397.1847
2336.6452
2121.4633
1676.6403
1416.8962
1025.6545
600.19256
187.90269
-174.14665
-524.02424
-744.20664
-858.45925
-1011.1558
-917.16807
-798.27221
-653.53948
-222.54901
60.337316
759.25304
1302.3743
2240.1646
3125.4211
4136.6239
5271.8555
10843.411
9186.4842
7186.1713
9035.7549
7430.9236
8637.3229
7803.9967
7521.9437
7792.8166
7271.905
8021.3939
7367.5284
7224.0804
6967.9618
6648.5951
6445.3884
6102.3482
5893.3218
5652.0957
5487.4641
5321.4469
5248.1886
5209.7746
5033.6309
4869.4449
4471.007
4762.0881
4646.7505
4592.6731
4466.7887
4399.5812
4239.9314
4128.7089
4117.8578
4049.0079
4095.8776
4212.3671
4189.9851
4514.0345
4421.1751
4709.9825
4689.279
4933.3825
4935.5244
5506.938
5355.4915
6233.5156
28415.129
18046.537
20412.121
18454.051
19706.974
18842.706
18023.871
17880.748
16201.151
15616.254
14486.251
14188.423
12906.728
12212.438
11674.756
11075.646
10747.505
10212.57
9754.7522
9183.3326
8589.704
7832.5152
7100.9831
6107.2215
5563.716
4796.3143
4393.4066
4168.9591
3885.9392
3721.5343
3349.2994
2955.5265
2542.1692
2199.0088
1776.6658
2040.876
1704.9948
1880.802
1942.7119
2692.9651
3227.0673
3920.6169
4574.4994
5260.0284
5878.987
6568.917
7261.5263
22855.848
19308.045
18916.495
18598.553
18895.099
19016.514
19817.836
20866.074
21502.529
20218.739
20168.675
20046.427
20593.377
21033.218
19612.142
20827.972
20809.261
20599.52
20679.756
20740.66
20700.423
19294.257
19973.077
20149.094
20323.025
20159.634
20104.609
19545.372
18828.43
19668.449
20055.735
20121.714
20097.691
20082.773
19640.631
18177.696
18540.272
18699.923
18926.782
18777.991
18724.68
18645.053
17798.291
18154.912
18293.991
18276.543
18249.83
18420.412
18328.843
16896.553
17081.634
17136.958
17349.167
17297.781
17244.907
17374.609
16434.835
16717.478
16544.927
16706.918
16542.094
16830.576
16927.279
15616.499
15715.781
15723.882
15759.929
15734.127
15913.267
16030
14970.674
15174.721
15053.486
15085.966
15127.946
15213.828
15464.526
14299.565
14267.005
14330.25
14323.302
14307.718
14454.806
14680.779
13708.964
13694.105
13595.625
13564.235
13666.757
13671.085
13799.254
12997.082
12900.321
12994.336
12904.233
13030.135
12925.833
13297.92
12458.349
12450.03
12215.508
12306.077
12268.482
12514.423
12435.702
11957.092
11866.485
11829.26
11823.432
11849.613
11788.357
11892.517
11446.397
11392.8
11342.233
11287.501
11389.165
11384.887
11557.475
10999.46
11002.602
10961.022
10876.473
10998.145
10987.216
11024.246
10600.213
10596.615
10554.264
10480.191
10646.35
10562.523
10670.305
10193.477
10232.47
10198.416
10123.712
10225.359
10175.295
10289.537
9856.0783
9844.072
9852.7525
9723.4235
9878.8171
9822.6051
9930.2408
9498.2159
9463.2347
9503.7413
9378.4666
9520.1288
9440.1347
9563.3258
9140.4019
9035.5121
9169.7349
8992.7931
9124.8591
8991.5169
9198.2117
8714.3296
8524.6919
8752.4282
8535.5689
8639.2372
8535.4263
8747.2398
8225.147
7901.9645
8132.2662
7990.0295
8056.5205
7880.9132
8207.9305
7609.6827
7255.6563
7600.7437
7369.8513
7423.3462
7268.9937
7563.7361
7107.6857
6608.0206
6937.6216
6791.6974
6816.8454
6680.5784
7072.0618
6631.8202
6194.56
6444.4024
6332.6182
6339.836
6101.3905
6548.5097
6206.5581
5657.249
6154.3412
5923.1636
5919.7636
5697.3103
6202.6867
5869.5147
5496.5673
5822.416
5636.0609
5655.3966
5415.2088
5930.402
5628.4852
5251.4792
5631.8498
5500.9151
5448.2702
5193.2146
5743.5714
5412.6673
5184.3618
5506.9448
5364.1557
5260.324
5065.9736
5612.9407
5318.5625
5156.295
5422.2102
5325.2079
5213.3487
5034.2927
5636.5324
5298.4862
5196.8559
5417.6741
5352.5161
5227.9561
5139.9724
5539.231
5372.3026
5295.5767
5456.6001
5407.1347
5266.6148
4954.3254
5594.0041
5428.714
5338.2883
5473.9086
5467.129
5260.1458
5411.9578
5711.1131
5558.8809
5416.2797
5553.5893
5505.3913
5560.9819
5168.8055
6483.0566
5773.0491
5874.0795
5856.7036
6052.4799
5694.1051
5798.5947
5725.2393
5849.1544
5712.9892
5757.2754
5845.9497
5644.9359
5544.8711
6176.0501
6128.0918
5949.4713
5871.4709
6059.7469
5802.4078
5890.2859
6216.3504
6356.5846
6146.7111
6148.0176
6275.9655
6112.7469
6121.8995
6490.9098
6722.331
6586.4339
6517.9757
6666.9045
6481.2887
6541.6342
6804.7411
7023.5736
6913.5415
6851.6182
7026.8686
6877.5143
6953.0264
7102.1768
7265.2034
7161.7167
7178.7001
7287.2881
7141.4058
7236.5355
7417.9143
7797.4862
7833.0544
7788.1335
7903.5412
7793.6373
7986.3856
7868.2908
7764.6258
7724.2446
7743.1767
7834.015
7788.9777
7787.6173
7668.3841
8739.048
8742.1438
8720.4886
8760.0229
8688.1644
8693.8568
8714.0391
9671.1663
7310.7108
6744.6893
6535.9749
6549.2176
6766.3197
7533.2819
10438.649
11234.927
10640.889
10744.779
10793.315
10960.804
11258.334
9910.7577
10336.289
10456.82
10337.878
10466.224
10154.34
10236.315
9807.0006
10456.268
10778.484
10853.749
10740.359
10645.023
10095.924
9490.7105
9876.1302
10221.478
10167.627
10298.181
10034.773
9923.1879
9408.6049
9716.5413
9628.055
9667.7695
9648.7291
9538.1743
9514.8458
8982.3095
9277.0874
9382.8154
9427.5274
9451.1741
9437.5473
9325.6946
8901.253
9109.8586
8934.7869
8927.1202
8966.0595
8910.286
9035.8419
8595.7756
8793.2019
8682.5772
8685.3009
8668.478
8747.8072
8865.1656
8396.1399
8472.9415
8322.9204
8272.8362
8408.5554
8396.7953
8494.1726
8101.1458
8276.5277
8085.219
8095.333
8094.1294
8169.4248
8315.5601
7901.1211
8030.1227
7769.4194
7735.6743
7753.5043
7791.099
7900.4732
7671.9985
7749.9464
7578.1719
7592.4167
7553.2925
7627.7897
7713.6856
7516.6811
7494.1865
7372.4862
7214.6039
7325.6952
7209.5452
7516.5363
7376.6055
7318.9381
7149.6929
7052.7021
7162.4641
6948.2571
7215.7288
7193.2415
7026.7897
6939.3702
6843.1261
6946.2934
6740.0213
7006.1984
6959.4242
6939.8932
6735.9616
6675.3529
6711.5347
6576.8937
6873.3523
6812.851
6738.9225
6575.5166
6541.6212
6580.3849
6411.2157
6617.963
6592.1717
6596.2412
6411.2412
6383.3128
6414.8237
6222.2274
6500.2464
6415.5166
6464.6081
6267.3643
6263.0995
6256.0375
6093.6602
6360.9597
6188.4919
6326.6531
6128.2305
6096.1266
6118.1826
5980.1477
6179.9454
5996.9657
6239.6703
6006.3482
5983.7562
6006.6418
5818.6074
6061.4818
5855.416
6068.4938
5852.2017
5819.2645
5770.9264
5724.7862
5898.9803
5723.6383
5931.2579
5756.5043
5608.7838
5695.3831
5668.9498
5807.2515
5631.9013
5822.1044
5615.2659
5448.9207
5596.0098
5508.7388
5559.6357
5583.8201
5754.6383
5571.2219
5564.4268
5402.0662
5446.1751
5629.613
5504.314
5784.2369
5517.253
5226.3467
5551.3219
5531.9657
5539.8907
5686.5941
5214.9453
5330.2929
5305.5011
5356.4262
5499.4237
5361.7007
5333.6743
5519.2452
5467.7655
5244.4901
5317.9927
5567.0182
5266.5879
5361.0741
5443.8751
5357.4237
5298.6229
5343.5206
5601.074
5270.8848
5345.6453
5433.2088
5431.4378
5388.7489
5356.7376
5706.567
5324.0519
5404.5863
5552.3159
5564.5095
5525.5312
5489.6096
5906.8397
5501.4595
5579.9056
5695.1815
5707.4027
5705.6473
5691.2428
6146.1069
5619.4241
5817.1693
5883.446
5914.0405
5954.8626
5863.2937
6231.7924
5861.9956
6048.4567
6070.7221
6120.1576
6153.7681
6040.0991
6692.0842
6257.0323
6387.6177
6295.8153
6323.083
6402.9801
6352.4488
6724.3869
6355.5384
6713.7735
6498.4883
6518.4304
6671.4058
6312.0337
7126.6869
6492.404
6961.9724
6544.4288
6642.3505
6767.8352
6655.7768
7190.6054
6787.1402
7244.3548
6760.6069
6897.477
6923.1405
6790.359
7253.0663
6944.7332
7321.434
6660.7452
6893.0796
6867.6985
6829.6422
7291.9747
7007.5185
7481.3125
6884.1328
7105.7733
7090.5575
6995.9004
7349.6052
7049.1304
7315.8551
6673.8923
6903.7169
6843.2679
6783.5399
7120.5756
6991.6406
7428.8388
6903.2157
7082.9918
7085.0667
7024.9039
7267.2094
7034.7443
7038.7358
6549.6316
6703.7382
6662.5148
6554.1605
6695.1635
6656.0085
7284.6756
6960.1949
7014.5295
7012.0152
6981.5245
7170.724
6953.9281
6320.9591
5872.3578
5936.0755
5895.4233
5866.2266
5753.2953
5578.2637
6931.1209
6913.8311
6701.5575
6699.7152
6660.5164
6703.2105
6794.7832
3529.8155
2679.3014
2296.0569
2213.6387
2077.7917
2271.7643
2332.4469
3098.9131
3537.2686
3310.0103
3446.585
3376.7099
3345.2816
3449.1986
3668.3902
3719.4659
3676.7985
3756.4713
3682.8674
3601.0576
3519.4106
3104.7727
3495.1146
3915.0427
4086.7599
3947.6512
3962.421
3531.17
3510.7583
3720.7829
3751.1262
3721.76
3694.4396
3488.0774
3708.8213
3109.4963
2864.0033
2972.8346
3285.8261
3095.2507
3048.5355
3037.1657
3477.8789
3123.5388
3375.8675
3481.0808
3414.3535
3662.7068
3511.8831
3276.3358
2777.9599
2764.8689
2707.5327
2769.6128
2829.6373
2817.576
3183.3095
2713.6549
2884.5714
2991.6327
2999.3147
3223.3716
3156.7265
3098.1785
2569.3845
2632.0143
2600.5484
2627.9271
2809.0066
2888.8846
3031.2513
2500.7429
2610.5908
2556.7321
2619.2357
2743.0843
2787.9689
3029.5758
2338.1144
2462.2941
2446.9998
2640.3869
2693.226
2929.97
2949.3922
2252.0195
2433.2769
2392.7788
2492.4897
2535.0624
2760.3896
2806.1817
2347.0113
2433.7741
2377.9556
2515.6379
2555.5945
2672.4898
2698.3399
2451.0188
2516.5829
2464.2642
2408.9526
2558.4515
2739.4111
2703.184
2476.1985
2546.1161
2472.7505
2478.2
2512.9839
2755.7409
2781.4718
2492.6707
2615.4105
2532.2605
2483.8782
2562.4961
2827.867
2791.0659
2488.3673
2649.5919
2534.6151
2533.4016
2566.6751
2808.0398
2841.0414
2522.0204
2684.8349
2576.459
2565.8804
2572.0467
2912.7969
2878.653
2508.8916
2712.0809
2606.1014
2597.9348
2609.1408
2921.9429
2990.5022
2573.021
2780.9945
2661.1596
2702.0481
2638.5633
3008.9628
3092.2435
2622.1215
2825.9935
2716.6954
2728.1056
2658.2478
3072.3112
3209.4829
2700.414
2947.0028
2709.3824
2883.7557
2717.2062
3214.0383
3398.1502
2767.4682
2978.6378
2817.7016
2985.684
2671.4563
3177.7963
3520.96
2734.9468
3063.531
2913.0749
3025.3599
2636.5022
3397.3742
3626.8093
2749.6693
3136.2787
2788.2557
3026.7181
2651.2282
3149.4009
3840.2926
2723.5871
3063.6018
2831.1136
3111.0791
2511.8697
3331.0832
3844.9589
2743.7537
3026.4188
2856.1284
3107.6712
2423.1243
3331.1714
3950.6592
2799.7926
3172.62
2815.8989
3185.0068
2391.1459
3358.3895
4082.1919
2753.8601
3054.0447
2845.329
3206.0915
2333.8492
3380.8656
4172.9573
2831.7462
3210.2898
2961.6929
3296.6407
2424.8665
3489.1189
4351.6842
2972.9185
3306.585
3017.6343
3397.5216
2524.7606
3532.1159
4575.9887
3156.344
3471.3478
3221.8068
3564.6508
2626.1464
3690.3213
4832.1335
3395.2016
3719.4848
3427.1483
3742.6072
2984.3156
3937.348
5158.5062
3727.2625
3992.2857
3683.4988
4039.3262
3175.2273
3989.2157
5480.3882
4022.0477
4288.519
3968.3901
4248.5787
3534.9423
4264.6031
5750.596
4329.9312
4566.0219
4220.1967
4614.7063
3781.1308
4522.6759
5965.2119
4599.7898
4871.8263
4533.4507
4811.9616
4144.0119
4591.9901
6082.97
4955.1465
5035.5996
4861.0611
4989.009
4417.8225
4826.4409
6211.9312
5150.0879
5183.3439
5097.5333
5178.4427
4794.2537
4910.0284
6181.7387
5401.0196
5321.9054
5308.6497
5322.7766
4933.6105
4973.844
6195.7117
5457.6656
5390.6512
5436.8096
5370.812
5266.353
5101.5555
6076.3719
5617.9495
5487.4475
5573.8179
5516.7877
5428.8868
5032.4794
5865.4775
5462.3798
5327.1082
5490.6432
5295.9977
5380.9467
5050.4813
5921.3904
5655.3527
5533.455
5681.3484
5496.8013
5846.3015
5212.5622
5202.8807
5001.8357
4974.8704
5087.4082
4949.8616
5089.3071
4480.4974
5400.7891
5412.0686
5250.3448
5319.4901
5266.3156
5387.2156
5343.3606
1601.1874
1264.6307
1023.3582
964.36959
896.91334
896.9139
586.98783
984.25663
1607.2724
1662.5123
1836.6621
1774.6305
1625.7958
1396.2122
952.70954
1081.2098
938.01793
1034.8047
974.91275
880.56639
518.84102
982.49277
1747.6456
2185.8906
2437.2857
2388.125
2218.5373
1792.5486
870.95687
1003.905
657.6228
611.21746
520.41632
485.25664
522.25732
1008.2969
1398.7076
1394.0801
1616.0914
1658.2538
1713.1276
1384.6133
941.41917
895.30652
820.02841
884.08964
850.6505
629.10275
955.25342
1234.0565
1165.913
973.53697
1088.2437
931.16713
1008.4588
979.30216
1169.2106
1131.9872
1054.5624
1024.6223
1164.1207
1004.7103
1304.166
1321.3183
1356.387
916.17691
1006.995
870.01391
812.4409
876.24273
1339.8394
1276.301
1286.0252
1172.8847
1422.6927
1222.8167
1487.2257
1433.8289
1574.7313
1245.8163
1102.9936
1242.1081
1056.7498
1196.2647
1588.9432
1584.4168
1225.0545
1399.4712
1576.4401
1242.64
1519.5813
1614.4566
1865.6045
1424.8943
1387.7348
1590.5342
1471.0684
1513.4614
1574.3281
1852.5116
1756.2407
1511.1415
1817.6761
1509.3469
1651.8452
1705.2773
1954.0393
1905.1715
1711.1382
1904.1035
1761.792
1822.4378
1820.7028
2078.4076
2096.9557
1864.5925
2098.4107
1885.6991
1971.6317
1991.7577
2235.8357
2259.3658
2044.7844
2230.2286
2079.0711
2153.0594
2110.9634
2353.3214
2444.8395
2188.4985
2416.2111
2228.9268
2310.6627
2320.645
2556.8877
2596.4027
2393.1664
2573.2278
2393.7975
2490.4519
2517.8693
2642.1208
2780.1545
2559.3107
2683.7421
2565.2738
2613.9837
2717.3861
2834.2243
2947.0982
2710.3832
2858.2491
2747.167
2781.9363
3008.2275
2959.0519
2979.7679
2971.2689
2942.9461
2900.1486
2824.5844
3159.1809
2947.4713
3199.8937
3093.802
3016.9238
3077.4849
3042.6799
3335.7544
3059.7184
3368.7537
3044.8096
3056.8012
3237.6785
2966.2715
3534.3538
3124.2048
3326.48
3205.889
3124.4294
3327.572
3170.5116
3484.6529
3066.5673
3416.7336
3334.3156
3099.5414
3503.1527
3082.1534
3553.9383
3042.9838
3520.9967
3304.0443
3168.9182
3580.31
3083.8906
3592.8299
3028.3166
3382.3879
3407.1973
2989.1677
3626.8197
2995.1249
3539.056
2950.2781
3418.587
3381.0682
3074.1694
3742.6087
2973.4615
3545.1077
3005.1617
3424.3166
3441.4745
3017.015
3766.311
2907.3201
3602.4711
2979.8818
3418.4747
3425.33
3009.6478
3824.6636
2879.6697
3633.282
2998.7586
3445.5818
3485.5604
3082.8673
3954.151
2934.7078
3754.1536
3067.8841
3496.4879
3519.5768
3126.951
3940.5478
2893.1363
3815.4773
3108.9023
3494.318
3546.2367
3163.7874
4020.3575
2981.0293
3920.3655
3177.7345
3517.6313
3582.0561
3286.5208
4012.3377
3071.8821
4027.0049
3258.7497
3540.7218
3680.8917
3234.5574
4091.3946
3087.1903
4033.0673
3292.606
3596.5382
3614.1721
3380.6767
4045.1346
3219.0944
3989.0357
3439.7347
3636.3912
3687.2709
3456.2074
4094.7323
3268.8548
3840.5776
3296.9687
3612.7163
3572.7637
3446.1888
3968.5458
3244.1824
3961.2798
3477.6602
3747.0543
3733.4821
3602.8427
4049.8737
3404.1158
3935.9009
3345.2886
3671.3377
3539.2181
3526.4307
3875.3082
3306.3395
4027.2201
3615.3854