/*--------------------------------*- C++ -*----------------------------------*\
  =========                 |
  \\      /  F ield         | OpenFOAM: The Open Source CFD Toolbox
   \\    /   O peration     | Website:  https://openfoam.org
    \\  /    A nd           | Version:  6
     \\/     M anipulation  |
\*---------------------------------------------------------------------------*/
FoamFile
{
    version     2.0;
    format      ascii;
    class       pointVectorField;
    location    "1.58";
    object      u;
}
// * * * * * * * * * * * * * * * * * * * * * * * * * * * * * * * * * * * * * //

dimensions      [0 1 0 0 0 0 0];

internalField   nonuniform List<vector> 
3969
(
(0 0 0)
(0 0 0)
(0.32626079 0.04774943 0.024527662)
(0.32009634 -0.062469096 0.022999165)
(0 0 0)
(0 0 0)
(0.32050516 -0.071203135 0.02292271)
(0.3266962 0.038827597 0.02430074)
(0 0 0)
(0 0 0)
(0 0 0)
(0 0 0)
(0 0 0)
(0 0 0)
(0 0 0)
(0.32527915 0.033157497 0.023883954)
(0.32416968 0.01949397 0.023845063)
(0.32319429 0.0060658842 0.023701214)
(0.3223934 -0.007224176 0.023756183)
(0.32172917 -0.020558967 0.023698929)
(0.32112159 -0.03404166 0.023685674)
(0.32073006 -0.047845077 0.023432002)
(-0.00054438995 -0.00039118287 -0.00010131622)
(-0.0012424758 -0.0004365332 0.00010634084)
(-0.002052216 -9.3233682e-05 0.00040362579)
(-0.0026540364 0.00014657805 0.00069702013)
(-0.0032881195 0.00082391418 0.00096630385)
(-0.0036297506 0.0014138426 0.0012797256)
(-0.0039283804 0.0023724002 0.0015612394)
(-0.0038391945 0.0032913814 0.0018731507)
(-0.0035980946 0.0045419421 0.0021604726)
(-0.0029375661 0.0057039903 0.0024566557)
(-0.0020117151 0.0071871684 0.0027611242)
(-0.00064537536 0.0085826269 0.0030651299)
(0.0010794331 0.010209823 0.0033336479)
(0.0032524239 0.011802597 0.003649791)
(0.0058793573 0.013536113 0.0039152268)
(0.0089288463 0.015224937 0.0042073471)
(0.012463181 0.01702702 0.0044926841)
(0.016452058 0.018782 0.0047784353)
(0.020927295 0.020596611 0.0050722)
(0.025862134 0.022378837 0.0053634599)
(0.031284027 0.024170708 0.0056771809)
(0.037164907 0.025940255 0.0059894907)
(0.043520801 0.027690704 0.0063305374)
(0.050330155 0.029412132 0.0066859927)
(0.057595993 0.03107825 0.0070688069)
(0.065298695 0.032743773 0.0074832252)
(0.073439239 0.034345853 0.0079344544)
(0.082014443 0.0358953 0.0084133284)
(0.091013361 0.037407811 0.0089404494)
(0.10041025 0.038841182 0.0095072542)
(0.11021666 0.040228535 0.010117557)
(0.12041536 0.041535298 0.010773747)
(0.13099235 0.042773273 0.011471506)
(0.14194143 0.043924398 0.012211877)
(0.15326138 0.04499895 0.012991464)
(0.16491722 0.045943859 0.013812912)
(0.1769182 0.04686858 0.014648374)
(0.18923676 0.04753956 0.015551715)
(0.20185843 0.048296897 0.016406709)
(0.21477865 0.048682268 0.017378302)
(0.22795879 0.049196844 0.018239672)
(0.24137648 0.04938301 0.019226046)
(0.25505699 0.049448571 0.020146925)
(0.26885644 0.049568149 0.021039659)
(0.28291167 0.049153497 0.022048797)
(0.29703159 0.049002119 0.022914313)
(0.3111722 0.04856436 0.023974326)
(-0.00046402856 0.00040541896 0.00039588511)
(-0.0013741274 0.00043959453 -4.614254e-05)
(-0.0022947109 0.00049860688 -0.00047405965)
(-0.0029661554 0.00010653163 -0.00078299945)
(-0.0036195107 -0.00015605691 -0.0011980133)
(-0.0040749503 -0.00074513525 -0.0014746656)
(-0.0043226155 -0.00132317 -0.0018126413)
(-0.0043397649 -0.0021648432 -0.0020428589)
(-0.004097696 -0.0029927645 -0.0022916584)
(-0.0034738355 -0.004097431 -0.0024543249)
(-0.0026036247 -0.0051335967 -0.0025979527)
(-0.0012600079 -0.0064499677 -0.0027092844)
(0.00039793252 -0.0077090686 -0.0027456958)
(0.0025035324 -0.009130438 -0.0027725441)
(0.0050221619 -0.01059028 -0.0027251602)
(0.0079893907 -0.012122959 -0.0026647006)
(0.011406471 -0.013694688 -0.0025356173)
(0.015274833 -0.015313697 -0.0023928668)
(0.019595014 -0.016954231 -0.0021913877)
(0.024402545 -0.018634315 -0.0019666644)
(0.029616177 -0.020311987 -0.0016904491)
(0.035352127 -0.022020053 -0.001390958)
(0.041480595 -0.023721586 -0.0010276603)
(0.048116107 -0.02545279 -0.00064249764)
(0.055128304 -0.027142103 -0.00021633136)
(0.06264682 -0.028871604 0.00026770101)
(0.07050418 -0.030538605 0.00079466135)
(0.078869342 -0.032274092 0.0013757643)
(0.087625486 -0.033953526 0.0019949969)
(0.096788136 -0.035643899 0.0026758213)
(0.10636832 -0.037327734 0.0034091435)
(0.11633073 -0.039010686 0.0041983052)
(0.12669183 -0.040681603 0.0050456361)
(0.137424 -0.042356637 0.0059450936)
(0.14853206 -0.044010041 0.0069069088)
(0.1599897 -0.045667022 0.0079081265)
(0.17181086 -0.047299389 0.0089777879)
(0.18394362 -0.048906897 0.010085002)
(0.19641845 -0.05051568 0.011245625)
(0.20918357 -0.052055623 0.012437723)
(0.22223806 -0.05359186 0.01367897)
(0.23555578 -0.055061454 0.014938735)
(0.24910412 -0.056463194 0.01622884)
(0.26288883 -0.057823258 0.017546499)
(0.2768178 -0.059079769 0.018868762)
(0.29097184 -0.060242944 0.02017998)
(0.30522029 -0.061422889 0.021539786)
(0 0 0)
(0 0 0)
(0 0 0)
(0 0 0)
(0 0 0)
(0 0 0)
(0 0 0)
(-0.00053314127 0.00034982744 -0.00042008488)
(-0.001286713 0.00063724807 -0.00021254262)
(-0.0020036813 0.00039172444 5.7614189e-05)
(-0.0026359336 8.5503014e-05 0.000249536)
(-0.0032065445 -0.00030100767 0.00052357111)
(-0.003514529 -0.0009632981 0.00070189915)
(-0.0037100215 -0.0017179676 0.0010118701)
(-0.0036293413 -0.0025580989 0.0011475955)
(-0.003280606 -0.0037094421 0.0015009753)
(-0.0026322777 -0.0047302693 0.0016035031)
(-0.0016539853 -0.0061920328 0.0020011617)
(-0.00030634707 -0.0074508219 0.0021663892)
(0.0013817537 -0.0089441573 0.0024486695)
(0.0036335221 -0.01059047 0.0026856517)
(0.0060991633 -0.012057343 0.0029031562)
(0.0092157368 -0.013945463 0.0031832133)
(0.012593816 -0.015514189 0.0033904028)
(0.016568202 -0.017462779 0.0036661632)
(0.020893383 -0.01918924 0.0038982968)
(0.025750893 -0.021150042 0.0041730113)
(0.031010215 -0.022991691 0.0044368376)
(0.036758147 -0.024974164 0.004738057)
(0.042932977 -0.026887841 0.0050389014)
(0.049554359 -0.028880609 0.0053838727)
(0.056625489 -0.030863294 0.0057324081)
(0.064148706 -0.032861139 0.0061050699)
(0.07204955 -0.034916053 0.0065543546)
(0.080376325 -0.036931456 0.0070191146)
(0.089111806 -0.03897298 0.0075420747)
(0.098256107 -0.041009998 0.0081004341)
(0.10779072 -0.043039273 0.0086985514)
(0.11771528 -0.04506608 0.0093464848)
(0.12801923 -0.047086224 0.010037124)
(0.13869536 -0.04907865 0.010767645)
(0.14973151 -0.051058719 0.011538961)
(0.16112966 -0.053008839 0.012348753)
(0.17286045 -0.054901391 0.013175879)
(0.18492696 -0.056792944 0.014058118)
(0.19730724 -0.058595656 0.014937846)
(0.21000542 -0.060354174 0.015849753)
(0.22297067 -0.062037745 0.01676112)
(0.23623201 -0.063645213 0.017686582)
(0.24970747 -0.06515327 0.018606668)
(0.26343885 -0.0665764 0.019526924)
(0.27733005 -0.067874156 0.020431085)
(0.29144348 -0.069067372 0.021345425)
(0.30562085 -0.070274426 0.022194494)
(0.32125128 -0.056627202 0.022884627)
(0.32157659 -0.042909569 0.023023352)
(0.32218232 -0.029409997 0.023327215)
(0.32286052 -0.016169671 0.023602788)
(0.32358166 -0.0028501821 0.024025052)
(0.32453828 0.010536405 0.024235363)
(0.32576789 0.02418888 0.024488357)
(0.31177241 0.039670517 0.022693149)
(0.29735716 0.04000542 0.021417322)
(0.28321318 0.040393469 0.020057292)
(0.2691665 0.04066277 0.018759856)
(0.25527737 0.040799496 0.017424454)
(0.2415874 0.040823378 0.016117707)
(0.2281268 0.040728282 0.014843895)
(0.21490896 0.040525702 0.013596593)
(0.20196939 0.040220319 0.012385439)
(0.18932401 0.039827456 0.011217997)
(0.17698046 0.039329303 0.010103997)
(0.16502636 0.038711952 0.0090442145)
(0.15333869 0.038088168 0.0080238616)
(0.14204432 0.037328185 0.0070629619)
(0.13111364 0.036514983 0.0061551713)
(0.12056605 0.035613983 0.0053095092)
(0.11040041 0.03465373 0.0045170743)
(0.10063926 0.033611276 0.0037804396)
(0.091277286 0.032511929 0.003098996)
(0.082335985 0.031333581 0.0024720841)
(0.073810007 0.030108419 0.0018880016)
(0.065710601 0.028804458 0.0013597983)
(0.058051348 0.027459736 0.00086963357)
(0.050824312 0.026040471 0.00042652093)
(0.044051059 0.024598194 1.3376293e-05)
(0.037725798 0.023080805 -0.00034781908)
(0.031856516 0.021564441 -0.00069707224)
(0.026452796 0.019976724 -0.00098068234)
(0.021509342 0.018411683 -0.0012642906)
(0.017035349 0.016796972 -0.0014837842)
(0.013019529 0.015215462 -0.0016928893)
(0.0094739571 0.013627161 -0.0018557379)
(0.0063642024 0.012084748 -0.0019776216)
(0.0037530191 0.010514576 -0.0020562252)
(0.001550381 0.009079349 -0.0021313473)
(-0.00023772749 0.00766536 -0.0021026315)
(-0.0016386254 0.0063729398 -0.0021062092)
(-0.0026224335 0.0050947015 -0.0020073015)
(-0.0033311268 0.0040216445 -0.0019181344)
(-0.0036232766 0.0029115624 -0.0017577041)
(-0.0037181584 0.0021464954 -0.0015712884)
(-0.0035068001 0.0012928261 -0.0013244038)
(-0.0031527111 0.00075947259 -0.001104926)
(-0.0025916715 0.00019800338 -0.0007705451)
(-0.0019105403 -6.9962198e-05 -0.00052163233)
(-0.0012412944 -0.00027984497 -0.00020272918)
(-0.00041908979 -0.00037828929 0.00013798683)
(0 0 0)
(0 0 0)
(0 0 0)
(0 0 0)
(0 0 0)
(0 0 0)
(0 0 0)
(0 0 0)
(0 0 0)
(0 0 0)
(0 0 0)
(0 0 0)
(0 0 0)
(0 0 0)
(0.32022852 -0.063806156 0.022918037)
(0.32034815 -0.064996762 0.022910869)
(0.32041403 -0.0661084 0.022913784)
(0.32048174 -0.067229043 0.022948014)
(0.32053173 -0.068318556 0.022983788)
(0.32055316 -0.069354912 0.023022669)
(0.3205915 -0.070444131 0.022955732)
(0.326524 0.046940413 0.024517813)
(0.32660847 0.04582289 0.024530744)
(0.3266789 0.044746014 0.024445055)
(0.32675714 0.043656825 0.024389514)
(0.326813 0.042554105 0.02432884)
(0.32684087 0.041392307 0.024282193)
(0.32691976 0.04031202 0.024300921)
(-0.00048520218 9.1494636e-05 -2.6563495e-05)
(-0.0013613138 0.00027873458 0.000171752)
(-0.0021858431 0.00046884379 0.0003487645)
(-0.0029050696 0.00077023371 0.00055003028)
(-0.0035519046 0.0012065387 0.00074352476)
(-0.0039807797 0.0017489835 0.00096858879)
(-0.0043244034 0.0023857055 0.0011929355)
(-0.0042915509 0.0031820435 0.0014168009)
(-0.0040908996 0.0040197893 0.0016392991)
(-0.0034726104 0.004968787 0.0018951546)
(-0.0025977717 0.0060290951 0.002135342)
(-0.0012584823 0.0070984946 0.0023645936)
(0.00041346785 0.0083150829 0.0026317367)
(0.0025671722 0.009505186 0.0028795288)
(0.0051318189 0.010781163 0.0031323636)
(0.0081714679 0.012063853 0.0033983734)
(0.011665545 0.013400516 0.0036591721)
(0.015637957 0.01471268 0.0039340316)
(0.020076305 0.016064699 0.0042107829)
(0.025001288 0.017395321 0.0045007211)
(0.030392235 0.018727651 0.0048055313)
(0.036254149 0.02004631 0.0051240519)
(0.042587424 0.021348447 0.0054676425)
(0.049360848 0.022614946 0.0058346192)
(0.056616559 0.023879429 0.0062303941)
(0.064306251 0.025082452 0.0066446833)
(0.072428379 0.026260599 0.0071034237)
(0.080984962 0.027407137 0.0076040935)
(0.089965955 0.028488286 0.0081380035)
(0.099345335 0.029530279 0.0087196073)
(0.10913903 0.030519102 0.0093431926)
(0.1193227 0.031436639 0.010012255)
(0.12988491 0.032295899 0.010724235)
(0.14083215 0.033082497 0.011480923)
(0.15213894 0.033782019 0.012276405)
(0.16378235 0.034407988 0.013110634)
(0.17579875 0.034948607 0.013968247)
(0.18809981 0.035360923 0.014885034)
(0.20074788 0.035729143 0.015788133)
(0.21367217 0.035911037 0.016754183)
(0.22685492 0.036100391 0.017678577)
(0.24031821 0.03598709 0.01870055)
(0.25400132 0.035984772 0.019591826)
(0.26784969 0.035679778 0.020625172)
(0.28195513 0.035252372 0.021560643)
(0.29604145 0.034899564 0.022478094)
(0.31042265 0.033980865 0.023360432)
(-0.00057234451 8.6125903e-05 1.7879374e-05)
(-0.0013819661 0.00025634183 5.7770075e-05)
(-0.0022341292 0.00045898633 0.00018760793)
(-0.0029578275 0.00066064633 0.00029659176)
(-0.0036528502 0.0010160972 0.00044877537)
(-0.0042029917 0.0013503112 0.00060516822)
(-0.0045225692 0.0018778735 0.00075137392)
(-0.0045894372 0.0023735874 0.0008990934)
(-0.0044139482 0.0030103539 0.0011076199)
(-0.0038878778 0.003652473 0.0012778635)
(-0.0029920806 0.0044172851 0.0014479087)
(-0.0017413833 0.0051338212 0.001680721)
(-6.1452465e-05 0.0060016886 0.0018703188)
(0.0020657239 0.006787843 0.0020948493)
(0.0046183889 0.0076947467 0.0023280766)
(0.0076257184 0.008554589 0.0025592191)
(0.011101667 0.0094836219 0.0028017083)
(0.015033411 0.010369677 0.0030650994)
(0.019461352 0.011301967 0.0033288868)
(0.02435365 0.012193503 0.0036168212)
(0.029731327 0.01309581 0.0039179376)
(0.035581583 0.013982284 0.0042299987)
(0.041878921 0.014838234 0.0045795372)
(0.048664348 0.015708683 0.0049390951)
(0.055889304 0.016517712 0.0053309739)
(0.063539963 0.017329244 0.0057787645)
(0.071645451 0.018093178 0.0062529187)
(0.080182785 0.018820719 0.0067513387)
(0.08911894 0.019524659 0.0073189734)
(0.098488346 0.020172876 0.007911298)
(0.1082549 0.020784429 0.0085529299)
(0.11841414 0.021331756 0.009248011)
(0.12896497 0.021837338 0.009976094)
(0.13989285 0.022269787 0.01075818)
(0.1511764 0.022643742 0.011577489)
(0.1628298 0.022941962 0.012438324)
(0.17482482 0.023184306 0.013330572)
(0.18711179 0.023276297 0.014280512)
(0.1997853 0.023428185 0.015188868)
(0.21265667 0.023292895 0.016217964)
(0.22592169 0.023276799 0.017160322)
(0.23934138 0.022980512 0.018199597)
(0.25308454 0.022749773 0.019171448)
(0.26693523 0.02226192 0.020224689)
(0.28106116 0.021755791 0.021183793)
(0.29525794 0.021088532 0.022140599)
(0.30977027 0.02024392 0.023029039)
(-0.00078592823 6.7931411e-05 9.2782917e-05)
(-0.0015485724 0.00020187766 0.00011558829)
(-0.0024047029 0.0003062286 0.00016099171)
(-0.0031563076 0.00049240863 0.00019138789)
(-0.0039238505 0.00066779304 0.00027411201)
(-0.0043806127 0.00097172601 0.00030004064)
(-0.0047713343 0.0012050827 0.00037666022)
(-0.004813517 0.0015914264 0.00047782392)
(-0.0046741905 0.0018988373 0.00058080694)
(-0.0040604353 0.0023436462 0.00065224721)
(-0.0032727692 0.0027438214 0.00083366767)
(-0.0019777434 0.0031839881 0.00096843046)
(-0.00034351897 0.0036800873 0.0011155926)
(0.0017427895 0.0041275384 0.0013269974)
(0.0042453203 0.0046491928 0.0015207687)
(0.0072417822 0.0051352423 0.0017193466)
(0.010679611 0.0056509162 0.0019601514)
(0.014610201 0.0061476031 0.0021826356)
(0.019010404 0.0066483388 0.002451796)
(0.02387673 0.0071340583 0.0027225313)
(0.029218544 0.0076199423 0.003025813)
(0.035008556 0.0080757383 0.0033535495)
(0.041303529 0.0085491186 0.0037053117)
(0.048028803 0.0089580491 0.0040803229)
(0.055206348 0.0093767693 0.004515373)
(0.062837525 0.0097588548 0.004951703)
(0.070931363 0.010121372 0.0054201595)
(0.07942965 0.010452518 0.00595657)
(0.088367539 0.010756985 0.0065140738)
(0.097717327 0.011017837 0.007116315)
(0.10746172 0.011247673 0.0077780651)
(0.11761513 0.011430396 0.0084733548)
(0.12814958 0.011568198 0.0092199846)
(0.13906128 0.011658749 0.010013451)
(0.15034691 0.011682335 0.010849319)
(0.16198878 0.011678801 0.011718024)
(0.17396081 0.011552749 0.01264602)
(0.18629963 0.011458541 0.013571447)
(0.19893246 0.011209503 0.014556778)
(0.21186337 0.010906857 0.015587797)
(0.22508998 0.010638258 0.016547997)
(0.23853958 0.01008059 0.017684672)
(0.25228102 0.0097048508 0.018632829)
(0.26617698 0.0090135854 0.019776218)
(0.28038671 0.0083846038 0.020729646)
(0.29461625 0.0076570091 0.021787884)
(0.30906491 0.0067966033 0.022785829)
(-0.00077683941 5.921699e-05 9.6527528e-06)
(-0.0014458954 6.3416746e-05 -2.9059382e-05)
(-0.0023986005 0.00014174812 -5.0864588e-05)
(-0.0031299224 0.00019699433 -6.0667922e-05)
(-0.0038489432 0.00030266327 -0.0001011649)
(-0.004415582 0.0003957967 -9.3270868e-05)
(-0.0047623311 0.00050533126 -7.8640516e-05)
(-0.0049162828 0.0006368114 -5.049202e-05)
(-0.0047028372 0.00076099074 -2.206373e-05)
(-0.0042703754 0.00089824314 0.00010377961)
(-0.0034152193 0.00099604895 0.00018546949)
(-0.0021681118 0.0011422554 0.00026388711)
(-0.00054480183 0.0012770916 0.00040935591)
(0.0015444947 0.0013460154 0.0005633658)
(0.004049992 0.0015199685 0.00069470947)
(0.0070438385 0.0015722606 0.0009016573)
(0.01046486 0.0017268799 0.001079964)
(0.014385429 0.0017787964 0.001316366)
(0.018753773 0.0018778364 0.0015602883)
(0.023613306 0.0019345623 0.0018217824)
(0.028945816 0.0019757315 0.0021221014)
(0.034774196 0.0020304559 0.0024180388)
(0.041028825 0.0020254686 0.0027664007)
(0.047748928 0.0020388842 0.003145295)
(0.054928241 0.0020299964 0.003538999)
(0.06255818 0.0020084022 0.0039697172)
(0.070603299 0.0019656629 0.0044767788)
(0.079081485 0.0018904961 0.0050079279)
(0.087982732 0.001805974 0.0055774238)
(0.097293394 0.0016774049 0.0062185515)
(0.10701215 0.0015359774 0.0068843997)
(0.11713148 0.0013483446 0.0076128636)
(0.12763252 0.0011316598 0.0083824999)
(0.13852125 0.00087586197 0.0092048076)
(0.14977356 0.00058784811 0.010063015)
(0.16138288 0.00022812344 0.01098444)
(0.17335006 -0.00012413596 0.01192029)
(0.18562923 -0.00057616959 0.012915581)
(0.19823598 -0.0010746824 0.013954153)
(0.21111941 -0.001562174 0.014966175)
(0.22435228 -0.0021682344 0.016062674)
(0.2377759 -0.0028052591 0.017148137)
(0.25153564 -0.0033977694 0.018206214)
(0.26543623 -0.0042041653 0.019377462)
(0.27959706 -0.0048526637 0.020422063)
(0.29382307 -0.0056824901 0.021602865)
(0.30830393 -0.0064817554 0.022649294)
(-0.0007449591 -2.4886877e-05 -2.4406857e-06)
(-0.0015412965 -0.00015055613 2.5629955e-05)
(-0.002464302 -0.00012652824 -8.1924071e-05)
(-0.0031745577 -0.00016625404 -0.00020199448)
(-0.0040101305 -0.00020602922 -0.00026495948)
(-0.0044659114 -0.00018087805 -0.00038562123)
(-0.0049185962 -0.00032966546 -0.000408251)
(-0.0049214255 -0.00030095311 -0.00052424746)
(-0.0048372009 -0.0005158221 -0.00047600558)
(-0.0042733319 -0.00058574503 -0.000518974)
(-0.0034497644 -0.00078746552 -0.00052450842)
(-0.0022048041 -0.00090069631 -0.00045480718)
(-0.00057955807 -0.0011788324 -0.00036075895)
(0.0014891719 -0.0013507383 -0.00028006882)
(0.0039874659 -0.0016311744 -0.00012679522)
(0.0069458531 -0.001900131 2.7794538e-05)
(0.010367478 -0.0021843854 0.00021142413)
(0.014260698 -0.0025182507 0.00042046432)
(0.018621785 -0.0028218392 0.00064822956)
(0.023460143 -0.0031923741 0.00091214513)
(0.028766989 -0.0035234008 0.0011958639)
(0.034520314 -0.0039116998 0.0015210586)
(0.040760327 -0.0042924111 0.0018889329)
(0.047439333 -0.0047070366 0.0022630746)
(0.054594341 -0.0051276218 0.0026899228)
(0.062161428 -0.0055598116 0.0031653481)
(0.070189687 -0.0060218238 0.0036765827)
(0.078640657 -0.0064861034 0.0042084177)
(0.087515936 -0.0069707005 0.0048098605)
(0.096800864 -0.0074723441 0.0054400323)
(0.10649432 -0.0079928141 0.0061266289)
(0.11658613 -0.0085400028 0.0068622096)
(0.12706744 -0.0091165368 0.0076491818)
(0.13792759 -0.0096986201 0.0084742104)
(0.14915789 -0.010349986 0.0093682115)
(0.16075568 -0.010981208 0.010281325)
(0.17267954 -0.011677189 0.011253315)
(0.18497643 -0.012413524 0.012275955)
(0.19753799 -0.01313392 0.013281407)
(0.21049128 -0.013899576 0.014379054)
(0.22365374 -0.014713428 0.01547117)
(0.23712148 -0.015503623 0.016598379)
(0.25082724 -0.016357104 0.017732545)
(0.26473035 -0.017233674 0.018927909)
(0.2788849 -0.018035409 0.020041761)
(0.29318578 -0.018930166 0.021263974)
(0.30762078 -0.019735274 0.022430834)
(-0.00069101337 1.959634e-05 5.0070403e-05)
(-0.0014282753 -0.000180273 -3.4303087e-05)
(-0.0023642841 -0.00014693156 -0.00030956021)
(-0.0031394613 -0.00036727658 -0.00038298367)
(-0.0038704296 -0.00037290624 -0.00066196312)
(-0.0043941321 -0.00065972968 -0.00074779426)
(-0.0047293624 -0.00085085573 -0.00094643487)
(-0.0048306716 -0.0011560758 -0.0010328527)
(-0.0046301514 -0.0015417426 -0.0011093627)
(-0.0041187527 -0.001900986 -0.0011989482)
(-0.0032548607 -0.0023949817 -0.0011910109)
(-0.0020172333 -0.0029045203 -0.0011859605)
(-0.00037138866 -0.0034602207 -0.001165645)
(0.0017093726 -0.004079154 -0.001082384)
(0.0042001838 -0.0047056376 -0.00099402976)
(0.0071710197 -0.0053964164 -0.00085477975)
(0.010577303 -0.0060909833 -0.00071055309)
(0.014468612 -0.0068273777 -0.0005152416)
(0.018814857 -0.007582971 -0.0002967392)
(0.023637744 -0.008355819 -5.1953347e-05)
(0.02891509 -0.0091664855 0.00023378384)
(0.034691607 -0.009927831 0.00054956267)
(0.040868103 -0.010771568 0.00089900227)
(0.047559557 -0.011648368 0.0012773081)
(0.054654561 -0.012476043 0.0017146004)
(0.062212415 -0.013361109 0.0021673948)
(0.070210283 -0.014208916 0.002669308)
(0.078622554 -0.015086165 0.0032280244)
(0.087455243 -0.015956975 0.0038243802)
(0.096708756 -0.016853657 0.0044779531)
(0.10636317 -0.017759163 0.0051814107)
(0.11641661 -0.018677935 0.0059394199)
(0.12685908 -0.019607645 0.0067452889)
(0.13768383 -0.020566666 0.0076088496)
(0.14887855 -0.021517464 0.0085146957)
(0.1604264 -0.022506384 0.0094747042)
(0.17233964 -0.023499095 0.010482513)
(0.18455738 -0.024488772 0.011517618)
(0.19713846 -0.02553406 0.012618635)
(0.20998335 -0.026550251 0.013725347)
(0.22312188 -0.027562813 0.014884281)
(0.23655458 -0.028558231 0.016043175)
(0.25019004 -0.029615973 0.017269012)
(0.26409495 -0.030549835 0.018456931)
(0.27815715 -0.031511444 0.0197014)
(0.29242166 -0.032422455 0.020991437)
(0.30681796 -0.033189837 0.022284498)
(-0.00049356959 -8.9405613e-05 0.00010015293)
(-0.0013779227 -0.00022727783 -8.4863865e-05)
(-0.0023230864 -0.00028414353 -0.00031538649)
(-0.0030657431 -0.00042638345 -0.0006034959)
(-0.0038372906 -0.00065696378 -0.00087804033)
(-0.0042624445 -0.0010006598 -0.0010841377)
(-0.0046589569 -0.0014207754 -0.0013483826)
(-0.0046674696 -0.0019123495 -0.001488635)
(-0.0044902095 -0.0025633029 -0.0016725799)
(-0.003953546 -0.0031645014 -0.0017827695)
(-0.0030498037 -0.004040014 -0.001834343)
(-0.0018342865 -0.0047725889 -0.0019419342)
(-0.00012653024 -0.0057708095 -0.0018886432)
(0.0019156637 -0.0066967568 -0.0018921909)
(0.0044443252 -0.0077506122 -0.0018098287)
(0.0073945918 -0.0088149758 -0.0017153778)
(0.010809531 -0.009934448 -0.0015784846)
(0.014693291 -0.01109174 -0.0013969101)
(0.019022031 -0.012272061 -0.0012036827)
(0.02383512 -0.013479674 -0.00095347773)
(0.029103233 -0.014702852 -0.00068628575)
(0.034813257 -0.015943092 -0.00036873329)
(0.041019849 -0.01718638 -2.2870288e-05)
(0.047654957 -0.01846653 0.00037500461)
(0.054728856 -0.01972484 0.00078804393)
(0.062253927 -0.020996831 0.0012548104)
(0.070206109 -0.022273572 0.0017888952)
(0.078581523 -0.023539659 0.0023442488)
(0.087390421 -0.024817528 0.0029586833)
(0.096604259 -0.026099899 0.0036265759)
(0.1062203 -0.027382954 0.004342532)
(0.11623941 -0.028668462 0.0051149839)
(0.12664068 -0.029967732 0.0059425337)
(0.13742853 -0.031253284 0.0068175458)
(0.14857825 -0.032564178 0.0077544891)
(0.16009822 -0.033858542 0.0087326707)
(0.17195173 -0.035156815 0.0097572909)
(0.18416813 -0.036464608 0.01084759)
(0.19667463 -0.03774797 0.011944503)
(0.20950576 -0.039036898 0.013107053)
(0.22260931 -0.040282458 0.014286774)
(0.23599998 -0.0415337 0.015514836)
(0.24960171 -0.042739921 0.016755723)
(0.26346049 -0.043863833 0.017996797)
(0.2774511 -0.04501359 0.019317406)
(0.29167603 -0.045999446 0.020581238)
(0.30597551 -0.046883467 0.02194986)
(0 0 0)
(0 0 0)
(0 0 0)
(0 0 0)
(0 0 0)
(0 0 0)
(0 0 0)
(0 0 0)
(0 0 0)
(0 0 0)
(0 0 0)
(0 0 0)
(0 0 0)
(0 0 0)
(0 0 0)
(0 0 0)
(0 0 0)
(0 0 0)
(0 0 0)
(0 0 0)
(0 0 0)
(0 0 0)
(0 0 0)
(0 0 0)
(0 0 0)
(0 0 0)
(0 0 0)
(0 0 0)
(0 0 0)
(0 0 0)
(0 0 0)
(0 0 0)
(0 0 0)
(0 0 0)
(0 0 0)
(0 0 0)
(0 0 0)
(0 0 0)
(0 0 0)
(0 0 0)
(0 0 0)
(0 0 0)
(0 0 0)
(0 0 0)
(0 0 0)
(0 0 0)
(0 0 0)
(0 0 0)
(0 0 0)
(-0.00062357789 0.0002426189 0.00014021108)
(-0.00062385098 0.00029117534 1.0330138e-05)
(-0.00066842448 0.00028825264 -2.8537624e-05)
(-0.00067562793 0.00030026854 -8.1837676e-05)
(-0.00065700658 0.00027657356 -0.00010199908)
(-0.00065723701 0.0002762887 -0.00013134764)
(-0.00062604942 0.0002517226 -0.00021056735)
(-0.0014192839 0.00071489547 -9.4180241e-05)
(-0.0014224709 0.00073247972 -0.00013742892)
(-0.0013883767 0.0006489919 -0.00015098445)
(-0.0013443541 0.00059865689 -0.00013399849)
(-0.00137887 0.00061707607 -0.00013439842)
(-0.0013344045 0.00061337385 -0.00012755311)
(-0.0013544719 0.00066043677 -0.00018799809)
(-0.0021591043 0.00068768264 -0.00040480195)
(-0.0020789548 0.00067995966 -0.00036339379)
(-0.0020359172 0.00065237483 -0.00026217519)
(-0.001990601 0.0006158968 -0.00027774964)
(-0.0019471132 0.00057563444 -0.00015215737)
(-0.0019687454 0.00056562652 -9.7574199e-05)
(-0.0020069163 0.00056663726 -3.6019702e-05)
(-0.002752923 0.00035910612 -0.00066105106)
(-0.0026704915 0.0003263952 -0.00053223629)
(-0.0025466306 0.00029327289 -0.00044348012)
(-0.0024842255 0.00025144254 -0.00030991925)
(-0.0024696174 0.00025216245 -0.00015705673)
(-0.0025144815 0.00020455477 -7.662469e-05)
(-0.0025200662 0.00021774215 0.000110483)
(-0.0033860859 0.0001094914 -0.00098630032)
(-0.0031693974 8.5561291e-05 -0.00078983206)
(-0.0030215186 8.6474745e-05 -0.00056364598)
(-0.002943126 4.3442155e-05 -0.00035562584)
(-0.002912553 -5.877888e-05 -0.00014596352)
(-0.002931726 -7.32665e-05 5.4966196e-05)
(-0.0030435434 -0.00012264336 0.00029856954)
(-0.0036843931 -0.00059302184 -0.0012121746)
(-0.0034536137 -0.00060038435 -0.00099085289)
(-0.0032647209 -0.0006140479 -0.00066591363)
(-0.0031881128 -0.00069316315 -0.00048683107)
(-0.0031245682 -0.00067881944 -0.00012464421)
(-0.003256001 -0.00073876136 0.00010564267)
(-0.0033197398 -0.00078994131 0.00041189928)
(-0.0039338365 -0.0011222163 -0.0014875702)
(-0.0036411093 -0.001107745 -0.0011203523)
(-0.0034246567 -0.0011976052 -0.00083221227)
(-0.0032710671 -0.0012219226 -0.0004404211)
(-0.0032561257 -0.0013432889 -0.0001109137)
(-0.0032762478 -0.0014544821 0.00023046642)
(-0.0034430348 -0.001505073 0.00065836191)
(-0.0038480379 -0.0020414483 -0.0016467254)
(-0.003474769 -0.0021259048 -0.0013323948)
(-0.00320734 -0.0021358543 -0.00083616204)
(-0.0031114176 -0.002208124 -0.00048058758)
(-0.0030787538 -0.0022391191 -8.3834742e-05)
(-0.0031478 -0.0023169217 0.00033869088)
(-0.003366508 -0.0023726902 0.00074601044)
(-0.003508127 -0.002936669 -0.0018635945)
(-0.0031474523 -0.0029075991 -0.0013569826)
(-0.0028721673 -0.0030015299 -0.00092695304)
(-0.0026983178 -0.0031304284 -0.00047859823)
(-0.0026588409 -0.0032575339 2.4694067e-05)
(-0.002724309 -0.0033725096 0.00048250899)
(-0.0029160857 -0.0035112694 0.0010181323)
(-0.0029087998 -0.0039767331 -0.0019566247)
(-0.0024418964 -0.0041245 -0.0014914316)
(-0.0021304675 -0.0041676616 -0.0010021763)
(-0.0019271651 -0.0043246277 -0.00043700269)
(-0.0019140515 -0.0043628415 5.1295699e-05)
(-0.0020204254 -0.0044797782 0.00057977721)
(-0.0022555951 -0.0045432823 0.0011106083)
(-0.0018933484 -0.0051779157 -0.0020506637)
(-0.0014473407 -0.0052375018 -0.0015216744)
(-0.0011086559 -0.0053368533 -0.00089984643)
(-0.00095158126 -0.0054119127 -0.00038704988)
(-0.00091045812 -0.005589807 0.00019340284)
(-0.00099895958 -0.0057210535 0.00075558116)
(-0.0012349699 -0.0059162744 0.0013919841)
(-0.00060565389 -0.0063685475 -0.0021488135)
(-5.4937937e-05 -0.006547825 -0.0015272661)
(0.00030411843 -0.0066786804 -0.0009702432)
(0.00054400482 -0.0069151213 -0.00034761965)
(0.00059329801 -0.0070266933 0.00030226988)
(0.00045185223 -0.0071439127 0.00086487463)
(0.00020913538 -0.0072870555 0.0015826005)
(0.001185349 -0.0078038709 -0.0021036145)
(0.0016737499 -0.0079273903 -0.0014729451)
(0.0020530804 -0.0080679305 -0.00084999221)
(0.0022425346 -0.0081621219 -0.00019367325)
(0.0022829233 -0.0083064089 0.00044399831)
(0.0021398709 -0.0085145362 0.001078318)
(0.0018800105 -0.0086774497 0.0017889356)
(0.003276015 -0.0091718626 -0.0021286202)
(0.0038412603 -0.0093850214 -0.0014601672)
(0.004274311 -0.0095705208 -0.00081933355)
(0.0045124737 -0.0098043772 -0.00013700419)
(0.0045640312 -0.010027938 0.00058263789)
(0.0044392398 -0.010195457 0.0012102619)
(0.004164113 -0.010362919 0.0020093123)
(0.0058507468 -0.010739307 -0.0020494977)
(0.0064156962 -0.010929088 -0.0013327755)
(0.0068327067 -0.011093225 -0.00068027335)
(0.0070322535 -0.011271849 6.4843335e-05)
(0.0071004256 -0.011440204 0.00074035079)
(0.0069343298 -0.011623489 0.0014412442)
(0.006660306 -0.011849012 0.0022123229)
(0.0088404163 -0.012269865 -0.0019652081)
(0.0094361117 -0.012505146 -0.0012475149)
(0.0098760405 -0.012734224 -0.00056076692)
(0.010143712 -0.013002985 0.00015496111)
(0.010188238 -0.013234281 0.00092224578)
(0.010065113 -0.013497013 0.0016035333)
(0.0097593463 -0.013663335 0.002447845)
(0.012266306 -0.013896192 -0.001834891)
(0.01285946 -0.014143837 -0.0010764409)
(0.013331907 -0.014385217 -0.00040552792)
(0.01353707 -0.014592869 0.0003892129)
(0.013626986 -0.014854066 0.0011138233)
(0.013454641 -0.015034617 0.0018387409)
(0.013178102 -0.015315903 0.0026689229)
(0.016155623 -0.015545946 -0.0016626171)
(0.01679174 -0.015848844 -0.0009350052)
(0.017244258 -0.016091913 -0.0002079201)
(0.017516998 -0.016419467 0.00054667231)
(0.017569969 -0.016662912 0.0013109947)
(0.01744237 -0.016975438 0.0020468275)
(0.017127885 -0.017176632 0.002907407)
(0.020498788 -0.017238827 -0.0014814825)
(0.021099574 -0.017517535 -0.00070809764)
(0.021607778 -0.017835324 -1.6205181e-06)
(0.021816667 -0.01809262 0.00078499771)
(0.021924509 -0.018415293 0.0015530607)
(0.021751465 -0.01864608 0.0022954342)
(0.021476019 -0.018959455 0.0031468628)
(0.025280592 -0.018937823 -0.0012320955)
(0.025942158 -0.019301922 -0.00048323434)
(0.026404663 -0.019594849 0.00023491383)
(0.026678947 -0.019969231 0.0010229305)
(0.026748521 -0.020254532 0.0017848259)
(0.026617899 -0.020606594 0.0025394207)
(0.026315355 -0.020860798 0.0034046002)
(0.030548231 -0.020680859 -0.00097627224)
(0.031156712 -0.021011816 -0.000218713)
(0.031677284 -0.02139461 0.00050696517)
(0.03190246 -0.021714479 0.0012866141)
(0.032017179 -0.022088858 0.00205935)
(0.031855681 -0.022384214 0.0028161484)
(0.031579265 -0.022719824 0.0036725382)
(0.036233105 -0.022405477 -0.00066822937)
(0.036893884 -0.022828063 8.5181019e-05)
(0.037376036 -0.023189032 0.00080101245)
(0.037644998 -0.023606505 0.0015835834)
(0.037731264 -0.023948191 0.0023529215)
(0.037596661 -0.024336979 0.0031075939)
(0.037312803 -0.024656068 0.0039674968)
(0.04240648 -0.024182267 -0.00032169806)
(0.043022248 -0.024575041 0.0004210691)
(0.04354218 -0.025012254 0.0011319224)